FOO
141312
    1MOL0     O    1   5.122   6.127   8.906  0.3266 -0.1467  0.2911
    1MOL0     C    2   5.046   6.068   8.985 -0.1842 -1.0292  0.1813
    1MOL0     O    3   4.932   5.994   8.949 -0.5171 -0.3287 -0.0838
    1MOL0     C    4   4.901   6.003   8.811 -0.3549  1.2034 -0.5451
    1MOL0     C    5   4.894   5.893   8.723 -0.2788  0.6973  0.3826
    1MOL0     C    6   4.873   5.902   8.592 -0.4239 -1.0453 -0.4358
    1MOL0     C    7   4.837   6.026   8.537 -0.2736  0.6878 -0.4515
    1MOL0     O    8   4.807   6.039   8.408  0.0147  0.1481 -0.2648
    1MOL0     C    9   4.896   6.131   8.334  0.7771 -0.5932 -0.1088
    1MOL0     C   10   4.803   6.187   8.222 -1.4127  0.5293  0.0161
    1MOL0     C   11   4.761   6.079   8.128  0.9104  0.6847  0.2094
    1MOL0     C   12   4.695   6.147   8.007 -0.5753 -0.1133  0.3730
    1MOL0     C   13   4.617   6.061   7.912 -1.5527  0.0139 -0.0106
    1MOL0     C   14   4.554   6.147   7.791 -0.7156  0.6721 -0.2031
    1MOL0     C   15   4.477   6.073   7.694  0.9799  0.5111 -0.2858
    1MOL0     C   16   4.401   6.162   7.590 -0.5179  0.2504 -0.8690
    1MOL0     N   17   4.481   6.243   7.501 -0.4755  0.0657  0.7851
    1MOL0     C   18   4.493   6.232   7.361 -0.5785 -0.5830  0.6153
    1MOL0     C   19   4.547   6.350   7.326  0.1944  0.7090 -0.1697
    1MOL0     C   20   4.572   6.380   7.185 -0.2955  0.3171  0.0098
    1MOL0     C   21   4.432   6.402   7.119 -0.0268  0.3754 -0.2097
    1MOL0     C   22   4.431   6.479   6.991  0.0642 -0.0292 -0.4421
    1MOL0     C   23   4.490   6.621   7.023 -1.0150 -0.2377  0.8043
    1MOL0     O   24   4.418   6.703   6.933 -0.1352 -0.1974  1.0424
    1MOL0     C   25   4.453   6.718   6.802 -0.1064 -0.5514  0.3344
    1MOL0     C   26   4.557   6.672   6.727  0.4740  0.0090  0.3316
    1MOL0     C   27   4.568   6.699   6.588 -0.3767  0.3890  0.1188
    1MOL0     C   28   4.678   6.616   6.518  1.0463 -0.2084 -0.4463
    1MOL0     C   29   4.471   6.781   6.525  0.2199 -0.5234  0.1355
    1MOL0     C   30   4.476   6.817   6.384  0.3462 -0.3952  0.5057
    1MOL0     O   31   4.599   6.813   6.311  0.1387 -0.2632 -0.1671
    1MOL0     C   32   4.590   6.840   6.172  0.6834  0.0621 -1.3753
    1MOL0     C   33   4.630   6.964   6.124  0.3964  0.5478  0.0995
    1MOL0     C   34   4.598   7.008   5.989 -0.3295  0.5273 -0.1317
    1MOL0     C   35   4.537   6.916   5.904  0.4151 -0.1152  0.2362
    1MOL0     O   36   4.501   6.955   5.777  0.9216 -0.3034  0.3031
    1MOL0     C   37   4.478   7.095   5.739 -1.5735  0.6119  0.0490
    1MOL0     C   38   4.433   7.091   5.592 -0.5845  0.2875 -0.2688
    1MOL0     C   39   4.454   7.238   5.525 -0.0517  0.0698  0.3433
    1MOL0     C   40   4.468   7.243   5.372  0.3415 -0.2130  0.6425
    1MOL0     C   41   4.483   7.383   5.299  0.1410  0.4929 -0.4209
    1MOL0     C   42   4.384   7.482   5.333  0.6948 -0.3405  0.4901
    1MOL0     C   43   4.407   7.613   5.271 -0.4322 -0.2371  0.3683
    1MOL0     C   44   4.275   7.691   5.234 -0.2463  0.1323 -0.3261
    1MOL0    Cl   45   4.198   7.747   5.389 -0.2541 -0.5273  0.2324
    1MOL0     C   46   4.498   6.795   5.957 -0.0684  0.7833  1.4896
    1MOL0     C   47   4.513   6.758   6.087 -0.7944 -0.3813 -0.3086
    1MOL0     O   48   4.365   6.834   6.336  0.1983 -0.5917  0.0748
    1MOL0     C   49   4.371   6.838   6.606 -1.6907  0.0756  0.8400
    1MOL0     C   50   4.362   6.799   6.735 -0.0874 -0.0354 -0.2217
    1MOL0     N   51   4.561   6.425   7.433 -0.8806 -0.5423 -0.1895
    1MOL0     N   52   4.530   6.361   7.536  0.1193 -0.5264  0.0166
    1MOL0     C   53   4.828   6.140   8.628  0.2736 -1.0031  0.2100
    1MOL0     C   54   4.869   6.125   8.757 -0.0272 -0.2606 -1.6015
    1MOL0     C   55   5.074   6.106   9.126  0.7249 -0.4880 -0.0585
    1MOL0     C   56   5.198   6.154   9.169  0.2246  0.0597  0.4615
    1MOL0     C   57   5.231   6.182   9.303  0.1773  0.5589 -0.2431
    1MOL0     C   58   5.134   6.171   9.404 -0.7608  0.5657 -0.6077
    1MOL0     O   59   5.165   6.181   9.541 -0.3422  0.0008  0.5166
    1MOL0     C   60   5.152   6.049   9.612 -0.3131 -0.2611  0.9928
    1MOL0     C   61   5.254   5.937   9.573 -0.0582  1.0369 -0.2137
    1MOL0     C   62   5.399   5.981   9.590 -0.4486  0.0735 -1.0499
    1MOL0     C   63   5.487   5.846   9.605 -0.5052 -1.5659 -0.3082
    1MOL0     C   64   5.623   5.888   9.652  0.8151 -0.3362 -0.8168
    1MOL0     C   65   5.732   5.918   9.698 -1.0603  0.3046  0.7021
    1MOL0     C   66   5.006   6.126   9.364  0.1346  0.2027  0.2435
    1MOL0     C   67   4.970   6.101   9.231  0.4745  0.4068 -0.7372
    1MOL0     C   68   4.825   6.050   9.199 -0.6312 -0.6839 -0.2669
    1MOL0     H   69   4.899   5.799   8.776 -2.1044  0.5751  0.3901
    1MOL0     H   70   4.858   5.816   8.528  0.2056 -0.7347 -1.0260
    1MOL0     H   71   4.984   6.073   8.303  2.4200  1.1242  1.1192
    1MOL0     H   72   4.923   6.218   8.394  0.4382 -2.6005  3.1708
    1MOL0     H   73   4.719   6.236   8.273 -1.0706 -0.7121  1.8723
    1MOL0     H   74   4.863   6.260   8.166  1.5744 -2.4195 -0.9302
    1MOL0     H   75   4.857   6.033   8.101  0.8195 -0.2892  1.4381
    1MOL0     H   76   4.698   5.999   8.167 -0.8609  2.2684  0.6886
    1MOL0     H   77   4.631   6.227   8.046  0.1637  1.3883 -1.3580
    1MOL0     H   78   4.771   6.202   7.950 -2.7913  1.0901 -1.6140
    1MOL0     H   79   4.539   6.020   7.976 -2.2687 -2.2163 -2.1352
    1MOL0     H   80   4.669   5.975   7.870 -3.2943 -2.3570  2.3609
    1MOL0     H   81   4.476   6.209   7.836 -0.3487 -0.4098  2.0553
    1MOL0     H   82   4.631   6.209   7.744  0.4789 -0.6697 -0.1093
    1MOL0     H   83   4.405   6.006   7.742  0.1446  2.1487  0.8279
    1MOL0     H   84   4.549   6.014   7.636  2.0119  0.6854  0.7757
    1MOL0     H   85   4.321   6.114   7.534  0.0841 -0.5016 -1.1090
    1MOL0     H   86   4.335   6.218   7.657 -0.2200 -0.6321  0.1733
    1MOL0     H   87   4.461   6.159   7.287  1.8621 -0.4614 -0.6585
    1MOL0     H   88   4.630   6.298   7.142  2.7954  0.2299  3.8021
    1MOL0     H   89   4.639   6.466   7.188  0.9739 -0.6183 -0.5438
    1MOL0     H   90   4.403   6.299   7.097  1.6206 -0.0427 -0.5668
    1MOL0     H   91   4.368   6.438   7.200  0.0370  0.9607 -0.4109
    1MOL0     H   92   4.495   6.431   6.916  2.9399  0.5119  1.5020
    1MOL0     H   93   4.340   6.474   6.931 -0.5464 -2.1409  0.5677
    1MOL0     H   94   4.485   6.650   7.128  3.3594  1.7925  0.7017
    1MOL0     H   95   4.598   6.632   7.006 -0.5212 -0.5054  3.3997
    1MOL0     H   96   4.615   6.591   6.770 -2.7828 -0.7147  3.9207
    1MOL0     H   97   4.704   6.540   6.593 -0.3720  2.4394  3.0635
    1MOL0     H   98   4.763   6.677   6.486  1.6694 -2.0945 -2.6308
    1MOL0     H   99   4.642   6.569   6.427  3.2797 -0.7649 -1.0967
    1MOL0     H  100   4.697   7.025   6.184  1.6974  2.1030 -2.7552
    1MOL0     H  101   4.633   7.104   5.953 -1.2517  0.8947 -0.0559
    1MOL0     H  102   4.413   7.146   5.812 -0.0532  2.1808  0.3683
    1MOL0     H  103   4.571   7.152   5.733  1.0405 -3.3124 -0.3339
    1MOL0     H  104   4.496   7.019   5.540 -1.8000 -1.9363  1.1621
    1MOL0     H  105   4.330   7.059   5.574  0.4274 -2.4440 -1.9036
    1MOL0     H  106   4.548   7.274   5.567  0.8133 -3.0895  1.4448
    1MOL0     H  107   4.378   7.305   5.565  0.5057 -0.6294  2.7817
    1MOL0     H  108   4.370   7.209   5.335 -0.9429  1.5167  2.2967
    1MOL0     H  109   4.543   7.167   5.345 -0.2196  0.1448 -2.3632
    1MOL0     H  110   4.581   7.428   5.319  0.7964 -0.8264 -0.5058
    1MOL0     H  111   4.478   7.375   5.190 -0.7841  0.7430 -0.4081
    1MOL0     H  112   4.394   7.498   5.441  0.4390  2.5033  0.1756
    1MOL0     H  113   4.279   7.454   5.318  0.6062  0.1047  0.2585
    1MOL0     H  114   4.460   7.596   5.177 -1.8647  2.0358 -0.9506
    1MOL0     H  115   4.463   7.678   5.340 -1.8877  0.5494  0.8437
    1MOL0     H  116   4.207   7.634   5.171 -1.0264  1.4132 -0.6528
    1MOL0     H  117   4.295   7.775   5.168 -1.8990  0.4381 -0.4763
    1MOL0     H  118   4.450   6.722   5.894  1.4587 -0.7123  1.9863
    1MOL0     H  119   4.474   6.664   6.124 -0.1394 -0.3827  0.4206
    1MOL0     H  120   4.316   6.918   6.557 -0.3114 -1.3917 -3.5866
    1MOL0     H  121   4.265   6.821   6.779 -0.3237 -2.3372  0.5571
    1MOL0     H  122   4.801   6.240   8.598  0.1908 -1.0900 -0.0100
    1MOL0     H  123   4.883   6.200   8.834  0.4023 -1.3528 -0.5879
    1MOL0     H  124   5.268   6.174   9.089  0.9374  1.5149  1.4200
    1MOL0     H  125   5.328   6.218   9.334  1.3029 -0.6115 -2.2424
    1MOL0     H  126   5.176   6.065   9.717  3.2905  1.7635  0.0494
    1MOL0     H  127   5.054   6.008   9.588 -0.7109  0.9731  0.4484
    1MOL0     H  128   5.240   5.904   9.469  1.5450  1.9440 -0.7415
    1MOL0     H  129   5.236   5.845   9.630  0.4642 -0.4396 -2.2858
    1MOL0     H  130   5.438   6.041   9.508  0.2589 -1.7908 -2.1525
    1MOL0     H  131   5.408   6.040   9.682 -0.6070  1.6328 -1.9999
    1MOL0     H  132   5.490   5.793   9.510 -0.7450 -0.9731 -0.6460
    1MOL0     H  133   5.452   5.776   9.682  0.6516 -1.9810 -0.1309
    1MOL0     H  134   5.823   5.948   9.746 -0.5920 -0.4020  0.2766
    1MOL0     H  135   4.924   6.113   9.434 -0.4304  0.9005 -0.2759
    1MOL0     H  136   4.757   6.078   9.281 -1.5223 -0.9842 -0.8806
    1MOL0     H  137   4.778   6.094   9.110 -0.0805  0.3799 -0.0410
    1MOL0     H  138   4.833   5.941   9.194 -0.6554 -0.6945 -0.0936
    2MOL0     O  139   3.405   5.949   2.874 -0.1686 -1.4618  0.3451
    2MOL0     C  140   3.410   6.005   2.982 -0.9693 -0.3588 -0.0412
    2MOL0     O  141   3.309   6.059   3.047 -0.2578 -0.0990 -0.1032
    2MOL0     C  142   3.191   6.068   2.978  0.4003 -0.5999  0.3502
    2MOL0     C  143   3.125   5.949   2.956  0.1448  0.1080  0.3239
    2MOL0     C  144   3.011   5.951   2.879 -0.3871  0.5744 -0.1510
    2MOL0     C  145   2.962   6.069   2.823  0.0655 -0.0519 -0.2512
    2MOL0     O  146   2.868   6.093   2.737  0.1198  0.0430 -0.0130
    2MOL0     C  147   2.799   5.982   2.684  0.1744  0.0524  0.3018
    2MOL0     C  148   2.722   6.016   2.555  0.5758  0.0392 -0.6814
    2MOL0     C  149   2.604   6.113   2.591  0.6625 -0.2092 -0.6211
    2MOL0     C  150   2.538   6.148   2.457  0.3776 -0.3100 -0.2602
    2MOL0     C  151   2.407   6.231   2.475  0.0856 -0.5619 -0.0535
    2MOL0     C  152   2.285   6.146   2.534 -0.6774  0.1088 -0.1700
    2MOL0     C  153   2.170   6.246   2.547 -0.6652 -0.0620  0.2046
    2MOL0     C  154   2.091   6.261   2.409 -0.4074 -0.0238 -0.1127
    2MOL0     N  155   1.982   6.358   2.426  0.4813  0.4052 -0.0754
    2MOL0     C  156   1.987   6.498   2.418  0.0674 -0.3587 -0.9607
    2MOL0     C  157   1.855   6.535   2.432 -0.2594 -0.1340 -0.4768
    2MOL0     C  158   1.813   6.675   2.440 -0.1114 -0.8699  0.7266
    2MOL0     C  159   1.808   6.747   2.302 -0.3470  1.2562  0.3310
    2MOL0     C  160   1.802   6.898   2.321 -1.1277 -0.3468  0.7844
    2MOL0     C  161   1.829   6.984   2.192  0.6750 -0.1683 -0.5457
    2MOL0     O  162   1.964   6.966   2.146  0.1887 -0.4992 -0.2185
    2MOL0     C  163   2.078   7.036   2.177  0.3150 -0.5372 -0.6125
    2MOL0     C  164   2.195   7.005   2.106 -0.8084  0.5254  0.0464
    2MOL0     C  165   2.318   7.054   2.158  0.8049 -0.0936  0.5286
    2MOL0     C  166   2.445   7.002   2.097  0.3395  0.3283  0.2189
    2MOL0     C  167   2.319   7.133   2.279 -0.2584  0.2942 -0.2057
    2MOL0     C  168   2.437   7.179   2.346  0.4741 -0.0417  1.0517
    2MOL0     O  169   2.545   7.223   2.270  0.5611  0.7642 -0.3595
    2MOL0     C  170   2.646   7.285   2.339  0.2996  0.5127 -0.7558
    2MOL0     C  171   2.763   7.213   2.356  0.7423 -0.6771  0.5549
    2MOL0     C  172   2.873   7.269   2.421  0.5568 -1.5398 -0.1623
    2MOL0     C  173   2.865   7.405   2.475  0.1111 -0.4628  0.1033
    2MOL0     O  174   2.980   7.460   2.532 -0.2373  0.0176 -0.2668
    2MOL0     C  175   2.961   7.583   2.607  0.0369  0.3015 -0.0983
    2MOL0     C  176   3.097   7.631   2.648  0.6050  0.1227  0.4462
    2MOL0     C  177   3.086   7.738   2.756 -0.7764 -0.2601 -0.1970
    2MOL0     C  178   3.221   7.759   2.830  0.4142 -0.3996  0.0374
    2MOL0     C  179   3.220   7.841   2.953 -0.3673  0.4843  0.5024
    2MOL0     C  180   3.201   7.761   3.074  0.1438 -0.2827 -0.2782
    2MOL0     C  181   3.200   7.840   3.207  0.8541  0.6067  0.0740
    2MOL0     C  182   3.314   7.939   3.226 -0.5270 -0.6326  0.7046
    2MOL0    Cl  183   3.449   7.836   3.257  0.0558  0.3046 -0.3748
    2MOL0     C  184   2.742   7.470   2.466  1.0826 -0.2005 -0.4070
    2MOL0     C  185   2.632   7.412   2.402 -0.4952 -0.0648  0.0080
    2MOL0     O  186   2.428   7.189   2.467 -0.2923  0.2697 -0.6947
    2MOL0     C  187   2.195   7.165   2.338  0.3792 -0.5082  0.0103
    2MOL0     C  188   2.081   7.116   2.292 -0.3727 -0.4709 -0.2409
    2MOL0     N  189   1.778   6.421   2.460 -0.0941  0.7135 -0.5173
    2MOL0     N  190   1.857   6.313   2.457  0.0987  0.3456  0.0634
    2MOL0     C  191   3.030   6.188   2.853 -0.0932  0.4272 -0.2626
    2MOL0     C  192   3.150   6.189   2.928 -0.2622 -0.0508  0.8426
    2MOL0     C  193   3.547   6.027   3.039  0.1360  0.8408  0.5747
    2MOL0     C  194   3.649   5.929   3.022 -0.8395 -0.1888 -0.6544
    2MOL0     C  195   3.778   5.940   3.077  0.1235 -0.1834  0.0935
    2MOL0     C  196   3.809   6.060   3.149 -0.8047 -0.0570 -0.0223
    2MOL0     O  197   3.934   6.080   3.207 -0.1022  0.3881 -0.0729
    2MOL0     C  198   4.032   5.983   3.200  0.4804  0.4999 -0.7352
    2MOL0     C  199   4.118   6.011   3.323  0.2421 -0.5897 -0.3524
    2MOL0     C  200   4.264   5.974   3.314 -0.4956 -0.5556  0.4206
    2MOL0     C  201   4.290   5.826   3.281  0.5323 -0.3753  0.0563
    2MOL0     C  202   4.256   5.727   3.386 -0.5625 -0.2045  0.5977
    2MOL0     C  203   4.247   5.632   3.463  0.3670  0.5280 -0.0618
    2MOL0     C  204   3.712   6.153   3.170  0.3472 -0.1327 -0.3364
    2MOL0     C  205   3.590   6.144   3.104  0.7011 -0.2913  0.0378
    2MOL0     C  206   3.506   6.273   3.117 -0.3963  0.2473  0.4760
    2MOL0     H  207   3.179   5.861   2.990 -0.0040  0.5578  1.7853
    2MOL0     H  208   2.965   5.857   2.849 -1.1662  1.1181 -0.6944
    2MOL0     H  209   2.729   5.944   2.759  0.1447 -2.3208 -0.8352
    2MOL0     H  210   2.865   5.901   2.653 -0.2989 -0.0825 -0.3685
    2MOL0     H  211   2.792   6.074   2.495 -1.1917  2.0969 -0.8691
    2MOL0     H  212   2.684   5.926   2.506 -2.2135 -3.0564  5.8760
    2MOL0     H  213   2.526   6.061   2.647 -1.1769  2.0607 -0.9371
    2MOL0     H  214   2.645   6.198   2.647 -4.0573  0.5952  2.1712
    2MOL0     H  215   2.605   6.212   2.399  1.9826 -0.6527  1.1379
    2MOL0     H  216   2.504   6.059   2.403 -2.2087  0.5911 -0.2318
    2MOL0     H  217   2.378   6.252   2.371  1.2505  0.9417 -0.0928
    2MOL0     H  218   2.428   6.318   2.536 -1.4793  0.0646 -0.3582
    2MOL0     H  219   2.260   6.056   2.477  2.3255 -2.2685  1.9455
    2MOL0     H  220   2.305   6.115   2.637 -2.5122 -0.3268  0.0958
    2MOL0     H  221   2.195   6.342   2.593 -0.8182  0.4531 -0.7559
    2MOL0     H  222   2.120   6.195   2.630 -1.1917 -0.2476 -0.2175
    2MOL0     H  223   2.152   6.302   2.328 -3.5126  3.5073 -0.9519
    2MOL0     H  224   2.050   6.164   2.379  1.8068  0.0324 -3.9860
    2MOL0     H  225   2.071   6.562   2.393 -0.5236  0.4658 -0.8910
    2MOL0     H  226   1.874   6.736   2.507 -1.8112  1.3831  0.3481
    2MOL0     H  227   1.709   6.684   2.475  0.5346 -0.0378  2.5297
    2MOL0     H  228   1.901   6.723   2.249 -0.1711  4.5624 -1.0999
    2MOL0     H  229   1.718   6.712   2.251 -0.4620 -0.4597  1.6369
    2MOL0     H  230   1.699   6.931   2.339 -1.4948 -0.1384 -1.3839
    2MOL0     H  231   1.866   6.942   2.397 -0.5617  0.7153 -0.2771
    2MOL0     H  232   1.753   6.950   2.122 -1.4441  1.9330  0.5624
    2MOL0     H  233   1.801   7.087   2.216 -0.2417 -0.8450  1.5632
    2MOL0     H  234   2.190   6.929   2.029 -1.5690  0.9733 -0.3575
    2MOL0     H  235   2.534   6.996   2.161 -0.3307 -3.6815  1.0516
    2MOL0     H  236   2.458   7.058   2.004 -0.5291  1.1656  0.5810
    2MOL0     H  237   2.428   6.902   2.058  1.8050  0.9509 -2.2441
    2MOL0     H  238   2.782   7.121   2.301 -0.2339 -1.1143  0.9291
    2MOL0     H  239   2.965   7.211   2.422 -1.3326 -4.8016  1.7560
    2MOL0     H  240   2.918   7.667   2.553  2.9277  1.3641 -0.9591
    2MOL0     H  241   2.891   7.567   2.689 -1.0670  2.7997 -0.4643
    2MOL0     H  242   3.153   7.556   2.705  1.1616  0.3129  0.1631
    2MOL0     H  243   3.165   7.647   2.564 -1.9958 -3.9497 -2.7743
    2MOL0     H  244   3.017   7.707   2.835 -0.7727  0.4129  0.0789
    2MOL0     H  245   3.060   7.835   2.712  0.8604 -0.7354 -2.3651
    2MOL0     H  246   3.286   7.824   2.771 -0.2387 -1.0106 -1.4231
    2MOL0     H  247   3.267   7.661   2.843 -0.2517 -0.6456  0.5973
    2MOL0     H  248   3.315   7.895   2.964  0.3268 -0.3990 -0.8806
    2MOL0     H  249   3.133   7.906   2.944 -1.8852 -1.7075 -1.9713
    2MOL0     H  250   3.277   7.683   3.082  0.4323 -0.0262 -0.4883
    2MOL0     H  251   3.106   7.707   3.069  0.3015 -0.4575 -2.8835
    2MOL0     H  252   3.204   7.770   3.290  2.9180  1.3060  0.6169
    2MOL0     H  253   3.101   7.886   3.214 -0.7968 -2.5591 -0.4464
    2MOL0     H  254   3.286   7.999   3.313 -1.1112 -0.2126  0.2397
    2MOL0     H  255   3.338   8.004   3.141  1.6460  0.4398  2.0371
    2MOL0     H  256   2.723   7.569   2.508 -1.2193 -1.0556  0.7606
    2MOL0     H  257   2.533   7.456   2.406 -0.1636  0.8297 -1.0484
    2MOL0     H  258   2.190   7.236   2.420 -1.1193 -0.4473 -0.1151
    2MOL0     H  259   1.996   7.116   2.360 -0.3391 -0.8528 -0.1971
    2MOL0     H  260   3.001   6.286   2.819  2.4755  0.7230 -1.8380
    2MOL0     H  261   3.210   6.278   2.942 -1.1393  0.4044  1.8691
    2MOL0     H  262   3.629   5.837   2.968 -1.1108  1.2160 -3.0612
    2MOL0     H  263   3.856   5.865   3.063  0.6598  0.2724  0.5718
    2MOL0     H  264   3.992   5.882   3.218 -1.5498  1.8872  4.0270
    2MOL0     H  265   4.080   5.999   3.103 -0.9232  1.8852 -1.2601
    2MOL0     H  266   4.071   5.948   3.399 -2.2315 -0.4228 -1.6457
    2MOL0     H  267   4.110   6.115   3.356  0.8439 -0.6151 -0.1008
    2MOL0     H  268   4.314   6.032   3.237 -0.0525 -1.5624 -0.0756
    2MOL0     H  269   4.308   5.994   3.413 -2.7356  2.8204  0.8848
    2MOL0     H  270   4.399   5.831   3.267  0.0862  2.0051 -3.9000
    2MOL0     H  271   4.231   5.806   3.191 -1.2644 -1.1304  1.3408
    2MOL0     H  272   4.240   5.547   3.528  2.0617  0.8366  0.5653
    2MOL0     H  273   3.753   6.245   3.211 -0.4257 -0.5793  1.5701
    2MOL0     H  274   3.478   6.292   3.013  1.2723  0.0544 -0.0428
    2MOL0     H  275   3.414   6.263   3.176  0.6559  0.1428  2.1779
    2MOL0     H  276   3.563   6.356   3.159 -0.8193  0.4043  0.7522
    3MOL0     O  277   0.601   3.026   9.059 -0.2680 -0.6369  1.1442
    3MOL0     C  278   0.522   2.951   9.116  0.1188 -1.5113  0.1989
    3MOL0     O  279   0.548   2.895   9.233 -0.2131 -0.1063 -0.2332
    3MOL0     C  280   0.668   2.921   9.297 -0.4979 -0.3298  0.9026
    3MOL0     C  281   0.771   2.826   9.280 -0.0768 -0.1182 -0.4020
    3MOL0     C  282   0.893   2.840   9.350  1.7128  0.4145 -0.1050
    3MOL0     C  283   0.902   2.934   9.462  0.2658  0.0970  1.0140
    3MOL0     O  284   1.021   2.935   9.545  0.7511 -0.2531 -0.2749
    3MOL0     C  285   0.994   2.977   9.679  1.1245 -0.1676 -0.3213
    3MOL0     C  286   1.089   2.923   9.784 -0.6064  0.5452 -0.0577
    3MOL0     C  287   1.237   2.932   9.741 -0.1228  0.1224  0.2422
    3MOL0     C  288   1.321   2.861   9.858 -0.3837  0.1007 -0.2702
    3MOL0     C  289   1.468   2.869   9.826  0.3759 -0.4874 -0.4141
    3MOL0     C  290   1.518   2.802   9.695 -0.3019  0.0663 -0.0120
    3MOL0     C  291   1.667   2.841   9.671  0.8597  0.0731  0.5452
    3MOL0     C  292   1.745   2.760   9.561  0.3107  0.0108  0.4707
    3MOL0     N  293   1.880   2.788   9.547 -0.0399 -0.0513  0.0124
    3MOL0     C  294   1.972   2.802   9.649 -0.1103 -0.6522  0.7879
    3MOL0     C  295   2.087   2.816   9.576 -0.6946  0.2824 -0.1499
    3MOL0     C  296   2.222   2.863   9.636 -0.8315  0.1547  0.0823
    3MOL0     C  297   2.337   2.880   9.537 -0.3559  0.2323  0.0838
    3MOL0     C  298   2.338   3.022   9.491 -0.7828 -0.1953  0.8643
    3MOL0     C  299   2.473   3.042   9.408  0.5853 -0.1961 -0.9723
    3MOL0     O  300   2.512   2.944   9.313  0.1598  0.3642  0.1018
    3MOL0     C  301   2.433   2.911   9.209 -0.0632  0.0876 -0.0248
    3MOL0     C  302   2.303   2.958   9.176 -0.5521 -0.0767 -0.1554
    3MOL0     C  303   2.228   2.891   9.078  0.3955 -0.4541  0.1844
    3MOL0     C  304   2.081   2.944   9.061  0.6134 -0.5531 -0.1942
    3MOL0     C  305   2.278   2.787   8.996  0.6205 -0.0961 -0.2292
    3MOL0     C  306   2.198   2.704   8.894  0.2808 -0.3587 -0.1152
    3MOL0     O  307   2.281   2.644   8.810 -0.1521 -0.3620  0.6516
    3MOL0     C  308   2.233   2.571   8.707  0.9620  0.3477  0.2879
    3MOL0     C  309   2.260   2.602   8.572 -0.3249  0.6831  0.0254
    3MOL0     C  310   2.221   2.519   8.468 -0.6090 -0.1518  0.4345
    3MOL0     C  311   2.147   2.407   8.489 -0.1972  1.0572  0.2002
    3MOL0     O  312   2.092   2.317   8.397  0.4115 -0.0644  1.1054
    3MOL0     C  313   2.121   2.348   8.259 -0.0038  0.4470 -0.1634
    3MOL0     C  314   2.086   2.221   8.177 -0.4482 -1.3301 -0.7528
    3MOL0     C  315   2.111   2.243   8.028  1.2957  0.2575 -0.0591
    3MOL0     C  316   2.052   2.113   7.962  0.4355  0.2908 -0.1119
    3MOL0     C  317   2.067   2.109   7.807 -0.6343 -0.3320 -0.0222
    3MOL0     C  318   1.985   2.004   7.742 -0.1192  0.4131 -0.1342
    3MOL0     C  319   2.010   1.997   7.581  0.6664 -0.1496  0.3555
    3MOL0     C  320   1.894   1.914   7.521  0.2387 -0.0814  0.8838
    3MOL0    Cl  321   1.845   1.986   7.365  0.0674  0.5508 -0.1939
    3MOL0     C  322   2.115   2.370   8.622 -0.6368  0.8811 -0.8569
    3MOL0     C  323   2.165   2.451   8.732 -0.7221  0.5672  0.3048
    3MOL0     O  324   2.071   2.688   8.896 -0.7528 -0.4299  0.2987
    3MOL0     C  325   2.409   2.752   9.025  0.4662 -0.2129  0.2939
    3MOL0     C  326   2.488   2.813   9.120 -1.8668 -0.5989  0.6702
    3MOL0     N  327   2.070   2.794   9.441  0.3704  0.2609 -0.0365
    3MOL0     N  328   1.941   2.781   9.426  0.1270  0.8113 -0.4545
    3MOL0     C  329   0.794   3.025   9.481  0.1421  0.1086  0.4693
    3MOL0     C  330   0.677   3.018   9.399 -0.1087  0.5446  0.5673
    3MOL0     C  331   0.388   2.915   9.056 -0.0940 -0.9591 -0.0632
    3MOL0     C  332   0.306   2.828   9.130  0.2099 -0.0379  0.6535
    3MOL0     C  333   0.197   2.773   9.070  0.9557 -0.0175  0.1707
    3MOL0     C  334   0.141   2.810   8.956 -0.6386 -0.4845 -0.5693
    3MOL0     O  335   0.023   2.742   8.925 -0.2544  0.6648 -0.1640
    3MOL0     C  336  -0.010   2.735   8.788  0.0949  1.3470 -0.0916
    3MOL0     C  337  -0.074   2.595   8.759  0.7422 -0.6621 -0.3635
    3MOL0     C  338  -0.139   2.600   8.618  0.3490 -0.1903  0.4192
    3MOL0     C  339  -0.032   2.562   8.514  0.5273 -0.1342  0.4240
    3MOL0     C  340  -0.001   2.422   8.522 -0.2349 -1.0189  0.4474
    3MOL0     C  341   0.017   2.305   8.524  0.4633 -0.0093  0.0144
    3MOL0     C  342   0.225   2.890   8.879 -0.1528 -0.3360 -0.0754
    3MOL0     C  343   0.341   2.949   8.924  1.1199  0.8185  0.0940
    3MOL0     C  344   0.403   3.041   8.817 -0.6373  0.1177 -1.1741
    3MOL0     H  345   0.763   2.752   9.201  2.4509 -0.9612  0.0389
    3MOL0     H  346   0.980   2.777   9.335  1.3918 -0.3294  1.0111
    3MOL0     H  347   0.893   2.963   9.720  1.4013  1.0608  0.8503
    3MOL0     H  348   1.007   3.086   9.674  1.9009 -0.2247  0.3686
    3MOL0     H  349   1.081   2.963   9.886  1.5804 -1.6038  1.0901
    3MOL0     H  350   1.068   2.816   9.791 -3.0881  0.8237 -1.8926
    3MOL0     H  351   1.260   2.901   9.639  1.7742  0.5529  0.5087
    3MOL0     H  352   1.257   3.040   9.741 -2.2112  0.5534  0.4524
    3MOL0     H  353   1.296   2.904   9.955 -1.8634  2.2489 -1.5054
    3MOL0     H  354   1.294   2.756   9.853  0.4390 -0.0782 -1.7391
    3MOL0     H  355   1.530   2.827   9.906  1.0130 -1.1165 -1.2177
    3MOL0     H  356   1.487   2.976   9.817 -1.4303 -0.2527 -2.0741
    3MOL0     H  357   1.514   2.694   9.716 -0.8770 -0.3267 -1.9848
    3MOL0     H  358   1.452   2.815   9.609 -0.3426 -1.5672 -0.2663
    3MOL0     H  359   1.724   2.832   9.765  1.3722  1.0137  0.3334
    3MOL0     H  360   1.663   2.948   9.650  1.3310 -0.1931 -1.0282
    3MOL0     H  361   1.748   2.659   9.604  0.1729  0.2703  1.1067
    3MOL0     H  362   1.690   2.752   9.467  1.5375 -0.3369 -0.2467
    3MOL0     H  363   1.955   2.824   9.754 -3.4655  1.8014 -0.0850
    3MOL0     H  364   2.256   2.782   9.701  1.7437  1.4232  0.4692
    3MOL0     H  365   2.209   2.956   9.692  2.0429 -0.2182  1.5456
    3MOL0     H  366   2.429   2.855   9.590 -1.0994  0.4212  1.5135
    3MOL0     H  367   2.330   2.809   9.455  2.0569 -0.8075  0.6866
    3MOL0     H  368   2.251   3.042   9.428  0.5831  1.7045 -0.5234
    3MOL0     H  369   2.337   3.090   9.577  0.7683  1.1196 -0.1225
    3MOL0     H  370   2.484   3.138   9.357 -1.9073  1.4500  1.2996
    3MOL0     H  371   2.549   3.036   9.487 -1.4948 -2.4393  1.0431
    3MOL0     H  372   2.257   3.039   9.231 -0.6064 -1.4765  1.9713
    3MOL0     H  373   2.029   2.905   8.974  0.2646  0.1252 -0.2953
    3MOL0     H  374   2.100   3.051   9.047  1.0110 -0.9660 -3.6094
    3MOL0     H  375   2.022   2.933   9.152  1.6910 -2.5485  0.3251
    3MOL0     H  376   2.316   2.692   8.550 -0.9695  0.8458 -0.9647
    3MOL0     H  377   2.249   2.546   8.367 -1.6845 -0.9232 -0.0885
    3MOL0     H  378   2.053   2.429   8.232  0.3729  1.7349  2.4502
    3MOL0     H  379   2.223   2.384   8.241  0.2488  0.0663  0.4411
    3MOL0     H  380   2.154   2.143   8.213 -0.4656 -1.0670 -0.1344
    3MOL0     H  381   1.986   2.196   8.211  0.8894 -0.6496  4.5293
    3MOL0     H  382   2.218   2.254   8.010  1.6813 -0.7842  1.3760
    3MOL0     H  383   2.045   2.321   7.992  0.9441  0.3987  0.8568
    3MOL0     H  384   1.948   2.094   7.990  1.1962 -0.7835  2.1598
    3MOL0     H  385   2.110   2.029   8.001 -0.7850 -0.1799  0.7535
    3MOL0     H  386   2.030   2.206   7.773 -1.5678  0.0635  1.9431
    3MOL0     H  387   2.176   2.098   7.804 -0.2282  0.5154  4.4516
    3MOL0     H  388   1.882   2.022   7.774 -0.5246 -0.8732 -0.6588
    3MOL0     H  389   2.017   1.908   7.783  0.2866  0.6633  0.1361
    3MOL0     H  390   2.111   1.962   7.557  1.5055  1.9815  0.6202
    3MOL0     H  391   1.996   2.101   7.553 -4.4146 -1.1362 -1.9368
    3MOL0     H  392   1.801   1.907   7.578 -0.9303 -0.9537 -1.0230
    3MOL0     H  393   1.941   1.815   7.518  0.8696  0.2379  0.0206
    3MOL0     H  394   2.075   2.275   8.655 -0.4884  0.2001 -2.5286
    3MOL0     H  395   2.155   2.419   8.836 -0.7652  0.6335  0.3206
    3MOL0     H  396   2.467   2.668   8.988  1.1204  1.6711 -3.3805
    3MOL0     H  397   2.593   2.789   9.132 -1.2456  1.2676 -0.4467
    3MOL0     H  398   0.790   3.100   9.558 -2.1727  1.5657 -0.9461
    3MOL0     H  399   0.592   3.086   9.407  0.4705  1.4866 -0.9318
    3MOL0     H  400   0.335   2.792   9.228  0.9307 -0.9373  0.1222
    3MOL0     H  401   0.142   2.704   9.134 -0.5776  0.2630 -0.7966
    3MOL0     H  402  -0.069   2.823   8.761 -0.8006  0.6495 -0.4636
    3MOL0     H  403   0.076   2.744   8.721 -0.7430  1.4213 -1.1836
    3MOL0     H  404  -0.149   2.578   8.837  0.2010  1.9368 -0.2411
    3MOL0     H  405   0.004   2.518   8.762 -0.4235 -2.0759 -3.0663
    3MOL0     H  406  -0.225   2.532   8.613 -0.7014  1.0145  1.3531
    3MOL0     H  407  -0.178   2.700   8.593  0.6194 -0.8382 -3.1786
    3MOL0     H  408   0.056   2.625   8.506  2.0006 -1.8415  2.0241
    3MOL0     H  409  -0.086   2.578   8.421  2.5056  2.0618 -0.4301
    3MOL0     H  410   0.035   2.201   8.543  0.5796  0.1778  0.9818
    3MOL0     H  411   0.202   2.904   8.774  0.2689  3.7268  0.2144
    3MOL0     H  412   0.336   3.123   8.791 -0.0818  2.2124  3.0836
    3MOL0     H  413   0.492   3.096   8.849 -3.0132  4.0639 -0.6300
    3MOL0     H  414   0.434   2.974   8.737 -0.9487 -0.5577 -0.7340
    4MOL0     O  415   7.972   4.003   1.015 -0.7674  0.2218 -0.1975
    4MOL0     C  416   7.911   3.931   0.947  0.5778  0.1138  0.6088
    4MOL0     O  417   7.954   3.880   0.829 -0.0635 -0.4025  0.1179
    4MOL0     C  418   8.076   3.920   0.784 -0.0106  0.3541  0.2099
    4MOL0     C  419   8.085   4.051   0.732 -0.3492  0.2225 -0.0866
    4MOL0     C  420   8.200   4.100   0.663  0.0231  1.8436 -0.9395
    4MOL0     C  421   8.319   4.019   0.655 -0.2886 -0.2708 -0.5530
    4MOL0     O  422   8.434   4.080   0.603  0.4088 -0.6940  0.3853
    4MOL0     C  423   8.548   4.001   0.601 -0.2144  0.7042 -0.2071
    4MOL0     C  424   8.616   3.994   0.739  0.2011  0.0291  0.0678
    4MOL0     C  425   8.738   3.897   0.756 -0.4390  0.7088  0.3990
    4MOL0     C  426   8.708   3.742   0.714 -1.6705 -0.7068 -0.5879
    4MOL0     C  427   8.833   3.663   0.741  0.2741 -0.2090 -0.0981
    4MOL0     C  428   8.823   3.519   0.705 -0.0403  0.4374  0.4089
    4MOL0     C  429   8.700   3.441   0.768 -0.3538 -0.9912 -0.4349
    4MOL0     C  430   8.708   3.284   0.744  0.8438 -0.7209  0.4715
    4MOL0     N  431   8.615   3.254   0.637  0.1540  1.0101 -0.7436
    4MOL0     C  432   8.657   3.268   0.510 -0.0625  0.0194 -0.4258
    4MOL0     C  433   8.590   3.178   0.439 -0.1236 -0.3053 -0.3065
    4MOL0     C  434   8.592   3.147   0.295 -0.6074  0.5941  2.4366
    4MOL0     C  435   8.475   3.066   0.224  0.0100  0.7491 -0.0175
    4MOL0     C  436   8.500   3.076   0.071  0.6027  0.1500 -0.9450
    4MOL0     C  437   8.396   3.004  -0.016 -0.5216 -0.5313  0.9558
    4MOL0     O  438   8.369   3.063  -0.150  0.4004  0.1295 -0.6682
    4MOL0     C  439   8.293   3.177  -0.160  0.3644  0.3694 -0.2716
    4MOL0     C  440   8.230   3.235  -0.047  0.4800 -0.3826  0.3569
    4MOL0     C  441   8.135   3.346  -0.058  0.1577 -0.1121 -0.3549
    4MOL0     C  442   8.075   3.403   0.066  0.8768 -0.1780 -0.5288
    4MOL0     C  443   8.115   3.401  -0.185 -0.3343  0.0577 -0.0899
    4MOL0     C  444   8.031   3.518  -0.209  0.5116 -0.3263 -0.3043
    4MOL0     O  445   8.067   3.601  -0.318  0.5903  0.5383 -0.2558
    4MOL0     C  446   7.989   3.710  -0.328 -0.3923  0.0258 -0.4700
    4MOL0     C  447   7.868   3.701  -0.398  0.5819 -0.8663  0.5207
    4MOL0     C  448   7.779   3.807  -0.403 -0.8748 -0.8348  0.8167
    4MOL0     C  449   7.826   3.931  -0.347  0.1443  0.7954  0.2669
    4MOL0     O  450   7.737   4.032  -0.357  0.5183 -0.3494 -0.2338
    4MOL0     C  451   7.728   4.102  -0.480 -0.7119 -0.0326  0.8869
    4MOL0     C  452   7.667   4.231  -0.440 -0.4079  0.0275  0.3280
    4MOL0     C  453   7.679   4.328  -0.558 -0.0032  0.7438 -0.3621
    4MOL0     C  454   7.586   4.293  -0.671  1.3004  0.2238 -0.3629
    4MOL0     C  455   7.556   4.416  -0.756  1.4681  0.1293  0.6477
    4MOL0     C  456   7.460   4.388  -0.882  0.4866  0.6610  0.3204
    4MOL0     C  457   7.510   4.475  -0.997 -0.1577 -0.3319  0.0875
    4MOL0     C  458   7.461   4.440  -1.136 -0.9798 -0.0064  0.1406
    4MOL0    Cl  459   7.310   4.521  -1.187 -0.5582 -0.0171 -0.0054
    4MOL0     C  460   7.945   3.943  -0.277 -0.0998  0.7465  1.2951
    4MOL0     C  461   8.024   3.832  -0.268  0.0721 -0.5168  0.2901
    4MOL0     O  462   7.947   3.551  -0.129 -0.0259  0.5391 -0.0693
    4MOL0     C  463   8.166   3.335  -0.299 -0.5809 -0.0692  0.3082
    4MOL0     C  464   8.260   3.223  -0.287  0.8886  0.4235  0.2847
    4MOL0     N  465   8.496   3.122   0.520 -0.7708  0.9120  0.3260
    4MOL0     N  466   8.514   3.164   0.644  0.3101 -0.4083  0.9012
    4MOL0     C  467   8.311   3.889   0.717  0.6495 -0.2224  0.9682
    4MOL0     C  468   8.187   3.841   0.772 -0.6504  0.2631 -0.2933
    4MOL0     C  469   7.765   3.916   0.984 -0.0265  0.5524  0.0965
    4MOL0     C  470   7.685   3.840   0.899 -1.1702 -0.8619  0.3238
    4MOL0     C  471   7.551   3.826   0.924 -0.5209 -0.6643 -0.4147
    4MOL0     C  472   7.486   3.869   1.047 -0.5014  0.6539 -0.0831
    4MOL0     O  473   7.356   3.828   1.061  0.1672 -0.4090 -0.2841
    4MOL0     C  474   7.311   3.788   1.182  0.2531 -0.0159 -0.6881
    4MOL0     C  475   7.160   3.775   1.174 -0.9398 -0.3083 -0.2546
    4MOL0     C  476   7.110   3.660   1.071  0.1116 -0.2619  0.6070
    4MOL0     C  477   7.090   3.707   0.922  0.6331 -0.7584 -0.7519
    4MOL0     C  478   6.992   3.630   0.846 -0.3644 -0.3884  0.2175
    4MOL0     C  479   6.898   3.588   0.800  0.7254 -0.2624 -0.1874
    4MOL0     C  480   7.565   3.943   1.134 -0.3866  0.4257 -0.1038
    4MOL0     C  481   7.700   3.964   1.104 -0.5816 -0.6294  1.0769
    4MOL0     C  482   7.770   4.052   1.205 -0.4961  0.2916 -0.8610
    4MOL0     H  483   7.998   4.116   0.741  0.2941  0.9291  1.3213
    4MOL0     H  484   8.209   4.202   0.628  2.4380  1.2022 -2.4667
    4MOL0     H  485   8.630   4.053   0.550  1.2241  1.4410  2.6142
    4MOL0     H  486   8.528   3.901   0.562 -0.3739 -0.3573  2.3774
    4MOL0     H  487   8.640   4.100   0.751  1.4190  0.3772 -3.8695
    4MOL0     H  488   8.542   3.965   0.814  1.3634  0.2443  1.3236
    4MOL0     H  489   8.836   3.924   0.717 -0.1745 -1.6918 -0.7553
    4MOL0     H  490   8.739   3.899   0.866 -2.2966 -2.1356  0.5639
    4MOL0     H  491   8.624   3.702   0.771 -3.4206  3.8877  0.5125
    4MOL0     H  492   8.702   3.734   0.605  1.5951 -4.4787 -0.7234
    4MOL0     H  493   8.855   3.673   0.848 -0.1597  3.2309 -0.2399
    4MOL0     H  494   8.919   3.706   0.691  1.7631 -1.4537  1.2684
    4MOL0     H  495   8.797   3.504   0.600 -3.2397 -1.8540  1.3800
    4MOL0     H  496   8.919   3.468   0.718  0.1786  1.0949  1.4913
    4MOL0     H  497   8.613   3.485   0.719 -1.1941 -0.6143  1.3023
    4MOL0     H  498   8.685   3.456   0.876  0.1969  0.3629 -0.5255
    4MOL0     H  499   8.808   3.245   0.723  0.8674 -2.1360  2.8114
    4MOL0     H  500   8.688   3.225   0.834 -0.0802 -0.4511  0.4583
    4MOL0     H  501   8.738   3.332   0.476 -0.1764 -0.5392 -1.8105
    4MOL0     H  502   8.690   3.103   0.274 -0.2537  1.5780  1.9380
    4MOL0     H  503   8.603   3.247   0.252 -0.2263 -1.0858 -1.9124
    4MOL0     H  504   8.467   2.961   0.254 -0.5403  1.0058  0.7637
    4MOL0     H  505   8.380   3.107   0.260  0.1327 -0.6200  2.0621
    4MOL0     H  506   8.512   3.181   0.043 -2.3174  0.2357 -2.2247
    4MOL0     H  507   8.597   3.026   0.063  2.5978  3.2044  1.7450
    4MOL0     H  508   8.442   2.910  -0.047  1.7698  1.5852 -2.8419
    4MOL0     H  509   8.308   2.969   0.039 -0.4594 -0.0616  1.3600
    4MOL0     H  510   8.234   3.183   0.048 -0.4314 -1.2075 -0.0445
    4MOL0     H  511   8.102   3.507   0.088 -2.0027  0.3024  1.1494
    4MOL0     H  512   8.111   3.344   0.151  0.9603 -0.8187 -1.0023
    4MOL0     H  513   7.966   3.399   0.065  0.8458  0.4356 -1.3381
    4MOL0     H  514   7.835   3.602  -0.431  0.5960 -0.7924  0.2840
    4MOL0     H  515   7.678   3.790  -0.437 -0.4744 -1.6307 -0.0029
    4MOL0     H  516   7.824   4.123  -0.527  0.5921 -2.1522  2.4395
    4MOL0     H  517   7.658   4.059  -0.552  1.4660  0.8852 -1.9512
    4MOL0     H  518   7.561   4.221  -0.417 -1.2905  2.4803 -2.1520
    4MOL0     H  519   7.719   4.272  -0.352  2.4577  0.9422 -1.6461
    4MOL0     H  520   7.782   4.331  -0.592 -1.2926  1.6953 -4.9246
    4MOL0     H  521   7.649   4.424  -0.514 -0.4214  0.8406 -0.8469
    4MOL0     H  522   7.489   4.267  -0.627  0.6143  1.6744 -0.9616
    4MOL0     H  523   7.626   4.208  -0.727 -0.6879  0.5548 -2.4098
    4MOL0     H  524   7.528   4.504  -0.697  1.8133  1.1676 -0.7049
    4MOL0     H  525   7.653   4.452  -0.793  0.9455  0.3269 -0.5447
    4MOL0     H  526   7.355   4.413  -0.863  0.4867  0.1906  0.9478
    4MOL0     H  527   7.471   4.283  -0.907  3.3761  1.3562 -1.8490
    4MOL0     H  528   7.616   4.446  -0.998 -0.8772 -4.0269  3.3861
    4MOL0     H  529   7.497   4.583  -0.983 -0.9532 -0.5211  0.9381
    4MOL0     H  530   7.445   4.332  -1.143  0.4953 -0.1392 -2.4772
    4MOL0     H  531   7.538   4.457  -1.212 -1.7709 -1.5679 -1.0529
    4MOL0     H  532   7.995   4.025  -0.227  0.3224  3.2120 -2.7086
    4MOL0     H  533   8.107   3.836  -0.198 -1.0115  0.1343  1.5658
    4MOL0     H  534   8.149   3.356  -0.404  0.9930  0.9058  0.2078
    4MOL0     H  535   8.319   3.172  -0.363  3.9374  3.7301  0.1750
    4MOL0     H  536   8.390   3.814   0.712 -0.8339 -2.0038  2.6531
    4MOL0     H  537   8.191   3.737   0.804  3.4564  0.3363  0.0508
    4MOL0     H  538   7.721   3.810   0.801 -1.0420 -0.9816  0.4073
    4MOL0     H  539   7.490   3.784   0.844  0.2416 -3.3538  0.3355
    4MOL0     H  540   7.358   3.702   1.230  1.2760  1.7930  1.8140
    4MOL0     H  541   7.330   3.873   1.248 -3.1684  0.5592 -0.2695
    4MOL0     H  542   7.113   3.871   1.149  1.0488  1.8440  3.3729
    4MOL0     H  543   7.122   3.754   1.274  1.5085  1.8137  1.2776
    4MOL0     H  544   7.181   3.578   1.073 -0.1289 -0.4993  3.1256
    4MOL0     H  545   7.012   3.624   1.106 -0.1263 -0.2516 -0.0316
    4MOL0     H  546   7.186   3.702   0.871  0.3230  1.1925 -1.6229
    4MOL0     H  547   7.062   3.813   0.927  1.3071 -0.6037  0.0195
    4MOL0     H  548   6.805   3.553   0.758  0.3658  0.3127  0.1211
    4MOL0     H  549   7.532   3.988   1.227  1.7422  0.5205  0.6585
    4MOL0     H  550   7.802   4.145   1.157 -0.1883 -0.3404 -1.8895
    4MOL0     H  551   7.715   4.068   1.298  4.0994  2.6291  1.8217
    4MOL0     H  552   7.854   3.995   1.245 -1.7319 -0.5237  0.6699
    5MOL0     O  553   1.720   8.342   7.579 -0.1340 -0.6808  0.9165
    5MOL0     C  554   1.639   8.432   7.604 -0.4661  1.1709 -0.0775
    5MOL0     O  555   1.638   8.560   7.552  0.7099  0.0206 -0.4187
    5MOL0     C  556   1.708   8.574   7.430  0.0167 -0.7907  0.7530
    5MOL0     C  557   1.826   8.644   7.430  0.8306  0.0702  0.4237
    5MOL0     C  558   1.912   8.642   7.315 -0.0636 -1.0564 -0.4135
    5MOL0     C  559   1.866   8.582   7.196  0.1388  0.0836 -0.1736
    5MOL0     O  560   1.935   8.581   7.072 -0.0180  0.0087 -0.5329
    5MOL0     C  561   2.075   8.627   7.066 -0.1532 -0.0985 -0.4130
    5MOL0     C  562   2.116   8.577   6.924 -0.0822  0.2839 -0.0260
    5MOL0     C  563   2.140   8.422   6.916 -0.6955  1.0804  0.7569
    5MOL0     C  564   2.105   8.362   6.773  0.3964  0.5560  0.6545
    5MOL0     C  565   2.135   8.217   6.773 -0.3399 -0.2642  0.5155
    5MOL0     C  566   2.077   8.155   6.643 -0.9525  0.6845  0.5811
    5MOL0     C  567   2.150   8.184   6.511 -0.9950 -0.6534 -0.0862
    5MOL0     C  568   2.117   8.092   6.393 -0.4463  0.3778  0.1057
    5MOL0     N  569   1.975   8.048   6.384 -0.4041 -0.6640  0.0366
    5MOL0     C  570   1.872   8.137   6.351  0.4109  0.1491  0.0510
    5MOL0     C  571   1.755   8.074   6.361 -0.2657  0.9902 -0.0801
    5MOL0     C  572   1.626   8.138   6.328  0.3591  0.8423  0.3382
    5MOL0     C  573   1.535   8.180   6.440 -0.2467 -0.9483  0.2501
    5MOL0     C  574   1.560   8.314   6.522 -0.4247  0.3583  0.5562
    5MOL0     C  575   1.428   8.356   6.589 -0.4901 -0.9483 -0.2220
    5MOL0     O  576   1.390   8.257   6.685 -0.0820 -0.0757  0.5236
    5MOL0     C  577   1.266   8.256   6.739 -0.5057  1.4313  0.5279
    5MOL0     C  578   1.162   8.352   6.724  0.3987 -0.2931  0.2630
    5MOL0     C  579   1.027   8.325   6.765 -1.2993 -0.7205 -0.4638
    5MOL0     C  580   0.934   8.433   6.710  0.7002 -0.6628  0.2565
    5MOL0     C  581   0.998   8.211   6.840 -0.5012  0.4920  0.9857
    5MOL0     C  582   0.865   8.180   6.901  0.2862  0.8686  0.0278
    5MOL0     O  583   0.787   8.287   6.925 -0.4643  0.2752 -0.4459
    5MOL0     C  584   0.668   8.278   6.995 -0.3481 -0.5561 -0.0968
    5MOL0     C  585   0.643   8.180   7.093  0.2386 -0.5694 -0.5040
    5MOL0     C  586   0.526   8.189   7.173 -0.1540  0.3834 -0.0761
    5MOL0     C  587   0.436   8.293   7.152 -1.1939  0.3643  0.0843
    5MOL0     O  588   0.325   8.317   7.221  0.4127 -0.4891 -0.3058
    5MOL0     C  589   0.284   8.211   7.303 -0.4822 -1.1958 -0.3778
    5MOL0     C  590   0.149   8.240   7.376  0.0506  0.3960 -0.3672
    5MOL0     C  591   0.149   8.158   7.510  0.8830 -0.2865 -0.1214
    5MOL0     C  592   0.022   8.168   7.590  0.1425  0.8799  1.4944
    5MOL0     C  593   0.025   8.085   7.711  0.6112  0.9425  0.4917
    5MOL0     C  594  -0.065   8.140   7.813 -0.2173 -0.2480 -0.1206
    5MOL0     C  595  -0.083   8.045   7.938 -0.0305 -0.5573  0.0842
    5MOL0     C  596   0.041   8.040   8.028  0.4969  0.2727  0.6192
    5MOL0    Cl  597   0.060   7.872   8.085  0.0012  0.0200 -0.2611
    5MOL0     C  598   0.468   8.395   7.062  0.0317 -1.4236  0.2943
    5MOL0     C  599   0.582   8.383   6.987  0.3461  0.1865 -0.0574
    5MOL0     O  600   0.836   8.059   6.911  0.3601 -0.7286  0.7924
    5MOL0     C  601   1.106   8.125   6.871  0.3824 -0.0150  1.1907
    5MOL0     C  602   1.235   8.144   6.821 -0.4218 -0.7279 -0.7735
    5MOL0     N  603   1.789   7.941   6.400  0.1034  0.5959  0.1174
    5MOL0     N  604   1.915   7.927   6.412  0.3263 -0.3445  0.4303
    5MOL0     C  605   1.746   8.514   7.197  0.1072 -0.7750  0.6183
    5MOL0     C  606   1.664   8.509   7.315 -0.7676 -0.4856  0.2977
    5MOL0     C  607   1.537   8.404   7.715 -0.4073  0.8433  0.0472
    5MOL0     C  608   1.573   8.308   7.811 -0.7105  0.4022  0.9612
    5MOL0     C  609   1.483   8.259   7.906  0.0818  0.2894  0.3534
    5MOL0     C  610   1.355   8.305   7.902  0.0253  0.1667 -0.3513
    5MOL0     O  611   1.272   8.241   7.991 -0.5625  0.4503  0.1707
    5MOL0     C  612   1.156   8.312   8.044 -0.0189  0.1815  0.2600
    5MOL0     C  613   1.197   8.413   8.155  0.3749  0.3543 -0.2400
    5MOL0     C  614   1.313   8.350   8.247  0.1630 -0.2431 -0.0358
    5MOL0     C  615   1.313   8.398   8.394 -0.0285 -0.5312 -1.8764
    5MOL0     C  616   1.326   8.549   8.396  0.0194 -0.6815 -0.0377
    5MOL0     C  617   1.338   8.676   8.385  0.4548  0.3218 -0.3625
    5MOL0     C  618   1.321   8.421   7.825 -0.8761  0.2382 -0.0980
    5MOL0     C  619   1.406   8.466   7.727  0.4393 -0.1164 -0.2902
    5MOL0     C  620   1.361   8.565   7.626 -0.9047 -0.0389 -0.2886
    5MOL0     H  621   1.864   8.698   7.516  2.8423  1.6367 -1.3262
    5MOL0     H  622   2.012   8.681   7.332 -0.9749  0.8549  0.8011
    5MOL0     H  623   2.137   8.595   7.151  0.7706  1.6342 -0.3894
    5MOL0     H  624   2.085   8.736   7.069  1.7945 -0.2247  2.7122
    5MOL0     H  625   2.035   8.607   6.857  0.8868  1.1579 -0.8531
    5MOL0     H  626   2.203   8.631   6.883 -1.0888  2.8252  1.0036
    5MOL0     H  627   2.246   8.399   6.920 -0.8370  0.4672  1.0610
    5MOL0     H  628   2.079   8.371   6.990  1.2849  0.5232  2.0686
    5MOL0     H  629   2.000   8.376   6.745  0.5867  4.3095  1.3828
    5MOL0     H  630   2.163   8.415   6.697  1.9214 -1.8527  0.0241
    5MOL0     H  631   2.092   8.179   6.866  2.0894  1.0758  2.3020
    5MOL0     H  632   2.242   8.202   6.785 -0.2817  1.5557  2.9593
    5MOL0     H  633   2.096   8.049   6.664  1.1950  1.1627  1.2617
    5MOL0     H  634   1.969   8.172   6.638 -1.0585 -0.0082  0.4173
    5MOL0     H  635   2.258   8.174   6.523 -0.8332  1.4176  0.4740
    5MOL0     H  636   2.122   8.286   6.485 -3.9987 -0.9433  1.5630
    5MOL0     H  637   2.128   8.155   6.305  0.3118 -0.6807 -0.5947
    5MOL0     H  638   2.181   8.004   6.402  1.0922  1.5948  1.9045
    5MOL0     H  639   1.877   8.245   6.340  0.9521  0.3048  1.6143
    5MOL0     H  640   1.569   8.060   6.277  2.1493  0.9930 -2.0749
    5MOL0     H  641   1.645   8.218   6.256  0.8501 -2.3097 -3.3534
    5MOL0     H  642   1.432   8.187   6.406  0.4707 -0.2121 -1.9029
    5MOL0     H  643   1.533   8.091   6.504 -0.3712  0.6858  2.6834
    5MOL0     H  644   1.632   8.285   6.599 -1.0362  2.1257  1.8493
    5MOL0     H  645   1.594   8.396   6.458 -0.1999  2.4201  3.1365
    5MOL0     H  646   1.429   8.458   6.627 -2.6588 -0.7167 -0.6743
    5MOL0     H  647   1.355   8.369   6.508  0.6138  1.9984 -0.8714
    5MOL0     H  648   1.185   8.443   6.670 -3.2445  0.3612 -0.4571
    5MOL0     H  649   0.847   8.377   6.675  1.5162 -2.3515  0.8678
    5MOL0     H  650   0.978   8.489   6.626 -1.2691 -1.4750 -1.4071
    5MOL0     H  651   0.913   8.502   6.792  1.6751 -2.7353  2.3779
    5MOL0     H  652   0.701   8.091   7.113 -0.8466 -1.0534  0.6159
    5MOL0     H  653   0.510   8.109   7.244  2.3946  1.8119  2.2934
    5MOL0     H  654   0.271   8.119   7.246 -0.2967 -1.3690 -0.1407
    5MOL0     H  655   0.362   8.205   7.379  0.2677 -1.6283 -1.1739
    5MOL0     H  656   0.146   8.346   7.401 -0.6233 -0.0336  1.5273
    5MOL0     H  657   0.063   8.223   7.310  1.4008  0.6494 -2.2807
    5MOL0     H  658   0.228   8.187   7.579  0.4146 -1.6072  1.0172
    5MOL0     H  659   0.164   8.052   7.485 -4.5578 -1.5122  0.5739
    5MOL0     H  660  -0.066   8.145   7.529  1.3400  0.8599 -0.2968
    5MOL0     H  661   0.024   8.272   7.624 -0.4887  1.0722  0.9577
    5MOL0     H  662  -0.015   7.984   7.694  1.2111  0.2280  2.9425
    5MOL0     H  663   0.129   8.082   7.743 -0.1186  0.3459  3.0132
    5MOL0     H  664  -0.168   8.158   7.782 -0.7779  1.0780  2.2473
    5MOL0     H  665  -0.028   8.239   7.841 -1.4312  0.0087  0.6894
    5MOL0     H  666  -0.123   7.948   7.905 -0.4000  0.1693 -1.7052
    5MOL0     H  667  -0.162   8.078   8.005  1.1352 -3.4370  3.2258
    5MOL0     H  668   0.035   8.100   8.120  0.6568  2.2478 -0.5856
    5MOL0     H  669   0.133   8.078   7.982  0.2980  0.3906  0.3172
    5MOL0     H  670   0.392   8.472   7.056  0.6966 -0.5030  2.4752
    5MOL0     H  671   0.621   8.459   6.920  0.4280 -0.7074 -1.0707
    5MOL0     H  672   1.086   8.039   6.934  2.0304 -1.7553 -0.5257
    5MOL0     H  673   1.317   8.076   6.841 -0.3526 -0.1546  1.0388
    5MOL0     H  674   1.718   8.457   7.109 -0.8145  0.3308  0.1676
    5MOL0     H  675   1.571   8.454   7.318 -2.4269  2.1441 -0.0154
    5MOL0     H  676   1.671   8.261   7.812 -1.0041 -0.2458  0.2140
    5MOL0     H  677   1.516   8.174   7.965  1.1330  1.7275  1.9351
    5MOL0     H  678   1.103   8.367   7.965  1.0268 -2.3258 -2.3347
    5MOL0     H  679   1.092   8.237   8.090 -2.5919  0.4677 -2.5337
    5MOL0     H  680   1.113   8.449   8.215  1.5188  2.1037  0.3967
    5MOL0     H  681   1.231   8.504   8.105  0.3267  0.4961 -0.0154
    5MOL0     H  682   1.315   8.241   8.236  1.2643 -0.3361  0.8399
    5MOL0     H  683   1.410   8.386   8.210 -0.8239 -0.7029 -3.4741
    5MOL0     H  684   1.395   8.354   8.453 -1.1543 -0.7441 -0.4141
    5MOL0     H  685   1.217   8.374   8.441  0.7240  1.3428  0.8929
    5MOL0     H  686   1.364   8.780   8.374  5.4128 -0.1971  3.1059
    5MOL0     H  687   1.225   8.472   7.833 -1.2935 -0.3714 -1.0488
    5MOL0     H  688   1.386   8.523   7.528 -4.6558 -0.3546 -1.2657
    5MOL0     H  689   1.254   8.583   7.615 -0.8897 -0.9078 -2.3544
    5MOL0     H  690   1.409   8.661   7.651  1.6597 -1.1463 -0.5817
    6MOL0     O  691   2.633  10.781   3.305  1.1524 -0.2425  0.0698
    6MOL0     C  692   2.682  10.798   3.411 -0.2331 -0.3926  0.2693
    6MOL0     O  693   2.613  10.839   3.522  0.5920  0.7758 -0.7898
    6MOL0     C  694   2.480  10.799   3.547  0.2904 -0.0203 -0.4308
    6MOL0     C  695   2.425  10.676   3.512 -0.2990  0.6163  0.7548
    6MOL0     C  696   2.289  10.647   3.546 -0.1253 -0.1009  0.0729
    6MOL0     C  697   2.211  10.746   3.609 -0.1803  0.1885 -0.7418
    6MOL0     O  698   2.086  10.705   3.642 -0.1019  0.1407 -0.1564
    6MOL0     C  699   2.003  10.799   3.697  0.8054  0.7839  0.7494
    6MOL0     C  700   1.874  10.717   3.726  1.2949 -1.0550 -0.6061
    6MOL0     C  701   1.888  10.644   3.856 -0.4475  0.0604 -0.1663
    6MOL0     C  702   1.760  10.566   3.892 -0.4276 -0.7267 -0.2589
    6MOL0     C  703   1.774  10.498   4.024  0.4534  0.2588 -0.3992
    6MOL0     C  704   1.679  10.374   4.041 -0.2548 -0.5308  1.3561
    6MOL0     C  705   1.718  10.291   4.166 -0.7075 -0.2347  0.0549
    6MOL0     C  706   1.623  10.171   4.186  0.1149 -0.2401 -0.1900
    6MOL0     N  707   1.652  10.059   4.099 -0.0629  0.1016  0.2010
    6MOL0     C  708   1.573   9.947   4.088 -1.4409 -0.7851 -0.2568
    6MOL0     C  709   1.634   9.861   4.008  0.4519 -0.0995 -0.0068
    6MOL0     C  710   1.589   9.727   3.981 -0.4681  0.0908 -0.6037
    6MOL0     C  711   1.638   9.678   3.849 -0.5043  0.0987 -1.0764
    6MOL0     C  712   1.570   9.549   3.810 -1.4364  0.1634 -0.2135
    6MOL0     C  713   1.615   9.422   3.900  0.4004  0.8249  0.9927
    6MOL0     O  714   1.520   9.316   3.875  0.1982 -0.2917  0.5058
    6MOL0     C  715   1.543   9.192   3.929  0.9210  0.0426  1.1530
    6MOL0     C  716   1.619   9.159   4.041 -0.1979  0.5425  0.2707
    6MOL0     C  717   1.611   9.028   4.097  0.6005  1.2324  0.2960
    6MOL0     C  718   1.678   9.009   4.234 -0.0956 -1.0729 -0.1115
    6MOL0     C  719   1.530   8.927   4.036 -0.4820 -1.2069 -0.0092
    6MOL0     C  720   1.528   8.785   4.080  0.1034  0.1166 -0.1307
    6MOL0     O  721   1.431   8.699   4.025 -0.7094  0.5751 -0.4162
    6MOL0     C  722   1.422   8.561   4.048  0.2084  0.3380  0.0390
    6MOL0     C  723   1.301   8.496   4.015 -0.4165  0.2892 -0.1670
    6MOL0     C  724   1.277   8.357   4.014 -0.0192  0.4674  0.1661
    6MOL0     C  725   1.372   8.271   4.068 -0.4970 -0.0421 -0.1765
    6MOL0     O  726   1.347   8.134   4.069 -0.2542  0.0605 -0.2763
    6MOL0     C  727   1.278   8.084   4.184  0.1263 -0.2281 -0.3456
    6MOL0     C  728   1.299   7.930   4.173  0.3068 -0.9556 -0.7519
    6MOL0     C  729   1.433   7.880   4.221  0.2168  0.2619  0.5186
    6MOL0     C  730   1.455   7.728   4.226  0.4569 -0.0215  0.3560
    6MOL0     C  731   1.593   7.703   4.286 -0.6000 -0.2451  0.1943
    6MOL0     C  732   1.621   7.556   4.277 -0.4498 -0.0173 -0.4579
    6MOL0     C  733   1.765   7.518   4.326 -0.5860  0.1638  0.0879
    6MOL0     C  734   1.793   7.373   4.305  0.2046 -0.1836  0.1090
    6MOL0    Cl  735   1.763   7.313   4.138 -0.4058  0.3370  0.0224
    6MOL0     C  736   1.496   8.328   4.104  0.5246 -0.0817 -0.4600
    6MOL0     C  737   1.527   8.468   4.089  0.6828  0.6143  0.0174
    6MOL0     O  738   1.604   8.751   4.167 -0.0055 -0.1310  0.1551
    6MOL0     C  739   1.453   8.966   3.914  0.3412 -0.0954  0.7404
    6MOL0     C  740   1.453   9.096   3.876 -0.1752 -0.0059 -0.1727
    6MOL0     N  741   1.748   9.923   3.953 -0.1120  0.2306  0.7919
    6MOL0     N  742   1.757  10.036   4.009  0.0293 -0.7644 -1.0405
    6MOL0     C  743   2.272  10.871   3.644  0.5892  0.0409  0.8606
    6MOL0     C  744   2.408  10.895   3.612 -0.6706  0.3343 -1.0942
    6MOL0     C  745   2.832  10.781   3.406  0.0332  0.4553 -0.1669
    6MOL0     C  746   2.890  10.724   3.284 -0.6588 -0.7240  0.9896
    6MOL0     C  747   3.030  10.703   3.284 -0.7345  0.0626  0.3081
    6MOL0     C  748   3.105  10.743   3.391  0.2325  0.2713 -0.1253
    6MOL0     O  749   3.238  10.717   3.409  0.3037  1.2935 -0.3930
    6MOL0     C  750   3.268  10.587   3.465  0.3374 -0.6392  0.0182
    6MOL0     C  751   3.398  10.544   3.408  0.5433 -0.5629 -0.7308
    6MOL0     C  752   3.514  10.631   3.448  0.0402 -0.3468  0.2643
    6MOL0     C  753   3.544  10.652   3.593 -0.7022 -0.4290  0.2772
    6MOL0     C  754   3.488  10.774   3.661  0.4745  0.2958  0.1155
    6MOL0     C  755   3.448  10.871   3.716  0.9772 -0.2925  0.1406
    6MOL0     C  756   3.047  10.814   3.494 -0.4261  0.8534  0.0533
    6MOL0     C  757   2.910  10.842   3.501  0.3047  0.1145  0.9722
    6MOL0     C  758   2.861  10.943   3.603 -1.0939  0.6866 -0.0565
    6MOL0     H  759   2.487  10.600   3.465  3.4074  2.7186  1.8096
    6MOL0     H  760   2.240  10.554   3.518  2.0891 -0.5700 -2.7286
    6MOL0     H  761   1.975  10.880   3.629 -0.6338  2.0010  2.6682
    6MOL0     H  762   2.040  10.838   3.792 -0.0649 -0.5362  1.6584
    6MOL0     H  763   1.794  10.792   3.731  1.5279 -0.8572  3.2310
    6MOL0     H  764   1.857  10.637   3.654 -0.9174 -1.4295  0.2757
    6MOL0     H  765   1.979  10.582   3.851 -0.1300  0.6126 -1.7464
    6MOL0     H  766   1.890  10.708   3.944 -2.5796 -1.8385  1.3917
    6MOL0     H  767   1.672  10.628   3.910 -3.7825 -5.0250 -0.1628
    6MOL0     H  768   1.735  10.497   3.810  1.6279  0.5162 -2.0614
    6MOL0     H  769   1.763  10.566   4.109 -2.4663 -0.1556 -0.3414
    6MOL0     H  770   1.871  10.452   4.045  0.0875 -1.7137 -2.6500
    6MOL0     H  771   1.578  10.410   4.061 -0.0677  0.1089  1.1841
    6MOL0     H  772   1.671  10.322   3.945 -0.5206 -3.2703  2.7709
    6MOL0     H  773   1.719  10.346   4.261  3.1207 -2.5111  1.5357
    6MOL0     H  774   1.824  10.265   4.157 -0.7333  0.0908 -1.4104
    6MOL0     H  775   1.617  10.126   4.285 -0.2846 -1.5946 -0.7963
    6MOL0     H  776   1.519  10.196   4.166  0.4100 -0.4076 -2.2116
    6MOL0     H  777   1.488   9.925   4.153 -1.1761 -2.3116 -0.3835
    6MOL0     H  778   1.480   9.718   3.986 -0.3850 -1.3530 -0.9025
    6MOL0     H  779   1.640   9.667   4.057  1.3668 -1.3383 -2.8190
    6MOL0     H  780   1.623   9.758   3.776 -2.6688 -0.2038 -1.0455
    6MOL0     H  781   1.747   9.668   3.851 -0.4962  0.2569 -0.5201
    6MOL0     H  782   1.461   9.557   3.814 -1.5070 -0.2995 -0.9022
    6MOL0     H  783   1.586   9.529   3.703  1.3968 -2.2825  0.5377
    6MOL0     H  784   1.711   9.387   3.861 -0.9291  0.4854 -2.2660
    6MOL0     H  785   1.612   9.446   4.006 -0.5969 -0.7543  1.3435
    6MOL0     H  786   1.661   9.240   4.100 -0.7703  0.7955  0.3325
    6MOL0     H  787   1.746   8.923   4.233 -0.0256 -1.0499  1.1110
    6MOL0     H  788   1.593   8.991   4.299 -0.2847 -0.0106 -0.0532
    6MOL0     H  789   1.722   9.106   4.260 -0.8981  0.1075 -2.7896
    6MOL0     H  790   1.222   8.557   3.973  0.4448  0.0069 -2.3172
    6MOL0     H  791   1.187   8.311   3.974  1.1444 -1.3550 -0.4958
    6MOL0     H  792   1.321   8.123   4.277 -3.2464  2.4908  0.2666
    6MOL0     H  793   1.179   8.128   4.171 -0.0782 -0.6171 -0.1186
    6MOL0     H  794   1.221   7.881   4.232  1.7402  0.0336  2.1615
    6MOL0     H  795   1.280   7.901   4.069 -2.0598  3.2559 -1.7193
    6MOL0     H  796   1.461   7.934   4.312  2.4882  2.1013 -1.1427
    6MOL0     H  797   1.512   7.914   4.152  0.2472  0.2803  0.5620
    6MOL0     H  798   1.440   7.686   4.126  0.6795  0.3436  0.1631
    6MOL0     H  799   1.381   7.680   4.290  2.2178  0.7695  3.1483
    6MOL0     H  800   1.665   7.762   4.230  0.0315 -1.5006 -0.3445
    6MOL0     H  801   1.590   7.743   4.388 -0.7814 -2.5291  1.1340
    6MOL0     H  802   1.608   7.527   4.173  1.2385  0.2894 -0.7814
    6MOL0     H  803   1.537   7.514   4.333 -1.5817  1.6405 -0.8327
    6MOL0     H  804   1.789   7.558   4.425  1.2433 -0.2682 -0.1543
    6MOL0     H  805   1.832   7.566   4.255 -1.6449  0.2625 -0.8855
    6MOL0     H  806   1.735   7.307   4.370  0.5300  0.5098  1.1265
    6MOL0     H  807   1.900   7.354   4.321 -0.1662 -0.6380  2.3991
    6MOL0     H  808   1.566   8.262   4.155  1.8387  1.2209 -0.4945
    6MOL0     H  809   1.625   8.507   4.114  2.3617 -2.2626 -1.5378
    6MOL0     H  810   1.410   8.898   3.840 -1.8140 -0.0032  1.8280
    6MOL0     H  811   1.412   9.107   3.776 -0.7462 -0.0447  0.0577
    6MOL0     H  812   2.220  10.956   3.688 -2.2019 -1.5551  0.8331
    6MOL0     H  813   2.446  10.995   3.629 -0.5484  0.3741 -1.5790
    6MOL0     H  814   2.830  10.689   3.200 -0.0881 -0.2296  0.3687
    6MOL0     H  815   3.095  10.664   3.206  0.1486  0.7831  0.6740
    6MOL0     H  816   3.263  10.591   3.574  0.1182  3.1984  0.0124
    6MOL0     H  817   3.197  10.512   3.429  0.4349  0.5500 -2.9301
    6MOL0     H  818   3.370  10.544   3.303 -2.2522  0.8734 -0.0680
    6MOL0     H  819   3.415  10.441   3.444  0.3809 -0.0670  0.8651
    6MOL0     H  820   3.599  10.573   3.411  0.2408 -1.1451  1.9138
    6MOL0     H  821   3.510  10.725   3.391  1.9220 -0.9583 -0.9775
    6MOL0     H  822   3.653  10.661   3.606 -0.4967  0.9151 -1.8493
    6MOL0     H  823   3.511  10.568   3.654 -0.6134 -2.5886 -2.4634
    6MOL0     H  824   3.416  10.950   3.781 -0.5702 -0.8426  0.0695
    6MOL0     H  825   3.116  10.842   3.573 -0.2953  0.6316  0.0161
    6MOL0     H  826   2.794  10.895   3.675  0.5658 -4.6604 -1.5348
    6MOL0     H  827   2.945  10.998   3.646  0.0423 -1.3621  0.4784
    6MOL0     H  828   2.804  11.015   3.544  0.4537  0.2424 -2.2278
    7MOL0     O  829   1.659  10.935  11.068  0.5290  0.3164  0.0444
    7MOL0     C  830   1.705  10.931  11.185  0.8569  0.6452 -0.2555
    7MOL0     O  831   1.830  10.960  11.219  0.0595  0.1908  0.0394
    7MOL0     C  832   1.910  11.011  11.121 -0.8981 -0.3601 -0.2418
    7MOL0     C  833   1.949  10.930  11.008  0.3262 -0.8448 -0.7954
    7MOL0     C  834   2.018  10.997  10.903  0.3909  0.2697  0.6626
    7MOL0     C  835   2.068  11.124  10.912 -0.0864 -0.5402  0.0215
    7MOL0     O  836   2.131  11.168  10.809 -0.0599 -1.0786 -0.6927
    7MOL0     C  837   2.220  11.273  10.843  0.2794  0.5434  0.0644
    7MOL0     C  838   2.275  11.308  10.709  0.0894 -0.2464 -1.0954
    7MOL0     C  839   2.179  11.341  10.605  0.9345  0.4315  0.5863
    7MOL0     C  840   2.259  11.396  10.484 -0.4144  0.4842 -0.1855
    7MOL0     C  841   2.166  11.431  10.374  0.8793 -0.5064  0.6177
    7MOL0     C  842   2.228  11.468  10.235  0.3368 -0.0423 -0.3336
    7MOL0     C  843   2.120  11.479  10.129  0.6335 -0.4644  0.0289
    7MOL0     C  844   2.018  11.586  10.147  0.0537 -0.0386 -0.6274
    7MOL0     N  845   1.956  11.620  10.023  0.1170 -0.4886 -0.0616
    7MOL0     C  846   1.954  11.749   9.974  0.5965  0.1099  0.0825
    7MOL0     C  847   1.911  11.739   9.844 -0.1676  0.3221 -0.5802
    7MOL0     C  848   1.926  11.856   9.742 -0.7555  0.7753  0.7874
    7MOL0     C  849   1.799  11.931   9.693 -0.0329  1.0311  0.1897
    7MOL0     C  850   1.708  11.830   9.614  0.1321 -1.1026 -0.3271
    7MOL0     C  851   1.596  11.905   9.540  0.1469 -0.1109 -0.1316
    7MOL0     O  852   1.473  11.850   9.565 -0.6846 -0.7267  0.4317
    7MOL0     C  853   1.379  11.889   9.470  0.2378 -0.6703  0.1533
    7MOL0     C  854   1.362  12.029   9.440  0.6836 -0.0583 -0.4215
    7MOL0     C  855   1.251  12.078   9.365  0.8467  0.2980 -0.3176
    7MOL0     C  856   1.225  12.236   9.372 -0.1252  1.1749  0.0939
    7MOL0     C  857   1.167  11.981   9.310  1.1068 -0.6872  0.5028
    7MOL0     C  858   1.040  12.024   9.238  0.2292  1.2290  0.0913
    7MOL0     O  859   0.946  11.920   9.207 -0.7449  0.2434 -0.2841
    7MOL0     C  860   0.857  11.946   9.104 -0.0038 -0.3768 -0.7431
    7MOL0     C  861   0.890  12.018   8.985 -1.4991  0.9009 -0.0084
    7MOL0     C  862   0.795  12.056   8.893 -0.0314 -0.3763 -0.3678
    7MOL0     C  863   0.666  12.038   8.925  0.6398  0.1280  0.2025
    7MOL0     O  864   0.562  12.082   8.845  0.0827 -0.7616 -0.1685
    7MOL0     C  865   0.550  12.222   8.861  0.1355  0.2098  0.1309
    7MOL0     C  866   0.444  12.262   8.768 -0.7834 -1.3106 -0.4066
    7MOL0     C  867   0.461  12.408   8.735 -0.2524 -0.5437  0.2816
    7MOL0     C  868   0.368  12.463   8.626 -0.4649  0.4384  0.4519
    7MOL0     C  869   0.366  12.616   8.627 -0.3672  0.4492  0.1167
    7MOL0     C  870   0.267  12.679   8.729 -1.1474  1.1130  1.0667
    7MOL0     C  871   0.285  12.827   8.751 -0.5475 -0.0744 -0.1560
    7MOL0     C  872   0.414  12.863   8.811 -0.0106 -0.2429 -0.4986
    7MOL0    Cl  873   0.429  12.829   8.983 -0.1460  0.2573 -0.2883
    7MOL0     C  874   0.632  11.960   9.041  0.4874 -0.7487  0.1863
    7MOL0     C  875   0.724  11.924   9.136  0.8845  0.4294 -0.0097
    7MOL0     O  876   1.035  12.134   9.192 -0.5252  0.7569 -0.1450
    7MOL0     C  877   1.199  11.849   9.317  0.3181  0.9321 -0.4208
    7MOL0     C  878   1.303  11.801   9.403  0.3358  0.3628  0.5564
    7MOL0     N  879   1.874  11.606   9.828  0.3229 -0.3158  0.6054
    7MOL0     N  880   1.906  11.541   9.936 -0.3796  0.3052 -0.0882
    7MOL0     C  881   2.043  11.194  11.032  0.2996 -0.1341 -0.4857
    7MOL0     C  882   1.960  11.138  11.136  0.4282 -0.4636 -0.0464
    7MOL0     C  883   1.605  10.893  11.290  0.6465  0.3338 -0.2433
    7MOL0     C  884   1.645  10.911  11.427 -0.2643 -0.8115  1.9989
    7MOL0     C  885   1.559  10.899  11.530  0.4360 -0.0853 -0.0330
    7MOL0     C  886   1.429  10.850  11.504  0.9263  0.6117  0.3236
    7MOL0     O  887   1.349  10.844  11.614 -0.7508 -0.7072  0.1485
    7MOL0     C  888   1.286  10.719  11.644  0.2306  0.0190 -0.0771
    7MOL0     C  889   1.278  10.695  11.796 -1.1489 -0.0670  0.0422
    7MOL0     C  890   1.242  10.823  11.869 -1.1275  0.5973 -0.4492
    7MOL0     C  891   1.101  10.866  11.831  0.3301 -0.3480 -0.0824
    7MOL0     C  892   1.058  10.958  11.942  0.0754  0.6457  0.8702
    7MOL0     C  893   1.032  11.027  12.033 -0.7116  0.5334 -1.5324
    7MOL0     C  894   1.391  10.815  11.373  0.2700  0.1633  0.2043
    7MOL0     C  895   1.472  10.828  11.266  0.2057  0.0243 -0.1286
    7MOL0     C  896   1.422  10.784  11.134 -0.9955  0.1455  0.9774
    7MOL0     H  897   1.904  10.835  10.985  0.2085 -1.0585  0.2960
    7MOL0     H  898   2.026  10.942  10.810  2.5152 -1.5523  1.8328
    7MOL0     H  899   2.290  11.236  10.919 -0.0276  1.7340  0.9480
    7MOL0     H  900   2.169  11.356  10.893  1.2876  1.3760 -0.2423
    7MOL0     H  901   2.338  11.393  10.736 -1.1186  0.2330  0.3444
    7MOL0     H  902   2.345  11.234  10.668  2.2371  0.2763  1.3855
    7MOL0     H  903   2.123  11.257  10.565  0.1518  1.3470 -0.2846
    7MOL0     H  904   2.106  11.414  10.642 -0.8514 -1.3640  0.7463
    7MOL0     H  905   2.311  11.487  10.514  0.1567  0.0739  0.1049
    7MOL0     H  906   2.332  11.321  10.450 -0.1403  1.4122 -1.7261
    7MOL0     H  907   2.084  11.500  10.398  0.7061 -0.5692  0.2141
    7MOL0     H  908   2.115  11.335  10.362  0.1872  0.0296 -1.0039
    7MOL0     H  909   2.285  11.562  10.240 -1.2794  0.9722 -0.1222
    7MOL0     H  910   2.297  11.387  10.210  1.3565  0.8224 -0.4167
    7MOL0     H  911   2.075  11.379  10.124 -0.1604 -0.1316  0.3801
    7MOL0     H  912   2.163  11.508  10.032 -0.9769  1.2500 -0.2285
    7MOL0     H  913   1.935  11.547  10.207  0.5324 -0.1354 -0.0109
    7MOL0     H  914   2.060  11.675  10.196 -0.7249 -0.4574  0.8678
    7MOL0     H  915   1.983  11.842  10.022 -1.6869  2.0393 -2.0272
    7MOL0     H  916   1.984  11.820   9.656  2.4750  1.9366  2.3186
    7MOL0     H  917   1.994  11.933   9.778  0.5558  1.2620 -2.3595
    7MOL0     H  918   1.742  11.965   9.779  1.7530  2.2437  0.9543
    7MOL0     H  919   1.835  12.019   9.639  2.8203  0.6740  1.3323
    7MOL0     H  920   1.761  11.779   9.534 -0.2735 -1.5249 -0.3310
    7MOL0     H  921   1.668  11.745   9.670  0.7482 -2.4038 -1.8166
    7MOL0     H  922   1.590  12.010   9.570 -4.4712 -0.6960  1.8779
    7MOL0     H  923   1.623  11.898   9.434 -2.0144  1.8821 -0.9055
    7MOL0     H  924   1.424  12.098   9.496  2.1008  0.4806 -2.5577
    7MOL0     H  925   1.139  12.254   9.437 -0.9467 -2.7813  0.3435
    7MOL0     H  926   1.201  12.273   9.272 -0.2153 -2.2862 -1.3031
    7MOL0     H  927   1.314  12.290   9.408  1.6126  0.1252 -2.3511
    7MOL0     H  928   0.995  12.037   8.967 -1.8019  1.4905 -1.2266
    7MOL0     H  929   0.810  12.114   8.802  1.6454  1.2914  0.9007
    7MOL0     H  930   0.524  12.257   8.961  0.2060  1.5570 -0.3045
    7MOL0     H  931   0.645  12.269   8.833  1.0445 -2.6424 -2.0117
    7MOL0     H  932   0.448  12.212   8.671  0.6422  0.2293 -1.1980
    7MOL0     H  933   0.352  12.232   8.818 -1.2969  1.8539  0.8057
    7MOL0     H  934   0.563  12.422   8.699 -0.0573 -0.2708  0.9110
    7MOL0     H  935   0.441  12.469   8.824 -0.1011 -0.4784  0.2701
    7MOL0     H  936   0.271  12.418   8.649  1.5351 -4.3282  0.5686
    7MOL0     H  937   0.404  12.424   8.530  3.4360  1.6585  1.2443
    7MOL0     H  938   0.471  12.642   8.641 -0.3533  1.7520 -1.9268
    7MOL0     H  939   0.336  12.660   8.531 -0.6297 -1.6374 -0.8336
    7MOL0     H  940   0.279  12.622   8.822 -1.1401 -0.3203  0.2324
    7MOL0     H  941   0.167  12.656   8.692 -1.4543  1.4782  1.6716
    7MOL0     H  942   0.204  12.874   8.808 -0.9139 -1.6805  0.7432
    7MOL0     H  943   0.291  12.879   8.655 -0.5108  0.3520  0.0744
    7MOL0     H  944   0.433  12.969   8.790  1.5262 -0.7508 -1.8255
    7MOL0     H  945   0.492  12.801   8.767 -0.5079 -2.7565  1.8799
    7MOL0     H  946   0.527  11.936   9.055  0.5872 -1.7367 -0.6184
    7MOL0     H  947   0.688  11.872   9.224  2.4741 -1.9671 -0.6846
    7MOL0     H  948   1.150  11.779   9.250  0.2936  1.0192 -0.4948
    7MOL0     H  949   1.315  11.693   9.410 -0.3147  0.3480  1.5715
    7MOL0     H  950   2.085  11.290  11.057  2.4765 -0.9310 -0.8260
    7MOL0     H  951   1.938  11.188  11.230 -0.1526 -2.4008  0.8875
    7MOL0     H  952   1.742  10.950  11.457  0.4807  0.5633 -1.6380
    7MOL0     H  953   1.580  10.926  11.633 -0.6890  1.2328 -0.1243
    7MOL0     H  954   1.187  10.715  11.597 -0.4230  1.6900  1.0479
    7MOL0     H  955   1.341  10.640  11.591 -1.7457 -0.9469 -0.8065
    7MOL0     H  956   1.376  10.656  11.825 -1.1588  0.8809  1.4689
    7MOL0     H  957   1.201  10.619  11.816  0.1927 -1.7767 -0.9745
    7MOL0     H  958   1.260  10.792  11.972  0.0970  0.6903 -0.6221
    7MOL0     H  959   1.306  10.910  11.851  2.0217 -1.6310 -0.8294
    7MOL0     H  960   1.029  10.785  11.845  0.7626 -0.4397  1.9357
    7MOL0     H  961   1.099  10.909  11.731  1.3447 -0.1838 -0.0431
    7MOL0     H  962   1.012  11.084  12.122  1.5836 -1.7343  0.6326
    7MOL0     H  963   1.293  10.771  11.355  0.9244 -1.8596  1.2732
    7MOL0     H  964   1.337  10.717  11.151  0.3692 -1.2106  2.7650
    7MOL0     H  965   1.391  10.868  11.070  3.3119  0.9423 -0.3560
    7MOL0     H  966   1.496  10.728  11.076 -2.5074 -3.1482  2.0065
    8MOL0     O  967   6.111   7.038   1.685  0.0577  0.0505  0.1950
    8MOL0     C  968   6.078   6.987   1.581 -0.1716  0.6449 -0.6042
    8MOL0     O  969   6.097   6.849   1.550  0.4777  0.1798 -0.1558
    8MOL0     C  970   6.189   6.769   1.607  0.4783 -0.6374  0.7058
    8MOL0     C  971   6.164   6.639   1.625  0.5273  0.7490 -0.4420
    8MOL0     C  972   6.260   6.556   1.674  0.0394  1.2219 -0.4375
    8MOL0     C  973   6.390   6.605   1.703 -0.4816  0.3720 -0.0994
    8MOL0     O  974   6.487   6.510   1.720 -0.2226  0.3048 -0.5752
    8MOL0     C  975   6.602   6.542   1.786 -0.4145 -0.5532  0.6825
    8MOL0     C  976   6.724   6.571   1.697 -0.0080  0.3710  0.9843
    8MOL0     C  977   6.824   6.654   1.779  0.0206  0.2308  0.7253
    8MOL0     C  978   6.959   6.660   1.716  0.2857  0.6079  0.5899
    8MOL0     C  979   7.054   6.769   1.770 -0.7411  0.8021  0.1143
    8MOL0     C  980   7.191   6.753   1.705 -0.8945 -0.2238  0.3628
    8MOL0     C  981   7.293   6.861   1.755 -0.2866  0.0109  0.3071
    8MOL0     C  982   7.420   6.886   1.664 -0.0208  1.0981  0.5376
    8MOL0     N  983   7.503   6.770   1.636 -0.3151 -0.1040  0.1267
    8MOL0     C  984   7.617   6.725   1.695 -0.3376 -0.3756 -0.1297
    8MOL0     C  985   7.661   6.609   1.627  0.8459 -1.2203 -1.5033
    8MOL0     C  986   7.771   6.530   1.668 -1.0424 -0.5538  0.5744
    8MOL0     C  987   7.819   6.435   1.554  0.9481  0.7145  0.7765
    8MOL0     C  988   7.871   6.503   1.432 -0.5365 -0.0030  0.0474
    8MOL0     C  989   7.943   6.416   1.324 -0.0581  0.1763  0.2885
    8MOL0     O  990   7.836   6.349   1.256  0.4057  0.3291  0.1147
    8MOL0     C  991   7.845   6.328   1.124  0.4831 -0.4966  0.2215
    8MOL0     C  992   7.957   6.339   1.050 -0.3054  0.6063  0.4866
    8MOL0     C  993   7.955   6.325   0.908  1.0049 -0.1296  0.1551
    8MOL0     C  994   8.086   6.338   0.845  0.4878 -0.4204  0.6459
    8MOL0     C  995   7.835   6.298   0.838  0.0087 -0.0860  0.0025
    8MOL0     C  996   7.819   6.274   0.697  0.0209  0.3228  0.1878
    8MOL0     O  997   7.693   6.282   0.644 -0.2596  0.3101  0.1758
    8MOL0     C  998   7.672   6.228   0.520  1.1032 -0.0885  0.3685
    8MOL0     C  999   7.650   6.315   0.409  0.7271  0.6029  0.1030
    8MOL0     C 1000   7.619   6.260   0.284 -0.0826  0.3906 -0.7484
    8MOL0     C 1001   7.615   6.126   0.263  0.4670 -0.0963 -0.1755
    8MOL0     O 1002   7.562   6.080   0.145  0.1912 -0.6454 -0.3562
    8MOL0     C 1003   7.667   6.045   0.055  0.0369  1.1224  0.0652
    8MOL0     C 1004   7.614   5.952  -0.061  0.5252  0.7093  0.4932
    8MOL0     C 1005   7.517   6.051  -0.140  1.1118  0.0020 -0.2128
    8MOL0     C 1006   7.448   5.967  -0.245  0.3054 -0.6373  0.7003
    8MOL0     C 1007   7.388   6.052  -0.357  0.4808 -0.4201  1.2457
    8MOL0     C 1008   7.317   5.951  -0.453 -0.3500 -0.1103  0.9672
    8MOL0     C 1009   7.263   6.036  -0.574 -0.2158 -0.1732  0.1353
    8MOL0     C 1010   7.379   6.054  -0.678 -1.0634  0.2141 -1.3947
    8MOL0    Cl 1011   7.428   5.930  -0.790 -0.2232  0.3161  0.3491
    8MOL0     C 1012   7.643   6.040   0.372  0.8888  0.2447  0.0153
    8MOL0     C 1013   7.656   6.090   0.500 -0.6673 -0.2212  0.5123
    8MOL0     O 1014   7.924   6.269   0.632  0.4067 -0.1831 -1.0714
    8MOL0     C 1015   7.722   6.291   0.918  0.2369 -0.6083 -0.1071
    8MOL0     C 1016   7.726   6.326   1.048 -0.7455  0.4238 -0.3819
    8MOL0     N 1017   7.565   6.594   1.521 -0.0998 -1.1895 -0.6767
    8MOL0     N 1018   7.474   6.694   1.527  0.1318 -0.3830  0.0438
    8MOL0     C 1019   6.410   6.744   1.696  0.7664 -0.4785  0.0942
    8MOL0     C 1020   6.310   6.826   1.648  0.1774  0.6997 -0.2197
    8MOL0     C 1021   6.013   7.080   1.482  0.1386 -0.4564  1.4628
    8MOL0     C 1022   5.981   7.029   1.352  0.1920 -0.0531 -0.6737
    8MOL0     C 1023   5.893   7.093   1.261 -0.5233 -1.1693 -1.2105
    8MOL0     C 1024   5.833   7.221   1.301  0.4270 -0.0102  0.7284
    8MOL0     O 1025   5.761   7.303   1.218 -0.3981  0.4028 -0.9390
    8MOL0     C 1026   5.702   7.253   1.098 -0.1634  0.1580  0.1387
    8MOL0     C 1027   5.612   7.358   1.031  0.8159 -0.2962 -0.3821
    8MOL0     C 1028   5.508   7.279   0.952  0.2545  0.0372 -0.2439
    8MOL0     C 1029   5.370   7.270   1.014 -0.2418  0.1646  0.4062
    8MOL0     C 1030   5.288   7.191   0.938  0.4461  0.0999  0.4429
    8MOL0     C 1031   5.214   7.117   0.872  0.3817  0.3089 -0.2436
    8MOL0     C 1032   5.875   7.286   1.419  0.1365  0.2856  0.2231
    8MOL0     C 1033   5.951   7.211   1.511  0.1171 -0.8525 -1.0959
    8MOL0     C 1034   5.960   7.272   1.646 -0.0854  0.1620  0.3951
    8MOL0     H 1035   6.072   6.582   1.611  1.3721 -1.3289  1.9033
    8MOL0     H 1036   6.247   6.450   1.695  0.4940  0.9129 -1.6383
    8MOL0     H 1037   6.623   6.458   1.853  0.0420 -1.2059 -0.2558
    8MOL0     H 1038   6.579   6.623   1.856  0.4908 -1.7061  2.3842
    8MOL0     H 1039   6.740   6.464   1.677 -2.9822 -0.7321  3.5809
    8MOL0     H 1040   6.701   6.623   1.603  1.9827  0.7021  0.6343
    8MOL0     H 1041   6.792   6.758   1.780  0.1471  0.2804 -0.1430
    8MOL0     H 1042   6.819   6.612   1.880 -0.8684  0.4941  0.7991
    8MOL0     H 1043   7.014   6.566   1.710  1.7591  1.4247  0.6521
    8MOL0     H 1044   6.951   6.686   1.610  1.1170  1.5698  0.7434
    8MOL0     H 1045   7.058   6.765   1.879  0.4380  2.5282  0.1735
    8MOL0     H 1046   7.012   6.867   1.746  0.4989  0.8586 -2.1835
    8MOL0     H 1047   7.239   6.656   1.721  0.8666  0.1628 -2.0213
    8MOL0     H 1048   7.179   6.777   1.599 -0.0042  1.0074  0.5210
    8MOL0     H 1049   7.334   6.845   1.855 -0.9256  1.8926  0.9176
    8MOL0     H 1050   7.236   6.954   1.770  0.3009  0.2818  0.8763
    8MOL0     H 1051   7.379   6.936   1.576 -2.6240 -1.0929  0.3614
    8MOL0     H 1052   7.486   6.963   1.704  0.8488  0.5602  0.1671
    8MOL0     H 1053   7.671   6.770   1.779  0.4887  0.9042 -1.2938
    8MOL0     H 1054   7.746   6.467   1.753  1.5066 -1.1909  0.9393
    8MOL0     H 1055   7.851   6.601   1.692 -1.2576 -0.2726  0.4664
    8MOL0     H 1056   7.904   6.375   1.588  1.0590 -0.5696 -1.5241
    8MOL0     H 1057   7.748   6.361   1.517  3.3574 -1.7870  0.7857
    8MOL0     H 1058   7.791   6.553   1.377 -0.6554 -2.4150 -2.1560
    8MOL0     H 1059   7.937   6.584   1.465 -0.5265  0.5884 -1.3460
    8MOL0     H 1060   7.988   6.490   1.256  2.0466  1.2789  2.7130
    8MOL0     H 1061   8.017   6.345   1.362  4.1521  3.7364 -0.3487
    8MOL0     H 1062   8.044   6.325   1.113 -0.3642 -1.1939  0.1976
    8MOL0     H 1063   8.068   6.407   0.763 -1.7546  2.1018  3.0416
    8MOL0     H 1064   8.128   6.240   0.819 -1.7328 -0.7368 -2.2058
    8MOL0     H 1065   8.150   6.390   0.918  0.2098  1.8959 -0.6702
    8MOL0     H 1066   7.663   6.420   0.433  4.0141  0.0621  1.2994
    8MOL0     H 1067   7.606   6.323   0.197  1.0126 -2.2373 -2.9370
    8MOL0     H 1068   7.724   6.129   0.015  1.4801 -0.9628 -2.5310
    8MOL0     H 1069   7.735   5.975   0.105 -1.8111 -0.1007  1.0221
    8MOL0     H 1070   7.695   5.925  -0.130  3.0481  2.6908  2.4923
    8MOL0     H 1071   7.570   5.857  -0.033  1.1408  0.4051  0.4522
    8MOL0     H 1072   7.581   6.124  -0.191  1.6300  1.0964  1.8906
    8MOL0     H 1073   7.436   6.092  -0.079  0.2726  1.1043 -1.9850
    8MOL0     H 1074   7.373   5.900  -0.204  1.3359 -1.5873  1.0735
    8MOL0     H 1075   7.521   5.895  -0.281  2.6212  0.9284  1.9704
    8MOL0     H 1076   7.314   6.124  -0.320 -0.4298 -2.0479  2.7344
    8MOL0     H 1077   7.463   6.116  -0.404 -1.7134  1.1261 -0.3491
    8MOL0     H 1078   7.225   5.915  -0.406 -2.3034 -0.2362 -2.5516
    8MOL0     H 1079   7.380   5.864  -0.475  2.4921  1.8148  0.9641
    8MOL0     H 1080   7.235   6.132  -0.530 -2.5164  0.5071 -2.5718
    8MOL0     H 1081   7.178   5.984  -0.619 -0.5905  0.2717  0.3217
    8MOL0     H 1082   7.472   6.078  -0.627 -1.7486 -3.2506  1.9703
    8MOL0     H 1083   7.352   6.142  -0.736  1.3638  1.4659 -0.7530
    8MOL0     H 1084   7.634   5.932   0.376  1.4188  0.1612 -0.6552
    8MOL0     H 1085   7.664   6.022   0.584  3.1520 -0.0678  0.4748
    8MOL0     H 1086   7.623   6.262   0.885 -0.1959  1.2674 -0.5556
    8MOL0     H 1087   7.632   6.308   1.100 -0.1370 -1.5725  0.1330
    8MOL0     H 1088   6.498   6.791   1.739 -0.5553  4.4238 -1.8017
    8MOL0     H 1089   6.345   6.927   1.628  2.5808  0.5232  2.4546
    8MOL0     H 1090   6.043   6.952   1.307 -1.1268 -1.1467 -0.6482
    8MOL0     H 1091   5.865   7.068   1.159 -2.8313 -2.7618 -0.2614
    8MOL0     H 1092   5.783   7.243   1.024 -0.7877  0.0987 -0.5435
    8MOL0     H 1093   5.652   7.157   1.108 -2.4406  1.3972  1.5988
    8MOL0     H 1094   5.664   7.422   0.959 -0.0684  0.6446 -0.1971
    8MOL0     H 1095   5.570   7.426   1.105 -0.5499  0.9376 -2.2014
    8MOL0     H 1096   5.496   7.337   0.860  2.2676 -1.1669 -1.3247
    8MOL0     H 1097   5.539   7.179   0.922 -1.0624 -1.1849  2.1628
    8MOL0     H 1098   5.326   7.371   1.012 -1.4306 -0.3456 -0.6884
    8MOL0     H 1099   5.380   7.238   1.118 -0.7176 -1.4145 -0.0152
    8MOL0     H 1100   5.151   7.066   0.803 -0.4517  2.2257 -0.9762
    8MOL0     H 1101   5.821   7.375   1.447  0.6902  0.3968  0.9814
    8MOL0     H 1102   6.063   7.304   1.666 -0.9329  2.7119  1.1060
    8MOL0     H 1103   5.891   7.357   1.643  0.5888  0.8454 -4.7176
    8MOL0     H 1104   5.930   7.206   1.728  2.1675 -0.8460  0.4801
    9MOL0     O 1105  10.529   4.970   6.067 -0.0246  0.1903 -0.1912
    9MOL0     C 1106  10.536   5.095   6.080  0.2665 -0.8220  0.3589
    9MOL0     O 1107  10.468   5.164   6.172 -0.4672 -0.5739 -0.3625
    9MOL0     C 1108  10.339   5.111   6.190 -1.1585  0.2969  0.1047
    9MOL0     C 1109  10.301   5.060   6.313 -0.3171 -0.9308 -0.6496
    9MOL0     C 1110  10.189   4.983   6.330 -0.5242  0.1956  0.2409
    9MOL0     C 1111  10.101   4.971   6.220  0.3267 -0.0080 -0.4694
    9MOL0     O 1112   9.983   4.903   6.219  0.0913 -0.0127 -0.2718
    9MOL0     C 1113   9.908   4.892   6.344  0.1189 -0.5994  0.4913
    9MOL0     C 1114   9.779   4.810   6.330 -0.5878  0.1378  0.7209
    9MOL0     C 1115   9.669   4.885   6.263 -0.4501 -0.5916 -0.4917
    9MOL0     C 1116   9.613   4.991   6.361  0.4729 -0.1447  0.0490
    9MOL0     C 1117   9.479   5.040   6.322  0.0701  0.0727 -0.0584
    9MOL0     C 1118   9.457   5.115   6.186 -0.2845 -0.1679  0.3410
    9MOL0     C 1119   9.311   5.146   6.166  0.6461  0.3355  0.8439
    9MOL0     C 1120   9.269   5.237   6.046 -0.5982 -0.3161 -0.5013
    9MOL0     N 1121   9.329   5.181   5.918 -0.1851  0.3192 -0.8332
    9MOL0     C 1122   9.337   5.050   5.892  0.0873  0.4978 -0.1711
    9MOL0     C 1123   9.397   5.029   5.775  0.0848 -0.9373 -0.5971
    9MOL0     C 1124   9.414   4.905   5.690 -0.6940 -0.3002 -0.8354
    9MOL0     C 1125   9.278   4.859   5.641 -0.0023  0.2405 -0.3007
    9MOL0     C 1126   9.306   4.732   5.558 -0.1152 -0.1702  0.0784
    9MOL0     C 1127   9.190   4.702   5.454 -0.2192 -0.5589  0.2360
    9MOL0     O 1128   9.202   4.807   5.355  0.7497 -0.4061 -0.3551
    9MOL0     C 1129   9.115   4.834   5.259  0.4230 -0.8641  0.7835
    9MOL0     C 1130   8.981   4.788   5.256 -0.3924 -0.0994  0.5413
    9MOL0     C 1131   8.895   4.826   5.142  0.2152 -0.2063 -0.0682
    9MOL0     C 1132   8.754   4.755   5.131  0.2985 -1.2426 -0.2713
    9MOL0     C 1133   8.937   4.923   5.053  0.7688  0.1902 -0.0849
    9MOL0     C 1134   8.852   4.958   4.945  0.6453 -0.7714  0.0585
    9MOL0     O 1135   8.717   4.985   4.958  0.2070  0.0162  0.5866
    9MOL0     C 1136   8.653   5.019   4.844 -0.2875 -0.3398 -0.2406
    9MOL0     C 1137   8.678   5.130   4.762  0.1798  0.0727 -0.6713
    9MOL0     C 1138   8.592   5.155   4.658 -0.5684  0.5570 -0.0274
    9MOL0     C 1139   8.479   5.074   4.633  0.2990  1.5226  0.0406
    9MOL0     O 1140   8.396   5.110   4.524 -0.7913  0.1087  0.1979
    9MOL0     C 1141   8.314   4.999   4.468 -0.3801 -1.1830 -0.5131
    9MOL0     C 1142   8.276   5.040   4.331 -0.4582 -0.4862 -0.6609
    9MOL0     C 1143   8.147   5.118   4.328  0.5107 -0.1716  0.8626
    9MOL0     C 1144   8.126   5.160   4.184  0.8694 -0.5339  0.5162
    9MOL0     C 1145   7.997   5.257   4.178 -0.3679  0.7126  0.7398
    9MOL0     C 1146   7.968   5.280   4.023  0.9109 -0.1785 -0.5316
    9MOL0     C 1147   8.080   5.356   3.956  0.3280 -0.8638 -0.1798
    9MOL0     C 1148   8.053   5.404   3.811  0.3548 -0.0108 -0.5911
    9MOL0    Cl 1149   8.037   5.254   3.703 -0.1172 -0.2806 -0.0788
    9MOL0     C 1150   8.444   4.973   4.725 -0.5377 -0.6579 -0.8010
    9MOL0     C 1151   8.531   4.950   4.830 -0.2680 -0.8654 -0.7287
    9MOL0     O 1152   8.909   4.958   4.836  0.3456 -0.3241 -0.4330
    9MOL0     C 1153   9.061   4.974   5.068  0.6122  0.2874  0.5953
    9MOL0     C 1154   9.148   4.930   5.168 -0.6579  0.4188  0.4060
    9MOL0     N 1155   9.433   5.158   5.739  0.2503  0.3716 -0.4581
    9MOL0     N 1156   9.388   5.251   5.817 -0.0632  0.6542  0.4176
    9MOL0     C 1157  10.129   5.028   6.101 -0.3709  0.1914  0.4172
    9MOL0     C 1158  10.252   5.099   6.082  0.4924  0.4132  0.0529
    9MOL0     C 1159  10.631   5.166   5.994  1.1577 -0.3168 -0.1640
    9MOL0     C 1160  10.709   5.262   6.064  0.2072 -0.2649  0.4177
    9MOL0     C 1161  10.787   5.365   6.001  0.5217  0.4280 -1.3978
    9MOL0     C 1162  10.796   5.357   5.863 -0.0960  0.3142 -0.3369
    9MOL0     O 1163  10.871   5.442   5.783  0.3551 -0.2772  0.5294
    9MOL0     C 1164  10.941   5.548   5.841 -0.0183  0.0068  0.1083
    9MOL0     C 1165  11.042   5.616   5.749  0.5693  0.4748  0.1555
    9MOL0     C 1166  11.165   5.531   5.723  0.4955  0.2270 -0.7789
    9MOL0     C 1167  11.265   5.617   5.643 -0.2995 -0.0008 -0.1075
    9MOL0     C 1168  11.388   5.554   5.598 -0.6298 -1.1826  0.0293
    9MOL0     C 1169  11.486   5.497   5.565 -0.3201  0.2188 -0.3027
    9MOL0     C 1170  10.706   5.271   5.795 -0.0807 -0.7285  0.3255
    9MOL0     C 1171  10.627   5.175   5.850  0.8835 -0.6077  0.4841
    9MOL0     C 1172  10.557   5.075   5.770  0.2787 -0.1459  0.4219
    9MOL0     H 1173  10.378   5.077   6.388 -0.2886  0.7628 -1.0212
    9MOL0     H 1174  10.178   4.919   6.417  0.7064 -2.6281 -1.5477
    9MOL0     H 1175   9.881   4.986   6.392 -1.2082 -0.0315 -1.2948
    9MOL0     H 1176   9.968   4.836   6.417  1.9370 -2.1972 -2.0609
    9MOL0     H 1177   9.795   4.721   6.269 -0.1522 -0.1687  1.2756
    9MOL0     H 1178   9.761   4.774   6.432  1.8365  1.2138  1.6123
    9MOL0     H 1179   9.697   4.934   6.169 -1.2345 -0.3895 -0.6219
    9MOL0     H 1180   9.599   4.807   6.234 -0.5076 -0.7682  0.1117
    9MOL0     H 1181   9.619   4.956   6.465  1.1844  1.0402  0.4286
    9MOL0     H 1182   9.674   5.082   6.358 -1.5580  1.2515 -2.8462
    9MOL0     H 1183   9.440   5.109   6.398  0.1019  1.3593 -1.1624
    9MOL0     H 1184   9.412   4.956   6.342 -0.4084  0.6936  1.0316
    9MOL0     H 1185   9.526   5.200   6.179  1.6322 -1.6242  0.4392
    9MOL0     H 1186   9.478   5.042   6.107 -0.1272 -1.1269  1.2581
    9MOL0     H 1187   9.278   5.196   6.257  2.5388  0.3157  1.5893
    9MOL0     H 1188   9.264   5.047   6.160  0.8762  0.1197  2.2621
    9MOL0     H 1189   9.161   5.250   6.048 -0.7391 -1.4801  0.0455
    9MOL0     H 1190   9.308   5.336   6.072 -2.4247  0.0261  1.1957
    9MOL0     H 1191   9.296   4.967   5.949 -0.0587  1.5906  1.3834
    9MOL0     H 1192   9.468   4.829   5.747 -1.6480  0.0701  0.6049
    9MOL0     H 1193   9.472   4.942   5.605 -1.1207 -2.6509 -2.2499
    9MOL0     H 1194   9.204   4.841   5.719  0.4445 -1.8079 -0.3036
    9MOL0     H 1195   9.236   4.944   5.586  1.6059 -0.2831 -2.5002
    9MOL0     H 1196   9.397   4.754   5.500 -0.3869 -0.2284 -0.3758
    9MOL0     H 1197   9.320   4.644   5.621  0.1517 -0.9276 -1.0034
    9MOL0     H 1198   9.207   4.601   5.417  1.1810  0.2065 -1.3384
    9MOL0     H 1199   9.090   4.689   5.498 -0.6082 -2.0971 -0.9977
    9MOL0     H 1200   8.944   4.729   5.340  0.2818 -0.2283  0.7590
    9MOL0     H 1201   8.756   4.666   5.195  0.7982 -0.0713  1.4227
    9MOL0     H 1202   8.726   4.721   5.031  0.5909  2.2214 -1.6850
    9MOL0     H 1203   8.673   4.819   5.170  0.3110 -0.1947 -1.8967
    9MOL0     H 1204   8.768   5.192   4.762  0.1164  0.3235 -3.6001
    9MOL0     H 1205   8.619   5.243   4.600  0.9939  1.5500  2.0679
    9MOL0     H 1206   8.370   4.905   4.455  2.6200  0.6769 -2.2970
    9MOL0     H 1207   8.226   4.987   4.531  0.1187 -1.9920  0.0500
    9MOL0     H 1208   8.354   5.108   4.294 -1.3083 -0.3414 -2.2842
    9MOL0     H 1209   8.271   4.950   4.270 -1.9422 -1.4572  0.8100
    9MOL0     H 1210   8.158   5.203   4.395  0.9111 -0.2348  0.8800
    9MOL0     H 1211   8.066   5.054   4.364  0.9652 -0.5939  1.1402
    9MOL0     H 1212   8.109   5.076   4.116 -0.0099 -0.7190  0.9479
    9MOL0     H 1213   8.208   5.226   4.154  0.2027  0.3218  0.5255
    9MOL0     H 1214   7.905   5.216   4.220 -2.1111  0.8138 -2.5953
    9MOL0     H 1215   8.017   5.355   4.222  1.5706  0.2653  0.9249
    9MOL0     H 1216   7.877   5.338   4.007  1.6921  0.6974 -2.0313
    9MOL0     H 1217   7.963   5.191   3.960  2.9949  2.0276 -4.2079
    9MOL0     H 1218   8.168   5.293   3.963 -0.3912 -1.6997  2.0516
    9MOL0     H 1219   8.096   5.448   4.013 -2.0058  0.1079 -0.9727
    9MOL0     H 1220   8.137   5.461   3.771  2.4901 -3.4028 -1.3510
    9MOL0     H 1221   7.961   5.463   3.810 -0.2726 -0.9427 -2.0391
    9MOL0     H 1222   8.357   4.909   4.712 -2.6480  1.2510  2.5527
    9MOL0     H 1223   8.511   4.868   4.898  1.3470  1.1692  2.4283
    9MOL0     H 1224   9.092   5.044   4.991  0.0781 -0.9626 -0.7988
    9MOL0     H 1225   9.245   4.976   5.187 -2.0851  2.5053  3.4888
    9MOL0     H 1226  10.053   5.027   6.023 -1.2206  0.5218  1.2139
    9MOL0     H 1227  10.272   5.142   5.985 -1.1149  3.8528  1.0826
    9MOL0     H 1228  10.691   5.264   6.171 -3.8667 -0.1822 -0.0866
    9MOL0     H 1229  10.861   5.424   6.055 -0.1269 -1.7299  2.1884
    9MOL0     H 1230  10.869   5.624   5.874  3.1965  3.9043 -0.9162
    9MOL0     H 1231  10.991   5.502   5.927 -4.1798 -1.8438  1.7628
    9MOL0     H 1232  11.070   5.714   5.790 -2.6034  1.4920  0.1071
    9MOL0     H 1233  10.995   5.634   5.652  2.2241  0.3006 -0.7274
    9MOL0     H 1234  11.204   5.504   5.821 -2.5286  3.8823  1.7100
    9MOL0     H 1235  11.133   5.438   5.675 -0.6773  0.7795 -1.1122
    9MOL0     H 1236  11.298   5.705   5.699 -0.7570 -0.1111  0.3461
    9MOL0     H 1237  11.214   5.653   5.553 -1.3282  1.5013  1.0163
    9MOL0     H 1238  11.580   5.461   5.530 -0.0593 -0.1751  0.7606
    9MOL0     H 1239  10.708   5.269   5.686  0.7024 -0.5414  0.3280
    9MOL0     H 1240  10.506   5.146   5.705 -2.2789 -1.5449  0.7564
    9MOL0     H 1241  10.624   5.012   5.711  1.2625 -0.1867  1.5437
    9MOL0     H 1242  10.490   5.010   5.827  1.5436 -0.3166  1.7708
   10MOL0     O 1243   4.472   9.305   2.150  0.4590  0.2891 -0.0315
   10MOL0     C 1244   4.401   9.217   2.098 -0.2450 -0.1934  0.2963
   10MOL0     O 1245   4.438   9.089   2.056 -0.0295 -0.5039  1.4090
   10MOL0     C 1246   4.558   9.049   2.099 -0.0966 -1.0003  0.5742
   10MOL0     C 1247   4.590   9.035   2.236 -0.0631  1.0607  0.4430
   10MOL0     C 1248   4.707   8.978   2.276 -0.0586 -0.5283  0.3538
   10MOL0     C 1249   4.809   8.946   2.187 -1.1200 -0.0959  0.2973
   10MOL0     O 1250   4.923   8.892   2.255 -0.8145  0.6410 -0.4426
   10MOL0     C 1251   5.011   8.802   2.180  0.3963 -0.1262  0.7329
   10MOL0     C 1252   5.111   8.875   2.082  0.6177  0.2481  0.3404
   10MOL0     C 1253   5.228   8.935   2.163  0.1017  0.6269 -0.6781
   10MOL0     C 1254   5.337   8.829   2.199 -0.2573 -0.1558 -0.2178
   10MOL0     C 1255   5.442   8.900   2.280  0.3607 -0.6017 -0.4466
   10MOL0     C 1256   5.545   8.806   2.322  0.4367  0.9282  0.5782
   10MOL0     C 1257   5.652   8.892   2.398  0.1086 -0.3289 -0.7528
   10MOL0     C 1258   5.769   8.801   2.431 -0.3608 -0.1691 -0.5896
   10MOL0     N 1259   5.744   8.733   2.559  0.2278  0.3531 -0.3372
   10MOL0     C 1260   5.720   8.592   2.567  0.2277 -0.4278  0.0186
   10MOL0     C 1261   5.707   8.575   2.700  0.0406  1.3057  0.1793
   10MOL0     C 1262   5.681   8.457   2.794  0.2042 -0.0707 -0.1928
   10MOL0     C 1263   5.588   8.349   2.723 -1.1056 -0.2330  0.9916
   10MOL0     C 1264   5.543   8.237   2.819  1.3932  0.3738  0.7110
   10MOL0     C 1265   5.634   8.109   2.823 -0.8480  0.6361 -0.7244
   10MOL0     O 1266   5.765   8.157   2.808  0.7964 -0.5778  0.0474
   10MOL0     C 1267   5.872   8.071   2.828 -0.0979  0.0913 -0.1434
   10MOL0     C 1268   5.997   8.130   2.828  0.1168 -0.8768 -1.1562
   10MOL0     C 1269   6.118   8.054   2.839 -0.8737 -0.7740  0.5631
   10MOL0     C 1270   6.259   8.113   2.826  0.1983 -0.5733 -0.7112
   10MOL0     C 1271   6.109   7.920   2.846 -0.7074  0.8315 -0.8239
   10MOL0     C 1272   6.219   7.824   2.837  0.5291  0.4933 -0.2904
   10MOL0     O 1273   6.223   7.736   2.939 -0.3803  0.0103 -0.0213
   10MOL0     C 1274   6.332   7.657   2.947  0.3991 -0.4391  0.2273
   10MOL0     C 1275   6.361   7.573   2.837 -0.6809 -0.2762 -0.2048
   10MOL0     C 1276   6.482   7.496   2.842  0.5649  0.4954 -0.4425
   10MOL0     C 1277   6.554   7.483   2.957 -0.0317  0.3475 -0.0555
   10MOL0     O 1278   6.677   7.421   2.969 -0.4002  0.3232  0.1246
   10MOL0     C 1279   6.701   7.319   2.875 -0.2960 -0.4614  0.0797
   10MOL0     C 1280   6.834   7.256   2.918  0.2960 -0.4966  0.1449
   10MOL0     C 1281   6.956   7.345   2.946 -0.1485 -0.5951  0.0569
   10MOL0     C 1282   7.085   7.307   2.872  0.8949 -0.9896  0.4240
   10MOL0     C 1283   7.204   7.379   2.938  0.6580  0.0568  0.3372
   10MOL0     C 1284   7.336   7.303   2.917  0.0085 -0.5759 -0.0758
   10MOL0     C 1285   7.448   7.354   2.999  0.5828 -0.2021  0.0909
   10MOL0     C 1286   7.568   7.267   2.994 -0.2210 -0.3797  0.0183
   10MOL0    Cl 1287   7.528   7.087   3.029  0.3078 -0.2578 -0.0329
   10MOL0     C 1288   6.524   7.564   3.063  0.0968 -0.1387  0.4614
   10MOL0     C 1289   6.416   7.651   3.059  0.2498  0.2349  0.5646
   10MOL0     O 1290   6.290   7.834   2.740  0.5096  0.5015  0.0739
   10MOL0     C 1291   5.984   7.857   2.857  0.0813 -0.1271  0.6840
   10MOL0     C 1292   5.865   7.935   2.847  0.1155  0.3190  0.4286
   10MOL0     N 1293   5.717   8.698   2.759  0.1154  0.3732 -1.5016
   10MOL0     N 1294   5.751   8.794   2.681 -0.1820 -0.5285 -0.6544
   10MOL0     C 1295   4.782   8.973   2.043 -0.2636 -0.3712 -0.0685
   10MOL0     C 1296   4.651   9.010   2.007  0.4403  0.5263  0.8504
   10MOL0     C 1297   4.249   9.226   2.097 -0.9814  0.0671 -0.2175
   10MOL0     C 1298   4.199   9.301   2.200 -0.0094 -0.1588 -0.2296
   10MOL0     C 1299   4.057   9.305   2.209  0.6292  0.0335  0.3384
   10MOL0     C 1300   3.971   9.245   2.114  0.0503  0.2019 -0.2373
   10MOL0     O 1301   3.835   9.251   2.119  0.5119 -0.2300  0.3435
   10MOL0     C 1302   3.783   9.358   2.199  0.6666  0.5613  0.4047
   10MOL0     C 1303   3.630   9.361   2.187 -0.7111 -0.0335  1.6553
   10MOL0     C 1304   3.585   9.351   2.040 -0.1718 -0.1360 -0.1363
   10MOL0     C 1305   3.435   9.359   2.016  0.2301  0.5103 -0.7562
   10MOL0     C 1306   3.392   9.372   1.871  0.1423  0.5491 -0.5421
   10MOL0     C 1307   3.350   9.364   1.764  0.2558  0.8991 -0.5698
   10MOL0     C 1308   4.032   9.173   2.015 -0.2327 -0.4642 -0.3977
   10MOL0     C 1309   4.166   9.171   2.000 -1.0987 -0.6433  0.0976
   10MOL0     C 1310   4.216   9.106   1.873 -0.3640 -1.6841 -1.1186
   10MOL0     H 1311   4.518   9.064   2.313  2.2247  2.5606  2.1636
   10MOL0     H 1312   4.733   8.970   2.381  1.1957  3.0738  0.4587
   10MOL0     H 1313   4.952   8.724   2.131 -0.6080 -0.0683  1.8278
   10MOL0     H 1314   5.073   8.749   2.253 -0.4371 -2.3821 -0.1187
   10MOL0     H 1315   5.143   8.808   2.001 -1.0884 -0.6184  0.3441
   10MOL0     H 1316   5.050   8.958   2.046 -1.3418 -1.5326 -0.7299
   10MOL0     H 1317   5.278   9.013   2.104  0.7114 -0.3886 -1.5368
   10MOL0     H 1318   5.188   8.979   2.255  1.8471  0.4991  0.1749
   10MOL0     H 1319   5.288   8.746   2.251 -1.2537  1.0449  0.7976
   10MOL0     H 1320   5.372   8.790   2.103 -2.8121  0.3363 -1.4118
   10MOL0     H 1321   5.388   8.937   2.368 -0.1349 -2.4730  0.0846
   10MOL0     H 1322   5.486   8.980   2.219  1.4562 -1.1454 -0.3961
   10MOL0     H 1323   5.509   8.729   2.391  1.9249 -0.1535  0.1922
   10MOL0     H 1324   5.588   8.757   2.234 -0.3940  0.8920  0.1843
   10MOL0     H 1325   5.606   8.936   2.486 -2.2935 -2.9337 -0.5832
   10MOL0     H 1326   5.682   8.978   2.337  1.4267  0.5850  1.0848
   10MOL0     H 1327   5.806   8.732   2.354  1.7369  1.0165 -0.7131
   10MOL0     H 1328   5.850   8.871   2.452 -0.5943  0.5038 -1.7873
   10MOL0     H 1329   5.704   8.514   2.494  1.3704  0.2574 -0.9948
   10MOL0     H 1330   5.635   8.491   2.887  0.4650  1.7141 -0.6720
   10MOL0     H 1331   5.775   8.409   2.821 -0.7134  0.4544  5.0920
   10MOL0     H 1332   5.505   8.396   2.669  2.5168  1.8414 -3.5469
   10MOL0     H 1333   5.653   8.303   2.647 -0.4077  2.8324 -0.4193
   10MOL0     H 1334   5.539   8.292   2.914 -2.4385  1.2043  0.2162
   10MOL0     H 1335   5.444   8.203   2.790  2.1063  0.3483 -1.9472
   10MOL0     H 1336   5.624   8.062   2.921  1.8656  1.4766  0.0174
   10MOL0     H 1337   5.616   8.039   2.740 -0.9017  1.7421 -1.6632
   10MOL0     H 1338   6.009   8.237   2.826  1.7894 -0.9208  1.7173
   10MOL0     H 1339   6.319   8.103   2.918 -0.2827  3.3766  0.2238
   10MOL0     H 1340   6.248   8.222   2.816  2.2347 -0.3309 -0.7591
   10MOL0     H 1341   6.312   8.082   2.735  1.3043  1.0381 -0.6756
   10MOL0     H 1342   6.290   7.553   2.757  0.7208  2.6552 -2.4164
   10MOL0     H 1343   6.495   7.426   2.760  0.7255 -3.3009  2.5442
   10MOL0     H 1344   6.621   7.245   2.867 -1.0940  0.5061 -1.2744
   10MOL0     H 1345   6.713   7.361   2.775  3.7757  2.0418  1.3944
   10MOL0     H 1346   6.822   7.198   3.010 -0.1803 -1.8625 -0.7472
   10MOL0     H 1347   6.862   7.179   2.845  0.7629 -0.2950  0.1071
   10MOL0     H 1348   6.957   7.343   3.055 -1.3362 -1.4074  0.0638
   10MOL0     H 1349   6.936   7.449   2.916  1.6408  0.1484  1.2635
   10MOL0     H 1350   7.076   7.328   2.765 -0.1977  0.8509  0.8391
   10MOL0     H 1351   7.109   7.200   2.871  1.9759 -0.7733 -1.3087
   10MOL0     H 1352   7.214   7.482   2.904  4.0937  0.1805  1.2728
   10MOL0     H 1353   7.193   7.392   3.046  0.9834  1.9663  0.1662
   10MOL0     H 1354   7.350   7.315   2.809 -1.3202  0.5131 -0.1587
   10MOL0     H 1355   7.321   7.201   2.954 -0.0595 -0.4093  0.3676
   10MOL0     H 1356   7.415   7.361   3.103 -0.3355 -4.0685  0.2053
   10MOL0     H 1357   7.477   7.457   2.974 -2.3987  1.0682  1.4127
   10MOL0     H 1358   7.647   7.305   3.059 -0.0533 -0.7235  0.0172
   10MOL0     H 1359   7.603   7.272   2.890 -1.1410 -0.1559 -0.2931
   10MOL0     H 1360   6.592   7.565   3.147  1.0176 -0.4081 -0.2609
   10MOL0     H 1361   6.408   7.705   3.153  1.7856  3.5559 -1.0405
   10MOL0     H 1362   5.975   7.749   2.861 -2.0346 -0.0434 -0.5852
   10MOL0     H 1363   5.772   7.880   2.857 -0.4561 -0.0009 -4.1751
   10MOL0     H 1364   4.844   8.947   1.959 -0.5993 -1.5284  0.0243
   10MOL0     H 1365   4.628   9.025   1.903 -1.5802 -4.0974  0.3933
   10MOL0     H 1366   4.259   9.350   2.276 -0.2614 -0.6641  0.3021
   10MOL0     H 1367   4.017   9.352   2.298 -2.4042 -1.1230 -0.2636
   10MOL0     H 1368   3.810   9.338   2.304  0.5458  1.4579  0.6182
   10MOL0     H 1369   3.827   9.455   2.174 -1.8597  2.2558  2.0464
   10MOL0     H 1370   3.589   9.459   2.215 -3.0944 -0.1764 -0.8524
   10MOL0     H 1371   3.578   9.298   2.259  2.3875 -2.0655  2.2745
   10MOL0     H 1372   3.631   9.426   1.975  2.4330 -0.0013  1.7122
   10MOL0     H 1373   3.621   9.252   2.007  1.4082 -0.2548  1.7765
   10MOL0     H 1374   3.388   9.441   2.070 -0.1474 -0.4052  0.3427
   10MOL0     H 1375   3.386   9.264   2.039 -2.7217  1.3125 -3.1360
   10MOL0     H 1376   3.330   9.360   1.659 -1.6314 -0.1958 -0.2023
   10MOL0     H 1377   3.984   9.117   1.935  1.5950 -0.4459 -1.5625
   10MOL0     H 1378   4.140   9.063   1.807 -1.4469 -0.1971 -0.9084
   10MOL0     H 1379   4.273   9.175   1.811 -3.1012  1.6999 -0.1879
   10MOL0     H 1380   4.288   9.026   1.892 -1.6099 -2.2646  1.7707
   11MOL0     O 1381   0.505   2.564   1.993  0.3162 -0.2873  0.4036
   11MOL0     C 1382   0.621   2.566   1.958 -1.0416  0.0023 -1.0696
   11MOL0     O 1383   0.731   2.595   2.044 -0.4275  0.0386  0.3961
   11MOL0     C 1384   0.701   2.598   2.173 -0.0947  0.5432 -0.3256
   11MOL0     C 1385   0.719   2.722   2.233  0.4284  0.1206 -0.8228
   11MOL0     C 1386   0.707   2.732   2.372 -0.8714  0.9490 -0.0860
   11MOL0     C 1387   0.644   2.628   2.442  0.2702 -0.4776  0.4734
   11MOL0     O 1388   0.608   2.659   2.573 -0.3303 -0.0323 -0.1777
   11MOL0     C 1389   0.506   2.586   2.648 -0.8144 -0.0994  0.4961
   11MOL0     C 1390   0.494   2.663   2.778  0.1426 -0.8446  0.1364
   11MOL0     C 1391   0.428   2.803   2.753 -0.2173  0.7445  0.6024
   11MOL0     C 1392   0.277   2.797   2.730  0.3014 -0.4009 -0.0318
   11MOL0     C 1393   0.195   2.933   2.717 -0.3976 -1.1601 -0.0016
   11MOL0     C 1394   0.049   2.903   2.666  0.7188 -0.2288 -1.0817
   11MOL0     C 1395   0.042   2.873   2.516  0.3681  0.1377 -0.0821
   11MOL0     C 1396  -0.103   2.843   2.485 -0.8753 -0.8069  0.1165
   11MOL0     N 1397  -0.118   2.821   2.340  0.2437 -0.7383  0.0783
   11MOL0     C 1398  -0.121   2.918   2.245  0.4252 -0.1588 -0.2832
   11MOL0     C 1399  -0.118   2.855   2.122  0.1381  0.3241  0.6014
   11MOL0     C 1400  -0.125   2.907   1.988 -0.3566 -0.1836 -0.0831
   11MOL0     C 1401  -0.277   2.919   1.938 -0.5642  0.7330  0.5573
   11MOL0     C 1402  -0.347   2.783   1.926  0.2900  0.0123 -0.1836
   11MOL0     C 1403  -0.492   2.783   1.881 -0.7097 -1.1773  0.0420
   11MOL0     O 1404  -0.486   2.854   1.752  0.0114  0.1512 -0.5241
   11MOL0     C 1405  -0.596   2.848   1.671  0.3691  0.1339 -0.0273
   11MOL0     C 1406  -0.716   2.786   1.708  0.8748 -0.4985  0.7178
   11MOL0     C 1407  -0.831   2.803   1.623  0.1127 -0.9130  0.0483
   11MOL0     C 1408  -0.949   2.725   1.668  0.4717 -0.3330 -0.3575
   11MOL0     C 1409  -0.828   2.865   1.495 -0.1208  0.0537 -0.1273
   11MOL0     C 1410  -0.939   2.874   1.391  0.0911 -0.4746 -0.1083
   11MOL0     O 1411  -1.062   2.901   1.437  0.0367 -1.0707  0.9509
   11MOL0     C 1412  -1.172   2.890   1.359 -0.6525 -0.2852  0.5731
   11MOL0     C 1413  -1.184   2.909   1.223  0.0830  0.1027  0.2228
   11MOL0     C 1414  -1.310   2.882   1.156 -0.0852 -0.4969  0.0371
   11MOL0     C 1415  -1.426   2.843   1.233 -0.1946 -0.4419  0.9410
   11MOL0     O 1416  -1.554   2.825   1.190  0.4333 -0.3012 -0.0451
   11MOL0     C 1417  -1.589   2.783   1.053 -0.1001  0.4776  0.4420
   11MOL0     C 1418  -1.688   2.883   0.996 -0.0138  0.7716 -0.3709
   11MOL0     C 1419  -1.710   2.841   0.850  0.6257  0.2003  0.1552
   11MOL0     C 1420  -1.599   2.883   0.762  0.5320  0.2131 -0.3232
   11MOL0     C 1421  -1.644   2.850   0.611  0.2254  0.0465 -0.5727
   11MOL0     C 1422  -1.527   2.886   0.519  0.7593 -0.2190 -0.2286
   11MOL0     C 1423  -1.548   2.819   0.373  0.3769  0.6361 -0.9419
   11MOL0     C 1424  -1.431   2.841   0.278  0.3081 -0.7978 -0.0314
   11MOL0    Cl 1425  -1.262   2.801   0.343 -0.0263  0.3664  0.2950
   11MOL0     C 1426  -1.404   2.837   1.369  0.5318  0.7143 -0.4585
   11MOL0     C 1427  -1.280   2.853   1.428 -0.5532 -1.1403  0.2899
   11MOL0     O 1428  -0.905   2.872   1.274  0.5457 -0.0685 -0.4449
   11MOL0     C 1429  -0.700   2.904   1.456  0.5113 -0.3542  0.2213
   11MOL0     C 1430  -0.590   2.907   1.547 -0.5445 -0.0425 -0.4543
   11MOL0     N 1431  -0.105   2.722   2.152  0.6093 -0.9942  0.5179
   11MOL0     N 1432  -0.113   2.703   2.276 -0.4868 -0.5282  0.0629
   11MOL0     C 1433   0.609   2.510   2.376  0.4420 -0.1449 -0.1565
   11MOL0     C 1434   0.634   2.499   2.240 -0.4318  0.5156 -0.3480
   11MOL0     C 1435   0.648   2.549   1.815  0.5802 -1.0160  0.6180
   11MOL0     C 1436   0.548   2.505   1.735  0.8954 -0.8560  0.1064
   11MOL0     C 1437   0.556   2.459   1.607  0.6878  0.2758  0.2001
   11MOL0     C 1438   0.680   2.473   1.549  0.4332  0.1462  0.2358
   11MOL0     O 1439   0.706   2.449   1.418 -0.0878  0.4776 -0.0706
   11MOL0     C 1440   0.607   2.404   1.330  0.2122  0.1063  0.3849
   11MOL0     C 1441   0.678   2.391   1.192  0.1232 -0.7510  0.7787
   11MOL0     C 1442   0.744   2.525   1.134  0.1097  0.3486 -0.0158
   11MOL0     C 1443   0.813   2.514   1.004  0.2211 -0.4666 -0.1280
   11MOL0     C 1444   0.849   2.656   0.968  0.4679  0.5877 -0.7369
   11MOL0     C 1445   0.880   2.769   0.920 -0.2042  0.8302  0.2848
   11MOL0     C 1446   0.791   2.517   1.616 -0.1339 -0.2822 -0.0290
   11MOL0     C 1447   0.776   2.547   1.755 -0.3707 -0.9673 -0.1334
   11MOL0     C 1448   0.903   2.601   1.818 -0.2025  1.0049 -0.2116
   11MOL0     H 1449   0.759   2.801   2.170 -0.5518  1.3985  0.0887
   11MOL0     H 1450   0.727   2.828   2.417  3.7438 -0.3127  1.0662
   11MOL0     H 1451   0.556   2.495   2.680  1.6472  1.6754  1.9809
   11MOL0     H 1452   0.413   2.577   2.591 -0.8052 -1.6715  0.6789
   11MOL0     H 1453   0.448   2.606   2.859  4.0950 -1.0055  2.5127
   11MOL0     H 1454   0.591   2.691   2.819  0.7907 -0.1742 -1.7350
   11MOL0     H 1455   0.450   2.869   2.838 -3.5396  1.6239  0.9199
   11MOL0     H 1456   0.477   2.850   2.667  1.1464 -0.1697  0.8561
   11MOL0     H 1457   0.263   2.750   2.632 -0.0032  3.2723 -1.9324
   11MOL0     H 1458   0.222   2.736   2.803 -2.8624  2.6930  0.4148
   11MOL0     H 1459   0.249   2.994   2.644 -4.0174  1.6565 -0.6139
   11MOL0     H 1460   0.197   2.988   2.812  3.2852 -2.5962  0.8867
   11MOL0     H 1461   0.008   2.831   2.738  0.7850 -1.0389 -1.8376
   11MOL0     H 1462  -0.020   2.988   2.669  0.8106 -0.0944 -2.3212
   11MOL0     H 1463   0.100   2.784   2.491 -3.3361 -2.9789  1.4527
   11MOL0     H 1464   0.086   2.959   2.465  1.3903 -1.4469 -2.0183
   11MOL0     H 1465  -0.145   2.760   2.543  1.6831 -3.1570 -1.0992
   11MOL0     H 1466  -0.163   2.932   2.506  1.1282  0.9050 -1.0437
   11MOL0     H 1467  -0.116   3.021   2.278  0.2999  0.0668 -0.9695
   11MOL0     H 1468  -0.060   2.837   1.935  0.7095  1.0292 -0.4417
   11MOL0     H 1469  -0.081   3.007   1.981  0.5101 -0.6701 -3.2437
   11MOL0     H 1470  -0.337   2.973   2.012 -4.2236 -1.9906 -0.1078
   11MOL0     H 1471  -0.286   2.969   1.841 -1.8755 -1.7860 -0.7355
   11MOL0     H 1472  -0.288   2.714   1.865 -1.9699 -0.5611 -1.8304
   11MOL0     H 1473  -0.343   2.741   2.027  0.0512 -0.3349 -0.3161
   11MOL0     H 1474  -0.520   2.680   1.855 -0.4815 -1.9978  2.6728
   11MOL0     H 1475  -0.552   2.830   1.960  1.2335 -1.2074  1.6096
   11MOL0     H 1476  -0.723   2.738   1.806 -2.2827 -0.9262  0.3803
   11MOL0     H 1477  -0.924   2.664   1.755 -0.1745 -0.4200 -0.2311
   11MOL0     H 1478  -1.000   2.658   1.598 -3.8993 -1.1633  3.1772
   11MOL0     H 1479  -1.019   2.802   1.702  1.7256  0.0685  1.4363
   11MOL0     H 1480  -1.101   2.945   1.163  1.7056 -0.8392  1.7768
   11MOL0     H 1481  -1.305   2.895   1.048  4.4442  3.7043  0.3730
   11MOL0     H 1482  -1.503   2.777   0.985 -0.2781 -0.2421  0.2597
   11MOL0     H 1483  -1.649   2.691   1.056  1.8122 -0.9207 -1.0992
   11MOL0     H 1484  -1.786   2.866   1.040  0.1968 -1.4744 -0.6531
   11MOL0     H 1485  -1.650   2.985   1.011  1.0841  0.0686  2.1247
   11MOL0     H 1486  -1.800   2.898   0.826  0.6774  1.3744  2.4380
   11MOL0     H 1487  -1.729   2.733   0.851 -1.9973  0.5838 -1.3133
   11MOL0     H 1488  -1.505   2.835   0.790  1.3546  1.0526 -1.5390
   11MOL0     H 1489  -1.576   2.989   0.777 -0.6968  0.4704 -0.1570
   11MOL0     H 1490  -1.675   2.747   0.590  2.6373 -0.5099 -1.7745
   11MOL0     H 1491  -1.728   2.918   0.591  1.0692  0.7770 -1.7976
   11MOL0     H 1492  -1.426   2.863   0.554  0.4848  1.1230  1.5891
   11MOL0     H 1493  -1.529   2.995   0.510 -1.9148 -0.3568 -2.5892
   11MOL0     H 1494  -1.646   2.849   0.336 -0.7481 -0.7681  0.6910
   11MOL0     H 1495  -1.544   2.710   0.385  1.6904  0.5564 -1.9504
   11MOL0     H 1496  -1.429   2.948   0.254 -1.5247 -0.5331  0.8479
   11MOL0     H 1497  -1.463   2.788   0.187 -3.3997 -0.0247  0.7031
   11MOL0     H 1498  -1.490   2.804   1.427  2.7057  0.1734  2.7163
   11MOL0     H 1499  -1.272   2.849   1.536 -3.2285  0.0577  0.5890
   11MOL0     H 1500  -0.698   2.949   1.357 -0.6637 -0.2574  0.2281
   11MOL0     H 1501  -0.491   2.938   1.517  0.1257 -0.8301  0.8681
   11MOL0     H 1502   0.575   2.431   2.442  0.9100  0.6162  1.0355
   11MOL0     H 1503   0.593   2.414   2.185 -3.6773  0.6828  1.5184
   11MOL0     H 1504   0.448   2.486   1.773  0.5030  2.6173  1.1869
   11MOL0     H 1505   0.467   2.412   1.567  1.8320 -1.0118 -0.9213
   11MOL0     H 1506   0.568   2.307   1.362  1.1395 -0.8931 -1.3845
   11MOL0     H 1507   0.527   2.478   1.323  2.4118  2.5713 -0.6158
   11MOL0     H 1508   0.606   2.348   1.121 -1.1860  3.7408 -0.9399
   11MOL0     H 1509   0.755   2.320   1.224 -0.2337 -0.9785  1.1488
   11MOL0     H 1510   0.662   2.597   1.129 -2.9415 -2.7602  0.9997
   11MOL0     H 1511   0.817   2.562   1.207 -0.1933 -3.6619  2.6517
   11MOL0     H 1512   0.745   2.464   0.935 -0.8133  1.3530 -0.5028
   11MOL0     H 1513   0.907   2.458   1.006  1.4150  1.2731 -2.1790
   11MOL0     H 1514   0.907   2.865   0.879  0.5821  0.8750  0.8917
   11MOL0     H 1515   0.890   2.517   1.572  0.2243 -2.3655  0.6720
   11MOL0     H 1516   0.885   2.709   1.825  1.0429  1.1926  0.2432
   11MOL0     H 1517   0.909   2.550   1.915 -0.3175  1.2277 -0.0860
   11MOL0     H 1518   0.995   2.590   1.761 -1.6861 -0.3036 -2.5556
   12MOL0     O 1519   5.802   8.311   5.249 -0.8671 -0.0720 -0.1946
   12MOL0     C 1520   5.883   8.372   5.181 -0.6947  0.3697 -0.6003
   12MOL0     O 1521   5.943   8.482   5.224 -0.1657  0.7522  0.2262
   12MOL0     C 1522   5.913   8.539   5.343  0.1082 -0.0203  0.6067
   12MOL0     C 1523   5.908   8.676   5.338  0.3161 -0.4105 -1.1564
   12MOL0     C 1524   5.876   8.753   5.457  0.0031 -0.9753  0.0530
   12MOL0     C 1525   5.861   8.688   5.585 -0.1463 -0.4582  0.3345
   12MOL0     O 1526   5.836   8.771   5.691 -0.4248  0.1055 -0.0492
   12MOL0     C 1527   5.952   8.767   5.782  0.5700  0.3492 -0.2144
   12MOL0     C 1528   5.948   8.865   5.899 -0.3140 -0.2234 -0.7554
   12MOL0     C 1529   6.093   8.911   5.944 -0.2500  0.2030  0.4510
   12MOL0     C 1530   6.098   8.958   6.091  0.5159 -0.4193 -1.2697
   12MOL0     C 1531   6.234   9.034   6.116  0.5546  0.0300  0.1356
   12MOL0     C 1532   6.245   9.080   6.260  0.3647 -0.2613 -0.6155
   12MOL0     C 1533   6.384   9.152   6.294  0.4526 -0.2549 -0.2769
   12MOL0     C 1534   6.405   9.292   6.232  0.8551 -0.2755  0.4280
   12MOL0     N 1535   6.502   9.372   6.314  0.0059  0.2791  0.5321
   12MOL0     C 1536   6.483   9.388   6.445 -0.0971 -0.5766  0.1271
   12MOL0     C 1537   6.606   9.419   6.493  0.2808 -0.0285  0.3564
   12MOL0     C 1538   6.662   9.443   6.629  1.3710 -0.7964 -0.6121
   12MOL0     C 1539   6.591   9.539   6.718  0.0346  0.5577 -0.2015
   12MOL0     C 1540   6.691   9.580   6.837  0.4005  0.0875  0.6837
   12MOL0     C 1541   6.627   9.695   6.931  1.1888  0.2010  0.0764
   12MOL0     O 1542   6.605   9.813   6.846  0.2371 -0.0803  0.8129
   12MOL0     C 1543   6.608   9.942   6.882 -0.7434 -1.0817 -0.1288
   12MOL0     C 1544   6.605   9.989   7.011 -0.0912  0.4306  0.7126
   12MOL0     C 1545   6.573  10.117   7.053  0.5370 -1.3258 -0.2868
   12MOL0     C 1546   6.594  10.141   7.199  0.2573 -0.1906  0.3463
   12MOL0     C 1547   6.551  10.213   6.949 -0.0795 -1.1590  0.1969
   12MOL0     C 1548   6.549  10.357   6.981  0.1945 -0.7082  0.0017
   12MOL0     O 1549   6.634  10.434   6.910 -0.5415  0.3233 -0.1947
   12MOL0     C 1550   6.670  10.555   6.955  0.3807 -0.6973 -0.9120
   12MOL0     C 1551   6.756  10.560   7.073 -0.4303 -0.8042  0.5180
   12MOL0     C 1552   6.779  10.688   7.124  0.1154  0.6637 -1.1026
   12MOL0     C 1553   6.739  10.805   7.055 -0.4552  0.3982 -0.9794
   12MOL0     O 1554   6.784  10.922   7.113  1.0264  0.4088  0.0136
   12MOL0     C 1555   6.788  11.036   7.024  0.3135  0.4478 -0.3888
   12MOL0     C 1556   6.860  11.151   7.108 -0.1598 -0.7780 -0.4410
   12MOL0     C 1557   6.915  11.268   7.029  0.5482 -0.9012  0.3306
   12MOL0     C 1558   7.049  11.230   6.950  0.8996 -0.3048  0.2597
   12MOL0     C 1559   7.123  11.346   6.896 -0.2274  0.3924  0.8055
   12MOL0     C 1560   7.271  11.312   6.851  0.1177 -0.2687 -0.8162
   12MOL0     C 1561   7.360  11.425   6.893  0.6610 -0.3610 -0.0218
   12MOL0     C 1562   7.397  11.416   7.043 -0.3095  0.6683 -0.1131
   12MOL0    Cl 1563   7.462  11.565   7.115 -0.2269  0.1087  0.0240
   12MOL0     C 1564   6.663  10.794   6.938  0.4855 -0.6667  0.2551
   12MOL0     C 1565   6.618  10.671   6.902 -0.4585  0.0724  1.0204
   12MOL0     O 1566   6.472  10.393   7.069 -0.2309 -0.3613  0.5611
   12MOL0     C 1567   6.554  10.169   6.821  0.5001  0.0305  0.3839
   12MOL0     C 1568   6.574  10.029   6.788  0.6471 -0.8028  0.6994
   12MOL0     N 1569   6.691   9.412   6.390 -0.2969 -0.0431  0.5861
   12MOL0     N 1570   6.629   9.392   6.280  0.4440  0.1422  0.2982
   12MOL0     C 1571   5.885   8.555   5.593 -0.1183  1.3858 -0.3002
   12MOL0     C 1572   5.904   8.477   5.474 -0.4535 -0.5015 -0.0638
   12MOL0     C 1573   5.917   8.350   5.036  0.6338  1.0363 -0.2019
   12MOL0     C 1574   5.918   8.456   4.954 -0.2288 -0.5329  0.3813
   12MOL0     C 1575   5.945   8.454   4.817 -0.4949 -0.2865 -0.6287
   12MOL0     C 1576   5.988   8.324   4.768 -0.4318 -0.0731 -0.7319
   12MOL0     O 1577   6.050   8.309   4.648  0.5750  0.5139  0.6033
   12MOL0     C 1578   6.091   8.424   4.570 -0.0717 -0.0924  0.4461
   12MOL0     C 1579   6.199   8.519   4.619 -0.2236 -0.6820 -0.5362
   12MOL0     C 1580   6.290   8.571   4.498 -0.4190 -0.1904  0.2493
   12MOL0     C 1581   6.429   8.634   4.530  0.2743  0.2582  1.0730
   12MOL0     C 1582   6.411   8.772   4.564 -0.0574 -0.5114  0.1694
   12MOL0     C 1583   6.404   8.888   4.600 -0.6220  0.5708 -0.8689
   12MOL0     C 1584   5.997   8.218   4.859 -0.3144  0.4225  0.5942
   12MOL0     C 1585   5.953   8.225   4.992 -0.4763 -0.4203 -0.2196
   12MOL0     C 1586   5.941   8.104   5.073  0.4934  0.1530 -0.4166
   12MOL0     H 1587   5.942   8.729   5.250  1.3344  4.4141  1.7380
   12MOL0     H 1588   5.872   8.862   5.455 -0.6434 -0.9939  0.1710
   12MOL0     H 1589   6.037   8.795   5.719  2.0279  0.3141  1.6550
   12MOL0     H 1590   5.980   8.667   5.817  2.3376  0.4556 -1.1839
   12MOL0     H 1591   5.889   8.953   5.871 -2.3674 -0.2043  3.0129
   12MOL0     H 1592   5.908   8.825   5.993  1.8933 -3.4968 -1.0349
   12MOL0     H 1593   6.165   8.829   5.934 -0.4283 -0.1451  1.7605
   12MOL0     H 1594   6.123   8.994   5.880  2.0256 -1.3285 -0.6094
   12MOL0     H 1595   6.012   9.021   6.114 -0.5193 -1.9757 -0.7400
   12MOL0     H 1596   6.092   8.873   6.159 -0.8055  0.9067  0.3750
   12MOL0     H 1597   6.249   9.114   6.042 -0.3493  0.6060  0.5510
   12MOL0     H 1598   6.310   8.959   6.094 -1.5053 -1.9109 -0.7283
   12MOL0     H 1599   6.162   9.151   6.273  0.5265 -0.1826  0.0283
   12MOL0     H 1600   6.238   8.992   6.325  0.2602  1.4492  1.8341
   12MOL0     H 1601   6.463   9.084   6.261  2.0276  1.3934 -0.0565
   12MOL0     H 1602   6.378   9.147   6.403 -1.0823  4.1789  0.0038
   12MOL0     H 1603   6.420   9.282   6.124  3.0464 -0.8610  0.7409
   12MOL0     H 1604   6.309   9.343   6.247  1.3185 -0.2986  5.0997
   12MOL0     H 1605   6.391   9.374   6.500 -1.2094  1.8170 -0.9668
   12MOL0     H 1606   6.768   9.467   6.619  0.9929  2.6386  1.5365
   12MOL0     H 1607   6.650   9.346   6.676  1.0286  0.2912  1.6908
   12MOL0     H 1608   6.575   9.634   6.666 -0.2823  0.2941 -0.5943
   12MOL0     H 1609   6.487   9.508   6.734 -1.8901  3.6423 -4.6091
   12MOL0     H 1610   6.714   9.496   6.903 -0.5687  0.8330  2.0248
   12MOL0     H 1611   6.779   9.626   6.792  0.0017 -0.1127 -0.3369
   12MOL0     H 1612   6.530   9.663   6.971  0.0609  0.9853 -1.8926
   12MOL0     H 1613   6.693   9.719   7.015  0.8917 -0.3257  0.4642
   12MOL0     H 1614   6.631   9.921   7.092 -1.4647  0.7205  1.4437
   12MOL0     H 1615   6.507  10.137   7.264  0.0687  2.0923  0.2992
   12MOL0     H 1616   6.634  10.242   7.206  0.0062 -0.0389 -0.3275
   12MOL0     H 1617   6.666  10.064   7.229 -1.4433 -2.2136 -0.5072
   12MOL0     H 1618   6.790  10.467   7.118 -0.2144 -1.6057 -1.2141
   12MOL0     H 1619   6.824  10.691   7.223  0.4700  0.9127 -1.2677
   12MOL0     H 1620   6.851  11.015   6.937 -1.6193  2.6300 -2.4556
   12MOL0     H 1621   6.686  11.060   6.991 -0.2988  0.9886  1.7199
   12MOL0     H 1622   6.788  11.189   7.181 -0.5626 -1.8950 -0.2474
   12MOL0     H 1623   6.944  11.107   7.161 -0.0041  1.1395  1.0330
   12MOL0     H 1624   6.930  11.348   7.101  0.1962 -3.8370  3.9579
   12MOL0     H 1625   6.843  11.295   6.950  0.5815  1.1155  0.9372
   12MOL0     H 1626   7.029  11.157   6.871 -1.1328 -1.3775  1.6444
   12MOL0     H 1627   7.122  11.189   7.020  0.1414 -2.1132  0.0415
   12MOL0     H 1628   7.083  11.395   6.807  0.2233  0.2925  0.5473
   12MOL0     H 1629   7.135  11.421   6.975  0.0651 -0.0825  1.2222
   12MOL0     H 1630   7.277  11.300   6.742 -0.2908  0.2180 -0.8948
   12MOL0     H 1631   7.301  11.218   6.898  2.6167  0.2110 -1.3191
   12MOL0     H 1632   7.304  11.516   6.868 -1.6236 -1.6725  0.0214
   12MOL0     H 1633   7.451  11.428   6.833  0.1248 -2.2153 -0.9949
   12MOL0     H 1634   7.475  11.341   7.052 -0.2514  0.4834 -1.8364
   12MOL0     H 1635   7.315  11.376   7.103  2.3225 -0.9503  2.6931
   12MOL0     H 1636   6.639  10.886   6.886 -2.8194 -1.8255 -0.4827
   12MOL0     H 1637   6.554  10.653   6.816 -0.0722 -3.1485  1.2929
   12MOL0     H 1638   6.554  10.234   6.734 -1.6992 -3.0007 -2.0950
   12MOL0     H 1639   6.565  10.008   6.682  1.4789  1.3012  0.1598
   12MOL0     H 1640   5.884   8.513   5.694 -2.4342 -0.9855 -1.1918
   12MOL0     H 1641   5.898   8.369   5.470  0.6353 -0.6382  1.2341
   12MOL0     H 1642   5.898   8.557   4.990 -1.0190 -0.5061 -0.1145
   12MOL0     H 1643   5.957   8.536   4.746 -0.6415 -0.2067 -0.5618
   12MOL0     H 1644   6.108   8.393   4.467 -1.5402  0.2369  0.0669
   12MOL0     H 1645   5.999   8.483   4.556 -0.5533 -0.2667  2.5200
   12MOL0     H 1646   6.260   8.468   4.694  0.2118  0.2568 -0.2349
   12MOL0     H 1647   6.149   8.607   4.662 -1.3701 -1.0590 -1.0520
   12MOL0     H 1648   6.298   8.482   4.434 -2.2964 -1.0701  1.1621
   12MOL0     H 1649   6.235   8.643   4.437  1.6874  0.4294 -1.0446
   12MOL0     H 1650   6.511   8.628   4.458  0.2366  0.7455  0.9828
   12MOL0     H 1651   6.448   8.586   4.627  0.8881  2.3361  2.0405
   12MOL0     H 1652   6.382   8.988   4.633 -0.1612  0.7258 -1.0111
   12MOL0     H 1653   6.042   8.128   4.819 -0.6812  0.4884  0.0272
   12MOL0     H 1654   5.838   8.088   5.104 -0.9909  1.3475 -4.1846
   12MOL0     H 1655   5.970   8.012   5.021 -1.0195  0.3159 -1.6121
   12MOL0     H 1656   6.010   8.126   5.155  1.3161  2.0129 -1.5465
   13MOL0     O 1657   1.477   4.566   6.589  0.0754 -0.4477 -0.0135
   13MOL0     C 1658   1.378   4.530   6.656  0.9760 -0.4827 -0.4819
   13MOL0     O 1659   1.247   4.532   6.606 -0.1232  0.5280  0.3718
   13MOL0     C 1660   1.228   4.577   6.473 -0.6240  0.4020 -1.2140
   13MOL0     C 1661   1.257   4.704   6.427 -0.0982  0.4211 -0.1296
   13MOL0     C 1662   1.221   4.745   6.297 -0.4573  0.0548 -0.3939
   13MOL0     C 1663   1.155   4.656   6.211 -0.4189 -0.2426 -0.3778
   13MOL0     O 1664   1.099   4.682   6.096 -0.6267 -0.4080  0.1231
   13MOL0     C 1665   1.204   4.689   5.998  0.8287 -0.1711 -0.1801
   13MOL0     C 1666   1.104   4.699   5.876 -0.4176 -0.6002  0.7728
   13MOL0     C 1667   1.024   4.564   5.860  0.0646  0.1405  0.5188
   13MOL0     C 1668   0.876   4.605   5.875 -0.8666  0.4701 -0.7512
   13MOL0     C 1669   0.782   4.491   5.920  0.5989  0.3863  0.3791
   13MOL0     C 1670   0.758   4.376   5.820  0.7269 -0.7836  0.0505
   13MOL0     C 1671   0.702   4.432   5.681 -0.5002 -0.3517 -0.2717
   13MOL0     C 1672   0.688   4.312   5.585 -0.1691 -0.0752 -0.6869
   13MOL0     N 1673   0.648   4.363   5.450 -0.2728 -0.5339 -1.1904
   13MOL0     C 1674   0.526   4.423   5.411  0.1835 -0.3230  0.2517
   13MOL0     C 1675   0.544   4.447   5.281 -0.0598  0.5500  0.0858
   13MOL0     C 1676   0.439   4.502   5.187 -0.1799  0.0063 -0.4771
   13MOL0     C 1677   0.406   4.422   5.060 -0.9882 -0.0653  0.1770
   13MOL0     C 1678   0.377   4.272   5.094  0.2207  0.1711  0.0422
   13MOL0     C 1679   0.345   4.192   4.964 -0.1315  0.1712 -0.6117
   13MOL0     O 1680   0.239   4.253   4.887  0.1371 -0.8726 -0.0059
   13MOL0     C 1681   0.112   4.258   4.940 -0.6493 -0.0122  0.1766
   13MOL0     C 1682   0.051   4.375   4.959 -0.4821 -0.0078 -1.0697
   13MOL0     C 1683  -0.081   4.385   5.008 -0.3669  0.0602 -0.6861
   13MOL0     C 1684  -0.135   4.514   5.058  0.0450 -0.1635 -0.0159
   13MOL0     C 1685  -0.145   4.265   5.031  0.1266 -0.2097 -0.4449
   13MOL0     C 1686  -0.286   4.238   5.074  0.1844 -0.6902 -0.1454
   13MOL0     O 1687  -0.300   4.139   5.169 -0.0927  0.2370 -0.3567
   13MOL0     C 1688  -0.428   4.085   5.184  0.2970  1.2956  0.7151
   13MOL0     C 1689  -0.485   4.083   5.313 -0.3854  0.7918  0.4529
   13MOL0     C 1690  -0.620   4.020   5.326  0.4936 -0.5981  0.4390
   13MOL0     C 1691  -0.687   3.964   5.214  0.1061 -0.1465 -0.4982
   13MOL0     O 1692  -0.805   3.896   5.207 -0.3297 -0.3922  0.9387
   13MOL0     C 1693  -0.834   3.813   5.327  0.9339  0.8226 -0.0771
   13MOL0     C 1694  -0.987   3.789   5.339  0.7557  0.2671  0.0985
   13MOL0     C 1695  -1.039   3.702   5.451 -0.9545  0.0150  0.6811
   13MOL0     C 1696  -1.012   3.757   5.587 -0.7246  0.0284  0.1479
   13MOL0     C 1697  -1.066   3.660   5.692  0.0903  0.8107  0.9077
   13MOL0     C 1698  -1.008   3.700   5.822  0.7163 -0.2877 -0.6388
   13MOL0     C 1699  -1.068   3.593   5.921  0.4687 -0.3234  0.0185
   13MOL0     C 1700  -1.042   3.605   6.074 -0.3887 -0.4766  0.2827
   13MOL0    Cl 1701  -1.187   3.523   6.165 -0.1119  0.4278  0.4953
   13MOL0     C 1702  -0.618   3.960   5.100  0.7040  0.3148  0.1755
   13MOL0     C 1703  -0.493   4.021   5.081  1.0838  0.3623  0.3009
   13MOL0     O 1704  -0.379   4.315   5.045 -0.0678 -0.0429 -0.0558
   13MOL0     C 1705  -0.076   4.146   5.009  0.4426 -0.4811  0.1513
   13MOL0     C 1706   0.053   4.139   4.965 -0.6780 -0.0609  0.5455
   13MOL0     N 1707   0.674   4.418   5.244  0.8752  0.0724  0.5944
   13MOL0     N 1708   0.735   4.369   5.343  0.0746  0.4981  0.0225
   13MOL0     C 1709   1.142   4.521   6.251  0.9668  0.4687 -0.3912
   13MOL0     C 1710   1.180   4.483   6.384 -0.2549  0.4731 -0.1532
   13MOL0     C 1711   1.393   4.516   6.802 -0.4175 -0.1035 -1.1276
   13MOL0     C 1712   1.275   4.487   6.871  0.0020 -1.3055  0.4255
   13MOL0     C 1713   1.274   4.483   7.015 -0.3071 -0.6786  1.5483
   13MOL0     C 1714   1.389   4.491   7.094 -0.5719  0.4901 -1.0174
   13MOL0     O 1715   1.387   4.489   7.229 -0.1178  0.4357  0.0989
   13MOL0     C 1716   1.269   4.459   7.306  0.3608 -0.6526 -0.2529
   13MOL0     C 1717   1.246   4.567   7.410 -0.0138 -0.1753 -0.1861
   13MOL0     C 1718   1.197   4.694   7.343 -0.3083 -0.0317  0.4546
   13MOL0     C 1719   1.237   4.812   7.441  0.5978  0.0017  0.6825
   13MOL0     C 1720   1.179   4.796   7.581 -0.6699  0.7432  0.4333
   13MOL0     C 1721   1.128   4.766   7.684  1.6837 -0.8385  0.2107
   13MOL0     C 1722   1.505   4.509   7.022 -0.3809  0.9072 -0.6542
   13MOL0     C 1723   1.512   4.531   6.880 -0.7946 -0.5163  0.3246
   13MOL0     C 1724   1.645   4.566   6.812 -0.1894  0.7895 -0.7871
   13MOL0     H 1725   1.309   4.778   6.487 -0.1749  0.7992 -0.5235
   13MOL0     H 1726   1.246   4.848   6.273  3.5720 -0.4114  1.0446
   13MOL0     H 1727   1.267   4.599   6.001 -0.2722 -0.9398  0.9245
   13MOL0     H 1728   1.273   4.774   5.999 -0.9313  1.3247  1.6437
   13MOL0     H 1729   1.048   4.792   5.894 -2.1601 -1.4463 -0.0456
   13MOL0     H 1730   1.170   4.713   5.790 -1.4051 -0.2786  0.0455
   13MOL0     H 1731   1.040   4.528   5.758 -2.0223 -1.7632  0.7905
   13MOL0     H 1732   1.060   4.486   5.929  1.3275  0.3499  0.1305
   13MOL0     H 1733   0.870   4.680   5.955 -0.5808 -1.2701  0.9890
   13MOL0     H 1734   0.837   4.643   5.780  2.1316  0.9072 -1.9099
   13MOL0     H 1735   0.680   4.520   5.944  0.5527  0.1952  0.4212
   13MOL0     H 1736   0.817   4.445   6.013 -0.8535  1.0932  1.3064
   13MOL0     H 1737   0.845   4.309   5.813 -0.1020 -2.0646  1.4702
   13MOL0     H 1738   0.667   4.327   5.855 -0.5154 -0.9063 -3.0209
   13MOL0     H 1739   0.759   4.510   5.629 -2.6523 -0.5296 -3.1056
   13MOL0     H 1740   0.606   4.476   5.708  0.1712 -1.3270  4.8139
   13MOL0     H 1741   0.783   4.259   5.587 -0.8763 -1.3760 -0.1419
   13MOL0     H 1742   0.602   4.251   5.616 -0.0549 -0.0437 -0.3091
   13MOL0     H 1743   0.428   4.425   5.458 -0.0674  2.0478 -0.2619
   13MOL0     H 1744   0.473   4.602   5.156  3.0115 -0.4336  1.2176
   13MOL0     H 1745   0.340   4.523   5.230 -1.3019  0.3554 -2.9975
   13MOL0     H 1746   0.333   4.474   4.999  0.6648 -1.6905 -3.5091
   13MOL0     H 1747   0.498   4.432   5.002 -0.3747  2.2354  1.4105
   13MOL0     H 1748   0.452   4.233   5.163  1.0424  1.1866 -0.2523
   13MOL0     H 1749   0.281   4.269   5.147 -1.7243 -0.8694 -3.2281
   13MOL0     H 1750   0.439   4.189   4.908  0.1666  2.6282 -0.3473
   13MOL0     H 1751   0.307   4.092   4.987 -1.7198  0.7708 -0.4329
   13MOL0     H 1752   0.112   4.465   4.951 -0.2538  0.1934  1.8744
   13MOL0     H 1753  -0.179   4.580   4.982 -0.5439  1.1694  1.4112
   13MOL0     H 1754  -0.052   4.570   5.102  0.5408 -0.2387 -0.8351
   13MOL0     H 1755  -0.211   4.495   5.134 -0.6983 -0.8216 -0.9110
   13MOL0     H 1756  -0.431   4.110   5.403 -1.9118 -2.1291  2.3763
   13MOL0     H 1757  -0.674   4.017   5.420 -1.2236 -0.6810 -0.5027
   13MOL0     H 1758  -0.784   3.717   5.309  1.1269  1.4881 -3.7196
   13MOL0     H 1759  -0.807   3.858   5.423  2.0083 -2.2874  1.2407
   13MOL0     H 1760  -1.043   3.883   5.339 -3.0925 -1.8420  1.0147
   13MOL0     H 1761  -1.019   3.740   5.247  0.1191 -1.6981  1.3130
   13MOL0     H 1762  -0.994   3.602   5.441 -2.5509 -0.6129 -0.9058
   13MOL0     H 1763  -1.143   3.675   5.430  0.0995 -4.5241  0.1482
   13MOL0     H 1764  -1.062   3.854   5.583 -0.2242  0.2456 -2.1188
   13MOL0     H 1765  -0.903   3.757   5.595 -0.6543 -3.0714  0.2751
   13MOL0     H 1766  -1.174   3.677   5.679  0.5439  2.0731 -2.2922
   13MOL0     H 1767  -1.028   3.560   5.668  1.2805  0.8760  2.4512
   13MOL0     H 1768  -1.042   3.803   5.833 -1.4239 -0.6416 -2.9094
   13MOL0     H 1769  -0.899   3.700   5.828  0.7630 -0.0076 -1.3706
   13MOL0     H 1770  -1.043   3.495   5.879  1.4190  0.7517 -2.0472
   13MOL0     H 1771  -1.176   3.595   5.903  0.6048 -3.5396 -2.0254
   13MOL0     H 1772  -1.050   3.713   6.089 -1.5263 -0.5896  0.5786
   13MOL0     H 1773  -0.941   3.577   6.103  0.7381  1.2016 -1.7454
   13MOL0     H 1774  -0.664   3.914   5.013 -0.9850  0.7192  0.8094
   13MOL0     H 1775  -0.449   4.008   4.982  0.3369  0.0569  0.0008
   13MOL0     H 1776  -0.125   4.049   5.020  0.3265 -0.4183  0.1858
   13MOL0     H 1777   0.096   4.041   4.947 -2.1114 -0.7285  0.5907
   13MOL0     H 1778   1.101   4.445   6.185 -2.5740 -0.0518  2.1453
   13MOL0     H 1779   1.164   4.383   6.423  1.6868  0.2298  0.0869
   13MOL0     H 1780   1.177   4.474   6.826 -1.2917  0.4332  2.5570
   13MOL0     H 1781   1.173   4.454   7.041 -1.5686  1.4376 -0.6166
   13MOL0     H 1782   1.184   4.439   7.240  0.3809 -0.1480 -0.4290
   13MOL0     H 1783   1.283   4.371   7.370  1.1303 -0.6524 -0.4077
   13MOL0     H 1784   1.341   4.584   7.462  0.1016 -2.7616  0.5635
   13MOL0     H 1785   1.176   4.539   7.489 -0.9367  2.3899 -0.0071
   13MOL0     H 1786   1.254   4.719   7.253  3.4305 -0.1787  2.6136
   13MOL0     H 1787   1.089   4.683   7.326  0.0349 -1.1718 -1.2955
   13MOL0     H 1788   1.196   4.909   7.412  0.7239 -0.0389  0.3571
   13MOL0     H 1789   1.345   4.822   7.455  0.4272  3.1398  0.2954
   13MOL0     H 1790   1.081   4.756   7.780  3.5830  2.1726  1.5891
   13MOL0     H 1791   1.598   4.493   7.076 -1.0658 -3.4650 -0.3596
   13MOL0     H 1792   1.713   4.589   6.894 -2.3924  2.1869  0.7441
   13MOL0     H 1793   1.676   4.483   6.747  1.5197 -0.8057  1.8198
   13MOL0     H 1794   1.648   4.658   6.754  1.8657  1.2511 -0.0463
   14MOL0     O 1795   3.922   4.894   6.576 -0.4760 -0.7830  0.5528
   14MOL0     C 1796   3.974   5.000   6.617  0.4608  0.1905 -0.5637
   14MOL0     O 1797   4.078   5.011   6.703 -0.0082 -0.3545  0.7007
   14MOL0     C 1798   4.128   4.909   6.778 -0.5789  0.2539  0.1715
   14MOL0     C 1799   4.264   4.909   6.815 -0.2918 -0.2557 -0.7834
   14MOL0     C 1800   4.320   4.806   6.892 -0.1426  1.5430 -0.6443
   14MOL0     C 1801   4.246   4.691   6.917  0.6356 -0.7278  0.2823
   14MOL0     O 1802   4.297   4.572   6.961  0.1620 -0.2346  0.5801
   14MOL0     C 1803   4.413   4.562   7.039  0.8446 -0.8770  0.5817
   14MOL0     C 1804   4.530   4.517   6.951  0.5663  0.1264  0.1417
   14MOL0     C 1805   4.650   4.471   7.041  0.3210 -0.2604 -0.2149
   14MOL0     C 1806   4.776   4.485   6.949  1.7050 -0.1453 -1.2525
   14MOL0     C 1807   4.897   4.440   7.036 -0.1443 -0.4279  0.2632
   14MOL0     C 1808   5.020   4.421   6.943 -0.2931  0.8527 -0.4845
   14MOL0     C 1809   5.141   4.383   7.020 -0.1492  0.6599 -0.4938
   14MOL0     C 1810   5.269   4.356   6.929 -0.5427  0.0445 -0.2768
   14MOL0     N 1811   5.277   4.213   6.892  0.2794 -0.2928  0.1207
   14MOL0     C 1812   5.233   4.138   6.786  0.3018 -0.9566  0.0205
   14MOL0     C 1813   5.286   4.014   6.809 -0.3071  0.6162 -0.7256
   14MOL0     C 1814   5.299   3.913   6.699  0.1772 -0.0322  1.1325
   14MOL0     C 1815   5.166   3.864   6.638 -0.6418 -0.1844  0.3679
   14MOL0     C 1816   5.144   3.955   6.512 -0.1088  0.2462 -0.2364
   14MOL0     C 1817   5.213   3.897   6.394  0.6133 -0.9422 -0.0788
   14MOL0     O 1818   5.201   3.987   6.279 -0.2936  0.5134  0.2313
   14MOL0     C 1819   5.095   3.968   6.194  0.0940 -0.4126 -1.1650
   14MOL0     C 1820   5.043   4.093   6.143 -0.6576 -0.7438 -0.0092
   14MOL0     C 1821   4.930   4.097   6.063 -0.0528 -0.8052 -1.3822
   14MOL0     C 1822   4.900   4.236   6.012  0.4621 -0.7267 -0.3334
   14MOL0     C 1823   4.868   3.977   6.027 -0.7404  0.4695 -0.3950
   14MOL0     C 1824   4.762   3.967   5.924  0.0509 -0.9719  0.3218
   14MOL0     O 1825   4.735   3.837   5.876  0.1437  0.1754 -0.8863
   14MOL0     C 1826   4.616   3.822   5.816  0.1506 -0.7789  0.9028
   14MOL0     C 1827   4.495   3.801   5.894 -1.3082 -0.9047  0.0172
   14MOL0     C 1828   4.371   3.777   5.825  0.3211 -1.3061 -0.3958
   14MOL0     C 1829   4.365   3.760   5.684 -0.7609  0.1220 -0.7066
   14MOL0     O 1830   4.242   3.730   5.634  0.5428  0.5355 -0.2088
   14MOL0     C 1831   4.249   3.627   5.528 -0.3126  0.2333 -0.0734
   14MOL0     C 1832   4.198   3.669   5.381  0.1564 -1.3708 -0.1005
   14MOL0     C 1833   4.036   3.700   5.376 -0.6729  1.2279  0.3340
   14MOL0     C 1834   3.978   3.683   5.236 -0.7430 -0.6187  0.5421
   14MOL0     C 1835   3.831   3.719   5.229 -0.1644  0.5714  0.1976
   14MOL0     C 1836   3.748   3.696   5.096  0.0574 -0.0825  0.0820
   14MOL0     C 1837   3.612   3.770   5.087 -0.5580 -0.1754  0.1944
   14MOL0     C 1838   3.524   3.744   5.207 -0.4755 -1.0231  0.0417
   14MOL0    Cl 1839   3.463   3.577   5.216  0.1792  0.7578  0.1389
   14MOL0     C 1840   4.479   3.790   5.611 -0.1003  0.2949  0.1838
   14MOL0     C 1841   4.605   3.819   5.676  0.6188 -0.1643 -0.3323
   14MOL0     O 1842   4.704   4.069   5.881  0.0411  0.0775 -0.6402
   14MOL0     C 1843   4.916   3.847   6.077  0.1334  0.5813  0.0386
   14MOL0     C 1844   5.032   3.848   6.149  0.6051  0.1023  0.2773
   14MOL0     N 1845   5.358   4.004   6.935 -1.1800 -1.0403  0.3509
   14MOL0     N 1846   5.339   4.119   6.982 -0.2307 -1.3839 -0.4985
   14MOL0     C 1847   4.113   4.693   6.883  0.6307  0.6844  0.2631
   14MOL0     C 1848   4.057   4.796   6.811 -0.0559  0.2712  0.1357
   14MOL0     C 1849   3.902   5.126   6.576 -0.1504  0.3047 -0.1222
   14MOL0     C 1850   3.829   5.119   6.452  0.3046 -0.3555 -0.7425
   14MOL0     C 1851   3.790   5.237   6.390 -0.3044  0.1616 -0.2489
   14MOL0     C 1852   3.805   5.360   6.460  0.7600 -0.8657 -0.6738
   14MOL0     O 1853   3.773   5.492   6.418  0.2001 -0.0996 -0.4797
   14MOL0     C 1854   3.706   5.494   6.285 -0.3202 -0.3778 -0.3638
   14MOL0     C 1855   3.705   5.635   6.228 -0.8676 -0.2774 -0.2375
   14MOL0     C 1856   3.845   5.699   6.211 -0.2928 -0.2349 -0.6085
   14MOL0     C 1857   3.852   5.792   6.088  0.1190 -0.7571 -0.2667
   14MOL0     C 1858   3.860   5.731   5.947 -0.1370  0.0388 -0.2270
   14MOL0     C 1859   3.872   5.662   5.757  0.4977 -0.4144 -0.8026
   14MOL0     C 1860   3.877   5.360   6.583 -0.0772  0.0717  0.1704
   14MOL0     C 1861   3.924   5.244   6.641 -0.1980 -1.4014  1.1026
   14MOL0     C 1862   4.018   5.255   6.765 -0.2415  0.2431  0.2061
   14MOL0     H 1863   4.329   4.987   6.775 -1.6357 -0.3692 -3.3836
   14MOL0     H 1864   4.423   4.811   6.928 -0.1491 -0.6955 -0.2222
   14MOL0     H 1865   4.404   4.481   7.112  3.6856 -1.5635  0.2690
   14MOL0     H 1866   4.431   4.651   7.099 -1.2241 -0.8432  1.2573
   14MOL0     H 1867   4.508   4.430   6.888 -0.8503 -1.0207  2.1235
   14MOL0     H 1868   4.572   4.593   6.885  2.8431 -1.9398 -0.9686
   14MOL0     H 1869   4.657   4.542   7.123 -2.5980 -0.9085  0.6912
   14MOL0     H 1870   4.647   4.369   7.081  1.3055 -1.0583 -2.0370
   14MOL0     H 1871   4.779   4.425   6.857 -2.5833 -2.6117 -0.0723
   14MOL0     H 1872   4.782   4.592   6.925 -0.5541  0.2475 -0.2918
   14MOL0     H 1873   4.874   4.347   7.089  1.3116  0.3129  2.3448
   14MOL0     H 1874   4.903   4.522   7.108 -0.9273 -1.0960  1.1251
   14MOL0     H 1875   4.994   4.352   6.862  1.8651 -0.3936 -0.2045
   14MOL0     H 1876   5.043   4.518   6.899 -1.5100  0.8320 -1.2110
   14MOL0     H 1877   5.118   4.287   7.066  2.8823  0.9925  2.0177
   14MOL0     H 1878   5.156   4.459   7.097 -1.3843  1.2060 -0.7547
   14MOL0     H 1879   5.265   4.425   6.844  1.2853 -0.4548 -0.8085
   14MOL0     H 1880   5.350   4.383   6.998 -0.3751  0.2846 -0.5643
   14MOL0     H 1881   5.187   4.185   6.701  1.2398 -0.5963 -0.2977
   14MOL0     H 1882   5.342   3.820   6.738  0.4523 -0.3985 -0.0063
   14MOL0     H 1883   5.365   3.942   6.617 -0.9547 -0.1143  0.1651
   14MOL0     H 1884   5.178   3.762   6.601 -2.3691 -0.0237 -0.7328
   14MOL0     H 1885   5.089   3.875   6.715  1.1397  1.4903  2.0553
   14MOL0     H 1886   5.039   3.964   6.482 -0.5928  2.8708  1.8842
   14MOL0     H 1887   5.164   4.059   6.538 -1.0101  0.8248 -1.7553
   14MOL0     H 1888   5.318   3.879   6.416  0.5654 -1.1650 -0.0229
   14MOL0     H 1889   5.162   3.805   6.362  2.1772 -1.5930 -0.7598
   14MOL0     H 1890   5.093   4.184   6.174 -1.7063  0.0219 -0.4811
   14MOL0     H 1891   4.978   4.309   6.035 -2.0814  2.1225 -0.2109
   14MOL0     H 1892   4.803   4.284   6.026  2.3140  3.6114 -0.7632
   14MOL0     H 1893   4.888   4.230   5.904  0.6874 -2.6634 -0.2863
   14MOL0     H 1894   4.489   3.798   6.002 -0.0430  1.0840  0.1977
   14MOL0     H 1895   4.276   3.764   5.876  0.7939 -0.5354  0.7039
   14MOL0     H 1896   4.348   3.579   5.524 -0.4107  0.1324 -2.6810
   14MOL0     H 1897   4.190   3.542   5.563  1.2376 -0.7177  0.3487
   14MOL0     H 1898   4.254   3.759   5.353 -1.7148  0.5457  1.9459
   14MOL0     H 1899   4.211   3.597   5.300 -2.4732 -2.6613  0.5459
   14MOL0     H 1900   4.011   3.801   5.409 -4.3217  0.4783  0.1869
   14MOL0     H 1901   3.995   3.625   5.443  0.1123  1.3895  1.0156
   14MOL0     H 1902   3.993   3.576   5.216 -2.0327 -1.2609  2.6863
   14MOL0     H 1903   4.033   3.748   5.168  0.6465 -0.7659  1.4875
   14MOL0     H 1904   3.786   3.651   5.302  0.4978  1.6551  1.6837
   14MOL0     H 1905   3.813   3.820   5.269 -3.2122  0.0800  0.3200
   14MOL0     H 1906   3.748   3.588   5.083 -3.7736 -0.6457  2.8957
   14MOL0     H 1907   3.805   3.736   5.012 -1.2550 -0.5167 -1.0397
   14MOL0     H 1908   3.562   3.734   4.996 -0.2947 -1.2427  0.4681
   14MOL0     H 1909   3.629   3.878   5.079 -1.4569  0.0611  1.2586
   14MOL0     H 1910   3.446   3.820   5.195  0.8362  0.3294 -0.3297
   14MOL0     H 1911   3.578   3.767   5.299 -1.9510  1.3211  0.4257
   14MOL0     H 1912   4.483   3.788   5.502  0.3389  1.7484  0.1546
   14MOL0     H 1913   4.688   3.829   5.607  1.2797 -0.0797  0.4574
   14MOL0     H 1914   4.871   3.753   6.049  2.2083 -0.2159 -0.8810
   14MOL0     H 1915   5.076   3.752   6.175 -2.4420 -1.3793  0.3451
   14MOL0     H 1916   4.058   4.605   6.915  0.6910  1.5222  2.9292
   14MOL0     H 1917   3.953   4.782   6.787  0.0130 -0.7792  0.4000
   14MOL0     H 1918   3.812   5.017   6.418  0.6550 -1.9607  3.2798
   14MOL0     H 1919   3.744   5.224   6.292  2.2075 -1.7220 -1.2840
   14MOL0     H 1920   3.750   5.423   6.215  1.1068  0.8681 -0.7668
   14MOL0     H 1921   3.599   5.470   6.296 -0.2863 -0.7723 -0.8411
   14MOL0     H 1922   3.653   5.705   6.294 -0.3733  0.3779 -0.5325
   14MOL0     H 1923   3.649   5.635   6.134 -0.4165 -2.7262 -0.5739
   14MOL0     H 1924   3.869   5.757   6.301  0.2038 -0.2567 -0.7255
   14MOL0     H 1925   3.913   5.623   6.173 -1.7043 -0.9648 -1.7803
   14MOL0     H 1926   3.935   5.860   6.108  0.0211  0.8690 -4.4795
   14MOL0     H 1927   3.759   5.849   6.088  0.8647  0.4897 -0.2767
   14MOL0     H 1928   3.873   5.636   5.653 -1.2296 -0.4141 -0.8518
   14MOL0     H 1929   3.888   5.457   6.630 -1.0375 -0.7425  2.2195
   14MOL0     H 1930   4.118   5.234   6.725 -1.4875 -3.1093 -1.6335
   14MOL0     H 1931   4.017   5.355   6.809  3.1906  0.8280 -0.7613
   14MOL0     H 1932   3.991   5.182   6.842  0.7610  1.8031  2.1200
   15MOL0     O 1933   9.242  10.434   7.804  0.4246 -0.4404 -0.0696
   15MOL0     C 1934   9.265  10.323   7.846 -0.7114 -0.2000  0.0566
   15MOL0     O 1935   9.207  10.206   7.806 -0.2793  0.0085 -0.1506
   15MOL0     C 1936   9.099  10.225   7.714 -0.6790  1.3110 -0.8602
   15MOL0     C 1937   9.110  10.288   7.593  0.0910  0.6460 -0.5115
   15MOL0     C 1938   9.006  10.276   7.505  0.1034 -0.3522  0.2615
   15MOL0     C 1939   8.893  10.203   7.520 -0.3158  0.2939  0.4030
   15MOL0     O 1940   8.795  10.191   7.429  0.5831 -0.1069 -0.2364
   15MOL0     C 1941   8.820  10.222   7.289  0.2318  0.1163 -0.1957
   15MOL0     C 1942   8.703  10.172   7.194  0.4495 -0.0912 -0.3526
   15MOL0     C 1943   8.694  10.032   7.154  0.4645  0.6715  0.0276
   15MOL0     C 1944   8.683   9.942   7.275 -0.2692  0.4283  0.6644
   15MOL0     C 1945   8.618   9.803   7.249 -0.4476  0.0741  0.0718
   15MOL0     C 1946   8.462   9.809   7.239 -0.5053 -0.0068  0.7126
   15MOL0     C 1947   8.397   9.669   7.212 -1.3279  0.1538 -0.2062
   15MOL0     C 1948   8.240   9.673   7.200  0.0908  0.1657 -0.3626
   15MOL0     N 1949   8.163   9.676   7.319 -0.5251  0.5150  0.0462
   15MOL0     C 1950   8.172   9.583   7.413 -0.5314  1.0206  0.5271
   15MOL0     C 1951   8.085   9.614   7.507 -0.6580 -0.0034  1.1514
   15MOL0     C 1952   8.030   9.530   7.616 -0.1440  0.2019  0.9754
   15MOL0     C 1953   8.120   9.507   7.737 -1.0938  0.3392  0.0167
   15MOL0     C 1954   8.238   9.418   7.705  0.4610 -0.3528  0.0724
   15MOL0     C 1955   8.284   9.328   7.818  0.4437  0.1834  0.1866
   15MOL0     O 1956   8.198   9.227   7.867 -0.0267  1.2491 -0.2400
   15MOL0     C 1957   8.200   9.212   8.008  0.6345  0.1709  0.6105
   15MOL0     C 1958   8.255   9.099   8.063 -0.1943  0.0893 -0.8387
   15MOL0     C 1959   8.271   9.083   8.207  0.5605 -0.3837  1.0987
   15MOL0     C 1960   8.311   8.942   8.248 -0.0449  0.1467  0.6123
   15MOL0     C 1961   8.230   9.191   8.295 -0.0563  0.0293 -0.1919
   15MOL0     C 1962   8.248   9.188   8.439 -0.0068  0.2872 -1.1879
   15MOL0     O 1963   8.281   9.073   8.493  0.1409  0.5155 -0.1545
   15MOL0     C 1964   8.323   9.076   8.623  0.0924  0.1971 -0.0994
   15MOL0     C 1965   8.254   9.013   8.721 -0.8148  0.2926 -0.8685
   15MOL0     C 1966   8.311   9.002   8.851  0.5067 -1.1410 -0.4666
   15MOL0     C 1967   8.429   9.069   8.887 -0.0907 -0.4588 -0.1723
   15MOL0     O 1968   8.472   9.086   9.022 -0.2019  0.5681  0.5349
   15MOL0     C 1969   8.453   9.215   9.074  0.3805 -0.2194 -0.7460
   15MOL0     C 1970   8.512   9.228   9.217  0.4139  0.1663 -0.0418
   15MOL0     C 1971   8.495   9.356   9.298 -0.5963 -0.3459 -0.2711
   15MOL0     C 1972   8.576   9.474   9.242 -0.2491 -0.7089 -0.1158
   15MOL0     C 1973   8.507   9.611   9.197  0.6719  0.5993  0.7522
   15MOL0     C 1974   8.418   9.683   9.288  0.0792 -0.1049 -0.2113
   15MOL0     C 1975   8.495   9.717   9.424  0.5903 -0.5782  0.4743
   15MOL0     C 1976   8.413   9.826   9.500 -0.4298  0.8205 -0.7351
   15MOL0    Cl 1977   8.272   9.755   9.575  0.0544  0.4784  0.3517
   15MOL0     C 1978   8.500   9.138   8.786  0.0528  0.3237 -0.1850
   15MOL0     C 1979   8.446   9.129   8.654 -0.4214 -0.0734  0.4362
   15MOL0     O 1980   8.227   9.295   8.501 -0.7338 -0.3912 -0.3971
   15MOL0     C 1981   8.164   9.305   8.244  0.2116 -1.0000  1.0655
   15MOL0     C 1982   8.152   9.315   8.095  0.1930 -0.8043 -0.0451
   15MOL0     N 1983   8.035   9.741   7.483 -0.1078 -0.2894 -0.1065
   15MOL0     N 1984   8.077   9.776   7.363  0.1675 -0.9809 -0.4013
   15MOL0     C 1985   8.884  10.123   7.641  0.1706  0.0941  0.7024
   15MOL0     C 1986   8.993  10.138   7.733 -0.1868 -0.6842 -0.8331
   15MOL0     C 1987   9.357  10.307   7.970 -0.9350 -0.0401 -0.3411
   15MOL0     C 1988   9.353  10.198   8.058  0.0305  0.2560  0.3851
   15MOL0     C 1989   9.418  10.191   8.179 -0.3043  0.4483 -0.7080
   15MOL0     C 1990   9.515  10.293   8.214  0.3746  0.7512  0.2778
   15MOL0     O 1991   9.605  10.285   8.321  0.1261 -0.5937 -0.9948
   15MOL0     C 1992   9.615  10.171   8.406 -0.2156  0.5200  0.3549
   15MOL0     C 1993   9.540  10.188   8.534 -0.3228  0.0275 -0.3464
   15MOL0     C 1994   9.394  10.239   8.519  0.7004 -0.1543  0.5905
   15MOL0     C 1995   9.306  10.242   8.642 -0.6442 -0.9071 -0.0410
   15MOL0     C 1996   9.349  10.353   8.737 -0.0806 -0.0049  0.4857
   15MOL0     C 1997   9.406  10.432   8.809  0.6778  0.2642  0.0268
   15MOL0     C 1998   9.534  10.400   8.128  0.2459 -0.3852  0.3255
   15MOL0     C 1999   9.452  10.410   8.009  0.4333  0.4332  0.3112
   15MOL0     C 2000   9.496  10.524   7.923  0.1874  0.5320 -0.7912
   15MOL0     H 2001   9.199  10.345   7.566 -1.1518  1.8765 -2.1997
   15MOL0     H 2002   9.015  10.329   7.410  2.2711  3.0523  2.1460
   15MOL0     H 2003   8.907  10.161   7.262 -0.7410 -1.3021 -0.2440
   15MOL0     H 2004   8.824  10.331   7.280 -3.7602  0.2478 -3.4224
   15MOL0     H 2005   8.618  10.213   7.249  1.0922  4.1448 -2.0946
   15MOL0     H 2006   8.695  10.236   7.105 -2.1052  0.0842 -0.0612
   15MOL0     H 2007   8.610  10.023   7.085 -0.4741 -0.5683  1.2779
   15MOL0     H 2008   8.783  10.000   7.099 -1.9141 -2.4760 -2.3321
   15MOL0     H 2009   8.781   9.913   7.313  0.0567 -0.0277 -0.4589
   15MOL0     H 2010   8.636   9.997   7.357 -1.1068 -1.0891  1.2454
   15MOL0     H 2011   8.653   9.733   7.326  2.1557  0.5618 -0.5907
   15MOL0     H 2012   8.647   9.765   7.151  0.4885 -0.6626  0.6175
   15MOL0     H 2013   8.428   9.850   7.335 -1.4566 -0.2660  0.4949
   15MOL0     H 2014   8.425   9.863   7.151  0.0327 -1.2390 -0.2979
   15MOL0     H 2015   8.426   9.603   7.295  1.3078 -1.9790 -2.6122
   15MOL0     H 2016   8.431   9.626   7.117 -1.5078  2.5426 -1.4242
   15MOL0     H 2017   8.212   9.760   7.141  1.6243  1.5454  0.8700
   15MOL0     H 2018   8.218   9.581   7.145  3.8016  0.4886 -2.6797
   15MOL0     H 2019   8.199   9.477   7.409 -2.7720  0.4355 -0.9082
   15MOL0     H 2020   7.992   9.438   7.572  2.7759 -0.0428 -1.3728
   15MOL0     H 2021   7.934   9.575   7.640  0.0450  2.4367 -1.8762
   15MOL0     H 2022   8.162   9.604   7.768  1.8664 -0.9206  0.2886
   15MOL0     H 2023   8.055   9.464   7.813  1.4437  0.0141  2.1413
   15MOL0     H 2024   8.220   9.357   7.616  0.1281  2.8633 -2.2336
   15MOL0     H 2025   8.319   9.490   7.688  0.8880  0.3299  4.0365
   15MOL0     H 2026   8.371   9.275   7.778  0.9857  2.0051 -1.1824
   15MOL0     H 2027   8.332   9.386   7.897 -0.9726  2.1236 -0.2868
   15MOL0     H 2028   8.306   9.031   7.995  1.3074 -0.0336  0.3424
   15MOL0     H 2029   8.340   8.890   8.156 -0.4293  1.5334 -0.3261
   15MOL0     H 2030   8.221   8.894   8.288 -0.6660 -0.5926 -1.5372
   15MOL0     H 2031   8.397   8.948   8.315  0.6877 -1.1682 -0.1549
   15MOL0     H 2032   8.160   8.961   8.704 -1.0993  0.3111  0.4690
   15MOL0     H 2033   8.260   8.964   8.939  1.5599  0.4839  0.9048
   15MOL0     H 2034   8.492   9.290   9.005 -0.0411  0.6334 -0.0891
   15MOL0     H 2035   8.345   9.233   9.071  0.2272 -0.9925 -4.1834
   15MOL0     H 2036   8.472   9.141   9.270  0.4474  0.5758  0.6760
   15MOL0     H 2037   8.620   9.212   9.210  0.6564  1.1036  1.1957
   15MOL0     H 2038   8.534   9.323   9.395  0.9003 -0.2085 -0.8097
   15MOL0     H 2039   8.390   9.378   9.319 -0.2626  1.0070  0.0430
   15MOL0     H 2040   8.637   9.450   9.154 -0.5389 -1.4334 -0.1255
   15MOL0     H 2041   8.646   9.505   9.320  0.6307 -2.9411  0.0531
   15MOL0     H 2042   8.591   9.679   9.181  0.2279  1.8129  3.1358
   15MOL0     H 2043   8.450   9.590   9.106 -2.1869  3.1898  1.7700
   15MOL0     H 2044   8.322   9.632   9.301 -0.7528  0.8283 -2.2672
   15MOL0     H 2045   8.386   9.771   9.231 -0.1785 -0.1686 -0.1667
   15MOL0     H 2046   8.593   9.758   9.400  1.3525 -2.4956  0.1015
   15MOL0     H 2047   8.489   9.627   9.486 -1.1938  0.2113  1.5136
   15MOL0     H 2048   8.376   9.910   9.441 -2.8973 -0.8273 -1.6867
   15MOL0     H 2049   8.486   9.868   9.571  1.3270 -1.8459 -0.8251
   15MOL0     H 2050   8.596   9.182   8.809  0.0883 -0.4279  1.2347
   15MOL0     H 2051   8.515   9.176   8.584  0.1588  0.3458  1.2808
   15MOL0     H 2052   8.117   9.383   8.304  0.9916  0.6384 -0.3586
   15MOL0     H 2053   8.117   9.402   8.039  0.1474 -2.4323 -2.7448
   15MOL0     H 2054   8.804  10.052   7.663 -0.4423  0.6090  0.1803
   15MOL0     H 2055   8.996  10.085   7.827 -2.6892 -1.5571 -1.1641
   15MOL0     H 2056   9.291  10.117   8.022 -0.9567  1.7225 -1.3933
   15MOL0     H 2057   9.399  10.109   8.248  3.7600  0.5543  0.8115
   15MOL0     H 2058   9.599  10.076   8.354  1.3882 -0.1413  1.0097
   15MOL0     H 2059   9.720  10.151   8.426  0.1348 -2.2134 -3.2005
   15MOL0     H 2060   9.596  10.254   8.601  0.2741 -0.9897  0.1721
   15MOL0     H 2061   9.518  10.095   8.586  0.4510  0.3307  0.5333
   15MOL0     H 2062   9.405  10.343   8.486 -0.1414  0.5106  2.2640
   15MOL0     H 2063   9.332  10.179   8.452 -0.8238  2.8716 -0.9292
   15MOL0     H 2064   9.326  10.154   8.703  0.4150 -0.3747  0.4077
   15MOL0     H 2065   9.199  10.246   8.619 -0.9133  1.0996  1.2437
   15MOL0     H 2066   9.451  10.502   8.877 -1.9279  1.9509  0.1602
   15MOL0     H 2067   9.610  10.472   8.155  0.0996 -0.0865 -0.0477
   15MOL0     H 2068   9.417  10.601   7.918 -0.0847  0.1702 -3.0270
   15MOL0     H 2069   9.586  10.570   7.964 -1.9779  4.3866  0.1800
   15MOL0     H 2070   9.521  10.480   7.826  0.4159  3.4056 -2.1391
   16MOL0     O 2071   6.100   0.738   4.474  0.1794 -0.2098 -0.0331
   16MOL0     C 2072   6.054   0.819   4.394 -0.1412 -0.1143  0.0148
   16MOL0     O 2073   6.103   0.950   4.376 -0.2916  0.3714  0.1172
   16MOL0     C 2074   6.235   0.959   4.408  0.5661  0.0476  0.5300
   16MOL0     C 2075   6.274   1.026   4.521 -0.2940  0.2664 -0.8902
   16MOL0     C 2076   6.409   1.057   4.547  0.0828  0.0285 -0.2472
   16MOL0     C 2077   6.508   1.020   4.453 -0.9397 -0.0355 -0.4825
   16MOL0     O 2078   6.633   1.081   4.472  0.5352  0.1447  0.2345
   16MOL0     C 2079   6.725   1.058   4.368 -0.5833 -0.2243  0.9071
   16MOL0     C 2080   6.843   1.150   4.365 -0.3880  0.9212 -0.3248
   16MOL0     C 2081   6.938   1.139   4.487  0.7126 -0.2370 -1.3145
   16MOL0     C 2082   7.082   1.133   4.431 -0.1750 -0.4144  0.0311
   16MOL0     C 2083   7.176   1.072   4.536  0.3987 -0.3349 -0.2602
   16MOL0     C 2084   7.254   1.172   4.618  0.4884 -0.0427  0.4288
   16MOL0     C 2085   7.316   1.109   4.750 -0.4240 -1.2682  1.3581
   16MOL0     C 2086   7.226   1.062   4.863  0.7726  0.2597  0.2012
   16MOL0     N 2087   7.165   1.166   4.949 -0.3927  0.6148  0.6218
   16MOL0     C 2088   7.159   1.180   5.078  0.8591  0.0651  0.0924
   16MOL0     C 2089   7.096   1.298   5.110 -0.3708 -0.0592 -0.0691
   16MOL0     C 2090   7.071   1.358   5.245 -0.1777 -0.4919 -0.4527
   16MOL0     C 2091   6.970   1.282   5.344  0.6847 -0.1823  0.3639
   16MOL0     C 2092   7.020   1.147   5.391  0.0363  0.1861 -0.3352
   16MOL0     C 2093   6.929   1.095   5.504  1.3120  0.1643  0.1470
   16MOL0     O 2094   6.930   1.181   5.617 -0.3273  0.3173  0.1519
   16MOL0     C 2095   7.019   1.164   5.722 -0.2359  0.6292  0.5359
   16MOL0     C 2096   7.100   1.052   5.746 -0.5719 -0.1628  0.8276
   16MOL0     C 2097   7.186   1.042   5.851  0.0370  0.8770  0.6012
   16MOL0     C 2098   7.296   0.942   5.849  0.1624  1.0186  0.1388
   16MOL0     C 2099   7.178   1.131   5.960 -0.3938 -0.7395 -0.2187
   16MOL0     C 2100   7.256   1.107   6.083  0.0566  0.6718 -0.2347
   16MOL0     O 2101   7.350   1.202   6.119 -0.4835  0.0603 -0.1190
   16MOL0     C 2102   7.413   1.166   6.232 -0.4787 -0.0159 -0.3245
   16MOL0     C 2103   7.520   1.077   6.218  0.0359  0.2257  0.2165
   16MOL0     C 2104   7.585   1.031   6.326  0.4182  0.3263  0.0242
   16MOL0     C 2105   7.544   1.073   6.454 -0.2082 -0.3919 -0.5181
   16MOL0     O 2106   7.599   1.026   6.569  0.4290 -0.1201  0.4295
   16MOL0     C 2107   7.726   0.957   6.559  0.5398 -0.1141 -1.2844
   16MOL0     C 2108   7.762   0.914   6.700 -0.4800 -1.2027  0.3300
   16MOL0     C 2109   7.764   1.032   6.803  0.5372  0.1206  0.1501
   16MOL0     C 2110   7.802   0.991   6.949  0.2839 -0.0740 -0.6074
   16MOL0     C 2111   7.840   1.115   7.037 -0.0157 -0.3171  0.8129
   16MOL0     C 2112   7.702   1.177   7.081 -0.8262  0.0692  0.5895
   16MOL0     C 2113   7.732   1.303   7.163  0.7723  1.0565  0.0061
   16MOL0     C 2114   7.619   1.344   7.252  0.4782 -0.1844 -0.8590
   16MOL0    Cl 2115   7.620   1.216   7.388  0.7435  0.1454  0.0728
   16MOL0     C 2116   7.446   1.171   6.470 -0.5615  0.6788 -0.4114
   16MOL0     C 2117   7.385   1.222   6.359 -0.1634 -0.0234 -0.2107
   16MOL0     O 2118   7.233   1.001   6.144 -0.6154 -0.1811 -0.3668
   16MOL0     C 2119   7.107   1.250   5.948  0.9796 -0.3286  0.6293
   16MOL0     C 2120   7.034   1.263   5.825  0.0609  0.1387 -0.2950
   16MOL0     N 2121   7.058   1.358   4.987  0.1398  0.4604 -0.3432
   16MOL0     N 2122   7.095   1.268   4.898  0.6770 -0.1769 -0.3218
   16MOL0     C 2123   6.474   0.933   4.346  0.0579 -0.3312 -0.2451
   16MOL0     C 2124   6.333   0.904   4.328  0.4053  0.5822 -0.0198
   16MOL0     C 2125   5.927   0.782   4.336  0.2750  0.1301 -0.1224
   16MOL0     C 2126   5.825   0.739   4.423 -0.1308  0.0938 -0.3906
   16MOL0     C 2127   5.701   0.717   4.370 -0.1816 -0.2653 -0.1949
   16MOL0     C 2128   5.671   0.728   4.232  0.7312  0.0208 -1.2488
   16MOL0     O 2129   5.537   0.704   4.196 -0.3507 -0.3210  0.0837
   16MOL0     C 2130   5.489   0.710   4.059  0.3839  0.2876  0.3010
   16MOL0     C 2131   5.499   0.576   3.994  0.5662 -0.8446 -1.2365
   16MOL0     C 2132   5.389   0.563   3.887  0.3933 -0.1443 -0.0773
   16MOL0     C 2133   5.391   0.435   3.812  1.0123 -0.2268  0.0991
   16MOL0     C 2134   5.319   0.329   3.891 -0.4263 -0.5366 -0.5475
   16MOL0     C 2135   5.268   0.246   3.962  0.4493  0.4043 -0.0654
   16MOL0     C 2136   5.778   0.768   4.151  0.3955 -0.2789  0.0820
   16MOL0     C 2137   5.903   0.805   4.201  0.1222  0.2260 -0.0803
   16MOL0     C 2138   6.018   0.824   4.101  0.1859 -0.0460  0.3601
   16MOL0     H 2139   6.193   1.062   4.583 -1.4935 -1.3791 -1.4337
   16MOL0     H 2140   6.438   1.112   4.636  2.2361 -0.9686 -0.2596
   16MOL0     H 2141   6.680   1.063   4.269  0.6385  2.6170  0.3965
   16MOL0     H 2142   6.767   0.959   4.386  1.2440  0.8666  3.3016
   16MOL0     H 2143   6.908   1.127   4.280  3.3803 -1.1402  2.7615
   16MOL0     H 2144   6.812   1.255   4.360  3.8148  2.3494 -0.1927
   16MOL0     H 2145   6.932   1.231   4.545  1.2305 -0.0299 -1.5828
   16MOL0     H 2146   6.909   1.052   4.548 -0.2738  1.2468  0.4306
   16MOL0     H 2147   7.077   1.068   4.343 -0.0847 -1.8456  1.0466
   16MOL0     H 2148   7.121   1.228   4.396  0.9131 -0.9429 -0.2338
   16MOL0     H 2149   7.244   1.015   4.473 -1.2936 -1.4009 -1.1874
   16MOL0     H 2150   7.128   0.993   4.594 -1.2170 -0.6709 -1.9632
   16MOL0     H 2151   7.340   1.196   4.555  1.9143 -3.3200  0.9433
   16MOL0     H 2152   7.194   1.263   4.633  1.4481  0.4691  1.2767
   16MOL0     H 2153   7.375   1.185   4.801 -3.3399  0.9311  1.7198
   16MOL0     H 2154   7.380   1.026   4.719  0.1209  0.0119 -1.2078
   16MOL0     H 2155   7.138   1.010   4.823  1.9959 -2.8533  1.2405
   16MOL0     H 2156   7.284   1.007   4.937  3.3123  4.3129  1.5519
   16MOL0     H 2157   7.201   1.107   5.147 -1.0236 -1.7646 -0.6166
   16MOL0     H 2158   7.026   1.455   5.221  3.6049  1.2152 -1.4472
   16MOL0     H 2159   7.171   1.367   5.288 -0.0767 -0.3782 -0.7101
   16MOL0     H 2160   6.952   1.340   5.435  1.7344  1.7811 -0.6126
   16MOL0     H 2161   6.875   1.278   5.289  0.5679 -1.1422  0.6278
   16MOL0     H 2162   7.023   1.069   5.314 -1.0803 -1.0501  0.8291
   16MOL0     H 2163   7.115   1.160   5.443 -0.5710  2.5425  0.3274
   16MOL0     H 2164   6.825   1.083   5.473  1.0063 -0.1111  1.2125
   16MOL0     H 2165   6.965   0.996   5.534 -0.3374  0.0063  1.7874
   16MOL0     H 2166   7.082   0.975   5.672  1.6347  2.8310 -3.2172
   16MOL0     H 2167   7.396   0.985   5.863  0.7503  0.0412 -0.8990
   16MOL0     H 2168   7.304   0.886   5.756 -0.6133 -1.8380  1.6960
   16MOL0     H 2169   7.272   0.867   5.925 -1.2506  0.5122 -0.7624
   16MOL0     H 2170   7.560   1.046   6.123  0.8487 -1.7859  1.1609
   16MOL0     H 2171   7.658   0.950   6.329 -0.7735 -0.7972 -0.6950
   16MOL0     H 2172   7.720   0.859   6.511  3.0153 -0.9996  0.0396
   16MOL0     H 2173   7.796   1.018   6.500 -0.9233  1.6190 -1.3035
   16MOL0     H 2174   7.688   0.840   6.732 -0.3500 -0.8684  1.4300
   16MOL0     H 2175   7.859   0.863   6.700  0.4746  0.4002  2.8750
   16MOL0     H 2176   7.672   1.092   6.810 -0.5195 -1.4644  0.2615
   16MOL0     H 2177   7.845   1.101   6.778 -0.2324  1.1507  0.4208
   16MOL0     H 2178   7.889   0.926   6.933 -0.4094 -1.5262  1.1841
   16MOL0     H 2179   7.729   0.928   7.000  2.3336 -0.6375  1.7930
   16MOL0     H 2180   7.907   1.078   7.116 -2.3729 -3.4912  1.5117
   16MOL0     H 2181   7.894   1.194   6.984  2.3929 -2.8468 -0.7931
   16MOL0     H 2182   7.651   1.102   7.143 -2.8256  0.1682 -0.8509
   16MOL0     H 2183   7.634   1.198   6.998 -1.3473  3.3937  1.7355
   16MOL0     H 2184   7.747   1.384   7.092  3.2564  0.5079 -0.1852
   16MOL0     H 2185   7.825   1.294   7.220  3.3364 -0.2537 -3.9892
   16MOL0     H 2186   7.532   1.343   7.186  1.0929 -0.4237 -1.6865
   16MOL0     H 2187   7.635   1.448   7.283  3.3546 -0.7383 -0.2575
   16MOL0     H 2188   7.407   1.193   6.569 -3.7189 -3.9103 -0.3387
   16MOL0     H 2189   7.303   1.288   6.386  0.4591 -0.1702  2.2083
   16MOL0     H 2190   7.098   1.327   6.024  0.2522 -0.5078  0.7359
   16MOL0     H 2191   6.980   1.357   5.828 -3.0213 -1.4505 -1.2871
   16MOL0     H 2192   6.549   0.881   4.288 -0.5989  0.0379 -1.4629
   16MOL0     H 2193   6.308   0.831   4.252  4.6291  0.5719 -1.6731
   16MOL0     H 2194   5.846   0.736   4.529 -4.4187 -0.2366  0.6406
   16MOL0     H 2195   5.626   0.669   4.433  0.6693 -1.9675 -0.4313
   16MOL0     H 2196   5.389   0.753   4.051  1.3365  2.3402 -1.5296
   16MOL0     H 2197   5.541   0.781   3.995 -0.8055  1.6944  0.8459
   16MOL0     H 2198   5.491   0.506   4.077 -1.3087 -0.7932 -1.3303
   16MOL0     H 2199   5.599   0.567   3.950  1.3479 -0.2490  0.3661
   16MOL0     H 2200   5.293   0.571   3.940  0.4267  0.3411 -0.0858
   16MOL0     H 2201   5.404   0.639   3.810  0.8440  0.4175  0.5538
   16MOL0     H 2202   5.485   0.380   3.806 -0.0698 -1.9996 -2.4115
   16MOL0     H 2203   5.346   0.449   3.713 -2.2397  1.5292  1.6686
   16MOL0     H 2204   5.214   0.184   4.031  0.1787  3.1736  2.4243
   16MOL0     H 2205   5.763   0.782   4.044  1.3498 -1.0868 -0.1781
   16MOL0     H 2206   6.114   0.857   4.143  1.3352  1.3555 -3.0288
   16MOL0     H 2207   6.034   0.727   4.053 -2.2195  0.5346 -1.8051
   16MOL0     H 2208   5.985   0.896   4.025 -1.3329  0.6821  1.6502
   17MOL0     O 2209   8.883   3.235   9.905  0.4039  0.3948 -0.3341
   17MOL0     C 2210   8.981   3.228   9.971 -0.0120 -0.5338  0.5195
   17MOL0     O 2211   8.999   3.306  10.088 -0.4591  0.5146  0.4001
   17MOL0     C 2212   8.940   3.435  10.077 -0.2543  0.1999  0.6710
   17MOL0     C 2213   8.999   3.533   9.999 -0.5154  0.4917 -0.4500
   17MOL0     C 2214   8.931   3.644   9.958 -0.1531  0.6806  0.0806
   17MOL0     C 2215   8.813   3.675  10.035 -0.8603 -0.2730  0.3669
   17MOL0     O 2216   8.740   3.793  10.028 -1.6135 -0.5557 -0.2551
   17MOL0     C 2217   8.758   3.895   9.939 -0.5884  0.0662  0.2864
   17MOL0     C 2218   8.707   3.849   9.796  0.3295  0.5024 -0.2564
   17MOL0     C 2219   8.556   3.819   9.805  0.5033 -0.8016  0.4788
   17MOL0     C 2220   8.503   3.777   9.669  1.3415 -0.0557 -0.5321
   17MOL0     C 2221   8.348   3.780   9.679  0.2237  0.4939  0.6690
   17MOL0     C 2222   8.287   3.916   9.653  0.6816 -0.6133  0.9008
   17MOL0     C 2223   8.133   3.903   9.679 -0.3772  0.6796  0.2630
   17MOL0     C 2224   8.054   3.890   9.550 -0.3480  0.9544 -0.8588
   17MOL0     N 2225   7.915   3.835   9.567 -0.9570 -0.2822  0.1585
   17MOL0     C 2226   7.814   3.911   9.607 -0.2432 -0.2258  0.1395
   17MOL0     C 2227   7.707   3.831   9.580  0.9028 -0.7388 -0.2526
   17MOL0     C 2228   7.565   3.875   9.613 -0.2757 -0.2170  0.4811
   17MOL0     C 2229   7.535   3.920   9.757 -0.6662  0.1957 -0.8158
   17MOL0     C 2230   7.407   3.997   9.781 -0.0484  0.5755 -0.0906
   17MOL0     C 2231   7.397   4.003   9.935  0.6557 -0.0965  0.0215
   17MOL0     O 2232   7.496   4.096   9.981 -0.0208  0.0282 -0.5740
   17MOL0     C 2233   7.520   4.093  10.115 -0.2681  0.3959  0.7325
   17MOL0     C 2234   7.457   4.026  10.217 -0.1202 -0.0142 -0.0954
   17MOL0     C 2235   7.500   4.030  10.356 -0.5864 -0.4598  0.6660
   17MOL0     C 2236   7.405   3.977  10.449  0.0754  0.0913 -0.3079
   17MOL0     C 2237   7.623   4.103  10.388 -1.0405  0.1207  0.6003
   17MOL0     C 2238   7.696   4.076  10.513 -1.2156  0.3890 -0.1940
   17MOL0     O 2239   7.796   4.162  10.548  0.4105  0.8659  0.0414
   17MOL0     C 2240   7.882   4.142  10.655  0.7548  0.2010  0.1036
   17MOL0     C 2241   7.946   4.256  10.713  0.1413 -0.0949  0.4463
   17MOL0     C 2242   8.053   4.245  10.799  0.0176 -0.5319  0.1652
   17MOL0     C 2243   8.097   4.118  10.835  0.2207 -0.7274 -0.8371
   17MOL0     O 2244   8.200   4.113  10.925  0.2166  0.2435 -1.3559
   17MOL0     C 2245   8.245   3.982  10.991  0.1236 -0.3421 -0.0442
   17MOL0     C 2246   8.338   4.013  11.114 -0.1825  0.5777 -0.8338
   17MOL0     C 2247   8.480   4.037  11.060  0.2016 -0.1020 -0.1702
   17MOL0     C 2248   8.564   4.084  11.181 -0.1973  0.3125  0.8882
   17MOL0     C 2249   8.582   3.988  11.296 -0.2886  0.3351 -1.1733
   17MOL0     C 2250   8.648   3.853  11.251 -0.4916  0.0150  0.0973
   17MOL0     C 2251   8.803   3.861  11.238  0.2713 -0.5049 -0.8772
   17MOL0     C 2252   8.860   3.750  11.146 -0.2852 -0.1285 -0.0137
   17MOL0    Cl 2253   9.021   3.799  11.121 -0.0467 -0.5123  0.1707
   17MOL0     C 2254   8.040   4.010  10.776  0.4566  0.5008  0.6947
   17MOL0     C 2255   7.935   4.022  10.693 -0.5900  0.4764 -0.4061
   17MOL0     O 2256   7.656   3.986  10.587 -0.2873 -0.5510  0.2238
   17MOL0     C 2257   7.682   4.175  10.286  0.8616  0.4212 -0.1547
   17MOL0     C 2258   7.633   4.168  10.157  0.4924  0.4382 -0.7086
   17MOL0     N 2259   7.751   3.715   9.524 -0.4441  0.2223  0.8853
   17MOL0     N 2260   7.878   3.722   9.508 -0.1153  0.1173  0.4379
   17MOL0     C 2261   8.760   3.583  10.124  0.7423 -0.2531 -0.0238
   17MOL0     C 2262   8.824   3.465  10.140  0.4884 -1.1465  1.2634
   17MOL0     C 2263   9.081   3.132   9.936 -0.4841 -0.1746 -0.5769
   17MOL0     C 2264   9.136   3.070  10.054  1.0455 -0.5103  0.5956
   17MOL0     C 2265   9.225   2.974  10.039 -0.5382  0.3403  0.1839
   17MOL0     C 2266   9.273   2.941   9.908 -0.9169  0.3122  0.1212
   17MOL0     O 2267   9.368   2.853   9.877  0.1114 -0.0332  0.3510
   17MOL0     C 2268   9.453   2.785   9.977  0.4012 -0.1787 -0.2602
   17MOL0     C 2269   9.543   2.700   9.895  0.2945 -0.2345  1.0727
   17MOL0     C 2270   9.638   2.620   9.982 -0.3150 -0.5154 -0.3276
   17MOL0     C 2271   9.743   2.701  10.059  0.8778  0.0708 -0.4340
   17MOL0     C 2272   9.827   2.788   9.979 -0.3632  0.4661 -0.1747
   17MOL0     C 2273   9.886   2.863   9.896  0.3797 -0.1619 -0.2344
   17MOL0     C 2274   9.219   2.996   9.789  0.6462 -0.6818  0.7235
   17MOL0     C 2275   9.125   3.097   9.805  0.4403  0.0392 -0.7546
   17MOL0     C 2276   9.068   3.175   9.688 -0.3135  0.0137 -0.5652
   17MOL0     H 2277   9.100   3.516   9.962 -1.3337  0.1529 -2.6775
   17MOL0     H 2278   8.979   3.710   9.886  1.2535 -1.4482 -1.0444
   17MOL0     H 2279   8.862   3.928   9.943 -0.2955 -0.8849  0.7400
   17MOL0     H 2280   8.703   3.978   9.984  0.7987  0.2899  1.6488
   17MOL0     H 2281   8.740   3.924   9.724  2.4844 -1.3208 -1.3304
   17MOL0     H 2282   8.760   3.759   9.761  0.9653  1.7555 -2.7695
   17MOL0     H 2283   8.526   3.732   9.862 -2.8229 -0.2850 -0.3129
   17MOL0     H 2284   8.504   3.910   9.835  1.7628  0.9812 -2.2678
   17MOL0     H 2285   8.532   3.843   9.586 -0.5583  0.2226 -1.0039
   17MOL0     H 2286   8.537   3.677   9.639 -0.4813 -1.0515  0.5815
   17MOL0     H 2287   8.316   3.741   9.777  0.2993  1.8753  1.2639
   17MOL0     H 2288   8.317   3.706   9.604 -0.6507  1.6121 -0.1042
   17MOL0     H 2289   8.329   3.993   9.718 -0.6876  0.8083  0.1577
   17MOL0     H 2290   8.313   3.937   9.549 -0.6259  1.3179  0.9177
   17MOL0     H 2291   8.095   3.993   9.730  1.1369  1.0678  0.7610
   17MOL0     H 2292   8.118   3.813   9.739 -2.4800  1.2788  0.7437
   17MOL0     H 2293   8.055   3.992   9.511  0.9407  0.2322 -2.8362
   17MOL0     H 2294   8.122   3.828   9.490  1.9667  2.0917  0.4667
   17MOL0     H 2295   7.815   4.013   9.644 -2.3557 -0.2071  0.2211
   17MOL0     H 2296   7.493   3.794   9.593  0.2297 -1.5822  3.5056
   17MOL0     H 2297   7.540   3.961   9.551  0.2332 -0.4928 -0.1180
   17MOL0     H 2298   7.546   3.833   9.823  0.1490 -0.1018 -1.3295
   17MOL0     H 2299   7.614   3.986   9.793  0.4977 -0.6307 -1.7761
   17MOL0     H 2300   7.397   4.099   9.743 -0.6090  0.8790  0.8473
   17MOL0     H 2301   7.326   3.932   9.745  1.2045 -0.3796 -1.2999
   17MOL0     H 2302   7.298   4.039   9.963  0.8161 -0.0923  0.6091
   17MOL0     H 2303   7.410   3.905   9.983  2.3653 -2.0919 -3.9847
   17MOL0     H 2304   7.365   3.973  10.193 -0.3488  0.4887 -0.3536
   17MOL0     H 2305   7.407   4.022  10.549 -0.0359 -0.7200  0.0681
   17MOL0     H 2306   7.419   3.869  10.458 -1.3944 -0.2038 -1.2260
   17MOL0     H 2307   7.300   3.988  10.420 -0.2403 -1.4915  0.1365
   17MOL0     H 2308   7.912   4.355  10.684 -0.2869  0.0523  1.4307
   17MOL0     H 2309   8.099   4.338  10.828 -0.7211  0.0795 -0.5854
   17MOL0     H 2310   8.151   3.943  11.031  0.2140  1.4791  2.1176
   17MOL0     H 2311   8.303   3.909  10.933 -0.2614 -0.6328 -0.0699
   17MOL0     H 2312   8.292   4.096  11.169 -1.0122 -0.2215 -0.2903
   17MOL0     H 2313   8.351   3.934  11.188 -2.4647  0.7622 -0.1601
   17MOL0     H 2314   8.477   4.119  10.987  0.4749 -1.0451 -1.2642
   17MOL0     H 2315   8.523   3.954  11.004 -1.1015 -0.1641 -1.1647
   17MOL0     H 2316   8.507   4.167  11.225 -0.7328  0.3099  0.2205
   17MOL0     H 2317   8.662   4.116  11.146 -0.9101 -0.0523 -1.6057
   17MOL0     H 2318   8.636   4.048  11.371 -2.4267 -0.4001  1.0927
   17MOL0     H 2319   8.489   3.962  11.346  0.8954 -2.0044 -0.0230
   17MOL0     H 2320   8.614   3.831  11.149  2.1820  0.9872 -1.1007
   17MOL0     H 2321   8.637   3.774  11.326  1.2324  1.9840  2.5934
   17MOL0     H 2322   8.846   3.863  11.339 -2.4471  2.5676  0.3631
   17MOL0     H 2323   8.835   3.959  11.201  1.8034 -0.4756  0.4115
   17MOL0     H 2324   8.805   3.740  11.052  1.1470 -0.5225 -0.8399
   17MOL0     H 2325   8.848   3.653  11.196  1.9212 -0.2055  0.4780
   17MOL0     H 2326   8.085   3.914  10.800  0.2952 -0.2337 -1.6763
   17MOL0     H 2327   7.897   3.941  10.632 -1.3578  0.9391 -0.5583
   17MOL0     H 2328   7.764   4.242  10.310 -0.3130  1.6355  0.5631
   17MOL0     H 2329   7.690   4.234  10.092  2.0826  1.3789  1.5024
   17MOL0     H 2330   8.666   3.599  10.176  0.5571 -0.6882 -0.2220
   17MOL0     H 2331   8.776   3.396  10.209 -1.1461 -1.2168  0.1301
   17MOL0     H 2332   9.111   3.108  10.153  1.3509  0.1108  0.4328
   17MOL0     H 2333   9.271   2.946  10.133  0.7333  0.1272 -0.4791
   17MOL0     H 2334   9.498   2.859  10.044 -0.4969 -0.6353  0.8836
   17MOL0     H 2335   9.394   2.717  10.039 -0.9248 -0.3911 -1.6993
   17MOL0     H 2336   9.603   2.762   9.828  0.9806  0.9660  2.7317
   17MOL0     H 2337   9.480   2.636   9.832 -0.2958  3.0423 -1.9667
   17MOL0     H 2338   9.589   2.547  10.046 -1.2331 -0.8866 -1.4247
   17MOL0     H 2339   9.680   2.559   9.901 -2.2006 -0.9640 -1.0142
   17MOL0     H 2340   9.819   2.640  10.108  0.6195  1.6528  2.1554
   17MOL0     H 2341   9.690   2.760  10.135  1.2391  1.5610 -1.3073
   17MOL0     H 2342   9.940   2.912   9.817 -0.9109  1.2702 -0.2674
   17MOL0     H 2343   9.244   2.947   9.695  1.8264 -2.6413  2.0017
   17MOL0     H 2344   9.123   3.160   9.595  1.6110  1.0238  0.3589
   17MOL0     H 2345   8.959   3.177   9.681 -0.4617 -1.5425  0.5739
   17MOL0     H 2346   9.103   3.275   9.717  0.7743 -1.3836  3.8550
   18MOL0     O 2347   3.901   4.857   8.129  0.5069 -0.0314  0.5766
   18MOL0     C 2348   3.985   4.766   8.123  0.4012 -0.5907 -0.2841
   18MOL0     O 2349   4.053   4.735   8.012 -0.7939 -0.5191 -0.3323
   18MOL0     C 2350   4.039   4.806   7.896 -0.3311  0.0774 -0.4255
   18MOL0     C 2351   3.937   4.777   7.803  1.2067 -0.3662 -0.7101
   18MOL0     C 2352   3.927   4.841   7.679 -0.2178  0.2636  0.2074
   18MOL0     C 2353   4.043   4.919   7.637  0.5483 -0.7343  0.2283
   18MOL0     O 2354   4.045   4.976   7.516 -0.1220  1.0498  0.7430
   18MOL0     C 2355   3.922   5.026   7.450  0.0220  0.2643 -0.2683
   18MOL0     C 2356   3.874   5.146   7.529 -1.0900 -0.5967 -0.8475
   18MOL0     C 2357   3.738   5.196   7.489  0.3543  0.4571  0.3644
   18MOL0     C 2358   3.702   5.338   7.538  0.5791 -0.3445 -0.2658
   18MOL0     C 2359   3.775   5.458   7.482 -0.5165  0.2202 -0.0043
   18MOL0     C 2360   3.862   5.514   7.596  0.5774  0.1562 -0.1362
   18MOL0     C 2361   3.982   5.592   7.547  0.0721 -1.0238 -0.3697
   18MOL0     C 2362   3.934   5.723   7.476 -0.3719  0.1106 -0.6657
   18MOL0     N 2363   3.928   5.838   7.570 -0.2031 -0.1417  0.3247
   18MOL0     C 2364   4.001   5.955   7.562 -0.4058 -0.0399  0.4383
   18MOL0     C 2365   3.948   6.036   7.654 -0.2260 -0.5182  0.6717
   18MOL0     C 2366   4.014   6.174   7.682  0.4641 -0.2850  0.1476
   18MOL0     C 2367   3.911   6.289   7.711  0.4890  0.4113  0.6803
   18MOL0     C 2368   3.800   6.284   7.598  0.1559 -0.1378  0.0682
   18MOL0     C 2369   3.705   6.408   7.580  0.3592  0.3848 -0.3303
   18MOL0     O 2370   3.784   6.515   7.540  0.5843  0.7161  0.5926
   18MOL0     C 2371   3.731   6.633   7.551 -0.2164  0.3091  0.5076
   18MOL0     C 2372   3.623   6.670   7.621  0.3575  0.4223  0.5118
   18MOL0     C 2373   3.581   6.806   7.649  0.1412  0.6990  0.9068
   18MOL0     C 2374   3.462   6.841   7.744 -0.2545  0.1651 -0.0428
   18MOL0     C 2375   3.657   6.907   7.584  0.2778 -0.1086  0.4742
   18MOL0     C 2376   3.629   7.055   7.593 -0.3331 -0.4952  0.3616
   18MOL0     O 2377   3.693   7.130   7.502 -0.0759  0.3304 -0.1250
   18MOL0     C 2378   3.703   7.267   7.508  0.4198  0.4380 -0.0063
   18MOL0     C 2379   3.835   7.311   7.535  0.9520 -0.3001  0.1407
   18MOL0     C 2380   3.858   7.447   7.526 -0.9230 -0.2883  0.4416
   18MOL0     C 2381   3.761   7.537   7.481 -0.0114  0.6139  0.1913
   18MOL0     O 2382   3.793   7.665   7.462 -0.0374 -0.0331  0.2915
   18MOL0     C 2383   3.828   7.690   7.324  1.1779  0.2860 -0.5318
   18MOL0     C 2384   3.883   7.826   7.311  0.9830 -0.0441 -0.6294
   18MOL0     C 2385   4.020   7.836   7.363  0.4612  0.0496  0.5443
   18MOL0     C 2386   4.069   7.981   7.354 -0.4162 -0.5402  0.4244
   18MOL0     C 2387   4.212   8.001   7.395  0.0086 -0.5087  0.2422
   18MOL0     C 2388   4.253   8.150   7.421  0.0439 -0.5982  0.4484
   18MOL0     C 2389   4.234   8.243   7.296 -0.2076 -0.2087  0.0520
   18MOL0     C 2390   4.342   8.357   7.297 -0.4567 -1.4292  0.0804
   18MOL0    Cl 2391   4.300   8.470   7.432  0.0027  0.0356 -0.4345
   18MOL0     C 2392   3.635   7.489   7.454 -0.9645  0.0271  0.7187
   18MOL0     C 2393   3.599   7.357   7.474  0.5831 -0.0860  0.0705
   18MOL0     O 2394   3.582   7.103   7.694  0.2870  0.3729  0.1110
   18MOL0     C 2395   3.764   6.864   7.509 -0.5286 -0.4414 -0.1822
   18MOL0     C 2396   3.800   6.728   7.490  0.0802 -0.0228  0.0249
   18MOL0     N 2397   3.838   5.983   7.713  0.6248  0.3056 -0.2446
   18MOL0     N 2398   3.825   5.864   7.658 -0.2387 -0.3517 -0.9221
   18MOL0     C 2399   4.150   4.936   7.727  1.0439  0.8006 -1.0208
   18MOL0     C 2400   4.149   4.869   7.850  0.5968 -0.3393 -0.3594
   18MOL0     C 2401   4.025   4.689   8.242 -0.7065  0.4500  0.6392
   18MOL0     C 2402   4.150   4.633   8.254  0.6035 -0.3755 -0.8786
   18MOL0     C 2403   4.174   4.549   8.363 -0.5392  0.3577 -0.6550
   18MOL0     C 2404   4.085   4.531   8.470 -0.1389  0.2726 -0.2957
   18MOL0     O 2405   4.097   4.452   8.576 -0.3680  0.0715 -0.9777
   18MOL0     C 2406   4.194   4.349   8.578 -0.3689  0.0887 -0.4041
   18MOL0     C 2407   4.167   4.232   8.680  0.1489 -0.5791  0.2726
   18MOL0     C 2408   4.222   4.254   8.821 -0.6232 -0.3456  0.3174
   18MOL0     C 2409   4.172   4.159   8.922 -0.2772  0.2962  0.0252
   18MOL0     C 2410   4.225   4.029   8.901 -0.1022 -0.2111 -1.2241
   18MOL0     C 2411   4.264   3.920   8.896 -0.7783 -0.6545 -0.5235
   18MOL0     C 2412   3.978   4.606   8.478  0.6111  1.4061 -0.6496
   18MOL0     C 2413   3.934   4.675   8.356  0.0371 -0.2521  0.2050
   18MOL0     C 2414   3.785   4.710   8.348 -0.1008  0.8794 -0.0088
   18MOL0     H 2415   3.861   4.724   7.859  1.2382  0.9556  0.6666
   18MOL0     H 2416   3.848   4.820   7.608  0.0270  0.4011 -0.1093
   18MOL0     H 2417   3.843   4.951   7.449  1.2990 -1.1248 -1.0640
   18MOL0     H 2418   3.931   5.053   7.345 -0.2415  2.3498  0.1981
   18MOL0     H 2419   3.874   5.129   7.637 -1.0750  3.6696 -0.0208
   18MOL0     H 2420   3.943   5.226   7.504 -1.6016  0.0831 -0.1207
   18MOL0     H 2421   3.732   5.207   7.381  0.5095  1.1791  0.4215
   18MOL0     H 2422   3.663   5.125   7.523 -0.1717 -0.1320 -1.8654
   18MOL0     H 2423   3.600   5.350   7.500 -1.3353 -2.7426  3.4940
   18MOL0     H 2424   3.692   5.341   7.647 -1.8634 -1.6798 -0.3873
   18MOL0     H 2425   3.703   5.528   7.438  2.4693  3.8109  0.3677
   18MOL0     H 2426   3.845   5.424   7.406  1.0966  3.7123 -0.2972
   18MOL0     H 2427   3.799   5.556   7.675  0.6949 -0.8665  0.5194
   18MOL0     H 2428   3.902   5.428   7.650  2.1001  2.2947  2.4288
   18MOL0     H 2429   4.044   5.526   7.486 -1.4684 -1.9053 -1.0311
   18MOL0     H 2430   4.036   5.623   7.637 -0.7278  1.7735 -0.7713
   18MOL0     H 2431   4.003   5.747   7.395  0.4850  2.5115  0.6782
   18MOL0     H 2432   3.829   5.702   7.451 -0.4903 -0.0112 -0.0826
   18MOL0     H 2433   4.087   5.982   7.501 -0.8675  1.0026  0.2249
   18MOL0     H 2434   4.080   6.197   7.598 -1.0503  1.3279 -0.6748
   18MOL0     H 2435   4.087   6.166   7.763  1.2173 -0.8676 -0.5740
   18MOL0     H 2436   3.862   6.262   7.805  0.8031  1.0109  1.0236
   18MOL0     H 2437   3.964   6.383   7.728  1.1127  0.1251  0.3654
   18MOL0     H 2438   3.852   6.257   7.506  0.8730  0.4466  0.2942
   18MOL0     H 2439   3.733   6.200   7.619 -0.8273  0.0484 -2.0393
   18MOL0     H 2440   3.619   6.390   7.515  1.0388  0.5533 -1.2902
   18MOL0     H 2441   3.657   6.424   7.677 -2.0358  0.0300 -1.3909
   18MOL0     H 2442   3.543   6.597   7.624 -0.9820  1.7445 -1.0675
   18MOL0     H 2443   3.405   6.917   7.689 -1.5477 -1.1613 -0.6004
   18MOL0     H 2444   3.498   6.870   7.843 -0.1289 -2.1778  0.6630
   18MOL0     H 2445   3.393   6.757   7.757 -2.0323  1.9921  3.8260
   18MOL0     H 2446   3.919   7.245   7.553  1.6398  0.2050 -1.0425
   18MOL0     H 2447   3.960   7.484   7.537 -1.6110  3.1069 -2.8166
   18MOL0     H 2448   3.882   7.603   7.285  2.1837  0.7869 -0.2807
   18MOL0     H 2449   3.736   7.698   7.265  0.5918  1.5683  0.4908
   18MOL0     H 2450   3.893   7.849   7.204 -1.1251 -0.5128 -0.9595
   18MOL0     H 2451   3.817   7.893   7.366  0.2308  0.3900 -2.0169
   18MOL0     H 2452   4.095   7.780   7.306  1.6563  1.5007  0.6464
   18MOL0     H 2453   4.022   7.796   7.465 -2.2539 -3.5346 -0.5797
   18MOL0     H 2454   4.014   8.051   7.418  0.3653  1.1329 -0.6467
   18MOL0     H 2455   4.055   8.021   7.253  1.8260 -0.3237  0.1555
   18MOL0     H 2456   4.223   7.955   7.493 -2.2479 -0.5240  0.5477
   18MOL0     H 2457   4.286   7.978   7.318  0.9470  0.1323  0.9286
   18MOL0     H 2458   4.352   8.151   7.466  1.7007 -3.4305 -2.6550
   18MOL0     H 2459   4.182   8.188   7.495  1.4429 -0.8210  1.9301
   18MOL0     H 2460   4.132   8.278   7.280 -0.3100  0.5212  1.9955
   18MOL0     H 2461   4.254   8.176   7.213  1.4548 -0.3414  0.5204
   18MOL0     H 2462   4.337   8.402   7.198  2.7127 -0.9306  0.0308
   18MOL0     H 2463   4.449   8.332   7.305 -0.2981 -0.3232  3.0270
   18MOL0     H 2464   3.558   7.559   7.423 -0.9144  0.1602  0.8929
   18MOL0     H 2465   3.505   7.314   7.439 -0.5142  1.8500  0.5021
   18MOL0     H 2466   3.830   6.940   7.468 -2.8615  1.0532 -1.4364
   18MOL0     H 2467   3.895   6.704   7.442  0.9553 -0.4416  1.8900
   18MOL0     H 2468   4.236   4.996   7.696 -2.2046  5.6365 -1.8807
   18MOL0     H 2469   4.225   4.874   7.927  1.6683 -0.1665 -1.3940
   18MOL0     H 2470   4.229   4.652   8.182  1.9301  0.5170  0.7327
   18MOL0     H 2471   4.264   4.489   8.353  0.1326  1.4632 -1.4830
   18MOL0     H 2472   4.195   4.302   8.479 -2.8988  0.1396 -0.5145
   18MOL0     H 2473   4.293   4.392   8.596 -0.8172  1.1996 -0.5216
   18MOL0     H 2474   4.207   4.136   8.646  1.0508 -0.6846  1.5496
   18MOL0     H 2475   4.058   4.230   8.679  0.0730  0.7413 -1.9327
   18MOL0     H 2476   4.330   4.246   8.803 -1.0855  0.6994 -4.1729
   18MOL0     H 2477   4.195   4.351   8.864 -0.9613  0.0809 -0.8096
   18MOL0     H 2478   4.063   4.163   8.925 -0.2923 -0.1933  2.9594
   18MOL0     H 2479   4.211   4.197   9.017 -0.0075  2.8381 -1.0199
   18MOL0     H 2480   4.299   3.819   8.894 -1.4574 -0.8912 -0.8760
   18MOL0     H 2481   3.912   4.573   8.557  0.0668 -1.2483 -2.1137
   18MOL0     H 2482   3.720   4.666   8.424 -0.9271  2.2463  0.1184
   18MOL0     H 2483   3.775   4.816   8.374  1.0717  1.6642 -2.4403
   18MOL0     H 2484   3.744   4.697   8.247 -1.2239  1.1888  0.3974
   19MOL0     O 2485   9.819   3.789   9.032 -0.1480  0.3955 -0.5065
   19MOL0     C 2486   9.798   3.674   8.977  0.1377  0.4324  0.1688
   19MOL0     O 2487   9.808   3.654   8.842 -0.6207  0.6785  0.4066
   19MOL0     C 2488   9.860   3.743   8.752  0.0497 -0.8676  0.0575
   19MOL0     C 2489   9.949   3.857   8.768 -0.8281  0.3752  0.6902
   19MOL0     C 2490   9.992   3.928   8.655 -0.2771 -0.7834 -0.2344
   19MOL0     C 2491   9.939   3.905   8.529 -0.0354 -0.2595  0.5093
   19MOL0     O 2492   9.980   3.984   8.418  0.1572 -0.3644 -0.0420
   19MOL0     C 2493   9.979   3.908   8.291 -0.1905 -0.7453  0.0399
   19MOL0     C 2494  10.071   3.978   8.192 -0.6298  0.2049  0.1848
   19MOL0     C 2495  10.211   3.980   8.256 -0.1335  0.2861  0.1127
   19MOL0     C 2496  10.327   3.944   8.155  0.8454 -0.7965  0.6621
   19MOL0     C 2497  10.457   3.942   8.233 -0.9154  0.5904  0.1390
   19MOL0     C 2498  10.567   3.885   8.134  0.1181  0.5956 -0.2478
   19MOL0     C 2499  10.716   3.910   8.172  0.0534  0.1062 -0.5367
   19MOL0     C 2500  10.799   3.871   8.042  0.1530  1.1658  0.3398
   19MOL0     N 2501  10.940   3.871   8.060 -0.2524 -0.8729 -0.5841
   19MOL0     C 2502  11.003   3.972   8.118 -0.5753  0.4618 -0.6259
   19MOL0     C 2503  11.131   3.929   8.133  0.6809  0.0287  0.6161
   19MOL0     C 2504  11.234   4.007   8.205 -0.1504 -0.6370 -0.2779
   19MOL0     C 2505  11.186   4.020   8.356 -0.0972 -0.5728 -1.3117
   19MOL0     C 2506  11.314   4.019   8.453  0.1039 -0.2533 -0.2761
   19MOL0     C 2507  11.389   4.151   8.469 -0.8144  0.6902  0.0807
   19MOL0     O 2508  11.481   4.144   8.577 -0.2186  0.3751  0.0104
   19MOL0     C 2509  11.610   4.111   8.530 -0.1667  0.2352  0.5498
   19MOL0     C 2510  11.702   4.210   8.496 -0.1867 -0.4613  0.9049
   19MOL0     C 2511  11.820   4.166   8.432 -0.2633  0.8268  0.0388
   19MOL0     C 2512  11.920   4.272   8.389 -0.1768 -0.2110  0.9259
   19MOL0     C 2513  11.856   4.027   8.421  0.4481 -0.4456 -0.1720
   19MOL0     C 2514  11.979   3.980   8.366 -0.1718 -0.2219 -0.0685
   19MOL0     O 2515  12.033   3.870   8.427  0.3422 -0.4213 -0.8605
   19MOL0     C 2516  12.154   3.828   8.376 -0.5299  0.2098 -0.4477
   19MOL0     C 2517  12.278   3.862   8.448  0.4190 -0.0731 -0.4226
   19MOL0     C 2518  12.398   3.815   8.403 -0.1584 -0.3560  0.0201
   19MOL0     C 2519  12.408   3.728   8.293 -0.4755 -0.1723  0.4087
   19MOL0     O 2520  12.535   3.684   8.255  0.0582 -0.2125  0.6234
   19MOL0     C 2521  12.625   3.786   8.210  0.1039 -0.9863  0.0907
   19MOL0     C 2522  12.612   3.825   8.061 -0.1759  0.4747 -0.5180
   19MOL0     C 2523  12.740   3.880   7.997  0.1052 -0.0137  0.2047
   19MOL0     C 2524  12.717   3.924   7.850  0.0912  0.6718  0.8348
   19MOL0     C 2525  12.848   3.957   7.781 -0.1883 -0.2293 -0.3042
   19MOL0     C 2526  12.897   4.092   7.824 -0.5436 -0.4670  0.3223
   19MOL0     C 2527  13.017   4.144   7.755  0.1098 -0.5936  0.4449
   19MOL0     C 2528  13.050   4.291   7.790  0.6856 -0.2568  0.1559
   19MOL0    Cl 2529  12.924   4.403   7.748 -0.1349 -0.2539  0.0910
   19MOL0     C 2530  12.289   3.700   8.221 -0.2453 -0.0788  0.3333
   19MOL0     C 2531  12.166   3.740   8.268  0.3521 -0.5873 -0.2755
   19MOL0     O 2532  12.027   4.040   8.273 -0.0802 -0.6529 -0.0106
   19MOL0     C 2533  11.764   3.935   8.473 -0.4809 -0.3416 -0.0164
   19MOL0     C 2534  11.646   3.972   8.515  1.0114 -0.1295 -0.0483
   19MOL0     N 2535  11.148   3.797   8.088 -0.1685  0.6442  0.5553
   19MOL0     N 2536  11.025   3.767   8.041 -0.4213  0.0401 -0.4118
   19MOL0     C 2537   9.856   3.790   8.514  1.2231 -1.0700  0.4405
   19MOL0     C 2538   9.815   3.716   8.621 -0.5894  0.5475 -0.3306
   19MOL0     C 2539   9.765   3.563   9.072 -0.8884  0.3110  0.9515
   19MOL0     C 2540   9.724   3.443   9.003 -0.0394 -0.7318 -0.3142
   19MOL0     C 2541   9.677   3.336   9.067  0.5777  0.1100  0.1402
   19MOL0     C 2542   9.671   3.342   9.209  0.3417  0.3078 -0.1744
   19MOL0     O 2543   9.620   3.229   9.282 -0.6213 -0.1561  0.5067
   19MOL0     C 2544   9.491   3.262   9.351 -0.4559  1.0189  0.5051
   19MOL0     C 2545   9.383   3.299   9.254 -0.3183  0.5526 -0.6150
   19MOL0     C 2546   9.252   3.288   9.327  0.4757  0.1862 -0.0507
   19MOL0     C 2547   9.130   3.352   9.245 -0.8448 -0.1944 -0.2729
   19MOL0     C 2548   9.032   3.256   9.193 -0.3482 -0.7832 -0.0413
   19MOL0     C 2549   8.943   3.170   9.160  0.1488  0.1107  0.1747
   19MOL0     C 2550   9.728   3.448   9.278 -0.6036  0.0001 -0.8155
   19MOL0     C 2551   9.769   3.565   9.211  0.4346 -0.6121 -0.2737
   19MOL0     C 2552   9.801   3.693   9.294 -0.5390 -0.0029  0.0263
   19MOL0     H 2553   9.984   3.881   8.868 -0.9457  1.5936  0.4597
   19MOL0     H 2554  10.076   3.997   8.649  1.2739 -2.6443 -0.9349
   19MOL0     H 2555   9.875   3.906   8.258  0.2237  0.1514 -1.3938
   19MOL0     H 2556  10.007   3.802   8.291 -1.0494 -0.9828  0.8325
   19MOL0     H 2557  10.066   3.925   8.096  3.6829 -1.8688  0.8531
   19MOL0     H 2558  10.031   4.079   8.180 -2.2228 -0.4677 -0.4272
   19MOL0     H 2559  10.220   4.082   8.296 -2.2036 -0.7226  3.5707
   19MOL0     H 2560  10.209   3.922   8.348 -1.7472 -0.3116 -0.2742
   19MOL0     H 2561  10.319   3.838   8.130  0.4403 -0.6983  0.3648
   19MOL0     H 2562  10.335   4.008   8.066  4.2395 -1.1696  0.5863
   19MOL0     H 2563  10.452   3.872   8.317  2.0098 -3.5807 -2.7256
   19MOL0     H 2564  10.484   4.039   8.274 -0.9436  0.8003 -0.3304
   19MOL0     H 2565  10.553   3.777   8.134  0.2560  0.4657  3.4635
   19MOL0     H 2566  10.556   3.922   8.031 -0.3862 -0.7101 -0.6776
   19MOL0     H 2567  10.739   3.844   8.256  0.8002 -1.2058 -1.7280
   19MOL0     H 2568  10.733   4.014   8.202  1.4446  0.2076 -1.6091
   19MOL0     H 2569  10.758   3.777   8.005 -0.1712  1.2638  0.4531
   19MOL0     H 2570  10.797   3.938   7.956  0.4902 -0.3725 -0.9196
   19MOL0     H 2571  10.971   4.074   8.136  0.1958  0.8334 -1.2978
   19MOL0     H 2572  11.236   4.107   8.162  2.6307 -1.7399 -3.0834
   19MOL0     H 2573  11.332   3.960   8.195  0.7006  1.3635 -2.1489
   19MOL0     H 2574  11.115   4.103   8.365 -1.6869 -1.9166 -0.7684
   19MOL0     H 2575  11.128   3.934   8.391 -2.6946  1.8263  0.8619
   19MOL0     H 2576  11.272   3.991   8.550  0.7980 -0.4546 -0.0310
   19MOL0     H 2577  11.383   3.939   8.426  0.0757 -1.5388  2.9577
   19MOL0     H 2578  11.449   4.183   8.383  2.0989 -0.9044  1.3792
   19MOL0     H 2579  11.311   4.225   8.486  0.2845  2.4136 -1.8509
   19MOL0     H 2580  11.683   4.313   8.523 -0.8691 -0.2773 -0.1888
   19MOL0     H 2581  12.018   4.264   8.438 -0.2981  1.4362  1.5196
   19MOL0     H 2582  11.879   4.370   8.415  0.7646 -0.0556  1.9474
   19MOL0     H 2583  11.927   4.257   8.281 -5.0419  0.1350  0.3566
   19MOL0     H 2584  12.275   3.931   8.531  0.8074  0.3315 -0.7384
   19MOL0     H 2585  12.486   3.845   8.460 -1.2165  0.5485  1.2596
   19MOL0     H 2586  12.624   3.878   8.269 -1.8328 -0.8939 -0.0128
   19MOL0     H 2587  12.725   3.750   8.237  0.4253  1.1726  2.0720
   19MOL0     H 2588  12.566   3.742   8.007  1.2349  0.2093 -1.3491
   19MOL0     H 2589  12.544   3.911   8.059 -0.8525  0.0463  1.6620
   19MOL0     H 2590  12.820   3.805   8.000  1.3131  1.2693  1.1981
   19MOL0     H 2591  12.761   3.977   8.042  1.0776  1.1351 -2.5109
   19MOL0     H 2592  12.654   4.013   7.834 -0.8405 -0.3523 -1.7414
   19MOL0     H 2593  12.670   3.841   7.796  1.0121  0.6816 -0.0223
   19MOL0     H 2594  12.925   3.881   7.796  0.0004  0.1495  0.6986
   19MOL0     H 2595  12.833   3.983   7.675  2.2896 -1.3369 -1.0062
   19MOL0     H 2596  12.911   4.103   7.932 -0.5189  1.2269  0.1806
   19MOL0     H 2597  12.817   4.164   7.803 -0.1724  0.8998  3.1331
   19MOL0     H 2598  12.993   4.141   7.649 -0.3831  0.3605  0.5165
   19MOL0     H 2599  13.105   4.083   7.775  1.3213  1.2527  0.9472
   19MOL0     H 2600  13.138   4.334   7.742  0.4828  1.5330  1.2978
   19MOL0     H 2601  13.059   4.305   7.898 -2.6969  2.1860  0.2631
   19MOL0     H 2602  12.293   3.651   8.124  2.2420  3.5979 -1.6541
   19MOL0     H 2603  12.076   3.698   8.225  0.8303 -2.4465  0.4536
   19MOL0     H 2604  11.775   3.828   8.474 -1.5585 -0.4962  2.2004
   19MOL0     H 2605  11.572   3.897   8.542  1.6127 -0.9511 -0.6551
   19MOL0     H 2606   9.819   3.755   8.419 -0.0887  4.4976 -1.4766
   19MOL0     H 2607   9.749   3.630   8.608 -4.6890  3.2536  0.4094
   19MOL0     H 2608   9.714   3.447   8.895 -1.0625 -2.0363 -0.3069
   19MOL0     H 2609   9.642   3.247   9.016 -0.0181  1.9395 -2.9165
   19MOL0     H 2610   9.460   3.170   9.401  1.7910  0.5516  1.1702
   19MOL0     H 2611   9.494   3.332   9.435 -0.5939 -0.0757  1.4466
   19MOL0     H 2612   9.377   3.233   9.167 -0.6605 -1.0481  0.5854
   19MOL0     H 2613   9.404   3.401   9.221  2.4586 -0.2051 -1.4225
   19MOL0     H 2614   9.231   3.182   9.347 -2.1851  0.5433 -0.5735
   19MOL0     H 2615   9.265   3.335   9.425  0.3288  0.0729  0.0233
   19MOL0     H 2616   9.168   3.402   9.156 -3.9536 -0.0165 -1.6347
   19MOL0     H 2617   9.078   3.426   9.307  3.1444  4.4273 -1.8326
   19MOL0     H 2618   8.867   3.099   9.136 -1.4646  1.4360  1.1002
   19MOL0     H 2619   9.720   3.442   9.387 -0.8499 -0.5847 -0.8623
   19MOL0     H 2620   9.817   3.664   9.398  0.8977 -0.6205 -0.3417
   19MOL0     H 2621   9.891   3.745   9.260  1.5736 -3.7325 -0.6418
   19MOL0     H 2622   9.718   3.763   9.297  0.8810  1.7584  3.5591
   20MOL0     O 2623   9.127   5.899   1.314  0.6870  0.5335 -0.4600
   20MOL0     C 2624   9.129   6.009   1.367  0.2273 -1.1142 -0.2166
   20MOL0     O 2625   9.071   6.038   1.489 -1.1667  0.0053 -0.3017
   20MOL0     C 2626   9.030   5.928   1.565  0.6766 -0.0493  0.1502
   20MOL0     C 2627   9.108   5.863   1.658 -0.7583 -0.0776 -0.2723
   20MOL0     C 2628   9.060   5.750   1.728  0.3523  0.1463 -0.2635
   20MOL0     C 2629   8.941   5.693   1.699  0.0239 -0.5549 -0.1065
   20MOL0     O 2630   8.915   5.572   1.763  0.1274 -0.7967  0.2788
   20MOL0     C 2631   8.776   5.533   1.746  0.0401 -0.2137  0.3044
   20MOL0     C 2632   8.738   5.396   1.805 -0.0179  0.2679 -0.1033
   20MOL0     C 2633   8.752   5.283   1.710  0.0621  0.6333 -0.2048
   20MOL0     C 2634   8.895   5.255   1.677  0.1064  1.2187  0.5101
   20MOL0     C 2635   8.911   5.115   1.628 -0.1642 -0.3618  0.4837
   20MOL0     C 2636   8.908   5.007   1.733  0.3950  0.5850  0.1474
   20MOL0     C 2637   8.940   4.869   1.669  1.1717 -0.5594  0.6830
   20MOL0     C 2638   8.962   4.747   1.759 -0.5420  0.9430 -0.3146
   20MOL0     N 2639   9.101   4.750   1.818  0.0895  0.9750 -1.2381
   20MOL0     C 2640   9.193   4.649   1.810  0.6352  0.9209  0.0584
   20MOL0     C 2641   9.301   4.687   1.889  0.3318  0.6337  0.5975
   20MOL0     C 2642   9.426   4.609   1.928 -0.4814  0.2628  0.0453
   20MOL0     C 2643   9.544   4.706   1.936  0.1298  0.2552 -0.0970
   20MOL0     C 2644   9.668   4.633   2.000 -0.0295  0.6757 -0.6769
   20MOL0     C 2645   9.781   4.731   2.014  0.3671  0.6012  0.0292
   20MOL0     O 2646   9.901   4.656   2.031  0.2965  0.8798 -0.0931
   20MOL0     C 2647  10.021   4.722   2.030 -0.2187  0.0448  0.7286
   20MOL0     C 2648  10.047   4.856   1.983 -0.0833  0.3675  0.7197
   20MOL0     C 2649  10.176   4.913   1.962 -0.4767 -0.3284 -0.2445
   20MOL0     C 2650  10.197   5.034   1.878  1.2598  0.0819 -0.2789
   20MOL0     C 2651  10.283   4.844   2.026 -0.6375 -0.4507 -0.0927
   20MOL0     C 2652  10.426   4.901   2.037 -0.3887  0.3239  0.7421
   20MOL0     O 2653  10.528   4.819   2.081  0.3361  0.0039  0.5076
   20MOL0     C 2654  10.661   4.862   2.092 -0.1636  0.4320 -0.1366
   20MOL0     C 2655  10.764   4.768   2.064 -0.3524 -0.1661  1.4037
   20MOL0     C 2656  10.895   4.807   2.094  0.5062  0.0259  0.0735
   20MOL0     C 2657  10.925   4.931   2.161  0.0907 -0.3915  0.6091
   20MOL0     O 2658  11.058   4.957   2.181 -0.4817 -0.1726 -0.0967
   20MOL0     C 2659  11.104   5.089   2.192  0.5067  0.3452 -0.5053
   20MOL0     C 2660  11.255   5.099   2.225  0.8532 -0.2246  0.0513
   20MOL0     C 2661  11.325   5.226   2.187 -0.0209 -0.1741 -1.2180
   20MOL0     C 2662  11.445   5.252   2.272 -1.0645  0.2904  0.7587
   20MOL0     C 2663  11.528   5.385   2.269  0.2500 -0.0737 -0.1065
   20MOL0     C 2664  11.579   5.422   2.128 -0.8704 -0.1585 -0.3231
   20MOL0     C 2665  11.473   5.494   2.043 -0.5044  0.1527 -0.5585
   20MOL0     C 2666  11.529   5.534   1.903 -0.0117  0.0567 -0.1630
   20MOL0    Cl 2667  11.598   5.389   1.825 -0.3145  0.3297 -0.2770
   20MOL0     C 2668  10.824   5.018   2.190  0.5172  1.1094  0.5274
   20MOL0     C 2669  10.691   4.983   2.160  0.2787  0.2313  0.3069
   20MOL0     O 2670  10.445   5.014   2.007 -0.0969 -0.6731  0.2463
   20MOL0     C 2671  10.264   4.710   2.067 -0.3176  0.3621 -0.4086
   20MOL0     C 2672  10.134   4.650   2.067 -0.3926  0.6600 -0.2193
   20MOL0     N 2673   9.265   4.810   1.942 -0.1290 -0.2555  0.1052
   20MOL0     N 2674   9.150   4.842   1.910  0.4900 -0.2022 -0.0666
   20MOL0     C 2675   8.856   5.760   1.613  0.4193  0.5611  0.0722
   20MOL0     C 2676   8.900   5.877   1.545 -0.2648  0.5012 -0.5055
   20MOL0     C 2677   9.182   6.130   1.287  0.0996  0.0376 -0.7580
   20MOL0     C 2678   9.168   6.252   1.349 -0.1677  0.5482 -0.1045
   20MOL0     C 2679   9.202   6.365   1.289 -0.7149 -0.3107  0.2832
   20MOL0     C 2680   9.251   6.375   1.162  0.4507 -1.0806  0.2476
   20MOL0     O 2681   9.259   6.499   1.096  0.4051  0.1697  0.3657
   20MOL0     C 2682   9.391   6.559   1.121  0.7091  0.0514 -0.9121
   20MOL0     C 2683   9.409   6.690   1.042  0.5055 -0.6267  0.1727
   20MOL0     C 2684   9.413   6.648   0.894 -0.2447 -1.2765  0.4788
   20MOL0     C 2685   9.440   6.772   0.805  0.2759 -0.0272 -0.5139
   20MOL0     C 2686   9.570   6.834   0.841  0.0090 -0.0458 -0.1923
   20MOL0     C 2687   9.675   6.886   0.883  0.1717  0.3229  0.1361
   20MOL0     C 2688   9.280   6.255   1.101  0.5198 -0.0715  0.7861
   20MOL0     C 2689   9.248   6.127   1.161  0.2468  0.8262  0.0863
   20MOL0     C 2690   9.277   6.006   1.073 -0.4759 -0.2834 -0.4334
   20MOL0     H 2691   9.206   5.904   1.678 -1.8706  0.3144  6.2969
   20MOL0     H 2692   9.128   5.699   1.796  0.0517 -1.6612 -1.2417
   20MOL0     H 2693   8.753   5.513   1.641 -3.0046 -3.5853  1.4023
   20MOL0     H 2694   8.717   5.605   1.804  2.8295  3.0190 -0.5488
   20MOL0     H 2695   8.799   5.382   1.895  1.4444 -0.9231 -1.2187
   20MOL0     H 2696   8.637   5.399   1.846  0.3248 -1.0618  0.9076
   20MOL0     H 2697   8.695   5.205   1.760  0.6023  0.6868  0.5106
   20MOL0     H 2698   8.705   5.296   1.612  0.1637  0.3829 -0.2872
   20MOL0     H 2699   8.920   5.323   1.594 -2.6337  0.4463 -1.0840
   20MOL0     H 2700   8.959   5.275   1.763 -0.4947  1.3753  0.9280
   20MOL0     H 2701   9.008   5.121   1.577 -0.5218  0.2295 -0.1401
   20MOL0     H 2702   8.830   5.090   1.559 -0.6624 -1.9355  1.5819
   20MOL0     H 2703   8.987   5.032   1.804  2.0994 -3.4578 -0.0562
   20MOL0     H 2704   8.813   5.009   1.787  0.9266  1.2663  1.0729
   20MOL0     H 2705   9.035   4.891   1.618  0.4679 -0.6382 -0.7131
   20MOL0     H 2706   8.858   4.846   1.601  0.3067 -0.1252  1.5620
   20MOL0     H 2707   8.883   4.739   1.834  0.6854  0.2409  0.9460
   20MOL0     H 2708   8.955   4.649   1.711  0.3664  0.0247  1.3615
   20MOL0     H 2709   9.191   4.554   1.757 -0.3386  1.5865 -1.1649
   20MOL0     H 2710   9.451   4.533   1.853  0.6731  0.1782  0.4892
   20MOL0     H 2711   9.396   4.559   2.020 -1.4260  1.7792  0.5906
   20MOL0     H 2712   9.578   4.746   1.840 -2.0642  1.6430 -0.3507
   20MOL0     H 2713   9.520   4.791   2.000  2.6735  0.8390  0.1801
   20MOL0     H 2714   9.640   4.592   2.098 -2.9289  3.3801 -0.1876
   20MOL0     H 2715   9.687   4.544   1.940 -0.0701 -1.7477  2.6320
   20MOL0     H 2716   9.794   4.794   1.925 -2.1971 -0.6269 -1.3314
   20MOL0     H 2717   9.761   4.800   2.097 -0.0518  0.3691  0.1232
   20MOL0     H 2718   9.965   4.908   1.935 -0.5540 -2.4982 -1.9382
   20MOL0     H 2719  10.133   5.026   1.789  2.6279  1.2722 -1.4079
   20MOL0     H 2720  10.296   5.046   1.834  1.8811 -2.7222  0.1629
   20MOL0     H 2721  10.164   5.124   1.931  1.0866 -0.2945  0.2561
   20MOL0     H 2722  10.741   4.678   2.008  5.7961 -0.0050 -2.3312
   20MOL0     H 2723  10.977   4.747   2.056 -1.5194 -0.9903 -3.0344
   20MOL0     H 2724  11.095   5.141   2.096 -2.8136  2.7846  0.9460
   20MOL0     H 2725  11.055   5.139   2.275 -0.0269  1.1120 -1.2580
   20MOL0     H 2726  11.273   5.074   2.330 -1.3855  0.3603  0.6290
   20MOL0     H 2727  11.312   5.027   2.165  3.1083 -0.2312  2.0444
   20MOL0     H 2728  11.261   5.315   2.198  1.3310  0.7173 -0.2052
   20MOL0     H 2729  11.352   5.205   2.083 -0.4278 -2.8334 -0.8569
   20MOL0     H 2730  11.521   5.182   2.234 -1.4985  0.5558 -0.6773
   20MOL0     H 2731  11.419   5.229   2.375  0.3327 -1.2510  0.8162
   20MOL0     H 2732  11.482   5.473   2.316  1.2620 -0.0522  0.9040
   20MOL0     H 2733  11.613   5.370   2.336  4.1716 -1.3982 -4.8390
   20MOL0     H 2734  11.604   5.332   2.071 -2.3206 -1.9842  1.7546
   20MOL0     H 2735  11.671   5.480   2.140 -2.9221  3.0775  1.1814
   20MOL0     H 2736  11.443   5.581   2.103  1.2961  1.3314 -1.2639
   20MOL0     H 2737  11.387   5.431   2.022 -1.1363  0.2514  1.4837
   20MOL0     H 2738  11.607   5.610   1.913 -2.4100  2.5541  0.6369
   20MOL0     H 2739  11.446   5.569   1.842  0.6724 -0.3857 -1.3867
   20MOL0     H 2740  10.840   5.114   2.238  0.0109  1.3082  0.3113
   20MOL0     H 2741  10.621   5.057   2.198  0.8779 -0.7131  3.5890
   20MOL0     H 2742  10.347   4.649   2.100  0.1004  0.8261 -0.5809
   20MOL0     H 2743  10.117   4.546   2.095  2.4156 -0.3192 -1.6978
   20MOL0     H 2744   8.759   5.719   1.586  1.3400 -1.2370 -0.6854
   20MOL0     H 2745   8.840   5.919   1.465  1.1340 -0.9425 -2.4220
   20MOL0     H 2746   9.118   6.257   1.445  2.8984 -0.5391  1.7028
   20MOL0     H 2747   9.189   6.458   1.345  0.1633 -0.1230  0.1990
   20MOL0     H 2748   9.395   6.585   1.227  2.0502 -2.0235 -0.3874
   20MOL0     H 2749   9.475   6.491   1.103  2.6301  2.5943 -2.2652
   20MOL0     H 2750   9.508   6.732   1.061  0.5178 -0.0961 -0.9770
   20MOL0     H 2751   9.323   6.753   1.068 -0.1946 -0.6673 -1.8209
   20MOL0     H 2752   9.486   6.567   0.885 -0.6200 -1.6560  0.8233
   20MOL0     H 2753   9.325   6.597   0.854 -1.1518  0.6464 -0.1037
   20MOL0     H 2754   9.354   6.840   0.801  0.1470 -0.0916  0.7455
   20MOL0     H 2755   9.450   6.747   0.699 -0.1285  0.3389 -0.6439
   20MOL0     H 2756   9.770   6.932   0.903  0.0803  0.3465  0.5074
   20MOL0     H 2757   9.312   6.259   0.997  1.0875 -0.5980  0.9336
   20MOL0     H 2758   9.179   5.961   1.055 -0.5462 -1.0585  1.5513
   20MOL0     H 2759   9.326   6.031   0.979  0.6992 -2.2100 -0.3863
   20MOL0     H 2760   9.351   5.941   1.120  1.1757  1.2244 -0.8260
   21MOL0     O 2761   5.810  10.742   0.727  0.4084  0.5817 -1.0813
   21MOL0     C 2762   5.741  10.649   0.686 -0.5149 -0.2328  0.9376
   21MOL0     O 2763   5.602  10.653   0.687 -0.1171  0.0143  0.5032
   21MOL0     C 2764   5.552  10.780   0.687  0.8266 -0.6344  1.5894
   21MOL0     C 2765   5.465  10.812   0.796  0.3424  0.1872  0.0159
   21MOL0     C 2766   5.393  10.929   0.796 -0.3072  0.1210 -0.4353
   21MOL0     C 2767   5.410  11.019   0.691  0.2504  1.1963  0.7072
   21MOL0     O 2768   5.336  11.130   0.677 -0.3667  0.6235 -0.6013
   21MOL0     C 2769   5.401  11.241   0.741  0.0653  0.6164 -0.2232
   21MOL0     C 2770   5.313  11.357   0.718 -0.3794 -0.2986  0.3516
   21MOL0     C 2771   5.296  11.401   0.568  0.1452 -0.3516  0.6917
   21MOL0     C 2772   5.259  11.548   0.560 -0.7035 -0.3465 -0.4594
   21MOL0     C 2773   5.285  11.608   0.426  0.1020 -0.7700 -0.4827
   21MOL0     C 2774   5.199  11.559   0.304  0.1959  0.5434 -0.6480
   21MOL0     C 2775   5.243  11.637   0.176 -1.4407 -0.2005  0.3841
   21MOL0     C 2776   5.205  11.576   0.039 -0.4331 -0.7685 -0.1131
   21MOL0     N 2777   5.067  11.597  -0.010 -0.9826  0.6871 -0.3240
   21MOL0     C 2778   5.051  11.603  -0.141 -0.5183  0.3815 -0.8248
   21MOL0     C 2779   4.916  11.605  -0.156 -0.6983 -0.4396  0.7071
   21MOL0     C 2780   4.837  11.618  -0.278  0.5103 -0.0808 -0.0155
   21MOL0     C 2781   4.858  11.495  -0.376 -0.6517 -0.4722  0.0122
   21MOL0     C 2782   4.785  11.367  -0.333  0.1178  0.0291  0.5263
   21MOL0     C 2783   4.768  11.253  -0.437  0.0485  0.1825  1.0125
   21MOL0     O 2784   4.890  11.176  -0.452  0.0097  0.3456  0.2675
   21MOL0     C 2785   4.878  11.048  -0.506  0.0835 -0.7698  0.2572
   21MOL0     C 2786   4.902  11.024  -0.641 -1.0174  0.7540  0.0804
   21MOL0     C 2787   4.913  10.899  -0.701 -1.0858 -0.2420  0.6776
   21MOL0     C 2788   4.963  10.888  -0.847  0.4123  1.2930  0.4278
   21MOL0     C 2789   4.866  10.790  -0.625  0.4109 -0.1651 -0.3621
   21MOL0     C 2790   4.854  10.649  -0.665  1.2148  0.3319  0.5189
   21MOL0     O 2791   4.889  10.542  -0.584 -0.5247 -0.4257  1.1605
   21MOL0     C 2792   4.872  10.414  -0.615  0.4540  0.0942 -0.3449
   21MOL0     C 2793   4.791  10.332  -0.534  0.8298 -0.5348 -0.1154
   21MOL0     C 2794   4.770  10.197  -0.563  0.0502  0.3294  0.5301
   21MOL0     C 2795   4.826  10.142  -0.683 -0.4399  0.5224 -0.4598
   21MOL0     O 2796   4.797  10.016  -0.734  0.2288 -0.0121 -0.2859
   21MOL0     C 2797   4.664   9.970  -0.716  0.3441 -0.7859 -0.6641
   21MOL0     C 2798   4.639   9.847  -0.785 -0.7869  0.5469 -0.6705
   21MOL0     C 2799   4.736   9.735  -0.738  0.2051  0.2400 -0.6289
   21MOL0     C 2800   4.771   9.628  -0.840 -0.0382 -0.4055 -0.7842
   21MOL0     C 2801   4.658   9.525  -0.841  0.3953  0.1639 -0.4330
   21MOL0     C 2802   4.683   9.408  -0.931  0.1781  0.3370 -1.3949
   21MOL0     C 2803   4.700   9.429  -1.084  0.0263  0.3167 -0.5445
   21MOL0     C 2804   4.712   9.298  -1.170  1.0200  0.1476  0.8135
   21MOL0    Cl 2805   4.774   9.321  -1.336  0.2661  0.3363 -0.1187
   21MOL0     C 2806   4.915  10.219  -0.755  0.5143 -0.1163 -0.6652
   21MOL0     C 2807   4.921  10.358  -0.731  0.4237  0.0041  0.1637
   21MOL0     O 2808   4.798  10.643  -0.774  0.3547  0.0037 -0.3483
   21MOL0     C 2809   4.838  10.812  -0.483 -0.5309 -0.7307  0.1192
   21MOL0     C 2810   4.851  10.939  -0.424 -0.0961 -0.5985 -0.3106
   21MOL0     N 2811   4.859  11.615  -0.035  0.2511  1.5212  0.1394
   21MOL0     N 2812   4.951  11.602   0.053 -0.1772 -0.9428 -0.5718
   21MOL0     C 2813   5.502  10.989   0.590  0.7326  0.1183 -0.5383
   21MOL0     C 2814   5.575  10.870   0.585 -0.2915 -0.1933  0.0985
   21MOL0     C 2815   5.796  10.514   0.685 -0.7713  0.1872  0.0386
   21MOL0     C 2816   5.731  10.404   0.741  0.3364 -0.0600 -0.1260
   21MOL0     C 2817   5.789  10.274   0.736 -0.7954  0.0630  0.4725
   21MOL0     C 2818   5.917  10.255   0.683 -1.2980 -0.5114  0.0200
   21MOL0     O 2819   5.958  10.125   0.677 -0.4386 -0.3097  0.3930
   21MOL0     C 2820   5.985  10.082   0.538  0.7115 -0.8667  0.4859
   21MOL0     C 2821   5.927   9.941   0.504  0.0222  0.5492  0.0893
   21MOL0     C 2822   5.783   9.915   0.531  0.2049 -0.6408 -0.5812
   21MOL0     C 2823   5.745   9.768   0.564 -1.0529  0.1472  0.1896
   21MOL0     C 2824   5.605   9.742   0.529  0.3305 -0.8160  1.0942
   21MOL0     C 2825   5.492   9.734   0.496  0.4635  0.7224  0.2900
   21MOL0     C 2826   5.989  10.363   0.631  0.1895  0.2090  0.2409
   21MOL0     C 2827   5.929  10.493   0.625  1.2610 -0.4295 -0.3009
   21MOL0     C 2828   6.008  10.604   0.571  0.8163  0.4719  0.6891
   21MOL0     H 2829   5.464  10.747   0.883  1.2189  0.4912  0.2665
   21MOL0     H 2830   5.328  10.955   0.879  0.5295  2.4416 -0.4444
   21MOL0     H 2831   5.505  11.252   0.707  0.1364 -0.9823 -0.6205
   21MOL0     H 2832   5.406  11.231   0.850  1.3377 -0.4733 -0.3545
   21MOL0     H 2833   5.209  11.342   0.752 -0.6652 -0.3540 -0.5355
   21MOL0     H 2834   5.351  11.436   0.783 -1.4266  1.4837 -1.1188
   21MOL0     H 2835   5.388  11.388   0.510 -0.3953  1.7608 -0.7265
   21MOL0     H 2836   5.225  11.336   0.516 -0.0341 -2.1322  2.9943
   21MOL0     H 2837   5.155  11.546   0.594 -0.4623  0.8404  0.4361
   21MOL0     H 2838   5.302  11.608   0.641  4.0037 -1.9102 -1.5193
   21MOL0     H 2839   5.389  11.591   0.398  0.5022  2.5119 -1.3328
   21MOL0     H 2840   5.271  11.715   0.440 -1.2461 -1.2791  3.1383
   21MOL0     H 2841   5.232  11.455   0.300 -2.3237 -0.4498  1.2702
   21MOL0     H 2842   5.090  11.566   0.317  0.2718 -1.1832  1.5471
   21MOL0     H 2843   5.352  11.638   0.175 -1.3964 -1.6337  1.0904
   21MOL0     H 2844   5.219  11.742   0.191 -1.1013 -0.4901  3.5521
   21MOL0     H 2845   5.266  11.625  -0.038  1.6393  1.0638  2.5154
   21MOL0     H 2846   5.219  11.468   0.028 -0.7384 -0.6495 -2.1337
   21MOL0     H 2847   5.129  11.611  -0.215 -1.0915 -1.9964 -1.7815
   21MOL0     H 2848   4.871  11.709  -0.329  1.7512 -1.5406 -1.9809
   21MOL0     H 2849   4.731  11.624  -0.252  1.0820  2.9796  2.1419
   21MOL0     H 2850   4.814  11.516  -0.474 -0.5980  0.2698  0.1403
   21MOL0     H 2851   4.964  11.486  -0.403  0.0212  3.2025  0.9254
   21MOL0     H 2852   4.843  11.320  -0.253 -0.3844  0.2172  1.0064
   21MOL0     H 2853   4.693  11.399  -0.284  0.8478 -0.5165  2.3178
   21MOL0     H 2854   4.694  11.181  -0.400  1.1028 -0.4505  1.9564
   21MOL0     H 2855   4.736  11.290  -0.534 -0.5103  2.3618  1.9735
   21MOL0     H 2856   4.938  11.099  -0.711  2.1592 -1.9880 -1.4930
   21MOL0     H 2857   5.034  10.807  -0.867  0.4359  2.0034 -2.9251
   21MOL0     H 2858   5.039  10.965  -0.852  1.6902  0.1450  1.3914
   21MOL0     H 2859   4.877  10.886  -0.916  1.5384  1.6108 -1.0355
   21MOL0     H 2860   4.744  10.393  -0.457 -2.3148  1.3809 -3.2497
   21MOL0     H 2861   4.701  10.146  -0.497  1.5108 -2.2184  0.2074
   21MOL0     H 2862   4.639   9.954  -0.611 -1.9235 -2.6908 -1.4233
   21MOL0     H 2863   4.608  10.056  -0.753 -1.5944 -1.2018  1.1033
   21MOL0     H 2864   4.536   9.824  -0.757 -1.2122  1.5667 -1.3238
   21MOL0     H 2865   4.642   9.865  -0.893 -2.2716  1.6206 -0.5675
   21MOL0     H 2866   4.704   9.685  -0.646  0.6488  0.4376 -0.3645
   21MOL0     H 2867   4.829   9.781  -0.702 -0.9160  3.1188 -1.2009
   21MOL0     H 2868   4.865   9.588  -0.801 -0.4336 -0.1099  0.4981
   21MOL0     H 2869   4.793   9.674  -0.937 -0.2829  0.5787 -0.3898
   21MOL0     H 2870   4.655   9.496  -0.736  2.2136  1.4008  0.0124
   21MOL0     H 2871   4.568   9.582  -0.865  0.6115  0.7745  0.1626
   21MOL0     H 2872   4.605   9.332  -0.915  0.9716 -0.3224 -0.5599
   21MOL0     H 2873   4.776   9.364  -0.896 -0.2447 -1.3344 -2.2263
   21MOL0     H 2874   4.791   9.489  -1.092  1.0067 -0.8127  1.4151
   21MOL0     H 2875   4.615   9.488  -1.121  0.3045  1.8717  1.1652
   21MOL0     H 2876   4.613   9.252  -1.162  1.3285 -0.4614  1.2166
   21MOL0     H 2877   4.787   9.232  -1.125  1.0776 -2.1439 -2.2955
   21MOL0     H 2878   4.963  10.171  -0.839 -1.6725 -2.3935 -0.7200
   21MOL0     H 2879   4.970  10.430  -0.797 -2.9981  4.1707  1.6581
   21MOL0     H 2880   4.834  10.730  -0.411 -1.4930 -0.6902  0.1226
   21MOL0     H 2881   4.829  10.965  -0.321 -2.5246  2.5762 -1.4349
   21MOL0     H 2882   5.509  11.061   0.510 -1.7475  0.9748 -0.0869
   21MOL0     H 2883   5.647  10.848   0.507 -0.4665 -0.7907  0.1003
   21MOL0     H 2884   5.631  10.408   0.784  0.8785 -0.7638  1.2648
   21MOL0     H 2885   5.742  10.190   0.786  0.1516 -0.6338  0.2140
   21MOL0     H 2886   5.941  10.153   0.468 -0.0599 -1.2722  0.5571
   21MOL0     H 2887   6.094  10.086   0.528  0.8323 -2.9182  0.5872
   21MOL0     H 2888   5.990   9.874   0.562 -2.9409 -1.4186  1.2348
   21MOL0     H 2889   5.945   9.922   0.398  4.8584  2.3847  0.2967
   21MOL0     H 2890   5.742   9.974   0.613 -3.4136 -0.4328 -2.3421
   21MOL0     H 2891   5.728   9.949   0.443  0.4528 -0.3466 -0.6238
   21MOL0     H 2892   5.755   9.751   0.672  0.6956  1.6352  0.3088
   21MOL0     H 2893   5.817   9.703   0.515 -2.7692 -0.1264 -2.1440
   21MOL0     H 2894   5.392   9.721   0.459  0.1985  1.3545  0.7755
   21MOL0     H 2895   6.089  10.345   0.593 -0.3952  0.5506 -1.5674
   21MOL0     H 2896   5.962  10.663   0.492 -0.2812  0.1384  1.0670
   21MOL0     H 2897   6.051  10.664   0.652  0.1526  0.5207  1.0092
   21MOL0     H 2898   6.094  10.551   0.528 -0.9549 -1.4946 -0.5562
   22MOL0     O 2899   5.488   7.721   0.875  0.1138  0.7308 -0.3580
   22MOL0     C 2900   5.521   7.835   0.845  0.3564  0.0848  0.1813
   22MOL0     O 2901   5.630   7.906   0.898  0.3025  0.0113 -0.1782
   22MOL0     C 2902   5.700   7.846   1.001 -0.9321 -0.0916 -0.4624
   22MOL0     C 2903   5.756   7.717   0.985 -0.3728  0.5464  0.3498
   22MOL0     C 2904   5.816   7.655   1.100  0.4596 -1.0013  0.3886
   22MOL0     C 2905   5.843   7.724   1.217  1.8933 -0.2580  0.4758
   22MOL0     O 2906   5.896   7.653   1.321  0.5662 -0.5143  0.3628
   22MOL0     C 2907   5.959   7.726   1.424  0.1556 -0.0177  0.7394
   22MOL0     C 2908   6.049   7.622   1.496 -0.6142 -0.2565  0.3047
   22MOL0     C 2909   6.145   7.680   1.604  0.6061 -0.0869 -0.9675
   22MOL0     C 2910   6.213   7.570   1.684  0.5759  1.2223  0.0072
   22MOL0     C 2911   6.288   7.632   1.797  0.1334 -0.3864  0.5391
   22MOL0     C 2912   6.345   7.507   1.872 -0.2605 -0.9354  0.5074
   22MOL0     C 2913   6.387   7.537   2.013  0.1592  0.8816 -0.1877
   22MOL0     C 2914   6.448   7.399   2.069 -0.6834 -0.0430  0.5426
   22MOL0     N 2915   6.514   7.421   2.205 -0.3023 -0.1221  0.2324
   22MOL0     C 2916   6.629   7.492   2.235 -0.2675 -0.4675 -0.2293
   22MOL0     C 2917   6.660   7.452   2.363  0.3688  0.0294  0.9319
   22MOL0     C 2918   6.777   7.499   2.442 -1.0398  0.4574 -0.7008
   22MOL0     C 2919   6.916   7.441   2.399 -0.2965 -0.0427 -0.6862
   22MOL0     C 2920   7.008   7.421   2.520  0.7318 -0.6320 -1.1057
   22MOL0     C 2921   7.050   7.557   2.583  0.8963  0.1510  0.1094
   22MOL0     O 2922   6.950   7.588   2.678 -0.1608  0.5687  1.0557
   22MOL0     C 2923   6.906   7.718   2.694 -0.5814 -0.0041  0.6266
   22MOL0     C 2924   6.799   7.738   2.767 -0.0836  0.4225  0.0273
   22MOL0     C 2925   6.743   7.863   2.785  0.8176  0.2750  0.6184
   22MOL0     C 2926   6.611   7.871   2.856 -0.8737 -0.5357 -0.4713
   22MOL0     C 2927   6.817   7.986   2.736  0.1875 -0.1960 -0.8861
   22MOL0     C 2928   6.776   8.125   2.770 -0.1867 -1.8043  0.6035
   22MOL0     O 2929   6.869   8.226   2.729 -0.2865 -0.8533 -0.6290
   22MOL0     C 2930   6.816   8.354   2.764 -0.0518  0.0698 -0.0233
   22MOL0     C 2931   6.759   8.429   2.664 -0.1098 -0.0550  0.0312
   22MOL0     C 2932   6.717   8.560   2.682 -0.0829  0.7301  0.0976
   22MOL0     C 2933   6.715   8.619   2.803 -0.8856  0.1248  0.6651
   22MOL0     O 2934   6.682   8.748   2.818  0.4310 -0.0287  0.3294
   22MOL0     C 2935   6.540   8.771   2.814  0.1373  0.0287 -0.3741
   22MOL0     C 2936   6.508   8.899   2.898 -0.6813  0.7233  0.5375
   22MOL0     C 2937   6.546   8.891   3.045  0.9835  0.3023 -0.0798
   22MOL0     C 2938   6.471   8.781   3.125 -0.2083 -0.5995 -0.0976
   22MOL0     C 2939   6.533   8.763   3.265  0.4478 -0.6202 -0.3742
   22MOL0     C 2940   6.507   8.881   3.358 -0.8708  1.0916 -0.0947
   22MOL0     C 2941   6.561   8.859   3.503  0.6798 -0.0244  0.7783
   22MOL0     C 2942   6.497   8.739   3.573 -0.2962 -0.6648  0.3340
   22MOL0    Cl 2943   6.313   8.744   3.569  0.4665  0.5502  0.1034
   22MOL0     C 2944   6.764   8.548   2.906  0.0068 -0.9386 -0.6208
   22MOL0     C 2945   6.815   8.411   2.889  0.6147 -0.4645  0.3491
   22MOL0     O 2946   6.673   8.143   2.833 -0.5765  0.2007  0.3083
   22MOL0     C 2947   6.931   7.958   2.661  0.5749 -0.8005 -0.1423
   22MOL0     C 2948   6.975   7.830   2.640 -0.6194  0.0490  0.4529
   22MOL0     N 2949   6.566   7.359   2.401 -0.6049  0.5754  0.4766
   22MOL0     N 2950   6.486   7.330   2.311 -0.1910  0.2146 -0.0308
   22MOL0     C 2951   5.796   7.862   1.232 -0.7150 -0.6556 -0.2930
   22MOL0     C 2952   5.735   7.918   1.118  0.2997  0.0377 -0.5800
   22MOL0     C 2953   5.446   7.910   0.737  0.5470  1.2095  0.0323
   22MOL0     C 2954   5.513   8.013   0.669  0.7813  0.4146  0.3550
   22MOL0     C 2955   5.446   8.100   0.579 -0.5222 -0.0571  0.2831
   22MOL0     C 2956   5.309   8.084   0.560 -0.1600 -0.3754 -0.4297
   22MOL0     O 2957   5.242   8.175   0.483  0.1226  0.1927  0.9265
   22MOL0     C 2958   5.150   8.268   0.543  0.5211 -0.4904 -0.3532
   22MOL0     C 2959   5.227   8.361   0.639  0.5421 -1.2852  0.2915
   22MOL0     C 2960   5.322   8.463   0.573  0.6363  0.5873  0.1582
   22MOL0     C 2961   5.412   8.552   0.661 -0.6758 -0.2067  0.5036
   22MOL0     C 2962   5.331   8.600   0.772  0.7474  0.5692  0.2027
   22MOL0     C 2963   5.238   8.606   0.857  0.3543 -0.7812 -0.0941
   22MOL0     C 2964   5.240   7.974   0.613  0.1313  0.4596  0.4793
   22MOL0     C 2965   5.308   7.885   0.698 -0.4504 -0.0129  0.3100
   22MOL0     C 2966   5.218   7.770   0.741 -0.1820  0.9559 -0.7466
   22MOL0     H 2967   5.725   7.651   0.904 -4.2549  0.1508  1.9621
   22MOL0     H 2968   5.827   7.547   1.109  2.0544 -0.7591  2.1722
   22MOL0     H 2969   5.891   7.768   1.499  1.8864  5.9342 -0.4684
   22MOL0     H 2970   6.023   7.810   1.392 -0.3228 -0.5272 -1.7818
   22MOL0     H 2971   5.975   7.549   1.530 -1.8298 -0.6437 -2.8492
   22MOL0     H 2972   6.116   7.578   1.422  0.7847  3.5213 -0.9018
   22MOL0     H 2973   6.214   7.749   1.554  1.6972  0.0240  0.6333
   22MOL0     H 2974   6.084   7.749   1.663 -2.3826 -0.8294 -2.9377
   22MOL0     H 2975   6.145   7.493   1.722 -1.4260  2.4539 -0.9603
   22MOL0     H 2976   6.278   7.516   1.614  0.1765  0.2243  0.3901
   22MOL0     H 2977   6.210   7.664   1.866  3.0159 -1.2875  4.5295
   22MOL0     H 2978   6.358   7.712   1.772  1.3921 -0.5009  3.3072
   22MOL0     H 2979   6.263   7.436   1.890  0.9710 -1.8806  2.7267
   22MOL0     H 2980   6.435   7.465   1.827  0.0494  0.1016  0.1296
   22MOL0     H 2981   6.294   7.554   2.070 -0.2440 -2.5095  0.4085
   22MOL0     H 2982   6.459   7.618   2.028  1.9034 -0.8397  1.2991
   22MOL0     H 2983   6.368   7.326   2.083 -2.1536  1.2816 -0.5776
   22MOL0     H 2984   6.527   7.357   2.006  2.1129  3.8423  1.0764
   22MOL0     H 2985   6.688   7.553   2.167 -0.0428 -1.7720 -1.2501
   22MOL0     H 2986   6.763   7.473   2.547 -0.4294 -0.7542 -0.9096
   22MOL0     H 2987   6.779   7.608   2.447 -1.3129  0.4298  0.1247
   22MOL0     H 2988   6.918   7.340   2.358  0.7663 -0.7496  1.0235
   22MOL0     H 2989   6.960   7.507   2.323  0.7880  0.9265  0.7511
   22MOL0     H 2990   6.958   7.356   2.592  1.7822 -0.9355 -0.6319
   22MOL0     H 2991   7.094   7.369   2.477  1.1302  0.3549 -1.5081
   22MOL0     H 2992   7.150   7.552   2.627  0.1177  2.0554  2.2891
   22MOL0     H 2993   7.054   7.627   2.498 -0.5549  1.1790  0.8319
   22MOL0     H 2994   6.750   7.646   2.796  1.6984 -0.2782  0.9574
   22MOL0     H 2995   6.559   7.775   2.854 -0.2608 -0.8659 -0.9533
   22MOL0     H 2996   6.548   7.941   2.801  0.8895  1.3990 -0.1760
   22MOL0     H 2997   6.625   7.894   2.963 -0.3496 -3.4979  0.1898
   22MOL0     H 2998   6.748   8.379   2.568 -2.4425  1.7910 -0.7791
   22MOL0     H 2999   6.670   8.608   2.597  0.8020 -0.5588 -1.1785
   22MOL0     H 3000   6.521   8.786   2.708  0.5993 -0.5004 -0.5385
   22MOL0     H 3001   6.486   8.681   2.845  3.0387 -1.0763  1.9862
   22MOL0     H 3002   6.560   8.982   2.848 -2.1303  3.5934  3.4341
   22MOL0     H 3003   6.401   8.920   2.905 -0.8125 -0.3179  1.9287
   22MOL0     H 3004   6.516   8.988   3.087 -0.1967 -1.1228  2.5962
   22MOL0     H 3005   6.654   8.879   3.055  0.7733 -0.3246  1.8279
   22MOL0     H 3006   6.488   8.684   3.077 -1.1629 -1.2779  0.8815
   22MOL0     H 3007   6.365   8.807   3.130  0.0583  0.3460  1.6448
   22MOL0     H 3008   6.479   8.675   3.301 -1.1363  0.3630 -0.3004
   22MOL0     H 3009   6.641   8.752   3.250  0.4205 -0.7094 -0.5096
   22MOL0     H 3010   6.399   8.882   3.370 -1.0509 -3.6177  0.1551
   22MOL0     H 3011   6.537   8.978   3.316  0.2661  1.2189  0.9201
   22MOL0     H 3012   6.550   8.952   3.559  1.3387 -1.0030  2.6095
   22MOL0     H 3013   6.669   8.844   3.505  0.7266  0.0315  4.0217
   22MOL0     H 3014   6.534   8.724   3.675  0.9552 -0.7688 -0.1266
   22MOL0     H 3015   6.523   8.644   3.525 -2.4414 -1.4703  0.6201
   22MOL0     H 3016   6.762   8.574   3.012  0.0295 -1.0732 -0.5876
   22MOL0     H 3017   6.864   8.356   2.968  2.3886 -0.2458 -0.5382
   22MOL0     H 3018   6.979   8.048   2.622 -1.1863 -0.6475 -2.1467
   22MOL0     H 3019   7.065   7.811   2.583 -0.3032 -0.6345  1.1565
   22MOL0     H 3020   5.809   7.918   1.324 -0.0588  0.6941 -1.1812
   22MOL0     H 3021   5.706   8.023   1.122 -0.4950  0.0150 -3.3203
   22MOL0     H 3022   5.619   8.033   0.686  0.3809  2.7801  0.3862
   22MOL0     H 3023   5.504   8.179   0.531  3.2929 -0.9178  3.0087
   22MOL0     H 3024   5.101   8.322   0.461  1.8239  0.8287 -0.3058
   22MOL0     H 3025   5.083   8.204   0.600  2.0162 -4.1298 -2.3616
   22MOL0     H 3026   5.285   8.291   0.700 -0.3781 -0.9346  1.6112
   22MOL0     H 3027   5.152   8.413   0.699 -0.5086 -0.9811 -1.2347
   22MOL0     H 3028   5.401   8.405   0.525  0.3869 -0.1891  0.6663
   22MOL0     H 3029   5.270   8.519   0.495 -1.9427  3.9556  3.8728
   22MOL0     H 3030   5.424   8.640   0.596 -2.4636  1.4469  2.2685
   22MOL0     H 3031   5.494   8.493   0.702 -0.9410 -0.5857  0.4802
   22MOL0     H 3032   5.154   8.617   0.922  2.1795  1.9696  2.0856
   22MOL0     H 3033   5.139   7.970   0.574  0.4341  1.8926 -0.5377
   22MOL0     H 3034   5.178   7.783   0.842  2.0197 -3.0936  0.8684
   22MOL0     H 3035   5.142   7.736   0.671  1.6398 -2.2608 -1.3515
   22MOL0     H 3036   5.277   7.680   0.760 -0.4331  0.9035 -0.1840
   23MOL0     O 3037   7.505   7.236   6.510  0.0691 -0.3402 -0.1102
   23MOL0     C 3038   7.626   7.241   6.525  0.2972  0.3447 -0.3280
   23MOL0     O 3039   7.697   7.358   6.534 -0.3456  0.0621  0.0701
   23MOL0     C 3040   7.636   7.478   6.483  0.0383 -1.1733 -0.2954
   23MOL0     C 3041   7.645   7.592   6.564 -0.1855 -0.5867  0.2428
   23MOL0     C 3042   7.579   7.711   6.534  0.6536  0.5337 -1.2901
   23MOL0     C 3043   7.492   7.706   6.420 -0.6298 -0.4714 -0.7136
   23MOL0     O 3044   7.422   7.814   6.381 -0.7250 -0.2481  0.8057
   23MOL0     C 3045   7.362   7.903   6.476 -0.0325  0.3946 -0.7735
   23MOL0     C 3046   7.227   7.956   6.433 -0.7925  0.3101  0.9553
   23MOL0     C 3047   7.248   8.076   6.344  0.0863 -0.4863 -0.0547
   23MOL0     C 3048   7.121   8.150   6.304 -0.0515 -0.1661  0.0894
   23MOL0     C 3049   7.151   8.283   6.232 -0.5932 -0.0213  0.2519
   23MOL0     C 3050   7.199   8.255   6.084 -0.0190  0.0723 -1.0698
   23MOL0     C 3051   7.245   8.392   6.020  0.0494  0.2837 -0.2080
   23MOL0     C 3052   7.126   8.475   5.984  0.6936 -0.0368 -0.6600
   23MOL0     N 3053   7.164   8.608   5.931  0.4788  0.1413 -0.1729
   23MOL0     C 3054   7.205   8.721   6.006 -0.9378  0.8530  0.5043
   23MOL0     C 3055   7.191   8.826   5.921  0.9216 -0.1767 -0.0252
   23MOL0     C 3056   7.232   8.969   5.946  1.3637 -0.0080 -0.8918
   23MOL0     C 3057   7.189   9.014   6.088  0.2571 -0.2135 -0.2678
   23MOL0     C 3058   7.114   9.150   6.076  0.2414 -0.0169 -0.4212
   23MOL0     C 3059   7.104   9.226   6.213  0.2611  0.2798 -0.0132
   23MOL0     O 3060   7.233   9.281   6.252 -0.4320  0.4781 -0.3825
   23MOL0     C 3061   7.242   9.346   6.370 -0.0413 -0.7970 -0.0378
   23MOL0     C 3062   7.344   9.427   6.374  0.2778 -0.3814 -0.2520
   23MOL0     C 3063   7.380   9.498   6.487  0.2819 -0.3462 -0.1118
   23MOL0     C 3064   7.518   9.564   6.491 -0.4319  0.0596  0.2979
   23MOL0     C 3065   7.292   9.487   6.607  0.4680 -0.6640  0.1104
   23MOL0     C 3066   7.311   9.575   6.725  0.1015  0.3174 -1.0319
   23MOL0     O 3067   7.216   9.547   6.815 -0.5709 -0.4048 -0.9157
   23MOL0     C 3068   7.203   9.625   6.929  0.1183  0.6098  0.7975
   23MOL0     C 3069   7.295   9.659   7.022 -0.9791 -0.2291  0.0880
   23MOL0     C 3070   7.259   9.719   7.149 -0.1342 -0.2299  0.0258
   23MOL0     C 3071   7.133   9.724   7.187  0.7044  0.4133  0.4080
   23MOL0     O 3072   7.100   9.772   7.311 -0.2417  0.3576 -0.1122
   23MOL0     C 3073   6.965   9.829   7.333  0.5468  0.4930 -0.3174
   23MOL0     C 3074   6.945   9.946   7.430 -0.4397  0.3108 -0.0393
   23MOL0     C 3075   6.972   9.905   7.579 -0.9355  0.6682  0.4944
   23MOL0     C 3076   7.125   9.910   7.614  0.4185 -0.3656  0.0964
   23MOL0     C 3077   7.165  10.051   7.645 -0.7800 -0.1488 -1.1805
   23MOL0     C 3078   7.137  10.073   7.788  0.8356 -0.3030 -1.3693
   23MOL0     C 3079   7.178  10.212   7.830 -0.0125 -0.7508  0.2259
   23MOL0     C 3080   7.169  10.232   7.981 -0.1916  0.2531  0.5279
   23MOL0    Cl 3081   7.256  10.380   8.008  0.4844 -0.3828  0.0109
   23MOL0     C 3082   7.031   9.687   7.092 -0.1373  0.3410  0.1016
   23MOL0     C 3083   7.072   9.627   6.969 -0.0678  0.0405  0.7313
   23MOL0     O 3084   7.410   9.645   6.747 -0.4676  0.3384 -1.0170
   23MOL0     C 3085   7.174   9.409   6.600 -0.2213 -0.1495 -0.0862
   23MOL0     C 3086   7.153   9.341   6.478 -0.6796 -0.0832  0.5414
   23MOL0     N 3087   7.137   8.779   5.801 -0.0586  0.1789 -0.4817
   23MOL0     N 3088   7.122   8.657   5.808 -0.3339 -0.8140 -0.6583
   23MOL0     C 3089   7.490   7.597   6.336  0.0581  0.3941 -0.2587
   23MOL0     C 3090   7.556   7.484   6.372  0.7211  0.2955  0.3101
   23MOL0     C 3091   7.699   7.114   6.538  0.5910 -0.3708 -0.7825
   23MOL0     C 3092   7.812   7.118   6.615 -0.5849 -0.1621  0.1056
   23MOL0     C 3093   7.900   7.004   6.635  0.2532  0.3152 -0.6907
   23MOL0     C 3094   7.853   6.879   6.600  0.0295  0.6604 -0.1253
   23MOL0     O 3095   7.906   6.763   6.650  0.6717 -0.6615 -0.0435
   23MOL0     C 3096   7.871   6.715   6.778  0.4722 -0.2226 -0.2959
   23MOL0     C 3097   7.787   6.595   6.764 -0.6631  0.7906  0.8629
   23MOL0     C 3098   7.688   6.580   6.877 -0.8844  0.4005 -0.0703
   23MOL0     C 3099   7.617   6.446   6.875 -0.1911 -0.6932 -0.2470
   23MOL0     C 3100   7.502   6.453   6.780  1.1080 -0.1906  0.4769
   23MOL0     C 3101   7.408   6.449   6.705 -0.4018 -0.9536  0.4234
   23MOL0     C 3102   7.732   6.870   6.532 -0.4613 -0.1146 -0.3473
   23MOL0     C 3103   7.657   6.984   6.497  0.0326  0.0404  0.2695
   23MOL0     C 3104   7.522   6.950   6.430 -0.3889 -0.0698  0.4709
   23MOL0     H 3105   7.698   7.570   6.656 -2.3983  1.2042  2.0945
   23MOL0     H 3106   7.593   7.785   6.612 -1.0631  0.2223 -0.6401
   23MOL0     H 3107   7.427   7.984   6.511 -0.4064 -0.1543  1.3200
   23MOL0     H 3108   7.346   7.837   6.561  0.8493 -1.2694 -1.8412
   23MOL0     H 3109   7.170   7.879   6.379  0.8396  0.5381 -1.2111
   23MOL0     H 3110   7.166   7.981   6.520  0.4614 -0.7793  2.2001
   23MOL0     H 3111   7.310   8.151   6.393 -1.7758  0.5550  0.8177
   23MOL0     H 3112   7.293   8.060   6.245 -0.3261  0.7504 -0.4653
   23MOL0     H 3113   7.064   8.088   6.234  0.4461 -0.6601  0.1173
   23MOL0     H 3114   7.059   8.165   6.393 -0.3365 -0.3745 -0.0689
   23MOL0     H 3115   7.218   8.351   6.286  0.6864  0.9497 -2.3886
   23MOL0     H 3116   7.051   8.326   6.231 -0.1105  1.1339 -0.4295
   23MOL0     H 3117   7.278   8.180   6.084 -0.6774 -0.6415 -0.5584
   23MOL0     H 3118   7.106   8.213   6.043 -0.8913 -2.7258  3.1941
   23MOL0     H 3119   7.311   8.362   5.937 -0.6488 -1.1522 -0.2729
   23MOL0     H 3120   7.301   8.441   6.100 -1.8567  0.3010  1.1692
   23MOL0     H 3121   7.064   8.427   5.907  0.3641 -1.8270  0.6567
   23MOL0     H 3122   7.057   8.481   6.069  2.1257  1.7625  0.4542
   23MOL0     H 3123   7.242   8.720   6.108 -0.3978  1.6547  0.3324
   23MOL0     H 3124   7.185   9.038   5.876  0.0857 -0.1450 -0.2003
   23MOL0     H 3125   7.339   8.982   5.932  1.2107  1.4822 -0.9148
   23MOL0     H 3126   7.118   8.935   6.114  0.2194 -0.8482 -2.1103
   23MOL0     H 3127   7.276   9.013   6.155  0.5347 -1.2540 -0.6217
   23MOL0     H 3128   7.170   9.217   6.010  2.5835 -0.6225  0.8193
   23MOL0     H 3129   7.015   9.141   6.030 -1.7388  4.6689  2.1032
   23MOL0     H 3130   7.026   9.302   6.207 -0.4111 -0.4266 -0.4843
   23MOL0     H 3131   7.067   9.150   6.283  0.0894 -0.0628 -0.4719
   23MOL0     H 3132   7.410   9.448   6.290  2.9122  3.1946  2.3654
   23MOL0     H 3133   7.511   9.672   6.504  0.9998  0.7365 -3.5012
   23MOL0     H 3134   7.568   9.546   6.396  2.1586  0.1357  1.5551
   23MOL0     H 3135   7.588   9.525   6.566  0.8377  0.3029 -0.7149
   23MOL0     H 3136   7.403   9.655   7.018 -0.8619 -0.6796  2.2419
   23MOL0     H 3137   7.328   9.747   7.228 -1.2633 -1.4327  1.5072
   23MOL0     H 3138   6.936   9.872   7.237  0.5623 -0.5866 -0.8251
   23MOL0     H 3139   6.888   9.753   7.356 -1.6095  2.6346 -0.0601
   23MOL0     H 3140   7.003  10.032   7.398  0.1190 -0.3285 -0.7803
   23MOL0     H 3141   6.838   9.965   7.432 -0.2510  1.5427 -0.6391
   23MOL0     H 3142   6.946   9.802   7.604 -4.0859  1.8002  2.4137
   23MOL0     H 3143   6.913   9.964   7.649 -1.1261  0.0743  0.8435
   23MOL0     H 3144   7.183   9.874   7.529  4.1061 -1.2477  2.7543
   23MOL0     H 3145   7.153   9.841   7.694  0.3064 -0.0623  0.3997
   23MOL0     H 3146   7.272  10.072   7.635 -0.9227  2.0215  0.8882
   23MOL0     H 3147   7.102  10.122   7.590 -0.2637  1.8198  0.6450
   23MOL0     H 3148   7.194   9.998   7.844 -1.7052 -0.8669  0.6495
   23MOL0     H 3149   7.033  10.052   7.814  0.7735  1.7576  0.3859
   23MOL0     H 3150   7.117  10.286   7.777 -2.1159 -3.0977 -0.8482
   23MOL0     H 3151   7.282  10.233   7.803 -0.2622 -1.8758 -1.8152
   23MOL0     H 3152   7.209  10.145   8.033 -0.8369 -0.4892 -0.1714
   23MOL0     H 3153   7.067  10.248   8.017 -0.0235  1.6102  0.4685
   23MOL0     H 3154   6.924   9.695   7.100 -0.1309  0.6363 -0.0799
   23MOL0     H 3155   7.002   9.592   6.894  1.8728  0.4694 -1.3695
   23MOL0     H 3156   7.093   9.403   6.672  1.2061 -2.4727  1.4958
   23MOL0     H 3157   7.057   9.290   6.469 -2.1894  2.0716  2.9631
   23MOL0     H 3158   7.438   7.601   6.241 -0.3305 -2.2257 -0.2259
   23MOL0     H 3159   7.553   7.388   6.320 -0.0619 -1.0769  2.7417
   23MOL0     H 3160   7.839   7.214   6.660 -0.6891 -0.5301  0.9844
   23MOL0     H 3161   7.981   7.018   6.706  1.2517 -2.5891 -1.1348
   23MOL0     H 3162   7.967   6.679   6.818  2.0762  1.3953 -2.4354
   23MOL0     H 3163   7.833   6.794   6.843 -0.7656  0.9090 -2.2940
   23MOL0     H 3164   7.855   6.512   6.742 -0.7716  1.2018 -1.2408
   23MOL0     H 3165   7.729   6.610   6.672 -0.3545  2.5230  0.9095
   23MOL0     H 3166   7.743   6.578   6.972  2.9972 -2.0956 -2.1238
   23MOL0     H 3167   7.610   6.657   6.887 -0.9198  0.1910  1.6135
   23MOL0     H 3168   7.574   6.425   6.974 -3.2026  1.4157 -0.9796
   23MOL0     H 3169   7.696   6.374   6.850 -0.8966 -2.5233  2.3134
   23MOL0     H 3170   7.318   6.450   6.647 -0.0391  1.0260 -0.2119
   23MOL0     H 3171   7.703   6.768   6.508 -1.4579  0.3695 -1.2810
   23MOL0     H 3172   7.476   7.037   6.382  0.4197  0.9908  1.5648
   23MOL0     H 3173   7.548   6.866   6.365  2.6481  0.9195  0.2770
   23MOL0     H 3174   7.444   6.914   6.499  1.6274 -1.2318  2.2556
   24MOL0     O 3175   8.684  10.044   7.919  0.4066 -0.2982 -0.2550
   24MOL0     C 3176   8.583  10.043   7.854  0.8368 -0.1352  0.8201
   24MOL0     O 3177   8.487  10.146   7.846 -0.0384  0.4275  0.4880
   24MOL0     C 3178   8.526  10.263   7.904  1.2562 -0.7758  0.4900
   24MOL0     C 3179   8.425  10.344   7.960  0.7127  0.1410  0.2150
   24MOL0     C 3180   8.449  10.463   8.017  0.1177  0.1793 -0.1575
   24MOL0     C 3181   8.589  10.508   8.036  0.1068 -0.1576  0.2359
   24MOL0     O 3182   8.597  10.631   8.087  0.5635 -0.8808 -0.2726
   24MOL0     C 3183   8.693  10.642   8.190 -1.1014  0.5322  1.3674
   24MOL0     C 3184   8.706  10.776   8.256 -0.3788 -0.1832 -0.3428
   24MOL0     C 3185   8.781  10.881   8.173 -0.7271  0.0748  0.0755
   24MOL0     C 3186   8.815  11.006   8.240  0.0136 -0.2223  0.5109
   24MOL0     C 3187   8.832  11.116   8.128  0.5517  0.1737 -0.0111
   24MOL0     C 3188   8.900  11.242   8.192 -0.4480  1.0907 -0.4200
   24MOL0     C 3189   8.905  11.366   8.115 -0.1017 -0.2811 -0.0640
   24MOL0     C 3190   9.012  11.469   8.173 -0.0007  0.7147  0.0414
   24MOL0     N 3191   9.039  11.590   8.096  0.3530 -0.1457 -1.3169
   24MOL0     C 3192   9.048  11.717   8.151 -0.0346 -0.2691  0.2487
   24MOL0     C 3193   9.113  11.790   8.054  0.8479  0.5255  0.6354
   24MOL0     C 3194   9.142  11.935   8.072 -0.5407  0.4605 -0.4696
   24MOL0     C 3195   9.219  11.968   8.194 -0.2464  0.6710  0.8958
   24MOL0     C 3196   9.263  12.122   8.199  0.6656 -0.7061  0.9474
   24MOL0     C 3197   9.331  12.149   8.336 -0.3992  0.4037  0.3419
   24MOL0     O 3198   9.299  12.284   8.371 -0.3560 -0.3488  0.4765
   24MOL0     C 3199   9.382  12.386   8.327 -0.3098 -0.3045  0.5714
   24MOL0     C 3200   9.482  12.364   8.232  0.2112  0.2449  0.0354
   24MOL0     C 3201   9.575  12.467   8.203 -0.2097  0.5475  0.2660
   24MOL0     C 3202   9.692  12.427   8.116 -0.0556 -0.1118  0.1005
   24MOL0     C 3203   9.552  12.600   8.250  0.3401  0.8515 -0.0197
   24MOL0     C 3204   9.626  12.723   8.220 -0.5953 -0.3011  0.0603
   24MOL0     O 3205   9.741  12.709   8.162 -0.7487  0.2083 -0.1240
   24MOL0     C 3206   9.832  12.809   8.144  0.0517  0.4551 -0.5516
   24MOL0     C 3207   9.797  12.927   8.083 -0.6758 -0.4823  0.2653
   24MOL0     C 3208   9.885  13.037   8.077  0.4701  0.6070  0.2986
   24MOL0     C 3209  10.019  13.014   8.125 -0.6968  0.5210 -0.6480
   24MOL0     O 3210  10.113  13.116   8.145 -0.2915 -0.6372 -0.1196
   24MOL0     C 3211  10.086  13.241   8.089  0.1049  0.2904 -0.8944
   24MOL0     C 3212  10.213  13.322   8.112 -0.4809  0.9691  0.6466
   24MOL0     C 3213  10.189  13.459   8.049  0.6057 -0.4602  0.1672
   24MOL0     C 3214  10.164  13.462   7.899 -0.4898  1.4110 -0.8096
   24MOL0     C 3215  10.136  13.608   7.847 -0.8508  0.9471  0.5118
   24MOL0     C 3216   9.997  13.669   7.901  0.0078 -0.4590 -0.1294
   24MOL0     C 3217   9.984  13.808   7.846  0.4788 -0.8375  0.3651
   24MOL0     C 3218   9.979  13.815   7.688  1.1278  0.1100  0.0040
   24MOL0    Cl 3219   9.863  13.704   7.627  0.2393  0.3235  0.1753
   24MOL0     C 3220  10.051  12.892   8.197 -0.7144 -0.1890  0.9392
   24MOL0     C 3221   9.959  12.787   8.193 -1.3115 -0.1485 -0.6092
   24MOL0     O 3222   9.583  12.830   8.260 -0.0013 -0.3472 -0.7000
   24MOL0     C 3223   9.439  12.621   8.334 -0.1737  0.1964 -0.9286
   24MOL0     C 3224   9.349  12.516   8.367 -0.6097 -1.3605  0.7138
   24MOL0     N 3225   9.139  11.706   7.940 -0.2072  0.2549 -0.3784
   24MOL0     N 3226   9.094  11.584   7.973 -0.0454 -0.2486 -0.6765
   24MOL0     C 3227   8.686  10.436   7.982 -0.2113  1.3207 -0.0249
   24MOL0     C 3228   8.660  10.317   7.914 -0.1304 -1.1614 -0.2331
   24MOL0     C 3229   8.569   9.907   7.792  0.6687  0.2107  0.9560
   24MOL0     C 3230   8.671   9.806   7.803  0.5560  0.3911 -0.6636
   24MOL0     C 3231   8.663   9.684   7.730  0.1575  1.0721 -0.7229
   24MOL0     C 3232   8.551   9.664   7.639  0.6851  0.9413 -0.8657
   24MOL0     O 3233   8.528   9.547   7.562  0.7656  0.6519  0.3484
   24MOL0     C 3234   8.622   9.435   7.562  0.5410 -0.5324  0.1881
   24MOL0     C 3235   8.607   9.359   7.437  0.4788  0.3652  0.0036
   24MOL0     C 3236   8.690   9.231   7.447  0.2941 -0.3547  0.2093
   24MOL0     C 3237   8.609   9.106   7.431 -0.1647 -0.5284  0.2628
   24MOL0     C 3238   8.547   9.076   7.562 -0.5870 -0.6919  0.4226
   24MOL0     C 3239   8.490   9.060   7.672 -0.6545  0.5942  0.6574
   24MOL0     C 3240   8.448   9.754   7.638  0.6560 -0.0302  0.5884
   24MOL0     C 3241   8.455   9.878   7.706  0.6508  0.1973 -0.6009
   24MOL0     C 3242   8.337   9.966   7.674  0.3254 -0.8339 -1.1157
   24MOL0     H 3243   8.324  10.306   7.949  0.6657  0.1542  0.5847
   24MOL0     H 3244   8.366  10.530   8.036 -2.1282 -2.9288  2.0203
   24MOL0     H 3245   8.791  10.623   8.146 -1.9603  1.2241 -0.9573
   24MOL0     H 3246   8.676  10.565   8.267  0.2096 -0.8629  0.3264
   24MOL0     H 3247   8.611  10.812   8.296 -0.0433 -1.0709  1.3510
   24MOL0     H 3248   8.766  10.766   8.347 -0.3543  4.0175  0.3263
   24MOL0     H 3249   8.867  10.835   8.124 -2.2588 -1.8983 -0.9216
   24MOL0     H 3250   8.709  10.896   8.091 -2.4958  0.5909  1.6608
   24MOL0     H 3251   8.745  11.029   8.320  2.2717  1.0104  2.2309
   24MOL0     H 3252   8.916  11.001   8.281  0.6097 -0.6296 -0.9524
   24MOL0     H 3253   8.736  11.155   8.091 -1.3674 -1.8646  2.4392
   24MOL0     H 3254   8.885  11.084   8.039 -3.4380  0.0030 -2.5871
   24MOL0     H 3255   8.832  11.261   8.276  0.8786  1.7176  0.5429
   24MOL0     H 3256   8.998  11.221   8.234 -0.6274  0.6487 -0.2199
   24MOL0     H 3257   8.813  11.425   8.119  0.3382  0.4282 -0.1804
   24MOL0     H 3258   8.929  11.333   8.013 -0.6040 -0.5885 -0.0874
   24MOL0     H 3259   8.988  11.494   8.277  1.8304 -4.5775  2.0635
   24MOL0     H 3260   9.106  11.416   8.189 -0.0358  1.0368  1.4695
   24MOL0     H 3261   9.031  11.753   8.251 -1.7409 -0.4380  0.0555
   24MOL0     H 3262   9.041  11.979   8.073  0.0412  1.8654 -0.7333
   24MOL0     H 3263   9.196  11.977   7.987  1.8911 -0.1548  0.6685
   24MOL0     H 3264   9.161  11.947   8.285  2.8474  2.9510  3.6519
   24MOL0     H 3265   9.312  11.912   8.206  0.3908  1.7462  1.0361
   24MOL0     H 3266   9.325  12.133   8.110  0.4819 -2.4362  0.5689
   24MOL0     H 3267   9.167  12.176   8.194 -1.9626 -5.0222 -0.7570
   24MOL0     H 3268   9.285  12.092   8.417  2.1090  1.3523  2.5481
   24MOL0     H 3269   9.439  12.133   8.345 -0.6910 -1.8141  0.4738
   24MOL0     H 3270   9.500  12.266   8.189  2.5097  0.3757  0.5520
   24MOL0     H 3271   9.791  12.455   8.153 -0.0735  0.1017 -0.0065
   24MOL0     H 3272   9.702  12.477   8.019  0.4088  1.5828  0.9724
   24MOL0     H 3273   9.704  12.319   8.113 -1.2537 -0.4256  3.0471
   24MOL0     H 3274   9.698  12.948   8.044 -0.2065  1.7977  0.1830
   24MOL0     H 3275   9.844  13.131   8.042 -1.6207  0.3952  1.9554
   24MOL0     H 3276  10.059  13.234   7.983 -3.4707 -0.3829 -0.0662
   24MOL0     H 3277  10.001  13.288   8.139  1.9881  2.2499  0.6126
   24MOL0     H 3278  10.253  13.334   8.213  2.7591  0.4420 -0.4516
   24MOL0     H 3279  10.294  13.268   8.062 -0.8212  2.4418 -1.6486
   24MOL0     H 3280  10.278  13.518   8.072  1.2290 -1.4752  0.4148
   24MOL0     H 3281  10.106  13.503   8.106  0.0766 -0.3749 -0.6500
   24MOL0     H 3282  10.084  13.397   7.863 -0.4309  2.7854 -3.7340
   24MOL0     H 3283  10.254  13.424   7.849  1.2379  1.9922  1.6694
   24MOL0     H 3284  10.214  13.676   7.884 -0.4944 -0.1503  1.8889
   24MOL0     H 3285  10.140  13.595   7.738  1.6871 -2.7966  0.8363
   24MOL0     H 3286  10.013  13.684   8.008  2.3604 -0.7489 -0.3899
   24MOL0     H 3287   9.913  13.603   7.875 -1.9439  1.7701  0.1952
   24MOL0     H 3288  10.067  13.874   7.872  0.8797 -1.5312  0.8730
   24MOL0     H 3289   9.889  13.847   7.885  0.1545  0.3510 -1.4910
   24MOL0     H 3290  10.078  13.801   7.645  1.7474 -0.9551  1.6710
   24MOL0     H 3291   9.949  13.915   7.655 -0.7492 -1.2815 -2.9650
   24MOL0     H 3292  10.148  12.873   8.243  0.0352  0.4424 -0.3298
   24MOL0     H 3293   9.988  12.683   8.210 -1.5500  0.0770  1.4030
   24MOL0     H 3294   9.411  12.723   8.361  2.4598  1.1960 -1.6769
   24MOL0     H 3295   9.265  12.536   8.433 -1.2766  0.4303 -0.6041
   24MOL0     H 3296   8.792  10.461   7.985 -0.2646  1.5506 -0.0051
   24MOL0     H 3297   8.740  10.263   7.863 -0.6188  1.1076 -3.7443
   24MOL0     H 3298   8.754   9.829   7.869  0.5196 -1.7596  0.2052
   24MOL0     H 3299   8.740   9.607   7.732 -1.1387 -0.2838  2.1263
   24MOL0     H 3300   8.729   9.460   7.565  0.9502 -2.2399  1.0758
   24MOL0     H 3301   8.593   9.380   7.652 -4.3645  1.8669  0.3565
   24MOL0     H 3302   8.647   9.411   7.349  1.8160 -1.4411 -0.5071
   24MOL0     H 3303   8.504   9.326   7.428 -0.0187  1.9531 -0.5278
   24MOL0     H 3304   8.750   9.222   7.356  0.2038  0.5098  0.0580
   24MOL0     H 3305   8.762   9.220   7.529 -3.3532 -0.0174  3.7492
   24MOL0     H 3306   8.673   9.021   7.405 -0.6667 -0.8584  0.0842
   24MOL0     H 3307   8.540   9.110   7.347  0.4240  1.9219 -0.1712
   24MOL0     H 3308   8.411   9.037   7.740 -1.5722 -0.6692 -0.7801
   24MOL0     H 3309   8.366   9.738   7.568  0.6841 -1.3577  0.8239
   24MOL0     H 3310   8.367  10.065   7.639  2.0362 -1.2801 -0.9820
   24MOL0     H 3311   8.268   9.934   7.595  2.5058 -0.0813 -3.4453
   24MOL0     H 3312   8.282   9.982   7.768  1.6259  0.4449 -0.5376
   25MOL0     O 3313   8.882   7.468   6.276  0.9932  0.2754  0.3335
   25MOL0     C 3314   8.995   7.506   6.282 -0.3961  0.1170  0.2565
   25MOL0     O 3315   9.077   7.544   6.175 -0.4170 -0.5357 -0.7977
   25MOL0     C 3316   9.025   7.556   6.055 -0.2652  0.7341  1.7008
   25MOL0     C 3317   9.064   7.461   5.963 -0.6587  0.2777 -0.1136
   25MOL0     C 3318   9.035   7.468   5.829  0.4112 -0.8379 -0.4814
   25MOL0     C 3319   8.957   7.580   5.784 -0.6029  0.4590 -0.7262
   25MOL0     O 3320   8.927   7.608   5.652  0.7302  0.7533 -0.8195
   25MOL0     C 3321   9.032   7.602   5.562 -0.2479  0.5506  0.3750
   25MOL0     C 3322   8.986   7.555   5.423 -0.4046 -0.2515 -0.7945
   25MOL0     C 3323   8.863   7.635   5.374  0.4108 -0.1616 -0.3352
   25MOL0     C 3324   8.822   7.578   5.235  0.0138  0.0595  0.5087
   25MOL0     C 3325   8.924   7.594   5.117 -0.8928  0.0971 -0.1091
   25MOL0     C 3326   8.858   7.539   4.997  1.1805  1.4583  0.1947
   25MOL0     C 3327   8.945   7.524   4.872  0.0030 -0.5097 -0.0362
   25MOL0     C 3328   8.880   7.587   4.751  0.0460 -0.8832  0.1597
   25MOL0     N 3329   8.867   7.734   4.759 -0.0821 -0.0795 -0.1063
   25MOL0     C 3330   8.977   7.820   4.747  0.1482  0.1584  0.2204
   25MOL0     C 3331   8.922   7.944   4.749 -0.9667 -0.4124 -0.3318
   25MOL0     C 3332   9.000   8.068   4.744 -0.1081  0.3074 -0.0904
   25MOL0     C 3333   9.074   8.083   4.881 -1.0938  0.1963  0.0505
   25MOL0     C 3334   8.985   8.085   5.003  0.0255  0.7095 -0.9270
   25MOL0     C 3335   9.034   8.168   5.118  0.0084 -1.1762 -0.7222
   25MOL0     O 3336   9.174   8.154   5.140 -0.2931 -0.4452  0.9338
   25MOL0     C 3337   9.222   8.075   5.234 -0.4004 -0.2333  0.1041
   25MOL0     C 3338   9.356   8.040   5.216  0.0101 -0.9861 -0.8664
   25MOL0     C 3339   9.440   7.971   5.306 -0.0544  0.5278  0.1823
   25MOL0     C 3340   9.580   7.948   5.268  0.2752  0.9208 -0.5674
   25MOL0     C 3341   9.375   7.923   5.416 -0.0461  0.2827  0.4239
   25MOL0     C 3342   9.450   7.860   5.519  0.3721 -0.3861 -0.4004
   25MOL0     O 3343   9.579   7.904   5.544  0.2904  0.4888  0.8273
   25MOL0     C 3344   9.657   7.817   5.618 -0.4402  0.0157  0.0480
   25MOL0     C 3345   9.729   7.700   5.572 -0.2186 -0.1765 -0.1244
   25MOL0     C 3346   9.815   7.635   5.660  0.0047  0.0556 -0.1645
   25MOL0     C 3347   9.840   7.678   5.792 -0.5383 -0.0402 -0.1651
   25MOL0     O 3348   9.927   7.613   5.874  0.4782  0.3705 -0.0100
   25MOL0     C 3349   9.988   7.670   5.990  0.1532  0.7521  0.5738
   25MOL0     C 3350  10.084   7.563   6.049 -1.0974 -0.2880 -0.1268
   25MOL0     C 3351  10.184   7.525   5.933  1.0370 -0.3538  0.1523
   25MOL0     C 3352  10.308   7.456   5.982  0.4730 -0.1778 -0.8709
   25MOL0     C 3353  10.393   7.420   5.858 -0.1661  1.2891  0.6292
   25MOL0     C 3354  10.322   7.338   5.750  0.0700  1.2190  0.0662
   25MOL0     C 3355  10.419   7.260   5.655  0.6343  0.4848 -1.2892
   25MOL0     C 3356  10.348   7.194   5.543 -1.3667  0.0487 -0.1942
   25MOL0    Cl 3357  10.474   7.125   5.440  0.3709  0.3436  0.2680
   25MOL0     C 3358   9.761   7.784   5.843 -0.3187  0.6859  0.6943
   25MOL0     C 3359   9.675   7.858   5.751 -0.5533  0.1710 -0.8136
   25MOL0     O 3360   9.386   7.768   5.581 -0.3630 -0.1064  0.0300
   25MOL0     C 3361   9.230   7.935   5.429 -0.0555 -0.3488 -0.3463
   25MOL0     C 3362   9.149   8.010   5.340 -0.8527 -1.2530  0.1601
   25MOL0     N 3363   8.786   7.937   4.758  0.1475  0.0666  0.2395
   25MOL0     N 3364   8.760   7.815   4.776  0.0818  0.4557  0.2015
   25MOL0     C 3365   8.924   7.676   5.875 -0.0064 -1.2701 -0.1150
   25MOL0     C 3366   8.955   7.667   6.012 -0.1827  0.1517  0.6290
   25MOL0     C 3367   9.060   7.534   6.410 -0.0761  0.0010 -0.1044
   25MOL0     C 3368   9.185   7.603   6.412  0.5661  0.1613  0.0525
   25MOL0     C 3369   9.249   7.643   6.527  0.5865  0.0403 -0.1439
   25MOL0     C 3370   9.199   7.611   6.650  0.2237 -0.5604 -0.6303
   25MOL0     O 3371   9.267   7.644   6.756 -0.0995  0.0538 -0.8798
   25MOL0     C 3372   9.220   7.586   6.885 -0.0235 -0.3892  0.7937
   25MOL0     C 3373   9.245   7.429   6.896  0.0812  0.5909  0.2720
   25MOL0     C 3374   9.394   7.408   6.946  0.3803 -0.3775 -0.4869
   25MOL0     C 3375   9.410   7.273   7.021  0.3411 -0.4821  0.0841
   25MOL0     C 3376   9.351   7.288   7.150 -0.2988  0.3984 -0.2481
   25MOL0     C 3377   9.286   7.291   7.248 -0.2150 -0.1990 -0.1280
   25MOL0     C 3378   9.072   7.554   6.650  0.1444  0.7505  0.2320
   25MOL0     C 3379   9.008   7.508   6.534 -0.5841 -0.8592 -0.1626
   25MOL0     C 3380   8.896   7.416   6.549  0.8582  0.9629  0.1611
   25MOL0     H 3381   9.109   7.370   6.001  4.4165  1.1015 -3.1776
   25MOL0     H 3382   9.075   7.393   5.761  1.8245 -0.2805 -0.2865
   25MOL0     H 3383   9.117   7.540   5.593  0.2329  0.8964 -0.2314
   25MOL0     H 3384   9.074   7.703   5.558  0.9445  0.1073  1.0944
   25MOL0     H 3385   9.072   7.561   5.355  2.1808  1.6788  2.3303
   25MOL0     H 3386   8.943   7.454   5.420  0.2040 -0.5070 -1.2102
   25MOL0     H 3387   8.781   7.612   5.442 -1.8135  2.9063 -1.7213
   25MOL0     H 3388   8.876   7.744   5.376  0.8627 -0.1248 -2.6198
   25MOL0     H 3389   8.793   7.472   5.236 -1.2692  0.3828 -0.6314
   25MOL0     H 3390   8.733   7.634   5.208  0.5166  1.0593  0.8802
   25MOL0     H 3391   9.019   7.543   5.137 -1.3164 -1.3372 -1.4828
   25MOL0     H 3392   8.923   7.701   5.094 -0.3547 -0.4484 -3.0440
   25MOL0     H 3393   8.812   7.440   5.010  0.4894  1.6313 -0.8628
   25MOL0     H 3394   8.784   7.609   4.958  3.2588  1.8909 -3.4522
   25MOL0     H 3395   8.950   7.419   4.844  0.1359 -0.6457  0.4882
   25MOL0     H 3396   9.047   7.559   4.886 -0.7687  2.9878 -1.9261
   25MOL0     H 3397   8.922   7.564   4.653 -1.9430  0.9736 -1.2220
   25MOL0     H 3398   8.781   7.542   4.754  0.8168 -2.8082 -1.4183
   25MOL0     H 3399   9.083   7.799   4.747  0.1724  0.1841  1.4874
   25MOL0     H 3400   8.933   8.154   4.744  2.2485  2.4678  4.2016
   25MOL0     H 3401   9.063   8.062   4.655  0.0792 -2.2132  0.1448
   25MOL0     H 3402   9.148   8.006   4.904  1.8881  3.1824  1.1528
   25MOL0     H 3403   9.127   8.178   4.884  0.5760 -0.7339  1.9018
   25MOL0     H 3404   8.893   8.130   4.964  0.2864  1.6527 -0.4932
   25MOL0     H 3405   8.982   7.982   5.038  3.0850  0.3161 -1.5599
   25MOL0     H 3406   9.009   8.270   5.089  2.5621 -0.6458 -1.2674
   25MOL0     H 3407   8.969   8.153   5.205 -1.4469 -0.6400 -1.6795
   25MOL0     H 3408   9.401   8.077   5.125 -0.0864 -0.0479 -0.5430
   25MOL0     H 3409   9.651   8.003   5.330  0.3732  1.9849 -1.5732
   25MOL0     H 3410   9.598   7.986   5.167 -1.3863  1.4759 -0.6796
   25MOL0     H 3411   9.606   7.842   5.270 -0.3745  0.6957 -2.2464
   25MOL0     H 3412   9.707   7.685   5.467 -0.1810 -1.0223 -0.0157
   25MOL0     H 3413   9.861   7.544   5.625 -0.7554  0.0100 -1.0901
   25MOL0     H 3414  10.036   7.763   5.959 -0.3161  0.2105 -2.0776
   25MOL0     H 3415   9.918   7.691   6.071 -0.5393  0.9952 -0.0717
   25MOL0     H 3416  10.122   7.598   6.146  2.0644 -0.4905 -1.1923
   25MOL0     H 3417  10.024   7.474   6.068  0.0851 -1.5185 -1.8459
   25MOL0     H 3418  10.197   7.623   5.885  3.6680 -1.2721 -1.1872
   25MOL0     H 3419  10.131   7.463   5.860  1.1127  2.3126 -2.3303
   25MOL0     H 3420  10.263   7.366   6.025  0.4316 -0.2653 -1.0961
   25MOL0     H 3421  10.359   7.525   6.050 -0.8622  1.5167 -1.5056
   25MOL0     H 3422  10.433   7.514   5.819 -3.0215  2.6664  0.7707
   25MOL0     H 3423  10.468   7.354   5.902  0.8446  1.3179 -0.9674
   25MOL0     H 3424  10.254   7.402   5.693  0.6535  1.2115 -0.6531
   25MOL0     H 3425  10.254   7.269   5.801 -2.3591  0.2827 -3.9687
   25MOL0     H 3426  10.477   7.187   5.712  0.1286 -0.7669 -2.3276
   25MOL0     H 3427  10.490   7.332   5.613  0.7093  1.6704  0.7799
   25MOL0     H 3428  10.293   7.269   5.485  0.3830  0.0776 -1.9296
   25MOL0     H 3429  10.283   7.116   5.584  0.4687 -1.3053  0.2859
   25MOL0     H 3430   9.776   7.812   5.946  2.0364 -1.8811  1.1793
   25MOL0     H 3431   9.645   7.956   5.786 -0.2942 -0.3227  0.8824
   25MOL0     H 3432   9.179   7.908   5.520  1.5121  0.2336  0.7605
   25MOL0     H 3433   9.045   8.036   5.356 -0.1043 -0.4495  5.7673
   25MOL0     H 3434   8.871   7.763   5.838  2.3533  0.8269  1.1777
   25MOL0     H 3435   8.933   7.738   6.090  1.5913 -0.7953  2.0689
   25MOL0     H 3436   9.247   7.634   6.328  1.8589 -0.4493  0.7570
   25MOL0     H 3437   9.347   7.690   6.526  1.2657 -1.3205 -1.6169
   25MOL0     H 3438   9.278   7.641   6.960 -0.8880  2.0651 -0.2570
   25MOL0     H 3439   9.114   7.606   6.902 -0.9918 -2.8920 -1.6123
   25MOL0     H 3440   9.223   7.382   6.800 -0.6819 -0.5326  0.9715
   25MOL0     H 3441   9.168   7.393   6.964  0.3073  2.2308  1.4418
   25MOL0     H 3442   9.457   7.412   6.856  0.8719 -0.4439 -0.1471
   25MOL0     H 3443   9.428   7.482   7.018  2.2789 -0.6240 -1.0867
   25MOL0     H 3444   9.510   7.233   7.037 -1.0457 -4.3482 -0.0550
   25MOL0     H 3445   9.359   7.196   6.964 -1.8981  0.2102  1.0303
   25MOL0     H 3446   9.213   7.288   7.326  0.8011 -1.3009  0.8132
   25MOL0     H 3447   9.024   7.531   6.745  0.4882  0.7434  0.4053
   25MOL0     H 3448   8.901   7.324   6.489  3.7273 -0.5280  2.4312
   25MOL0     H 3449   8.902   7.380   6.653 -0.6610  1.0112  0.2921
   25MOL0     H 3450   8.799   7.466   6.544 -0.5954 -1.3649  2.2986
   26MOL0     O 3451   9.919   3.570   0.301  0.3264  0.8025 -0.5334
   26MOL0     C 3452   9.817   3.553   0.238  0.7448 -0.5656 -0.5888
   26MOL0     O 3453   9.789   3.590   0.113 -0.0714  0.2120  0.5469
   26MOL0     C 3454   9.891   3.644   0.037 -0.2732 -0.7102 -0.0771
   26MOL0     C 3455   9.908   3.600  -0.094 -0.1401  0.1356 -0.0384
   26MOL0     C 3456   9.998   3.663  -0.180  1.2044 -0.6091 -0.2592
   26MOL0     C 3457  10.062   3.783  -0.135  0.1199  0.9918 -0.1008
   26MOL0     O 3458  10.160   3.845  -0.211 -0.6324 -0.7529  0.2406
   26MOL0     C 3459  10.187   3.810  -0.352 -0.0027 -0.1075 -0.1394
   26MOL0     C 3460  10.297   3.902  -0.397  0.2045  0.5155 -0.6211
   26MOL0     C 3461  10.438   3.885  -0.325  0.4172  0.6150 -0.1727
   26MOL0     C 3462  10.526   3.981  -0.386 -0.1806  0.2738  0.4420
   26MOL0     C 3463  10.666   3.939  -0.355  0.4365  0.2754  1.3191
   26MOL0     C 3464  10.767   4.019  -0.435 -0.1815  0.9444 -0.3774
   26MOL0     C 3465  10.901   3.946  -0.446 -0.3685 -0.7427 -0.7314
   26MOL0     C 3466  11.010   4.036  -0.499  0.2647 -0.6979  0.2138
   26MOL0     N 3467  11.054   4.126  -0.398 -0.1861  0.6148  0.5428
   26MOL0     C 3468  11.161   4.095  -0.329  0.3059 -0.1487  0.4555
   26MOL0     C 3469  11.175   4.201  -0.251 -0.2863 -0.1685  0.8418
   26MOL0     C 3470  11.298   4.223  -0.177  0.5959  0.0969 -0.7612
   26MOL0     C 3471  11.356   4.346  -0.225  0.9529  0.9850  0.0218
   26MOL0     C 3472  11.501   4.354  -0.161  0.5739  0.5548  0.2825
   26MOL0     C 3473  11.584   4.475  -0.217 -0.5831 -0.8458  0.8164
   26MOL0     O 3474  11.534   4.608  -0.187  0.5622 -1.1449 -1.2575
   26MOL0     C 3475  11.531   4.657  -0.057 -0.4704 -0.2020 -0.6096
   26MOL0     C 3476  11.503   4.791  -0.044 -0.2685  0.4757  0.7921
   26MOL0     C 3477  11.490   4.851   0.083  0.6392  0.1761 -0.0282
   26MOL0     C 3478  11.450   5.001   0.087 -0.0680  0.2866 -0.1524
   26MOL0     C 3479  11.508   4.771   0.195 -0.2531  0.0695  0.2398
   26MOL0     C 3480  11.497   4.831   0.329 -0.2190  0.1273 -0.2190
   26MOL0     O 3481  11.415   4.773   0.418 -0.1468 -0.2704 -0.4660
   26MOL0     C 3482  11.446   4.772   0.549 -0.1618  0.3584  0.4482
   26MOL0     C 3483  11.399   4.874   0.633  0.1448  1.2846 -0.0469
   26MOL0     C 3484  11.420   4.872   0.767 -0.8264 -0.2968 -0.7915
   26MOL0     C 3485  11.490   4.767   0.831 -0.2903  0.1583  0.2295
   26MOL0     O 3486  11.522   4.763   0.965  0.0853 -0.3122 -0.2710
   26MOL0     C 3487  11.436   4.834   1.054 -0.6289  0.3450 -0.3047
   26MOL0     C 3488  11.464   4.800   1.205 -0.2964 -0.2623 -0.1824
   26MOL0     C 3489  11.345   4.725   1.260  0.0253 -0.5341  0.2387
   26MOL0     C 3490  11.360   4.677   1.403 -0.0901 -0.1124  0.0315
   26MOL0     C 3491  11.227   4.651   1.469  0.9243  0.6981 -0.4666
   26MOL0     C 3492  11.254   4.615   1.612  0.3162  0.3774  0.9207
   26MOL0     C 3493  11.308   4.729   1.702 -0.9797 -0.7893 -0.2160
   26MOL0     C 3494  11.288   4.722   1.857  0.0514  0.0809  0.5860
   26MOL0    Cl 3495  11.387   4.585   1.918 -0.1457  0.4003  0.2069
   26MOL0     C 3496  11.531   4.653   0.751 -0.2135 -0.2987  0.8578
   26MOL0     C 3497  11.506   4.652   0.610  1.0606  0.1363 -0.0383
   26MOL0     O 3498  11.550   4.943   0.345  0.0658 -1.1757 -0.3668
   26MOL0     C 3499  11.546   4.645   0.184 -0.4041 -0.0245  0.3272
   26MOL0     C 3500  11.559   4.586   0.054  0.7526  0.3290 -0.1585
   26MOL0     N 3501  11.068   4.288  -0.255 -0.4557 -0.3058  0.1689
   26MOL0     N 3502  11.000   4.241  -0.354 -0.1937  0.0217  0.5294
   26MOL0     C 3503  10.033   3.835  -0.012  1.2467 -0.7014 -0.4133
   26MOL0     C 3504   9.946   3.762   0.077 -1.0371  0.0108  0.8069
   26MOL0     C 3505   9.698   3.501   0.301  0.7450 -0.1599 -0.1897
   26MOL0     C 3506   9.578   3.570   0.282 -0.2990 -0.0232 -0.2103
   26MOL0     C 3507   9.460   3.522   0.333  0.0788 -0.6317 -0.3627
   26MOL0     C 3508   9.457   3.417   0.428 -0.2200  0.2108  0.4098
   26MOL0     O 3509   9.331   3.399   0.482 -0.6040  0.4921 -0.3993
   26MOL0     C 3510   9.303   3.320   0.595  0.2417 -0.7225  0.2591
   26MOL0     C 3511   9.303   3.405   0.726  1.1029  0.2099  0.3414
   26MOL0     C 3512   9.410   3.517   0.747  0.0908 -0.5024 -0.3090
   26MOL0     C 3513   9.373   3.584   0.876 -0.8934 -0.6160 -0.0013
   26MOL0     C 3514   9.471   3.697   0.917  0.1098 -0.2266  0.6680
   26MOL0     C 3515   9.551   3.783   0.961 -0.0170 -0.0077  0.5016
   26MOL0     C 3516   9.576   3.346   0.451 -0.1423 -0.4547 -0.5160
   26MOL0     C 3517   9.700   3.398   0.400  0.8022  0.3142 -0.4145
   26MOL0     C 3518   9.822   3.315   0.441 -0.1841  0.6445  0.2751
   26MOL0     H 3519   9.852   3.509  -0.117  1.9133 -1.2952  0.3784
   26MOL0     H 3520  10.003   3.626  -0.282 -0.4890  3.8460 -2.2397
   26MOL0     H 3521  10.094   3.828  -0.405 -2.5165 -1.0168  3.5593
   26MOL0     H 3522  10.220   3.707  -0.369 -0.8645 -0.0594 -2.3440
   26MOL0     H 3523  10.314   3.870  -0.501  2.6190  1.4254 -0.5729
   26MOL0     H 3524  10.274   4.009  -0.398  0.9346  0.6769 -1.1593
   26MOL0     H 3525  10.427   3.891  -0.216 -1.5050 -1.8039 -0.1434
   26MOL0     H 3526  10.471   3.783  -0.348  1.4817  0.8834  0.1080
   26MOL0     H 3527  10.513   4.001  -0.492 -2.7489 -0.3239  0.6002
   26MOL0     H 3528  10.518   4.078  -0.337  1.9930 -0.2002  1.8941
   26MOL0     H 3529  10.678   3.838  -0.394  0.2065  0.7239  0.0276
   26MOL0     H 3530  10.682   3.942  -0.247 -1.8760 -1.6942  1.8308
   26MOL0     H 3531  10.732   4.025  -0.538  2.1466 -0.7963 -1.3668
   26MOL0     H 3532  10.775   4.119  -0.391  3.3032  1.0121 -0.8279
   26MOL0     H 3533  10.890   3.858  -0.511  0.3490  0.7626 -2.9745
   26MOL0     H 3534  10.920   3.917  -0.342  0.2635 -0.9122 -0.8901
   26MOL0     H 3535  11.091   3.968  -0.531  0.0867 -0.8376  0.0595
   26MOL0     H 3536  10.975   4.095  -0.584  2.0945 -0.7395 -0.6218
   26MOL0     H 3537  11.227   4.010  -0.345 -2.0148 -2.1918  1.0337
   26MOL0     H 3538  11.371   4.143  -0.187  1.1054  0.7548 -2.8143
   26MOL0     H 3539  11.274   4.234  -0.071  1.3186 -0.9281 -0.4845
   26MOL0     H 3540  11.362   4.344  -0.334  0.5027  2.4883 -0.0579
   26MOL0     H 3541  11.296   4.432  -0.192  3.2022  2.6797 -0.0510
   26MOL0     H 3542  11.502   4.366  -0.053 -0.0875  0.0705  0.3476
   26MOL0     H 3543  11.555   4.261  -0.180 -2.0798 -0.8915 -0.6520
   26MOL0     H 3544  11.686   4.458  -0.181  0.2814 -1.8127 -1.8237
   26MOL0     H 3545  11.592   4.469  -0.326 -0.2837 -1.4931  0.8680
   26MOL0     H 3546  11.484   4.846  -0.135 -1.2456 -2.2443 -0.7565
   26MOL0     H 3547  11.365   5.015   0.156 -1.3707 -0.7047 -1.4908
   26MOL0     H 3548  11.419   5.036  -0.012  1.9389  1.5669 -0.3767
   26MOL0     H 3549  11.538   5.059   0.115 -1.4365  2.4911 -0.1370
   26MOL0     H 3550  11.342   4.958   0.593  0.1903  1.9325  1.1945
   26MOL0     H 3551  11.395   4.956   0.833 -1.8438 -0.3785 -1.0596
   26MOL0     H 3552  11.455   4.942   1.059  3.1018 -0.1830  0.1326
   26MOL0     H 3553  11.333   4.810   1.026 -0.9615 -0.4470  1.4835
   26MOL0     H 3554  11.557   4.745   1.223 -1.0293 -1.4949 -0.1041
   26MOL0     H 3555  11.481   4.892   1.262 -0.3503 -0.0297 -0.5361
   26MOL0     H 3556  11.318   4.647   1.188  0.6386 -1.3992  0.9130
   26MOL0     H 3557  11.267   4.802   1.253  0.2442 -0.2084  1.1987
   26MOL0     H 3558  11.406   4.756   1.463 -0.0537  2.5457 -3.2071
   26MOL0     H 3559  11.419   4.586   1.418  2.3012  1.4199  0.3882
   26MOL0     H 3560  11.161   4.737   1.456 -1.2589 -0.9005 -0.4458
   26MOL0     H 3561  11.192   4.562   1.416  0.0454  0.6568  0.1546
   26MOL0     H 3562  11.330   4.536   1.609  0.1255  0.2142 -0.4156
   26MOL0     H 3563  11.164   4.569   1.653 -0.8518 -0.5329 -2.3329
   26MOL0     H 3564  11.233   4.806   1.682 -2.1435 -1.6707  0.5441
   26MOL0     H 3565  11.411   4.760   1.682 -1.3916 -0.6206 -2.3313
   26MOL0     H 3566  11.185   4.710   1.893  1.0081 -0.5988  3.3407
   26MOL0     H 3567  11.323   4.820   1.892  1.6403  1.3803 -3.9961
   26MOL0     H 3568  11.578   4.566   0.796  1.8996 -1.3621 -2.9420
   26MOL0     H 3569  11.522   4.571   0.540 -0.8878 -0.8892  0.6411
   26MOL0     H 3570  11.583   4.591   0.271  1.3551  1.2850  0.4298
   26MOL0     H 3571  11.589   4.482   0.057  0.3436  0.1570 -1.6030
   26MOL0     H 3572  10.088   3.918   0.030  0.2767  1.2072 -2.6874
   26MOL0     H 3573   9.921   3.800   0.176 -0.1630 -0.3887  1.1914
   26MOL0     H 3574   9.569   3.666   0.231 -1.4245  0.5310  0.9946
   26MOL0     H 3575   9.367   3.577   0.325 -0.3147 -1.2632 -0.2093
   26MOL0     H 3576   9.202   3.279   0.585 -0.0950 -0.5064  2.3510
   26MOL0     H 3577   9.380   3.242   0.597  2.9314  1.7689  0.2461
   26MOL0     H 3578   9.298   3.329   0.805 -2.3034  0.5834  0.6383
   26MOL0     H 3579   9.207   3.457   0.723  0.9526  0.4004  3.9177
   26MOL0     H 3580   9.504   3.461   0.755 -0.3903 -1.1366  1.6452
   26MOL0     H 3581   9.419   3.590   0.666 -0.1601 -1.3404 -1.1056
   26MOL0     H 3582   9.368   3.517   0.962 -1.8937 -3.0420 -1.8431
   26MOL0     H 3583   9.279   3.634   0.852 -0.3794 -0.2002 -1.2636
   26MOL0     H 3584   9.617   3.861   0.994 -0.3025 -0.2157  1.6158
   26MOL0     H 3585   9.586   3.272   0.530  0.2783  1.7608  1.6283
   26MOL0     H 3586   9.791   3.212   0.461 -1.8108  1.1794  0.6921
   26MOL0     H 3587   9.900   3.322   0.364 -1.5065  1.0271 -1.0725
   26MOL0     H 3588   9.861   3.348   0.538  3.2435  1.2500 -1.1767
   27MOL0     O 3589   0.087   3.641   8.473 -0.3555  0.8547 -0.5126
   27MOL0     C 3590   0.033   3.548   8.532 -0.1941  0.1427 -0.6292
   27MOL0     O 3591   0.097   3.467   8.613  0.7462 -0.7482 -0.0474
   27MOL0     C 3592   0.223   3.501   8.660  1.0341 -0.3217 -0.2679
   27MOL0     C 3593   0.306   3.389   8.692 -0.0915 -0.6886  0.7764
   27MOL0     C 3594   0.426   3.404   8.761 -0.5124 -0.8417  0.0666
   27MOL0     C 3595   0.478   3.533   8.780  0.7876  0.7928  0.3272
   27MOL0     O 3596   0.613   3.533   8.817 -0.1949  0.2629 -0.2553
   27MOL0     C 3597   0.662   3.653   8.884 -0.0260  0.0749 -0.4350
   27MOL0     C 3598   0.805   3.629   8.960  0.8701 -0.3913  0.0708
   27MOL0     C 3599   0.924   3.641   8.863  0.0912 -0.5898  0.3818
   27MOL0     C 3600   0.982   3.789   8.854  0.0879  0.1560 -0.1426
   27MOL0     C 3601   1.105   3.809   8.769 -0.0256 -0.2305  0.4436
   27MOL0     C 3602   1.120   3.965   8.749 -0.2876 -0.3697  0.1744
   27MOL0     C 3603   1.262   3.996   8.693  0.7774 -0.1430  0.0100
   27MOL0     C 3604   1.277   3.922   8.555 -0.8261 -0.6845 -0.4320
   27MOL0     N 3605   1.400   3.964   8.488  0.0276 -0.4774  0.3836
   27MOL0     C 3606   1.525   3.904   8.504 -0.1493 -0.6765 -0.2233
   27MOL0     C 3607   1.602   3.950   8.404 -0.6048 -0.4756  0.4062
   27MOL0     C 3608   1.744   3.906   8.381  0.3392  0.2296  0.4107
   27MOL0     C 3609   1.843   3.980   8.470  1.0450 -0.7600  1.0150
   27MOL0     C 3610   1.985   3.945   8.408 -0.2355  0.5401 -0.1536
   27MOL0     C 3611   2.037   3.810   8.461 -0.3385 -0.0819 -0.4859
   27MOL0     O 3612   2.167   3.781   8.402 -0.0499  0.2911  0.5560
   27MOL0     C 3613   2.280   3.762   8.478 -0.4860 -1.2891 -0.1612
   27MOL0     C 3614   2.285   3.690   8.597 -0.6082 -0.4672 -0.0812
   27MOL0     C 3615   2.408   3.662   8.663  0.1741 -0.6098 -0.1005
   27MOL0     C 3616   2.398   3.571   8.782 -0.3975  0.1650 -0.2383
   27MOL0     C 3617   2.525   3.736   8.621 -1.3804  0.8830  0.6282
   27MOL0     C 3618   2.661   3.709   8.692  0.6815 -1.4823  0.4095
   27MOL0     O 3619   2.683   3.593   8.766  0.6831 -0.7381  0.8521
   27MOL0     C 3620   2.800   3.603   8.845  0.0992 -0.4888  0.5166
   27MOL0     C 3621   2.934   3.609   8.799 -1.4528  0.6069  0.3559
   27MOL0     C 3622   3.037   3.628   8.890 -1.1609 -0.1144 -0.1537
   27MOL0     C 3623   3.016   3.627   9.026 -1.3595  0.1183  1.0644
   27MOL0     O 3624   3.127   3.629   9.115  0.3045 -0.2042 -0.8419
   27MOL0     C 3625   3.271   3.649   9.086 -0.3851 -0.3013  0.4350
   27MOL0     C 3626   3.337   3.752   9.185  0.4374 -0.8586  0.3199
   27MOL0     C 3627   3.332   3.715   9.332 -0.2206 -0.0879  0.2587
   27MOL0     C 3628   3.409   3.821   9.407  0.1995 -0.0126  0.1764
   27MOL0     C 3629   3.392   3.803   9.561 -0.4083  0.2353  0.3760
   27MOL0     C 3630   3.449   3.924   9.644  0.1587 -0.7793  0.4938
   27MOL0     C 3631   3.602   3.942   9.627  0.3963  0.3964  1.2923
   27MOL0     C 3632   3.668   4.058   9.707 -0.3215 -0.9055 -0.8230
   27MOL0    Cl 3633   3.592   4.214   9.676  0.1433 -0.0577  0.2765
   27MOL0     C 3634   2.885   3.629   9.076  0.2321 -0.6058  0.6171
   27MOL0     C 3635   2.779   3.612   8.984 -0.1076 -0.1930  0.5662
   27MOL0     O 3636   2.744   3.797   8.679  0.5514 -0.3331 -0.2541
   27MOL0     C 3637   2.514   3.829   8.522 -0.2278  0.1583 -0.4468
   27MOL0     C 3638   2.390   3.843   8.445 -0.3485 -0.1503  0.2926
   27MOL0     N 3639   1.527   4.039   8.327  0.2670  0.1100 -0.2320
   27MOL0     N 3640   1.406   4.041   8.377 -0.4817 -0.4785 -0.4546
   27MOL0     C 3641   0.400   3.651   8.747 -0.0122 -0.7093  0.6689
   27MOL0     C 3642   0.270   3.630   8.706  0.4139  0.0735  0.3930
   27MOL0     C 3643  -0.100   3.499   8.493  0.1570 -0.5632  0.3740
   27MOL0     C 3644  -0.163   3.405   8.581  0.2853  0.8178  0.2801
   27MOL0     C 3645  -0.291   3.373   8.567 -0.5183  0.0571 -0.1997
   27MOL0     C 3646  -0.367   3.420   8.461 -0.1344  0.4343  0.4864
   27MOL0     O 3647  -0.500   3.396   8.476 -0.0092  0.2200  0.8284
   27MOL0     C 3648  -0.586   3.467   8.384 -0.6102  0.2298 -0.1924
   27MOL0     C 3649  -0.731   3.461   8.418 -0.6491 -0.9121  0.1993
   27MOL0     C 3650  -0.832   3.540   8.330  1.2639 -0.7041  0.5996
   27MOL0     C 3651  -0.864   3.469   8.198  0.1439  1.1145  0.2220
   27MOL0     C 3652  -0.944   3.340   8.237 -0.2276  0.7109 -0.6634
   27MOL0     C 3653  -1.020   3.249   8.247  0.3124 -0.9728 -0.3816
   27MOL0     C 3654  -0.311   3.512   8.371 -0.3789  0.2684  0.0349
   27MOL0     C 3655  -0.174   3.554   8.391  0.0416  0.3719 -0.0907
   27MOL0     C 3656  -0.122   3.640   8.279  0.1868 -0.1157  1.3230
   27MOL0     H 3657   0.262   3.292   8.672 -2.5628  0.1669  1.6830
   27MOL0     H 3658   0.493   3.325   8.793  0.1874  0.7078  2.7677
   27MOL0     H 3659   0.583   3.677   8.956  2.0726  0.1373  2.0394
   27MOL0     H 3660   0.671   3.733   8.811  0.8904 -0.3385 -0.7927
   27MOL0     H 3661   0.826   3.699   9.041  1.5709 -2.1159  1.4373
   27MOL0     H 3662   0.795   3.528   9.001 -1.7028 -0.0949  0.3609
   27MOL0     H 3663   1.012   3.586   8.898  1.4586  0.3196 -1.4676
   27MOL0     H 3664   0.885   3.611   8.765 -1.5119  0.7243  0.5682
   27MOL0     H 3665   0.903   3.859   8.826  1.0338  1.1677 -0.3366
   27MOL0     H 3666   1.012   3.823   8.954  1.0287  0.6610 -0.5844
   27MOL0     H 3667   1.093   3.761   8.671 -1.0673  1.1161 -0.1140
   27MOL0     H 3668   1.193   3.754   8.802  1.0095  1.3337  0.3804
   27MOL0     H 3669   1.040   3.994   8.681  0.1177  3.9592  1.2676
   27MOL0     H 3670   1.100   4.021   8.841 -2.9907  1.0963 -1.1931
   27MOL0     H 3671   1.333   3.958   8.767  0.3480  0.6062  0.8195
   27MOL0     H 3672   1.277   4.103   8.681  0.2692  0.3274  2.8390
   27MOL0     H 3673   1.283   3.813   8.549  1.4354 -0.5593 -1.1029
   27MOL0     H 3674   1.197   3.960   8.490  0.4880  3.5097  0.0856
   27MOL0     H 3675   1.551   3.827   8.576 -0.4126 -0.0291  0.5769
   27MOL0     H 3676   1.763   3.925   8.275  2.3304  1.5045  0.9322
   27MOL0     H 3677   1.750   3.798   8.402  2.4403  0.2549  0.1507
   27MOL0     H 3678   1.826   4.088   8.465 -2.3277 -1.2393 -1.3755
   27MOL0     H 3679   1.833   3.941   8.571 -1.6220 -0.2895  1.0232
   27MOL0     H 3680   1.973   3.920   8.302 -0.0807 -2.6261  0.4712
   27MOL0     H 3681   2.065   4.020   8.413  1.5813 -1.3328  0.2901
   27MOL0     H 3682   2.048   3.813   8.570 -0.6472  1.7057 -0.4855
   27MOL0     H 3683   1.965   3.731   8.439 -1.0890  0.4683 -0.0248
   27MOL0     H 3684   2.190   3.645   8.625 -0.7457 -0.4433 -0.4940
   27MOL0     H 3685   2.423   3.629   8.871 -4.3115  1.9514 -0.1197
   27MOL0     H 3686   2.452   3.475   8.777 -1.8988 -0.7146 -0.0708
   27MOL0     H 3687   2.295   3.543   8.803  0.7351 -3.1234  1.6619
   27MOL0     H 3688   2.949   3.602   8.692 -5.4213 -0.8362 -0.2696
   27MOL0     H 3689   3.133   3.648   8.844 -1.3524 -0.6826 -0.8190
   27MOL0     H 3690   3.327   3.556   9.093 -0.4220 -0.4148 -0.6485
   27MOL0     H 3691   3.275   3.690   8.985  2.2602  0.6017  0.8159
   27MOL0     H 3692   3.439   3.787   9.166 -0.1665  1.0532  0.3926
   27MOL0     H 3693   3.280   3.845   9.177  2.2809  0.2058 -1.4512
   27MOL0     H 3694   3.362   3.612   9.354  1.6856  0.0050 -1.5645
   27MOL0     H 3695   3.227   3.716   9.364  0.4677 -0.4931  2.7766
   27MOL0     H 3696   3.374   3.920   9.377  0.7266 -0.2057 -1.1225
   27MOL0     H 3697   3.513   3.821   9.374 -0.8106 -1.6001 -3.5904
   27MOL0     H 3698   3.285   3.796   9.582  0.0025 -1.4412  2.2259
   27MOL0     H 3699   3.434   3.705   9.585 -2.9750 -1.0497 -0.0341
   27MOL0     H 3700   3.429   3.914   9.751 -0.0018  2.7750  0.9008
   27MOL0     H 3701   3.401   4.016   9.611  1.6915 -0.8710 -2.3287
   27MOL0     H 3702   3.621   3.970   9.523 -1.4319  0.9507  1.0675
   27MOL0     H 3703   3.656   3.854   9.663  1.0185  0.9378  1.6958
   27MOL0     H 3704   3.777   4.067   9.696 -0.2267  1.2510  1.1562
   27MOL0     H 3705   3.652   4.057   9.815  2.0561  2.7976 -0.2454
   27MOL0     H 3706   2.867   3.658   9.179 -2.6996  0.8271 -0.1860
   27MOL0     H 3707   2.676   3.625   9.015  0.5070  4.4427  1.3800
   27MOL0     H 3708   2.599   3.883   8.481 -1.1665  1.5313 -0.6761
   27MOL0     H 3709   2.399   3.900   8.353  1.5273 -0.7009  0.0746
   27MOL0     H 3710   0.438   3.752   8.754  0.4488 -0.9005  1.0143
   27MOL0     H 3711   0.215   3.719   8.677 -0.0648 -0.9026 -1.9740
   27MOL0     H 3712  -0.102   3.359   8.658 -0.7563 -0.7095  0.2309
   27MOL0     H 3713  -0.328   3.303   8.642 -0.1570  0.5831  0.4757
   27MOL0     H 3714  -0.569   3.575   8.378 -1.1720  0.3100 -0.4485
   27MOL0     H 3715  -0.578   3.427   8.283 -2.8217 -2.1784  0.4615
   27MOL0     H 3716  -0.742   3.506   8.517 -1.8174  1.0493 -0.7709
   27MOL0     H 3717  -0.753   3.354   8.426  2.6717 -1.5842  2.3242
   27MOL0     H 3718  -0.927   3.551   8.384  1.4709  0.9781  0.6889
   27MOL0     H 3719  -0.783   3.634   8.303  2.0174 -1.2833 -0.0925
   27MOL0     H 3720  -0.770   3.432   8.156  0.8538  0.6465  2.1090
   27MOL0     H 3721  -0.925   3.524   8.127 -1.1435 -1.2630 -0.6456
   27MOL0     H 3722  -1.091   3.169   8.242  1.6445 -2.2431  0.4403
   27MOL0     H 3723  -0.369   3.565   8.297  0.0090  2.7221  1.3669
   27MOL0     H 3724  -0.020   3.607   8.257 -0.3942 -2.9202  2.3495
   27MOL0     H 3725  -0.184   3.632   8.190  1.5261  3.1983 -0.0550
   27MOL0     H 3726  -0.135   3.743   8.314 -3.3733  0.1745 -0.4539
   28MOL0     O 3727   0.376   5.945   3.902 -0.4971 -0.2802  0.6581
   28MOL0     C 3728   0.377   5.825   3.866  0.3330  0.3635  0.6063
   28MOL0     O 3729   0.326   5.723   3.938 -0.2810  0.1974 -0.0410
   28MOL0     C 3730   0.296   5.754   4.070 -0.9348 -0.0750  0.9381
   28MOL0     C 3731   0.156   5.754   4.099  0.3267 -0.1950 -0.3655
   28MOL0     C 3732   0.134   5.777   4.233  1.0857  0.4862  0.5256
   28MOL0     C 3733   0.237   5.806   4.329  0.1102  0.2488  0.0029
   28MOL0     O 3734   0.207   5.821   4.465 -0.6581 -0.4771  0.5597
   28MOL0     C 3735   0.074   5.800   4.524  1.1689  0.5710  0.4648
   28MOL0     C 3736   0.100   5.788   4.677 -0.0456 -0.3239  0.5232
   28MOL0     C 3737   0.116   5.641   4.715 -0.6608 -0.2047  0.0615
   28MOL0     C 3738   0.245   5.581   4.652  0.2394 -0.1585  0.3837
   28MOL0     C 3739   0.266   5.429   4.686 -0.7964 -0.0439  0.0198
   28MOL0     C 3740   0.411   5.402   4.659 -0.2206 -0.3216 -0.0321
   28MOL0     C 3741   0.446   5.411   4.517 -0.0825 -0.9424 -0.5407
   28MOL0     C 3742   0.377   5.282   4.448 -0.0613 -0.1424 -0.1232
   28MOL0     N 3743   0.431   5.263   4.315 -0.1328  0.8910  0.1721
   28MOL0     C 3744   0.395   5.335   4.209 -0.2296  0.1240  0.3863
   28MOL0     C 3745   0.464   5.281   4.099  0.5846  0.4635 -0.3606
   28MOL0     C 3746   0.470   5.334   3.959 -0.1599  0.3073  0.4366
   28MOL0     C 3747   0.502   5.217   3.854 -0.2718  0.1552  0.9208
   28MOL0     C 3748   0.511   5.268   3.704  0.0285 -0.3807  0.5271
   28MOL0     C 3749   0.639   5.348   3.679 -0.2575  0.3088  0.1373
   28MOL0     O 3750   0.755   5.275   3.688 -0.6518 -0.1507  0.0029
   28MOL0     C 3751   0.868   5.306   3.614  0.1717  0.4076  0.7503
   28MOL0     C 3752   0.876   5.425   3.540  0.8996  1.0078  0.8105
   28MOL0     C 3753   0.997   5.460   3.478  0.7723 -0.0221 -0.8705
   28MOL0     C 3754   1.012   5.599   3.429  0.1772  0.3796 -0.6092
   28MOL0     C 3755   1.109   5.372   3.475  0.1456 -0.8289 -0.4566
   28MOL0     C 3756   1.239   5.404   3.405  0.7839 -0.2590 -0.4461
   28MOL0     O 3757   1.229   5.467   3.293  0.5755 -0.0544 -0.2918
   28MOL0     C 3758   1.336   5.502   3.217 -0.2816 -0.3742 -0.6517
   28MOL0     C 3759   1.389   5.403   3.141 -0.3962  0.0661 -0.0005
   28MOL0     C 3760   1.501   5.435   3.064 -0.0172  0.2547 -0.1953
   28MOL0     C 3761   1.553   5.565   3.060 -0.2952  0.0110 -0.6413
   28MOL0     O 3762   1.668   5.595   2.987  0.1795 -0.0922  0.1198
   28MOL0     C 3763   1.727   5.501   2.891 -0.1791  0.0912  0.1224
   28MOL0     C 3764   1.842   5.558   2.807 -0.0889 -0.7737 -0.2807
   28MOL0     C 3765   1.903   5.451   2.719 -0.5151  0.1876  0.1500
   28MOL0     C 3766   2.011   5.518   2.624 -0.1444  1.6041 -0.6511
   28MOL0     C 3767   2.141   5.550   2.707 -0.0107 -0.5336  1.0536
   28MOL0     C 3768   2.232   5.655   2.640  0.2099 -0.2636  0.0308
   28MOL0     C 3769   2.354   5.695   2.711 -0.4558  0.5777 -0.3349
   28MOL0     C 3770   2.475   5.737   2.618 -0.2130 -0.1440 -0.1612
   28MOL0    Cl 3771   2.412   5.831   2.483  0.2627 -0.7076 -0.0607
   28MOL0     C 3772   1.494   5.664   3.136  0.8888 -0.2840 -0.3834
   28MOL0     C 3773   1.383   5.637   3.209 -0.4441 -0.1429 -0.6632
   28MOL0     O 3774   1.341   5.353   3.442 -0.0317 -0.0665  0.0388
   28MOL0     C 3775   1.098   5.246   3.546 -0.1694 -0.4078 -0.0458
   28MOL0     C 3776   0.977   5.221   3.617  0.1113 -0.0911  0.4430
   28MOL0     N 3777   0.553   5.198   4.147 -0.3620  0.6833  0.7367
   28MOL0     N 3778   0.525   5.175   4.270 -0.4771 -0.6029  0.6357
   28MOL0     C 3779   0.371   5.808   4.293 -0.0354  0.6162  0.3839
   28MOL0     C 3780   0.404   5.787   4.161  1.0475 -0.7722  0.1137
   28MOL0     C 3781   0.439   5.791   3.737 -0.4811  1.2810 -0.2833
   28MOL0     C 3782   0.558   5.855   3.709  0.7946 -0.3188 -0.3133
   28MOL0     C 3783   0.629   5.821   3.599 -0.7388  0.3306  0.1068
   28MOL0     C 3784   0.586   5.715   3.508  0.4130 -0.2285 -0.3585
   28MOL0     O 3785   0.663   5.672   3.405 -0.1500 -0.5572  0.4254
   28MOL0     C 3786   0.632   5.736   3.282  0.0525  0.1541  0.4892
   28MOL0     C 3787   0.697   5.878   3.277  0.3741 -0.3275 -0.4721
   28MOL0     C 3788   0.847   5.885   3.271  0.0060 -0.2662 -0.1798
   28MOL0     C 3789   0.909   5.799   3.162 -0.0341  0.3571  0.9557
   28MOL0     C 3790   1.056   5.820   3.166  0.3815 -0.5202  0.1494
   28MOL0     C 3791   1.171   5.862   3.158  1.1299  1.2362  0.4618
   28MOL0     C 3792   0.471   5.650   3.530 -0.0232  0.4951 -0.1788
   28MOL0     C 3793   0.407   5.687   3.644  0.7409  0.2703 -0.6964
   28MOL0     C 3794   0.293   5.587   3.672 -0.7920 -0.5135 -0.7499
   28MOL0     H 3795   0.077   5.734   4.028  0.4405 -0.5002 -0.4072
   28MOL0     H 3796   0.028   5.784   4.256  0.3686  2.4730 -2.6218
   28MOL0     H 3797   0.031   5.703   4.496  1.6039  0.5263 -0.0749
   28MOL0     H 3798   0.010   5.888   4.517  0.8501  0.2433 -1.0399
   28MOL0     H 3799   0.195   5.838   4.698 -0.7593  1.1117  0.3955
   28MOL0     H 3800   0.017   5.831   4.733 -1.9268 -1.3839 -1.3117
   28MOL0     H 3801   0.124   5.629   4.824  0.5197  1.8233  0.2479
   28MOL0     H 3802   0.021   5.594   4.687 -1.0353  1.4127 -1.5590
   28MOL0     H 3803   0.242   5.595   4.543  1.2923  1.9669  0.5694
   28MOL0     H 3804   0.318   5.647   4.699 -1.3457 -1.3868  5.0559
   28MOL0     H 3805   0.203   5.354   4.637 -0.9346 -0.5631  0.9597
   28MOL0     H 3806   0.255   5.418   4.795  1.5795 -1.9176  0.1528
   28MOL0     H 3807   0.469   5.472   4.721 -0.7567 -0.0267  0.1444
   28MOL0     H 3808   0.444   5.304   4.695  0.5134 -0.4972 -1.1567
   28MOL0     H 3809   0.552   5.383   4.516 -0.1576 -1.6102  2.2091
   28MOL0     H 3810   0.427   5.505   4.464 -1.7485 -1.0587 -0.1835
   28MOL0     H 3811   0.391   5.191   4.507 -1.1676 -0.3686 -0.1932
   28MOL0     H 3812   0.269   5.293   4.437 -0.0063 -0.8228 -1.5995
   28MOL0     H 3813   0.325   5.417   4.199  1.9572  1.8457 -3.3443
   28MOL0     H 3814   0.552   5.406   3.955  0.7126 -0.6129  1.2367
   28MOL0     H 3815   0.375   5.379   3.927 -0.5615 -1.6399 -1.3190
   28MOL0     H 3816   0.601   5.175   3.875 -1.0009 -1.0326  2.1795
   28MOL0     H 3817   0.426   5.139   3.844 -0.9913  0.9345  0.1816
   28MOL0     H 3818   0.510   5.182   3.636 -1.7566 -0.7796  1.0121
   28MOL0     H 3819   0.422   5.328   3.685  1.8627  3.1497  2.0606
   28MOL0     H 3820   0.621   5.382   3.576  1.8760 -0.6805 -0.6246
   28MOL0     H 3821   0.631   5.433   3.747 -0.1841 -0.0674  0.6192
   28MOL0     H 3822   0.795   5.498   3.538 -0.4147 -0.4238  0.0109
   28MOL0     H 3823   0.913   5.644   3.440 -0.4154 -0.9755 -0.2033
   28MOL0     H 3824   1.029   5.593   3.321 -3.5933  0.9803 -1.3918
   28MOL0     H 3825   1.089   5.656   3.480  1.4967  0.3084 -2.4336
   28MOL0     H 3826   1.364   5.298   3.136 -3.7076  0.7892 -1.1143
   28MOL0     H 3827   1.548   5.358   3.004 -3.7751 -3.0026  0.5839
   28MOL0     H 3828   1.768   5.413   2.942 -1.1617 -0.9644 -0.8348
   28MOL0     H 3829   1.654   5.451   2.826  2.5529 -4.4683  0.1528
   28MOL0     H 3830   1.795   5.634   2.743 -3.7397 -2.4821  0.0862
   28MOL0     H 3831   1.928   5.593   2.865  0.3766 -0.5354 -1.0921
   28MOL0     H 3832   1.824   5.411   2.654  0.1161 -0.4906 -0.2102
   28MOL0     H 3833   1.953   5.369   2.772 -0.6093  0.5014  0.7354
   28MOL0     H 3834   1.954   5.598   2.575 -3.0297 -1.1198 -2.1165
   28MOL0     H 3835   2.038   5.445   2.547  1.0857  0.6644  0.6182
   28MOL0     H 3836   2.120   5.589   2.807 -1.2015 -1.9502  1.3883
   28MOL0     H 3837   2.206   5.463   2.716  0.6073 -0.1565  0.3542
   28MOL0     H 3838   2.168   5.740   2.617 -1.2448 -1.7113 -1.6218
   28MOL0     H 3839   2.263   5.619   2.541 -1.1572  1.1453 -0.9713
   28MOL0     H 3840   2.374   5.606   2.770 -2.7145 -0.5945 -1.2552
   28MOL0     H 3841   2.330   5.779   2.777 -2.5880  0.5369 -1.0060
   28MOL0     H 3842   2.521   5.660   2.555 -1.4002  0.0343 -1.2847
   28MOL0     H 3843   2.534   5.804   2.681 -2.2698  1.3071  0.3242
   28MOL0     H 3844   1.539   5.763   3.133  2.2248 -0.8193  1.0233
   28MOL0     H 3845   1.340   5.718   3.267 -2.5655 -0.5097 -1.6216
   28MOL0     H 3846   1.180   5.178   3.567  1.0118  0.9532 -0.1174
   28MOL0     H 3847   0.960   5.137   3.684 -1.1316 -0.8286 -0.7433
   28MOL0     H 3848   0.456   5.817   4.361  0.6737  0.4335 -0.4591
   28MOL0     H 3849   0.507   5.802   4.131  0.9424  2.2426  0.8857
   28MOL0     H 3850   0.599   5.937   3.767 -1.0632  2.2664 -2.4169
   28MOL0     H 3851   0.729   5.858   3.576 -0.4789  0.8112  1.8987
   28MOL0     H 3852   0.672   5.675   3.200  0.4848 -0.5524  1.2128
   28MOL0     H 3853   0.525   5.741   3.262 -0.0162 -1.6040  0.2126
   28MOL0     H 3854   0.653   5.933   3.361 -1.5369 -3.2163  0.5692
   28MOL0     H 3855   0.663   5.927   3.186 -0.2581  0.4286  0.1614
   28MOL0     H 3856   0.879   5.990   3.270  2.0881 -0.6501 -5.2385
   28MOL0     H 3857   0.889   5.846   3.364  1.0580  1.0088 -0.0856
   28MOL0     H 3858   0.878   5.827   3.061  0.6043 -0.8866  0.3933
   28MOL0     H 3859   0.898   5.692   3.178 -0.3420  0.3102  0.4625
   28MOL0     H 3860   1.271   5.901   3.155  1.7164 -0.1538 -2.9266
   28MOL0     H 3861   0.434   5.564   3.476 -2.4350 -0.2851  2.5184
   28MOL0     H 3862   0.326   5.521   3.753 -2.7480 -0.7154 -0.0691
   28MOL0     H 3863   0.214   5.649   3.715  0.4025 -0.8411  2.1379
   28MOL0     H 3864   0.262   5.526   3.587  1.2447 -0.7305 -1.3898
   29MOL0     O 3865   7.840   2.444   1.865 -0.3094 -0.1411  0.3932
   29MOL0     C 3866   7.852   2.372   1.965 -0.0575 -0.5577 -0.1672
   29MOL0     O 3867   7.926   2.263   1.969 -0.3255  0.0853 -0.8795
   29MOL0     C 3868   8.014   2.237   1.867 -0.3779 -0.2085 -0.6288
   29MOL0     C 3869   7.989   2.137   1.779 -0.4395 -0.2414  0.2935
   29MOL0     C 3870   8.069   2.115   1.666  0.3634 -0.4340 -0.5124
   29MOL0     C 3871   8.174   2.206   1.638  0.4098 -0.1850 -0.3513
   29MOL0     O 3872   8.252   2.164   1.536  1.4900 -0.2369  0.2972
   29MOL0     C 3873   8.324   2.272   1.473 -0.1839  0.3773  0.2383
   29MOL0     C 3874   8.470   2.293   1.522 -0.0412 -0.1805  0.4346
   29MOL0     C 3875   8.559   2.173   1.512 -0.4048 -0.3107  0.5394
   29MOL0     C 3876   8.705   2.196   1.539 -0.0042  1.1524 -0.0075
   29MOL0     C 3877   8.779   2.058   1.545 -0.8504 -0.6664  0.2128
   29MOL0     C 3878   8.923   2.097   1.570 -0.4904  0.3687 -0.1559
   29MOL0     C 3879   9.008   1.973   1.598  0.6888 -0.2739  0.2542
   29MOL0     C 3880   9.025   1.878   1.477  0.8574 -0.0412  0.7918
   29MOL0     N 3881   9.148   1.798   1.479  0.1519  0.3694  0.1676
   29MOL0     C 3882   9.146   1.668   1.524 -0.6470 -1.2124 -0.1363
   29MOL0     C 3883   9.273   1.617   1.517  0.0262  0.6535 -0.5530
   29MOL0     C 3884   9.308   1.479   1.545  0.2356 -0.0863 -1.1615
   29MOL0     C 3885   9.396   1.413   1.454 -0.8199 -0.2051  0.4846
   29MOL0     C 3886   9.322   1.391   1.320  0.1944  0.0665  0.0167
   29MOL0     C 3887   9.414   1.330   1.218 -0.5289 -0.7937  0.9044
   29MOL0     O 3888   9.445   1.190   1.237  0.5297 -1.2476 -0.0120
   29MOL0     C 3889   9.557   1.147   1.175 -0.0210 -0.2364 -0.0718
   29MOL0     C 3890   9.615   1.204   1.057 -0.7702  0.2634  0.8328
   29MOL0     C 3891   9.721   1.144   0.989 -0.1569 -0.1128 -0.4438
   29MOL0     C 3892   9.759   1.219   0.861  0.0329  0.1569 -0.6971
   29MOL0     C 3893   9.777   1.020   1.036 -1.3919 -0.1909 -0.1956
   29MOL0     C 3894   9.898   0.948   0.979  0.8038  0.5117  0.1083
   29MOL0     O 3895   9.952   0.850   1.056  0.1308  0.3961  0.2516
   29MOL0     C 3896  10.066   0.793   1.007 -0.1503  0.2142 -0.4088
   29MOL0     C 3897  10.183   0.859   0.979  0.2753 -0.5564 -0.3008
   29MOL0     C 3898  10.304   0.797   0.943 -0.0901 -0.5828 -0.3547
   29MOL0     C 3899  10.303   0.660   0.931 -0.1331 -0.1948 -0.0505
   29MOL0     O 3900  10.417   0.586   0.895  0.2961 -0.1690 -0.0185
   29MOL0     C 3901  10.500   0.553   1.009  0.3847 -0.5366 -0.1972
   29MOL0     C 3902  10.634   0.585   0.956 -0.0070 -0.4922  0.0595
   29MOL0     C 3903  10.636   0.735   0.923 -0.8536  0.1395 -0.0637
   29MOL0     C 3904  10.783   0.773   0.904 -0.5450 -1.1958  0.0927
   29MOL0     C 3905  10.836   0.760   0.764 -0.1291 -0.1903  0.5559
   29MOL0     C 3906  10.979   0.816   0.744  1.0921  0.6485 -0.0078
   29MOL0     C 3907  11.081   0.755   0.844 -0.7078 -0.6188 -0.8473
   29MOL0     C 3908  11.216   0.745   0.780 -0.2513  0.0803  0.4409
   29MOL0    Cl 3909  11.266   0.920   0.743  0.4374 -0.5577 -0.4464
   29MOL0     C 3910  10.181   0.593   0.943 -0.5996  0.0924  0.0306
   29MOL0     C 3911  10.073   0.657   1.004  0.5678  0.5931 -0.5872
   29MOL0     O 3912   9.937   0.983   0.863 -0.6134 -0.1272 -0.2580
   29MOL0     C 3913   9.725   0.972   1.158 -0.9272  0.4387 -0.3161
   29MOL0     C 3914   9.620   1.032   1.225 -0.0618 -0.1704  0.0166
   29MOL0     N 3915   9.352   1.720   1.479 -1.1556  0.2062 -0.0767
   29MOL0     N 3916   9.276   1.828   1.462  0.4015 -0.2587  0.6534
   29MOL0     C 3917   8.197   2.312   1.724  1.8092  0.1080  0.4033
   29MOL0     C 3918   8.114   2.326   1.833  0.1821 -0.5484  0.3196
   29MOL0     C 3919   7.747   2.382   2.065 -0.7841  0.1376  0.4966
   29MOL0     C 3920   7.781   2.349   2.205  0.2037 -1.0560  0.0723
   29MOL0     C 3921   7.683   2.359   2.303  0.9336  0.4425  0.0294
   29MOL0     C 3922   7.552   2.402   2.271  0.5855 -0.3077  0.2156
   29MOL0     O 3923   7.457   2.425   2.369 -0.4924  0.1425  0.7554
   29MOL0     C 3924   7.435   2.337   2.476  0.3689 -0.6423 -0.4403
   29MOL0     C 3925   7.353   2.214   2.431  0.1796  0.9995 -0.0170
   29MOL0     C 3926   7.315   2.110   2.537 -0.1503 -0.3247  0.3477
   29MOL0     C 3927   7.227   1.993   2.488  0.1326  0.3461  0.5899
   29MOL0     C 3928   7.100   2.032   2.431 -0.5304 -0.4506 -0.0817
   29MOL0     C 3929   7.005   2.084   2.383 -0.2626  0.0587  0.0310
   29MOL0     C 3930   7.522   2.437   2.135 -0.2638  0.5860 -0.6287
   29MOL0     C 3931   7.613   2.419   2.035  0.4994  0.3683  0.3212
   29MOL0     C 3932   7.559   2.442   1.898  0.5619  0.6599  0.2224
   29MOL0     H 3933   7.904   2.072   1.798  0.1553 -1.0305  0.3376
   29MOL0     H 3934   8.046   2.036   1.595 -3.6763 -0.1558  0.2452
   29MOL0     H 3935   8.261   2.361   1.481 -1.3675 -0.2729 -1.2696
   29MOL0     H 3936   8.328   2.249   1.366  1.9042  1.2946  0.0618
   29MOL0     H 3937   8.515   2.369   1.457 -1.2956  1.3026  1.2102
   29MOL0     H 3938   8.463   2.340   1.621  1.0645  0.7402  0.0931
   29MOL0     H 3939   8.526   2.099   1.586  0.0024 -0.6610  0.3669
   29MOL0     H 3940   8.548   2.123   1.416  1.4601  0.7646 -0.2863
   29MOL0     H 3941   8.746   2.263   1.464  0.5123  1.8207  0.8620
   29MOL0     H 3942   8.709   2.244   1.637 -1.5690  1.2591  0.0334
   29MOL0     H 3943   8.771   2.004   1.450 -1.2444 -0.4182  0.1007
   29MOL0     H 3944   8.727   2.000   1.622 -1.9740 -2.2983 -1.6744
   29MOL0     H 3945   8.963   2.161   1.490  1.7220 -0.5191  0.1853
   29MOL0     H 3946   8.925   2.156   1.662  0.1195 -2.1409  1.5378
   29MOL0     H 3947   8.966   1.911   1.677  0.3940 -0.3983  0.0014
   29MOL0     H 3948   9.102   2.020   1.628 -0.0875  1.7106 -0.2912
   29MOL0     H 3949   8.939   1.813   1.460  2.1633 -2.2803  2.2806
   29MOL0     H 3950   9.029   1.944   1.390 -3.5163 -0.6907 -0.1388
   29MOL0     H 3951   9.056   1.609   1.540 -0.6730 -0.9173  0.8981
   29MOL0     H 3952   9.222   1.412   1.553  0.0292  0.3816  2.9477
   29MOL0     H 3953   9.352   1.481   1.645  0.7484 -2.5070 -1.2776
   29MOL0     H 3954   9.487   1.472   1.444 -1.7088  1.4108  1.5712
   29MOL0     H 3955   9.428   1.312   1.481  1.6079 -0.3329 -2.3307
   29MOL0     H 3956   9.231   1.332   1.315 -1.2371  2.2344 -2.2404
   29MOL0     H 3957   9.295   1.482   1.265  1.9485 -0.2996 -1.5359
   29MOL0     H 3958   9.381   1.344   1.115  2.2025 -1.3125 -0.1211
   29MOL0     H 3959   9.511   1.379   1.222 -0.6512 -0.5768  1.2268
   29MOL0     H 3960   9.586   1.302   1.021 -0.2494 -1.1966 -4.2850
   29MOL0     H 3961   9.865   1.242   0.872 -0.3168  0.4674  3.7405
   29MOL0     H 3962   9.706   1.314   0.848  0.5222  0.3110 -1.7058
   29MOL0     H 3963   9.743   1.147   0.780  0.8481 -1.4862  0.5369
   29MOL0     H 3964  10.178   0.967   0.987  0.5603 -0.6503  1.6254
   29MOL0     H 3965  10.390   0.847   0.902  2.3247 -2.4976  2.0019
   29MOL0     H 3966  10.472   0.608   1.099 -2.9731 -0.8277 -0.9120
   29MOL0     H 3967  10.496   0.446   1.032  0.5232 -0.4330  0.3327
   29MOL0     H 3968  10.707   0.565   1.035 -2.3822  0.2703  2.6164
   29MOL0     H 3969  10.658   0.532   0.863 -2.6731 -1.0617 -0.4035
   29MOL0     H 3970  10.599   0.801   1.003 -0.5264 -1.0848  1.1359
   29MOL0     H 3971  10.578   0.762   0.834 -0.6202  0.9773  0.0322
   29MOL0     H 3972  10.850   0.726   0.977  0.0507  0.1521  0.4328
   29MOL0     H 3973  10.791   0.879   0.927 -2.4691 -1.2268  1.1646
   29MOL0     H 3974  10.822   0.656   0.733 -0.0283 -0.5104  1.5626
   29MOL0     H 3975  10.781   0.823   0.693  1.2526  0.9078  0.4001
   29MOL0     H 3976  10.997   0.923   0.752  0.0846  1.3872 -4.5306
   29MOL0     H 3977  11.010   0.792   0.642 -0.6310 -0.1285 -0.3905
   29MOL0     H 3978  11.063   0.652   0.877  1.5007 -1.1093 -1.0337
   29MOL0     H 3979  11.101   0.813   0.935  0.6593 -1.0011 -0.8902
   29MOL0     H 3980  11.216   0.694   0.683  2.0495 -0.3772  0.6210
   29MOL0     H 3981  11.297   0.695   0.834  1.3078 -0.1970 -2.0147
   29MOL0     H 3982  10.166   0.487   0.925 -1.3677 -0.2382  2.3966
   29MOL0     H 3983   9.993   0.592   1.035  0.4992  0.3247 -1.3011
   29MOL0     H 3984   9.754   0.873   1.192  1.5351  1.5129  0.9513
   29MOL0     H 3985   9.586   0.987   1.317  0.8636 -0.1694  0.3668
   29MOL0     H 3986   8.273   2.388   1.709 -0.6388  2.9186  1.2767
   29MOL0     H 3987   8.124   2.421   1.885  0.6323  0.5853 -1.7437
   29MOL0     H 3988   7.884   2.321   2.227  0.7052 -0.2243 -1.1301
   29MOL0     H 3989   7.706   2.341   2.407 -0.5487 -0.3765  0.2410
   29MOL0     H 3990   7.513   2.303   2.545 -1.7576 -1.8431  1.4811
   29MOL0     H 3991   7.373   2.402   2.539  1.0632  2.4606 -2.7086
   29MOL0     H 3992   7.424   2.163   2.366  0.7106  0.9279  0.6015
   29MOL0     H 3993   7.267   2.250   2.373  0.9118  0.1863 -1.6534
   29MOL0     H 3994   7.405   2.070   2.585 -0.2149 -0.0138  0.7343
   29MOL0     H 3995   7.256   2.152   2.619 -1.7891 -2.1491  0.1684
   29MOL0     H 3996   7.192   1.948   2.582 -1.0232  2.8251  1.4464
   29MOL0     H 3997   7.280   1.916   2.431 -0.9007  0.7102 -0.9424
   29MOL0     H 3998   6.915   2.131   2.349 -0.6561 -1.6554 -1.4440
   29MOL0     H 3999   7.421   2.467   2.111  0.1161  1.3710 -1.2804
   29MOL0     H 4000   7.582   2.547   1.875  0.9108  0.5802  0.2152
   29MOL0     H 4001   7.597   2.372   1.823 -2.5391 -1.3965  0.3608
   29MOL0     H 4002   7.450   2.434   1.885  0.7353 -0.5581 -0.5563
   30MOL0     O 4003  10.166  10.662  11.302 -0.2131  0.3775  0.0838
   30MOL0     C 4004  10.086  10.691  11.394  0.0349 -0.4297  0.0561
   30MOL0     O 4005  10.115  10.760  11.509  0.3506 -0.0728  0.2485
   30MOL0     C 4006  10.228  10.834  11.530 -0.6814 -0.3790  0.4769
   30MOL0     C 4007  10.215  10.976  11.560 -0.0029 -0.2588 -0.2855
   30MOL0     C 4008  10.325  11.046  11.596  0.3698  0.5577 -0.9280
   30MOL0     C 4009  10.448  10.977  11.595  0.8517 -0.2203 -0.4068
   30MOL0     O 4010  10.564  11.034  11.632 -0.2623 -0.2573 -0.6767
   30MOL0     C 4011  10.574  11.058  11.777  0.6429  0.1801 -0.4451
   30MOL0     C 4012  10.709  11.122  11.795  0.2056  0.2749 -0.4603
   30MOL0     C 4013  10.739  11.181  11.941 -0.0386  0.0672 -0.8054
   30MOL0     C 4014  10.889  11.194  11.973 -0.4533  0.1805  0.6407
   30MOL0     C 4015  10.912  11.284  12.092 -0.0196  0.2791  0.2093
   30MOL0     C 4016  11.060  11.283  12.141  0.2006  1.1260 -0.2912
   30MOL0     C 4017  11.104  11.371  12.260 -0.2596 -0.7990  0.3953
   30MOL0     C 4018  11.064  11.520  12.251  0.1740 -0.1484  0.4320
   30MOL0     N 4019  11.124  11.600  12.148  0.5011  0.2982  0.0056
   30MOL0     C 4020  11.257  11.611  12.118  0.0586 -0.2292 -0.0424
   30MOL0     C 4021  11.256  11.708  12.019 -0.0005 -0.2963 -0.8342
   30MOL0     C 4022  11.360  11.749  11.936  0.5171  0.5044 -0.4043
   30MOL0     C 4023  11.446  11.860  12.003  0.0452 -0.5331 -0.6046
   30MOL0     C 4024  11.545  11.916  11.904 -0.8198  0.4520 -0.7011
   30MOL0     C 4025  11.657  11.986  11.982  0.1314  0.4260 -0.1915
   30MOL0     O 4026  11.726  11.895  12.071  0.1123 -0.1232  0.7118
   30MOL0     C 4027  11.852  11.925  12.113  0.7493  0.4814  0.2049
   30MOL0     C 4028  11.915  11.829  12.185  0.5265  0.2124 -0.8300
   30MOL0     C 4029  12.044  11.848  12.235 -0.5069  0.0173  0.6614
   30MOL0     C 4030  12.113  11.738  12.290  1.2666 -0.4568 -1.0456
   30MOL0     C 4031  12.111  11.979  12.210 -0.3832  0.5141  0.2292
   30MOL0     C 4032  12.248  12.013  12.246 -0.6093 -0.1070  0.9664
   30MOL0     O 4033  12.319  12.065  12.137 -0.1297  0.2488 -0.4533
   30MOL0     C 4034  12.448  12.089  12.162 -0.3445  0.5448 -0.2661
   30MOL0     C 4035  12.492  12.215  12.205 -0.0995  0.5412  0.6109
   30MOL0     C 4036  12.620  12.223  12.225 -0.0218 -1.0856 -0.1722
   30MOL0     C 4037  12.707  12.122  12.208  0.1482  0.1044  0.4584
   30MOL0     O 4038  12.834  12.146  12.237 -0.4673 -0.3062 -0.4716
   30MOL0     C 4039  12.930  12.060  12.186 -0.2762  0.5047  0.5411
   30MOL0     C 4040  13.060  12.127  12.233 -0.3447 -0.6709 -0.3769
   30MOL0     C 4041  13.174  12.021  12.207 -0.5821  0.3106  0.3247
   30MOL0     C 4042  13.325  12.062  12.226 -0.5843 -1.4522 -0.8990
   30MOL0     C 4043  13.437  11.959  12.254  0.8335  0.0064 -0.2753
   30MOL0     C 4044  13.574  12.017  12.273 -0.0172 -0.1199 -0.0508
   30MOL0     C 4045  13.632  12.078  12.152  1.2124  0.1997  0.5154
   30MOL0     C 4046  13.763  12.141  12.169  0.3216 -0.5181 -0.0578
   30MOL0    Cl 4047  13.894  12.043  12.227 -0.1098 -0.0387 -0.1445
   30MOL0     C 4048  12.661  11.990  12.180  0.2729  0.6465  0.1062
   30MOL0     C 4049  12.529  11.968  12.154  0.1716 -0.6932 -0.2970
   30MOL0     O 4050  12.295  11.991  12.357 -0.1657  0.3956 -0.7416
   30MOL0     C 4051  12.038  12.080  12.141  0.2415 -0.2885  0.0192
   30MOL0     C 4052  11.916  12.052  12.093  0.1818 -0.3320  0.1793
   30MOL0     N 4053  11.128  11.753  12.003 -0.3280  0.2049 -0.9649
   30MOL0     N 4054  11.047  11.689  12.079  0.2026  1.2867  0.1325
   30MOL0     C 4055  10.455  10.848  11.557  0.4526 -1.2202  1.0092
   30MOL0     C 4056  10.347  10.768  11.526  0.6994 -0.5576 -0.8525
   30MOL0     C 4057   9.946  10.674  11.363  0.1605 -0.6193 -0.4593
   30MOL0     C 4058   9.855  10.723  11.456 -0.1438  0.7214  0.0368
   30MOL0     C 4059   9.721  10.699  11.438 -0.2083  0.7697 -0.3145
   30MOL0     C 4060   9.664  10.663  11.313  0.2498 -0.0529  0.0868
   30MOL0     O 4061   9.530  10.639  11.295  0.3621 -0.1416 -0.1686
   30MOL0     C 4062   9.433  10.719  11.366 -0.7177 -0.4883 -0.2541
   30MOL0     C 4063   9.376  10.833  11.284  0.8319 -0.1011  0.3616
   30MOL0     C 4064   9.483  10.930  11.241 -0.0383  0.3225 -0.7385
   30MOL0     C 4065   9.426  11.051  11.173 -0.3318 -0.1469 -0.1508
   30MOL0     C 4066   9.530  11.143  11.141 -0.2978 -0.3803  0.0501
   30MOL0     C 4067   9.616  11.228  11.132 -0.2351 -0.0921 -0.0478
   30MOL0     C 4068   9.755  10.609  11.223  0.6351  0.2186 -0.1541
   30MOL0     C 4069   9.892  10.601  11.251 -0.4063  0.3140 -0.7600
   30MOL0     C 4070   9.963  10.508  11.157  0.1415 -0.0283 -0.0564
   30MOL0     H 4071  10.114  11.015  11.557  0.5160  1.2367  0.5625
   30MOL0     H 4072  10.316  11.146  11.637 -6.0072 -0.2500  0.7884
   30MOL0     H 4073  10.567  10.968  11.839  1.0348 -2.1659 -3.5859
   30MOL0     H 4074  10.502  11.132  11.813  0.3123  0.4346 -1.5878
   30MOL0     H 4075  10.784  11.042  11.792 -0.1058 -0.2091  1.9105
   30MOL0     H 4076  10.724  11.203  11.723 -2.7156  2.6830  1.4286
   30MOL0     H 4077  10.699  11.282  11.953 -0.4001 -0.0943 -0.6760
   30MOL0     H 4078  10.702  11.111  12.016 -1.9732  2.3402  0.4529
   30MOL0     H 4079  10.936  11.096  11.978  0.0498  0.4446  1.2220
   30MOL0     H 4080  10.949  11.235  11.891 -0.1784 -0.8877  0.2893
   30MOL0     H 4081  10.839  11.245  12.163  0.6264  2.0172  1.9272
   30MOL0     H 4082  10.884  11.388  12.072 -2.3457 -0.0034  1.6098
   30MOL0     H 4083  11.075  11.180  12.174 -0.8971  1.1733  0.4180
   30MOL0     H 4084  11.118  11.311  12.053 -1.1405  2.2450 -0.8437
   30MOL0     H 4085  11.211  11.365  12.278 -0.3135 -0.1646  0.9773
   30MOL0     H 4086  11.067  11.334  12.357  0.9163  1.8394  1.9381
   30MOL0     H 4087  10.958  11.547  12.243  0.3269  0.6867  1.1443
   30MOL0     H 4088  11.086  11.552  12.353  1.2345 -1.0468  0.5066
   30MOL0     H 4089  11.342  11.564  12.166 -1.3684  1.4122  4.6879
   30MOL0     H 4090  11.322  11.786  11.840 -3.8235  0.2929  1.0333
   30MOL0     H 4091  11.427  11.664  11.922 -1.2888 -0.7860 -1.7000
   30MOL0     H 4092  11.389  11.947  12.038  2.5873  1.9135 -2.1088
   30MOL0     H 4093  11.500  11.818  12.089  3.0366 -0.5047 -2.3179
   30MOL0     H 4094  11.570  11.825  11.848  1.0179  1.1132 -1.0320
   30MOL0     H 4095  11.511  11.997  11.839  2.3294  1.6677 -0.9809
   30MOL0     H 4096  11.731  12.022  11.910  1.3181 -1.9823 -0.2427
   30MOL0     H 4097  11.621  12.075  12.036  0.9711 -0.6185  2.2093
   30MOL0     H 4098  11.863  11.735  12.196 -2.2885  1.7768  0.4199
   30MOL0     H 4099  12.044  11.699  12.365 -1.3280  2.8671 -1.4364
   30MOL0     H 4100  12.214  11.769  12.319  1.0754  1.3826 -2.1846
   30MOL0     H 4101  12.125  11.665  12.209 -0.4001 -0.9207 -0.9031
   30MOL0     H 4102  12.419  12.295  12.217  0.4644  1.9159 -3.5655
   30MOL0     H 4103  12.654  12.318  12.264 -2.3056 -0.3537  0.1794
   30MOL0     H 4104  12.921  11.960  12.231  1.4100  0.2976  0.4829
   30MOL0     H 4105  12.927  12.051  12.077 -0.6979  1.8324  0.4333
   30MOL0     H 4106  13.080  12.211  12.166 -0.0169 -0.7605 -0.3953
   30MOL0     H 4107  13.064  12.165  12.335 -2.7420  0.4372 -0.6172
   30MOL0     H 4108  13.158  11.987  12.104  0.7883 -0.6422  0.4036
   30MOL0     H 4109  13.158  11.933  12.271  0.9049 -0.2838 -0.0908
   30MOL0     H 4110  13.324  12.125  12.316  0.9143 -1.2305 -1.0190
   30MOL0     H 4111  13.348  12.140  12.153 -2.5116  1.4112  1.3331
   30MOL0     H 4112  13.405  11.894  12.337  0.3552 -1.1409 -1.3218
   30MOL0     H 4113  13.431  11.889  12.170 -0.7432 -1.1420  0.7219
   30MOL0     H 4114  13.643  11.944  12.317  0.0533  0.4142  0.7333
   30MOL0     H 4115  13.562  12.101  12.342  0.3758  0.7512 -1.0258
   30MOL0     H 4116  13.561  12.150  12.109 -0.5705 -1.5437  0.3619
   30MOL0     H 4117  13.639  11.998  12.078 -3.0740  0.1293 -0.0963
   30MOL0     H 4118  13.763  12.225  12.240  2.7964 -0.8896  0.4746
   30MOL0     H 4119  13.792  12.184  12.073  0.9667 -3.2522 -1.1923
   30MOL0     H 4120  12.731  11.908  12.170  2.2927  2.0374  1.8458
   30MOL0     H 4121  12.493  11.868  12.135  5.0265 -2.9142  0.6741
   30MOL0     H 4122  12.089  12.175  12.127  0.3641 -0.6147 -2.2712
   30MOL0     H 4123  11.862  12.128  12.038  0.8628 -1.0446 -1.5572
   30MOL0     H 4124  10.553  10.800  11.559  0.1577 -1.8137  1.2852
   30MOL0     H 4125  10.344  10.666  11.490 -1.5324 -1.5732  1.8075
   30MOL0     H 4126   9.889  10.763  11.551  2.9103 -1.9574  0.2700
   30MOL0     H 4127   9.655  10.721  11.520 -1.1650  1.1831 -1.1763
   30MOL0     H 4128   9.349  10.657  11.401 -0.2430 -0.7450  0.4582
   30MOL0     H 4129   9.459  10.775  11.457 -2.3295  1.9724 -1.2145
   30MOL0     H 4130   9.304  10.884  11.347 -0.7974 -1.6066 -0.1970
   30MOL0     H 4131   9.329  10.783  11.199 -1.6796  1.2746  0.8362
   30MOL0     H 4132   9.530  10.965  11.334 -0.9371 -0.2691 -0.0522
   30MOL0     H 4133   9.547  10.878  11.169  1.0257  0.2624  0.2110
   30MOL0     H 4134   9.356  11.105  11.237 -1.1946 -1.2426 -0.1532
   30MOL0     H 4135   9.366  11.025  11.085 -0.2522 -2.3227  0.3791
   30MOL0     H 4136   9.703  11.287  11.114 -1.0511  0.6295 -1.8119
   30MOL0     H 4137   9.723  10.564  11.130  0.6108 -1.4367  0.6262
   30MOL0     H 4138  10.070  10.502  11.179 -0.1676 -1.4660  1.2061
   30MOL0     H 4139   9.927  10.405  11.160 -0.9810  0.3750  0.9727
   30MOL0     H 4140   9.952  10.551  11.057 -2.5506 -2.2020 -0.8074
   31MOL0     O 4141   2.867   8.162   2.838  0.1612 -0.2674  0.1971
   31MOL0     C 4142   2.837   8.040   2.859  0.1771  0.0392  0.2798
   31MOL0     O 4143   2.813   7.939   2.765  0.2231 -0.5850  0.2649
   31MOL0     C 4144   2.809   7.970   2.627 -0.4184  0.4726 -0.2046
   31MOL0     C 4145   2.873   8.072   2.556 -0.8129  0.3837 -0.0159
   31MOL0     C 4146   2.866   8.085   2.420 -0.4981  0.4665  0.3776
   31MOL0     C 4147   2.795   7.981   2.351 -0.6258  0.6152  0.0418
   31MOL0     O 4148   2.781   7.981   2.215  0.1322 -0.2345 -0.3166
   31MOL0     C 4149   2.898   7.926   2.154 -0.6490  0.0092  0.4525
   31MOL0     C 4150   2.881   7.950   2.006  0.3469  0.3740  0.9120
   31MOL0     C 4151   2.927   8.094   1.962 -0.1107  0.1733 -0.1256
   31MOL0     C 4152   2.948   8.095   1.811 -1.2705 -0.0469  0.0811
   31MOL0     C 4153   2.988   8.235   1.761  1.0904  0.9616  0.1954
   31MOL0     C 4154   3.085   8.309   1.839  0.4590  1.2472 -0.5079
   31MOL0     C 4155   3.107   8.452   1.794 -0.6957  1.1855 -0.6712
   31MOL0     C 4156   3.137   8.466   1.644  1.2576  0.3746 -0.4680
   31MOL0     N 4157   3.265   8.408   1.603 -0.2293 -0.8373  0.8097
   31MOL0     C 4158   3.389   8.467   1.625  0.1284 -0.0788  0.5805
   31MOL0     C 4159   3.472   8.384   1.562 -0.3728 -0.7384  0.2958
   31MOL0     C 4160   3.625   8.411   1.568  0.2092 -0.4838  0.7744
   31MOL0     C 4161   3.669   8.375   1.708  0.5192 -0.7376 -0.1728
   31MOL0     C 4162   3.816   8.423   1.725  0.2100 -0.3388 -0.2022
   31MOL0     C 4163   3.872   8.395   1.864  0.2369 -0.9704 -0.1905
   31MOL0     O 4164   3.928   8.264   1.864  0.3037  0.4209  0.4878
   31MOL0     C 4165   4.027   8.236   1.954 -0.5231  0.2951 -0.1082
   31MOL0     C 4166   4.022   8.284   2.087 -0.3688  0.3493  0.2796
   31MOL0     C 4167   4.132   8.253   2.170 -0.1201 -0.9152  1.0165
   31MOL0     C 4168   4.112   8.262   2.320 -0.5457 -0.2769  0.3825
   31MOL0     C 4169   4.256   8.196   2.115  0.1197 -0.0321  0.1290
   31MOL0     C 4170   4.388   8.167   2.180  0.0527  0.2127 -0.5553
   31MOL0     O 4171   4.479   8.119   2.096  0.2634  0.3355 -0.2106
   31MOL0     C 4172   4.591   8.059   2.164 -0.0995 -0.0674 -0.6554
   31MOL0     C 4173   4.627   7.929   2.154 -1.0793  0.4849  1.0789
   31MOL0     C 4174   4.751   7.881   2.208 -0.0820 -0.2409 -0.7240
   31MOL0     C 4175   4.843   7.973   2.259  0.0295  0.6322 -0.4823
   31MOL0     O 4176   4.965   7.934   2.319 -0.2989 -0.3805  0.5765
   31MOL0     C 4177   5.013   7.805   2.282  0.3446  0.4677  0.4276
   31MOL0     C 4178   4.976   7.704   2.388  0.3519 -0.5934 -0.3874
   31MOL0     C 4179   5.048   7.571   2.361 -0.0826 -0.1406 -0.3315
   31MOL0     C 4180   5.034   7.474   2.481 -0.2990  1.0020 -0.7562
   31MOL0     C 4181   4.896   7.447   2.539 -0.1273  0.2150  0.2661
   31MOL0     C 4182   4.816   7.358   2.443 -0.5153 -0.2710 -0.2053
   31MOL0     C 4183   4.676   7.342   2.492  1.1002  0.2764  0.6276
   31MOL0     C 4184   4.587   7.431   2.404  1.0531  0.3343 -0.2646
   31MOL0    Cl 4185   4.411   7.430   2.444 -0.1304 -0.4482 -0.2595
   31MOL0     C 4186   4.805   8.102   2.279 -0.2876 -0.5599 -0.2139
   31MOL0     C 4187   4.679   8.145   2.236  0.4618  0.2473 -0.6873
   31MOL0     O 4188   4.394   8.185   2.300 -1.3999 -0.8486  0.5900
   31MOL0     C 4189   4.246   8.153   1.980  0.1502  0.5256  0.5183
   31MOL0     C 4190   4.140   8.173   1.897 -0.0513  0.1772 -0.6214
   31MOL0     N 4191   3.402   8.274   1.503 -0.4203 -0.9093 -0.7305
   31MOL0     N 4192   3.278   8.292   1.535  0.1667  0.0991 -0.2186
   31MOL0     C 4193   2.744   7.874   2.416  0.1577  0.4993 -0.1451
   31MOL0     C 4194   2.739   7.866   2.556  0.0360 -1.0016  0.0076
   31MOL0     C 4195   2.827   8.006   3.001 -1.0995 -0.1701 -0.6389
   31MOL0     C 4196   2.754   7.886   3.023  0.2587 -0.4021 -0.1163
   31MOL0     C 4197   2.729   7.841   3.153 -0.3754  0.6165  0.4489
   31MOL0     C 4198   2.777   7.905   3.262  0.0351 -0.8193  0.0170
   31MOL0     O 4199   2.744   7.850   3.382  0.1078 -0.5003  0.1120
   31MOL0     C 4200   2.804   7.907   3.498 -0.8033 -0.0087 -0.3313
   31MOL0     C 4201   2.779   7.830   3.626 -0.1442 -0.0143  0.6696
   31MOL0     C 4202   2.847   7.887   3.742 -0.7751  0.5682  0.4434
   31MOL0     C 4203   2.793   7.830   3.866 -0.1540 -0.0575 -0.8989
   31MOL0     C 4204   2.882   7.875   3.981  0.8244  0.1261  0.0218
   31MOL0     C 4205   2.946   7.917   4.073 -0.6543  0.6211 -0.1642
   31MOL0     C 4206   2.857   8.022   3.250  0.2027 -0.0045 -0.3013
   31MOL0     C 4207   2.887   8.067   3.117 -0.8033 -0.4613  0.8209
   31MOL0     C 4208   2.991   8.182   3.114  0.1213  0.2448 -0.4023
   31MOL0     H 4209   2.940   8.145   2.600  3.1685 -1.1068 -2.9800
   31MOL0     H 4210   2.904   8.164   2.356 -1.1357  0.3235 -0.1863
   31MOL0     H 4211   2.902   7.817   2.164  0.2640 -0.1794 -1.6348
   31MOL0     H 4212   2.992   7.968   2.190 -1.6577  1.2488  1.7760
   31MOL0     H 4213   2.954   7.884   1.959  1.1902  1.2053  1.0202
   31MOL0     H 4214   2.784   7.912   1.971  0.0011 -0.7036  2.8569
   31MOL0     H 4215   2.855   8.168   1.998  3.1122  3.0718  0.8804
   31MOL0     H 4216   3.021   8.100   2.018 -0.6098 -1.9301  1.0224
   31MOL0     H 4217   3.037   8.032   1.801 -0.3903  1.1313  0.2926
   31MOL0     H 4218   2.865   8.065   1.745 -3.1315  3.1547  0.7844
   31MOL0     H 4219   2.893   8.289   1.756 -0.0351 -0.2014  4.6856
   31MOL0     H 4220   3.021   8.222   1.658  2.5236  1.7644  0.5235
   31MOL0     H 4221   3.063   8.316   1.946  2.4227  1.0806 -0.0413
   31MOL0     H 4222   3.181   8.257   1.836  0.0362  0.0906  2.2610
   31MOL0     H 4223   3.194   8.489   1.849 -1.7752  1.2109  1.1356
   31MOL0     H 4224   3.020   8.511   1.825  0.6930  1.4094  3.5335
   31MOL0     H 4225   3.058   8.420   1.585 -0.9315  1.0413  1.7428
   31MOL0     H 4226   3.124   8.573   1.622 -2.2318  0.0031 -0.6883
   31MOL0     H 4227   3.413   8.560   1.676  2.1009 -0.0177 -0.3556
   31MOL0     H 4228   3.644   8.514   1.537  0.5948 -0.5803  0.6905
   31MOL0     H 4229   3.669   8.348   1.490  1.7913  0.2070  1.0651
   31MOL0     H 4230   3.599   8.421   1.778  3.4780  2.8424  0.7523
   31MOL0     H 4231   3.672   8.266   1.717  0.1744 -0.5610  3.5090
   31MOL0     H 4232   3.889   8.386   1.653  1.3878 -0.7836  1.1620
   31MOL0     H 4233   3.799   8.531   1.719 -4.0006 -0.8986 -1.5585
   31MOL0     H 4234   3.935   8.484   1.879  1.2377 -1.6581 -0.1970
   31MOL0     H 4235   3.792   8.405   1.938  1.5280 -4.3057  1.8607
   31MOL0     H 4236   3.924   8.314   2.123 -1.8569 -3.9878  0.3912
   31MOL0     H 4237   4.135   8.162   2.358 -2.3122 -0.5782  0.7831
   31MOL0     H 4238   4.016   8.302   2.356 -0.4299 -0.4621  0.9101
   31MOL0     H 4239   4.190   8.324   2.363  1.7632 -0.8168 -2.6839
   31MOL0     H 4240   4.575   7.851   2.100  0.3040 -0.3473  0.9199
   31MOL0     H 4241   4.760   7.773   2.200 -0.8992 -0.3588 -0.1355
   31MOL0     H 4242   4.990   7.777   2.178 -0.8043 -0.3551  0.8835
   31MOL0     H 4243   5.121   7.805   2.299  0.3173 -2.2538  1.0050
   31MOL0     H 4244   5.006   7.748   2.484  4.1529 -0.7867 -1.3086
   31MOL0     H 4245   4.868   7.689   2.398  0.1637  1.0465  0.5113
   31MOL0     H 4246   5.156   7.581   2.347 -0.2803 -0.5553 -2.4208
   31MOL0     H 4247   5.004   7.527   2.272 -1.5515 -0.0346  0.3166
   31MOL0     H 4248   5.072   7.537   2.562  1.7579  0.2112 -1.0467
   31MOL0     H 4249   5.094   7.383   2.476 -0.6981  0.7093 -0.2438
   31MOL0     H 4250   4.914   7.397   2.634  1.1260 -1.0858 -0.6083
   31MOL0     H 4251   4.847   7.541   2.568 -1.2914  0.5806 -2.5523
   31MOL0     H 4252   4.861   7.259   2.439  0.9737  0.3214  0.8825
   31MOL0     H 4253   4.827   7.389   2.339  0.6209  0.8997  0.2382
   31MOL0     H 4254   4.663   7.374   2.596 -2.4536 -1.5685  0.8911
   31MOL0     H 4255   4.645   7.239   2.476  4.9690 -1.0451  0.5520
   31MOL0     H 4256   4.587   7.388   2.303  2.0857  3.1021 -1.5533
   31MOL0     H 4257   4.619   7.534   2.385  1.8171 -0.1329 -1.7034
   31MOL0     H 4258   4.885   8.169   2.310  0.9885 -1.8756 -0.5389
   31MOL0     H 4259   4.650   8.248   2.256  0.9327  0.2492  0.0145
   31MOL0     H 4260   4.328   8.111   1.924  0.5833  1.6200  0.3230
   31MOL0     H 4261   4.140   8.154   1.790 -2.6693  1.7447 -0.9954
   31MOL0     H 4262   2.684   7.804   2.359  2.6628 -0.1570 -2.1204
   31MOL0     H 4263   2.702   7.781   2.613 -0.9378 -0.9111 -0.4663
   31MOL0     H 4264   2.716   7.824   2.943 -0.5381  0.8182 -0.7118
   31MOL0     H 4265   2.672   7.752   3.175  0.0250  0.7057  1.9359
   31MOL0     H 4266   2.910   7.912   3.471 -1.0557  2.1703 -1.1170
   31MOL0     H 4267   2.769   8.010   3.511  0.6841  0.4451  0.3206
   31MOL0     H 4268   2.814   7.727   3.616  2.6255  0.8489  0.7266
   31MOL0     H 4269   2.671   7.837   3.646  0.0718  2.2118  1.3264
   31MOL0     H 4270   2.955   7.880   3.727 -0.8235 -1.7847  0.9013
   31MOL0     H 4271   2.841   7.996   3.746 -0.2321  0.6581 -0.8157
   31MOL0     H 4272   2.783   7.721   3.862  2.7774 -0.6665  3.0025
   31MOL0     H 4273   2.696   7.875   3.890  1.0485  1.2038  2.0887
   31MOL0     H 4274   2.991   7.937   4.168  2.5785 -1.5615 -1.0855
   31MOL0     H 4275   2.884   8.081   3.336 -0.3138 -2.7097  1.8743
   31MOL0     H 4276   2.964   8.278   3.068  0.1331 -0.7533 -2.6076
   31MOL0     H 4277   3.015   8.200   3.219  0.0181  0.4443 -0.4128
   31MOL0     H 4278   3.073   8.152   3.049 -0.2270  1.4300 -1.4219
   32MOL0     O 4279   3.000   0.427   1.271 -0.7198  0.1230  0.1595
   32MOL0     C 4280   2.933   0.416   1.168 -0.2388  0.1265 -0.0048
   32MOL0     O 4281   2.983   0.435   1.042 -0.0370  0.4287  0.5344
   32MOL0     C 4282   3.104   0.502   1.028 -0.2120  0.4288 -1.2012
   32MOL0     C 4283   3.108   0.616   0.963 -0.4970 -0.3852  1.4083
   32MOL0     C 4284   3.222   0.668   0.925  0.0495  0.0694  0.7905
   32MOL0     C 4285   3.348   0.607   0.957 -0.4857  0.9163 -0.7818
   32MOL0     O 4286   3.464   0.652   0.903  0.4309  0.6964 -0.0751
   32MOL0     C 4287   3.592   0.597   0.954  0.0902 -0.1654 -0.2269
   32MOL0     C 4288   3.712   0.671   0.892  0.4960  0.1831  0.2007
   32MOL0     C 4289   3.716   0.669   0.742 -0.1110  0.2466 -0.7138
   32MOL0     C 4290   3.727   0.529   0.682 -0.4003 -0.2776 -0.0321
   32MOL0     C 4291   3.774   0.519   0.536 -0.2480 -0.6676  0.8122
   32MOL0     C 4292   3.651   0.538   0.441 -0.0196 -0.3183 -0.1134
   32MOL0     C 4293   3.687   0.583   0.297 -0.3559  0.0587 -1.8995
   32MOL0     C 4294   3.772   0.485   0.215  0.8949 -0.0870 -0.7830
   32MOL0     N 4295   3.767   0.539   0.082  0.1784  0.5058  0.1876
   32MOL0     C 4296   3.823   0.651   0.022  0.0219 -1.0925 -0.1926
   32MOL0     C 4297   3.822   0.619  -0.108  0.5072 -0.8780  1.0964
   32MOL0     C 4298   3.885   0.695  -0.221 -0.5554 -0.8764  0.6979
   32MOL0     C 4299   3.992   0.614  -0.295  0.2877  0.4515  0.1161
   32MOL0     C 4300   4.071   0.706  -0.395  0.5466 -0.0478 -0.1389
   32MOL0     C 4301   4.221   0.720  -0.373  0.3274  0.6164  0.5793
   32MOL0     O 4302   4.270   0.588  -0.351 -0.1975  0.8091 -0.0059
   32MOL0     C 4303   4.390   0.563  -0.280  0.6082 -0.3909  0.0141
   32MOL0     C 4304   4.513   0.552  -0.348  0.3124 -0.7246 -0.4615
   32MOL0     C 4305   4.633   0.532  -0.276  0.7180 -0.1987  0.1414
   32MOL0     C 4306   4.756   0.545  -0.357  0.5346 -0.0092  0.5390
   32MOL0     C 4307   4.633   0.520  -0.140 -0.0188  1.1370 -1.1582
   32MOL0     C 4308   4.747   0.493  -0.050  0.3149  0.7626 -0.0243
   32MOL0     O 4309   4.731   0.520   0.092  0.7217 -0.3011  0.0305
   32MOL0     C 4310   4.846   0.532   0.171  0.1023  0.0013 -0.5324
   32MOL0     C 4311   4.884   0.652   0.219  0.1060 -0.6278 -0.4626
   32MOL0     C 4312   4.980   0.661   0.323  1.5005  0.5267  1.1413
   32MOL0     C 4313   5.051   0.547   0.366  0.4528  0.1665 -1.1754
   32MOL0     O 4314   5.151   0.577   0.452  0.1104  0.2078  0.2591
   32MOL0     C 4315   5.206   0.468   0.526  0.0196  0.1462  0.4036
   32MOL0     C 4316   5.287   0.540   0.640  0.2395  0.5015 -0.5675
   32MOL0     C 4317   5.422   0.604   0.589  1.0145  0.6508  0.2302
   32MOL0     C 4318   5.532   0.503   0.539  0.6633 -0.0673  0.9984
   32MOL0     C 4319   5.579   0.402   0.641  0.3029 -0.5319 -0.0889
   32MOL0     C 4320   5.614   0.464   0.782  0.2922 -0.3505  0.4660
   32MOL0     C 4321   5.650   0.351   0.885 -0.7575 -0.2166  0.4957
   32MOL0     C 4322   5.714   0.392   1.020  0.6464 -0.1864  0.0022
   32MOL0    Cl 4323   5.714   0.258   1.122  0.3143  0.1976 -0.0151
   32MOL0     C 4324   5.025   0.427   0.304  0.0907 -0.0439 -0.6117
   32MOL0     C 4325   4.928   0.418   0.203  0.7429  0.6014  0.2771
   32MOL0     O 4326   4.856   0.457  -0.105  0.0446  0.5014 -0.4480
   32MOL0     C 4327   4.506   0.545  -0.075  0.0469 -0.1015 -0.9142
   32MOL0     C 4328   4.391   0.566  -0.150  0.0155 -0.5139  0.0028
   32MOL0     N 4329   3.738   0.507  -0.124 -0.8695 -0.0192  0.3644
   32MOL0     N 4330   3.706   0.462  -0.012  0.1973  0.4835 -0.5883
   32MOL0     C 4331   3.346   0.493   1.029 -0.0746 -0.3281 -0.0513
   32MOL0     C 4332   3.221   0.435   1.061 -0.1730 -0.2152 -1.3801
   32MOL0     C 4333   2.783   0.385   1.157  0.5154 -0.4589 -0.4541
   32MOL0     C 4334   2.704   0.418   1.041 -1.1623 -0.3548 -0.3326
   32MOL0     C 4335   2.567   0.388   1.048  0.5726 -0.3201 -0.0051
   32MOL0     C 4336   2.495   0.338   1.169 -0.5582 -0.3390  0.0590
   32MOL0     O 4337   2.363   0.322   1.179 -0.5374  0.7312 -0.2838
   32MOL0     C 4338   2.297   0.422   1.256  0.3852  0.9688  0.8565
   32MOL0     C 4339   2.141   0.411   1.238  1.0433 -0.1074  0.8403
   32MOL0     C 4340   2.065   0.277   1.265  0.4264  0.5449  0.1176
   32MOL0     C 4341   1.929   0.280   1.208  0.4856 -1.2985  0.0473
   32MOL0     C 4342   1.837   0.166   1.243 -0.1972  0.4688 -0.2592
   32MOL0     C 4343   1.780   0.056   1.257 -0.1726  0.1448 -0.2669
   32MOL0     C 4344   2.583   0.296   1.272  1.1683  0.0745 -0.3797
   32MOL0     C 4345   2.718   0.321   1.265 -0.4198 -0.2082  0.3051
   32MOL0     C 4346   2.787   0.285   1.404 -0.8546  0.2106  0.4204
   32MOL0     H 4347   3.009   0.653   0.941 -1.2751 -1.7325  2.4755
   32MOL0     H 4348   3.222   0.760   0.866  0.5682 -0.2818  0.2359
   32MOL0     H 4349   3.600   0.491   0.929 -0.2981 -0.2084 -0.1694
   32MOL0     H 4350   3.605   0.627   1.058  3.3284 -2.5337  0.2099
   32MOL0     H 4351   3.705   0.777   0.918 -1.0117  0.4034 -0.9716
   32MOL0     H 4352   3.801   0.626   0.937  0.0871 -0.8826 -0.0121
   32MOL0     H 4353   3.632   0.728   0.704 -1.8179 -1.6629 -0.0680
   32MOL0     H 4354   3.809   0.721   0.715  1.4260 -1.2452  1.3606
   32MOL0     H 4355   3.806   0.475   0.734  1.1347  0.2259 -1.7121
   32MOL0     H 4356   3.633   0.474   0.687  0.2479 -1.5788 -1.2417
   32MOL0     H 4357   3.801   0.413   0.533 -0.1884 -0.6388  0.2780
   32MOL0     H 4358   3.850   0.594   0.513 -1.2238 -0.0984 -0.7337
   32MOL0     H 4359   3.583   0.453   0.450 -0.4619 -0.0133 -0.5170
   32MOL0     H 4360   3.587   0.609   0.494  0.3124 -0.3539  0.3376
   32MOL0     H 4361   3.740   0.678   0.308 -0.8856  0.0550  3.5416
   32MOL0     H 4362   3.596   0.598   0.237 -1.4092 -0.6235 -0.5344
   32MOL0     H 4363   3.875   0.488   0.250  1.3997  1.1663 -2.2629
   32MOL0     H 4364   3.733   0.384   0.228  3.8820 -0.9341  4.2642
   32MOL0     H 4365   3.885   0.722   0.075 -0.0331 -2.0656  1.2431
   32MOL0     H 4366   3.920   0.787  -0.174 -1.2205 -1.4653  2.4056
   32MOL0     H 4367   3.801   0.721  -0.287 -0.5694 -0.1354  0.9988
   32MOL0     H 4368   4.064   0.589  -0.216 -2.0950  1.3109  2.7473
   32MOL0     H 4369   3.949   0.523  -0.339 -0.8690  1.4955 -0.9936
   32MOL0     H 4370   4.052   0.668  -0.496  0.9379  1.0475 -0.6412
   32MOL0     H 4371   4.023   0.804  -0.390 -0.6153 -0.6299  3.9751
   32MOL0     H 4372   4.275   0.766  -0.456 -0.3857  3.4330  1.5601
   32MOL0     H 4373   4.241   0.786  -0.288  0.1489 -0.9730  1.9295
   32MOL0     H 4374   4.516   0.571  -0.454 -2.8624  0.0468 -0.5311
   32MOL0     H 4375   4.721   0.571  -0.457  0.4451 -2.6435 -0.1927
   32MOL0     H 4376   4.810   0.450  -0.367 -0.8466 -1.0247  2.1728
   32MOL0     H 4377   4.817   0.625  -0.314  2.1636 -1.9382  1.9997
   32MOL0     H 4378   4.826   0.740   0.193 -1.4961 -1.3668  0.4320
   32MOL0     H 4379   4.993   0.762   0.361 -1.6018  2.2354 -1.7803
   32MOL0     H 4380   5.132   0.397   0.563 -1.9204  2.0545  0.3584
   32MOL0     H 4381   5.281   0.424   0.459  1.0019 -0.0853  1.6177
   32MOL0     H 4382   5.219   0.614   0.681 -1.6500 -1.2752 -0.3223
   32MOL0     H 4383   5.292   0.465   0.720 -4.1685  0.9429  0.3633
   32MOL0     H 4384   5.469   0.662   0.669  0.9762  1.9409 -0.6469
   32MOL0     H 4385   5.399   0.673   0.508  0.9536 -0.2392 -0.5212
   32MOL0     H 4386   5.610   0.564   0.493  0.6499 -1.4470 -0.9283
   32MOL0     H 4387   5.480   0.457   0.455  3.8888 -1.3684 -0.4086
   32MOL0     H 4388   5.498   0.330   0.659  0.9777 -1.0111  1.2169
   32MOL0     H 4389   5.668   0.345   0.611  1.8054  2.3379 -1.4394
   32MOL0     H 4390   5.534   0.523   0.827  0.6969  1.1985 -0.7534
   32MOL0     H 4391   5.700   0.529   0.762  0.7699 -1.5854 -1.9301
   32MOL0     H 4392   5.713   0.274   0.840 -2.2849 -0.0299 -2.1815
   32MOL0     H 4393   5.557   0.296   0.903 -1.8234  1.3556 -0.0970
   32MOL0     H 4394   5.652   0.478   1.050  0.3649 -0.7000  0.9162
   32MOL0     H 4395   5.813   0.425   0.988 -0.2819  1.1531 -1.7387
   32MOL0     H 4396   5.078   0.335   0.328 -1.1162 -0.3313  1.1518
   32MOL0     H 4397   4.901   0.321   0.163  2.4475  1.3019 -2.8589
   32MOL0     H 4398   4.491   0.560   0.032 -2.3091 -1.1320 -1.0257
   32MOL0     H 4399   4.298   0.587  -0.098 -0.8153  0.6843 -1.8778
   32MOL0     H 4400   3.433   0.433   1.055  0.6918 -0.2646 -2.2859
   32MOL0     H 4401   3.223   0.342   1.117  0.3835  1.2273  1.1655
   32MOL0     H 4402   2.758   0.463   0.959  2.5146  2.1786  3.0533
   32MOL0     H 4403   2.501   0.397   0.962  0.3045  4.8335  0.4324
   32MOL0     H 4404   2.294   0.390   1.360 -1.2521 -1.7311  0.0826
   32MOL0     H 4405   2.332   0.524   1.237 -0.7790  1.6490  2.1477
   32MOL0     H 4406   2.134   0.440   1.132  2.3308  0.4574  0.8854
   32MOL0     H 4407   2.083   0.489   1.287 -1.4703 -0.9233 -0.6880
   32MOL0     H 4408   2.123   0.196   1.218 -1.2798 -0.4011 -0.4512
   32MOL0     H 4409   2.063   0.263   1.373  0.9427 -0.7322 -0.0155
   32MOL0     H 4410   1.945   0.281   1.100  1.7064 -0.4146  0.2183
   32MOL0     H 4411   1.882   0.373   1.240 -1.3411 -1.6129 -1.5509
   32MOL0     H 4412   1.726  -0.036   1.258 -0.0979  0.0901  0.8783
   32MOL0     H 4413   2.548   0.236   1.355  1.5066 -0.7799 -0.8410
   32MOL0     H 4414   2.876   0.220   1.404 -0.6718  0.3357 -2.4221
   32MOL0     H 4415   2.831   0.377   1.443  4.8314 -2.4153  1.2799
   32MOL0     H 4416   2.714   0.236   1.469 -0.5601 -0.7205  0.0683
   33MOL0     O 4417  10.665  11.404   9.961 -1.0798 -1.0542 -0.7672
   33MOL0     C 4418  10.701  11.491   9.882 -0.0988  0.2996  0.8504
   33MOL0     O 4419  10.767  11.467   9.764 -0.3365 -0.0128  0.0525
   33MOL0     C 4420  10.754  11.340   9.707 -0.5114  0.3690  0.2732
   33MOL0     C 4421  10.871  11.289   9.649 -0.4733 -0.2428  0.0511
   33MOL0     C 4422  10.868  11.166   9.576 -0.6119 -0.0209 -0.5284
   33MOL0     C 4423  10.753  11.101   9.549  0.1071  0.3474 -0.2542
   33MOL0     O 4424  10.757  10.998   9.460  0.0564  0.2600 -0.2145
   33MOL0     C 4425  10.708  10.880   9.523 -0.2938 -0.4595  0.3125
   33MOL0     C 4426  10.804  10.764   9.487  0.0183  0.0617 -0.4938
   33MOL0     C 4427  10.749  10.636   9.553  0.0714  0.8877  0.5353
   33MOL0     C 4428  10.609  10.603   9.510 -0.1513  0.4087  0.1254
   33MOL0     C 4429  10.549  10.472   9.570 -0.2362 -0.0604  0.4745
   33MOL0     C 4430  10.396  10.472   9.576  0.5662 -0.1279  0.6235
   33MOL0     C 4431  10.348  10.349   9.654 -0.1931 -0.0336  0.3442
   33MOL0     C 4432  10.196  10.347   9.648 -0.1201  0.0569 -0.3155
   33MOL0     N 4433  10.157  10.215   9.694 -0.3783 -0.1243  0.5241
   33MOL0     C 4434  10.192  10.101   9.623  0.3569 -0.3255  0.2892
   33MOL0     C 4435  10.159   9.997   9.707  0.4953  0.0496 -0.6995
   33MOL0     C 4436  10.183   9.854   9.694 -0.1804  0.4376 -0.8077
   33MOL0     C 4437  10.086   9.761   9.758 -0.6345 -0.9433  0.0200
   33MOL0     C 4438  10.113   9.621   9.706 -0.2553  0.2942  1.1991
   33MOL0     C 4439  10.054   9.523   9.807  0.2695 -0.2443 -0.2198
   33MOL0     O 4440  10.032   9.391   9.745 -0.1089 -0.4692 -0.0529
   33MOL0     C 4441  10.137   9.292   9.737  0.7294 -0.2929  0.6020
   33MOL0     C 4442  10.106   9.166   9.691  0.8739  0.6910  0.6775
   33MOL0     C 4443  10.188   9.063   9.666  0.1841 -0.4177  0.3718
   33MOL0     C 4444  10.130   8.944   9.587  0.3614  0.9257 -0.6329
   33MOL0     C 4445  10.330   9.089   9.692  0.0757 -0.1581 -0.1116
   33MOL0     C 4446  10.441   8.986   9.673  0.4055  0.2519 -0.6730
   33MOL0     O 4447  10.565   9.030   9.684  0.2842  0.2372  0.0889
   33MOL0     C 4448  10.672   8.945   9.678  0.2656  0.0873 -0.2449
   33MOL0     C 4449  10.765   8.961   9.783  0.4894 -0.7698  0.7120
   33MOL0     C 4450  10.882   8.885   9.785 -0.1656 -0.4455  0.5389
   33MOL0     C 4451  10.912   8.785   9.696  0.2171  0.2103  0.2114
   33MOL0     O 4452  11.028   8.704   9.707 -0.0112 -0.2669 -0.6730
   33MOL0     C 4453  11.123   8.755   9.802 -0.6248 -0.6180 -0.4471
   33MOL0     C 4454  11.245   8.658   9.815  0.0905  0.8473  1.2006
   33MOL0     C 4455  11.325   8.666   9.687  0.3601  0.5882 -0.2994
   33MOL0     C 4456  11.443   8.572   9.692  0.0947 -0.7430 -0.0501
   33MOL0     C 4457  11.544   8.603   9.581  0.4127 -0.8951 -0.3945
   33MOL0     C 4458  11.648   8.495   9.585  0.3831 -0.3744 -0.8044
   33MOL0     C 4459  11.776   8.547   9.509  0.6293  0.3358 -1.5469
   33MOL0     C 4460  11.875   8.432   9.468  0.3446  0.5250 -0.1280
   33MOL0    Cl 4461  11.796   8.360   9.330  0.3469 -0.3221 -0.7059
   33MOL0     C 4462  10.819   8.766   9.597  0.4763 -0.1693 -0.4900
   33MOL0     C 4463  10.699   8.849   9.584 -1.2540  0.4419  0.9339
   33MOL0     O 4464  10.409   8.870   9.650 -0.1073  0.0661  0.1580
   33MOL0     C 4465  10.363   9.221   9.734  1.3136  0.7346 -0.5713
   33MOL0     C 4466  10.269   9.318   9.759  0.5825 -0.1305  0.1617
   33MOL0     N 4467  10.103  10.051   9.826 -0.1264 -0.2192 -0.2341
   33MOL0     N 4468  10.117  10.173   9.815 -1.0189 -0.4013  0.1481
   33MOL0     C 4469  10.644  11.143   9.618  0.3170 -0.4556  0.2073
   33MOL0     C 4470  10.644  11.259   9.700  0.1421 -0.0767 -0.7812
   33MOL0     C 4471  10.684  11.630   9.931  0.6532  0.0312  0.3383
   33MOL0     C 4472  10.785  11.716   9.892  0.0219 -0.1868  0.1029
   33MOL0     C 4473  10.792  11.846   9.919 -0.1775  0.0259 -1.1002
   33MOL0     C 4474  10.693  11.903   9.997  0.0183  0.1215 -0.4368
   33MOL0     O 4475  10.716  12.035  10.013  0.3432  0.0590  0.1949
   33MOL0     C 4476  10.600  12.108  10.052  0.3790  0.7470  0.8817
   33MOL0     C 4477  10.602  12.262  10.034  0.4898 -0.0509 -0.1901
   33MOL0     C 4478  10.721  12.326  10.108 -0.2043  0.2243  0.5625
   33MOL0     C 4479  10.854  12.272  10.065  0.4987  0.1104  0.0190
   33MOL0     C 4480  10.958  12.376  10.057 -0.6380  0.0339  0.7908
   33MOL0     C 4481  11.052  12.458  10.070  0.4299  0.6843 -0.5872
   33MOL0     C 4482  10.585  11.819  10.052 -0.1215 -0.6418 -1.0232
   33MOL0     C 4483  10.579  11.679  10.015  0.0001 -0.2370 -0.0024
   33MOL0     C 4484  10.469  11.589  10.061  0.2652 -0.9295  0.6210
   33MOL0     H 4485  10.966  11.342   9.660 -0.1243 -1.0541  1.0768
   33MOL0     H 4486  10.960  11.132   9.529 -0.2445  0.9658 -0.5373
   33MOL0     H 4487  10.608  10.863   9.480 -0.3399 -1.0659  0.6502
   33MOL0     H 4488  10.706  10.893   9.631  1.1671 -1.2101  0.4505
   33MOL0     H 4489  10.791  10.750   9.379 -2.2187  2.9417 -0.7260
   33MOL0     H 4490  10.905  10.776   9.527  0.1586 -2.3246  0.0471
   33MOL0     H 4491  10.811  10.550   9.528  0.8282  1.6332 -0.2505
   33MOL0     H 4492  10.756  10.650   9.662  0.2322  1.9728  0.4035
   33MOL0     H 4493  10.550  10.687   9.546  1.7776  1.8738  0.0420
   33MOL0     H 4494  10.611  10.602   9.400 -1.0531  1.7330  0.0761
   33MOL0     H 4495  10.571  10.466   9.677  1.6246  0.6225  0.1670
   33MOL0     H 4496  10.566  10.378   9.516  0.8690 -0.0110  0.7154
   33MOL0     H 4497  10.354  10.558   9.627 -0.1465 -1.7325  2.8882
   33MOL0     H 4498  10.365  10.458   9.472 -0.4209 -1.7221  1.0957
   33MOL0     H 4499  10.380  10.372   9.756  1.0317  0.3139 -0.0884
   33MOL0     H 4500  10.397  10.258   9.618  1.5212  1.1896 -0.6026
   33MOL0     H 4501  10.161  10.424   9.717  0.6246 -0.2562  0.4141
   33MOL0     H 4502  10.163  10.378   9.548  2.0915  0.2221 -1.0469
   33MOL0     H 4503  10.231  10.088   9.523  0.5342 -1.4224  0.4884
   33MOL0     H 4504  10.279   9.839   9.744 -0.2740  0.7750 -0.5157
   33MOL0     H 4505  10.194   9.827   9.589 -0.2452 -1.1067 -0.4473
   33MOL0     H 4506  10.098   9.773   9.866 -0.1372  0.0713 -0.1376
   33MOL0     H 4507   9.980   9.784   9.742 -0.1928  0.0308 -1.8182
   33MOL0     H 4508  10.070   9.602   9.608  1.5794 -1.1599  0.6052
   33MOL0     H 4509  10.218   9.600   9.683  0.2009 -0.8562  3.9507
   33MOL0     H 4510  10.127   9.516   9.888 -0.8662  0.1935  0.8605
   33MOL0     H 4511   9.960   9.557   9.850  0.0094  0.4735 -1.3076
   33MOL0     H 4512  10.000   9.144   9.684  1.5024 -3.0624  0.8655
   33MOL0     H 4513  10.161   8.846   9.622 -0.9128  0.8400  0.3218
   33MOL0     H 4514  10.179   8.945   9.489 -2.5576  1.1206 -2.1916
   33MOL0     H 4515  10.021   8.942   9.576  0.2952 -0.2935  0.1383
   33MOL0     H 4516  10.747   9.026   9.868 -0.2532 -1.4116  1.0596
   33MOL0     H 4517  10.937   8.912   9.874  0.8304  1.0485 -0.4776
   33MOL0     H 4518  11.165   8.852   9.774  2.1575 -1.5349  0.1939
   33MOL0     H 4519  11.083   8.765   9.903  0.9036  2.4986 -0.0492
   33MOL0     H 4520  11.309   8.686   9.899  2.4703 -1.8327  0.4328
   33MOL0     H 4521  11.206   8.556   9.820  3.3946 -0.8525 -2.2477
   33MOL0     H 4522  11.357   8.769   9.673  1.4602  0.5062  1.3483
   33MOL0     H 4523  11.267   8.637   9.599 -1.1583 -0.4848  0.9980
   33MOL0     H 4524  11.415   8.468   9.678  1.2622 -0.9671 -0.8383
   33MOL0     H 4525  11.505   8.583   9.782 -0.3218 -2.1871  0.4433
   33MOL0     H 4526  11.485   8.608   9.489  0.0196  2.8239 -0.1139
   33MOL0     H 4527  11.597   8.698   9.595  1.2392 -1.4325  0.1781
   33MOL0     H 4528  11.624   8.398   9.543 -0.2380 -0.6232  0.0976
   33MOL0     H 4529  11.674   8.473   9.689 -0.6782  0.5532 -0.3229
   33MOL0     H 4530  11.828   8.612   9.579 -1.9634 -0.6126  1.4775
   33MOL0     H 4531  11.745   8.609   9.424 -0.7051 -0.6161 -1.7876
   33MOL0     H 4532  11.878   8.360   9.551  1.5279  2.0417  1.2143
   33MOL0     H 4533  11.975   8.470   9.445 -0.0816  2.1122  0.4965
   33MOL0     H 4534  10.839   8.686   9.526  0.6435  1.2146 -2.0779
   33MOL0     H 4535  10.632   8.827   9.501 -0.4725  2.4516 -0.2815
   33MOL0     H 4536  10.466   9.251   9.749  1.5265 -0.1002 -0.3506
   33MOL0     H 4537  10.298   9.419   9.787  0.1402  0.3584 -1.0703
   33MOL0     H 4538  10.546  11.097   9.617 -0.6860  1.4359  2.1566
   33MOL0     H 4539  10.550  11.280   9.749  0.4751 -0.8741  0.2389
   33MOL0     H 4540  10.866  11.675   9.833  0.3773 -0.6353  0.8823
   33MOL0     H 4541  10.874  11.908   9.884 -0.6674  3.7715  3.3220
   33MOL0     H 4542  10.513  12.073   9.995  0.8838 -2.2488  1.7836
   33MOL0     H 4543  10.576  12.073  10.153  0.4223 -0.5597  0.4550
   33MOL0     H 4544  10.507  12.298  10.074  1.1220 -1.3407  2.7068
   33MOL0     H 4545  10.612  12.284   9.927  2.2803  0.5791  0.0757
   33MOL0     H 4546  10.720  12.434  10.092 -2.5123  0.0906 -0.7581
   33MOL0     H 4547  10.710  12.313  10.216 -1.0351  0.1557  0.4752
   33MOL0     H 4548  10.848  12.225   9.966  1.0670  1.3858 -0.6400
   33MOL0     H 4549  10.888  12.196  10.135  1.1195  1.1943  0.9337
   33MOL0     H 4550  11.124  12.530  10.101  0.1459  0.1094  1.5922
   33MOL0     H 4551  10.501  11.848  10.115 -1.3223 -1.8406 -2.0180
   33MOL0     H 4552  10.455  11.506   9.991 -0.9523 -2.5294  2.6169
   33MOL0     H 4553  10.486  11.556  10.164  1.5570  2.5491  1.6461
   33MOL0     H 4554  10.377  11.649  10.056  0.9115  0.0344  0.1075
   34MOL0     O 4555   4.394   4.391   9.567  0.3549 -0.3164 -0.8399
   34MOL0     C 4556   4.392   4.298   9.646  0.6434  0.1360 -0.4705
   34MOL0     O 4557   4.485   4.195   9.650  0.6375 -0.3903 -1.2502
   34MOL0     C 4558   4.602   4.207   9.578 -1.0653  0.9064  0.1619
   34MOL0     C 4559   4.638   4.100   9.497 -0.2860 -0.5521  0.9122
   34MOL0     C 4560   4.753   4.108   9.413  0.6567 -0.3075 -0.2631
   34MOL0     C 4561   4.845   4.214   9.430  0.4550 -0.8419 -0.5237
   34MOL0     O 4562   4.959   4.221   9.356  0.2123  0.4191  0.8639
   34MOL0     C 4563   5.007   4.346   9.295 -0.6356 -0.5747  0.1697
   34MOL0     C 4564   5.122   4.312   9.194  0.3877 -1.1939 -0.2687
   34MOL0     C 4565   5.069   4.245   9.064 -0.0123 -0.3662 -0.5810
   34MOL0     C 4566   5.180   4.218   8.966 -0.6724  0.0066 -0.3178
   34MOL0     C 4567   5.282   4.333   8.919  1.2075 -0.4067  0.1916
   34MOL0     C 4568   5.402   4.299   8.841  0.1692 -0.1825 -0.0685
   34MOL0     C 4569   5.357   4.250   8.706 -0.7679  0.5784 -0.3221
   34MOL0     C 4570   5.470   4.176   8.633  0.4099  0.4266  0.2018
   34MOL0     N 4571   5.462   4.036   8.638  0.1231  0.5740 -0.3670
   34MOL0     C 4572   5.494   3.956   8.530 -0.4433 -0.1660 -0.3592
   34MOL0     C 4573   5.488   3.831   8.576 -0.3867  0.1402  0.2408
   34MOL0     C 4574   5.493   3.700   8.498  0.3368 -0.0025 -0.4960
   34MOL0     C 4575   5.370   3.675   8.416 -0.3247  0.5749 -0.1821
   34MOL0     C 4576   5.378   3.549   8.327 -0.1691  0.4509  0.8215
   34MOL0     C 4577   5.252   3.551   8.238  0.8689 -0.1372  0.5297
   34MOL0     O 4578   5.131   3.536   8.317 -0.7922 -0.3232 -0.0939
   34MOL0     C 4579   5.004   3.539   8.259 -0.7539 -1.1201  0.0099
   34MOL0     C 4580   4.901   3.576   8.345  0.3090 -0.0187 -0.1768
   34MOL0     C 4581   4.771   3.589   8.305  2.5075  0.9080 -1.0430
   34MOL0     C 4582   4.665   3.632   8.414 -0.5105  0.0944  0.8676
   34MOL0     C 4583   4.732   3.577   8.168  1.0669 -0.2894  0.1053
   34MOL0     C 4584   4.601   3.608   8.100 -0.0762 -1.0523 -0.0587
   34MOL0     O 4585   4.607   3.609   7.964  0.4781  0.1194 -0.0536
   34MOL0     C 4586   4.498   3.624   7.876  0.6173 -0.7701 -0.1811
   34MOL0     C 4587   4.523   3.615   7.737  1.2622  0.1851 -0.0098
   34MOL0     C 4588   4.418   3.621   7.642  0.3050  0.4296  0.1537
   34MOL0     C 4589   4.296   3.665   7.689  1.0761  0.1818  0.3110
   34MOL0     O 4590   4.188   3.675   7.603  0.4615 -0.0186  0.4616
   34MOL0     C 4591   4.068   3.751   7.645  1.0969  0.3208  0.5623
   34MOL0     C 4592   3.966   3.768   7.528  0.0188  0.3872  0.1233
   34MOL0     C 4593   3.835   3.832   7.579  0.2605 -0.6595 -0.0421
   34MOL0     C 4594   3.733   3.818   7.460 -0.5127 -0.5381  0.3460
   34MOL0     C 4595   3.585   3.837   7.502 -0.3825  0.9387 -0.1408
   34MOL0     C 4596   3.560   3.960   7.596 -0.3475  0.2116 -0.5993
   34MOL0     C 4597   3.414   3.986   7.621  0.4931 -0.5233  0.2219
   34MOL0     C 4598   3.395   4.054   7.755 -0.6299  0.6217 -0.3764
   34MOL0    Cl 4599   3.219   4.064   7.797 -0.0944  0.7094 -0.1113
   34MOL0     C 4600   4.270   3.694   7.821 -0.7978  0.3193 -1.0640
   34MOL0     C 4601   4.371   3.664   7.914 -0.2943 -0.3146 -0.4592
   34MOL0     O 4602   4.499   3.625   8.167 -0.1757  0.5437  0.6117
   34MOL0     C 4603   4.835   3.539   8.076  0.7766 -0.3485  0.1850
   34MOL0     C 4604   4.966   3.518   8.123  0.3409  0.1579 -0.3855
   34MOL0     N 4605   5.455   3.841   8.717 -0.6737  0.3747 -0.4077
   34MOL0     N 4606   5.428   3.958   8.747 -0.8320  0.0801 -0.1430
   34MOL0     C 4607   4.815   4.308   9.521 -1.0755  0.5203 -0.2841
   34MOL0     C 4608   4.696   4.307   9.598  0.0398  0.3283 -0.2991
   34MOL0     C 4609   4.279   4.293   9.744  0.0740  0.4873  0.6565
   34MOL0     C 4610   4.154   4.326   9.697 -0.0575  0.5160  0.1419
   34MOL0     C 4611   4.040   4.326   9.789 -0.2630  0.0122  0.6491
   34MOL0     C 4612   4.053   4.308   9.923  0.1378 -0.1363  0.3731
   34MOL0     O 4613   3.947   4.343  10.002 -0.4068 -0.0324  0.1189
   34MOL0     C 4614   3.922   4.269  10.122  0.8897 -0.1808 -0.1532
   34MOL0     C 4615   3.944   4.117  10.126 -0.2028 -0.8579 -0.3371
   34MOL0     C 4616   3.870   4.058  10.006  0.0516 -1.0467  0.0009
   34MOL0     C 4617   3.886   3.907   9.970  0.5280 -0.5049  0.3098
   34MOL0     C 4618   4.018   3.859   9.945  0.4002  0.7660 -0.1488
   34MOL0     C 4619   4.130   3.820   9.936 -0.0894  0.4217  0.8243
   34MOL0     C 4620   4.179   4.275   9.972  0.5193  0.1713  0.7806
   34MOL0     C 4621   4.290   4.261   9.887  0.0271  1.0965 -0.5852
   34MOL0     C 4622   4.421   4.237   9.955  0.8707 -0.4834  0.5676
   34MOL0     H 4623   4.574   4.013   9.487  0.7275 -1.2239  0.1202
   34MOL0     H 4624   4.782   4.035   9.339 -1.7151  2.0049 -3.7989
   34MOL0     H 4625   5.064   4.409   9.364  0.5577 -0.7368 -0.6412
   34MOL0     H 4626   4.928   4.408   9.251  1.3174  1.9469 -0.0661
   34MOL0     H 4627   5.170   4.407   9.168 -0.8312 -0.7872 -1.1262
   34MOL0     H 4628   5.198   4.245   9.234  0.6201 -2.3991 -2.5885
   34MOL0     H 4629   5.026   4.147   9.087  1.8903 -0.8530  1.2420
   34MOL0     H 4630   4.990   4.302   9.015  0.6934  0.0924 -1.2078
   34MOL0     H 4631   5.250   4.149   9.015  0.4792  1.0249 -0.5145
   34MOL0     H 4632   5.138   4.171   8.876  0.3874  1.1439 -1.4299
   34MOL0     H 4633   5.319   4.363   9.017  1.5830 -1.7099  0.4609
   34MOL0     H 4634   5.222   4.413   8.873  1.2615 -1.1656 -1.2601
   34MOL0     H 4635   5.474   4.381   8.839  0.4409 -0.4320 -0.6468
   34MOL0     H 4636   5.459   4.213   8.879  3.5926  0.7057 -2.7188
   34MOL0     H 4637   5.317   4.323   8.635 -5.0075  0.6027  1.7760
   34MOL0     H 4638   5.272   4.183   8.720 -0.2541  0.2971  1.8170
   34MOL0     H 4639   5.477   4.207   8.528 -1.2674 -0.1687 -0.1138
   34MOL0     H 4640   5.568   4.208   8.671 -0.1300  3.1735 -0.5025
   34MOL0     H 4641   5.506   3.987   8.427  1.0979 -0.3703 -0.2648
   34MOL0     H 4642   5.492   3.616   8.568 -4.8521 -0.7338 -1.0551
   34MOL0     H 4643   5.577   3.717   8.430 -0.1715  4.1543 -0.3508
   34MOL0     H 4644   5.288   3.685   8.487 -0.0656  1.0450  0.0558
   34MOL0     H 4645   5.359   3.763   8.351 -1.0173 -0.3617 -1.3633
   34MOL0     H 4646   5.464   3.544   8.259 -1.4622 -1.3228 -0.7687
   34MOL0     H 4647   5.396   3.459   8.385  1.0041 -0.5543 -1.0015
   34MOL0     H 4648   5.248   3.641   8.176 -2.2056 -1.3002 -1.1931
   34MOL0     H 4649   5.258   3.465   8.171  2.1048 -0.0524  0.5245
   34MOL0     H 4650   4.921   3.597   8.450 -1.9032  0.5757  0.1678
   34MOL0     H 4651   4.712   3.616   8.511  3.5648  4.1750 -0.0707
   34MOL0     H 4652   4.569   3.579   8.413  0.0421 -0.9468 -0.7973
   34MOL0     H 4653   4.649   3.738   8.394  3.1713  0.8144  1.0859
   34MOL0     H 4654   4.623   3.600   7.698  0.3908  2.3806 -3.4452
   34MOL0     H 4655   4.430   3.611   7.535  1.5469  0.3586  0.2867
   34MOL0     H 4656   4.010   3.687   7.713 -0.3162  1.0546  0.0842
   34MOL0     H 4657   4.084   3.842   7.703  2.6297  1.2276 -1.1871
   34MOL0     H 4658   4.004   3.838   7.453 -2.3666  2.8078  0.9880
   34MOL0     H 4659   3.933   3.675   7.480 -1.4032  0.6385  0.5584
   34MOL0     H 4660   3.850   3.939   7.593 -2.4632 -0.1329 -0.4859
   34MOL0     H 4661   3.811   3.783   7.674  3.5187 -2.8371 -0.1912
   34MOL0     H 4662   3.741   3.720   7.411  0.7445  0.8859 -2.5843
   34MOL0     H 4663   3.760   3.893   7.385 -0.1997 -3.2015 -2.4239
   34MOL0     H 4664   3.523   3.860   7.415  0.8128 -0.3119 -1.3715
   34MOL0     H 4665   3.541   3.744   7.538  0.3605  0.0957 -1.3437
   34MOL0     H 4666   3.583   4.053   7.543  0.3901  0.7626  0.6436
   34MOL0     H 4667   3.614   3.952   7.690  1.0124 -0.5783 -1.4113
   34MOL0     H 4668   3.365   3.888   7.633  1.7411 -1.0233  1.6796
   34MOL0     H 4669   3.365   4.049   7.547 -0.6494 -0.8336  0.6916
   34MOL0     H 4670   3.446   4.151   7.753 -0.4925  0.5321 -1.3771
   34MOL0     H 4671   3.455   3.990   7.821  1.4913  0.2131 -2.5535
   34MOL0     H 4672   4.185   3.747   7.864  0.8492  0.8167  1.8688
   34MOL0     H 4673   4.349   3.687   8.018  3.5894  1.0215  0.2172
   34MOL0     H 4674   4.824   3.527   7.969 -0.4514  0.1771  0.2311
   34MOL0     H 4675   5.060   3.496   8.072  0.9371  2.6450 -0.4709
   34MOL0     H 4676   4.890   4.386   9.531  0.4159 -0.9170  0.3288
   34MOL0     H 4677   4.676   4.398   9.652  1.1557  0.2974  0.1909
   34MOL0     H 4678   4.158   4.358   9.593  0.6914 -2.9483 -1.0346
   34MOL0     H 4679   3.945   4.366   9.754  1.0198  1.5651 -1.3470
   34MOL0     H 4680   3.973   4.316  10.206 -3.3696  0.1834  2.5558
   34MOL0     H 4681   3.818   4.289  10.149  1.4256  0.8844  1.2185
   34MOL0     H 4682   3.915   4.075  10.223  2.2054 -0.3103  0.6926
   34MOL0     H 4683   4.050   4.092  10.114  0.6257  2.3361 -0.8017
   34MOL0     H 4684   3.763   4.075  10.021 -0.0394 -0.6187 -1.0427
   34MOL0     H 4685   3.889   4.124   9.921 -2.3228  0.9743  0.8811
   34MOL0     H 4686   3.823   3.884   9.883  0.3198  0.2242  0.2584
   34MOL0     H 4687   3.846   3.853  10.056  0.5830 -2.4151 -0.8266
   34MOL0     H 4688   4.231   3.784   9.936 -0.7112 -1.4456  0.1929
   34MOL0     H 4689   4.187   4.270  10.080 -2.2850 -1.7185  1.0020
   34MOL0     H 4690   4.451   4.132   9.951  1.5637 -0.2495 -1.9070
   34MOL0     H 4691   4.506   4.293   9.915  0.4431 -0.2310  0.0095
   34MOL0     H 4692   4.395   4.275  10.055  0.8839 -2.0885  1.2169
   35MOL0     O 4693   4.826   8.231   0.463  0.3597  0.6021 -0.4267
   35MOL0     C 4694   4.728   8.195   0.521 -0.6979  0.3889  0.2195
   35MOL0     O 4695   4.668   8.074   0.506  0.0033 -0.0801  0.4564
   35MOL0     C 4696   4.749   7.971   0.456  0.1869 -0.2249 -0.1427
   35MOL0     C 4697   4.801   7.977   0.325 -0.1138  1.1580 -0.8543
   35MOL0     C 4698   4.898   7.888   0.277 -1.1067  0.2684  0.1363
   35MOL0     C 4699   4.947   7.800   0.366 -0.6109  0.2456 -0.1980
   35MOL0     O 4700   5.041   7.707   0.337  0.0172  0.3575  0.2928
   35MOL0     C 4701   5.122   7.724   0.224 -0.4214  0.5976 -0.1053
   35MOL0     C 4702   5.235   7.616   0.247 -0.4147 -0.0591  0.4250
   35MOL0     C 4703   5.296   7.634   0.391 -0.0151 -0.1708  0.0158
   35MOL0     C 4704   5.415   7.530   0.397  0.1260 -0.2871  0.1671
   35MOL0     C 4705   5.466   7.511   0.543  0.1199  0.1393  0.3999
   35MOL0     C 4706   5.589   7.409   0.542  0.8821 -0.4920 -0.3659
   35MOL0     C 4707   5.722   7.476   0.501  0.1568  0.6342 -0.2875
   35MOL0     C 4708   5.845   7.427   0.562 -0.1515 -1.1555 -0.0613
   35MOL0     N 4709   5.848   7.282   0.553 -0.0535  0.6544  0.9699
   35MOL0     C 4710   5.932   7.203   0.630  0.8033  0.6528 -0.7376
   35MOL0     C 4711   5.929   7.077   0.573 -0.9667 -0.3329 -0.1007
   35MOL0     C 4712   6.001   6.964   0.631  0.4001 -0.0865  0.2293
   35MOL0     C 4713   6.157   6.982   0.618  0.7466  0.4253  0.0544
   35MOL0     C 4714   6.201   6.930   0.473 -0.5959  0.9276 -0.6479
   35MOL0     C 4715   6.356   6.929   0.445  0.4180 -0.2875 -0.7839
   35MOL0     O 4716   6.422   6.855   0.552 -0.3549 -0.1108  0.6186
   35MOL0     C 4717   6.370   6.726   0.569  0.1862 -0.5152  0.2513
   35MOL0     C 4718   6.313   6.642   0.471 -0.6464 -0.1489 -1.1698
   35MOL0     C 4719   6.284   6.502   0.497 -0.9094 -0.6741  0.0557
   35MOL0     C 4720   6.235   6.411   0.379  0.0773 -0.0922  0.1110
   35MOL0     C 4721   6.295   6.455   0.632  0.1628 -0.0346  0.2510
   35MOL0     C 4722   6.272   6.320   0.666 -0.8553  0.2215 -0.9983
   35MOL0     O 4723   6.295   6.224   0.579 -0.2016 -0.9829  0.4768
   35MOL0     C 4724   6.246   6.100   0.585  0.2903  0.0299  0.2411
   35MOL0     C 4725   6.111   6.074   0.596  0.3030  0.4934 -0.8052
   35MOL0     C 4726   6.067   5.935   0.589  0.5463 -0.4350  0.5779
   35MOL0     C 4727   6.150   5.832   0.546 -0.2931 -0.2278  0.0802
   35MOL0     O 4728   6.110   5.709   0.529 -0.2162 -0.5269  0.3057
   35MOL0     C 4729   5.978   5.668   0.496  0.4284 -0.5024 -0.5242
   35MOL0     C 4730   5.984   5.584   0.369  0.7712  0.4599  0.1623
   35MOL0     C 4731   5.846   5.529   0.313  0.4545 -0.1219  0.4948
   35MOL0     C 4732   5.765   5.637   0.230 -0.1082  0.4493 -0.1196
   35MOL0     C 4733   5.648   5.577   0.153 -0.4973  0.2506 -0.2828
   35MOL0     C 4734   5.564   5.674   0.073 -0.6701 -0.2396  0.0674
   35MOL0     C 4735   5.513   5.790   0.160 -0.6962  0.9420 -0.2010
   35MOL0     C 4736   5.393   5.846   0.083 -0.6395  0.2286 -0.4935
   35MOL0    Cl 4737   5.322   5.994   0.151  0.5312  0.0387 -0.0019
   35MOL0     C 4738   6.283   5.861   0.537  0.2867 -0.6574 -0.2585
   35MOL0     C 4739   6.333   5.991   0.553  0.3970  0.8339  0.3260
   35MOL0     O 4740   6.218   6.297   0.775 -1.0000  0.5181 -0.2095
   35MOL0     C 4741   6.338   6.548   0.728  0.3301 -0.8289  0.2883
   35MOL0     C 4742   6.385   6.673   0.694 -0.4098 -0.2282 -0.3564
   35MOL0     N 4743   5.846   7.078   0.470  0.4280 -0.0470  0.0510
   35MOL0     N 4744   5.812   7.202   0.455  0.3377 -0.6400  0.3444
   35MOL0     C 4745   4.881   7.775   0.486  0.2868  1.0779  0.4781
   35MOL0     C 4746   4.784   7.857   0.533 -0.2387  0.6086  0.5634
   35MOL0     C 4747   4.653   8.302   0.600 -0.2077  0.4273 -1.0872
   35MOL0     C 4748   4.523   8.284   0.644 -0.6344  0.2617  0.3727
   35MOL0     C 4749   4.451   8.377   0.720  0.8601  0.4737  0.2174
   35MOL0     C 4750   4.511   8.495   0.759  0.6722 -0.5025  0.2657
   35MOL0     O 4751   4.437   8.592   0.825  0.0865 -0.4311 -0.3159
   35MOL0     C 4752   4.305   8.569   0.867  0.2200  0.8864  0.0849
   35MOL0     C 4753   4.206   8.565   0.750 -0.1416 -0.6875 -0.5625
   35MOL0     C 4754   4.094   8.483   0.807  0.3451  0.5416 -0.3468
   35MOL0     C 4755   3.997   8.457   0.695  0.1779  0.2853  0.1274
   35MOL0     C 4756   4.040   8.354   0.597  0.6081  0.3752  0.5885
   35MOL0     C 4757   4.069   8.276   0.506 -0.1225  0.0925 -0.1179
   35MOL0     C 4758   4.634   8.525   0.726  0.1269  0.9493  0.0052
   35MOL0     C 4759   4.711   8.430   0.647 -0.6429 -0.5057  0.1284
   35MOL0     C 4760   4.853   8.461   0.614  0.7027 -0.7406  0.7714
   35MOL0     H 4761   4.761   8.060   0.267 -1.7681  2.4851  1.9436
   35MOL0     H 4762   4.931   7.900   0.174  1.3417  0.9182  0.9449
   35MOL0     H 4763   5.181   7.816   0.221  1.6026 -0.6491 -0.7726
   35MOL0     H 4764   5.066   7.697   0.134 -1.5497  1.6285  0.2676
   35MOL0     H 4765   5.196   7.515   0.233  2.8539 -1.1765 -1.4597
   35MOL0     H 4766   5.312   7.630   0.171 -1.4533  0.3453 -0.5863
   35MOL0     H 4767   5.322   7.739   0.407 -1.3385  0.3720 -1.0982
   35MOL0     H 4768   5.218   7.619   0.466 -0.5809 -1.7984 -0.8627
   35MOL0     H 4769   5.372   7.434   0.366 -5.0557  0.4698  3.6861
   35MOL0     H 4770   5.492   7.567   0.329 -2.5241  0.0668 -2.8585
   35MOL0     H 4771   5.372   7.481   0.590  1.0156  0.2472  2.3479
   35MOL0     H 4772   5.487   7.608   0.589  2.8406 -1.3060  2.4648
   35MOL0     H 4773   5.598   7.365   0.642  1.2569 -1.2947 -0.7463
   35MOL0     H 4774   5.562   7.324   0.479  1.8646 -1.1773  0.1030
   35MOL0     H 4775   5.728   7.585   0.513 -0.3446  0.8441 -1.7264
   35MOL0     H 4776   5.732   7.458   0.393 -0.2523  0.7975 -0.3541
   35MOL0     H 4777   5.931   7.469   0.510 -0.0268  2.3072  2.6322
   35MOL0     H 4778   5.853   7.458   0.667  1.8873 -2.3587  0.2042
   35MOL0     H 4779   5.985   7.242   0.717  0.4849  2.8254 -1.4545
   35MOL0     H 4780   5.960   6.867   0.605 -0.0498  0.2087 -0.1784
   35MOL0     H 4781   5.967   6.983   0.734 -1.1078  2.3216 -0.6407
   35MOL0     H 4782   6.185   7.086   0.633  1.8375  0.2362 -0.5578
   35MOL0     H 4783   6.211   6.933   0.699 -0.0095  0.8193  0.8099
   35MOL0     H 4784   6.152   6.833   0.460 -1.7799  1.4005  0.0674
   35MOL0     H 4785   6.152   6.996   0.400  1.2769  3.4415  0.2088
   35MOL0     H 4786   6.381   6.885   0.347 -0.3009  1.1576 -1.6519
   35MOL0     H 4787   6.383   7.035   0.448 -2.7196  0.6130  1.9948
   35MOL0     H 4788   6.298   6.695   0.377  1.8239  1.1515 -0.9187
   35MOL0     H 4789   6.219   6.470   0.288  0.8293 -1.7833 -1.1559
   35MOL0     H 4790   6.139   6.366   0.406 -0.0244  1.8820  3.6841
   35MOL0     H 4791   6.308   6.344   0.334  1.2343  2.0274 -1.3141
   35MOL0     H 4792   6.046   6.153   0.633  0.8918  0.5316  0.1998
   35MOL0     H 4793   5.965   5.907   0.615  0.8592  0.6445  3.2851
   35MOL0     H 4794   5.951   5.611   0.586  1.6145 -0.5674 -0.1828
   35MOL0     H 4795   5.914   5.755   0.481 -1.2296 -1.1724  1.9777
   35MOL0     H 4796   6.025   5.645   0.289  0.9618  1.0345  0.6907
   35MOL0     H 4797   6.049   5.498   0.388 -0.8271 -0.4543  1.8701
   35MOL0     H 4798   5.774   5.495   0.388 -1.3160  3.2893  0.5810
   35MOL0     H 4799   5.879   5.438   0.263  1.6837 -0.4209  1.7934
   35MOL0     H 4800   5.829   5.684   0.155  0.6078  0.2924  0.3832
   35MOL0     H 4801   5.741   5.722   0.294 -0.0672  1.8899 -1.9298
   35MOL0     H 4802   5.701   5.506   0.089  0.7349  2.8729 -2.3738
   35MOL0     H 4803   5.584   5.532   0.229  1.4082  1.1009  1.9520
   35MOL0     H 4804   5.486   5.607   0.034 -1.3111  0.1868  0.5875
   35MOL0     H 4805   5.615   5.712  -0.016 -1.4804 -0.6574 -0.5888
   35MOL0     H 4806   5.594   5.863   0.175  0.2543 -0.2168  0.4631
   35MOL0     H 4807   5.484   5.770   0.263 -0.8722  2.0658 -0.0236
   35MOL0     H 4808   5.315   5.769   0.084 -0.6243  0.2081 -0.7129
   35MOL0     H 4809   5.409   5.862  -0.024 -1.1374 -1.1100 -0.7897
   35MOL0     H 4810   6.354   5.785   0.507  3.3644  2.0902 -0.5921
   35MOL0     H 4811   6.440   5.998   0.535  0.6013 -1.5330  0.2698
   35MOL0     H 4812   6.340   6.514   0.831 -1.2305  1.8861  1.3262
   35MOL0     H 4813   6.427   6.736   0.773 -1.8053  1.7770 -1.1310
   35MOL0     H 4814   4.896   7.683   0.542 -0.1662 -0.1168 -1.2539
   35MOL0     H 4815   4.721   7.842   0.621 -1.8467 -4.3525 -1.1173
   35MOL0     H 4816   4.473   8.197   0.604  1.0645 -0.0155 -1.2997
   35MOL0     H 4817   4.347   8.350   0.736  0.6349  1.7077  0.9621
   35MOL0     H 4818   4.310   8.475   0.923  0.1439  1.0725  0.4080
   35MOL0     H 4819   4.272   8.636   0.948  1.3798 -0.4694  1.7537
   35MOL0     H 4820   4.242   8.521   0.656 -2.3006 -2.1650 -0.7695
   35MOL0     H 4821   4.192   8.669   0.719  1.9836 -0.8903 -2.5017
   35MOL0     H 4822   4.129   8.380   0.825  1.0743  0.3523 -2.5568
   35MOL0     H 4823   4.050   8.527   0.896  2.0970  0.0794  0.8063
   35MOL0     H 4824   3.965   8.552   0.652 -2.7601 -2.5862 -4.9465
   35MOL0     H 4825   3.903   8.421   0.737  0.0458  1.1209  0.5862
   35MOL0     H 4826   4.085   8.191   0.442 -1.3235  1.0897 -1.8399
   35MOL0     H 4827   4.686   8.617   0.748  1.0898  0.5201 -0.4073
   35MOL0     H 4828   4.911   8.377   0.652  0.3881 -1.7835 -0.9608
   35MOL0     H 4829   4.872   8.454   0.507  1.0268 -0.2679  0.7925
   35MOL0     H 4830   4.877   8.550   0.674 -3.5431  1.1085  0.1086
   36MOL0     O 4831   3.432   7.431   4.520 -0.1268  0.4711 -0.4851
   36MOL0     C 4832   3.511   7.383   4.608 -0.1970  0.4704  0.4966
   36MOL0     O 4833   3.641   7.343   4.576 -1.0414 -0.0610  0.1905
   36MOL0     C 4834   3.707   7.361   4.457 -0.2239  0.7315  0.0843
   36MOL0     C 4835   3.661   7.434   4.341  0.4334  0.8805 -0.1848
   36MOL0     C 4836   3.731   7.425   4.218  0.0578  0.5239 -0.5828
   36MOL0     C 4837   3.851   7.351   4.213 -0.0090 -0.3425 -0.0848
   36MOL0     O 4838   3.915   7.312   4.092  0.1947  0.3623 -0.3886
   36MOL0     C 4839   3.928   7.407   3.982  0.4344  0.5416  0.0954
   36MOL0     C 4840   4.049   7.492   4.015 -1.0822 -0.7733 -0.3809
   36MOL0     C 4841   4.113   7.574   3.902 -0.0534  0.4071  0.3135
   36MOL0     C 4842   4.241   7.646   3.950 -0.5643 -0.4333  0.3287
   36MOL0     C 4843   4.321   7.721   3.844 -0.6169 -0.5863  0.7435
   36MOL0     C 4844   4.458   7.745   3.893 -0.5234  0.1483  0.0088
   36MOL0     C 4845   4.549   7.831   3.808  0.0164  0.8805  0.5927
   36MOL0     C 4846   4.687   7.824   3.872  0.6855  0.3149  0.0619
   36MOL0     N 4847   4.779   7.910   3.790  0.7107  0.4600 -0.1721
   36MOL0     C 4848   4.893   7.868   3.717 -0.3840  0.2055 -0.2694
   36MOL0     C 4849   4.965   7.988   3.706 -0.0857  0.2124  0.6452
   36MOL0     C 4850   5.096   7.990   3.626  0.3783  1.0791 -0.3657
   36MOL0     C 4851   5.224   7.982   3.713  0.1531 -0.5300 -0.2857
   36MOL0     C 4852   5.212   8.079   3.832  0.0070 -0.0261  0.2775
   36MOL0     C 4853   5.341   8.091   3.923  0.5999 -0.2895  0.1546
   36MOL0     O 4854   5.441   8.175   3.867  0.4092 -0.0460  0.6753
   36MOL0     C 4855   5.563   8.193   3.926 -0.6892 -0.5086 -0.9700
   36MOL0     C 4856   5.609   8.121   4.040 -0.8277  0.6102  0.2648
   36MOL0     C 4857   5.747   8.133   4.080 -0.1597 -0.4075  0.5346
   36MOL0     C 4858   5.778   8.044   4.200 -0.4323  0.3574  0.2547
   36MOL0     C 4859   5.841   8.212   4.012  0.9410  0.3381 -0.0567
   36MOL0     C 4860   5.984   8.231   4.043  0.6826 -0.4234 -0.3145
   36MOL0     O 4861   6.040   8.158   4.145  1.0236 -0.0816 -0.2727
   36MOL0     C 4862   6.169   8.124   4.129 -0.0317  0.0172 -0.1135
   36MOL0     C 4863   6.268   8.187   4.205 -1.3794  0.6314  0.1565
   36MOL0     C 4864   6.405   8.152   4.181  0.4967  0.3698 -0.2815
   36MOL0     C 4865   6.448   8.060   4.084  0.2311  0.8469 -0.1626
   36MOL0     O 4866   6.580   8.017   4.082  0.4861 -0.0894 -0.5614
   36MOL0     C 4867   6.622   7.914   3.996 -0.2593  0.0741 -0.3237
   36MOL0     C 4868   6.775   7.900   3.995 -0.4787  0.3804 -0.2504
   36MOL0     C 4869   6.844   8.003   3.906  0.5004  0.1302 -0.4721
   36MOL0     C 4870   6.993   7.970   3.881  0.6600 -0.3875  0.3893
   36MOL0     C 4871   7.021   7.838   3.807  0.1280 -0.0649 -0.2554
   36MOL0     C 4872   7.166   7.805   3.824 -0.1184  1.0654 -0.5306
   36MOL0     C 4873   7.206   7.679   3.739 -0.4453  1.0390  0.4049
   36MOL0     C 4874   7.353   7.662   3.722  0.1019  0.0294  0.9679
   36MOL0    Cl 4875   7.442   7.808   3.660  0.0611  0.4557 -0.2872
   36MOL0     C 4876   6.336   7.991   4.021 -0.3361 -1.6908  1.3932
   36MOL0     C 4877   6.199   8.021   4.041 -0.8291  0.4112  0.0645
   36MOL0     O 4878   6.044   8.312   3.980 -0.3314 -0.2251  0.3837
   36MOL0     C 4879   5.790   8.283   3.902  0.5810 -0.1258 -0.4871
   36MOL0     C 4880   5.654   8.280   3.861  0.6279  0.5554 -0.0411
   36MOL0     N 4881   4.893   8.103   3.758 -0.1146 -0.1129  0.7757
   36MOL0     N 4882   4.788   8.048   3.814  0.1673  0.2901 -0.3648
   36MOL0     C 4883   3.897   7.285   4.325 -0.0062 -0.5184 -0.4654
   36MOL0     C 4884   3.823   7.290   4.443  0.2125  0.5595 -0.2884
   36MOL0     C 4885   3.468   7.379   4.746  0.7038  1.2825 -0.0878
   36MOL0     C 4886   3.372   7.475   4.793  0.1414 -0.2419  0.0706
   36MOL0     C 4887   3.342   7.484   4.927 -0.1524 -0.6568 -0.8908
   36MOL0     C 4888   3.389   7.383   5.016  0.2878 -0.0175  0.6391
   36MOL0     O 4889   3.357   7.372   5.146  0.0891 -0.5729  0.4548
   36MOL0     C 4890   3.360   7.489   5.231  0.4609  0.0576  0.0610
   36MOL0     C 4891   3.353   7.452   5.372 -0.1089 -0.4795 -0.9492
   36MOL0     C 4892   3.495   7.402   5.419  0.0390 -0.9826 -0.2240
   36MOL0     C 4893   3.506   7.244   5.421  0.1414  0.3066 -0.4202
   36MOL0     C 4894   3.409   7.182   5.519 -0.0655 -0.3497 -0.0543
   36MOL0     C 4895   3.329   7.159   5.609 -0.2197 -0.5683 -0.1880
   36MOL0     C 4896   3.485   7.294   4.968  0.0427  0.6201 -0.4280
   36MOL0     C 4897   3.519   7.288   4.838 -0.7539  0.2073 -0.1003
   36MOL0     C 4898   3.612   7.175   4.797  0.5716 -0.6410 -0.3649
   36MOL0     H 4899   3.584   7.510   4.351  0.9634  3.0186 -7.0066
   36MOL0     H 4900   3.712   7.491   4.134  0.3744  1.4890  0.0939
   36MOL0     H 4901   3.838   7.467   3.965  0.6864  1.5608  2.0303
   36MOL0     H 4902   3.943   7.353   3.888 -2.0814  2.2831 -1.4478
   36MOL0     H 4903   4.026   7.553   4.103  0.0181 -0.7825 -0.0679
   36MOL0     H 4904   4.126   7.423   4.051  3.1143  3.9673  0.8537
   36MOL0     H 4905   4.142   7.510   3.817  1.9233 -1.2707  2.1316
   36MOL0     H 4906   4.037   7.647   3.875 -0.4767 -0.1111  0.0814
   36MOL0     H 4907   4.218   7.711   4.035  0.1238  0.5678 -0.2252
   36MOL0     H 4908   4.305   7.563   3.983 -0.5270 -1.1088 -1.3430
   36MOL0     H 4909   4.264   7.808   3.809 -1.7959 -0.8749  1.8606
   36MOL0     H 4910   4.335   7.650   3.762  1.0461 -0.1527  0.6174
   36MOL0     H 4911   4.446   7.802   3.986 -1.2664 -0.4157  0.2686
   36MOL0     H 4912   4.504   7.647   3.905 -0.9983  0.1035  1.6616
   36MOL0     H 4913   4.507   7.931   3.796 -0.7432  0.6016  0.8929
   36MOL0     H 4914   4.548   7.785   3.709 -1.5697  1.5962  0.2526
   36MOL0     H 4915   4.677   7.852   3.977  2.8688 -2.6804  1.1929
   36MOL0     H 4916   4.719   7.720   3.884  0.3356 -0.0118 -1.6111
   36MOL0     H 4917   4.924   7.768   3.691 -1.8320 -0.4570  0.4600
   36MOL0     H 4918   5.088   8.078   3.563  1.4719 -0.4331 -2.7375
   36MOL0     H 4919   5.098   7.910   3.551  2.3343 -0.1290  0.8946
   36MOL0     H 4920   5.237   7.878   3.744 -2.7894 -1.3089 -1.2506
   36MOL0     H 4921   5.315   8.000   3.656  1.9797 -1.2218  2.2334
   36MOL0     H 4922   5.189   8.178   3.793 -2.9170 -2.2683 -4.6397
   36MOL0     H 4923   5.130   8.043   3.894  1.1857 -2.2104  0.6751
   36MOL0     H 4924   5.318   8.124   4.024  0.8362 -2.7197  1.0840
   36MOL0     H 4925   5.374   7.987   3.936  2.0971  0.0536 -0.6800
   36MOL0     H 4926   5.540   8.058   4.095 -0.6177 -0.2335 -0.4151
   36MOL0     H 4927   5.829   8.100   4.279 -1.0416  1.1398  0.1203
   36MOL0     H 4928   5.839   7.959   4.170 -1.3339  0.4013 -1.8568
   36MOL0     H 4929   5.685   8.002   4.239  0.1459  1.6593  3.3317
   36MOL0     H 4930   6.235   8.249   4.287 -0.0767  2.6601 -0.7844
   36MOL0     H 4931   6.477   8.200   4.247  1.7699  1.9416 -2.7071
   36MOL0     H 4932   6.588   7.813   4.021 -0.7043  0.3592  0.2357
   36MOL0     H 4933   6.582   7.933   3.896  1.5219 -0.4920 -1.1958
   36MOL0     H 4934   6.816   7.916   4.095 -3.3356  0.6700  0.9808
   36MOL0     H 4935   6.802   7.797   3.970  2.3246  0.1206  3.1820
   36MOL0     H 4936   6.835   8.095   3.966 -0.1107  1.6296 -2.7276
   36MOL0     H 4937   6.787   8.021   3.814  1.7835  1.2111 -1.0822
   36MOL0     H 4938   7.049   7.956   3.974  1.6995  0.6936 -0.0470
   36MOL0     H 4939   7.027   8.057   3.825 -1.5458 -0.1179 -0.6246
   36MOL0     H 4940   6.967   7.756   3.854 -1.7700  1.3962  0.2483
   36MOL0     H 4941   6.987   7.846   3.703 -4.3632  2.0931  1.1407
   36MOL0     H 4942   7.184   7.787   3.930 -0.8304  2.5812 -0.1352
   36MOL0     H 4943   7.234   7.883   3.789  0.5927  1.3003  1.2720
   36MOL0     H 4944   7.164   7.693   3.639  1.4129  2.2252 -0.2697
   36MOL0     H 4945   7.173   7.582   3.779 -0.5005  0.5491 -0.7994
   36MOL0     H 4946   7.378   7.579   3.655 -3.4116  1.0614 -1.9225
   36MOL0     H 4947   7.416   7.631   3.806  2.6378  3.4791  0.5457
   36MOL0     H 4948   6.357   7.909   3.952  1.2653 -0.1912  0.0267
   36MOL0     H 4949   6.123   7.969   3.984 -0.8478  0.3938  0.1048
   36MOL0     H 4950   5.863   8.352   3.861  0.4191  1.1460  1.2920
   36MOL0     H 4951   5.608   8.338   3.781 -0.4850 -0.6957 -0.3325
   36MOL0     H 4952   3.986   7.223   4.325 -0.7383 -1.8771  3.7116
   36MOL0     H 4953   3.836   7.238   4.538 -2.6650  1.5696  0.7529
   36MOL0     H 4954   3.335   7.559   4.736 -3.3162  0.9312  3.6055
   36MOL0     H 4955   3.281   7.559   4.977  3.1991  1.4033  0.4509
   36MOL0     H 4956   3.435   7.563   5.202 -0.3383  1.4530  1.4319
   36MOL0     H 4957   3.260   7.531   5.216 -0.2113 -2.1024 -2.1086
   36MOL0     H 4958   3.268   7.387   5.396  0.8976 -1.6820 -0.5201
   36MOL0     H 4959   3.333   7.542   5.432 -0.4902 -2.8439  2.8263
   36MOL0     H 4960   3.570   7.439   5.348 -0.0391  0.5424  0.4308
   36MOL0     H 4961   3.525   7.437   5.519 -0.4721 -2.6702  0.5583
   36MOL0     H 4962   3.608   7.227   5.456 -0.0001  0.6268  0.1665
   36MOL0     H 4963   3.493   7.205   5.320 -2.2642 -0.1545 -0.0058
   36MOL0     H 4964   3.245   7.137   5.672  0.7917 -0.0407  1.3935
   36MOL0     H 4965   3.525   7.224   5.040 -3.9362 -2.0120 -0.5003
   36MOL0     H 4966   3.715   7.210   4.807  0.8558 -1.6093  0.2369
   36MOL0     H 4967   3.594   7.089   4.862 -1.0648  0.2729  0.4492
   36MOL0     H 4968   3.589   7.148   4.693 -0.9125  1.6914 -0.7212
   37MOL0     O 4969   9.966   0.888   9.534 -0.2603 -0.1282  0.1040
   37MOL0     C 4970   9.925   0.967   9.613  0.1190  0.3783 -0.1573
   37MOL0     O 4971  10.002   1.070   9.669 -0.0617 -0.2796 -0.1209
   37MOL0     C 4972  10.091   1.155   9.611 -0.6335 -1.2129 -0.1721
   37MOL0     C 4973  10.112   1.152   9.476  0.2263 -0.2834 -0.4224
   37MOL0     C 4974  10.198   1.250   9.409  0.4406  0.2022 -0.8830
   37MOL0     C 4975  10.263   1.356   9.483  0.4185 -0.2004  0.8699
   37MOL0     O 4976  10.342   1.461   9.426 -0.3430  0.5679  0.2960
   37MOL0     C 4977  10.444   1.405   9.346 -0.4232  0.0955 -1.1491
   37MOL0     C 4978  10.555   1.331   9.429  0.2583 -0.3546 -0.0103
   37MOL0     C 4979  10.682   1.291   9.350  0.3003  0.0013  0.9694
   37MOL0     C 4980  10.768   1.418   9.323  0.0280  0.4393 -0.9262
   37MOL0     C 4981  10.879   1.374   9.222  0.2559 -0.9034 -0.4278
   37MOL0     C 4982  10.840   1.369   9.074 -0.0528 -0.0669 -0.1280
   37MOL0     C 4983  10.820   1.516   9.021  0.0796 -0.9798 -0.0305
   37MOL0     C 4984  10.747   1.525   8.892 -0.8600  0.0556 -0.0006
   37MOL0     N 4985  10.812   1.454   8.782  0.1687 -0.2009 -0.2824
   37MOL0     C 4986  10.795   1.332   8.738 -0.2480 -0.1850  0.1987
   37MOL0     C 4987  10.866   1.313   8.625  0.1338  0.3921 -0.2456
   37MOL0     C 4988  10.883   1.193   8.532 -0.5269 -0.6116  0.5740
   37MOL0     C 4989  10.829   1.069   8.591 -0.0559  0.1255 -0.2431
   37MOL0     C 4990  10.809   0.945   8.499 -0.4816 -0.1602 -0.1650
   37MOL0     C 4991  10.710   0.971   8.385  0.7345 -0.2055  0.1039
   37MOL0     O 4992  10.689   0.849   8.317 -0.5346  0.3199 -0.1364
   37MOL0     C 4993  10.793   0.811   8.235 -0.0891  0.4857 -0.8536
   37MOL0     C 4994  10.794   0.671   8.206 -0.2082 -0.4442 -0.0799
   37MOL0     C 4995  10.894   0.613   8.143 -0.8174 -0.3916  0.6036
   37MOL0     C 4996  10.875   0.470   8.116  0.1642  0.5776 -0.5697
   37MOL0     C 4997  11.002   0.690   8.093 -1.7620  0.2318  0.2271
   37MOL0     C 4998  11.115   0.631   8.021 -0.2468 -0.2635 -1.4853
   37MOL0     O 4999  11.123   0.496   8.013  0.7142  0.3887 -0.5655
   37MOL0     C 5000  11.246   0.435   8.023 -0.3390 -0.4532 -0.6681
   37MOL0     C 5001  11.351   0.473   8.108  0.0414 -0.6169 -1.2416
   37MOL0     C 5002  11.473   0.407   8.111  0.6297 -0.0903  0.5945
   37MOL0     C 5003  11.495   0.292   8.038  1.3496  1.1008  0.3099
   37MOL0     O 5004  11.623   0.225   8.036  0.1172 -0.7723  0.0737
   37MOL0     C 5005  11.646   0.129   7.933 -0.2581 -0.1435 -0.2475
   37MOL0     C 5006  11.780   0.069   7.930  0.4544  0.1968  1.0508
   37MOL0     C 5007  11.801  -0.032   8.041  0.1483 -0.7630 -0.9166
   37MOL0     C 5008  11.938  -0.090   8.019 -0.1534 -0.3057 -0.3403
   37MOL0     C 5009  11.990  -0.200   8.116 -0.0349  0.5305  0.8571
   37MOL0     C 5010  12.028  -0.155   8.257  0.9218 -0.1761 -0.1692
   37MOL0     C 5011  12.056  -0.275   8.359 -0.0421  0.4789  0.5605
   37MOL0     C 5012  12.151  -0.224   8.471 -0.5820  1.3310  0.1327
   37MOL0    Cl 5013  12.065  -0.120   8.586 -0.4730 -0.1250 -0.2529
   37MOL0     C 5014  11.380   0.246   7.960 -0.4294  0.0924  0.2722
   37MOL0     C 5015  11.262   0.319   7.955 -1.5252  1.0715  0.9704
   37MOL0     O 5016  11.210   0.704   7.982  0.2024 -0.1059 -0.0303
   37MOL0     C 5017  10.994   0.831   8.108 -0.1966 -0.3183 -0.3524
   37MOL0     C 5018  10.892   0.890   8.179  0.9108  0.5619  0.1353
   37MOL0     N 5019  10.916   1.436   8.595  0.2535 -0.0356  0.2692
   37MOL0     N 5020  10.884   1.522   8.691 -0.3688  0.9335 -0.2031
   37MOL0     C 5021  10.250   1.357   9.617  0.6201 -0.0571 -0.0867
   37MOL0     C 5022  10.162   1.261   9.679  0.5482  0.4403  0.2647
   37MOL0     C 5023   9.798   0.939   9.700 -1.0929  0.2967 -0.3644
   37MOL0     C 5024   9.767   1.042   9.786  0.0167 -0.7248 -0.5013
   37MOL0     C 5025   9.663   1.033   9.876  0.3256 -0.3438  0.2771
   37MOL0     C 5026   9.606   0.912   9.905  0.1474  0.6138 -0.2376
   37MOL0     O 5027   9.514   0.902  10.011 -0.7510 -0.5562 -0.7148
   37MOL0     C 5028   9.516   0.780  10.088  0.0258 -0.6658 -0.4735
   37MOL0     C 5029   9.641   0.772  10.167  0.4608  0.2380 -0.0307
   37MOL0     C 5030   9.662   0.625  10.225  0.4009  0.1323  0.2698
   37MOL0     C 5031   9.744   0.626  10.356 -0.0504 -0.2265  0.3864
   37MOL0     C 5032   9.881   0.652  10.322 -0.7235  0.0677  0.5653
   37MOL0     C 5033  10.001   0.678  10.323  0.4411 -0.4969 -0.3338
   37MOL0     C 5034   9.647   0.801   9.825  0.1336 -0.0633  0.8581
   37MOL0     C 5035   9.738   0.818   9.722 -0.7855  0.1135  0.9348
   37MOL0     C 5036   9.784   0.708   9.625 -0.6193 -0.4428  0.2053
   37MOL0     H 5037  10.066   1.084   9.404 -2.5077 -1.2446  2.0374
   37MOL0     H 5038  10.212   1.251   9.302  0.5590  1.2900 -0.8749
   37MOL0     H 5039  10.483   1.487   9.285 -2.0905  1.3584 -0.6299
   37MOL0     H 5040  10.404   1.333   9.274  0.3929 -3.7489  1.9555
   37MOL0     H 5041  10.584   1.392   9.516  1.3950  0.0404 -0.6452
   37MOL0     H 5042  10.506   1.240   9.462 -2.3440  0.2732 -1.8626
   37MOL0     H 5043  10.755   1.223   9.395  0.6611  0.1996  0.6928
   37MOL0     H 5044  10.655   1.246   9.254 -0.9970 -0.5805  1.5851
   37MOL0     H 5045  10.700   1.498   9.291 -2.0843  0.0946  2.2759
   37MOL0     H 5046  10.818   1.449   9.415 -1.3765  0.0963 -0.0125
   37MOL0     H 5047  10.919   1.277   9.252 -0.1310 -0.7461  0.6348
   37MOL0     H 5048  10.962   1.440   9.250 -1.6906  0.4997  2.5461
   37MOL0     H 5049  10.923   1.319   9.022 -0.6251 -0.7025 -0.4494
   37MOL0     H 5050  10.744   1.317   9.072  1.1106 -2.8690  3.6376
   37MOL0     H 5051  10.913   1.573   9.014  1.2616 -2.8590 -0.4685
   37MOL0     H 5052  10.759   1.579   9.086  1.7683  0.9128 -0.1708
   37MOL0     H 5053  10.646   1.486   8.903 -0.6016 -0.4402  0.6451
   37MOL0     H 5054  10.744   1.628   8.855  0.4605 -0.7406 -2.5838
   37MOL0     H 5055  10.728   1.261   8.785  1.1802 -0.3331  2.1133
   37MOL0     H 5056  10.991   1.186   8.513 -0.5042 -0.3729  0.6038
   37MOL0     H 5057  10.846   1.213   8.431  1.3309 -2.1962 -0.4830
   37MOL0     H 5058  10.894   1.045   8.676 -1.7285 -1.9372  0.5115
   37MOL0     H 5059  10.728   1.077   8.632  0.5518 -1.4669  1.6912
   37MOL0     H 5060  10.909   0.912   8.470  1.0098  2.7906  1.1140
   37MOL0     H 5061  10.766   0.866   8.561  1.0689 -0.8043  0.1283
   37MOL0     H 5062  10.611   1.007   8.416  0.7650  0.1228 -0.1729
   37MOL0     H 5063  10.738   1.042   8.307  4.6881 -1.9611 -0.3002
   37MOL0     H 5064  10.707   0.614   8.238  0.8105 -0.6069  2.6943
   37MOL0     H 5065  10.888   0.459   8.008 -1.5050 -2.8555 -0.5397
   37MOL0     H 5066  10.773   0.439   8.139 -0.1340  0.9193 -1.3814
   37MOL0     H 5067  10.949   0.412   8.171  0.2876  0.6352 -0.6726
   37MOL0     H 5068  11.336   0.556   8.177  0.6617 -1.7096  0.2659
   37MOL0     H 5069  11.552   0.443   8.176  2.4804 -0.8125 -1.1606
   37MOL0     H 5070  11.579   0.043   7.936 -1.0567  0.4659  2.3892
   37MOL0     H 5071  11.623   0.185   7.842  1.7235  0.7847 -0.2249
   37MOL0     H 5072  11.791   0.001   7.844 -0.8656 -1.1367  1.8881
   37MOL0     H 5073  11.845   0.156   7.937  0.9563 -0.1286  0.5793
   37MOL0     H 5074  11.728  -0.113   8.031 -0.5359 -0.2514 -0.1956
   37MOL0     H 5075  11.790   0.023   8.134  0.7924 -2.4126  0.1744
   37MOL0     H 5076  12.013  -0.010   8.008  2.2892 -2.0682  2.1624
   37MOL0     H 5077  11.932  -0.150   7.928 -1.1163 -1.8737  0.7140
   37MOL0     H 5078  11.912  -0.276   8.125  0.1443 -0.2091 -2.4488
   37MOL0     H 5079  12.082  -0.247   8.079 -1.8509 -1.4099 -1.5364
   37MOL0     H 5080  11.948  -0.090   8.295  0.9176  0.2716 -0.9148
   37MOL0     H 5081  12.116  -0.090   8.260  0.5110  0.3926 -0.1775
   37MOL0     H 5082  12.099  -0.353   8.296 -0.3579 -0.6390  1.6827
   37MOL0     H 5083  11.965  -0.305   8.410 -2.4110  1.5709 -2.7047
   37MOL0     H 5084  12.232  -0.169   8.423  2.1696 -2.0164  0.5724
   37MOL0     H 5085  12.193  -0.313   8.519 -1.3963  1.4410  1.1066
   37MOL0     H 5086  11.381   0.150   7.910 -1.2927 -0.4598  1.2650
   37MOL0     H 5087  11.191   0.268   7.891  1.4897 -1.1832 -0.8521
   37MOL0     H 5088  11.077   0.893   8.077 -0.6761  1.3209  1.4329
   37MOL0     H 5089  10.896   0.998   8.195  1.5738  0.4143  1.0760
   37MOL0     H 5090  10.306   1.430   9.674  0.0444 -0.7992  1.4821
   37MOL0     H 5091  10.137   1.264   9.784  0.7430 -2.9880  0.5213
   37MOL0     H 5092   9.812   1.141   9.782  0.6286 -0.9208  0.8941
   37MOL0     H 5093   9.644   1.128   9.924  1.5926  0.6296 -1.0447
   37MOL0     H 5094   9.431   0.777  10.158  0.6492  0.5958  0.3790
   37MOL0     H 5095   9.497   0.698  10.018  0.8155 -1.1100 -0.1767
   37MOL0     H 5096   9.634   0.839  10.253 -1.0344 -0.7780  0.6731
   37MOL0     H 5097   9.726   0.797  10.102  2.0712 -3.0417  0.6316
   37MOL0     H 5098   9.560   0.595  10.248 -0.2998 -1.0354 -3.5788
   37MOL0     H 5099   9.704   0.559  10.148 -1.2956  1.1447 -1.6385
   37MOL0     H 5100   9.732   0.537  10.419  0.9386  0.8556  2.2156
   37MOL0     H 5101   9.710   0.707  10.422 -1.1135  0.5974 -1.1348
   37MOL0     H 5102  10.106   0.699  10.320 -0.0138  2.3831  0.7640
   37MOL0     H 5103   9.604   0.702   9.823  0.6391 -0.2918  1.0403
   37MOL0     H 5104   9.763   0.738   9.522 -1.1142  1.5092  0.8243
   37MOL0     H 5105   9.884   0.666   9.627 -1.1363 -2.3818 -3.8992
   37MOL0     H 5106   9.707   0.630   9.628 -0.7528 -0.3791 -1.0972
   38MOL0     O 5107   9.789   6.063   0.230 -0.4873 -0.6261 -0.3039
   38MOL0     C 5108   9.782   5.958   0.161 -0.0259 -0.3989 -0.0610
   38MOL0     O 5109   9.884   5.859   0.153  0.8386  0.2926 -0.5682
   38MOL0     C 5110   9.998   5.870   0.217 -0.5280 -0.1756  0.8792
   38MOL0     C 5111  10.008   5.835   0.347 -0.9291 -0.0385  0.0419
   38MOL0     C 5112  10.126   5.842   0.424 -0.2387 -0.3579  0.1547
   38MOL0     C 5113  10.239   5.871   0.353 -0.3649 -0.6216 -0.2885
   38MOL0     O 5114  10.347   5.905   0.423  0.6724 -0.6705  0.5350
   38MOL0     C 5115  10.410   5.806   0.501  0.5108 -0.1101  0.1386
   38MOL0     C 5116  10.553   5.861   0.527  0.4317  0.0492 -0.3355
   38MOL0     C 5117  10.628   5.773   0.627  0.2801  0.3065  0.5784
   38MOL0     C 5118  10.754   5.836   0.675  0.6984  1.0747 -0.0791
   38MOL0     C 5119  10.828   5.725   0.750 -0.3434 -0.2701 -0.1973
   38MOL0     C 5120  10.967   5.750   0.778 -0.1127 -0.1380 -0.7070
   38MOL0     C 5121  10.999   5.874   0.861  0.4211 -0.1216 -0.6539
   38MOL0     C 5122  11.075   5.848   0.992  0.2508  0.8286  0.2907
   38MOL0     N 5123  11.019   5.739   1.069  0.2586 -0.5333  0.0695
   38MOL0     C 5124  10.893   5.729   1.129 -1.0760 -0.1636  1.0104
   38MOL0     C 5125  10.858   5.609   1.172 -0.0927  1.1037  0.3261
   38MOL0     C 5126  10.737   5.579   1.253 -0.4427 -0.3043  0.9585
   38MOL0     C 5127  10.747   5.452   1.326 -0.7427  0.2382  0.8767
   38MOL0     C 5128  10.859   5.449   1.440 -0.2830 -0.0015 -0.0230
   38MOL0     C 5129  10.818   5.546   1.551 -0.1166 -0.1115 -0.1098
   38MOL0     O 5130  10.683   5.518   1.608 -0.5618  0.1106 -0.9442
   38MOL0     C 5131  10.650   5.623   1.684  0.0014 -0.5991  0.4596
   38MOL0     C 5132  10.543   5.705   1.648 -0.3587 -0.0974  0.8549
   38MOL0     C 5133  10.513   5.824   1.713 -0.7233  0.4329 -0.2313
   38MOL0     C 5134  10.388   5.897   1.661 -0.1766 -0.5676  0.3598
   38MOL0     C 5135  10.589   5.855   1.821 -0.3162  0.6487  0.0985
   38MOL0     C 5136  10.566   5.971   1.907  0.3469 -0.3596 -0.6398
   38MOL0     O 5137  10.686   6.030   1.946  0.5668  0.0261  0.0061
   38MOL0     C 5138  10.678   6.138   2.023  0.0813 -0.5128  1.0420
   38MOL0     C 5139  10.720   6.260   1.980 -1.2724 -0.2308  0.4693
   38MOL0     C 5140  10.734   6.364   2.070  0.1798  0.4198  0.2567
   38MOL0     C 5141  10.701   6.350   2.205 -0.3673  0.6941  0.3912
   38MOL0     O 5142  10.721   6.445   2.307  0.0625  0.5024  0.1233
   38MOL0     C 5143  10.779   6.572   2.289  0.1579 -0.5470  0.0157
   38MOL0     C 5144  10.740   6.662   2.406  0.6304  0.1403 -0.5670
   38MOL0     C 5145  10.814   6.787   2.425  0.6785  0.3640  0.8411
   38MOL0     C 5146  10.821   6.881   2.301  0.4756  0.3680  0.2586
   38MOL0     C 5147  10.891   7.020   2.319  0.2381  0.1253  0.4009
   38MOL0     C 5148  10.864   7.117   2.202 -0.4318 -0.2059  0.1671
   38MOL0     C 5149  10.915   7.261   2.221 -0.2586  0.0513 -0.2863
   38MOL0     C 5150  11.076   7.277   2.242  0.8824  0.2561 -0.0493
   38MOL0    Cl 5151  11.164   7.187   2.113  1.1011  0.4870  0.4891
   38MOL0     C 5152  10.650   6.231   2.245 -1.3351 -0.8455 -0.6343
   38MOL0     C 5153  10.630   6.125   2.159  0.7438 -0.4011  0.1908
   38MOL0     O 5154  10.454   6.016   1.921  1.3765 -0.2804  0.9203
   38MOL0     C 5155  10.700   5.772   1.865  0.0518  0.1386  0.6192
   38MOL0     C 5156  10.728   5.661   1.789 -0.0629 -0.3476 -0.1943
   38MOL0     N 5157  10.975   5.541   1.135 -0.2627  0.2795 -0.7725
   38MOL0     N 5158  11.067   5.620   1.083  0.8451  0.7161 -0.1013
   38MOL0     C 5159  10.242   5.893   0.214 -0.1393 -0.1035  0.9838
   38MOL0     C 5160  10.118   5.892   0.148 -0.4428 -0.0769  0.9830
   38MOL0     C 5161   9.673   5.935   0.074  0.0969 -0.8606  0.1911
   38MOL0     C 5162   9.549   5.900   0.132  0.6077 -0.6266 -0.1937
   38MOL0     C 5163   9.437   5.872   0.064 -0.1256  0.3019  0.9657
   38MOL0     C 5164   9.442   5.874  -0.079  0.0280 -0.1996  0.2243
   38MOL0     O 5165   9.331   5.829  -0.145  0.5410  0.2034  0.5689
   38MOL0     C 5166   9.199   5.884  -0.114 -0.6766  0.0318  0.1143
   38MOL0     C 5167   9.134   5.915  -0.258 -0.0132  0.9046 -0.1515
   38MOL0     C 5168   9.054   5.791  -0.302 -0.9569 -0.3507 -0.3080
   38MOL0     C 5169   9.013   5.782  -0.445  0.2102 -0.1993  0.4996
   38MOL0     C 5170   9.099   5.714  -0.539 -0.0098 -0.0313 -0.1238
   38MOL0     C 5171   9.172   5.641  -0.602 -0.7193  0.2298  0.5219
   38MOL0     C 5172   9.555   5.918  -0.142 -0.5829 -0.3665 -0.0278
   38MOL0     C 5173   9.672   5.957  -0.067 -0.5022 -0.7100 -0.4471
   38MOL0     C 5174   9.791   6.023  -0.133 -0.5711 -0.5919 -0.0494
   38MOL0     H 5175   9.909   5.812   0.386 -1.3763 -2.1522 -2.1363
   38MOL0     H 5176  10.118   5.837   0.532 -0.6838  2.4818  0.3304
   38MOL0     H 5177  10.418   5.719   0.435  3.5604 -0.7150  1.1242
   38MOL0     H 5178  10.356   5.791   0.596  0.9970  3.4105  1.0988
   38MOL0     H 5179  10.619   5.852   0.441  1.1454  2.7179 -0.1486
   38MOL0     H 5180  10.553   5.961   0.571 -1.2480  0.5496 -1.3737
   38MOL0     H 5181  10.562   5.765   0.714 -0.9321  1.3829 -0.2030
   38MOL0     H 5182  10.649   5.678   0.577 -1.9353  0.2155 -0.2909
   38MOL0     H 5183  10.814   5.883   0.597 -1.6186  1.6341 -1.6314
   38MOL0     H 5184  10.723   5.912   0.747  1.3571 -0.9628  2.5296
   38MOL0     H 5185  10.833   5.635   0.687  1.4727 -0.4982  0.2360
   38MOL0     H 5186  10.778   5.700   0.844  2.9879 -1.1717  1.4806
   38MOL0     H 5187  10.991   5.656   0.827 -0.6297 -0.1898 -0.5534
   38MOL0     H 5188  11.022   5.751   0.683 -1.2479 -3.3165 -1.5038
   38MOL0     H 5189  10.906   5.928   0.883  1.4876  2.3482 -1.7117
   38MOL0     H 5190  11.065   5.940   0.804  0.6893  1.1799  1.0642
   38MOL0     H 5191  11.178   5.829   0.963  0.2325  0.3041  0.5635
   38MOL0     H 5192  11.075   5.936   1.057  0.3703 -0.2402  1.7817
   38MOL0     H 5193  10.837   5.822   1.128 -1.4882 -0.3865  1.8984
   38MOL0     H 5194  10.653   5.565   1.183  2.1006  0.0100 -2.4378
   38MOL0     H 5195  10.715   5.659   1.324  0.8352 -0.2868  1.3551
   38MOL0     H 5196  10.646   5.444   1.367 -1.7982  2.8484 -0.9751
   38MOL0     H 5197  10.768   5.378   1.248 -2.9692 -2.1616  2.4013
   38MOL0     H 5198  10.867   5.349   1.483  1.8570 -0.5784 -1.6099
   38MOL0     H 5199  10.958   5.474   1.401 -0.2902  0.3451  0.1823
   38MOL0     H 5200  10.885   5.537   1.637 -1.9621 -2.0153  1.2165
   38MOL0     H 5201  10.834   5.647   1.512 -0.1886  0.4929  1.3508
   38MOL0     H 5202  10.498   5.669   1.556 -1.5900 -1.7063  2.0221
   38MOL0     H 5203  10.315   5.918   1.740 -0.2263 -1.4744  0.5699
   38MOL0     H 5204  10.339   5.829   1.591  0.3008 -0.3650 -0.1678
   38MOL0     H 5205  10.410   5.994   1.616 -2.7456  1.4839  3.0978
   38MOL0     H 5206  10.754   6.273   1.878  0.0774 -0.5071  0.8631
   38MOL0     H 5207  10.782   6.451   2.027 -2.4837  1.1186 -1.5508
   38MOL0     H 5208  10.887   6.563   2.273 -0.2173  0.5086 -4.5127
   38MOL0     H 5209  10.745   6.618   2.195  0.0738  2.7662  1.5010
   38MOL0     H 5210  10.634   6.688   2.402  1.4001  4.2116  0.4353
   38MOL0     H 5211  10.754   6.604   2.498 -2.5331  2.5275  1.6255
   38MOL0     H 5212  10.918   6.760   2.449  0.6618  0.3998  0.9523
   38MOL0     H 5213  10.789   6.847   2.513  1.9989 -0.6588  1.9700
   38MOL0     H 5214  10.720   6.890   2.262  0.1295 -0.3111  0.9590
   38MOL0     H 5215  10.866   6.839   2.210  1.6528  4.8029 -1.4660
   38MOL0     H 5216  10.853   7.063   2.413 -2.0273  2.7992 -1.5891
   38MOL0     H 5217  10.999   7.008   2.331  0.1741  1.1074  2.4481
   38MOL0     H 5218  10.757   7.123   2.181 -1.1807  1.1229  3.6636
   38MOL0     H 5219  10.908   7.085   2.107 -2.3004 -0.5625 -0.6111
   38MOL0     H 5220  10.875   7.301   2.314 -1.6506  2.4843 -1.8071
   38MOL0     H 5221  10.887   7.329   2.139  0.9484 -0.1647 -0.9039
   38MOL0     H 5222  11.113   7.245   2.340  0.8166 -0.6400 -0.3062
   38MOL0     H 5223  11.104   7.381   2.227 -1.7024  1.1113  0.4707
   38MOL0     H 5224  10.619   6.217   2.348  2.9984 -4.3488  0.5216
   38MOL0     H 5225  10.583   6.032   2.189  0.2653 -0.3835 -0.4693
   38MOL0     H 5226  10.766   5.800   1.947 -3.8347  0.7594  3.8752
   38MOL0     H 5227  10.816   5.605   1.819  2.7142  3.1054 -1.0853
   38MOL0     H 5228  10.334   5.914   0.161 -1.8272  1.0378 -1.6945
   38MOL0     H 5229  10.114   5.888   0.039  0.2061 -0.7679  0.9787
   38MOL0     H 5230   9.533   5.896   0.239  2.5174 -1.8944  0.0875
   38MOL0     H 5231   9.337   5.847   0.099 -0.8036  4.4940  2.6745
   38MOL0     H 5232   9.139   5.811  -0.058  1.7550 -2.7479 -0.6552
   38MOL0     H 5233   9.202   5.975  -0.052 -0.5559  0.1009  0.0069
   38MOL0     H 5234   9.200   5.945  -0.340  2.9848 -0.1844  1.6883
   38MOL0     H 5235   9.061   5.993  -0.233 -2.1022 -1.4714  1.6545
   38MOL0     H 5236   9.099   5.696  -0.269  0.0200  0.4259  0.7056
   38MOL0     H 5237   8.960   5.783  -0.246 -2.1789  0.5878 -2.1458
   38MOL0     H 5238   9.008   5.884  -0.484 -0.8108 -0.4086  0.0473
   38MOL0     H 5239   8.910   5.745  -0.449  0.0885 -0.1372  2.1389
   38MOL0     H 5240   9.230   5.582  -0.670 -2.1993  0.9336 -1.4537
   38MOL0     H 5241   9.556   5.939  -0.248  2.9622  2.2537  0.3243
   38MOL0     H 5242   9.777   6.019  -0.241  0.3217  0.3835 -0.2116
   38MOL0     H 5243   9.799   6.128  -0.103  1.3465 -0.3133 -1.3331
   38MOL0     H 5244   9.890   5.984  -0.108 -1.3309 -3.4196 -1.1367
   39MOL0     O 5245   5.258   0.810   8.971 -0.2272  0.1868 -0.0821
   39MOL0     C 5246   5.282   0.842   8.855  0.0185 -0.2785 -0.1603
   39MOL0     O 5247   5.406   0.861   8.807  0.1289  0.4148 -0.3286
   39MOL0     C 5248   5.496   0.899   8.898 -0.1485 -0.6118 -0.0857
   39MOL0     C 5249   5.555   1.024   8.900 -0.2247 -0.1860 -0.7450
   39MOL0     C 5250   5.661   1.056   8.984 -0.6799  0.4367 -0.3795
   39MOL0     C 5251   5.726   0.955   9.059  0.7788  0.1609  0.0952
   39MOL0     O 5252   5.838   0.989   9.129 -0.1800  0.4641  0.5111
   39MOL0     C 5253   5.826   1.031   9.265 -0.9868 -1.0740 -0.6626
   39MOL0     C 5254   5.843   1.180   9.283  0.0779  0.3032 -0.1252
   39MOL0     C 5255   5.988   1.234   9.285 -0.1326  0.0015 -0.4500
   39MOL0     C 5256   6.046   1.270   9.144  0.1447  1.0350  0.6640
   39MOL0     C 5257   6.190   1.321   9.144 -0.1582  0.5527  0.2959
   39MOL0     C 5258   6.244   1.305   8.997 -0.5647 -0.2086  0.3221
   39MOL0     C 5259   6.383   1.380   8.978 -0.3928 -0.5814 -0.2736
   39MOL0     C 5260   6.449   1.348   8.845  0.7487  0.2740  0.9144
   39MOL0     N 5261   6.596   1.369   8.830 -1.0297  1.0235  0.4944
   39MOL0     C 5262   6.656   1.490   8.862  0.5012  0.0310  1.1306
   39MOL0     C 5263   6.787   1.463   8.847  0.1883 -0.1661 -0.2506
   39MOL0     C 5264   6.899   1.561   8.874 -1.1089  0.3670 -0.4142
   39MOL0     C 5265   6.974   1.596   8.747 -0.4859 -0.6779 -0.9001
   39MOL0     C 5266   7.117   1.659   8.790  0.5518 -0.1680  0.4123
   39MOL0     C 5267   7.128   1.777   8.884 -0.0777  0.2811  0.2725
   39MOL0     O 5268   7.141   1.736   9.019 -0.2138  0.2702  0.1124
   39MOL0     C 5269   7.164   1.819   9.124 -1.0980  0.0835  0.4464
   39MOL0     C 5270   7.165   1.766   9.248  0.4351 -0.1772 -0.4001
   39MOL0     C 5271   7.180   1.836   9.372 -0.7429 -0.4704 -0.2026
   39MOL0     C 5272   7.174   1.753   9.503 -0.9552 -0.3105  0.4138
   39MOL0     C 5273   7.208   1.981   9.363  0.2126  0.1586 -0.6621
   39MOL0     C 5274   7.236   2.067   9.482  0.2385 -0.2186 -0.8662
   39MOL0     O 5275   7.207   2.198   9.465 -0.3232 -0.3444  0.4059
   39MOL0     C 5276   7.255   2.293   9.550  0.4566 -0.4064 -0.1757
   39MOL0     C 5277   7.187   2.332   9.665 -0.5828 -0.0092  0.0711
   39MOL0     C 5278   7.239   2.440   9.737  0.1353 -1.0649  0.5288
   39MOL0     C 5279   7.353   2.503   9.701  0.3549  0.0336 -0.6611
   39MOL0     O 5280   7.412   2.596   9.788 -0.3192  0.2424 -0.4406
   39MOL0     C 5281   7.474   2.538   9.910 -0.1541  0.8368  0.3043
   39MOL0     C 5282   7.552   2.645   9.978  0.9093  0.0911  0.2056
   39MOL0     C 5283   7.590   2.599  10.113  0.3087  0.6180 -0.6303
   39MOL0     C 5284   7.654   2.713  10.196  0.1351 -0.1310 -0.0964
   39MOL0     C 5285   7.735   2.670  10.322  0.0892  0.1835 -0.2862
   39MOL0     C 5286   7.856   2.770  10.343 -0.3954  0.3935  0.0648
   39MOL0     C 5287   7.935   2.747  10.471 -0.6873  0.5393  0.4479
   39MOL0     C 5288   8.068   2.816  10.473 -0.4066 -0.1343  0.2425
   39MOL0    Cl 5289   8.055   2.980  10.424  0.6164  0.3225  0.5180
   39MOL0     C 5290   7.422   2.462   9.589  0.5582 -0.6528 -0.0233
   39MOL0     C 5291   7.371   2.354   9.523 -0.5490 -0.1386 -0.2769
   39MOL0     O 5292   7.274   2.011   9.583  0.1605  0.0373  0.0632
   39MOL0     C 5293   7.207   2.034   9.232  0.6532  0.1466  0.6952
   39MOL0     C 5294   7.190   1.958   9.116 -0.5033  0.2490  0.8524
   39MOL0     N 5295   6.804   1.335   8.805  0.3440  0.5924 -0.5370
   39MOL0     N 5296   6.685   1.282   8.794  0.5973 -0.1400  0.4368
   39MOL0     C 5297   5.661   0.831   9.066 -0.4114 -1.2216  0.2328
   39MOL0     C 5298   5.550   0.808   8.988 -0.6168  0.8718  0.6243
   39MOL0     C 5299   5.160   0.892   8.770  0.2175 -0.1250 -0.9713
   39MOL0     C 5300   5.062   0.968   8.829 -0.1954 -0.7340  0.2057
   39MOL0     C 5301   4.947   1.012   8.764 -0.7010 -0.1428 -0.7521
   39MOL0     C 5302   4.926   0.980   8.635  0.1936 -0.5045  0.2618
   39MOL0     O 5303   4.819   1.022   8.563  0.3450 -0.0477 -0.0275
   39MOL0     C 5304   4.737   1.127   8.618  0.9159 -0.2992  0.5417
   39MOL0     C 5305   4.631   1.159   8.503 -0.3651 -0.8381 -0.2920
   39MOL0     C 5306   4.541   1.272   8.544 -0.1837 -1.0409  0.4864
   39MOL0     C 5307   4.428   1.307   8.438  0.5231 -0.0331  0.1595
   39MOL0     C 5308   4.374   1.444   8.465  0.1907  0.3725 -1.1899
   39MOL0     C 5309   4.347   1.563   8.479  0.2804  0.7458 -0.0975
   39MOL0     C 5310   5.025   0.907   8.570 -0.1168 -0.5096 -0.6038
   39MOL0     C 5311   5.143   0.862   8.630 -0.2360 -0.4136 -0.0748
   39MOL0     C 5312   5.252   0.782   8.556 -0.0010 -0.0158  0.6957
   39MOL0     H 5313   5.523   1.107   8.837  1.2065  2.1408  1.4063
   39MOL0     H 5314   5.700   1.156   8.995  3.3444 -0.6157 -3.1350
   39MOL0     H 5315   5.895   0.979   9.332  0.8718  0.7886 -1.0461
   39MOL0     H 5316   5.721   1.015   9.293 -0.5662  0.1329  1.7742
   39MOL0     H 5317   5.783   1.243   9.215  0.3841 -1.5725 -2.2438
   39MOL0     H 5318   5.812   1.206   9.384  0.3424  2.2069 -0.4897
   39MOL0     H 5319   5.998   1.325   9.346  3.7397  0.2450 -1.1756
   39MOL0     H 5320   6.050   1.160   9.336 -0.6704  0.8853  1.5699
   39MOL0     H 5321   6.045   1.172   9.095 -3.1815  1.1857  0.2060
   39MOL0     H 5322   5.982   1.340   9.090 -0.7935 -1.2982 -1.4488
   39MOL0     H 5323   6.254   1.261   9.209 -1.0308 -1.4270 -0.5798
   39MOL0     H 5324   6.197   1.426   9.174  0.4966  1.3769 -2.4951
   39MOL0     H 5325   6.237   1.202   8.960 -0.0111  0.9293 -3.4478
   39MOL0     H 5326   6.176   1.362   8.933 -0.2373  0.1662  0.3042
   39MOL0     H 5327   6.441   1.352   9.066  0.3811  2.4535  0.3077
   39MOL0     H 5328   6.362   1.488   8.985 -0.6579 -0.5049 -1.8324
   39MOL0     H 5329   6.441   1.242   8.820  4.0592  0.7168 -3.2258
   39MOL0     H 5330   6.389   1.395   8.766  0.2656 -0.9265  0.5541
   39MOL0     H 5331   6.605   1.584   8.879  2.3115  1.3418 -0.2234
   39MOL0     H 5332   6.969   1.513   8.942 -1.7419  3.1565  2.4566
   39MOL0     H 5333   6.862   1.649   8.927  0.7902  0.7839  0.3198
   39MOL0     H 5334   6.979   1.502   8.691 -3.0447 -2.5632  1.7561
   39MOL0     H 5335   6.933   1.683   8.694 -1.2812 -0.1290  0.5433
   39MOL0     H 5336   7.172   1.577   8.837  2.4855  1.6814  1.5750
   39MOL0     H 5337   7.158   1.682   8.691 -2.2810  1.2155 -0.5368
   39MOL0     H 5338   7.207   1.845   8.852 -0.5773  1.7515  1.9394
   39MOL0     H 5339   7.043   1.845   8.869  0.5332  0.3396 -3.8480
   39MOL0     H 5340   7.162   1.658   9.263  1.2510 -0.1673 -0.0959
   39MOL0     H 5341   7.161   1.806   9.597  1.2964  2.8476 -0.8463
   39MOL0     H 5342   7.268   1.697   9.495 -0.4330  0.4239  1.2490
   39MOL0     H 5343   7.093   1.683   9.481 -0.3746 -1.4986  1.8795
   39MOL0     H 5344   7.093   2.284   9.692 -0.5293 -0.1856 -0.0501
   39MOL0     H 5345   7.186   2.478   9.824  0.2700 -0.7919  0.4934
   39MOL0     H 5346   7.398   2.497   9.977 -0.2480  1.0655  0.3397
   39MOL0     H 5347   7.540   2.457   9.879 -1.9122  0.3276 -2.4820
   39MOL0     H 5348   7.639   2.662   9.915  2.6801 -2.5478  1.7220
   39MOL0     H 5349   7.485   2.730   9.994  0.2822  0.0491 -1.9002
   39MOL0     H 5350   7.657   2.514  10.093 -0.5337  0.3850 -2.8371
   39MOL0     H 5351   7.504   2.572  10.175 -0.1767  1.9716 -0.6886
   39MOL0     H 5352   7.574   2.784  10.218  0.1924 -0.1347  0.1265
   39MOL0     H 5353   7.721   2.763  10.126 -0.6702  4.3237  1.9190
   39MOL0     H 5354   7.683   2.660  10.418 -0.2681 -0.2234 -0.5167
   39MOL0     H 5355   7.781   2.575  10.290  0.3804 -0.2384  1.2874
   39MOL0     H 5356   7.823   2.874  10.353  0.4348  0.4921  2.3012
   39MOL0     H 5357   7.929   2.766  10.261 -4.0035 -0.7558 -3.4273
   39MOL0     H 5358   7.963   2.642  10.473 -0.4794  0.5353 -1.1563
   39MOL0     H 5359   7.878   2.763  10.563 -1.2287 -2.0279  0.6311
   39MOL0     H 5360   8.131   2.760  10.403  3.5309  0.3748  2.9973
   39MOL0     H 5361   8.103   2.812  10.577 -0.9011 -0.3885  0.4011
   39MOL0     H 5362   7.515   2.507   9.557  0.5847  0.9123  1.9944
   39MOL0     H 5363   7.426   2.327   9.433  0.4386  1.1253 -0.0856
   39MOL0     H 5364   7.236   2.136   9.208  0.6875 -0.3944 -1.8510
   39MOL0     H 5365   7.193   1.999   9.016  0.9257 -2.9485 -0.5847
   39MOL0     H 5366   5.721   0.757   9.118 -1.8724 -1.5324  1.5587
   39MOL0     H 5367   5.507   0.709   8.981  0.3058  0.5701 -1.3542
   39MOL0     H 5368   5.074   0.986   8.936  3.0208 -0.2233 -0.1414
   39MOL0     H 5369   4.888   1.078   8.827  2.3799  3.1533 -0.9800
   39MOL0     H 5370   4.675   1.083   8.696  0.0968 -1.6712 -0.8331
   39MOL0     H 5371   4.783   1.218   8.660 -2.6858  2.7382 -1.4867
   39MOL0     H 5372   4.573   1.069   8.481  0.7792 -1.6318 -0.1140
   39MOL0     H 5373   4.696   1.187   8.419  0.0290 -0.1536  0.2343
   39MOL0     H 5374   4.499   1.242   8.640  0.8246 -0.4098  1.1509
   39MOL0     H 5375   4.607   1.357   8.566  0.0664 -1.1936  0.3347
   39MOL0     H 5376   4.354   1.227   8.446  1.0216 -0.6356 -1.0261
   39MOL0     H 5377   4.458   1.306   8.333 -1.3298  1.6695 -0.4510
   39MOL0     H 5378   4.333   1.669   8.484  1.6134  0.9249  0.2638
   39MOL0     H 5379   5.003   0.903   8.463  3.1618 -0.7373 -1.3757
   39MOL0     H 5380   5.246   0.674   8.570  2.0599 -0.5482 -1.7649
   39MOL0     H 5381   5.229   0.803   8.451 -1.1538 -0.4078  0.8527
   39MOL0     H 5382   5.353   0.813   8.582  0.3457 -1.6052  1.3694
   40MOL0     O 5383   1.717   2.279   7.741  1.3008  0.0806  0.9402
   40MOL0     C 5384   1.754   2.322   7.627 -0.3815  0.3118 -0.4787
   40MOL0     O 5385   1.689   2.291   7.508 -0.3105  0.0097  0.7847
   40MOL0     C 5386   1.559   2.271   7.535  0.1388 -0.0056  0.1674
   40MOL0     C 5387   1.483   2.381   7.572 -0.2968 -0.3866 -0.2781
   40MOL0     C 5388   1.356   2.358   7.626  0.2044  0.3193 -0.0165
   40MOL0     C 5389   1.312   2.227   7.640 -0.1301 -0.0842 -0.2244
   40MOL0     O 5390   1.196   2.195   7.701  0.3196 -0.5375  0.3554
   40MOL0     C 5391   1.076   2.241   7.629 -0.2019 -0.4332  0.4580
   40MOL0     C 5392   1.061   2.154   7.502 -0.1799  0.0063  0.1114
   40MOL0     C 5393   1.047   2.005   7.536 -0.3846 -0.4715 -0.2025
   40MOL0     C 5394   1.078   1.912   7.414 -0.2065 -0.0942 -0.5316
   40MOL0     C 5395   1.024   1.772   7.438 -0.1693  0.2497  0.1265
   40MOL0     C 5396   1.114   1.684   7.533 -0.1266  0.8184 -0.3571
   40MOL0     C 5397   1.045   1.547   7.540  0.3595  0.3912 -0.6098
   40MOL0     C 5398   1.088   1.451   7.652 -0.4644  0.1460 -0.0412
   40MOL0     N 5399   1.234   1.444   7.659  0.9614  0.1686  0.4291
   40MOL0     C 5400   1.319   1.527   7.727 -0.2960 -0.3835 -0.4129
   40MOL0     C 5401   1.438   1.468   7.714 -0.5979  0.2011  0.3082
   40MOL0     C 5402   1.569   1.517   7.774  0.6611  0.2982  0.4328
   40MOL0     C 5403   1.606   1.662   7.732  0.3314  0.0844 -1.0520
   40MOL0     C 5404   1.584   1.695   7.585  0.1731  0.0285  0.2101
   40MOL0     C 5405   1.676   1.609   7.488 -0.4847  0.0858 -0.3359
   40MOL0     O 5406   1.672   1.666   7.354  0.3190 -0.4047  0.9473
   40MOL0     C 5407   1.546   1.666   7.299 -0.1280 -0.5232 -0.0721
   40MOL0     C 5408   1.495   1.782   7.235 -0.0222  0.1055  0.0860
   40MOL0     C 5409   1.367   1.788   7.177 -0.2868  0.0669  0.4122
   40MOL0     C 5410   1.331   1.926   7.121  0.6129 -0.3193  0.4919
   40MOL0     C 5411   1.286   1.669   7.168 -0.1992 -0.4845  0.6324
   40MOL0     C 5412   1.151   1.658   7.107 -0.3460 -0.0633  0.1294
   40MOL0     O 5413   1.082   1.543   7.139 -0.4127 -0.7790  0.5332
   40MOL0     C 5414   0.954   1.533   7.090  0.0386 -0.3037  0.2474
   40MOL0     C 5415   0.843   1.572   7.163  0.0359  0.1407 -0.3040
   40MOL0     C 5416   0.715   1.560   7.106 -0.3356  0.7527 -0.0895
   40MOL0     C 5417   0.702   1.517   6.970  0.2782  0.3296  0.2915
   40MOL0     O 5418   0.575   1.503   6.910 -1.3287 -0.2517 -0.2729
   40MOL0     C 5419   0.483   1.607   6.916 -0.2218  0.2922  0.1823
   40MOL0     C 5420   0.367   1.577   6.826  0.5357  0.3061 -0.1062
   40MOL0     C 5421   0.289   1.465   6.881  0.2968  0.5591  0.1880
   40MOL0     C 5422   0.205   1.498   7.000 -0.2711 -0.0815 -0.2960
   40MOL0     C 5423   0.072   1.563   6.960 -0.2186  0.6258 -0.3792
   40MOL0     C 5424  -0.018   1.597   7.085  0.2891 -0.0176 -0.1708
   40MOL0     C 5425  -0.163   1.650   7.046  0.6062 -0.7267  0.6627
   40MOL0     C 5426  -0.254   1.685   7.176  0.1754  0.1072 -0.9550
   40MOL0    Cl 5427  -0.295   1.526   7.252 -0.3117  0.3049 -0.5759
   40MOL0     C 5428   0.814   1.471   6.898  0.0212 -0.4921  0.8756
   40MOL0     C 5429   0.942   1.485   6.953  0.3463  0.1654 -0.2263
   40MOL0     O 5430   1.105   1.747   7.034 -0.5063 -0.3166  0.2536
   40MOL0     C 5431   1.345   1.552   7.230 -0.0009  0.4623 -1.1412
   40MOL0     C 5432   1.466   1.550   7.298  0.1680 -0.4350 -0.0182
   40MOL0     N 5433   1.424   1.354   7.628 -0.3967  0.5819 -0.2007
   40MOL0     N 5434   1.300   1.334   7.599 -0.0704  0.5469  0.0706
   40MOL0     C 5435   1.383   2.117   7.596 -0.3695  0.1135  0.3966
   40MOL0     C 5436   1.510   2.141   7.546 -0.2091  0.0506 -0.8664
   40MOL0     C 5437   1.874   2.417   7.634 -0.5062 -0.5473  0.6298
   40MOL0     C 5438   1.912   2.465   7.757  0.0512 -0.1876  0.0113
   40MOL0     C 5439   2.035   2.544   7.769  0.3655 -0.4860  1.3107
   40MOL0     C 5440   2.106   2.587   7.654  0.7098  0.2526  0.2914
   40MOL0     O 5441   2.211   2.672   7.680 -0.1102 -0.5705 -0.6579
   40MOL0     C 5442   2.258   2.756   7.575 -0.3511  0.1284 -0.2798
   40MOL0     C 5443   2.354   2.860   7.634 -0.2158  0.3894 -0.3890
   40MOL0     C 5444   2.404   2.976   7.541  0.1712  0.0969 -0.0611
   40MOL0     C 5445   2.467   2.924   7.409  0.1314  0.2490  0.9179
   40MOL0     C 5446   2.585   2.840   7.426  0.1182 -0.9067  0.4655
   40MOL0     C 5447   2.687   2.783   7.455  0.2499 -0.4265  0.7739
   40MOL0     C 5448   2.061   2.539   7.531 -0.2236  0.8690  0.7772
   40MOL0     C 5449   1.945   2.458   7.513 -0.2105 -1.4485 -1.0805
   40MOL0     C 5450   1.897   2.415   7.373  0.0211  0.2085 -0.8804
   40MOL0     H 5451   1.518   2.482   7.555 -0.0774 -0.3951  0.1061
   40MOL0     H 5452   1.292   2.438   7.663  0.1083  0.6504 -0.8771
   40MOL0     H 5453   1.082   2.348   7.607 -1.4746  0.0088  2.1444
   40MOL0     H 5454   0.983   2.235   7.685 -3.4089  2.7431 -3.8061
   40MOL0     H 5455   0.977   2.189   7.442 -0.7721 -0.9140  0.3686
   40MOL0     H 5456   1.148   2.157   7.436 -0.8142 -1.5215 -0.8576
   40MOL0     H 5457   1.100   1.964   7.622 -1.2582 -1.1570  0.0238
   40MOL0     H 5458   0.940   2.001   7.562 -0.8597  0.2298 -1.9063
   40MOL0     H 5459   1.033   1.946   7.321 -2.6480  0.6932  0.8403
   40MOL0     H 5460   1.187   1.904   7.406 -0.0854  2.1726 -2.2050
   40MOL0     H 5461   1.024   1.729   7.337  0.0374 -0.2045  0.3164
   40MOL0     H 5462   0.923   1.771   7.480  1.3656  1.3149  4.2401
   40MOL0     H 5463   1.206   1.680   7.475 -0.3840 -1.6593 -0.7243
   40MOL0     H 5464   1.122   1.726   7.634 -1.0314  0.5035 -0.1379
   40MOL0     H 5465   1.050   1.507   7.438 -0.7309  0.9859 -0.9123
   40MOL0     H 5466   0.939   1.560   7.562  0.1520 -1.0010 -0.6522
   40MOL0     H 5467   1.037   1.474   7.746  0.2737  0.1737  0.3618
   40MOL0     H 5468   1.045   1.355   7.623 -0.3383  0.1685 -0.3068
   40MOL0     H 5469   1.295   1.606   7.798 -0.2916 -2.6796  2.3597
   40MOL0     H 5470   1.645   1.455   7.726  1.9569  0.9964  1.5035
   40MOL0     H 5471   1.567   1.501   7.882 -0.4288 -0.7028  0.2790
   40MOL0     H 5472   1.533   1.727   7.782 -1.2038 -0.7498 -2.1019
   40MOL0     H 5473   1.710   1.671   7.762  0.3309 -1.7039 -0.3760
   40MOL0     H 5474   1.476   1.690   7.568  0.3323  0.4020 -1.0147
   40MOL0     H 5475   1.615   1.798   7.568  0.6245 -0.5874 -3.6677
   40MOL0     H 5476   1.779   1.620   7.522 -0.3542  0.8021 -0.9284
   40MOL0     H 5477   1.647   1.504   7.497 -0.9845 -0.0357 -2.7204
   40MOL0     H 5478   1.552   1.874   7.239  0.4283 -0.0969 -1.2122
   40MOL0     H 5479   1.228   1.949   7.151 -0.1146 -0.9160 -1.3860
   40MOL0     H 5480   1.324   1.923   7.011 -0.8071  1.8857  0.4708
   40MOL0     H 5481   1.390   2.005   7.168  1.1635 -0.5585  0.2152
   40MOL0     H 5482   0.857   1.612   7.262 -0.8938  0.3883 -0.2622
   40MOL0     H 5483   0.631   1.596   7.164  2.9811  4.2492  3.1170
   40MOL0     H 5484   0.447   1.626   7.018  1.6376 -1.9094  1.3398
   40MOL0     H 5485   0.533   1.699   6.883  0.1325  1.0991  2.7458
   40MOL0     H 5486   0.301   1.661   6.804 -4.7054 -2.7306  2.0907
   40MOL0     H 5487   0.418   1.543   6.735 -1.9965 -3.3931 -0.3640
   40MOL0     H 5488   0.349   1.376   6.904 -0.8645  0.4729  3.3504
   40MOL0     H 5489   0.223   1.437   6.799  0.7353  2.2850 -0.7906
   40MOL0     H 5490   0.248   1.574   7.065 -4.0869  0.6290  1.7050
   40MOL0     H 5491   0.180   1.414   7.066 -2.5820  1.2515  0.6407
   40MOL0     H 5492   0.092   1.654   6.903  5.1235  0.3117  0.4657
   40MOL0     H 5493   0.015   1.489   6.903  0.9716  0.3215 -1.2056
   40MOL0     H 5494   0.030   1.686   7.127  0.1297 -0.3499  0.7354
   40MOL0     H 5495  -0.019   1.510   7.150  0.9616  0.1084  0.0157
   40MOL0     H 5496  -0.222   1.578   6.987 -3.7464 -1.1697  4.9818
   40MOL0     H 5497  -0.152   1.739   6.983  0.4294 -2.3970 -1.9284
   40MOL0     H 5498  -0.341   1.747   7.148 -1.1612 -1.5944 -0.7132
   40MOL0     H 5499  -0.195   1.742   7.249  1.5555 -0.9605 -1.2001
   40MOL0     H 5500   0.793   1.426   6.801  1.7626  0.4327  0.0211
   40MOL0     H 5501   1.030   1.468   6.891  1.5818  1.7993  1.0061
   40MOL0     H 5502   1.304   1.452   7.215  0.9836 -0.1118 -0.1907
   40MOL0     H 5503   1.509   1.464   7.349  1.3212 -0.4762 -1.0184
   40MOL0     H 5504   1.345   2.015   7.605  0.4126 -0.4313 -1.8607
   40MOL0     H 5505   1.571   2.053   7.533  2.5169  1.9737 -2.0755
   40MOL0     H 5506   1.851   2.442   7.843 -0.7302 -2.2453 -1.0245
   40MOL0     H 5507   2.067   2.585   7.864  1.1891  0.3019  0.7122
   40MOL0     H 5508   2.323   2.696   7.510  2.1903  2.0144  0.3944
   40MOL0     H 5509   2.172   2.810   7.534 -0.1421  1.6623  1.1931
   40MOL0     H 5510   2.440   2.815   7.684 -0.5991 -1.4354 -1.2912
   40MOL0     H 5511   2.295   2.899   7.718  0.9824  1.5987 -0.0803
   40MOL0     H 5512   2.316   3.032   7.508 -0.5245  0.4898  2.2606
   40MOL0     H 5513   2.478   3.038   7.593  3.9034 -3.5246 -0.5409
   40MOL0     H 5514   2.494   3.007   7.343 -1.3036  0.6379  0.7986
   40MOL0     H 5515   2.401   2.875   7.337  1.4521 -0.7328  0.3411
   40MOL0     H 5516   2.785   2.747   7.480  0.8466 -0.4594 -1.3801
   40MOL0     H 5517   2.128   2.559   7.448 -0.0834 -1.6381  0.1875
   40MOL0     H 5518   1.893   2.307   7.386  2.7370  0.0299 -0.9965
   40MOL0     H 5519   1.797   2.457   7.357  1.0214  2.3442 -1.8849
   40MOL0     H 5520   1.962   2.433   7.287 -0.8927 -2.3940 -2.2257
   41MOL0     O 5521   6.963   3.931   0.527  0.2577  1.1307  0.6300
   41MOL0     C 5522   6.900   3.960   0.629  0.0971  0.0110  0.2209
   41MOL0     O 5523   6.943   4.034   0.725  0.0111 -0.3491  1.2067
   41MOL0     C 5524   7.073   4.078   0.727 -0.2531  0.2563 -0.5945
   41MOL0     C 5525   7.086   4.207   0.778 -0.0896  0.3398  0.1135
   41MOL0     C 5526   7.213   4.261   0.807 -0.2803 -0.5686  0.1131
   41MOL0     C 5527   7.326   4.184   0.785  0.4362 -0.4313 -0.5986
   41MOL0     O 5528   7.438   4.250   0.814  0.5585 -0.1230  0.4806
   41MOL0     C 5529   7.558   4.164   0.822  0.7330 -0.4842  0.0650
   41MOL0     C 5530   7.686   4.252   0.853  0.0232 -0.6566 -0.1171
   41MOL0     C 5531   7.733   4.334   0.738  0.3408 -0.2510  0.7512
   41MOL0     C 5532   7.882   4.378   0.749 -0.2640 -0.1658  0.2608
   41MOL0     C 5533   7.943   4.408   0.610 -0.3588 -1.1711  0.0230
   41MOL0     C 5534   7.875   4.525   0.538 -0.4041 -0.6585 -0.4777
   41MOL0     C 5535   7.940   4.667   0.580 -0.2986 -0.1976  0.2220
   41MOL0     C 5536   7.918   4.773   0.469 -0.7023 -0.1882 -0.5142
   41MOL0     N 5537   7.990   4.743   0.348  0.3013 -0.2554  0.7145
   41MOL0     C 5538   7.946   4.722   0.218 -0.5321  0.0707 -0.6494
   41MOL0     C 5539   8.053   4.707   0.145 -1.2895  0.9067  0.5628
   41MOL0     C 5540   8.062   4.649   0.009 -0.0736 -0.3000  0.3860
   41MOL0     C 5541   8.197   4.601  -0.031 -0.3487  0.2408 -1.2382
   41MOL0     C 5542   8.244   4.481   0.053 -0.2231  0.7757 -0.2668
   41MOL0     C 5543   8.375   4.416   0.006  0.1289 -0.0097 -0.4636
   41MOL0     O 5544   8.405   4.441  -0.136 -0.0256 -0.1268  0.0670
   41MOL0     C 5545   8.532   4.413  -0.179  0.8510 -0.9955 -0.1905
   41MOL0     C 5546   8.639   4.379  -0.104 -0.5191  0.5413  0.0552
   41MOL0     C 5547   8.766   4.356  -0.157  0.1118  1.3315  0.3653
   41MOL0     C 5548   8.877   4.330  -0.063  0.7832  0.9434 -0.5052
   41MOL0     C 5549   8.779   4.369  -0.303 -0.4735  0.8219  0.1598
   41MOL0     C 5550   8.916   4.375  -0.371 -0.1557  0.3374 -0.8236
   41MOL0     O 5551   9.022   4.320  -0.314 -0.4801 -0.0268 -0.1638
   41MOL0     C 5552   9.152   4.343  -0.365 -0.2400  0.0128  0.1617
   41MOL0     C 5553   9.233   4.232  -0.369 -0.1168  0.1981 -0.0437
   41MOL0     C 5554   9.373   4.245  -0.398 -0.2248  0.4605 -0.2486
   41MOL0     C 5555   9.434   4.373  -0.420  0.5331  0.2352 -0.5679
   41MOL0     O 5556   9.568   4.380  -0.427 -0.4858 -0.0862 -0.4593
   41MOL0     C 5557   9.622   4.513  -0.393 -0.0113 -0.1911  0.0446
   41MOL0     C 5558   9.768   4.486  -0.355  0.3871  0.4585  0.1972
   41MOL0     C 5559   9.797   4.461  -0.206  0.2848  0.2967 -0.6928
   41MOL0     C 5560   9.713   4.360  -0.133  0.5855 -0.8818  0.1070
   41MOL0     C 5561   9.719   4.350   0.011  0.0053  0.1353 -0.5338
   41MOL0     C 5562   9.847   4.270   0.054 -0.2868  0.6272 -0.3615
   41MOL0     C 5563   9.868   4.267   0.204 -0.2320 -0.7365 -0.0473
   41MOL0     C 5564   9.791   4.157   0.282  0.0743 -0.6257  0.4143
   41MOL0    Cl 5565   9.617   4.185   0.280 -0.7050 -0.1542 -0.1666
   41MOL0     C 5566   9.345   4.493  -0.428  0.2703  1.2633 -0.9494
   41MOL0     C 5567   9.207   4.476  -0.400  0.2865  0.7237  0.0501
   41MOL0     O 5568   8.915   4.432  -0.474 -0.6686 -1.2894 -0.1319
   41MOL0     C 5569   8.666   4.403  -0.382 -0.4783  0.7436  0.4266
   41MOL0     C 5570   8.547   4.431  -0.319 -0.3783  0.9175  0.4682
   41MOL0     N 5571   8.161   4.738   0.219  0.1294  0.5817 -0.3625
   41MOL0     N 5572   8.125   4.764   0.344 -0.4905  0.2465  0.7517
   41MOL0     C 5573   7.309   4.054   0.736 -0.4252  0.1345 -0.3179
   41MOL0     C 5574   7.190   3.994   0.714  1.4198 -0.7857 -0.5425
   41MOL0     C 5575   6.777   3.891   0.662  0.4649  0.5910 -0.5070
   41MOL0     C 5576   6.684   3.950   0.743 -0.2912  0.2733  0.1618
   41MOL0     C 5577   6.559   3.889   0.764  1.1458 -0.0686  0.0613
   41MOL0     C 5578   6.520   3.761   0.707  0.3261  0.4286 -0.4863
   41MOL0     O 5579   6.400   3.710   0.743  0.4860 -0.5981  0.0174
   41MOL0     C 5580   6.358   3.585   0.696 -0.0568 -0.3089 -0.4425
   41MOL0     C 5581   6.241   3.525   0.776  0.5474 -0.7332  0.2685
   41MOL0     C 5582   6.172   3.404   0.721  0.8980  0.5627  0.1919
   41MOL0     C 5583   6.256   3.274   0.704  0.0607  0.5779  0.3967
   41MOL0     C 5584   6.317   3.241   0.835 -0.2326  0.3337  0.5645
   41MOL0     C 5585   6.376   3.224   0.942 -0.0588  1.1066  0.3514
   41MOL0     C 5586   6.605   3.708   0.611  1.4042  0.0358  0.1097
   41MOL0     C 5587   6.734   3.771   0.590  0.0930  0.5915 -0.8352
   41MOL0     C 5588   6.823   3.689   0.494  0.1964  0.1567 -0.1408
   41MOL0     H 5589   6.996   4.265   0.794 -0.5617 -0.1198 -0.7747
   41MOL0     H 5590   7.211   4.360   0.853 -0.1837 -1.4135  2.0593
   41MOL0     H 5591   7.579   4.130   0.721  3.2369  0.8701  0.0451
   41MOL0     H 5592   7.535   4.079   0.886 -1.6263 -1.0273 -1.3808
   41MOL0     H 5593   7.661   4.316   0.938  1.6869 -0.4644  0.2670
   41MOL0     H 5594   7.770   4.186   0.877  1.0376  1.0429  1.3086
   41MOL0     H 5595   7.719   4.274   0.648  1.3222  0.1134  0.3433
   41MOL0     H 5596   7.666   4.420   0.724 -0.0098 -0.5407  0.6359
   41MOL0     H 5597   7.879   4.473   0.802 -1.8007 -0.1065  0.0932
   41MOL0     H 5598   7.945   4.305   0.802  1.5170 -0.6885 -2.3960
   41MOL0     H 5599   7.936   4.315   0.552  0.3813  0.1768 -2.3514
   41MOL0     H 5600   8.051   4.419   0.620  0.2650 -5.4382 -0.0793
   41MOL0     H 5601   7.885   4.505   0.431  0.8274 -0.2610 -0.4527
   41MOL0     H 5602   7.769   4.533   0.561 -0.0005 -1.6679  2.0031
   41MOL0     H 5603   8.046   4.660   0.607 -0.0580  3.2362  0.5984
   41MOL0     H 5604   7.888   4.702   0.670  1.3242  2.3992  0.2629
   41MOL0     H 5605   7.810   4.768   0.451 -0.8001  0.3442 -0.1018
   41MOL0     H 5606   7.949   4.872   0.502 -0.6565 -0.0108 -1.0876
   41MOL0     H 5607   7.845   4.694   0.189 -0.5955 -0.8017  0.3611
   41MOL0     H 5608   8.046   4.731  -0.061  1.8632  2.8375  3.2951
   41MOL0     H 5609   7.988   4.570  -0.007 -0.5587  0.2012  0.0939
   41MOL0     H 5610   8.196   4.571  -0.136 -0.1102 -1.7280 -0.7059
   41MOL0     H 5611   8.274   4.677  -0.014 -0.3348 -0.2324  1.0789
   41MOL0     H 5612   8.239   4.509   0.158 -2.3495 -0.5251  0.0407
   41MOL0     H 5613   8.175   4.396   0.043 -1.1046  1.2650  1.4402
   41MOL0     H 5614   8.450   4.479   0.054 -0.5812 -0.5226  1.4044
   41MOL0     H 5615   8.381   4.313   0.042  0.3412  0.4701  0.9272
   41MOL0     H 5616   8.619   4.363   0.002  1.1552 -0.0227  0.3277
   41MOL0     H 5617   8.940   4.420  -0.059  1.0565  0.7199  0.4256
   41MOL0     H 5618   8.926   4.234  -0.080 -3.1837 -1.5455  0.6590
   41MOL0     H 5619   8.833   4.325   0.037 -1.1098 -2.0842 -1.3557
   41MOL0     H 5620   9.189   4.133  -0.356 -2.7267  1.0630 -1.6104
   41MOL0     H 5621   9.440   4.160  -0.392  4.0309  3.4788 -0.9541
   41MOL0     H 5622   9.614   4.574  -0.483  0.9715 -1.2369 -0.7748
   41MOL0     H 5623   9.567   4.558  -0.309  0.4232  0.9258 -0.2533
   41MOL0     H 5624   9.804   4.406  -0.419 -3.7657 -0.1380 -1.6835
   41MOL0     H 5625   9.833   4.568  -0.387  1.0221 -0.0312  0.2326
   41MOL0     H 5626   9.805   4.556  -0.152 -0.1027 -0.7112  1.2389
   41MOL0     H 5627   9.899   4.424  -0.199  0.3612 -0.0055 -2.7645
   41MOL0     H 5628   9.743   4.260  -0.167 -0.3546 -1.2262  0.2632
   41MOL0     H 5629   9.608   4.382  -0.155  0.1304 -1.6275  1.3985
   41MOL0     H 5630   9.709   4.445   0.065  0.0224 -1.2800  2.1448
   41MOL0     H 5631   9.630   4.297   0.046 -0.1656 -0.6876 -2.1294
   41MOL0     H 5632   9.938   4.314   0.012 -1.5453  3.8891  0.0943
   41MOL0     H 5633   9.839   4.165   0.024 -0.3564  0.4512  0.2682
   41MOL0     H 5634   9.853   4.363   0.254  1.4634 -0.7837  0.6392
   41MOL0     H 5635   9.974   4.243   0.217  0.3448  2.3134  1.7506
   41MOL0     H 5636   9.826   4.155   0.386  0.2497  0.7004  0.4011
   41MOL0     H 5637   9.810   4.054   0.252 -1.9586 -0.7544 -0.5635
   41MOL0     H 5638   9.383   4.594  -0.436 -0.8009  1.6952 -0.7831
   41MOL0     H 5639   9.158   4.572  -0.388 -1.0906 -0.1845  2.3781
   41MOL0     H 5640   8.684   4.408  -0.489  1.1244  1.4632  0.7033
   41MOL0     H 5641   8.461   4.454  -0.381 -2.4046 -1.6679  2.1340
   41MOL0     H 5642   7.404   4.000   0.737  3.2091  5.6342  1.6714
   41MOL0     H 5643   7.162   3.896   0.676  0.1149 -0.3740 -0.6613
   41MOL0     H 5644   6.693   4.049   0.786 -3.0318  0.9424 -0.5935
   41MOL0     H 5645   6.500   3.947   0.834  1.2371  0.3245 -0.1829
   41MOL0     H 5646   6.338   3.590   0.589  0.6301 -0.6459 -0.5908
   41MOL0     H 5647   6.436   3.508   0.693  0.5758  0.0627  2.6801
   41MOL0     H 5648   6.165   3.602   0.789  0.2602 -0.9391 -0.1869
   41MOL0     H 5649   6.265   3.497   0.879 -1.6272 -1.3771  0.6462
   41MOL0     H 5650   6.096   3.381   0.797 -0.2493 -1.2680 -1.4232
   41MOL0     H 5651   6.114   3.426   0.631  0.5999 -0.2327  0.1849
   41MOL0     H 5652   6.333   3.301   0.632 -1.1051  2.3632 -0.2435
   41MOL0     H 5653   6.192   3.200   0.655 -0.8616  2.8380 -1.9988
   41MOL0     H 5654   6.428   3.196   1.031  1.2791  0.0210 -0.7232
   41MOL0     H 5655   6.569   3.624   0.552 -3.1893  0.2897  2.1130
   41MOL0     H 5656   6.926   3.689   0.530 -0.0936  2.3199  0.9069
   41MOL0     H 5657   6.789   3.586   0.487 -0.2636  0.1438  1.6614
   41MOL0     H 5658   6.814   3.741   0.398 -1.9518  0.4774  0.1631
   42MOL0     O 5659   6.080   8.273   7.066 -1.0727  0.1599  0.6887
   42MOL0     C 5660   6.178   8.197   7.072  0.3519 -0.6696 -0.5868
   42MOL0     O 5661   6.274   8.196   7.172 -0.3512 -0.1403  0.0545
   42MOL0     C 5662   6.254   8.279   7.277 -0.0882  0.9450  0.5470
   42MOL0     C 5663   6.304   8.409   7.271  0.6749  0.1831  0.7939
   42MOL0     C 5664   6.283   8.497   7.384  1.0997 -0.2927  0.7995
   42MOL0     C 5665   6.239   8.450   7.507 -0.0831  1.0013  0.2581
   42MOL0     O 5666   6.234   8.545   7.606 -0.1697 -0.3946 -0.5402
   42MOL0     C 5667   6.221   8.487   7.740  0.1411 -0.2292  0.8070
   42MOL0     C 5668   6.233   8.609   7.845 -0.5511  0.5757 -0.7017
   42MOL0     C 5669   6.143   8.728   7.813  0.2949 -0.6068  0.0372
   42MOL0     C 5670   6.125   8.807   7.939  0.0793  0.1798  0.0837
   42MOL0     C 5671   6.017   8.918   7.921  0.2766  0.2610  0.4322
   42MOL0     C 5672   6.049   9.026   7.816  0.2738 -0.0892 -0.5071
   42MOL0     C 5673   5.936   9.142   7.825  0.0085 -0.4859 -0.0751
   42MOL0     C 5674   5.933   9.236   7.706  1.1018 -0.1700  0.1506
   42MOL0     N 5675   5.924   9.165   7.588  1.0525  0.1375  0.2417
   42MOL0     C 5676   5.807   9.118   7.534 -0.3016  0.4973 -1.0657
   42MOL0     C 5677   5.857   9.050   7.427 -0.2112 -0.4545  0.2511
   42MOL0     C 5678   5.777   8.955   7.333 -0.0109 -0.6973 -0.6541
   42MOL0     C 5679   5.750   8.818   7.392  0.2319  1.0828 -0.3705
   42MOL0     C 5680   5.877   8.729   7.395 -0.1034  0.0595 -0.8753
   42MOL0     C 5681   5.872   8.634   7.515  1.5412  0.1354 -0.6077
   42MOL0     O 5682   5.749   8.554   7.505 -0.4465  0.6204  0.3859
   42MOL0     C 5683   5.736   8.463   7.399 -0.6936 -0.4194  0.0787
   42MOL0     C 5684   5.610   8.446   7.348  0.4785  0.9347  0.4337
   42MOL0     C 5685   5.573   8.346   7.258  0.2226 -0.4938  0.4006
   42MOL0     C 5686   5.428   8.335   7.221  0.4017 -1.0530 -0.0274
   42MOL0     C 5687   5.675   8.256   7.208 -0.3474  0.1441 -0.5247
   42MOL0     C 5688   5.639   8.149   7.116 -0.3205  0.1043 -0.1316
   42MOL0     O 5689   5.562   8.186   7.001 -0.4595 -0.8678 -0.3266
   42MOL0     C 5690   5.549   8.106   6.888 -0.3155  0.0394 -1.1215
   42MOL0     C 5691   5.440   8.143   6.809 -0.2934 -0.3317  0.2308
   42MOL0     C 5692   5.406   8.060   6.702 -0.4639  0.5526 -0.5728
   42MOL0     C 5693   5.475   7.946   6.675 -0.9402  1.0816 -0.3715
   42MOL0     O 5694   5.423   7.875   6.578 -0.2801 -0.1478 -0.5475
   42MOL0     C 5695   5.476   7.744   6.557 -0.0697 -0.6029 -0.7965
   42MOL0     C 5696   5.397   7.683   6.452 -0.0063  0.3750  0.1723
   42MOL0     C 5697   5.253   7.653   6.502  0.3601 -0.0667  0.4417
   42MOL0     C 5698   5.233   7.512   6.575  0.0667  0.2171  0.6687
   42MOL0     C 5699   5.260   7.399   6.475 -0.2030  0.4566  0.6226
   42MOL0     C 5700   5.362   7.304   6.530 -0.3679  0.8803  0.3118
   42MOL0     C 5701   5.304   7.251   6.661 -0.2105  0.2600 -0.3734
   42MOL0     C 5702   5.406   7.162   6.722 -0.2132  0.0401 -0.0687
   42MOL0    Cl 5703   5.551   7.239   6.757  0.4135 -0.2208  0.1308
   42MOL0     C 5704   5.589   7.918   6.747 -0.1638 -0.3599 -0.2401
   42MOL0     C 5705   5.620   7.990   6.863 -0.0628  0.3430  0.0526
   42MOL0     O 5706   5.663   8.038   7.159  0.1719 -0.6146  0.5271
   42MOL0     C 5707   5.810   8.275   7.247 -0.7004  0.0708 -0.5731
   42MOL0     C 5708   5.836   8.377   7.340 -0.6045 -0.5209 -0.1918
   42MOL0     N 5709   5.999   9.053   7.426  0.9227  0.4171  0.5807
   42MOL0     N 5710   6.033   9.139   7.511 -0.1140  0.1726  0.4469
   42MOL0     C 5711   6.188   8.316   7.511  0.1404 -0.2142 -0.2851
   42MOL0     C 5712   6.182   8.239   7.398 -0.2888 -0.0219 -0.1369
   42MOL0     C 5713   6.205   8.104   6.959  0.3953  0.0483  0.7342
   42MOL0     C 5714   6.327   8.031   6.960 -1.0378  0.4889 -0.0098
   42MOL0     C 5715   6.339   7.928   6.871 -0.0392 -0.6796  0.0422
   42MOL0     C 5716   6.233   7.890   6.784 -0.1875  0.4238  0.1580
   42MOL0     O 5717   6.254   7.795   6.690  0.2054 -0.7121 -0.2058
   42MOL0     C 5718   6.347   7.686   6.711 -0.2513 -0.4364 -0.2695
   42MOL0     C 5719   6.326   7.604   6.585  0.8606 -0.0076  0.5931
   42MOL0     C 5720   6.371   7.659   6.443  0.1476 -0.4068 -0.1817
   42MOL0     C 5721   6.379   7.551   6.335 -0.0361 -0.0639 -0.4760
   42MOL0     C 5722   6.259   7.469   6.330 -0.6721  0.1328 -0.7155
   42MOL0     C 5723   6.154   7.406   6.335  0.2116  0.5774 -0.0645
   42MOL0     C 5724   6.113   7.965   6.783  0.1882  0.5559 -0.4231
   42MOL0     C 5725   6.097   8.069   6.874 -0.4268  0.2256 -0.3018
   42MOL0     C 5726   5.960   8.132   6.848  0.0584  0.5407 -0.0559
   42MOL0     H 5727   6.362   8.445   7.186 -0.1928  1.5827  0.7729
   42MOL0     H 5728   6.325   8.597   7.380  3.7992 -1.3557 -2.5597
   42MOL0     H 5729   6.307   8.423   7.761  0.3035 -0.1311  0.4597
   42MOL0     H 5730   6.127   8.435   7.759 -1.4326  1.2232 -2.2432
   42MOL0     H 5731   6.196   8.568   7.939 -3.7226  1.6675 -1.3481
   42MOL0     H 5732   6.336   8.637   7.867 -0.8078  1.8591 -1.0324
   42MOL0     H 5733   6.182   8.798   7.739  2.7485  0.8003  2.4871
   42MOL0     H 5734   6.046   8.697   7.772 -0.3738 -1.8785  2.4219
   42MOL0     H 5735   6.085   8.735   8.012 -2.0159 -0.6138 -1.7259
   42MOL0     H 5736   6.223   8.847   7.967  0.5456 -1.5771  1.1864
   42MOL0     H 5737   5.995   8.955   8.021 -0.9500 -1.9630  1.0407
   42MOL0     H 5738   5.929   8.858   7.895  2.0294 -2.6889  0.8122
   42MOL0     H 5739   6.146   9.068   7.844  0.6929 -1.1473 -0.3672
   42MOL0     H 5740   6.070   8.978   7.720  0.6154  1.5107 -1.2732
   42MOL0     H 5741   5.962   9.189   7.920  1.0863  0.2335 -0.7093
   42MOL0     H 5742   5.835   9.101   7.821  0.2280 -0.9613 -1.0473
   42MOL0     H 5743   5.847   9.303   7.716 -1.5532 -3.5080  2.1591
   42MOL0     H 5744   6.017   9.304   7.692 -1.6297  3.0332 -2.6399
   42MOL0     H 5745   5.707   9.138   7.571 -0.4234  0.8440 -1.5744
   42MOL0     H 5746   5.845   8.933   7.250  4.2167 -1.7042  2.6765
   42MOL0     H 5747   5.688   8.997   7.286 -0.6373 -2.6902 -1.3650
   42MOL0     H 5748   5.700   8.824   7.489 -1.5635  1.5988 -1.2829
   42MOL0     H 5749   5.684   8.769   7.320  2.4194 -2.2312 -0.3035
   42MOL0     H 5750   5.878   8.671   7.302 -3.3150  1.6617 -2.0633
   42MOL0     H 5751   5.970   8.783   7.412 -0.6179  0.2906  1.6392
   42MOL0     H 5752   5.964   8.576   7.527  1.1227 -0.4001  0.1344
   42MOL0     H 5753   5.879   8.694   7.606  3.2853 -2.9273  1.4704
   42MOL0     H 5754   5.523   8.496   7.389 -0.0052 -1.0629  2.0219
   42MOL0     H 5755   5.404   8.388   7.129 -2.7260  0.8165  1.7021
   42MOL0     H 5756   5.374   8.403   7.288  1.1294 -1.5794  1.1287
   42MOL0     H 5757   5.386   8.234   7.228  2.5443 -2.0711 -0.7312
   42MOL0     H 5758   5.380   8.231   6.830 -0.5846  0.0989 -2.0977
   42MOL0     H 5759   5.313   8.074   6.647 -2.1639  0.4377  2.0465
   42MOL0     H 5760   5.578   7.762   6.520  0.0369 -0.5106 -0.4606
   42MOL0     H 5761   5.465   7.682   6.646 -0.9974  1.9727  1.0119
   42MOL0     H 5762   5.390   7.742   6.360 -1.3197 -1.7232 -1.1580
   42MOL0     H 5763   5.449   7.589   6.431  0.7321  0.4780  1.4102
   42MOL0     H 5764   5.187   7.655   6.415  1.8940 -0.3878 -0.7723
   42MOL0     H 5765   5.220   7.728   6.574 -2.4818  0.3350 -1.1209
   42MOL0     H 5766   5.131   7.497   6.611 -1.2169 -1.0964 -3.0402
   42MOL0     H 5767   5.305   7.508   6.658  1.9003  0.1857 -0.8530
   42MOL0     H 5768   5.170   7.340   6.455 -0.1424 -0.3451  2.4994
   42MOL0     H 5769   5.289   7.432   6.374 -1.0283 -0.8190 -0.0618
   42MOL0     H 5770   5.464   7.345   6.528  1.1778 -2.6495 -0.9725
   42MOL0     H 5771   5.383   7.230   6.453 -1.3327  0.6597  0.2444
   42MOL0     H 5772   5.226   7.189   6.617  1.3205  0.1680 -3.2398
   42MOL0     H 5773   5.265   7.325   6.732 -0.0608  0.1590 -0.1859
   42MOL0     H 5774   5.445   7.081   6.660  1.3714 -1.9270  3.1768
   42MOL0     H 5775   5.369   7.125   6.819  0.3227  2.5009  1.1563
   42MOL0     H 5776   5.658   7.837   6.727  1.1411  0.2387  1.5009
   42MOL0     H 5777   5.699   7.966   6.934  0.6876 -2.3095 -1.5186
   42MOL0     H 5778   5.883   8.201   7.215 -0.0333 -0.2682  1.5556
   42MOL0     H 5779   5.933   8.395   7.386 -1.0619 -1.7802  1.3031
   42MOL0     H 5780   6.141   8.282   7.603 -0.0133  0.9322  0.0752
   42MOL0     H 5781   6.143   8.138   7.389 -1.3864  0.3341  0.4332
   42MOL0     H 5782   6.413   8.066   7.015  2.0382 -2.5687 -2.4511
   42MOL0     H 5783   6.439   7.884   6.869  1.5844  2.4755  2.1576
   42MOL0     H 5784   6.454   7.708   6.708 -0.7072  2.4470  0.9356
   42MOL0     H 5785   6.312   7.646   6.807 -1.1926 -0.0002 -0.4150
   42MOL0     H 5786   6.219   7.584   6.575  0.7233  1.5610 -1.8246
   42MOL0     H 5787   6.390   7.517   6.598  3.1869  1.5489  0.2590
   42MOL0     H 5788   6.305   7.740   6.413  0.6165 -0.2891 -0.9207
   42MOL0     H 5789   6.470   7.705   6.453  0.7522 -1.5326 -0.6588
   42MOL0     H 5790   6.451   7.475   6.365  0.0766  0.8060  1.6273
   42MOL0     H 5791   6.407   7.591   6.238  0.4785 -0.4307 -0.4784
   42MOL0     H 5792   6.069   7.341   6.341  1.5939 -1.2252  1.4867
   42MOL0     H 5793   6.030   7.938   6.717  0.3651  1.3940 -1.0056
   42MOL0     H 5794   5.911   8.079   6.765  0.9032  2.0055 -1.5612
   42MOL0     H 5795   5.904   8.130   6.942  2.3428  1.2118  1.3917
   42MOL0     H 5796   5.978   8.237   6.820  2.0792  0.2197 -0.1052
   43MOL0     O 5797   1.323   4.031   3.766 -0.2437 -0.3084  0.4808
   43MOL0     C 5798   1.201   4.025   3.794 -0.0248 -0.0999 -0.9752
   43MOL0     O 5799   1.146   3.927   3.873 -0.4265  0.2989  0.2135
   43MOL0     C 5800   1.223   3.824   3.906  0.4023  0.1319  0.9258
   43MOL0     C 5801   1.274   3.813   4.034 -0.7653  0.2273 -0.5467
   43MOL0     C 5802   1.342   3.695   4.074  0.3145 -0.4505 -0.0091
   43MOL0     C 5803   1.361   3.594   3.973  0.4685 -0.3179 -0.7074
   43MOL0     O 5804   1.434   3.484   3.998 -0.7467  0.8720  0.7219
   43MOL0     C 5805   1.453   3.421   4.123 -0.0339  0.1910 -0.5232
   43MOL0     C 5806   1.318   3.355   4.168  0.2275 -0.7427  0.2503
   43MOL0     C 5807   1.329   3.276   4.302  0.2408  0.7191  0.7518
   43MOL0     C 5808   1.377   3.373   4.411 -0.6672 -0.0574  0.0114
   43MOL0     C 5809   1.317   3.323   4.548 -0.1126  0.0383 -0.2395
   43MOL0     C 5810   1.374   3.412   4.661 -0.0169  0.2704 -0.2767
   43MOL0     C 5811   1.331   3.347   4.796  0.8336  0.0725 -0.4493
   43MOL0     C 5812   1.360   3.436   4.926 -0.3565 -0.1347  0.9748
   43MOL0     N 5813   1.505   3.442   4.960 -0.6452  0.0365 -0.3875
   43MOL0     C 5814   1.572   3.338   5.022  0.0834 -0.1426  0.7969
   43MOL0     C 5815   1.701   3.389   5.050 -0.1033  0.2432 -0.5586
   43MOL0     C 5816   1.799   3.315   5.131  0.2443  0.7770 -0.1189
   43MOL0     C 5817   1.913   3.394   5.184 -0.0024 -0.3280  0.3849
   43MOL0     C 5818   1.968   3.324   5.300 -0.2190  0.8592 -0.7968
   43MOL0     C 5819   2.098   3.392   5.343 -0.3746  0.6275  0.0181
   43MOL0     O 5820   2.076   3.531   5.393 -0.3042 -0.1538  0.7643
   43MOL0     C 5821   2.177   3.585   5.473  0.3268 -0.3463 -0.1831
   43MOL0     C 5822   2.139   3.683   5.562  0.0061 -0.5502 -0.4566
   43MOL0     C 5823   2.234   3.748   5.640  0.7903 -0.1700 -0.3035
   43MOL0     C 5824   2.189   3.860   5.738  0.3992  0.2924  0.4603
   43MOL0     C 5825   2.369   3.709   5.626 -0.2864 -0.1672 -0.4169
   43MOL0     C 5826   2.481   3.764   5.712  0.2777  0.6146 -0.0753
   43MOL0     O 5827   2.602   3.784   5.650 -0.2500  0.3322  0.0412
   43MOL0     C 5828   2.721   3.813   5.716 -0.3688  0.2042  0.9404
   43MOL0     C 5829   2.838   3.781   5.641 -0.4558 -0.3281  0.6124
   43MOL0     C 5830   2.966   3.813   5.686 -0.3428 -0.2374  0.6323
   43MOL0     C 5831   2.984   3.872   5.814  0.4614  0.7702  0.8064
   43MOL0     O 5832   3.107   3.898   5.875  0.0336  0.0207 -0.5280
   43MOL0     C 5833   3.218   3.902   5.787 -0.5670 -0.1932  0.7805
   43MOL0     C 5834   3.336   3.911   5.891  0.3578 -0.1400 -0.1464
   43MOL0     C 5835   3.338   3.820   6.018 -0.4408 -0.1053 -0.5127
   43MOL0     C 5836   3.482   3.784   6.069  0.7787  0.0142 -0.9579
   43MOL0     C 5837   3.486   3.685   6.194  0.8752  0.6491 -0.0514
   43MOL0     C 5838   3.452   3.543   6.149 -0.4815  0.1563  0.1143
   43MOL0     C 5839   3.568   3.471   6.087  0.5469  0.7173  0.2310
   43MOL0     C 5840   3.552   3.316   6.087 -0.0111  0.5486  0.1438
   43MOL0    Cl 5841   3.512   3.269   5.922 -0.0905  0.0701 -0.5147
   43MOL0     C 5842   2.868   3.903   5.890 -0.2076  0.5329 -0.9072
   43MOL0     C 5843   2.739   3.886   5.835  1.4712  0.2202  0.6180
   43MOL0     O 5844   2.466   3.760   5.833  0.3854  0.0482  0.7813
   43MOL0     C 5845   2.407   3.631   5.520 -0.1894  0.8157 -0.3497
   43MOL0     C 5846   2.312   3.567   5.446  0.3191  0.7042 -0.2650
   43MOL0     N 5847   1.709   3.519   5.002 -0.0449 -0.5316 -0.0173
   43MOL0     N 5848   1.588   3.554   4.961  0.8887 -0.2779  0.0847
   43MOL0     C 5849   1.308   3.601   3.850  0.2737 -0.6748  0.5903
   43MOL0     C 5850   1.240   3.717   3.816  0.1713  0.3731 -0.1395
   43MOL0     C 5851   1.117   4.146   3.775  0.1916  0.0259 -0.3680
   43MOL0     C 5852   0.982   4.128   3.801  0.9232  0.9171 -0.0355
   43MOL0     C 5853   0.892   4.231   3.778  0.2731  0.1407 -0.7974
   43MOL0     C 5854   0.921   4.356   3.730 -0.4583 -0.2790 -0.1428
   43MOL0     O 5855   0.823   4.453   3.706  0.4275 -0.1455 -0.0047
   43MOL0     C 5856   0.847   4.575   3.629  0.8094 -0.6037 -0.0480
   43MOL0     C 5857   0.723   4.665   3.624 -0.4977 -0.2437 -0.1856
   43MOL0     C 5858   0.613   4.596   3.529 -0.7446 -0.4507 -0.6564
   43MOL0     C 5859   0.485   4.671   3.533  0.8229 -0.4077  0.0078
   43MOL0     C 5860   0.474   4.769   3.643  0.1091  0.1549  0.6872
   43MOL0     C 5861   0.460   4.861   3.728  0.0801 -0.7998  0.2517
   43MOL0     C 5862   1.056   4.370   3.690  0.4941 -0.8031  0.7878
   43MOL0     C 5863   1.156   4.268   3.714 -0.5124 -0.6593 -0.1079
   43MOL0     C 5864   1.292   4.313   3.666  0.5184 -0.1318 -0.2485
   43MOL0     H 5865   1.261   3.897   4.101  0.4358 -0.2304  0.2806
   43MOL0     H 5866   1.383   3.699   4.174  2.8163  2.7021 -1.0111
   43MOL0     H 5867   1.486   3.490   4.202 -3.0573  0.4735  0.6372
   43MOL0     H 5868   1.529   3.344   4.116 -0.2961 -0.2813  1.3337
   43MOL0     H 5869   1.244   3.435   4.166 -2.4673 -3.0903 -2.1496
   43MOL0     H 5870   1.294   3.280   4.093  3.8035 -1.8400  0.0129
   43MOL0     H 5871   1.234   3.234   4.338 -1.2582  4.6308  1.8346
   43MOL0     H 5872   1.393   3.188   4.293 -0.2882  0.3287  0.7460
   43MOL0     H 5873   1.486   3.373   4.406 -0.7074  1.4447 -3.0156
   43MOL0     H 5874   1.336   3.474   4.408  1.2306  0.9248  2.9669
   43MOL0     H 5875   1.327   3.216   4.570  0.5645  0.1503  0.0102
   43MOL0     H 5876   1.211   3.349   4.536  0.3450  1.8142 -0.6815
   43MOL0     H 5877   1.483   3.410   4.661 -0.0110  0.5004  0.1508
   43MOL0     H 5878   1.325   3.510   4.667 -1.9847 -0.7768  2.2822
   43MOL0     H 5879   1.381   3.252   4.815 -0.2537 -0.5072 -0.4192
   43MOL0     H 5880   1.224   3.326   4.797  0.2539  2.0807 -3.6514
   43MOL0     H 5881   1.326   3.537   4.905 -2.5920 -0.8251  0.9849
   43MOL0     H 5882   1.311   3.389   5.012  0.4953 -3.4179 -0.1682
   43MOL0     H 5883   1.532   3.239   5.039  1.0443 -0.2364  2.9546
   43MOL0     H 5884   1.817   3.223   5.074  1.6879  2.1390 -1.9935
   43MOL0     H 5885   1.749   3.277   5.221 -0.5756 -1.9394 -1.6342
   43MOL0     H 5886   1.988   3.409   5.106  0.7608  4.0326  1.6327
   43MOL0     H 5887   1.872   3.491   5.215 -2.4663 -1.1706 -0.0275
   43MOL0     H 5888   1.899   3.317   5.384  1.5128  1.5017  0.7546
   43MOL0     H 5889   2.002   3.222   5.279  1.3948  1.6439 -2.2325
   43MOL0     H 5890   2.147   3.322   5.411 -2.5681 -2.1976 -1.0927
   43MOL0     H 5891   2.161   3.401   5.254  1.2714  2.0894  1.2645
   43MOL0     H 5892   2.032   3.698   5.576  0.4940  0.4411  3.2394
   43MOL0     H 5893   2.275   3.918   5.772  0.5120 -0.8598  2.3148
   43MOL0     H 5894   2.139   3.831   5.831 -2.3417  2.8700 -0.0631
   43MOL0     H 5895   2.120   3.922   5.680  2.0083  1.8252  0.1019
   43MOL0     H 5896   2.826   3.739   5.541  0.0677 -0.0973  0.4501
   43MOL0     H 5897   3.055   3.790   5.628  0.3649  2.0285  0.7100
   43MOL0     H 5898   3.225   3.804   5.739 -0.8344  1.0898 -2.1095
   43MOL0     H 5899   3.214   3.990   5.722 -1.5596  1.2688  2.7349
   43MOL0     H 5900   3.423   3.890   5.829  0.5616  2.4093 -0.8297
   43MOL0     H 5901   3.340   4.015   5.923  1.1086  0.1642 -1.1820
   43MOL0     H 5902   3.289   3.728   5.985  0.4791 -0.9761  0.4569
   43MOL0     H 5903   3.280   3.864   6.100  0.8206 -2.1551  1.6295
   43MOL0     H 5904   3.532   3.873   6.108  1.7086 -0.7667 -0.3131
   43MOL0     H 5905   3.547   3.766   5.982  2.2705  2.7735 -0.5511
   43MOL0     H 5906   3.589   3.697   6.229  1.6201 -1.0976 -1.5065
   43MOL0     H 5907   3.408   3.717   6.264 -1.0429  1.6123 -2.4404
   43MOL0     H 5908   3.362   3.531   6.087 -2.4640  3.1205  2.1741
   43MOL0     H 5909   3.436   3.491   6.244 -0.9914  1.8725  1.0111
   43MOL0     H 5910   3.650   3.493   6.157 -1.2860  3.4355  1.6802
   43MOL0     H 5911   3.594   3.513   5.990  2.0091  0.9940  0.7023
   43MOL0     H 5912   3.474   3.282   6.155  0.2119  0.0985  0.1829
   43MOL0     H 5913   3.646   3.265   6.110  0.2171  1.0581  0.3471
   43MOL0     H 5914   2.879   3.940   5.992  2.0584 -1.4020 -0.3587
   43MOL0     H 5915   2.661   3.923   5.900  2.1696 -1.8271  2.7688
   43MOL0     H 5916   2.508   3.599   5.498  1.2521  2.9799  2.4785
   43MOL0     H 5917   2.344   3.489   5.377 -1.4604 -1.1558  0.8944
   43MOL0     H 5918   1.330   3.523   3.778  2.3095 -0.7679  1.2489
   43MOL0     H 5919   1.183   3.736   3.726  0.4945  1.9586 -0.0303
   43MOL0     H 5920   0.934   4.038   3.837 -1.9784  1.7429 -1.5509
   43MOL0     H 5921   0.789   4.214   3.806 -0.2101  1.1290 -1.9332
   43MOL0     H 5922   0.923   4.635   3.679 -0.0469  1.2259 -0.8282
   43MOL0     H 5923   0.885   4.547   3.531  0.6075  0.3424 -0.4102
   43MOL0     H 5924   0.753   4.763   3.588 -2.5218  0.5213  0.0468
   43MOL0     H 5925   0.691   4.682   3.727  0.7407  1.6837 -0.0632
   43MOL0     H 5926   0.653   4.586   3.428 -0.5914  1.8751 -0.8693
   43MOL0     H 5927   0.598   4.494   3.566  2.3279 -0.9299 -0.4571
   43MOL0     H 5928   0.410   4.592   3.543 -0.9633  1.4668  2.9301
   43MOL0     H 5929   0.463   4.707   3.432 -1.9576 -0.6875  0.4335
   43MOL0     H 5930   0.441   4.940   3.798  2.6501  0.1776 -0.0662
   43MOL0     H 5931   1.098   4.466   3.662 -1.8817  0.8269  2.4329
   43MOL0     H 5932   1.295   4.422   3.660 -0.2623  0.0294  1.4105
   43MOL0     H 5933   1.362   4.267   3.737 -2.8270  1.2501  4.4448
   43MOL0     H 5934   1.314   4.271   3.568  1.6251 -4.2629  1.5279
   44MOL0     O 5935   6.342   3.824  10.651 -0.3964  0.1357 -1.1607
   44MOL0     C 5936   6.419   3.868  10.556  0.8736  0.3015 -0.5016
   44MOL0     O 5937   6.529   3.950  10.576  0.1744 -0.4793 -0.5981
   44MOL0     C 5938   6.576   3.953  10.709  0.2152 -1.5155  0.0402
   44MOL0     C 5939   6.637   3.849  10.776 -0.0397 -0.5293 -0.2661
   44MOL0     C 5940   6.693   3.863  10.908  0.7239  0.5024  0.9454
   44MOL0     C 5941   6.668   3.977  10.985 -0.2731  0.2975  0.6146
   44MOL0     O 5942   6.710   3.995  11.116  1.2592 -0.0942 -0.7163
   44MOL0     C 5943   6.775   3.881  11.172  0.4483 -0.3529 -0.6512
   44MOL0     C 5944   6.809   3.904  11.318  0.1910  0.4378  0.0120
   44MOL0     C 5945   6.927   3.826  11.377  0.0342  0.4961  0.2005
   44MOL0     C 5946   6.955   3.880  11.519  0.0396 -0.9199  0.8939
   44MOL0     C 5947   7.091   3.825  11.576  0.3913  1.1602  0.5911
   44MOL0     C 5948   7.119   3.885  11.709  0.5156  0.8595 -0.5712
   44MOL0     C 5949   7.264   3.840  11.758 -0.3971  0.0123 -0.1870
   44MOL0     C 5950   7.284   3.888  11.911 -0.0526  0.1463 -0.1139
   44MOL0     N 5951   7.414   3.888  11.970  0.1032 -0.4842  0.0692
   44MOL0     C 5952   7.512   3.985  11.965  0.1401 -0.1265  0.5995
   44MOL0     C 5953   7.627   3.919  12.013  0.4358 -0.4948 -0.9609
   44MOL0     C 5954   7.757   3.997  12.027 -0.6159 -0.9095 -0.3302
   44MOL0     C 5955   7.878   3.962  11.923  0.4914  0.9397 -1.0398
   44MOL0     C 5956   7.951   3.834  11.954 -0.6647 -0.4227  0.6512
   44MOL0     C 5957   8.048   3.806  11.843 -0.9470 -0.4141 -0.7135
   44MOL0     O 5958   8.114   3.682  11.870 -1.4804  0.3106 -0.1571
   44MOL0     C 5959   8.237   3.671  11.813 -0.0941  0.0760  0.5561
   44MOL0     C 5960   8.269   3.703  11.681  0.0271 -0.0260  0.1084
   44MOL0     C 5961   8.388   3.676  11.623 -0.7810 -0.7222  0.2676
   44MOL0     C 5962   8.377   3.690  11.472 -0.2185  0.5495 -0.3595
   44MOL0     C 5963   8.495   3.629  11.704  0.5157 -0.5359 -0.3015
   44MOL0     C 5964   8.620   3.584  11.645 -0.0764  0.6076  0.2699
   44MOL0     O 5965   8.713   3.507  11.725 -0.1153 -0.3580  0.4715
   44MOL0     C 5966   8.832   3.472  11.664  0.5283 -0.0516 -0.3224
   44MOL0     C 5967   8.852   3.368  11.567 -0.7307  0.0874 -0.2075
   44MOL0     C 5968   8.976   3.353  11.499  0.3928  0.5651 -0.8255
   44MOL0     C 5969   9.070   3.442  11.522  0.4667  0.5957 -0.6260
   44MOL0     O 5970   9.188   3.428  11.455  0.0361 -0.0002  0.3042
   44MOL0     C 5971   9.244   3.552  11.411 -0.3554  0.2068 -0.5687
   44MOL0     C 5972   9.375   3.522  11.328  0.2699 -0.1115 -0.2542
   44MOL0     C 5973   9.367   3.411  11.220  0.6445 -1.3261  0.6605
   44MOL0     C 5974   9.292   3.468  11.102 -0.3572  1.2677 -1.9684
   44MOL0     C 5975   9.288   3.372  10.982 -0.1406  0.3929  0.0648
   44MOL0     C 5976   9.219   3.240  11.027 -0.1686  0.0057  0.7866
   44MOL0     C 5977   9.169   3.153  10.906  0.2302 -0.9212  0.6411
   44MOL0     C 5978   9.277   3.126  10.807 -0.3035 -1.3391 -0.3251
   44MOL0    Cl 5979   9.401   3.041  10.896  0.8593 -0.2186 -0.1363
   44MOL0     C 5980   9.058   3.538  11.618 -0.7241 -0.8431 -0.5112
   44MOL0     C 5981   8.940   3.556  11.692  0.0569 -0.1422 -0.2032
   44MOL0     O 5982   8.642   3.626  11.531 -0.4267  0.4989 -0.3865
   44MOL0     C 5983   8.467   3.602  11.836 -0.5278  0.0856 -1.1366
   44MOL0     C 5984   8.340   3.619  11.888 -0.3430  0.5013 -0.2090
   44MOL0     N 5985   7.584   3.794  12.065  0.0152 -0.3226  0.3718
   44MOL0     N 5986   7.459   3.782  12.040 -0.1755  0.7567  0.0036
   44MOL0     C 5987   6.600   4.083  10.909 -0.3768  0.0529  0.1214
   44MOL0     C 5988   6.560   4.074  10.774  0.5938  0.0225 -0.5061
   44MOL0     C 5989   6.392   3.821  10.418  0.2577  0.0737 -0.1524
   44MOL0     C 5990   6.257   3.786  10.385  0.1630 -0.9294 -1.6115
   44MOL0     C 5991   6.216   3.749  10.256 -0.4022  0.2195 -0.3955
   44MOL0     C 5992   6.307   3.733  10.147 -0.1119  0.0877 -0.1695
   44MOL0     O 5993   6.257   3.675  10.039 -0.5136  0.1530  0.3534
   44MOL0     C 5994   6.332   3.684   9.915 -0.5489  0.1480 -0.0143
   44MOL0     C 5995   6.421   3.564   9.888  0.4324 -0.3112  0.1634
   44MOL0     C 5996   6.544   3.606   9.813 -0.8174  0.1252 -0.3491
   44MOL0     C 5997   6.510   3.619   9.664  0.1333  0.5118 -0.5023
   44MOL0     C 5998   6.469   3.496   9.597 -0.5776 -0.2789  0.1627
   44MOL0     C 5999   6.449   3.398   9.530  0.0066  0.1811 -0.4815
   44MOL0     C 6000   6.444   3.768  10.182 -0.6855 -0.5088 -0.0620
   44MOL0     C 6001   6.481   3.821  10.309 -0.4281  0.9643  0.1467
   44MOL0     C 6002   6.628   3.859  10.315  0.2138 -0.0712 -0.0388
   44MOL0     H 6003   6.649   3.760  10.714 -1.5306 -0.3698 -0.8131
   44MOL0     H 6004   6.763   3.787  10.942 -0.0430 -0.1659  1.0642
   44MOL0     H 6005   6.871   3.876  11.119  0.8060  2.2378 -0.3990
   44MOL0     H 6006   6.718   3.790  11.154 -3.4449  1.7292  0.1624
   44MOL0     H 6007   6.843   4.007  11.332  3.6011 -0.5371 -0.1268
   44MOL0     H 6008   6.717   3.886  11.375 -1.9568  1.7616 -2.7588
   44MOL0     H 6009   6.915   3.717  11.384  1.7120  0.2580 -0.1394
   44MOL0     H 6010   7.018   3.848  11.322  0.1349  1.5330  0.7747
   44MOL0     H 6011   6.952   3.989  11.522 -1.6611 -0.9556  2.4132
   44MOL0     H 6012   6.878   3.842  11.588 -0.3919 -1.9023 -0.0904
   44MOL0     H 6013   7.178   3.850  11.515 -1.4240 -1.4830 -3.5333
   44MOL0     H 6014   7.089   3.717  11.593 -0.3590  1.1190  0.2757
   44MOL0     H 6015   7.131   3.994  11.710 -0.1133  0.9363  0.7693
   44MOL0     H 6016   7.046   3.857  11.785  1.0269  2.3651  0.5226
   44MOL0     H 6017   7.343   3.880  11.694 -0.5932  1.1572  0.2670
   44MOL0     H 6018   7.267   3.730  11.759 -2.6698 -0.1330 -1.8882
   44MOL0     H 6019   7.261   3.994  11.917  1.7324  0.6083 -0.6925
   44MOL0     H 6020   7.214   3.827  11.969  0.3427 -2.4200 -2.1520
   44MOL0     H 6021   7.502   4.086  11.927 -1.1569  0.4539  2.3689
   44MOL0     H 6022   7.796   3.989  12.128  0.0282 -1.5939 -0.6198
   44MOL0     H 6023   7.741   4.102  12.000  0.3920 -0.3557  1.1272
   44MOL0     H 6024   7.831   3.952  11.825 -0.9194 -0.7628 -0.2354
   44MOL0     H 6025   7.939   4.053  11.931  4.4796 -1.5550 -0.6000
   44MOL0     H 6026   8.015   3.834  12.043  0.6622 -1.8111 -0.2315
   44MOL0     H 6027   7.878   3.753  11.944  0.6587 -1.3336 -3.9464
   44MOL0     H 6028   7.992   3.798  11.749 -1.5590  1.0165 -0.4916
   44MOL0     H 6029   8.123   3.885  11.837 -0.7539 -0.6467 -1.4038
   44MOL0     H 6030   8.178   3.737  11.631 -1.8114  3.2464  4.9277
   44MOL0     H 6031   8.272   3.712  11.448 -0.4062  0.0156 -0.0489
   44MOL0     H 6032   8.397   3.601  11.411  1.4599  0.5556  0.1507
   44MOL0     H 6033   8.439   3.776  11.446  3.1006 -0.7685  2.3821
   44MOL0     H 6034   8.773   3.299  11.541  1.9615 -2.4922 -2.1568
   44MOL0     H 6035   8.988   3.267  11.434  1.1334 -1.6945  2.1158
   44MOL0     H 6036   9.173   3.595  11.340 -0.4208  2.5015  0.7766
   44MOL0     H 6037   9.272   3.620  11.492  1.5203 -0.8440 -0.2850
   44MOL0     H 6038   9.408   3.617  11.285 -2.9431  0.6669 -1.3665
   44MOL0     H 6039   9.459   3.507  11.396  2.5458  3.6406 -1.9173
   44MOL0     H 6040   9.309   3.333  11.269 -0.9125  1.0406  2.8872
   44MOL0     H 6041   9.459   3.369  11.178 -0.5734 -0.9435 -2.7262
   44MOL0     H 6042   9.356   3.551  11.072 -0.2500  1.3787 -1.4373
   44MOL0     H 6043   9.185   3.488  11.113 -1.3011 -3.7233  1.7647
   44MOL0     H 6044   9.236   3.419  10.897  2.2778  0.5214 -1.4384
   44MOL0     H 6045   9.385   3.339  10.944  0.0495  2.7470 -1.7271
   44MOL0     H 6046   9.133   3.282  11.080 -1.0303 -0.8984  0.1382
   44MOL0     H 6047   9.274   3.179  11.099 -1.0293 -1.8856 -0.0847
   44MOL0     H 6048   9.084   3.202  10.858  1.9630  2.0788  0.4139
   44MOL0     H 6049   9.129   3.061  10.951 -1.6934 -0.1759  0.5563
   44MOL0     H 6050   9.312   3.222  10.767 -0.6813 -1.2869 -0.5350
   44MOL0     H 6051   9.237   3.071  10.722 -0.7275 -1.3494 -0.1229
   44MOL0     H 6052   9.147   3.594  11.645 -0.8260 -0.8872 -0.0670
   44MOL0     H 6053   8.944   3.642  11.759  0.2986 -0.8758  0.7488
   44MOL0     H 6054   8.536   3.552  11.902 -3.3946  2.3358  4.2599
   44MOL0     H 6055   8.316   3.565  11.979 -1.3011 -0.9718 -1.2999
   44MOL0     H 6056   6.567   4.173  10.961  2.6750  1.1715  0.2757
   44MOL0     H 6057   6.522   4.166  10.730  2.5215  0.9838 -0.3035
   44MOL0     H 6058   6.175   3.788  10.457  0.5292 -3.1922 -1.0654
   44MOL0     H 6059   6.114   3.742  10.219  0.0870  0.6599 -1.9209
   44MOL0     H 6060   6.261   3.691   9.832 -0.0708  0.8325 -0.3804
   44MOL0     H 6061   6.391   3.776   9.924 -2.9764  1.8955 -0.8557
   44MOL0     H 6062   6.354   3.494   9.838 -1.6375 -0.1283  2.4900
   44MOL0     H 6063   6.452   3.502   9.973  0.0704 -1.0563 -0.2449
   44MOL0     H 6064   6.597   3.692   9.854 -0.5087 -0.0719 -0.3332
   44MOL0     H 6065   6.611   3.520   9.818 -1.6800 -0.5494  4.4215
   44MOL0     H 6066   6.597   3.654   9.607  0.5881 -2.6646 -1.9828
   44MOL0     H 6067   6.435   3.699   9.663 -2.3420 -1.4014  3.7645
   44MOL0     H 6068   6.427   3.314   9.467 -5.6697  1.9325 -1.4609
   44MOL0     H 6069   6.522   3.769  10.106 -4.1968  0.1120 -4.0526
   44MOL0     H 6070   6.686   3.848  10.223  2.2070 -1.4532  1.2839
   44MOL0     H 6071   6.641   3.965  10.340  0.8912 -0.5842  2.0739
   44MOL0     H 6072   6.678   3.798  10.392 -1.6271 -0.6261  0.7623
   45MOL0     O 6073   6.381  10.095   7.603 -0.3548  0.0728 -0.2166
   45MOL0     C 6074   6.284  10.031   7.565  0.5469  0.4357  0.3042
   45MOL0     O 6075   6.161  10.020   7.625 -0.4610 -0.1109  0.0056
   45MOL0     C 6076   6.127  10.076   7.740 -0.4786 -1.1509 -0.1625
   45MOL0     C 6077   6.205  10.165   7.818  0.2456 -0.7415  0.2587
   45MOL0     C 6078   6.141  10.230   7.928  0.3426  1.4521  0.2631
   45MOL0     C 6079   6.011  10.199   7.961  0.0537  0.7045 -0.0811
   45MOL0     O 6080   5.945  10.277   8.056 -0.4483 -0.1628 -0.0124
   45MOL0     C 6081   5.827  10.345   8.017  0.0651  0.3244 -1.0017
   45MOL0     C 6082   5.850  10.464   7.923  0.5575  0.8454  0.9848
   45MOL0     C 6083   5.948  10.568   7.981 -0.0930  0.2815  0.4690
   45MOL0     C 6084   5.886  10.653   8.092 -0.9623 -0.2148 -0.0994
   45MOL0     C 6085   5.990  10.753   8.139 -0.4735  0.2394  0.8054
   45MOL0     C 6086   5.944  10.831   8.258  0.4889  1.0449  0.1322
   45MOL0     C 6087   5.846  10.945   8.218  0.3978  0.0623  0.0087
   45MOL0     C 6088   5.839  11.044   8.343  0.4404  0.5944 -0.4484
   45MOL0     N 6089   5.725  11.137   8.323 -0.4028 -0.4994  0.0329
   45MOL0     C 6090   5.600  11.112   8.378 -0.0723 -0.3224 -0.0082
   45MOL0     C 6091   5.520  11.193   8.315  1.1463  0.3998 -1.8978
   45MOL0     C 6092   5.372  11.218   8.336  0.7142 -0.6498 -0.2186
   45MOL0     C 6093   5.364  11.363   8.389 -0.1068  0.4432  0.3436
   45MOL0     C 6094   5.213  11.388   8.405  1.2297 -0.8901 -0.8602
   45MOL0     C 6095   5.182  11.516   8.485 -0.2430 -0.0597 -0.4174
   45MOL0     O 6096   5.205  11.517   8.623 -0.5635 -0.0167  0.2849
   45MOL0     C 6097   5.115  11.475   8.719  0.1314  0.5115  0.1093
   45MOL0     C 6098   5.150  11.479   8.857  0.0074  0.4199  0.2023
   45MOL0     C 6099   5.065  11.423   8.958 -0.6823  0.1709  0.0368
   45MOL0     C 6100   5.113  11.416   9.100  0.4162 -0.0642  0.2392
   45MOL0     C 6101   4.931  11.371   8.920  0.7242  0.8110 -0.0620
   45MOL0     C 6102   4.835  11.318   9.009  0.2162 -0.4603 -0.2938
   45MOL0     O 6103   4.758  11.217   8.968  0.2335 -0.3070 -0.0456
   45MOL0     C 6104   4.723  11.126   9.056 -0.5939  1.0372 -0.3623
   45MOL0     C 6105   4.807  11.014   9.071  0.4057 -1.2530 -0.3533
   45MOL0     C 6106   4.774  10.911   9.160  0.5502 -0.8800  0.7471
   45MOL0     C 6107   4.664  10.920   9.252  0.0607  0.3002  0.7374
   45MOL0     O 6108   4.634  10.811   9.337 -0.5273 -0.2698  0.3438
   45MOL0     C 6109   4.676  10.827   9.468 -0.0292 -0.0836 -0.0237
   45MOL0     C 6110   4.660  10.697   9.552 -0.6245  0.4964 -0.7941
   45MOL0     C 6111   4.515  10.698   9.610  0.1151  0.1654  1.2572
   45MOL0     C 6112   4.493  10.563   9.677  0.6638  0.5171  0.0907
   45MOL0     C 6113   4.377  10.566   9.778  0.7369 -0.9829  0.2063
   45MOL0     C 6114   4.355  10.430   9.854  0.5494  0.3725 -0.1140
   45MOL0     C 6115   4.229  10.439   9.946 -0.4138 -0.0283 -0.0203
   45MOL0     C 6116   4.105  10.370   9.895  0.9273  0.0267 -0.2611
   45MOL0    Cl 6117   4.039  10.456   9.749  0.3731 -0.4489  0.1015
   45MOL0     C 6118   4.583  11.033   9.234  0.6469 -0.2239  0.0734
   45MOL0     C 6119   4.608  11.133   9.132  0.4059  0.5497  0.0128
   45MOL0     O 6120   4.832  11.376   9.117  0.6831  0.7900  0.7570
   45MOL0     C 6121   4.896  11.387   8.784 -0.4144 -0.0340 -0.3913
   45MOL0     C 6122   4.986  11.425   8.687 -0.5044  0.5928  0.5557
   45MOL0     N 6123   5.587  11.269   8.228 -0.6639 -0.3968  0.1451
   45MOL0     N 6124   5.712  11.233   8.235  0.7015 -0.3919 -0.2770
   45MOL0     C 6125   5.937  10.095   7.894 -0.5615  0.3429 -0.8310
   45MOL0     C 6126   5.997  10.042   7.782 -0.0352  0.0294  0.2783
   45MOL0     C 6127   6.297   9.943   7.443 -0.3603 -0.2183  0.3856
   45MOL0     C 6128   6.174   9.909   7.371  0.2678  0.1669 -0.9535
   45MOL0     C 6129   6.181   9.835   7.255  0.1382  0.8915  0.1276
   45MOL0     C 6130   6.300   9.788   7.197  0.2259  0.0823  0.4133
   45MOL0     O 6131   6.306   9.731   7.077  0.4297 -0.2701  1.4437
   45MOL0     C 6132   6.190   9.674   7.016  0.1416  0.6396 -0.5246
   45MOL0     C 6133   6.114   9.777   6.938 -0.2697 -0.2087  0.4681
   45MOL0     C 6134   5.983   9.712   6.872  0.1582  0.4520 -0.2917
   45MOL0     C 6135   5.865   9.678   6.970 -0.1404  0.0151 -0.0526
   45MOL0     C 6136   5.834   9.797   7.052 -0.2904 -0.4818  0.5206
   45MOL0     C 6137   5.813   9.897   7.120 -0.2066 -0.0596  0.4489
   45MOL0     C 6138   6.418   9.819   7.265 -0.3101 -0.3563  0.2944
   45MOL0     C 6139   6.418   9.887   7.396  0.4171 -0.2962  1.3143
   45MOL0     C 6140   6.550   9.895   7.463 -0.1551  0.6820 -0.0316
   45MOL0     H 6141   6.301  10.204   7.786 -0.3655 -1.6115 -2.9324
   45MOL0     H 6142   6.195  10.302   7.988  2.0125 -1.2406  2.2265
   45MOL0     H 6143   5.793  10.389   8.111  1.4572 -1.2344  0.2958
   45MOL0     H 6144   5.749  10.282   7.974 -0.5678  0.9933 -0.8601
   45MOL0     H 6145   5.888  10.415   7.833  0.4752 -1.6941  2.2338
   45MOL0     H 6146   5.751  10.508   7.911  0.8329  0.7542 -3.6552
   45MOL0     H 6147   6.045  10.526   8.009 -0.4382 -1.8582 -1.3124
   45MOL0     H 6148   5.962  10.642   7.901 -1.7337 -2.2012 -2.3027
   45MOL0     H 6149   5.795  10.711   8.072  0.1357  1.0421 -1.7288
   45MOL0     H 6150   5.864  10.598   8.184  1.5410 -1.1499 -0.0003
   45MOL0     H 6151   6.019  10.814   8.053  0.8536 -2.3852 -0.7461
   45MOL0     H 6152   6.083  10.699   8.164 -0.1465 -1.4011 -3.2719
   45MOL0     H 6153   5.908  10.764   8.336 -0.1433 -1.0182 -1.8384
   45MOL0     H 6154   6.038  10.878   8.290  1.2988 -0.0818 -0.4983
   45MOL0     H 6155   5.746  10.904   8.203  0.4398 -0.1513  0.2974
   45MOL0     H 6156   5.874  11.004   8.130 -1.7613  0.7193 -0.2882
   45MOL0     H 6157   5.820  10.991   8.436 -0.7809  1.3482 -0.2481
   45MOL0     H 6158   5.929  11.105   8.352 -0.1907  1.4389  0.3317
   45MOL0     H 6159   5.566  11.046   8.457 -1.3912 -0.0923 -0.3589
   45MOL0     H 6160   5.342  11.154   8.420  1.1240  1.9000  1.9941
   45MOL0     H 6161   5.315  11.202   8.244  1.2375 -0.3698 -0.5972
   45MOL0     H 6162   5.399  11.367   8.493 -0.1465  0.0372  0.3748
   45MOL0     H 6163   5.405  11.446   8.330  0.6768 -0.2350 -0.0840
   45MOL0     H 6164   5.159  11.394   8.310  0.4584  0.5571 -0.3675
   45MOL0     H 6165   5.153  11.311   8.455 -1.6521  1.6742 -0.0531
   45MOL0     H 6166   5.252  11.588   8.441  0.1627  0.4981  1.0987
   45MOL0     H 6167   5.085  11.558   8.453  1.3394  2.9846 -1.7194
   45MOL0     H 6168   5.247  11.523   8.880  0.0500 -0.5830  2.1974
   45MOL0     H 6169   5.063  11.497   9.153  1.4078  1.5552 -1.2003
   45MOL0     H 6170   5.221  11.432   9.092  0.1862  1.2794 -0.3780
   45MOL0     H 6171   5.088  11.321   9.149  0.3162 -1.2094 -1.8994
   45MOL0     H 6172   4.890  11.012   9.001  0.2968  0.5075 -0.5618
   45MOL0     H 6173   4.840  10.824   9.158 -0.0218 -1.3137 -0.8102
   45MOL0     H 6174   4.781  10.859   9.472  0.9626 -3.0009  4.6787
   45MOL0     H 6175   4.621  10.909   9.513 -1.8365 -1.3099  0.1130
   45MOL0     H 6176   4.669  10.610   9.487  0.9475  0.4127 -0.4975
   45MOL0     H 6177   4.726  10.705   9.639 -1.2132  0.4708 -0.3379
   45MOL0     H 6178   4.448  10.711   9.524  2.7020  1.5495 -0.6850
   45MOL0     H 6179   4.501  10.784   9.675 -0.8259  0.9521  0.0508
   45MOL0     H 6180   4.581  10.536   9.738  1.6983 -2.2565 -2.3738
   45MOL0     H 6181   4.479  10.487   9.600  0.1151 -1.1378  1.7462
   45MOL0     H 6182   4.390  10.638   9.860  2.1346 -0.5279 -0.3878
   45MOL0     H 6183   4.289  10.611   9.731  2.9657  2.2803 -1.2386
   45MOL0     H 6184   4.445  10.412   9.914  0.7567 -2.6560 -1.1661
   45MOL0     H 6185   4.351  10.345   9.786  3.9687  0.2221 -0.3049
   45MOL0     H 6186   4.195  10.543   9.955 -3.9372 -0.6594 -3.3529
   45MOL0     H 6187   4.248  10.394  10.044  1.2990  1.1433  0.2379
   45MOL0     H 6188   4.036  10.366   9.980 -0.2601 -1.7033 -1.2279
   45MOL0     H 6189   4.128  10.267   9.865 -0.0122  0.1612 -1.5478
   45MOL0     H 6190   4.496  11.028   9.299  2.6122 -1.5434  2.8188
   45MOL0     H 6191   4.541  11.218   9.140  2.2664  2.0163  0.9304
   45MOL0     H 6192   4.792  11.372   8.755  0.3578 -1.4307 -2.7331
   45MOL0     H 6193   4.951  11.450   8.588 -2.3069  1.9600  1.4545
   45MOL0     H 6194   5.836  10.089   7.932 -0.3025  0.0180 -0.1847
   45MOL0     H 6195   5.931   9.974   7.729  0.0647 -1.1227  1.5666
   45MOL0     H 6196   6.074   9.946   7.390  1.0637  2.5438 -1.1105
   45MOL0     H 6197   6.083   9.839   7.207 -0.8717 -3.2007  1.4664
   45MOL0     H 6198   6.224   9.599   6.944  2.1947 -1.1482  2.0904
   45MOL0     H 6199   6.133   9.624   7.096  2.2139 -2.2064 -0.6694
   45MOL0     H 6200   6.183   9.790   6.854 -0.3062  0.0714  0.4816
   45MOL0     H 6201   6.092   9.870   6.991  1.6063 -1.1019  2.9873
   45MOL0     H 6202   5.949   9.783   6.796  1.0444  0.9007 -0.2750
   45MOL0     H 6203   5.998   9.615   6.822  0.6940  0.4131 -0.0521
   45MOL0     H 6204   5.881   9.586   7.027 -2.8559  0.0804  0.9590
   45MOL0     H 6205   5.780   9.643   6.911  0.6125 -0.3864 -0.9277
   45MOL0     H 6206   5.787   9.986   7.173  0.7543  0.9837 -0.7632
   45MOL0     H 6207   6.514   9.794   7.221 -1.2933 -0.7935 -1.7214
   45MOL0     H 6208   6.542   9.863   7.567 -0.3350  1.2558  0.1374
   45MOL0     H 6209   6.638   9.850   7.416  2.0894  3.0154  1.6464
   45MOL0     H 6210   6.582   9.999   7.467  2.1026  0.0285  3.0079
   46MOL0     O 6211   5.088   0.915   7.243 -0.1395 -0.8061  0.3916
   46MOL0     C 6212   5.092   0.865   7.123  0.3380 -0.7350 -0.3654
   46MOL0     O 6213   5.030   0.754   7.081  0.0687  0.3984  0.6719
   46MOL0     C 6214   4.949   0.670   7.158  0.8736  0.3994 -0.4270
   46MOL0     C 6215   4.845   0.602   7.092  0.5220  0.0178  0.3142
   46MOL0     C 6216   4.768   0.513   7.163  0.0623 -0.5098  0.1469
   46MOL0     C 6217   4.783   0.500   7.305 -0.0657 -0.3393 -0.1056
   46MOL0     O 6218   4.719   0.397   7.373  0.0087  0.4200  0.9828
   46MOL0     C 6219   4.744   0.367   7.517 -0.1552 -0.6125  0.4963
   46MOL0     C 6220   4.878   0.287   7.521  1.4897 -0.4499 -0.2183
   46MOL0     C 6221   4.925   0.282   7.667 -0.5590 -0.0075 -0.6710
   46MOL0     C 6222   5.043   0.187   7.680  0.8441  0.0365 -0.3197
   46MOL0     C 6223   5.107   0.200   7.815  0.8914 -0.3530  0.1790
   46MOL0     C 6224   5.099   0.070   7.899 -1.0771  0.7560  0.5620
   46MOL0     C 6225   5.079   0.089   8.046  0.4816  0.5445 -0.2724
   46MOL0     C 6226   5.193   0.166   8.117  0.2677 -0.1350 -0.4267
   46MOL0     N 6227   5.144   0.285   8.191  0.5671  0.3197  0.0026
   46MOL0     C 6228   5.129   0.417   8.134 -1.1039 -0.2368 -0.4857
   46MOL0     C 6229   5.117   0.490   8.250 -0.7972 -0.1653 -0.0332
   46MOL0     C 6230   5.069   0.637   8.260  0.3420  0.1899  1.0257
   46MOL0     C 6231   4.918   0.649   8.261 -0.0963 -0.9458  0.7867
   46MOL0     C 6232   4.836   0.562   8.368 -0.2854 -0.4588 -1.2099
   46MOL0     C 6233   4.843   0.623   8.511 -0.0144  0.2365  0.6514
   46MOL0     O 6234   4.734   0.560   8.588 -0.7851 -0.2388  0.1599
   46MOL0     C 6235   4.729   0.595   8.728 -0.0610 -0.3986  0.6031
   46MOL0     C 6236   4.631   0.536   8.807 -0.1429  0.6874 -0.7617
   46MOL0     C 6237   4.632   0.541   8.951  0.3893  0.3022 -0.1867
   46MOL0     C 6238   4.524   0.490   9.033  0.1192 -0.0820  0.0307
   46MOL0     C 6239   4.739   0.605   9.016  0.6215 -0.1993  0.5141
   46MOL0     C 6240   4.767   0.611   9.163 -0.0203  0.5753 -0.2682
   46MOL0     O 6241   4.795   0.732   9.225  0.4666  0.6020 -0.0285
   46MOL0     C 6242   4.862   0.750   9.348 -0.7230  0.5408 -1.0816
   46MOL0     C 6243   4.852   0.878   9.406  0.1487 -0.3560 -0.1423
   46MOL0     C 6244   4.931   0.913   9.515 -0.5792 -0.1345  0.4620
   46MOL0     C 6245   5.038   0.828   9.555 -0.3220  0.5924  0.9481
   46MOL0     O 6246   5.119   0.856   9.657 -0.2544  0.7271  0.0720
   46MOL0     C 6247   5.133   0.999   9.679 -0.6613 -0.7745 -0.3416
   46MOL0     C 6248   5.099   1.008   9.834 -0.2271  0.3857  0.1736
   46MOL0     C 6249   5.134   1.143   9.894  0.7561 -0.5075  0.0249
   46MOL0     C 6250   5.126   1.145  10.046 -0.5003 -0.6690  0.2897
   46MOL0     C 6251   5.169   1.279  10.098  0.1416  0.3484 -0.5034
   46MOL0     C 6252   5.056   1.367  10.143  0.0293 -0.0437 -0.2194
   46MOL0     C 6253   5.102   1.511  10.155 -0.0044 -0.0527  0.6816
   46MOL0     C 6254   5.015   1.611  10.221 -0.0920  1.1118  0.2025
   46MOL0    Cl 6255   5.078   1.777  10.223  0.3138 -0.2196 -0.1486
   46MOL0     C 6256   5.044   0.701   9.501  0.5562  0.6339  1.0277
   46MOL0     C 6257   4.961   0.669   9.392 -0.3453 -1.0010 -0.3736
   46MOL0     O 6258   4.780   0.500   9.223  0.2638 -0.5411  0.2145
   46MOL0     C 6259   4.837   0.674   8.937  0.3543  0.1837  0.1474
   46MOL0     C 6260   4.840   0.668   8.794  0.6848 -1.0703 -0.0835
   46MOL0     N 6261   5.117   0.411   8.361  0.1455 -0.2039  0.7565
   46MOL0     N 6262   5.142   0.291   8.323  0.1577  0.5222  0.0030
   46MOL0     C 6263   4.879   0.585   7.366  0.5699  0.2651 -0.3624
   46MOL0     C 6264   4.955   0.664   7.295 -0.6436  0.2029 -1.2869
   46MOL0     C 6265   5.190   0.934   7.025  0.0082 -0.1037 -0.3518
   46MOL0     C 6266   5.198   0.875   6.895  0.2913 -0.0408  1.3951
   46MOL0     C 6267   5.273   0.922   6.793  0.3793  0.3149  0.7583
   46MOL0     C 6268   5.352   1.039   6.816 -0.5813  0.0921 -0.0475
   46MOL0     O 6269   5.428   1.079   6.706  0.2027 -0.3083  0.1245
   46MOL0     C 6270   5.542   1.159   6.739  0.7663 -1.0439 -0.3141
   46MOL0     C 6271   5.652   1.077   6.798 -0.4189 -0.2479  0.6675
   46MOL0     C 6272   5.767   1.161   6.851  0.9063  0.3139  1.3878
   46MOL0     C 6273   5.873   1.088   6.933  0.3952  1.0004  1.5616
   46MOL0     C 6274   5.835   1.036   7.061 -0.4663  0.0613  0.3604
   46MOL0     C 6275   5.812   0.981   7.168  0.6008 -0.5468  0.2631
   46MOL0     C 6276   5.347   1.109   6.940  0.3948  0.2087  0.0666
   46MOL0     C 6277   5.270   1.055   7.044 -0.7523  0.6997  0.3101
   46MOL0     C 6278   5.269   1.143   7.176  0.7707 -0.3873  0.1492
   46MOL0     H 6279   4.820   0.611   6.987  2.3871 -1.4257 -0.3040
   46MOL0     H 6280   4.690   0.448   7.125 -1.7076  0.5655  1.7295
   46MOL0     H 6281   4.663   0.306   7.558 -2.2892  3.2703  2.5511
   46MOL0     H 6282   4.742   0.457   7.579  3.2086 -1.1852  1.6706
   46MOL0     H 6283   4.850   0.186   7.493 -0.5506 -0.7652  2.5486
   46MOL0     H 6284   4.962   0.340   7.473  0.9054  5.2622  3.9230
   46MOL0     H 6285   4.948   0.381   7.706  0.8640 -0.7480  0.4571
   46MOL0     H 6286   4.841   0.259   7.733 -1.7238  5.3350  0.1982
   46MOL0     H 6287   5.011   0.083   7.667  3.4842 -1.4394  3.1585
   46MOL0     H 6288   5.115   0.193   7.598  0.6571 -0.2084 -0.5029
   46MOL0     H 6289   5.067   0.287   7.869  1.3213  0.3434 -0.5974
   46MOL0     H 6290   5.211   0.232   7.799  1.8768 -2.6786  1.4238
   46MOL0     H 6291   5.008   0.012   7.880 -2.8506  3.1656  1.2364
   46MOL0     H 6292   5.186   0.009   7.872 -0.2062  2.6213 -1.0659
   46MOL0     H 6293   5.073  -0.010   8.093  1.0848  0.8895  0.5598
   46MOL0     H 6294   4.986   0.140   8.072  0.4346  0.1797  0.3092
   46MOL0     H 6295   5.241   0.106   8.195 -4.3089 -1.5721  1.6384
   46MOL0     H 6296   5.271   0.196   8.047  0.3747 -2.0469 -1.1753
   46MOL0     H 6297   5.126   0.452   8.032  0.4960  1.9492  0.1499
   46MOL0     H 6298   5.120   0.702   8.188 -0.9547 -0.5528 -0.6345
   46MOL0     H 6299   5.096   0.673   8.360  1.2011 -1.3993  1.3930
   46MOL0     H 6300   4.885   0.752   8.279  0.0781 -1.1674  2.5156
   46MOL0     H 6301   4.891   0.609   8.163  1.2977  0.8402 -0.3915
   46MOL0     H 6302   4.730   0.559   8.341 -0.6548  2.0711 -0.4110
   46MOL0     H 6303   4.859   0.456   8.379 -2.6193 -0.7368  3.0087
   46MOL0     H 6304   4.944   0.600   8.544  0.3164 -0.4773 -0.8172
   46MOL0     H 6305   4.833   0.732   8.506  2.2267  0.4793  0.7597
   46MOL0     H 6306   4.554   0.474   8.762 -0.4630  0.6723 -0.1997
   46MOL0     H 6307   4.510   0.554   9.120 -2.2044 -1.7892  1.0217
   46MOL0     H 6308   4.548   0.389   9.068  0.9051  0.7783  2.1379
   46MOL0     H 6309   4.431   0.493   8.975 -1.1515 -0.2507  1.9493
   46MOL0     H 6310   4.778   0.950   9.372  0.2036 -1.2646 -2.3805
   46MOL0     H 6311   4.915   1.011   9.558  1.0288 -0.3286  1.5940
   46MOL0     H 6312   5.238   1.024   9.665 -0.7401 -0.8759 -1.1768
   46MOL0     H 6313   5.077   1.079   9.630  1.0165  0.7289  0.1217
   46MOL0     H 6314   4.992   0.995   9.855 -0.6793  0.1169 -2.0706
   46MOL0     H 6315   5.154   0.923   9.875 -1.5309  0.8913  3.2115
   46MOL0     H 6316   5.062   1.218   9.860 -0.0601 -1.5539 -0.6233
   46MOL0     H 6317   5.232   1.164   9.849 -0.5271 -3.2229 -4.7889
   46MOL0     H 6318   5.197   1.072  10.086 -0.0592 -0.1302  0.4967
   46MOL0     H 6319   5.025   1.130  10.085 -0.0053  1.4202  2.6495
   46MOL0     H 6320   5.220   1.281  10.194 -1.2207  3.6918  0.3128
   46MOL0     H 6321   5.240   1.318  10.024  0.9413  0.3665  0.2537
   46MOL0     H 6322   4.994   1.339  10.229  3.1483  0.4758  2.3758
   46MOL0     H 6323   4.976   1.380  10.069  1.8577  0.6990 -2.1438
   46MOL0     H 6324   5.130   1.546  10.055  1.5442 -2.1829  0.2934
   46MOL0     H 6325   5.202   1.510  10.200 -0.0984  0.2609  0.9023
   46MOL0     H 6326   5.008   1.572  10.323  0.0151 -0.4602 -0.3768
   46MOL0     H 6327   4.911   1.610  10.187 -1.7338  0.6915  4.4811
   46MOL0     H 6328   5.120   0.626   9.521 -0.4210 -1.0348 -1.0860
   46MOL0     H 6329   4.976   0.574   9.341 -0.9475  1.4526 -5.8409
   46MOL0     H 6330   4.913   0.740   8.978 -1.5550  1.2885  2.0778
   46MOL0     H 6331   4.920   0.708   8.732 -0.6130 -1.4993 -2.1398
   46MOL0     H 6332   4.897   0.566   7.471  0.3488  0.6779 -0.2475
   46MOL0     H 6333   5.041   0.698   7.352 -1.4882 -1.7344  1.3106
   46MOL0     H 6334   5.140   0.793   6.853  2.4080 -0.3457 -1.1275
   46MOL0     H 6335   5.276   0.872   6.697  0.0971 -1.4153  1.6150
   46MOL0     H 6336   5.573   1.221   6.654  0.1582  2.2037  1.6630
   46MOL0     H 6337   5.514   1.240   6.807 -3.2589  0.6859 -3.5444
   46MOL0     H 6338   5.666   0.997   6.725 -1.6363  0.2296 -0.1164
   46MOL0     H 6339   5.611   1.027   6.886 -2.1776 -2.0873 -1.0835
   46MOL0     H 6340   5.802   1.211   6.760 -0.1400  0.8468  1.2556
   46MOL0     H 6341   5.734   1.244   6.915  3.3295  2.4594  0.0407
   46MOL0     H 6342   5.965   1.148   6.941  1.0485  0.4375 -0.9606
   46MOL0     H 6343   5.891   0.999   6.873 -1.3261 -0.6178  3.3056
   46MOL0     H 6344   5.772   0.951   7.262 -0.9408  2.9372  0.8629
   46MOL0     H 6345   5.411   1.193   6.966 -0.0003  0.0634  1.5964
   46MOL0     H 6346   5.170   1.187   7.194 -0.2124 -1.6409 -1.8064
   46MOL0     H 6347   5.294   1.085   7.266  0.9927 -1.6480 -0.6943
   46MOL0     H 6348   5.339   1.226   7.168 -0.7787  1.2006  1.9326
   47MOL0     O 6349   6.264  10.893   6.158  0.3970  0.3386  0.3852
   47MOL0     C 6350   6.181  10.983   6.145  0.1698  0.1781  1.0202
   47MOL0     O 6351   6.045  10.957   6.127  0.4564 -0.0167  0.6228
   47MOL0     C 6352   5.995  10.850   6.190  0.2101  0.0983 -0.0906
   47MOL0     C 6353   6.038  10.775   6.304  0.2529 -0.3779 -0.1103
   47MOL0     C 6354   5.969  10.656   6.342 -0.2064 -0.1995  0.6025
   47MOL0     C 6355   5.839  10.632   6.277 -0.2594 -0.2150 -0.3292
   47MOL0     O 6356   5.760  10.531   6.330  0.3606 -0.2742  0.4177
   47MOL0     C 6357   5.639  10.486   6.263 -0.0530 -0.1169  0.3441
   47MOL0     C 6358   5.590  10.353   6.313 -1.1807  0.3186  0.5926
   47MOL0     C 6359   5.557  10.352   6.458 -0.0707 -0.1042 -0.6189
   47MOL0     C 6360   5.433  10.424   6.495  0.0340  0.5228 -0.1584
   47MOL0     C 6361   5.331  10.342   6.567  0.1215  0.1266  0.1575
   47MOL0     C 6362   5.200  10.430   6.601 -0.2864  0.4033 -0.6899
   47MOL0     C 6363   5.072  10.376   6.545  0.6676 -0.6155 -0.0683
   47MOL0     C 6364   4.996  10.279   6.633 -0.7049  0.4954 -0.1431
   47MOL0     N 6365   5.090  10.188   6.705 -0.0872  0.2776 -0.1156
   47MOL0     C 6366   5.171  10.083   6.659 -0.6456  0.3071 -0.2075
   47MOL0     C 6367   5.235  10.041   6.775  0.2184  0.2099 -0.8358
   47MOL0     C 6368   5.340   9.938   6.797 -0.3631  0.5033 -0.4187
   47MOL0     C 6369   5.301   9.836   6.908 -0.4672  0.2663 -0.6805
   47MOL0     C 6370   5.393   9.729   6.965 -1.0463  1.0831  0.1321
   47MOL0     C 6371   5.470   9.649   6.857  0.8413 -0.3557  0.6310
   47MOL0     O 6372   5.380   9.600   6.750  0.1510 -0.5070 -0.2615
   47MOL0     C 6373   5.401   9.488   6.678  0.4777  0.0572 -0.0701
   47MOL0     C 6374   5.303   9.448   6.587  0.4688  0.3592  0.1583
   47MOL0     C 6375   5.302   9.328   6.519  0.4454 -0.1355 -0.6831
   47MOL0     C 6376   5.185   9.302   6.427  0.2068  0.6450 -0.4549
   47MOL0     C 6377   5.414   9.239   6.543  0.4001  0.0315  0.4619
   47MOL0     C 6378   5.447   9.117   6.464 -0.3453 -0.2716 -0.7406
   47MOL0     O 6379   5.564   9.049   6.490  0.0649  0.1892 -0.0023
   47MOL0     C 6380   5.589   8.934   6.415 -0.3494 -0.3931 -0.5014
   47MOL0     C 6381   5.730   8.906   6.402 -0.4169 -0.8706 -0.1946
   47MOL0     C 6382   5.777   8.813   6.305  0.4141 -0.3163 -0.1129
   47MOL0     C 6383   5.681   8.726   6.241  0.8615 -0.7671 -0.3656
   47MOL0     O 6384   5.720   8.623   6.157  0.3909 -0.2215  0.5710
   47MOL0     C 6385   5.633   8.573   6.061 -0.1558 -0.4176 -0.8076
   47MOL0     C 6386   5.704   8.479   5.963 -0.1506  0.2639 -0.0539
   47MOL0     C 6387   5.744   8.358   6.030 -0.0846 -0.7708 -0.1411
   47MOL0     C 6388   5.821   8.276   5.922  0.6175 -0.0693  0.0538
   47MOL0     C 6389   5.891   8.149   5.975 -0.7898  1.3225 -0.3012
   47MOL0     C 6390   5.990   8.079   5.875 -0.4255  0.1889  0.9138
   47MOL0     C 6391   6.077   7.955   5.923  0.3291 -0.0955 -0.1522
   47MOL0     C 6392   6.211   7.938   5.857 -0.4668  0.6067 -0.0420
   47MOL0    Cl 6393   6.313   7.808   5.921 -0.0888  0.1354  0.3032
   47MOL0     C 6394   5.545   8.748   6.275 -0.0625  0.2936  1.0223
   47MOL0     C 6395   5.492   8.846   6.359  0.1632 -0.3097 -0.4796
   47MOL0     O 6396   5.367   9.092   6.378 -0.0438  0.2621 -0.2190
   47MOL0     C 6397   5.515   9.280   6.635 -0.7987  0.0265  0.1593
   47MOL0     C 6398   5.506   9.402   6.699 -0.8390  0.5541  0.5735
   47MOL0     N 6399   5.174  10.114   6.874  0.5146 -0.6736 -0.5359
   47MOL0     N 6400   5.080  10.189   6.842 -0.5602 -0.3296  0.1312
   47MOL0     C 6401   5.804  10.704   6.172  0.4779  0.7406 -0.9122
   47MOL0     C 6402   5.888  10.806   6.126  0.1835  0.1675 -0.4842
   47MOL0     C 6403   6.236  11.118   6.138  0.5582 -0.7661 -0.2549
   47MOL0     C 6404   6.151  11.227   6.107 -0.1929  0.9960  0.9179
   47MOL0     C 6405   6.184  11.359   6.121  1.2053  0.2767  0.7908
   47MOL0     C 6406   6.313  11.397   6.148 -0.1414  0.3865  0.4309
   47MOL0     O 6407   6.354  11.527   6.162  0.3155 -0.0093 -0.3350
   47MOL0     C 6408   6.254  11.635   6.160  1.5123  0.0027  0.1657
   47MOL0     C 6409   6.233  11.685   6.306 -1.8341 -0.2820 -0.6542
   47MOL0     C 6410   6.145  11.816   6.324  0.2497  0.2688  0.5337
   47MOL0     C 6411   6.194  11.948   6.261 -0.0076  0.0601 -0.2753
   47MOL0     C 6412   6.309  12.004   6.326  0.2659  0.2900 -1.0519
   47MOL0     C 6413   6.409  12.040   6.368 -0.0445 -0.4860 -0.0677
   47MOL0     C 6414   6.405  11.295   6.172  0.4802 -0.6187  0.5199
   47MOL0     C 6415   6.373  11.155   6.161  0.8961  1.2935 -0.3412
   47MOL0     C 6416   6.484  11.049   6.187  0.0762  0.0443 -0.5143
   47MOL0     H 6417   6.138  10.794   6.342 -0.1991  0.3817  0.7368
   47MOL0     H 6418   6.009  10.594   6.422 -1.9138 -0.4652  1.2983
   47MOL0     H 6419   5.659  10.463   6.157 -0.6739 -3.2396  0.8219
   47MOL0     H 6420   5.560  10.559   6.282  0.0284 -0.3754  1.7843
   47MOL0     H 6421   5.498  10.325   6.260 -0.7447  1.4831 -0.8581
   47MOL0     H 6422   5.661  10.275   6.283 -0.5466  1.2349 -0.3726
   47MOL0     H 6423   5.551  10.244   6.475  0.8900 -0.1932 -0.7584
   47MOL0     H 6424   5.646  10.385   6.513 -1.8651  0.4116  2.1943
   47MOL0     H 6425   5.461  10.512   6.554 -2.2916  0.3645  1.2930
   47MOL0     H 6426   5.380  10.463   6.407 -1.2611 -1.3944 -0.2878
   47MOL0     H 6427   5.381  10.312   6.659 -0.0954 -1.3958 -0.2008
   47MOL0     H 6428   5.313  10.252   6.508  4.1563 -1.1878  0.6528
   47MOL0     H 6429   5.191  10.434   6.710 -1.1584 -0.5253 -0.7143
   47MOL0     H 6430   5.211  10.535   6.572  1.5875  0.9907  1.8714
   47MOL0     H 6431   5.096  10.321   6.453  3.6925  2.1477 -1.1455
   47MOL0     H 6432   5.002  10.454   6.513 -0.5743 -2.5169 -2.3082
   47MOL0     H 6433   4.930  10.345   6.690 -1.9069 -1.2704  0.6350
   47MOL0     H 6434   4.933  10.207   6.580  0.2848  0.2347 -0.9857
   47MOL0     H 6435   5.194  10.038   6.563 -0.8819 -2.9879  1.1376
   47MOL0     H 6436   5.435   9.982   6.830  0.5562 -0.6204 -1.4448
   47MOL0     H 6437   5.362   9.882   6.705  1.0982 -1.0648  0.8195
   47MOL0     H 6438   5.269   9.891   6.997  1.8694  0.5183  0.0657
   47MOL0     H 6439   5.214   9.778   6.875 -2.2400  2.7893 -0.7496
   47MOL0     H 6440   5.471   9.769   7.031  1.5837  0.3961 -2.3394
   47MOL0     H 6441   5.338   9.660   7.029  0.8387  0.2834  0.9699
   47MOL0     H 6442   5.541   9.716   6.808 -3.1525  3.1230 -0.9771
   47MOL0     H 6443   5.538   9.582   6.911  0.9610  1.9896  3.6494
   47MOL0     H 6444   5.212   9.507   6.588  1.9400  2.7307  0.6604
   47MOL0     H 6445   5.118   9.388   6.422 -0.7302  0.1462  2.0348
   47MOL0     H 6446   5.116   9.226   6.466 -1.7859  3.0418  1.0056
   47MOL0     H 6447   5.216   9.277   6.325  0.7413 -0.3440 -0.0680
   47MOL0     H 6448   5.808   8.958   6.456 -1.5575 -0.4065  1.0777
   47MOL0     H 6449   5.883   8.790   6.293  1.0619  0.6514  2.8655
   47MOL0     H 6450   5.557   8.509   6.107 -2.4905  1.7476 -1.4507
   47MOL0     H 6451   5.576   8.654   6.015 -3.2345 -2.0962 -0.2204
   47MOL0     H 6452   5.646   8.455   5.874  1.7473  1.8599 -1.8266
   47MOL0     H 6453   5.792   8.537   5.933  0.6332  0.7122  2.8386
   47MOL0     H 6454   5.663   8.306   6.082 -1.5701 -0.6512 -2.2313
   47MOL0     H 6455   5.822   8.378   6.104  1.4502  0.9212 -2.1041
   47MOL0     H 6456   5.906   8.327   5.876 -0.6463  1.1035 -1.0644
   47MOL0     H 6457   5.749   8.254   5.844 -1.2438 -3.3783  2.4566
   47MOL0     H 6458   5.945   8.188   6.062 -0.2789 -0.9004  0.4215
   47MOL0     H 6459   5.822   8.072   6.011  4.0587 -1.8753  3.3671
   47MOL0     H 6460   6.061   8.162   5.865  0.1776 -0.3386  0.7266
   47MOL0     H 6461   5.945   8.056   5.778 -0.7442  0.7333  0.9262
   47MOL0     H 6462   6.015   7.870   5.897  0.2001 -0.4368  1.1901
   47MOL0     H 6463   6.085   7.980   6.030 -3.1429  2.6759 -0.3366
   47MOL0     H 6464   6.264   8.034   5.858 -1.8052  1.3678 -0.0221
   47MOL0     H 6465   6.192   7.900   5.756 -0.9327 -1.2274  0.7069
   47MOL0     H 6466   5.474   8.675   6.238 -0.5746  0.9873  0.6094
   47MOL0     H 6467   5.386   8.854   6.381 -0.1042  1.4584 -2.1315
   47MOL0     H 6468   5.597   9.214   6.663  2.9943  3.1873 -2.3492
   47MOL0     H 6469   5.582   9.440   6.767  0.7924  1.4008 -1.6253
   47MOL0     H 6470   5.701  10.704   6.137 -1.1364 -1.2028  3.2600
   47MOL0     H 6471   5.865  10.862   6.037  2.6638  0.3411 -1.0641
   47MOL0     H 6472   6.048  11.201   6.085 -0.5000  0.1994  3.0206
   47MOL0     H 6473   6.105  11.428   6.096  1.4196  0.0905 -0.4951
   47MOL0     H 6474   6.298  11.714   6.099  0.5979 -0.0767 -0.6115
   47MOL0     H 6475   6.159  11.629   6.106  0.5356  0.2432  1.7604
   47MOL0     H 6476   6.327  11.707   6.358 -1.3859 -1.2553 -1.0150
   47MOL0     H 6477   6.197  11.604   6.370  3.3238 -0.1181  3.1068
   47MOL0     H 6478   6.062  11.785   6.259  2.6038 -1.9388 -1.6522
   47MOL0     H 6479   6.116  11.817   6.429  0.2513 -0.6546  0.5515
   47MOL0     H 6480   6.107  12.011   6.278 -2.6644 -3.6086  1.1553
   47MOL0     H 6481   6.203  11.934   6.152 -1.5766  3.0480 -0.8710
   47MOL0     H 6482   6.508  12.055   6.407 -0.0296  1.4388 -0.7929
   47MOL0     H 6483   6.506  11.327   6.196 -0.7769  0.7766  4.7785
   47MOL0     H 6484   6.576  11.107   6.176 -0.0275 -0.1245 -2.6192
   47MOL0     H 6485   6.480  10.996   6.283  2.6713 -1.3904 -1.0922
   47MOL0     H 6486   6.483  10.974   6.107 -2.9397 -1.1151  0.4831
   48MOL0     O 6487   8.286   2.074   0.384 -0.1651 -0.4646 -0.1110
   48MOL0     C 6488   8.317   1.986   0.306 -0.8277  0.8119  0.4891
   48MOL0     O 6489   8.240   1.877   0.271 -0.0137 -0.7122  0.4612
   48MOL0     C 6490   8.109   1.863   0.318 -1.0531  0.4356 -0.1555
   48MOL0     C 6491   8.095   1.788   0.437 -0.1870  0.3511  0.0466
   48MOL0     C 6492   7.972   1.760   0.493  0.3196  0.6585  0.1885
   48MOL0     C 6493   7.853   1.814   0.435 -0.2641 -0.5478  0.3249
   48MOL0     O 6494   7.734   1.789   0.492  0.2140 -0.5841  0.0227
   48MOL0     C 6495   7.612   1.835   0.442  0.5328  0.0786  1.0943
   48MOL0     C 6496   7.510   1.829   0.550 -0.4924  0.6023  0.5667
   48MOL0     C 6497   7.448   1.688   0.589  0.6449  0.0014  0.0961
   48MOL0     C 6498   7.360   1.628   0.474 -0.5784  0.1081  0.9009
   48MOL0     C 6499   7.285   1.504   0.512  0.0574  0.3798 -0.3355
   48MOL0     C 6500   7.369   1.376   0.545 -0.0228 -0.6854 -0.1073
   48MOL0     C 6501   7.294   1.248   0.585 -0.0462  0.4409 -0.2984
   48MOL0     C 6502   7.395   1.136   0.610  0.4519 -0.3959  0.7378
   48MOL0     N 6503   7.488   1.119   0.494 -0.0489 -0.2125  0.8811
   48MOL0     C 6504   7.452   1.120   0.361  0.3527 -0.3214  0.2332
   48MOL0     C 6505   7.569   1.119   0.286 -0.0874  0.9867 -0.0711
   48MOL0     C 6506   7.605   1.132   0.141  0.2145  0.1333  0.8675
   48MOL0     C 6507   7.750   1.139   0.108 -0.2868 -0.9454  0.7690
   48MOL0     C 6508   7.774   1.188  -0.039 -0.0473  0.2790  0.5160
   48MOL0     C 6509   7.688   1.105  -0.137 -0.4826  0.5526  0.2229
   48MOL0     O 6510   7.729   0.970  -0.135 -0.0687  0.7390  0.1298
   48MOL0     C 6511   7.844   0.942  -0.209 -0.5451  0.9840  0.4633
   48MOL0     C 6512   7.866   0.975  -0.351  0.5703 -0.4508 -0.8783
   48MOL0     C 6513   7.968   0.926  -0.422 -0.6539  0.4874  0.3041
   48MOL0     C 6514   7.976   0.978  -0.563 -0.7451  0.7743 -0.6614
   48MOL0     C 6515   8.066   0.839  -0.354  0.1169 -0.4303  0.0579
   48MOL0     C 6516   8.186   0.773  -0.419  0.5609 -0.1491 -0.2158
   48MOL0     O 6517   8.276   0.719  -0.334 -0.3521  1.2487  1.0605
   48MOL0     C 6518   8.391   0.686  -0.405  0.3759 -0.0838 -1.0723
   48MOL0     C 6519   8.440   0.560  -0.383  0.8275 -0.6153 -0.1760
   48MOL0     C 6520   8.563   0.526  -0.429 -0.0851  0.6038  0.3360
   48MOL0     C 6521   8.646   0.610  -0.505 -0.3004  0.0312 -0.1172
   48MOL0     O 6522   8.767   0.586  -0.560 -0.2124  0.1743 -0.0467
   48MOL0     C 6523   8.779   0.452  -0.616 -0.0510 -0.4441 -0.6649
   48MOL0     C 6524   8.905   0.442  -0.696  0.1186 -0.2108  0.5650
   48MOL0     C 6525   8.913   0.523  -0.833  0.9219  0.3683 -0.5099
   48MOL0     C 6526   8.856   0.663  -0.828 -0.3906 -0.4595  0.2642
   48MOL0     C 6527   8.860   0.725  -0.972  0.7869  0.3630  0.1683
   48MOL0     C 6528   8.840   0.884  -0.976 -0.0204  0.0645 -0.1899
   48MOL0     C 6529   8.699   0.923  -0.997  0.4840 -0.9347  0.8105
   48MOL0     C 6530   8.682   1.070  -1.000  1.1991 -0.7437  1.1127
   48MOL0    Cl 6531   8.744   1.151  -0.851  0.0168 -0.1119  0.0276
   48MOL0     C 6532   8.593   0.742  -0.522  0.3522 -0.3121  0.0630
   48MOL0     C 6533   8.470   0.778  -0.476  0.5116 -0.9333 -0.2135
   48MOL0     O 6534   8.191   0.763  -0.539  0.1038  0.4468  0.5085
   48MOL0     C 6535   8.048   0.814  -0.216 -0.6669 -0.1170 -0.3950
   48MOL0     C 6536   7.938   0.859  -0.154  1.2853  0.6545  0.5612
   48MOL0     N 6537   7.675   1.117   0.381  0.6446 -0.3008  0.7683
   48MOL0     N 6538   7.622   1.115   0.500  0.6481 -0.1226 -0.0496
   48MOL0     C 6539   7.867   1.891   0.320 -0.5666 -0.0670 -1.2470
   48MOL0     C 6540   7.992   1.921   0.263 -0.0850  0.5058 -0.4050
   48MOL0     C 6541   8.459   1.987   0.256 -0.3798 -0.6369 -0.0854
   48MOL0     C 6542   8.530   2.108   0.293 -0.1730  0.4531  0.5250
   48MOL0     C 6543   8.665   2.108   0.267  0.4785  0.3785 -0.6707
   48MOL0     C 6544   8.727   2.001   0.198 -0.1332  0.4710 -0.2842
   48MOL0     O 6545   8.854   2.021   0.159 -0.1376  0.1738 -0.0754
   48MOL0     C 6546   8.954   2.010   0.260  0.6143  0.2483  0.3708
   48MOL0     C 6547   8.969   1.869   0.332 -0.2975  0.6983 -0.2044
   48MOL0     C 6548   8.979   1.757   0.226  0.8784 -0.5279  0.3339
   48MOL0     C 6549   9.116   1.693   0.218  0.1064  0.5534  0.1569
   48MOL0     C 6550   9.115   1.578   0.123  0.0842 -0.2318 -0.4845
   48MOL0     C 6551   9.125   1.490   0.041  0.9918 -0.5606 -0.1611
   48MOL0     C 6552   8.662   1.892   0.153 -0.0737  0.3811  0.2425
   48MOL0     C 6553   8.530   1.880   0.193  0.0515  1.1823  0.2085
   48MOL0     C 6554   8.455   1.748   0.140 -0.6121 -0.0827  0.5700
   48MOL0     H 6555   8.179   1.749   0.494 -0.5995 -0.1679  0.3112
   48MOL0     H 6556   7.986   1.697   0.581  0.5733 -1.4206 -1.2647
   48MOL0     H 6557   7.580   1.784   0.350 -1.9301  2.4005  0.5242
   48MOL0     H 6558   7.617   1.940   0.412  0.1038 -0.9691 -3.3691
   48MOL0     H 6559   7.554   1.869   0.641 -1.7501 -0.5908  1.7464
   48MOL0     H 6560   7.433   1.899   0.517 -2.8329 -2.2914 -0.5602
   48MOL0     H 6561   7.532   1.620   0.608 -0.7681 -2.3679 -1.5787
   48MOL0     H 6562   7.383   1.709   0.674 -1.9655  0.2565 -1.8453
   48MOL0     H 6563   7.285   1.704   0.448  0.1512  0.8289  0.8807
   48MOL0     H 6564   7.429   1.609   0.391  1.0271  2.4156  1.6254
   48MOL0     H 6565   7.207   1.479   0.440 -1.8082 -0.6028  1.8854
   48MOL0     H 6566   7.227   1.530   0.601 -0.2533  1.8802 -0.9491
   48MOL0     H 6567   7.429   1.356   0.456 -0.4458 -4.0283  0.2606
   48MOL0     H 6568   7.433   1.406   0.629 -0.1870 -0.5786 -0.0192
   48MOL0     H 6569   7.232   1.215   0.501 -0.4917  0.8351 -0.1333
   48MOL0     H 6570   7.234   1.251   0.677  2.8767  0.3708  1.7602
   48MOL0     H 6571   7.465   1.151   0.693  2.1420 -0.3945 -0.6217
   48MOL0     H 6572   7.335   1.046   0.624 -0.3879 -0.0323 -0.3647
   48MOL0     H 6573   7.354   1.102   0.317  0.3491  0.5014 -0.1069
   48MOL0     H 6574   7.553   1.224   0.113 -2.6986 -1.1046  1.8754
   48MOL0     H 6575   7.558   1.051   0.084 -0.6168 -0.1620  1.9298
   48MOL0     H 6576   7.797   1.203   0.183 -1.2905 -0.1497  0.7458
   48MOL0     H 6577   7.798   1.041   0.118 -0.4060 -0.8635  2.3989
   48MOL0     H 6578   7.746   1.292  -0.056  0.5702  0.0007 -2.9423
   48MOL0     H 6579   7.881   1.179  -0.062  1.0541  3.9978  3.3846
   48MOL0     H 6580   7.583   1.115  -0.109 -1.1415 -0.1439 -1.7979
   48MOL0     H 6581   7.689   1.138  -0.241  0.0472  1.6114  0.5515
   48MOL0     H 6582   7.787   1.033  -0.398  0.5358  0.4935  0.3034
   48MOL0     H 6583   8.067   1.038  -0.562 -0.8512  0.9310 -0.1173
   48MOL0     H 6584   7.896   1.047  -0.586  0.2088  1.8920 -0.7179
   48MOL0     H 6585   7.973   0.895  -0.635 -2.0026  0.5502 -0.3676
   48MOL0     H 6586   8.377   0.492  -0.327  0.3586 -0.3504 -0.3764
   48MOL0     H 6587   8.600   0.427  -0.402  1.2325  1.0335  0.1761
   48MOL0     H 6588   8.791   0.380  -0.535 -1.8383  0.2081  0.2308
   48MOL0     H 6589   8.689   0.419  -0.670  0.2606 -3.4934  0.4684
   48MOL0     H 6590   8.990   0.469  -0.634 -0.0919  0.3360  0.6200
   48MOL0     H 6591   8.913   0.335  -0.720 -1.2824 -0.0749 -0.6693
   48MOL0     H 6592   8.856   0.471  -0.911  0.6132  2.2380 -1.6029
   48MOL0     H 6593   9.019   0.523  -0.861  2.4798  0.4643  4.3978
   48MOL0     H 6594   8.912   0.731  -0.763  0.4362  1.6662 -2.4434
   48MOL0     H 6595   8.751   0.668  -0.799 -0.8812  1.9226 -1.5997
   48MOL0     H 6596   8.956   0.702  -1.021  1.4725  2.2598  0.5676
   48MOL0     H 6597   8.779   0.683  -1.032  0.4394 -2.1081  2.1874
   48MOL0     H 6598   8.908   0.921  -1.053  2.9866 -2.5398  1.0084
   48MOL0     H 6599   8.884   0.927  -0.885 -2.2893  0.8390  0.6325
   48MOL0     H 6600   8.637   0.896  -0.911  0.7424  3.6874  2.7837
   48MOL0     H 6601   8.661   0.881  -1.090 -3.1162 -1.8186  2.5260
   48MOL0     H 6602   8.574   1.082  -1.013  1.3906 -0.6743 -0.7230
   48MOL0     H 6603   8.731   1.104  -1.092 -2.0155 -1.5828 -1.0846
   48MOL0     H 6604   8.644   0.811  -0.588 -0.6192  0.7553  0.3973
   48MOL0     H 6605   8.431   0.879  -0.482 -1.5510 -1.6498  0.3595
   48MOL0     H 6606   8.119   0.753  -0.162 -1.8591  0.8041  2.3618
   48MOL0     H 6607   7.925   0.820  -0.053 -0.6705  0.1825  0.1653
   48MOL0     H 6608   7.779   1.922   0.266 -0.7536 -4.4192 -3.8557
   48MOL0     H 6609   8.000   1.981   0.173  1.6066  2.4422  0.9457
   48MOL0     H 6610   8.488   2.186   0.356 -1.9174 -2.0336  2.6681
   48MOL0     H 6611   8.722   2.189   0.311  1.2487 -0.3162 -0.3484
   48MOL0     H 6612   9.045   2.020   0.200 -1.0302  0.1090 -2.2925
   48MOL0     H 6613   8.958   2.093   0.331 -1.3562  1.0979 -0.4400
   48MOL0     H 6614   8.876   1.861   0.390 -0.3805  0.0674 -0.4171
   48MOL0     H 6615   9.059   1.863   0.394 -0.8168 -0.5895  0.4701
   48MOL0     H 6616   8.899   1.684   0.236  1.3864 -1.1590 -0.1240
   48MOL0     H 6617   8.957   1.804   0.130 -0.4698  0.9234  1.3040
   48MOL0     H 6618   9.136   1.655   0.319  1.2327 -1.0761 -0.6321
   48MOL0     H 6619   9.192   1.760   0.177 -0.3687  0.1780 -1.4212
   48MOL0     H 6620   9.143   1.428  -0.045  0.4271  2.4812 -2.6433
   48MOL0     H 6621   8.714   1.819   0.092 -0.1062  1.6743 -1.4109
   48MOL0     H 6622   8.359   1.764   0.091 -0.9098  2.7601  1.8959
   48MOL0     H 6623   8.513   1.682   0.075 -2.1486  0.6409 -1.6628
   48MOL0     H 6624   8.436   1.689   0.230  1.7353 -0.2047  1.0760
   49MOL0     O 6625   5.719   6.818   7.643 -0.1702  0.1928 -0.4168
   49MOL0     C 6626   5.751   6.778   7.755  0.7171  0.0475 -0.6285
   49MOL0     O 6627   5.864   6.805   7.821  0.1206  0.6808  0.4517
   49MOL0     C 6628   5.945   6.901   7.774 -1.3772  0.2029  0.5302
   49MOL0     C 6629   5.930   7.038   7.793 -0.8876  0.4961 -0.2039
   49MOL0     C 6630   6.024   7.134   7.733  0.0230 -0.5727 -0.9299
   49MOL0     C 6631   6.127   7.084   7.656  0.2578 -0.9760 -1.1308
   49MOL0     O 6632   6.211   7.175   7.596  0.0528  0.0346 -0.7328
   49MOL0     C 6633   6.351   7.161   7.622 -0.3577 -0.1223 -0.4410
   49MOL0     C 6634   6.399   7.164   7.763 -1.3133 -0.3227 -0.1174
   49MOL0     C 6635   6.561   7.188   7.752  0.9534 -0.3510  0.1742
   49MOL0     C 6636   6.624   7.130   7.877 -1.2206 -0.1409 -0.9184
   49MOL0     C 6637   6.780   7.136   7.880 -0.1370  0.3255 -0.3468
   49MOL0     C 6638   6.844   7.274   7.912  0.2418  0.1519 -1.0489
   49MOL0     C 6639   6.999   7.295   7.881  0.4989 -0.1630  0.9260
   49MOL0     C 6640   7.031   7.303   7.727 -0.1296  0.2829 -0.7544
   49MOL0     N 6641   7.143   7.219   7.683 -0.5112  0.5798 -1.0410
   49MOL0     C 6642   7.160   7.080   7.697  0.9004  0.8792  0.2984
   49MOL0     C 6643   7.267   7.047   7.621 -0.3545  0.1199  0.1918
   49MOL0     C 6644   7.325   6.915   7.596  0.0328 -0.2975  1.1371
   49MOL0     C 6645   7.455   6.906   7.520 -0.2719 -0.0550 -0.1070
   49MOL0     C 6646   7.576   6.962   7.609  0.6167  0.0135  0.3641
   49MOL0     C 6647   7.608   6.889   7.739  0.3086  0.0890 -0.6561
   49MOL0     O 6648   7.661   6.748   7.703  0.3957  0.5211 -0.4281
   49MOL0     C 6649   7.679   6.663   7.817  0.0649 -0.6063 -0.0243
   49MOL0     C 6650   7.678   6.527   7.787 -0.3845 -0.0389 -0.9485
   49MOL0     C 6651   7.683   6.438   7.892  0.4246 -0.3745 -0.2261
   49MOL0     C 6652   7.671   6.289   7.867  0.3842 -0.9863  0.4456
   49MOL0     C 6653   7.704   6.484   8.027  0.1008 -0.8100  0.6775
   49MOL0     C 6654   7.732   6.396   8.151 -0.0021  0.0664  0.1108
   49MOL0     O 6655   7.705   6.433   8.277  0.1197  0.4416  0.1560
   49MOL0     C 6656   7.733   6.334   8.369 -1.0327 -0.0119  0.4639
   49MOL0     C 6657   7.649   6.226   8.375  0.1272  0.8074  0.0201
   49MOL0     C 6658   7.672   6.134   8.478  0.1989 -0.3759 -0.0458
   49MOL0     C 6659   7.767   6.155   8.579 -0.1714 -0.0443 -0.1270
   49MOL0     O 6660   7.748   6.059   8.684 -0.5802  0.7119  0.6061
   49MOL0     C 6661   7.865   6.038   8.772 -0.0117  0.7930 -0.1174
   49MOL0     C 6662   7.846   5.909   8.850  0.3310  0.6986 -0.0611
   49MOL0     C 6663   7.930   5.907   8.966 -1.0913 -0.3775  0.0642
   49MOL0     C 6664   7.923   5.778   9.046 -0.1065 -0.0956  0.1546
   49MOL0     C 6665   7.835   5.814   9.174 -0.3010 -0.4316  0.6303
   49MOL0     C 6666   7.908   5.876   9.295  0.3912 -0.0119  0.3152
   49MOL0     C 6667   7.802   5.955   9.375 -0.3945  0.7394 -0.5224
   49MOL0     C 6668   7.862   6.016   9.507  0.9028 -0.2455 -0.2860
   49MOL0    Cl 6669   7.885   5.898   9.636  0.5854  0.1897  0.3998
   49MOL0     C 6670   7.858   6.259   8.568 -0.0559 -0.3502  0.5884
   49MOL0     C 6671   7.839   6.343   8.459 -0.3278 -0.0923  0.5675
   49MOL0     O 6672   7.798   6.295   8.121 -0.2966 -0.0304 -0.1337
   49MOL0     C 6673   7.708   6.616   8.058 -0.0616  0.2744 -0.0686
   49MOL0     C 6674   7.692   6.707   7.952 -0.4619 -0.3547  0.3379
   49MOL0     N 6675   7.318   7.165   7.569  0.0685 -0.6414 -0.3157
   49MOL0     N 6676   7.243   7.259   7.604 -0.6826 -0.5923  0.2916
   49MOL0     C 6677   6.148   6.946   7.641  0.9215 -0.5010 -0.1905
   49MOL0     C 6678   6.056   6.858   7.690 -0.2297  0.3615  0.7712
   49MOL0     C 6679   5.657   6.689   7.826 -0.1505  0.0641  0.2810
   49MOL0     C 6680   5.519   6.719   7.821  0.1063 -0.7257  0.8561
   49MOL0     C 6681   5.423   6.652   7.902  0.3628 -0.9446  0.8530
   49MOL0     C 6682   5.464   6.533   7.960 -0.3527  0.0044  1.2289
   49MOL0     O 6683   5.375   6.465   8.036 -0.1166  0.1335  0.0880
   49MOL0     C 6684   5.255   6.413   7.973  0.0060 -0.2518 -0.3086
   49MOL0     C 6685   5.264   6.257   7.998  0.1056  0.0547 -0.2432
   49MOL0     C 6686   5.208   6.208   8.139 -0.8485  0.5568 -0.1440
   49MOL0     C 6687   5.279   6.275   8.253  0.2750  0.1748 -1.0116
   49MOL0     C 6688   5.229   6.232   8.388  0.7968  0.5912 -0.0321
   49MOL0     C 6689   5.189   6.196   8.496 -0.2589  0.0147 -0.9965
   49MOL0     C 6690   5.596   6.500   7.969 -0.1791 -0.6630 -0.4686
   49MOL0     C 6691   5.698   6.581   7.908  0.1798 -0.2124  0.9248
   49MOL0     C 6692   5.843   6.544   7.928  0.3466  0.8159  0.2002
   49MOL0     H 6693   5.836   7.071   7.837 -0.9091 -0.5684  0.5910
   49MOL0     H 6694   5.983   7.234   7.723  1.2127 -0.0590 -0.8396
   49MOL0     H 6695   6.400   7.242   7.566  0.6687 -0.5799 -0.2385
   49MOL0     H 6696   6.386   7.070   7.571  0.8314  1.0194 -1.7600
   49MOL0     H 6697   6.353   7.250   7.812  0.9099  0.1492  1.2796
   49MOL0     H 6698   6.371   7.074   7.817  1.3371 -0.3539  1.3783
   49MOL0     H 6699   6.589   7.117   7.674 -1.9350 -2.9206  1.2611
   49MOL0     H 6700   6.593   7.292   7.743  1.4594 -0.4390  0.8758
   49MOL0     H 6701   6.590   7.189   7.962 -0.9749  1.8116 -2.0945
   49MOL0     H 6702   6.594   7.026   7.887 -0.5973 -0.4068 -1.6681
   49MOL0     H 6703   6.809   7.099   7.781 -1.0740 -2.7815  0.4512
   49MOL0     H 6704   6.817   7.057   7.946  3.0933  3.3742  1.9173
   49MOL0     H 6705   6.794   7.358   7.863 -1.4530  0.3956  0.9565
   49MOL0     H 6706   6.829   7.287   8.019 -0.8845 -0.7305 -1.0769
   49MOL0     H 6707   7.048   7.211   7.930 -1.7371 -1.0823  1.7519
   49MOL0     H 6708   7.031   7.385   7.934  0.1623  0.6151 -0.1534
   49MOL0     H 6709   6.938   7.271   7.679 -1.4007  3.1395 -0.4074
   49MOL0     H 6710   7.059   7.406   7.701 -3.5543  1.9408  1.3481
   49MOL0     H 6711   7.104   7.006   7.753  2.5743  0.2249  1.2017
   49MOL0     H 6712   7.250   6.857   7.542  1.4026 -0.8710 -0.2106
   49MOL0     H 6713   7.341   6.872   7.695 -0.1377 -0.9431  0.8869
   49MOL0     H 6714   7.481   6.806   7.484  1.6442 -0.3320  1.8338
   49MOL0     H 6715   7.443   6.971   7.433  2.2339  2.0066  0.9518
   49MOL0     H 6716   7.668   6.974   7.551 -0.7219 -0.6548 -2.0219
   49MOL0     H 6717   7.545   7.067   7.620  1.7098  0.6538 -2.0690
   49MOL0     H 6718   7.676   6.948   7.800  0.6607  0.0458 -1.0053
   49MOL0     H 6719   7.527   6.871   7.811 -0.3735 -2.5065 -1.9294
   49MOL0     H 6720   7.653   6.474   7.695 -0.8976 -0.0244 -0.8195
   49MOL0     H 6721   7.584   6.257   7.925 -0.5031 -0.7069 -0.6792
   49MOL0     H 6722   7.767   6.239   7.874  0.5782 -0.9166 -1.2378
   49MOL0     H 6723   7.645   6.276   7.761 -0.0634  0.3884  0.3632
   49MOL0     H 6724   7.566   6.209   8.307 -2.0546  1.0868  2.4417
   49MOL0     H 6725   7.610   6.046   8.490  0.0317 -0.5603 -1.8719
   49MOL0     H 6726   7.947   6.030   8.700 -1.3063  2.2787 -1.8259
   49MOL0     H 6727   7.880   6.123   8.840  1.0624  0.4379  0.1198
   49MOL0     H 6728   7.741   5.891   8.876 -0.0893  2.3798 -0.4788
   49MOL0     H 6729   7.884   5.833   8.781  0.5637  1.9780 -1.3848
   49MOL0     H 6730   7.913   5.996   9.027  2.1174 -0.0209  0.6006
   49MOL0     H 6731   8.035   5.917   8.938 -1.3418  2.2466 -0.1654
   49MOL0     H 6732   8.026   5.745   9.060  0.6308  0.8262 -2.5352
   49MOL0     H 6733   7.868   5.701   8.992  0.5631 -0.2736 -0.2812
   49MOL0     H 6734   7.746   5.870   9.144  0.6882  1.3570  0.8989
   49MOL0     H 6735   7.799   5.717   9.211  2.1127 -0.5433  3.0466
   49MOL0     H 6736   7.979   5.954   9.266  0.6923 -0.2015  0.5292
   49MOL0     H 6737   7.952   5.800   9.361 -0.2184 -2.5993 -2.0253
   49MOL0     H 6738   7.720   5.895   9.415 -0.4664  1.0574 -0.1856
   49MOL0     H 6739   7.753   6.027   9.309 -1.3513 -0.2950 -0.9718
   49MOL0     H 6740   7.791   6.090   9.545  0.0537  0.7052 -3.4828
   49MOL0     H 6741   7.959   6.065   9.498  0.9105 -0.0504  0.7682
   49MOL0     H 6742   7.924   6.276   8.652 -1.9547 -1.7948  2.4572
   49MOL0     H 6743   7.906   6.427   8.441 -1.3607  0.7985  0.7444
   49MOL0     H 6744   7.708   6.656   8.159 -0.2600  2.5521 -0.9063
   49MOL0     H 6745   7.690   6.815   7.967  0.3757  0.1382 -2.5063
   49MOL0     H 6746   6.234   6.908   7.587 -0.7944 -3.1113 -1.2352
   49MOL0     H 6747   6.059   6.750   7.679  3.0389  0.4108  0.1382
   49MOL0     H 6748   5.482   6.799   7.758 -0.3219  0.4080  2.4541
   49MOL0     H 6749   5.320   6.684   7.887  1.0903  0.5118 -1.9294
   49MOL0     H 6750   5.168   6.465   8.015  0.0208 -2.1194  2.2291
   49MOL0     H 6751   5.258   6.430   7.865 -0.8571  2.2678 -0.0085
   49MOL0     H 6752   5.362   6.212   7.980  0.2405 -0.0690  0.7243
   49MOL0     H 6753   5.194   6.214   7.926  0.0155  0.2894 -0.2959
   49MOL0     H 6754   5.100   6.227   8.136 -1.1682 -0.8251  1.3507
   49MOL0     H 6755   5.228   6.101   8.141  1.5419  0.9365  1.9798
   49MOL0     H 6756   5.268   6.384   8.242  3.0966  0.3636 -2.7972
   49MOL0     H 6757   5.387   6.262   8.252  0.1206 -1.7790  1.1267
   49MOL0     H 6758   5.153   6.176   8.595  0.9739 -2.9743 -1.0436
   49MOL0     H 6759   5.618   6.410   8.026 -0.3412 -2.4999 -3.1281
   49MOL0     H 6760   5.918   6.568   7.853  0.4694  1.4927  0.5298
   49MOL0     H 6761   5.875   6.605   8.013  0.4016  2.7223 -1.1203
   49MOL0     H 6762   5.853   6.444   7.971  0.0422 -0.2725 -2.1472
   50MOL0     O 6763   0.435   9.634   5.358  0.3815  0.3809  0.3277
   50MOL0     C 6764   0.451   9.741   5.412 -0.4470  0.1809 -0.5027
   50MOL0     O 6765   0.554   9.784   5.502  0.4285 -1.2298 -0.6849
   50MOL0     C 6766   0.682   9.732   5.497  0.5073  0.5813 -0.2475
   50MOL0     C 6767   0.730   9.683   5.375 -0.6153  0.3830 -0.5138
   50MOL0     C 6768   0.855   9.622   5.378 -0.1376  0.1852  0.6581
   50MOL0     C 6769   0.931   9.605   5.496 -1.6272 -0.5037 -0.1111
   50MOL0     O 6770   1.044   9.529   5.497 -0.0717 -0.5703  0.6438
   50MOL0     C 6771   1.139   9.575   5.401 -0.2291 -0.6087 -0.1849
   50MOL0     C 6772   1.281   9.591   5.469 -0.3595  0.5267  0.3287
   50MOL0     C 6773   1.284   9.655   5.605  0.7084  0.2850  0.2539
   50MOL0     C 6774   1.422   9.675   5.658  0.0570  0.0181 -0.2084
   50MOL0     C 6775   1.414   9.737   5.800  0.1335  0.1217  0.3055
   50MOL0     C 6776   1.548   9.718   5.879 -0.3431  0.5785  0.4770
   50MOL0     C 6777   1.675   9.787   5.817  0.5873 -0.1054  0.1203
   50MOL0     C 6778   1.658   9.939   5.803 -0.3237  0.2295 -0.1954
   50MOL0     N 6779   1.790  10.003   5.776  0.0436 -0.2681  0.0596
   50MOL0     C 6780   1.874  10.060   5.870 -0.3412 -0.8656 -0.0587
   50MOL0     C 6781   1.981  10.103   5.792  0.2601 -0.1167 -0.4634
   50MOL0     C 6782   2.088  10.196   5.859  0.3832  0.8560 -0.8209
   50MOL0     C 6783   2.054  10.332   5.814  0.0670  0.2374 -0.4451
   50MOL0     C 6784   2.165  10.431   5.854  0.1335 -0.2444 -0.0033
   50MOL0     C 6785   2.123  10.574   5.824 -0.1675  0.5778 -0.4297
   50MOL0     O 6786   2.001  10.602   5.898 -0.1592 -0.1136 -0.0924
   50MOL0     C 6787   1.895  10.648   5.828 -0.2795  0.2439 -0.4719
   50MOL0     C 6788   1.911  10.755   5.735  0.8628  0.0068  0.6170
   50MOL0     C 6789   1.800  10.781   5.658 -0.5870  0.3700  1.0015
   50MOL0     C 6790   1.820  10.890   5.554  0.3342  1.0217 -0.2471
   50MOL0     C 6791   1.674  10.718   5.675 -0.7211 -0.5152  0.1678
   50MOL0     C 6792   1.545  10.751   5.604 -0.6087 -1.1612  0.1146
   50MOL0     O 6793   1.527  10.871   5.540  0.0115 -0.4243 -0.0935
   50MOL0     C 6794   1.408  10.898   5.467 -0.8985  0.0882 -0.4971
   50MOL0     C 6795   1.313  10.985   5.530 -0.0198  0.2448 -0.2969
   50MOL0     C 6796   1.199  11.023   5.457 -0.3759  1.0212 -0.3476
   50MOL0     C 6797   1.181  10.984   5.323 -0.1985  0.5189 -0.9811
   50MOL0     O 6798   1.092  11.032   5.232 -0.1079  0.5392 -0.6062
   50MOL0     C 6799   0.978  11.096   5.273  0.3332 -0.6675 -0.1920
   50MOL0     C 6800   0.887  11.000   5.336  1.2255  0.4223  0.9864
   50MOL0     C 6801   0.743  11.046   5.343 -0.6428 -0.3105 -0.6158
   50MOL0     C 6802   0.728  11.182   5.408  0.5220  0.1393 -0.0329
   50MOL0     C 6803   0.564  11.213   5.411  0.1246  0.6484 -0.7383
   50MOL0     C 6804   0.550  11.356   5.461 -0.1714  0.3532  0.1478
   50MOL0     C 6805   0.425  11.434   5.436  0.0976  0.1545 -0.1817
   50MOL0     C 6806   0.369  11.428   5.294  0.6142 -0.2234  0.4648
   50MOL0    Cl 6807   0.246  11.561   5.292 -0.1803  0.4624  0.1834
   50MOL0     C 6808   1.276  10.901   5.268  0.2584  0.0131 -0.5968
   50MOL0     C 6809   1.388  10.849   5.336  0.2390 -0.3448 -0.1617
   50MOL0     O 6810   1.457  10.671   5.610  0.5364  0.0071 -0.3670
   50MOL0     C 6811   1.666  10.621   5.774  0.4878  0.2969 -0.8486
   50MOL0     C 6812   1.778  10.580   5.850 -0.0480 -0.5950  0.2161
   50MOL0     N 6813   1.953  10.070   5.654  0.4754  0.1552  0.0454
   50MOL0     N 6814   1.838  10.010   5.652  0.0431 -1.1539 -0.9921
   50MOL0     C 6815   0.892   9.675   5.614 -0.1790 -0.9178  0.1377
   50MOL0     C 6816   0.765   9.737   5.614 -0.3328  0.1011 -0.0297
   50MOL0     C 6817   0.333   9.829   5.389  0.0073  0.1295  0.3955
   50MOL0     C 6818   0.287   9.831   5.255 -0.1309  0.7665 -0.4176
   50MOL0     C 6819   0.172   9.894   5.223  0.7072 -0.2864 -0.8014
   50MOL0     C 6820   0.098   9.961   5.321  0.4036  0.9484 -0.3808
   50MOL0     O 6821  -0.007  10.040   5.304 -0.1512  0.5363  1.4859
   50MOL0     C 6822  -0.013  10.106   5.175  0.3201 -0.9128 -0.0150
   50MOL0     C 6823  -0.100  10.232   5.178  0.0336 -0.1521 -0.4578
   50MOL0     C 6824  -0.061  10.336   5.291 -0.3751  0.3150 -0.2811
   50MOL0     C 6825   0.076  10.407   5.277 -0.6992  0.7434  0.6337
   50MOL0     C 6826   0.085  10.485   5.152 -0.4864 -0.3320 -0.2253
   50MOL0     C 6827   0.092  10.545   5.041  1.9402  0.4408 -0.6482
   50MOL0     C 6828   0.151   9.963   5.452 -0.4526  0.1907  0.1712
   50MOL0     C 6829   0.279   9.911   5.494 -0.3275 -0.7228  0.1192
   50MOL0     C 6830   0.315   9.907   5.636 -0.5753  0.2958 -0.7083
   50MOL0     H 6831   0.674   9.712   5.287 -1.9825  0.0720  0.2389
   50MOL0     H 6832   0.872   9.582   5.279 -1.2253  2.0199 -0.3326
   50MOL0     H 6833   1.119   9.674   5.360  2.9295  1.0867  1.9621
   50MOL0     H 6834   1.143   9.507   5.315 -0.6160 -1.7922  0.6904
   50MOL0     H 6835   1.341   9.500   5.464  0.7387  1.2979 -3.1311
   50MOL0     H 6836   1.337   9.654   5.399  0.6606 -0.1420  0.5187
   50MOL0     H 6837   1.233   9.751   5.595 -2.5480 -1.1390  1.7318
   50MOL0     H 6838   1.229   9.595   5.678  1.3735  1.1789  1.5169
   50MOL0     H 6839   1.467   9.575   5.658  1.2270  0.5045 -1.7367
   50MOL0     H 6840   1.477   9.747   5.596 -0.4930  1.5332  0.9890
   50MOL0     H 6841   1.335   9.681   5.850  0.5983 -2.2770 -1.4566
   50MOL0     H 6842   1.381   9.841   5.803  1.1836  0.4442  2.9387
   50MOL0     H 6843   1.540   9.774   5.973  1.1648  1.8441 -0.1016
   50MOL0     H 6844   1.573   9.612   5.885  0.1268  0.4708 -2.2912
   50MOL0     H 6845   1.696   9.749   5.717 -0.3016  3.9507 -1.8099
   50MOL0     H 6846   1.761   9.761   5.879  0.5001 -0.2220  0.1945
   50MOL0     H 6847   1.591   9.962   5.719 -3.5245  0.7298  2.2852
   50MOL0     H 6848   1.614   9.977   5.896 -1.9909 -2.1473  0.0721
   50MOL0     H 6849   1.867  10.068   5.978  3.9527  1.2449  0.2500
   50MOL0     H 6850   2.185  10.158   5.826 -0.6634 -3.5502  0.4849
   50MOL0     H 6851   2.088  10.189   5.968  2.7920 -0.4572 -0.8416
   50MOL0     H 6852   2.038  10.324   5.706  0.5707 -2.9003 -0.4029
   50MOL0     H 6853   1.956  10.367   5.847  0.6668  1.2163  0.3240
   50MOL0     H 6854   2.184  10.425   5.962 -1.2900  0.7956  0.3262
   50MOL0     H 6855   2.256  10.401   5.801  0.8520 -0.5279  1.3292
   50MOL0     H 6856   2.208  10.634   5.860 -0.6392 -0.7019  3.2334
   50MOL0     H 6857   2.107  10.587   5.716 -1.9847  2.0525 -0.0271
   50MOL0     H 6858   2.007  10.800   5.710 -0.3185  1.9399 -0.7919
   50MOL0     H 6859   1.802  10.847   5.455 -2.7274  0.5918  0.3797
   50MOL0     H 6860   1.922  10.925   5.570  0.9280 -1.1322  1.1918
   50MOL0     H 6861   1.747  10.970   5.576 -0.8328  0.6039 -2.3651
   50MOL0     H 6862   1.331  11.015   5.632 -0.3121 -0.5670  0.0023
   50MOL0     H 6863   1.129  11.090   5.506  1.8002  1.9636  1.6827
   50MOL0     H 6864   0.997  11.182   5.338  0.2730  0.2467 -1.3517
   50MOL0     H 6865   0.946  11.143   5.179  1.5021 -3.7809 -2.3092
   50MOL0     H 6866   0.871  10.911   5.274 -1.6617 -0.1977  2.4449
   50MOL0     H 6867   0.920  10.976   5.437  4.3953  0.5616  0.0904
   50MOL0     H 6868   0.686  10.990   5.417 -2.2785  2.6546  0.5617
   50MOL0     H 6869   0.686  11.023   5.253 -1.2582 -4.5637  0.6590
   50MOL0     H 6870   0.774  11.262   5.350  0.6957 -0.1091 -0.2433
   50MOL0     H 6871   0.760  11.170   5.512  1.8394 -3.2162 -0.6946
   50MOL0     H 6872   0.529  11.199   5.309 -3.5839  3.0722  0.0447
   50MOL0     H 6873   0.507  11.149   5.479 -2.0612  3.4316  0.2098
   50MOL0     H 6874   0.627  11.419   5.415 -0.2720  2.1115  2.2614
   50MOL0     H 6875   0.577  11.367   5.566  2.6085  1.2444 -0.5531
   50MOL0     H 6876   0.459  11.536   5.456  0.6546 -0.5453  2.8679
   50MOL0     H 6877   0.346  11.415   5.509  1.1150  0.9791  1.1805
   50MOL0     H 6878   0.313  11.336   5.276  2.1787 -1.8063  2.9515
   50MOL0     H 6879   0.458  11.439   5.231  1.8858 -2.9793  1.5962
   50MOL0     H 6880   1.268  10.862   5.167  2.1701 -0.1777 -0.7184
   50MOL0     H 6881   1.454  10.774   5.294  0.1652 -0.6999  0.3537
   50MOL0     H 6882   1.570  10.575   5.794  0.6736 -0.0073 -0.6365
   50MOL0     H 6883   1.776  10.501   5.925  1.6856 -1.3912 -0.5348
   50MOL0     H 6884   0.954   9.673   5.704  0.7616 -3.0636 -0.4810
   50MOL0     H 6885   0.726   9.786   5.703  0.2486 -0.8080  0.7434
   50MOL0     H 6886   0.347   9.782   5.178  0.3858  2.3069 -1.0270
   50MOL0     H 6887   0.132   9.899   5.122  0.0969 -1.1038 -0.6117
   50MOL0     H 6888   0.089  10.145   5.175  0.3338 -0.9104 -1.1465
   50MOL0     H 6889  -0.045  10.052   5.085 -1.1331  1.7887 -1.2484
   50MOL0     H 6890  -0.192  10.187   5.216  1.9345 -1.6523  2.8429
   50MOL0     H 6891  -0.117  10.281   5.082 -1.0508  0.6296  0.1065
   50MOL0     H 6892  -0.126  10.422   5.272  0.0774  0.7501  0.1209
   50MOL0     H 6893  -0.074  10.297   5.393  1.5489  2.9661  1.1179
   50MOL0     H 6894   0.147  10.323   5.278 -0.6073  0.8266  2.0630
   50MOL0     H 6895   0.100  10.476   5.358 -0.0717  1.0083  0.2300
   50MOL0     H 6896   0.097  10.592   4.945 -0.7612 -1.7499 -2.0043
   50MOL0     H 6897   0.100  10.032   5.520 -0.2606  2.6637 -2.0217
   50MOL0     H 6898   0.223   9.909   5.695  0.2327  1.5432  0.5853
   50MOL0     H 6899   0.363   9.814   5.668 -1.1159 -0.9666 -3.3113
   50MOL0     H 6900   0.363   9.999   5.672 -3.7718  1.0211  2.2695
   51MOL0     O 6901   7.713  10.487   2.833 -0.3491 -0.6336 -0.7590
   51MOL0     C 6902   7.703  10.410   2.742 -1.2355 -0.3303  0.1633
   51MOL0     O 6903   7.612  10.411   2.640 -0.4191  0.0568  1.0246
   51MOL0     C 6904   7.501  10.482   2.655  1.2111  0.7938 -0.3676
   51MOL0     C 6905   7.477  10.589   2.574 -0.5971 -0.7688 -0.1970
   51MOL0     C 6906   7.359  10.666   2.602 -0.3859  0.3936  0.5600
   51MOL0     C 6907   7.273  10.635   2.701 -0.0488 -0.8336 -1.1695
   51MOL0     O 6908   7.166  10.711   2.719 -0.2858  0.4048 -0.7273
   51MOL0     C 6909   7.074  10.711   2.835  0.5744 -0.3983 -0.2743
   51MOL0     C 6910   6.966  10.823   2.814 -0.4963 -0.3836 -0.3324
   51MOL0     C 6911   7.011  10.958   2.756 -0.5202  0.5063  0.2678
   51MOL0     C 6912   6.900  11.058   2.716 -0.1175  0.2665 -0.1450
   51MOL0     C 6913   6.851  11.058   2.572  0.6109  0.6575  0.0313
   51MOL0     C 6914   6.936  11.131   2.474  0.5433 -1.1279  0.4547
   51MOL0     C 6915   6.876  11.163   2.345 -0.1031 -0.1832 -0.7690
   51MOL0     C 6916   6.951  11.271   2.269  0.5647  0.2723  0.6789
   51MOL0     N 6917   7.063  11.207   2.198 -0.2919  0.1183  0.4236
   51MOL0     C 6918   7.059  11.183   2.062  0.7876  0.6675 -0.1427
   51MOL0     C 6919   7.185  11.153   2.023  0.2022 -0.1783 -0.1180
   51MOL0     C 6920   7.224  11.137   1.872 -0.6553  0.2950  0.2284
   51MOL0     C 6921   7.349  11.221   1.838  0.2699  0.1582  0.8453
   51MOL0     C 6922   7.320  11.358   1.777  0.2429 -0.6936  0.4182
   51MOL0     C 6923   7.460  11.439   1.765  0.4811  0.4823 -0.8520
   51MOL0     O 6924   7.434  11.551   1.698  0.0064 -0.1417  0.3609
   51MOL0     C 6925   7.534  11.605   1.611 -0.2102  0.4120 -0.0681
   51MOL0     C 6926   7.491  11.704   1.527  0.4837  0.9170  0.2353
   51MOL0     C 6927   7.573  11.761   1.435 -0.0509  0.1902 -1.5345
   51MOL0     C 6928   7.500  11.856   1.337 -0.4479 -0.2996 -0.3051
   51MOL0     C 6929   7.710  11.737   1.431  0.1651  0.2642 -0.2304
   51MOL0     C 6930   7.802  11.785   1.330  0.0765  0.9547 -0.3956
   51MOL0     O 6931   7.758  11.815   1.202  0.3666 -0.3664  0.4113
   51MOL0     C 6932   7.850  11.810   1.103  0.0568 -0.1017 -0.8774
   51MOL0     C 6933   7.945  11.914   1.096  0.9783 -0.4581  0.0502
   51MOL0     C 6934   8.027  11.924   0.980  0.3088 -0.1823  0.9330
   51MOL0     C 6935   8.005  11.837   0.874  0.7234  0.2802 -0.3582
   51MOL0     O 6936   8.082  11.853   0.758  0.7314  0.0257 -0.1753
   51MOL0     C 6937   8.023  11.941   0.664  0.6619 -0.7353 -0.5993
   51MOL0     C 6938   8.024  11.889   0.518  0.5026 -0.0133 -0.2248
   51MOL0     C 6939   8.145  11.796   0.490  0.1082  0.5852  0.3191
   51MOL0     C 6940   8.116  11.658   0.427  0.4032  0.3033  0.4399
   51MOL0     C 6941   8.041  11.573   0.526 -0.9051 -0.1585  0.1433
   51MOL0     C 6942   8.048  11.427   0.493 -0.2222  0.2899 -0.4145
   51MOL0     C 6943   7.961  11.337   0.577 -0.4930 -0.3449  0.5569
   51MOL0     C 6944   7.963  11.199   0.498 -0.0103  0.3842 -0.2758
   51MOL0    Cl 6945   8.129  11.112   0.518  0.3558 -0.0229 -0.8464
   51MOL0     C 6946   7.929  11.724   0.895 -0.1831  0.1796  0.7448
   51MOL0     C 6947   7.837  11.718   1.004 -0.2223  0.1259  1.0062
   51MOL0     O 6948   7.923  11.782   1.365 -0.3697 -0.4956  0.4460
   51MOL0     C 6949   7.756  11.645   1.524 -0.0482  0.0076 -0.5462
   51MOL0     C 6950   7.674  11.580   1.615 -0.0177 -0.2379 -0.0758
   51MOL0     N 6951   7.265  11.157   2.142  0.1458  0.3434  0.5106
   51MOL0     N 6952   7.191  11.182   2.248  0.0080 -0.6021  0.0246
   51MOL0     C 6953   7.298  10.524   2.781  1.5231 -0.0824  0.2698
   51MOL0     C 6954   7.412  10.443   2.751 -0.2025  0.2015  0.0546
   51MOL0     C 6955   7.815  10.314   2.738 -0.3354 -0.4420  0.1355
   51MOL0     C 6956   7.896  10.288   2.856 -0.6923  0.0498  0.5539
   51MOL0     C 6957   8.006  10.203   2.852 -0.2255  0.2101  0.8576
   51MOL0     C 6958   8.041  10.128   2.735 -0.0591  0.3316 -0.2434
   51MOL0     O 6959   8.148  10.039   2.726 -0.2815  0.6210 -0.5523
   51MOL0     C 6960   8.275  10.109   2.708  0.5068  0.2105 -0.3083
   51MOL0     C 6961   8.318  10.096   2.563  0.0637 -0.8119 -0.2025
   51MOL0     C 6962   8.336   9.941   2.527 -0.5880 -0.6567  0.9762
   51MOL0     C 6963   8.454   9.885   2.607  0.7967  0.2489  0.4188
   51MOL0     C 6964   8.487   9.752   2.564 -0.0857 -0.0850  0.9584
   51MOL0     C 6965   8.521   9.649   2.516  0.4051 -0.1842  0.6612
   51MOL0     C 6966   7.963  10.157   2.627  0.3014  0.1276 -0.3055
   51MOL0     C 6967   7.854  10.245   2.625 -0.7239  0.1671  0.8627
   51MOL0     C 6968   7.778  10.251   2.493 -0.1327 -0.9811  0.9344
   51MOL0     H 6969   7.530  10.607   2.481 -1.4012  0.7685 -0.3832
   51MOL0     H 6970   7.333  10.751   2.539  1.5525  1.5715  1.2731
   51MOL0     H 6971   7.120  10.729   2.933 -0.6991  2.0962 -0.0717
   51MOL0     H 6972   7.008  10.624   2.838 -2.3723  1.7090  1.6207
   51MOL0     H 6973   6.902  10.785   2.733  1.2033  1.1802 -2.5315
   51MOL0     H 6974   6.900  10.824   2.901 -3.8248 -4.9564 -2.3596
   51MOL0     H 6975   7.075  10.996   2.836 -1.5773 -1.5198  2.1790
   51MOL0     H 6976   7.076  10.943   2.669 -1.1996  0.5034 -0.2476
   51MOL0     H 6977   6.811  11.033   2.774  0.0081  1.7132  0.7419
   51MOL0     H 6978   6.933  11.159   2.742  0.0494  0.5915 -1.5576
   51MOL0     H 6979   6.748  11.094   2.580 -0.0831 -1.5572  2.0201
   51MOL0     H 6980   6.842  10.955   2.538 -1.0617  0.6965  0.2823
   51MOL0     H 6981   6.963  11.225   2.524 -1.0483  0.7707 -2.0087
   51MOL0     H 6982   7.029  11.079   2.450  0.7534 -0.4031 -0.3503
   51MOL0     H 6983   6.779  11.210   2.362  1.1431  2.5949 -0.7002
   51MOL0     H 6984   6.870  11.077   2.278  1.5293  1.9899 -4.0232
   51MOL0     H 6985   6.887  11.322   2.197 -0.7253 -1.4428  0.5634
   51MOL0     H 6986   6.990  11.336   2.348  0.4495 -1.8244  2.5580
   51MOL0     H 6987   6.984  11.206   1.987  0.3586 -0.8212 -0.2049
   51MOL0     H 6988   7.137  11.173   1.817  1.3354 -0.0208 -3.3943
   51MOL0     H 6989   7.244  11.032   1.849 -0.5503  0.7250 -1.7911
   51MOL0     H 6990   7.408  11.219   1.929  1.8807 -2.8842 -0.1259
   51MOL0     H 6991   7.405  11.173   1.757 -1.1501  0.1235 -0.1725
   51MOL0     H 6992   7.275  11.362   1.677  1.8010  0.4221 -0.2728
   51MOL0     H 6993   7.254  11.414   1.844 -0.4017 -1.6375  0.5979
   51MOL0     H 6994   7.489  11.459   1.869  2.1926 -3.5453 -0.3610
   51MOL0     H 6995   7.551  11.387   1.733  2.9521  3.1692  1.2929
   51MOL0     H 6996   7.384  11.720   1.527  0.4039  0.4726  1.2245
   51MOL0     H 6997   7.399  11.873   1.374 -0.0600 -2.7543  2.2693
   51MOL0     H 6998   7.496  11.817   1.234  1.4434  2.2562 -1.4473
   51MOL0     H 6999   7.549  11.953   1.329 -0.4664 -0.3609 -1.3100
   51MOL0     H 7000   7.944  11.995   1.169  3.7861  0.7772 -1.1035
   51MOL0     H 7001   8.092  12.010   0.969  1.8537 -1.5079 -1.0070
   51MOL0     H 7002   7.929  11.974   0.710  1.5326 -0.6976  1.2168
   51MOL0     H 7003   8.069  12.040   0.667 -0.2396 -0.3130  2.8979
   51MOL0     H 7004   7.930  11.841   0.492 -0.8666  1.5356  1.5198
   51MOL0     H 7005   8.034  11.979   0.456  1.1609 -1.1500 -1.8365
   51MOL0     H 7006   8.203  11.772   0.580 -2.1843 -0.2970  1.6359
   51MOL0     H 7007   8.206  11.845   0.413 -0.9489 -0.3324 -1.1322
   51MOL0     H 7008   8.211  11.610   0.401 -0.1438  0.4165 -2.0794
   51MOL0     H 7009   8.059  11.657   0.333  2.5851 -1.1269 -0.9711
   51MOL0     H 7010   8.085  11.587   0.625  1.6997  0.7807 -1.0473
   51MOL0     H 7011   7.939  11.612   0.524 -0.9668  0.5608  4.8963
   51MOL0     H 7012   8.153  11.394   0.492  0.6580  2.7412  1.1548
   51MOL0     H 7013   8.023  11.410   0.388 -0.6684 -0.5423 -0.1869
   51MOL0     H 7014   7.860  11.379   0.570 -0.3838 -0.3457 -1.6606
   51MOL0     H 7015   8.002  11.315   0.676 -0.8580 -0.6855  0.6363
   51MOL0     H 7016   7.937  11.205   0.392 -0.6838 -0.7851 -0.2030
   51MOL0     H 7017   7.895  11.131   0.550  0.8007 -0.4826 -0.3203
   51MOL0     H 7018   7.931  11.651   0.815  1.3320  1.4140 -0.4193
   51MOL0     H 7019   7.770  11.637   1.029 -1.2638 -0.9842 -4.1564
   51MOL0     H 7020   7.863  11.628   1.531 -0.0146 -0.5451 -1.9471
   51MOL0     H 7021   7.701  11.529   1.707  0.0582  2.2864  1.3661
   51MOL0     H 7022   7.229  10.497   2.860  0.8761  2.4262  0.6639
   51MOL0     H 7023   7.440  10.360   2.815  0.7261  0.4339 -0.0402
   51MOL0     H 7024   7.872  10.325   2.955  2.1887  2.7994  0.3604
   51MOL0     H 7025   8.072  10.193   2.938 -0.8534  1.3229  1.4823
   51MOL0     H 7026   8.270  10.212   2.744 -0.9769  1.1700 -2.9832
   51MOL0     H 7027   8.345  10.067   2.781 -2.9005 -2.0962  1.9097
   51MOL0     H 7028   8.415  10.145   2.557 -0.5897  0.3497 -2.3474
   51MOL0     H 7029   8.259  10.158   2.494  2.8719  1.2831 -0.8859
   51MOL0     H 7030   8.238   9.899   2.550 -2.1318  1.0476 -1.9097
   51MOL0     H 7031   8.351   9.951   2.419  0.3657  1.6316  1.2599
   51MOL0     H 7032   8.422   9.878   2.712 -0.4084 -1.2205 -0.0179
   51MOL0     H 7033   8.543   9.948   2.603  1.0376 -0.0211  1.2057
   51MOL0     H 7034   8.562   9.560   2.472 -0.5218  0.2167 -1.0953
   51MOL0     H 7035   7.981  10.099   2.536 -3.5643  0.2932 -1.3437
   51MOL0     H 7036   7.826  10.209   2.404 -0.5566 -1.7920  1.0830
   51MOL0     H 7037   7.685  10.193   2.498  0.0207 -1.3434 -0.1218
   51MOL0     H 7038   7.751  10.354   2.467 -2.7889 -1.7245  0.4428
   52MOL0     O 7039   7.155   4.216   4.917 -0.6237  0.0924 -0.3322
   52MOL0     C 7040   7.269   4.254   4.878  0.2794  0.2876  0.2454
   52MOL0     O 7041   7.363   4.308   4.957 -0.6647  0.1178 -0.4428
   52MOL0     C 7042   7.343   4.325   5.093 -0.7252 -0.0392 -0.1863
   52MOL0     C 7043   7.292   4.446   5.136 -0.3265 -1.1477 -0.6630
   52MOL0     C 7044   7.260   4.472   5.274  0.2899 -0.3735  0.7608
   52MOL0     C 7045   7.290   4.376   5.373  0.2501 -0.2342  1.1785
   52MOL0     O 7046   7.273   4.419   5.497 -0.4895 -0.6085 -1.2405
   52MOL0     C 7047   7.372   4.384   5.589  0.3789 -0.4652 -0.0541
   52MOL0     C 7048   7.505   4.463   5.571 -0.1941 -1.0135 -0.4978
   52MOL0     C 7049   7.494   4.615   5.588  0.6981  0.7691  0.9080
   52MOL0     C 7050   7.615   4.684   5.545  0.9527 -0.2379  0.9845
   52MOL0     C 7051   7.610   4.839   5.551 -0.5254 -0.3107  0.5613
   52MOL0     C 7052   7.746   4.898   5.474  0.5622  0.1772 -0.0854
   52MOL0     C 7053   7.867   4.890   5.576  0.3913 -0.1261 -0.2818
   52MOL0     C 7054   7.977   4.987   5.524  0.0844  0.0057  0.0711
   52MOL0     N 7055   8.082   4.993   5.625  0.0695  0.4037 -0.8614
   52MOL0     C 7056   8.208   5.008   5.582  1.1026 -0.6282  0.5411
   52MOL0     C 7057   8.276   5.071   5.679 -0.0123 -0.9172  1.2277
   52MOL0     C 7058   8.424   5.120   5.659 -0.2432  0.9996 -0.6442
   52MOL0     C 7059   8.524   5.014   5.592  0.8351  0.0732  0.0732
   52MOL0     C 7060   8.659   5.075   5.553  0.5273 -0.5050 -0.6360
   52MOL0     C 7061   8.741   4.965   5.477  1.0305  0.0605  0.6485
   52MOL0     O 7062   8.788   4.856   5.561  0.0597  1.0174 -0.3078
   52MOL0     C 7063   8.755   4.721   5.550  1.3195 -0.5862 -0.6535
   52MOL0     C 7064   8.842   4.637   5.615 -0.7354  0.0504  0.3251
   52MOL0     C 7065   8.818   4.496   5.620 -0.4790  0.8373 -0.0481
   52MOL0     C 7066   8.924   4.412   5.678  0.5595  1.4216 -0.2836
   52MOL0     C 7067   8.709   4.437   5.549  0.6512  0.5486  0.0357
   52MOL0     C 7068   8.680   4.286   5.540  0.3392 -0.3506 -0.0533
   52MOL0     O 7069   8.593   4.244   5.444  0.3165  0.2899  0.4130
   52MOL0     C 7070   8.574   4.111   5.422 -0.3588  1.0178 -0.7048
   52MOL0     C 7071   8.583   4.058   5.292  0.2183 -0.4899  0.2465
   52MOL0     C 7072   8.546   3.923   5.259 -0.7004 -0.5199  0.8918
   52MOL0     C 7073   8.515   3.830   5.360 -0.4163 -0.1784 -0.7204
   52MOL0     O 7074   8.473   3.706   5.337  0.0789  0.2692 -0.7068
   52MOL0     C 7075   8.383   3.690   5.217  0.2025  0.3204 -0.0427
   52MOL0     C 7076   8.336   3.550   5.186  0.6649 -0.3731  0.4865
   52MOL0     C 7077   8.243   3.563   5.058 -0.3800  0.6124  1.1602
   52MOL0     C 7078   8.215   3.427   4.995  1.1028 -0.0255  0.7406
   52MOL0     C 7079   8.125   3.338   5.082 -0.3166  0.2348  0.8433
   52MOL0     C 7080   8.113   3.205   5.008 -0.2590  0.6034 -0.1502
   52MOL0     C 7081   8.087   3.194   4.856  0.4474 -0.2126  0.0911
   52MOL0     C 7082   8.082   3.047   4.800  0.5884  0.7772  0.6130
   52MOL0    Cl 7083   8.244   2.973   4.794 -0.2736 -0.3467 -0.1657
   52MOL0     C 7084   8.529   3.875   5.496  0.0855  0.2876  0.2642
   52MOL0     C 7085   8.546   4.016   5.528 -0.3643  0.6545 -1.1230
   52MOL0     O 7086   8.726   4.214   5.624 -0.5093 -0.3062  0.2294
   52MOL0     C 7087   8.619   4.529   5.481  0.1600  0.2740  0.2329
   52MOL0     C 7088   8.635   4.667   5.489 -0.6414 -0.2099 -0.4522
   52MOL0     N 7089   8.195   5.104   5.785 -0.2466  0.4125  0.1627
   52MOL0     N 7090   8.073   5.060   5.750  0.9190  0.6920  0.0602
   52MOL0     C 7091   7.346   4.248   5.325 -0.1019 -0.0304  0.3247
   52MOL0     C 7092   7.385   4.232   5.192  0.3007  0.5862  0.8871
   52MOL0     C 7093   7.299   4.239   4.731  0.3756 -0.1189  0.5073
   52MOL0     C 7094   7.422   4.189   4.684  0.4010 -0.0450  0.3859
   52MOL0     C 7095   7.455   4.193   4.542  0.3693  0.4060 -0.4122
   52MOL0     C 7096   7.371   4.256   4.449  0.7153 -0.5527  0.4643
   52MOL0     O 7097   7.415   4.271   4.316  0.6777 -0.1796 -0.4021
   52MOL0     C 7098   7.482   4.391   4.301  0.2577  0.5489 -0.3095
   52MOL0     C 7099   7.385   4.511   4.300 -0.1151  0.0327 -0.0785
   52MOL0     C 7100   7.467   4.631   4.259  0.7855  0.6056  0.9395
   52MOL0     C 7101   7.405   4.723   4.149 -0.6352 -0.1943  0.1693
   52MOL0     C 7102   7.389   4.651   4.025  0.5591 -0.1775  0.4562
   52MOL0     C 7103   7.387   4.611   3.907 -0.8999  0.0029 -0.1062
   52MOL0     C 7104   7.254   4.298   4.492  0.3840  0.7781  0.3805
   52MOL0     C 7105   7.216   4.288   4.626 -0.5823 -1.4591 -0.1501
   52MOL0     C 7106   7.086   4.366   4.656 -0.3944  0.2615  0.3498
   52MOL0     H 7107   7.269   4.526   5.066 -1.6270 -1.4581 -0.6231
   52MOL0     H 7108   7.219   4.570   5.292  1.0007  0.2645 -0.8728
   52MOL0     H 7109   7.395   4.277   5.582 -3.0992 -1.4835  2.0026
   52MOL0     H 7110   7.322   4.388   5.686 -1.9639 -0.0489 -1.2028
   52MOL0     H 7111   7.588   4.421   5.629  0.8993 -3.2854 -3.4884
   52MOL0     H 7112   7.537   4.445   5.468 -0.3203 -1.4374 -0.4650
   52MOL0     H 7113   7.404   4.651   5.538 -0.1854 -0.6740  1.3785
   52MOL0     H 7114   7.470   4.648   5.690  0.4495  1.0874  0.7474
   52MOL0     H 7115   7.694   4.656   5.615  2.4162  2.7780  0.7030
   52MOL0     H 7116   7.640   4.644   5.446 -2.5686  1.0689 -0.5876
   52MOL0     H 7117   7.606   4.869   5.656  2.4596  0.1898  0.6376
   52MOL0     H 7118   7.530   4.891   5.497 -0.3646 -2.2482 -1.7237
   52MOL0     H 7119   7.758   4.850   5.377 -2.9199 -1.3637  0.0816
   52MOL0     H 7120   7.723   4.998   5.438 -0.7758 -0.9559 -2.6106
   52MOL0     H 7121   7.907   4.788   5.578  1.8117  0.3784 -1.5172
   52MOL0     H 7122   7.835   4.925   5.674  0.0382  1.1472 -0.8422
   52MOL0     H 7123   8.007   4.947   5.427 -0.3593 -1.3229  0.4569
   52MOL0     H 7124   7.929   5.085   5.517  1.3326  0.5896 -0.6313
   52MOL0     H 7125   8.260   4.966   5.497  1.4270 -0.0011  0.4253
   52MOL0     H 7126   8.464   5.143   5.758 -0.5980 -2.3133  0.3855
   52MOL0     H 7127   8.435   5.207   5.594  0.1539  1.5422  0.1279
   52MOL0     H 7128   8.542   4.926   5.654 -3.0817  0.9751  2.9130
   52MOL0     H 7129   8.473   4.972   5.504 -0.6108  3.7392 -1.0661
   52MOL0     H 7130   8.642   5.168   5.499 -1.5013 -0.1805  0.4517
   52MOL0     H 7131   8.711   5.081   5.650 -1.2681 -0.9265  0.4036
   52MOL0     H 7132   8.673   4.921   5.403  1.8819  0.8226 -0.6230
   52MOL0     H 7133   8.825   5.006   5.420 -0.2462 -2.4058 -3.4543
   52MOL0     H 7134   8.928   4.683   5.661 -1.9250  0.7197  1.9542
   52MOL0     H 7135   8.893   4.371   5.775  2.2742 -3.4245 -1.5012
   52MOL0     H 7136   9.001   4.477   5.720  0.1208  1.1304  1.0330
   52MOL0     H 7137   8.962   4.343   5.603 -0.5040 -0.9131  1.2075
   52MOL0     H 7138   8.607   4.132   5.217 -0.9776  0.5338  0.8484
   52MOL0     H 7139   8.543   3.902   5.153  0.7449  0.5660  0.5996
   52MOL0     H 7140   8.299   3.760   5.224  1.0227  1.6346 -2.3556
   52MOL0     H 7141   8.442   3.724   5.131  1.2283  1.7345  1.1617
   52MOL0     H 7142   8.422   3.488   5.160  0.6468  0.0541 -0.6480
   52MOL0     H 7143   8.300   3.507   5.280  1.7155  0.4387  1.2836
   52MOL0     H 7144   8.285   3.631   4.984 -0.0051 -0.4575  0.3547
   52MOL0     H 7145   8.144   3.607   5.075 -0.5796  0.8835 -0.5144
   52MOL0     H 7146   8.307   3.378   4.961  0.1574 -0.6038 -1.1579
   52MOL0     H 7147   8.157   3.450   4.905  0.3532  1.0463  1.4781
   52MOL0     H 7148   8.168   3.331   5.182  1.0718  0.8977  0.3158
   52MOL0     H 7149   8.025   3.381   5.091 -0.9689 -0.7009 -1.3149
   52MOL0     H 7150   8.044   3.137   5.059 -0.6349  0.7606 -0.4391
   52MOL0     H 7151   8.207   3.150   5.015 -1.2588 -0.9829  3.1380
   52MOL0     H 7152   8.163   3.254   4.806 -1.6580  0.7136 -2.1744
   52MOL0     H 7153   7.989   3.240   4.840 -0.6632 -1.6613  2.1627
   52MOL0     H 7154   8.025   3.041   4.707 -0.7556  1.4661  1.3702
   52MOL0     H 7155   8.015   2.990   4.866  2.0557 -2.3055 -0.3441
   52MOL0     H 7156   8.512   3.799   5.572  2.2173 -0.2161  0.3149
   52MOL0     H 7157   8.546   4.056   5.629  1.1812 -0.6517 -0.5716
   52MOL0     H 7158   8.533   4.494   5.424 -0.4196  0.0945  1.1793
   52MOL0     H 7159   8.559   4.733   5.448 -1.8834 -1.3636 -0.0984
   52MOL0     H 7160   7.371   4.170   5.397 -0.4177  2.0067  2.7903
   52MOL0     H 7161   7.428   4.134   5.174  0.1001  0.1849  2.4289
   52MOL0     H 7162   7.479   4.142   4.764 -1.2790  1.8580  2.8721
   52MOL0     H 7163   7.549   4.154   4.504  0.4387 -1.1724  1.2447
   52MOL0     H 7164   7.561   4.408   4.375 -1.5140 -3.1153  2.7160
   52MOL0     H 7165   7.539   4.385   4.208  0.9437  0.9821  0.0717
   52MOL0     H 7166   7.322   4.535   4.386  0.1305  0.4060 -0.0008
   52MOL0     H 7167   7.313   4.489   4.220 -1.3716  0.2692  0.9586
   52MOL0     H 7168   7.464   4.684   4.355 -4.0552  2.6860 -0.0759
   52MOL0     H 7169   7.573   4.606   4.248  1.4507  3.2870  0.5516
   52MOL0     H 7170   7.467   4.812   4.138 -1.9773  0.5304 -2.0151
   52MOL0     H 7171   7.304   4.755   4.178  0.6492  0.4105  4.7213
   52MOL0     H 7172   7.383   4.568   3.809  1.7720  1.6835 -1.0844
   52MOL0     H 7173   7.201   4.342   4.408  0.1742 -0.2192 -0.0252
   52MOL0     H 7174   7.001   4.298   4.644 -2.6259  3.3239 -3.0383
   52MOL0     H 7175   7.079   4.393   4.762 -1.2854 -2.9220  1.2076
   52MOL0     H 7176   7.076   4.454   4.593  0.5582 -0.6635 -1.1689
   53MOL0     O 7177   3.950   1.815   9.944 -0.1048  0.3219 -0.3083
   53MOL0     C 7178   3.851   1.820   9.873 -0.3464  1.0853 -0.9377
   53MOL0     O 7179   3.735   1.744   9.889 -0.0668  0.9716 -0.6935
   53MOL0     C 7180   3.702   1.687  10.012 -0.7442 -0.3793  0.6332
   53MOL0     C 7181   3.569   1.659  10.022 -0.0467 -0.3701  0.1586
   53MOL0     C 7182   3.519   1.610  10.146  0.4270 -0.3066 -0.0077
   53MOL0     C 7183   3.595   1.593  10.263 -0.7629 -0.3394  0.0923
   53MOL0     O 7184   3.540   1.555  10.382  0.0521  0.4394 -0.1202
   53MOL0     C 7185   3.560   1.646  10.497  0.2445  0.3213 -0.6844
   53MOL0     C 7186   3.437   1.644  10.600 -0.1142 -0.2391 -0.7682
   53MOL0     C 7187   3.316   1.724  10.562  0.5900  0.1787 -0.6779
   53MOL0     C 7188   3.233   1.657  10.457 -0.2802  0.2374  0.1100
   53MOL0     C 7189   3.089   1.707  10.446  0.2474 -0.8771  0.9053
   53MOL0     C 7190   3.069   1.855  10.471 -0.3993 -0.9573 -0.0050
   53MOL0     C 7191   2.936   1.903  10.456  0.8589 -0.6366 -0.5234
   53MOL0     C 7192   2.936   2.055  10.459 -0.1885  0.8895  0.5446
   53MOL0     N 7193   2.806   2.101  10.493 -0.4619 -1.0114  0.1510
   53MOL0     C 7194   2.756   2.150  10.612  0.2194 -0.9933 -0.5617
   53MOL0     C 7195   2.646   2.221  10.578 -0.0911  0.4872 -1.0760
   53MOL0     C 7196   2.545   2.256  10.686 -0.7020  0.5955  0.8059
   53MOL0     C 7197   2.579   2.382  10.760  0.3164 -0.1838  0.5555
   53MOL0     C 7198   2.469   2.492  10.738  0.0176 -0.6402  0.3891
   53MOL0     C 7199   2.494   2.569  10.599 -0.1403 -0.0553 -1.5040
   53MOL0     O 7200   2.395   2.679  10.588  0.3847  0.1370  0.2401
   53MOL0     C 7201   2.429   2.788  10.513 -0.2084  0.0744 -0.6772
   53MOL0     C 7202   2.352   2.898  10.545 -1.1334 -0.0042 -0.0250
   53MOL0     C 7203   2.369   3.020  10.483 -1.0233 -1.1185  0.0042
   53MOL0     C 7204   2.285   3.135  10.515  0.6424 -0.0446  0.2156
   53MOL0     C 7205   2.469   3.033  10.372  0.3046  0.5637 -0.4916
   53MOL0     C 7206   2.498   3.158  10.312 -0.4844  0.1514  0.4459
   53MOL0     O 7207   2.509   3.259  10.396 -0.5651  0.3239 -0.0470
   53MOL0     C 7208   2.521   3.382  10.332 -0.6048  0.1518  0.3909
   53MOL0     C 7209   2.424   3.483  10.346  0.3140 -0.6015 -0.0308
   53MOL0     C 7210   2.448   3.617  10.301 -0.3049 -0.3344 -0.6856
   53MOL0     C 7211   2.581   3.655  10.264 -0.2774 -0.2832  0.1761
   53MOL0     O 7212   2.599   3.774  10.209  0.4485 -0.2470 -0.0654
   53MOL0     C 7213   2.638   3.881  10.301  0.3205  0.1750  0.1888
   53MOL0     C 7214   2.546   4.000  10.256  0.5236 -0.1411  0.1900
   53MOL0     C 7215   2.575   4.133  10.332  0.0680 -0.4126  0.2866
   53MOL0     C 7216   2.495   4.252  10.282  0.3708 -0.3209 -0.5630
   53MOL0     C 7217   2.506   4.377  10.380 -0.4923 -0.0752  0.5341
   53MOL0     C 7218   2.646   4.406  10.425  0.1054 -0.0662 -0.8122
   53MOL0     C 7219   2.626   4.533  10.508 -0.2172 -0.8341  0.0841
   53MOL0     C 7220   2.759   4.592  10.559 -0.7557 -0.4485  0.1679
   53MOL0    Cl 7221   2.724   4.727  10.653 -0.2229  0.0348 -0.3713
   53MOL0     C 7222   2.675   3.549  10.248 -0.1071 -0.1236  0.9450
   53MOL0     C 7223   2.644   3.415  10.273  1.1040  0.0262  0.7048
   53MOL0     O 7224   2.510   3.161  10.183  0.4651 -0.2482 -0.7456
   53MOL0     C 7225   2.548   2.921  10.339  0.5542  0.1861  0.4384
   53MOL0     C 7226   2.529   2.800  10.415 -0.7893  0.3110 -0.2816
   53MOL0     N 7227   2.622   2.209  10.450 -0.1802  0.6139  0.2231
   53MOL0     N 7228   2.726   2.149  10.399 -0.1891 -0.1960 -0.3631
   53MOL0     C 7229   3.730   1.638  10.250  0.0270  0.7525 -0.1557
   53MOL0     C 7230   3.779   1.674  10.129 -0.7008  0.2407 -0.0764
   53MOL0     C 7231   3.862   1.904   9.756 -0.0585 -0.9029 -0.1253
   53MOL0     C 7232   3.982   1.901   9.686 -0.0957 -0.3404 -1.0792
   53MOL0     C 7233   4.014   1.986   9.580 -0.7617  0.0940  0.1684
   53MOL0     C 7234   3.914   2.078   9.544 -0.3790 -0.7401 -0.9589
   53MOL0     O 7235   3.942   2.140   9.431  0.9270  0.0597 -0.2154
   53MOL0     C 7236   3.859   2.243   9.378 -0.3822  0.0558 -0.0787
   53MOL0     C 7237   3.744   2.206   9.292  0.3564  0.1064  0.1749
   53MOL0     C 7238   3.773   2.080   9.212 -0.0111  0.7316 -0.1614
   53MOL0     C 7239   3.637   2.014   9.169  0.3409  0.2357  0.1417
   53MOL0     C 7240   3.561   1.957   9.278  0.0024  0.5041 -0.3317
   53MOL0     C 7241   3.491   1.909   9.369 -0.6491  0.5209 -0.5775
   53MOL0     C 7242   3.792   2.085   9.613  0.7759  1.1387  0.2988
   53MOL0     C 7243   3.778   2.000   9.720  1.4841  0.1646 -0.1352
   53MOL0     C 7244   3.645   2.004   9.781 -0.1873 -0.0318 -0.2398
   53MOL0     H 7245   3.514   1.683   9.932  0.7507  2.7501  0.4143
   53MOL0     H 7246   3.415   1.579  10.151  0.5698 -1.4209 -2.3139
   53MOL0     H 7247   3.559   1.753  10.473 -3.1277  0.7967  0.8804
   53MOL0     H 7248   3.652   1.619  10.548 -0.2410  0.7973  0.4955
   53MOL0     H 7249   3.414   1.539  10.620  3.7760 -1.1898 -0.3495
   53MOL0     H 7250   3.469   1.685  10.697 -1.8538  1.6000 -0.9135
   53MOL0     H 7251   3.254   1.751  10.649 -0.2586  1.8565 -1.7669
   53MOL0     H 7252   3.349   1.823  10.530  1.9771  0.2682  0.8990
   53MOL0     H 7253   3.293   1.668  10.367  0.5804 -1.5593  0.4307
   53MOL0     H 7254   3.228   1.549  10.472  1.8903  0.1654  0.6432
   53MOL0     H 7255   3.029   1.641  10.509 -2.5513  1.0911  0.4990
   53MOL0     H 7256   3.062   1.685  10.342 -2.9271 -0.7506  1.5980
   53MOL0     H 7257   3.098   1.884  10.572 -0.1533  3.1359 -1.0914
   53MOL0     H 7258   3.131   1.909  10.400  3.1249 -1.6075  2.3119
   53MOL0     H 7259   2.894   1.867  10.550 -0.1049 -0.5652 -0.9166
   53MOL0     H 7260   2.877   1.866  10.372 -0.4910  2.4895 -1.0994
   53MOL0     H 7261   3.008   2.099  10.528 -1.7361  4.0142  0.3173
   53MOL0     H 7262   2.972   2.099  10.366  1.8409 -1.8850 -0.1154
   53MOL0     H 7263   2.806   2.140  10.708 -1.8382 -0.3958  0.6396
   53MOL0     H 7264   2.540   2.181  10.765 -1.9752 -0.4813 -0.2472
   53MOL0     H 7265   2.449   2.263  10.636  0.2227  0.7370 -1.0398
   53MOL0     H 7266   2.575   2.360  10.867  0.8385  1.1731  0.8774
   53MOL0     H 7267   2.680   2.408  10.728 -0.9157 -1.4261 -5.5330
   53MOL0     H 7268   2.369   2.448  10.729  0.9525 -2.4745 -3.5168
   53MOL0     H 7269   2.477   2.564  10.819  2.0279  1.4007 -1.4534
   53MOL0     H 7270   2.592   2.616  10.605 -1.7667  3.5019 -0.0999
   53MOL0     H 7271   2.473   2.498  10.518 -2.1823 -2.1938  0.7474
   53MOL0     H 7272   2.277   2.871  10.619  1.0638  1.8804  3.1536
   53MOL0     H 7273   2.210   3.106  10.590  0.1465 -4.1153 -1.6023
   53MOL0     H 7274   2.224   3.161  10.428 -0.8178  1.3389  1.5728
   53MOL0     H 7275   2.340   3.215  10.566  0.6475 -1.4104  2.4762
   53MOL0     H 7276   2.330   3.448  10.386 -0.0878  1.1446  0.6485
   53MOL0     H 7277   2.369   3.690  10.311 -0.7584 -1.0335  1.4138
   53MOL0     H 7278   2.616   3.841  10.400 -0.4583 -1.0368 -0.4429
   53MOL0     H 7279   2.745   3.904  10.294  0.1543  1.1607  0.7304
   53MOL0     H 7280   2.590   4.022  10.158  1.0219 -2.9143 -0.2717
   53MOL0     H 7281   2.441   3.972  10.259  0.6242 -0.7240 -1.0605
   53MOL0     H 7282   2.678   4.166  10.314 -1.4796  3.4653 -3.2612
   53MOL0     H 7283   2.553   4.116  10.438 -0.7038  1.9319  0.5653
   53MOL0     H 7284   2.388   4.238  10.266  0.5957 -0.9774 -1.5344
   53MOL0     H 7285   2.536   4.279  10.184  0.7101 -0.4266 -0.4538
   53MOL0     H 7286   2.461   4.462  10.329 -1.6008  1.4130  3.7749
   53MOL0     H 7287   2.444   4.354  10.467 -0.2927  0.0139  0.7011
   53MOL0     H 7288   2.705   4.421  10.335  0.8189 -1.4866 -0.6064
   53MOL0     H 7289   2.693   4.329  10.487 -0.8143  1.9240  2.6451
   53MOL0     H 7290   2.564   4.501  10.592  0.3313 -0.0723  0.7816
   53MOL0     H 7291   2.572   4.601  10.442  2.4797 -0.7047 -2.1934
   53MOL0     H 7292   2.820   4.617  10.472 -2.6113  0.2282 -1.0143
   53MOL0     H 7293   2.813   4.521  10.622 -0.7776  0.2733  1.0163
   53MOL0     H 7294   2.766   3.566  10.192 -0.7602 -4.3947 -1.8838
   53MOL0     H 7295   2.714   3.334  10.264  0.8383 -0.4156  2.2839
   53MOL0     H 7296   2.632   2.921  10.269 -0.6355  1.4129 -1.0398
   53MOL0     H 7297   2.581   2.712  10.379 -1.4848 -0.5999  0.8448
   53MOL0     H 7298   3.797   1.652  10.334 -4.0082 -1.1253  3.8114
   53MOL0     H 7299   3.883   1.702  10.122 -0.7766  0.4028 -0.5543
   53MOL0     H 7300   4.057   1.827   9.713 -1.1995 -0.1339  3.3176
   53MOL0     H 7301   4.109   1.983   9.528  0.0540 -1.1065  1.6574
   53MOL0     H 7302   3.813   2.306   9.455 -0.1724 -1.3757  1.2679
   53MOL0     H 7303   3.925   2.308   9.319 -1.8187  2.1284  0.5018
   53MOL0     H 7304   3.711   2.291   9.231 -2.0281 -0.3352  0.7273
   53MOL0     H 7305   3.651   2.195   9.350 -1.7652 -2.6606 -3.3342
   53MOL0     H 7306   3.841   2.109   9.131 -0.7550  2.9982 -0.0410
   53MOL0     H 7307   3.828   2.007   9.274  1.4796  1.1540 -0.9250
   53MOL0     H 7308   3.667   1.942   9.092  1.8645 -0.7451  1.5691
   53MOL0     H 7309   3.563   2.082   9.127 -2.5945 -3.3004 -0.9578
   53MOL0     H 7310   3.424   1.856   9.433 -1.2084  0.5235 -1.1638
   53MOL0     H 7311   3.710   2.144   9.573 -0.9170 -1.7712 -0.8014
   53MOL0     H 7312   3.582   1.922   9.747 -0.6019  1.2791 -2.9966
   53MOL0     H 7313   3.640   2.012   9.890  0.0758 -1.2411 -0.1260
   53MOL0     H 7314   3.588   2.086   9.736  2.3654  1.7602 -0.4384
   54MOL0     O 7315   6.048   2.249  10.541 -0.5164 -0.0105  0.5086
   54MOL0     C 7316   6.169   2.235  10.555 -0.1893  0.1844 -0.0470
   54MOL0     O 7317   6.241   2.127  10.521 -0.3684  0.2501 -0.6575
   54MOL0     C 7318   6.195   2.032  10.436  0.2783 -0.9523 -0.5033
   54MOL0     C 7319   6.093   2.038  10.340  0.2686  0.1044  0.0066
   54MOL0     C 7320   6.055   1.922  10.273  0.5155 -0.4292  0.3315
   54MOL0     C 7321   6.125   1.807  10.291 -0.5496  0.2253  0.4954
   54MOL0     O 7322   6.090   1.707  10.206  0.1977  0.4360 -0.0475
   54MOL0     C 7323   6.053   1.580  10.262 -0.3434 -0.6983 -0.0574
   54MOL0     C 7324   5.955   1.527  10.170 -0.2757  0.2975  1.4918
   54MOL0     C 7325   6.000   1.425  10.058 -0.7561 -0.3739 -0.9414
   54MOL0     C 7326   5.992   1.278  10.093 -0.5151  0.0443  0.6183
   54MOL0     C 7327   5.852   1.217  10.101  0.0142 -0.1368 -0.1731
   54MOL0     C 7328   5.769   1.238   9.974  0.6174  1.0043  0.3169
   54MOL0     C 7329   5.663   1.124   9.947 -0.9932 -0.1209  0.2349
   54MOL0     C 7330   5.719   0.987   9.909  1.1664 -0.0581  0.4659
   54MOL0     N 7331   5.823   0.994   9.808  0.1731 -0.3395  0.2279
   54MOL0     C 7332   5.959   0.993   9.830  0.3598 -0.3122  0.3575
   54MOL0     C 7333   6.010   1.012   9.708 -0.7829 -0.2393  0.0208
   54MOL0     C 7334   6.153   0.986   9.668 -0.3105 -0.4640 -0.4210
   54MOL0     C 7335   6.205   1.115   9.614  0.6346  1.2106 -0.1584
   54MOL0     C 7336   6.342   1.107   9.530  0.1640  0.4218  0.9433
   54MOL0     C 7337   6.457   1.052   9.609  0.2437 -0.2821  0.8376
   54MOL0     O 7338   6.577   1.091   9.543  0.2847  0.2039 -0.1703
   54MOL0     C 7339   6.699   1.054   9.597  0.4821  0.0410 -0.5472
   54MOL0     C 7340   6.710   0.973   9.714  0.2136  0.0192  0.4181
   54MOL0     C 7341   6.831   0.924   9.761  1.1589 -0.3538 -0.5976
   54MOL0     C 7342   6.831   0.839   9.891  0.2720 -0.1432  0.7456
   54MOL0     C 7343   6.955   0.960   9.698  0.7390 -0.7282  0.1172
   54MOL0     C 7344   7.090   0.921   9.751 -1.0656 -0.1444  0.8793
   54MOL0     O 7345   7.191   0.991   9.681 -0.0704 -0.6624  0.2839
   54MOL0     C 7346   7.327   0.985   9.703  0.3704 -0.3391  0.7239
   54MOL0     C 7347   7.413   0.968   9.590 -0.4498  0.1598  0.2524
   54MOL0     C 7348   7.553   0.957   9.608  0.5951 -0.9492  0.1685
   54MOL0     C 7349   7.612   0.986   9.737  0.1352  1.0824 -0.2457
   54MOL0     O 7350   7.746   0.982   9.755 -0.3412 -0.1185  0.2296
   54MOL0     C 7351   7.825   1.101   9.721  0.0128 -0.3088  0.8925
   54MOL0     C 7352   7.976   1.084   9.723 -0.3092  0.4409  0.0822
   54MOL0     C 7353   8.033   0.999   9.609 -0.3010 -0.6490  0.0951
   54MOL0     C 7354   8.148   0.910   9.652 -0.7098  0.2507  1.2243
   54MOL0     C 7355   8.290   0.961   9.627 -0.1866  0.0292 -0.3245
   54MOL0     C 7356   8.397   0.892   9.719 -0.7911 -0.3918  0.5147
   54MOL0     C 7357   8.545   0.934   9.711 -0.2963 -0.8438 -0.4437
   54MOL0     C 7358   8.635   0.875   9.827  0.2551  0.0627 -0.0905
   54MOL0    Cl 7359   8.630   0.696   9.848 -0.0879 -0.1032 -0.0059
   54MOL0     C 7360   7.521   1.001   9.842 -0.0136  0.9505  0.1602
   54MOL0     C 7361   7.384   1.003   9.823  0.2662 -0.5561 -0.2287
   54MOL0     O 7362   7.107   0.839   9.844  0.8176 -0.7087  0.1574
   54MOL0     C 7363   6.939   1.042   9.585 -0.7821 -0.5591  0.4962
   54MOL0     C 7364   6.815   1.087   9.532 -0.6707  0.0044 -0.4749
   54MOL0     N 7365   5.910   1.037   9.615  0.3291  0.4996 -0.7668
   54MOL0     N 7366   5.795   1.014   9.672  0.1319  0.6295 -0.0030
   54MOL0     C 7367   6.226   1.801  10.374 -0.1224  0.9897  0.9454
   54MOL0     C 7368   6.273   1.910  10.447  1.2055 -1.2639  1.2796
   54MOL0     C 7369   6.237   2.348  10.621 -0.0473 -0.7954  0.2401
   54MOL0     C 7370   6.332   2.307  10.720 -0.4384 -0.1246  0.9750
   54MOL0     C 7371   6.411   2.401  10.786  0.2223 -0.4124 -0.1266
   54MOL0     C 7372   6.374   2.534  10.779 -0.7835  0.6631 -0.6335
   54MOL0     O 7373   6.454   2.635  10.827 -0.3108  0.1876  0.0704
   54MOL0     C 7374   6.549   2.620  10.932  0.6288  1.1279 -0.0259
   54MOL0     C 7375   6.563   2.749  11.010  0.1365 -0.5483  0.1728
   54MOL0     C 7376   6.421   2.788  11.085 -0.6544  1.2134  0.7546
   54MOL0     C 7377   6.387   2.934  11.045  0.2055  0.2953 -0.1961
   54MOL0     C 7378   6.480   3.031  11.100  0.1971 -0.4029 -0.2952
   54MOL0     C 7379   6.553   3.116  11.156  0.1379 -0.2189 -0.9415
   54MOL0     C 7380   6.276   2.575  10.699 -0.2596 -0.0641  0.4109
   54MOL0     C 7381   6.199   2.484  10.618 -0.6652  0.5798 -0.3300
   54MOL0     C 7382   6.087   2.549  10.542 -0.9869 -0.2487  0.2230
   54MOL0     H 7383   6.042   2.130  10.314  0.1458 -0.2020 -0.8812
   54MOL0     H 7384   5.981   1.930  10.195 -5.0043 -2.7908  4.6295
   54MOL0     H 7385   6.003   1.591  10.359 -2.5344 -0.4732 -1.1555
   54MOL0     H 7386   6.146   1.525  10.281  1.3244  1.6990 -0.8068
   54MOL0     H 7387   5.868   1.492  10.226 -2.0613  1.2577 -0.5214
   54MOL0     H 7388   5.907   1.612  10.120 -0.4948 -1.2116 -1.0505
   54MOL0     H 7389   5.941   1.449   9.969 -2.1174 -1.7991 -0.4722
   54MOL0     H 7390   6.102   1.459  10.038 -0.3516  0.1762  1.6817
   54MOL0     H 7391   6.038   1.218  10.014 -2.2799  1.6927 -1.8170
   54MOL0     H 7392   6.058   1.256  10.177 -1.3288 -2.4290  0.7042
   54MOL0     H 7393   5.792   1.269  10.176 -2.1897 -0.3892 -1.6507
   54MOL0     H 7394   5.866   1.110  10.115  0.3542 -0.1735 -0.7722
   54MOL0     H 7395   5.711   1.330   9.976 -3.5889 -1.3749  0.3212
   54MOL0     H 7396   5.838   1.253   9.890 -2.4516  1.1717 -2.3807
   54MOL0     H 7397   5.594   1.152   9.867  0.2027  2.6841  0.0669
   54MOL0     H 7398   5.598   1.114  10.034 -0.4793 -1.6859  0.4788
   54MOL0     H 7399   5.761   0.943  10.001  0.7435  1.0930  1.2287
   54MOL0     H 7400   5.645   0.911   9.879 -1.7436  2.9213 -0.4558
   54MOL0     H 7401   5.999   0.969   9.928  0.7208  2.2378  0.9000
   54MOL0     H 7402   6.153   0.921   9.580  2.4166 -1.3193  0.1313
   54MOL0     H 7403   6.216   0.941   9.745  0.8459 -2.7756 -2.5714
   54MOL0     H 7404   6.131   1.178   9.563  0.4792  2.5594  1.6598
   54MOL0     H 7405   6.234   1.170   9.703 -1.5977  0.6123  1.0082
   54MOL0     H 7406   6.318   1.043   9.444  2.5935 -1.6320  1.6735
   54MOL0     H 7407   6.367   1.209   9.500  0.8783 -0.0640 -0.1903
   54MOL0     H 7408   6.455   1.114   9.699 -0.4507  0.0554  0.6031
   54MOL0     H 7409   6.442   0.947   9.636  0.6358 -0.5589  0.0077
   54MOL0     H 7410   6.629   0.933   9.775 -1.1835 -2.0787 -2.5604
   54MOL0     H 7411   6.882   0.894   9.970  1.1908 -0.6565  0.5163
   54MOL0     H 7412   6.877   0.742   9.871 -0.0507 -0.3934  1.1965
   54MOL0     H 7413   6.728   0.817   9.921 -0.1130 -2.4280 -1.8639
   54MOL0     H 7414   7.370   0.957   9.491  0.5684 -2.4090  0.0090
   54MOL0     H 7415   7.624   0.930   9.530  3.6914  4.4276  0.6105
   54MOL0     H 7416   7.809   1.132   9.618 -0.7285 -2.9425  0.1231
   54MOL0     H 7417   7.783   1.175   9.790 -0.1962 -0.0873  0.5280
   54MOL0     H 7418   8.027   1.181   9.717 -1.2494  0.9314 -0.3303
   54MOL0     H 7419   7.997   1.039   9.820 -3.1482  2.7658  1.9836
   54MOL0     H 7420   8.069   1.065   9.530 -1.2997  0.3955  0.4703
   54MOL0     H 7421   7.947   0.952   9.561 -0.3221  0.9232 -1.5166
   54MOL0     H 7422   8.145   0.809   9.610  0.0782 -0.4372  2.7275
   54MOL0     H 7423   8.142   0.891   9.760  0.7404 -0.0533  1.2714
   54MOL0     H 7424   8.315   0.939   9.523  1.1547 -1.5003  0.2859
   54MOL0     H 7425   8.298   1.070   9.628  1.6835 -0.0856  0.1104
   54MOL0     H 7426   8.388   0.787   9.689  0.1861  0.1679 -1.9535
   54MOL0     H 7427   8.370   0.907   9.824 -0.4419 -3.2644  1.1168
   54MOL0     H 7428   8.564   1.041   9.722  1.2109 -1.2002  0.7452
   54MOL0     H 7429   8.578   0.899   9.612  1.1381  2.6327 -1.3482
   54MOL0     H 7430   8.608   0.930   9.918  1.2987 -2.6569  2.0135
   54MOL0     H 7431   8.738   0.905   9.804 -0.0021  0.5581 -0.5990
   54MOL0     H 7432   7.564   1.019   9.940  0.9904 -0.2076 -0.0444
   54MOL0     H 7433   7.313   1.026   9.902 -0.4002 -1.7146 -0.4651
   54MOL0     H 7434   7.031   1.084   9.545  0.2697 -3.8791 -0.8598
   54MOL0     H 7435   6.805   1.158   9.450  1.6765  3.6536  2.0562
   54MOL0     H 7436   6.293   1.716  10.383 -2.4404 -0.7597  2.9210
   54MOL0     H 7437   6.359   1.904  10.513 -0.1095 -2.9984  2.9481
   54MOL0     H 7438   6.356   2.201  10.723 -0.0491 -0.1923 -1.8377
   54MOL0     H 7439   6.489   2.358  10.848  0.5363 -1.2963 -1.0990
   54MOL0     H 7440   6.525   2.536  10.998  1.4155  0.8845 -0.0465
   54MOL0     H 7441   6.640   2.591  10.879 -0.2624  0.2333 -1.1399
   54MOL0     H 7442   6.592   2.831  10.943 -0.8626  0.4289  0.8892
   54MOL0     H 7443   6.645   2.746  11.082  0.4175  2.1099  0.0883
   54MOL0     H 7444   6.342   2.721  11.048  1.0447  0.1699 -1.1753
   54MOL0     H 7445   6.417   2.783  11.194 -1.3539  1.0324  0.7251
   54MOL0     H 7446   6.287   2.963  11.080 -0.5269  1.7178 -3.1418
   54MOL0     H 7447   6.384   2.943  10.936 -0.0032  1.7866 -0.0942
   54MOL0     H 7448   6.607   3.195  11.205 -0.3813 -2.1759  3.2480
   54MOL0     H 7449   6.238   2.676  10.706 -0.0873  0.0245  0.0921
   54MOL0     H 7450   6.074   2.658  10.546  0.4216 -0.0624  0.1205
   54MOL0     H 7451   6.106   2.538  10.435 -0.6587  0.2211  0.2293
   54MOL0     H 7452   5.992   2.506  10.575 -1.0015  1.0359  2.0285
   55MOL0     O 7453   2.182   3.836   1.249  0.0256  0.0179  0.4876
   55MOL0     C 7454   2.060   3.825   1.221 -0.4174 -0.4304  0.5868
   55MOL0     O 7455   1.998   3.707   1.195  0.5296  0.4974  0.3671
   55MOL0     C 7456   2.055   3.583   1.177  0.9110 -0.2514  0.3185
   55MOL0     C 7457   1.964   3.479   1.135 -0.5572 -0.4259 -0.4702
   55MOL0     C 7458   2.006   3.354   1.102  0.1763 -0.1839  0.0401
   55MOL0     C 7459   2.136   3.317   1.096  0.0293 -0.2921 -0.1976
   55MOL0     O 7460   2.156   3.189   1.071  0.7011  0.5299 -1.0113
   55MOL0     C 7461   2.282   3.143   1.010  0.5036 -1.1013  0.8057
   55MOL0     C 7462   2.296   3.002   0.960 -0.2193  0.0143  0.4976
   55MOL0     C 7463   2.343   2.904   1.079 -0.2292 -0.6836  0.4106
   55MOL0     C 7464   2.381   2.767   1.014 -0.6166  0.0519  0.2292
   55MOL0     C 7465   2.418   2.670   1.121  1.0744 -0.5695  0.2747
   55MOL0     C 7466   2.563   2.689   1.170  0.1860  0.3762 -0.9828
   55MOL0     C 7467   2.676   2.667   1.071  0.2555 -0.2507  0.1377
   55MOL0     C 7468   2.804   2.648   1.154  0.1456  0.1294 -1.0476
   55MOL0     N 7469   2.925   2.643   1.073 -0.1421  0.0500  0.7735
   55MOL0     C 7470   2.947   2.570   0.955 -0.2889  0.2133  0.2177
   55MOL0     C 7471   3.050   2.631   0.899 -1.4136 -0.6070  0.6370
   55MOL0     C 7472   3.128   2.583   0.785  0.7291 -0.7612  0.0329
   55MOL0     C 7473   3.269   2.546   0.821 -0.0757 -0.5162  0.0569
   55MOL0     C 7474   3.334   2.479   0.702 -1.2350 -0.9026 -0.3708
   55MOL0     C 7475   3.493   2.468   0.712  0.9569 -0.0513  0.9785
   55MOL0     O 7476   3.532   2.453   0.841 -0.2960 -0.9781 -0.7160
   55MOL0     C 7477   3.664   2.434   0.879 -0.4024 -0.6056  0.2709
   55MOL0     C 7478   3.766   2.396   0.789  0.2227 -0.3884  0.7870
   55MOL0     C 7479   3.895   2.355   0.831 -0.2266 -0.1997 -0.4126
   55MOL0     C 7480   3.999   2.322   0.726  0.2822  0.2002  0.7048
   55MOL0     C 7481   3.922   2.361   0.964  0.1206 -0.2740 -0.0228
   55MOL0     C 7482   4.063   2.338   1.029  1.0483  0.1095  0.4078
   55MOL0     O 7483   4.065   2.260   1.142 -0.0048 -0.3124 -0.0688
   55MOL0     C 7484   4.184   2.200   1.169 -0.7190  0.0016 -0.6040
   55MOL0     C 7485   4.190   2.061   1.193  0.5512 -0.4889  0.0502
   55MOL0     C 7486   4.310   2.003   1.220 -0.0239  0.6944 -0.6215
   55MOL0     C 7487   4.427   2.077   1.251  0.4723  1.0488  0.5470
   55MOL0     O 7488   4.548   2.023   1.291 -0.6644 -0.0996  0.7736
   55MOL0     C 7489   4.570   1.888   1.269 -0.2275 -0.1447  0.6361
   55MOL0     C 7490   4.709   1.860   1.338  0.1520 -0.0302 -0.1473
   55MOL0     C 7491   4.748   1.712   1.336  0.6671  0.4068  0.1327
   55MOL0     C 7492   4.879   1.683   1.416  1.6862  0.2086  0.3800
   55MOL0     C 7493   4.917   1.535   1.441  0.8071  0.4514 -0.1583
   55MOL0     C 7494   5.050   1.506   1.516  0.2569 -0.4072  0.1052
   55MOL0     C 7495   5.062   1.350   1.554 -1.1175  0.6094 -0.4418
   55MOL0     C 7496   5.195   1.320   1.630  0.0967 -0.2266 -0.0982
   55MOL0    Cl 7497   5.328   1.325   1.507  0.0831  0.1699 -0.0167
   55MOL0     C 7498   4.422   2.211   1.237  0.4700 -0.5805 -0.4267
   55MOL0     C 7499   4.306   2.274   1.194  0.0995 -0.3486  0.2400
   55MOL0     O 7500   4.155   2.388   0.971 -0.6561  0.5083 -0.3463
   55MOL0     C 7501   3.817   2.392   1.052 -0.4253 -1.1057 -0.6693
   55MOL0     C 7502   3.693   2.433   1.011  0.7537 -0.1695 -0.9003
   55MOL0     N 7503   3.086   2.746   0.963  0.7064  0.3823  0.1789
   55MOL0     N 7504   2.998   2.754   1.068 -0.5494 -0.3630  0.1333
   55MOL0     C 7505   2.240   3.409   1.122 -0.7755 -0.7661 -0.9553
   55MOL0     C 7506   2.195   3.545   1.168 -0.0049 -0.4533  0.8570
   55MOL0     C 7507   1.961   3.937   1.236 -1.1494  0.0308  0.4466
   55MOL0     C 7508   1.904   3.976   1.121 -0.7295 -0.7283 -0.1151
   55MOL0     C 7509   1.810   4.084   1.112  0.4529  0.3804 -0.5874
   55MOL0     C 7510   1.793   4.165   1.224  1.1731 -0.2501  0.4942
   55MOL0     O 7511   1.712   4.274   1.222  0.1456 -0.5977 -0.4233
   55MOL0     C 7512   1.743   4.358   1.111  0.0181 -1.3950  0.1909
   55MOL0     C 7513   1.643   4.473   1.113 -0.4014  0.2048 -0.4141
   55MOL0     C 7514   1.653   4.550   0.983 -0.4281  0.4180 -0.4049
   55MOL0     C 7515   1.798   4.608   0.959  0.6855  0.3790  0.1494
   55MOL0     C 7516   1.810   4.737   1.028  0.4967 -0.2064 -0.1686
   55MOL0     C 7517   1.811   4.846   1.078 -0.6950 -0.1184 -0.7378
   55MOL0     C 7518   1.866   4.136   1.340  0.2793  0.0931 -0.8543
   55MOL0     C 7519   1.945   4.016   1.350  0.0858  0.0288 -0.1352
   55MOL0     C 7520   2.011   3.976   1.485  0.0110  0.2222  0.4070
   55MOL0     H 7521   1.855   3.489   1.136 -0.4172  1.7120  0.4889
   55MOL0     H 7522   1.930   3.279   1.085  2.5716 -2.4786 -1.2673
   55MOL0     H 7523   2.370   3.165   1.071  1.8664  0.2192 -1.4638
   55MOL0     H 7524   2.296   3.198   0.916  3.5272 -3.6801 -0.4284
   55MOL0     H 7525   2.198   2.969   0.926  1.2697 -1.3945 -2.9152
   55MOL0     H 7526   2.357   2.982   0.871 -2.1690  0.3775 -0.9872
   55MOL0     H 7527   2.425   2.945   1.138 -0.5042 -0.6188  0.7547
   55MOL0     H 7528   2.269   2.896   1.159  4.0356  2.1656  5.2468
   55MOL0     H 7529   2.304   2.735   0.943 -0.8090 -0.7058  0.7605
   55MOL0     H 7530   2.470   2.785   0.954  0.6787  1.1387  2.3464
   55MOL0     H 7531   2.413   2.571   1.076 -1.4244  0.4335 -1.9341
   55MOL0     H 7532   2.352   2.666   1.208 -0.0225  0.6011 -0.4630
   55MOL0     H 7533   2.573   2.792   1.205 -2.0895 -0.4999  2.7579
   55MOL0     H 7534   2.580   2.630   1.260  1.7119  4.2541  1.5295
   55MOL0     H 7535   2.686   2.746   0.997 -2.3638  0.1886  0.1414
   55MOL0     H 7536   2.658   2.576   1.014 -0.3335  0.4421 -0.8047
   55MOL0     H 7537   2.808   2.728   1.228 -0.9802 -1.6973  1.0879
   55MOL0     H 7538   2.803   2.552   1.206  1.6293  1.2393  1.1875
   55MOL0     H 7539   2.904   2.473   0.932 -1.1608  0.5030  0.5677
   55MOL0     H 7540   3.129   2.656   0.704 -1.5938 -0.5160  0.1479
   55MOL0     H 7541   3.068   2.499   0.751  0.5385 -0.8619  0.6131
   55MOL0     H 7542   3.320   2.640   0.844 -0.0463  0.1249 -2.3684
   55MOL0     H 7543   3.262   2.491   0.916 -0.3750  2.3489  1.8194
   55MOL0     H 7544   3.293   2.377   0.701  2.7706 -2.7013 -0.5135
   55MOL0     H 7545   3.317   2.521   0.603 -1.6355 -1.8112 -0.7007
   55MOL0     H 7546   3.522   2.381   0.653  2.5724  1.8315 -1.2033
   55MOL0     H 7547   3.544   2.550   0.661  0.4338  1.4861  2.8040
   55MOL0     H 7548   3.740   2.399   0.684 -0.4980  1.3407  0.9824
   55MOL0     H 7549   3.958   2.261   0.646 -0.9321 -0.6937  1.9584
   55MOL0     H 7550   4.090   2.267   0.754  0.5145  1.1171  1.8855
   55MOL0     H 7551   4.044   2.415   0.689 -0.8903  0.6092  0.2733
   55MOL0     H 7552   4.109   1.995   1.161 -0.7907  1.7936 -1.5352
   55MOL0     H 7553   4.309   1.895   1.205 -1.3717  0.5105  0.5756
   55MOL0     H 7554   4.503   1.820   1.323  0.7657 -0.8108  1.0581
   55MOL0     H 7555   4.566   1.858   1.164  0.1214 -0.1243  0.6145
   55MOL0     H 7556   4.789   1.921   1.296 -1.4704  1.7816 -0.7725
   55MOL0     H 7557   4.696   1.892   1.442  0.9091 -0.3431  0.0506
   55MOL0     H 7558   4.757   1.669   1.236 -1.7766  0.1729 -0.0554
   55MOL0     H 7559   4.669   1.645   1.372  0.4411  0.2084 -0.7140
   55MOL0     H 7560   4.882   1.729   1.515  0.4950  0.3838  0.3530
   55MOL0     H 7561   4.959   1.723   1.353 -0.1636  1.5355 -1.2719
   55MOL0     H 7562   4.831   1.493   1.494  1.2310  1.9824  1.8812
   55MOL0     H 7563   4.927   1.477   1.349  1.7897  0.6256 -0.1667
   55MOL0     H 7564   5.051   1.551   1.615  0.0119 -0.3457  0.0800
   55MOL0     H 7565   5.133   1.525   1.447 -1.4073  0.2585 -1.8473
   55MOL0     H 7566   5.063   1.286   1.466  2.1599 -0.7723  0.4587
   55MOL0     H 7567   4.995   1.308   1.629  1.5486  0.3010  1.9683
   55MOL0     H 7568   5.194   1.220   1.673  1.5034 -0.1082  0.2287
   55MOL0     H 7569   5.210   1.392   1.711 -0.4292  1.6748 -1.6238
   55MOL0     H 7570   4.514   2.258   1.271 -0.4199  0.8901  0.0548
   55MOL0     H 7571   4.295   2.381   1.180 -0.9813 -0.7380 -2.6380
   55MOL0     H 7572   3.836   2.403   1.159 -3.7151  2.5411 -0.2060
   55MOL0     H 7573   3.616   2.464   1.082 -2.1965 -2.7563 -2.7406
   55MOL0     H 7574   2.346   3.383   1.121 -0.9092 -1.5610  0.9285
   55MOL0     H 7575   2.268   3.621   1.193  1.2100 -2.3251  3.5089
   55MOL0     H 7576   1.924   3.922   1.029  4.0917  1.9579 -0.9858
   55MOL0     H 7577   1.740   4.099   1.031 -0.0388  1.5266  0.0377
   55MOL0     H 7578   1.844   4.392   1.134  1.0535 -3.0106 -1.7014
   55MOL0     H 7579   1.741   4.312   1.012 -1.4488 -0.4846 -0.2399
   55MOL0     H 7580   1.643   4.539   1.200 -4.2256  0.6377 -0.5339
   55MOL0     H 7581   1.547   4.420   1.120 -0.9965  1.3995  1.0756
   55MOL0     H 7582   1.631   4.471   0.911  2.7968  1.7361 -3.1301
   55MOL0     H 7583   1.573   4.624   0.981 -0.9496 -0.1503 -1.2977
   55MOL0     H 7584   1.809   4.638   0.854  0.0665  1.5674  0.4095
   55MOL0     H 7585   1.887   4.548   0.980  3.2195  3.6625 -0.2675
   55MOL0     H 7586   1.808   4.935   1.137  1.1848 -1.0529  0.9068
   55MOL0     H 7587   1.859   4.204   1.425 -1.3033 -1.9736  0.7755
   55MOL0     H 7588   2.118   3.997   1.488 -0.1758  1.1727  1.1235
   55MOL0     H 7589   1.963   4.021   1.572  1.5305  0.0423  1.3695
   55MOL0     H 7590   2.003   3.868   1.495  1.2725  0.2081  1.4759
   56MOL0     O 7591   3.989  10.807  11.352 -0.2584  0.3139  0.3646
   56MOL0     C 7592   3.937  10.726  11.279 -0.0605  0.2259  1.1060
   56MOL0     O 7593   3.884  10.754  11.154 -0.9075 -0.1667  0.0249
   56MOL0     C 7594   3.900  10.881  11.109 -1.2523  0.5640 -0.3106
   56MOL0     C 7595   4.021  10.913  11.040 -0.0438 -0.5315  0.3388
   56MOL0     C 7596   4.038  11.034  10.987  0.0840 -0.2001 -0.6093
   56MOL0     C 7597   3.931  11.130  10.995  0.1399  0.2405  0.3824
   56MOL0     O 7598   3.935  11.252  10.936  0.2471 -0.8476  0.2129
   56MOL0     C 7599   4.046  11.289  10.856 -0.3809  0.0863 -0.1928
   56MOL0     C 7600   4.032  11.426  10.794 -0.3381 -0.3161  0.3306
   56MOL0     C 7601   4.032  11.543  10.893 -0.0977  0.0150  0.1469
   56MOL0     C 7602   4.049  11.674  10.805  0.4332 -0.0542  0.1559
   56MOL0     C 7603   4.069  11.795  10.893 -0.7101  0.8110 -0.6586
   56MOL0     C 7604   4.045  11.927  10.812  0.0037 -0.3305  0.0269
   56MOL0     C 7605   3.903  11.972  10.817 -0.0443 -0.1819 -0.3143
   56MOL0     C 7606   3.862  12.058  10.691 -0.3698  0.5796 -0.0295
   56MOL0     N 7607   3.853  12.204  10.721  0.8174  0.1836 -0.0773
   56MOL0     C 7608   3.742  12.270  10.764  0.3339  0.9691 -0.7329
   56MOL0     C 7609   3.780  12.396  10.762 -0.0642  0.6461  0.2277
   56MOL0     C 7610   3.691  12.509  10.801 -0.5070 -0.9818  0.9651
   56MOL0     C 7611   3.664  12.528  10.951  0.9858 -0.6514 -0.2149
   56MOL0     C 7612   3.799  12.558  11.029  1.0620 -0.1340 -0.0881
   56MOL0     C 7613   3.879  12.682  10.978  0.3394 -0.2563 -0.5449
   56MOL0     O 7614   3.980  12.721  11.070 -0.6403  0.1264  0.3112
   56MOL0     C 7615   4.117  12.703  11.059  0.1110 -0.0728  0.3314
   56MOL0     C 7616   4.175  12.643  10.951 -0.6366  1.2373  0.3651
   56MOL0     C 7617   4.307  12.581  10.957 -0.0725  0.2879 -0.8551
   56MOL0     C 7618   4.350  12.497  10.836  0.3879 -0.0903 -0.6351
   56MOL0     C 7619   4.379  12.600  11.082 -0.1941 -0.2438  0.2636
   56MOL0     C 7620   4.516  12.550  11.112  1.7368 -0.7555 -0.5567
   56MOL0     O 7621   4.567  12.555  11.241 -0.1445 -0.5607  0.2523
   56MOL0     C 7622   4.693  12.501  11.260 -0.1201 -0.1955 -0.6126
   56MOL0     C 7623   4.715  12.396  11.346  0.3318  0.4837  0.4814
   56MOL0     C 7624   4.835  12.351  11.384 -0.5281  0.3002 -0.3487
   56MOL0     C 7625   4.952  12.409  11.332  0.9799 -0.1538  0.0320
   56MOL0     O 7626   5.078  12.352  11.346  0.1148  0.7088  0.0386
   56MOL0     C 7627   5.085  12.240  11.438  0.0968  0.4606  0.2445
   56MOL0     C 7628   5.230  12.210  11.450  0.4875 -0.1883 -0.1502
   56MOL0     C 7629   5.269  12.109  11.563  0.1969  0.6814 -0.2001
   56MOL0     C 7630   5.421  12.090  11.564 -0.8443 -0.5482 -0.3799
   56MOL0     C 7631   5.464  11.949  11.634  0.3967 -0.0898 -0.5082
   56MOL0     C 7632   5.622  11.935  11.648  1.7799 -0.3202 -0.7607
   56MOL0     C 7633   5.660  11.799  11.709 -0.4092 -0.7375 -0.8191
   56MOL0     C 7634   5.803  11.790  11.761 -0.2860  0.4880  0.1407
   56MOL0    Cl 7635   5.818  11.918  11.885  0.1043  0.0284  0.1340
   56MOL0     C 7636   4.932  12.528  11.250  1.0331  1.0205  0.3708
   56MOL0     C 7637   4.806  12.572  11.211 -0.9205  0.2020 -0.2854
   56MOL0     O 7638   4.557  12.480  11.024 -0.5963  0.5786  0.1588
   56MOL0     C 7639   4.327  12.681  11.187  0.1178 -0.3499  0.7495
   56MOL0     C 7640   4.198  12.734  11.168 -0.1778  0.0002  0.3594
   56MOL0     N 7641   3.914  12.410  10.729  0.7857 -0.3818  0.6914
   56MOL0     N 7642   3.952  12.289  10.697 -1.0356 -1.0526 -0.0200
   56MOL0     C 7643   3.814  11.105  11.056 -1.2947 -0.3919 -0.3333
   56MOL0     C 7644   3.799  10.981  11.122 -0.1055  0.5026  0.3117
   56MOL0     C 7645   3.946  10.586  11.318 -0.5517 -0.6732  1.4871
   56MOL0     C 7646   3.961  10.559  11.458 -0.7304  0.3802  0.0117
   56MOL0     C 7647   3.982  10.421  11.494 -0.3689 -1.1532 -0.6403
   56MOL0     C 7648   3.987  10.315  11.401 -0.2034 -0.7228  0.3650
   56MOL0     O 7649   4.005  10.183  11.435  0.1703 -0.3556 -0.5529
   56MOL0     C 7650   4.030  10.141  11.571  0.2401 -0.2365 -0.5152
   56MOL0     C 7651   4.169  10.070  11.574 -0.1382  0.8717 -0.4608
   56MOL0     C 7652   4.160   9.921  11.538 -0.3167  0.3494  0.5021
   56MOL0     C 7653   4.255   9.890  11.424 -0.1306  0.2541  0.3109
   56MOL0     C 7654   4.258   9.741  11.394  0.3405 -0.0249 -0.9134
   56MOL0     C 7655   4.277   9.626  11.378  0.7269  0.6440  0.6411
   56MOL0     C 7656   3.986  10.350  11.263 -0.0370 -0.3786 -0.9103
   56MOL0     C 7657   3.964  10.485  11.225 -0.3562  0.6943 -0.1957
   56MOL0     C 7658   3.965  10.506  11.066 -0.5402 -0.5272  0.3867
   56MOL0     H 7659   4.090  10.831  11.023  0.4161  0.2500 -2.0033
   56MOL0     H 7660   4.135  11.060  10.946  1.0693 -3.5745 -0.7287
   56MOL0     H 7661   4.045  11.208  10.782  1.0159  0.1015 -0.2706
   56MOL0     H 7662   4.143  11.286  10.907  0.3660  3.0115 -1.2351
   56MOL0     H 7663   4.115  11.448  10.727 -2.6052  2.4825 -1.8673
   56MOL0     H 7664   3.936  11.417  10.742 -1.5996 -1.4866  2.6985
   56MOL0     H 7665   3.941  11.544  10.954 -2.9606 -0.0585 -3.7716
   56MOL0     H 7666   4.118  11.548  10.961 -2.5633  0.4875  3.4480
   56MOL0     H 7667   4.127  11.671  10.728  1.6946  1.6302  1.2763
   56MOL0     H 7668   3.952  11.693  10.758  0.1714  1.0670  1.0979
   56MOL0     H 7669   4.164  11.810  10.946 -1.0342  0.3564  0.0816
   56MOL0     H 7670   4.003  11.800  10.981  2.0978 -2.5849  1.9810
   56MOL0     H 7671   4.114  12.002  10.851 -0.4377 -1.3721  3.0810
   56MOL0     H 7672   4.087  11.898  10.715 -1.0960 -1.1449 -0.2241
   56MOL0     H 7673   3.893  12.044  10.898  2.6695 -0.0758 -0.0155
   56MOL0     H 7674   3.833  11.887  10.818  0.6017 -0.7708 -1.9566
   56MOL0     H 7675   3.937  12.045  10.613 -0.7387  0.8511 -0.4360
   56MOL0     H 7676   3.775  12.009  10.647  2.2097 -3.7553 -0.8515
   56MOL0     H 7677   3.659  12.226  10.818  1.0026 -2.4237 -2.1710
   56MOL0     H 7678   3.601  12.511  10.739  0.2346  0.0850 -0.1411
   56MOL0     H 7679   3.740  12.604  10.777  0.3489 -1.2661  1.5416
   56MOL0     H 7680   3.591  12.606  10.971  0.3408 -1.7003  1.7890
   56MOL0     H 7681   3.632  12.433  10.995 -1.0397 -0.0598 -0.3151
   56MOL0     H 7682   3.760  12.572  11.131 -3.1865 -0.6153 -1.4608
   56MOL0     H 7683   3.863  12.469  11.034  1.6558  0.1914 -1.5813
   56MOL0     H 7684   3.912  12.658  10.876  2.4413  0.8364 -0.1945
   56MOL0     H 7685   3.809  12.765  10.970 -0.5945 -0.6119  2.5357
   56MOL0     H 7686   4.112  12.617  10.867  0.6323  0.8406 -0.4830
   56MOL0     H 7687   4.283  12.497  10.749 -2.3914 -0.9262  1.3496
   56MOL0     H 7688   4.371  12.394  10.867 -2.4556 -0.7379 -0.5918
   56MOL0     H 7689   4.444  12.539  10.798 -1.3272  3.4697 -1.3053
   56MOL0     H 7690   4.626  12.348  11.386 -2.4493  3.1560 -1.9570
   56MOL0     H 7691   4.848  12.265  11.449  1.7375  0.6764 -0.2554
   56MOL0     H 7692   5.049  12.267  11.538  0.4730 -0.2552  0.5835
   56MOL0     H 7693   5.035  12.152  11.396  1.5182 -0.0163 -0.5236
   56MOL0     H 7694   5.251  12.166  11.352 -2.3995  1.6742 -1.7475
   56MOL0     H 7695   5.288  12.300  11.474  2.2457 -0.2169 -3.6275
   56MOL0     H 7696   5.219  12.016  11.534 -0.8320  1.8930 -2.6670
   56MOL0     H 7697   5.237  12.136  11.664 -1.7880  0.4197 -0.7206
   56MOL0     H 7698   5.473  12.167  11.622  1.3367 -1.2641 -1.2621
   56MOL0     H 7699   5.450  12.084  11.459 -1.2139 -0.7543 -0.4721
   56MOL0     H 7700   5.416  11.947  11.733 -0.1086 -2.2834 -0.7330
   56MOL0     H 7701   5.420  11.873  11.569 -0.1780 -1.3906  1.3015
   56MOL0     H 7702   5.656  12.024  11.701 -0.1681 -0.8690  1.5973
   56MOL0     H 7703   5.659  11.935  11.545  0.5808  0.2090 -1.2110
   56MOL0     H 7704   5.648  11.717  11.638  1.0103 -2.3083  0.6964
   56MOL0     H 7705   5.580  11.791  11.783  0.9480  1.5111  1.0205
   56MOL0     H 7706   5.875  11.816  11.683  0.3435  3.2525  1.5044
   56MOL0     H 7707   5.832  11.690  11.794 -0.7311  0.3235  0.0477
   56MOL0     H 7708   5.016  12.572  11.197  0.5634  1.3500 -0.1167
   56MOL0     H 7709   4.796  12.668  11.161 -0.8415 -1.0435 -2.8723
   56MOL0     H 7710   4.383  12.699  11.278 -1.0757  0.3699  1.3738
   56MOL0     H 7711   4.156  12.797  11.246 -0.8005 -1.4350  1.2359
   56MOL0     H 7712   3.744  11.188  11.060 -0.7812  0.2027 -2.4097
   56MOL0     H 7713   3.712  10.955  11.181 -1.1520 -1.5242 -1.9673
   56MOL0     H 7714   3.976  10.637  11.533  0.8446  0.3489 -0.2323
   56MOL0     H 7715   3.999  10.404  11.600 -1.0098 -1.5180 -0.5900
   56MOL0     H 7716   4.029  10.218  11.648 -1.1325 -0.6283 -0.1107
   56MOL0     H 7717   3.948  10.079  11.609 -0.3390  1.7644  1.6777
   56MOL0     H 7718   4.202  10.076  11.678  0.6847 -0.1985 -0.6531
   56MOL0     H 7719   4.234  10.126  11.506 -1.0296  0.2713 -1.8709
   56MOL0     H 7720   4.188   9.866  11.628  0.8261  0.8624  0.4722
   56MOL0     H 7721   4.058   9.894  11.509 -0.1895  1.1698 -0.7764
   56MOL0     H 7722   4.348   9.937  11.456 -0.9551  1.7660  0.6012
   56MOL0     H 7723   4.226   9.942  11.332  1.4497 -1.9279 -1.5265
   56MOL0     H 7724   4.282   9.527  11.337 -1.2316 -0.2558  2.4041
   56MOL0     H 7725   3.976  10.266  11.196 -0.0780 -0.9032 -0.2656
   56MOL0     H 7726   3.993  10.412  11.016 -1.9790 -0.7450 -0.0486
   56MOL0     H 7727   3.875  10.545  11.019 -0.5378 -1.8690 -0.8026
   56MOL0     H 7728   4.054  10.567  11.046  0.0410  0.0986  4.2076
   57MOL0     O 7729   0.450   4.655   9.078  0.9905  0.3211  0.0447
   57MOL0     C 7730   0.429   4.760   9.139  0.2995  0.2147 -0.6269
   57MOL0     O 7731   0.485   4.879   9.105 -0.1086  0.0134 -0.8194
   57MOL0     C 7732   0.583   4.881   9.007  0.1517  0.5668 -0.5509
   57MOL0     C 7733   0.718   4.868   9.046 -0.1899  0.1246 -0.5116
   57MOL0     C 7734   0.821   4.854   8.947 -0.4446  0.5931 -0.1013
   57MOL0     C 7735   0.794   4.857   8.807  0.0585 -0.3703 -0.1046
   57MOL0     O 7736   0.893   4.853   8.711  0.1214 -0.4160 -0.0158
   57MOL0     C 7737   1.025   4.824   8.747 -0.8591 -0.4936 -0.9236
   57MOL0     C 7738   1.100   4.799   8.624 -0.2464  0.1914 -0.3636
   57MOL0     C 7739   1.238   4.763   8.647 -0.3536  0.3457  0.3219
   57MOL0     C 7740   1.326   4.816   8.531 -1.0975 -0.1066  0.2397
   57MOL0     C 7741   1.466   4.760   8.536 -0.3334 -1.0240 -0.6012
   57MOL0     C 7742   1.543   4.835   8.434  0.6758  0.9121  0.4012
   57MOL0     C 7743   1.678   4.766   8.413 -0.1553  0.1691 -0.2164
   57MOL0     C 7744   1.770   4.836   8.310  0.5364 -0.2487 -0.9118
   57MOL0     N 7745   1.904   4.808   8.355 -0.3578 -0.0046  1.0282
   57MOL0     C 7746   1.990   4.705   8.304  0.0985  0.6480 -1.1319
   57MOL0     C 7747   2.100   4.707   8.384  0.6597 -0.1572  0.4059
   57MOL0     C 7748   2.231   4.626   8.378 -0.6414 -0.0388 -0.0652
   57MOL0     C 7749   2.212   4.499   8.461 -0.0118  0.8990 -0.0352
   57MOL0     C 7750   2.338   4.412   8.475  0.3868  0.2926  0.0369
   57MOL0     C 7751   2.312   4.306   8.584 -0.3498  0.4772 -0.3663
   57MOL0     O 7752   2.435   4.232   8.597  0.7870 -0.2369 -0.1435
   57MOL0     C 7753   2.543   4.285   8.663  0.1844  0.2653 -0.0478
   57MOL0     C 7754   2.534   4.326   8.799 -0.4395  0.0442 -0.4375
   57MOL0     C 7755   2.650   4.377   8.870  0.5162  0.1846 -0.1688
   57MOL0     C 7756   2.621   4.435   9.008 -0.1190  0.6166 -0.5553
   57MOL0     C 7757   2.771   4.406   8.803  0.6506 -0.1291  0.8315
   57MOL0     C 7758   2.890   4.463   8.865  0.8406  0.9834  0.9732
   57MOL0     O 7759   3.005   4.451   8.787  0.5667  0.4539  0.3287
   57MOL0     C 7760   3.130   4.494   8.826  1.0903  0.5275 -0.3301
   57MOL0     C 7761   3.150   4.603   8.904  0.2330 -0.8535  0.4489
   57MOL0     C 7762   3.277   4.645   8.939  0.1242  0.0457  0.0808
   57MOL0     C 7763   3.386   4.571   8.904  0.4660 -0.4436 -0.2525
   57MOL0     O 7764   3.506   4.629   8.919 -0.7323  0.1817  0.1487
   57MOL0     C 7765   3.590   4.588   9.025  0.4963  0.1899  0.0274
   57MOL0     C 7766   3.734   4.587   8.981 -0.6923 -0.1079 -0.8855
   57MOL0     C 7767   3.799   4.724   8.955  0.8974 -1.0137  0.9762
   57MOL0     C 7768   3.943   4.708   8.898 -0.0398 -0.1233 -0.2601
   57MOL0     C 7769   4.010   4.850   8.879  0.5518 -0.6296 -0.3009
   57MOL0     C 7770   4.142   4.844   8.793 -0.3896 -0.1865  0.4971
   57MOL0     C 7771   4.246   4.771   8.878  0.3575  0.2552 -0.1545
   57MOL0     C 7772   4.381   4.775   8.795 -0.1697  0.2572 -0.2294
   57MOL0    Cl 7773   4.356   4.676   8.648 -0.6370 -0.1557 -0.4091
   57MOL0     C 7774   3.368   4.463   8.823  0.1115  0.1071 -0.8023
   57MOL0     C 7775   3.242   4.422   8.777  0.8736  0.1362 -0.4838
   57MOL0     O 7776   2.887   4.501   8.976  0.1261  0.7510 -0.7814
   57MOL0     C 7777   2.770   4.368   8.664  0.6023 -0.1472 -0.2349
   57MOL0     C 7778   2.662   4.304   8.601 -0.4891 -0.4909  0.1546
   57MOL0     N 7779   2.096   4.816   8.465 -0.0309  0.2054 -0.4885
   57MOL0     N 7780   1.985   4.881   8.443  0.9398 -0.9513  0.4910
   57MOL0     C 7781   0.663   4.881   8.777  0.5689  0.3202  0.4064
   57MOL0     C 7782   0.565   4.889   8.874  0.6644 -0.6432 -0.1846
   57MOL0     C 7783   0.336   4.756   9.250  0.4710 -0.1808  0.2876
   57MOL0     C 7784   0.214   4.683   9.232 -0.2626 -0.1506 -0.0951
   57MOL0     C 7785   0.117   4.681   9.326 -0.5260  0.7298  0.3929
   57MOL0     C 7786   0.134   4.756   9.441  0.0020  0.5058 -0.5147
   57MOL0     O 7787   0.032   4.757   9.535 -0.1313  0.7910 -0.3148
   57MOL0     C 7788  -0.071   4.847   9.499 -0.2626  0.1102 -0.9278
   57MOL0     C 7789  -0.057   4.968   9.576 -0.6335 -0.2465 -0.2029
   57MOL0     C 7790   0.003   5.082   9.484 -0.4320 -0.4114 -0.5018
   57MOL0     C 7791   0.062   5.190   9.571 -0.3588 -0.2717 -0.3410
   57MOL0     C 7792  -0.033   5.287   9.612  0.1142 -0.4265 -0.7965
   57MOL0     C 7793  -0.124   5.369   9.642 -1.5183  0.7779  0.9877
   57MOL0     C 7794   0.262   4.817   9.477  0.6511  0.5643  0.0554
   57MOL0     C 7795   0.357   4.827   9.377  0.1250  0.9324  0.4283
   57MOL0     C 7796   0.480   4.904   9.415  0.1303  0.0000 -0.3597
   57MOL0     H 7797   0.756   4.852   9.146 -2.3638  0.5769  0.4513
   57MOL0     H 7798   0.921   4.838   8.985 -0.4752  2.4725  0.8746
   57MOL0     H 7799   1.039   4.735   8.809 -0.5521 -0.6708 -1.2466
   57MOL0     H 7800   1.070   4.907   8.802  0.0648  0.6953 -3.3487
   57MOL0     H 7801   1.053   4.717   8.571 -0.5166  0.5097 -0.6168
   57MOL0     H 7802   1.088   4.885   8.558 -0.7994  0.0801 -0.4133
   57MOL0     H 7803   1.268   4.800   8.745  1.6148 -1.9348  0.6818
   57MOL0     H 7804   1.249   4.654   8.650 -0.9376  0.0983 -2.6665
   57MOL0     H 7805   1.283   4.799   8.431 -1.8740  0.8982  0.3855
   57MOL0     H 7806   1.335   4.924   8.547 -1.7712 -0.1771  1.1516
   57MOL0     H 7807   1.468   4.651   8.523 -1.6911 -1.4752  2.2099
   57MOL0     H 7808   1.513   4.779   8.633 -0.5543  1.7019 -0.9462
   57MOL0     H 7809   1.488   4.840   8.340  0.2156 -0.0021  0.6138
   57MOL0     H 7810   1.562   4.939   8.462  0.6142  0.4190  2.4896
   57MOL0     H 7811   1.657   4.665   8.374  0.2475  1.5380 -4.5904
   57MOL0     H 7812   1.730   4.749   8.508  0.5589 -2.5584 -0.9876
   57MOL0     H 7813   1.758   4.804   8.206  0.7815  0.0734 -1.0377
   57MOL0     H 7814   1.748   4.943   8.304  1.1908 -0.0754 -0.3113
   57MOL0     H 7815   1.974   4.624   8.233 -1.4782 -0.0313 -0.0625
   57MOL0     H 7816   2.302   4.693   8.427 -1.0866 -0.8049  1.7245
   57MOL0     H 7817   2.258   4.599   8.276  2.7302  0.1159  0.6867
   57MOL0     H 7818   2.173   4.516   8.563 -2.0452  2.6634 -1.0150
   57MOL0     H 7819   2.136   4.441   8.409  2.2971 -0.7373 -1.7367
   57MOL0     H 7820   2.351   4.369   8.376 -0.7599  1.9233 -0.8847
   57MOL0     H 7821   2.430   4.467   8.494  1.1843 -0.6760 -0.9356
   57MOL0     H 7822   2.282   4.355   8.677  0.2195 -1.3652  0.8504
   57MOL0     H 7823   2.236   4.242   8.541  1.2249 -2.8665  1.4405
   57MOL0     H 7824   2.441   4.311   8.853  0.2433  3.2676  1.9910
   57MOL0     H 7825   2.683   4.395   9.089 -0.8723  0.0991 -0.2304
   57MOL0     H 7826   2.518   4.416   9.037  0.8536 -1.0521  2.2190
   57MOL0     H 7827   2.635   4.543   9.020  0.3787  0.3677  1.3851
   57MOL0     H 7828   3.061   4.663   8.923 -1.3054 -3.1042  0.7870
   57MOL0     H 7829   3.290   4.738   8.994 -0.4931  0.8421 -1.0630
   57MOL0     H 7830   3.570   4.649   9.114  1.0895  1.3034 -0.5889
   57MOL0     H 7831   3.564   4.491   9.068  1.9596 -0.0720  0.3648
   57MOL0     H 7832   3.792   4.541   9.062 -1.0164  1.1990  0.1333
   57MOL0     H 7833   3.737   4.525   8.891 -0.5627  0.7659 -1.4950
   57MOL0     H 7834   3.803   4.784   9.046  1.0592 -0.6813  0.7525
   57MOL0     H 7835   3.735   4.776   8.883  1.1538  0.6310  1.8988
   57MOL0     H 7836   3.935   4.652   8.805  1.1864 -2.1773  0.7943
   57MOL0     H 7837   4.001   4.649   8.970  3.0437 -0.3258 -2.6874
   57MOL0     H 7838   3.935   4.907   8.824 -2.0769 -0.2483  3.2785
   57MOL0     H 7839   4.038   4.903   8.971 -1.3491 -0.7013  0.3672
   57MOL0     H 7840   4.184   4.944   8.775  0.3995  0.1516  3.6574
   57MOL0     H 7841   4.123   4.776   8.710 -1.3055  2.7204 -1.8470
   57MOL0     H 7842   4.212   4.671   8.906 -2.0688  1.9375  3.8051
   57MOL0     H 7843   4.262   4.835   8.966 -0.4316  2.9421 -1.8691
   57MOL0     H 7844   4.464   4.731   8.852 -2.5179 -4.8719 -0.1975
   57MOL0     H 7845   4.408   4.873   8.754 -0.5642 -0.0474 -1.2323
   57MOL0     H 7846   3.458   4.418   8.782  1.6584  2.3841 -0.1080
   57MOL0     H 7847   3.236   4.347   8.699  0.5680  1.7560 -2.0961
   57MOL0     H 7848   2.857   4.395   8.606 -0.2131 -1.1192 -1.9848
   57MOL0     H 7849   2.664   4.268   8.499 -0.0053 -0.1728  0.0503
   57MOL0     H 7850   0.633   4.895   8.674  0.8039 -0.8651  0.1678
   57MOL0     H 7851   0.462   4.910   8.845  0.9484  3.2020  1.0320
   57MOL0     H 7852   0.196   4.633   9.138 -3.3908  2.3996 -1.0309
   57MOL0     H 7853   0.019   4.638   9.312 -1.4532  1.3824  3.9522
   57MOL0     H 7854  -0.080   4.863   9.391 -1.0023  0.0970 -0.8741
   57MOL0     H 7855  -0.164   4.804   9.538  0.4199 -0.1774  0.4394
   57MOL0     H 7856   0.010   4.964   9.662 -1.4166  0.4872  0.4629
   57MOL0     H 7857  -0.156   4.999   9.609  0.8252  2.7279  1.8078
   57MOL0     H 7858   0.093   5.062   9.426  1.5588  3.8480  0.7130
   57MOL0     H 7859  -0.067   5.113   9.407 -2.1265  0.6416  1.3631
   57MOL0     H 7860   0.145   5.236   9.517 -2.1254  2.4276 -0.9478
   57MOL0     H 7861   0.101   5.156   9.667 -2.6322  0.4626  0.9208
   57MOL0     H 7862  -0.202   5.439   9.664 -1.2308  1.4110  0.0585
   57MOL0     H 7863   0.255   4.864   9.575  0.8418  1.0975 -0.1895
   57MOL0     H 7864   0.551   4.912   9.332  0.0642  2.7087 -0.2633
   57MOL0     H 7865   0.447   5.006   9.437  1.6856  0.1941  1.2565
   57MOL0     H 7866   0.525   4.862   9.505  0.3677  0.4525 -0.2673
   58MOL0     O 7867   2.543   9.216  11.220 -0.2421 -1.0976  0.0882
   58MOL0     C 7868   2.625   9.137  11.180  0.3473 -0.2031 -0.0509
   58MOL0     O 7869   2.737   9.162  11.115 -0.2493 -0.4187  0.3087
   58MOL0     C 7870   2.753   9.278  11.047 -1.1499  0.4853 -0.8398
   58MOL0     C 7871   2.849   9.367  11.099  0.1113  0.7427 -0.4429
   58MOL0     C 7872   2.867   9.488  11.033 -0.0424  0.0072  0.6737
   58MOL0     C 7873   2.802   9.517  10.915  1.0517 -0.0180 -0.3824
   58MOL0     O 7874   2.826   9.628  10.850 -0.8910  0.6742  1.0131
   58MOL0     C 7875   2.893   9.611  10.721  0.6120 -1.1009 -0.2295
   58MOL0     C 7876   2.989   9.494  10.721 -0.5028 -0.0988 -0.0838
   58MOL0     C 7877   3.097   9.517  10.614  0.2688  1.2325 -0.5416
   58MOL0     C 7878   3.056   9.497  10.464  0.0403  0.5871 -1.1954
   58MOL0     C 7879   3.127   9.594  10.371  0.4098  0.1813  0.6485
   58MOL0     C 7880   3.077   9.564  10.228  1.1796  0.9385 -0.5988
   58MOL0     C 7881   3.151   9.436  10.181  0.2436  1.1634 -0.1685
   58MOL0     C 7882   3.280   9.459  10.102 -0.1315 -0.0428  0.6299
   58MOL0     N 7883   3.241   9.529   9.976  0.1016 -0.3669  0.4407
   58MOL0     C 7884   3.268   9.654   9.930  0.6216  0.4292  0.3809
   58MOL0     C 7885   3.221   9.670   9.800 -0.4168 -0.1205 -0.2147
   58MOL0     C 7886   3.232   9.784   9.701 -0.2973  0.1506  0.2394
   58MOL0     C 7887   3.105   9.804   9.619 -0.3104 -0.4401 -0.6516
   58MOL0     C 7888   3.006   9.886   9.693 -0.1994 -0.1001 -0.2061
   58MOL0     C 7889   2.958   9.852   9.831  1.3714 -0.7759 -0.0556
   58MOL0     O 7890   2.851   9.933   9.865 -0.3421  0.1990 -0.4240
   58MOL0     C 7891   2.814   9.906   9.990 -0.4210  0.4171 -0.8714
   58MOL0     C 7892   2.864   9.977  10.097  0.0412  0.5277  0.1177
   58MOL0     C 7893   2.826   9.951  10.226 -0.0812 -0.1906 -0.5303
   58MOL0     C 7894   2.885  10.031  10.342  0.3310  0.1229 -0.3552
   58MOL0     C 7895   2.727   9.852  10.255  0.0310 -0.5812 -0.6760
   58MOL0     C 7896   2.691   9.810  10.387  0.2006 -0.1241  0.0209
   58MOL0     O 7897   2.553   9.785  10.401 -0.0591 -0.5090  0.3566
   58MOL0     C 7898   2.495   9.784  10.518 -0.5294  0.3097 -0.2105
   58MOL0     C 7899   2.508   9.677  10.607 -0.4496 -0.7184  0.2640
   58MOL0     C 7900   2.435   9.693  10.725 -0.7125 -0.2284  0.5875
   58MOL0     C 7901   2.362   9.806  10.766 -0.9405 -0.8058  0.3534
   58MOL0     O 7902   2.301   9.803  10.887 -0.9351  0.0414  0.1258
   58MOL0     C 7903   2.202   9.899  10.927 -0.5865 -0.8266  0.3354
   58MOL0     C 7904   2.182   9.895  11.079  0.0726  0.8961  0.3292
   58MOL0     C 7905   2.083  10.000  11.132 -0.2918  0.3427  0.3101
   58MOL0     C 7906   2.028   9.967  11.279  0.4822  0.3868 -0.1916
   58MOL0     C 7907   1.907   9.870  11.259 -0.4549 -0.0447 -0.2435
   58MOL0     C 7908   1.775   9.940  11.295  0.0419  0.3671 -0.5259
   58MOL0     C 7909   1.726  10.006  11.167 -0.6604 -0.0837  0.3749
   58MOL0     C 7910   1.579  10.041  11.161 -0.5978 -0.2015  0.3761
   58MOL0    Cl 7911   1.511  10.042  10.998 -0.0321 -0.2125 -0.5352
   58MOL0     C 7912   2.358   9.911  10.674  0.8866 -0.2280 -0.9018
   58MOL0     C 7913   2.422   9.909  10.553  0.5838 -0.5470  0.4827
   58MOL0     O 7914   2.779   9.788  10.468  0.2310  0.2374  0.0749
   58MOL0     C 7915   2.677   9.776  10.147 -0.7888 -0.4979  0.0314
   58MOL0     C 7916   2.718   9.805  10.018  0.3590 -0.4694  0.5440
   58MOL0     N 7917   3.169   9.549   9.771  0.6266 -0.2930  0.1460
   58MOL0     N 7918   3.172   9.467   9.871 -0.2962  0.4341 -0.9110
   58MOL0     C 7919   2.703   9.429  10.869 -0.5502 -0.3366  0.2946
   58MOL0     C 7920   2.683   9.304  10.927 -0.5186  0.7606  0.4050
   58MOL0     C 7921   2.617   9.003  11.229  0.4522 -0.4699 -0.0702
   58MOL0     C 7922   2.654   9.003  11.366 -0.0590  0.2147  0.2402
   58MOL0     C 7923   2.673   8.884  11.425  0.9550  0.8263  0.2091
   58MOL0     C 7924   2.650   8.760  11.362 -0.5705  0.0544 -0.5729
   58MOL0     O 7925   2.659   8.641  11.433  0.2511  0.4565  0.4284
   58MOL0     C 7926   2.650   8.513  11.362 -0.4160  0.2587  0.1011
   58MOL0     C 7927   2.677   8.389  11.452  0.2947  0.3653 -0.4156
   58MOL0     C 7928   2.665   8.251  11.383  0.5125 -0.5676  0.2424
   58MOL0     C 7929   2.762   8.219  11.276  0.0379  0.7105  0.3340
   58MOL0     C 7930   2.683   8.210  11.145  0.0235  0.8660  0.0613
   58MOL0     C 7931   2.615   8.186  11.046  0.3174 -0.9246  0.2163
   58MOL0     C 7932   2.641   8.759  11.222  0.0611 -0.2984  0.1528
   58MOL0     C 7933   2.624   8.881  11.157  0.5642  0.3012  1.5114
   58MOL0     C 7934   2.636   8.885  11.006 -0.0689 -0.2041 -0.7049
   58MOL0     H 7935   2.896   9.344  11.194  0.3801  2.1125 -0.2301
   58MOL0     H 7936   2.952   9.550  11.060 -0.1727  1.4240 -1.8558
   58MOL0     H 7937   2.942   9.707  10.699  1.8050 -1.3935  0.9875
   58MOL0     H 7938   2.818   9.594  10.644  1.1141 -2.1353 -0.5114
   58MOL0     H 7939   3.056   9.488  10.808 -0.8944  1.4713  0.3542
   58MOL0     H 7940   2.939   9.397  10.713 -1.7460  0.2861  2.1929
   58MOL0     H 7941   3.141   9.616  10.627  2.5548  0.2220 -0.0685
   58MOL0     H 7942   3.180   9.448  10.631 -2.3424 -1.6992  1.5168
   58MOL0     H 7943   3.065   9.389  10.446  2.0928 -0.0345  2.5046
   58MOL0     H 7944   2.950   9.526  10.465  0.5735  2.7503 -1.7831
   58MOL0     H 7945   3.232   9.567  10.357  0.1678  0.3638 -2.0806
   58MOL0     H 7946   3.119   9.697  10.409 -0.6848  0.3916 -0.0809
   58MOL0     H 7947   2.969   9.548  10.229  1.4933 -1.5446 -1.1657
   58MOL0     H 7948   3.085   9.641  10.151 -0.6704  0.4520 -1.3477
   58MOL0     H 7949   3.078   9.383  10.118  0.7565  1.1854 -0.7928
   58MOL0     H 7950   3.176   9.364  10.259 -1.0432 -0.2724 -1.0017
   58MOL0     H 7951   3.351   9.521  10.158 -2.4445  2.5031  0.9903
   58MOL0     H 7952   3.335   9.371  10.069  0.3903  0.1308  1.0336
   58MOL0     H 7953   3.326   9.726   9.988  2.0768 -1.0305  0.8270
   58MOL0     H 7954   3.318   9.768   9.635 -0.2879  0.4712  0.1744
   58MOL0     H 7955   3.259   9.873   9.758 -1.8129  1.4426 -0.9616
   58MOL0     H 7956   3.140   9.864   9.534 -1.6196  4.2344  1.7597
   58MOL0     H 7957   3.065   9.706   9.593 -0.1885 -0.5407 -0.4650
   58MOL0     H 7958   3.045   9.987   9.704 -0.2117 -0.2940  2.2785
   58MOL0     H 7959   2.924   9.887   9.621  0.6207  3.2548 -1.2357
   58MOL0     H 7960   2.935   9.745   9.838  0.0287 -0.6163 -1.5663
   58MOL0     H 7961   3.038   9.865   9.904  2.0156 -0.2057 -0.8556
   58MOL0     H 7962   2.912  10.072  10.076 -1.9220  1.2859 -1.3174
   58MOL0     H 7963   2.806  10.070  10.407 -0.6610  0.0133 -1.4454
   58MOL0     H 7964   2.956  10.104  10.304 -2.1630  0.9650 -3.9538
   58MOL0     H 7965   2.940   9.959  10.403  1.3319  0.3032 -1.0240
   58MOL0     H 7966   2.569   9.589  10.586  2.8237  1.5573 -0.4739
   58MOL0     H 7967   2.441   9.608  10.792  0.3159  1.1837  2.3786
   58MOL0     H 7968   2.226  10.002  10.898 -2.0978  0.1976  2.4078
   58MOL0     H 7969   2.115   9.863  10.871  0.0888 -1.2446 -0.4711
   58MOL0     H 7970   2.131   9.802  11.105  0.8683  0.6598  1.0924
   58MOL0     H 7971   2.275   9.907  11.136 -1.0105  1.2278  2.0956
   58MOL0     H 7972   2.006  10.014  11.057  0.8079 -0.9023 -1.1215
   58MOL0     H 7973   2.141  10.092  11.141  0.5007 -0.2880  2.3923
   58MOL0     H 7974   1.982  10.061  11.310 -0.5992 -0.0344 -0.4971
   58MOL0     H 7975   2.108   9.938  11.348  0.7992  0.2928 -0.5950
   58MOL0     H 7976   1.891   9.830  11.158 -1.2142 -1.0366  0.2600
   58MOL0     H 7977   1.923   9.784  11.324  1.2376  0.3608 -0.0916
   58MOL0     H 7978   1.788  10.013  11.375  1.5388  0.9213 -1.2376
   58MOL0     H 7979   1.698   9.871  11.332 -0.2924  0.1173 -1.6321
   58MOL0     H 7980   1.748   9.948  11.077  0.4129  1.3238 -0.3072
   58MOL0     H 7981   1.782  10.099  11.156  2.4352 -1.7948  0.7355
   58MOL0     H 7982   1.563  10.132  11.220  1.0911  0.9980 -0.9553
   58MOL0     H 7983   1.530   9.961  11.219 -0.1519  0.7194  2.0706
   58MOL0     H 7984   2.312  10.006  10.698 -1.6258 -1.4047 -0.7885
   58MOL0     H 7985   2.411   9.997  10.491 -1.9298 -1.7087 -0.9162
   58MOL0     H 7986   2.620   9.686  10.168  0.3281 -1.2662 -0.1544
   58MOL0     H 7987   2.673   9.745   9.940 -1.9969 -0.6825  1.9919
   58MOL0     H 7988   2.651   9.453  10.777 -0.1981  1.9302  0.6076
   58MOL0     H 7989   2.627   9.223  10.881  1.7201 -2.7994  3.3754
   58MOL0     H 7990   2.662   9.099  11.416 -1.2156 -0.8946  2.6808
   58MOL0     H 7991   2.708   8.883  11.528  2.2959  2.0474 -0.1995
   58MOL0     H 7992   2.556   8.497  11.308  0.4556  2.1207 -2.1268
   58MOL0     H 7993   2.726   8.514  11.284  2.5186  1.6387  2.7779
   58MOL0     H 7994   2.612   8.390  11.540  2.7667 -2.2159  1.6236
   58MOL0     H 7995   2.776   8.411  11.491 -0.0500 -0.5661  1.0387
   58MOL0     H 7996   2.676   8.174  11.460  1.0041 -0.0121  0.7282
   58MOL0     H 7997   2.565   8.238  11.340  1.3833  1.5077 -2.7651
   58MOL0     H 7998   2.818   8.128  11.301 -0.8051 -0.2395 -1.0650
   58MOL0     H 7999   2.834   8.299  11.261 -1.4646  1.6970 -2.4619
   58MOL0     H 8000   2.553   8.165  10.961  1.1586  0.8961 -0.8982
   58MOL0     H 8001   2.647   8.675  11.154  2.6882 -0.3477  0.3556
   58MOL0     H 8002   2.677   8.975  10.959 -0.2551  0.3322  0.1467
   58MOL0     H 8003   2.701   8.801  10.978 -1.4099 -1.0856 -1.2492
   58MOL0     H 8004   2.539   8.861  10.962  0.9186 -2.4978 -1.8552
   59MOL0     O 8005   8.140   6.806   5.616  0.0192 -0.3757  0.4586
   59MOL0     C 8006   8.204   6.730   5.545 -0.6264  0.1182  1.3754
   59MOL0     O 8007   8.292   6.636   5.583  0.4648  0.6641 -0.6720
   59MOL0     C 8008   8.344   6.635   5.715 -0.4197 -0.2736  1.4351
   59MOL0     C 8009   8.390   6.757   5.771 -0.5604  1.5398  1.4537
   59MOL0     C 8010   8.462   6.755   5.887  0.3562  0.2563  0.1861
   59MOL0     C 8011   8.489   6.634   5.956 -0.0827 -0.6079  0.6950
   59MOL0     O 8012   8.559   6.630   6.077 -0.1875 -0.4196  0.2031
   59MOL0     C 8013   8.604   6.503   6.136 -0.7877 -0.2679 -0.5139
   59MOL0     C 8014   8.662   6.542   6.277 -0.1415 -0.6334  0.4154
   59MOL0     C 8015   8.795   6.622   6.264  0.3158  0.9367 -1.0696
   59MOL0     C 8016   8.919   6.528   6.310  0.6143  0.0119 -0.2896
   59MOL0     C 8017   9.045   6.596   6.261  0.3798  0.2278  0.5625
   59MOL0     C 8018   9.161   6.497   6.293 -0.0770 -0.1744 -0.0621
   59MOL0     C 8019   9.300   6.546   6.249  0.0456  0.2287 -0.0842
   59MOL0     C 8020   9.404   6.427   6.253  0.7476 -0.2757  0.6585
   59MOL0     N 8021   9.539   6.465   6.205  0.1121  0.4557  0.5919
   59MOL0     C 8022   9.590   6.445   6.077 -0.1882 -0.3257  0.6282
   59MOL0     C 8023   9.719   6.498   6.090  0.4466 -0.1992  0.1049
   59MOL0     C 8024   9.840   6.470   6.003 -0.1612  0.1278 -0.2668
   59MOL0     C 8025   9.824   6.522   5.863 -0.5348  0.7103  0.1702
   59MOL0     C 8026   9.961   6.528   5.800 -1.3260  0.1249  0.2365
   59MOL0     C 8027   9.952   6.601   5.660 -0.7181 -0.5315 -0.0799
   59MOL0     O 8028   9.982   6.735   5.683 -0.4720 -0.1194  0.3391
   59MOL0     C 8029  10.004   6.815   5.578 -0.0043 -0.7682  0.5436
   59MOL0     C 8030   9.902   6.893   5.514  0.0832  0.2652 -0.0805
   59MOL0     C 8031   9.931   6.980   5.415 -0.3983 -0.1554 -0.2289
   59MOL0     C 8032   9.809   7.035   5.340 -0.4853 -0.7251  1.2293
   59MOL0     C 8033  10.062   6.995   5.372 -0.0060  1.1683  0.2142
   59MOL0     C 8034  10.109   7.093   5.275  0.5053  0.3687  0.7125
   59MOL0     O 8035  10.211   7.052   5.195  0.7944  0.8290  0.1863
   59MOL0     C 8036  10.231   7.114   5.078  0.1113  0.3609  0.0608
   59MOL0     C 8037  10.306   7.230   5.076  0.0688  0.3409  0.9349
   59MOL0     C 8038  10.321   7.309   4.961 -0.3036 -0.1420 -0.5723
   59MOL0     C 8039  10.274   7.256   4.838 -0.5191  0.3535 -0.0696
   59MOL0     O 8040  10.316   7.321   4.723  0.1738 -0.1423 -0.2354
   59MOL0     C 8041  10.294   7.245   4.599 -0.6727 -0.3159  0.1146
   59MOL0     C 8042  10.359   7.337   4.494  0.3093  0.5497 -0.3560
   59MOL0     C 8043  10.261   7.458   4.479  0.1218  0.0196 -0.3689
   59MOL0     C 8044  10.311   7.589   4.533 -0.1309 -0.8976 -0.8223
   59MOL0     C 8045  10.236   7.713   4.469  0.0992  1.0010  0.0436
   59MOL0     C 8046  10.240   7.842   4.544 -0.5050  0.0790  0.0206
   59MOL0     C 8047  10.179   7.964   4.470 -0.2758  0.1945  0.1485
   59MOL0     C 8048  10.190   8.097   4.554  0.0256  0.0068  0.0863
   59MOL0    Cl 8049  10.063   8.102   4.683 -0.0255  0.1728 -0.4806
   59MOL0     C 8050  10.203   7.132   4.835  0.1425  0.0526 -0.1608
   59MOL0     C 8051  10.173   7.060   4.955  0.1892  0.6296 -0.2432
   59MOL0     O 8052  10.059   7.208   5.275  0.0998  0.1617  0.1935
   59MOL0     C 8053  10.164   6.914   5.435  0.4388 -0.6597  0.4839
   59MOL0     C 8054  10.135   6.825   5.536 -0.6633 -0.2049  0.9049
   59MOL0     N 8055   9.724   6.551   6.219  0.0708 -0.1563 -0.4174
   59MOL0     N 8056   9.618   6.522   6.294 -0.0106 -0.1611 -0.1720
   59MOL0     C 8057   8.448   6.514   5.891 -0.6093 -0.6199 -0.4183
   59MOL0     C 8058   8.380   6.517   5.767 -0.3427 -0.0987  0.1479
   59MOL0     C 8059   8.171   6.718   5.401 -0.2203 -0.4247 -0.0510
   59MOL0     C 8060   8.227   6.612   5.327 -0.2445 -0.5384  0.1313
   59MOL0     C 8061   8.202   6.607   5.194  0.4283 -0.1270  0.4111
   59MOL0     C 8062   8.115   6.690   5.124  0.2196 -0.9870 -0.5277
   59MOL0     O 8063   8.094   6.683   4.990  0.1258  0.1486  0.4565
   59MOL0     C 8064   8.127   6.554   4.922  1.2190  0.2840 -0.7149
   59MOL0     C 8065   8.018   6.455   4.961 -0.6101 -0.0688  1.0808
   59MOL0     C 8066   8.046   6.324   4.879  0.1468 -0.2347  0.0602
   59MOL0     C 8067   7.950   6.206   4.894  0.2061 -0.3857 -0.1688
   59MOL0     C 8068   7.951   6.164   5.039  0.4109 -0.9556 -0.4042
   59MOL0     C 8069   7.980   6.127   5.154  0.7069  0.2478  0.0622
   59MOL0     C 8070   8.061   6.800   5.204 -0.8346  0.9378 -0.5742
   59MOL0     C 8071   8.087   6.821   5.343 -0.6504 -0.2872  0.7752
   59MOL0     C 8072   8.027   6.949   5.409  0.4691  0.3723  0.1535
   59MOL0     H 8073   8.367   6.858   5.739 -0.3591  1.4893  1.1468
   59MOL0     H 8074   8.491   6.852   5.926  1.3940 -0.4392  1.2260
   59MOL0     H 8075   8.689   6.473   6.074  1.7313  2.4406  1.3987
   59MOL0     H 8076   8.523   6.430   6.148 -1.5236  0.3400 -1.6141
   59MOL0     H 8077   8.591   6.608   6.328  3.1118  1.7107  2.2670
   59MOL0     H 8078   8.673   6.451   6.337 -0.6828 -0.7277  0.3802
   59MOL0     H 8079   8.805   6.658   6.161  0.4065 -0.6362 -1.6358
   59MOL0     H 8080   8.795   6.702   6.338 -2.7893 -1.2707  1.5617
   59MOL0     H 8081   8.927   6.520   6.419  2.4269  1.0136 -0.3157
   59MOL0     H 8082   8.888   6.433   6.264  0.4237  0.2899 -0.7426
   59MOL0     H 8083   9.048   6.697   6.302 -1.3371  0.3045  0.5574
   59MOL0     H 8084   9.039   6.602   6.152 -2.0580  1.8598  0.7225
   59MOL0     H 8085   9.168   6.464   6.397 -1.0101 -1.6952 -0.4405
   59MOL0     H 8086   9.150   6.402   6.241 -0.0347  0.6137 -1.5502
   59MOL0     H 8087   9.320   6.621   6.327 -1.5198 -0.4483  1.0301
   59MOL0     H 8088   9.300   6.581   6.145  2.3757  0.1750 -0.1636
   59MOL0     H 8089   9.404   6.384   6.354 -3.8849 -1.3946  0.4076
   59MOL0     H 8090   9.370   6.345   6.189 -0.1700 -0.8539  1.8354
   59MOL0     H 8091   9.540   6.394   5.995 -0.2328  1.6229 -0.6310
   59MOL0     H 8092   9.850   6.361   5.998 -0.1275  0.1968 -2.7914
   59MOL0     H 8093   9.928   6.516   6.050 -1.0178  1.8352 -0.2473
   59MOL0     H 8094   9.752   6.470   5.800 -0.3825  0.8823 -0.1481
   59MOL0     H 8095   9.775   6.620   5.870  0.6984  1.3331  0.3861
   59MOL0     H 8096  10.027   6.579   5.870 -0.4390 -1.3847  0.5429
   59MOL0     H 8097  10.006   6.429   5.786 -0.6858  0.4489 -0.0367
   59MOL0     H 8098  10.019   6.556   5.587 -0.5939 -4.4342  2.1723
   59MOL0     H 8099   9.850   6.585   5.625 -0.6932  2.2842 -1.7424
   59MOL0     H 8100   9.800   6.888   5.553 -0.1772 -3.3994 -0.8797
   59MOL0     H 8101   9.839   7.091   5.251  3.8574 -1.7720  1.8078
   59MOL0     H 8102   9.748   7.099   5.404 -0.9236 -1.7654  1.8815
   59MOL0     H 8103   9.746   6.950   5.310 -1.8786  1.1350 -1.6123
   59MOL0     H 8104  10.358   7.248   5.170  2.5353 -1.5528  0.0382
   59MOL0     H 8105  10.380   7.400   4.961  0.3555 -0.5281  1.4971
   59MOL0     H 8106  10.352   7.154   4.612  2.1253  1.3943  0.4882
   59MOL0     H 8107  10.188   7.228   4.574 -0.1578 -1.0717 -1.7451
   59MOL0     H 8108  10.457   7.380   4.516  0.2106  0.1950  0.8348
   59MOL0     H 8109  10.366   7.295   4.393 -1.3670 -2.9458  0.7936
   59MOL0     H 8110  10.157   7.434   4.506 -1.1152  2.4273 -2.5435
   59MOL0     H 8111  10.256   7.476   4.371 -0.0537 -1.1239 -0.5737
   59MOL0     H 8112  10.417   7.599   4.508  0.6439 -0.8765  2.0706
   59MOL0     H 8113  10.284   7.585   4.639  0.1289 -3.6079 -0.8051
   59MOL0     H 8114  10.287   7.724   4.373 -1.3437 -0.1458 -0.8974
   59MOL0     H 8115  10.132   7.686   4.448 -0.2108  2.9482 -1.1541
   59MOL0     H 8116  10.345   7.862   4.565 -0.0165 -3.4733  1.7155
   59MOL0     H 8117  10.189   7.826   4.640  1.2568 -1.4282  0.7532
   59MOL0     H 8118  10.082   7.948   4.420 -0.4333  0.7672  0.2588
   59MOL0     H 8119  10.236   7.991   4.381 -1.5216 -2.5405 -1.6264
   59MOL0     H 8120  10.158   8.186   4.500  1.7403  0.0039 -1.0429
   59MOL0     H 8121  10.292   8.111   4.593 -0.0995  1.3847 -0.0177
   59MOL0     H 8122  10.165   7.098   4.740  0.7609 -3.7436  0.7717
   59MOL0     H 8123  10.120   6.966   4.958  1.6598 -0.4146 -3.1708
   59MOL0     H 8124  10.269   6.916   5.405  0.4402  0.0961  0.5316
   59MOL0     H 8125  10.215   6.763   5.575  0.6738  1.8872  1.6476
   59MOL0     H 8126   8.454   6.418   5.942 -2.6631  0.5308  2.2335
   59MOL0     H 8127   8.342   6.429   5.715 -0.5338  1.2495 -2.1276
   59MOL0     H 8128   8.290   6.534   5.369  3.2509  2.4468  1.0317
   59MOL0     H 8129   8.253   6.525   5.144 -0.4936  0.4320 -1.5631
   59MOL0     H 8130   8.126   6.576   4.815 -1.5189 -0.0048 -0.8218
   59MOL0     H 8131   8.226   6.516   4.948  0.8541  1.7697  3.5885
   59MOL0     H 8132   7.915   6.489   4.945 -0.9403 -2.1646 -2.2154
   59MOL0     H 8133   8.041   6.436   5.066  1.8767 -0.1609  0.5782
   59MOL0     H 8134   8.065   6.352   4.775  0.4042  1.8541  0.6276
   59MOL0     H 8135   8.143   6.285   4.913  0.3202 -0.0102 -0.1676
   59MOL0     H 8136   7.975   6.113   4.842 -2.6286 -0.5331 -1.4414
   59MOL0     H 8137   7.850   6.235   4.862  0.0639 -1.3946 -0.6781
   59MOL0     H 8138   8.002   6.111   5.257 -0.2954  2.1803  0.6270
   59MOL0     H 8139   8.006   6.875   5.149 -1.4278  1.0179  0.1128
   59MOL0     H 8140   8.099   7.025   5.440  0.0088  0.9881 -0.2448
   59MOL0     H 8141   7.959   6.994   5.334 -1.0204 -3.4671 -1.0401
   59MOL0     H 8142   7.960   6.915   5.488  1.0157  0.5212  0.6859
   60MOL0     O 8143   2.389   5.737   0.598  0.5824 -0.3695  0.4293
   60MOL0     C 8144   2.477   5.654   0.612 -0.4021  0.3751  0.2166
   60MOL0     O 8145   2.605   5.680   0.651  0.0444  0.4246  0.1158
   60MOL0     C 8146   2.618   5.804   0.707  0.4957  0.5082  0.3981
   60MOL0     C 8147   2.669   5.921   0.641 -0.8891  0.2104  0.6223
   60MOL0     C 8148   2.669   6.045   0.699 -0.4197  0.2860 -0.1020
   60MOL0     C 8149   2.624   6.055   0.829 -0.0593 -0.2949  0.7110
   60MOL0     O 8150   2.622   6.181   0.887 -0.9146  0.0593  0.8289
   60MOL0     C 8151   2.562   6.202   1.014  0.9376  0.3514 -0.1444
   60MOL0     C 8152   2.592   6.335   1.089 -0.5606 -0.8184  0.1661
   60MOL0     C 8153   2.747   6.353   1.113  0.5740 -0.2901 -0.7823
   60MOL0     C 8154   2.779   6.274   1.233  0.3777 -0.7694 -0.1199
   60MOL0     C 8155   2.924   6.223   1.252 -0.2762 -0.4458  0.7724
   60MOL0     C 8156   3.027   6.321   1.299  0.2446 -0.6367 -0.3223
   60MOL0     C 8157   3.069   6.429   1.191  0.0831  0.6175 -0.0719
   60MOL0     C 8158   3.215   6.461   1.199 -0.2175 -0.1508  0.2384
   60MOL0     N 8159   3.255   6.560   1.098  0.2165 -0.2618  0.1080
   60MOL0     C 8160   3.380   6.573   1.046 -0.4147 -0.4114 -0.2757
   60MOL0     C 8161   3.380   6.696   0.991  1.1048  0.3110 -0.2014
   60MOL0     C 8162   3.497   6.763   0.927  0.1235 -0.3159  0.4545
   60MOL0     C 8163   3.556   6.879   1.012  0.5687 -0.1302  0.4381
   60MOL0     C 8164   3.618   6.813   1.148 -0.4098 -0.4770  0.1207
   60MOL0     C 8165   3.696   6.917   1.227  0.4423 -0.6399 -0.9772
   60MOL0     O 8166   3.780   6.994   1.139 -0.9905 -0.0780  0.7492
   60MOL0     C 8167   3.915   6.976   1.144 -0.8994 -1.2536  0.9956
   60MOL0     C 8168   3.985   7.092   1.141 -0.4091 -0.0570  0.3003
   60MOL0     C 8169   4.127   7.098   1.155  0.4097  0.8575  0.2742
   60MOL0     C 8170   4.189   7.231   1.131  0.6308  0.0458  0.0762
   60MOL0     C 8171   4.205   6.973   1.158 -0.7435 -0.4079 -0.3544
   60MOL0     C 8172   4.349   6.965   1.144 -0.2353 -0.4046 -0.3898
   60MOL0     O 8173   4.436   7.049   1.214 -0.0739 -0.7397 -0.1928
   60MOL0     C 8174   4.566   7.053   1.194  0.5969  0.9407  0.1156
   60MOL0     C 8175   4.624   7.106   1.073 -0.3180 -0.4666  0.4992
   60MOL0     C 8176   4.763   7.128   1.062 -0.2026  0.0842 -0.4471
   60MOL0     C 8177   4.838   7.099   1.171 -0.4429  1.0152  0.2904
   60MOL0     O 8178   4.963   7.132   1.145 -0.1357 -0.8635  0.2889
   60MOL0     C 8179   5.068   7.084   1.224  0.0824  0.6154  0.2187
   60MOL0     C 8180   5.094   6.936   1.193  0.5091  0.1610  0.0591
   60MOL0     C 8181   5.227   6.896   1.269  0.6156  0.2617  0.0188
   60MOL0     C 8182   5.353   6.899   1.178 -0.1283  0.2406 -0.4333
   60MOL0     C 8183   5.486   6.883   1.254  0.1885  0.0266  0.6905
   60MOL0     C 8184   5.578   6.790   1.181 -0.4000 -0.8410  0.8122
   60MOL0     C 8185   5.717   6.773   1.239 -1.4578  0.3859  0.9733
   60MOL0     C 8186   5.800   6.673   1.158 -0.6643 -0.2544 -0.4304
   60MOL0    Cl 8187   5.945   6.661   1.266  0.4301 -0.1027  0.1933
   60MOL0     C 8188   4.786   7.040   1.290  0.1957  0.7189  0.4624
   60MOL0     C 8189   4.652   7.013   1.297  0.2793 -0.6092 -1.1800
   60MOL0     O 8190   4.384   6.876   1.063  0.7318  0.8255 -0.3345
   60MOL0     C 8191   4.133   6.857   1.141  1.2811  0.2583  0.3160
   60MOL0     C 8192   3.986   6.854   1.134  0.5541 -0.9440 -0.1375
   60MOL0     N 8193   3.266   6.763   1.020 -0.4743  0.0076  0.0608
   60MOL0     N 8194   3.194   6.681   1.087 -0.4517 -0.7154 -0.0619
   60MOL0     C 8195   2.565   5.946   0.896 -0.6591 -0.4481 -0.5664
   60MOL0     C 8196   2.557   5.820   0.830  0.8239 -0.6414  0.0685
   60MOL0     C 8197   2.435   5.512   0.577  0.2763  0.0821 -0.6085
   60MOL0     C 8198   2.303   5.485   0.554 -0.0090 -0.4687 -0.5460
   60MOL0     C 8199   2.252   5.359   0.543  1.4755  0.0692  0.4118
   60MOL0     C 8200   2.339   5.249   0.532 -0.3547  0.9937 -1.0978
   60MOL0     O 8201   2.305   5.114   0.507 -0.2282 -0.0135 -0.4748
   60MOL0     C 8202   2.166   5.080   0.493  0.6920 -0.8985  0.2682
   60MOL0     C 8203   2.078   5.107   0.613 -0.3294  0.0933  0.1444
   60MOL0     C 8204   1.926   5.130   0.565 -0.3492 -0.2616  0.0830
   60MOL0     C 8205   1.823   5.141   0.686 -0.4634  0.6500 -0.2649
   60MOL0     C 8206   1.725   5.040   0.691  0.0215 -0.8443 -1.5856
   60MOL0     C 8207   1.642   4.953   0.681 -0.0659  0.2554 -0.0753
   60MOL0     C 8208   2.470   5.265   0.569  0.2944  0.0303  0.0674
   60MOL0     C 8209   2.520   5.395   0.595 -0.0514  0.6710  0.3080
   60MOL0     C 8210   2.671   5.402   0.617 -0.2960 -0.2887  0.6083
   60MOL0     H 8211   2.692   5.886   0.541 -0.8899 -0.0089  0.6975
   60MOL0     H 8212   2.690   6.128   0.633  1.8730 -0.9617 -1.0401
   60MOL0     H 8213   2.588   6.121   1.083  1.3807  0.4258 -0.2212
   60MOL0     H 8214   2.453   6.206   1.003  1.0345  0.7346 -1.0256
   60MOL0     H 8215   2.561   6.419   1.027  0.9424 -1.2525 -1.2792
   60MOL0     H 8216   2.534   6.339   1.181  0.9571  0.2234  1.1272
   60MOL0     H 8217   2.796   6.335   1.017 -1.5441  2.2448 -2.5023
   60MOL0     H 8218   2.757   6.458   1.142 -1.1142 -1.0413  3.1802
   60MOL0     H 8219   2.756   6.340   1.317  0.9227 -0.3249 -0.3110
   60MOL0     H 8220   2.715   6.186   1.230 -1.6542  0.5458  1.7053
   60MOL0     H 8221   2.965   6.189   1.157 -0.6887  0.4149  0.2718
   60MOL0     H 8222   2.919   6.133   1.315  0.6493 -2.1604 -1.4603
   60MOL0     H 8223   2.993   6.373   1.389  1.6482 -0.5680  0.2103
   60MOL0     H 8224   3.121   6.269   1.321  1.7792  1.1772 -2.2152
   60MOL0     H 8225   3.000   6.514   1.193 -1.4307 -0.1341 -5.2209
   60MOL0     H 8226   3.041   6.388   1.094  1.8077 -1.6863  0.3329
   60MOL0     H 8227   3.237   6.499   1.299 -4.9287 -1.6408  2.1522
   60MOL0     H 8228   3.268   6.368   1.179 -0.3962 -0.0660 -0.6671
   60MOL0     H 8229   3.462   6.502   1.051 -1.3360 -1.5580 -1.0390
   60MOL0     H 8230   3.460   6.807   0.834  1.0481 -3.4289 -1.5570
   60MOL0     H 8231   3.576   6.691   0.901  0.4657  0.7707 -1.6994
   60MOL0     H 8232   3.625   6.938   0.952 -1.1539  2.0194  0.4731
   60MOL0     H 8233   3.484   6.951   1.051  1.3855 -0.7201  3.3061
   60MOL0     H 8234   3.539   6.775   1.213  2.6058 -0.6917  4.1044
   60MOL0     H 8235   3.690   6.735   1.122 -0.3300 -1.3382  2.6178
   60MOL0     H 8236   3.629   6.984   1.283  1.9719  0.7682 -0.7785
   60MOL0     H 8237   3.747   6.855   1.301 -0.3356 -1.7408 -1.3365
   60MOL0     H 8238   3.936   7.187   1.122  1.1667  0.9697  1.1273
   60MOL0     H 8239   4.220   7.253   1.028  1.5769  0.0047  0.3422
   60MOL0     H 8240   4.272   7.236   1.202 -0.0442 -1.4844  1.0123
   60MOL0     H 8241   4.124   7.316   1.155  2.4075  1.9320 -1.3623
   60MOL0     H 8242   4.572   7.126   0.980 -0.0893 -0.8474  0.2883
   60MOL0     H 8243   4.801   7.156   0.964 -0.6138 -1.5052 -1.0878
   60MOL0     H 8244   5.159   7.144   1.224 -0.6644  1.7645 -0.2997
   60MOL0     H 8245   5.038   7.089   1.329  1.3009  0.7637  0.5860
   60MOL0     H 8246   5.008   6.870   1.210 -0.2230  0.3361 -2.4274
   60MOL0     H 8247   5.110   6.915   1.087  0.4912 -0.1110  0.1107
   60MOL0     H 8248   5.213   6.792   1.301 -1.6940  0.2518 -0.8614
   60MOL0     H 8249   5.240   6.960   1.357  0.9476  1.3532 -0.8011
   60MOL0     H 8250   5.362   6.991   1.120  1.7714  0.1117 -0.4050
   60MOL0     H 8251   5.337   6.809   1.118 -1.4223  0.2174 -0.0734
   60MOL0     H 8252   5.529   6.984   1.262  0.8570 -0.3235  1.7556
   60MOL0     H 8253   5.460   6.858   1.358 -1.1428 -2.2363 -0.1308
   60MOL0     H 8254   5.575   6.822   1.077 -1.5082  2.3323  1.7129
   60MOL0     H 8255   5.529   6.692   1.181 -1.7224 -0.4153 -4.1960
   60MOL0     H 8256   5.699   6.720   1.333 -2.1755 -0.6384  0.2694
   60MOL0     H 8257   5.777   6.865   1.244 -1.5755  1.0241 -4.1185
   60MOL0     H 8258   5.830   6.718   1.063 -0.1732 -1.1261 -0.6903
   60MOL0     H 8259   5.739   6.584   1.145 -0.2191 -0.8193  1.0894
   60MOL0     H 8260   4.848   7.006   1.373  0.0706  0.3540  0.4043
   60MOL0     H 8261   4.613   6.964   1.385 -0.0519  1.2112 -0.2857
   60MOL0     H 8262   4.195   6.768   1.142  0.0087 -0.6580 -0.3438
   60MOL0     H 8263   3.926   6.764   1.131  2.1095 -1.9902 -1.5519
   60MOL0     H 8264   2.531   5.945   0.999  0.0142 -1.5723 -0.3377
   60MOL0     H 8265   2.510   5.738   0.882 -1.8033  0.4736 -0.3750
   60MOL0     H 8266   2.229   5.565   0.553  0.4561  0.1435  2.5039
   60MOL0     H 8267   2.145   5.349   0.533  1.3431  0.0078  1.6710
   60MOL0     H 8268   2.122   5.136   0.410 -1.4503 -1.2927  1.0671
   60MOL0     H 8269   2.146   4.975   0.468 -0.2895 -0.1560 -2.4217
   60MOL0     H 8270   2.103   5.185   0.685  1.6975  0.9811 -1.4268
   60MOL0     H 8271   2.094   5.015   0.670  2.1764 -1.1010 -2.2606
   60MOL0     H 8272   1.930   5.219   0.501  3.8400  0.2902  0.8291
   60MOL0     H 8273   1.897   5.050   0.495  0.0549  1.7444 -2.5569
   60MOL0     H 8274   1.760   5.230   0.675  0.7796  1.7466  1.0390
   60MOL0     H 8275   1.864   5.150   0.787 -0.8203  1.4413 -0.1820
   60MOL0     H 8276   1.569   4.875   0.672 -1.9909  2.2154 -3.2309
   60MOL0     H 8277   2.530   5.176   0.583 -0.1970 -0.4405 -0.7594
   60MOL0     H 8278   2.725   5.306   0.621  2.4253  1.1780  1.2548
   60MOL0     H 8279   2.736   5.441   0.539  0.9878 -1.4793  1.0360
   60MOL0     H 8280   2.681   5.461   0.708 -0.8767  0.9847 -0.1355
   61MOL0     O 8281   0.442   8.951  10.073 -0.3087  0.3592 -0.9100
   61MOL0     C 8282   0.533   9.006  10.125  0.3260  0.0593 -0.5926
   61MOL0     O 8283   0.524   9.134  10.169  0.2868  0.3526  0.4376
   61MOL0     C 8284   0.411   9.206  10.173 -0.8201  0.2793  0.3139
   61MOL0     C 8285   0.409   9.335  10.122 -0.0103  0.4769  0.0230
   61MOL0     C 8286   0.291   9.412  10.129 -0.8703  0.4593  0.0170
   61MOL0     C 8287   0.177   9.361  10.192 -1.1300 -0.8818  0.3867
   61MOL0     O 8288   0.074   9.443  10.184  0.3079  0.7383 -0.6120
   61MOL0     C 8289  -0.056   9.414  10.247 -0.5195  0.2328 -0.5680
   61MOL0     C 8290  -0.084   9.539  10.339  0.0119  0.5145  1.0501
   61MOL0     C 8291  -0.056   9.672  10.263  0.0374  0.5163 -0.7381
   61MOL0     C 8292  -0.117   9.786  10.349 -0.4031  0.8598 -0.1391
   61MOL0     C 8293  -0.268   9.799  10.324  0.2716 -0.0815  0.0771
   61MOL0     C 8294  -0.338   9.898  10.415 -0.1408  0.7859  0.3104
   61MOL0     C 8295  -0.480   9.916  10.374  0.4518 -0.2781  0.3286
   61MOL0     C 8296  -0.574   9.822  10.443  1.5802 -0.0666  0.6382
   61MOL0     N 8297  -0.711   9.885  10.423  0.1788  0.3859 -0.0675
   61MOL0     C 8298  -0.757   9.996  10.495  0.4165  0.5085  0.0317
   61MOL0     C 8299  -0.882  10.013  10.465 -0.8308  0.5201  0.0972
   61MOL0     C 8300  -0.980  10.113  10.514 -0.5246 -0.7696  0.2850
   61MOL0     C 8301  -0.913  10.253  10.527  0.0110 -0.5277 -0.1577
   61MOL0     C 8302  -0.998  10.352  10.606  0.3333 -0.4582  0.4444
   61MOL0     C 8303  -0.943  10.490  10.557 -0.5341  0.9697 -0.2710
   61MOL0     O 8304  -0.969  10.598  10.649  0.2888  0.2564  0.1513
   61MOL0     C 8305  -0.881  10.709  10.653  1.0686  0.0390 -0.1391
   61MOL0     C 8306  -0.885  10.794  10.765 -0.0537  0.1252  0.0917
   61MOL0     C 8307  -0.807  10.911  10.781  0.5793  0.2281 -0.0493
   61MOL0     C 8308  -0.838  10.982  10.918 -0.4327 -0.6758  0.1923
   61MOL0     C 8309  -0.723  10.950  10.679 -0.2651 -0.7659 -0.9333
   61MOL0     C 8310  -0.636  11.069  10.691 -0.0653 -0.5519  0.0939
   61MOL0     O 8311  -0.545  11.096  10.591  0.1848  0.4771  0.9626
   61MOL0     C 8312  -0.464  11.207  10.612 -0.0307  0.5849  0.3666
   61MOL0     C 8313  -0.471  11.328  10.535  0.6839  0.4387 -0.2080
   61MOL0     C 8314  -0.397  11.439  10.571 -0.2284 -0.7871  0.4562
   61MOL0     C 8315  -0.312  11.432  10.682  0.5678 -0.4337 -0.5012
   61MOL0     O 8316  -0.235  11.535  10.723  0.2584 -0.3051  0.0906
   61MOL0     C 8317  -0.123  11.515  10.802 -0.4151  1.1567  0.0962
   61MOL0     C 8318  -0.024  11.625  10.765  0.0960 -0.7090  0.9031
   61MOL0     C 8319   0.118  11.596  10.820  0.2689 -0.3524 -0.4951
   61MOL0     C 8320   0.119  11.589  10.969  0.0973 -0.1504  0.3491
   61MOL0     C 8321   0.270  11.561  11.023  1.0513 -0.1544 -0.7962
   61MOL0     C 8322   0.252  11.495  11.165 -0.6079 -0.3204 -0.0837
   61MOL0     C 8323   0.384  11.437  11.223  0.4653  0.1439  0.1385
   61MOL0     C 8324   0.399  11.515  11.357  0.0863 -1.3344  0.3643
   61MOL0    Cl 8325   0.530  11.447  11.441 -0.2533  0.1794  0.6646
   61MOL0     C 8326  -0.304  11.314  10.756  0.3002  0.4099 -0.2934
   61MOL0     C 8327  -0.380  11.207  10.720 -0.5582 -0.5977  0.8526
   61MOL0     O 8328  -0.639  11.134  10.795  0.3832  0.0294 -0.6178
   61MOL0     C 8329  -0.706  10.862  10.576 -0.1571 -0.1141 -0.4700
   61MOL0     C 8330  -0.783  10.741  10.566  1.2989 -0.3501  0.9064
   61MOL0     N 8331  -0.913   9.919  10.376  0.5039  0.4716 -0.1163
   61MOL0     N 8332  -0.810   9.841  10.350  0.7352  0.7035  0.4016
   61MOL0     C 8333   0.179   9.227  10.236  0.0264 -0.3422 -0.5640
   61MOL0     C 8334   0.299   9.153  10.221 -0.6129 -0.3214 -0.9221
   61MOL0     C 8335   0.656   8.928  10.143  0.8630 -0.7197 -0.2371
   61MOL0     C 8336   0.652   8.793  10.093  0.6282 -0.3158 -0.3521
   61MOL0     C 8337   0.769   8.720  10.078 -0.0072 -0.3727 -0.1776
   61MOL0     C 8338   0.878   8.754  10.151 -0.8608 -0.3578  0.2821
   61MOL0     O 8339   0.996   8.680  10.136 -0.7403 -0.5056  0.1267
   61MOL0     C 8340   1.010   8.560  10.203  0.0397  0.6119 -0.3165
   61MOL0     C 8341   1.033   8.576  10.358  0.8327 -0.8237  0.0660
   61MOL0     C 8342   1.057   8.448  10.436  0.1005 -0.4559  0.1866
   61MOL0     C 8343   1.053   8.464  10.592 -0.2642 -0.1786  1.0633
   61MOL0     C 8344   1.138   8.575  10.630 -0.3262  0.2921 -0.2036
   61MOL0     C 8345   1.194   8.669  10.668 -0.0556 -0.1358 -0.2271
   61MOL0     C 8346   0.883   8.885  10.217 -0.4773  1.1651  1.2994
   61MOL0     C 8347   0.774   8.973  10.213  0.5214 -0.1574 -0.5214
   61MOL0     C 8348   0.801   9.109  10.266 -0.1658  0.3425 -0.0944
   61MOL0     H 8349   0.508   9.372  10.096  0.7097 -1.5254 -0.3282
   61MOL0     H 8350   0.286   9.512  10.088 -1.9010  0.2229 -0.4888
   61MOL0     H 8351  -0.053   9.318  10.300  0.9347  1.0774  0.9820
   61MOL0     H 8352  -0.133   9.421  10.170 -0.9845  2.1652  0.0318
   61MOL0     H 8353  -0.188   9.537  10.374 -0.6311  1.4347 -0.6896
   61MOL0     H 8354  -0.015   9.531  10.423  3.5888  1.2553 -1.5735
   61MOL0     H 8355   0.051   9.683  10.242  0.5209 -0.3324  1.0859
   61MOL0     H 8356  -0.109   9.665  10.167 -1.8643  1.2832  0.2150
   61MOL0     H 8357  -0.103   9.756  10.454  0.4716  0.7648 -0.2788
   61MOL0     H 8358  -0.068   9.882  10.331 -1.6044  1.6339  0.5645
   61MOL0     H 8359  -0.313   9.702  10.351 -1.7023  0.8575  0.3306
   61MOL0     H 8360  -0.288   9.817  10.218  1.5488 -2.9559 -0.7595
   61MOL0     H 8361  -0.326   9.860  10.517  1.2757 -1.9375 -0.7570
   61MOL0     H 8362  -0.291   9.997  10.407  0.5369  0.4707  0.3082
   61MOL0     H 8363  -0.497   9.903  10.267 -0.0630  1.2119  0.2054
   61MOL0     H 8364  -0.510  10.018  10.399 -1.5780 -1.2065  1.9635
   61MOL0     H 8365  -0.573   9.725  10.391  1.4904 -0.1933  0.8729
   61MOL0     H 8366  -0.541   9.810  10.546  4.5435  3.9179  0.4040
   61MOL0     H 8367  -0.696  10.070  10.546 -0.1702  0.3306  1.0106
   61MOL0     H 8368  -1.028  10.065  10.600 -1.0892  0.6257  0.7706
   61MOL0     H 8369  -1.065  10.122  10.445  2.3080  2.5669 -3.2702
   61MOL0     H 8370  -0.816  10.242  10.577  0.7802  3.2373 -0.5327
   61MOL0     H 8371  -0.899  10.282  10.423 -2.5692 -2.7866 -1.2620
   61MOL0     H 8372  -1.106  10.343  10.589  0.1038  0.1507  1.4922
   61MOL0     H 8373  -0.966  10.330  10.709  3.8230 -0.1497 -0.4394
   61MOL0     H 8374  -0.836  10.485  10.537 -0.4451 -0.0576  0.3744
   61MOL0     H 8375  -0.991  10.514  10.462 -0.1319  1.5444 -0.3338
   61MOL0     H 8376  -0.960  10.782  10.842  1.5026 -0.6756  1.5402
   61MOL0     H 8377  -0.900  10.929  10.992 -1.2520 -0.6424 -0.4591
   61MOL0     H 8378  -0.893  11.076  10.906  1.8577  0.9985  1.8501
   61MOL0     H 8379  -0.749  11.003  10.978  1.8060 -1.0091 -2.8361
   61MOL0     H 8380  -0.547  11.341  10.459 -0.3202  0.1120  0.7163
   61MOL0     H 8381  -0.397  11.534  10.520  1.6266 -1.1553 -0.3242
   61MOL0     H 8382  -0.159  11.520  10.906 -0.2426 -0.6744  0.2655
   61MOL0     H 8383  -0.067  11.425  10.776 -0.7323  0.8929  0.3201
   61MOL0     H 8384  -0.010  11.620  10.657  2.2991 -1.3990  1.1769
   61MOL0     H 8385  -0.061  11.723  10.796  0.9431  0.1873 -0.7977
   61MOL0     H 8386   0.184  11.676  10.784 -0.3573  0.1738 -0.4808
   61MOL0     H 8387   0.139  11.498  10.778  1.6637 -0.7086  0.9401
   61MOL0     H 8388   0.066  11.494  10.984  1.2408 -0.9382 -0.4323
   61MOL0     H 8389   0.072  11.673  11.020 -1.2797 -0.3092 -0.6006
   61MOL0     H 8390   0.313  11.477  10.968 -2.2246 -2.6934  0.1291
   61MOL0     H 8391   0.326  11.655  11.023  0.4209  0.2265 -1.0962
   61MOL0     H 8392   0.182  11.413  11.152 -1.2662  0.3316 -0.7903
   61MOL0     H 8393   0.211  11.573  11.229  1.6357 -0.6091  1.8330
   61MOL0     H 8394   0.473  11.461  11.166  2.3653  2.5068  3.7645
   61MOL0     H 8395   0.375  11.329  11.242 -1.9029  0.4508  1.1520
   61MOL0     H 8396   0.306  11.524  11.414 -1.7968 -0.8003 -2.5767
   61MOL0     H 8397   0.421  11.617  11.324 -1.5383 -0.9892  0.2694
   61MOL0     H 8398  -0.245  11.302  10.845 -1.7199 -3.5758  0.7443
   61MOL0     H 8399  -0.369  11.118  10.781  1.0849 -1.7438 -1.0137
   61MOL0     H 8400  -0.631  10.874  10.499 -0.0866  0.4534 -0.3209
   61MOL0     H 8401  -0.759  10.674  10.484  0.2685  0.2458  0.1029
   61MOL0     H 8402   0.097   9.185  10.293 -0.1291  1.1788  0.3898
   61MOL0     H 8403   0.295   9.057  10.271 -1.0000 -0.0459 -0.4206
   61MOL0     H 8404   0.566   8.745  10.047  0.0718 -0.8906  1.2425
   61MOL0     H 8405   0.773   8.631  10.016  1.6089  0.2419 -1.0243
   61MOL0     H 8406   0.922   8.498  10.183  0.2811  0.5751 -1.3045
   61MOL0     H 8407   1.097   8.508  10.161 -1.4564 -3.1019  0.7009
   61MOL0     H 8408   0.945   8.624  10.402  1.1590 -2.4270  2.7299
   61MOL0     H 8409   1.119   8.639  10.378 -1.7541  3.9324 -2.1171
   61MOL0     H 8410   0.983   8.374  10.403 -0.4726  0.3564 -0.3848
   61MOL0     H 8411   1.157   8.405  10.423  0.1936 -0.0935 -0.3479
   61MOL0     H 8412   1.093   8.384  10.655  0.5303  0.7675  1.7729
   61MOL0     H 8413   0.947   8.475  10.619 -0.6409 -0.1387 -0.3344
   61MOL0     H 8414   1.253   8.754  10.698 -0.9211  0.7462 -0.9493
   61MOL0     H 8415   0.975   8.914  10.265  1.0625  1.0124 -1.3567
   61MOL0     H 8416   0.770   9.107  10.371 -5.0924 -0.2191 -1.2821
   61MOL0     H 8417   0.908   9.130  10.262 -0.1938  0.6358  0.6956
   61MOL0     H 8418   0.742   9.186  10.215 -2.6459 -2.3736 -1.6470
   62MOL0     O 8419  11.355   6.042  10.295 -0.0582  0.0852  0.3035
   62MOL0     C 8420  11.352   5.926  10.320 -0.5450 -0.4539  0.5109
   62MOL0     O 8421  11.454   5.855  10.367  0.2747  0.5965 -0.1054
   62MOL0     C 8422  11.585   5.894  10.332 -0.5102  0.6465  0.0458
   62MOL0     C 8423  11.637   6.023  10.305 -0.1939 -0.1197 -0.5021
   62MOL0     C 8424  11.778   6.044  10.269  0.2972 -0.9346  0.3767
   62MOL0     C 8425  11.861   5.935  10.260 -1.6379 -0.3505 -0.5964
   62MOL0     O 8426  11.992   5.968  10.246  0.6362 -0.9851 -0.3079
   62MOL0     C 8427  12.086   5.886  10.322  0.0857  0.3982  0.6907
   62MOL0     C 8428  12.213   5.970  10.340 -0.1990  0.2236  0.1683
   62MOL0     C 8429  12.268   6.035  10.213 -0.2907 -0.8927  0.0109
   62MOL0     C 8430  12.383   6.131  10.265 -0.4935 -0.8331  0.5550
   62MOL0     C 8431  12.482   6.164  10.145  0.3197  0.0169 -0.0540
   62MOL0     C 8432  12.589   6.272  10.174 -1.1479  0.4201 -0.4342
   62MOL0     C 8433  12.642   6.323  10.043 -0.3291 -0.2012  0.4010
   62MOL0     C 8434  12.690   6.230   9.936  0.0067 -1.0949  0.1281
   62MOL0     N 8435  12.811   6.149   9.967  0.8385  0.2556  0.8055
   62MOL0     C 8436  12.810   6.031  10.038 -0.2388 -0.6083  0.5448
   62MOL0     C 8437  12.946   6.004  10.065  0.0577 -0.1844 -0.1307
   62MOL0     C 8438  13.002   5.895  10.151  0.5592 -0.0510  0.9405
   62MOL0     C 8439  13.022   5.934  10.298  0.4278  0.0125 -0.1179
   62MOL0     C 8440  12.897   5.969  10.376 -0.5457  0.1409  0.0069
   62MOL0     C 8441  12.810   5.855  10.407 -0.1289 -0.6366  0.4114
   62MOL0     O 8442  12.714   5.844  10.309  0.4747 -0.9074 -0.1677
   62MOL0     C 8443  12.607   5.760  10.341 -0.7371  0.6225 -0.5660
   62MOL0     C 8444  12.597   5.689  10.458  0.1678 -0.5828 -0.5700
   62MOL0     C 8445  12.494   5.602  10.490 -0.2617 -0.7777 -0.0820
   62MOL0     C 8446  12.496   5.543  10.629 -0.8991  0.3723  0.5184
   62MOL0     C 8447  12.400   5.576  10.390  0.4052 -0.0921  0.2841
   62MOL0     C 8448  12.294   5.471  10.410  0.1341 -0.4114  0.5301
   62MOL0     O 8449  12.257   5.398  10.299 -0.3169 -0.0394 -0.4476
   62MOL0     C 8450  12.136   5.334  10.290  0.0234 -0.7768  0.3203
   62MOL0     C 8451  12.005   5.393  10.308  0.2301 -0.5768 -0.8250
   62MOL0     C 8452  11.886   5.330  10.283 -0.3791 -0.2173  0.0897
   62MOL0     C 8453  11.895   5.198  10.236 -0.5336  0.1973 -0.5190
   62MOL0     O 8454  11.782   5.121  10.219 -0.2541  0.5136 -0.3392
   62MOL0     C 8455  11.667   5.135  10.302  1.1019 -0.3130 -0.7303
   62MOL0     C 8456  11.591   5.001  10.295  0.0435  0.1080  0.1638
   62MOL0     C 8457  11.515   4.968  10.158 -0.4227 -0.6095 -0.9270
   62MOL0     C 8458  11.447   4.832  10.162 -0.5566 -0.0867  0.0870
   62MOL0     C 8459  11.390   4.794  10.033  0.5697  0.1593  0.3806
   62MOL0     C 8460  11.259   4.857  10.010 -0.1620 -0.1367 -0.1137
   62MOL0     C 8461  11.146   4.776  10.070  0.4098 -0.1503  0.1940
   62MOL0     C 8462  11.012   4.843  10.048  0.3978  0.7994  0.7307
   62MOL0    Cl 8463  10.876   4.745  10.093  0.1291 -0.0745  0.0642
   62MOL0     C 8464  12.025   5.140  10.207 -0.2155  1.1579  0.0255
   62MOL0     C 8465  12.143   5.205  10.242  1.0139  0.2840  0.5616
   62MOL0     O 8466  12.252   5.451  10.528  0.1977 -0.7873  0.0025
   62MOL0     C 8467  12.398   5.650  10.270 -0.5882 -0.0355  0.1518
   62MOL0     C 8468  12.497   5.744  10.255 -0.4217  0.1592 -0.5029
   62MOL0     N 8469  13.009   6.117  10.017 -0.1903 -0.0267  1.0284
   62MOL0     N 8470  12.940   6.194   9.954  0.6138  0.1820  0.0766
   62MOL0     C 8471  11.812   5.807  10.286 -0.1719  0.8666 -0.2061
   62MOL0     C 8472  11.678   5.787  10.332 -0.9702  0.2766  0.8189
   62MOL0     C 8473  11.220   5.852  10.325  0.2253 -0.5006  0.5433
   62MOL0     C 8474  11.207   5.741  10.403  0.9906 -0.2065 -0.6272
   62MOL0     C 8475  11.083   5.683  10.437 -0.0118 -0.5964 -0.1982
   62MOL0     C 8476  10.968   5.722  10.368 -1.1076  0.2313 -0.7857
   62MOL0     O 8477  10.860   5.638  10.391 -0.0187  0.1451 -0.2652
   62MOL0     C 8478  10.773   5.610  10.278 -0.2021 -0.4723  0.8849
   62MOL0     C 8479  10.631   5.673  10.295  0.1486  0.5507 -0.3069
   62MOL0     C 8480  10.560   5.641  10.430  0.3153 -0.4600 -0.0587
   62MOL0     C 8481  10.508   5.506  10.446 -0.4118  0.1973 -0.2263
   62MOL0     C 8482  10.387   5.475  10.362  0.1816 -0.4278 -0.3825
   62MOL0     C 8483  10.285   5.446  10.308  0.7116 -0.5422  0.0651
   62MOL0     C 8484  10.970   5.831  10.286 -0.7180 -0.2792  1.0965
   62MOL0     C 8485  11.096   5.902  10.278 -1.1427  0.4076 -0.0825
   62MOL0     C 8486  11.103   6.014  10.174 -0.1873 -0.3654 -0.3126
   62MOL0     H 8487  11.572   6.110  10.311  0.7376  0.4736  3.0570
   62MOL0     H 8488  11.818   6.142  10.245 -1.1072 -0.5574 -0.5704
   62MOL0     H 8489  12.126   5.806  10.259  0.1440  0.1959  0.9841
   62MOL0     H 8490  12.046   5.834  10.409  0.5901 -2.7057 -0.7714
   62MOL0     H 8491  12.170   6.058  10.391 -1.3576 -0.4699  0.4237
   62MOL0     H 8492  12.290   5.915  10.396 -0.2570 -2.6453 -2.3617
   62MOL0     H 8493  12.318   5.969  10.141  3.1309  3.2702 -1.9246
   62MOL0     H 8494  12.197   6.099  10.158  1.3352  0.6135 -0.4123
   62MOL0     H 8495  12.339   6.227  10.296  1.8825  1.0360 -1.5030
   62MOL0     H 8496  12.441   6.082  10.344 -0.2955  1.1477  1.7134
   62MOL0     H 8497  12.416   6.200  10.065  2.1905  0.3700 -1.5164
   62MOL0     H 8498  12.528   6.074  10.103 -2.1816  0.1847 -3.6074
   62MOL0     H 8499  12.550   6.359  10.227 -0.5848  0.3208  0.1558
   62MOL0     H 8500  12.679   6.232  10.223 -0.7252 -2.1619 -3.0258
   62MOL0     H 8501  12.731   6.383  10.064 -1.4869  2.0630 -0.8902
   62MOL0     H 8502  12.563   6.378   9.992 -0.0038 -0.2079 -0.1161
   62MOL0     H 8503  12.616   6.167   9.885 -0.5821  0.9658 -1.7347
   62MOL0     H 8504  12.722   6.294   9.853 -1.7003  1.2098  1.1333
   62MOL0     H 8505  12.730   5.967  10.075 -0.8888  0.5868  1.2794
   62MOL0     H 8506  13.098   5.866  10.107 -0.1313 -0.0026 -0.6820
   62MOL0     H 8507  12.948   5.801  10.136  2.3253 -0.7260 -2.2851
   62MOL0     H 8508  13.091   5.865  10.346  1.0216  0.9985  0.4756
   62MOL0     H 8509  13.076   6.028  10.289 -1.2523  0.9450 -1.0978
   62MOL0     H 8510  12.933   6.017  10.467 -0.5219 -2.5436  1.5133
   62MOL0     H 8511  12.837   6.042  10.319 -1.0718  1.3440  2.0099
   62MOL0     H 8512  12.862   5.761  10.424 -2.5147 -2.6732 -2.5802
   62MOL0     H 8513  12.757   5.876  10.500 -1.3606 -2.6927  0.2207
   62MOL0     H 8514  12.663   5.716  10.540  1.5499  0.6625 -2.0357
   62MOL0     H 8515  12.563   5.597  10.697  0.1566 -0.5515  0.2317
   62MOL0     H 8516  12.517   5.437  10.618 -2.4994 -0.1148  1.7764
   62MOL0     H 8517  12.404   5.545  10.689 -0.5817  1.2624  0.9945
   62MOL0     H 8518  11.990   5.488  10.360  1.7093 -0.4562 -0.5619
   62MOL0     H 8519  11.795   5.386  10.295 -0.4380 -0.0628 -0.9597
   62MOL0     H 8520  11.698   5.173  10.400 -0.1067 -1.1456  0.0092
   62MOL0     H 8521  11.598   5.212  10.265 -1.9545 -2.9523 -1.0137
   62MOL0     H 8522  11.660   4.920  10.322 -0.2243  0.9349  3.8722
   62MOL0     H 8523  11.517   5.002  10.376  1.2006  3.1965  1.3487
   62MOL0     H 8524  11.589   4.968  10.077  1.1742  0.6423  0.4788
   62MOL0     H 8525  11.446   5.052  10.151  1.5892  1.5014  2.0527
   62MOL0     H 8526  11.372   4.828  10.242  3.6914  0.0816  4.5939
   62MOL0     H 8527  11.533   4.770  10.188 -1.4167 -0.4372  2.3561
   62MOL0     H 8528  11.460   4.811   9.951  0.6306 -3.9364 -0.6510
   62MOL0     H 8529  11.374   4.685  10.033  0.6697  0.1189  2.1036
   62MOL0     H 8530  11.232   4.880   9.906 -3.3397  0.5893  0.7402
   62MOL0     H 8531  11.268   4.960  10.045  1.2186 -0.5701  0.8830
   62MOL0     H 8532  11.162   4.761  10.177  1.6779 -1.2683 -0.1250
   62MOL0     H 8533  11.143   4.679  10.018  0.3997  0.6585 -1.3924
   62MOL0     H 8534  11.003   4.862   9.941 -2.0753  2.0549  1.0984
   62MOL0     H 8535  10.990   4.936  10.101  0.8665  0.4979  1.4740
   62MOL0     H 8536  12.035   5.037  10.173  0.1959  0.5940  1.7438
   62MOL0     H 8537  12.238   5.162  10.213  0.3754  0.0799 -1.3663
   62MOL0     H 8538  12.311   5.628  10.210  0.4362 -3.2806 -0.3644
   62MOL0     H 8539  12.502   5.807  10.167  0.6315  2.3587  1.0502
   62MOL0     H 8540  11.876   5.724  10.259  1.8645  2.4976 -0.5418
   62MOL0     H 8541  11.639   5.687  10.350 -2.1069 -0.0716 -2.8169
   62MOL0     H 8542  11.301   5.700  10.440  0.5572 -0.3243  0.3623
   62MOL0     H 8543  11.086   5.600  10.506  0.8493 -2.3773 -2.2596
   62MOL0     H 8544  10.826   5.642  10.188 -0.4039 -0.7071  0.6795
   62MOL0     H 8545  10.766   5.501  10.268 -0.3390 -0.2220 -3.5150
   62MOL0     H 8546  10.555   5.661  10.218  1.2532 -0.1629 -1.3139
   62MOL0     H 8547  10.650   5.781  10.299  2.5327  0.2666 -1.9217
   62MOL0     H 8548  10.632   5.670  10.507 -0.3174 -0.6196  0.6049
   62MOL0     H 8549  10.483   5.714  10.457 -1.0439 -0.4967 -3.3700
   62MOL0     H 8550  10.477   5.491  10.550 -2.0388  1.4687 -0.5003
   62MOL0     H 8551  10.594   5.439  10.429  1.3225  1.1674  3.5945
   62MOL0     H 8552  10.192   5.427  10.259  0.9412 -2.5834  0.3156
   62MOL0     H 8553  10.889   5.863  10.221  1.7518  0.3069 -1.9776
   62MOL0     H 8554  11.182   5.999  10.100  0.2289 -0.2017  0.0915
   62MOL0     H 8555  11.006   6.019  10.125 -0.9202  0.7941  1.1623
   62MOL0     H 8556  11.127   6.111  10.220  2.7554 -1.3274  0.4091
   63MOL0     O 8557   4.874   7.745   2.711 -0.3877  1.3338  0.4443
   63MOL0     C 8558   4.795   7.844   2.725 -0.3361 -0.1368 -0.9698
   63MOL0     O 8559   4.820   7.949   2.796  0.4198 -0.0240  0.0172
   63MOL0     C 8560   4.935   7.946   2.869  0.7751 -0.5999 -0.3033
   63MOL0     C 8561   4.923   7.961   3.004 -0.3343  0.5259  0.5637
   63MOL0     C 8562   5.036   7.985   3.090  0.2747  0.2226  0.2830
   63MOL0     C 8563   5.166   7.983   3.032 -0.4965 -0.2270 -0.1412
   63MOL0     O 8564   5.272   7.985   3.120 -0.6260  0.4701 -0.1156
   63MOL0     C 8565   5.408   7.994   3.078 -0.6142 -1.0424  1.4812
   63MOL0     C 8566   5.492   7.977   3.199 -0.4606  0.2088 -0.0474
   63MOL0     C 8567   5.478   8.107   3.283  0.0914  0.7116 -0.5741
   63MOL0     C 8568   5.504   8.076   3.436 -0.1441  0.2080  0.7735
   63MOL0     C 8569   5.641   8.015   3.458  0.2914  0.7355 -0.2251
   63MOL0     C 8570   5.650   7.970   3.604 -0.3292 -0.1791 -0.3060
   63MOL0     C 8571   5.782   7.904   3.639 -0.2901  0.0776  0.1404
   63MOL0     C 8572   5.812   7.839   3.783 -0.7762 -0.4374  0.4962
   63MOL0     N 8573   5.935   7.751   3.773 -0.1039  0.0377 -0.0446
   63MOL0     C 8574   5.940   7.617   3.738 -0.1862 -1.0463  1.5281
   63MOL0     C 8575   6.074   7.593   3.744 -1.0182 -0.1888 -1.0098
   63MOL0     C 8576   6.146   7.465   3.724  0.7837  0.3898 -1.3077
   63MOL0     C 8577   6.156   7.421   3.582 -0.8330 -0.4421  1.0920
   63MOL0     C 8578   6.298   7.481   3.528  0.0980  0.7649  0.3992
   63MOL0     C 8579   6.326   7.437   3.380 -0.3319 -0.2486 -0.2818
   63MOL0     O 8580   6.365   7.301   3.374 -0.6371  0.1233 -0.2576
   63MOL0     C 8581   6.498   7.272   3.352  0.5793 -0.9369 -0.1242
   63MOL0     C 8582   6.522   7.145   3.294  0.0304 -0.2932  0.6963
   63MOL0     C 8583   6.646   7.095   3.270 -0.4416 -0.4892  0.3415
   63MOL0     C 8584   6.664   6.962   3.212  0.3186 -0.7952  0.5731
   63MOL0     C 8585   6.761   7.172   3.315  0.0944 -0.1938  0.7985
   63MOL0     C 8586   6.900   7.130   3.313 -0.4732  0.1853 -0.0276
   63MOL0     O 8587   6.985   7.187   3.412  0.1260 -0.8294  0.1093
   63MOL0     C 8588   7.121   7.150   3.427 -0.4467  0.2278  0.0435
   63MOL0     C 8589   7.175   7.082   3.535  0.8606  0.3003  0.0379
   63MOL0     C 8590   7.300   7.025   3.528  0.2264 -0.0324  0.5183
   63MOL0     C 8591   7.386   7.049   3.423 -0.4029  0.1021  1.3159
   63MOL0     O 8592   7.511   6.990   3.432  0.3454  0.2017  0.5964
   63MOL0     C 8593   7.622   7.066   3.388  0.6293 -0.1826  0.7815
   63MOL0     C 8594   7.708   6.977   3.310 -0.0360 -0.0244  0.3026
   63MOL0     C 8595   7.827   7.043   3.245 -0.2259 -0.7367 -0.1789
   63MOL0     C 8596   7.911   6.946   3.164  0.9275  0.0198  0.6372
   63MOL0     C 8597   8.033   7.010   3.089  0.3411 -0.3059  0.3934
   63MOL0     C 8598   8.132   6.897   3.037 -0.1677 -0.1412 -0.0261
   63MOL0     C 8599   8.270   6.949   2.998  1.0894  1.1669 -0.4440
   63MOL0     C 8600   8.330   6.870   2.877  0.6646 -0.5197 -0.0699
   63MOL0    Cl 8601   8.341   6.692   2.905  0.2523  0.1496 -0.4018
   63MOL0     C 8602   7.341   7.130   3.316 -0.0343  0.2463 -1.1270
   63MOL0     C 8603   7.210   7.172   3.319  0.6972  0.0418 -0.4469
   63MOL0     O 8604   6.933   7.048   3.226 -0.2272 -0.4206  0.3006
   63MOL0     C 8605   6.742   7.299   3.373  0.0458  0.2615  0.2366
   63MOL0     C 8606   6.610   7.349   3.397 -0.4492 -0.4378  0.3505
   63MOL0     N 8607   6.147   7.715   3.778  0.1017  0.6263  0.1644
   63MOL0     N 8608   6.058   7.811   3.793 -0.3799  0.5936  0.1003
   63MOL0     C 8609   5.182   7.962   2.892  0.3611 -0.4840  0.5228
   63MOL0     C 8610   5.066   7.944   2.815  1.0621  0.4002  0.1443
   63MOL0     C 8611   4.663   7.828   2.676 -0.4670 -0.0524  1.1224
   63MOL0     C 8612   4.620   7.908   2.565  0.8256 -0.0614 -1.4315
   63MOL0     C 8613   4.487   7.900   2.518  0.1190  0.1910  0.1658
   63MOL0     C 8614   4.400   7.805   2.560  0.1829  0.0437 -0.0951
   63MOL0     O 8615   4.277   7.788   2.497 -0.1712  0.6442  0.1715
   63MOL0     C 8616   4.284   7.754   2.354  0.1132  0.3688 -0.5800
   63MOL0     C 8617   4.145   7.726   2.300  1.1669  0.3009  0.2597
   63MOL0     C 8618   4.052   7.858   2.308  0.3444 -0.7715 -0.3002
   63MOL0     C 8619   3.931   7.849   2.215  0.3677 -0.2184  1.2150
   63MOL0     C 8620   3.873   7.980   2.212 -0.0340  0.2611 -0.2862
   63MOL0     C 8621   3.798   8.077   2.215 -0.3620  0.3286  0.2023
   63MOL0     C 8622   4.448   7.722   2.663  0.5780  0.2742 -0.1821
   63MOL0     C 8623   4.571   7.733   2.728  0.6447  0.2050  0.8088
   63MOL0     C 8624   4.598   7.645   2.845  0.3648 -0.5312 -0.0353
   63MOL0     H 8625   4.824   7.972   3.048 -0.5971 -1.8598  0.6498
   63MOL0     H 8626   5.019   7.992   3.197 -2.7376 -2.6306  0.1457
   63MOL0     H 8627   5.433   8.093   3.039 -2.7734 -0.2948  1.8583
   63MOL0     H 8628   5.423   7.912   3.007 -4.4009  0.2470 -1.1620
   63MOL0     H 8629   5.463   7.887   3.254  1.5134  0.4558  1.5063
   63MOL0     H 8630   5.597   7.963   3.172 -0.2242  1.7567  0.0018
   63MOL0     H 8631   5.533   8.192   3.241  0.0610  0.1325 -1.8270
   63MOL0     H 8632   5.375   8.143   3.271 -0.6357 -0.6493  1.1671
   63MOL0     H 8633   5.490   8.172   3.486 -0.5124  1.5152 -1.6507
   63MOL0     H 8634   5.423   8.011   3.471  1.6593 -1.6944  1.6852
   63MOL0     H 8635   5.725   8.081   3.436  2.0711 -0.5484  2.2143
   63MOL0     H 8636   5.662   7.925   3.398 -1.8077  0.5418 -0.7471
   63MOL0     H 8637   5.646   8.059   3.667  2.2345 -1.3792  1.7397
   63MOL0     H 8638   5.576   7.893   3.629  1.7727 -2.1544  0.1800
   63MOL0     H 8639   5.865   7.972   3.617  1.5699 -2.2651 -0.5765
   63MOL0     H 8640   5.785   7.819   3.569  1.6675 -0.9012  1.3068
   63MOL0     H 8641   5.838   7.912   3.861 -0.5519 -0.4067  0.3952
   63MOL0     H 8642   5.726   7.779   3.811 -0.1229 -1.1337  1.0456
   63MOL0     H 8643   5.859   7.552   3.705  0.5838 -1.3250  0.1393
   63MOL0     H 8644   6.086   7.386   3.770 -1.8231  3.0815  0.2736
   63MOL0     H 8645   6.242   7.477   3.774 -1.4647  0.7656  3.4542
   63MOL0     H 8646   6.167   7.313   3.591  2.9978 -0.1095  2.1803
   63MOL0     H 8647   6.076   7.444   3.510 -0.8281  4.6450  2.3561
   63MOL0     H 8648   6.296   7.590   3.520  0.7805  0.7060 -0.9533
   63MOL0     H 8649   6.375   7.450   3.598  1.0175 -1.2361 -1.3580
   63MOL0     H 8650   6.239   7.447   3.316 -1.1702 -0.0604  0.8657
   63MOL0     H 8651   6.402   7.500   3.332  3.6445 -0.6686  4.5906
   63MOL0     H 8652   6.431   7.095   3.261 -0.7338  0.4315  1.6088
   63MOL0     H 8653   6.741   6.917   3.274 -0.9684 -0.9172  2.1388
   63MOL0     H 8654   6.698   6.973   3.108  1.4011  1.3150  1.0871
   63MOL0     H 8655   6.569   6.908   3.203 -0.4030  0.3974  0.7298
   63MOL0     H 8656   7.096   7.061   3.606  1.3676  1.1882  0.8992
   63MOL0     H 8657   7.328   6.959   3.609  1.0009  1.1720  1.2625
   63MOL0     H 8658   7.589   7.158   3.339  0.6109 -0.7324 -0.2622
   63MOL0     H 8659   7.677   7.097   3.478 -0.7821 -1.4882  2.1556
   63MOL0     H 8660   7.728   6.892   3.375  0.3433 -0.6836 -0.6522
   63MOL0     H 8661   7.652   6.921   3.235 -1.5016 -1.8468  2.6379
   63MOL0     H 8662   7.883   7.094   3.325 -0.2644  1.0866 -1.2655
   63MOL0     H 8663   7.795   7.126   3.181  1.3679 -0.0813 -0.1722
   63MOL0     H 8664   7.840   6.913   3.087  0.6373 -2.6706  1.9250
   63MOL0     H 8665   7.943   6.865   3.231 -0.9695 -0.1403  1.4377
   63MOL0     H 8666   8.002   7.076   3.008  0.0310 -0.9143  0.0080
   63MOL0     H 8667   8.087   7.063   3.168 -0.0950 -0.3709  0.7350
   63MOL0     H 8668   8.084   6.841   2.956  2.5329  0.4762 -2.2336
   63MOL0     H 8669   8.163   6.838   3.124  1.4357 -1.0288 -1.1401
   63MOL0     H 8670   8.336   6.933   3.083  1.9023  0.6323 -1.1523
   63MOL0     H 8671   8.262   7.056   2.977 -1.4850  0.8886 -1.2311
   63MOL0     H 8672   8.436   6.894   2.866  1.0447 -1.1303  1.8908
   63MOL0     H 8673   8.276   6.896   2.785 -1.1354  3.0277  1.7491
   63MOL0     H 8674   7.398   7.148   3.225  2.0906 -1.5511 -0.2380
   63MOL0     H 8675   7.182   7.229   3.232  1.8543  2.8886  0.8839
   63MOL0     H 8676   6.823   7.369   3.392  2.4670 -1.7107 -2.0722
   63MOL0     H 8677   6.604   7.439   3.456  1.2162  0.6890 -1.0839
   63MOL0     H 8678   5.277   7.958   2.838  0.7804  1.6472  0.9791
   63MOL0     H 8679   5.080   7.927   2.709 -0.8413 -1.6358  0.1621
   63MOL0     H 8680   4.686   7.976   2.512  1.5706  1.0209  0.7396
   63MOL0     H 8681   4.454   7.967   2.439 -0.2945 -0.1114  0.0762
   63MOL0     H 8682   4.328   7.841   2.305 -0.9698  1.7868  0.8800
   63MOL0     H 8683   4.345   7.664   2.341 -0.0956 -0.9113  4.8513
   63MOL0     H 8684   4.108   7.633   2.344  1.7951  0.2461  0.6903
   63MOL0     H 8685   4.149   7.713   2.191  0.5550 -1.5116  0.4168
   63MOL0     H 8686   4.015   7.861   2.411  3.6703  3.0224  1.0394
   63MOL0     H 8687   4.107   7.951   2.298 -1.0400  0.2366  1.0823
   63MOL0     H 8688   3.859   7.772   2.244 -0.4381 -1.4317 -3.2072
   63MOL0     H 8689   3.962   7.826   2.112 -2.8441 -2.5058  0.6095
   63MOL0     H 8690   3.733   8.156   2.248  1.7734  2.0196  0.5962
   63MOL0     H 8691   4.376   7.649   2.699  1.7955 -1.1107 -0.4263
   63MOL0     H 8692   4.506   7.636   2.903  0.7610  0.6915  0.8197
   63MOL0     H 8693   4.639   7.549   2.814 -0.9669 -0.6075 -1.7734
   63MOL0     H 8694   4.666   7.691   2.917 -0.2283 -0.4216  0.4647
   64MOL0     O 8695   8.009   4.535   8.793  0.0815  0.2445 -0.0477
   64MOL0     C 8696   8.010   4.416   8.818 -0.8471  0.2021  0.2582
   64MOL0     O 8697   7.898   4.329   8.829  0.4677 -0.5871  0.3864
   64MOL0     C 8698   7.767   4.384   8.838 -0.4711  0.5069  0.8593
   64MOL0     C 8699   7.670   4.333   8.753  0.8267 -0.1029 -0.1382
   64MOL0     C 8700   7.546   4.403   8.746  0.1431  0.5673 -0.9916
   64MOL0     C 8701   7.524   4.514   8.823  0.1899  0.1942 -0.1784
   64MOL0     O 8702   7.403   4.575   8.825  0.0952  0.3933 -0.0681
   64MOL0     C 8703   7.346   4.611   8.702  0.2478 -0.0927  0.5738
   64MOL0     C 8704   7.239   4.716   8.722 -0.8938  0.1119 -0.1542
   64MOL0     C 8705   7.317   4.846   8.725  0.3423  0.2017  0.8682
   64MOL0     C 8706   7.326   4.896   8.590 -0.8356 -0.1372  0.6612
   64MOL0     C 8707   7.368   5.044   8.585 -0.5066 -0.9246 -0.2525
   64MOL0     C 8708   7.378   5.075   8.434 -1.3886 -0.7666  0.6368
   64MOL0     C 8709   7.435   5.221   8.414  0.5894  0.2676  0.1696
   64MOL0     C 8710   7.465   5.270   8.266 -1.0521 -0.8587  0.1272
   64MOL0     N 8711   7.560   5.379   8.280  0.7075  0.4362  0.1802
   64MOL0     C 8712   7.544   5.498   8.359  0.2666 -1.1766  1.0714
   64MOL0     C 8713   7.658   5.568   8.333 -0.6266  0.3390 -0.8053
   64MOL0     C 8714   7.695   5.705   8.389 -0.5394  0.6113 -0.3158
   64MOL0     C 8715   7.783   5.696   8.520 -0.3746  0.2363  0.1628
   64MOL0     C 8716   7.877   5.572   8.516 -0.1107 -0.0164 -1.2057
   64MOL0     C 8717   7.937   5.553   8.658  0.9399  0.7262 -0.2466
   64MOL0     O 8718   8.020   5.434   8.652 -0.0137  0.2446  0.0022
   64MOL0     C 8719   8.096   5.400   8.760 -0.0927 -0.2081 -0.3046
   64MOL0     C 8720   8.132   5.486   8.865 -0.0168 -0.8481 -0.2792
   64MOL0     C 8721   8.221   5.440   8.969 -0.9104  0.0107 -0.0764
   64MOL0     C 8722   8.248   5.536   9.082 -0.4222  0.2435 -1.2776
   64MOL0     C 8723   8.300   5.326   8.956  1.0865 -0.0662  0.0862
   64MOL0     C 8724   8.423   5.294   9.051  0.5420  0.2907  0.1796
   64MOL0     O 8725   8.445   5.158   9.077 -0.1120 -0.4138 -0.0280
   64MOL0     C 8726   8.558   5.118   9.144  1.5306 -0.1270 -0.6559
   64MOL0     C 8727   8.684   5.132   9.086 -0.0980  0.3424 -0.8864
   64MOL0     C 8728   8.798   5.074   9.145 -0.1023  0.5282 -0.1564
   64MOL0     C 8729   8.784   4.977   9.245 -0.7253  0.6673  0.0222
   64MOL0     O 8730   8.901   4.910   9.288 -0.5523  0.4330  1.2605
   64MOL0     C 8731   8.912   4.855   9.414 -0.3458 -0.6836 -0.2732
   64MOL0     C 8732   8.909   4.701   9.394 -0.4102 -0.4693 -0.0029
   64MOL0     C 8733   8.912   4.618   9.523 -0.2062 -0.5015  0.0475
   64MOL0     C 8734   8.893   4.462   9.501  0.9229  0.3907  0.0814
   64MOL0     C 8735   8.873   4.393   9.643 -0.0141  0.2550 -0.7126
   64MOL0     C 8736   8.880   4.242   9.630 -0.6626  0.1414  0.6399
   64MOL0     C 8737   8.786   4.177   9.526  0.7241  1.1084 -0.2591
   64MOL0     C 8738   8.632   4.181   9.548 -0.6203  0.2641  0.9221
   64MOL0    Cl 8739   8.531   4.096   9.426  0.0913  0.1152 -0.1961
   64MOL0     C 8740   8.653   4.951   9.290 -0.1104 -0.1109  0.9832
   64MOL0     C 8741   8.538   5.026   9.243 -0.5092  0.6398  0.7290
   64MOL0     O 8742   8.492   5.382   9.100  0.3176  0.5670  0.4683
   64MOL0     C 8743   8.267   5.248   8.845  0.1769 -0.4216 -0.0584
   64MOL0     C 8744   8.170   5.280   8.757  0.3023 -0.6518  0.1053
   64MOL0     N 8745   7.734   5.491   8.252 -0.1046 -0.0477  0.2204
   64MOL0     N 8746   7.682   5.379   8.224  0.2748  0.6499  0.2572
   64MOL0     C 8747   7.629   4.564   8.904  0.4983 -0.2198  0.1198
   64MOL0     C 8748   7.744   4.489   8.918  0.2144 -0.7951 -0.5728
   64MOL0     C 8749   8.137   4.352   8.811 -0.6490  0.1949  0.4160
   64MOL0     C 8750   8.148   4.225   8.753 -0.8845  0.6345 -0.4533
   64MOL0     C 8751   8.273   4.165   8.728 -0.9373 -0.4512  0.2957
   64MOL0     C 8752   8.391   4.238   8.749 -0.2804  0.7307  1.2423
   64MOL0     O 8753   8.511   4.163   8.718  0.6278  0.0941 -0.5175
   64MOL0     C 8754   8.633   4.231   8.741 -0.7868  0.2109  0.3063
   64MOL0     C 8755   8.741   4.133   8.674  0.5313 -0.0638  0.1855
   64MOL0     C 8756   8.752   4.154   8.520  0.5339  0.2732  0.6088
   64MOL0     C 8757   8.658   4.069   8.434 -0.0316  0.3854 -0.1487
   64MOL0     C 8758   8.667   4.066   8.287 -0.6521 -0.4630 -0.6427
   64MOL0     C 8759   8.683   4.055   8.169  0.1977  0.3111 -0.2749
   64MOL0     C 8760   8.383   4.363   8.816 -0.2831  0.3757  0.4323
   64MOL0     C 8761   8.255   4.417   8.848 -0.9538 -0.6665 -0.6978
   64MOL0     C 8762   8.259   4.553   8.918 -0.8802 -0.8031  0.3742
   64MOL0     H 8763   7.701   4.249   8.691  2.7723 -1.1395  2.0505
   64MOL0     H 8764   7.466   4.369   8.680 -1.2733  0.9971  0.4382
   64MOL0     H 8765   7.285   4.529   8.664 -1.0503  2.0725 -2.4883
   64MOL0     H 8766   7.420   4.626   8.623  1.9634  1.4689  2.3641
   64MOL0     H 8767   7.172   4.706   8.636 -0.5614 -0.6471 -0.3315
   64MOL0     H 8768   7.193   4.708   8.820 -2.2670 -1.2190 -0.8721
   64MOL0     H 8769   7.269   4.918   8.792  1.5500 -0.5056  2.5863
   64MOL0     H 8770   7.410   4.839   8.782 -0.0159  0.2587  1.4723
   64MOL0     H 8771   7.397   4.835   8.533  0.9203  2.8213 -0.5877
   64MOL0     H 8772   7.232   4.888   8.535 -0.0870 -0.1218 -0.6554
   64MOL0     H 8773   7.465   5.052   8.635 -0.1488  0.2243 -1.0787
   64MOL0     H 8774   7.287   5.100   8.633 -1.4478 -0.9890 -1.6890
   64MOL0     H 8775   7.433   5.006   8.370 -1.1014  1.5596 -1.8224
   64MOL0     H 8776   7.276   5.069   8.393 -1.1550  3.0550 -0.9573
   64MOL0     H 8777   7.529   5.239   8.466  0.1105  2.2102  0.4343
   64MOL0     H 8778   7.356   5.283   8.458 -1.4427  0.5503 -3.4131
   64MOL0     H 8779   7.504   5.193   8.200  0.5903  0.6122 -0.7023
   64MOL0     H 8780   7.379   5.324   8.224  2.5034  3.1907 -2.9196
   64MOL0     H 8781   7.459   5.520   8.423  0.4531 -1.4166  1.4056
   64MOL0     H 8782   7.605   5.763   8.412 -1.9698 -1.8389  0.6558
   64MOL0     H 8783   7.752   5.746   8.305  1.2361 -1.7596 -0.3784
   64MOL0     H 8784   7.839   5.789   8.534  1.5790 -1.1235  1.8655
   64MOL0     H 8785   7.715   5.689   8.605 -0.1260  1.0390  0.4389
   64MOL0     H 8786   7.828   5.476   8.498  3.6511 -2.2857 -0.4024
   64MOL0     H 8787   7.950   5.585   8.435  0.7877  0.8238 -0.2798
   64MOL0     H 8788   7.992   5.641   8.693  2.0377  0.9012 -2.2355
   64MOL0     H 8789   7.855   5.530   8.726 -0.5932  0.2812 -2.1472
   64MOL0     H 8790   8.079   5.581   8.866 -2.0522 -1.8177 -2.6068
   64MOL0     H 8791   8.293   5.481   9.164  2.1621 -0.5619 -3.0929
   64MOL0     H 8792   8.157   5.578   9.124  0.0667 -2.0159  2.4913
   64MOL0     H 8793   8.308   5.622   9.049 -2.0412  1.5115 -1.0427
   64MOL0     H 8794   8.688   5.190   8.994  1.0707 -0.3011 -1.2644
   64MOL0     H 8795   8.898   5.076   9.102  0.5359 -0.1562  1.2254
   64MOL0     H 8796   9.005   4.890   9.461 -1.1018  0.1804  0.6244
   64MOL0     H 8797   8.832   4.897   9.475 -1.3650  0.3468 -2.2375
   64MOL0     H 8798   8.816   4.675   9.342 -0.1200 -2.6177  0.4689
   64MOL0     H 8799   8.993   4.666   9.333  2.0421  0.2440  2.7196
   64MOL0     H 8800   8.842   4.665   9.593  1.2080 -0.9045  1.8028
   64MOL0     H 8801   9.011   4.624   9.570 -0.2176 -1.2450  0.1639
   64MOL0     H 8802   8.974   4.411   9.448 -1.8993 -1.5287 -2.7314
   64MOL0     H 8803   8.809   4.446   9.434  1.7697 -2.6920 -0.3886
   64MOL0     H 8804   8.945   4.425   9.719 -2.0896  1.0750  0.9926
   64MOL0     H 8805   8.775   4.424   9.679  1.5084  4.2464  0.4700
   64MOL0     H 8806   8.863   4.198   9.729  0.9154  1.0446  1.3489
   64MOL0     H 8807   8.983   4.213   9.607 -1.0574  0.2994 -1.5518
   64MOL0     H 8808   8.798   4.071   9.550 -2.3457  1.2468  2.5308
   64MOL0     H 8809   8.799   4.208   9.421 -0.9532  0.8482 -0.5660
   64MOL0     H 8810   8.599   4.285   9.546 -0.4808  0.2955 -0.2992
   64MOL0     H 8811   8.608   4.140   9.647 -1.2288  1.3953  1.2713
   64MOL0     H 8812   8.656   4.870   9.362  2.0982 -0.3963  0.6610
   64MOL0     H 8813   8.438   5.008   9.281 -0.3398 -0.4185  0.7106
   64MOL0     H 8814   8.303   5.147   8.830 -1.0403 -0.8198 -0.3739
   64MOL0     H 8815   8.159   5.213   8.672  0.8557 -0.4663 -0.1144
   64MOL0     H 8816   7.613   4.658   8.955  1.8582  0.0852  0.0252
   64MOL0     H 8817   7.812   4.540   8.987  0.7954 -0.9664 -1.0123
   64MOL0     H 8818   8.056   4.175   8.724 -0.7726 -1.6921  2.6682
   64MOL0     H 8819   8.275   4.060   8.702  0.4734 -0.8837  1.9349
   64MOL0     H 8820   8.637   4.331   8.696  0.0725 -0.6478 -1.6778
   64MOL0     H 8821   8.654   4.248   8.846  1.0694  3.4862 -0.4534
   64MOL0     H 8822   8.718   4.030   8.702 -1.2443  0.2138 -0.1490
   64MOL0     H 8823   8.834   4.159   8.727  0.8962 -2.1021  0.6389
   64MOL0     H 8824   8.711   4.253   8.500 -3.5450 -1.2471  0.4314
   64MOL0     H 8825   8.857   4.132   8.500  0.2662 -0.1889 -0.3308
   64MOL0     H 8826   8.555   4.104   8.439  0.3437  1.5716 -0.2275
   64MOL0     H 8827   8.671   3.968   8.474 -2.9574  1.2557  3.5758
   64MOL0     H 8828   8.706   4.029   8.067 -0.1631 -1.1585 -0.0046
   64MOL0     H 8829   8.472   4.419   8.842  1.3507 -0.6912 -2.4615
   64MOL0     H 8830   8.357   4.573   8.962 -2.1717  1.0234  2.6978
   64MOL0     H 8831   8.243   4.641   8.855  2.2328  1.1935  2.1364
   64MOL0     H 8832   8.183   4.561   8.997  1.0522 -1.3163  2.3931
   65MOL0     O 8833   5.946   4.268   2.149 -0.3675  0.1574 -0.0236
   65MOL0     C 8834   6.012   4.336   2.227  0.1715  0.5821 -0.8940
   65MOL0     O 8835   5.958   4.427   2.308 -0.0771  0.0729  0.3099
   65MOL0     C 8836   5.823   4.428   2.339  0.1435  0.0964  0.4156
   65MOL0     C 8837   5.774   4.337   2.434 -0.8808 -0.7166  0.6190
   65MOL0     C 8838   5.641   4.335   2.466  0.0646  1.0648  0.7562
   65MOL0     C 8839   5.541   4.414   2.401  0.2399  0.8964  0.0146
   65MOL0     O 8840   5.406   4.396   2.431  0.2317  1.3768  0.0234
   65MOL0     C 8841   5.303   4.468   2.368  0.5288  0.1322  0.2156
   65MOL0     C 8842   5.167   4.457   2.430 -1.0780 -0.0658  1.1510
   65MOL0     C 8843   5.053   4.431   2.333  1.2786 -0.4491  0.7749
   65MOL0     C 8844   5.016   4.282   2.324 -0.1284  0.1579  0.4359
   65MOL0     C 8845   4.874   4.253   2.280 -0.3256  0.0874  0.3325
   65MOL0     C 8846   4.774   4.297   2.388  0.1061  0.4345 -0.1137
   65MOL0     C 8847   4.637   4.229   2.371 -0.4585 -0.3346  0.6707
   65MOL0     C 8848   4.566   4.248   2.233 -0.8564  0.7474 -0.3395
   65MOL0     N 8849   4.527   4.389   2.201 -0.3473  0.1654 -0.0194
   65MOL0     C 8850   4.443   4.405   2.098  0.3271  0.4797  0.0104
   65MOL0     C 8851   4.412   4.532   2.099  0.4504 -0.2164  1.2699
   65MOL0     C 8852   4.319   4.611   2.001  0.3663 -0.8247 -0.4846
   65MOL0     C 8853   4.392   4.629   1.866  0.2074  0.2523  0.7549
   65MOL0     C 8854   4.309   4.665   1.747  0.4554  0.4549  0.2870
   65MOL0     C 8855   4.390   4.697   1.624 -0.5386  0.5884  0.2122
   65MOL0     O 8856   4.309   4.677   1.503  0.3551 -0.1588 -0.6725
   65MOL0     C 8857   4.341   4.735   1.384  0.1449 -0.0727  0.3695
   65MOL0     C 8858   4.281   4.675   1.271 -0.7130 -0.9869  1.0284
   65MOL0     C 8859   4.311   4.716   1.141  0.1360  0.4877  0.6973
   65MOL0     C 8860   4.234   4.641   1.039 -0.6830  0.8566  0.0835
   65MOL0     C 8861   4.399   4.821   1.119 -0.5097  0.1535  0.1484
   65MOL0     C 8862   4.432   4.877   0.984  0.0783 -0.1897  0.5041
   65MOL0     O 8863   4.513   4.989   0.987 -0.4036  0.1154  0.1085
   65MOL0     C 8864   4.581   5.024   0.870 -1.5483 -0.2052  0.5997
   65MOL0     C 8865   4.724   4.992   0.862  0.1239 -0.4511  0.0141
   65MOL0     C 8866   4.794   5.010   0.739  0.7730 -0.9072  0.0740
   65MOL0     C 8867   4.728   5.057   0.627  0.3918  0.4959 -0.5999
   65MOL0     O 8868   4.810   5.067   0.519 -0.4370  0.0362  0.1461
   65MOL0     C 8869   4.754   5.125   0.404 -0.2048 -0.1309  0.3956
   65MOL0     C 8870   4.858   5.114   0.296 -0.2233 -0.6538  0.6113
   65MOL0     C 8871   4.803   5.151   0.156  0.3450  0.0714 -0.4671
   65MOL0     C 8872   4.928   5.166   0.068  0.2805  0.0584 -0.5861
   65MOL0     C 8873   4.975   5.313   0.079  0.1106  0.0322  0.0094
   65MOL0     C 8874   5.061   5.361  -0.025  0.0121  0.2790  0.6890
   65MOL0     C 8875   5.112   5.504   0.010 -0.6585 -0.8887 -0.3975
   65MOL0     C 8876   5.201   5.543  -0.111  0.2480 -0.9387 -0.3904
   65MOL0    Cl 8877   5.350   5.446  -0.141  0.0004 -0.2664 -0.3547
   65MOL0     C 8878   4.589   5.093   0.634  0.0731  0.4444 -0.0404
   65MOL0     C 8879   4.520   5.077   0.753 -0.3526  0.9899 -0.7906
   65MOL0     O 8880   4.373   4.841   0.878  0.9358  0.4791 -0.2956
   65MOL0     C 8881   4.445   4.882   1.235  0.4233 -0.7551 -0.2668
   65MOL0     C 8882   4.423   4.841   1.363 -0.2024 -0.0035 -0.6489
   65MOL0     N 8883   4.476   4.599   2.200 -0.2002 -0.2334  0.3015
   65MOL0     N 8884   4.550   4.509   2.263 -0.1277 -0.1249  0.0843
   65MOL0     C 8885   5.588   4.509   2.310  0.2041  0.3510 -0.3351
   65MOL0     C 8886   5.726   4.515   2.278 -0.4959  0.4910 -0.1985
   65MOL0     C 8887   6.162   4.351   2.213 -1.4341  0.7524  0.1762
   65MOL0     C 8888   6.228   4.266   2.122 -0.9704  1.0787  0.8245
   65MOL0     C 8889   6.364   4.246   2.108  0.0627  0.1399 -0.1469
   65MOL0     C 8890   6.448   4.328   2.189  0.7839  0.4711  0.4654
   65MOL0     O 8891   6.582   4.337   2.200  0.0277  0.5753  0.9464
   65MOL0     C 8892   6.667   4.315   2.089 -0.4358 -0.4772  0.1355
   65MOL0     C 8893   6.683   4.424   1.978 -0.5183  0.4260  0.4197
   65MOL0     C 8894   6.727   4.561   2.031 -0.5951  0.9825 -0.5645
   65MOL0     C 8895   6.612   4.656   2.094 -0.1454 -0.2637 -0.0721
   65MOL0     C 8896   6.498   4.665   2.002  0.6900 -0.3328  1.0262
   65MOL0     C 8897   6.402   4.658   1.930  0.3936 -0.0848  0.1329
   65MOL0     C 8898   6.388   4.414   2.279 -0.3138 -0.0629  0.0668
   65MOL0     C 8899   6.249   4.427   2.293  0.4114  0.7229  0.4209
   65MOL0     C 8900   6.204   4.520   2.404  0.1078  0.3061 -0.1202
   65MOL0     H 8901   5.848   4.275   2.484 -0.3144  0.6092  1.4860
   65MOL0     H 8902   5.606   4.249   2.521  2.5350  0.1342  0.9710
   65MOL0     H 8903   5.297   4.440   2.262  2.4228 -1.1013  0.3863
   65MOL0     H 8904   5.328   4.573   2.383 -1.7437  0.4966  1.8706
   65MOL0     H 8905   5.173   4.379   2.507  2.2155 -1.4735 -0.3638
   65MOL0     H 8906   5.131   4.550   2.475 -2.1694 -0.1877  0.5809
   65MOL0     H 8907   4.960   4.482   2.360  1.3490  0.2833 -0.2886
   65MOL0     H 8908   5.071   4.468   2.232 -1.4918 -0.2901  0.2686
   65MOL0     H 8909   5.094   4.229   2.268 -0.3078 -3.1741  3.0237
   65MOL0     H 8910   5.020   4.242   2.425 -0.6162  2.9102  1.6513
   65MOL0     H 8911   4.855   4.146   2.269 -1.6880  0.4175 -0.8494
   65MOL0     H 8912   4.861   4.292   2.179 -0.3999  1.7027  0.9407
   65MOL0     H 8913   4.818   4.263   2.483 -0.9140  0.3891  0.3581
   65MOL0     H 8914   4.771   4.406   2.391  0.5965  0.4710 -0.8572
   65MOL0     H 8915   4.569   4.261   2.450  0.4844 -1.2496  1.9034
   65MOL0     H 8916   4.643   4.122   2.396 -0.1694  0.1014  2.6007
   65MOL0     H 8917   4.631   4.207   2.155  1.9024  0.5793  1.8742
   65MOL0     H 8918   4.477   4.185   2.239  0.2339 -1.2673 -3.2836
   65MOL0     H 8919   4.404   4.333   2.026 -0.7927  0.7254  0.3559
   65MOL0     H 8920   4.303   4.708   2.049  2.1797 -1.6417  2.0250
   65MOL0     H 8921   4.231   4.547   2.005 -0.4160  0.1778 -1.1623
   65MOL0     H 8922   4.481   4.691   1.873 -0.4148  1.1880  0.5445
   65MOL0     H 8923   4.430   4.534   1.828 -1.5727  1.0486 -3.6709
   65MOL0     H 8924   4.250   4.573   1.736  2.0114 -0.7275  1.3297
   65MOL0     H 8925   4.239   4.745   1.772  0.0883  0.3541 -0.4095
   65MOL0     H 8926   4.414   4.803   1.634 -1.4141  0.7560  0.6817
   65MOL0     H 8927   4.483   4.643   1.606 -0.4336  0.7747  0.1898
   65MOL0     H 8928   4.198   4.610   1.293 -1.6767  0.8621  3.3015
   65MOL0     H 8929   4.166   4.709   0.988 -1.0885 -1.2389 -2.4046
   65MOL0     H 8930   4.167   4.567   1.084  0.1008 -0.1776 -0.3844
   65MOL0     H 8931   4.303   4.599   0.965 -0.5333 -1.3212  1.3484
   65MOL0     H 8932   4.777   4.956   0.950 -0.0728  3.8069  2.0878
   65MOL0     H 8933   4.902   4.996   0.743  0.4970 -3.1878  2.7827
   65MOL0     H 8934   4.672   5.065   0.364 -0.6224  0.3250  0.5684
   65MOL0     H 8935   4.723   5.228   0.422  0.4453 -0.1229  1.5610
   65MOL0     H 8936   4.932   5.187   0.329  1.4693 -0.6703 -2.7728
   65MOL0     H 8937   4.887   5.008   0.290 -0.1150 -0.5455 -0.9811
   65MOL0     H 8938   4.743   5.242   0.164  1.0862  0.3924  3.0416
   65MOL0     H 8939   4.733   5.073   0.126 -1.5133  1.4092  0.2492
   65MOL0     H 8940   4.911   5.135  -0.035  3.1635 -1.5535 -0.6807
   65MOL0     H 8941   5.010   5.095   0.084  0.0958 -0.1230 -0.4248
   65MOL0     H 8942   4.893   5.385   0.074 -1.5194 -1.6309  1.4863
   65MOL0     H 8943   5.021   5.331   0.177 -1.3261  1.9100  0.4014
   65MOL0     H 8944   5.010   5.363  -0.122 -0.1705  0.2144  0.7827
   65MOL0     H 8945   5.142   5.291  -0.048  1.2606  2.0953 -0.7925
   65MOL0     H 8946   5.173   5.504   0.101  2.0917  2.5274 -2.0084
   65MOL0     H 8947   5.030   5.575   0.022  1.3576  1.4563  0.1822
   65MOL0     H 8948   5.234   5.646  -0.091 -0.4736 -0.8061  0.1764
   65MOL0     H 8949   5.126   5.536  -0.190 -1.1979 -1.2401  0.9431
   65MOL0     H 8950   4.548   5.144   0.547 -3.0841 -0.5066  0.7535
   65MOL0     H 8951   4.416   5.103   0.766 -0.2751  0.5325  1.1337
   65MOL0     H 8952   4.507   4.969   1.214 -1.1065 -0.1694 -2.8105
   65MOL0     H 8953   4.456   4.894   1.452 -4.0745 -0.8011  1.4582
   65MOL0     H 8954   5.524   4.576   2.254 -0.7357 -0.1012  0.1876
   65MOL0     H 8955   5.753   4.589   2.203 -0.7188 -0.0325 -0.8104
   65MOL0     H 8956   6.172   4.185   2.076  1.2769 -1.1762  1.7635
   65MOL0     H 8957   6.406   4.171   2.042  0.8318 -0.4877  1.0168
   65MOL0     H 8958   6.769   4.306   2.127  0.0316  2.5276 -0.1348
   65MOL0     H 8959   6.646   4.218   2.044  3.4981 -1.8426  0.7980
   65MOL0     H 8960   6.588   4.413   1.925 -0.6670 -5.7981  1.2384
   65MOL0     H 8961   6.761   4.400   1.905 -0.9932 -0.5935  0.2251
   65MOL0     H 8962   6.793   4.550   2.117  0.1106 -1.6872 -1.3589
   65MOL0     H 8963   6.789   4.613   1.957  3.1490 -1.2542  0.7643
   65MOL0     H 8964   6.659   4.752   2.114 -1.0371  0.5518 -1.7406
   65MOL0     H 8965   6.573   4.616   2.189  0.3596  3.2321  1.7568
   65MOL0     H 8966   6.312   4.650   1.873  1.7674  0.8252 -2.3425
   65MOL0     H 8967   6.456   4.476   2.337  0.7322 -0.2791 -0.8915
   65MOL0     H 8968   6.285   4.572   2.455  0.2222 -0.3174  0.3543
   65MOL0     H 8969   6.135   4.597   2.369 -1.1212 -0.0051  1.4897
   65MOL0     H 8970   6.157   4.461   2.484  4.5968  0.4560  3.0209
   66MOL0     O 8971  11.357   0.734   4.869  0.7677  0.3831 -0.3909
   66MOL0     C 8972  11.396   0.834   4.930 -0.6843 -0.0983  0.5743
   66MOL0     O 8973  11.523   0.853   4.965  1.2266 -0.0899 -0.2130
   66MOL0     C 8974  11.600   0.735   4.962  0.7086 -0.1371  0.4885
   66MOL0     C 8975  11.736   0.757   4.935  0.8211  0.1111  0.2265
   66MOL0     C 8976  11.832   0.648   4.943  0.5038 -0.6774  0.9866
   66MOL0     C 8977  11.796   0.518   4.985  0.2969 -0.3834 -0.1683
   66MOL0     O 8978  11.882   0.416   5.004  0.2699  0.3513 -1.1044
   66MOL0     C 8979  11.840   0.280   4.960 -0.3980  0.0762 -0.0127
   66MOL0     C 8980  11.967   0.206   4.919  0.1060 -0.3620 -0.7026
   66MOL0     C 8981  12.065   0.168   5.031  0.2672  0.3103  0.5274
   66MOL0     C 8982  12.173   0.068   4.990  0.3421  0.2071 -0.3603
   66MOL0     C 8983  12.261   0.033   5.105  0.2444  0.2997 -0.2308
   66MOL0     C 8984  12.340   0.147   5.164  0.1748  0.7742  0.6147
   66MOL0     C 8985  12.428   0.104   5.283 -0.8103  0.1337  0.0396
   66MOL0     C 8986  12.539   0.008   5.238  0.4861  0.1753  0.7341
   66MOL0     N 8987  12.648   0.013   5.332  0.3307 -0.6363 -0.2427
   66MOL0     C 8988  12.657  -0.059   5.456  0.2145 -0.1306  1.2434
   66MOL0     C 8989  12.763   0.001   5.510  0.4760  0.1110  0.6106
   66MOL0     C 8990  12.831  -0.036   5.639  0.5421  0.2644  0.7628
   66MOL0     C 8991  12.982  -0.004   5.648  0.0167  0.4360  0.6122
   66MOL0     C 8992  13.049  -0.046   5.778 -0.7584  0.6704 -0.8475
   66MOL0     C 8993  13.057  -0.199   5.805  0.5702 -0.9514  1.0203
   66MOL0     O 8994  13.121  -0.275   5.701  0.2965  0.3491  0.3097
   66MOL0     C 8995  13.256  -0.291   5.702  0.3683 -1.1246 -0.0661
   66MOL0     C 8996  13.330  -0.275   5.582  0.3069 -0.9110  0.6088
   66MOL0     C 8997  13.471  -0.293   5.567 -0.1179 -1.2199 -0.4983
   66MOL0     C 8998  13.532  -0.266   5.439  0.1953  0.1357 -0.0998
   66MOL0     C 8999  13.543  -0.345   5.683  0.0186  0.4598  0.7315
   66MOL0     C 9000  13.688  -0.367   5.671  0.1023 -0.3094 -0.0940
   66MOL0     O 9001  13.731  -0.469   5.753  0.5104 -0.4143  0.7157
   66MOL0     C 9002  13.862  -0.474   5.797 -1.1802  0.9380  0.5644
   66MOL0     C 9003  13.881  -0.544   5.912  0.9084 -0.4465  1.5179
   66MOL0     C 9004  14.009  -0.557   5.971  0.1844 -0.5534  0.7860
   66MOL0     C 9005  14.122  -0.504   5.910 -0.5838 -0.0211 -0.2653
   66MOL0     O 9006  14.254  -0.521   5.958 -1.4186  0.0372 -0.8516
   66MOL0     C 9007  14.328  -0.398   5.978 -0.7037 -0.6149 -0.2358
   66MOL0     C 9008  14.460  -0.454   6.037  0.1041 -0.5772 -0.0158
   66MOL0     C 9009  14.562  -0.504   5.934  0.3796  0.0832 -0.0106
   66MOL0     C 9010  14.695  -0.533   5.999 -0.2266 -0.1955 -0.2435
   66MOL0     C 9011  14.796  -0.592   5.898 -0.2992 -0.2606  0.5119
   66MOL0     C 9012  14.765  -0.724   5.823 -0.2519 -0.2533 -0.2844
   66MOL0     C 9013  14.878  -0.820   5.791 -0.3319  0.1964  0.0280
   66MOL0     C 9014  14.903  -0.922   5.903  0.0831 -0.6936 -0.2843
   66MOL0    Cl 9015  15.050  -1.018   5.880 -0.3747  0.1366 -0.0567
   66MOL0     C 9016  14.103  -0.440   5.789 -0.2281 -0.5494  0.3685
   66MOL0     C 9017  13.973  -0.416   5.738 -0.0624 -0.1541 -0.7990
   66MOL0     O 9018  13.753  -0.290   5.602 -0.2060 -0.1025 -0.3270
   66MOL0     C 9019  13.466  -0.376   5.791  0.4330  1.5409 -0.3366
   66MOL0     C 9020  13.327  -0.338   5.813 -0.3230  0.6930  0.8052
   66MOL0     N 9021  12.803   0.112   5.432  0.2866  0.4609 -0.4394
   66MOL0     N 9022  12.742   0.116   5.332 -0.3812  0.0434  0.2853
   66MOL0     C 9023  11.662   0.505   5.028 -0.3563 -0.5870 -0.6635
   66MOL0     C 9024  11.570   0.607   5.010  1.3006  0.5038  1.2238
   66MOL0     C 9025  11.306   0.945   4.960  0.0997 -1.3566  0.1401
   66MOL0     C 9026  11.329   1.025   5.074  0.2385 -0.1586 -0.2620
   66MOL0     C 9027  11.248   1.133   5.120 -1.7565  0.1651 -0.4780
   66MOL0     C 9028  11.145   1.180   5.044  0.2632 -0.2484  0.0813
   66MOL0     O 9029  11.087   1.298   5.091  0.2197 -0.3229 -0.9687
   66MOL0     C 9030  11.003   1.378   5.008 -0.1410 -0.2408 -0.4692
   66MOL0     C 9031  11.059   1.492   4.932  0.2481 -0.4394 -0.3252
   66MOL0     C 9032  11.187   1.548   5.003 -0.3563 -0.1132 -0.2478
   66MOL0     C 9033  11.247   1.663   4.926 -0.1366 -0.4554 -0.3494
   66MOL0     C 9034  11.154   1.777   4.920 -0.8825  0.4524  0.7111
   66MOL0     C 9035  11.067   1.863   4.922  0.3549  0.2530 -0.5211
   66MOL0     C 9036  11.123   1.113   4.927  0.6376  0.6200  0.2631
   66MOL0     C 9037  11.200   0.995   4.880 -0.0193  1.6816  0.4076
   66MOL0     C 9038  11.160   0.929   4.743  0.3473 -0.0145  0.1087
   66MOL0     H 9039  11.758   0.861   4.914 -2.6630  1.1027  0.7595
   66MOL0     H 9040  11.938   0.660   4.925  0.6885  1.3238  2.9216
   66MOL0     H 9041  11.772   0.280   4.875 -0.4334 -1.0327  0.0076
   66MOL0     H 9042  11.795   0.225   5.043 -0.7541  2.4944  1.4858
   66MOL0     H 9043  11.929   0.117   4.868  0.8929 -0.9855 -0.2307
   66MOL0     H 9044  12.024   0.269   4.850 -0.3723  0.4409 -0.3839
   66MOL0     H 9045  12.114   0.262   5.059  1.8530  0.2906 -1.8897
   66MOL0     H 9046  12.011   0.132   5.119  1.4139 -1.8928  0.3929
   66MOL0     H 9047  12.122  -0.023   4.954 -3.1587  1.4401  1.0196
   66MOL0     H 9048  12.244   0.100   4.913  1.3187 -0.1537  0.3806
   66MOL0     H 9049  12.344  -0.030   5.073 -0.9343 -1.5633  0.2339
   66MOL0     H 9050  12.210  -0.024   5.183  2.2231 -1.7089 -0.2951
   66MOL0     H 9051  12.404   0.191   5.086  0.5977 -1.2004 -0.2144
   66MOL0     H 9052  12.271   0.220   5.207  0.7863  0.4726  2.1726
   66MOL0     H 9053  12.374   0.055   5.365  1.0337  1.6595  2.3201
   66MOL0     H 9054  12.477   0.191   5.329 -1.5782  1.4748 -1.5737
   66MOL0     H 9055  12.521  -0.100   5.245  3.4259 -0.7785 -3.0693
   66MOL0     H 9056  12.573   0.029   5.136  0.7083  2.9416  1.3143
   66MOL0     H 9057  12.595  -0.138   5.496  1.3411 -1.7140 -0.0083
   66MOL0     H 9058  12.817  -0.144   5.655 -2.2423  0.8984  3.3803
   66MOL0     H 9059  12.770   0.010   5.717 -0.6756  2.1100 -1.1874
   66MOL0     H 9060  13.048  -0.035   5.567  0.1626  0.3837  0.7493
   66MOL0     H 9061  12.991   0.105   5.645 -0.3946  0.4475 -1.7012
   66MOL0     H 9062  13.153  -0.014   5.765  1.0261 -3.5273  1.0413
   66MOL0     H 9063  13.004  -0.005   5.869  0.3745 -1.1514  0.6179
   66MOL0     H 9064  13.109  -0.202   5.902  2.2810  2.0723  0.3202
   66MOL0     H 9065  12.956  -0.236   5.823 -0.2091  0.6298  0.0658
   66MOL0     H 9066  13.283  -0.247   5.489 -1.5217 -2.6772  0.9348
   66MOL0     H 9067  13.574  -0.165   5.448 -0.3836  0.2941  1.0894
   66MOL0     H 9068  13.465  -0.278   5.354 -3.2451 -4.7168  2.8272
   66MOL0     H 9069  13.610  -0.341   5.426  0.1112  0.0215  0.0641
   66MOL0     H 9070  13.796  -0.600   5.950  0.1983 -0.4632 -0.0038
   66MOL0     H 9071  14.007  -0.614   6.063 -0.7457 -2.6574 -0.4605
   66MOL0     H 9072  14.354  -0.341   5.888 -0.3466  0.1162  0.3256
   66MOL0     H 9073  14.279  -0.328   6.046  1.8329  0.1008  0.9634
   66MOL0     H 9074  14.506  -0.369   6.087 -3.1721  1.6779 -0.5157
   66MOL0     H 9075  14.437  -0.525   6.116  1.4307 -1.2837 -0.2379
   66MOL0     H 9076  14.590  -0.438   5.851 -0.3350 -1.1028 -1.2244
   66MOL0     H 9077  14.520  -0.598   5.898  0.6814 -0.8075  1.8010
   66MOL0     H 9078  14.697  -0.590   6.092  0.3006 -2.8041 -1.7323
   66MOL0     H 9079  14.728  -0.438   6.041  1.2148  0.3263 -2.4040
   66MOL0     H 9080  14.825  -0.514   5.827 -0.2011  2.5807  3.4169
   66MOL0     H 9081  14.882  -0.612   5.963  0.4941 -1.5615 -0.8619
   66MOL0     H 9082  14.707  -0.698   5.734 -1.2493 -0.2227  0.3643
   66MOL0     H 9083  14.697  -0.769   5.896 -1.0678 -0.4452 -1.1491
   66MOL0     H 9084  14.967  -0.757   5.793 -1.0593  1.2587 -0.4297
   66MOL0     H 9085  14.872  -0.879   5.699  2.1023  1.4856 -1.0340
   66MOL0     H 9086  14.821  -0.994   5.905  0.7986 -1.5058 -0.0507
   66MOL0     H 9087  14.907  -0.875   6.002  0.7528 -2.5270  0.5955
   66MOL0     H 9088  14.189  -0.409   5.730 -0.0294  0.4060  1.1341
   66MOL0     H 9089  13.973  -0.363   5.643 -0.3881  1.7421  0.2090
   66MOL0     H 9090  13.510  -0.424   5.878 -0.3930  1.9458  0.3155
   66MOL0     H 9091  13.283  -0.347   5.911  0.6924  0.8805  1.2842
   66MOL0     H 9092  11.637   0.413   5.078  2.2752 -1.2365 -0.3648
   66MOL0     H 9093  11.467   0.576   5.027  1.2225  0.9804  1.6376
   66MOL0     H 9094  11.421   1.005   5.128  0.9396  0.6723 -1.0945
   66MOL0     H 9095  11.273   1.186   5.212  0.5820 -1.5289 -0.0390
   66MOL0     H 9096  10.931   1.325   4.945 -2.0378  0.6598  0.8471
   66MOL0     H 9097  10.927   1.425   5.072 -0.2876 -0.4066 -0.5183
   66MOL0     H 9098  10.976   1.560   4.912  0.7777  0.9618  1.9261
   66MOL0     H 9099  11.089   1.465   4.830  0.1877 -3.5714  0.3939
   66MOL0     H 9100  11.154   1.597   5.095 -1.1985  0.4269 -0.8202
   66MOL0     H 9101  11.261   1.469   5.020 -1.5827 -1.5928 -1.4672
   66MOL0     H 9102  11.266   1.629   4.824  0.1537 -0.9532 -0.1340
   66MOL0     H 9103  11.342   1.684   4.976 -0.5353  1.2318 -0.2589
   66MOL0     H 9104  10.995   1.942   4.911  1.4421  1.1667 -1.2122
   66MOL0     H 9105  11.039   1.138   4.863  0.5335 -2.0066 -0.7720
   66MOL0     H 9106  11.220   0.966   4.660 -0.3470  0.1012 -0.3569
   66MOL0     H 9107  11.162   0.820   4.740 -1.8410 -0.1991  2.0728
   66MOL0     H 9108  11.056   0.957   4.720  0.4420  1.6448  1.4861
   67MOL0     O 9109   2.347   4.704   5.395  0.2948 -0.2988 -0.3160
   67MOL0     C 9110   2.258   4.790   5.384  0.1156 -0.1517  0.0220
   67MOL0     O 9111   2.242   4.912   5.443  0.6566  0.3925  0.1747
   67MOL0     C 9112   2.326   4.935   5.533 -0.3003 -0.7145 -0.8519
   67MOL0     C 9113   2.379   5.058   5.531  0.2526 -0.1849 -0.2832
   67MOL0     C 9114   2.450   5.106   5.642 -0.3647  0.6146  0.8782
   67MOL0     C 9115   2.472   5.028   5.762  0.4123  0.5428 -0.1788
   67MOL0     O 9116   2.546   5.080   5.868  0.1763 -0.7407  0.3202
   67MOL0     C 9117   2.509   5.048   6.002  0.9619  0.8701  0.5485
   67MOL0     C 9118   2.558   5.154   6.097  0.1714 -0.0432 -0.0262
   67MOL0     C 9119   2.708   5.183   6.089 -0.2975 -0.0517  0.3184
   67MOL0     C 9120   2.742   5.276   6.200  0.4598  0.4940  0.1702
   67MOL0     C 9121   2.878   5.339   6.182  0.2263  0.1288  1.0485
   67MOL0     C 9122   2.995   5.246   6.202  1.0746  0.7293 -0.1827
   67MOL0     C 9123   3.135   5.287   6.146  0.1838  0.1402  0.6670
   67MOL0     C 9124   3.246   5.188   6.172  0.1440  0.6497 -0.3271
   67MOL0     N 9125   3.363   5.218   6.102 -1.4402 -0.6970 -0.4053
   67MOL0     C 9126   3.380   5.207   5.966 -0.2705 -0.0280 -0.3866
   67MOL0     C 9127   3.504   5.255   5.937 -0.9301 -0.6466  0.8113
   67MOL0     C 9128   3.573   5.233   5.801  0.0880 -0.4188 -0.2351
   67MOL0     C 9129   3.662   5.113   5.822 -0.5974  0.3413 -1.7096
   67MOL0     C 9130   3.714   5.057   5.699  0.0515 -1.5042 -0.1614
   67MOL0     C 9131   3.803   5.147   5.617  0.0755  0.2445 -0.5054
   67MOL0     O 9132   3.919   5.176   5.683  0.2080  0.0888  0.3147
   67MOL0     C 9133   3.993   5.277   5.629 -0.6660  0.1906  0.4850
   67MOL0     C 9134   3.959   5.362   5.524  0.3607  0.8288 -0.8861
   67MOL0     C 9135   4.039   5.471   5.490  0.2670 -0.8466  0.8103
   67MOL0     C 9136   3.973   5.563   5.385  1.0798  0.1882 -0.4764
   67MOL0     C 9137   4.172   5.487   5.541 -0.2766  0.4436  0.2425
   67MOL0     C 9138   4.260   5.599   5.495 -0.7660 -0.1845 -0.6079
   67MOL0     O 9139   4.206   5.698   5.430 -0.4230 -0.9086  0.1972
   67MOL0     C 9140   4.262   5.822   5.427  0.8533  1.1969  0.8729
   67MOL0     C 9141   4.393   5.853   5.415  0.0683 -0.1650  0.1743
   67MOL0     C 9142   4.440   5.985   5.431  0.9886 -0.7505 -0.2482
   67MOL0     C 9143   4.348   6.087   5.447 -0.4037  0.0420  0.1560
   67MOL0     O 9144   4.391   6.219   5.456  0.0490 -0.6639 -0.2057
   67MOL0     C 9145   4.439   6.263   5.327  0.1072  0.1524 -0.7255
   67MOL0     C 9146   4.418   6.414   5.321 -0.1263 -0.3084  0.3060
   67MOL0     C 9147   4.446   6.480   5.186 -0.5143 -0.0373 -0.5664
   67MOL0     C 9148   4.556   6.594   5.193  0.6931  0.7931  0.2672
   67MOL0     C 9149   4.591   6.659   5.054 -0.8618 -0.6689 -0.5022
   67MOL0     C 9150   4.510   6.773   5.012  0.8495 -0.4025  0.0665
   67MOL0     C 9151   4.520   6.901   5.089 -0.0407 -0.8647 -0.4623
   67MOL0     C 9152   4.427   7.004   5.032 -0.5482 -0.9372 -0.5582
   67MOL0    Cl 9153   4.424   7.009   4.862 -0.4007  0.0353 -0.2021
   67MOL0     C 9154   4.215   6.062   5.447 -1.0436  0.3762 -0.8383
   67MOL0     C 9155   4.170   5.930   5.444  0.0930  0.5899 -0.0392
   67MOL0     O 9156   4.374   5.600   5.545  0.1580  0.2363  0.3723
   67MOL0     C 9157   4.211   5.387   5.637  0.4383  0.6635  0.6985
   67MOL0     C 9158   4.119   5.294   5.690  0.3002  0.3099  0.9754
   67MOL0     N 9159   3.563   5.294   6.056 -0.3099 -0.1185 -0.6300
   67MOL0     N 9160   3.480   5.269   6.153  0.2184 -0.2952  0.0518
   67MOL0     C 9161   2.422   4.892   5.759  0.1100  0.0574  0.3520
   67MOL0     C 9162   2.336   4.854   5.652 -0.0779 -0.9829 -0.0240
   67MOL0     C 9163   2.164   4.753   5.275 -0.3744 -0.8995 -0.5813
   67MOL0     C 9164   2.109   4.860   5.198 -0.5499 -0.0044  0.3801
   67MOL0     C 9165   2.037   4.822   5.083 -0.1119 -0.3150  0.1158
   67MOL0     C 9166   2.009   4.687   5.057 -0.1861  0.2137  0.2663
   67MOL0     O 9167   1.936   4.674   4.944 -0.4783  0.2377  0.1668
   67MOL0     C 9168   1.877   4.553   4.911  0.8672  0.3004  0.2732
   67MOL0     C 9169   1.769   4.564   4.802  0.1131  0.2846  0.7540
   67MOL0     C 9170   1.635   4.578   4.879  0.1636 -0.8512  0.3545
   67MOL0     C 9171   1.512   4.542   4.797  0.1608 -0.3073 -0.1175
   67MOL0     C 9172   1.502   4.636   4.689 -0.0647 -0.6040 -0.7192
   67MOL0     C 9173   1.509   4.710   4.594 -0.4175 -0.0082  0.1844
   67MOL0     C 9174   2.055   4.592   5.142 -0.1009  0.7305  0.3529
   67MOL0     C 9175   2.125   4.620   5.253 -0.5284 -0.4772  0.0477
   67MOL0     C 9176   2.163   4.496   5.348 -0.2061  0.0895  0.5436
   67MOL0     H 9177   2.333   5.128   5.462 -1.7166 -0.8603  0.2565
   67MOL0     H 9178   2.484   5.209   5.633 -0.3699  0.5462  0.0414
   67MOL0     H 9179   2.556   4.952   6.026 -0.7647 -0.6101 -1.5817
   67MOL0     H 9180   2.400   5.047   6.012  0.6900 -5.1255  0.6664
   67MOL0     H 9181   2.497   5.243   6.076  0.0643 -0.1731 -0.2754
   67MOL0     H 9182   2.538   5.130   6.201  0.1054  2.0398  0.4844
   67MOL0     H 9183   2.766   5.091   6.103  2.9908  1.7166 -0.6344
   67MOL0     H 9184   2.726   5.228   5.991 -0.4395 -1.4793 -0.3953
   67MOL0     H 9185   2.658   5.346   6.206 -1.8112 -2.0376  0.0904
   67MOL0     H 9186   2.740   5.224   6.297 -1.5676 -2.7442 -1.4227
   67MOL0     H 9187   2.897   5.418   6.255  0.7329  0.0579  0.9967
   67MOL0     H 9188   2.879   5.384   6.082  2.5320 -3.0044 -0.5463
   67MOL0     H 9189   3.006   5.210   6.305 -2.2472 -0.6637 -0.1822
   67MOL0     H 9190   2.964   5.148   6.164  1.8399  0.3150  0.2434
   67MOL0     H 9191   3.147   5.374   6.211 -1.4441 -0.0114  1.2210
   67MOL0     H 9192   3.118   5.321   6.043 -0.4440  0.2754  0.8059
   67MOL0     H 9193   3.264   5.189   6.280  0.4361  0.8573 -0.3783
   67MOL0     H 9194   3.214   5.086   6.146 -0.3803  0.5579  0.6270
   67MOL0     H 9195   3.303   5.156   5.910 -1.7871 -0.4189  1.9043
   67MOL0     H 9196   3.623   5.323   5.762  0.6014 -0.7507 -0.3563
   67MOL0     H 9197   3.508   5.204   5.718  1.1910 -1.5568 -0.7291
   67MOL0     H 9198   3.750   5.143   5.880 -1.5484  0.9495 -0.5472
   67MOL0     H 9199   3.616   5.031   5.878  2.8987 -1.0297 -0.5787
   67MOL0     H 9200   3.766   4.966   5.728  0.8469 -1.0583 -0.1670
   67MOL0     H 9201   3.629   5.028   5.637 -0.0731  0.6020 -1.0491
   67MOL0     H 9202   3.818   5.096   5.521 -1.9553  1.3248 -1.4561
   67MOL0     H 9203   3.747   5.238   5.594  0.8621 -0.0441 -4.2670
   67MOL0     H 9204   3.863   5.351   5.474  0.0714  0.7014 -0.3127
   67MOL0     H 9205   4.030   5.548   5.292  1.4157 -0.0092 -0.2403
   67MOL0     H 9206   3.976   5.669   5.410  2.6593  0.2352 -0.7345
   67MOL0     H 9207   3.872   5.532   5.357  0.5198  0.5282  1.0817
   67MOL0     H 9208   4.475   5.786   5.391  0.5740  0.8105 -0.8918
   67MOL0     H 9209   4.548   5.986   5.430  1.1053 -3.0181  1.2546
   67MOL0     H 9210   4.547   6.248   5.314  0.7934  2.0234  1.8028
   67MOL0     H 9211   4.383   6.223   5.243 -0.6819 -0.7035  0.1834
   67MOL0     H 9212   4.312   6.424   5.347  0.0568  1.3228  0.4905
   67MOL0     H 9213   4.477   6.469   5.394  3.1805 -4.1448  0.9015
   67MOL0     H 9214   4.359   6.536   5.148 -1.0350  1.8581  3.0280
   67MOL0     H 9215   4.481   6.401   5.118  3.7105  1.7870 -0.8602
   67MOL0     H 9216   4.652   6.550   5.223  0.8553 -0.8989 -2.3913
   67MOL0     H 9217   4.521   6.674   5.259  0.1572  1.1777 -0.4609
   67MOL0     H 9218   4.695   6.692   5.062 -0.7483 -0.5096 -2.2554
   67MOL0     H 9219   4.585   6.576   4.984  1.1950 -1.0810 -0.2542
   67MOL0     H 9220   4.404   6.750   5.019 -0.3784  3.6422 -2.4152
   67MOL0     H 9221   4.523   6.804   4.907 -1.6051  2.3731  0.4681
   67MOL0     H 9222   4.621   6.941   5.086 -0.1755 -0.4500  0.3241
   67MOL0     H 9223   4.490   6.887   5.193 -2.4467 -0.5321 -1.0418
   67MOL0     H 9224   4.464   7.103   5.063 -1.3667 -1.8172  3.8828
   67MOL0     H 9225   4.327   6.988   5.072 -0.0015  1.9903  2.4577
   67MOL0     H 9226   4.142   6.141   5.456 -3.0612 -1.6104  1.8908
   67MOL0     H 9227   4.065   5.911   5.466  0.3804 -0.9688  0.1346
   67MOL0     H 9228   4.307   5.398   5.687 -1.0332  0.2205  3.8793
   67MOL0     H 9229   4.149   5.233   5.775  1.1047  1.8440  1.8298
   67MOL0     H 9230   2.433   4.837   5.851  1.0748  1.8360  1.3598
   67MOL0     H 9231   2.270   4.768   5.661 -2.3104  0.8596  2.3426
   67MOL0     H 9232   2.119   4.967   5.217  1.5804  0.5338 -2.9924
   67MOL0     H 9233   1.990   4.896   5.020  0.4002 -0.6876 -0.7281
   67MOL0     H 9234   1.950   4.491   4.858 -0.7345 -0.4751 -1.0966
   67MOL0     H 9235   1.843   4.504   5.003  2.3780 -0.6099  0.3894
   67MOL0     H 9236   1.770   4.480   4.733  0.6443 -1.4837  2.7999
   67MOL0     H 9237   1.796   4.655   4.747  1.2630 -1.6562 -2.1246
   67MOL0     H 9238   1.627   4.512   4.966  2.2346 -1.0496  0.4392
   67MOL0     H 9239   1.628   4.678   4.923  0.0874  0.0404 -1.5853
   67MOL0     H 9240   1.420   4.543   4.857  0.1230 -2.3713 -0.0714
   67MOL0     H 9241   1.526   4.438   4.766 -0.7636  0.1057 -2.0823
   67MOL0     H 9242   1.511   4.771   4.506 -0.3696 -1.2345 -0.6908
   67MOL0     H 9243   2.034   4.491   5.110  1.1153  0.6250 -0.1705
   67MOL0     H 9244   2.100   4.411   5.319 -0.1706  0.6583 -1.3398
   67MOL0     H 9245   2.269   4.470   5.340 -0.7222 -1.9183 -0.6694
   67MOL0     H 9246   2.149   4.514   5.455 -0.2432 -1.5283  0.8455
   68MOL0     O 9247   6.015   3.277   3.529  0.2573  0.2369 -0.5260
   68MOL0     C 9248   6.136   3.302   3.517 -1.2295 -0.3268  0.6073
   68MOL0     O 9249   6.199   3.417   3.553  0.4177 -0.0413 -0.0209
   68MOL0     C 9250   6.123   3.528   3.586 -0.6000 -0.2443  0.4378
   68MOL0     C 9251   6.031   3.590   3.493  0.9753  0.7238 -0.1646
   68MOL0     C 9252   5.967   3.708   3.520  0.0360  0.0190  0.4049
   68MOL0     C 9253   5.989   3.780   3.636 -1.0405  1.2217  0.4467
   68MOL0     O 9254   5.925   3.899   3.632 -0.2448  0.2020  0.0021
   68MOL0     C 9255   5.902   3.956   3.757 -0.3111  0.3895  0.4201
   68MOL0     C 9256   5.831   4.092   3.750  0.0801 -0.5597  0.3120
   68MOL0     C 9257   5.683   4.064   3.709 -1.2253 -0.7296 -0.1337
   68MOL0     C 9258   5.629   4.201   3.658  0.7976  0.0610  0.6712
   68MOL0     C 9259   5.493   4.185   3.600 -0.8183 -0.1315 -0.1878
   68MOL0     C 9260   5.382   4.134   3.704 -0.0281  0.2557 -0.0771
   68MOL0     C 9261   5.361   4.229   3.826 -0.1430  0.9677  0.8323
   68MOL0     C 9262   5.328   4.165   3.961  0.0248 -0.5189 -0.1749
   68MOL0     N 9263   5.441   4.085   4.001  0.1686  0.4157  0.4517
   68MOL0     C 9264   5.460   3.946   3.999  0.5164 -0.7480  0.3066
   68MOL0     C 9265   5.591   3.934   4.028 -0.1544 -0.4067 -0.1943
   68MOL0     C 9266   5.659   3.808   4.033 -0.0061 -0.3871 -1.0562
   68MOL0     C 9267   5.629   3.702   3.931  0.4035 -0.0679 -0.3095
   68MOL0     C 9268   5.741   3.593   3.920 -0.4806 -1.2405 -0.1183
   68MOL0     C 9269   5.733   3.553   3.773  0.1268  0.7358  0.9741
   68MOL0     O 9270   5.618   3.479   3.727  0.3901 -0.0661  0.4961
   68MOL0     C 9271   5.578   3.521   3.600  0.1193  0.0248 -0.0870
   68MOL0     C 9272   5.482   3.617   3.595  0.4101 -0.8406  0.5988
   68MOL0     C 9273   5.428   3.668   3.471  0.1809  0.2225 -0.2528
   68MOL0     C 9274   5.323   3.770   3.475  0.1920  0.0282 -0.9836
   68MOL0     C 9275   5.478   3.618   3.348 -0.0042 -0.2480 -0.0214
   68MOL0     C 9276   5.427   3.664   3.212  0.2233  0.1547 -0.3448
   68MOL0     O 9277   5.521   3.687   3.113 -0.8487 -0.0795 -0.5438
   68MOL0     C 9278   5.631   3.752   3.158  0.1660  0.0431  0.7216
   68MOL0     C 9279   5.615   3.879   3.207  0.0559  1.3442 -1.1042
   68MOL0     C 9280   5.728   3.951   3.219 -0.0267 -0.9271  0.5417
   68MOL0     C 9281   5.857   3.900   3.184  1.0397 -0.4511 -0.9009
   68MOL0     O 9282   5.958   3.993   3.187  0.5767 -0.2144 -0.3523
   68MOL0     C 9283   6.016   4.028   3.315  0.2468 -0.2500 -0.3554
   68MOL0     C 9284   5.948   4.142   3.385 -0.6993  0.0887 -0.0562
   68MOL0     C 9285   5.950   4.271   3.300  0.4428  0.1110  0.9340
   68MOL0     C 9286   5.890   4.396   3.375  0.2460 -0.2003  1.1253
   68MOL0     C 9287   5.884   4.516   3.275 -0.4756  0.9801  1.0957
   68MOL0     C 9288   5.811   4.642   3.323 -0.2684 -0.1815  0.6607
   68MOL0     C 9289   5.828   4.746   3.217  0.6868 -0.3473 -0.1150
   68MOL0     C 9290   5.781   4.877   3.263 -0.1522  0.0606  0.2193
   68MOL0    Cl 9291   5.615   4.875   3.321 -0.3571  0.0448  0.1453
   68MOL0     C 9292   5.869   3.772   3.131  0.9022 -0.0029  0.6485
   68MOL0     C 9293   5.752   3.701   3.104  0.0003 -1.0489  0.4127
   68MOL0     O 9294   5.306   3.672   3.193 -0.5235  0.3976 -0.4677
   68MOL0     C 9295   5.589   3.530   3.358  0.1977 -0.1005 -0.6957
   68MOL0     C 9296   5.637   3.476   3.478  0.2265 -0.9943 -0.7625
   68MOL0     N 9297   5.649   4.065   4.061 -0.9695 -0.2197  0.7010
   68MOL0     N 9298   5.554   4.158   4.038  0.2007 -0.7066  0.2801
   68MOL0     C 9299   6.076   3.714   3.726  0.1068 -0.7786 -0.4816
   68MOL0     C 9300   6.145   3.594   3.705  0.0519  0.2731  0.3045
   68MOL0     C 9301   6.229   3.188   3.488  0.3528  0.1713 -0.4062
   68MOL0     C 9302   6.368   3.218   3.488  0.1307 -0.9927 -0.0040
   68MOL0     C 9303   6.462   3.117   3.479  0.2300  0.9176 -0.3454
   68MOL0     C 9304   6.427   2.988   3.454  0.8759  0.2270 -0.9680
   68MOL0     O 9305   6.510   2.878   3.435  0.2040 -0.7490  0.1938
   68MOL0     C 9306   6.652   2.886   3.454  0.7122  0.1976 -0.9044
   68MOL0     C 9307   6.714   2.747   3.408 -0.5248  0.4467 -0.0888
   68MOL0     C 9308   6.683   2.693   3.265  0.4733  0.1230 -0.3577
   68MOL0     C 9309   6.713   2.547   3.243 -0.5421 -0.3473 -0.2783
   68MOL0     C 9310   6.675   2.521   3.105 -0.8455  0.5070 -0.2370
   68MOL0     C 9311   6.648   2.515   2.989  0.5771 -0.5583  0.5502
   68MOL0     C 9312   6.297   2.956   3.441  0.6847 -0.3374 -0.2068
   68MOL0     C 9313   6.199   3.060   3.448 -0.4243 -0.6918 -0.2022
   68MOL0     C 9314   6.058   2.999   3.430  0.1827  0.2421  0.8650
   68MOL0     H 9315   6.004   3.557   3.393 -0.1878  0.6320  0.1691
   68MOL0     H 9316   5.896   3.749   3.449 -0.5227 -0.4118  0.7049
   68MOL0     H 9317   5.992   3.973   3.815 -1.6818  1.8343  2.2580
   68MOL0     H 9318   5.837   3.892   3.817  1.3519 -0.9075  0.9105
   68MOL0     H 9319   5.838   4.137   3.850  4.0025  0.0130 -0.0400
   68MOL0     H 9320   5.886   4.150   3.675 -3.9577 -2.4614 -4.6719
   68MOL0     H 9321   5.673   3.995   3.624 -1.0580 -0.4990 -0.3462
   68MOL0     H 9322   5.629   4.016   3.791  2.5738 -2.3557  1.6372
   68MOL0     H 9323   5.632   4.272   3.741 -4.1031  0.7478  0.5935
   68MOL0     H 9324   5.691   4.242   3.577 -1.4164  1.6559 -0.3291
   68MOL0     H 9325   5.507   4.106   3.526 -0.0345 -1.7318  1.5817
   68MOL0     H 9326   5.459   4.281   3.561  3.4222  2.4610  1.7503
   68MOL0     H 9327   5.287   4.141   3.649 -0.0880  4.2430  0.2303
   68MOL0     H 9328   5.392   4.028   3.732  1.3134  0.7672  1.5131
   68MOL0     H 9329   5.283   4.300   3.797  1.7789  2.5005 -0.9264
   68MOL0     H 9330   5.447   4.296   3.831  1.8975 -1.4732  0.5360
   68MOL0     H 9331   5.313   4.256   4.020  1.9466 -0.9427  1.0574
   68MOL0     H 9332   5.235   4.108   3.959 -1.2211  1.3760  0.6238
   68MOL0     H 9333   5.390   3.876   3.954  0.5704  1.6297 -3.9833
   68MOL0     H 9334   5.636   3.764   4.130 -0.8340 -0.7336 -1.4014
   68MOL0     H 9335   5.765   3.835   4.030  0.0670 -0.6547 -0.8981
   68MOL0     H 9336   5.541   3.650   3.969  1.1745 -0.0469  1.6535
   68MOL0     H 9337   5.602   3.759   3.842 -3.0171  0.3149  0.7986
   68MOL0     H 9338   5.840   3.635   3.938 -1.4117  1.7919 -1.3916
   68MOL0     H 9339   5.712   3.509   3.984  0.2942 -1.9228 -0.6478
   68MOL0     H 9340   5.743   3.645   3.716 -0.5188  0.4307  0.3590
   68MOL0     H 9341   5.816   3.484   3.751 -2.2493 -2.2298  0.6308
   68MOL0     H 9342   5.445   3.655   3.689  1.1726 -0.9933  0.9622
   68MOL0     H 9343   5.321   3.827   3.381 -0.3670  0.5459 -0.6642
   68MOL0     H 9344   5.340   3.833   3.563 -0.9094 -0.9694 -0.0254
   68MOL0     H 9345   5.226   3.721   3.487  0.4731 -0.0837  1.3298
   68MOL0     H 9346   5.524   3.936   3.220  0.4180  2.1132 -1.8184
   68MOL0     H 9347   5.731   4.054   3.253 -0.9929 -0.8931  0.5480
   68MOL0     H 9348   6.025   3.939   3.379  2.9080 -0.7065 -1.2333
   68MOL0     H 9349   6.119   4.061   3.297 -0.3126  1.6666 -0.2601
   68MOL0     H 9350   5.843   4.118   3.406 -0.9499  1.0818 -0.1260
   68MOL0     H 9351   6.005   4.164   3.475 -2.6135  1.5505  0.8559
   68MOL0     H 9352   5.906   4.255   3.201  0.1187 -1.5460  1.3216
   68MOL0     H 9353   6.053   4.300   3.275  0.2392 -0.1219 -0.2263
   68MOL0     H 9354   5.963   4.410   3.455  1.9185 -3.0373  0.2311
   68MOL0     H 9355   5.791   4.373   3.416 -0.3563 -1.7936 -1.0644
   68MOL0     H 9356   5.987   4.546   3.253 -0.9137  2.5335  1.0875
   68MOL0     H 9357   5.837   4.502   3.178  2.2701 -2.0149  0.0144
   68MOL0     H 9358   5.847   4.683   3.418 -0.4333  1.7050 -0.0543
   68MOL0     H 9359   5.708   4.611   3.343 -0.3541 -0.6074 -0.3891
   68MOL0     H 9360   5.787   4.722   3.119  1.0719 -2.5709  0.1985
   68MOL0     H 9361   5.934   4.738   3.191  0.7826 -2.0180  0.6110
   68MOL0     H 9362   5.788   4.939   3.173 -0.9804  0.4172  0.3904
   68MOL0     H 9363   5.844   4.908   3.347  0.7991 -0.6975 -0.2015
   68MOL0     H 9364   5.961   3.734   3.087  0.4517  0.5059 -0.8124
   68MOL0     H 9365   5.762   3.603   3.058 -0.1700 -0.0909 -1.8063
   68MOL0     H 9366   5.632   3.496   3.264 -0.6209  0.2365 -1.2035
   68MOL0     H 9367   5.733   3.425   3.471  2.0588  1.9787  0.7392
   68MOL0     H 9368   6.099   3.765   3.820  1.4258  0.4535 -1.4111
   68MOL0     H 9369   6.215   3.560   3.780 -1.7172 -1.4629  1.2631
   68MOL0     H 9370   6.408   3.316   3.511  1.7253 -2.1312  2.5252
   68MOL0     H 9371   6.565   3.151   3.488  0.5992  2.2819 -5.7597
   68MOL0     H 9372   6.689   2.977   3.405  4.4521 -0.0661  1.0865
   68MOL0     H 9373   6.666   2.898   3.562 -0.5844 -3.1498 -0.2639
   68MOL0     H 9374   6.660   2.675   3.471  1.1816 -0.7239  0.1165
   68MOL0     H 9375   6.822   2.748   3.421 -0.3855 -0.4781 -1.0182
   68MOL0     H 9376   6.574   2.695   3.257  0.1038  4.1938  2.4956
   68MOL0     H 9377   6.715   2.761   3.185 -0.8574  0.9847 -0.1840
   68MOL0     H 9378   6.644   2.489   3.305 -1.1524 -0.0951 -0.7061
   68MOL0     H 9379   6.819   2.521   3.256 -0.3223  1.0350  1.0679
   68MOL0     H 9380   6.648   2.543   2.886  2.5304 -1.4811  0.2432
   68MOL0     H 9381   6.276   2.853   3.412 -0.5721 -0.1135 -0.1349
   68MOL0     H 9382   6.007   3.053   3.350 -0.0742  0.2758  1.0496
   68MOL0     H 9383   6.071   2.899   3.388 -0.5789  0.6711 -0.4307
   68MOL0     H 9384   5.992   2.992   3.518 -4.3409  4.1378 -1.7095
   69MOL0     O 9385   5.668   1.810   6.660 -0.4585  0.3041  0.2467
   69MOL0     C 9386   5.570   1.797   6.589 -0.3590 -0.5719 -0.3300
   69MOL0     O 9387   5.546   1.863   6.476 -0.3219 -0.0380 -0.8268
   69MOL0     C 9388   5.648   1.880   6.391  0.1861  0.0047 -1.3720
   69MOL0     C 9389   5.702   2.010   6.363  0.0400  0.4420 -0.4531
   69MOL0     C 9390   5.804   2.029   6.266 -0.3884 -0.8310  0.1742
   69MOL0     C 9391   5.847   1.919   6.195 -0.1904 -0.1596 -1.0853
   69MOL0     O 9392   5.947   1.935   6.100  0.4683 -0.4558  0.4440
   69MOL0     C 9393   6.076   1.968   6.159  0.5958  0.7715  0.0687
   69MOL0     C 9394   6.141   2.080   6.086  0.6219 -0.6319  0.4647
   69MOL0     C 9395   6.280   2.104   6.134  1.0466  0.0865  0.5614
   69MOL0     C 9396   6.356   2.189   6.028 -0.8918  0.1824 -0.1174
   69MOL0     C 9397   6.508   2.200   6.076  0.9277 -0.0926  0.7701
   69MOL0     C 9398   6.573   2.288   5.973  0.6745 -0.6524  0.7464
   69MOL0     C 9399   6.578   2.227   5.830  0.6871  0.6674 -0.4524
   69MOL0     C 9400   6.643   2.337   5.748  0.8910  0.1427 -0.6104
   69MOL0     N 9401   6.794   2.322   5.763 -0.4348 -0.1780  0.4361
   69MOL0     C 9402   6.877   2.424   5.787 -0.4060  0.1208  0.3062
   69MOL0     C 9403   7.000   2.376   5.792  0.0464  0.5988 -0.1167
   69MOL0     C 9404   7.131   2.438   5.824 -0.7442 -0.5548 -0.2752
   69MOL0     C 9405   7.154   2.552   5.734  0.3587  0.8279 -0.7635
   69MOL0     C 9406   7.296   2.598   5.729  0.1933 -0.3290  0.0443
   69MOL0     C 9407   7.340   2.708   5.822 -0.0155 -0.5211 -0.0339
   69MOL0     O 9408   7.322   2.685   5.965 -0.0309 -0.1518  0.9668
   69MOL0     C 9409   7.411   2.744   6.040  0.7468 -0.2891  0.6196
   69MOL0     C 9410   7.466   2.873   6.029 -0.1855  0.1447  0.2815
   69MOL0     C 9411   7.549   2.936   6.123 -0.2934  0.8693  0.4312
   69MOL0     C 9412   7.591   3.079   6.110  0.2712 -0.2511 -0.4660
   69MOL0     C 9413   7.593   2.858   6.232 -0.1867  0.0737  0.6705
   69MOL0     C 9414   7.691   2.916   6.332  0.5120  0.6118 -0.4839
   69MOL0     O 9415   7.794   3.004   6.297 -0.4772  0.3769 -0.5316
   69MOL0     C 9416   7.874   3.062   6.378  0.3040 -0.8597  0.7259
   69MOL0     C 9417   7.827   3.147   6.481  0.2397 -0.3703  0.4772
   69MOL0     C 9418   7.918   3.214   6.560 -0.2403 -0.4992 -0.4554
   69MOL0     C 9419   8.057   3.208   6.540 -0.1249 -0.5027  0.4889
   69MOL0     O 9420   8.143   3.288   6.603 -0.0534 -0.7618 -0.2895
   69MOL0     C 9421   8.114   3.335   6.735 -0.7988  0.5953 -0.1844
   69MOL0     C 9422   8.066   3.475   6.734 -0.8824 -0.8299  0.5209
   69MOL0     C 9423   7.966   3.504   6.843 -0.3606 -0.4849  0.0443
   69MOL0     C 9424   8.040   3.555   6.966  0.0978  0.4386 -0.2962
   69MOL0     C 9425   7.943   3.588   7.069 -0.0751  0.5553 -0.5708
   69MOL0     C 9426   8.026   3.660   7.184  0.8932 -0.2725  0.4817
   69MOL0     C 9427   7.951   3.642   7.319 -0.7920  0.2612 -1.1179
   69MOL0     C 9428   8.009   3.519   7.406  0.4301 -0.4790  0.0396
   69MOL0    Cl 9429   7.904   3.487   7.551 -0.1711 -0.5855  0.1733
   69MOL0     C 9430   8.109   3.111   6.446 -0.4308  0.3507 -0.2625
   69MOL0     C 9431   8.012   3.049   6.363 -0.7060  0.0213  0.0719
   69MOL0     O 9432   7.677   2.880   6.447  0.1637  0.0781 -0.5411
   69MOL0     C 9433   7.545   2.731   6.241  0.3793  0.1085 -0.4568
   69MOL0     C 9434   7.457   2.675   6.148 -0.0875  0.0252 -1.1412
   69MOL0     N 9435   6.992   2.236   5.781 -0.4188 -0.1882  0.2008
   69MOL0     N 9436   6.866   2.208   5.769  0.5588  0.0344  0.5380
   69MOL0     C 9437   5.789   1.790   6.223  0.8511 -0.9837  0.2225
   69MOL0     C 9438   5.694   1.772   6.322  0.0396 -1.1727 -0.2613
   69MOL0     C 9439   5.464   1.711   6.625  0.1780 -0.5091 -1.0539
   69MOL0     C 9440   5.341   1.750   6.567 -0.9510 -0.3770 -0.4903
   69MOL0     C 9441   5.231   1.669   6.582 -0.1124 -0.2935  0.6701
   69MOL0     C 9442   5.238   1.562   6.666  0.1114 -0.6374  0.1684
   69MOL0     O 9443   5.124   1.478   6.647 -0.7015 -0.1861 -0.2524
   69MOL0     C 9444   5.146   1.340   6.668  0.0050 -0.0840  0.0722
   69MOL0     C 9445   5.010   1.281   6.651 -0.2812 -0.2069 -0.3779
   69MOL0     C 9446   4.913   1.329   6.763  0.1538  0.5365  0.4237
   69MOL0     C 9447   4.922   1.248   6.889 -0.1691 -0.0208 -0.2738
   69MOL0     C 9448   4.866   1.112   6.868  1.0345 -0.1107  0.1125
   69MOL0     C 9449   4.831   0.998   6.847  1.1453 -0.2196 -0.5498
   69MOL0     C 9450   5.350   1.538   6.744 -1.1683 -0.2482  0.9330
   69MOL0     C 9451   5.465   1.609   6.726 -0.2478 -0.1141 -0.8748
   69MOL0     C 9452   5.598   1.554   6.781  0.4684 -0.0394 -0.2746
   69MOL0     H 9453   5.663   2.094   6.420 -1.8767 -0.9675  0.3869
   69MOL0     H 9454   5.847   2.126   6.247 -1.2143 -0.2703  1.0530
   69MOL0     H 9455   6.138   1.877   6.161 -0.1781  0.1437 -1.8086
   69MOL0     H 9456   6.070   2.006   6.261  2.2105  0.6656  0.2316
   69MOL0     H 9457   6.139   2.053   5.980 -0.9850 -1.9291  0.7924
   69MOL0     H 9458   6.077   2.166   6.108  0.7261 -0.7396  1.1916
   69MOL0     H 9459   6.265   2.169   6.221  1.6065  1.5640 -0.4039
   69MOL0     H 9460   6.327   2.016   6.178  0.7046  1.2463  3.4647
   69MOL0     H 9461   6.341   2.149   5.927  2.5016  0.0602 -0.6912
   69MOL0     H 9462   6.315   2.290   6.025 -0.2828  0.4454  0.2212
   69MOL0     H 9463   6.556   2.102   6.067 -1.4922 -1.1862 -2.1959
   69MOL0     H 9464   6.508   2.245   6.175 -2.1768 -1.2405  1.4117
   69MOL0     H 9465   6.524   2.385   5.985  2.0587  0.5766 -2.4730
   69MOL0     H 9466   6.672   2.293   6.018  0.3596 -2.0944  1.6592
   69MOL0     H 9467   6.481   2.206   5.783  0.8994 -1.2339 -0.0850
   69MOL0     H 9468   6.635   2.135   5.813 -0.4373  0.0302 -0.9048
   69MOL0     H 9469   6.623   2.324   5.641 -0.1586  2.2886 -0.7180
   69MOL0     H 9470   6.607   2.433   5.786 -1.3591 -0.8816 -0.0259
   69MOL0     H 9471   6.855   2.530   5.785  1.2299  0.5199  1.6348
   69MOL0     H 9472   7.210   2.365   5.802 -0.7615 -0.8202  0.4789
   69MOL0     H 9473   7.148   2.468   5.928 -0.1036  0.0234 -0.5380
   69MOL0     H 9474   7.115   2.528   5.635 -3.4735 -0.2825  0.8672
   69MOL0     H 9475   7.094   2.635   5.772  2.2680  2.5088 -1.2121
   69MOL0     H 9476   7.366   2.515   5.737  0.2623 -0.1684  1.2228
   69MOL0     H 9477   7.307   2.647   5.631  0.3402  1.5100  0.9472
   69MOL0     H 9478   7.446   2.726   5.804 -1.1712  4.0391 -4.7026
   69MOL0     H 9479   7.289   2.800   5.790  1.1834  0.7860  1.5984
   69MOL0     H 9480   7.429   2.937   5.949 -2.0220 -0.8008  0.3204
   69MOL0     H 9481   7.529   3.133   6.038 -2.1538 -1.9294  0.2269
   69MOL0     H 9482   7.693   3.077   6.070 -0.2035 -0.7344 -1.7279
   69MOL0     H 9483   7.582   3.139   6.201  2.4361 -1.5515  0.6878
   69MOL0     H 9484   7.719   3.158   6.478  0.3780  1.1725  0.5534
   69MOL0     H 9485   7.883   3.285   6.634 -0.2039 -0.8679 -0.0797
   69MOL0     H 9486   8.047   3.262   6.782  0.0871 -0.1968 -0.1138
   69MOL0     H 9487   8.211   3.330   6.786 -1.3222 -0.8400  0.7591
   69MOL0     H 9488   8.145   3.551   6.736 -1.9186  0.3043  0.0285
   69MOL0     H 9489   8.008   3.482   6.641  2.2964 -1.1384 -1.6331
   69MOL0     H 9490   7.917   3.412   6.875  0.0210 -1.5292 -2.2217
   69MOL0     H 9491   7.887   3.576   6.818 -1.6592 -0.9719  2.4182
   69MOL0     H 9492   8.105   3.640   6.945 -2.0378  2.0691 -0.7007
   69MOL0     H 9493   8.106   3.483   7.015  0.3580 -0.4180 -1.8265
   69MOL0     H 9494   7.852   3.645   7.047 -0.7528  1.8090  4.2884
   69MOL0     H 9495   7.901   3.496   7.112 -2.2388  2.2204  1.1274
   69MOL0     H 9496   8.021   3.769   7.176  0.8288 -0.2810  0.4090
   69MOL0     H 9497   8.131   3.630   7.196  1.4550  1.4172 -0.0139
   69MOL0     H 9498   7.847   3.632   7.288 -0.9328 -1.7002 -0.1672
   69MOL0     H 9499   7.968   3.721   7.393 -3.4464 -0.6699  0.6607
   69MOL0     H 9500   8.106   3.562   7.433  0.8456  1.4412 -3.8841
   69MOL0     H 9501   8.020   3.428   7.346  3.1224  0.9978 -1.9335
   69MOL0     H 9502   8.213   3.086   6.428  0.1910  3.9685 -2.5859
   69MOL0     H 9503   8.047   2.986   6.281  2.3360 -1.4222  2.2556
   69MOL0     H 9504   7.566   2.679   6.334  0.4736  0.3527 -0.3436
   69MOL0     H 9505   7.403   2.582   6.162 -0.0060  0.0584 -0.5901
   69MOL0     H 9506   5.814   1.707   6.158 -0.2711 -2.0276  1.0666
   69MOL0     H 9507   5.654   1.673   6.342 -2.5745 -0.4875 -1.6548
   69MOL0     H 9508   5.316   1.843   6.518 -1.0455  0.5866  1.3019
   69MOL0     H 9509   5.139   1.690   6.529  0.8690 -2.4957 -2.2252
   69MOL0     H 9510   5.219   1.301   6.597 -1.7099 -0.6343 -1.4752
   69MOL0     H 9511   5.176   1.311   6.769 -2.9483 -1.5170  0.6451
   69MOL0     H 9512   5.027   1.173   6.654 -0.1997 -0.2913 -2.4510
   69MOL0     H 9513   4.976   1.318   6.554 -0.4209  2.5912  0.6350
   69MOL0     H 9514   4.930   1.436   6.782  0.1460  0.4794  0.7588
   69MOL0     H 9515   4.812   1.320   6.722  0.6330  0.9250 -0.9020
   69MOL0     H 9516   4.869   1.309   6.963  0.9201 -1.8279  2.1275
   69MOL0     H 9517   5.024   1.237   6.926 -0.8768 -1.3801  1.4164
   69MOL0     H 9518   4.797   0.899   6.823  0.6485 -0.0315 -0.6489
   69MOL0     H 9519   5.351   1.457   6.816  2.8417  0.1914  1.5942
   69MOL0     H 9520   5.644   1.629   6.846  0.0360  0.0105 -0.0228
   69MOL0     H 9521   5.575   1.462   6.835 -1.7156 -0.6857 -2.1503
   69MOL0     H 9522   5.665   1.523   6.700 -0.5777 -2.0616 -0.4332
   70MOL0     O 9523   0.850   7.600   0.955 -0.3683  0.0299 -0.7112
   70MOL0     C 9524   0.751   7.648   1.012 -0.5130 -0.1779 -0.5037
   70MOL0     O 9525   0.628   7.653   0.955  0.5058  0.3898  0.7156
   70MOL0     C 9526   0.581   7.558   0.870 -0.1877  0.0843  0.1213
   70MOL0     C 9527   0.463   7.597   0.807 -0.0847 -0.1252  0.5970
   70MOL0     C 9528   0.393   7.513   0.718 -0.6023  0.4018  0.1174
   70MOL0     C 9529   0.443   7.385   0.694 -0.3985  1.5505  0.2869
   70MOL0     O 9530   0.381   7.320   0.589  0.6904  0.1620  0.5173
   70MOL0     C 9531   0.389   7.176   0.565  0.3673  0.0092 -0.4572
   70MOL0     C 9532   0.358   7.145   0.415  0.3586  0.5495 -1.3892
   70MOL0     C 9533   0.210   7.155   0.389 -0.0013 -0.0812  0.0166
   70MOL0     C 9534   0.178   7.119   0.235  0.0547  0.6557 -0.1692
   70MOL0     C 9535   0.023   7.100   0.207  0.3436  0.5513  0.8379
   70MOL0     C 9536  -0.061   7.232   0.190  0.2514 -0.7117 -0.9118
   70MOL0     C 9537  -0.215   7.212   0.213 -1.0095 -0.0023 -0.1353
   70MOL0     C 9538  -0.288   7.165   0.086 -0.4009  0.5471 -0.2089
   70MOL0     N 9539  -0.307   7.257  -0.026 -0.2586  0.6943 -1.3274
   70MOL0     C 9540  -0.317   7.219  -0.154  0.5741  0.1883  0.3769
   70MOL0     C 9541  -0.355   7.333  -0.225 -0.1668 -0.1844 -0.2089
   70MOL0     C 9542  -0.394   7.349  -0.372 -0.5329 -0.4824 -0.0289
   70MOL0     C 9543  -0.281   7.345  -0.466 -0.1339  0.3612  0.3824
   70MOL0     C 9544  -0.223   7.198  -0.485 -0.1133 -0.1868  0.3983
   70MOL0     C 9545  -0.155   7.191  -0.622 -0.5831 -0.1627  1.0525
   70MOL0     O 9546  -0.050   7.282  -0.612 -0.6568  0.2218 -0.3828
   70MOL0     C 9547   0.042   7.310  -0.711 -0.2643 -0.1224  0.7341
   70MOL0     C 9548   0.038   7.268  -0.845 -0.2278  0.8773 -0.2379
   70MOL0     C 9549   0.128   7.304  -0.943  0.6027  0.3004 -0.2901
   70MOL0     C 9550   0.094   7.260  -1.082 -0.1860  0.0463  0.7883
   70MOL0     C 9551   0.235   7.380  -0.901  0.0177  0.9419  0.4500
   70MOL0     C 9552   0.345   7.422  -1.004  0.0181  0.1416  0.0697
   70MOL0     O 9553   0.332   7.381  -1.131  0.0273  0.7150  0.6452
   70MOL0     C 9554   0.415   7.420  -1.236  0.2140  0.0843  0.2395
   70MOL0     C 9555   0.482   7.543  -1.245 -0.0327  0.6171  0.1117
   70MOL0     C 9556   0.566   7.561  -1.357  0.0267  0.8965 -0.6941
   70MOL0     C 9557   0.580   7.462  -1.456 -0.0275  0.3509  0.1309
   70MOL0     O 9558   0.665   7.465  -1.560  0.8971 -0.0411  0.4223
   70MOL0     C 9559   0.724   7.595  -1.580  0.5297  0.3143  0.6263
   70MOL0     C 9560   0.801   7.590  -1.711 -0.1121  0.4944 -0.2959
   70MOL0     C 9561   0.883   7.721  -1.715  0.4568 -0.6371  0.5625
   70MOL0     C 9562   0.956   7.719  -1.854  0.5912  0.2909 -0.2807
   70MOL0     C 9563   1.086   7.800  -1.835 -0.9052 -0.5100 -0.6566
   70MOL0     C 9564   1.162   7.810  -1.968 -0.3305  0.4134  1.1069
   70MOL0     C 9565   1.302   7.858  -1.930 -0.6587 -0.4092 -0.3941
   70MOL0     C 9566   1.403   7.838  -2.044  0.6574 -0.0358 -1.0768
   70MOL0    Cl 9567   1.575   7.836  -2.013 -0.2714 -0.1834 -0.1108
   70MOL0     C 9568   0.514   7.339  -1.451 -0.1146  0.8791  0.4549
   70MOL0     C 9569   0.422   7.323  -1.346  0.2866  0.5150 -0.6871
   70MOL0     O 9570   0.445   7.472  -0.957 -0.5158 -0.7930  0.7042
   70MOL0     C 9571   0.254   7.420  -0.773  0.0730 -0.6553 -0.4612
   70MOL0     C 9572   0.158   7.385  -0.681  0.1106 -0.4651 -0.0151
   70MOL0     N 9573  -0.349   7.435  -0.139 -0.5607 -0.5843 -0.3714
   70MOL0     N 9574  -0.317   7.394  -0.017  0.8500  0.3466 -0.6594
   70MOL0     C 9575   0.560   7.338   0.768  0.1283 -0.0243  0.3859
   70MOL0     C 9576   0.619   7.422   0.863 -0.3071 -0.0155 -0.4976
   70MOL0     C 9577   0.785   7.723   1.136 -0.8368  0.7617 -1.3488
   70MOL0     C 9578   0.923   7.734   1.173 -0.2999  0.1126 -0.0483
   70MOL0     C 9579   0.968   7.795   1.297 -0.1069 -0.3958  0.2890
   70MOL0     C 9580   0.868   7.847   1.375  0.4009  0.3180  0.6389
   70MOL0     O 9581   0.879   7.918   1.489 -1.1987 -0.2108  0.7063
   70MOL0     C 9582   0.996   8.006   1.498  0.8783 -1.1609  0.4819
   70MOL0     C 9583   0.947   8.144   1.466 -0.2459  0.0861 -0.2004
   70MOL0     C 9584   1.061   8.249   1.485  0.0046 -0.5150  0.5145
   70MOL0     C 9585   1.176   8.240   1.380 -0.1535 -0.1600 -0.3305
   70MOL0     C 9586   1.127   8.253   1.241 -0.0467 -0.1642 -0.4699
   70MOL0     C 9587   1.074   8.250   1.133  0.3354 -1.0308 -0.1569
   70MOL0     C 9588   0.735   7.820   1.340 -0.8683  0.6551 -0.4376
   70MOL0     C 9589   0.686   7.773   1.225 -0.5080  1.6390 -0.6970
   70MOL0     C 9590   0.533   7.777   1.203  0.2852 -0.7021 -0.3527
   70MOL0     H 9591   0.428   7.699   0.797  1.2124  0.1856 -1.3795
   70MOL0     H 9592   0.305   7.538   0.659 -0.4188  2.7002  0.7353
   70MOL0     H 9593   0.315   7.124   0.626  0.6842  2.1493  1.9403
   70MOL0     H 9594   0.487   7.142   0.599  0.2476 -1.0224 -1.1051
   70MOL0     H 9595   0.421   7.214   0.358  0.0950  2.4211  0.4426
   70MOL0     H 9596   0.402   7.049   0.385  3.0857  1.0010  0.7006
   70MOL0     H 9597   0.157   7.084   0.455 -0.7972 -1.0782 -1.6295
   70MOL0     H 9598   0.173   7.250   0.428 -1.2076 -0.5679  0.1064
   70MOL0     H 9599   0.226   7.192   0.169  4.1775 -0.7451  0.9856
   70MOL0     H 9600   0.226   7.022   0.220 -0.1469  0.0591  2.5646
   70MOL0     H 9601  -0.026   7.041   0.284 -0.0992 -1.6687 -1.0393
   70MOL0     H 9602  -0.001   7.044   0.116  0.8064  3.0399 -0.9227
   70MOL0     H 9603  -0.026   7.294   0.274 -1.1661  0.1701 -0.9520
   70MOL0     H 9604  -0.042   7.277   0.093 -3.1750 -0.1402 -1.4174
   70MOL0     H 9605  -0.256   7.310   0.235  1.3562  0.6716  1.7599
   70MOL0     H 9606  -0.237   7.146   0.297  1.3212  0.8959  1.2660
   70MOL0     H 9607  -0.256   7.068   0.048  2.0861  0.0024  2.9110
   70MOL0     H 9608  -0.385   7.144   0.133 -0.3998 -0.9897 -0.8559
   70MOL0     H 9609  -0.317   7.117  -0.191 -2.2934 -0.0036  0.7447
   70MOL0     H 9610  -0.441   7.448  -0.375 -1.3405 -0.7902  1.2936
   70MOL0     H 9611  -0.476   7.280  -0.393  0.0704 -0.9854 -0.7481
   70MOL0     H 9612  -0.308   7.389  -0.562  0.2040 -4.2151 -2.0776
   70MOL0     H 9613  -0.204   7.417  -0.436  1.7057 -0.6419 -1.6074
   70MOL0     H 9614  -0.151   7.173  -0.406  0.4360 -1.8921 -0.5707
   70MOL0     H 9615  -0.304   7.124  -0.492 -0.1895  0.0031 -1.0786
   70MOL0     H 9616  -0.114   7.090  -0.627 -0.8422 -0.2241  0.0815
   70MOL0     H 9617  -0.210   7.211  -0.714  2.6444  1.7348 -0.6323
   70MOL0     H 9618  -0.037   7.196  -0.874  2.1520 -2.8234  1.9697
   70MOL0     H 9619   0.010   7.189  -1.083  0.8671 -1.2675 -1.1295
   70MOL0     H 9620   0.170   7.192  -1.123  1.1139  2.0908 -0.3361
   70MOL0     H 9621   0.081   7.343  -1.152  1.5005 -0.5060 -0.2448
   70MOL0     H 9622   0.467   7.628  -1.179 -3.1513 -0.0452  0.4169
   70MOL0     H 9623   0.626   7.652  -1.352 -0.8109  1.5568 -2.2017
   70MOL0     H 9624   0.648   7.674  -1.580  0.0258 -0.0393 -2.5118
   70MOL0     H 9625   0.795   7.613  -1.499  1.9341 -1.7127 -0.0748
   70MOL0     H 9626   0.863   7.500  -1.726  0.8462  0.7823  1.6078
   70MOL0     H 9627   0.732   7.585  -1.796 -2.0757  0.7542  1.1937
   70MOL0     H 9628   0.965   7.729  -1.644  3.1806  2.9103 -2.5596
   70MOL0     H 9629   0.818   7.808  -1.728 -1.0358 -2.1135 -3.6426
   70MOL0     H 9630   0.911   7.761  -1.944 -0.6414  2.2496  1.1410
   70MOL0     H 9631   0.989   7.616  -1.868 -1.6812 -0.5003 -0.2582
   70MOL0     H 9632   1.057   7.899  -1.800  0.4154  0.3944 -2.0027
   70MOL0     H 9633   1.145   7.751  -1.757 -1.7549 -1.3002 -0.4837
   70MOL0     H 9634   1.107   7.878  -2.034  0.2222 -0.9104 -0.7946
   70MOL0     H 9635   1.171   7.711  -2.012 -1.6830  0.4843  0.6146
   70MOL0     H 9636   1.351   7.801  -1.850  0.8754 -2.3536 -2.5845
   70MOL0     H 9637   1.289   7.964  -1.907 -0.0276  0.3148 -3.0903
   70MOL0     H 9638   1.378   7.899  -2.131 -1.0965  0.0044 -0.5733
   70MOL0     H 9639   1.377   7.740  -2.086 -2.2371  0.2186 -0.0410
   70MOL0     H 9640   0.534   7.250  -1.510  1.6192  2.2626 -1.1662
   70MOL0     H 9641   0.375   7.225  -1.341  2.0684 -0.3157  2.6843
   70MOL0     H 9642   0.336   7.488  -0.749  1.3280 -1.4148 -2.3362
   70MOL0     H 9643   0.170   7.409  -0.576 -1.4307  1.5223 -0.2299
   70MOL0     H 9644   0.605   7.244   0.739  0.1749 -0.1398  0.8315
   70MOL0     H 9645   0.706   7.383   0.914 -0.2192  2.7876  1.7422
   70MOL0     H 9646   1.003   7.693   1.112 -0.3796 -2.9288  1.6852
   70MOL0     H 9647   1.072   7.816   1.316 -0.7166  0.6451  2.9630
   70MOL0     H 9648   1.032   7.981   1.599  1.2241 -1.3843  0.3062
   70MOL0     H 9649   1.086   7.979   1.442  2.5405  2.1958  1.2659
   70MOL0     H 9650   0.876   8.169   1.546 -1.7994 -1.7776 -0.9183
   70MOL0     H 9651   0.909   8.151   1.364 -0.4019 -0.7582 -0.2059
   70MOL0     H 9652   1.013   8.347   1.471 -0.5364 -1.0184 -1.3887
   70MOL0     H 9653   1.097   8.253   1.589  1.4688  4.3394  0.0690
   70MOL0     H 9654   1.230   8.145   1.381 -1.9901 -1.2289  0.1724
   70MOL0     H 9655   1.251   8.320   1.390 -0.2073 -0.0884 -0.4963
   70MOL0     H 9656   1.021   8.253   1.040 -0.1190  3.0160  0.0320
   70MOL0     H 9657   0.656   7.853   1.406 -1.4746 -1.6565  0.0630
   70MOL0     H 9658   0.487   7.686   1.242 -0.4490 -0.9234 -1.6905
   70MOL0     H 9659   0.488   7.855   1.265  1.5528  0.5141 -0.9070
   70MOL0     H 9660   0.503   7.788   1.098  1.5628  3.2878 -0.5030
   71MOL0     O 9661   0.732  10.486   9.051  0.4154 -0.6327 -0.2240
   71MOL0     C 9662   0.780  10.580   8.985 -0.9196  0.9214 -0.9127
   71MOL0     O 9663   0.757  10.705   9.012 -0.1813  0.1670  0.4128
   71MOL0     C 9664   0.643  10.736   9.088  0.2000  0.8578 -0.0984
   71MOL0     C 9665   0.509  10.690   9.062  1.3818 -0.2440 -0.1896
   71MOL0     C 9666   0.399  10.720   9.152 -0.2108 -0.9344  0.4961
   71MOL0     C 9667   0.419  10.794   9.264 -0.0627 -1.1605 -1.1343
   71MOL0     O 9668   0.311  10.815   9.356 -0.6036 -0.9035 -0.4754
   71MOL0     C 9669   0.252  10.944   9.352 -0.6304  0.0864  0.8527
   71MOL0     C 9670   0.168  10.978   9.480 -0.9339 -0.9348  0.7016
   71MOL0     C 9671   0.157  11.135   9.497  0.0092  0.6954 -1.2179
   71MOL0     C 9672   0.064  11.203   9.389 -0.1956  1.0359 -0.1856
   71MOL0     C 9673   0.044  11.346   9.418 -0.6206 -0.9231  0.2673
   71MOL0     C 9674  -0.050  11.415   9.313  0.0923  0.9414 -0.3843
   71MOL0     C 9675  -0.056  11.569   9.293 -0.2951  0.2337 -0.1138
   71MOL0     C 9676  -0.176  11.639   9.360 -0.1543  0.3697 -0.2836
   71MOL0     N 9677  -0.162  11.784   9.367 -0.5231 -0.1987  0.0163
   71MOL0     C 9678  -0.185  11.879   9.274 -0.0712 -0.5596 -0.7230
   71MOL0     C 9679  -0.163  11.998   9.328 -0.6437 -0.0139  0.0910
   71MOL0     C 9680  -0.189  12.122   9.257  0.2211 -0.0880 -0.2607
   71MOL0     C 9681  -0.070  12.205   9.204  0.7332 -0.7388 -0.3915
   71MOL0     C 9682   0.025  12.241   9.321  1.1729 -0.4495 -0.5211
   71MOL0     C 9683  -0.053  12.322   9.424  0.8308 -0.5274  0.1059
   71MOL0     O 9684   0.027  12.401   9.520 -0.0089  0.1432  0.1000
   71MOL0     C 9685   0.121  12.329   9.587  0.6122 -0.2897 -0.2383
   71MOL0     C 9686   0.251  12.382   9.612  0.1978  0.1568  0.0823
   71MOL0     C 9687   0.352  12.319   9.682  0.5751 -0.3581 -0.4304
   71MOL0     C 9688   0.495  12.374   9.669 -0.2131  0.0700 -0.4413
   71MOL0     C 9689   0.330  12.195   9.750  0.0241  0.5571 -0.2510
   71MOL0     C 9690   0.430  12.109   9.823  0.4449  0.1823 -0.8340
   71MOL0     O 9691   0.393  11.983   9.849 -0.4090  0.1157  0.1477
   71MOL0     C 9692   0.445  11.933   9.966  0.1023  0.0947 -0.4385
   71MOL0     C 9693   0.507  11.805   9.939  0.2605 -0.0606  0.8191
   71MOL0     C 9694   0.578  11.742  10.034  0.3071  0.3065 -0.4299
   71MOL0     C 9695   0.591  11.798  10.166  0.4603 -0.4848  0.8522
   71MOL0     O 9696   0.676  11.733  10.257 -0.3061  0.6785  0.1512
   71MOL0     C 9697   0.700  11.593  10.260 -1.5865 -0.2394 -0.2389
   71MOL0     C 9698   0.579  11.536  10.329 -0.2371 -1.0251  0.3130
   71MOL0     C 9699   0.612  11.457  10.450 -0.3108  0.7606  0.1351
   71MOL0     C 9700   0.506  11.354  10.489  0.2956 -0.0502  0.2198
   71MOL0     C 9701   0.529  11.318  10.634 -0.3899  0.5303 -1.0447
   71MOL0     C 9702   0.416  11.227  10.688  0.0930 -0.0906  0.4217
   71MOL0     C 9703   0.433  11.194  10.838  0.5818  1.6907 -0.0290
   71MOL0     C 9704   0.324  11.102  10.880  0.2663 -0.5226  0.3559
   71MOL0    Cl 9705   0.172  11.196  10.872  0.0517  0.2395  0.0609
   71MOL0     C 9706   0.528  11.928  10.184  0.7398 -0.3680 -0.8892
   71MOL0     C 9707   0.454  11.989  10.094 -0.2473 -0.3428  1.0089
   71MOL0     O 9708   0.533  12.165   9.858  0.4682  0.4488 -0.3084
   71MOL0     C 9709   0.199  12.131   9.734  0.0858  0.0105  0.0992
   71MOL0     C 9710   0.109  12.200   9.646 -0.0327 -0.7790 -0.0558
   71MOL0     N 9711  -0.140  11.977   9.464 -0.4759  0.5166  0.5285
   71MOL0     N 9712  -0.137  11.847   9.486 -0.9174 -0.1473  0.0726
   71MOL0     C 9713   0.549  10.840   9.294 -0.2479  0.1883  0.0639
   71MOL0     C 9714   0.647  10.816   9.201 -0.9504  0.5007 -0.6896
   71MOL0     C 9715   0.873  10.544   8.868  0.6677 -0.4996 -0.0237
   71MOL0     C 9716   0.887  10.643   8.764  0.2496  0.3596  0.7683
   71MOL0     C 9717   0.970  10.616   8.650 -0.5808  0.0337 -0.1203
   71MOL0     C 9718   1.043  10.495   8.648  0.1426 -0.6812 -1.3693
   71MOL0     O 9719   1.138  10.467   8.554  0.3961 -0.4936 -0.3661
   71MOL0     C 9720   1.181  10.557   8.447 -0.1668  0.7544  0.4567
   71MOL0     C 9721   1.086  10.528   8.328 -0.0488 -0.4511  0.5836
   71MOL0     C 9722   1.131  10.612   8.212 -0.2711  0.4607 -0.6375
   71MOL0     C 9723   1.070  10.598   8.073 -0.7379 -0.8850  0.0775
   71MOL0     C 9724   0.929  10.646   8.061 -0.1311  1.2656 -0.5346
   71MOL0     C 9725   0.808  10.661   8.065  0.0868  0.4202  0.6542
   71MOL0     C 9726   1.030  10.404   8.754  0.0366  0.1059  0.5127
   71MOL0     C 9727   0.952  10.427   8.860  1.1158  0.0131 -0.6795
   71MOL0     C 9728   0.971  10.344   8.987 -0.0336 -0.2181  0.1181
   71MOL0     H 9729   0.489  10.638   8.969  1.1375  0.6643 -0.6584
   71MOL0     H 9730   0.298  10.691   9.123 -0.1857 -0.6230  0.0954
   71MOL0     H 9731   0.204  10.959   9.255  1.2820  1.4015  0.0490
   71MOL0     H 9732   0.333  11.017   9.343 -0.2247 -0.4225  0.2358
   71MOL0     H 9733   0.079  10.917   9.497 -2.5287  0.9557 -0.4660
   71MOL0     H 9734   0.229  10.956   9.569  1.1715  0.9430 -0.1824
   71MOL0     H 9735   0.121  11.148   9.599  1.4217  2.7906 -0.9376
   71MOL0     H 9736   0.257  11.178   9.486  0.2306  0.4820 -0.1465
   71MOL0     H 9737   0.108  11.177   9.293 -3.0997 -2.1734 -0.8871
   71MOL0     H 9738  -0.034  11.153   9.382 -0.7701  2.3696 -2.6719
   71MOL0     H 9739   0.133  11.409   9.416 -0.5042 -1.0055  1.6988
   71MOL0     H 9740   0.001  11.349   9.519 -2.8231  0.0252 -0.6224
   71MOL0     H 9741  -0.000  11.388   9.219  4.4195  1.7462  1.4174
   71MOL0     H 9742  -0.152  11.378   9.324 -0.1741  1.5000 -0.9397
   71MOL0     H 9743  -0.060  11.595   9.186  0.8033 -0.7716 -0.4169
   71MOL0     H 9744   0.039  11.613   9.326 -0.3263 -0.9564  1.6438
   71MOL0     H 9745  -0.268  11.612   9.308 -0.3517 -1.4474  0.9064
   71MOL0     H 9746  -0.181  11.597   9.461  2.6812  0.4385 -0.0479
   71MOL0     H 9747  -0.210  11.860   9.171 -2.8354  3.3622 -0.9731
   71MOL0     H 9748  -0.265  12.182   9.308  1.1227 -0.3458  1.4874
   71MOL0     H 9749  -0.243  12.088   9.169  0.2275 -1.4200  0.2336
   71MOL0     H 9750  -0.015  12.162   9.120  1.5396  1.2198 -0.9150
   71MOL0     H 9751  -0.117  12.298   9.170 -2.7767 -2.1224  0.2508
   71MOL0     H 9752   0.047  12.144   9.368  4.1417 -0.0543 -0.8969
   71MOL0     H 9753   0.110  12.294   9.277  0.3624  0.1630 -1.3777
   71MOL0     H 9754  -0.121  12.394   9.379  0.2292 -1.7082 -0.9394
   71MOL0     H 9755  -0.124  12.259   9.479 -0.6900 -0.6918 -1.9654
   71MOL0     H 9756   0.276  12.472   9.557 -2.7226 -0.6386 -2.9017
   71MOL0     H 9757   0.564  12.292   9.646  1.5959  0.2045  3.6610
   71MOL0     H 9758   0.527  12.417   9.764 -0.2357  2.2864 -1.3776
   71MOL0     H 9759   0.510  12.460   9.602 -0.6402  1.0031  0.6264
   71MOL0     H 9760   0.496  11.766   9.838 -0.1923 -1.4918  1.3936
   71MOL0     H 9761   0.619  11.643  10.016 -0.6048 -0.1280 -0.2244
   71MOL0     H 9762   0.716  11.547  10.162 -1.3238  0.4291 -0.5095
   71MOL0     H 9763   0.792  11.582  10.318 -0.9989 -0.8316 -1.2412
   71MOL0     H 9764   0.512  11.614  10.366 -0.6566 -1.2624  0.0636
   71MOL0     H 9765   0.517  11.476  10.261 -4.2442  1.6761  1.2259
   71MOL0     H 9766   0.612  11.532  10.530  1.4583 -0.3610  1.2618
   71MOL0     H 9767   0.705  11.400  10.455 -0.5116 -0.4067 -4.6349
   71MOL0     H 9768   0.509  11.271  10.418 -0.7061 -2.0624  2.4074
   71MOL0     H 9769   0.406  11.396  10.477  0.9739  1.6536  0.2460
   71MOL0     H 9770   0.625  11.266  10.640 -2.0001 -2.5419  0.2675
   71MOL0     H 9771   0.537  11.407  10.698 -0.6430 -0.5337  0.5149
   71MOL0     H 9772   0.411  11.134  10.631 -1.3340  0.6201 -0.6978
   71MOL0     H 9773   0.318  11.273  10.674  1.1563  2.3041  0.3761
   71MOL0     H 9774   0.437  11.282  10.903  1.7006  3.0919 -1.8907
   71MOL0     H 9775   0.527  11.139  10.848 -0.2114  0.2449 -0.3209
   71MOL0     H 9776   0.350  11.058  10.977 -0.9010 -1.5914  0.2126
   71MOL0     H 9777   0.318  11.011  10.820 -1.4930 -0.4230  0.3151
   71MOL0     H 9778   0.543  11.973  10.281  0.6607  0.8920 -1.4446
   71MOL0     H 9779   0.427  12.092  10.116 -0.5494  0.0323 -0.9358
   71MOL0     H 9780   0.164  12.041   9.785  2.0475 -0.7503  0.1754
   71MOL0     H 9781   0.012  12.153   9.641 -1.3249  0.9536  4.1909
   71MOL0     H 9782   0.568  10.892   9.387 -0.1248  1.2662 -0.5541
   71MOL0     H 9783   0.750  10.828   9.234 -0.8575 -2.8674  0.6333
   71MOL0     H 9784   0.835  10.736   8.748  1.0299  0.2244 -4.9365
   71MOL0     H 9785   0.982  10.694   8.574  1.3997 -1.2354 -1.2135
   71MOL0     H 9786   1.195  10.663   8.472  1.0158  1.0406 -1.2070
   71MOL0     H 9787   1.280  10.519   8.421 -0.9775 -0.6402 -0.7793
   71MOL0     H 9788   0.981  10.547   8.353 -0.0343  1.5239 -0.6011
   71MOL0     H 9789   1.106  10.426   8.294 -0.2811  0.5662 -3.0282
   71MOL0     H 9790   1.116  10.717   8.242 -2.4004  0.2027 -0.6834
   71MOL0     H 9791   1.239  10.594   8.206 -0.5814 -1.4945 -0.9649
   71MOL0     H 9792   1.093  10.499   8.033  2.1680  0.6577 -2.4471
   71MOL0     H 9793   1.123  10.674   8.014 -1.9206 -0.0903  0.0064
   71MOL0     H 9794   0.703  10.679   8.076  0.4840  2.8009  1.0995
   71MOL0     H 9795   1.082  10.309   8.761  0.4728  0.2897 -0.2202
   71MOL0     H 9796   1.062  10.284   8.980  1.5185  1.6856  2.4303
   71MOL0     H 9797   0.986  10.412   9.072 -0.6188  1.5363 -1.1194
   71MOL0     H 9798   0.885  10.277   9.000  0.6332 -0.7856  1.8076
   72MOL0     O 9799   0.456   7.157   5.316 -0.3972 -0.5680  0.4594
   72MOL0     C 9800   0.387   7.252   5.276 -0.1762  0.4076  0.0151
   72MOL0     O 9801   0.429   7.352   5.194 -0.1332  0.1698  0.4085
   72MOL0     C 9802   0.556   7.348   5.155  0.0881  0.6655 -0.6088
   72MOL0     C 9803   0.654   7.424   5.226  0.8112 -0.0703 -0.0009
   72MOL0     C 9804   0.781   7.422   5.185  0.4497  0.5181 -0.1854
   72MOL0     C 9805   0.828   7.328   5.087 -0.0205  0.6064 -0.2371
   72MOL0     O 9806   0.966   7.324   5.065 -0.1727 -0.5561 -0.8337
   72MOL0     C 9807   1.016   7.232   4.972  0.2878 -0.7561 -1.0951
   72MOL0     C 9808   1.167   7.229   4.961  1.0999  0.5565  0.2061
   72MOL0     C 9809   1.228   7.221   5.103 -0.9265  0.0254  0.3028
   72MOL0     C 9810   1.373   7.176   5.090  0.0880 -0.3527 -1.1018
   72MOL0     C 9811   1.405   7.064   5.197  0.1223 -0.6924  0.5929
   72MOL0     C 9812   1.393   7.116   5.341  0.1090  0.0336 -0.0003
   72MOL0     C 9813   1.482   7.043   5.444 -0.5896  0.3304  0.2568
   72MOL0     C 9814   1.467   7.092   5.592  1.4271  0.3336 -0.2814
   72MOL0     N 9815   1.341   7.034   5.652  0.3883  0.6018  0.1644
   72MOL0     C 9816   1.311   6.899   5.663 -0.2315  0.7165 -0.0935
   72MOL0     C 9817   1.198   6.885   5.739  0.3472 -0.1050 -0.4282
   72MOL0     C 9818   1.120   6.761   5.774 -0.2592 -0.4496  0.9392
   72MOL0     C 9819   1.035   6.779   5.899  0.0491 -0.5783 -0.1221
   72MOL0     C 9820   0.970   6.638   5.918  1.5687 -0.4865  0.3137
   72MOL0     C 9821   0.912   6.632   6.055  0.1432 -0.6053 -0.6717
   72MOL0     O 9822   0.770   6.630   6.059 -0.0439  0.0264  0.8851
   72MOL0     C 9823   0.709   6.570   6.161  0.9996  0.1628  0.3180
   72MOL0     C 9824   0.588   6.498   6.137  0.3985 -0.5315  1.2965
   72MOL0     C 9825   0.519   6.430   6.239 -0.5823 -0.4599  0.0305
   72MOL0     C 9826   0.378   6.387   6.217 -1.2110 -0.0860  0.6979
   72MOL0     C 9827   0.581   6.422   6.373  0.0717 -0.0551 -0.2474
   72MOL0     C 9828   0.515   6.380   6.502 -0.6892 -0.4975  0.4112
   72MOL0     O 9829   0.568   6.427   6.619 -0.4277  0.0697  0.3471
   72MOL0     C 9830   0.514   6.402   6.735  0.9139 -0.1486 -0.7812
   72MOL0     C 9831   0.428   6.294   6.773  0.4864  0.5809 -0.1108
   72MOL0     C 9832   0.366   6.288   6.903  0.5984 -0.3886  0.4043
   72MOL0     C 9833   0.392   6.387   7.003  0.3321  0.0018 -0.1945
   72MOL0     O 9834   0.343   6.363   7.122  1.1198 -0.1691 -0.1736
   72MOL0     C 9835   0.364   6.457   7.232  0.4958  0.4897 -0.2431
   72MOL0     C 9836   0.266   6.575   7.209 -0.4234  0.3696 -0.4261
   72MOL0     C 9837   0.264   6.669   7.325 -0.9010 -0.0051 -0.0987
   72MOL0     C 9838   0.198   6.801   7.281  0.0909  0.2127 -0.5440
   72MOL0     C 9839   0.197   6.901   7.399 -0.7942 -0.4846  0.5683
   72MOL0     C 9840   0.129   7.034   7.360 -0.5325  0.2055 -0.1216
   72MOL0     C 9841   0.116   7.125   7.484 -0.3634  0.7399  0.1083
   72MOL0     C 9842   0.088   7.263   7.441 -0.5676  0.7782 -0.6565
   72MOL0    Cl 9843   0.238   7.338   7.378  0.2129 -0.1772  0.9204
   72MOL0     C 9844   0.500   6.481   6.971  0.5530 -0.2540 -0.0821
   72MOL0     C 9845   0.549   6.489   6.838  0.7092 -0.2629  0.4530
   72MOL0     O 9846   0.412   6.312   6.489 -0.9059  0.2390 -0.7978
   72MOL0     C 9847   0.701   6.486   6.382 -0.2106  0.3760 -0.4883
   72MOL0     C 9848   0.769   6.558   6.284 -0.0083 -0.5763  0.3499
   72MOL0     N 9849   1.179   7.014   5.787 -0.1301 -0.4251  0.0739
   72MOL0     N 9850   1.256   7.107   5.732  0.0329  0.9118 -1.0496
   72MOL0     C 9851   0.731   7.247   5.025  0.0133  0.1475 -1.0906
   72MOL0     C 9852   0.597   7.264   5.049  0.5419  1.1153  0.0429
   72MOL0     C 9853   0.246   7.252   5.315  0.4101  0.9501  0.3643
   72MOL0     C 9854   0.184   7.380   5.307  0.0271  0.0561 -0.1731
   72MOL0     C 9855   0.055   7.393   5.359 -0.1856 -0.5326  0.2087
   72MOL0     C 9856  -0.027   7.293   5.400  0.1104  0.4209 -0.0898
   72MOL0     O 9857  -0.162   7.321   5.425 -0.7449  0.2715 -0.1395
   72MOL0     C 9858  -0.200   7.334   5.562 -1.0514 -0.5471 -0.7745
   72MOL0     C 9859  -0.210   7.192   5.634  0.1732  0.6960  0.7069
   72MOL0     C 9860  -0.340   7.124   5.587  0.3585  0.1541  0.5666
   72MOL0     C 9861  -0.395   7.033   5.697 -0.1266 -0.4925  0.6652
   72MOL0     C 9862  -0.516   6.958   5.656  0.5272  0.4443  0.3140
   72MOL0     C 9863  -0.600   6.874   5.614 -0.6765 -0.5027 -0.4658
   72MOL0     C 9864   0.034   7.163   5.399 -0.2041 -0.6519 -0.1841
   72MOL0     C 9865   0.163   7.138   5.363 -0.5117 -0.2454 -0.3461
   72MOL0     C 9866   0.225   7.002   5.380  0.6726  0.6436 -0.4273
   72MOL0     H 9867   0.622   7.485   5.311  0.0139  0.5428 -0.7304
   72MOL0     H 9868   0.851   7.494   5.226  0.8061  1.9982 -3.1105
   72MOL0     H 9869   0.984   7.256   4.870  0.7634  1.1010 -0.8431
   72MOL0     H 9870   0.982   7.133   5.003 -1.2319 -0.0056 -0.2197
   72MOL0     H 9871   1.198   7.144   4.900  0.9179  1.8935 -1.8659
   72MOL0     H 9872   1.201   7.318   4.905  2.8736  0.8992  1.7177
   72MOL0     H 9873   1.218   7.318   5.151  0.5125 -0.1618  1.0119
   72MOL0     H 9874   1.170   7.144   5.155  1.9369 -2.9947 -0.5955
   72MOL0     H 9875   1.395   7.138   4.991  1.1170 -1.5577 -0.4331
   72MOL0     H 9876   1.435   7.266   5.095 -1.1490  0.4795  1.2866
   72MOL0     H 9877   1.509   7.032   5.185  0.5623  0.3953  1.3702
   72MOL0     H 9878   1.337   6.979   5.187  1.0988 -1.2530 -2.0429
   72MOL0     H 9879   1.402   7.225   5.348 -1.5479  0.4244 -2.5256
   72MOL0     H 9880   1.291   7.099   5.376 -0.2289 -1.4550 -1.5865
   72MOL0     H 9881   1.584   7.053   5.406  0.3262  0.2912  2.5543
   72MOL0     H 9882   1.461   6.936   5.440  0.6490 -0.2934  4.8372
   72MOL0     H 9883   1.541   7.051   5.661  1.3286  1.3542  0.4513
   72MOL0     H 9884   1.460   7.201   5.598  0.3576  0.3380 -1.1425
   72MOL0     H 9885   1.354   6.815   5.610  0.1672 -0.4925  2.0177
   72MOL0     H 9886   1.199   6.687   5.788 -1.9252 -2.3276  0.8347
   72MOL0     H 9887   1.055   6.747   5.688 -2.7557  1.1582  2.4095
   72MOL0     H 9888   1.106   6.802   5.979 -1.3374 -0.9835  1.2673
   72MOL0     H 9889   0.967   6.864   5.890  0.5046  0.0914  2.2083
   72MOL0     H 9890   0.892   6.629   5.842  0.1983  0.4043  1.5550
   72MOL0     H 9891   1.049   6.561   5.917  2.1459  0.0175  2.2218
   72MOL0     H 9892   0.941   6.532   6.087 -0.7067 -0.6802 -0.1093
   72MOL0     H 9893   0.959   6.705   6.122 -0.7276 -1.9961  1.5602
   72MOL0     H 9894   0.548   6.502   6.036 -0.1400  1.4782  1.5447
   72MOL0     H 9895   0.377   6.285   6.257 -0.3630 -2.0530 -3.6842
   72MOL0     H 9896   0.365   6.387   6.109  2.6886 -1.0964  0.0584
   72MOL0     H 9897   0.300   6.443   6.268 -0.4589 -0.1797  2.0040
   72MOL0     H 9898   0.417   6.210   6.705 -1.2822 -0.3620  1.2682
   72MOL0     H 9899   0.298   6.205   6.924 -0.1256  0.0964  0.0334
   72MOL0     H 9900   0.324   6.418   7.326  1.0402 -1.6871 -0.8527
   72MOL0     H 9901   0.468   6.484   7.251  0.9319 -1.4157  0.3713
   72MOL0     H 9902   0.300   6.634   7.124  1.0932  1.9490  1.1934
   72MOL0     H 9903   0.161   6.549   7.190  0.2849 -1.2301 -2.4911
   72MOL0     H 9904   0.366   6.695   7.355 -0.4378  0.7516 -2.1823
   72MOL0     H 9905   0.205   6.628   7.407 -1.3737  1.3266  0.2476
   72MOL0     H 9906   0.093   6.791   7.253 -1.3454  1.6880  3.5831
   72MOL0     H 9907   0.244   6.849   7.193 -0.0663 -1.9028 -1.8487
   72MOL0     H 9908   0.133   6.851   7.473 -0.3578 -1.6240  0.2043
   72MOL0     H 9909   0.291   6.919   7.452 -1.6774 -2.7502  3.1750
   72MOL0     H 9910   0.031   7.015   7.317 -0.8296 -1.5470  1.2298
   72MOL0     H 9911   0.191   7.074   7.278  0.6236 -1.8497 -0.3171
   72MOL0     H 9912   0.210   7.137   7.539 -0.1544  0.2997 -0.1463
   72MOL0     H 9913   0.037   7.085   7.549  0.2989  0.6849  0.8943
   72MOL0     H 9914   0.053   7.320   7.527  1.0153 -0.6201  1.0048
   72MOL0     H 9915   0.012   7.272   7.363 -1.8190  4.8401  0.7625
   72MOL0     H 9916   0.519   6.551   7.052 -1.7369 -0.4397  0.7079
   72MOL0     H 9917   0.610   6.570   6.800 -1.3471  1.3673  0.4618
   72MOL0     H 9918   0.757   6.473   6.474 -0.5159  0.9737 -0.2074
   72MOL0     H 9919   0.865   6.604   6.302  0.4923  0.2482 -3.4694
   72MOL0     H 9920   0.753   7.167   4.955  0.0976  0.6074 -1.5943
   72MOL0     H 9921   0.522   7.216   4.987  0.3445  0.4148  0.8001
   72MOL0     H 9922   0.242   7.465   5.274  3.2193 -1.6881  0.4773
   72MOL0     H 9923   0.003   7.488   5.353  0.9113  0.0129 -1.0412
   72MOL0     H 9924  -0.132   7.396   5.620 -3.3547  0.9350  0.4674
   72MOL0     H 9925  -0.298   7.380   5.549 -1.0306 -0.4191 -0.4753
   72MOL0     H 9926  -0.219   7.210   5.742  0.5959  1.7337  0.5761
   72MOL0     H 9927  -0.131   7.119   5.612 -0.3726 -0.2858  1.8404
   72MOL0     H 9928  -0.409   7.208   5.576  0.0502 -0.0083  1.2376
   72MOL0     H 9929  -0.311   7.072   5.495  4.1151 -1.4795  2.4572
   72MOL0     H 9930  -0.435   7.089   5.783 -1.7074 -2.9777  1.6579
   72MOL0     H 9931  -0.315   6.967   5.732 -1.2238 -2.5291 -0.4630
   72MOL0     H 9932  -0.659   6.809   5.554  0.1852 -0.0671 -1.8309
   72MOL0     H 9933  -0.034   7.080   5.414 -2.3595  1.0997  0.3274
   72MOL0     H 9934   0.292   7.007   5.467 -1.1459  1.7750  0.9857
   72MOL0     H 9935   0.153   6.922   5.397 -0.8859  2.5045  2.4156
   72MOL0     H 9936   0.281   6.979   5.288  3.6966  0.9773  1.1810
   73MOL0     O 9937   7.627   4.033   8.673  0.4622  0.5697  0.1843
   73MOL0     C 9938   7.659   3.912   8.659 -0.1278 -0.0526 -0.4643
   73MOL0     O 9939   7.645   3.848   8.541 -0.1285 -0.5542 -0.1707
   73MOL0     C 9940   7.648   3.919   8.424  0.9070  0.2534 -0.4222
   73MOL0     C 9941   7.581   3.856   8.321  0.6113 -0.1345 -0.5669
   73MOL0     C 9942   7.576   3.904   8.191 -0.7530  0.5482 -0.3079
   73MOL0     C 9943   7.645   4.020   8.156  0.6069 -0.2528  0.4769
   73MOL0     O 9944   7.638   4.059   8.027 -0.3686  0.2545 -0.2098
   73MOL0     C 9945   7.692   4.187   7.988  0.1702  0.5198  0.7642
   73MOL0     C 9946   7.652   4.216   7.837  0.0219 -0.9993  0.0685
   73MOL0     C 9947   7.641   4.363   7.820  0.9757  0.8182 -0.0826
   73MOL0     C 9948   7.569   4.389   7.685 -0.5319  0.2431  0.0349
   73MOL0     C 9949   7.516   4.533   7.660 -0.4467 -0.0480  0.2488
   73MOL0     C 9950   7.634   4.635   7.651 -1.2941  0.9088  0.2927
   73MOL0     C 9951   7.586   4.772   7.590  0.0905 -0.6392 -0.0418
   73MOL0     C 9952   7.712   4.859   7.602  0.5947 -0.3737  0.0971
   73MOL0     N 9953   7.700   4.973   7.518  0.3276 -0.5623  0.7715
   73MOL0     C 9954   7.622   5.086   7.543 -0.5976 -0.7731  0.8284
   73MOL0     C 9955   7.631   5.153   7.421 -0.0400 -0.2594  0.4656
   73MOL0     C 9956   7.583   5.292   7.386 -0.8880 -0.0016 -0.0271
   73MOL0     C 9957   7.695   5.395   7.431  0.0604 -0.3537 -0.5855
   73MOL0     C 9958   7.757   5.475   7.318  0.5823  0.2296 -0.4138
   73MOL0     C 9959   7.901   5.514   7.365 -0.8518  0.0431 -0.1446
   73MOL0     O 9960   7.876   5.605   7.478 -0.1317 -0.2819 -0.1608
   73MOL0     C 9961   7.949   5.573   7.587  0.3299  0.7517 -0.0405
   73MOL0     C 9962   7.896   5.528   7.706 -1.2298 -0.6202  0.4702
   73MOL0     C 9963   7.979   5.497   7.816 -0.3448  0.3479 -0.6288
   73MOL0     C 9964   7.920   5.420   7.935 -0.5766  0.0079 -0.1965
   73MOL0     C 9965   8.121   5.535   7.808  0.0327 -0.9000 -0.1159
   73MOL0     C 9966   8.218   5.530   7.925 -0.9044 -0.6489 -0.0823
   73MOL0     O 9967   8.176   5.585   8.047 -0.1285  0.1373 -0.2221
   73MOL0     C 9968   8.251   5.558   8.161  0.2853  0.3230  0.3569
   73MOL0     C 9969   8.366   5.641   8.185  0.1196  0.2425  0.3182
   73MOL0     C 9970   8.454   5.614   8.289  0.2789  0.4993  0.3785
   73MOL0     C 9971   8.416   5.524   8.382 -1.0101 -0.3023 -0.2559
   73MOL0     O 9972   8.507   5.487   8.485  0.5715  0.6046  0.5881
   73MOL0     C 9973   8.641   5.550   8.493  0.2386  1.3684  0.2222
   73MOL0     C 9974   8.736   5.484   8.587 -0.0248 -0.0826 -0.0238
   73MOL0     C 9975   8.681   5.484   8.736 -0.4838  1.1171  0.7080
   73MOL0     C 9976   8.785   5.428   8.842  0.4961  0.1444 -0.5452
   73MOL0     C 9977   8.881   5.544   8.860  0.7751 -0.0859 -0.2641
   73MOL0     C 9978   8.991   5.503   8.961 -0.4357 -0.0119 -0.2170
   73MOL0     C 9979   9.101   5.615   8.962 -0.1891  0.3092  0.6676
   73MOL0     C 9980   9.224   5.573   9.045  1.1015 -0.1526 -0.3480
   73MOL0    Cl 9981   9.193   5.527   9.215 -0.2208 -0.0991  0.5652
   73MOL0     C 9982   8.295   5.446   8.361 -0.0182  0.7016 -0.2534
   73MOL0     C 9983   8.213   5.466   8.250  0.8672  0.0007 -0.3456
   73MOL0     O 9984   8.340   5.496   7.908  0.1018  0.3283 -0.1581
   73MOL0     C 9985   8.167   5.592   7.689  0.3238 -0.0814 -0.0818
   73MOL0     C 9986   8.082   5.597   7.579 -0.1344  0.3151 -0.3258
   73MOL0     N 9987   7.707   5.081   7.331  0.2446 -0.8927 -0.5645
   73MOL0     N 9988   7.751   4.981   7.388 -0.1032 -0.6336 -0.3493
   73MOL0     C 9989   7.707   4.088   8.262  0.2141  0.2741  0.4425
   73MOL0     C 9990   7.705   4.042   8.398  0.2480 -1.0380  0.0845
   73MOL0     C 9991   7.708   3.828   8.778 -0.1700  0.4267  0.8018
   73MOL0     C 9992   7.755   3.696   8.757  0.7705  0.2236  0.1684
   73MOL0     C 9993   7.814   3.627   8.857  0.6106  0.2618  0.9262
   73MOL0     C 9994   7.817   3.680   8.983 -0.0200 -0.7011 -0.0759
   73MOL0     O 9995   7.884   3.610   9.082 -0.1021 -0.1913  0.2644
   73MOL0     C 9996   7.921   3.472   9.070  0.1671 -1.0246 -0.8050
   73MOL0     C 9997   7.982   3.447   9.203  0.2150 -1.1902 -0.1133
   73MOL0     C 9998   8.125   3.519   9.210 -0.2092 -0.3359 -0.1433
   73MOL0     C 9999   8.170   3.531   9.348  0.4794 -0.1732  0.2083
   73MOL0     C10000   8.300   3.591   9.369 -0.0194 -0.4755  1.0269
   73MOL0     C10001   8.414   3.638   9.366  0.0433  0.3062  0.5385
   73MOL0     C10002   7.768   3.803   9.013  1.1172  0.1857 -0.3612
   73MOL0     C10003   7.709   3.877   8.913  0.1400  0.0545 -1.0710
   73MOL0     C10004   7.635   4.002   8.951 -0.1287  0.2185  0.9269
   73MOL0     H10005   7.548   3.754   8.337  0.3534  0.2935  1.9772
   73MOL0     H10006   7.542   3.853   8.102  3.2557 -0.0522 -1.7081
   73MOL0     H10007   7.800   4.177   8.002 -0.0309 -1.3974  1.2573
   73MOL0     H10008   7.644   4.266   8.046 -0.7192  0.3969  0.2194
   73MOL0     H10009   7.725   4.157   7.781 -0.3655 -1.1363 -0.2999
   73MOL0     H10010   7.552   4.177   7.814 -0.0289  0.1680 -1.8589
   73MOL0     H10011   7.578   4.409   7.896  0.4970 -1.8997  1.2724
   73MOL0     H10012   7.740   4.410   7.819  2.0518 -1.1862 -3.1950
   73MOL0     H10013   7.631   4.363   7.598 -0.7959  0.9028 -0.3584
   73MOL0     H10014   7.479   4.326   7.678  1.8420 -3.4704 -0.2794
   73MOL0     H10015   7.445   4.575   7.731 -1.0207  2.4006 -1.6594
   73MOL0     H10016   7.465   4.534   7.563 -2.1428 -1.8598  1.0347
   73MOL0     H10017   7.680   4.634   7.751 -0.1160 -0.1353 -0.2285
   73MOL0     H10018   7.699   4.582   7.581 -0.6258  3.4131 -1.1075
   73MOL0     H10019   7.506   4.820   7.648  1.1473  0.9655  0.1645
   73MOL0     H10020   7.555   4.753   7.487 -1.2554  1.4021 -0.0676
   73MOL0     H10021   7.725   4.896   7.704  1.0680 -2.2009  0.7481
   73MOL0     H10022   7.797   4.793   7.583  1.4238  0.1364  1.8867
   73MOL0     H10023   7.566   5.132   7.624  0.3194  2.9226 -0.4302
   73MOL0     H10024   7.489   5.312   7.439 -0.2184  1.5523  0.6451
   73MOL0     H10025   7.565   5.316   7.280  0.7500  1.0793 -0.0905
   73MOL0     H10026   7.652   5.472   7.496 -0.4579 -2.2630  1.4592
   73MOL0     H10027   7.768   5.335   7.487 -1.0078 -3.0004 -1.8295
   73MOL0     H10028   7.759   5.420   7.223 -1.0720 -0.2067 -0.2296
   73MOL0     H10029   7.699   5.567   7.306  0.5643  0.3318  0.4212
   73MOL0     H10030   7.959   5.425   7.390 -0.0245  0.9449  1.3027
   73MOL0     H10031   7.953   5.575   7.291  0.0385  2.1136  2.0467
   73MOL0     H10032   7.792   5.503   7.723 -0.6396 -1.7723  2.7380
   73MOL0     H10033   7.950   5.465   8.030 -1.3630 -0.5630  0.3369
   73MOL0     H10034   7.959   5.318   7.935 -2.2826 -0.7296  2.4211
   73MOL0     H10035   7.811   5.424   7.936 -0.7958 -3.2424  0.0230
   73MOL0     H10036   8.397   5.709   8.106 -1.0299 -0.1997 -0.5311
   73MOL0     H10037   8.543   5.675   8.294 -0.4035  1.4352  2.0387
   73MOL0     H10038   8.694   5.543   8.397 -1.3951  1.4410 -0.7304
   73MOL0     H10039   8.633   5.652   8.530 -0.3179  1.1510  0.7077
   73MOL0     H10040   8.724   5.378   8.563 -2.1368  0.6112 -2.4135
   73MOL0     H10041   8.837   5.526   8.583 -1.0150  2.8190  2.1547
   73MOL0     H10042   8.595   5.416   8.729 -0.7176  1.5713 -1.6752
   73MOL0     H10043   8.652   5.587   8.759 -0.0019  1.3688  0.2071
   73MOL0     H10044   8.830   5.338   8.800 -0.2189  0.4505 -2.0780
   73MOL0     H10045   8.733   5.418   8.938  3.2205 -1.9787  0.8528
   73MOL0     H10046   8.926   5.569   8.764  0.5511  3.8884  0.5060
   73MOL0     H10047   8.835   5.634   8.902  1.6745  0.4375 -0.3797
   73MOL0     H10048   9.045   5.415   8.925 -0.4689 -0.7578  1.4617
   73MOL0     H10049   8.936   5.482   9.054 -2.7398 -4.1170 -2.2265
   73MOL0     H10050   9.053   5.704   9.004 -0.6646 -0.1147  1.0265
   73MOL0     H10051   9.138   5.619   8.859 -0.2971  0.0241  0.6185
   73MOL0     H10052   9.297   5.654   9.059  0.7942  0.4577 -2.0031
   73MOL0     H10053   9.271   5.488   8.994  2.7998 -0.3923  1.4963
   73MOL0     H10054   8.272   5.366   8.431 -0.5631  1.5823  0.5883
   73MOL0     H10055   8.131   5.396   8.237  0.9219 -0.0332 -0.5149
   73MOL0     H10056   8.271   5.617   7.669 -0.2315  2.2177 -0.3790
   73MOL0     H10057   8.112   5.629   7.479 -2.0155  1.1537 -0.6775
   73MOL0     H10058   7.756   4.182   8.241 -1.6715  0.6670 -2.9833
   73MOL0     H10059   7.750   4.096   8.481  0.9885  0.4982 -1.2468
   73MOL0     H10060   7.732   3.652   8.660 -3.3725  1.7195  0.2695
   73MOL0     H10061   7.839   3.522   8.846 -1.1487 -0.0503 -0.5686
   73MOL0     H10062   7.838   3.405   9.047 -0.1658 -0.2325 -2.0110
   73MOL0     H10063   7.983   3.463   8.980 -2.0116  1.4974 -2.7136
   73MOL0     H10064   7.995   3.339   9.214 -0.4657 -1.2785 -0.0929
   73MOL0     H10065   7.914   3.481   9.282 -0.3973 -0.5589 -0.8938
   73MOL0     H10066   8.206   3.475   9.150  0.8360 -0.0892  1.0446
   73MOL0     H10067   8.124   3.623   9.174  1.6640  0.3379  1.5357
   73MOL0     H10068   8.182   3.432   9.393 -1.3737 -0.2646  0.5904
   73MOL0     H10069   8.094   3.575   9.413 -0.9009  0.7846 -1.9584
   73MOL0     H10070   8.510   3.676   9.337  0.2894  0.5649  1.6447
   73MOL0     H10071   7.782   3.836   9.116 -2.2164  0.4575  0.1091
   73MOL0     H10072   7.545   4.028   8.894 -0.7213 -0.9074  1.3160
   73MOL0     H10073   7.604   3.986   9.054  0.3512 -0.0552  1.0323
   73MOL0     H10074   7.706   4.085   8.957 -0.7852  0.8475  0.2214
   74MOL0     O10075   6.294   0.776   3.702 -0.0570 -0.4505 -0.1873
   74MOL0     C10076   6.339   0.805   3.583 -0.7820  0.5104 -0.4836
   74MOL0     O10077   6.374   0.719   3.485  0.0182  0.0401 -0.5988
   74MOL0     C10078   6.360   0.584   3.498 -0.3649  1.7763  0.6278
   74MOL0     C10079   6.264   0.507   3.564  0.1425  0.0518  0.5681
   74MOL0     C10080   6.251   0.367   3.549 -0.4229 -0.1147  1.1595
   74MOL0     C10081   6.337   0.298   3.459  0.3130  0.0641  0.4102
   74MOL0     O10082   6.340   0.162   3.451 -0.6704  0.6224  0.3365
   74MOL0     C10083   6.327   0.080   3.567 -0.0456  0.0141  0.1578
   74MOL0     C10084   6.447   0.095   3.653 -0.0753 -0.1008 -0.2802
   74MOL0     C10085   6.584   0.062   3.598  0.2067  0.6897  0.1565
   74MOL0     C10086   6.626  -0.086   3.605  0.6166  0.3017  0.7648
   74MOL0     C10087   6.763  -0.119   3.551  0.0867  0.0107  1.3126
   74MOL0     C10088   6.790  -0.265   3.548  0.5478 -0.4206 -0.1181
   74MOL0     C10089   6.939  -0.284   3.515 -0.1591 -0.5803 -0.1443
   74MOL0     C10090   6.984  -0.420   3.575 -0.8318  0.7789 -0.1023
   74MOL0     N10091   7.127  -0.443   3.539  1.0736  0.4990 -0.2306
   74MOL0     C10092   7.216  -0.508   3.611  0.0497  1.0633 -0.9069
   74MOL0     C10093   7.334  -0.503   3.547 -0.8276 -0.2039 -0.0613
   74MOL0     C10094   7.467  -0.552   3.603  0.1294 -0.6794 -0.4021
   74MOL0     C10095   7.575  -0.574   3.494  0.6113  0.5604  0.5796
   74MOL0     C10096   7.709  -0.629   3.531 -0.0506  0.2867 -0.5746
   74MOL0     C10097   7.714  -0.785   3.526 -0.6698 -0.4176 -0.4771
   74MOL0     O10098   7.700  -0.834   3.394  0.1678 -0.0068 -0.4421
   74MOL0     C10099   7.809  -0.871   3.323  0.1625  0.1276 -0.1786
   74MOL0     C10100   7.893  -0.973   3.369  1.3357  0.6453  0.8943
   74MOL0     C10101   7.999  -1.016   3.286 -0.6529  0.4210 -0.1514
   74MOL0     C10102   8.089  -1.131   3.346  0.0613 -0.4341 -0.0847
   74MOL0     C10103   8.021  -0.950   3.161  1.7025  1.0444  0.0518
   74MOL0     C10104   8.121  -0.990   3.066 -0.4762  0.3706 -1.0316
   74MOL0     O10105   8.119  -0.928   2.946  0.0989 -0.1235  0.0666
   74MOL0     C10106   8.218  -0.961   2.852  0.1862  0.4263  1.0206
   74MOL0     C10107   8.358  -0.923   2.867  0.5242  0.6775  0.1515
   74MOL0     C10108   8.453  -0.952   2.773 -0.4171  0.2903 -0.4793
   74MOL0     C10109   8.403  -1.006   2.652  0.1520 -0.6333 -0.5495
   74MOL0     O10110   8.472  -1.028   2.541 -0.2068  0.6435  0.4607
   74MOL0     C10111   8.536  -0.911   2.486  0.4287 -0.9638  0.8445
   74MOL0     C10112   8.618  -0.934   2.367  0.7719 -0.4220  1.0238
   74MOL0     C10113   8.531  -0.974   2.245 -0.0468  0.1805 -0.2251
   74MOL0     C10114   8.618  -0.973   2.117  0.8314 -0.9427 -0.4509
   74MOL0     C10115   8.537  -1.015   1.993 -0.0392 -0.2130 -0.6082
   74MOL0     C10116   8.608  -0.952   1.873 -0.4821 -0.0725  0.2056
   74MOL0     C10117   8.565  -1.022   1.744  1.0695 -0.4878  0.2086
   74MOL0     C10118   8.604  -0.949   1.617 -0.4391 -0.7046  0.7254
   74MOL0    Cl10119   8.517  -0.791   1.627  0.3181 -0.3274  0.2602
   74MOL0     C10120   8.263  -1.030   2.638  0.3446  0.0003  0.3927
   74MOL0     C10121   8.170  -1.006   2.733 -0.1228  0.1401  0.5685
   74MOL0     O10122   8.187  -1.088   3.088  0.2756  0.1231  0.8016
   74MOL0     C10123   7.942  -0.837   3.130 -1.4621  0.1448  0.7123
   74MOL0     C10124   7.840  -0.793   3.212  0.5562  1.0919 -0.1784
   74MOL0     N10125   7.312  -0.444   3.428  0.3996  0.3827  0.0328
   74MOL0     N10126   7.187  -0.403   3.426  0.5325  0.6615  0.2780
   74MOL0     C10127   6.428   0.375   3.381  0.6975 -1.1424  1.4295
   74MOL0     C10128   6.449   0.512   3.408  0.2312  0.5745  0.2228
   74MOL0     C10129   6.362   0.946   3.550 -0.0037  0.0450  0.1988
   74MOL0     C10130   6.359   1.039   3.660  0.3832 -0.9119 -0.6193
   74MOL0     C10131   6.387   1.174   3.639  0.3735 -1.0659 -0.1885
   74MOL0     C10132   6.408   1.220   3.507 -0.1073  0.0607  0.0380
   74MOL0     O10133   6.433   1.352   3.477  0.0745  0.8641  0.3393
   74MOL0     C10134   6.550   1.406   3.543  0.1039  0.9356 -0.7849
   74MOL0     C10135   6.541   1.557   3.541  0.2521  0.6739  0.9027
   74MOL0     C10136   6.494   1.606   3.403  0.0957  0.9627 -0.1270
   74MOL0     C10137   6.517   1.753   3.378  0.1625  0.5058  1.0600
   74MOL0     C10138   6.664   1.783   3.367 -0.1543 -1.5568 -0.0083
   74MOL0     C10139   6.771   1.826   3.345 -0.6957 -0.6045 -0.4962
   74MOL0     C10140   6.407   1.140   3.399  0.8461  0.9616 -0.0576
   74MOL0     C10141   6.394   1.002   3.416  0.2047  0.4102 -0.1149
   74MOL0     C10142   6.422   0.913   3.293 -0.4997  1.1357 -0.4174
   74MOL0     H10143   6.184   0.551   3.623  1.1999  5.0497 -1.2055
   74MOL0     H10144   6.176   0.308   3.601 -2.2395  1.1214  0.0470
   74MOL0     H10145   6.309  -0.022   3.533 -0.4538  0.5632 -1.3401
   74MOL0     H10146   6.243   0.108   3.633  0.1229  1.7033 -0.2918
   74MOL0     H10147   6.451   0.201   3.680  0.4413 -0.0658 -0.4795
   74MOL0     H10148   6.433   0.026   3.736 -1.1272 -2.7748 -2.5223
   74MOL0     H10149   6.595   0.090   3.493 -0.9447  0.0345 -0.1513
   74MOL0     H10150   6.656   0.123   3.654  1.6058 -0.1858 -0.6165
   74MOL0     H10151   6.617  -0.123   3.708 -3.1766 -0.1679  0.4265
   74MOL0     H10152   6.544  -0.139   3.554 -0.0912  0.7167  1.4410
   74MOL0     H10153   6.844  -0.082   3.614  1.5322  0.2849 -0.6194
   74MOL0     H10154   6.781  -0.067   3.456  3.4612  1.8489  2.7768
   74MOL0     H10155   6.775  -0.308   3.647  3.1312  1.7111  1.3450
   74MOL0     H10156   6.724  -0.316   3.478 -0.3641 -0.7683  0.9755
   74MOL0     H10157   7.004  -0.210   3.563  0.4896 -0.4528 -1.1812
   74MOL0     H10158   6.950  -0.263   3.409  0.5368 -1.1626 -0.1942
   74MOL0     H10159   6.965  -0.426   3.683 -1.3907  1.1447 -0.1766
   74MOL0     H10160   6.915  -0.490   3.528 -1.4027  0.3191  1.3700
   74MOL0     H10161   7.205  -0.524   3.718  1.1183 -1.1241 -1.0514
   74MOL0     H10162   7.462  -0.646   3.659 -3.4202  0.1975  1.0990
   74MOL0     H10163   7.492  -0.474   3.676 -1.1211  1.9696 -2.5980
   74MOL0     H10164   7.533  -0.626   3.408  0.5081  2.5095 -0.5991
   74MOL0     H10165   7.603  -0.476   3.454  2.6352 -0.9726 -2.1115
   74MOL0     H10166   7.792  -0.603   3.465  1.4334  1.0882  1.5096
   74MOL0     H10167   7.740  -0.610   3.634 -2.2980 -1.2574  0.4776
   74MOL0     H10168   7.809  -0.819   3.569  0.8764  4.1710  0.2268
   74MOL0     H10169   7.636  -0.826   3.591 -2.5477  1.0916 -1.6790
   74MOL0     H10170   7.854  -1.027   3.455 -1.9900  0.3836 -0.6169
   74MOL0     H10171   8.096  -1.215   3.277  0.0002  0.2711 -0.9677
   74MOL0     H10172   8.052  -1.163   3.444 -1.5498 -2.1604 -1.1892
   74MOL0     H10173   8.191  -1.095   3.356 -0.1583  0.4419 -0.9066
   74MOL0     H10174   8.389  -0.878   2.960  1.8827  0.4906 -0.1914
   74MOL0     H10175   8.555  -0.915   2.781 -0.1007 -0.8431  1.1339
   74MOL0     H10176   8.455  -0.839   2.466 -0.2498 -1.2658  2.3706
   74MOL0     H10177   8.608  -0.866   2.556  1.1061  2.0211 -1.5555
   74MOL0     H10178   8.663  -0.835   2.354 -0.3915  0.0364  0.4197
   74MOL0     H10179   8.704  -1.001   2.380 -1.0480 -2.7823  1.5291
   74MOL0     H10180   8.453  -0.898   2.233 -1.0490 -1.0098 -1.6678
   74MOL0     H10181   8.480  -1.070   2.255 -0.9723  0.4347 -2.0485
   74MOL0     H10182   8.692  -1.051   2.136  0.9510 -1.4070 -2.5851
   74MOL0     H10183   8.665  -0.877   2.098 -1.1141  0.0506 -0.4815
   74MOL0     H10184   8.541  -1.123   2.005 -1.6324 -0.0353  2.5564
   74MOL0     H10185   8.432  -0.984   1.996 -0.5646 -1.2924 -3.9225
   74MOL0     H10186   8.716  -0.963   1.885 -0.5613  1.9253  4.3834
   74MOL0     H10187   8.590  -0.844   1.869  1.8751  0.4394  1.6727
   74MOL0     H10188   8.456  -1.034   1.741  0.9941 -0.6027 -4.6941
   74MOL0     H10189   8.614  -1.120   1.742  0.1036 -0.9742 -0.3468
   74MOL0     H10190   8.571  -1.007   1.530  3.7760  1.9093 -3.0406
   74MOL0     H10191   8.711  -0.929   1.608 -0.3818  0.9493  3.6814
   74MOL0     H10192   8.235  -1.080   2.546  2.6368 -1.3070  0.3227
   74MOL0     H10193   8.062  -1.014   2.736 -0.4459  3.3199  3.4883
   74MOL0     H10194   7.957  -0.786   3.035 -0.5015 -0.3247  0.6056
   74MOL0     H10195   7.783  -0.700   3.205  0.7727  1.2133 -0.3529
   74MOL0     H10196   6.477   0.329   3.295 -0.9434  0.3030 -0.3776
   74MOL0     H10197   6.523   0.558   3.343  0.6343 -0.6809 -0.2234
   74MOL0     H10198   6.331   1.014   3.762 -1.7199 -1.8593 -1.3574
   74MOL0     H10199   6.395   1.239   3.725  1.1869 -1.2518 -0.1171
   74MOL0     H10200   6.569   1.362   3.641  0.2237  0.3099 -1.0857
   74MOL0     H10201   6.635   1.382   3.479  0.0506 -1.8398  0.0409
   74MOL0     H10202   6.642   1.593   3.564  1.0515 -0.6987 -0.3289
   74MOL0     H10203   6.468   1.600   3.610 -1.8409 -0.9149 -0.2061
   74MOL0     H10204   6.541   1.549   3.322  0.8891 -0.4600  1.2949
   74MOL0     H10205   6.387   1.583   3.411  0.1445  1.5502  3.6099
   74MOL0     H10206   6.474   1.825   3.449  0.1045 -1.5901  3.2555
   74MOL0     H10207   6.469   1.766   3.281  1.1683 -3.0023 -0.0562
   74MOL0     H10208   6.871   1.864   3.341 -0.4034 -1.1653  0.8856
   74MOL0     H10209   6.418   1.182   3.299  0.4546 -3.3282 -2.1526
   74MOL0     H10210   6.456   0.981   3.214  0.8350  1.1327  0.1308
   74MOL0     H10211   6.493   0.831   3.306  0.2582  1.5248 -1.8685
   74MOL0     H10212   6.326   0.862   3.275  0.9295 -2.3430  0.8480
   75MOL0     O10213   3.122   0.833   4.650  1.3111  0.7621 -0.0115
   75MOL0     C10214   3.223   0.896   4.660 -0.3684  0.0266 -0.4994
   75MOL0     O10215   3.232   1.025   4.700 -0.1419  0.2701 -0.3502
   75MOL0     C10216   3.122   1.114   4.721 -0.8575  0.7042 -0.1588
   75MOL0     C10217   3.147   1.256   4.720 -0.0909 -0.0561  0.9132
   75MOL0     C10218   3.045   1.340   4.744 -0.3464 -1.0496  0.2222
   75MOL0     C10219   2.918   1.296   4.776 -0.1177  1.4760 -0.3747
   75MOL0     O10220   2.823   1.395   4.782 -0.6273 -0.2211 -0.4872
   75MOL0     C10221   2.676   1.362   4.803 -0.1456  0.4482 -0.6091
   75MOL0     C10222   2.667   1.343   4.957  0.8902 -0.6026 -0.6737
   75MOL0     C10223   2.546   1.253   4.999 -0.6882  0.1779 -0.0149
   75MOL0     C10224   2.534   1.241   5.149 -0.1442 -0.1990 -1.7131
   75MOL0     C10225   2.415   1.147   5.200 -0.3317 -0.2540  0.0773
   75MOL0     C10226   2.441   1.010   5.146  0.0675 -0.3293 -0.4352
   75MOL0     C10227   2.324   0.918   5.186  0.2504  0.4488 -0.3639
   75MOL0     C10228   2.192   0.921   5.106  0.2824  0.0157  0.5822
   75MOL0     N10229   2.204   0.950   4.963  0.3333 -0.4606  0.3372
   75MOL0     C10230   2.148   1.058   4.899  0.1158  0.0494  0.2526
   75MOL0     C10231   2.148   1.019   4.770 -0.1051  0.6438 -0.5165
   75MOL0     C10232   2.086   1.100   4.660  0.3087  0.1239 -0.3968
   75MOL0     C10233   2.183   1.181   4.567  0.2043  0.3428  0.0315
   75MOL0     C10234   2.282   1.263   4.643 -0.5395 -0.5673  0.1857
   75MOL0     C10235   2.372   1.352   4.564  0.7020  0.1505  0.3140
   75MOL0     O10236   2.417   1.262   4.462 -0.6301 -0.3245 -0.0191
   75MOL0     C10237   2.552   1.268   4.436 -0.1021  0.2873 -0.0659
   75MOL0     C10238   2.617   1.151   4.438 -0.2754  0.1559 -1.0737
   75MOL0     C10239   2.757   1.130   4.413 -0.2274  0.3407  0.6314
   75MOL0     C10240   2.805   0.995   4.414 -0.6959  0.1199  0.2425
   75MOL0     C10241   2.834   1.244   4.374 -0.0891  0.6496 -0.2900
   75MOL0     C10242   2.978   1.243   4.329  0.6282  0.6803 -0.7189
   75MOL0     O10243   3.030   1.370   4.325 -0.5828  0.2938 -0.3738
   75MOL0     C10244   3.165   1.381   4.331 -0.7568  0.6305  1.2948
   75MOL0     C10245   3.226   1.501   4.277  0.8642 -0.1480 -0.3189
   75MOL0     C10246   3.352   1.543   4.313 -0.6790 -0.0307  0.4867
   75MOL0     C10247   3.434   1.447   4.376  0.7975  0.3685  0.6507
   75MOL0     O10248   3.565   1.480   4.382 -0.4124 -0.1768  0.1365
   75MOL0     C10249   3.666   1.377   4.377  0.6193 -0.3461  0.1033
   75MOL0     C10250   3.737   1.394   4.246  0.5211  1.2905 -0.9258
   75MOL0     C10251   3.661   1.328   4.125 -0.6814 -1.0575 -0.1660
   75MOL0     C10252   3.733   1.328   3.980  0.5003 -0.0948  0.4013
   75MOL0     C10253   3.890   1.316   3.983 -0.1995 -0.4561 -0.1459
   75MOL0     C10254   3.944   1.297   3.851  0.2743  0.7290  0.2007
   75MOL0     C10255   4.102   1.263   3.861  0.2809 -0.8767 -0.0581
   75MOL0     C10256   4.146   1.198   3.725 -0.0039 -0.5647 -1.0488
   75MOL0    Cl10257   4.132   1.307   3.588 -0.3036 -0.2425 -0.1691
   75MOL0     C10258   3.378   1.325   4.425  1.0083 -0.2039 -0.6615
   75MOL0     C10259   3.249   1.291   4.401  0.2773 -0.0147  0.5177
   75MOL0     O10260   3.030   1.137   4.289  0.0353 -0.1405 -0.7147
   75MOL0     C10261   2.762   1.364   4.366  0.0349  0.3212 -0.4456
   75MOL0     C10262   2.623   1.384   4.398 -0.3305  0.1470  0.2359
   75MOL0     N10263   2.196   0.886   4.757  0.1669 -0.6715 -0.4378
   75MOL0     N10264   2.228   0.844   4.870 -0.2133 -0.9860  0.4107
   75MOL0     C10265   2.890   1.154   4.765 -0.6870 -0.0583 -0.3130
   75MOL0     C10266   2.987   1.066   4.739 -1.3152 -0.4018 -0.6568
   75MOL0     C10267   3.344   0.821   4.618  0.5384 -0.0280  0.3596
   75MOL0     C10268   3.339   0.703   4.543 -0.4727  0.5016  0.0203
   75MOL0     C10269   3.460   0.639   4.503 -0.0022  0.3752  0.8235
   75MOL0     C10270   3.581   0.706   4.516  0.3328  0.2700 -0.0623
   75MOL0     O10271   3.704   0.641   4.490 -0.0035 -0.0638 -0.6001
   75MOL0     C10272   3.738   0.584   4.353 -0.1590 -0.3067 -0.1434
   75MOL0     C10273   3.896   0.601   4.326  0.3631 -0.0452 -0.8787
   75MOL0     C10274   3.931   0.551   4.180 -1.0764 -0.2708 -0.1603
   75MOL0     C10275   4.081   0.581   4.133  0.5514  0.0144 -0.5630
   75MOL0     C10276   4.180   0.491   4.200 -0.8012 -0.5227 -1.1654
   75MOL0     C10277   4.265   0.412   4.247  0.2502  0.1527 -0.4305
   75MOL0     C10278   3.583   0.825   4.598 -0.9294 -0.0289 -0.7821
   75MOL0     C10279   3.469   0.881   4.645  0.2370  0.1710 -1.1244
   75MOL0     C10280   3.503   1.000   4.742 -0.6744 -0.0967  0.4020
   75MOL0     H10281   3.247   1.299   4.721  0.5544 -1.4923  1.7919
   75MOL0     H10282   3.058   1.447   4.745 -1.1360 -0.9185 -1.1303
   75MOL0     H10283   2.653   1.273   4.743  0.8410 -0.3597  0.1744
   75MOL0     H10284   2.599   1.436   4.781 -0.2071  0.4006 -0.5565
   75MOL0     H10285   2.748   1.294   5.012 -0.9112 -2.3502  0.5773
   75MOL0     H10286   2.661   1.444   4.997 -0.1335 -0.2815 -1.5860
   75MOL0     H10287   2.450   1.292   4.964 -1.0781 -0.4820  0.2996
   75MOL0     H10288   2.563   1.153   4.957 -2.4969  1.2655 -3.7488
   75MOL0     H10289   2.632   1.217   5.192 -1.3085 -0.4916  0.9862
   75MOL0     H10290   2.512   1.344   5.177 -1.3954 -1.1906  1.4186
   75MOL0     H10291   2.323   1.194   5.165 -0.9338 -0.9445  0.7108
   75MOL0     H10292   2.414   1.135   5.309  0.9534  0.3911  0.1818
   75MOL0     H10293   2.461   0.997   5.039  3.7315  0.7071 -0.0227
   75MOL0     H10294   2.528   0.965   5.195  0.4943  0.6293 -0.2852
   75MOL0     H10295   2.293   0.924   5.291  0.3233 -1.5760 -0.1911
   75MOL0     H10296   2.368   0.819   5.199  1.2119  0.8630 -0.3200
   75MOL0     H10297   2.129   0.832   5.114 -1.1798  0.7372 -1.7990
   75MOL0     H10298   2.138   1.002   5.157  2.5001  1.1692  1.2482
   75MOL0     H10299   2.104   1.150   4.937  5.3293  2.9268  0.2527
   75MOL0     H10300   2.018   1.175   4.701 -0.2952 -1.1597  1.0446
   75MOL0     H10301   2.028   1.032   4.597  2.3814  0.2998 -2.6770
   75MOL0     H10302   2.236   1.100   4.517 -2.5230  0.4713 -3.5400
   75MOL0     H10303   2.129   1.241   4.493  3.5081  3.1430 -0.3366
   75MOL0     H10304   2.226   1.326   4.714  0.2355 -1.4651  1.6418
   75MOL0     H10305   2.343   1.202   4.710 -1.7335 -0.9901  0.9182
   75MOL0     H10306   2.316   1.432   4.515  1.0236  0.2653  0.1290
   75MOL0     H10307   2.447   1.399   4.628  1.4011  2.5548 -2.0670
   75MOL0     H10308   2.566   1.064   4.477  0.0205  1.4489  2.5969
   75MOL0     H10309   2.771   0.948   4.321 -3.8256 -0.5420  1.6008
   75MOL0     H10310   2.751   0.943   4.493 -2.2979 -0.3370 -1.0887
   75MOL0     H10311   2.914   1.000   4.420 -0.4747 -0.7155 -1.9011
   75MOL0     H10312   3.180   1.576   4.213  1.5369 -0.6398 -1.4135
   75MOL0     H10313   3.394   1.639   4.285  1.8259 -1.5295 -1.3442
   75MOL0     H10314   3.735   1.417   4.453  1.9207  1.1768 -1.7632
   75MOL0     H10315   3.634   1.279   4.414 -3.1483  1.0206  0.9367
   75MOL0     H10316   3.751   1.500   4.219  0.0568  0.5753 -4.4895
   75MOL0     H10317   3.842   1.364   4.251  0.4202  1.0786  0.0209
   75MOL0     H10318   3.569   1.385   4.109 -0.5256 -1.0790 -1.1876
   75MOL0     H10319   3.633   1.225   4.149  0.4673 -1.4357 -0.4008
   75MOL0     H10320   3.703   1.418   3.926  1.2361 -1.5819 -2.7304
   75MOL0     H10321   3.689   1.245   3.923 -3.1021 -0.0587  2.7850
   75MOL0     H10322   3.938   1.410   4.014  1.8783 -2.2203  2.4140
   75MOL0     H10323   3.918   1.239   4.055 -2.2442  1.5189  3.0302
   75MOL0     H10324   3.918   1.388   3.795 -4.1773  0.0720  0.8081
   75MOL0     H10325   3.892   1.212   3.806 -1.9012  2.6711 -1.1769
   75MOL0     H10326   4.128   1.204   3.950 -1.7194 -2.5695 -0.5191
   75MOL0     H10327   4.157   1.357   3.864 -1.2054  0.0117  1.0928
   75MOL0     H10328   4.079   1.112   3.714 -5.7004  3.4032 -2.1158
   75MOL0     H10329   4.246   1.160   3.747 -1.1897 -4.4421 -1.5894
   75MOL0     H10330   3.426   1.236   4.466  0.2710 -0.1289  0.3973
   75MOL0     H10331   3.200   1.201   4.437 -1.6195  0.7861  0.0793
   75MOL0     H10332   2.816   1.454   4.339  0.1042  1.1294  2.0937
   75MOL0     H10333   2.567   1.475   4.376 -1.3452 -0.8752 -1.6272
   75MOL0     H10334   2.796   1.100   4.777 -0.5333 -0.7050 -1.7516
   75MOL0     H10335   2.962   0.961   4.739  2.4041 -1.4896  1.6305
   75MOL0     H10336   3.250   0.644   4.522  1.7863 -2.1573 -3.3083
   75MOL0     H10337   3.462   0.538   4.464  2.6974  0.0368  1.6565
   75MOL0     H10338   3.705   0.480   4.355 -2.3953  0.3542  0.5195
   75MOL0     H10339   3.679   0.629   4.272 -0.5125 -0.7508 -0.1363
   75MOL0     H10340   3.948   0.549   4.407  2.2713  1.6465 -0.9354
   75MOL0     H10341   3.923   0.706   4.340  1.4221 -0.2602 -1.2616
   75MOL0     H10342   3.898   0.449   4.159  2.1442 -1.1277 -1.7133
   75MOL0     H10343   3.863   0.605   4.113 -0.7152 -1.0359 -1.1751
   75MOL0     H10344   4.102   0.683   4.166  0.3465 -0.0403 -0.2572
   75MOL0     H10345   4.099   0.566   4.026  2.7536 -1.4269 -0.0485
   75MOL0     H10346   4.341   0.341   4.272  1.0381 -0.0761 -3.1137
   75MOL0     H10347   3.680   0.874   4.607 -2.0392  2.1280  0.3678
   75MOL0     H10348   3.473   1.102   4.716 -0.6113  1.4813  5.3877
   75MOL0     H10349   3.450   0.982   4.836  1.5188 -0.4984  1.6126
   75MOL0     H10350   3.610   1.003   4.763 -0.5722 -4.6849  1.6991
   76MOL0     O10351   1.145   7.129   3.918 -0.1585 -0.0693 -0.3728
   76MOL0     C10352   1.180   7.113   4.040 -0.4882 -0.4691  0.2146
   76MOL0     O10353   1.246   7.203   4.115 -0.3014 -0.1242  0.2543
   76MOL0     C10354   1.298   7.305   4.042 -0.6600  0.5606 -0.9354
   76MOL0     C10355   1.230   7.425   4.025 -0.3987 -0.2603  0.6197
   76MOL0     C10356   1.307   7.520   3.944 -0.2612  0.5646 -0.4539
   76MOL0     C10357   1.443   7.504   3.902 -0.1868 -0.0647  0.1245
   76MOL0     O10358   1.485   7.601   3.819 -1.3142 -0.0006 -0.0419
   76MOL0     C10359   1.611   7.578   3.753 -0.9294  0.1186 -0.2447
   76MOL0     C10360   1.723   7.628   3.846 -0.1976 -0.6006 -0.4038
   76MOL0     C10361   1.723   7.782   3.862 -0.1475  1.2432 -0.6532
   76MOL0     C10362   1.845   7.834   3.926  0.3501 -0.1225  0.1789
   76MOL0     C10363   1.838   7.983   3.930 -0.2520 -0.8518 -0.2379
   76MOL0     C10364   1.974   8.042   3.949 -0.4715  0.3510 -0.2251
   76MOL0     C10365   1.987   8.189   3.934  0.9164 -0.2387  0.1569
   76MOL0     C10366   1.973   8.236   3.791  0.6445  0.3430  0.2244
   76MOL0     N10367   2.001   8.381   3.779  0.0009  0.3783  0.1208
   76MOL0     C10368   2.125   8.421   3.731 -0.9689 -0.9041 -0.1176
   76MOL0     C10369   2.119   8.551   3.741  0.4642 -0.0169  0.2052
   76MOL0     C10370   2.224   8.652   3.699 -0.3893 -0.3856 -0.2528
   76MOL0     C10371   2.367   8.608   3.732 -0.0545 -0.6512 -0.0518
   76MOL0     C10372   2.403   8.575   3.870  0.1091  0.4338 -0.1250
   76MOL0     C10373   2.381   8.670   3.979  0.6612 -0.1589  0.3790
   76MOL0     O10374   2.438   8.628   4.097 -0.0949  0.8313  0.3037
   76MOL0     C10375   2.430   8.708   4.209 -0.6877 -0.5039  0.7586
   76MOL0     C10376   2.467   8.645   4.322 -0.2750 -0.5591 -0.9417
   76MOL0     C10377   2.467   8.709   4.457  0.5098  0.0373 -0.0735
   76MOL0     C10378   2.526   8.629   4.576 -0.3791 -0.3286  0.7588
   76MOL0     C10379   2.414   8.840   4.467 -0.5493 -0.9182 -0.7349
   76MOL0     C10380   2.404   8.921   4.584  0.5665 -0.6016 -0.3428
   76MOL0     O10381   2.354   8.858   4.695  0.3423  0.3564 -0.5074
   76MOL0     C10382   2.307   8.938   4.797 -0.4614 -0.5630  0.3302
   76MOL0     C10383   2.183   8.902   4.850  0.2814 -0.4235  0.2229
   76MOL0     C10384   2.124   8.972   4.959 -0.3200 -0.2639  0.5768
   76MOL0     C10385   2.200   9.068   5.025 -0.0016 -0.3327  0.2929
   76MOL0     O10386   2.145   9.125   5.134 -0.1902 -0.9677 -0.3569
   76MOL0     C10387   2.191   9.256   5.178  0.1368 -0.3399 -0.3344
   76MOL0     C10388   2.072   9.331   5.240  0.0951  0.3062 -1.0977
   76MOL0     C10389   2.105   9.425   5.357 -0.7403  0.1489 -0.7582
   76MOL0     C10390   2.007   9.535   5.358  0.3188 -0.5162  0.2944
   76MOL0     C10391   2.029   9.630   5.479 -0.0486 -0.1460 -0.0393
   76MOL0     C10392   2.162   9.682   5.491 -0.6173 -0.9128 -0.1413
   76MOL0     C10393   2.194   9.788   5.602  0.2305 -0.2632 -0.0771
   76MOL0     C10394   2.350   9.797   5.622  0.3463  0.7723 -0.5518
   76MOL0    Cl10395   2.431   9.844   5.468  0.5400 -0.1371  0.1773
   76MOL0     C10396   2.333   9.093   4.975  0.7036  0.1009  0.3645
   76MOL0     C10397   2.386   9.034   4.860  0.2562  0.4725  0.3747
   76MOL0     O10398   2.392   9.046   4.568 -0.5184  0.0249  0.0174
   76MOL0     C10399   2.389   8.908   4.343 -0.0617  0.4148 -0.1518
   76MOL0     C10400   2.381   8.838   4.218  0.1465  0.3929 -0.0782
   76MOL0     N10401   1.999   8.587   3.807  0.6649 -0.5978  0.0613
   76MOL0     N10402   1.929   8.483   3.832  0.6921  1.2110  0.1555
   76MOL0     C10403   1.503   7.378   3.937 -0.7318  0.0325 -0.2691
   76MOL0     C10404   1.429   7.279   3.998  0.7070 -0.5782  0.1078
   76MOL0     C10405   1.136   6.986   4.117  0.5334  0.4256 -0.1436
   76MOL0     C10406   1.152   6.976   4.257 -0.3322  0.3801  0.6726
   76MOL0     C10407   1.112   6.862   4.333  0.2170 -0.6460 -0.7096
   76MOL0     C10408   1.030   6.774   4.279 -0.3495  0.2627 -0.6970
   76MOL0     O10409   0.991   6.658   4.346 -0.2342  0.2669 -0.4286
   76MOL0     C10410   0.977   6.667   4.487  0.5670 -0.2355  0.4209
   76MOL0     C10411   0.845   6.590   4.529  0.9442 -0.8823 -0.3512
   76MOL0     C10412   0.844   6.449   4.473  0.4062 -0.7388  0.0970
   76MOL0     C10413   0.712   6.398   4.500  0.3736  0.0316  0.3081
   76MOL0     C10414   0.691   6.265   4.447 -1.1941 -0.2799  0.5024
   76MOL0     C10415   0.676   6.149   4.416  0.9811  0.3750 -0.4895
   76MOL0     C10416   1.002   6.782   4.146 -0.5793  0.4677 -0.9162
   76MOL0     C10417   1.059   6.878   4.060 -0.2992  0.7419  0.1600
   76MOL0     C10418   1.023   6.872   3.914  0.6172  0.0747 -0.4209
   76MOL0     H10419   1.127   7.443   4.055  0.3878  4.0033  1.4023
   76MOL0     H10420   1.262   7.615   3.917 -1.3295  1.4010  3.5438
   76MOL0     H10421   1.601   7.643   3.666 -1.5767  1.5698  0.8610
   76MOL0     H10422   1.638   7.474   3.733  1.5191  0.7636 -0.5012
   76MOL0     H10423   1.725   7.576   3.943  1.5133 -2.4391 -1.3410
   76MOL0     H10424   1.822   7.604   3.808  0.1507 -2.2902  1.3502
   76MOL0     H10425   1.723   7.833   3.765 -2.1040  0.1422 -1.2771
   76MOL0     H10426   1.633   7.816   3.914 -0.4998  0.3031 -0.6262
   76MOL0     H10427   1.853   7.805   4.031 -1.4832 -0.3365  0.2770
   76MOL0     H10428   1.926   7.806   3.858 -1.3704  0.1619 -2.1131
   76MOL0     H10429   1.773   8.024   4.007  1.0979  2.6960 -0.7922
   76MOL0     H10430   1.810   8.016   3.829 -2.4039 -0.3110  0.4818
   76MOL0     H10431   2.020   8.017   4.046  2.1999 -0.7618 -1.6734
   76MOL0     H10432   2.041   7.992   3.879 -1.2726 -2.8537  1.0715
   76MOL0     H10433   2.081   8.231   3.970 -0.2747  1.5015  1.4137
   76MOL0     H10434   1.908   8.231   3.996 -0.1203 -2.0473  0.1451
   76MOL0     H10435   2.039   8.175   3.729  0.8424 -0.3209  1.0741
   76MOL0     H10436   1.872   8.205   3.762  0.6812  0.4779 -0.0517
   76MOL0     H10437   2.205   8.355   3.701 -1.7900 -2.1925  0.4575
   76MOL0     H10438   2.201   8.751   3.739  0.5099 -0.3035  0.0994
   76MOL0     H10439   2.230   8.671   3.592  0.4561  2.8069  0.2397
   76MOL0     H10440   2.388   8.514   3.679 -0.0266 -0.5001 -0.3090
   76MOL0     H10441   2.434   8.682   3.689  0.5312 -2.6668 -2.9132
   76MOL0     H10442   2.339   8.490   3.896  0.1674  0.3513 -0.2450
   76MOL0     H10443   2.507   8.540   3.868 -0.1340 -0.2851 -0.6594
   76MOL0     H10444   2.429   8.766   3.959  0.1020 -0.2854 -1.7859
   76MOL0     H10445   2.274   8.682   3.992  0.5114 -2.6071  2.1308
   76MOL0     H10446   2.517   8.549   4.318 -1.9356 -1.5180  0.1325
   76MOL0     H10447   2.541   8.691   4.664  0.9932  0.8719 -0.2832
   76MOL0     H10448   2.629   8.600   4.551  0.6552  0.5034  3.6228
   76MOL0     H10449   2.458   8.546   4.598  1.1317 -2.0744 -0.7311
   76MOL0     H10450   2.111   8.838   4.799 -3.4286  2.8481  0.8737
   76MOL0     H10451   2.024   8.938   4.981  0.1079 -3.7465 -1.9383
   76MOL0     H10452   2.275   9.240   5.247  0.5416  0.4251 -0.6460
   76MOL0     H10453   2.215   9.313   5.088 -2.1338 -1.6990 -1.9077
   76MOL0     H10454   2.024   9.385   5.158 -2.8131 -0.4011  0.0013
   76MOL0     H10455   1.994   9.262   5.271 -0.8090  1.5193 -0.5657
   76MOL0     H10456   2.202   9.462   5.322  0.4939 -2.4723 -0.3441
   76MOL0     H10457   2.121   9.364   5.447 -0.8020  0.9258 -0.2119
   76MOL0     H10458   1.906   9.493   5.365  0.3795 -0.3510  3.2223
   76MOL0     H10459   2.028   9.596   5.270  0.5066 -1.6019 -0.4427
   76MOL0     H10460   1.952   9.709   5.477 -2.7206 -2.5452  1.2480
   76MOL0     H10461   1.997   9.578   5.569 -0.3391 -2.1294 -1.2438
   76MOL0     H10462   2.180   9.729   5.394 -1.0676 -3.1733 -1.3784
   76MOL0     H10463   2.229   9.596   5.500  0.7230 -0.0393 -1.3878
   76MOL0     H10464   2.146   9.762   5.697  1.3835 -3.5019 -0.2725
   76MOL0     H10465   2.158   9.886   5.568 -1.4225 -1.1303 -0.9875
   76MOL0     H10466   2.387   9.701   5.661 -3.4204  0.8412  4.0825
   76MOL0     H10467   2.368   9.876   5.695  2.1569  1.6862 -1.9153
   76MOL0     H10468   2.394   9.169   5.021  2.1299 -0.7283 -0.1116
   76MOL0     H10469   2.483   9.067   4.826 -0.4197  1.0240 -1.1078
   76MOL0     H10470   2.388   9.016   4.340 -0.4087  0.4448  0.7973
   76MOL0     H10471   2.363   8.898   4.129  0.9761 -0.5059 -0.8673
   76MOL0     H10472   1.608   7.360   3.915 -0.1079  3.2206 -0.4425
   76MOL0     H10473   1.483   7.192   4.035  0.8812  0.2108  1.8123
   76MOL0     H10474   1.218   7.049   4.304 -0.8176  1.7298 -0.6371
   76MOL0     H10475   1.149   6.874   4.434 -1.0728 -0.4554 -0.2440
   76MOL0     H10476   1.066   6.621   4.533  1.2971 -1.3949 -1.9518
   76MOL0     H10477   0.975   6.770   4.524 -1.5571  0.5257 -1.5727
   76MOL0     H10478   0.756   6.641   4.488 -0.1311 -0.2237  2.5782
   76MOL0     H10479   0.837   6.588   4.638 -0.4149  1.2126 -0.3476
   76MOL0     H10480   0.863   6.443   4.366  1.3047  0.5999  0.1613
   76MOL0     H10481   0.923   6.399   4.530  0.1747 -0.6198  0.5312
   76MOL0     H10482   0.636   6.464   4.457  1.5550  1.0065 -0.3589
   76MOL0     H10483   0.684   6.397   4.606 -5.0232 -0.4309 -0.8376
   76MOL0     H10484   0.675   6.050   4.375  0.9754  0.9437 -1.9121
   76MOL0     H10485   0.938   6.707   4.101  1.0928  0.1616 -2.9108
   76MOL0     H10486   0.940   6.940   3.890  0.7825  1.0001  1.4790
   76MOL0     H10487   1.104   6.909   3.851  1.5953 -0.0577  0.7339
   76MOL0     H10488   0.989   6.772   3.886 -2.1568  0.4121  1.3179
   77MOL0     O10489   5.165   8.874  11.337  0.0932 -0.6191  0.1012
   77MOL0     C10490   5.165   8.929  11.233 -0.2120 -0.7389  0.3364
   77MOL0     O10491   5.128   9.054  11.199  0.0597  0.1079  0.2903
   77MOL0     C10492   5.042   9.119  11.286  0.0461 -0.9636  0.3500
   77MOL0     C10493   4.933   9.167  11.222 -0.2466 -0.4203  0.2996
   77MOL0     C10494   4.847   9.242  11.302  0.5672  0.9242  0.1894
   77MOL0     C10495   4.865   9.279  11.435 -0.0533 -0.4212  0.9360
   77MOL0     O10496   4.786   9.358  11.510  0.0523 -0.6694 -0.9517
   77MOL0     C10497   4.653   9.404  11.452 -0.4547 -0.0231 -0.1150
   77MOL0     C10498   4.573   9.471  11.571 -0.2279  0.3420  0.6925
   77MOL0     C10499   4.646   9.582  11.641 -1.1310  0.2750 -0.0130
   77MOL0     C10500   4.569   9.630  11.762  0.6842 -0.3438 -0.7138
   77MOL0     C10501   4.648   9.728  11.851 -0.7592 -0.3922  0.1865
   77MOL0     C10502   4.583   9.781  11.973  0.5510  0.2396  0.1722
   77MOL0     C10503   4.684   9.851  12.068  0.7280  0.4871 -0.9603
   77MOL0     C10504   4.756   9.980  12.006  1.4051  0.5032  0.3824
   77MOL0     N10505   4.662  10.085  11.961  0.7300 -0.0404 -0.0633
   77MOL0     C10506   4.550  10.130  12.025 -0.1554 -0.7412 -0.6417
   77MOL0     C10507   4.471  10.197  11.938 -0.1860  1.1048  0.2579
   77MOL0     C10508   4.335  10.238  11.972 -0.1773  1.2171  0.2000
   77MOL0     C10509   4.309  10.385  11.939 -0.2442  0.6436 -0.0004
   77MOL0     C10510   4.261  10.400  11.790 -0.2471  0.4986 -0.3163
   77MOL0     C10511   4.187  10.536  11.773 -0.1910  0.4139  0.5786
   77MOL0     O10512   4.250  10.648  11.852  0.4889  0.7129 -0.4743
   77MOL0     C10513   4.357  10.713  11.805 -0.0723 -0.2721  0.5220
   77MOL0     C10514   4.429  10.791  11.888 -0.0063  0.0013  0.0037
   77MOL0     C10515   4.548  10.862  11.850  0.4447 -0.0526 -0.5005
   77MOL0     C10516   4.598  10.960  11.950 -0.2647 -0.7181  0.4497
   77MOL0     C10517   4.598  10.849  11.714  1.2545  0.0951 -0.5082
   77MOL0     C10518   4.727  10.907  11.674  0.1998 -0.0779 -0.2004
   77MOL0     O10519   4.737  10.924  11.548 -0.2371  0.2194  1.0440
   77MOL0     C10520   4.847  10.990  11.501  0.0150  0.0092  0.0809
   77MOL0     C10521   4.861  11.122  11.501  0.8140  0.0219  0.0177
   77MOL0     C10522   4.979  11.177  11.451 -0.7529  0.3156  0.6794
   77MOL0     C10523   5.084  11.097  11.394 -0.5907  0.2999 -0.2891
   77MOL0     O10524   5.197  11.144  11.332 -0.3370  0.0526  0.1593
   77MOL0     C10525   5.190  11.284  11.284 -0.1310 -0.9891 -0.0357
   77MOL0     C10526   5.313  11.319  11.196  0.5800  0.6196  0.3098
   77MOL0     C10527   5.308  11.224  11.076  0.4677 -0.1364  0.7397
   77MOL0     C10528   5.249  11.317  10.962 -0.5191 -0.6398 -0.9804
   77MOL0     C10529   5.249  11.230  10.837  0.0745  0.2935 -0.9918
   77MOL0     C10530   5.251  11.310  10.703 -0.2546  0.4515 -0.2431
   77MOL0     C10531   5.102  11.317  10.658 -0.9098 -0.2950 -0.5158
   77MOL0     C10532   5.082  11.400  10.530  0.3105 -0.0038 -0.4379
   77MOL0    Cl10533   4.936  11.487  10.521  0.2467  0.9024  0.3912
   77MOL0     C10534   5.063  10.968  11.391  0.3660  0.1463 -0.1747
   77MOL0     C10535   4.947  10.919  11.453 -0.3920 -0.1035 -0.9389
   77MOL0     O10536   4.821  10.928  11.762  0.7863  0.8254  0.5079
   77MOL0     C10537   4.515  10.767  11.624 -0.3089  0.2689 -0.3261
   77MOL0     C10538   4.400  10.701  11.673 -1.0405 -0.5380  0.6753
   77MOL0     N10539   4.541  10.201  11.817 -0.0492  0.0928 -0.1503
   77MOL0     N10540   4.655  10.143  11.837 -0.3984  0.3558 -0.1664
   77MOL0     C10541   4.977   9.227  11.495 -1.0359  0.0540 -0.3137
   77MOL0     C10542   5.056   9.139  11.420  0.6002  0.2783  0.0679
   77MOL0     C10543   5.208   8.843  11.118  0.2162 -0.8311 -0.7572
   77MOL0     C10544   5.109   8.814  11.034 -1.1222  0.3043 -0.6005
   77MOL0     C10545   5.131   8.728  10.925 -0.8491 -0.3719  0.4425
   77MOL0     C10546   5.253   8.666  10.911  0.3626  0.8959  0.2202
   77MOL0     O10547   5.281   8.578  10.802 -0.1765 -0.3983 -0.5283
   77MOL0     C10548   5.172   8.545  10.721 -0.6141 -1.1334 -0.7159
   77MOL0     C10549   5.209   8.435  10.622 -0.2570 -0.8583  0.2235
   77MOL0     C10550   5.248   8.501  10.489  0.1148  1.0683  1.3474
   77MOL0     C10551   5.293   8.403  10.382  0.5783 -0.2024  0.7534
   77MOL0     C10552   5.304   8.465  10.245 -1.1289 -0.4162 -0.4627
   77MOL0     C10553   5.286   8.511  10.137  0.0652  0.5585  0.1871
   77MOL0     C10554   5.355   8.698  11.000  0.0274  0.0088 -0.8921
   77MOL0     C10555   5.343   8.789  11.104  0.4032  0.9017  0.1981
   77MOL0     C10556   5.453   8.826  11.202 -0.2486 -0.1841 -0.8451
   77MOL0     H10557   4.904   9.158  11.118 -1.3578  3.6676  0.0938
   77MOL0     H10558   4.754   9.272  11.255 -0.1026 -2.2449 -0.7150
   77MOL0     H10559   4.587   9.325  11.416 -1.4652 -0.1104  1.8209
   77MOL0     H10560   4.671   9.476  11.372 -0.2294 -1.1681 -1.1231
   77MOL0     H10561   4.479   9.498  11.522  0.9523 -0.3952 -2.1831
   77MOL0     H10562   4.551   9.389  11.640  1.5605 -0.5908  0.2137
   77MOL0     H10563   4.740   9.536  11.671 -0.1521 -0.0478 -3.2117
   77MOL0     H10564   4.677   9.661  11.572 -0.0114  0.8813  1.1338
   77MOL0     H10565   4.474   9.680  11.742  0.5885 -0.3845 -0.3642
   77MOL0     H10566   4.548   9.537  11.816 -0.5629  0.4420  0.1956
   77MOL0     H10567   4.686   9.806  11.786 -0.6287 -0.3157  0.3533
   77MOL0     H10568   4.736   9.671  11.885 -1.1644 -0.6608  0.8156
   77MOL0     H10569   4.498   9.842  11.941 -0.1462 -1.0133 -0.4355
   77MOL0     H10570   4.532   9.698  12.022  0.6769  0.2293  0.2861
   77MOL0     H10571   4.772   9.787  12.081 -0.2645 -1.4614 -3.1639
   77MOL0     H10572   4.632   9.890  12.156 -0.4844  0.5328 -1.6763
   77MOL0     H10573   4.824  10.017  12.082 -0.5284 -1.9389  3.5573
   77MOL0     H10574   4.808   9.936  11.921 -0.4549 -0.4890 -0.3089
   77MOL0     H10575   4.529  10.120  12.131  0.8283 -0.9705 -0.4643
   77MOL0     H10576   4.315  10.225  12.079  1.0363 -0.0712  0.3125
   77MOL0     H10577   4.270  10.175  11.910 -0.1068  2.3494 -1.0688
   77MOL0     H10578   4.223  10.417  11.998 -1.9673 -0.8931 -1.5424
   77MOL0     H10579   4.397  10.447  11.956 -0.9896  1.5131  0.8344
   77MOL0     H10580   4.349  10.412  11.727 -0.4323 -0.0739 -0.6882
   77MOL0     H10581   4.196  10.319  11.753  0.2356 -0.3203  0.5672
   77MOL0     H10582   4.170  10.564  11.669 -0.0907 -1.0858  0.1405
   77MOL0     H10583   4.086  10.532  11.816 -0.8477  1.9977 -0.6966
   77MOL0     H10584   4.402  10.798  11.993 -1.0764 -0.7840 -0.2019
   77MOL0     H10585   4.582  11.061  11.910 -2.0833 -1.4861 -0.8847
   77MOL0     H10586   4.700  10.941  11.985 -0.1162  0.3294  0.6263
   77MOL0     H10587   4.544  10.974  12.043  2.1619 -2.5653  2.2802
   77MOL0     H10588   4.788  11.188  11.547  3.9011  2.3925  1.8272
   77MOL0     H10589   4.994  11.283  11.464 -3.3297  0.4666  3.6017
   77MOL0     H10590   5.105  11.289  11.216  1.5714 -3.6883 -2.6164
   77MOL0     H10591   5.185  11.350  11.370 -2.5090 -2.9437  1.4581
   77MOL0     H10592   5.319  11.426  11.172  0.2544  0.5937  0.1115
   77MOL0     H10593   5.404  11.290  11.248 -0.8179 -1.7805  1.5677
   77MOL0     H10594   5.250  11.133  11.090 -1.4467  0.7290 -0.9364
   77MOL0     H10595   5.410  11.199  11.047  0.4896  2.5856 -2.1193
   77MOL0     H10596   5.303  11.412  10.964 -0.3811 -0.7133 -1.1802
   77MOL0     H10597   5.145  11.347  10.979 -0.6534 -0.5961 -1.8186
   77MOL0     H10598   5.337  11.168  10.824 -0.1637 -0.3181  0.1393
   77MOL0     H10599   5.169  11.156  10.848  2.0049 -1.7138  0.4919
   77MOL0     H10600   5.313  11.259  10.630  0.4641  2.3485 -0.9944
   77MOL0     H10601   5.289  11.411  10.718  1.2937 -0.3835  2.0299
   77MOL0     H10602   5.038  11.358  10.736 -0.4551  0.1553 -0.3704
   77MOL0     H10603   5.065  11.215  10.645 -0.9051 -0.4686  0.7105
   77MOL0     H10604   5.104  11.333  10.447  0.8968 -3.9559  2.6025
   77MOL0     H10605   5.155  11.481  10.519  1.8023 -1.0641  1.1461
   77MOL0     H10606   5.130  10.896  11.345 -0.2372 -0.1315 -0.6340
   77MOL0     H10607   4.938  10.811  11.447  0.9793 -0.3006  0.1494
   77MOL0     H10608   4.551  10.746  11.524 -1.9506 -1.7146 -0.5727
   77MOL0     H10609   4.349  10.633  11.606  0.0212 -0.4483 -0.2622
   77MOL0     H10610   5.001   9.225  11.601 -0.4355  1.8666 -0.3790
   77MOL0     H10611   5.140   9.086  11.463  1.1545  0.2344 -1.0168
   77MOL0     H10612   5.015   8.868  11.036 -1.2760  0.0165  1.2668
   77MOL0     H10613   5.054   8.724  10.849  0.3958  1.2362 -0.9851
   77MOL0     H10614   5.094   8.494  10.778 -0.2319  0.4843  1.3465
   77MOL0     H10615   5.131   8.634  10.672  1.2609  1.3246  1.8646
   77MOL0     H10616   5.123   8.370  10.605 -1.5756  0.6454  0.7645
   77MOL0     H10617   5.293   8.373  10.653  0.2051 -1.1186 -1.5078
   77MOL0     H10618   5.172   8.570  10.453  2.5108  3.2935  0.2463
   77MOL0     H10619   5.337   8.563  10.494 -0.5476  2.2218 -0.4273
   77MOL0     H10620   5.218   8.323  10.384 -0.3396  0.6581  1.6768
   77MOL0     H10621   5.393   8.364  10.404  0.4868 -1.0529 -0.2467
   77MOL0     H10622   5.254   8.561  10.048 -2.0871  0.6252  0.9484
   77MOL0     H10623   5.448   8.651  10.970 -0.8334 -0.6030 -2.7925
   77MOL0     H10624   5.494   8.920  11.163 -0.7141  0.4029  0.0570
   77MOL0     H10625   5.407   8.830  11.301 -2.4958  0.5571 -1.8744
   77MOL0     H10626   5.544   8.765  11.196 -0.1929 -0.2503  0.4376
   78MOL0     O10627   4.907   9.612   6.245 -0.0898 -0.2217  0.4396
   78MOL0     C10628   4.855   9.528   6.319  0.5633  0.7369  0.4765
   78MOL0     O10629   4.753   9.440   6.278  0.4286  0.2416 -0.0454
   78MOL0     C10630   4.684   9.471   6.157 -0.1039  0.1796 -0.0705
   78MOL0     C10631   4.588   9.578   6.158  0.3308 -0.0104  0.5338
   78MOL0     C10632   4.491   9.591   6.055  0.5477 -0.4402  0.5066
   78MOL0     C10633   4.492   9.505   5.945 -0.5784 -0.0606 -0.3814
   78MOL0     O10634   4.397   9.524   5.852  0.7296  0.0861  0.1069
   78MOL0     C10635   4.270   9.550   5.903  0.2737 -0.1402  0.7362
   78MOL0     C10636   4.164   9.514   5.800 -0.3484  0.1398  0.3718
   78MOL0     C10637   4.175   9.373   5.743 -0.7623 -0.4831 -0.1626
   78MOL0     C10638   4.103   9.273   5.826 -0.2968  0.0086  0.1923
   78MOL0     C10639   4.120   9.131   5.778 -0.8695 -0.6499  0.1932
   78MOL0     C10640   4.078   9.010   5.861  0.3093  0.1543  0.0662
   78MOL0     C10641   3.930   9.021   5.893  0.1962 -0.2886  0.2885
   78MOL0     C10642   3.823   8.968   5.805  0.7409  1.0590  0.9131
   78MOL0     N10643   3.837   9.003   5.662  0.1771 -0.2233  0.1118
   78MOL0     C10644   3.930   8.950   5.579  0.2364 -0.0336  0.2837
   78MOL0     C10645   3.885   8.995   5.454  0.5406  0.0402  0.1965
   78MOL0     C10646   3.940   8.969   5.321  0.3205  0.0017 -0.1022
   78MOL0     C10647   3.995   8.822   5.320 -0.7006 -0.7434 -0.7548
   78MOL0     C10648   4.029   8.775   5.179 -0.2007  0.2772  0.1536
   78MOL0     C10649   3.902   8.748   5.099  0.0166 -0.7748 -0.0007
   78MOL0     O10650   3.835   8.628   5.151  0.2735 -0.1945 -0.1930
   78MOL0     C10651   3.725   8.584   5.082  0.3527 -0.2355 -0.1843
   78MOL0     C10652   3.675   8.463   5.125  0.0096 -0.1448 -0.2553
   78MOL0     C10653   3.554   8.414   5.087  0.3666  0.8314 -0.0808
   78MOL0     C10654   3.484   8.315   5.176 -0.7233 -0.6198 -0.0472
   78MOL0     C10655   3.491   8.472   4.968 -1.0964 -1.1985  0.1416
   78MOL0     C10656   3.376   8.413   4.896  0.2939 -0.2578  0.2098
   78MOL0     O10657   3.369   8.474   4.777  0.3567  0.3223 -0.0086
   78MOL0     C10658   3.276   8.429   4.684 -0.9433 -0.5734 -0.2008
   78MOL0     C10659   3.322   8.348   4.573  0.2348 -0.8104 -0.1950
   78MOL0     C10660   3.232   8.302   4.478  0.1862  0.5861 -0.2465
   78MOL0     C10661   3.100   8.341   4.486 -0.0835  0.9211 -0.0011
   78MOL0     O10662   3.021   8.277   4.397 -0.0574  0.0149  0.2204
   78MOL0     C10663   2.882   8.286   4.420 -1.0751  0.5589  0.5964
   78MOL0     C10664   2.823   8.215   4.296 -0.1656  0.1109  0.8494
   78MOL0     C10665   2.672   8.203   4.302  0.6837  0.6169  0.1665
   78MOL0     C10666   2.618   8.148   4.168 -0.8244  0.5660 -0.2422
   78MOL0     C10667   2.458   8.129   4.169  0.2942  0.3835  0.1779
   78MOL0     C10668   2.397   8.064   4.048 -0.0413 -0.7941 -0.2088
   78MOL0     C10669   2.392   8.157   3.920  0.1017 -0.2195 -0.0277
   78MOL0     C10670   2.342   8.082   3.790 -0.1166 -0.2389 -0.2283
   78MOL0    Cl10671   2.394   8.168   3.642 -0.3046 -0.2184  0.1164
   78MOL0     C10672   3.061   8.430   4.585  1.1353  0.6469  0.2278
   78MOL0     C10673   3.147   8.484   4.682 -1.5401 -0.2639  0.2483
   78MOL0     O10674   3.317   8.311   4.929  1.2239  0.1364 -0.0981
   78MOL0     C10675   3.536   8.607   4.934 -0.0582 -0.1841 -0.2745
   78MOL0     C10676   3.653   8.656   4.994  1.1147  0.1118  0.3066
   78MOL0     N10677   3.777   9.076   5.469  0.5013  0.4147 -0.9182
   78MOL0     N10678   3.738   9.071   5.594  0.3920  0.4257 -0.2837
   78MOL0     C10679   4.583   9.401   5.941  0.3718 -0.0821  0.1896
   78MOL0     C10680   4.685   9.391   6.038  1.3816  0.8379 -0.1758
   78MOL0     C10681   4.873   9.547   6.469 -0.9843 -0.6763  0.1560
   78MOL0     C10682   4.943   9.656   6.518 -0.1760  0.0422  0.1692
   78MOL0     C10683   4.955   9.686   6.660  0.5917 -0.3202  0.4580
   78MOL0     C10684   4.889   9.611   6.757  0.8037  0.2087  1.8333
   78MOL0     O10685   4.916   9.632   6.886 -0.7573  0.0624 -1.0860
   78MOL0     C10686   4.856   9.545   6.979  0.5687 -0.0542  0.7087
   78MOL0     C10687   4.877   9.589   7.123  0.1848  0.5564  0.1476
   78MOL0     C10688   5.021   9.630   7.155  0.2185 -0.7830  0.3366
   78MOL0     C10689   5.103   9.504   7.176  0.0060  0.0130  0.4048
   78MOL0     C10690   5.138   9.422   7.063  0.2461  0.7979 -0.0038
   78MOL0     C10691   5.171   9.347   6.971 -0.8730  0.4810  1.2306
   78MOL0     C10692   4.830   9.490   6.699  0.1873  1.0830  0.4989
   78MOL0     C10693   4.830   9.452   6.562 -0.6684  0.3019  0.5998
   78MOL0     C10694   4.786   9.317   6.521 -0.1389 -0.3158  0.7181
   78MOL0     H10695   4.581   9.656   6.233  0.9988  2.1193 -1.4789
   78MOL0     H10696   4.415   9.665   6.075  0.1481 -0.6909 -0.0616
   78MOL0     H10697   4.254   9.653   5.934 -0.3701 -0.7140  2.4249
   78MOL0     H10698   4.248   9.479   5.984 -1.0246 -0.4506  0.1449
   78MOL0     H10699   4.066   9.519   5.850 -0.2332 -1.2132  0.7658
   78MOL0     H10700   4.154   9.578   5.712  0.0579 -2.0116 -1.3133
   78MOL0     H10701   4.139   9.360   5.640 -0.4651  0.4492 -0.3919
   78MOL0     H10702   4.280   9.346   5.728 -0.7717 -1.0372  0.7034
   78MOL0     H10703   4.143   9.280   5.928  1.8631  2.5836 -0.7134
   78MOL0     H10704   3.996   9.291   5.822 -0.4634 -0.9382  0.1154
   78MOL0     H10705   4.225   9.108   5.757 -0.9995 -0.2680 -0.9543
   78MOL0     H10706   4.055   9.128   5.689  1.0564 -3.9322 -1.3085
   78MOL0     H10707   4.100   8.916   5.810 -1.8507 -0.1292 -0.4346
   78MOL0     H10708   4.138   9.012   5.952  1.7018 -1.0119 -0.7762
   78MOL0     H10709   3.902   9.127   5.898  1.3775  0.1849 -1.7947
   78MOL0     H10710   3.905   8.962   5.982  1.7929 -1.8120 -0.2080
   78MOL0     H10711   3.826   8.859   5.803  0.0041  0.9168 -3.9120
   78MOL0     H10712   3.726   9.000   5.843 -1.6341 -4.7730  0.7235
   78MOL0     H10713   4.016   8.890   5.606 -0.5240 -1.3915 -0.2191
   78MOL0     H10714   4.014   9.044   5.294  0.5278  0.4264  1.5486
   78MOL0     H10715   3.855   8.976   5.253  1.9668  1.1107 -2.1477
   78MOL0     H10716   4.075   8.806   5.392 -1.9402  1.7641  1.3617
   78MOL0     H10717   3.911   8.767   5.363  0.0136  0.6205  2.6689
   78MOL0     H10718   4.102   8.843   5.133  0.3214  1.9297  3.1950
   78MOL0     H10719   4.084   8.681   5.189  0.3154  0.7273  1.7327
   78MOL0     H10720   3.844   8.840   5.107  0.2349 -0.7634  2.3641
   78MOL0     H10721   3.922   8.727   4.994 -1.1186 -1.2571 -0.1404
   78MOL0     H10722   3.719   8.418   5.214  1.1337  5.7114  2.6328
   78MOL0     H10723   3.387   8.358   5.204 -0.2474 -1.0285  2.4117
   78MOL0     H10724   3.541   8.299   5.268  0.3822  0.3401 -0.5343
   78MOL0     H10725   3.469   8.219   5.125 -0.7520 -0.5140 -0.2405
   78MOL0     H10726   3.424   8.313   4.574  1.7616  3.1026  1.7630
   78MOL0     H10727   3.258   8.231   4.400 -1.4667  0.9465 -1.1982
   78MOL0     H10728   2.851   8.231   4.510 -1.6099 -1.9990 -1.0506
   78MOL0     H10729   2.844   8.388   4.425  0.5538  1.1624  1.7065
   78MOL0     H10730   2.845   8.286   4.214  0.4847 -2.5082 -1.3869
   78MOL0     H10731   2.876   8.121   4.281 -1.1584 -0.1372 -1.6818
   78MOL0     H10732   2.623   8.301   4.314 -2.0850 -0.6560  0.0043
   78MOL0     H10733   2.638   8.132   4.378  0.8264 -0.9764 -1.2187
   78MOL0     H10734   2.658   8.048   4.147 -6.4006 -1.8601 -1.2375
   78MOL0     H10735   2.643   8.223   4.092  1.8084  1.0213  0.9708
   78MOL0     H10736   2.434   8.058   4.249  0.8053 -3.0304 -2.4396
   78MOL0     H10737   2.410   8.227   4.176  0.7266  0.8402 -2.2664
   78MOL0     H10738   2.294   8.033   4.067  0.2034 -0.5724  1.6734
   78MOL0     H10739   2.453   7.974   4.021 -0.5516 -0.5460 -2.2762
   78MOL0     H10740   2.488   8.204   3.897 -0.3015  0.9280  0.5538
   78MOL0     H10741   2.321   8.237   3.943  0.8612  0.6319 -0.5789
   78MOL0     H10742   2.233   8.076   3.788 -0.3022 -0.2226 -5.9645
   78MOL0     H10743   2.382   7.980   3.791  0.2894 -0.0952 -1.2166
   78MOL0     H10744   2.958   8.457   4.603  1.0150 -0.1784  0.8593
   78MOL0     H10745   3.111   8.564   4.745 -0.3452 -1.7202  2.9477
   78MOL0     H10746   3.490   8.669   4.859  2.3827  1.4401 -0.5499
   78MOL0     H10747   3.675   8.761   4.978 -1.1770  0.5089 -0.5531
   78MOL0     H10748   4.571   9.331   5.858  1.8775  1.0687 -1.0660
   78MOL0     H10749   4.744   9.301   6.026 -0.3026 -0.2383 -0.7851
   78MOL0     H10750   4.991   9.719   6.444  1.1323 -0.1569  0.8308
   78MOL0     H10751   5.027   9.762   6.689  0.1311  0.5204 -0.5014
   78MOL0     H10752   4.754   9.539   6.941  1.2618  1.6200 -1.6495
   78MOL0     H10753   4.892   9.444   6.958 -0.9171 -0.9730  2.3045
   78MOL0     H10754   4.849   9.500   7.181  1.5315 -0.5959 -0.8808
   78MOL0     H10755   4.812   9.675   7.135 -2.8102 -1.2809 -1.7401
   78MOL0     H10756   5.064   9.709   7.093 -3.1388  0.8395 -0.1667
   78MOL0     H10757   5.023   9.677   7.254  0.9146  0.4371 -0.2244
   78MOL0     H10758   5.063   9.445   7.258  0.2758 -2.2160 -0.9944
   78MOL0     H10759   5.199   9.547   7.208  0.4550 -0.0250 -0.8297
   78MOL0     H10760   5.217   9.275   6.906  1.4186  1.7406  1.3382
   78MOL0     H10761   4.792   9.412   6.764  1.2113  0.8445  0.8406
   78MOL0     H10762   4.866   9.271   6.463  0.8394  1.4995  0.5755
   78MOL0     H10763   4.765   9.255   6.609 -0.5015  0.0918  0.9240
   78MOL0     H10764   4.691   9.333   6.470 -0.2518  1.8499  1.5107
   79MOL0     O10765   6.807   8.730  10.333 -0.9769 -0.8308 -0.1028
   79MOL0     C10766   6.712   8.799  10.361 -0.4673 -0.3391  0.2943
   79MOL0     O10767   6.674   8.833  10.481 -0.0444  1.0202 -0.4672
   79MOL0     C10768   6.757   8.818  10.586 -0.4348  0.2361 -0.2765
   79MOL0     C10769   6.763   8.704  10.660 -0.6845 -0.4545  0.4991
   79MOL0     C10770   6.859   8.685  10.760  0.0772  0.1766 -0.5279
   79MOL0     C10771   6.944   8.789  10.797 -0.3627 -0.4970 -0.3500
   79MOL0     O10772   7.026   8.776  10.914 -0.9723 -0.2563  0.9170
   79MOL0     C10773   6.970   8.797  11.039 -0.4529  0.5954  0.6911
   79MOL0     C10774   7.014   8.928  11.089  0.1730 -0.1277  0.6669
   79MOL0     C10775   7.164   8.945  11.087  0.8414 -0.2382 -0.0564
   79MOL0     C10776   7.216   8.910  11.227 -0.1994 -0.2216  0.0631
   79MOL0     C10777   7.367   8.902  11.232 -0.6703 -0.2479 -0.0610
   79MOL0     C10778   7.416   8.885  11.373  0.9289  0.6096  0.0604
   79MOL0     C10779   7.572   8.869  11.393  0.1204 -0.2632  0.1311
   79MOL0     C10780   7.612   8.866  11.546  0.5561 -0.1925 -0.4064
   79MOL0     N10781   7.643   8.732  11.581 -0.1768 -0.1537 -1.2416
   79MOL0     C10782   7.576   8.659  11.674  0.7710  0.0555  0.2372
   79MOL0     C10783   7.638   8.537  11.679  0.3275 -0.1623 -0.8001
   79MOL0     C10784   7.615   8.426  11.780  0.4406 -0.3943 -0.3194
   79MOL0     C10785   7.613   8.480  11.921 -0.7633  0.4041 -0.3915
   79MOL0     C10786   7.587   8.372  12.030 -0.5684 -0.0780  0.1050
   79MOL0     C10787   7.449   8.309  12.018 -0.3635 -0.1002 -0.1538
   79MOL0     O10788   7.419   8.238  12.142  0.1341 -0.7385 -0.5613
   79MOL0     C10789   7.395   8.315  12.250  0.3298  0.2759 -1.1486
   79MOL0     C10790   7.326   8.432  12.254 -0.6889  0.1120  0.2583
   79MOL0     C10791   7.308   8.507  12.372 -1.7788  0.5846  0.4272
   79MOL0     C10792   7.210   8.622  12.378 -1.0395 -0.1361 -0.4238
   79MOL0     C10793   7.356   8.452  12.493 -0.2371  0.2022 -0.9140
   79MOL0     C10794   7.349   8.523  12.622  1.6591  0.3855  0.4259
   79MOL0     O10795   7.315   8.446  12.724  0.0173  0.1961  0.3821
   79MOL0     C10796   7.293   8.513  12.842  1.4358  0.4194  0.6258
   79MOL0     C10797   7.168   8.498  12.896  0.2104  0.2463  0.3195
   79MOL0     C10798   7.133   8.563  13.021  0.8901  0.5597 -0.2565
   79MOL0     C10799   7.229   8.635  13.089  0.4800  1.1478 -0.9859
   79MOL0     O10800   7.193   8.690  13.210  0.3902  0.3426  0.2262
   79MOL0     C10801   7.303   8.756  13.274  0.1292  0.5702  1.1384
   79MOL0     C10802   7.257   8.822  13.397  0.2897  0.0670 -0.4417
   79MOL0     C10803   7.355   8.922  13.457  0.4948 -0.6588 -0.0290
   79MOL0     C10804   7.291   8.985  13.587  0.0748 -0.3508  0.7283
   79MOL0     C10805   7.401   9.057  13.654  0.5163 -0.2808  0.0661
   79MOL0     C10806   7.366   9.142  13.784  0.2173 -0.3461  0.4396
   79MOL0     C10807   7.502   9.172  13.855 -0.7024 -0.0068 -0.1823
   79MOL0     C10808   7.496   9.272  13.967 -0.4525 -0.8317  0.3816
   79MOL0    Cl10809   7.647   9.260  14.051 -0.2139  0.3520 -0.1350
   79MOL0     C10810   7.364   8.623  13.042  0.2530  0.4086 -0.8191
   79MOL0     C10811   7.392   8.569  12.918 -0.7843  0.1292 -0.2814
   79MOL0     O10812   7.374   8.638  12.626 -0.6548 -0.3883 -0.4484
   79MOL0     C10813   7.429   8.335  12.484 -0.0589 -1.0541  1.5937
   79MOL0     C10814   7.446   8.266  12.367 -0.0579  0.1311 -0.0321
   79MOL0     N10815   7.726   8.537  11.571  0.0581  0.4145 -0.4046
   79MOL0     N10816   7.737   8.653  11.524 -0.6980 -0.1142  0.0399
   79MOL0     C10817   6.946   8.911  10.723 -0.5730  0.1846  0.1511
   79MOL0     C10818   6.855   8.924  10.619  0.5349 -0.3727  0.1859
   79MOL0     C10819   6.627   8.843  10.246  0.0974 -0.5809 -0.0165
   79MOL0     C10820   6.693   8.878  10.123  0.3353  0.2706 -0.5191
   79MOL0     C10821   6.618   8.920  10.006  1.1115  0.1650  0.1728
   79MOL0     C10822   6.480   8.927  10.017 -0.6158  0.6275 -0.9373
   79MOL0     O10823   6.390   8.970   9.921  0.2967  1.0311  0.8713
   79MOL0     C10824   6.447   9.034   9.807 -0.4834  0.2190  0.5573
   79MOL0     C10825   6.343   9.072   9.703  0.9476  0.1521 -1.0486
   79MOL0     C10826   6.215   9.135   9.765  0.4640 -0.0509  0.4205
   79MOL0     C10827   6.230   9.269   9.835 -0.4486 -0.3234 -1.0793
   79MOL0     C10828   6.096   9.320   9.886 -0.5776  1.1305  0.4723
   79MOL0     C10829   5.997   9.367   9.937 -0.2132  0.8956  0.3499
   79MOL0     C10830   6.422   8.895  10.142  0.2214 -0.1532  0.3341
   79MOL0     C10831   6.486   8.841  10.248  0.3868 -0.0359  0.0147
   79MOL0     C10832   6.409   8.758  10.345 -0.3358  0.1651 -0.3817
   79MOL0     H10833   6.685   8.629  10.649  0.2184 -1.7762  2.4829
   79MOL0     H10834   6.868   8.592  10.816 -0.1131 -0.6917 -1.8881
   79MOL0     H10835   7.017   8.715  11.094 -0.7238  0.8714  1.3428
   79MOL0     H10836   6.862   8.785  11.051 -0.2766 -1.5517  0.5663
   79MOL0     H10837   6.965   9.001  11.024 -1.6271 -1.6707  0.2227
   79MOL0     H10838   6.979   8.935  11.192  1.5501  3.1160  1.0410
   79MOL0     H10839   7.209   8.889  11.005 -1.0026  2.8311 -3.4334
   79MOL0     H10840   7.185   9.051  11.070 -1.7656  0.0551 -2.0706
   79MOL0     H10841   7.189   8.992  11.294 -0.2103 -1.1989  1.2845
   79MOL0     H10842   7.171   8.824  11.278 -0.6562  1.6143  2.9952
   79MOL0     H10843   7.409   8.994  11.190 -2.4339  0.5782 -0.0945
   79MOL0     H10844   7.393   8.811  11.178  0.6338 -2.1595  3.4177
   79MOL0     H10845   7.375   8.966  11.434 -1.6250 -1.6889  1.6519
   79MOL0     H10846   7.366   8.803  11.426  2.6789 -0.8895 -0.4851
   79MOL0     H10847   7.623   8.959  11.356  2.1507 -0.0730  3.0891
   79MOL0     H10848   7.609   8.786  11.332  0.1032  0.2970 -0.6575
   79MOL0     H10849   7.705   8.922  11.541  1.8671 -2.4009 -3.2331
   79MOL0     H10850   7.533   8.904  11.611  2.1126 -0.9181  2.0407
   79MOL0     H10851   7.499   8.687  11.744  0.7771 -0.6758  0.5446
   79MOL0     H10852   7.686   8.344  11.765  0.0802 -0.7147 -0.2855
   79MOL0     H10853   7.519   8.379  11.758 -1.0721  1.6397  1.5359
   79MOL0     H10854   7.715   8.520  11.932 -0.9792  0.6152  1.0292
   79MOL0     H10855   7.533   8.553  11.920 -2.7181 -1.6249 -1.4235
   79MOL0     H10856   7.673   8.306  12.034  1.8404  2.8237 -0.3126
   79MOL0     H10857   7.589   8.428  12.124  0.7656 -2.2060  1.4249
   79MOL0     H10858   7.372   8.378  11.984 -0.3045 -0.3500 -0.8148
   79MOL0     H10859   7.466   8.231  11.943 -2.5702 -0.5033 -0.2938
   79MOL0     H10860   7.269   8.471  12.170  1.1433  2.4589 -0.0085
   79MOL0     H10861   7.146   8.624  12.290  0.6074 -0.5851 -1.6906
   79MOL0     H10862   7.264   8.717  12.386 -1.3011  0.2420 -2.5827
   79MOL0     H10863   7.148   8.612  12.467 -2.0726 -1.8323 -1.2931
   79MOL0     H10864   7.096   8.428  12.855  0.7197 -0.4568  0.6086
   79MOL0     H10865   7.037   8.555  13.069  1.0650 -2.9833 -0.2090
   79MOL0     H10866   7.372   8.676  13.302 -1.0348 -0.4180  1.2659
   79MOL0     H10867   7.354   8.822  13.204 -2.6964  1.2866 -0.4239
   79MOL0     H10868   7.162   8.873  13.377 -0.9422 -1.4149  1.2693
   79MOL0     H10869   7.229   8.751  13.475  3.3063 -1.3557 -0.5071
   79MOL0     H10870   7.382   9.006  13.392  2.2994 -0.3220  1.1038
   79MOL0     H10871   7.448   8.870  13.479  1.0391  1.7439  4.5788
   79MOL0     H10872   7.236   8.919  13.655  1.8373 -0.0093  2.5797
   79MOL0     H10873   7.218   9.056  13.546 -0.7868 -2.5306 -1.7425
   79MOL0     H10874   7.476   8.987  13.691 -0.0789 -0.4187  1.0472
   79MOL0     H10875   7.442   9.122  13.577 -0.6634 -2.1974 -2.3190
   79MOL0     H10876   7.303   9.082  13.850 -0.9890  0.1825 -0.2138
   79MOL0     H10877   7.324   9.239  13.759  0.9442  0.4786  2.2368
   79MOL0     H10878   7.581   9.208  13.789 -0.7877  0.0432 -0.2569
   79MOL0     H10879   7.539   9.079  13.899 -0.5654 -0.6465 -1.6055
   79MOL0     H10880   7.413   9.256  14.037  0.4867  2.7234  2.6110
   79MOL0     H10881   7.482   9.367  13.915 -0.8410 -1.1692 -0.1362
   79MOL0     H10882   7.457   8.653  13.090  0.1496  3.2054 -2.1841
   79MOL0     H10883   7.493   8.568  12.878 -1.0020  0.9033 -0.8937
   79MOL0     H10884   7.476   8.300  12.576 -0.1928 -0.5854  1.8484
   79MOL0     H10885   7.500   8.172  12.381 -0.7188 -0.1334  0.8150
   79MOL0     H10886   7.021   8.989  10.734  1.0718 -1.3639  0.4397
   79MOL0     H10887   6.843   9.017  10.564  1.1527 -0.7003 -0.5092
   79MOL0     H10888   6.801   8.868  10.125  0.3049  0.1232  0.7889
   79MOL0     H10889   6.667   8.952   9.915  0.0848 -0.9095 -0.7821
   79MOL0     H10890   6.496   9.128   9.832  0.4018  0.0124 -0.3288
   79MOL0     H10891   6.531   8.984   9.759  0.7184  2.9499 -0.3839
   79MOL0     H10892   6.319   8.981   9.648 -2.3122 -0.9477  1.8266
   79MOL0     H10893   6.382   9.145   9.631 -0.2052 -0.2478 -2.1207
   79MOL0     H10894   6.149   9.149   9.679  0.2321  0.4403  0.6753
   79MOL0     H10895   6.171   9.062   9.833 -2.6061 -0.0063 -1.3304
   79MOL0     H10896   6.262   9.348   9.766 -3.9343  2.7982  0.5273
   79MOL0     H10897   6.306   9.258   9.914 -1.3001  2.1080  0.1804
   79MOL0     H10898   5.898   9.388   9.974 -1.0932  0.3981 -1.5993
   79MOL0     H10899   6.314   8.890  10.139  0.1566  1.3597 -0.2457
   79MOL0     H10900   6.316   8.809  10.372 -1.4489 -1.5252 -0.8854
   79MOL0     H10901   6.371   8.676  10.284 -1.9939  0.5107  0.1372
   79MOL0     H10902   6.468   8.725  10.431 -1.8418 -2.9239 -0.4035
   80MOL0     O10903   5.037   1.880   6.224 -0.1915 -0.1707  0.3049
   80MOL0     C10904   4.983   1.982   6.217  0.4153  0.6524 -0.1075
   80MOL0     O10905   5.038   2.100   6.199 -0.4666  0.0685 -0.2326
   80MOL0     C10906   5.171   2.100   6.154  0.2759 -0.3394 -0.6607
   80MOL0     C10907   5.189   2.097   6.017 -0.6922  0.3486 -0.4354
   80MOL0     C10908   5.319   2.110   5.967  0.7460 -0.2225  0.4577
   80MOL0     C10909   5.428   2.115   6.055 -0.1706 -0.0920  0.8678
   80MOL0     O10910   5.560   2.150   6.018 -0.0324  0.1776 -0.8388
   80MOL0     C10911   5.614   2.057   5.934 -0.8279  0.0994 -0.1780
   80MOL0     C10912   5.740   2.121   5.869  0.5053  0.1318 -0.6480
   80MOL0     C10913   5.801   2.244   5.942 -0.6677  0.2912  1.3862
   80MOL0     C10914   5.929   2.301   5.869 -0.0851  0.9856 -0.0662
   80MOL0     C10915   5.959   2.431   5.941 -0.4593  0.4969 -0.0689
   80MOL0     C10916   6.093   2.497   5.893 -0.4741  0.4160 -0.5806
   80MOL0     C10917   6.068   2.626   5.814  1.1469 -0.6238  0.2658
   80MOL0     C10918   6.047   2.748   5.904  0.0481  0.4117  0.9831
   80MOL0     N10919   6.026   2.878   5.832  0.2568 -0.3072 -1.1842
   80MOL0     C10920   6.124   2.969   5.801  0.0296  0.5920  0.9314
   80MOL0     C10921   6.052   3.069   5.752  0.4947 -0.8074  0.0518
   80MOL0     C10922   6.103   3.203   5.716  0.3070 -0.0612  0.9256
   80MOL0     C10923   6.150   3.277   5.844 -0.8006 -0.0837  0.0129
   80MOL0     C10924   6.195   3.414   5.801 -0.1544 -0.9456 -0.4304
   80MOL0     C10925   6.263   3.475   5.927  0.8457  0.0291  0.2699
   80MOL0     O10926   6.381   3.409   5.971 -0.2886  0.2792 -1.1004
   80MOL0     C10927   6.448   3.459   6.074  0.3594  0.4683 -0.1934
   80MOL0     C10928   6.584   3.422   6.081 -1.0130  0.5859  0.1021
   80MOL0     C10929   6.669   3.462   6.190 -0.8936 -0.1081 -0.5711
   80MOL0     C10930   6.818   3.407   6.187 -0.2284 -0.2757  0.0778
   80MOL0     C10931   6.626   3.554   6.282  0.3987  1.0404 -0.8394
   80MOL0     C10932   6.704   3.608   6.396 -1.2268 -1.3589 -0.5490
   80MOL0     O10933   6.638   3.634   6.510 -0.0449 -0.5493  0.7667
   80MOL0     C10934   6.698   3.707   6.607 -0.1684 -0.7275  0.0352
   80MOL0     C10935   6.800   3.648   6.686 -0.1371  0.3610  0.1436
   80MOL0     C10936   6.858   3.738   6.779 -0.8458  0.2115  0.2481
   80MOL0     C10937   6.820   3.874   6.791 -0.6960  0.6163 -0.0907
   80MOL0     O10938   6.891   3.953   6.881  0.4819 -0.0408  0.2155
   80MOL0     C10939   7.032   3.969   6.876  0.9658  0.7406 -0.1703
   80MOL0     C10940   7.072   4.111   6.823  0.0371  0.9513  0.2071
   80MOL0     C10941   7.217   4.137   6.840 -0.4435 -0.3758 -0.4479
   80MOL0     C10942   7.306   4.022   6.809  0.1138  0.7486  0.3506
   80MOL0     C10943   7.457   4.056   6.805 -0.3969 -0.6499 -0.2732
   80MOL0     C10944   7.554   3.945   6.825  0.0170  0.1906 -0.4177
   80MOL0     C10945   7.536   3.833   6.726  0.8417  0.2764 -0.3710
   80MOL0     C10946   7.590   3.870   6.589  0.2051 -0.6974 -0.7859
   80MOL0    Cl10947   7.776   3.876   6.606  0.1770 -0.8650 -0.4796
   80MOL0     C10948   6.710   3.927   6.714 -0.5411  0.7634 -0.0656
   80MOL0     C10949   6.652   3.842   6.620 -0.3519 -0.8680 -0.8266
   80MOL0     O10950   6.822   3.643   6.368  0.4505 -0.1660 -0.3605
   80MOL0     C10951   6.490   3.597   6.265  0.1356 -0.7070 -0.7810
   80MOL0     C10952   6.401   3.545   6.170 -0.4957  0.9823  0.2023
   80MOL0     N10953   5.919   3.041   5.741  1.1391  0.1910 -1.0800
   80MOL0     N10954   5.909   2.925   5.785 -0.1514  0.9404  0.0499
   80MOL0     C10955   5.406   2.103   6.190 -0.3870  0.0304  0.5253
   80MOL0     C10956   5.283   2.107   6.243  0.2772 -0.1760  0.1823
   80MOL0     C10957   4.838   1.969   6.247  0.0041  0.2271  0.8464
   80MOL0     C10958   4.780   1.842   6.259  0.6386  0.2154  0.7979
   80MOL0     C10959   4.641   1.827   6.268  0.3637 -0.0161  1.3914
   80MOL0     C10960   4.552   1.937   6.267  0.1228 -0.0789  1.2180
   80MOL0     O10961   4.425   1.915   6.267 -0.0201 -0.3095  0.3586
   80MOL0     C10962   4.330   2.022   6.234  0.5754 -0.3330  1.3032
   80MOL0     C10963   4.209   1.945   6.184 -0.4073  0.4591  0.2951
   80MOL0     C10964   4.139   2.013   6.062  0.4343  1.0660  0.0624
   80MOL0     C10965   4.010   1.967   6.002 -0.7211  0.2304  0.5404
   80MOL0     C10966   4.017   1.843   5.929  0.0303 -0.5767  0.0961
   80MOL0     C10967   4.020   1.738   5.877  1.0938 -0.0510  0.3094
   80MOL0     C10968   4.605   2.058   6.267  0.7891 -0.7664  0.5678
   80MOL0     C10969   4.744   2.081   6.259  0.1644 -0.3140 -0.0121
   80MOL0     C10970   4.787   2.230   6.246  0.0102 -1.1637 -0.2229
   80MOL0     H10971   5.107   2.091   5.947 -0.2663 -1.4265 -0.8282
   80MOL0     H10972   5.328   2.130   5.861  3.0035  2.6923  1.0646
   80MOL0     H10973   5.544   2.026   5.855 -0.7711  0.9340 -0.5655
   80MOL0     H10974   5.636   1.969   5.995 -0.7513  2.1032  2.8851
   80MOL0     H10975   5.816   2.045   5.851 -0.5905 -1.1068 -0.1827
   80MOL0     H10976   5.700   2.146   5.771  1.3295  2.2873 -0.4905
   80MOL0     H10977   5.726   2.322   5.930  0.0808  0.8663  0.2778
   80MOL0     H10978   5.823   2.218   6.046 -4.5328 -0.9877  2.0267
   80MOL0     H10979   6.014   2.231   5.875 -0.1560  0.7757 -1.1728
   80MOL0     H10980   5.916   2.309   5.760  0.2738  1.2847 -0.0899
   80MOL0     H10981   5.962   2.416   6.049 -1.5738  0.2918 -0.0488
   80MOL0     H10982   5.875   2.498   5.918 -2.4305 -2.2287 -1.4348
   80MOL0     H10983   6.161   2.516   5.977 -1.2649  1.2662 -0.1092
   80MOL0     H10984   6.141   2.431   5.820 -1.5812  0.7667 -1.6626
   80MOL0     H10985   5.974   2.624   5.758  1.2999 -0.3752  0.0014
   80MOL0     H10986   6.147   2.630   5.739 -0.3322  1.2385 -1.2951
   80MOL0     H10987   5.966   2.734   5.976 -1.0677 -0.8476 -0.4614
   80MOL0     H10988   6.139   2.763   5.962 -0.6421  1.4352  1.8652
   80MOL0     H10989   6.232   2.970   5.818 -0.2228 -0.5111  2.9854
   80MOL0     H10990   6.025   3.259   5.664 -1.9398 -3.6473  0.1009
   80MOL0     H10991   6.183   3.183   5.644 -0.8827 -0.3752 -0.3511
   80MOL0     H10992   6.066   3.270   5.913 -2.4212 -0.9598 -1.9416
   80MOL0     H10993   6.237   3.219   5.874  0.3812  0.0903 -2.7669
   80MOL0     H10994   6.266   3.427   5.719 -0.4002 -0.9539 -0.6486
   80MOL0     H10995   6.100   3.465   5.782 -0.3305 -0.7500  0.8856
   80MOL0     H10996   6.294   3.574   5.893 -0.0710  1.4387  3.1862
   80MOL0     H10997   6.179   3.482   5.996 -1.5841 -0.3308 -2.4658
   80MOL0     H10998   6.613   3.342   6.013 -0.8447 -1.0887  2.0807
   80MOL0     H10999   6.880   3.462   6.115 -0.5009  2.4425  1.7549
   80MOL0     H11000   6.816   3.303   6.155 -3.2837 -0.3841  0.2725
   80MOL0     H11001   6.858   3.416   6.289  0.9151  2.1903 -0.5058
   80MOL0     H11002   6.829   3.544   6.686 -0.1878  0.0596  5.5989
   80MOL0     H11003   6.929   3.696   6.849 -0.2090  2.6515  1.1869
   80MOL0     H11004   7.071   3.960   6.977  0.1380  0.2556  0.1203
   80MOL0     H11005   7.074   3.880   6.827 -0.1455 -0.8160  1.5590
   80MOL0     H11006   7.032   4.120   6.721  1.1972 -0.6753 -0.4411
   80MOL0     H11007   7.015   4.186   6.878 -0.1904  0.2956  0.8706
   80MOL0     H11008   7.229   4.176   6.941  1.4424  0.4428 -0.9465
   80MOL0     H11009   7.242   4.222   6.775 -4.4268  2.3952  1.2213
   80MOL0     H11010   7.285   3.986   6.707 -1.9033 -0.0354  0.9977
   80MOL0     H11011   7.280   3.943   6.880 -0.0450 -0.3277 -0.8590
   80MOL0     H11012   7.477   4.104   6.709 -0.8169  1.6079  0.6993
   80MOL0     H11013   7.472   4.128   6.886  3.4323 -1.7093  0.1458
   80MOL0     H11014   7.538   3.916   6.929 -0.3103  1.5920 -0.0494
   80MOL0     H11015   7.658   3.977   6.820  0.0154  0.0268 -1.7692
   80MOL0     H11016   7.432   3.801   6.727 -0.1193  3.1404  0.0854
   80MOL0     H11017   7.593   3.745   6.759 -0.9767 -1.1907 -0.9429
   80MOL0     H11018   7.553   3.967   6.555  1.2733 -0.9572 -2.8650
   80MOL0     H11019   7.569   3.803   6.505  1.0838 -0.1705 -1.4482
   80MOL0     H11020   6.671   4.028   6.710 -0.7614  0.6724 -0.1981
   80MOL0     H11021   6.586   3.889   6.547  0.1692  0.1043 -0.6857
   80MOL0     H11022   6.449   3.654   6.348  1.8958 -2.5784  1.5123
   80MOL0     H11023   6.295   3.568   6.173 -1.4078 -2.6601  1.6203
   80MOL0     H11024   5.481   2.109   6.268 -0.4881 -1.0314  0.7241
   80MOL0     H11025   5.272   2.099   6.350  1.9226  4.9052  0.9616
   80MOL0     H11026   4.834   1.747   6.250  0.6361  0.0163  2.5387
   80MOL0     H11027   4.602   1.725   6.272  1.1377 -0.4630 -1.0216
   80MOL0     H11028   4.317   2.091   6.318 -1.0002  1.0265  0.0147
   80MOL0     H11029   4.357   2.083   6.147  0.7990 -2.0840  0.1059
   80MOL0     H11030   4.143   1.927   6.270 -1.5513 -1.2051 -0.8780
   80MOL0     H11031   4.239   1.844   6.155 -2.0711 -0.7707  2.5642
   80MOL0     H11032   4.119   2.117   6.089  0.5218  0.9369  0.6202
   80MOL0     H11033   4.205   2.012   5.975 -0.6285  0.2204 -0.7588
   80MOL0     H11034   3.980   2.053   5.942  0.5663  2.7602  3.2743
   80MOL0     H11035   3.925   1.945   6.068 -1.9131 -0.6570 -1.1977
   80MOL0     H11036   4.034   1.641   5.834 -0.9969 -1.3780  2.3016
   80MOL0     H11037   4.545   2.148   6.257 -0.9542 -1.9712 -0.3604
   80MOL0     H11038   4.808   2.257   6.142 -0.5699 -3.3809 -0.9675
   80MOL0     H11039   4.700   2.286   6.282 -0.7822 -0.4098 -3.0704
   80MOL0     H11040   4.872   2.262   6.307 -1.3362  5.7658 -1.2146
   81MOL0     O11041   7.742   8.115   0.696  0.0176  0.1296 -0.3124
   81MOL0     C11042   7.799   8.197   0.768 -0.2535  0.0988 -0.2445
   81MOL0     O11043   7.878   8.301   0.721 -0.8527  0.9512 -0.3631
   81MOL0     C11044   7.927   8.301   0.592 -0.3164 -0.1830  0.8346
   81MOL0     C11045   7.956   8.186   0.519  0.0344  0.2855 -0.1728
   81MOL0     C11046   7.987   8.187   0.377  0.1033 -0.6271  0.4049
   81MOL0     C11047   8.000   8.315   0.309 -0.4544 -0.3879  0.3854
   81MOL0     O11048   8.050   8.322   0.172 -0.5790  0.6082  0.2667
   81MOL0     C11049   8.184   8.301   0.148  0.5356 -0.3497  0.8040
   81MOL0     C11050   8.212   8.158   0.134 -0.2518 -0.8157  0.1057
   81MOL0     C11051   8.343   8.142   0.069 -0.1291 -0.0481  0.0082
   81MOL0     C11052   8.388   7.991   0.044 -0.2141  0.1836  0.5241
   81MOL0     C11053   8.426   7.921   0.180 -0.0948 -0.2704  0.3726
   81MOL0     C11054   8.512   7.791   0.162  0.3478 -0.4546  0.4004
   81MOL0     C11055   8.418   7.667   0.130  0.3459 -0.5586  0.3802
   81MOL0     C11056   8.483   7.532   0.163  0.1727 -0.3146  0.5071
   81MOL0     N11057   8.560   7.485   0.044 -0.2899 -0.1436  0.3763
   81MOL0     C11058   8.672   7.532  -0.007  0.2872  0.7297 -0.2728
   81MOL0     C11059   8.692   7.471  -0.131  0.4512 -0.4708  0.1307
   81MOL0     C11060   8.807   7.469  -0.233  0.0524  0.7511  0.1904
   81MOL0     C11061   8.916   7.577  -0.206  0.8334  0.9086 -0.1952
   81MOL0     C11062   9.014   7.573  -0.326 -0.3662  0.7768 -0.4531
   81MOL0     C11063   9.140   7.645  -0.297  0.2584 -0.1991  0.4942
   81MOL0     O11064   9.126   7.787  -0.304 -0.2720 -0.1648 -0.2869
   81MOL0     C11065   9.172   7.856  -0.204  0.5858 -0.6397  0.4734
   81MOL0     C11066   9.281   7.828  -0.127 -0.6607 -0.0274  0.9393
   81MOL0     C11067   9.316   7.917  -0.017 -0.1129 -0.4085 -0.6584
   81MOL0     C11068   9.442   7.872   0.050  0.1725 -0.2983 -1.0177
   81MOL0     C11069   9.237   8.028   0.009 -0.1881 -0.7756 -0.6241
   81MOL0     C11070   9.277   8.134   0.108  1.2803 -0.2814 -0.9135
   81MOL0     O11071   9.220   8.260   0.089  1.1049 -0.3910  0.1144
   81MOL0     C11072   9.272   8.362   0.160 -0.8985 -0.6354 -0.1486
   81MOL0     C11073   9.386   8.440   0.116  0.2123  0.1581 -0.3053
   81MOL0     C11074   9.429   8.557   0.186 -1.0919 -1.0222  0.2661
   81MOL0     C11075   9.373   8.605   0.303  0.4208 -0.5210 -0.5638
   81MOL0     O11076   9.403   8.718   0.364 -0.2229  0.0213 -0.5174
   81MOL0     C11077   9.527   8.785   0.346  0.5114  0.1923  1.1089
   81MOL0     C11078   9.538   8.889   0.444  0.5204 -0.4443 -0.0240
   81MOL0     C11079   9.554   8.856   0.595  0.1113  0.6574  0.5649
   81MOL0     C11080   9.561   8.989   0.669  0.4997  0.6351 -0.2915
   81MOL0     C11081   9.527   8.980   0.818 -0.6892 -0.6219 -0.7875
   81MOL0     C11082   9.627   8.894   0.889 -0.0598 -0.7784  0.5661
   81MOL0     C11083   9.598   8.858   1.034  0.7696  0.3301  0.0870
   81MOL0     C11084   9.488   8.752   1.045 -0.2681 -1.4430 -0.1794
   81MOL0    Cl11085   9.508   8.697   1.215  0.2702 -0.2092  0.0375
   81MOL0     C11086   9.258   8.531   0.341  0.6211  0.1420  0.3991
   81MOL0     C11087   9.209   8.418   0.281 -0.1957  0.6606  0.0931
   81MOL0     O11088   9.360   8.101   0.195  0.1634 -0.6603  0.3657
   81MOL0     C11089   9.124   8.054  -0.064 -0.8530  0.4797 -0.5752
   81MOL0     C11090   9.088   7.962  -0.167  0.1123 -0.6304  0.8150
   81MOL0     N11091   8.582   7.392  -0.150 -0.6380  0.7730 -0.6004
   81MOL0     N11092   8.501   7.404  -0.046  0.2441  0.4021  0.0770
   81MOL0     C11093   7.983   8.429   0.389 -0.1887  0.0240 -1.8592
   81MOL0     C11094   7.953   8.421   0.528  0.7497  0.4515  0.1332
   81MOL0     C11095   7.781   8.189   0.917  0.5483  0.3733  0.3297
   81MOL0     C11096   7.772   8.303   0.994 -0.7497 -0.4401  0.4581
   81MOL0     C11097   7.762   8.303   1.135  1.1449 -0.1232  1.1245
   81MOL0     C11098   7.752   8.179   1.201  0.4295  0.0695 -0.4947
   81MOL0     O11099   7.705   8.178   1.337 -1.4498 -0.5518 -0.2775
   81MOL0     C11100   7.733   8.068   1.417  0.4257  0.1744  0.0290
   81MOL0     C11101   7.879   8.044   1.440  0.6678  0.8477 -0.0493
   81MOL0     C11102   7.897   7.928   1.547  1.6664  0.1310  0.6790
   81MOL0     C11103   8.032   7.935   1.617 -0.0815  0.4201  1.0657
   81MOL0     C11104   8.144   7.890   1.540  0.5107  0.0211 -0.3444
   81MOL0     C11105   8.237   7.882   1.460 -0.0049 -0.3739 -0.0378
   81MOL0     C11106   7.772   8.063   1.123  0.0132 -0.4902 -0.0992
   81MOL0     C11107   7.782   8.068   0.983  0.1226  0.4616  0.5358
   81MOL0     C11108   7.812   7.931   0.912  0.7718  0.3961  0.6648
   81MOL0     H11109   7.944   8.088   0.564 -0.6864  0.7732  0.7298
   81MOL0     H11110   7.988   8.098   0.315 -3.8666 -1.0768  0.7290
   81MOL0     H11111   8.238   8.357   0.225  1.0613  1.1851 -0.6015
   81MOL0     H11112   8.198   8.360   0.057 -0.5121 -0.6028  0.4641
   81MOL0     H11113   8.222   8.116   0.234  0.8256 -4.7354 -1.4584
   81MOL0     H11114   8.130   8.109   0.080 -2.3812  3.0148 -0.4952
   81MOL0     H11115   8.344   8.199  -0.024  0.6667  0.9440  0.6095
   81MOL0     H11116   8.421   8.195   0.125  0.6476 -1.7209  0.6161
   81MOL0     H11117   8.311   7.935  -0.009  1.9607  0.4979 -3.3576
   81MOL0     H11118   8.476   8.001  -0.020 -0.5499 -0.9804 -0.1464
   81MOL0     H11119   8.347   7.914   0.256  1.0678 -0.1325  1.6416
   81MOL0     H11120   8.501   7.989   0.220  1.4638 -1.7759  0.1095
   81MOL0     H11121   8.588   7.801   0.084 -1.1165  3.8790 -0.7106
   81MOL0     H11122   8.558   7.787   0.261 -2.0544 -0.4622  1.5909
   81MOL0     H11123   8.377   7.666   0.029 -0.7451 -2.4032  0.7981
   81MOL0     H11124   8.340   7.668   0.207 -0.8450 -2.2536 -0.7354
   81MOL0     H11125   8.551   7.544   0.248 -1.2064 -0.2793  1.6437
   81MOL0     H11126   8.405   7.460   0.190 -0.8341  0.5165 -0.1207
   81MOL0     H11127   8.739   7.586   0.059 -1.4953  2.2101  0.4016
   81MOL0     H11128   8.773   7.487  -0.336 -1.6654 -1.0503  0.3746
   81MOL0     H11129   8.855   7.371  -0.231 -1.4577 -0.0236  0.6273
   81MOL0     H11130   8.870   7.676  -0.210  1.2476  1.5792  5.0981
   81MOL0     H11131   8.962   7.572  -0.107 -0.2211  4.6999  0.6615
   81MOL0     H11132   9.037   7.466  -0.326 -0.7673  0.6008  2.4945
   81MOL0     H11133   8.979   7.615  -0.420  3.2369 -0.1403 -2.3925
   81MOL0     H11134   9.179   7.601  -0.205  1.9345 -1.1336 -0.6096
   81MOL0     H11135   9.209   7.613  -0.376 -0.3337 -1.3859  0.4424
   81MOL0     H11136   9.343   7.743  -0.155  0.9715  1.3261  0.3165
   81MOL0     H11137   9.500   7.790   0.007  1.5203 -1.1562  2.1515
   81MOL0     H11138   9.418   7.853   0.155  1.7647  1.7306 -0.2215
   81MOL0     H11139   9.514   7.954   0.047  0.6505 -0.2759  4.0093
   81MOL0     H11140   9.438   8.412   0.025  0.9248 -2.5479  0.8499
   81MOL0     H11141   9.504   8.618   0.135  0.3006 -2.9329 -0.0961
   81MOL0     H11142   9.596   8.703   0.370 -1.6929 -1.3929  2.3904
   81MOL0     H11143   9.535   8.821   0.244  0.6620  1.0720  1.4233
   81MOL0     H11144   9.631   8.936   0.410  0.8236 -1.9599 -1.3787
   81MOL0     H11145   9.456   8.961   0.435 -1.9924 -2.9981  1.0238
   81MOL0     H11146   9.649   8.803   0.589 -0.3389 -0.0020 -1.6398
   81MOL0     H11147   9.476   8.789   0.634  2.0337 -2.2074 -0.1890
   81MOL0     H11148   9.482   9.051   0.625 -0.8652 -2.0185 -1.8258
   81MOL0     H11149   9.666   9.017   0.674  0.8666 -0.4248 -1.5873
   81MOL0     H11150   9.541   9.079   0.862  1.7736 -0.1603 -2.4065
   81MOL0     H11151   9.424   8.948   0.837 -0.5900 -1.0119 -0.9003
   81MOL0     H11152   9.712   8.963   0.882 -2.1347  1.7841 -2.0947
   81MOL0     H11153   9.647   8.809   0.823 -2.6918 -0.9965 -0.0478
   81MOL0     H11154   9.572   8.942   1.099  2.7227 -0.4860  2.0773
   81MOL0     H11155   9.684   8.816   1.087 -0.7259 -1.4021  1.2716
   81MOL0     H11156   9.496   8.678   0.965 -0.4683 -0.6626 -0.9383
   81MOL0     H11157   9.390   8.797   1.026 -0.2320 -1.5664 -0.6919
   81MOL0     H11158   9.207   8.570   0.429  2.9289  3.1698  0.5604
   81MOL0     H11159   9.120   8.383   0.333 -0.3865  0.4291 -0.3903
   81MOL0     H11160   9.061   8.141  -0.055 -0.9095  0.4321 -0.5146
   81MOL0     H11161   9.003   7.988  -0.230  0.9321 -1.7043 -0.8050
   81MOL0     H11162   7.990   8.528   0.344  2.9505  0.4905 -0.5631
   81MOL0     H11163   7.940   8.521   0.570  2.3597  1.7121 -2.1492
   81MOL0     H11164   7.774   8.397   0.940 -0.5415 -1.5209 -1.4827
   81MOL0     H11165   7.749   8.393   1.195 -0.8215  0.4968 -0.1293
   81MOL0     H11166   7.673   8.080   1.508 -1.3135  1.5723 -1.2428
   81MOL0     H11167   7.685   7.981   1.372 -2.5342  1.4617  0.4649
   81MOL0     H11168   7.928   8.138   1.467  0.4924  0.6526  1.0028
   81MOL0     H11169   7.926   8.003   1.351 -1.8795 -2.4344 -0.0804
   81MOL0     H11170   7.816   7.947   1.617  1.4855  2.8993 -0.1613
   81MOL0     H11171   7.890   7.827   1.503 -1.0203 -0.1648  1.6362
   81MOL0     H11172   8.029   7.877   1.710 -2.3053  0.7995  1.2742
   81MOL0     H11173   8.059   8.039   1.635  1.2368 -0.2029  3.0406
   81MOL0     H11174   8.319   7.864   1.394 -1.0663 -2.1419 -0.9345
   81MOL0     H11175   7.779   7.963   1.165  1.6311 -0.4069 -0.0910
   81MOL0     H11176   7.875   7.865   0.973 -2.0127 -1.1365  2.0816
   81MOL0     H11177   7.721   7.877   0.885  0.7331  1.4603 -1.4993
   81MOL0     H11178   7.878   7.944   0.826 -3.1336 -0.4828 -2.7718
   82MOL0     O11179   7.471   8.014   2.378 -0.1624  0.7731 -0.3908
   82MOL0     C11180   7.494   8.030   2.263  0.4567 -0.8539  0.0424
   82MOL0     O11181   7.397   8.049   2.166 -0.0779  0.3827 -0.4189
   82MOL0     C11182   7.264   8.027   2.202 -0.0321 -0.1795  0.1158
   82MOL0     C11183   7.207   7.905   2.218 -0.7204  1.2276 -0.4353
   82MOL0     C11184   7.073   7.890   2.244  0.1549  0.6779  0.2391
   82MOL0     C11185   6.991   8.005   2.252  0.8323  0.5406  0.1352
   82MOL0     O11186   6.866   7.992   2.306 -0.4589  0.0946  0.5773
   82MOL0     C11187   6.769   8.098   2.318 -0.3321  0.4542  0.4447
   82MOL0     C11188   6.647   8.025   2.384 -0.1597  0.1961 -0.9548
   82MOL0     C11189   6.532   8.113   2.440  0.3441  0.2834 -0.5747
   82MOL0     C11190   6.487   8.224   2.345 -0.3132 -0.2653 -0.0982
   82MOL0     C11191   6.392   8.332   2.414  0.1860 -0.8132  0.0279
   82MOL0     C11192   6.457   8.422   2.519 -0.4770  0.3385 -0.4074
   82MOL0     C11193   6.378   8.550   2.539  0.6385 -0.2714 -0.0314
   82MOL0     C11194   6.238   8.518   2.589  0.1603  0.6497 -0.0416
   82MOL0     N11195   6.152   8.625   2.628 -0.5467 -0.5915 -0.2945
   82MOL0     C11196   6.087   8.640   2.745  0.5783 -0.0443  0.5390
   82MOL0     C11197   6.060   8.770   2.769 -0.3271 -0.4644  0.0252
   82MOL0     C11198   6.018   8.839   2.892  0.3355 -0.1932 -1.2325
   82MOL0     C11199   6.111   8.950   2.945 -0.3516  0.8896  0.9536
   82MOL0     C11200   6.059   8.996   3.076  0.0824  0.4641 -0.1692
   82MOL0     C11201   6.135   9.109   3.131  0.4979  0.2916 -0.0138
   82MOL0     O11202   6.134   9.236   3.054 -0.4350  0.0257  0.9269
   82MOL0     C11203   6.032   9.331   3.047  0.2008 -0.1743  0.4939
   82MOL0     C11204   5.913   9.318   3.115 -0.1048 -0.0952  0.6745
   82MOL0     C11205   5.815   9.423   3.115 -0.5558  0.4616  0.5178
   82MOL0     C11206   5.689   9.405   3.201  0.1409  1.0528  0.0207
   82MOL0     C11207   5.842   9.547   3.036 -0.6368  0.1220 -0.1865
   82MOL0     C11208   5.741   9.663   3.021  0.1470  0.3897  1.2276
   82MOL0     O11209   5.789   9.773   2.946  0.3599 -0.2131  0.1022
   82MOL0     C11210   5.694   9.862   2.902 -0.8698 -0.6558 -0.0018
   82MOL0     C11211   5.636   9.850   2.773 -0.8047 -0.4865 -0.9653
   82MOL0     C11212   5.543   9.947   2.736 -0.4111  0.1498  0.5088
   82MOL0     C11213   5.531  10.063   2.807 -0.4693  0.3616  0.1853
   82MOL0     O11214   5.471  10.161   2.732 -0.5875  0.3181  0.0720
   82MOL0     C11215   5.443  10.282   2.800  0.1025  0.6263  0.1691
   82MOL0     C11216   5.418  10.388   2.692  0.0572  0.5686 -1.0378
   82MOL0     C11217   5.546  10.440   2.624  0.8240 -0.1574  0.1090
   82MOL0     C11218   5.512  10.566   2.537 -0.8719  0.5022  0.2915
   82MOL0     C11219   5.634  10.635   2.483 -0.9337 -0.1263  0.2507
   82MOL0     C11220   5.619  10.731   2.361  0.2420 -0.0922 -1.3165
   82MOL0     C11221   5.492  10.821   2.356  0.8871 -0.4517 -0.5657
   82MOL0     C11222   5.531  10.938   2.269 -0.6013 -0.6230  0.2954
   82MOL0    Cl11223   5.639  11.041   2.356 -0.0365 -0.4630 -0.2545
   82MOL0     C11224   5.586  10.070   2.939  0.2549  0.7047 -0.4694
   82MOL0     C11225   5.663   9.972   2.981 -0.5827 -0.4019 -1.2203
   82MOL0     O11226   5.620   9.643   3.048  0.2985 -0.8329  0.0334
   82MOL0     C11227   5.966   9.555   2.979 -1.5569 -0.2035  0.4348
   82MOL0     C11228   6.063   9.450   2.982  1.0499 -1.2156 -0.5085
   82MOL0     N11229   6.113   8.831   2.657 -0.3441  0.0123 -0.1299
   82MOL0     N11230   6.153   8.751   2.573  0.8345  1.0048  0.0558
   82MOL0     C11231   7.037   8.133   2.222 -0.5062  0.1719  0.1210
   82MOL0     C11232   7.174   8.138   2.198 -0.8850 -0.1453 -0.7948
   82MOL0     C11233   7.634   8.030   2.208  0.6808 -0.3892 -0.1936
   82MOL0     C11234   7.649   8.016   2.067 -0.4248 -0.3965 -0.1132
   82MOL0     C11235   7.770   7.988   2.012 -1.0368  0.3692 -0.4076
   82MOL0     C11236   7.883   7.981   2.087  0.1884  0.5107  0.5305
   82MOL0     O11237   8.004   7.956   2.027 -0.6200  0.9289  0.2111
   82MOL0     C11238   8.130   8.020   2.072 -0.0591  0.4191 -0.2788
   82MOL0     C11239   8.246   7.947   2.004 -0.0141  0.1601 -0.4512
   82MOL0     C11240   8.375   8.033   2.006  0.1767  0.7827 -0.5879
   82MOL0     C11241   8.501   7.955   2.012 -0.5629 -0.1422  0.0752
   82MOL0     C11242   8.622   8.032   1.978 -0.6120 -0.3200 -0.2369
   82MOL0     C11243   8.717   8.100   1.936  0.1380  1.0157  0.2772
   82MOL0     C11244   7.872   8.009   2.223 -0.3767  1.1082  0.2295
   82MOL0     C11245   7.748   8.028   2.284 -0.2995 -0.5185 -0.3027
   82MOL0     C11246   7.737   8.038   2.433  0.1911 -0.2743 -0.5758
   82MOL0     H11247   7.269   7.816   2.211  0.8270  2.2541 -0.2258
   82MOL0     H11248   7.025   7.796   2.268  1.0350  0.0091 -0.5357
   82MOL0     H11249   6.728   8.130   2.222 -1.1151 -2.4127 -0.2617
   82MOL0     H11250   6.813   8.185   2.369  0.7417  1.1517 -1.5824
   82MOL0     H11251   6.605   7.952   2.314  1.0833 -1.6575  0.1521
   82MOL0     H11252   6.685   7.963   2.465 -2.2975 -1.2951 -1.0049
   82MOL0     H11253   6.439   8.055   2.451  0.0426  0.8030 -0.3233
   82MOL0     H11254   6.555   8.151   2.540 -1.4857  0.4132 -0.1739
   82MOL0     H11255   6.580   8.277   2.325  0.0730 -0.3899  1.2946
   82MOL0     H11256   6.437   8.185   2.255 -2.8763  0.9082  0.7360
   82MOL0     H11257   6.313   8.271   2.459 -1.4097 -1.7070 -3.5809
   82MOL0     H11258   6.344   8.389   2.334 -0.8190 -0.7665  0.6451
   82MOL0     H11259   6.477   8.357   2.605  0.1757 -3.1920 -2.9952
   82MOL0     H11260   6.558   8.445   2.484  0.6739 -0.3220  2.2426
   82MOL0     H11261   6.366   8.596   2.441 -0.3827 -0.8680 -0.1999
   82MOL0     H11262   6.417   8.613   2.620  0.5807  1.1624 -1.0852
   82MOL0     H11263   6.180   8.473   2.508 -1.1949  0.8927  0.7563
   82MOL0     H11264   6.259   8.455   2.676 -1.3376  2.0205  1.3773
   82MOL0     H11265   6.052   8.565   2.816  3.8648 -0.8327  1.5373
   82MOL0     H11266   5.985   8.770   2.969 -2.6013  0.4901 -1.7565
   82MOL0     H11267   5.933   8.898   2.856 -0.6736  0.6425  2.1368
   82MOL0     H11268   6.214   8.913   2.945 -0.8401 -0.8178 -2.0306
   82MOL0     H11269   6.105   9.035   2.877 -1.4132 -0.5953 -0.9163
   82MOL0     H11270   5.954   9.018   3.051  0.3006  0.1415 -1.4330
   82MOL0     H11271   6.061   8.914   3.148 -0.1118 -0.8089 -1.5822
   82MOL0     H11272   6.084   9.136   3.224 -0.2637  2.3720 -0.9835
   82MOL0     H11273   6.237   9.085   3.164 -0.3727 -1.6874  1.4428
   82MOL0     H11274   5.882   9.222   3.157 -0.0265 -0.1069  0.7060
   82MOL0     H11275   5.700   9.316   3.264  1.9318  0.7768 -0.6256
   82MOL0     H11276   5.596   9.404   3.144  0.3383  1.2250 -0.3086
   82MOL0     H11277   5.684   9.482   3.279  3.2704  1.9817 -0.5712
   82MOL0     H11278   5.654   9.760   2.714  3.0625  0.4068 -1.4102
   82MOL0     H11279   5.494   9.928   2.641 -0.2642 -0.0408  0.4704
   82MOL0     H11280   5.352  10.265   2.858  0.3312  0.5940  0.5208
   82MOL0     H11281   5.533  10.302   2.858  0.2427  0.1344  0.1245
   82MOL0     H11282   5.348  10.342   2.621  1.2014 -1.0041 -1.2046
   82MOL0     H11283   5.371  10.467   2.751  0.6038 -1.0179  1.6994
   82MOL0     H11284   5.587  10.359   2.563  1.2194  0.4689 -0.4733
   82MOL0     H11285   5.617  10.471   2.701 -0.1970 -1.4505  1.6082
   82MOL0     H11286   5.460  10.640   2.598 -0.3054  0.9371  0.2558
   82MOL0     H11287   5.441  10.540   2.458 -1.0694  1.5782  0.0988
   82MOL0     H11288   5.673  10.687   2.571 -0.9625  2.2125 -1.0641
   82MOL0     H11289   5.709  10.563   2.448 -0.6218  0.0248  0.6004
   82MOL0     H11290   5.614  10.668   2.272 -1.6771 -0.4602 -0.9853
   82MOL0     H11291   5.715  10.784   2.364  0.3200 -0.2603  1.9646
   82MOL0     H11292   5.466  10.864   2.453 -1.6398 -0.0813 -1.3175
   82MOL0     H11293   5.406  10.773   2.309  1.7955 -0.4226 -2.3406
   82MOL0     H11294   5.451  11.004   2.234  0.4777 -0.3209 -1.7823
   82MOL0     H11295   5.583  10.903   2.179 -0.6788 -0.5232  0.2118
   82MOL0     H11296   5.550  10.148   3.005 -0.7312 -0.1689  0.0631
   82MOL0     H11297   5.709   9.975   3.079  1.2910  1.4512 -2.0825
   82MOL0     H11298   5.990   9.644   2.922  0.9647 -1.0643  0.0359
   82MOL0     H11299   6.158   9.447   2.930  1.4924 -0.6803  0.2472
   82MOL0     H11300   6.978   8.224   2.226 -1.4700 -0.3573 -1.2051
   82MOL0     H11301   7.226   8.229   2.173 -2.9580  0.8354 -1.7611
   82MOL0     H11302   7.560   8.018   2.004 -2.1146  1.0183  2.1675
   82MOL0     H11303   7.762   7.955   1.909 -1.7973 -1.5335  0.2083
   82MOL0     H11304   8.125   8.126   2.044 -1.1581  0.7240  0.9936
   82MOL0     H11305   8.142   8.010   2.180  3.7360 -1.3060 -0.6624
   82MOL0     H11306   8.221   7.920   1.901 -2.6073  1.0835 -0.1525
   82MOL0     H11307   8.259   7.855   2.061 -1.8235  0.3240  0.3178
   82MOL0     H11308   8.388   8.106   1.925  2.4529 -1.2684 -2.2257
   82MOL0     H11309   8.373   8.097   2.095 -1.5532  1.1587 -0.8733
   82MOL0     H11310   8.500   7.871   1.942 -1.9183 -0.7152  0.7367
   82MOL0     H11311   8.513   7.905   2.109  0.1306 -0.6471 -0.2646
   82MOL0     H11312   8.808   8.147   1.906  2.1138 -0.9021  2.7768
   82MOL0     H11313   7.961   8.007   2.286  1.4493  2.3428 -2.1151
   82MOL0     H11314   7.705   7.938   2.464  1.1137 -0.7063 -0.9766
   82MOL0     H11315   7.831   8.055   2.487 -0.7570 -1.2851  1.5317
   82MOL0     H11316   7.666   8.114   2.468 -0.0148 -0.8482  0.2813
   83MOL0     O11317   8.643   5.375  10.581 -0.0824 -0.1493 -0.0085
   83MOL0     C11318   8.723   5.381  10.488 -0.1856  0.4982 -0.5322
   83MOL0     O11319   8.697   5.335  10.364 -0.0649  0.2425 -0.3239
   83MOL0     C11320   8.569   5.309  10.343  0.6511  0.4781 -0.0925
   83MOL0     C11321   8.481   5.406  10.303  0.0800  0.0513  0.1219
   83MOL0     C11322   8.341   5.400  10.307 -0.2145 -1.0339 -0.0648
   83MOL0     C11323   8.291   5.270  10.327 -0.2957 -1.0044  0.2219
   83MOL0     O11324   8.160   5.243  10.340  0.5020  0.3767 -0.0185
   83MOL0     C11325   8.058   5.350  10.331 -0.6540  0.6724  0.1229
   83MOL0     C11326   7.928   5.279  10.309  0.4536  0.8282 -0.3530
   83MOL0     C11327   7.858   5.224  10.438 -0.5264  0.1790 -0.8650
   83MOL0     C11328   7.752   5.127  10.389 -0.7230  0.0004  0.1881
   83MOL0     C11329   7.672   5.080  10.510 -0.5146 -0.6875  0.5752
   83MOL0     C11330   7.552   4.985  10.467 -0.2463 -0.7915 -1.4962
   83MOL0     C11331   7.481   4.904  10.573 -0.3915 -0.3182  0.3269
   83MOL0     C11332   7.343   4.852  10.514 -0.9652  0.6239 -0.1740
   83MOL0     N11333   7.227   4.932  10.549 -0.3222 -0.5394  0.0300
   83MOL0     C11334   7.178   5.052  10.503 -0.8247  0.3845 -0.8089
   83MOL0     C11335   7.058   5.077  10.553  0.1717 -0.5708  0.5563
   83MOL0     C11336   6.970   5.199  10.520 -0.6280  0.6923 -0.6249
   83MOL0     C11337   6.824   5.163  10.497  1.1325 -0.0400  1.3243
   83MOL0     C11338   6.742   5.130  10.622 -0.9785 -0.3183  0.2902
   83MOL0     C11339   6.788   5.206  10.749  0.8427 -0.5061 -0.3583
   83MOL0     O11340   6.744   5.341  10.753  0.3702  0.1848  0.0542
   83MOL0     C11341   6.818   5.422  10.840  0.6171 -0.5079 -0.2480
   83MOL0     C11342   6.783   5.560  10.832 -0.0255  0.0366  0.3218
   83MOL0     C11343   6.834   5.655  10.924  0.4681 -0.0387 -0.2509
   83MOL0     C11344   6.773   5.793  10.916  0.3640 -0.4214  0.0782
   83MOL0     C11345   6.928   5.616  11.021  0.2822 -1.2174  0.8511
   83MOL0     C11346   6.980   5.713  11.129  0.7602 -0.3530  0.4631
   83MOL0     O11347   6.886   5.790  11.194 -0.3123  0.2379 -0.3742
   83MOL0     C11348   6.919   5.858  11.308  0.2485 -0.0793  0.1738
   83MOL0     C11349   6.856   5.986  11.302  0.4777 -0.2765  0.5762
   83MOL0     C11350   6.872   6.072  11.406 -0.2213  0.2751 -0.6861
   83MOL0     C11351   6.948   6.042  11.518 -0.0821  0.2202 -0.1763
   83MOL0     O11352   6.976   6.145  11.600  0.5462 -0.1122  0.2003
   83MOL0     C11353   7.113   6.153  11.645  0.3696  0.7845  0.1763
   83MOL0     C11354   7.126   6.280  11.731 -0.8497  0.2944  0.6665
   83MOL0     C11355   7.269   6.304  11.763 -0.1595 -0.0229 -0.0290
   83MOL0     C11356   7.290   6.436  11.834 -0.0146  0.2954  0.6275
   83MOL0     C11357   7.216   6.441  11.970  0.6244  0.6995  0.2670
   83MOL0     C11358   7.266   6.542  12.077  0.0888  0.7102 -0.5170
   83MOL0     C11359   7.422   6.528  12.116  0.1376 -0.0196  1.6449
   83MOL0     C11360   7.445   6.579  12.253  0.1930  1.1353 -0.2813
   83MOL0    Cl11361   7.395   6.748  12.255 -0.7933 -0.0203  0.0654
   83MOL0     C11362   7.006   5.913  11.528 -1.5867 -0.2176  0.1147
   83MOL0     C11363   6.989   5.820  11.425  0.5438 -0.3597  0.5947
   83MOL0     O11364   7.099   5.708  11.156 -0.4241  0.5581 -0.1516
   83MOL0     C11365   6.968   5.481  11.024 -0.2203 -0.2853 -0.3364
   83MOL0     C11366   6.913   5.386  10.944 -0.0114 -0.7655 -0.4600
   83MOL0     N11367   7.037   4.975  10.633  0.2781  0.2965 -0.6417
   83MOL0     N11368   7.128   4.886  10.630 -0.0266 -0.3298  0.3124
   83MOL0     C11369   8.373   5.169  10.355 -0.2822  1.5593  0.1411
   83MOL0     C11370   8.511   5.184  10.359 -0.0789  0.6567 -0.4135
   83MOL0     C11371   8.847   5.465  10.499  0.3039 -0.3183 -0.3768
   83MOL0     C11372   8.853   5.594  10.448  0.4850 -0.2374  0.1106
   83MOL0     C11373   8.961   5.673  10.454 -0.0948  0.1331 -0.0596
   83MOL0     C11374   9.082   5.623  10.514  0.3094  0.2516  0.4793
   83MOL0     O11375   9.200   5.695  10.513  0.6296  0.2507  0.5612
   83MOL0     C11376   9.271   5.669  10.384  0.5419 -0.0996  0.3903
   83MOL0     C11377   9.412   5.741  10.391 -0.0582 -0.1741  0.2863
   83MOL0     C11378   9.400   5.890  10.347 -0.0477 -0.0614 -0.5218
   83MOL0     C11379   9.407   5.909  10.201  0.8310  0.1591 -0.1054
   83MOL0     C11380   9.379   6.043  10.169 -0.6120 -0.6201 -0.0053
   83MOL0     C11381   9.337   6.157  10.161 -0.4235 -0.3216  0.4412
   83MOL0     C11382   9.077   5.491  10.565  0.2868  0.2907  0.4969
   83MOL0     C11383   8.956   5.414  10.566  0.0359 -0.1571  0.6431
   83MOL0     C11384   8.973   5.272  10.609 -0.1832 -1.2334  0.0863
   83MOL0     H11385   8.532   5.502  10.300  0.9862 -0.4406 -1.1030
   83MOL0     H11386   8.283   5.492  10.299  0.4866 -0.3083  2.3364
   83MOL0     H11387   8.071   5.417  10.245 -1.2274  2.4420  1.3686
   83MOL0     H11388   8.049   5.403  10.426 -1.1693 -0.1833  0.5634
   83MOL0     H11389   7.852   5.343  10.262  0.0030  0.6999  0.1975
   83MOL0     H11390   7.951   5.189  10.251  0.4385 -1.9034  3.5067
   83MOL0     H11391   7.923   5.163  10.501  0.5645  1.8010 -0.3671
   83MOL0     H11392   7.823   5.311  10.495  1.9517  0.3486  0.5228
   83MOL0     H11393   7.691   5.186  10.321  0.3114  0.3750 -0.4435
   83MOL0     H11394   7.800   5.048  10.331  3.4366  2.4467 -0.1565
   83MOL0     H11395   7.634   5.170  10.560  0.6809  0.7390 -0.9533
   83MOL0     H11396   7.723   5.028  10.591 -0.6058 -1.1428  0.3434
   83MOL0     H11397   7.476   5.040  10.411  1.0918  0.1964 -2.4093
   83MOL0     H11398   7.592   4.910  10.398  0.0262 -1.4574 -0.6288
   83MOL0     H11399   7.467   4.966  10.663 -3.2846 -1.4708  0.7855
   83MOL0     H11400   7.541   4.818  10.606 -0.1156  0.1326  1.0458
   83MOL0     H11401   7.350   4.840  10.405 -1.8781  0.5645 -0.2363
   83MOL0     H11402   7.336   4.750  10.553  0.8592  0.3903 -0.3652
   83MOL0     H11403   7.231   5.108  10.427  3.7767  0.2010  1.8685
   83MOL0     H11404   7.011   5.233  10.424 -0.2671 -0.7708 -1.0227
   83MOL0     H11405   6.989   5.273  10.598 -0.3342  1.7572 -1.6710
   83MOL0     H11406   6.772   5.242  10.442 -0.2392 -1.3965  0.6082
   83MOL0     H11407   6.809   5.082  10.425  0.2394  1.6588 -0.4997
   83MOL0     H11408   6.637   5.157  10.614 -0.7484  0.3825 -0.5209
   83MOL0     H11409   6.755   5.024  10.643 -0.1495 -0.4090 -0.6018
   83MOL0     H11410   6.744   5.158  10.837 -1.9587  0.3934 -1.1716
   83MOL0     H11411   6.896   5.196  10.762  1.6358  4.2296 -1.5846
   83MOL0     H11412   6.707   5.581  10.758 -1.2087 -1.4273  1.0824
   83MOL0     H11413   6.709   5.807  10.828 -0.0773  0.6895  0.5639
   83MOL0     H11414   6.853   5.867  10.903 -2.1379  2.0788 -2.5798
   83MOL0     H11415   6.707   5.822  10.998 -1.7189  2.8202 -2.4802
   83MOL0     H11416   6.789   6.019  11.223  0.9939  0.5208  0.4554
   83MOL0     H11417   6.809   6.159  11.390 -1.8199 -0.9551 -1.4308
   83MOL0     H11418   7.155   6.065  11.693  2.2156  2.4442  1.7864
   83MOL0     H11419   7.182   6.166  11.561  1.1953  0.5041  0.7987
   83MOL0     H11420   7.107   6.365  11.664  0.8524  0.9063  0.9220
   83MOL0     H11421   7.058   6.280  11.817  0.5361  0.5492  1.7985
   83MOL0     H11422   7.336   6.322  11.678  0.4122 -0.1608  0.3800
   83MOL0     H11423   7.298   6.218  11.824 -1.3630  0.2662  0.9859
   83MOL0     H11424   7.268   6.523  11.771 -0.8153  0.8176  1.6083
   83MOL0     H11425   7.394   6.456  11.863 -0.3907  2.7195  0.5729
   83MOL0     H11426   7.111   6.468  11.953  0.9036  2.1910  0.7427
   83MOL0     H11427   7.217   6.340  12.012  1.4105  1.0133  1.0299
   83MOL0     H11428   7.195   6.539  12.161 -1.8220  3.2470 -1.8948
   83MOL0     H11429   7.248   6.638  12.027 -0.2387  0.0574 -1.6760
   83MOL0     H11430   7.480   6.591  12.048  1.6653  0.8203  3.6169
   83MOL0     H11431   7.457   6.424  12.109 -0.8426 -0.3270  1.1618
   83MOL0     H11432   7.551   6.564  12.276 -0.1812  0.1362  0.9240
   83MOL0     H11433   7.382   6.530  12.328  2.1831 -2.1034 -0.5443
   83MOL0     H11434   7.075   5.887  11.608 -0.2642 -2.3909 -1.6274
   83MOL0     H11435   7.028   5.718  11.429  0.3301 -0.5198 -0.8182
   83MOL0     H11436   7.046   5.446  11.091  0.0376  1.5227  0.3875
   83MOL0     H11437   6.939   5.280  10.944 -3.7614 -1.8616  0.0036
   83MOL0     H11438   8.325   5.075  10.380 -1.3624  1.9400 -0.3953
   83MOL0     H11439   8.580   5.103  10.381  0.2494  0.5714 -1.6490
   83MOL0     H11440   8.754   5.623  10.414 -0.4868  0.4505  3.1681
   83MOL0     H11441   8.954   5.778  10.428  3.4447  0.7607  0.9600
   83MOL0     H11442   9.281   5.562  10.365 -1.5837 -0.6674  1.9362
   83MOL0     H11443   9.210   5.723  10.311  1.4062  0.7247  0.2577
   83MOL0     H11444   9.480   5.705  10.313 -0.0312  0.2775  0.0990
   83MOL0     H11445   9.464   5.730  10.487  1.9245 -1.1067 -0.8429
   83MOL0     H11446   9.305   5.928  10.388  0.5368 -0.4725  1.3428
   83MOL0     H11447   9.468   5.948  10.411 -1.3493 -1.0242  1.8692
   83MOL0     H11448   9.346   5.837  10.146  4.1153 -2.8071 -0.2178
   83MOL0     H11449   9.512   5.897  10.171  1.1271  0.6967  0.6879
   83MOL0     H11450   9.286   6.251  10.173 -0.3356 -0.0546 -1.0108
   83MOL0     H11451   9.169   5.455  10.611  1.0273  1.5895  0.0776
   83MOL0     H11452   9.071   5.263  10.657 -0.7665  1.0482  1.9082
   83MOL0     H11453   8.900   5.229  10.679 -2.7338 -1.3012 -2.4041
   83MOL0     H11454   8.971   5.207  10.521 -0.0682 -0.1049 -0.7736
   84MOL0     O11455   0.474   4.108   7.397  0.0933  0.0263 -0.0767
   84MOL0     C11456   0.483   4.003   7.468  0.3943  0.1419  0.7523
   84MOL0     O11457   0.561   3.888   7.430 -0.3592  0.0532  0.8869
   84MOL0     C11458   0.584   3.865   7.297 -1.5834 -0.5729 -0.3329
   84MOL0     C11459   0.707   3.811   7.283  0.1569  0.1869  0.3193
   84MOL0     C11460   0.751   3.761   7.158 -0.1138 -0.0440 -0.4824
   84MOL0     C11461   0.655   3.765   7.050 -0.6679 -0.6754 -0.2441
   84MOL0     O11462   0.686   3.720   6.927 -0.6608 -0.3244 -0.0469
   84MOL0     C11463   0.716   3.826   6.832  0.2899 -0.1181  0.3360
   84MOL0     C11464   0.801   3.776   6.726 -0.3231 -0.2133  0.4633
   84MOL0     C11465   0.955   3.777   6.763 -1.1138  0.7513  0.0945
   84MOL0     C11466   1.044   3.750   6.639  0.2233  0.5604  1.0167
   84MOL0     C11467   1.200   3.763   6.660  0.4003  0.4070  0.2949
   84MOL0     C11468   1.276   3.756   6.523  0.3743  0.9666 -0.5795
   84MOL0     C11469   1.427   3.735   6.537  0.3247  0.4300  0.2593
   84MOL0     C11470   1.510   3.843   6.574  0.3022 -0.6781  1.0222
   84MOL0     N11471   1.523   3.953   6.471 -0.0281  0.3507 -0.6620
   84MOL0     C11472   1.491   4.082   6.486 -0.1082 -0.5130  0.1057
   84MOL0     C11473   1.521   4.146   6.370  0.1467  0.5496  0.1868
   84MOL0     C11474   1.483   4.287   6.336  0.1256 -0.8543  0.3754
   84MOL0     C11475   1.524   4.335   6.191  0.3841  0.4824 -0.2338
   84MOL0     C11476   1.538   4.488   6.206  0.8524  0.3559  0.7309
   84MOL0     C11477   1.577   4.544   6.068 -0.5720 -0.2285 -0.0514
   84MOL0     O11478   1.536   4.678   6.071  0.1921  0.2421 -0.4055
   84MOL0     C11479   1.536   4.755   5.956  0.5162  0.1187 -0.1454
   84MOL0     C11480   1.516   4.896   5.967 -0.7953  0.1276  0.0365
   84MOL0     C11481   1.512   4.983   5.863  0.3818 -0.3016  0.0319
   84MOL0     C11482   1.487   5.127   5.891  0.3964  0.1678 -0.0439
   84MOL0     C11483   1.527   4.927   5.729  0.5468 -0.5225 -0.8703
   84MOL0     C11484   1.514   5.015   5.604  0.2342  0.1524 -0.2640
   84MOL0     O11485   1.502   5.154   5.610  0.2467  0.2285 -0.2801
   84MOL0     C11486   1.500   5.216   5.490  0.1406  0.5792  0.0734
   84MOL0     C11487   1.609   5.288   5.443 -1.0116 -0.0145  0.2289
   84MOL0     C11488   1.594   5.346   5.310  0.3206  0.5652 -0.2057
   84MOL0     C11489   1.476   5.347   5.235 -0.1215  0.0898  0.0204
   84MOL0     O11490   1.455   5.414   5.109 -0.8248  0.4749 -0.4518
   84MOL0     C11491   1.558   5.488   5.046  0.0750 -0.4712 -1.1167
   84MOL0     C11492   1.516   5.497   4.899 -0.9169 -0.8469 -0.6254
   84MOL0     C11493   1.375   5.558   4.876  0.1072 -0.3688 -0.1586
   84MOL0     C11494   1.373   5.659   4.755 -0.5915 -0.3904 -0.2085
   84MOL0     C11495   1.245   5.682   4.683  0.3842 -0.2913 -0.4586
   84MOL0     C11496   1.203   5.569   4.592  0.5898 -0.4311  1.0817
   84MOL0     C11497   1.168   5.623   4.448 -0.1972  0.4250  0.3724
   84MOL0     C11498   1.031   5.693   4.438 -0.3649 -1.3852 -0.8562
   84MOL0    Cl11499   0.957   5.716   4.274 -0.0097 -0.1285 -0.1482
   84MOL0     C11500   1.366   5.279   5.298  0.2465  0.4426  0.6490
   84MOL0     C11501   1.378   5.219   5.425  0.4168  0.4755  1.0008
   84MOL0     O11502   1.538   4.956   5.498  0.0982  0.2809 -0.0139
   84MOL0     C11503   1.549   4.792   5.721 -0.3088 -0.6214  0.0813
   84MOL0     C11504   1.551   4.703   5.828  0.8784  0.1232 -0.0321
   84MOL0     N11505   1.579   4.047   6.293 -0.3913  0.5223  0.1901
   84MOL0     N11506   1.567   3.930   6.344  0.9365  0.3100 -0.9634
   84MOL0     C11507   0.535   3.823   7.069  0.4736  0.8636 -0.0426
   84MOL0     C11508   0.498   3.876   7.189 -0.0881  1.1545  0.1375
   84MOL0     C11509   0.388   3.982   7.582 -0.3097  0.3516 -0.9161
   84MOL0     C11510   0.362   3.850   7.622  1.4869 -0.3482  0.9465
   84MOL0     C11511   0.258   3.817   7.699 -0.6349  0.1778 -0.1946
   84MOL0     C11512   0.178   3.912   7.756  0.4690  0.3098  0.0997
   84MOL0     O11513   0.068   3.866   7.829  0.1501 -0.1534 -0.8213
   84MOL0     C11514  -0.015   3.960   7.904 -0.8448  0.9675 -1.0490
   84MOL0     C11515   0.065   4.001   8.032 -0.7891 -0.2568  0.6460
   84MOL0     C11516   0.097   3.885   8.119 -0.0019  0.2021 -0.7699
   84MOL0     C11517   0.229   3.827   8.097  0.6473 -0.1534  0.3424
   84MOL0     C11518   0.260   3.701   8.177 -0.3594 -1.1313 -1.0683
   84MOL0     C11519   0.294   3.601   8.242  0.4794 -0.0921  0.0513
   84MOL0     C11520   0.200   4.049   7.727 -0.0588  0.1612 -0.1404
   84MOL0     C11521   0.306   4.083   7.641  0.6804  0.5260  0.2803
   84MOL0     C11522   0.329   4.231   7.624 -0.1013 -0.4411 -0.3778
   84MOL0     H11523   0.766   3.800   7.373  1.3905 -1.7782 -0.6754
   84MOL0     H11524   0.838   3.699   7.141 -0.8907 -1.1100 -0.6873
   84MOL0     H11525   0.770   3.905   6.885 -0.0099  0.0360  0.4099
   84MOL0     H11526   0.622   3.866   6.793  1.2271  1.0613 -0.8001
   84MOL0     H11527   0.770   3.676   6.693  0.5068 -0.1108 -0.7093
   84MOL0     H11528   0.791   3.848   6.644 -2.9841  1.0958  1.8275
   84MOL0     H11529   0.986   3.874   6.802 -0.9443 -0.5649  3.6089
   84MOL0     H11530   0.992   3.704   6.835 -0.0902  2.7332  1.6960
   84MOL0     H11531   1.012   3.653   6.600 -1.1008  1.3370  0.0983
   84MOL0     H11532   1.013   3.827   6.569 -0.5458 -2.1923 -1.9064
   84MOL0     H11533   1.229   3.685   6.730 -0.2040  0.9291  1.1373
   84MOL0     H11534   1.217   3.859   6.709 -1.7104 -0.5967  3.2647
   84MOL0     H11535   1.231   3.666   6.480 -0.9302 -0.2770  3.0159
   84MOL0     H11536   1.252   3.843   6.460  2.7337  1.5759 -0.7304
   84MOL0     H11537   1.464   3.697   6.441  1.5321 -2.1553  1.6457
   84MOL0     H11538   1.444   3.653   6.608  1.7390  1.2263  0.8665
   84MOL0     H11539   1.478   3.882   6.671 -2.5620 -0.1942 -0.0088
   84MOL0     H11540   1.614   3.815   6.587  0.3887 -0.4979  0.7465
   84MOL0     H11541   1.457   4.136   6.574  0.4629 -2.6573  1.7239
   84MOL0     H11542   1.526   4.348   6.416 -0.4215 -1.6542  1.3147
   84MOL0     H11543   1.376   4.310   6.340  0.4745  2.7071 -3.7437
   84MOL0     H11544   1.616   4.289   6.153 -0.0603 -0.4898 -0.1703
   84MOL0     H11545   1.450   4.293   6.123 -2.3021  0.0796  2.6789
   84MOL0     H11546   1.446   4.540   6.234  2.2765  3.4455  0.1476
   84MOL0     H11547   1.617   4.517   6.276  0.5234  1.2098  0.7605
   84MOL0     H11548   1.683   4.535   6.043 -0.4155  1.6085 -0.2014
   84MOL0     H11549   1.523   4.491   5.989  1.0107  0.4191 -1.6453
   84MOL0     H11550   1.510   4.933   6.069  0.1273  0.3162  0.0331
   84MOL0     H11551   1.568   5.190   5.852 -1.6745  1.9140 -1.7416
   84MOL0     H11552   1.476   5.135   5.999 -0.3113 -1.3433  0.0220
   84MOL0     H11553   1.397   5.169   5.845 -1.0802 -2.0261  0.7232
   84MOL0     H11554   1.700   5.305   5.500 -1.7078 -0.5424  1.5313
   84MOL0     H11555   1.676   5.410   5.279  0.6048  0.4280  0.2563
   84MOL0     H11556   1.562   5.588   5.091  2.3728  0.1614 -2.5567
   84MOL0     H11557   1.658   5.445   5.058  1.8174  2.9266 -2.2734
   84MOL0     H11558   1.594   5.556   4.851 -1.6779 -0.6131 -1.6170
   84MOL0     H11559   1.521   5.404   4.841  4.1848  1.0933 -3.9669
   84MOL0     H11560   1.333   5.607   4.964  0.0434  0.6135 -0.7273
   84MOL0     H11561   1.302   5.480   4.852 -1.3996  0.8808  0.2050
   84MOL0     H11562   1.444   5.624   4.678 -1.3292 -1.3431 -0.4819
   84MOL0     H11563   1.416   5.750   4.797  0.2376 -0.7769 -0.1997
   84MOL0     H11564   1.169   5.699   4.760  1.1941  0.1211  0.2678
   84MOL0     H11565   1.241   5.784   4.642 -2.1466  0.9289  2.4587
   84MOL0     H11566   1.109   5.527   4.629 -0.0216  0.2137  0.2894
   84MOL0     H11567   1.291   5.505   4.586  0.8011 -0.0280 -3.7064
   84MOL0     H11568   1.155   5.538   4.380 -3.1120  0.9295  0.1637
   84MOL0     H11569   1.243   5.693   4.412  0.1932 -1.3098 -2.5332
   84MOL0     H11570   1.039   5.793   4.482 -1.7942 -1.7949  0.4176
   84MOL0     H11571   0.956   5.639   4.497 -0.1423 -0.5046  0.2886
   84MOL0     H11572   1.268   5.271   5.253  1.0613  0.1630 -1.2108
   84MOL0     H11573   1.289   5.174   5.467  0.1548 -2.1591 -1.9792
   84MOL0     H11574   1.569   4.750   5.623  2.0292  0.7634 -0.1302
   84MOL0     H11575   1.576   4.600   5.805 -0.6872  0.2785 -2.8677
   84MOL0     H11576   0.470   3.835   6.983 -3.5639 -1.0444  2.4327
   84MOL0     H11577   0.396   3.914   7.199 -0.1678  1.1001 -0.4477
   84MOL0     H11578   0.430   3.768   7.599  0.0293 -1.1836 -0.6090
   84MOL0     H11579   0.236   3.713   7.723  1.1929  0.1172  1.4560
   84MOL0     H11580  -0.042   4.050   7.849 -1.5588  3.0413  2.3826
   84MOL0     H11581  -0.111   3.919   7.937 -0.3361 -0.0809 -0.8249
   84MOL0     H11582  -0.004   4.067   8.085 -3.5829  2.0582 -5.0321
   84MOL0     H11583   0.157   4.058   8.014 -1.7167  1.7193  1.8616
   84MOL0     H11584   0.088   3.918   8.223  1.1774  0.3198 -0.6885
   84MOL0     H11585   0.027   3.801   8.113  1.4377 -1.0465 -0.6785
   84MOL0     H11586   0.307   3.901   8.120  1.6444 -1.1190  0.1567
   84MOL0     H11587   0.255   3.799   7.994  1.3285  0.4585  0.3436
   84MOL0     H11588   0.306   3.513   8.302  3.0485  0.1917  0.0643
   84MOL0     H11589   0.138   4.128   7.769 -1.5373 -0.5654 -0.8629
   84MOL0     H11590   0.240   4.288   7.596  0.5160 -0.3258 -2.2639
   84MOL0     H11591   0.351   4.273   7.723 -1.6505  2.7904 -1.2904
   84MOL0     H11592   0.395   4.255   7.540 -1.0583  0.6997 -0.8300
   85MOL0     O11593   5.490   3.034   8.371 -0.7137  0.1534 -0.2251
   85MOL0     C11594   5.511   3.145   8.328  0.6366  0.2932 -0.7254
   85MOL0     O11595   5.465   3.187   8.209  0.0315 -0.3754  0.0687
   85MOL0     C11596   5.364   3.109   8.146  0.1847 -0.8900 -0.3541
   85MOL0     C11597   5.230   3.136   8.170 -0.6794  0.2217 -0.0283
   85MOL0     C11598   5.125   3.061   8.120  0.3744  1.1768 -0.4638
   85MOL0     C11599   5.152   2.951   8.029  0.4124  0.6183 -0.4939
   85MOL0     O11600   5.058   2.876   7.971 -0.4285 -0.1143  0.4010
   85MOL0     C11601   4.928   2.927   7.985  0.1711  0.6531 -0.4279
   85MOL0     C11602   4.828   2.854   7.897  0.1543  0.3851  0.4671
   85MOL0     C11603   4.705   2.947   7.866  0.1438  1.1418 -0.7348
   85MOL0     C11604   4.616   2.899   7.746 -0.2781 -0.5639 -0.1911
   85MOL0     C11605   4.540   2.763   7.779  0.0356 -0.2531 -0.7312
   85MOL0     C11606   4.411   2.807   7.858 -0.0003  0.5082  0.3201
   85MOL0     C11607   4.305   2.682   7.884 -0.0096 -1.4633  0.1641
   85MOL0     C11608   4.371   2.602   7.992  0.2533  0.4356  0.3063
   85MOL0     N11609   4.282   2.494   8.038 -0.3217  0.1021 -0.1598
   85MOL0     C11610   4.330   2.374   8.081 -0.3155  0.6139 -0.0479
   85MOL0     C11611   4.218   2.319   8.139 -0.3358 -0.1920 -0.4565
   85MOL0     C11612   4.208   2.194   8.218 -0.0495 -0.6343 -0.6493
   85MOL0     C11613   4.328   2.172   8.312  0.6436  0.5360  0.5442
   85MOL0     C11614   4.314   2.039   8.384 -0.2882 -0.1852 -0.9643
   85MOL0     C11615   4.184   2.017   8.458 -0.8761 -0.0436  0.2830
   85MOL0     O11616   4.183   2.111   8.567  0.3091  0.7121  0.2340
   85MOL0     C11617   4.070   2.143   8.638  0.2849 -0.2415 -0.3275
   85MOL0     C11618   3.946   2.067   8.641 -0.6211  0.0356 -1.3794
   85MOL0     C11619   3.838   2.096   8.728 -1.0601  0.1952 -0.3424
   85MOL0     C11620   3.713   2.018   8.695  0.2798  0.8157  0.1951
   85MOL0     C11621   3.847   2.211   8.810  0.5864  0.8054  0.3011
   85MOL0     C11622   3.734   2.263   8.891  0.5341 -0.5447  0.2229
   85MOL0     O11623   3.750   2.389   8.931 -0.1222 -0.3794 -0.7980
   85MOL0     C11624   3.639   2.457   8.969 -0.1164  0.7882 -0.0978
   85MOL0     C11625   3.654   2.539   9.085 -0.6739 -0.2427 -0.3261
   85MOL0     C11626   3.545   2.617   9.124 -0.3868 -1.0465 -0.2419
   85MOL0     C11627   3.422   2.610   9.064  1.0538  0.0113  0.1366
   85MOL0     O11628   3.320   2.693   9.111 -0.5198 -0.7511 -0.4617
   85MOL0     C11629   3.184   2.678   9.071 -0.7386 -0.0904  1.5126
   85MOL0     C11630   3.102   2.787   9.135 -0.7683 -0.0058 -0.1675
   85MOL0     C11631   2.972   2.826   9.048 -0.6144  0.2425  0.5046
   85MOL0     C11632   2.909   2.953   9.118 -0.6331  0.8196  0.3111
   85MOL0     C11633   2.809   3.007   9.017  0.0667  0.2741  0.2455
   85MOL0     C11634   2.755   3.140   9.077  1.0455  1.2978 -0.1978
   85MOL0     C11635   2.638   3.195   8.991  0.0200 -0.4771  0.3130
   85MOL0     C11636   2.574   3.330   9.033  0.2595 -0.4033 -0.1446
   85MOL0    Cl11637   2.482   3.308   9.185  0.3665 -0.0504 -0.3316
   85MOL0     C11638   3.409   2.531   8.955  0.0898 -0.4281 -0.7270
   85MOL0     C11639   3.512   2.448   8.903  0.2990 -0.3872 -0.5580
   85MOL0     O11640   3.635   2.197   8.915  0.1118 -0.4858 -0.0573
   85MOL0     C11641   3.965   2.283   8.799  1.1582 -0.8871  0.3314
   85MOL0     C11642   4.076   2.250   8.726  0.2595  0.9378  1.2621
   85MOL0     N11643   4.110   2.401   8.126  0.3635  0.5012  0.1816
   85MOL0     N11644   4.149   2.506   8.064  0.4954 -0.5776 -0.3862
   85MOL0     C11645   5.288   2.926   8.001  0.2398  0.1690 -0.0143
   85MOL0     C11646   5.392   3.001   8.060 -0.2766  0.0207 -1.2493
   85MOL0     C11647   5.593   3.240   8.398 -0.7509 -0.0763  0.6230
   85MOL0     C11648   5.663   3.344   8.328 -0.2768 -0.6673 -0.3575
   85MOL0     C11649   5.756   3.439   8.386  1.2398 -0.3247 -0.0417
   85MOL0     C11650   5.790   3.432   8.522  0.2862 -0.8829  0.6750
   85MOL0     O11651   5.892   3.502   8.581 -0.7903  0.4300 -0.3867
   85MOL0     C11652   5.972   3.586   8.494  0.1101 -0.6922  0.0905
   85MOL0     C11653   6.062   3.671   8.587  0.1649  0.7001  0.3708
   85MOL0     C11654   6.161   3.765   8.515 -0.6664  0.4612  0.0792
   85MOL0     C11655   6.261   3.837   8.615 -0.6560  0.3615  0.7266
   85MOL0     C11656   6.377   3.750   8.664 -0.7127  0.1473  0.5048
   85MOL0     C11657   6.464   3.672   8.690  0.0591  0.4550 -0.5873
   85MOL0     C11658   5.711   3.341   8.592  0.9970 -0.1181 -0.5763
   85MOL0     C11659   5.619   3.247   8.542  0.9372 -0.1564 -0.3831
   85MOL0     C11660   5.558   3.152   8.635 -0.3363 -0.4120  0.5210
   85MOL0     H11661   5.214   3.222   8.234 -0.2090 -0.4528  1.0151
   85MOL0     H11662   5.029   3.094   8.159  0.8679  1.5383  0.4899
   85MOL0     H11663   4.939   3.023   7.935 -1.2813  0.3903 -1.3005
   85MOL0     H11664   4.884   2.929   8.085 -0.9904  1.4263 -0.9342
   85MOL0     H11665   4.872   2.824   7.801 -2.8324  3.7773 -2.2516
   85MOL0     H11666   4.809   2.763   7.955 -0.1659  0.9449  1.2517
   85MOL0     H11667   4.651   2.969   7.959 -2.3153  2.3956 -2.3529
   85MOL0     H11668   4.745   3.046   7.842  0.5355  1.2194  0.1934
   85MOL0     H11669   4.559   2.992   7.737 -3.4473 -2.2431  1.0014
   85MOL0     H11670   4.677   2.890   7.655 -0.2786 -0.1501 -0.2355
   85MOL0     H11671   4.601   2.682   7.820 -1.5083 -1.0854  0.0294
   85MOL0     H11672   4.493   2.719   7.690  4.9704 -2.0236 -2.8157
   85MOL0     H11673   4.433   2.863   7.950 -2.0964 -0.7129  1.6432
   85MOL0     H11674   4.350   2.868   7.790 -0.2682 -1.9699 -1.7897
   85MOL0     H11675   4.286   2.627   7.792  1.7954  0.5300 -1.4934
   85MOL0     H11676   4.210   2.725   7.915  0.6750  1.4639 -1.4634
   85MOL0     H11677   4.469   2.573   7.953 -0.9733 -2.1492 -1.0899
   85MOL0     H11678   4.389   2.665   8.080  4.3722 -0.0246 -0.0108
   85MOL0     H11679   4.428   2.328   8.087  0.0467  1.5320  1.5927
   85MOL0     H11680   4.210   2.115   8.142 -0.5183 -2.0144  0.7247
   85MOL0     H11681   4.107   2.198   8.260 -0.4582  0.5823 -1.6652
   85MOL0     H11682   4.419   2.171   8.251 -0.5651  0.4148 -1.3438
   85MOL0     H11683   4.335   2.245   8.393  0.3669 -2.1145  3.1100
   85MOL0     H11684   4.333   1.953   8.318 -0.3290 -0.4676 -0.6118
   85MOL0     H11685   4.397   2.037   8.455  2.3314 -2.0070 -3.8203
   85MOL0     H11686   4.103   2.020   8.386 -0.3819 -1.7203 -0.3852
   85MOL0     H11687   4.176   1.916   8.499 -2.6227 -0.6655 -1.4427
   85MOL0     H11688   3.938   1.990   8.565 -0.3248  0.4488 -1.8317
   85MOL0     H11689   3.727   1.928   8.634  2.0496  0.0784  1.5943
   85MOL0     H11690   3.648   2.088   8.642  0.2529  1.7678  1.4317
   85MOL0     H11691   3.655   1.991   8.784  0.1416  3.2169  0.9082
   85MOL0     H11692   3.752   2.539   9.132  0.9169 -0.7331 -3.4254
   85MOL0     H11693   3.561   2.689   9.204  0.2492  0.0432 -1.3283
   85MOL0     H11694   3.184   2.710   8.966  1.2855  3.9734  2.5486
   85MOL0     H11695   3.142   2.580   9.095  0.2802 -0.8643  0.2928
   85MOL0     H11696   3.078   2.773   9.241 -0.0372  0.2237  0.0307
   85MOL0     H11697   3.164   2.877   9.136 -1.2543  0.3363  1.4014
   85MOL0     H11698   2.902   2.742   9.054  1.4459 -1.4531  3.1522
   85MOL0     H11699   2.995   2.847   8.943  2.4279 -1.0425  0.7891
   85MOL0     H11700   2.986   3.026   9.145  1.6037 -1.4774  0.6096
   85MOL0     H11701   2.851   2.926   9.207 -1.4001  4.9310  1.2912
   85MOL0     H11702   2.859   3.023   8.921  1.7955  0.3265  1.1195
   85MOL0     H11703   2.731   2.936   8.987 -1.8511  3.0074 -1.8016
   85MOL0     H11704   2.838   3.210   9.090  0.7319  2.0784 -2.0564
   85MOL0     H11705   2.706   3.116   9.171  0.7046 -0.7904 -0.8502
   85MOL0     H11706   2.562   3.117   8.987 -0.4158 -0.0066 -0.8017
   85MOL0     H11707   2.680   3.198   8.890 -0.0404  0.4284  0.3050
   85MOL0     H11708   2.496   3.355   8.961 -1.3229  0.2127  1.6933
   85MOL0     H11709   2.637   3.419   9.029 -0.8621  0.4710  0.9881
   85MOL0     H11710   3.319   2.508   8.900 -1.2989  1.7218  0.5185
   85MOL0     H11711   3.492   2.383   8.819 -2.7184 -0.1163 -0.1467
   85MOL0     H11712   3.981   2.385   8.833  1.1558  1.2484 -5.0846
   85MOL0     H11713   4.174   2.295   8.741  1.4461 -1.8067  2.4295
   85MOL0     H11714   5.315   2.841   7.940 -3.5656  1.2576 -3.6976
   85MOL0     H11715   5.496   2.975   8.041  0.3554 -0.1546  1.8952
   85MOL0     H11716   5.646   3.359   8.222 -0.8011 -2.0016 -0.4745
   85MOL0     H11717   5.799   3.507   8.313 -1.1312  2.7065  1.1566
   85MOL0     H11718   6.028   3.525   8.423 -1.4009  1.9987 -3.7220
   85MOL0     H11719   5.908   3.651   8.434  0.7274 -1.3313 -1.3111
   85MOL0     H11720   6.113   3.593   8.643 -0.1129 -0.3828 -0.8234
   85MOL0     H11721   6.007   3.738   8.654  1.7842  0.1917  2.3012
   85MOL0     H11722   6.219   3.706   8.444  0.5483 -3.2434  3.7409
   85MOL0     H11723   6.109   3.848   8.467 -0.4728  0.1920 -0.6051
   85MOL0     H11724   6.204   3.882   8.697  0.5860 -2.3093  3.2213
   85MOL0     H11725   6.312   3.919   8.563  3.1822 -0.1713  3.2509
   85MOL0     H11726   6.545   3.605   8.707 -1.0099 -0.4195  1.4826
   85MOL0     H11727   5.725   3.314   8.696  0.6310  0.9408 -0.2419
   85MOL0     H11728   5.568   3.184   8.739  3.5919 -1.2882  0.5537
   85MOL0     H11729   5.450   3.142   8.619 -0.6028  3.1674 -0.8828
   85MOL0     H11730   5.606   3.055   8.623 -1.7220 -1.1905  0.9824
   86MOL0     O11731   9.195   8.205  10.980 -0.2252  0.7902 -0.2433
   86MOL0     C11732   9.093   8.159  11.025 -0.4032 -0.2327  0.1089
   86MOL0     O11733   9.010   8.226  11.126  0.7044  0.2819  0.4810
   86MOL0     C11734   9.038   8.354  11.169 -0.3949 -0.1904  0.2449
   86MOL0     C11735   8.970   8.463  11.125 -0.1921  0.7651  0.2712
   86MOL0     C11736   9.013   8.593  11.166  0.3298  0.3766 -0.0807
   86MOL0     C11737   9.118   8.602  11.255 -0.3533 -0.7278  0.3923
   86MOL0     O11738   9.142   8.729  11.304  0.0685  0.1884  0.3690
   86MOL0     C11739   9.052   8.770  11.407  0.3337 -0.9847 -0.6847
   86MOL0     C11740   9.101   8.754  11.552  0.1394 -0.6723 -0.0674
   86MOL0     C11741   9.004   8.832  11.644  0.9184 -0.1413  0.1262
   86MOL0     C11742   8.870   8.753  11.670  0.7255  0.5444  0.3378
   86MOL0     C11743   8.756   8.842  11.731 -0.4914 -0.0987 -0.2643
   86MOL0     C11744   8.793   8.944  11.839 -0.4579  0.4790  0.0885
   86MOL0     C11745   8.675   9.025  11.883 -0.5095 -0.8138  0.0472
   86MOL0     C11746   8.723   9.117  11.994  0.0457 -0.7257 -0.1599
   86MOL0     N11747   8.620   9.172  12.081 -1.2626 -0.4402  1.3861
   86MOL0     C11748   8.566   9.094  12.185 -0.1235 -0.3883  0.7736
   86MOL0     C11749   8.500   9.174  12.263 -0.6350  0.8913  0.7181
   86MOL0     C11750   8.415   9.123  12.379  0.0652 -0.9801 -0.0913
   86MOL0     C11751   8.497   9.112  12.504  0.8149  0.2306 -0.1453
   86MOL0     C11752   8.408   9.102  12.629 -0.4642  0.9258 -0.3520
   86MOL0     C11753   8.494   9.092  12.748 -0.2706 -0.4811 -0.5360
   86MOL0     O11754   8.582   9.203  12.757 -0.1792  0.9537 -1.7720
   86MOL0     C11755   8.663   9.212  12.870  0.3072 -0.5644  0.1911
   86MOL0     C11756   8.665   9.121  12.974  0.2594 -0.6091  0.5007
   86MOL0     C11757   8.748   9.150  13.085 -1.1169 -0.2313  0.2457
   86MOL0     C11758   8.725   9.071  13.202 -1.1583  1.1166 -0.3223
   86MOL0     C11759   8.847   9.255  13.086 -0.2311  0.7357 -0.9662
   86MOL0     C11760   8.951   9.282  13.196  0.0343  0.7657  0.2358
   86MOL0     O11761   9.051   9.362  13.159  0.2404 -0.8033  0.1432
   86MOL0     C11762   9.151   9.420  13.244  0.6173  1.1397 -0.1461
   86MOL0     C11763   9.177   9.364  13.370  0.2268  0.1971  1.0904
   86MOL0     C11764   9.281   9.405  13.454  1.0544  0.2399 -0.2040
   86MOL0     C11765   9.337   9.528  13.424 -0.2215  0.3358 -0.6042
   86MOL0     O11766   9.422   9.603  13.509  0.4982  0.2546  0.5026
   86MOL0     C11767   9.454   9.563  13.642  0.0869 -0.5334 -0.6332
   86MOL0     C11768   9.608   9.551  13.661  0.3968 -0.0984  0.6083
   86MOL0     C11769   9.687   9.675  13.616  0.7000  0.8445 -0.4426
   86MOL0     C11770   9.829   9.672  13.662 -0.0130 -0.4105 -0.0396
   86MOL0     C11771   9.905   9.790  13.592  0.2437 -0.4885  0.9037
   86MOL0     C11772  10.053   9.773  13.607  0.1614 -0.0019 -0.3100
   86MOL0     C11773  10.125   9.872  13.502 -0.7318  1.0181  0.0286
   86MOL0     C11774  10.252   9.795  13.448 -0.5788 -0.4593 -0.0254
   86MOL0    Cl11775  10.200   9.677  13.314 -0.7868  0.2747 -0.1308
   86MOL0     C11776   9.324   9.585  13.304  0.6693  1.3610  0.5951
   86MOL0     C11777   9.234   9.526  13.206 -0.0690  0.4446  0.3325
   86MOL0     O11778   8.940   9.239  13.314 -1.1700  0.6039  0.5065
   86MOL0     C11779   8.841   9.339  12.975  0.3992 -0.4406  0.8242
   86MOL0     C11780   8.760   9.312  12.867  0.5681 -0.3904 -0.1614
   86MOL0     N11781   8.517   9.301  12.220  0.5281 -0.7152  0.3236
   86MOL0     N11782   8.589   9.295  12.112 -0.0188 -0.7717 -0.7099
   86MOL0     C11783   9.197   8.491  11.292 -0.0857 -0.5496 -0.8507
   86MOL0     C11784   9.151   8.369  11.250 -0.4920  0.2014  0.2651
   86MOL0     C11785   9.045   8.020  10.975  0.1437 -0.3607  0.0258
   86MOL0     C11786   8.899   8.001  10.984 -0.0250 -0.6009 -0.3376
   86MOL0     C11787   8.842   7.899  10.915  0.9490 -0.2412 -0.3177
   86MOL0     C11788   8.918   7.801  10.852  0.0503 -0.6213  0.4107
   86MOL0     O11789   8.864   7.698  10.778 -0.0578 -0.0882 -0.0805
   86MOL0     C11790   8.736   7.647  10.826  0.2060  0.5348 -0.2353
   86MOL0     C11791   8.619   7.695  10.737  0.3997  0.1733 -0.3670
   86MOL0     C11792   8.610   7.624  10.590 -0.1618 -0.5969  0.0537
   86MOL0     C11793   8.701   7.683  10.478  0.2611 -0.0060  0.7527
   86MOL0     C11794   8.709   7.586  10.364 -0.7853  0.0289 -0.3258
   86MOL0     C11795   8.718   7.501  10.280  1.2236  0.4444 -0.2082
   86MOL0     C11796   9.056   7.820  10.843 -0.3857  0.9466 -0.0324
   86MOL0     C11797   9.120   7.919  10.910  0.5969  0.6164  0.5719
   86MOL0     C11798   9.269   7.913  10.906  0.2102 -0.2211 -0.3425
   86MOL0     H11799   8.893   8.448  11.050  0.4948 -1.1289 -0.1102
   86MOL0     H11800   8.958   8.681  11.136 -0.5963  0.0713  0.6692
   86MOL0     H11801   8.963   8.706  11.406  0.8071 -1.7913  1.8019
   86MOL0     H11802   9.026   8.873  11.382  3.2346 -0.3844 -1.7402
   86MOL0     H11803   9.119   8.651  11.584  0.8533 -0.5727 -0.1235
   86MOL0     H11804   9.200   8.799  11.552 -0.3562  0.6266 -2.5912
   86MOL0     H11805   9.050   8.859  11.740 -1.7399  5.6505  0.1842
   86MOL0     H11806   8.982   8.926  11.592 -0.1018  1.4418  3.1914
   86MOL0     H11807   8.842   8.703  11.577 -0.7399  1.7125  0.1084
   86MOL0     H11808   8.893   8.680  11.748 -0.2065  1.3833  1.4278
   86MOL0     H11809   8.678   8.775  11.770  0.6252  1.0847  4.5697
   86MOL0     H11810   8.709   8.900  11.651 -1.0548 -1.3844 -0.9109
   86MOL0     H11811   8.829   8.869  11.910  2.4378  0.2458 -1.4697
   86MOL0     H11812   8.878   9.010  11.818 -1.0272  1.6702  1.3504
   86MOL0     H11813   8.596   8.958  11.919 -0.8272  0.0013  0.8931
   86MOL0     H11814   8.639   9.094  11.805 -1.1141 -0.3780  0.6998
   86MOL0     H11815   8.791   9.056  12.055  1.8350  1.2550 -0.0734
   86MOL0     H11816   8.765   9.206  11.948 -0.2142 -1.0515 -1.0431
   86MOL0     H11817   8.581   8.987  12.188 -0.4021 -0.4543 -0.0029
   86MOL0     H11818   8.363   9.033  12.344 -0.3328 -0.4592 -0.8607
   86MOL0     H11819   8.330   9.189  12.401  1.2498  0.5496 -0.0135
   86MOL0     H11820   8.567   9.028  12.493  3.3617  2.0790  0.9892
   86MOL0     H11821   8.561   9.200  12.511  1.3037  0.0212 -1.5300
   86MOL0     H11822   8.343   9.190  12.635 -1.8663 -0.1070  0.1399
   86MOL0     H11823   8.340   9.016  12.629 -0.0345  0.3658  3.9643
   86MOL0     H11824   8.429   9.083  12.835  1.4908  1.4988  1.0732
   86MOL0     H11825   8.548   8.998  12.736  1.7711  0.6176 -0.4061
   86MOL0     H11826   8.598   9.037  12.960 -0.4613 -0.2419  1.6470
   86MOL0     H11827   8.659   8.985  13.186  0.3438  0.1470 -1.6413
   86MOL0     H11828   8.697   9.139  13.282  2.5922 -1.4898  3.6562
   86MOL0     H11829   8.824   9.034  13.231 -0.1824  2.4310 -1.8047
   86MOL0     H11830   9.124   9.280  13.413 -1.3510  1.6369  2.0754
   86MOL0     H11831   9.304   9.347  13.543  1.2522  1.9530  0.9037
   86MOL0     H11832   9.414   9.647  13.700 -1.8452 -0.9027 -1.3704
   86MOL0     H11833   9.405   9.471  13.676  2.2801 -0.9053  1.9020
   86MOL0     H11834   9.616   9.531  13.768 -2.6641  2.0193  1.3552
   86MOL0     H11835   9.646   9.462  13.609 -0.4089  0.4579 -1.0241
   86MOL0     H11836   9.630   9.759  13.657 -1.8742  0.3610 -2.8010
   86MOL0     H11837   9.678   9.668  13.508  2.2092 -2.2247 -0.4901
   86MOL0     H11838   9.875   9.573  13.651 -1.8062 -2.3079  5.9387
   86MOL0     H11839   9.838   9.681  13.770 -0.0195 -4.4987  0.4470
   86MOL0     H11840   9.876   9.785  13.487 -4.9283  0.3954  2.0077
   86MOL0     H11841   9.866   9.887  13.626 -0.7106  0.7162 -3.0908
   86MOL0     H11842  10.084   9.669  13.609  2.4018  0.6209  0.2487
   86MOL0     H11843  10.082   9.812  13.705  4.3321 -0.2195 -1.2646
   86MOL0     H11844  10.151   9.960  13.562 -1.6357  0.1855  1.7067
   86MOL0     H11845  10.073   9.901  13.410  1.0482  4.3728 -0.1008
   86MOL0     H11846  10.317   9.742  13.517  0.6736  0.3870 -0.5272
   86MOL0     H11847  10.327   9.861  13.404 -1.5531  0.0975 -0.9011
   86MOL0     H11848   9.373   9.678  13.275  0.8982  1.0246 -0.1322
   86MOL0     H11849   9.221   9.558  13.103  1.1237 -2.1578 -0.7169
   86MOL0     H11850   8.907   9.424  12.961  1.5915 -1.2494  1.4127
   86MOL0     H11851   8.770   9.358  12.769  3.0292  1.4205  0.8445
   86MOL0     H11852   9.286   8.504  11.354 -1.4298 -0.8812  1.2815
   86MOL0     H11853   9.207   8.280  11.276  1.3980  0.5129 -2.3091
   86MOL0     H11854   8.828   8.071  11.027  0.6410 -0.7126  1.0016
   86MOL0     H11855   8.735   7.886  10.915  1.0208 -0.8877 -1.5561
   86MOL0     H11856   8.739   7.538  10.822  0.0115  0.5521 -2.8545
   86MOL0     H11857   8.716   7.674  10.930 -1.9756 -2.9284  0.3896
   86MOL0     H11858   8.627   7.803  10.724 -3.6645  0.6058 -0.5669
   86MOL0     H11859   8.518   7.677  10.775  0.3997 -0.1420 -0.5139
   86MOL0     H11860   8.628   7.517  10.596 -1.1513 -0.6786  3.0463
   86MOL0     H11861   8.508   7.650  10.558  0.7059  1.9876 -0.8735
   86MOL0     H11862   8.803   7.689  10.518 -0.0248 -0.0321  1.4929
   86MOL0     H11863   8.657   7.775  10.438  0.7219 -0.3665 -0.6364
   86MOL0     H11864   8.723   7.423  10.206 -2.3369  0.0769 -0.2479
   86MOL0     H11865   9.111   7.736  10.801 -0.2504  1.3632 -0.7050
   86MOL0     H11866   9.316   7.884  11.000  3.4113 -1.2587 -2.1271
   86MOL0     H11867   9.297   7.837  10.832  0.5682 -0.1424 -0.2877
   86MOL0     H11868   9.309   8.012  10.882 -0.7295  0.1645 -0.3821
   87MOL0     O11869   4.135   5.638   7.042  0.6282 -1.0005  0.3359
   87MOL0     C11870   4.032   5.581   7.074  0.4029  0.5475  0.0978
   87MOL0     O11871   4.018   5.453   7.056 -0.2616  0.1643 -1.0409
   87MOL0     C11872   4.121   5.367   7.084 -0.1078  0.7724  0.3522
   87MOL0     C11873   4.215   5.304   7.003 -0.5005  1.1869  0.4623
   87MOL0     C11874   4.299   5.207   7.054 -0.9641 -0.3254  0.0568
   87MOL0     C11875   4.299   5.176   7.197  0.6284 -0.4841 -0.0579
   87MOL0     O11876   4.385   5.084   7.233  0.3050 -0.3900  0.4021
   87MOL0     C11877   4.343   4.991   7.325  0.1166 -1.0263 -0.1363
   87MOL0     C11878   4.420   4.862   7.309 -0.2459  0.0455  0.2923
   87MOL0     C11879   4.560   4.901   7.367 -0.4603  0.0242 -0.1242
   87MOL0     C11880   4.660   4.793   7.355 -0.4222 -0.1351  0.0713
   87MOL0     C11881   4.789   4.827   7.431  0.2982  0.6002  0.6069
   87MOL0     C11882   4.788   4.768   7.569 -0.8534 -1.2363  0.5469
   87MOL0     C11883   4.901   4.844   7.660  0.0681 -0.6088 -0.2501
   87MOL0     C11884   4.924   4.767   7.789 -0.4930  0.4832 -0.2661
   87MOL0     N11885   5.018   4.821   7.889  0.4364  0.1406 -0.6965
   87MOL0     C11886   5.051   4.755   8.006 -0.1900 -0.2502 -0.1217
   87MOL0     C11887   5.089   4.849   8.094 -0.4448  1.6204  0.5304
   87MOL0     C11888   5.120   4.827   8.244  0.7072  0.3091  0.0482
   87MOL0     C11889   5.234   4.914   8.292  0.1458 -1.0858 -0.1757
   87MOL0     C11890   5.251   4.888   8.440  0.0017  0.7161  0.2444
   87MOL0     C11891   5.378   4.953   8.487  0.3255  0.1801  0.0373
   87MOL0     O11892   5.375   5.095   8.477  0.2666  0.0931 -0.2155
   87MOL0     C11893   5.484   5.166   8.523 -0.5166  0.3041  0.7730
   87MOL0     C11894   5.607   5.129   8.570  0.6085  0.5827  0.8235
   87MOL0     C11895   5.697   5.219   8.627  0.6104 -0.1681  0.4899
   87MOL0     C11896   5.823   5.175   8.682 -0.0166  0.6272 -0.0834
   87MOL0     C11897   5.660   5.355   8.626 -0.5637  0.4067  0.4421
   87MOL0     C11898   5.743   5.466   8.682  0.5962  0.2467 -0.2518
   87MOL0     O11899   5.683   5.579   8.726 -0.1569 -0.3467  0.1472
   87MOL0     C11900   5.758   5.690   8.755 -0.1156 -0.4204 -0.2754
   87MOL0     C11901   5.784   5.793   8.663  0.0895 -0.4178  0.3072
   87MOL0     C11902   5.868   5.901   8.695  0.0849  0.2666 -0.3069
   87MOL0     C11903   5.936   5.908   8.819 -0.2921  0.0570 -0.7664
   87MOL0     O11904   6.019   6.008   8.870 -0.9534 -0.7920  0.3680
   87MOL0     C11905   6.041   6.118   8.776 -0.1515  0.4524 -0.6913
   87MOL0     C11906   6.134   6.216   8.847  0.6182  0.0201 -0.5922
   87MOL0     C11907   6.170   6.323   8.748  0.0994 -0.9156 -0.6651
   87MOL0     C11908   6.218   6.439   8.831 -0.0399  0.3680 -0.4646
   87MOL0     C11909   6.260   6.556   8.749  0.1631 -0.1535 -0.2742
   87MOL0     C11910   6.248   6.685   8.829  0.2294  0.9315 -0.2440
   87MOL0     C11911   6.331   6.788   8.768 -0.7991  0.2360  0.1175
   87MOL0     C11912   6.314   6.918   8.838  0.3100 -0.0541  0.9361
   87MOL0    Cl11913   6.389   6.914   9.003  0.0664  0.3838 -0.0646
   87MOL0     C11914   5.900   5.804   8.914  0.1043 -0.7687  0.2304
   87MOL0     C11915   5.821   5.699   8.877 -0.4840  1.6394  0.3054
   87MOL0     O11916   5.865   5.451   8.687 -0.1633 -0.0998  1.0809
   87MOL0     C11917   5.537   5.388   8.583 -0.1205 -0.6623  0.0549
   87MOL0     C11918   5.445   5.295   8.532  0.1119 -0.2099  0.1554
   87MOL0     N11919   5.100   4.973   8.034 -0.4157 -1.0751  0.7466
   87MOL0     N11920   5.035   4.955   7.921 -0.5821  0.7789  0.3916
   87MOL0     C11921   4.217   5.250   7.276  0.6586  0.5185 -0.2638
   87MOL0     C11922   4.125   5.343   7.225  0.4248 -0.0708 -0.4081
   87MOL0     C11923   3.902   5.661   7.102 -0.0143 -0.3307  0.1947
   87MOL0     C11924   3.925   5.785   7.166  0.1765 -0.6958 -0.1344
   87MOL0     C11925   3.826   5.878   7.182  0.6207 -0.4160  1.1034
   87MOL0     C11926   3.700   5.846   7.137 -0.5284 -0.4776 -0.6410
   87MOL0     O11927   3.583   5.923   7.148  0.1455  0.0153 -0.7416
   87MOL0     C11928   3.588   6.033   7.233 -0.7106 -0.2431  0.8199
   87MOL0     C11929   3.604   5.999   7.379 -1.0623  0.3535 -0.0475
   87MOL0     C11930   3.478   5.931   7.440 -0.1740  0.6658  0.2486
   87MOL0     C11931   3.467   5.922   7.594  0.1477 -0.1235  0.4240
   87MOL0     C11932   3.448   6.050   7.657  0.0536  0.4335 -0.9564
   87MOL0     C11933   3.431   6.165   7.691  0.0556  0.3027  0.5448
   87MOL0     C11934   3.673   5.722   7.083 -0.3895  0.2800 -0.8406
   87MOL0     C11935   3.771   5.629   7.068  0.0711 -0.2494 -0.9610
   87MOL0     C11936   3.727   5.493   7.017  0.1024  0.6842  0.8285
   87MOL0     H11937   4.221   5.326   6.897 -0.9724 -2.2493 -0.3966
   87MOL0     H11938   4.366   5.146   6.995 -1.5765  1.6415 -2.9015
   87MOL0     H11939   4.240   4.964   7.302  0.1498 -1.6668  0.4149
   87MOL0     H11940   4.347   5.022   7.430 -2.0263  2.2171 -0.8570
   87MOL0     H11941   4.385   4.774   7.363  1.2543 -0.9615 -0.2948
   87MOL0     H11942   4.418   4.834   7.203 -1.5503  0.2102  0.2556
   87MOL0     H11943   4.593   4.992   7.316  1.1256 -0.6519 -0.3638
   87MOL0     H11944   4.555   4.929   7.472  0.8523  0.3250 -0.1189
   87MOL0     H11945   4.630   4.700   7.404  3.2431 -0.3713  2.2679
   87MOL0     H11946   4.676   4.778   7.248 -0.7306 -0.0816  0.0168
   87MOL0     H11947   4.803   4.933   7.451 -1.7105  0.5411  2.8739
   87MOL0     H11948   4.874   4.791   7.372  0.5353 -0.2962  1.4751
   87MOL0     H11949   4.688   4.776   7.611 -0.2203  4.2857  1.8554
   87MOL0     H11950   4.819   4.664   7.555  0.3561 -1.3179  3.2754
   87MOL0     H11951   4.869   4.944   7.689  0.2775 -0.4681 -0.5041
   87MOL0     H11952   5.001   4.848   7.617  0.2749 -1.9203  0.0400
   87MOL0     H11953   4.831   4.767   7.848 -1.3707 -0.0886 -1.6157
   87MOL0     H11954   4.965   4.670   7.762  1.9095  0.8844  1.6043
   87MOL0     H11955   5.020   4.658   8.042  0.7840 -2.2044 -4.0170
   87MOL0     H11956   5.160   4.726   8.259  3.2458  1.4679  1.9492
   87MOL0     H11957   5.033   4.854   8.304  0.7874  0.5332  0.0625
   87MOL0     H11958   5.327   4.903   8.235  0.5611 -4.3593  0.9255
   87MOL0     H11959   5.206   5.017   8.271  1.6791 -0.8051 -1.0256
   87MOL0     H11960   5.160   4.908   8.498  0.2534 -3.9463  2.7519
   87MOL0     H11961   5.273   4.782   8.457  5.2446  1.9095  2.9838
   87MOL0     H11962   5.391   4.927   8.592  1.8405  2.2801  0.4383
   87MOL0     H11963   5.456   4.907   8.427 -0.8411 -0.9144 -0.7001
   87MOL0     H11964   5.633   5.024   8.577 -1.1381  0.1815  1.9125
   87MOL0     H11965   5.802   5.072   8.713  0.0323  0.1923 -1.4327
   87MOL0     H11966   5.841   5.227   8.777 -4.6771  1.0033  0.8545
   87MOL0     H11967   5.906   5.175   8.611  0.8026 -1.6871  0.7586
   87MOL0     H11968   5.731   5.787   8.569  0.2123 -3.2561  0.3449
   87MOL0     H11969   5.872   5.976   8.617 -0.5079  2.3563  1.5824
   87MOL0     H11970   6.101   6.078   8.694  0.6744  0.4370 -0.1013
   87MOL0     H11971   5.944   6.152   8.740 -1.2797 -1.5025  0.3153
   87MOL0     H11972   6.079   6.254   8.934 -0.1910  0.0069 -1.0909
   87MOL0     H11973   6.224   6.175   8.894  2.6959  0.6264 -3.7684
   87MOL0     H11974   6.090   6.366   8.686 -1.3525  1.6549  2.7019
   87MOL0     H11975   6.252   6.285   8.687  0.8181 -1.9369  0.8871
   87MOL0     H11976   6.299   6.411   8.900 -0.5223 -0.5358 -0.2490
   87MOL0     H11977   6.139   6.470   8.899  0.0526 -0.0400 -0.1696
   87MOL0     H11978   6.365   6.536   8.726  0.2698  0.3229 -0.2099
   87MOL0     H11979   6.200   6.578   8.661  0.9429  3.5987 -0.0012
   87MOL0     H11980   6.291   6.671   8.928  4.4317  1.1820 -1.8249
   87MOL0     H11981   6.143   6.716   8.833 -1.0178 -2.7413 -0.2295
   87MOL0     H11982   6.315   6.784   8.660 -0.0764 -0.4689  0.0258
   87MOL0     H11983   6.438   6.779   8.789  0.2398  3.2392 -2.9791
   87MOL0     H11984   6.208   6.939   8.850 -0.3658 -3.7033  2.9020
   87MOL0     H11985   6.378   6.985   8.780  1.2212 -0.7653  1.0964
   87MOL0     H11986   5.930   5.817   9.018 -1.9837 -2.5743  1.1188
   87MOL0     H11987   5.800   5.620   8.949 -1.8318  0.8771 -0.8864
   87MOL0     H11988   5.495   5.488   8.589 -0.9474 -1.0077  0.1544
   87MOL0     H11989   5.347   5.332   8.504 -0.6531 -3.2528 -1.6746
   87MOL0     H11990   4.212   5.234   7.384 -2.7560 -0.5178 -0.4593
   87MOL0     H11991   4.052   5.399   7.283 -0.0150  0.2720 -1.2817
   87MOL0     H11992   4.021   5.833   7.179  0.0988  0.7920 -3.9111
   87MOL0     H11993   3.839   5.979   7.221  0.6395 -0.1421  0.3934
   87MOL0     H11994   3.675   6.090   7.198 -0.9503 -0.4881 -0.2194
   87MOL0     H11995   3.507   6.106   7.222 -2.0209 -1.8312 -0.4675
   87MOL0     H11996   3.615   6.091   7.436 -3.9916  2.8564 -3.1527
   87MOL0     H11997   3.686   5.926   7.386 -1.6416 -0.2386  0.7384
   87MOL0     H11998   3.393   5.988   7.401  1.0663  0.9546 -2.1778
   87MOL0     H11999   3.480   5.829   7.402  2.1517  1.0260 -0.7981
   87MOL0     H12000   3.560   5.879   7.632  2.1702  1.5691 -2.2571
   87MOL0     H12001   3.383   5.858   7.622 -0.8073  0.1315 -1.6980
   87MOL0     H12002   3.444   6.267   7.721  3.4924 -0.3302  1.6197
   87MOL0     H12003   3.571   5.704   7.049 -0.2650  1.0175 -1.6248
   87MOL0     H12004   3.684   5.427   7.093 -2.7487  1.1375 -0.2469
   87MOL0     H12005   3.642   5.488   6.948 -0.6087  1.6061  1.6160
   87MOL0     H12006   3.815   5.452   6.966 -0.2021  0.4964  0.4458
   88MOL0     O12007   0.517   3.092   9.819  0.0979 -0.4570 -0.1889
   88MOL0     C12008   0.465   3.033   9.912  0.2066 -1.1431 -0.3527
   88MOL0     O12009   0.403   2.915   9.901  0.4011 -0.3587 -0.0047
   88MOL0     C12010   0.406   2.855   9.773  0.1862 -0.6065 -0.5069
   88MOL0     C12011   0.313   2.885   9.673 -0.8957  0.2795  0.5518
   88MOL0     C12012   0.302   2.819   9.555 -0.5979  0.8588  0.6491
   88MOL0     C12013   0.401   2.724   9.519  0.2679 -0.2318  0.3564
   88MOL0     O12014   0.395   2.654   9.399  0.0188 -0.1156  0.4002
   88MOL0     C12015   0.455   2.527   9.381  0.8764  0.7485  0.8838
   88MOL0     C12016   0.393   2.472   9.257  0.4362 -0.2255 -0.0432
   88MOL0     C12017   0.495   2.365   9.212  0.4627 -0.4000 -0.2544
   88MOL0     C12018   0.440   2.276   9.101 -0.0509  0.9018 -0.2021
   88MOL0     C12019   0.413   2.373   8.986 -0.1583 -0.6281  0.2090
   88MOL0     C12020   0.382   2.311   8.847 -1.1472 -0.5331 -0.3533
   88MOL0     C12021   0.308   2.416   8.766 -0.1948 -0.3765  0.7383
   88MOL0     C12022   0.379   2.438   8.633  0.1058  0.5587  0.3448
   88MOL0     N12023   0.478   2.546   8.633 -1.1353 -0.4629 -0.1408
   88MOL0     C12024   0.602   2.535   8.687  0.3745 -0.1561 -0.5721
   88MOL0     C12025   0.657   2.663   8.670  0.7705 -0.2516 -0.5524
   88MOL0     C12026   0.789   2.717   8.710 -0.1430 -0.5839 -0.2769
   88MOL0     C12027   0.827   2.665   8.849  0.1304 -0.4935 -0.4312
   88MOL0     C12028   0.973   2.707   8.883 -0.7945  0.9971 -0.0052
   88MOL0     C12029   1.014   2.691   9.034  0.3765  0.2855 -0.2783
   88MOL0     O12030   0.973   2.564   9.082  0.2710  0.6845  0.5171
   88MOL0     C12031   1.003   2.547   9.212 -0.8830  1.0362  0.7389
   88MOL0     C12032   1.138   2.567   9.254 -0.1868  0.5843  0.4385
   88MOL0     C12033   1.176   2.551   9.387 -0.0201  0.2034  1.1121
   88MOL0     C12034   1.321   2.592   9.430 -0.5553  0.2524  0.0248
   88MOL0     C12035   1.081   2.511   9.476 -0.1623 -0.4560 -0.1588
   88MOL0     C12036   1.099   2.500   9.618 -0.1506 -0.6310 -0.7016
   88MOL0     O12037   1.180   2.398   9.663  0.0728 -0.0955 -0.7252
   88MOL0     C12038   1.184   2.375   9.797  0.9703  0.1437  0.5191
   88MOL0     C12039   1.307   2.388   9.858 -0.0290 -1.0287 -0.1734
   88MOL0     C12040   1.319   2.375   9.994 -0.5798 -0.4063  0.3243
   88MOL0     C12041   1.208   2.341  10.070 -0.2659  0.5578 -0.1668
   88MOL0     O12042   1.223   2.323  10.205 -0.1546 -0.5305  0.4815
   88MOL0     C12043   1.349   2.265  10.253  0.1778  0.3105 -0.3471
   88MOL0     C12044   1.347   2.215  10.398 -0.5547 -0.5940 -0.3217
   88MOL0     C12045   1.276   2.082  10.421  0.3817 -0.1721  0.3148
   88MOL0     C12046   1.259   2.051  10.571  0.0758  0.6449  0.6153
   88MOL0     C12047   1.232   1.901  10.601 -0.9343  1.5307  0.1411
   88MOL0     C12048   1.137   1.826  10.501 -0.3057 -0.4596 -0.3054
   88MOL0     C12049   1.025   1.747  10.556 -0.0175 -0.8273  0.0344
   88MOL0     C12050   0.954   1.672  10.440  0.4400 -0.5947 -0.5656
   88MOL0    Cl12051   1.052   1.540  10.391  0.2841  0.2146  0.2092
   88MOL0     C12052   1.088   2.317  10.004  0.6575 -0.5343 -0.5628
   88MOL0     C12053   1.075   2.333   9.863 -0.8262  0.6288  0.6382
   88MOL0     O12054   1.033   2.575   9.690  0.0339 -0.4459  0.1140
   88MOL0     C12055   0.955   2.474   9.430 -0.0639  0.8629  0.0794
   88MOL0     C12056   0.916   2.506   9.306 -0.0882 -1.0364  0.6592
   88MOL0     N12057   0.568   2.729   8.586 -0.0883 -0.7176  0.2936
   88MOL0     N12058   0.456   2.667   8.582  0.7771  0.8179 -0.1407
   88MOL0     C12059   0.510   2.707   9.609  0.0593 -0.2111 -0.1353
   88MOL0     C12060   0.505   2.762   9.735 -0.5597  0.3631 -0.3025
   88MOL0     C12061   0.464   3.098  10.042 -0.3324 -0.1922 -0.3312
   88MOL0     C12062   0.591   3.107  10.114  0.7121  0.4263 -0.1982
   88MOL0     C12063   0.592   3.165  10.241  0.0818  1.2724 -0.6161
   88MOL0     C12064   0.471   3.190  10.311 -1.0925 -0.5238  0.2459
   88MOL0     O12065   0.469   3.238  10.436 -0.4048  0.2358  0.1386
   88MOL0     C12066   0.586   3.219  10.520  0.0387  0.3468  1.2301
   88MOL0     C12067   0.549   3.265  10.660  0.2551  0.3469 -0.8289
   88MOL0     C12068   0.475   3.149  10.730 -0.3096  0.7302 -0.3948
   88MOL0     C12069   0.404   3.188  10.857 -0.5589 -0.6451 -0.2958
   88MOL0     C12070   0.495   3.243  10.955  1.2968 -0.0348  0.4302
   88MOL0     C12071   0.574   3.294  11.025 -0.2895  0.7622  0.2415
   88MOL0     C12072   0.348   3.184  10.246  0.1314 -0.1696  0.0215
   88MOL0     C12073   0.344   3.137  10.110 -0.2427 -0.3976 -0.5276
   88MOL0     C12074   0.201   3.139  10.059  0.7739  0.1333 -0.1916
   88MOL0     H12075   0.249   2.971   9.691  0.0616  1.3395 -0.9282
   88MOL0     H12076   0.223   2.824   9.481 -1.6458 -0.9053  1.5752
   88MOL0     H12077   0.424   2.465   9.465  1.9256 -0.9204  0.0819
   88MOL0     H12078   0.564   2.534   9.385  0.8751  0.8206  0.8097
   88MOL0     H12079   0.295   2.431   9.280  0.7840 -0.6075  0.8113
   88MOL0     H12080   0.391   2.554   9.185 -0.4838  0.7275  1.0459
   88MOL0     H12081   0.594   2.399   9.182  2.0690 -3.5983  0.9882
   88MOL0     H12082   0.517   2.309   9.303  0.0989  0.3099  0.2831
   88MOL0     H12083   0.504   2.199   9.057  0.2429  3.4069 -4.7721
   88MOL0     H12084   0.347   2.224   9.125 -0.5663  1.8447 -0.1208
   88MOL0     H12085   0.488   2.452   8.972  0.4798 -1.0694  1.0704
   88MOL0     H12086   0.315   2.416   9.007 -0.2939 -0.7970 -0.0645
   88MOL0     H12087   0.472   2.266   8.804 -1.9436 -1.7442 -0.7965
   88MOL0     H12088   0.309   2.231   8.864  0.9321 -2.0630  2.1347
   88MOL0     H12089   0.308   2.515   8.813  0.4307  0.1216 -0.2866
   88MOL0     H12090   0.204   2.386   8.753  0.4804 -1.9030 -1.7625
   88MOL0     H12091   0.424   2.349   8.588  0.0269 -0.6860  2.5907
   88MOL0     H12092   0.301   2.459   8.559 -0.8453 -0.9110  0.8765
   88MOL0     H12093   0.644   2.459   8.752 -0.4984  2.2508  3.1632
   88MOL0     H12094   0.793   2.825   8.724 -0.7796 -0.5468 -0.3298
   88MOL0     H12095   0.856   2.695   8.626 -0.4129  1.0197 -0.9466
   88MOL0     H12096   0.755   2.694   8.926  0.2626  0.8801 -0.7971
   88MOL0     H12097   0.815   2.557   8.839 -0.7187 -0.2529 -2.4807
   88MOL0     H12098   1.027   2.643   8.813 -0.3042 -0.9582  2.0425
   88MOL0     H12099   0.994   2.810   8.850 -1.3404  0.4995 -2.0333
   88MOL0     H12100   1.123   2.695   9.029  0.3418  0.3548 -1.2360
   88MOL0     H12101   0.973   2.765   9.104  1.9870  1.4333 -0.4958
   88MOL0     H12102   1.212   2.595   9.179  0.0916  0.0947  0.5284
   88MOL0     H12103   1.362   2.670   9.365  0.1790 -1.1945 -1.2986
   88MOL0     H12104   1.371   2.495   9.420  0.2534  0.1863  3.5897
   88MOL0     H12105   1.332   2.640   9.528 -1.5813  0.0290  0.2607
   88MOL0     H12106   1.392   2.402   9.792 -0.5283 -0.8520 -0.7812
   88MOL0     H12107   1.415   2.390  10.042  0.0836 -2.4210 -0.2487
   88MOL0     H12108   1.381   2.175  10.200  0.7159 -1.6475  2.9888
   88MOL0     H12109   1.430   2.338  10.245 -0.9481  2.2217  3.3583
   88MOL0     H12110   1.452   2.207  10.428 -0.6671  0.4961  0.4588
   88MOL0     H12111   1.306   2.290  10.467  0.7984  1.6399 -1.7913
   88MOL0     H12112   1.343   2.010  10.373  2.4263  1.6427  0.2829
   88MOL0     H12113   1.178   2.084  10.373  0.5141 -0.4915  0.0252
   88MOL0     H12114   1.167   2.103  10.597  1.5794  2.7041  2.1753
   88MOL0     H12115   1.346   2.081  10.630 -0.1018 -1.9253  2.3180
   88MOL0     H12116   1.331   1.855  10.606  0.9749  4.7946 -2.8798
   88MOL0     H12117   1.185   1.896  10.699 -0.4619  0.3951  0.3220
   88MOL0     H12118   1.200   1.767  10.434 -0.4797  0.5880 -1.4309
   88MOL0     H12119   1.089   1.898  10.434 -1.3974  0.6003  1.5654
   88MOL0     H12120   0.960   1.820  10.606  0.9548  0.1181 -0.0641
   88MOL0     H12121   1.068   1.676  10.628  0.4818  0.3830  0.9640
   88MOL0     H12122   0.949   1.727  10.346  2.6984  1.5860  0.4625
   88MOL0     H12123   0.856   1.638  10.473 -0.8817  1.1458 -2.4503
   88MOL0     H12124   1.012   2.276  10.069  1.7744 -0.0920  1.1018
   88MOL0     H12125   0.982   2.312   9.811 -0.6478  1.5545 -0.0611
   88MOL0     H12126   0.888   2.419   9.496  1.0924 -3.0894 -1.7135
   88MOL0     H12127   0.814   2.487   9.274 -0.0457 -2.0914  1.0947
   88MOL0     H12128   0.589   2.639   9.577  0.7258  0.8849 -0.8523
   88MOL0     H12129   0.585   2.729   9.801 -1.4397  1.4497  1.3663
   88MOL0     H12130   0.690   3.075  10.082 -0.4712 -2.0990 -1.6190
   88MOL0     H12131   0.690   3.164  10.289  0.0240 -0.1881 -0.4805
   88MOL0     H12132   0.617   3.114  10.514  2.5603  1.0792 -1.0289
   88MOL0     H12133   0.664   3.284  10.477 -0.7093  1.6034  1.7421
   88MOL0     H12134   0.489   3.356  10.647  1.8910  1.6281  0.1657
   88MOL0     H12135   0.637   3.291  10.720  1.2407 -0.8783 -1.7113
   88MOL0     H12136   0.396   3.123  10.660 -0.7137  0.3963  0.1851
   88MOL0     H12137   0.547   3.067  10.740  1.1310  2.0732  0.9130
   88MOL0     H12138   0.358   3.095  10.890  1.8514 -1.3451  1.4341
   88MOL0     H12139   0.318   3.254  10.839 -1.3919 -1.4937  0.4763
   88MOL0     H12140   0.661   3.313  11.085  0.9177 -0.5048 -1.0004
   88MOL0     H12141   0.258   3.222  10.295 -0.7991  1.0851 -2.4776
   88MOL0     H12142   0.162   3.037  10.051  1.7004 -0.1639 -1.0727
   88MOL0     H12143   0.139   3.189  10.135  1.4623  0.1858  0.3497
   88MOL0     H12144   0.198   3.196   9.966  0.4440  1.5366  0.6429
   89MOL0     O12145   8.151   0.835   7.633 -0.3482  0.0182 -0.8573
   89MOL0     C12146   8.062   0.747   7.632 -0.4167 -0.4919  0.2716
   89MOL0     O12147   8.056   0.652   7.734  0.3602 -0.0219 -0.6761
   89MOL0     C12148   8.165   0.645   7.821 -0.1984 -0.5089 -1.4792
   89MOL0     C12149   8.212   0.752   7.896  0.4387  0.4333  0.1749
   89MOL0     C12150   8.328   0.745   7.969 -0.5661 -0.9806 -0.5198
   89MOL0     C12151   8.407   0.625   7.964 -0.1318 -0.2299  0.1156
   89MOL0     O12152   8.527   0.624   8.032 -0.4444  0.1845  0.7376
   89MOL0     C12153   8.607   0.497   8.033  0.3628 -0.4404  0.4098
   89MOL0     C12154   8.743   0.539   8.088  0.2892  0.8743 -0.3998
   89MOL0     C12155   8.729   0.542   8.244 -0.0889 -1.0870  1.0567
   89MOL0     C12156   8.857   0.601   8.304  0.4104  0.6645  0.1178
   89MOL0     C12157   8.818   0.661   8.438  0.6817 -0.3662  0.0379
   89MOL0     C12158   8.939   0.743   8.505 -0.3455  0.3662 -0.6254
   89MOL0     C12159   8.890   0.825   8.623  1.0510 -0.5055 -1.1491
   89MOL0     C12160   9.004   0.925   8.683 -0.0609 -0.7209  0.0721
   89MOL0     N12161   8.990   1.059   8.619  0.6760  0.5100  0.2571
   89MOL0     C12162   8.918   1.162   8.669  0.0171  0.1197  0.8832
   89MOL0     C12163   8.948   1.269   8.597  0.1855 -0.0329 -0.6523
   89MOL0     C12164   8.911   1.406   8.632  0.6875 -0.4181  0.0624
   89MOL0     C12165   8.757   1.403   8.592  0.4781 -0.7699  0.3556
   89MOL0     C12166   8.702   1.538   8.636  0.5938 -0.0076  0.3874
   89MOL0     C12167   8.550   1.561   8.614 -0.0374  0.9779  0.4864
   89MOL0     O12168   8.491   1.591   8.738 -0.2864  0.2185  0.2774
   89MOL0     C12169   8.366   1.647   8.734 -0.6081 -0.6379  0.1960
   89MOL0     C12170   8.314   1.662   8.865 -0.6391  0.3092  0.0565
   89MOL0     C12171   8.193   1.717   8.892 -0.4864  0.4529  0.5528
   89MOL0     C12172   8.139   1.713   9.028  0.2275 -0.1940 -0.7843
   89MOL0     C12173   8.119   1.770   8.778  0.4129  0.7468 -0.2671
   89MOL0     C12174   7.983   1.841   8.786 -0.4650  0.9561  1.1467
   89MOL0     O12175   7.920   1.867   8.660 -0.6559  0.1943  0.4504
   89MOL0     C12176   7.819   1.964   8.670  0.1242  0.0555 -0.4128
   89MOL0     C12177   7.683   1.929   8.642 -0.2965 -0.1279  0.0065
   89MOL0     C12178   7.574   2.018   8.652  0.3564  0.2704  0.6597
   89MOL0     C12179   7.601   2.150   8.674 -0.4959 -0.6360 -0.3488
   89MOL0     O12180   7.490   2.233   8.664  0.3102  0.2381  0.3726
   89MOL0     C12181   7.500   2.341   8.754  0.1931 -1.0534 -0.2011
   89MOL0     C12182   7.367   2.396   8.795 -0.1005 -0.0909  0.3785
   89MOL0     C12183   7.292   2.472   8.680 -0.2501 -0.6121 -0.3782
   89MOL0     C12184   7.365   2.579   8.612  0.1096  0.2118  0.5066
   89MOL0     C12185   7.272   2.651   8.516  1.0700 -0.3246  0.0636
   89MOL0     C12186   7.191   2.754   8.594  0.1603 -0.3556 -0.0596
   89MOL0     C12187   7.104   2.824   8.486 -0.3077 -0.1950  0.3393
   89MOL0     C12188   7.061   2.959   8.547 -0.3103 -0.1062  0.6977
   89MOL0    Cl12189   6.971   2.932   8.699  0.0197  0.2419 -0.2514
   89MOL0     C12190   7.737   2.189   8.696 -0.2771  0.7374 -0.2385
   89MOL0     C12191   7.847   2.096   8.703  0.3483 -0.2172  0.2322
   89MOL0     O12192   7.933   1.863   8.893  0.9581  0.1243 -0.2202
   89MOL0     C12193   8.183   1.759   8.647 -0.0432 -0.4244 -0.2307
   89MOL0     C12194   8.293   1.689   8.622  0.1257  0.4315  0.2305
   89MOL0     N12195   9.030   1.228   8.499  0.2757  0.9749  0.5175
   89MOL0     N12196   9.050   1.103   8.504 -0.7982 -0.0986 -0.5784
   89MOL0     C12197   8.360   0.520   7.877  0.5205  0.1501 -0.6328
   89MOL0     C12198   8.236   0.536   7.817 -0.9860  1.1134 -0.2662
   89MOL0     C12199   7.958   0.736   7.526  0.3084 -0.1492  0.2669
   89MOL0     C12200   7.925   0.612   7.474  0.6360  0.6682 -0.4254
   89MOL0     C12201   7.831   0.593   7.378  0.0079  0.1258  0.0798
   89MOL0     C12202   7.772   0.700   7.317  0.0095 -0.4752  0.4750
   89MOL0     O12203   7.683   0.693   7.214  0.5893  0.7323  0.2567
   89MOL0     C12204   7.546   0.696   7.254  0.0811 -0.8905 -0.1796
   89MOL0     C12205   7.487   0.833   7.235  0.3237 -0.1797 -0.4219
   89MOL0     C12206   7.427   0.838   7.092 -0.4049  1.0160 -0.8709
   89MOL0     C12207   7.363   0.974   7.066 -0.5392 -0.6537  0.4839
   89MOL0     C12208   7.321   0.978   6.929 -0.2633  0.4238  0.7603
   89MOL0     C12209   7.297   0.984   6.806  0.1507  0.8265 -0.6674
   89MOL0     C12210   7.807   0.831   7.363  0.7485 -0.8122 -0.2672
   89MOL0     C12211   7.895   0.849   7.472  0.4034 -0.0820 -0.1328
   89MOL0     C12212   7.919   0.986   7.527 -0.4369  0.7574  0.4701
   89MOL0     H12213   8.150   0.841   7.885  1.1709  0.7763 -1.5087
   89MOL0     H12214   8.361   0.832   8.025 -0.2824 -2.4181  1.6523
   89MOL0     H12215   8.626   0.457   7.933  2.7844  1.1327  0.1793
   89MOL0     H12216   8.567   0.417   8.096  0.8306  0.1245  1.4445
   89MOL0     H12217   8.822   0.472   8.054  2.5364  4.5116 -3.0269
   89MOL0     H12218   8.775   0.637   8.051  1.9350  0.4298 -0.2585
   89MOL0     H12219   8.636   0.595   8.267  2.9931  4.5371  2.4526
   89MOL0     H12220   8.710   0.440   8.277  0.5910 -2.0097 -1.2166
   89MOL0     H12221   8.943   0.533   8.296  0.5576  0.7594  0.8460
   89MOL0     H12222   8.906   0.682   8.249 -0.7524  0.7765 -0.7995
   89MOL0     H12223   8.792   0.578   8.505 -0.8511  1.0341  1.2824
   89MOL0     H12224   8.729   0.724   8.436  0.4451 -0.6193  1.3309
   89MOL0     H12225   9.021   0.675   8.531 -1.3439 -1.6200 -2.2888
   89MOL0     H12226   8.977   0.820   8.437 -0.5950 -0.7864 -2.1459
   89MOL0     H12227   8.868   0.761   8.709 -0.0683  1.7604  0.3557
   89MOL0     H12228   8.795   0.875   8.601 -0.2704 -1.9896  0.8146
   89MOL0     H12229   8.982   0.936   8.789 -1.5149 -1.7074 -0.0852
   89MOL0     H12230   9.104   0.882   8.675 -0.0191 -0.3049 -3.5473
   89MOL0     H12231   8.850   1.161   8.753  2.0043  0.0819  2.5681
   89MOL0     H12232   8.968   1.476   8.570 -0.5131  1.4528  0.9839
   89MOL0     H12233   8.928   1.429   8.737 -2.2228 -0.3595  0.6018
   89MOL0     H12234   8.747   1.376   8.487 -2.2742 -1.4674  0.7252
   89MOL0     H12235   8.702   1.336   8.659 -1.4685  2.0705  1.8229
   89MOL0     H12236   8.720   1.549   8.743  2.2680  1.9053 -0.0181
   89MOL0     H12237   8.766   1.616   8.593  3.2779 -2.1704  0.1653
   89MOL0     H12238   8.532   1.646   8.547 -1.0630 -0.4588 -1.1778
   89MOL0     H12239   8.492   1.475   8.577  0.4381 -0.2751  2.4914
   89MOL0     H12240   8.367   1.620   8.949  1.0171 -0.1626 -1.1855
   89MOL0     H12241   8.208   1.665   9.099 -1.5244  0.5234  1.5189
   89MOL0     H12242   8.044   1.660   9.035 -0.2006  0.6013 -0.5050
   89MOL0     H12243   8.122   1.810   9.075  2.3815  0.2347 -0.7736
   89MOL0     H12244   7.675   1.824   8.618  2.0866 -0.2708 -0.4826
   89MOL0     H12245   7.473   1.978   8.646  0.7070 -1.2720  3.4447
   89MOL0     H12246   7.542   2.298   8.846  1.6857  0.9567  0.1204
   89MOL0     H12247   7.570   2.419   8.723 -1.5205  1.1050  1.1297
   89MOL0     H12248   7.305   2.319   8.842 -1.6081  1.5423  1.1738
   89MOL0     H12249   7.385   2.469   8.875  0.0775 -2.2641  2.4507
   89MOL0     H12250   7.196   2.496   8.727 -0.2574 -1.7775  0.2166
   89MOL0     H12251   7.275   2.387   8.613  0.8097  1.5504 -3.6595
   89MOL0     H12252   7.450   2.542   8.554 -0.6284  0.0131 -0.4746
   89MOL0     H12253   7.412   2.648   8.683 -1.0706  0.6121  0.9241
   89MOL0     H12254   7.335   2.701   8.442  0.7751 -1.6616 -1.1439
   89MOL0     H12255   7.213   2.582   8.456  3.3401 -2.1629 -0.1964
   89MOL0     H12256   7.244   2.829   8.653 -2.1759  1.5669 -0.2272
   89MOL0     H12257   7.131   2.698   8.666  1.1263  0.4766  1.4237
   89MOL0     H12258   7.025   2.756   8.456 -1.3335  1.8100 -1.8424
   89MOL0     H12259   7.158   2.839   8.392 -3.1545 -0.6951 -1.4756
   89MOL0     H12260   6.985   3.007   8.485 -1.0239 -0.2723  1.4336
   89MOL0     H12261   7.145   3.030   8.546 -0.8841  0.6368 -1.6767
   89MOL0     H12262   7.763   2.295   8.688 -2.2009  1.1130 -2.7484
   89MOL0     H12263   7.948   2.135   8.706  0.9336 -1.7273  0.6854
   89MOL0     H12264   8.130   1.808   8.566 -0.3269 -1.4949 -0.7232
   89MOL0     H12265   8.333   1.690   8.521  2.0423 -0.9734  0.8986
   89MOL0     H12266   8.403   0.423   7.856 -0.7265 -0.4996 -0.2656
   89MOL0     H12267   8.214   0.453   7.750  1.8172 -0.9279  1.1731
   89MOL0     H12268   7.968   0.528   7.527  2.5406  2.2344  0.6633
   89MOL0     H12269   7.807   0.490   7.354  2.1825 -0.3288 -0.3931
   89MOL0     H12270   7.490   0.625   7.192  0.1839  0.0179 -1.3497
   89MOL0     H12271   7.534   0.664   7.358 -1.3936 -0.5144 -0.2087
   89MOL0     H12272   7.558   0.917   7.237 -3.5381  3.5093 -2.1747
   89MOL0     H12273   7.408   0.851   7.308 -4.7976 -5.1319 -3.8812
   89MOL0     H12274   7.503   0.817   7.016  0.2871 -1.7577  0.4629
   89MOL0     H12275   7.340   0.772   7.081  0.1874  0.2118 -0.7970
   89MOL0     H12276   7.434   1.053   7.090  0.4420 -0.8305 -1.6523
   89MOL0     H12277   7.274   0.986   7.129 -0.7230  1.8943 -0.1898
   89MOL0     H12278   7.277   0.985   6.701 -1.2743 -0.8169 -0.4570
   89MOL0     H12279   7.763   0.916   7.311  2.2756  0.7447  0.8442
   89MOL0     H12280   7.843   1.060   7.501 -1.0043 -0.8018 -2.7524
   89MOL0     H12281   7.897   0.993   7.634 -1.5401  1.2401  0.2225
   89MOL0     H12282   8.019   1.018   7.497  0.8380 -3.0939  0.0426
   90MOL0     O12283   7.945   2.025   5.657  0.5917 -0.4912 -0.1530
   90MOL0     C12284   7.927   2.144   5.683  0.2645  0.5841 -0.4178
   90MOL0     O12285   7.990   2.245   5.625  0.2458 -0.8487 -0.0614
   90MOL0     C12286   8.072   2.234   5.521 -1.3202 -0.3705  0.1619
   90MOL0     C12287   8.208   2.195   5.530 -0.0120  0.3486 -1.4693
   90MOL0     C12288   8.275   2.164   5.425  0.1541  0.5379 -0.1776
   90MOL0     C12289   8.222   2.174   5.299 -1.1536 -0.7479 -1.0455
   90MOL0     O12290   8.302   2.149   5.186 -0.1464  0.7425 -0.0008
   90MOL0     C12291   8.432   2.211   5.194  0.3396 -0.7308 -0.5482
   90MOL0     C12292   8.486   2.244   5.053 -0.0673 -0.6847  0.7918
   90MOL0     C12293   8.535   2.125   4.977  0.0734  0.5980 -0.4948
   90MOL0     C12294   8.657   2.053   5.037 -0.4628  0.2974  0.9993
   90MOL0     C12295   8.696   1.929   4.948 -0.0796 -0.5792 -0.0239
   90MOL0     C12296   8.714   1.969   4.798 -0.0169 -0.1610  0.5254
   90MOL0     C12297   8.791   1.867   4.728  0.0911  0.5270  0.9365
   90MOL0     C12298   8.798   1.914   4.581  0.3790  0.0933 -0.2949
   90MOL0     N12299   8.829   1.800   4.492  0.4187  0.6139  0.3023
   90MOL0     C12300   8.935   1.713   4.504  0.1238  0.2353  0.7243
   90MOL0     C12301   8.921   1.635   4.390 -1.2821 -0.1105  0.1885
   90MOL0     C12302   9.013   1.512   4.355  0.3166 -0.2062 -0.3881
   90MOL0     C12303   9.139   1.565   4.280  0.6385 -0.1412  0.1869
   90MOL0     C12304   9.233   1.448   4.265 -0.4476  0.0458 -0.5662
   90MOL0     C12305   9.367   1.475   4.181 -0.2589  0.0818  1.0529
   90MOL0     O12306   9.447   1.556   4.265 -0.5144  0.3644 -0.5252
   90MOL0     C12307   9.569   1.595   4.209 -0.2021  0.2970  0.3146
   90MOL0     C12308   9.670   1.610   4.303 -0.5448  0.5737  0.5356
   90MOL0     C12309   9.806   1.639   4.264  0.0341 -0.3011 -0.3217
   90MOL0     C12310   9.915   1.624   4.372  0.0239  0.0023 -1.0614
   90MOL0     C12311   9.835   1.664   4.132 -0.6074 -0.0734 -0.3549
   90MOL0     C12312   9.973   1.722   4.099  0.0176 -0.3240 -0.6889
   90MOL0     O12313  10.032   1.668   3.992  0.3971  0.3817  0.2859
   90MOL0     C12314  10.149   1.714   3.952 -0.2965  0.3736  0.0448
   90MOL0     C12315  10.267   1.656   4.013  0.0203 -0.8535 -0.4801
   90MOL0     C12316  10.392   1.692   3.968  0.0635 -0.4319  0.4858
   90MOL0     C12317  10.401   1.787   3.869 -0.3771 -1.0957  0.7567
   90MOL0     O12318  10.522   1.860   3.844  0.1131  0.3012  0.2865
   90MOL0     C12319  10.601   1.888   3.964 -0.2191 -0.0208  0.0430
   90MOL0     C12320  10.705   1.997   3.946  0.2739  1.1666  0.4363
   90MOL0     C12321  10.804   1.995   4.060 -0.6523  0.3395  0.8664
   90MOL0     C12322  10.951   1.955   4.012  0.5975 -0.4413  0.3177
   90MOL0     C12323  11.042   2.035   4.097  0.3576 -0.7854 -0.6788
   90MOL0     C12324  11.188   1.967   4.100  0.1277  0.9967 -0.6039
   90MOL0     C12325  11.280   2.025   4.213  0.0603 -0.1953  0.5261
   90MOL0     C12326  11.323   2.171   4.164  0.8653 -0.3252  1.5590
   90MOL0    Cl12327  11.407   2.253   4.304  0.1658  0.3641  0.1194
   90MOL0     C12328  10.287   1.845   3.806 -1.0192 -0.2508  0.6619
   90MOL0     C12329  10.159   1.807   3.849 -0.9228 -0.6975  0.7840
   90MOL0     O12330  10.016   1.820   4.160 -0.0069 -0.6974  0.4915
   90MOL0     C12331   9.736   1.648   4.037 -0.3728 -0.0607 -0.1184
   90MOL0     C12332   9.608   1.611   4.080  0.1351  0.7630  0.4055
   90MOL0     N12333   8.806   1.675   4.319  0.3438  0.3435  0.7293
   90MOL0     N12334   8.749   1.767   4.385 -0.4652  0.5329  0.1275
   90MOL0     C12335   8.087   2.210   5.277 -0.4194 -0.0471 -0.2860
   90MOL0     C12336   8.008   2.239   5.393  0.1677 -0.8600 -0.4119
   90MOL0     C12337   7.849   2.185   5.800  0.9035 -0.0109  0.0595
   90MOL0     C12338   7.718   2.245   5.778  0.0481  0.5958  0.7603
   90MOL0     C12339   7.643   2.289   5.884  0.2581 -0.4677  0.1593
   90MOL0     C12340   7.688   2.275   6.021  0.0778  0.6490  0.0961
   90MOL0     O12341   7.618   2.311   6.133 -0.4795 -0.1954 -0.1998
   90MOL0     C12342   7.478   2.297   6.126  0.8062 -0.0816 -0.2674
   90MOL0     C12343   7.449   2.152   6.129  0.2114 -0.3617 -0.2508
   90MOL0     C12344   7.303   2.129   6.088 -0.1621  0.0832 -0.2153
   90MOL0     C12345   7.195   2.195   6.169 -0.0539  0.2082  0.1379
   90MOL0     C12346   7.203   2.141   6.308 -0.1519 -0.2968 -0.5196
   90MOL0     C12347   7.200   2.099   6.424 -0.7817 -0.2477  0.7795
   90MOL0     C12348   7.808   2.215   6.041 -0.0539 -0.7641  0.3737
   90MOL0     C12349   7.891   2.163   5.933 -0.2073 -0.2404 -0.2620
   90MOL0     C12350   8.026   2.106   5.955  0.2638  0.6311 -0.4367
   90MOL0     H12351   8.238   2.174   5.633  0.0972  3.2664 -0.7994
   90MOL0     H12352   8.375   2.123   5.439 -0.8195 -1.3469  1.8369
   90MOL0     H12353   8.513   2.153   5.239  0.0206 -0.7557 -0.0099
   90MOL0     H12354   8.416   2.300   5.256 -3.0856 -1.0937 -0.7051
   90MOL0     H12355   8.395   2.283   5.005 -3.0756 -3.7411  3.5329
   90MOL0     H12356   8.574   2.308   5.046  2.1346 -3.6948 -1.8905
   90MOL0     H12357   8.446   2.062   4.978  0.8495 -0.5304  1.0601
   90MOL0     H12358   8.542   2.148   4.870  0.4776 -0.4263 -0.6948
   90MOL0     H12359   8.742   2.122   5.039 -0.4001  0.2996 -0.3143
   90MOL0     H12360   8.628   2.012   5.134 -1.0342 -4.1825 -0.7987
   90MOL0     H12361   8.620   1.852   4.960 -0.4748 -0.0732  0.7814
   90MOL0     H12362   8.789   1.878   4.977 -0.5524 -0.4615  1.8206
   90MOL0     H12363   8.623   1.972   4.738  1.1261  3.2846 -1.3395
   90MOL0     H12364   8.760   2.068   4.797 -1.5778  0.5944 -0.4768
   90MOL0     H12365   8.754   1.764   4.734  2.9478 -0.8144 -1.6536
   90MOL0     H12366   8.890   1.855   4.774 -0.2071 -0.2506  1.3907
   90MOL0     H12367   8.700   1.957   4.556 -0.4939 -1.5063  0.1919
   90MOL0     H12368   8.875   1.990   4.572  0.9553 -0.4881 -0.3942
   90MOL0     H12369   9.016   1.721   4.575  2.0107 -2.4406 -0.9781
   90MOL0     H12370   8.957   1.444   4.291  0.2597 -1.7189  1.1848
   90MOL0     H12371   9.050   1.457   4.442  1.3242 -3.2175 -2.5522
   90MOL0     H12372   9.119   1.601   4.179 -1.5424  1.9453  1.2476
   90MOL0     H12373   9.195   1.638   4.338  2.0306 -0.9383 -0.1243
   90MOL0     H12374   9.247   1.411   4.367  0.4648 -1.6170 -1.2469
   90MOL0     H12375   9.180   1.363   4.220 -0.0568  0.2388 -1.4090
   90MOL0     H12376   9.424   1.383   4.162  1.6923  2.0095 -4.6917
   90MOL0     H12377   9.355   1.523   4.083 -1.0609 -1.0592  0.5756
   90MOL0     H12378   9.636   1.593   4.405  0.3199 -0.5039  0.6637
   90MOL0     H12379   9.903   1.709   4.440 -2.0597  0.4231 -1.8674
   90MOL0     H12380  10.016   1.618   4.332  1.1775  0.3383  1.5623
   90MOL0     H12381   9.889   1.538   4.435  1.6539  1.3447  1.6383
   90MOL0     H12382  10.260   1.575   4.085 -0.8271  0.0971  0.5314
   90MOL0     H12383  10.488   1.650   3.997 -0.9808 -2.8819  0.6012
   90MOL0     H12384  10.554   1.923   4.057  0.1802 -0.0579  0.2614
   90MOL0     H12385  10.645   1.793   3.993 -0.5174 -0.4531 -0.8744
   90MOL0     H12386  10.747   1.981   3.846  0.3275  1.8159  0.3478
   90MOL0     H12387  10.667   2.099   3.933  0.0591  1.0137 -0.1934
   90MOL0     H12388  10.787   1.923   4.141 -3.5488 -1.2815 -0.9797
   90MOL0     H12389  10.799   2.099   4.094  0.1592  0.4619  0.6205
   90MOL0     H12390  10.973   1.987   3.909 -1.4596 -1.3891 -0.4820
   90MOL0     H12391  10.955   1.846   4.019 -2.4145 -0.5410  3.0282
   90MOL0     H12392  11.035   2.140   4.066 -2.1366 -2.1608 -5.9190
   90MOL0     H12393  10.998   2.035   4.197 -2.5978 -2.2560 -1.8372
   90MOL0     H12394  11.230   1.961   3.999 -0.2486 -4.0263 -0.6951
   90MOL0     H12395  11.176   1.862   4.128  1.7275  1.6845  3.1817
   90MOL0     H12396  11.371   1.965   4.228 -0.0155 -0.1423  1.2428
   90MOL0     H12397  11.225   2.039   4.306 -1.9988  2.9943 -1.0218
   90MOL0     H12398  11.234   2.225   4.131  1.6140  0.2847  0.4495
   90MOL0     H12399  11.401   2.164   4.087 -0.6237  0.5635 -0.1003
   90MOL0     H12400  10.310   1.923   3.734 -2.1610 -0.7172 -0.2363
   90MOL0     H12401  10.070   1.863   3.822  0.0259  0.2316 -0.4977
   90MOL0     H12402   9.771   1.649   3.935  3.5736 -1.7083  1.0172
   90MOL0     H12403   9.546   1.577   3.998  1.7045  3.4133 -2.0888
   90MOL0     H12404   8.042   2.225   5.180 -1.8294 -0.5717  0.2500
   90MOL0     H12405   7.900   2.247   5.399  0.2716 -0.1664  1.0536
   90MOL0     H12406   7.675   2.271   5.681 -0.8277 -2.0245  0.3588
   90MOL0     H12407   7.545   2.326   5.856  0.9757 -0.3567 -2.4087
   90MOL0     H12408   7.434   2.346   6.213  2.3424 -0.3590  0.7052
   90MOL0     H12409   7.434   2.349   6.040 -0.8827 -1.1627 -0.1092
   90MOL0     H12410   7.481   2.106   6.222 -2.5695 -0.9065  0.5299
   90MOL0     H12411   7.517   2.099   6.062 -3.2347 -4.1577 -1.1606
   90MOL0     H12412   7.286   2.162   5.985  0.1578 -0.8498 -0.5791
   90MOL0     H12413   7.281   2.022   6.078 -2.6952  0.3485  1.4559
   90MOL0     H12414   7.097   2.176   6.125 -1.6676  3.4676  1.9568
   90MOL0     H12415   7.196   2.305   6.172  0.7682  0.2231 -0.1768
   90MOL0     H12416   7.193   2.050   6.519 -1.4423 -1.5569  0.0812
   90MOL0     H12417   7.833   2.201   6.145  1.2936 -1.6502 -0.0520
   90MOL0     H12418   8.019   1.997   5.948  1.2513  0.4327  1.1339
   90MOL0     H12419   8.094   2.143   5.876 -1.7979  1.5311 -1.8823
   90MOL0     H12420   8.069   2.134   6.052 -1.0397  1.0606  0.0305
   91MOL0     O12421   9.340   7.605   3.729 -0.7504  0.3569  0.0299
   91MOL0     C12422   9.335   7.690   3.813 -0.6592 -0.6934 -1.1312
   91MOL0     O12423   9.337   7.829   3.794 -0.0346  0.3891 -0.1978
   91MOL0     C12424   9.339   7.880   3.664  0.5790 -0.4868  0.6050
   91MOL0     C12425   9.234   7.974   3.625  0.0800 -0.2413 -0.2065
   91MOL0     C12426   9.234   8.033   3.499 -0.1638 -0.4985  0.3107
   91MOL0     C12427   9.329   7.995   3.401  0.1549 -0.8704 -0.1461
   91MOL0     O12428   9.318   8.061   3.277  0.6815 -0.0398  0.1591
   91MOL0     C12429   9.448   8.096   3.211  0.3947 -0.3834  0.3161
   91MOL0     C12430   9.412   8.167   3.080 -0.2031 -0.4381  0.3510
   91MOL0     C12431   9.371   8.316   3.110 -0.0811 -1.6949  0.2134
   91MOL0     C12432   9.398   8.412   3.003  0.5023  0.1246 -0.1630
   91MOL0     C12433   9.541   8.443   2.970 -0.2714 -0.2140  0.4318
   91MOL0     C12434   9.545   8.573   2.887 -0.6041 -0.7594 -0.1642
   91MOL0     C12435   9.687   8.606   2.833  0.4205 -0.5930 -1.1167
   91MOL0     C12436   9.687   8.746   2.771 -0.7034 -0.1488  0.6450
   91MOL0     N12437   9.820   8.782   2.718 -0.2294 -0.5439  0.2709
   91MOL0     C12438   9.886   8.755   2.599 -0.4782  1.1844  0.4082
   91MOL0     C12439   9.989   8.848   2.584  1.2769  0.0609 -0.0958
   91MOL0     C12440  10.096   8.852   2.480  0.1069  1.0638 -0.6865
   91MOL0     C12441  10.221   8.928   2.525 -0.5260 -0.0667 -0.5559
   91MOL0     C12442  10.338   8.915   2.417  0.2831 -0.0911 -1.1843
   91MOL0     C12443  10.434   9.035   2.440  0.3908 -0.7848 -0.4137
   91MOL0     O12444  10.507   9.017   2.556  0.1813 -0.0166 -0.9035
   91MOL0     C12445  10.604   9.114   2.582  0.4561 -0.1982  0.4373
   91MOL0     C12446  10.662   9.198   2.480  0.4171 -0.2008  0.4825
   91MOL0     C12447  10.762   9.290   2.514  0.0165 -0.4215  0.0233
   91MOL0     C12448  10.826   9.372   2.411 -0.8069  0.5139 -0.6141
   91MOL0     C12449  10.787   9.315   2.654 -0.4591  0.4932  1.1401
   91MOL0     C12450  10.876   9.424   2.705 -0.2141  0.2014 -0.0808
   91MOL0     O12451  10.909   9.423   2.834 -0.5164 -0.9119  0.1230
   91MOL0     C12452  10.997   9.517   2.892 -0.1169 -0.5932  0.0798
   91MOL0     C12453  11.107   9.576   2.836  0.0415  0.5208 -0.4526
   91MOL0     C12454  11.192   9.663   2.911  0.7922  0.7267  0.5112
   91MOL0     C12455  11.150   9.698   3.039 -0.5072  0.1230 -0.1320
   91MOL0     O12456  11.214   9.801   3.113  0.3998  0.1986  0.4216
   91MOL0     C12457  11.349   9.785   3.160 -0.4927 -0.2512 -0.7911
   91MOL0     C12458  11.411   9.916   3.207  0.2630  0.2206 -0.0580
   91MOL0     C12459  11.560   9.892   3.250 -0.0151  0.1347 -0.4293
   91MOL0     C12460  11.611  10.008   3.333  0.5639 -0.1597  0.1263
   91MOL0     C12461  11.763  10.016   3.374  0.0929  0.0422 -0.0362
   91MOL0     C12462  11.793   9.935   3.504  0.4968  0.5200  0.1854
   91MOL0     C12463  11.920   9.996   3.556  0.4688 -0.3130 -0.0179
   91MOL0     C12464  11.935   9.948   3.701  0.3017 -0.5305  0.5776
   91MOL0    Cl12465  12.096   9.994   3.753 -0.3719 -0.0544  0.0934
   91MOL0     C12466  11.036   9.639   3.093  0.0083 -0.5165  0.3752
   91MOL0     C12467  10.961   9.544   3.024 -0.1162 -0.5733  0.1129
   91MOL0     O12468  10.924   9.501   2.626 -0.2137 -0.2375  0.5724
   91MOL0     C12469  10.717   9.236   2.745 -0.3024 -0.1175 -0.4965
   91MOL0     C12470  10.628   9.144   2.713  0.7896 -0.7503  1.0402
   91MOL0     N12471   9.989   8.930   2.694  0.2705  0.0316  0.1376
   91MOL0     N12472   9.885   8.893   2.765  0.2536  0.1912 -0.7024
   91MOL0     C12473   9.416   7.895   3.436  0.1158  0.2998  0.6505
   91MOL0     C12474   9.428   7.846   3.563  0.7845 -0.0496 -0.4917
   91MOL0     C12475   9.344   7.636   3.956  0.4623 -1.1939  0.9065
   91MOL0     C12476   9.424   7.528   3.995  0.1593  0.5162  0.3754
   91MOL0     C12477   9.460   7.501   4.129  0.8871  0.1481  0.5361
   91MOL0     C12478   9.379   7.554   4.230 -0.7680  0.1451 -0.2147
   91MOL0     O12479   9.395   7.519   4.359 -0.6466  0.4195 -0.7149
   91MOL0     C12480   9.448   7.389   4.401  0.3006  1.4663 -0.1876
   91MOL0     C12481   9.398   7.366   4.538  0.0109 -0.2589 -0.3023
   91MOL0     C12482   9.442   7.229   4.581 -0.2007  0.5041 -0.0589
   91MOL0     C12483   9.371   7.178   4.708  0.5031  0.1158  0.4338
   91MOL0     C12484   9.220   7.201   4.709  0.5625  1.3951 -0.3315
   91MOL0     C12485   9.097   7.220   4.723  0.5325  0.1263  0.8023
   91MOL0     C12486   9.288   7.653   4.192  0.0379 -1.3668  0.0630
   91MOL0     C12487   9.279   7.704   4.065 -0.7531  0.0354  0.2979
   91MOL0     C12488   9.211   7.841   4.049  0.0956  0.5256  0.6960
   91MOL0     H12489   9.159   7.996   3.701  1.0687 -4.4951  2.3279
   91MOL0     H12490   9.166   8.115   3.480  2.0827  1.4732  0.1952
   91MOL0     H12491   9.513   8.010   3.192  1.2066  0.3393 -0.1916
   91MOL0     H12492   9.498   8.165   3.279 -0.8156  1.5812 -0.6870
   91MOL0     H12493   9.495   8.182   3.010 -2.3563  1.7300 -1.9221
   91MOL0     H12494   9.340   8.119   3.013 -0.0505 -1.5697  0.9667
   91MOL0     H12495   9.263   8.308   3.129 -0.9422  2.5352 -1.6617
   91MOL0     H12496   9.427   8.355   3.195  1.3710 -4.2007  0.5205
   91MOL0     H12497   9.339   8.380   2.917 -0.6171 -1.9799  1.3102
   91MOL0     H12498   9.351   8.503   3.042 -0.3670 -0.4167  0.0741
   91MOL0     H12499   9.583   8.370   2.901 -1.7545 -1.9132  1.2381
   91MOL0     H12500   9.591   8.439   3.067 -2.8860  0.1075  1.8940
   91MOL0     H12501   9.471   8.572   2.807 -1.3128 -0.0453  0.4682
   91MOL0     H12502   9.512   8.652   2.955  0.8949  0.0017 -0.2810
   91MOL0     H12503   9.715   8.528   2.761 -2.6284 -0.3240 -2.7940
   91MOL0     H12504   9.763   8.620   2.910  1.5384 -0.1636 -2.2784
   91MOL0     H12505   9.616   8.750   2.689  2.7520  0.8955 -2.5522
   91MOL0     H12506   9.662   8.817   2.850 -0.4335 -1.3356  1.8393
   91MOL0     H12507   9.858   8.681   2.524 -2.1270  0.0248  2.0754
   91MOL0     H12508  10.069   8.877   2.377 -0.4693  0.5241 -0.6719
   91MOL0     H12509  10.130   8.748   2.476  2.5538  1.8250 -2.2869
   91MOL0     H12510  10.191   9.032   2.543 -0.3908  0.0605 -1.0535
   91MOL0     H12511  10.254   8.880   2.617  0.5010 -0.1446 -0.9492
   91MOL0     H12512  10.396   8.822   2.419 -1.2473 -1.1977 -3.6593
   91MOL0     H12513  10.292   8.934   2.320 -1.3264 -0.9253 -0.6194
   91MOL0     H12514  10.510   9.033   2.361  0.0858  2.3136 -0.8810
   91MOL0     H12515  10.379   9.129   2.447 -1.4808 -1.8605  0.0876
   91MOL0     H12516  10.637   9.173   2.377 -2.1254  0.4872  0.8526
   91MOL0     H12517  10.934   9.379   2.430 -1.1040 -1.5015  2.7068
   91MOL0     H12518  10.775   9.468   2.411 -0.8837  0.4745 -0.8134
   91MOL0     H12519  10.817   9.334   2.309 -1.0001 -0.1692 -0.3523
   91MOL0     H12520  11.135   9.553   2.733  4.1501  1.4999  0.2533
   91MOL0     H12521  11.282   9.706   2.870  1.0184 -0.5626 -0.4220
   91MOL0     H12522  11.354   9.718   3.247  0.4158 -0.7797 -1.2410
   91MOL0     H12523  11.415   9.752   3.080  2.8560 -0.5281  1.8849
   91MOL0     H12524  11.410   9.995   3.132  4.3873 -1.0105 -1.6771
   91MOL0     H12525  11.344   9.937   3.291 -4.2119 -1.2483 -2.8743
   91MOL0     H12526  11.635   9.878   3.172  0.1888 -0.1777 -0.1841
   91MOL0     H12527  11.570   9.807   3.319  2.5484  1.4430  0.9691
   91MOL0     H12528  11.546  10.013   3.420  1.7728  3.5823  1.0137
   91MOL0     H12529  11.577  10.100   3.284  0.5863 -0.5740 -0.6798
   91MOL0     H12530  11.823   9.996   3.284  0.1976  2.9563 -0.7029
   91MOL0     H12531  11.790  10.121   3.393  2.5532 -0.4572 -0.3259
   91MOL0     H12532  11.805   9.832   3.470  2.4880  0.7070  0.2014
   91MOL0     H12533  11.705   9.937   3.568  0.8121  0.8174  0.6113
   91MOL0     H12534  11.925  10.105   3.551  1.2368 -0.3255  0.3492
   91MOL0     H12535  11.995   9.962   3.483  1.4754  0.9646  0.3989
   91MOL0     H12536  11.917   9.841   3.714 -0.2538 -0.8011 -1.9040
   91MOL0     H12537  11.863  10.009   3.757 -1.8556 -2.5538  0.1524
   91MOL0     H12538  11.011   9.682   3.189 -1.1313 -3.0667  1.3339
   91MOL0     H12539  10.874   9.492   3.063 -0.9103  0.2931 -0.4567
   91MOL0     H12540  10.719   9.269   2.848  0.1236  1.2913 -0.9287
   91MOL0     H12541  10.588   9.099   2.803  2.4790  0.0465  2.2556
   91MOL0     H12542   9.483   7.851   3.363  2.6381 -2.1713  4.0672
   91MOL0     H12543   9.508   7.776   3.583  1.9537  1.9555  2.5287
   91MOL0     H12544   9.460   7.466   3.913 -1.9810  0.6868 -0.7572
   91MOL0     H12545   9.533   7.421   4.140 -0.1963 -0.7235  1.7064
   91MOL0     H12546   9.403   7.312   4.338  0.2691  0.3997  1.0763
   91MOL0     H12547   9.557   7.397   4.406  0.2834  1.1719  1.2236
   91MOL0     H12548   9.291   7.379   4.525  0.2311 -0.3892 -2.5607
   91MOL0     H12549   9.438   7.442   4.606  0.7229 -1.5168  0.7333
   91MOL0     H12550   9.431   7.150   4.507 -0.4500  0.2740  0.2245
   91MOL0     H12551   9.550   7.239   4.598 -0.1426  1.0997 -0.7098
   91MOL0     H12552   9.427   7.232   4.786  1.3585 -1.7422  1.1622
   91MOL0     H12553   9.391   7.071   4.716  1.5336  0.1132 -1.4708
   91MOL0     H12554   8.991   7.213   4.735  0.4206 -2.1487 -0.9389
   91MOL0     H12555   9.248   7.715   4.272  1.6829  0.2363 -0.2867
   91MOL0     H12556   9.163   7.864   3.954  1.1937 -1.0233 -0.2853
   91MOL0     H12557   9.146   7.844   4.137 -0.6543  1.2721  0.1271
   91MOL0     H12558   9.283   7.923   4.061  0.9720  0.1539 -1.5424
   92MOL0     O12559  10.659   6.589   3.114  0.7922 -0.0602  0.8686
   92MOL0     C12560  10.627   6.473   3.135 -0.3516 -0.2037 -0.1669
   92MOL0     O12561  10.699   6.390   3.216 -1.0034 -0.1551  0.2796
   92MOL0     C12562  10.817   6.449   3.262 -0.2185 -0.0729 -0.4338
   92MOL0     C12563  10.823   6.529   3.383 -0.0289 -0.7653  0.3358
   92MOL0     C12564  10.937   6.586   3.425 -0.2554  0.9547  1.0560
   92MOL0     C12565  11.053   6.575   3.358 -0.2576  0.1334 -0.1062
   92MOL0     O12566  11.167   6.638   3.394  0.1097  0.0637  0.5060
   92MOL0     C12567  11.299   6.575   3.392  0.6943 -0.2761  0.2881
   92MOL0     C12568  11.378   6.610   3.525 -0.0688  0.3823  0.2076
   92MOL0     C12569  11.403   6.757   3.559 -0.3791 -0.5446 -0.7437
   92MOL0     C12570  11.495   6.835   3.461 -0.5122 -0.6767  0.2643
   92MOL0     C12571  11.483   6.990   3.462 -0.3911  0.2430  0.4654
   92MOL0     C12572  11.593   7.058   3.368  0.2010  0.4434 -0.1851
   92MOL0     C12573  11.566   7.202   3.362  0.3381 -0.7514 -0.5859
   92MOL0     C12574  11.660   7.268   3.254 -0.6473 -0.3501  0.7402
   92MOL0     N12575  11.807   7.268   3.284  0.6146 -0.3613  0.0638
   92MOL0     C12576  11.863   7.379   3.337  0.4140 -0.2676  0.2242
   92MOL0     C12577  11.991   7.341   3.352  0.7075  0.4412  1.3188
   92MOL0     C12578  12.108   7.422   3.412  0.5771 -0.0641  0.3739
   92MOL0     C12579  12.227   7.451   3.314 -0.1372 -0.4686  0.6704
   92MOL0     C12580  12.193   7.512   3.173 -0.6168 -0.8463 -0.4882
   92MOL0     C12581  12.326   7.562   3.099 -1.2609  0.3381  0.0084
   92MOL0     O12582  12.415   7.447   3.092  0.4107  0.5539  0.1534
   92MOL0     C12583  12.552   7.460   3.074  0.7477 -0.2847 -0.0513
   92MOL0     C12584  12.625   7.339   3.069 -1.2963 -0.2387  0.1460
   92MOL0     C12585  12.764   7.339   3.032  0.0805  1.0016 -0.0168
   92MOL0     C12586  12.832   7.203   3.017  0.9742  0.0833 -0.4387
   92MOL0     C12587  12.828   7.457   2.995 -0.2521 -0.1039 -1.0069
   92MOL0     C12588  12.971   7.472   2.947 -0.0220  0.1787  1.1003
   92MOL0     O12589  12.991   7.564   2.835 -1.0065 -0.5146 -0.0523
   92MOL0     C12590  13.123   7.610   2.826 -0.4867 -0.0363 -0.0134
   92MOL0     C12591  13.157   7.712   2.917 -0.2388  0.4565 -0.3014
   92MOL0     C12592  13.292   7.764   2.922  0.4142 -0.3601  0.6856
   92MOL0     C12593  13.388   7.729   2.823 -0.5625  1.2973  0.1596
   92MOL0     O12594  13.510   7.781   2.810 -0.6560  0.1559  0.5818
   92MOL0     C12595  13.574   7.830   2.930 -0.4174  0.4113 -0.6177
   92MOL0     C12596  13.710   7.900   2.906 -0.3636  0.3158 -0.4799
   92MOL0     C12597  13.743   7.973   3.038  0.4663  0.7300  0.1186
   92MOL0     C12598  13.881   8.033   3.042  0.4272 -0.5668  0.6075
   92MOL0     C12599  13.908   8.092   3.179 -0.4694 -0.2108  0.4644
   92MOL0     C12600  14.028   8.194   3.180  0.1760  0.0863 -0.1556
   92MOL0     C12601  14.038   8.257   3.314 -0.8573  0.1409  0.4983
   92MOL0     C12602  14.165   8.351   3.325 -0.0191  0.4558  0.6757
   92MOL0    Cl12603  14.163   8.433   3.478 -0.1923 -0.3930 -0.0892
   92MOL0     C12604  13.355   7.625   2.735 -0.4781  0.5602 -0.2939
   92MOL0     C12605  13.224   7.559   2.740 -0.8218  0.3604  0.7048
   92MOL0     O12606  13.049   7.394   2.985  0.0499  0.2908  0.6574
   92MOL0     C12607  12.744   7.572   2.983  0.4521  0.0455 -0.0032
   92MOL0     C12608  12.613   7.576   3.020 -1.1000  0.0021 -0.8325
   92MOL0     N12609  12.016   7.215   3.290 -0.7101  0.1073  0.1802
   92MOL0     N12610  11.896   7.173   3.256 -0.4934 -1.0822  0.2185
   92MOL0     C12611  11.055   6.492   3.244 -1.5827 -0.0887  0.3336
   92MOL0     C12612  10.941   6.433   3.193  0.7887  1.1188 -0.7060
   92MOL0     C12613  10.489   6.424   3.088 -0.8047  0.4503 -0.1321
   92MOL0     C12614  10.398   6.525   3.050 -1.7866  0.0405 -0.4261
   92MOL0     C12615  10.274   6.502   2.991  0.2464  0.5745 -0.5187
   92MOL0     C12616  10.224   6.373   2.986  0.3489  0.5189  0.2731
   92MOL0     O12617  10.098   6.362   2.942  0.0668  0.6376  0.0780
   92MOL0     C12618  10.041   6.237   2.941 -0.0640  0.4389  1.0226
   92MOL0     C12619   9.889   6.244   2.899  0.1467  0.1400  0.3491
   92MOL0     C12620   9.861   6.316   2.761  0.3943 -0.0385 -0.3970
   92MOL0     C12621   9.719   6.360   2.732  0.3122  0.8586  0.3908
   92MOL0     C12622   9.632   6.256   2.799 -0.6155 -0.8961 -0.9694
   92MOL0     C12623   9.546   6.186   2.848  0.5645 -0.4510  0.0471
   92MOL0     C12624  10.305   6.265   3.032 -0.1212 -0.3469  0.4550
   92MOL0     C12625  10.439   6.294   3.083  0.2472 -0.4184 -0.0408
   92MOL0     C12626  10.512   6.181   3.138 -0.3182  0.6533 -1.0506
   92MOL0     H12627  10.730   6.546   3.438  0.8686  1.6304  1.2626
   92MOL0     H12628  10.944   6.651   3.512  1.1926  0.9121  0.9817
   92MOL0     H12629  11.350   6.616   3.303  1.4531  1.3428  1.4151
   92MOL0     H12630  11.292   6.467   3.379  3.8167 -0.5908  0.3285
   92MOL0     H12631  11.308   6.575   3.602 -0.4289  1.8417  0.5934
   92MOL0     H12632  11.469   6.551   3.530  0.9162  1.6894 -1.1697
   92MOL0     H12633  11.309   6.813   3.555 -1.7265 -2.6955 -0.4289
   92MOL0     H12634  11.443   6.763   3.661  4.8637  0.8850 -2.5502
   92MOL0     H12635  11.600   6.809   3.476  0.2013  1.2264 -1.0403
   92MOL0     H12636  11.461   6.806   3.361 -0.2919  2.1511 -0.7235
   92MOL0     H12637  11.505   7.017   3.566 -2.0293 -3.9211  2.1041
   92MOL0     H12638  11.382   7.029   3.446 -0.1061  1.0586  0.6022
   92MOL0     H12639  11.689   7.033   3.414 -0.7062  1.7726  2.6846
   92MOL0     H12640  11.582   7.015   3.268 -0.4021  1.2297 -0.4683
   92MOL0     H12641  11.572   7.251   3.460  2.6492  0.6780 -1.3399
   92MOL0     H12642  11.465   7.229   3.331  0.6229  2.8771  1.0234
   92MOL0     H12643  11.631   7.223   3.159 -1.2228 -0.1816  0.8268
   92MOL0     H12644  11.628   7.372   3.236  0.2255 -0.1989  0.0403
   92MOL0     H12645  11.820   7.470   3.379 -1.1210 -0.5844 -0.5607
   92MOL0     H12646  12.144   7.376   3.505 -2.9642  1.4033  2.7088
   92MOL0     H12647  12.062   7.518   3.440 -0.9502 -0.4213 -0.8022
   92MOL0     H12648  12.299   7.523   3.353  1.8026 -0.9842 -1.7249
   92MOL0     H12649  12.275   7.354   3.298 -0.5136 -0.4744 -0.5881
   92MOL0     H12650  12.156   7.430   3.111 -0.4757 -0.7779 -0.6618
   92MOL0     H12651  12.123   7.595   3.185  1.1844  0.5367  0.9796
   92MOL0     H12652  12.280   7.602   3.007 -2.6766  2.7225  1.6484
   92MOL0     H12653  12.381   7.641   3.151 -1.1570  2.3725 -2.9287
   92MOL0     H12654  12.570   7.246   3.080 -2.2371  0.1085 -1.3110
   92MOL0     H12655  12.891   7.213   2.926  2.6450 -0.4251  0.5297
   92MOL0     H12656  12.759   7.123   3.003 -2.4694  2.9165  0.0333
   92MOL0     H12657  12.903   7.173   3.095  0.5834 -0.5203 -0.3065
   92MOL0     H12658  13.083   7.748   2.988  1.1727 -0.1474  1.5752
   92MOL0     H12659  13.308   7.843   2.994 -0.0745  1.5429 -1.1910
   92MOL0     H12660  13.506   7.905   2.972 -1.9803 -0.9670 -0.6060
   92MOL0     H12661  13.580   7.750   3.004 -0.2920 -1.1565 -2.2503
   92MOL0     H12662  13.787   7.824   2.888 -0.9441 -0.1818 -0.8970
   92MOL0     H12663  13.687   7.969   2.824  0.4066  2.0687  0.7079
   92MOL0     H12664  13.725   7.902   3.120  0.7343  1.3630  0.7356
   92MOL0     H12665  13.674   8.058   3.045 -1.8908 -1.0271 -0.2655
   92MOL0     H12666  13.884   8.111   2.966 -1.9682 -2.6947 -1.8986
   92MOL0     H12667  13.952   7.953   3.020  2.1836  1.1001 -0.0283
   92MOL0     H12668  13.817   8.140   3.217 -1.5178  0.7195 -2.8942
   92MOL0     H12669  13.932   8.005   3.241  0.9305 -1.0306 -1.1422
   92MOL0     H12670  14.001   8.275   3.112 -0.4154 -1.1836 -1.5049
   92MOL0     H12671  14.121   8.144   3.153  1.1424  1.1488  1.0941
   92MOL0     H12672  14.049   8.186   3.396 -0.1083  0.9340  1.1042
   92MOL0     H12673  13.953   8.325   3.332 -2.5774 -0.8636 -2.9713
   92MOL0     H12674  14.170   8.433   3.252 -2.2851  1.2589  1.3305
   92MOL0     H12675  14.251   8.289   3.298 -1.7908 -2.2684  0.9347
   92MOL0     H12676  13.425   7.586   2.663  0.7876 -2.0196  2.1178
   92MOL0     H12677  13.216   7.471   2.675  1.5777 -0.2257  1.1180
   92MOL0     H12678  12.784   7.668   2.951 -2.1381  1.8707  1.8242
   92MOL0     H12679  12.563   7.672   3.009 -0.8649  0.0511 -1.5411
   92MOL0     H12680  11.139   6.464   3.182 -2.4847  0.2428 -1.0854
   92MOL0     H12681  10.934   6.379   3.100 -1.7785 -3.0310  1.5909
   92MOL0     H12682  10.434   6.627   3.061  0.0007 -0.3818 -1.8324
   92MOL0     H12683  10.227   6.593   2.956  1.1648  0.4061 -2.2998
   92MOL0     H12684  10.088   6.176   2.864 -1.1999  1.5900 -0.6486
   92MOL0     H12685  10.055   6.187   3.037 -0.9069 -1.5973  0.1375
   92MOL0     H12686   9.822   6.275   2.980  0.8035  0.3777  0.8102
   92MOL0     H12687   9.865   6.138   2.886  1.2554 -0.0375 -0.3113
   92MOL0     H12688   9.923   6.406   2.754 -0.8070  0.9719  0.9850
   92MOL0     H12689   9.896   6.246   2.686  4.8471 -0.5073  1.8000
   92MOL0     H12690   9.692   6.371   2.626 -0.5110 -0.7253  0.4019
   92MOL0     H12691   9.694   6.452   2.786  1.6306 -0.6893  3.9525
   92MOL0     H12692   9.475   6.119   2.891 -0.8732  0.6938 -0.4426
   92MOL0     H12693  10.267   6.164   3.035 -0.3610 -0.2504  4.2618
   92MOL0     H12694  10.513   6.182   3.247  0.6852  3.0582 -1.0272
   92MOL0     H12695  10.460   6.092   3.103 -0.4342  1.6446 -3.6318
   92MOL0     H12696  10.617   6.177   3.106  0.2587  0.4107  0.7512
   93MOL0     O12697   9.580  11.295   9.637 -1.1857 -0.1209  0.0992
   93MOL0     C12698   9.575  11.225   9.741  0.1956 -1.3184  1.0543
   93MOL0     O12699   9.676  11.199   9.827  0.6860 -0.1214  0.3821
   93MOL0     C12700   9.793  11.267   9.795 -0.0777 -0.3699 -0.2323
   93MOL0     C12701   9.860  11.322   9.902  0.2012 -0.3876 -0.2571
   93MOL0     C12702   9.981  11.385   9.887  0.2332  0.6192  0.4405
   93MOL0     C12703  10.044  11.392   9.761  0.4809 -0.0082  0.1462
   93MOL0     O12704  10.161  11.450   9.758  0.0128  0.3261 -0.3189
   93MOL0     C12705  10.226  11.474   9.637  0.8893  0.4029  0.2280
   93MOL0     C12706  10.331  11.587   9.661  0.2117  0.1046 -0.1172
   93MOL0     C12707  10.397  11.612   9.521  0.5050 -0.7580 -0.2324
   93MOL0     C12708  10.550  11.627   9.553 -0.2216 -0.1764 -0.7123
   93MOL0     C12709  10.636  11.702   9.450  0.3969  0.4742  0.2425
   93MOL0     C12710  10.782  11.673   9.480  0.1497 -0.2316  0.0553
   93MOL0     C12711  10.870  11.765   9.394 -0.0102 -0.6903 -0.0685
   93MOL0     C12712  11.012  11.775   9.458 -0.8028  0.6442 -0.3600
   93MOL0     N12713  11.032  11.863   9.585 -0.3687  0.0308  0.1680
   93MOL0     C12714  11.031  12.001   9.598 -0.3795  0.0073  0.0610
   93MOL0     C12715  11.068  12.022   9.722  0.0457  0.0301 -0.6643
   93MOL0     C12716  11.098  12.162   9.782 -0.5163  0.9507  0.6798
   93MOL0     C12717  11.229  12.210   9.722 -0.4477  0.7490  0.4782
   93MOL0     C12718  11.286  12.336   9.788  1.0124  0.1394  0.0613
   93MOL0     C12719  11.336  12.329   9.928  0.2110  0.3885 -0.5478
   93MOL0     O12720  11.372  12.455   9.978  0.8625  0.6691 -0.1514
   93MOL0     C12721  11.496  12.466  10.029 -0.6798  0.3623  0.2318
   93MOL0     C12722  11.516  12.493  10.165  0.1127 -0.2514 -0.2778
   93MOL0     C12723  11.641  12.495  10.232 -0.8943 -0.6672 -0.2628
   93MOL0     C12724  11.655  12.513  10.386 -0.6209  1.0738  0.5045
   93MOL0     C12725  11.756  12.465  10.150 -0.0218  1.3295  0.3149
   93MOL0     C12726  11.893  12.442  10.199  0.1340 -0.0781  0.1043
   93MOL0     O12727  11.978  12.375  10.123 -0.1328 -0.3065 -0.4392
   93MOL0     C12728  12.081  12.325  10.193 -0.1156  1.3272  1.0107
   93MOL0     C12729  12.211  12.348  10.161  1.2709 -0.6809 -0.0544
   93MOL0     C12730  12.317  12.302  10.225  0.1207  0.9749  0.0653
   93MOL0     C12731  12.303  12.214  10.335 -0.1734  0.4605 -1.1258
   93MOL0     O12732  12.419  12.157  10.392 -0.1265  0.2943 -0.2469
   93MOL0     C12733  12.406  12.025  10.439  0.2582 -0.3579 -1.5931
   93MOL0     C12734  12.529  12.006  10.538  0.4602 -0.1870  0.1343
   93MOL0     C12735  12.496  11.895  10.629  0.3931 -0.6068 -0.6085
   93MOL0     C12736  12.478  11.762  10.548  0.0197  0.2613 -0.4515
   93MOL0     C12737  12.497  11.640  10.652  0.3583 -1.1367  0.7471
   93MOL0     C12738  12.519  11.515  10.580 -0.0889 -0.3100 -0.9465
   93MOL0     C12739  12.514  11.391  10.663 -0.1223 -0.3923  1.0486
   93MOL0     C12740  12.644  11.357  10.724 -0.9549 -0.5602  0.6920
   93MOL0    Cl12741  12.773  11.323  10.599 -0.0647 -0.4241 -0.0667
   93MOL0     C12742  12.164  12.190  10.382 -0.2930  0.9113  0.0180
   93MOL0     C12743  12.057  12.246  10.309 -0.7450  0.0306  0.0872
   93MOL0     O12744  11.930  12.512  10.293 -0.3059 -0.0035  0.1597
   93MOL0     C12745  11.734  12.442  10.014 -1.8192 -0.5634  0.3240
   93MOL0     C12746  11.609  12.444   9.945 -0.4866 -0.0437 -0.7396
   93MOL0     N12747  11.093  11.903   9.787  0.4979 -0.2100  0.2851
   93MOL0     N12748  11.072  11.806   9.697  0.5027 -0.0639  0.2988
   93MOL0     C12749   9.986  11.333   9.652 -0.5414  0.3357  0.3732
   93MOL0     C12750   9.855  11.273   9.671  0.2766  0.0347 -0.8345
   93MOL0     C12751   9.438  11.168   9.771 -0.6957  0.2879  0.2593
   93MOL0     C12752   9.413  11.128   9.907 -0.0225 -0.7823 -0.6343
   93MOL0     C12753   9.286  11.073   9.942  0.3727 -0.2563 -0.5109
   93MOL0     C12754   9.187  11.060   9.844 -0.5865  0.4823  0.2540
   93MOL0     O12755   9.059  11.012   9.873  0.1002 -0.8872  0.4289
   93MOL0     C12756   9.023  10.952   9.998 -1.1383 -0.6046  0.4062
   93MOL0     C12757   8.870  10.971  10.018  1.1693 -0.2631 -0.5710
   93MOL0     C12758   8.812  11.002  10.160  0.2176 -0.7702  0.6004
   93MOL0     C12759   8.776  10.877  10.239  0.8689 -0.7136 -0.8917
   93MOL0     C12760   8.675  10.797  10.175  0.2075  0.4700  0.1620
   93MOL0     C12761   8.576  10.735  10.133 -0.4893  0.3123  0.6784
   93MOL0     C12762   9.214  11.092   9.713 -0.5683 -0.6964  0.3751
   93MOL0     C12763   9.339  11.134   9.672  0.1073 -0.0150 -0.5314
   93MOL0     C12764   9.347  11.148   9.524 -0.1603  0.5255  0.1438
   93MOL0     H12765   9.809  11.323   9.998 -1.0391 -0.8391 -0.8800
   93MOL0     H12766  10.017  11.445   9.970 -1.8086  1.9895  0.4257
   93MOL0     H12767  10.158  11.508   9.559  0.5034 -1.7039 -0.4198
   93MOL0     H12768  10.272  11.385   9.591  1.6065  1.5462 -1.3594
   93MOL0     H12769  10.283  11.679   9.698  1.2989  0.4107  0.5762
   93MOL0     H12770  10.412  11.551   9.725  2.6261 -1.9398 -3.9340
   93MOL0     H12771  10.391  11.525   9.454 -2.8790 -0.7712 -0.1075
   93MOL0     H12772  10.359  11.700   9.469 -2.7277 -1.1768  1.1951
   93MOL0     H12773  10.565  11.685   9.644 -2.1689  1.7909 -1.5670
   93MOL0     H12774  10.595  11.529   9.572 -0.4720  0.3237  3.2374
   93MOL0     H12775  10.619  11.810   9.458  0.6639  0.3932  3.1989
   93MOL0     H12776  10.617  11.659   9.351 -0.0704 -1.0855  0.9696
   93MOL0     H12777  10.807  11.694   9.584  1.0920 -3.5723  0.6517
   93MOL0     H12778  10.792  11.565   9.462 -1.3578 -0.5308  0.9323
   93MOL0     H12779  10.839  11.870   9.391  1.3216 -0.0637 -6.5283
   93MOL0     H12780  10.879  11.723   9.294 -0.2387 -1.1349  0.0950
   93MOL0     H12781  11.045  11.673   9.480 -1.0092  0.8728  1.1033
   93MOL0     H12782  11.085  11.798   9.379  4.6694 -4.8456  2.2310
   93MOL0     H12783  11.019  12.076   9.520  0.8028 -0.1545 -0.2961
   93MOL0     H12784  11.104  12.156   9.891 -0.9961 -0.7594  0.6428
   93MOL0     H12785  11.015  12.226   9.750  0.3117  1.2394 -1.0394
   93MOL0     H12786  11.304  12.131   9.728 -0.7404  0.5154  1.2088
   93MOL0     H12787  11.209  12.238   9.618 -1.3294 -0.1123  0.4026
   93MOL0     H12788  11.371  12.367   9.726  3.0954 -0.6413  2.3768
   93MOL0     H12789  11.208  12.412   9.774  1.5671  0.6446 -0.3413
   93MOL0     H12790  11.249  12.302   9.989 -0.3763 -0.8182 -1.8581
   93MOL0     H12791  11.408  12.248   9.939  1.0245  0.5815 -3.5737
   93MOL0     H12792  11.427  12.515  10.223 -0.3772 -1.1174 -0.6905
   93MOL0     H12793  11.713  12.432  10.431  1.8222  3.4258  1.8744
   93MOL0     H12794  11.560  12.524  10.440 -1.4302 -3.8007  0.5665
   93MOL0     H12795  11.725  12.596  10.400  0.2397  0.6834 -1.2233
   93MOL0     H12796  12.225  12.413  10.075 -2.3364  0.9277  0.3885
   93MOL0     H12797  12.415  12.327  10.187  1.5108 -2.3738  1.0653
   93MOL0     H12798  12.323  12.018  10.511  0.2416 -3.1991 -1.7831
   93MOL0     H12799  12.405  11.954  10.357 -0.9440  0.0765 -1.9792
   93MOL0     H12800  12.619  11.991  10.477  0.6559  2.5507 -0.3409
   93MOL0     H12801  12.542  12.098  10.595  1.2244 -0.6767  0.7794
   93MOL0     H12802  12.405  11.922  10.684  1.2594 -0.8401  0.9761
   93MOL0     H12803  12.580  11.888  10.698 -0.0740  2.8974  0.5080
   93MOL0     H12804  12.548  11.752  10.464 -1.2813 -3.2140 -1.2732
   93MOL0     H12805  12.382  11.777  10.499  0.4074  0.6755 -1.0968
   93MOL0     H12806  12.576  11.668  10.722  1.5459  1.9731 -1.6264
   93MOL0     H12807  12.406  11.638  10.713  1.6569 -1.2892  2.7622
   93MOL0     H12808  12.615  11.518  10.527 -0.6726  2.7404 -2.0050
   93MOL0     H12809  12.442  11.508  10.503 -1.3705 -0.2808  0.3041
   93MOL0     H12810  12.483  11.305  10.603  0.8803 -0.1365  0.1241
   93MOL0     H12811  12.443  11.402  10.746  0.3039 -1.2623  1.5455
   93MOL0     H12812  12.635  11.270  10.790 -0.8338 -1.0729  0.0467
   93MOL0     H12813  12.697  11.440  10.771 -1.0333  1.1935 -2.0441
   93MOL0     H12814  12.135  12.129  10.467  1.9605 -0.3104 -0.0138
   93MOL0     H12815  11.956  12.229  10.344 -0.6524  1.0046  0.8733
   93MOL0     H12816  11.816  12.407   9.952 -0.5419 -1.6817  2.5064
   93MOL0     H12817  11.594  12.416   9.841 -0.3127 -2.0794 -0.2535
   93MOL0     H12818  10.026  11.325   9.552  0.4745 -4.2605  0.9405
   93MOL0     H12819   9.794  11.236   9.589 -0.9712 -2.1157  0.9397
   93MOL0     H12820   9.499  11.133   9.973 -0.6554 -1.9312  0.3092
   93MOL0     H12821   9.265  11.062  10.048 -1.3151  2.9799 -0.3926
   93MOL0     H12822   9.061  10.851  10.016  0.7444 -0.1948 -0.9626
   93MOL0     H12823   9.070  11.011  10.077  1.5963 -0.6457 -1.0799
   93MOL0     H12824   8.829  10.880   9.973 -1.1433  0.9657 -1.1297
   93MOL0     H12825   8.835  11.049   9.949 -2.2398  1.1857  2.4481
   93MOL0     H12826   8.891  11.056  10.214 -0.1680 -1.3479  1.7698
   93MOL0     H12827   8.731  11.075  10.148 -1.0513 -1.9336  1.7912
   93MOL0     H12828   8.739  10.913  10.336  1.2932  0.1938 -1.0589
   93MOL0     H12829   8.863  10.813  10.255  1.3663 -0.7999 -3.5232
   93MOL0     H12830   8.499  10.677  10.086 -1.6817  2.6345 -0.4610
   93MOL0     H12831   9.134  11.078   9.641 -1.6390  1.5727  1.0259
   93MOL0     H12832   9.381  11.052   9.485 -1.4185  1.0230 -2.4272
   93MOL0     H12833   9.254  11.165   9.468  1.1033 -0.0287 -2.2784
   93MOL0     H12834   9.416  11.224   9.486  0.5428 -0.1608  0.0334
   94MOL0     O12835   8.140   2.900   7.078  0.0112 -0.5133  0.6800
   94MOL0     C12836   8.153   2.859   7.197 -0.0507  0.1200  0.3721
   94MOL0     O12837   8.105   2.744   7.242  0.3126 -0.5370 -0.5746
   94MOL0     C12838   7.991   2.681   7.191  0.1572 -0.1101  1.1840
   94MOL0     C12839   7.960   2.556   7.246 -1.3191 -1.6925 -0.4572
   94MOL0     C12840   7.843   2.490   7.228  0.4314 -0.5116 -0.0721
   94MOL0     C12841   7.740   2.556   7.147 -0.2948  0.0681 -0.3842
   94MOL0     O12842   7.615   2.503   7.123 -0.0779 -0.8302  0.6060
   94MOL0     C12843   7.620   2.359   7.119  0.6044 -0.1334  0.3502
   94MOL0     C12844   7.486   2.290   7.088  0.3519  0.5832 -0.0856
   94MOL0     C12845   7.387   2.304   7.208  1.0154 -0.9279  0.3182
   94MOL0     C12846   7.288   2.179   7.207  0.4252  1.1552  0.1302
   94MOL0     C12847   7.184   2.196   7.320  0.0764  0.0169  0.4677
   94MOL0     C12848   7.107   2.062   7.318 -0.1088  0.5072 -0.1694
   94MOL0     C12849   7.004   2.043   7.433  0.3285  0.5075 -0.3073
   94MOL0     C12850   6.901   1.942   7.396  0.3412 -1.0128  0.1753
   94MOL0     N12851   6.781   1.941   7.484 -0.1321 -0.6588  0.3294
   94MOL0     C12852   6.790   1.925   7.617 -0.6932  0.7895 -0.4654
   94MOL0     C12853   6.667   1.936   7.661  1.0088  0.3162  0.6005
   94MOL0     C12854   6.619   1.932   7.803  0.3601  1.0250  0.0779
   94MOL0     C12855   6.714   1.863   7.910  0.8450 -0.8852 -0.1553
   94MOL0     C12856   6.620   1.843   8.030 -0.4374 -0.6647 -0.2695
   94MOL0     C12857   6.708   1.813   8.142 -0.2288  0.8232  0.3457
   94MOL0     O12858   6.620   1.758   8.248  0.3291  0.0007  0.2769
   94MOL0     C12859   6.625   1.797   8.379  0.2264  0.9699  1.2004
   94MOL0     C12860   6.517   1.758   8.464  0.6646 -0.3397  0.1769
   94MOL0     C12861   6.518   1.773   8.601  0.4726 -0.4482 -0.9555
   94MOL0     C12862   6.388   1.747   8.685 -0.3334  0.8606 -0.9386
   94MOL0     C12863   6.626   1.844   8.660  0.2991  0.1195  1.0628
   94MOL0     C12864   6.639   1.878   8.801 -0.7356 -0.0033 -0.1429
   94MOL0     O12865   6.749   1.954   8.842 -0.4515  0.0827  0.0688
   94MOL0     C12866   6.748   2.006   8.967  0.9983 -0.2421 -1.0605
   94MOL0     C12867   6.710   2.140   8.990 -0.3772 -0.1294 -1.1602
   94MOL0     C12868   6.705   2.186   9.126  0.2533 -0.5529  0.1989
   94MOL0     C12869   6.751   2.114   9.232  0.7167 -0.0771 -0.2445
   94MOL0     O12870   6.755   2.176   9.358  0.5880 -0.3988  0.1715
   94MOL0     C12871   6.807   2.105   9.471  1.0110  0.1386 -0.3543
   94MOL0     C12872   6.688   2.029   9.543  0.3115  0.6110 -1.1709
   94MOL0     C12873   6.619   2.108   9.649  0.0686  0.5114  0.2314
   94MOL0     C12874   6.493   2.034   9.710 -0.5486 -0.6200 -0.6137
   94MOL0     C12875   6.377   1.993   9.623 -0.0376 -0.2757 -0.7819
   94MOL0     C12876   6.266   1.943   9.715 -0.2870  0.5799 -0.4407
   94MOL0     C12877   6.316   1.831   9.813  0.0288  0.2512  0.2657
   94MOL0     C12878   6.198   1.755   9.884 -0.5595  0.3745  0.0041
   94MOL0    Cl12879   6.061   1.860   9.920  0.3356 -0.4590 -0.1070
   94MOL0     C12880   6.805   1.983   9.202  0.2016 -0.2384 -1.2388
   94MOL0     C12881   6.793   1.931   9.072  0.0605 -0.1765  1.1459
   94MOL0     O12882   6.559   1.830   8.883 -0.2394 -0.0103  0.1672
   94MOL0     C12883   6.730   1.883   8.570  0.7962 -0.9451  0.1444
   94MOL0     C12884   6.736   1.856   8.434 -1.3443 -0.1765  0.1944
   94MOL0     N12885   6.578   1.963   7.554  0.1074 -0.0572 -0.4832
   94MOL0     N12886   6.651   1.974   7.442 -0.9220 -0.4950 -0.6036
   94MOL0     C12887   7.769   2.672   7.088 -0.4374 -0.7645  0.3206
   94MOL0     C12888   7.894   2.733   7.110  0.5222 -0.8584  0.8595
   94MOL0     C12889   8.238   2.924   7.296  0.0598 -0.3672  0.4830
   94MOL0     C12890   8.287   2.839   7.404  1.0098  0.7953 -0.0640
   94MOL0     C12891   8.369   2.890   7.505 -1.0895  0.0782  0.7354
   94MOL0     C12892   8.393   3.024   7.500  0.5000  1.1699 -0.8612
   94MOL0     O12893   8.458   3.071   7.605  0.3281 -0.2552  0.0029
   94MOL0     C12894   8.599   3.102   7.580  0.3407 -0.6814 -1.1632
   94MOL0     C12895   8.682   2.979   7.591  0.8878  0.2900  0.8232
   94MOL0     C12896   8.681   2.916   7.732  0.0752  0.2091  0.1195
   94MOL0     C12897   8.698   2.765   7.723  0.5699  0.0736 -0.5965
   94MOL0     C12898   8.682   2.711   7.862 -0.3517  0.3290  0.0024
   94MOL0     C12899   8.667   2.667   7.977  0.0024 -0.2892 -0.2764
   94MOL0     C12900   8.361   3.105   7.398 -0.6123 -0.4752 -0.3685
   94MOL0     C12901   8.286   3.056   7.296 -0.4542  0.4374 -0.0865
   94MOL0     C12902   8.226   3.158   7.197  0.6456  0.7205  0.8387
   94MOL0     H12903   8.019   2.529   7.333 -0.3409  0.3716 -0.4397
   94MOL0     H12904   7.826   2.407   7.296  1.3455  1.3558  2.5640
   94MOL0     H12905   7.642   2.317   7.217 -1.2987 -2.8416 -0.2726
   94MOL0     H12906   7.688   2.315   7.046  0.5313 -0.4201  0.4558
   94MOL0     H12907   7.445   2.334   6.996  2.1884  3.0177  0.1493
   94MOL0     H12908   7.510   2.186   7.064  1.4553  1.0014 -0.8764
   94MOL0     H12909   7.440   2.309   7.303 -0.3631  1.2435  1.0491
   94MOL0     H12910   7.324   2.394   7.206 -0.2527 -1.7963  0.2156
   94MOL0     H12911   7.241   2.181   7.108  2.5017 -0.4873 -0.9582
   94MOL0     H12912   7.336   2.082   7.212 -2.4895 -0.9258 -4.9785
   94MOL0     H12913   7.120   2.281   7.294  0.9122 -0.1404 -2.3718
   94MOL0     H12914   7.232   2.217   7.417 -1.0280 -0.5647  1.1626
   94MOL0     H12915   7.061   2.055   7.219  0.8755 -0.0877 -0.6052
   94MOL0     H12916   7.183   1.983   7.316 -0.0971  0.3980  2.0716
   94MOL0     H12917   6.963   2.138   7.468  1.2667 -0.1915  3.1198
   94MOL0     H12918   7.049   2.002   7.525  0.0651 -0.7666 -0.7216
   94MOL0     H12919   6.865   1.976   7.299 -1.4287  0.0217  1.1425
   94MOL0     H12920   6.940   1.841   7.384  3.0810  0.0115 -0.2966
   94MOL0     H12921   6.876   1.895   7.676 -0.8115 -1.4508 -1.3333
   94MOL0     H12922   6.524   1.877   7.802  1.4708 -1.0504 -2.2107
   94MOL0     H12923   6.596   2.032   7.840 -0.3018  0.7364  0.4703
   94MOL0     H12924   6.747   1.767   7.870 -0.1346 -1.8786  1.3146
   94MOL0     H12925   6.797   1.932   7.924 -0.0063 -0.1114  1.4156
   94MOL0     H12926   6.558   1.929   8.057 -0.3200 -1.0888  1.4910
   94MOL0     H12927   6.556   1.756   8.008  1.3759 -1.9668 -0.6693
   94MOL0     H12928   6.773   1.731   8.108 -0.7952  0.4167  0.2198
   94MOL0     H12929   6.776   1.893   8.173 -2.0739  2.0171  1.4994
   94MOL0     H12930   6.439   1.697   8.420  0.1807 -0.1671  0.7794
   94MOL0     H12931   6.302   1.729   8.620 -0.1866  1.1905 -1.2283
   94MOL0     H12932   6.363   1.829   8.753 -0.7692 -1.0869  1.3668
   94MOL0     H12933   6.395   1.656   8.745 -2.4149  1.9911  1.1722
   94MOL0     H12934   6.663   2.205   8.918 -1.7441 -2.5925 -2.6374
   94MOL0     H12935   6.677   2.288   9.147 -1.2032 -0.9892  0.4429
   94MOL0     H12936   6.893   2.040   9.452  0.6942  0.1095 -1.8223
   94MOL0     H12937   6.843   2.186   9.535  0.4627  1.0042 -1.1163
   94MOL0     H12938   6.614   2.012   9.465  1.4189  1.2161 -2.3810
   94MOL0     H12939   6.730   1.940   9.591 -2.3772  1.1307  2.6062
   94MOL0     H12940   6.589   2.197   9.594 -2.4280  0.3775  1.2707
   94MOL0     H12941   6.690   2.133   9.729  0.6628 -1.0093  0.2120
   94MOL0     H12942   6.456   2.110   9.779  5.5328  2.1671  0.2536
   94MOL0     H12943   6.535   1.956   9.774  2.9524  1.8089  0.3250
   94MOL0     H12944   6.347   2.079   9.563 -1.0577  0.8166  1.2073
   94MOL0     H12945   6.421   1.922   9.552  3.0097  0.4850  0.1903
   94MOL0     H12946   6.183   1.903   9.656  0.0543  1.7544 -1.7695
   94MOL0     H12947   6.228   2.020   9.783 -0.5677 -0.8570  1.0859
   94MOL0     H12948   6.376   1.875   9.893 -0.3291 -1.0514  1.2845
   94MOL0     H12949   6.371   1.758   9.752 -2.7939 -1.2076 -0.7271
   94MOL0     H12950   6.240   1.708   9.973 -0.4481 -1.2592 -0.8866
   94MOL0     H12951   6.162   1.682   9.812 -1.8485  0.6689  0.3126
   94MOL0     H12952   6.842   1.920   9.282 -2.3273 -0.6022 -0.2737
   94MOL0     H12953   6.831   1.833   9.048 -2.9164 -0.5584 -2.9898
   94MOL0     H12954   6.817   1.927   8.617 -0.0854  2.5475 -1.1874
   94MOL0     H12955   6.823   1.884   8.376 -1.3216  1.5060  0.9699
   94MOL0     H12956   7.705   2.719   7.014  0.3036 -1.8710 -1.0841
   94MOL0     H12957   7.902   2.835   7.074  4.2996 -0.8336  1.4114
   94MOL0     H12958   8.256   2.735   7.410  3.7446 -0.0408  2.6129
   94MOL0     H12959   8.410   2.832   7.587 -0.0270  1.6993  1.3981
   94MOL0     H12960   8.617   3.138   7.478  0.6395  2.4538 -0.0814
   94MOL0     H12961   8.635   3.180   7.647 -0.1077 -0.0399 -1.6649
   94MOL0     H12962   8.783   3.010   7.560 -0.4992  4.9945  0.1729
   94MOL0     H12963   8.634   2.909   7.522 -1.6662  1.2654  1.4941
   94MOL0     H12964   8.745   2.979   7.794  2.5565 -1.3440 -0.7208
   94MOL0     H12965   8.584   2.939   7.777 -0.9271 -0.4471 -1.5971
   94MOL0     H12966   8.795   2.745   7.677  0.0463 -2.9087 -0.6203
   94MOL0     H12967   8.617   2.719   7.666 -0.3288  0.9650 -0.0617
   94MOL0     H12968   8.619   2.621   8.061  2.3643 -0.8717  0.8455
   94MOL0     H12969   8.403   3.205   7.406 -3.0336  0.4354  4.5381
   94MOL0     H12970   8.241   3.264   7.220 -2.8396  1.3948  0.4856
   94MOL0     H12971   8.260   3.131   7.097 -1.6549 -2.2601  0.7049
   94MOL0     H12972   8.119   3.137   7.197  0.2365  2.5963 -0.2135
   95MOL0     O12973   5.602  11.268   4.848 -0.2574 -0.2340 -0.2227
   95MOL0     C12974   5.686  11.351   4.862  0.2818  0.3632  0.1032
   95MOL0     O12975   5.664  11.471   4.912 -0.5861  0.4614 -0.2344
   95MOL0     C12976   5.542  11.533   4.911  0.4035  0.0839 -0.2109
   95MOL0     C12977   5.517  11.637   5.002 -0.0551  0.0197 -0.1487
   95MOL0     C12978   5.389  11.708   5.015 -0.7250 -0.2071  0.0605
   95MOL0     C12979   5.283  11.656   4.938 -0.4497 -0.1315 -0.4575
   95MOL0     O12980   5.162  11.724   4.952 -0.2807  0.4786 -0.0472
   95MOL0     C12981   5.049  11.652   4.958  0.1662 -0.4111 -0.6059
   95MOL0     C12982   4.963  11.739   5.050 -0.3706 -0.2351 -1.4049
   95MOL0     C12983   4.829  11.653   5.099 -0.7439 -0.0691 -0.5745
   95MOL0     C12984   4.742  11.615   4.980  1.2565  0.2002  0.0232
   95MOL0     C12985   4.614  11.537   5.028  0.3030 -0.4457  0.2977
   95MOL0     C12986   4.504  11.612   5.110 -0.1279  0.8169  0.0379
   95MOL0     C12987   4.378  11.524   5.156 -0.2175  0.6986  0.5389
   95MOL0     C12988   4.274  11.465   5.052 -1.6779 -0.1485 -0.3993
   95MOL0     N12989   4.239  11.560   4.950 -0.1599  0.2205  0.4569
   95MOL0     C12990   4.132  11.646   4.931 -0.1972  0.5337 -0.9162
   95MOL0     C12991   4.136  11.673   4.794 -0.3183 -0.9917 -0.0985
   95MOL0     C12992   4.036  11.766   4.719  0.5265 -0.2165  0.1731
   95MOL0     C12993   3.890  11.713   4.742  0.0287  0.6286 -0.2709
   95MOL0     C12994   3.783  11.810   4.673  0.6340  0.1465 -0.1941
   95MOL0     C12995   3.644  11.762   4.680  0.5762 -0.8794 -0.3924
   95MOL0     O12996   3.579  11.757   4.813  0.4369  0.7326  0.6156
   95MOL0     C12997   3.538  11.869   4.878 -0.7127  0.6642 -0.6501
   95MOL0     C12998   3.468  11.854   4.996  0.1729 -0.7958  0.3837
   95MOL0     C12999   3.432  11.968   5.073  0.3815  0.9341  0.1357
   95MOL0     C13000   3.377  11.944   5.215 -0.1753 -0.5026  0.2166
   95MOL0     C13001   3.442  12.097   5.016 -0.5124 -0.5649  0.3141
   95MOL0     C13002   3.393  12.225   5.073 -0.5033 -0.8500 -0.2572
   95MOL0     O13003   3.301  12.227   5.171 -0.1048 -0.4076 -0.0440
   95MOL0     C13004   3.221  12.331   5.182 -0.0728  0.3387  0.5294
   95MOL0     C13005   3.163  12.348   5.309  1.2710  0.6341  0.4571
   95MOL0     C13006   3.069  12.446   5.331  0.1564 -0.2938 -0.9520
   95MOL0     C13007   3.029  12.537   5.229 -0.8022  0.2108 -0.0352
   95MOL0     O13008   2.948  12.645   5.249 -0.2109  0.9532  0.6724
   95MOL0     C13009   2.906  12.667   5.387 -0.0131 -0.9413 -0.8242
   95MOL0     C13010   2.844  12.805   5.401 -0.0631 -0.7976  0.2860
   95MOL0     C13011   2.765  12.814   5.530  0.1562  0.3173  0.5394
   95MOL0     C13012   2.680  12.940   5.531  0.0978 -0.8727  0.5742
   95MOL0     C13013   2.739  13.085   5.525  0.2795  0.1439 -0.3168
   95MOL0     C13014   2.630  13.196   5.569 -0.3616 -1.2580  0.3423
   95MOL0     C13015   2.697  13.331   5.597 -0.2880 -0.0256 -0.3953
   95MOL0     C13016   2.657  13.425   5.486  0.0274  0.7943 -0.1913
   95MOL0    Cl13017   2.487  13.461   5.501  0.1649  0.1217  0.1669
   95MOL0     C13018   3.072  12.508   5.100  0.3673  0.4591 -0.0828
   95MOL0     C13019   3.165  12.406   5.074 -0.5038 -0.0238  0.5051
   95MOL0     O13020   3.451  12.331   5.042  0.5713 -0.0284 -0.1132
   95MOL0     C13021   3.510  12.115   4.895  0.0371  0.1192  0.1900
   95MOL0     C13022   3.559  11.997   4.829  1.2188 -0.3260 -0.6650
   95MOL0     N13023   4.252  11.627   4.740  0.2511  0.4881 -0.0471
   95MOL0     N13024   4.312  11.558   4.834  1.4260 -0.4795  0.2444
   95MOL0     C13025   5.303  11.556   4.842  0.1808 -0.9045 -0.0097
   95MOL0     C13026   5.435  11.502   4.821  0.1504  0.2046  0.8627
   95MOL0     C13027   5.830  11.312   4.835 -0.4025 -0.4459 -0.5609
   95MOL0     C13028   5.854  11.180   4.782 -0.4120 -0.5036  0.4057
   95MOL0     C13029   5.976  11.136   4.746 -0.0018 -0.2407 -0.7794
   95MOL0     C13030   6.085  11.221   4.762  0.1029  0.0135 -0.2709
   95MOL0     O13031   6.210  11.191   4.714 -0.6079  0.0400  0.0978
   95MOL0     C13032   6.221  11.093   4.610  0.5712 -0.4760  0.2260
   95MOL0     C13033   6.369  11.065   4.588  0.7930 -0.5913 -1.6233
   95MOL0     C13034   6.380  10.971   4.475 -0.2698  0.8429  0.3951
   95MOL0     C13035   6.395  10.819   4.521 -0.6226 -0.1924 -0.5099
   95MOL0     C13036   6.296  10.763   4.613  0.2443  0.1666  0.1511
   95MOL0     C13037   6.224  10.702   4.689  1.0141  0.2383  0.4458
   95MOL0     C13038   6.071  11.348   4.812 -0.1349 -0.5454  0.1781
   95MOL0     C13039   5.942  11.403   4.849 -1.1118 -0.2918 -0.6159
   95MOL0     C13040   5.925  11.549   4.884  0.3625  0.1757 -0.4275
   95MOL0     H13041   5.608  11.666   5.054  0.4507 -2.4289  0.4266
   95MOL0     H13042   5.366  11.800   5.067 -0.1800 -0.0420  0.0074
   95MOL0     H13043   5.071  11.557   5.006  0.9273  0.5422  1.0459
   95MOL0     H13044   5.001  11.648   4.860 -0.5674 -0.2158 -0.2616
   95MOL0     H13045   5.023  11.756   5.139 -1.0867  0.2472 -1.0011
   95MOL0     H13046   4.928  11.833   5.006 -0.0381  0.4216 -0.3114
   95MOL0     H13047   4.857  11.560   5.150 -0.7739  0.6598  0.8115
   95MOL0     H13048   4.766  11.701   5.174 -1.3438 -1.2719 -0.2891
   95MOL0     H13049   4.692  11.691   4.919 -1.2178 -2.6367 -1.7282
   95MOL0     H13050   4.798  11.541   4.923  0.1793 -1.3581  0.9082
   95MOL0     H13051   4.643  11.447   5.083  0.0368 -1.1366 -0.6630
   95MOL0     H13052   4.566  11.491   4.942 -0.9722  1.0614  0.1660
   95MOL0     H13053   4.553  11.661   5.194  1.0446  0.0758 -0.1932
   95MOL0     H13054   4.474  11.695   5.045  3.6381  2.5487  0.2159
   95MOL0     H13055   4.324  11.596   5.217 -1.8739 -1.8395  2.2686
   95MOL0     H13056   4.406  11.438   5.219  1.3533 -0.2105 -1.2974
   95MOL0     H13057   4.309  11.366   5.019  0.0945  0.4572 -0.4472
   95MOL0     H13058   4.190  11.439   5.117  1.1419  0.0365  3.6765
   95MOL0     H13059   4.052  11.679   4.996  1.8262 -1.1983  2.7840
   95MOL0     H13060   4.051  11.770   4.610 -3.6741  1.6661 -0.5198
   95MOL0     H13061   4.046  11.867   4.759 -2.6083 -1.0748  3.6435
   95MOL0     H13062   3.882  11.614   4.696  1.5655  1.2653 -2.0274
   95MOL0     H13063   3.871  11.707   4.850  1.5664  1.4972  0.0803
   95MOL0     H13064   3.791  11.911   4.713  0.9323  0.3124 -0.6608
   95MOL0     H13065   3.800  11.821   4.565 -0.3589  0.9404 -0.2860
   95MOL0     H13066   3.578  11.832   4.626 -1.2352 -1.7601  0.6100
   95MOL0     H13067   3.630  11.664   4.633  0.9162 -0.5266 -1.2586
   95MOL0     H13068   3.453  11.754   5.037 -2.7902 -0.4937  0.3059
   95MOL0     H13069   3.385  12.043   5.262 -2.9175  0.5339 -1.2411
   95MOL0     H13070   3.429  11.868   5.273  2.7242  1.0398 -0.1919
   95MOL0     H13071   3.275  11.906   5.202 -0.0653 -1.0117  0.7994
   95MOL0     H13072   3.202  12.301   5.398 -0.3074  1.7829  1.8321
   95MOL0     H13073   3.028  12.452   5.432 -1.3856  1.0478 -1.6034
   95MOL0     H13074   2.831  12.590   5.409 -2.1947  1.4963  0.9658
   95MOL0     H13075   2.996  12.670   5.449  0.0339 -1.0975 -0.8838
   95MOL0     H13076   2.910  12.891   5.392  1.0598 -1.3537  2.4063
   95MOL0     H13077   2.785  12.821   5.311 -0.9010  1.0696  1.1310
   95MOL0     H13078   2.830  12.815   5.618  2.4632  3.5287 -1.0489
   95MOL0     H13079   2.696  12.732   5.556  2.1494 -0.5009  3.8941
   95MOL0     H13080   2.644  12.940   5.634 -0.4820 -2.2076  0.3851
   95MOL0     H13081   2.590  12.936   5.470 -1.0503  1.3101  1.9802
   95MOL0     H13082   2.824  13.091   5.593 -1.8577  2.6598  2.3726
   95MOL0     H13083   2.771  13.095   5.421 -1.5957  1.0873 -0.8492
   95MOL0     H13084   2.578  13.163   5.660  1.3229 -1.0101  1.4502
   95MOL0     H13085   2.561  13.206   5.485 -1.3919 -2.6908  0.9801
   95MOL0     H13086   2.803  13.311   5.616 -0.1606  1.7387  0.9535
   95MOL0     H13087   2.661  13.380   5.688 -0.2821  0.6461 -0.7478
   95MOL0     H13088   2.671  13.380   5.387 -0.6506 -2.8499  1.1854
   95MOL0     H13089   2.719  13.514   5.489  2.1700 -0.5525 -1.5997
   95MOL0     H13090   3.023  12.583   5.038 -1.1766  1.1167  1.8045
   95MOL0     H13091   3.189  12.408   4.969  1.0716  2.4052  0.8229
   95MOL0     H13092   3.513  12.214   4.850 -5.1037  1.2829  1.7212
   95MOL0     H13093   3.609  12.013   4.734 -1.8632 -0.1223 -2.3546
   95MOL0     H13094   5.222  11.523   4.778 -0.1178  0.3404 -0.2971
   95MOL0     H13095   5.440  11.438   4.733  2.5173  0.3332  0.8480
   95MOL0     H13096   5.771  11.113   4.760  0.2887 -0.9573 -0.9653
   95MOL0     H13097   5.974  11.037   4.702 -3.1697 -1.0224  0.8525
   95MOL0     H13098   6.167  10.999   4.625  0.4863 -0.8587 -2.0558
   95MOL0     H13099   6.179  11.141   4.521 -0.4505 -0.0617  0.9082
   95MOL0     H13100   6.414  11.017   4.676  3.3123 -1.2244 -3.1349
   95MOL0     H13101   6.425  11.158   4.572 -1.5142  1.2329  0.2613
   95MOL0     H13102   6.288  10.974   4.417 -0.2583  1.3783  0.3992
   95MOL0     H13103   6.463  10.979   4.404 -0.1999  0.2450  0.4024
   95MOL0     H13104   6.483  10.816   4.586 -0.5697  0.6423 -0.5342
   95MOL0     H13105   6.420  10.758   4.434  1.1321  2.6386 -2.1237
   95MOL0     H13106   6.160  10.645   4.753  0.0076  1.3670  0.4843
   95MOL0     H13107   6.161  11.407   4.824  1.0630 -2.1231 -0.6278
   95MOL0     H13108   6.025  11.592   4.886  0.7989 -0.8271  1.8485
   95MOL0     H13109   5.861  11.609   4.818  0.8924 -0.7238 -1.8210
   95MOL0     H13110   5.890  11.557   4.987  0.1871  1.7878 -0.5935
   96MOL0     O13111   1.583  10.287   9.583 -0.1069 -0.0231 -0.0329
   96MOL0     C13112   1.661  10.312   9.489 -0.0217 -0.0887  0.2719
   96MOL0     O13113   1.688  10.438   9.453  0.4626  0.2583 -0.2124
   96MOL0     C13114   1.631  10.541   9.513  0.5547  0.7990 -0.2380
   96MOL0     C13115   1.502  10.586   9.468  0.3333  0.3403 -0.2045
   96MOL0     C13116   1.443  10.695   9.526  1.3338 -0.1913 -0.8867
   96MOL0     C13117   1.513  10.768   9.617  0.2314 -0.2420  0.5043
   96MOL0     O13118   1.467  10.881   9.674 -0.3001 -1.1919 -0.3606
   96MOL0     C13119   1.354  10.955   9.612 -0.2205 -0.0873 -0.0516
   96MOL0     C13120   1.318  11.081   9.687 -0.0841 -0.0226  0.5534
   96MOL0     C13121   1.268  11.050   9.833  0.0259  0.6250 -0.0513
   96MOL0     C13122   1.152  10.951   9.841  0.3641 -0.7755 -0.1009
   96MOL0     C13123   1.107  10.933   9.986  0.1691 -0.6723 -0.4066
   96MOL0     C13124   0.985  10.843   9.987  0.0038 -0.3884 -0.0610
   96MOL0     C13125   0.989  10.746  10.113  0.0764  0.2892 -0.4087
   96MOL0     C13126   0.862  10.662  10.128  0.1863  0.0824 -0.1126
   96MOL0     N13127   0.827  10.579  10.013  0.7923  0.5408  0.1662
   96MOL0     C13128   0.819  10.440  10.031 -0.2070 -0.8484  0.0448
   96MOL0     C13129   0.799  10.392   9.905 -0.4866  0.2894  0.9057
   96MOL0     C13130   0.801  10.250   9.857  0.0679  0.0362 -0.2540
   96MOL0     C13131   0.668  10.177   9.878  0.3073 -1.0553 -0.2856
   96MOL0     C13132   0.667  10.034   9.822  0.0874  0.1555  0.1303
   96MOL0     C13133   0.545   9.948   9.861 -0.4121  0.6149  1.1404
   96MOL0     O13134   0.556   9.826   9.793  0.8432  0.3116  0.0577
   96MOL0     C13135   0.617   9.719   9.850 -0.9046 -0.0873  0.3855
   96MOL0     C13136   0.600   9.607   9.785  0.9097 -0.1703 -0.2573
   96MOL0     C13137   0.646   9.488   9.823  0.3451 -0.2083  0.9974
   96MOL0     C13138   0.627   9.368   9.730 -0.5294 -0.3483 -0.5097
   96MOL0     C13139   0.728   9.477   9.943  1.2539 -0.8237  0.4128
   96MOL0     C13140   0.810   9.369   9.987  0.5064 -0.2530 -0.5104
   96MOL0     O13141   0.827   9.259   9.906 -0.0856 -0.2927 -0.0833
   96MOL0     C13142   0.922   9.170   9.941 -0.6914  0.2893 -0.1245
   96MOL0     C13143   0.908   9.044   9.889 -1.4528  0.4958  0.5066
   96MOL0     C13144   1.008   8.948   9.893 -1.3585 -0.0968  0.2135
   96MOL0     C13145   1.132   8.984   9.954 -0.6136  0.0513 -0.1923
   96MOL0     O13146   1.232   8.887   9.957  0.0268  0.1352  0.2519
   96MOL0     C13147   1.255   8.793  10.068  1.1394 -0.7839 -0.6372
   96MOL0     C13148   1.391   8.819  10.125  0.0307  0.1246 -0.5950
   96MOL0     C13149   1.499   8.796  10.017 -0.4396 -0.2595 -0.1218
   96MOL0     C13150   1.646   8.821  10.070  0.8312 -0.2936  0.0467
   96MOL0     C13151   1.740   8.742   9.975  0.3451  0.2729 -0.8978
   96MOL0     C13152   1.743   8.598  10.009  0.3090 -0.3184 -0.2918
   96MOL0     C13153   1.862   8.532   9.940 -0.9884 -0.3781  0.4662
   96MOL0     C13154   1.856   8.383   9.959  0.3782 -0.0009  0.0326
   96MOL0    Cl13155   1.987   8.316   9.871 -0.6198 -0.2435 -0.1671
   96MOL0     C13156   1.147   9.111   9.999  0.1982 -0.1456 -1.5455
   96MOL0     C13157   1.052   9.211   9.990  0.9698 -0.3179 -0.9139
   96MOL0     O13158   0.853   9.379  10.103  0.5365 -0.3712  0.6452
   96MOL0     C13159   0.758   9.599  10.010  0.1335 -1.1203  0.1814
   96MOL0     C13160   0.709   9.724   9.954  0.4609  0.4107  0.3099
   96MOL0     N13161   0.784  10.501   9.821  0.0854  0.3684  1.6143
   96MOL0     N13162   0.798  10.617   9.889  0.6961 -0.4580 -0.0244
   96MOL0     C13163   1.644  10.739   9.659 -0.4136 -0.1295  0.6640
   96MOL0     C13164   1.701  10.619   9.610 -1.0152  0.3434  1.0787
   96MOL0     C13165   1.690  10.202   9.396 -0.0080  0.3639 -0.0424
   96MOL0     C13166   1.701  10.248   9.260  0.2174 -0.6781  0.5156
   96MOL0     C13167   1.704  10.151   9.153 -0.0882  0.2366 -0.1949
   96MOL0     C13168   1.699  10.010   9.180 -0.0565 -0.2238 -1.4881
   96MOL0     O13169   1.693   9.926   9.068 -0.8616  0.5275 -0.1818
   96MOL0     C13170   1.713   9.785   9.097  0.5083  0.1748  0.1108
   96MOL0     C13171   1.743   9.695   8.974 -0.4228 -1.1442 -0.2612
   96MOL0     C13172   1.611   9.669   8.888  0.1501 -0.0591  1.0168
   96MOL0     C13173   1.641   9.606   8.744  1.0389 -0.1841 -0.2972
   96MOL0     C13174   1.530   9.516   8.687  1.1926 -1.3263 -1.4517
   96MOL0     C13175   1.459   9.443   8.631 -0.2151 -0.0446 -0.0462
   96MOL0     C13176   1.694   9.972   9.321  0.1079 -1.0503 -0.5963
   96MOL0     C13177   1.701  10.067   9.422 -0.3058 -0.3243 -0.3307
   96MOL0     C13178   1.688  10.008   9.552 -0.7085 -0.2622  0.0604
   96MOL0     H13179   1.441  10.542   9.389  0.0987  0.3363 -0.0226
   96MOL0     H13180   1.346  10.734   9.499  1.1386  0.0412  0.1315
   96MOL0     H13181   1.265  10.891   9.619  0.4795 -0.8866  2.1228
   96MOL0     H13182   1.382  10.982   9.510 -1.3565  3.2180  0.3986
   96MOL0     H13183   1.400  11.151   9.703  0.8634 -1.2012  1.0746
   96MOL0     H13184   1.231  11.123   9.636 -0.4445  0.5877  1.6273
   96MOL0     H13185   1.346  10.997   9.888 -0.9963  1.4424  2.3365
   96MOL0     H13186   1.248  11.142   9.889 -1.0614 -0.2980  1.1386
   96MOL0     H13187   1.070  10.998   9.787  0.9707  0.4325 -0.0053
   96MOL0     H13188   1.176  10.850   9.806 -1.8570 -2.6723  3.3083
   96MOL0     H13189   1.065  11.024  10.030 -0.3286 -0.2307 -1.7435
   96MOL0     H13190   1.195  10.905  10.045  0.9278 -0.4916 -1.4214
   96MOL0     H13191   0.891  10.897  10.002 -0.4136 -1.0802 -0.1261
   96MOL0     H13192   0.981  10.782   9.896 -2.9436 -0.5767  0.1135
   96MOL0     H13193   1.010  10.806  10.202 -1.0511  0.3202 -0.1515
   96MOL0     H13194   1.074  10.678  10.107  0.3633  0.5464  0.5952
   96MOL0     H13195   0.876  10.602  10.219  2.6072 -0.4524 -0.7717
   96MOL0     H13196   0.781  10.733  10.147 -1.1461 -0.8325 -2.0165
   96MOL0     H13197   0.846  10.379  10.117  0.5195 -3.2951 -1.8052
   96MOL0     H13198   0.875  10.196   9.917 -0.5173  0.2830  0.7192
   96MOL0     H13199   0.829  10.231   9.753  0.1854  1.1660 -0.4449
   96MOL0     H13200   0.632  10.186   9.981  1.8444 -2.4671  0.4142
   96MOL0     H13201   0.580  10.221   9.830  0.6713 -0.9839 -0.8947
   96MOL0     H13202   0.690  10.014   9.716 -0.4007 -1.8209  0.3608
   96MOL0     H13203   0.757   9.990   9.868  0.1927 -1.2797 -1.3185
   96MOL0     H13204   0.535   9.935   9.969 -0.7033 -0.3345  1.0062
   96MOL0     H13205   0.455   9.994   9.818  0.7862  1.7176 -0.2838
   96MOL0     H13206   0.534   9.604   9.699 -2.7877 -0.4644  2.2975
   96MOL0     H13207   0.724   9.327   9.700 -1.2598 -0.8698 -2.3553
   96MOL0     H13208   0.560   9.392   9.647 -4.6219 -0.5823  2.4679
   96MOL0     H13209   0.588   9.292   9.798  1.4138 -1.1135 -0.1645
   96MOL0     H13210   0.816   9.013   9.839 -2.9139  2.5927  1.7106
   96MOL0     H13211   0.993   8.846   9.860 -0.6122 -1.4056  3.5208
   96MOL0     H13212   1.183   8.824  10.144  0.9029 -4.6497  0.9456
   96MOL0     H13213   1.227   8.688  10.052  2.2462 -1.2465  0.2648
   96MOL0     H13214   1.379   8.923  10.158 -1.7193 -0.4131  0.5895
   96MOL0     H13215   1.412   8.751  10.209 -0.2259  1.3399  0.4897
   96MOL0     H13216   1.483   8.858   9.929 -0.7817  0.6599  0.5753
   96MOL0     H13217   1.495   8.690   9.988 -1.7070 -0.5936  1.1880
   96MOL0     H13218   1.645   8.794  10.176 -1.6176  3.3990  1.1372
   96MOL0     H13219   1.660   8.929  10.062 -0.1823  0.1425  3.1398
   96MOL0     H13220   1.717   8.756   9.869  3.9575  3.6556 -1.4450
   96MOL0     H13221   1.841   8.775  10.001 -0.7165  0.5906  3.8930
   96MOL0     H13222   1.652   8.545   9.980 -0.8371  1.5432 -0.2481
   96MOL0     H13223   1.753   8.589  10.117 -3.1487 -0.9271  0.0806
   96MOL0     H13224   1.954   8.565   9.990 -1.7168  0.3809  1.3458
   96MOL0     H13225   1.865   8.560   9.834  1.0158  1.5599  0.9485
   96MOL0     H13226   1.759   8.338   9.933  0.2905  0.3510 -0.2618
   96MOL0     H13227   1.862   8.359  10.065 -2.9287 -1.2249  0.0877
   96MOL0     H13228   1.246   9.139  10.034 -0.0293 -1.2924  0.1188
   96MOL0     H13229   1.067   9.316  10.010 -0.1711 -0.2776 -0.2187
   96MOL0     H13230   0.821   9.603  10.098  0.2095  0.3204  0.0858
   96MOL0     H13231   0.735   9.817  10.004 -0.2015 -0.3332  2.1483
   96MOL0     H13232   1.701  10.798   9.730 -0.0604  2.6706 -1.7337
   96MOL0     H13233   1.798  10.580   9.640 -0.9121 -0.6445 -0.4415
   96MOL0     H13234   1.672  10.350   9.233  3.0682  0.7015  2.1937
   96MOL0     H13235   1.691  10.189   9.051 -0.2940 -1.0559 -0.6609
   96MOL0     H13236   1.803   9.777   9.159  0.8146  0.7040 -0.2555
   96MOL0     H13237   1.619   9.757   9.145 -0.4772  3.1114  0.0662
   96MOL0     H13238   1.795   9.603   9.004 -0.6457 -0.6609  1.8068
   96MOL0     H13239   1.809   9.757   8.913 -1.5940  1.9998  1.4361
   96MOL0     H13240   1.548   9.600   8.944 -0.1815 -0.9987 -0.4472
   96MOL0     H13241   1.558   9.764   8.881 -0.6619 -0.6036 -0.9587
   96MOL0     H13242   1.732   9.547   8.750  0.0172 -2.0265 -1.7518
   96MOL0     H13243   1.663   9.682   8.669  0.8323  0.3937  0.2233
   96MOL0     H13244   1.392   9.385   8.570 -0.7518  2.4971 -2.0563
   96MOL0     H13245   1.681   9.867   9.347  1.1179 -0.6966  1.4929
   96MOL0     H13246   1.581   9.994   9.570 -1.1036  0.6606 -1.4852
   96MOL0     H13247   1.750   9.918   9.552  0.4678  0.5024 -1.3610
   96MOL0     H13248   1.726  10.079   9.626 -1.8236 -1.1067  1.5063
   97MOL0     O13249   8.627   9.977   5.083 -0.1682 -0.0780 -0.5336
   97MOL0     C13250   8.679  10.016   4.975  0.0726  0.0443 -0.3755
   97MOL0     O13251   8.725   9.928   4.876 -0.5144  0.5038  0.0308
   97MOL0     C13252   8.717   9.795   4.905 -0.7041 -0.1253 -0.0541
   97MOL0     C13253   8.805   9.729   4.992  0.3933 -0.1446 -0.7466
   97MOL0     C13254   8.787   9.589   5.011  0.4299 -0.0174 -0.6308
   97MOL0     C13255   8.694   9.512   4.938 -0.3881  0.0834 -0.0955
   97MOL0     O13256   8.698   9.378   4.953  0.9270  0.0857 -0.5519
   97MOL0     C13257   8.570   9.322   4.980  0.4443 -0.2766  0.2898
   97MOL0     C13258   8.597   9.186   5.043 -0.1398 -0.3608  0.4427
   97MOL0     C13259   8.674   9.087   4.961  0.4318 -0.2891 -0.4458
   97MOL0     C13260   8.625   9.057   4.825  1.3160  0.0805 -0.4382
   97MOL0     C13261   8.684   8.926   4.768  0.6001 -0.1955  0.2510
   97MOL0     C13262   8.596   8.850   4.658  0.8469 -1.3987  0.2592
   97MOL0     C13263   8.589   8.938   4.533  1.1570 -0.4233  1.5320
   97MOL0     C13264   8.549   8.856   4.411  0.1547 -0.7291  0.1628
   97MOL0     N13265   8.620   8.732   4.395  0.0707 -0.2432 -0.1323
   97MOL0     C13266   8.747   8.725   4.357  0.0172 -0.2984 -0.6113
   97MOL0     C13267   8.774   8.589   4.364 -0.3122 -0.2773 -0.5034
   97MOL0     C13268   8.916   8.538   4.334  0.4379 -0.4635  0.1083
   97MOL0     C13269   8.960   8.447   4.453  0.2580 -0.2639  0.2597
   97MOL0     C13270   8.950   8.522   4.587 -0.5410  0.1746 -0.7422
   97MOL0     C13271   9.037   8.453   4.698 -0.6991  0.1771  0.6320
   97MOL0     O13272   9.172   8.487   4.666 -0.3120  0.6641  0.0763
   97MOL0     C13273   9.266   8.457   4.758  0.0783  0.3121  0.3778
   97MOL0     C13274   9.398   8.479   4.717  1.2480 -0.2320  0.3276
   97MOL0     C13275   9.507   8.459   4.808  0.8884 -0.5548 -0.3337
   97MOL0     C13276   9.644   8.458   4.751 -0.6791  0.1122  0.4831
   97MOL0     C13277   9.487   8.431   4.946 -0.1577 -0.8853 -0.3488
   97MOL0     C13278   9.599   8.424   5.049  0.2025 -0.9017  0.2761
   97MOL0     O13279   9.565   8.334   5.155  0.0171  0.4468  0.0033
   97MOL0     C13280   9.643   8.318   5.267 -0.0877 -1.1834 -0.2802
   97MOL0     C13281   9.584   8.262   5.386 -0.1327 -0.6056  0.1431
   97MOL0     C13282   9.661   8.247   5.502 -0.1469  0.3162 -0.3942
   97MOL0     C13283   9.795   8.278   5.499 -0.3848 -0.0998 -0.4731
   97MOL0     O13284   9.885   8.256   5.599  0.2313 -0.3640 -0.9585
   97MOL0     C13285   9.864   8.152   5.699 -0.7393 -0.1155  0.1001
   97MOL0     C13286   9.996   8.062   5.714  0.4624  0.1490  0.0944
   97MOL0     C13287  10.112   8.159   5.754  0.2560 -0.0527  0.1132
   97MOL0     C13288  10.248   8.099   5.770  0.7323 -0.5131 -0.4017
   97MOL0     C13289  10.264   7.967   5.839  0.1063 -0.1864 -0.8207
   97MOL0     C13290  10.415   7.943   5.860  0.0280 -0.4488 -1.2101
   97MOL0     C13291  10.442   7.856   5.982 -0.3169 -0.6237 -0.8674
   97MOL0     C13292  10.596   7.827   6.017  0.5048 -0.2179  0.3460
   97MOL0    Cl13293  10.687   7.983   6.026  0.4649  0.5591 -0.0499
   97MOL0     C13294   9.853   8.330   5.385 -0.2158 -0.5291 -0.9714
   97MOL0     C13295   9.782   8.347   5.272  0.0619 -0.5159  0.2709
   97MOL0     O13296   9.708   8.491   5.034 -0.3390 -0.0545  0.2878
   97MOL0     C13297   9.350   8.401   4.978  0.3226  0.5948 -0.0846
   97MOL0     C13298   9.237   8.422   4.890 -0.5729  0.1868 -1.0732
   97MOL0     N13299   8.662   8.515   4.390 -0.1501  0.9860 -0.9059
   97MOL0     N13300   8.575   8.607   4.396  0.4673  0.9832  0.0288
   97MOL0     C13301   8.606   9.581   4.858  0.3368 -0.6247  1.4962
   97MOL0     C13302   8.622   9.719   4.838  0.8307 -0.4299  0.7971
   97MOL0     C13303   8.717  10.161   4.940  0.5559  0.1084  0.1219
   97MOL0     C13304   8.753  10.186   4.808  0.2819  0.3619  1.1654
   97MOL0     C13305   8.800  10.310   4.756  0.1761 -0.5012 -0.5303
   97MOL0     C13306   8.780  10.418   4.837 -0.3943 -1.5456 -0.0262
   97MOL0     O13307   8.814  10.538   4.783  0.3621  0.3186 -0.1268
   97MOL0     C13308   8.863  10.640   4.869  0.1799  0.2417 -0.4116
   97MOL0     C13309   9.003  10.613   4.906 -0.0541  0.2359  0.0251
   97MOL0     C13310   9.077  10.717   4.999  0.7826 -0.7789  0.2043
   97MOL0     C13311   9.205  10.647   5.057  0.2722 -0.3089  0.1691
   97MOL0     C13312   9.272  10.747   5.139 -0.5555 -0.4834  1.1754
   97MOL0     C13313   9.327  10.840   5.194 -0.2337  0.6669 -0.0947
   97MOL0     C13314   8.729  10.406   4.971  0.2701 -1.0282 -0.9453
   97MOL0     C13315   8.700  10.275   5.024 -0.0660 -0.0269 -0.0878
   97MOL0     C13316   8.654  10.276   5.171 -1.0772 -0.0284  0.5193
   97MOL0     H13317   8.880   9.787   5.045 -0.9283 -0.6697  1.8416
   97MOL0     H13318   8.832   9.532   5.092  0.5707 -0.2015 -0.8394
   97MOL0     H13319   8.520   9.305   4.884 -1.7400 -1.6565  1.5730
   97MOL0     H13320   8.504   9.387   5.037  0.1120 -0.3157 -0.0432
   97MOL0     H13321   8.661   9.200   5.130  0.8973 -1.0361 -0.1973
   97MOL0     H13322   8.509   9.141   5.089 -0.5321  0.7899  0.8739
   97MOL0     H13323   8.779   9.111   4.942  0.8727 -3.4951 -2.9504
   97MOL0     H13324   8.672   8.995   5.020 -1.4289 -0.7811 -1.2222
   97MOL0     H13325   8.516   9.061   4.817  1.4030  1.0404 -1.2494
   97MOL0     H13326   8.665   9.134   4.759  0.4096  0.5017 -0.5100
   97MOL0     H13327   8.691   8.862   4.856  2.9324  1.3825  1.3286
   97MOL0     H13328   8.784   8.924   4.724 -0.2476 -0.7611 -1.7741
   97MOL0     H13329   8.634   8.748   4.646  2.4936 -0.9566  1.3007
   97MOL0     H13330   8.501   8.832   4.709 -0.1510  0.7386 -0.7413
   97MOL0     H13331   8.678   8.998   4.512 -0.6615  2.3711  1.3000
   97MOL0     H13332   8.515   9.017   4.551  2.4769  0.1520  5.3461
   97MOL0     H13333   8.443   8.826   4.411 -0.7449  2.1224 -0.1184
   97MOL0     H13334   8.551   8.913   4.318  1.7277 -3.5014 -1.6551
   97MOL0     H13335   8.812   8.809   4.334 -1.5709  1.0021 -0.5508
   97MOL0     H13336   8.984   8.624   4.331 -0.9639  0.6663 -0.5127
   97MOL0     H13337   8.918   8.488   4.237  0.2750  1.1686 -0.7810
   97MOL0     H13338   8.906   8.353   4.463  0.7077 -0.2584  3.7794
   97MOL0     H13339   9.063   8.414   4.436  0.6672  0.0351  1.9979
   97MOL0     H13340   8.989   8.623   4.572  1.9419 -0.2892  1.7489
   97MOL0     H13341   8.845   8.514   4.619  0.0176 -1.2840  0.8766
   97MOL0     H13342   9.018   8.490   4.799  2.5666 -0.5653  1.6512
   97MOL0     H13343   9.031   8.344   4.706  0.9747 -0.1012 -1.1726
   97MOL0     H13344   9.419   8.501   4.612 -1.1371 -0.4176 -0.2375
   97MOL0     H13345   9.667   8.564   4.737  2.6476 -0.6451 -0.7505
   97MOL0     H13346   9.648   8.417   4.650  0.9058  0.9962  0.1515
   97MOL0     H13347   9.725   8.408   4.805  1.4944  2.0709 -0.7689
   97MOL0     H13348   9.487   8.215   5.380 -0.0485 -0.7321 -0.2702
   97MOL0     H13349   9.619   8.214   5.597  0.6158  3.7348  1.2764
   97MOL0     H13350   9.845   8.199   5.795  0.4449  2.9138 -1.0281
   97MOL0     H13351   9.781   8.083   5.679  2.1902 -3.6309 -0.9986
   97MOL0     H13352   9.986   7.977   5.783  0.9934 -1.0372 -1.2489
   97MOL0     H13353  10.022   8.026   5.614  1.4391 -0.9476  0.7087
   97MOL0     H13354  10.086   8.222   5.839  1.6251 -0.5105  0.8912
   97MOL0     H13355  10.133   8.222   5.667  2.1694 -1.5244 -0.5601
   97MOL0     H13356  10.311   8.170   5.824  0.0927 -0.6961  0.6001
   97MOL0     H13357  10.290   8.105   5.669  2.3152  1.2464  0.2913
   97MOL0     H13358  10.208   7.969   5.934 -0.5415  0.2916 -1.2041
   97MOL0     H13359  10.215   7.883   5.790 -0.5606  1.1581 -2.5718
   97MOL0     H13360  10.470   8.037   5.869 -0.6752  0.1268 -2.6577
   97MOL0     H13361  10.451   7.897   5.768  2.3910  1.6922 -1.4662
   97MOL0     H13362  10.402   7.758   5.955 -0.7693 -0.6961  0.0205
   97MOL0     H13363  10.391   7.891   6.072  1.5068  2.3150 -0.8488
   97MOL0     H13364  10.637   7.769   5.934 -0.2977 -0.4024  0.0675
   97MOL0     H13365  10.610   7.769   6.109  2.1252  2.4006  1.8891
   97MOL0     H13366   9.955   8.368   5.383 -0.1840 -0.5455  0.0440
   97MOL0     H13367   9.836   8.404   5.197 -0.2283  2.1866  1.9693
   97MOL0     H13368   9.341   8.369   5.081  0.9106 -2.4092 -0.8802
   97MOL0     H13369   9.140   8.406   4.935 -0.5311  0.9089 -0.7220
   97MOL0     H13370   8.522   9.542   4.801  1.1210 -0.6152  0.3019
   97MOL0     H13371   8.560   9.767   4.764  0.7193 -0.2231  1.0249
   97MOL0     H13372   8.760  10.101   4.741 -1.4201  0.8023  0.3622
   97MOL0     H13373   8.815  10.327   4.650  0.2924  1.0766 -0.2819
   97MOL0     H13374   8.869  10.741   4.828  0.0509  1.9094  3.3699
   97MOL0     H13375   8.799  10.664   4.954  0.9889 -2.6366  1.1536
   97MOL0     H13376   9.069  10.606   4.818  0.9969  1.6636  0.6451
   97MOL0     H13377   9.011  10.514   4.952 -1.8074  0.9485  1.9796
   97MOL0     H13378   9.096  10.803   4.935 -1.0904 -0.2367  0.3081
   97MOL0     H13379   9.020  10.773   5.074  0.0943  1.7302 -2.0546
   97MOL0     H13380   9.268  10.603   4.979  1.1290 -0.2806  0.8317
   97MOL0     H13381   9.176  10.563   5.121  2.3712 -0.8612  0.4828
   97MOL0     H13382   9.376  10.925   5.237  0.8802  0.0726 -0.1615
   97MOL0     H13383   8.696  10.488   5.035  0.5325 -0.6805 -1.2513
   97MOL0     H13384   8.553  10.318   5.181 -1.4135 -0.5490 -0.5747
   97MOL0     H13385   8.647  10.172   5.206 -1.0645 -0.7191 -1.4423
   97MOL0     H13386   8.726  10.330   5.232 -0.9863 -0.3310  0.6844
   98MOL0     O13387   4.566  10.614   2.825 -0.1680  0.0107 -0.2451
   98MOL0     C13388   4.487  10.591   2.738  0.1206 -0.3606 -0.0212
   98MOL0     O13389   4.503  10.507   2.636 -0.0740  0.7170 -0.0867
   98MOL0     C13390   4.622  10.446   2.617 -0.1392 -0.0385 -0.3383
   98MOL0     C13391   4.637  10.304   2.624  0.1361 -0.1030  0.0041
   98MOL0     C13392   4.739  10.243   2.561 -0.5848  0.2903  0.0338
   98MOL0     C13393   4.842  10.318   2.506 -0.4174  0.0739 -0.2137
   98MOL0     O13394   4.948  10.262   2.444 -0.0389  0.6545  0.3520
   98MOL0     C13395   4.979  10.121   2.458  0.1977  1.2038 -0.0850
   98MOL0     C13396   5.111  10.081   2.391  0.3781  0.1287  0.7596
   98MOL0     C13397   5.130   9.931   2.388 -0.8218  0.1422  0.4078
   98MOL0     C13398   5.271   9.906   2.342 -0.0816  0.1677 -0.8021
   98MOL0     C13399   5.293   9.756   2.313 -0.4976  0.2818 -0.4610
   98MOL0     C13400   5.439   9.726   2.332  0.6990 -0.0522  0.3834
   98MOL0     C13401   5.468   9.585   2.276 -0.0109 -0.5379 -0.4539
   98MOL0     C13402   5.619   9.553   2.280 -0.1828 -0.0318 -0.0201
   98MOL0     N13403   5.655   9.428   2.213  0.0777  0.4992 -0.0749
   98MOL0     C13404   5.777   9.410   2.150  0.2507 -0.8937  0.3470
   98MOL0     C13405   5.786   9.282   2.112 -0.4902  0.0539  0.7221
   98MOL0     C13406   5.904   9.220   2.021  0.2570  0.4239  0.6116
   98MOL0     C13407   6.015   9.140   2.091  0.1731  0.2588 -0.1441
   98MOL0     C13408   5.957   9.033   2.184 -0.3928  0.5751  0.6936
   98MOL0     C13409   6.068   8.945   2.238 -0.0740 -0.2247 -0.2027
   98MOL0     O13410   6.094   8.857   2.136  0.0427  0.2369  0.7148
   98MOL0     C13411   6.204   8.773   2.137  0.2413 -0.0920 -0.4861
   98MOL0     C13412   6.204   8.679   2.034 -0.9835 -0.5120  0.6801
   98MOL0     C13413   6.319   8.594   2.029 -0.5754  0.1109 -0.8836
   98MOL0     C13414   6.317   8.501   1.919  0.9539  0.5793  0.3465
   98MOL0     C13415   6.429   8.597   2.129  0.5813  0.3619 -0.2712
   98MOL0     C13416   6.550   8.521   2.112 -0.2105  0.5097 -1.3075
   98MOL0     O13417   6.662   8.552   2.199  1.1770  0.6685 -0.5217
   98MOL0     C13418   6.790   8.540   2.155  0.1719 -0.3311  0.1319
   98MOL0     C13419   6.838   8.543   2.020  0.4328 -0.3878  0.0178
   98MOL0     C13420   6.974   8.532   2.002  1.2646  0.1063 -0.4787
   98MOL0     C13421   7.066   8.506   2.092 -0.7675  0.1702  0.1192
   98MOL0     O13422   7.195   8.497   2.049 -0.5357 -0.1222 -0.1267
   98MOL0     C13423   7.296   8.502   2.153 -0.2454 -0.5837  0.2189
   98MOL0     C13424   7.418   8.467   2.080 -0.0242  0.7627  0.2866
   98MOL0     C13425   7.546   8.501   2.152 -0.8449  0.6215  0.2513
   98MOL0     C13426   7.579   8.649   2.152  0.6962 -0.4999  0.6396
   98MOL0     C13427   7.706   8.668   2.233 -0.3789 -0.7213 -0.5013
   98MOL0     C13428   7.736   8.823   2.247 -0.0761  1.0231  0.2213
   98MOL0     C13429   7.879   8.864   2.271 -0.1463  0.7429 -0.4632
   98MOL0     C13430   7.888   8.991   2.349  0.0389 -0.8418 -0.2850
   98MOL0    Cl13431   8.058   9.062   2.356 -0.1834  0.6324 -0.5708
   98MOL0     C13432   7.021   8.496   2.222  0.3774 -0.3813 -0.1368
   98MOL0     C13433   6.887   8.515   2.260 -0.0273 -0.4553 -1.0135
   98MOL0     O13434   6.558   8.434   2.028  0.1777  0.4085  0.6500
   98MOL0     C13435   6.420   8.703   2.224  0.8316  0.2287 -1.1715
   98MOL0     C13436   6.307   8.792   2.228 -0.3427  0.7957  0.7522
   98MOL0     N13437   5.675   9.226   2.170  0.0196  0.7895  1.1085
   98MOL0     N13438   5.594   9.305   2.224  0.6338 -0.3946 -0.4630
   98MOL0     C13439   4.832  10.459   2.497  0.4075  0.4567 -0.1059
   98MOL0     C13440   4.720  10.517   2.554  0.0188 -0.1478  0.4051
   98MOL0     C13441   4.344  10.637   2.774 -0.0008 -0.2699  0.3535
   98MOL0     C13442   4.244  10.565   2.717 -0.3845  0.2293  0.0518
   98MOL0     C13443   4.109  10.596   2.729  0.3707  0.1196 -0.2694
   98MOL0     C13444   4.068  10.694   2.821 -0.7095 -0.4131  0.1606
   98MOL0     O13445   3.942  10.722   2.859 -0.4217 -0.2329 -0.1316
   98MOL0     C13446   3.837  10.631   2.840  0.6798  1.1529 -0.2550
   98MOL0     C13447   3.714  10.677   2.924  0.1693  0.9459  0.7302
   98MOL0     C13448   3.642  10.798   2.860  0.6238 -0.4234 -0.1323
   98MOL0     C13449   3.600  10.901   2.969 -0.7497  0.1464  0.3787
   98MOL0     C13450   3.484  10.854   3.056  0.0898  0.6021  0.1204
   98MOL0     C13451   3.388  10.803   3.118 -0.5713 -0.9593 -0.4425
   98MOL0     C13452   4.168  10.777   2.882 -0.8474  0.1624  0.1642
   98MOL0     C13453   4.305  10.745   2.858  0.4856 -1.0629  0.0431
   98MOL0     C13454   4.401  10.840   2.928 -0.1006 -0.5286 -1.3614
   98MOL0     H13455   4.560  10.247   2.674  3.0010 -4.7170 -0.2559
   98MOL0     H13456   4.708  10.139   2.551 -0.8001  0.3791 -0.2282
   98MOL0     H13457   4.898  10.066   2.409  0.7114  1.5840 -1.3897
   98MOL0     H13458   4.985  10.095   2.564  0.8591 -2.3608 -0.8675
   98MOL0     H13459   5.098  10.113   2.287 -0.8380 -1.3214  0.4183
   98MOL0     H13460   5.191  10.135   2.442  1.6971  0.2139 -1.2963
   98MOL0     H13461   5.114   9.874   2.480 -1.0941 -3.1113 -1.4605
   98MOL0     H13462   5.061   9.888   2.314  2.6154 -3.4645 -1.1047
   98MOL0     H13463   5.290   9.957   2.247  1.1678 -1.2559 -1.3572
   98MOL0     H13464   5.337   9.950   2.417 -3.8929  1.1003  2.3226
   98MOL0     H13465   5.261   9.730   2.212  0.3167  0.7962 -0.8612
   98MOL0     H13466   5.236   9.694   2.383  0.4461 -0.0314  0.0490
   98MOL0     H13467   5.497   9.797   2.273  0.2960  0.4574  0.5957
   98MOL0     H13468   5.464   9.736   2.438 -0.9411 -0.4152  0.8278
   98MOL0     H13469   5.426   9.576   2.175 -0.5147  0.3394 -0.3343
   98MOL0     H13470   5.416   9.517   2.345 -0.4740 -1.8189 -1.9988
   98MOL0     H13471   5.673   9.635   2.231  0.2687  1.1830  2.3361
   98MOL0     H13472   5.665   9.567   2.378 -4.5573  0.3428  2.1917
   98MOL0     H13473   5.848   9.485   2.119  1.0779 -2.2725 -1.2763
   98MOL0     H13474   5.949   9.304   1.967  0.8523 -0.5778 -0.4851
   98MOL0     H13475   5.853   9.153   1.952 -0.5648 -0.1901  1.7914
   98MOL0     H13476   6.071   9.092   2.009  0.3361 -0.1464  0.1974
   98MOL0     H13477   6.087   9.204   2.143  1.4573 -2.1818  1.3033
   98MOL0     H13478   5.897   9.081   2.262  1.6023  0.0924  2.6340
   98MOL0     H13479   5.895   8.967   2.123  0.1363  0.1110  0.6562
   98MOL0     H13480   6.160   8.999   2.259  1.2281 -2.0448 -0.9495
   98MOL0     H13481   6.035   8.891   2.327  0.4444 -0.9493 -0.4456
   98MOL0     H13482   6.114   8.675   1.973 -0.8756  2.2277  0.2176
   98MOL0     H13483   6.233   8.519   1.851  2.5969  2.9255 -1.2107
   98MOL0     H13484   6.307   8.401   1.964 -1.5070 -0.3433 -1.9691
   98MOL0     H13485   6.408   8.511   1.860  1.3509  1.6938  1.1090
   98MOL0     H13486   6.777   8.583   1.939 -0.8895  1.5975  1.8862
   98MOL0     H13487   7.006   8.556   1.901 -1.3462  1.4585 -1.0689
   98MOL0     H13488   7.292   8.599   2.204 -1.8302 -0.8980  0.7360
   98MOL0     H13489   7.289   8.431   2.236  0.9192  1.1372  1.8825
   98MOL0     H13490   7.420   8.359   2.065  0.5902  0.9799 -1.4934
   98MOL0     H13491   7.410   8.505   1.978 -1.4263  0.2608  0.1881
   98MOL0     H13492   7.630   8.445   2.111  1.0029 -0.4947  4.9427
   98MOL0     H13493   7.549   8.455   2.251  0.5857  0.5766  0.2063
   98MOL0     H13494   7.495   8.697   2.203 -2.9639 -3.4543 -2.0153
   98MOL0     H13495   7.585   8.680   2.047 -3.2629 -1.1847  0.0295
   98MOL0     H13496   7.703   8.620   2.331 -0.3746  1.0509  0.3954
   98MOL0     H13497   7.789   8.630   2.172 -0.5594 -1.9681 -0.0016
   98MOL0     H13498   7.662   8.838   2.325 -0.0166  1.0379  0.2747
   98MOL0     H13499   7.702   8.868   2.153 -0.7362  0.7452  0.3217
   98MOL0     H13500   7.943   8.870   2.182  4.0810 -1.3526  2.1470
   98MOL0     H13501   7.935   8.791   2.330  0.4994  0.2325 -1.6554
   98MOL0     H13502   7.852   8.975   2.451  0.3909  2.5816  0.4757
   98MOL0     H13503   7.820   9.062   2.302  1.1524 -0.2579 -1.0637
   98MOL0     H13504   7.096   8.471   2.296 -0.3580 -0.1639  0.7076
   98MOL0     H13505   6.867   8.523   2.366  1.3525  1.3271 -0.8482
   98MOL0     H13506   6.500   8.712   2.297 -0.2386 -0.7311  0.1708
   98MOL0     H13507   6.300   8.859   2.313 -2.4041  0.5141  0.8441
   98MOL0     H13508   4.909  10.521   2.452  0.4795  0.3036 -0.1980
   98MOL0     H13509   4.698  10.619   2.525 -4.6060 -0.8266  0.7404
   98MOL0     H13510   4.274  10.486   2.649 -1.4498  0.1417 -0.3373
   98MOL0     H13511   4.034  10.545   2.670 -0.3393  0.5012  0.2791
   98MOL0     H13512   3.803  10.629   2.735 -2.0994  1.5337  0.5525
   98MOL0     H13513   3.857  10.529   2.874 -2.0348  0.0993 -1.5370
   98MOL0     H13514   3.747  10.688   3.028 -0.2750 -0.7987  1.0935
   98MOL0     H13515   3.642  10.596   2.943  3.2216 -1.9951  0.5692
   98MOL0     H13516   3.705  10.852   2.788 -1.3345 -0.0888 -1.6839
   98MOL0     H13517   3.558  10.767   2.797  1.2427  1.8845 -2.2349
   98MOL0     H13518   3.568  10.991   2.916  1.7116 -0.9581 -3.4111
   98MOL0     H13519   3.684  10.934   3.031  0.2785  3.4670 -2.4820
   98MOL0     H13520   3.298  10.767   3.164 -0.4966 -0.5961 -0.0042
   98MOL0     H13521   4.152  10.863   2.947 -0.6858  0.0630  0.3391
   98MOL0     H13522   4.503  10.801   2.922  0.0089 -0.6886  0.7483
   98MOL0     H13523   4.396  10.946   2.905  2.2164  0.5523  2.2032
   98MOL0     H13524   4.364  10.837   3.031 -0.4699  0.0452 -1.4743
   99MOL0     O13525   6.307   1.097   6.876  0.3144  0.3830 -0.3840
   99MOL0     C13526   6.236   1.012   6.830 -0.5415  0.2456 -1.2550
   99MOL0     O13527   6.232   0.891   6.891 -0.0924  0.4179 -0.7713
   99MOL0     C13528   6.291   0.879   7.015  1.1001  0.5034  0.1034
   99MOL0     C13529   6.206   0.888   7.141 -0.3025 -1.0085 -0.4799
   99MOL0     C13530   6.271   0.876   7.266 -0.0269 -0.2608  0.6801
   99MOL0     C13531   6.410   0.860   7.276 -0.3102  0.2382 -0.2609
   99MOL0     O13532   6.482   0.843   7.396  0.0329 -0.2453 -0.2243
   99MOL0     C13533   6.487   0.967   7.480 -0.3702 -0.2503  0.5494
   99MOL0     C13534   6.605   1.054   7.430  0.7050 -0.2275  0.0370
   99MOL0     C13535   6.648   1.165   7.527 -0.7429 -0.3260  0.8466
   99MOL0     C13536   6.758   1.247   7.457 -0.0103 -0.1060  0.0670
   99MOL0     C13537   6.821   1.343   7.557  0.4191  0.0818 -0.0902
   99MOL0     C13538   6.947   1.422   7.514  0.2441  0.1428  0.4337
   99MOL0     C13539   6.969   1.563   7.588 -0.2408  0.2834 -0.8231
   99MOL0     C13540   7.017   1.531   7.735 -0.3819 -0.2235 -0.8003
   99MOL0     N13541   7.065   1.656   7.797  0.6625 -1.3348  0.1027
   99MOL0     C13542   7.181   1.722   7.765  0.2393 -0.2230 -0.2337
   99MOL0     C13543   7.177   1.824   7.850  0.0218  0.2130 -0.4358
   99MOL0     C13544   7.292   1.910   7.884  0.1678  0.7906  0.3797
   99MOL0     C13545   7.329   1.994   7.761  0.3787  0.8421  0.0986
   99MOL0     C13546   7.457   2.080   7.779 -0.0281  1.0635 -0.5975
   99MOL0     C13547   7.587   2.000   7.796  0.2176  0.4315 -0.0751
   99MOL0     O13548   7.707   2.086   7.786  0.6295  0.0421  0.3957
   99MOL0     C13549   7.827   2.025   7.798 -0.2759 -0.0754 -0.3570
   99MOL0     C13550   7.873   1.904   7.740  0.3122  0.0863  0.7678
   99MOL0     C13551   8.013   1.864   7.733 -0.4056 -0.2177  0.3948
   99MOL0     C13552   8.047   1.730   7.689 -0.3876  2.0316  0.2593
   99MOL0     C13553   8.101   1.957   7.792  0.3114  0.3508  0.0579
   99MOL0     C13554   8.242   1.933   7.761 -0.4476  0.3332 -0.7860
   99MOL0     O13555   8.331   1.940   7.863  0.4372 -0.1344  0.3542
   99MOL0     C13556   8.467   1.920   7.844  1.0796  0.6539 -0.3635
   99MOL0     C13557   8.552   1.970   7.945 -0.2591 -0.0303 -0.4804
   99MOL0     C13558   8.691   1.949   7.944 -0.0441 -0.6151 -0.0904
   99MOL0     C13559   8.750   1.877   7.846  0.0021 -0.1769  0.1646
   99MOL0     O13560   8.886   1.865   7.824  0.1601 -0.9780 -0.5087
   99MOL0     C13561   8.960   1.992   7.821 -0.6640 -0.2285 -0.2073
   99MOL0     C13562   9.105   1.960   7.816 -0.9112  0.1869 -0.3377
   99MOL0     C13563   9.198   2.082   7.806 -0.0799  1.0611 -0.5709
   99MOL0     C13564   9.195   2.150   7.669  0.4590  0.0740 -0.3290
   99MOL0     C13565   9.327   2.203   7.609  0.0244  0.1939 -0.0060
   99MOL0     C13566   9.383   2.319   7.695 -0.2908  0.2314  0.5842
   99MOL0     C13567   9.521   2.370   7.637  0.3105  0.1895  0.6006
   99MOL0     C13568   9.563   2.512   7.673 -0.0095 -0.0166  0.8068
   99MOL0    Cl13569   9.626   2.515   7.841 -0.2519  0.1988 -0.1810
   99MOL0     C13570   8.667   1.814   7.753 -0.3415  0.0854 -0.1927
   99MOL0     C13571   8.530   1.847   7.745 -0.1760 -0.0148 -0.5810
   99MOL0     O13572   8.268   1.937   7.642 -1.0086  0.5290 -0.8493
   99MOL0     C13573   8.065   2.081   7.845  0.0752  1.1606 -0.3588
   99MOL0     C13574   7.928   2.107   7.848 -1.1295 -1.0008 -0.0095
   99MOL0     N13575   7.058   1.837   7.913  0.5051  0.0188 -0.2654
   99MOL0     N13576   6.996   1.728   7.886 -0.3029 -0.2634 -0.3077
   99MOL0     C13577   6.487   0.850   7.158  0.2576  0.3659 -0.2700
   99MOL0     C13578   6.423   0.862   7.026 -0.3257  1.0344  0.2309
   99MOL0     C13579   6.172   1.035   6.700  0.4890 -0.0865 -0.1124
   99MOL0     C13580   6.139   0.926   6.613  0.4249  0.2475 -0.7871
   99MOL0     C13581   6.059   0.944   6.501  0.2547  0.2090  0.2355
   99MOL0     C13582   5.993   1.067   6.469  0.4210  0.1366  0.5132
   99MOL0     O13583   5.912   1.062   6.360  0.1584  0.2063 -1.1367
   99MOL0     C13584   5.861   1.187   6.312  0.6615  1.1619 -0.3478
   99MOL0     C13585   5.709   1.208   6.344 -0.7581 -0.3482 -0.8766
   99MOL0     C13586   5.674   1.359   6.314  0.9827  0.0521  0.9350
   99MOL0     C13587   5.527   1.369   6.269  0.8555 -0.3417  0.1739
   99MOL0     C13588   5.483   1.500   6.219 -1.1942 -0.2633 -0.2827
   99MOL0     C13589   5.435   1.607   6.176 -0.2126  0.0838  0.0726
   99MOL0     C13590   6.019   1.167   6.560 -0.6743 -0.2083 -1.4421
   99MOL0     C13591   6.120   1.156   6.658 -0.5794 -0.1797 -0.9503
   99MOL0     C13592   6.167   1.286   6.717  0.7057  0.6947  0.0284
   99MOL0     H13593   6.101   0.909   7.125  0.0907  2.4153  0.6168
   99MOL0     H13594   6.218   0.870   7.361 -0.5048 -3.0804  0.3165
   99MOL0     H13595   6.490   0.942   7.587 -1.9422 -3.4807 -0.0235
   99MOL0     H13596   6.390   1.016   7.468 -1.0024 -2.1205 -5.0782
   99MOL0     H13597   6.695   0.991   7.432 -0.1607 -1.5228 -0.2124
   99MOL0     H13598   6.582   1.079   7.326  3.3031  2.7896  0.0273
   99MOL0     H13599   6.569   1.234   7.556 -1.2671 -1.0922  1.2684
   99MOL0     H13600   6.694   1.112   7.612  0.5636  0.3385  0.5847
   99MOL0     H13601   6.832   1.179   7.414 -2.1820 -0.6091 -3.2308
   99MOL0     H13602   6.728   1.302   7.367  2.5638  2.5516  0.6662
   99MOL0     H13603   6.843   1.283   7.647 -0.3885 -3.2664 -1.9500
   99MOL0     H13604   6.744   1.416   7.582  2.7870  3.1112 -1.0776
   99MOL0     H13605   7.035   1.357   7.523 -0.5959 -1.0869  0.0464
   99MOL0     H13606   6.931   1.439   7.407  0.1802  1.3937  0.6339
   99MOL0     H13607   6.877   1.621   7.599 -0.1789 -0.1059  2.5858
   99MOL0     H13608   7.042   1.621   7.530  1.0291 -0.8182 -0.3734
   99MOL0     H13609   6.944   1.479   7.798 -1.2653  0.6982 -1.0138
   99MOL0     H13610   7.108   1.471   7.743  0.3607  0.7332 -1.7039
   99MOL0     H13611   7.262   1.683   7.704 -0.6050  0.9079 -2.1746
   99MOL0     H13612   7.376   1.844   7.908 -1.1769 -0.8905  0.6636
   99MOL0     H13613   7.275   1.971   7.973 -1.0304 -1.7900  2.0298
   99MOL0     H13614   7.335   1.930   7.673 -1.8248 -2.5276  2.1792
   99MOL0     H13615   7.251   2.066   7.732  1.2212  0.0733 -4.9277
   99MOL0     H13616   7.480   2.137   7.688  1.2870 -0.7479 -1.4787
   99MOL0     H13617   7.437   2.144   7.865 -1.0040 -3.1592  2.6512
   99MOL0     H13618   7.573   1.946   7.890 -0.7110  0.6530 -0.0811
   99MOL0     H13619   7.594   1.931   7.711  2.0677  0.2114  0.2114
   99MOL0     H13620   7.797   1.833   7.708  1.2104  0.0327 -1.4113
   99MOL0     H13621   7.957   1.673   7.716  0.8951 -0.6571 -0.9218
   99MOL0     H13622   8.136   1.693   7.740 -0.0984  1.2537 -0.7886
   99MOL0     H13623   8.066   1.721   7.582 -1.3189 -1.2104  0.2778
   99MOL0     H13624   8.499   2.022   8.025  2.1150 -0.0713  1.2066
   99MOL0     H13625   8.744   1.990   8.030 -0.3977 -3.2165  1.4647
   99MOL0     H13626   8.938   2.055   7.735 -1.1818 -0.1670 -0.0328
   99MOL0     H13627   8.936   2.047   7.912 -1.7017  0.5911 -0.9555
   99MOL0     H13628   9.139   1.898   7.899  0.1449  2.0758  0.7246
   99MOL0     H13629   9.126   1.897   7.729 -5.7810 -0.3829 -1.3691
   99MOL0     H13630   9.291   2.024   7.808 -0.4223  0.5054  0.7185
   99MOL0     H13631   9.192   2.160   7.882 -1.0442  0.8715 -0.4326
   99MOL0     H13632   9.122   2.232   7.669 -0.8570 -1.0134  1.3965
   99MOL0     H13633   9.159   2.084   7.590  2.2096 -1.4922  0.1116
   99MOL0     H13634   9.406   2.130   7.593 -0.2582 -0.3472  0.9969
   99MOL0     H13635   9.292   2.248   7.516  0.1050  0.0249 -0.1176
   99MOL0     H13636   9.403   2.279   7.795 -0.5807 -1.5346 -0.0266
   99MOL0     H13637   9.320   2.407   7.709  2.0195  2.2297 -0.7989
   99MOL0     H13638   9.519   2.373   7.527  2.5438  3.0789  0.5364
   99MOL0     H13639   9.602   2.299   7.658  0.4851  0.2540  0.1604
   99MOL0     H13640   9.484   2.587   7.662 -2.8052 -2.7196  0.9344
   99MOL0     H13641   9.636   2.541   7.597 -2.5073 -1.2532 -2.2928
   99MOL0     H13642   8.717   1.764   7.671 -1.0831 -1.9414  0.5371
   99MOL0     H13643   8.471   1.813   7.661 -2.5313 -0.8134  1.2577
   99MOL0     H13644   8.137   2.141   7.899 -3.4513  4.2778  1.2750
   99MOL0     H13645   7.887   2.201   7.885  0.6951 -0.2702  0.3083
   99MOL0     H13646   6.595   0.841   7.158  0.2045 -0.5579 -1.6549
   99MOL0     H13647   6.483   0.844   6.938  3.2131  0.1300  2.6102
   99MOL0     H13648   6.177   0.827   6.636  3.0764  1.2334 -0.5896
   99MOL0     H13649   6.035   0.860   6.437 -1.5134 -0.4273  1.6587
   99MOL0     H13650   5.917   1.276   6.343 -2.6575  4.9182 -3.9082
   99MOL0     H13651   5.862   1.188   6.203  0.0646 -0.8660 -0.4114
   99MOL0     H13652   5.695   1.210   6.452 -0.4970  3.4189 -0.7844
   99MOL0     H13653   5.645   1.136   6.293  0.7857 -1.7834 -0.8820
   99MOL0     H13654   5.670   1.414   6.409 -1.5511  0.4357  0.6752
   99MOL0     H13655   5.738   1.405   6.238 -1.1202  2.8554  0.7039
   99MOL0     H13656   5.459   1.350   6.352 -2.7788  0.9265 -2.2555
   99MOL0     H13657   5.508   1.297   6.188 -1.0217  1.5573 -1.1845
   99MOL0     H13658   5.396   1.695   6.130 -2.3547 -0.8616 -0.0248
   99MOL0     H13659   5.974   1.265   6.546  0.0482  0.5913  1.2561
   99MOL0     H13660   6.139   1.372   6.657  0.3077  2.6435  2.8290
   99MOL0     H13661   6.124   1.303   6.816 -0.7944  0.8806 -0.6372
   99MOL0     H13662   6.276   1.287   6.729  0.4257  1.0586  3.4723
  100MOL0     O13663   3.819   3.065   7.864  0.4448 -0.1326 -0.3836
  100MOL0     C13664   3.708   3.107   7.887  0.0364 -1.1969 -0.0331
  100MOL0     O13665   3.667   3.195   7.984 -1.2694  0.0754  0.5227
  100MOL0     C13666   3.762   3.257   8.059  0.6654  0.8163 -0.1555
  100MOL0     C13667   3.742   3.260   8.191  0.2920 -0.3923  0.5275
  100MOL0     C13668   3.831   3.326   8.276  0.5681 -0.2393  0.1542
  100MOL0     C13669   3.950   3.393   8.219  1.2261  0.0809  0.0915
  100MOL0     O13670   4.035   3.458   8.299 -0.3837  0.0227 -0.2444
  100MOL0     C13671   4.169   3.462   8.260 -0.2294 -0.2946 -0.2496
  100MOL0     C13672   4.252   3.475   8.387  0.4983 -0.1644 -0.1120
  100MOL0     C13673   4.227   3.604   8.463  0.7224 -0.4813 -0.1112
  100MOL0     C13674   4.223   3.733   8.381  0.4852  0.9873  0.0430
  100MOL0     C13675   4.255   3.857   8.468 -0.4478 -0.1446  0.6410
  100MOL0     C13676   4.406   3.872   8.501  0.2565 -0.6231 -0.3440
  100MOL0     C13677   4.440   4.017   8.536  0.1755 -0.3285 -0.9595
  100MOL0     C13678   4.585   4.049   8.501 -0.9256  0.0034  0.3608
  100MOL0     N13679   4.601   4.199   8.501  0.0440 -0.7162  0.7423
  100MOL0     C13680   4.647   4.277   8.600  0.2174 -0.3400 -0.8697
  100MOL0     C13681   4.616   4.408   8.553  0.0265  0.0840 -0.1694
  100MOL0     C13682   4.666   4.521   8.636 -1.0068  0.0229  0.1009
  100MOL0     C13683   4.806   4.498   8.714 -0.2715 -0.4613  1.2295
  100MOL0     C13684   4.820   4.634   8.790  0.3967  0.3585  0.7642
  100MOL0     C13685   4.964   4.657   8.829  0.1627  0.5811  1.2453
  100MOL0     O13686   5.050   4.665   8.709 -0.2003 -0.3402 -0.1596
  100MOL0     C13687   5.183   4.668   8.744 -0.4746 -0.2178 -0.3955
  100MOL0     C13688   5.284   4.623   8.653  0.1696 -0.1952  0.2859
  100MOL0     C13689   5.429   4.653   8.677  0.8463 -0.4652 -0.5255
  100MOL0     C13690   5.530   4.610   8.579  0.0374 -0.0269  0.4578
  100MOL0     C13691   5.466   4.715   8.795  0.3926 -0.2777 -0.6601
  100MOL0     C13692   5.607   4.767   8.830 -0.1772  0.1528  0.3519
  100MOL0     O13693   5.638   4.768   8.960 -0.1841 -1.0793 -0.7402
  100MOL0     C13694   5.737   4.857   9.007 -0.4198 -1.0208 -0.7698
  100MOL0     C13695   5.845   4.802   9.073  0.6988  0.0071  0.2652
  100MOL0     C13696   5.938   4.893   9.122 -0.2885 -0.8099  0.3819
  100MOL0     C13697   5.934   5.035   9.109 -0.4083 -0.3854  0.4943
  100MOL0     O13698   6.032   5.125   9.146  0.3048  0.6054  0.2150
  100MOL0     C13699   6.143   5.091   9.221 -0.0796 -0.2135 -0.4250
  100MOL0     C13700   6.259   5.197   9.218 -0.4734 -0.2327  0.2078
  100MOL0     C13701   6.231   5.344   9.276  0.2704  0.0811 -0.2906
  100MOL0     C13702   6.214   5.345   9.434 -0.8243 -0.6991  0.1183
  100MOL0     C13703   6.196   5.495   9.470 -0.5093  1.0930  0.9691
  100MOL0     C13704   6.114   5.486   9.602 -0.6590 -0.5756 -0.4536
  100MOL0     C13705   6.123   5.615   9.683 -0.5529 -0.9173  0.1009
  100MOL0     C13706   6.261   5.643   9.724 -0.3213  0.2941  0.0304
  100MOL0    Cl13707   6.260   5.794   9.826 -0.1155 -0.1614  0.8257
  100MOL0     C13708   5.822   5.087   9.049  0.3274  0.0804  0.6479
  100MOL0     C13709   5.726   4.995   8.996 -0.6042  0.2794  0.0874
  100MOL0     O13710   5.672   4.823   8.740 -0.2039  0.0234 -0.8627
  100MOL0     C13711   5.363   4.720   8.901  0.3151 -0.4604  0.1999
  100MOL0     C13712   5.228   4.701   8.871  0.8054 -0.0589 -0.0640
  100MOL0     N13713   4.560   4.399   8.424 -0.4807 -0.2701  0.9047
  100MOL0     N13714   4.563   4.274   8.397  0.5930 -0.1358  0.4330
  100MOL0     C13715   3.965   3.392   8.079 -0.2461  1.2021  0.4205
  100MOL0     C13716   3.867   3.326   8.000  0.2420 -0.1464  0.4662
  100MOL0     C13717   3.602   3.044   7.802 -0.2831 -0.7849  0.2396
  100MOL0     C13718   3.618   3.037   7.668  0.6738 -0.9138  0.0768
  100MOL0     C13719   3.514   2.983   7.587 -0.5929  0.7110 -0.2573
  100MOL0     C13720   3.402   2.918   7.644  0.9537 -0.0946 -0.7656
  100MOL0     O13721   3.305   2.839   7.579  0.2184 -0.3137  0.4166
  100MOL0     C13722   3.310   2.834   7.441 -0.0088  1.1264  0.3688
  100MOL0     C13723   3.179   2.771   7.377 -0.0675 -0.7567  0.4499
  100MOL0     C13724   3.193   2.768   7.228 -0.3238 -0.0617 -0.2828
  100MOL0     C13725   3.046   2.740   7.180  0.0570  0.7685 -0.0157
  100MOL0     C13726   3.052   2.715   7.034 -0.4134  0.3638 -0.3879
  100MOL0     C13727   3.049   2.696   6.914  0.1741  0.0556  0.3988
  100MOL0     C13728   3.390   2.932   7.782 -0.3860  1.1032 -0.8379
  100MOL0     C13729   3.480   2.999   7.864  0.1999  0.1555  0.2107
  100MOL0     C13730   3.442   3.013   8.010 -0.1136 -0.7562  0.0172
  100MOL0     H13731   3.662   3.209   8.242  2.6569 -1.2685  3.6977
  100MOL0     H13732   3.815   3.335   8.383  2.8471 -0.3410  0.5661
  100MOL0     H13733   4.186   3.548   8.196 -2.8258  1.6724  1.4701
  100MOL0     H13734   4.192   3.370   8.204 -1.6185 -0.1936 -1.0379
  100MOL0     H13735   4.236   3.397   8.462 -0.0733  0.7952  0.8050
  100MOL0     H13736   4.356   3.472   8.354 -0.3606  0.6371 -3.2320
  100MOL0     H13737   4.134   3.601   8.520  1.2155  0.2289  0.7758
  100MOL0     H13738   4.305   3.609   8.539  0.7131 -3.5584  0.2093
  100MOL0     H13739   4.284   3.730   8.291 -0.0217  2.1477 -0.3573
  100MOL0     H13740   4.118   3.738   8.350  0.4441  0.5847  0.1044
  100MOL0     H13741   4.202   3.856   8.563 -0.8736  0.0449  0.4108
  100MOL0     H13742   4.225   3.945   8.409 -0.0144 -1.1507 -1.1526
  100MOL0     H13743   4.437   3.800   8.577 -2.8938 -0.6024  1.1059
  100MOL0     H13744   4.452   3.855   8.403  1.2491  1.8121 -0.3773
  100MOL0     H13745   4.417   4.037   8.641 -0.7876  2.6316 -1.6407
  100MOL0     H13746   4.385   4.086   8.472 -0.8215  0.7873  1.0137
  100MOL0     H13747   4.657   4.008   8.573  0.4060  2.1380  0.3263
  100MOL0     H13748   4.611   4.022   8.398  0.2179  3.4540 -0.3847
  100MOL0     H13749   4.692   4.241   8.692 -0.1834  0.5534 -0.3144
  100MOL0     H13750   4.586   4.522   8.710  1.6809 -1.4209  3.2955
  100MOL0     H13751   4.673   4.612   8.575  1.7752 -0.0956  0.1105
  100MOL0     H13752   4.808   4.421   8.791  1.0224  1.9407  3.7593
  100MOL0     H13753   4.883   4.469   8.641 -1.9507 -1.4662 -0.2325
  100MOL0     H13754   4.786   4.713   8.722  0.2815 -1.6020 -1.6106
  100MOL0     H13755   4.757   4.638   8.879 -1.8645  0.1493 -0.7274
  100MOL0     H13756   4.954   4.750   8.886 -1.7048  3.3592 -3.0762
  100MOL0     H13757   5.005   4.570   8.882 -0.1091 -0.4913 -0.2247
  100MOL0     H13758   5.237   4.586   8.563 -1.3888  3.7974 -0.7792
  100MOL0     H13759   5.599   4.542   8.629 -1.7943 -1.3802  1.2452
  100MOL0     H13760   5.590   4.694   8.543 -0.0633 -0.2014 -0.1346
  100MOL0     H13761   5.478   4.561   8.496 -0.7787  0.8430  0.4316
  100MOL0     H13762   5.858   4.696   9.096 -1.4264 -0.3501  0.0226
  100MOL0     H13763   6.019   4.855   9.184 -2.3361 -2.0829  2.4749
  100MOL0     H13764   6.135   5.062   9.326  2.7249 -0.8658 -0.3034
  100MOL0     H13765   6.189   4.997   9.187 -1.7176 -0.1121 -3.3034
  100MOL0     H13766   6.349   5.152   9.260  0.3187  2.4491  1.6213
  100MOL0     H13767   6.283   5.228   9.116  0.6377  0.7294  0.7344
  100MOL0     H13768   6.142   5.387   9.230  1.0624 -0.4967 -2.5128
  100MOL0     H13769   6.316   5.405   9.245  2.1942 -0.3056  3.6132
  100MOL0     H13770   6.305   5.310   9.482 -1.3656 -4.2103 -1.1310
  100MOL0     H13771   6.117   5.301   9.459 -4.3238  3.9911 -3.3368
  100MOL0     H13772   6.297   5.535   9.478  0.5869 -1.3959  0.5387
  100MOL0     H13773   6.156   5.557   9.390  2.4679  2.2492  0.2555
  100MOL0     H13774   6.149   5.417   9.678 -0.3282 -0.2894 -0.3454
  100MOL0     H13775   6.008   5.477   9.576 -1.0632  0.6472  0.6451
  100MOL0     H13776   6.056   5.607   9.769 -3.6715 -0.5162 -2.1004
  100MOL0     H13777   6.105   5.698   9.615  0.6688 -1.1572 -0.5507
  100MOL0     H13778   6.330   5.655   9.640  0.4098  1.2624  0.7487
  100MOL0     H13779   6.295   5.569   9.797 -0.3699  0.8516  0.6334
  100MOL0     H13780   5.819   5.193   9.026 -0.3257  0.1133  0.8778
  100MOL0     H13781   5.636   5.038   8.954  0.1981  1.3681 -0.5503
  100MOL0     H13782   5.397   4.766   8.993 -0.7886  2.2735 -0.6500
  100MOL0     H13783   5.155   4.725   8.948  0.1791 -1.1164 -0.3156
  100MOL0     H13784   4.042   3.454   8.035  3.0191 -2.3088  0.7010
  100MOL0     H13785   3.876   3.339   7.893  1.0335  0.1554  0.5665
  100MOL0     H13786   3.704   3.081   7.618  1.0024  0.3613  1.6776
  100MOL0     H13787   3.534   2.979   7.480  1.5505 -0.4659  0.1197
  100MOL0     H13788   3.329   2.930   7.392  2.2288 -0.8157 -2.9915
  100MOL0     H13789   3.397   2.777   7.408 -1.0848  0.1113 -0.8271
  100MOL0     H13790   3.097   2.842   7.396 -0.8172 -1.0435 -1.4833
  100MOL0     H13791   3.155   2.674   7.423  1.7384 -0.4380  2.1901
  100MOL0     H13792   3.232   2.850   7.166  0.8731 -1.3817 -1.3144
  100MOL0     H13793   3.260   2.686   7.202  2.1297  1.3266  1.2826
  100MOL0     H13794   2.983   2.829   7.190  0.5991  1.7251 -3.5487
  100MOL0     H13795   3.011   2.650   7.230  0.1872  0.3497 -0.6699
  100MOL0     H13796   3.021   2.672   6.814 -2.0975  0.1531  0.9517
  100MOL0     H13797   3.303   2.892   7.832  0.3937  2.7425  1.9913
  100MOL0     H13798   3.526   2.975   8.070  1.1350  0.5148 -0.8637
  100MOL0     H13799   3.425   3.116   8.040  2.3637  0.7915 -3.2959
  100MOL0     H13800   3.356   2.946   8.023 -1.0652  0.4625  0.1043
  101MOL0     O13801   3.332   0.131   6.645 -0.1242  0.3208  0.2670
  101MOL0     C13802   3.327   0.175   6.762  0.3406 -0.4641 -0.4586
  101MOL0     O13803   3.412   0.145   6.864 -0.3558 -0.3449 -1.1633
  101MOL0     C13804   3.540   0.116   6.828 -0.7525 -0.4425 -0.2671
  101MOL0     C13805   3.632   0.209   6.816  0.0912 -0.0521  0.5769
  101MOL0     C13806   3.763   0.172   6.786 -0.7440  0.2695  0.9351
  101MOL0     C13807   3.804   0.035   6.769  0.0605  0.3863 -0.4600
  101MOL0     O13808   3.937   0.023   6.734  0.2133 -0.5444  0.0441
  101MOL0     C13809   3.991  -0.105   6.752 -0.1849  0.1682 -0.5310
  101MOL0     C13810   4.030  -0.132   6.902 -0.5230 -0.0648  0.2027
  101MOL0     C13811   4.038  -0.280   6.934  0.1621  0.1455  0.5402
  101MOL0     C13812   4.061  -0.301   7.082  0.7961  0.6368 -0.2279
  101MOL0     C13813   4.056  -0.458   7.112  0.7704 -0.0180  0.7379
  101MOL0     C13814   4.202  -0.507   7.096  0.1645  0.2535 -1.0193
  101MOL0     C13815   4.221  -0.647   7.148  0.6148  1.0614  0.6795
  101MOL0     C13816   4.377  -0.687   7.175  1.0143 -0.6160  0.0654
  101MOL0     N13817   4.456  -0.659   7.055 -0.2920 -0.8464 -0.2545
  101MOL0     C13818   4.426  -0.669   6.921 -0.2952 -1.1003 -0.5435
  101MOL0     C13819   4.536  -0.602   6.860  0.3465 -0.1004  0.7300
  101MOL0     C13820   4.565  -0.574   6.710 -0.0828 -0.2490 -0.1653
  101MOL0     C13821   4.643  -0.682   6.632 -0.0944  0.5205  0.3681
  101MOL0     C13822   4.786  -0.692   6.670  0.1910  0.1280 -0.1831
  101MOL0     C13823   4.870  -0.759   6.563 -0.4951 -0.0730 -0.3517
  101MOL0     O13824   4.891  -0.668   6.447 -0.6566  0.2617 -0.3595
  101MOL0     C13825   5.007  -0.686   6.366 -0.3476  0.2675 -0.5935
  101MOL0     C13826   4.997  -0.651   6.233  0.3707  0.0133  0.7737
  101MOL0     C13827   5.101  -0.673   6.132  0.1662 -0.0530  0.6518
  101MOL0     C13828   5.076  -0.640   5.980 -0.6636 -0.0026 -0.3806
  101MOL0     C13829   5.225  -0.737   6.182 -0.2673 -0.7908  0.4648
  101MOL0     C13830   5.340  -0.774   6.096  0.1942 -0.2440  0.7819
  101MOL0     O13831   5.377  -0.687   6.001  0.0072  0.2954 -0.6195
  101MOL0     C13832   5.498  -0.703   5.939  0.5091  0.0065  0.3839
  101MOL0     C13833   5.551  -0.826   5.899 -0.1297 -0.7668  0.5547
  101MOL0     C13834   5.676  -0.827   5.827  0.4378  0.3887 -0.2915
  101MOL0     C13835   5.728  -0.705   5.780 -0.8156  0.2865 -0.5146
  101MOL0     O13836   5.840  -0.726   5.697 -0.1239 -0.3280 -0.3525
  101MOL0     C13837   5.855  -0.634   5.591  0.2310  0.0037  0.3324
  101MOL0     C13838   5.945  -0.680   5.473 -0.1368  0.2439 -0.1142
  101MOL0     C13839   6.077  -0.736   5.535  0.8701 -0.7046  0.7954
  101MOL0     C13840   6.189  -0.745   5.431  1.6011  0.7393  0.7643
  101MOL0     C13841   6.321  -0.788   5.516  0.6854 -1.6728 -0.0853
  101MOL0     C13842   6.461  -0.756   5.436 -0.0693  0.5879 -0.3841
  101MOL0     C13843   6.578  -0.854   5.482 -0.0243 -0.1559  0.0350
  101MOL0     C13844   6.635  -0.794   5.614  0.3460 -0.8876  0.0863
  101MOL0    Cl13845   6.792  -0.868   5.643 -0.0380  0.2540 -0.2020
  101MOL0     C13846   5.674  -0.584   5.811  0.8572 -0.3359 -0.6618
  101MOL0     C13847   5.557  -0.579   5.886 -0.0070  1.0149 -0.0448
  101MOL0     O13848   5.389  -0.880   6.111  0.7799  1.6432 -0.4550
  101MOL0     C13849   5.229  -0.778   6.313 -0.4921  0.9335  0.1078
  101MOL0     C13850   5.125  -0.734   6.407 -0.5238 -0.3405 -0.2268
  101MOL0     N13851   4.615  -0.543   6.953  0.5977 -0.2251 -0.1221
  101MOL0     N13852   4.572  -0.587   7.067 -0.2862  0.1351 -0.1183
  101MOL0     C13853   3.703  -0.059   6.778  0.9923  0.0837 -0.6153
  101MOL0     C13854   3.566  -0.011   6.812 -0.8877  0.6288  0.5965
  101MOL0     C13855   3.197   0.244   6.795  0.1473  0.5784  0.6408
  101MOL0     C13856   3.088   0.218   6.708 -0.2802 -0.5870 -0.4826
  101MOL0     C13857   2.958   0.257   6.736  0.0001  0.5970  0.2488
  101MOL0     C13858   2.934   0.347   6.843  0.3954 -0.5947  0.4703
  101MOL0     O13859   2.819   0.419   6.874  0.4526  0.0033 -0.6856
  101MOL0     C13860   2.712   0.423   6.770 -0.0734  0.3152 -1.1513
  101MOL0     C13861   2.616   0.303   6.804  0.1349 -0.9667  0.0434
  101MOL0     C13862   2.506   0.302   6.694  0.3096  0.0883  0.3107
  101MOL0     C13863   2.559   0.243   6.559  1.1383  0.4007  0.7056
  101MOL0     C13864   2.532   0.097   6.556  0.0380  0.3500  0.5273
  101MOL0     C13865   2.521  -0.023   6.545  1.7164  0.6185  0.2906
  101MOL0     C13866   3.044   0.390   6.922 -0.3533 -0.0792 -0.0539
  101MOL0     C13867   3.170   0.331   6.905  0.1922 -0.6380 -0.2664
  101MOL0     C13868   3.277   0.383   6.993  0.9349 -0.5721  0.7601
  101MOL0     H13869   3.596   0.311   6.827  1.1002  1.1908 -4.9575
  101MOL0     H13870   3.837   0.251   6.778 -0.5876 -0.0507 -1.4181
  101MOL0     H13871   4.079  -0.120   6.689 -0.6928 -0.2132 -1.1647
  101MOL0     H13872   3.928  -0.188   6.718  1.5794 -1.4006 -0.1213
  101MOL0     H13873   4.122  -0.078   6.926  1.0659 -2.8727  0.8197
  101MOL0     H13874   3.960  -0.083   6.970  1.2943  0.7843  1.5201
  101MOL0     H13875   3.951  -0.336   6.899 -0.5407 -0.2664  2.7344
  101MOL0     H13876   4.132  -0.314   6.890 -0.2015 -0.0372 -0.1083
  101MOL0     H13877   4.153  -0.255   7.117  0.8618 -0.5147  1.2312
  101MOL0     H13878   3.986  -0.247   7.139  1.3871  1.1717  0.0440
  101MOL0     H13879   4.000  -0.516   7.039  3.5050 -0.6572 -0.9904
  101MOL0     H13880   4.036  -0.486   7.216  1.0013 -1.0556  0.5060
  101MOL0     H13881   4.227  -0.488   6.991  2.5462  0.3361 -0.5094
  101MOL0     H13882   4.271  -0.445   7.154 -1.0205  3.0397 -2.4464
  101MOL0     H13883   4.174  -0.705   7.069  1.1585  2.1309 -0.4532
  101MOL0     H13884   4.155  -0.665   7.234 -1.8545 -3.2383 -1.7661
  101MOL0     H13885   4.401  -0.617   7.256 -0.5063  1.8971 -1.5146
  101MOL0     H13886   4.391  -0.795   7.187  3.9298 -0.4951 -1.5175
  101MOL0     H13887   4.334  -0.712   6.885 -2.5347  1.1061  2.0172
  101MOL0     H13888   4.619  -0.480   6.699  2.3625 -1.7227 -1.7772
  101MOL0     H13889   4.466  -0.572   6.662  0.4042  1.3550 -1.1978
  101MOL0     H13890   4.598  -0.777   6.661  0.2283  0.4918  0.7898
  101MOL0     H13891   4.641  -0.656   6.526 -0.7346 -0.5059  0.1071
  101MOL0     H13892   4.828  -0.592   6.688  0.7319  0.0631 -0.9934
  101MOL0     H13893   4.803  -0.757   6.756 -2.7983 -1.4715 -0.6821
  101MOL0     H13894   4.959  -0.789   6.619 -0.7811 -2.2450 -0.9533
  101MOL0     H13895   4.820  -0.852   6.532 -1.1842 -0.0904  0.7518
  101MOL0     H13896   4.894  -0.622   6.219  0.2359 -0.8269 -0.0235
  101MOL0     H13897   4.982  -0.586   5.968  1.4299  4.4162  1.0335
  101MOL0     H13898   5.069  -0.733   5.923  4.2011 -0.4575 -0.6814
  101MOL0     H13899   5.154  -0.578   5.935  0.2115 -0.8112 -0.0128
  101MOL0     H13900   5.503  -0.921   5.922 -3.1660  0.4736 -0.2077
  101MOL0     H13901   5.719  -0.923   5.800  0.2874  0.3227 -0.2984
  101MOL0     H13902   5.757  -0.606   5.550  0.8117  2.1493  0.2793
  101MOL0     H13903   5.899  -0.541   5.629 -1.7163  0.6646  1.1424
  101MOL0     H13904   5.908  -0.764   5.413  0.0318  2.5535 -3.7458
  101MOL0     H13905   5.968  -0.596   5.407 -2.2231  1.1717  0.2739
  101MOL0     H13906   6.071  -0.834   5.584  2.6633  0.3850  3.4317
  101MOL0     H13907   6.114  -0.658   5.602 -1.6387 -0.6199  2.1768
  101MOL0     H13908   6.189  -0.645   5.386 -2.1672  0.0683 -1.2274
  101MOL0     H13909   6.167  -0.816   5.351 -0.9134  1.9073  0.2897
  101MOL0     H13910   6.324  -0.729   5.608 -0.4400 -0.6772 -0.6631
  101MOL0     H13911   6.316  -0.895   5.534  2.7990 -1.7945  0.1056
  101MOL0     H13912   6.489  -0.650   5.437  0.0143  0.5845  1.5451
  101MOL0     H13913   6.443  -0.779   5.331 -1.3543  1.7040 -0.4400
  101MOL0     H13914   6.659  -0.863   5.410 -1.0244 -0.7848 -1.0363
  101MOL0     H13915   6.537  -0.953   5.504  0.8234 -0.4700  0.2556
  101MOL0     H13916   6.563  -0.821   5.691 -0.3231  0.2971 -0.0885
  101MOL0     H13917   6.660  -0.687   5.615  0.4110 -0.8831  2.1500
  101MOL0     H13918   5.722  -0.491   5.785 -0.9282  0.4459 -1.3154
  101MOL0     H13919   5.516  -0.482   5.915 -2.8972  1.1445 -3.8434
  101MOL0     H13920   5.322  -0.824   6.345 -0.2145  1.7791  0.5531
  101MOL0     H13921   5.128  -0.757   6.513 -0.5625  1.4885  0.2065
  101MOL0     H13922   3.719  -0.165   6.762  1.0577 -0.1132  0.6333
  101MOL0     H13923   3.495  -0.090   6.833  1.2921 -1.4962  0.5024
  101MOL0     H13924   3.110   0.169   6.614  2.9287 -1.2860  0.5117
  101MOL0     H13925   2.877   0.225   6.671  0.6800 -0.7524  0.0216
  101MOL0     H13926   2.650   0.512   6.780  1.0056  0.8339  2.0845
  101MOL0     H13927   2.767   0.422   6.675 -1.1450  0.5410 -1.7832
  101MOL0     H13928   2.579   0.331   6.902 -0.1693 -1.5799  0.1048
  101MOL0     H13929   2.662   0.204   6.803 -1.5657 -1.7833  0.4941
  101MOL0     H13930   2.418   0.247   6.730 -0.1186 -0.3225 -1.2935
  101MOL0     H13931   2.467   0.403   6.678 -0.3160 -0.4724 -2.0349
  101MOL0     H13932   2.666   0.254   6.540  0.9800  0.0350 -0.4867
  101MOL0     H13933   2.492   0.273   6.478 -0.0523  0.6740  1.7699
  101MOL0     H13934   2.523  -0.128   6.526  0.6798  0.8966 -1.5478
  101MOL0     H13935   3.031   0.466   6.998  1.6926  1.3469 -1.0231
  101MOL0     H13936   3.238   0.455   7.066 -1.8231  0.9340 -1.9473
  101MOL0     H13937   3.348   0.313   7.039  2.3106 -1.7859 -2.8232
  101MOL0     H13938   3.346   0.438   6.929  1.1554 -0.3096  1.2197
  102MOL0     O13939   0.891   3.426   7.232 -0.0049  0.2038  0.3213
  102MOL0     C13940   0.775   3.402   7.209 -0.0410  0.4478  0.1852
  102MOL0     O13941   0.731   3.352   7.090 -0.6058 -0.6009  0.8677
  102MOL0     C13942   0.819   3.317   6.994 -1.0593 -1.5921 -0.7870
  102MOL0     C13943   0.892   3.410   6.921  0.4437  0.2135  0.4045
  102MOL0     C13944   0.965   3.373   6.806  0.3972 -1.4314 -0.6347
  102MOL0     C13945   0.965   3.242   6.757 -0.6611  0.3595 -1.1537
  102MOL0     O13946   1.038   3.202   6.645 -0.2890 -0.0235 -0.4716
  102MOL0     C13947   1.082   3.069   6.637 -0.2961  0.3258  0.6183
  102MOL0     C13948   1.223   3.062   6.585 -0.2923 -0.0001  0.2424
  102MOL0     C13949   1.305   3.179   6.639  0.3309  0.2269  0.2364
  102MOL0     C13950   1.454   3.146   6.612  1.1192 -0.0064  0.8178
  102MOL0     C13951   1.538   3.244   6.679 -0.2280 -0.2427  0.3613
  102MOL0     C13952   1.691   3.216   6.663 -1.0104  0.7576  0.2809
  102MOL0     C13953   1.781   3.288   6.754 -0.4544  0.0737  0.2773
  102MOL0     C13954   1.764   3.247   6.906  0.3621  1.0693  0.2184
  102MOL0     N13955   1.825   3.339   6.999  0.4964 -0.3332  0.2913
  102MOL0     C13956   1.740   3.416   7.078  0.2330  0.6157  0.6482
  102MOL0     C13957   1.810   3.446   7.186 -0.3177 -0.9129 -0.3286
  102MOL0     C13958   1.763   3.516   7.312 -0.2251  0.5733 -0.7469
  102MOL0     C13959   1.806   3.664   7.327  0.6758 -0.1921 -0.0970
  102MOL0     C13960   1.956   3.676   7.377  1.4361  0.2323  0.2711
  102MOL0     C13961   2.005   3.820   7.379 -0.4877 -0.0637 -0.3157
  102MOL0     O13962   1.938   3.880   7.486 -0.1651  0.3720  0.0792
  102MOL0     C13963   1.978   4.004   7.530 -0.0940 -0.1560  0.9900
  102MOL0     C13964   2.070   4.082   7.456 -0.0568 -0.0060 -0.4667
  102MOL0     C13965   2.100   4.218   7.494 -0.3825  0.7736 -0.0012
  102MOL0     C13966   2.206   4.282   7.412 -0.1745 -0.8792 -0.4816
  102MOL0     C13967   2.031   4.272   7.608 -0.0700  0.4168 -0.7541
  102MOL0     C13968   2.052   4.407   7.673  0.0876  0.9372  0.1480
  102MOL0     O13969   1.977   4.436   7.786 -0.2769  0.8951  0.4766
  102MOL0     C13970   1.995   4.557   7.838  0.2437 -0.6490 -0.3746
  102MOL0     C13971   1.912   4.650   7.781 -0.3995  0.4705 -0.1301
  102MOL0     C13972   1.918   4.780   7.830  0.4286  0.1026 -0.1773
  102MOL0     C13973   1.988   4.814   7.945 -0.7819 -0.3503 -0.0197
  102MOL0     O13974   1.995   4.936   8.009 -0.1067  0.1445  0.0734
  102MOL0     C13975   1.888   5.027   7.981  0.1237 -0.3279 -0.2288
  102MOL0     C13976   1.906   5.156   8.060 -0.7535  0.6391  0.6207
  102MOL0     C13977   2.041   5.229   8.051  0.1438 -0.2132 -0.3581
  102MOL0     C13978   2.026   5.375   8.026  0.0650 -0.5788 -0.9550
  102MOL0     C13979   2.155   5.461   8.032 -0.2016  0.0951  0.3623
  102MOL0     C13980   2.208   5.482   8.176  0.0019  0.0665  0.1244
  102MOL0     C13981   2.321   5.589   8.189 -0.3363 -0.0042 -0.3833
  102MOL0     C13982   2.396   5.556   8.318  0.6285  0.2707 -0.8071
  102MOL0    Cl13983   2.481   5.689   8.393  0.2314 -0.0437  0.1305
  102MOL0     C13984   2.082   4.723   7.997 -1.1141  1.3466  0.5365
  102MOL0     C13985   2.085   4.586   7.942  0.3713 -0.8540  0.0125
  102MOL0     O13986   2.125   4.490   7.619  0.2389 -0.1597  0.6581
  102MOL0     C13987   1.936   4.189   7.682  0.7411 -0.7044  0.0428
  102MOL0     C13988   1.908   4.055   7.638 -0.5924  0.3010 -0.5218
  102MOL0     N13989   1.940   3.402   7.167  0.3971 -0.3256  0.0551
  102MOL0     N13990   1.944   3.336   7.058  0.8870 -0.0139 -0.4382
  102MOL0     C13991   0.877   3.157   6.828  0.0323  0.2792 -0.1199
  102MOL0     C13992   0.815   3.191   6.949 -0.5750  0.4006 -0.0584
  102MOL0     C13993   0.671   3.435   7.306  0.2998  0.6634  0.0699
  102MOL0     C13994   0.537   3.411   7.267 -0.0521  0.0037 -0.7017
  102MOL0     C13995   0.433   3.433   7.353 -0.1969  0.0071 -0.0232
  102MOL0     C13996   0.451   3.492   7.482 -0.2533 -0.1358  0.2471
  102MOL0     O13997   0.338   3.516   7.566 -0.5836  0.3170 -0.5762
  102MOL0     C13998   0.244   3.409   7.573  0.3224  0.3323  0.1967
  102MOL0     C13999   0.217   3.389   7.728  0.3877  0.9559 -0.3336
  102MOL0     C14000   0.339   3.329   7.797 -0.7442  0.4684  0.1276
  102MOL0     C14001   0.349   3.393   7.936 -0.5769 -0.1307  0.2945
  102MOL0     C14002   0.227   3.348   8.006 -0.1733 -0.4415  0.0587
  102MOL0     C14003   0.129   3.318   8.066  0.4892 -0.1246  0.1209
  102MOL0     C14004   0.579   3.516   7.515  0.5442  0.1321 -0.2064
  102MOL0     C14005   0.696   3.481   7.438  0.7059  0.6543  0.8286
  102MOL0     C14006   0.823   3.495   7.514  0.0467 -0.6411  0.1185
  102MOL0     H14007   0.881   3.517   6.942  0.3053  0.3977 -0.5704
  102MOL0     H14008   1.019   3.449   6.752 -1.7670  1.3336  0.8362
  102MOL0     H14009   1.027   3.007   6.566  1.9395  0.0645 -1.0148
  102MOL0     H14010   1.072   3.021   6.735 -0.9955  0.9696  0.8759
  102MOL0     H14011   1.262   2.971   6.630  0.4335  0.3430  0.3172
  102MOL0     H14012   1.227   3.048   6.477 -0.7040  0.3213  0.1828
  102MOL0     H14013   1.284   3.275   6.593 -0.7227  1.0332  2.2723
  102MOL0     H14014   1.284   3.190   6.746  1.6836 -1.9548  0.7946
  102MOL0     H14015   1.466   3.043   6.648 -0.9173 -0.5272  0.1457
  102MOL0     H14016   1.460   3.148   6.503 -0.1840  2.4306  0.7161
  102MOL0     H14017   1.503   3.243   6.782 -1.9241  3.1148 -0.0482
  102MOL0     H14018   1.529   3.347   6.642 -0.3067  0.2234  1.6231
  102MOL0     H14019   1.710   3.110   6.686 -0.7902  0.8328  0.4469
  102MOL0     H14020   1.717   3.238   6.559 -1.1463 -2.8762 -0.6648
  102MOL0     H14021   1.760   3.395   6.740  0.1408  0.2008  0.3238
  102MOL0     H14022   1.886   3.288   6.725 -0.4686  1.2477  0.1774
  102MOL0     H14023   1.657   3.243   6.928  0.5046  0.7182  0.8590
  102MOL0     H14024   1.801   3.146   6.924 -3.8649 -0.7425 -0.1532
  102MOL0     H14025   1.635   3.433   7.059 -0.3782 -0.4815  2.7157
  102MOL0     H14026   1.816   3.470   7.396 -0.8222  1.3533  0.0684
  102MOL0     H14027   1.659   3.502   7.340 -0.2403  1.7884 -0.1291
  102MOL0     H14028   1.799   3.712   7.229  4.8831 -1.2774 -1.1053
  102MOL0     H14029   1.746   3.714   7.404  0.2341  0.9382 -1.1510
  102MOL0     H14030   1.949   3.640   7.480 -1.6976 -2.8374 -0.7828
  102MOL0     H14031   2.020   3.608   7.319  0.4338 -3.0408  2.6893
  102MOL0     H14032   2.112   3.809   7.397 -0.3345 -0.7079 -1.5139
  102MOL0     H14033   1.987   3.858   7.278 -1.5420 -1.3685 -0.6506
  102MOL0     H14034   2.132   4.036   7.380  4.0841  1.9760  1.3864
  102MOL0     H14035   2.279   4.335   7.474  0.5751  1.7713 -3.3717
  102MOL0     H14036   2.170   4.353   7.337  1.3903 -1.6207 -2.0101
  102MOL0     H14037   2.262   4.210   7.352 -1.4694  0.8992 -4.1152
  102MOL0     H14038   1.856   4.628   7.690 -4.4157  3.2989  1.3473
  102MOL0     H14039   1.865   4.850   7.766 -0.0259 -2.6152 -3.0064
  102MOL0     H14040   1.886   5.043   7.873  2.1173 -2.4442 -0.6834
  102MOL0     H14041   1.796   4.976   8.011  2.3103 -3.1076  2.5171
  102MOL0     H14042   1.829   5.230   8.037 -3.0102 -2.1432 -1.4496
  102MOL0     H14043   1.907   5.131   8.166  4.1966  2.6111  1.3126
  102MOL0     H14044   2.105   5.184   7.974  1.8426  3.4459 -1.2994
  102MOL0     H14045   2.098   5.224   8.144 -2.3484  1.4077  1.3820
  102MOL0     H14046   1.969   5.422   8.107  0.7628  1.3931 -1.5369
  102MOL0     H14047   1.977   5.392   7.930  2.3091  2.2049 -1.7348
  102MOL0     H14048   2.241   5.421   7.977 -0.5838 -0.0426 -0.1435
  102MOL0     H14049   2.146   5.566   8.001  2.9598  0.3803  0.0089
  102MOL0     H14050   2.247   5.386   8.212 -2.5876 -0.9446  0.5128
  102MOL0     H14051   2.133   5.499   8.255 -0.5739 -4.1508  0.7218
  102MOL0     H14052   2.268   5.683   8.209 -2.1953 -1.7271  4.2900
  102MOL0     H14053   2.395   5.595   8.109  0.1142 -2.6045 -0.2422
  102MOL0     H14054   2.471   5.483   8.287  1.6725  0.0944  1.8394
  102MOL0     H14055   2.336   5.506   8.395 -0.1737  0.5102 -1.2658
  102MOL0     H14056   2.146   4.760   8.076  0.5496  2.6568 -1.3271
  102MOL0     H14057   2.143   4.507   7.988 -1.6469 -2.3041  0.1788
  102MOL0     H14058   1.884   4.224   7.771  0.4918 -0.3011 -0.2609
  102MOL0     H14059   1.831   4.001   7.691 -1.6017  0.5631 -1.6753
  102MOL0     H14060   0.865   3.057   6.789  2.4646 -0.4090  0.7172
  102MOL0     H14061   0.744   3.129   7.003  0.1422 -1.3843 -1.0701
  102MOL0     H14062   0.507   3.373   7.170 -1.7755  1.2009 -0.6686
  102MOL0     H14063   0.337   3.400   7.317 -0.2478  1.0911 -0.9234
  102MOL0     H14064   0.161   3.436   7.508  0.4358  2.7067  0.9374
  102MOL0     H14065   0.294   3.319   7.534  0.9555  1.1248 -0.8705
  102MOL0     H14066   0.141   3.310   7.734  2.5796 -1.2717  5.0423
  102MOL0     H14067   0.174   3.476   7.779 -3.2130 -1.1327  0.5570
  102MOL0     H14068   0.313   3.223   7.805 -1.3322  0.6732  1.0771
  102MOL0     H14069   0.432   3.350   7.744 -0.4884 -1.3543 -0.2136
  102MOL0     H14070   0.370   3.499   7.920  2.3764 -0.3073  2.2004
  102MOL0     H14071   0.436   3.349   7.985 -0.4450  0.0776  0.2481
  102MOL0     H14072   0.044   3.262   8.098 -0.7564  0.3883 -2.1248
  102MOL0     H14073   0.580   3.552   7.617  3.4361 -2.7918  0.9915
  102MOL0     H14074   0.890   3.551   7.448 -1.5430  1.4471  0.2136
  102MOL0     H14075   0.802   3.541   7.611 -2.8423 -3.5065  1.0458
  102MOL0     H14076   0.873   3.401   7.540  2.1119  0.7546  1.4632
  103MOL0     O14077   3.249   9.297   4.860 -0.0684  0.4140  0.0748
  103MOL0     C14078   3.309   9.192   4.893 -0.5428 -0.2115  0.6184
  103MOL0     O14079   3.376   9.164   5.015  0.6808  0.1231  0.3473
  103MOL0     C14080   3.306   9.213   5.126  0.6349 -0.6452 -0.1141
  103MOL0     C14081   3.169   9.249   5.133  0.0056  0.8966 -0.0085
  103MOL0     C14082   3.104   9.275   5.255  0.0175 -0.5665  0.5639
  103MOL0     C14083   3.181   9.278   5.376  0.9825 -0.2919  0.6460
  103MOL0     O14084   3.130   9.305   5.501 -0.2761 -0.0613 -0.3641
  103MOL0     C14085   3.118   9.451   5.537 -0.2300  0.1317  0.3665
  103MOL0     C14086   3.190   9.478   5.672 -0.2159 -0.7568  0.2636
  103MOL0     C14087   3.114   9.427   5.791 -0.2405  0.2282  0.3939
  103MOL0     C14088   3.196   9.448   5.915 -0.7745  0.5534  0.1069
  103MOL0     C14089   3.118   9.387   6.028 -0.7197 -0.3279  0.3154
  103MOL0     C14090   3.197   9.387   6.157  0.0440  0.7706  0.4076
  103MOL0     C14091   3.108   9.309   6.260 -0.2286 -0.0777  1.0330
  103MOL0     C14092   3.168   9.308   6.401 -0.5487 -0.9241 -0.8990
  103MOL0     N14093   3.094   9.222   6.498 -0.3961 -0.1073  0.2649
  103MOL0     C14094   2.968   9.187   6.495  0.6322  0.5845 -0.4902
  103MOL0     C14095   2.950   9.084   6.584  0.0599 -0.8569  0.9643
  103MOL0     C14096   2.815   9.030   6.591  0.5555  0.5412  0.3650
  103MOL0     C14097   2.774   8.922   6.494 -0.1595  0.1134 -0.4600
  103MOL0     C14098   2.862   8.796   6.503  0.0898 -0.7135 -0.4301
  103MOL0     C14099   2.813   8.694   6.401 -0.3408  0.2614 -0.7738
  103MOL0     O14100   2.903   8.580   6.419  0.7580 -0.2648  0.3359
  103MOL0     C14101   2.890   8.475   6.325 -0.0679 -0.1012 -0.4225
  103MOL0     C14102   2.972   8.370   6.363 -0.3384 -0.1054  0.5238
  103MOL0     C14103   2.980   8.254   6.286  0.7096 -0.2040  1.1261
  103MOL0     C14104   3.057   8.140   6.336 -0.4651  0.6647 -0.6330
  103MOL0     C14105   2.889   8.238   6.174 -0.0049 -0.1923 -0.2276
  103MOL0     C14106   2.873   8.110   6.097 -0.4497 -0.9061 -0.7910
  103MOL0     O14107   2.863   8.101   5.968  0.9567  0.7861  0.6245
  103MOL0     C14108   2.901   8.197   5.883  0.1212 -0.4622 -0.5837
  103MOL0     C14109   3.035   8.231   5.878 -1.2389  0.1311  0.4273
  103MOL0     C14110   3.072   8.348   5.806 -0.1304 -0.4062 -0.6156
  103MOL0     C14111   2.970   8.446   5.762  0.0897  0.7485 -0.1488
  103MOL0     O14112   3.015   8.566   5.710 -0.0784 -0.5387  0.4419
  103MOL0     C14113   3.144   8.626   5.725  0.1546 -0.3169  0.5420
  103MOL0     C14114   3.113   8.775   5.704 -0.4096 -0.1130  0.2950
  103MOL0     C14115   3.234   8.850   5.763  0.2996 -0.5367  0.4133
  103MOL0     C14116   3.231   9.002   5.718  0.1177  0.5019 -0.2147
  103MOL0     C14117   3.353   9.077   5.766 -0.2633 -0.6266 -0.7826
  103MOL0     C14118   3.361   9.076   5.923  0.1759 -0.0827  0.2713
  103MOL0     C14119   3.486   9.009   5.988  0.6223 -0.3681  0.5815
  103MOL0     C14120   3.456   8.987   6.135  0.4415  0.7588 -0.1077
  103MOL0    Cl14121   3.576   8.897   6.236 -0.4189 -0.1296 -0.0075
  103MOL0     C14122   2.835   8.404   5.758  0.1859 -0.3357 -0.0696
  103MOL0     C14123   2.805   8.281   5.820  0.1654  0.2026  0.4496
  103MOL0     O14124   2.859   8.018   6.175 -0.0990  0.8443  0.0344
  103MOL0     C14125   2.806   8.347   6.132 -0.7380 -0.9789 -1.2827
  103MOL0     C14126   2.803   8.464   6.211 -0.9116  0.4779 -0.9263
  103MOL0     N14127   3.064   9.081   6.661  0.4310  0.0890 -0.2049
  103MOL0     N14128   3.155   9.161   6.600 -0.6960  0.2705 -0.2788
  103MOL0     C14129   3.310   9.230   5.367 -0.7735 -0.3329 -0.8454
  103MOL0     C14130   3.370   9.199   5.251  1.1441  0.1305  0.6999
  103MOL0     C14131   3.309   9.086   4.790  0.2694  0.1864 -0.4743
  103MOL0     C14132   3.295   9.111   4.648 -0.8844  0.3862  0.5255
  103MOL0     C14133   3.313   9.015   4.543 -0.2380  0.5382 -0.3741
  103MOL0     C14134   3.337   8.880   4.586 -0.2485  0.0542  0.3766
  103MOL0     O14135   3.356   8.781   4.497 -0.3917 -0.0265 -0.4925
  103MOL0     C14136   3.294   8.795   4.375  0.8948 -0.6583 -0.5838
  103MOL0     C14137   3.293   8.662   4.305  0.8364  0.5104 -0.9455
  103MOL0     C14138   3.440   8.604   4.293 -0.6219  1.0063  0.4075
  103MOL0     C14139   3.449   8.461   4.236  0.4508 -0.4501  0.0200
  103MOL0     C14140   3.397   8.456   4.103  0.2045  0.3680  0.8218
  103MOL0     C14141   3.342   8.449   3.990  0.0468  1.0712 -0.4945
  103MOL0     C14142   3.346   8.854   4.721 -0.1988 -0.3077 -0.1124
  103MOL0     C14143   3.330   8.950   4.825  0.7766  0.1862  0.3636
  103MOL0     C14144   3.317   8.895   4.963 -0.1637  0.9891 -0.0451
  103MOL0     H14145   3.107   9.249   5.044 -0.2030 -1.6567  0.0676
  103MOL0     H14146   3.004   9.316   5.243 -0.4806 -1.5124  1.3623
  103MOL0     H14147   3.018   9.482   5.568  0.0085 -0.5069  1.8520
  103MOL0     H14148   3.159   9.519   5.462  0.7593 -0.6736  0.1614
  103MOL0     H14149   3.295   9.447   5.674  0.5178  1.3976 -1.3458
  103MOL0     H14150   3.194   9.587   5.678  2.0872 -0.8019  0.7454
  103MOL0     H14151   3.019   9.476   5.813 -2.3145 -4.7519  4.7986
  103MOL0     H14152   3.084   9.322   5.778  0.2681 -0.1334  1.9593
  103MOL0     H14153   3.288   9.390   5.906 -0.1661  0.6573  3.9400
  103MOL0     H14154   3.217   9.553   5.935 -1.1228  0.9872 -1.6192
  103MOL0     H14155   3.087   9.286   6.001  1.5353 -1.0887  0.3027
  103MOL0     H14156   3.032   9.454   6.017  1.3605  2.1765 -2.8957
  103MOL0     H14157   3.292   9.338   6.135  0.3871  2.3062 -1.8526
  103MOL0     H14158   3.207   9.492   6.186  1.7847  1.8790 -3.6165
  103MOL0     H14159   3.129   9.209   6.224  0.3223  0.3804  0.0554
  103MOL0     H14160   3.005   9.346   6.254 -0.3436 -0.1573  2.1732
  103MOL0     H14161   3.274   9.282   6.396 -0.7080 -1.3200 -2.5619
  103MOL0     H14162   3.173   9.407   6.447  0.7971 -1.7599  0.9130
  103MOL0     H14163   2.896   9.237   6.431 -0.8680 -2.8365 -1.6785
  103MOL0     H14164   2.748   9.114   6.573  0.3990  0.1524 -0.9983
  103MOL0     H14165   2.796   9.005   6.695 -2.5120  1.3533  0.1035
  103MOL0     H14166   2.670   8.895   6.514 -0.0311  0.6952  1.1021
  103MOL0     H14167   2.774   8.958   6.390  2.6284  2.1459  0.1181
  103MOL0     H14168   2.968   8.807   6.477 -0.3514 -0.1968 -2.1862
  103MOL0     H14169   2.853   8.757   6.604 -1.1990  2.8225  0.9773
  103MOL0     H14170   2.709   8.660   6.409 -0.2553  0.2237  0.5084
  103MOL0     H14171   2.820   8.736   6.300 -0.9860  1.1457 -0.4695
  103MOL0     H14172   3.028   8.389   6.455 -2.5035  1.4684  1.6000
  103MOL0     H14173   2.994   8.070   6.391  1.6991 -1.1570 -0.2932
  103MOL0     H14174   3.135   8.170   6.407 -0.3268  0.8746 -0.8708
  103MOL0     H14175   3.107   8.085   6.256 -0.9300  2.7841 -2.4718
  103MOL0     H14176   3.107   8.170   5.933 -1.0035  1.6289  1.8607
  103MOL0     H14177   3.176   8.369   5.780 -0.3924 -1.3462 -2.6077
  103MOL0     H14178   3.176   8.611   5.828 -0.1053 -2.0076  0.4064
  103MOL0     H14179   3.214   8.578   5.656 -0.1336 -1.2136  0.8710
  103MOL0     H14180   3.100   8.800   5.598 -1.3457  3.3166  1.0975
  103MOL0     H14181   3.016   8.797   5.748 -0.0521 -0.3519  1.2295
  103MOL0     H14182   3.328   8.804   5.730  1.4949  0.7586  1.8615
  103MOL0     H14183   3.239   8.845   5.872  1.2088 -0.7628  0.3708
  103MOL0     H14184   3.136   9.039   5.757 -0.8947 -4.2652  2.7541
  103MOL0     H14185   3.234   9.008   5.609 -0.9121 -3.6003 -0.6367
  103MOL0     H14186   3.448   9.043   5.723  0.2673  2.2873 -2.1964
  103MOL0     H14187   3.337   9.179   5.730 -1.0854  0.2418  1.8603
  103MOL0     H14188   3.271   9.028   5.960 -2.0031  1.4754 -2.5837
  103MOL0     H14189   3.348   9.181   5.951  0.8488  0.0645  0.0570
  103MOL0     H14190   3.577   9.069   5.979 -0.3826  1.3989  1.5583
  103MOL0     H14191   3.505   8.914   5.938  0.1548 -0.6413  0.9160
  103MOL0     H14192   3.370   8.919   6.147  2.4074 -1.2744  5.8890
  103MOL0     H14193   3.425   9.082   6.178 -2.8006  0.4096 -1.3313
  103MOL0     H14194   2.754   8.470   5.728  1.1928  0.2689 -1.5597
  103MOL0     H14195   2.707   8.236   5.829  0.8817 -1.7571 -0.8652
  103MOL0     H14196   2.726   8.320   6.063 -0.8560  0.0679 -1.5798
  103MOL0     H14197   2.725   8.537   6.188 -0.7745  1.0537  0.3782
  103MOL0     H14198   3.374   9.217   5.454  0.6884  2.9233 -1.3060
  103MOL0     H14199   3.470   9.157   5.239 -0.1521 -2.8615 -0.8233
  103MOL0     H14200   3.297   9.215   4.617  0.2715 -0.0829 -1.1186
  103MOL0     H14201   3.316   9.044   4.439 -1.0461 -0.7884 -0.7857
  103MOL0     H14202   3.190   8.827   4.379  0.1832 -2.8586 -0.0233
  103MOL0     H14203   3.355   8.870   4.324 -0.7997  0.3761 -1.1598
  103MOL0     H14204   3.246   8.674   4.207  2.0091 -1.1733 -1.7575
  103MOL0     H14205   3.226   8.601   4.367  1.5472  2.5220  2.0358
  103MOL0     H14206   3.506   8.681   4.253  0.1595  0.4140  0.5283
  103MOL0     H14207   3.479   8.593   4.395 -3.6059  2.5709  1.8690
  103MOL0     H14208   3.389   8.394   4.299  0.5272  0.6059  1.2539
  103MOL0     H14209   3.552   8.425   4.231  0.3330 -0.7382 -0.4713
  103MOL0     H14210   3.295   8.453   3.895 -2.9942 -2.2341  0.6614
  103MOL0     H14211   3.359   8.748   4.739 -1.4807 -0.4906 -0.1928
  103MOL0     H14212   3.282   8.792   4.956  2.0752 -0.4107  4.8579
  103MOL0     H14213   3.414   8.878   5.012 -0.4448 -2.4669 -0.4240
  103MOL0     H14214   3.243   8.955   5.017  0.1095  0.5794  0.8043
  104MOL0     O14215   8.300  10.018   0.773 -0.5802 -0.0423 -0.8880
  104MOL0     C14216   8.179  10.012   0.785 -0.0009 -0.7516  0.2324
  104MOL0     O14217   8.098  10.111   0.735  1.2248 -0.1163  0.5714
  104MOL0     C14218   8.147  10.220   0.669  0.7080 -0.2087  0.3310
  104MOL0     C14219   8.200  10.209   0.544  0.2023 -0.0273  0.3029
  104MOL0     C14220   8.248  10.323   0.477  0.8226  0.2540 -0.3142
  104MOL0     C14221   8.241  10.448   0.541  0.4312 -0.0106 -0.4801
  104MOL0     O14222   8.268  10.559   0.471  0.2387 -0.0607  0.1523
  104MOL0     C14223   8.341  10.665   0.528  0.1623 -0.5088 -0.2962
  104MOL0     C14224   8.407  10.746   0.414 -0.0929  0.8612 -0.9482
  104MOL0     C14225   8.501  10.860   0.472  0.0029  0.9558 -0.4534
  104MOL0     C14226   8.592  10.925   0.372  0.1944 -0.7871  0.6681
  104MOL0     C14227   8.632  11.068   0.414  0.7690 -0.0251 -0.2798
  104MOL0     C14228   8.525  11.177   0.374 -0.5058  0.5281  0.4666
  104MOL0     C14229   8.541  11.186   0.218  0.3833  0.7451 -0.4227
  104MOL0     C14230   8.497  11.314   0.168 -0.2663  0.1133  0.6131
  104MOL0     N14231   8.570  11.433   0.209 -0.4308 -0.1810 -0.3794
  104MOL0     C14232   8.551  11.499   0.332 -0.0453 -0.4663 -0.4261
  104MOL0     C14233   8.620  11.618   0.316  0.9630 -0.0740 -0.2377
  104MOL0     C14234   8.664  11.708   0.421 -0.2051 -0.5644 -0.0632
  104MOL0     C14235   8.626  11.860   0.389 -0.2640  0.2322 -0.0327
  104MOL0     C14236   8.471  11.875   0.391 -0.1209 -0.3723  1.0515
  104MOL0     C14237   8.449  12.002   0.309  0.1433  0.2631  0.8358
  104MOL0     O14238   8.314  12.024   0.266 -0.0925 -0.2656 -0.9660
  104MOL0     C14239   8.257  11.955   0.159  0.9508  0.2049  0.3871
  104MOL0     C14240   8.320  11.853   0.092 -0.1960 -0.2373 -0.6602
  104MOL0     C14241   8.270  11.789  -0.024 -0.2606 -0.7528 -0.6642
  104MOL0     C14242   8.358  11.676  -0.091  0.2190 -0.4699  0.1981
  104MOL0     C14243   8.144  11.839  -0.071  0.3500 -0.9578  0.1852
  104MOL0     C14244   8.095  11.809  -0.213 -0.0004  0.0694 -0.2036
  104MOL0     O14245   7.958  11.826  -0.233 -0.8111  0.5143 -1.0029
  104MOL0     C14246   7.916  11.858  -0.360 -0.3018 -0.3907  0.2393
  104MOL0     C14247   7.987  11.942  -0.449 -0.8088  0.5198  0.5468
  104MOL0     C14248   7.947  11.971  -0.579  0.1545  0.3468 -0.8410
  104MOL0     C14249   7.817  11.915  -0.618  0.3399 -0.1930 -0.9030
  104MOL0     O14250   7.748  11.944  -0.728 -0.1339 -0.8586 -0.0682
  104MOL0     C14251   7.804  12.035  -0.823 -0.7875  0.5865  0.2748
  104MOL0     C14252   7.697  12.078  -0.914 -0.3142 -0.3567  0.7660
  104MOL0     C14253   7.723  12.214  -0.977 -0.3533  0.3287 -0.0168
  104MOL0     C14254   7.740  12.332  -0.870 -0.2917  0.8287 -0.3911
  104MOL0     C14255   7.747  12.463  -0.943 -0.7644 -0.0483 -0.3973
  104MOL0     C14256   7.737  12.585  -0.852 -0.4894  1.8237 -0.4930
  104MOL0     C14257   7.771  12.713  -0.925 -0.8033 -0.2765  0.1264
  104MOL0     C14258   7.822  12.824  -0.826 -0.6178 -0.1349 -0.4103
  104MOL0    Cl14259   7.984  12.775  -0.762 -0.4455 -0.2918  0.1792
  104MOL0     C14260   7.744  11.827  -0.533 -0.4377 -0.3147 -0.1083
  104MOL0     C14261   7.789  11.814  -0.397  0.2608 -0.6512  1.0467
  104MOL0     O14262   8.175  11.786  -0.304 -0.3102  0.2699  0.3706
  104MOL0     C14263   8.057  11.923   0.013  0.3845  0.5953  0.1531
  104MOL0     C14264   8.124  11.983   0.121 -0.2208  0.1428 -0.2787
  104MOL0     N14265   8.650  11.630   0.184 -0.0747 -0.4094  0.0607
  104MOL0     N14266   8.623  11.525   0.117 -0.3461  0.2299  0.0463
  104MOL0     C14267   8.194  10.458   0.672  0.1371  0.2314  1.2791
  104MOL0     C14268   8.141  10.345   0.736 -0.1980  0.8129  0.6473
  104MOL0     C14269   8.114   9.906   0.874  1.7933  0.3079 -0.0583
  104MOL0     C14270   7.980   9.927   0.915  0.2195  0.0992  0.5270
  104MOL0     C14271   7.912   9.838   1.002 -0.4769  0.3193 -0.1349
  104MOL0     C14272   7.972   9.723   1.048  0.9001 -0.2767  0.0809
  104MOL0     O14273   7.911   9.621   1.113 -0.2606 -0.6643 -0.3750
  104MOL0     C14274   7.781   9.648   1.166 -0.5533  0.3440 -0.1806
  104MOL0     C14275   7.739   9.536   1.268 -0.5179 -0.4027  0.4141
  104MOL0     C14276   7.827   9.523   1.392  0.1395 -0.0529 -0.4598
  104MOL0     C14277   7.810   9.649   1.479  0.3038  0.2239  0.0234
  104MOL0     C14278   7.670   9.650   1.533 -0.2553 -0.1476 -0.8826
  104MOL0     C14279   7.562   9.656   1.587 -0.8960  0.5953  0.0918
  104MOL0     C14280   8.100   9.707   1.020  0.4711  0.5974  0.5776
  104MOL0     C14281   8.172   9.790   0.931 -0.4705 -0.3716 -0.3043
  104MOL0     C14282   8.298   9.732   0.873  0.2787 -0.0117 -0.3612
  104MOL0     H14283   8.209  10.108   0.506  0.1532  0.9894 -2.7101
  104MOL0     H14284   8.282  10.302   0.377 -0.4506 -3.4978 -0.0949
  104MOL0     H14285   8.408  10.617   0.600  0.2628  1.9359  1.3763
  104MOL0     H14286   8.286  10.747   0.577  2.5715  1.0538 -0.0464
  104MOL0     H14287   8.473  10.680   0.357  2.4901 -0.7624  3.4400
  104MOL0     H14288   8.330  10.794   0.352 -0.4175  2.4521  0.6048
  104MOL0     H14289   8.426  10.930   0.511 -0.3014 -0.0370  0.8065
  104MOL0     H14290   8.561  10.836   0.560 -1.8247  0.0440  0.6154
  104MOL0     H14291   8.683  10.865   0.362  0.3597 -0.3773 -0.3176
  104MOL0     H14292   8.532  10.928   0.281 -2.2045 -0.9638  2.1647
  104MOL0     H14293   8.733  11.080   0.373 -0.0372  1.1902 -2.0381
  104MOL0     H14294   8.649  11.077   0.522 -0.6193 -0.3574 -0.0245
  104MOL0     H14295   8.425  11.163   0.416 -1.5504  1.9089 -1.4458
  104MOL0     H14296   8.551  11.272   0.420 -1.0007 -0.9106  4.0371
  104MOL0     H14297   8.489  11.104   0.169 -0.9527  1.2439  0.1076
  104MOL0     H14298   8.646  11.181   0.186  0.2130  2.2218 -1.2950
  104MOL0     H14299   8.496  11.303   0.059  0.9274 -1.4623  0.7206
  104MOL0     H14300   8.393  11.325   0.198 -0.5348 -0.2388 -0.1556
  104MOL0     H14301   8.497  11.469   0.421 -0.1340  0.9582  0.0225
  104MOL0     H14302   8.773  11.701   0.416 -0.3240 -2.0143 -2.7481
  104MOL0     H14303   8.630  11.683   0.522  2.8255  1.1532  1.5306
  104MOL0     H14304   8.676  11.932   0.454  2.1056 -3.2375  2.3771
  104MOL0     H14305   8.661  11.881   0.288 -2.5367  1.3839 -0.6429
  104MOL0     H14306   8.413  11.793   0.348 -3.8998  2.6459 -0.2103
  104MOL0     H14307   8.437  11.894   0.493  1.1107 -2.0124  1.8312
  104MOL0     H14308   8.481  12.085   0.373 -1.3196  2.0170 -0.6053
  104MOL0     H14309   8.510  12.002   0.218  2.8305 -0.2117  2.5148
  104MOL0     H14310   8.423  11.836   0.121  0.1519  0.2991 -1.5215
  104MOL0     H14311   8.289  11.597  -0.122  1.3446 -1.3845 -0.0106
  104MOL0     H14312   8.430  11.641  -0.017  1.5257 -0.2392 -0.9189
  104MOL0     H14313   8.410  11.718  -0.178  0.1079  0.5945  0.6251
  104MOL0     H14314   8.089  11.970  -0.424 -0.8395  0.7259  0.4348
  104MOL0     H14315   8.003  12.039  -0.642  0.1081 -0.4416 -1.7655
  104MOL0     H14316   7.836  12.124  -0.767  0.0243  0.7335 -0.4033
  104MOL0     H14317   7.886  11.987  -0.877 -1.7403  0.8454 -1.4821
  104MOL0     H14318   7.689  11.993  -0.982  0.9001 -2.8269  3.5047
  104MOL0     H14319   7.598  12.087  -0.869 -0.7410 -0.3350 -0.1632
  104MOL0     H14320   7.641  12.235  -1.046  0.0291 -0.5801 -0.7778
  104MOL0     H14321   7.815  12.203  -1.035 -0.5597 -1.7499 -0.0293
  104MOL0     H14322   7.831  12.317  -0.810 -2.2960 -4.2524  2.0346
  104MOL0     H14323   7.663  12.336  -0.792 -0.6321  0.9182 -0.7298
  104MOL0     H14324   7.842  12.467  -0.997 -0.6468 -2.3180 -0.4606
  104MOL0     H14325   7.667  12.480  -1.015  0.0624  2.0767 -0.8893
  104MOL0     H14326   7.807  12.567  -0.770  0.1527  0.8906 -1.2199
  104MOL0     H14327   7.636  12.584  -0.810 -0.3476  2.2835 -0.1363
  104MOL0     H14328   7.683  12.755  -0.974 -0.4146  0.7474  0.2663
  104MOL0     H14329   7.853  12.695  -0.996 -1.2424  2.5482 -1.2651
  104MOL0     H14330   7.744  12.853  -0.755  0.4656 -0.2736  0.8659
  104MOL0     H14331   7.837  12.910  -0.893 -1.6378 -1.6962 -2.7842
  104MOL0     H14332   7.653  11.776  -0.563 -0.2144 -0.5943 -0.3224
  104MOL0     H14333   7.728  11.760  -0.324 -2.2503 -0.8446 -1.0300
  104MOL0     H14334   7.957  11.954  -0.014 -0.2607 -2.0569 -0.8901
  104MOL0     H14335   8.068  12.050   0.186  0.4024  2.1974 -1.7453
  104MOL0     H14336   8.193  10.557   0.716  0.8258  1.1030 -0.5694
  104MOL0     H14337   8.096  10.360   0.834  1.3998  0.6642  1.4393
  104MOL0     H14338   7.922  10.014   0.884  2.5040  0.6606 -2.7241
  104MOL0     H14339   7.805   9.852   1.018 -0.8330  1.5106 -2.9465
  104MOL0     H14340   7.794   9.739   1.226  2.7251 -2.0041  3.1482
  104MOL0     H14341   7.711   9.661   1.083 -0.4952  1.1216 -0.1171
  104MOL0     H14342   7.744   9.451   1.200 -1.8026  0.7372 -1.1679
  104MOL0     H14343   7.637   9.540   1.307  0.2223 -0.0808  2.4513
  104MOL0     H14344   7.798   9.430   1.443  1.8069 -1.7286 -2.3934
  104MOL0     H14345   7.935   9.509   1.380  1.1898  1.2210  4.7736
  104MOL0     H14346   7.825   9.742   1.424 -1.0562  0.8986  0.7483
  104MOL0     H14347   7.882   9.646   1.561  1.1751 -1.2363 -0.7467
  104MOL0     H14348   7.466   9.650   1.633 -0.1597  2.9708  2.1381
  104MOL0     H14349   8.146   9.623   1.071 -1.5680 -1.4546 -0.7572
  104MOL0     H14350   8.298   9.733   0.763 -0.1240 -1.5006 -0.3960
  104MOL0     H14351   8.388   9.776   0.918  2.6587 -0.9788 -3.7434
  104MOL0     H14352   8.296   9.626   0.901 -1.8121  0.4891  1.6850
  105MOL0     O14353   7.041   4.026   1.423  0.0525 -0.0203  0.3603
  105MOL0     C14354   6.975   4.071   1.329 -0.2728 -1.0883 -0.4434
  105MOL0     O14355   7.012   4.177   1.246 -0.3003  0.2192  0.4528
  105MOL0     C14356   7.143   4.217   1.250 -0.3017 -0.4743  1.1534
  105MOL0     C14357   7.193   4.287   1.361 -0.5578 -0.1956  0.7029
  105MOL0     C14358   7.328   4.337   1.361  0.0241  0.1133  0.4728
  105MOL0     C14359   7.422   4.292   1.258 -0.1872  0.5440  0.3171
  105MOL0     O14360   7.564   4.297   1.250  0.0476  0.3479  0.0806
  105MOL0     C14361   7.617   4.395   1.337 -1.3305  0.4544 -0.1253
  105MOL0     C14362   7.583   4.544   1.306  0.0685  0.5308  0.0559
  105MOL0     C14363   7.671   4.585   1.176 -0.2429  0.5890 -0.5089
  105MOL0     C14364   7.650   4.736   1.151 -1.0487  0.2307 -0.2420
  105MOL0     C14365   7.707   4.791   1.020  0.0453 -0.1028 -0.6551
  105MOL0     C14366   7.644   4.930   0.989 -1.0400  0.3645 -1.1290
  105MOL0     C14367   7.713   4.990   0.861  0.3226 -0.2315 -0.6994
  105MOL0     C14368   7.627   5.113   0.816  0.0741 -0.0707  0.5657
  105MOL0     N14369   7.649   5.227   0.915 -0.6287 -0.2699  0.2716
  105MOL0     C14370   7.727   5.338   0.900 -0.8807  0.0376 -0.3917
  105MOL0     C14371   7.707   5.409   1.010  0.5499 -0.1464  0.3656
  105MOL0     C14372   7.791   5.523   1.058 -0.0589  1.4959  0.0934
  105MOL0     C14373   7.730   5.657   1.019 -0.0854 -0.1043  0.5001
  105MOL0     C14374   7.821   5.774   1.059 -0.0644 -1.1838 -0.3610
  105MOL0     C14375   7.815   5.908   0.979  0.9380  0.4583 -0.5105
  105MOL0     O14376   7.944   5.970   0.999 -0.7090  0.5038 -0.0583
  105MOL0     C14377   7.996   6.004   1.117 -0.0749 -0.3891  0.5702
  105MOL0     C14378   7.928   6.014   1.235  0.1490  0.3629 -0.2333
  105MOL0     C14379   7.989   6.059   1.350 -0.2919 -0.5347 -0.1347
  105MOL0     C14380   7.905   6.092   1.473  0.4646 -0.2376 -1.0711
  105MOL0     C14381   8.131   6.085   1.345 -0.6491  0.4094 -0.2224
  105MOL0     C14382   8.219   6.122   1.458  1.2795 -0.2391  0.3178
  105MOL0     O14383   8.345   6.169   1.431  0.5679  0.0689  1.0651
  105MOL0     C14384   8.442   6.208   1.525 -0.0939 -0.5486 -1.8056
  105MOL0     C14385   8.575   6.191   1.482  0.4587 -0.3338  0.4980
  105MOL0     C14386   8.674   6.220   1.577 -0.7581  0.1617 -0.7342
  105MOL0     C14387   8.644   6.254   1.708 -0.0020  0.7725 -0.3561
  105MOL0     O14388   8.743   6.291   1.792  0.2808 -0.2770 -0.0448
  105MOL0     C14389   8.732   6.401   1.882  0.5176 -0.9519 -0.5135
  105MOL0     C14390   8.748   6.534   1.802  0.7039  0.5084 -0.5120
  105MOL0     C14391   8.878   6.540   1.738 -0.4221 -0.3803  0.5925
  105MOL0     C14392   8.907   6.682   1.684 -0.3592  0.8031 -0.5635
  105MOL0     C14393   9.039   6.700   1.610  0.2947 -0.2394  0.8300
  105MOL0     C14394   9.033   6.837   1.541  0.6586  1.2471 -0.2567
  105MOL0     C14395   9.170   6.878   1.480  0.8227 -1.3328 -0.2204
  105MOL0     C14396   9.220   6.801   1.359  0.3144  0.2325 -0.0629
  105MOL0    Cl14397   9.091   6.779   1.230  0.4311  0.0897  0.1077
  105MOL0     C14398   8.517   6.256   1.750  1.0447  0.7687  0.2351
  105MOL0     C14399   8.411   6.244   1.661 -0.2631  0.2019  0.7264
  105MOL0     O14400   8.183   6.075   1.563 -0.4682  0.6292 -0.2230
  105MOL0     C14401   8.198   6.080   1.218 -0.1193  0.0105  0.1772
  105MOL0     C14402   8.129   6.038   1.107 -0.1690 -0.0607  0.4789
  105MOL0     N14403   7.605   5.346   1.079  0.1499 -0.7955 -0.2646
  105MOL0     N14404   7.562   5.249   1.023 -0.8043  0.3950 -0.3435
  105MOL0     C14405   7.360   4.226   1.150  0.8213  1.2140  0.3914
  105MOL0     C14406   7.231   4.190   1.144  0.4942  0.8865 -0.5595
  105MOL0     C14407   6.856   4.002   1.292 -0.0856 -0.0220  0.0219
  105MOL0     C14408   6.773   3.956   1.396  0.4306  0.5948  0.1672
  105MOL0     C14409   6.659   3.877   1.363  0.2511 -0.6834  0.3954
  105MOL0     C14410   6.629   3.834   1.232  0.1701 -0.0822 -1.0692
  105MOL0     O14411   6.512   3.761   1.203  0.2371  0.1165  0.4376
  105MOL0     C14412   6.498   3.681   1.082  0.1413  0.6484  0.7869
  105MOL0     C14413   6.591   3.563   1.080 -0.5248  0.1723  0.2828
  105MOL0     C14414   6.581   3.477   1.205  0.2910  1.1964  0.5336
  105MOL0     C14415   6.700   3.502   1.307 -0.1361 -0.2822 -0.0606
  105MOL0     C14416   6.671   3.423   1.426  0.0494  0.6459 -0.4592
  105MOL0     C14417   6.622   3.357   1.514 -0.6314 -0.0892  0.0311
  105MOL0     C14418   6.717   3.879   1.138  0.3110 -0.2482  0.7213
  105MOL0     C14419   6.817   3.971   1.158 -1.3082 -0.4946 -0.2875
  105MOL0     C14420   6.876   4.038   1.033 -0.4170  0.5539  0.6995
  105MOL0     H14421   7.125   4.316   1.440 -0.0265  0.9221  0.7668
  105MOL0     H14422   7.377   4.384   1.445  2.5630 -1.7156  0.1552
  105MOL0     H14423   7.724   4.372   1.347 -1.5163 -1.7932 -2.2985
  105MOL0     H14424   7.588   4.380   1.442  0.9373  0.9822  0.6296
  105MOL0     H14425   7.478   4.559   1.282 -0.1260 -0.2706  0.3812
  105MOL0     H14426   7.595   4.622   1.382  1.1921  1.8101 -1.3777
  105MOL0     H14427   7.773   4.557   1.204 -0.5119 -1.1570 -1.1593
  105MOL0     H14428   7.633   4.519   1.098 -0.5949 -0.6562  0.6801
  105MOL0     H14429   7.541   4.747   1.143 -1.3685 -0.5810  2.1667
  105MOL0     H14430   7.673   4.804   1.234  2.7326  1.3376 -1.9958
  105MOL0     H14431   7.696   4.716   0.942 -1.6995 -2.2345  1.4911
  105MOL0     H14432   7.813   4.807   1.040 -0.3467  0.0845  1.5417
  105MOL0     H14433   7.537   4.919   0.974 -1.1826  0.7808 -0.4832
  105MOL0     H14434   7.661   4.990   1.079  1.2021 -1.2656 -0.3852
  105MOL0     H14435   7.724   4.916   0.781 -1.6774 -1.9691  0.5128
  105MOL0     H14436   7.810   5.034   0.884 -0.0360  1.3566 -2.0840
  105MOL0     H14437   7.658   5.143   0.716 -1.5237  0.9427  0.3338
  105MOL0     H14438   7.520   5.092   0.801  0.1483  0.5938 -1.1456
  105MOL0     H14439   7.804   5.351   0.825 -0.0806 -0.6785  0.2818
  105MOL0     H14440   7.891   5.514   1.016 -0.6669 -1.1670 -1.0175
  105MOL0     H14441   7.804   5.517   1.166  2.1943 -0.3990 -0.2073
  105MOL0     H14442   7.708   5.652   0.912  1.9020 -4.1922  0.0820
  105MOL0     H14443   7.633   5.670   1.068 -0.5188 -0.6409 -0.1883
  105MOL0     H14444   7.803   5.787   1.166  1.5267  2.1234 -0.3608
  105MOL0     H14445   7.924   5.739   1.041  1.1056  1.5789  0.3743
  105MOL0     H14446   7.800   5.896   0.871 -2.7090 -0.3579 -0.0405
  105MOL0     H14447   7.734   5.969   1.021  0.1317 -0.7180 -0.3106
  105MOL0     H14448   7.823   5.986   1.241  0.4435 -0.6866  0.2760
  105MOL0     H14449   7.883   5.992   1.511 -2.7598 -0.3861 -2.8821
  105MOL0     H14450   7.813   6.137   1.433  0.6803 -0.9247 -2.4132
  105MOL0     H14451   7.950   6.161   1.544  0.0315 -1.6079  0.6074
  105MOL0     H14452   8.591   6.137   1.389  2.8738  0.3726  0.4524
  105MOL0     H14453   8.776   6.214   1.541 -0.3917 -1.3142  0.4244
  105MOL0     H14454   8.638   6.405   1.937  0.9159 -1.8344  0.2819
  105MOL0     H14455   8.817   6.397   1.950  0.2395 -2.4613 -0.2176
  105MOL0     H14456   8.659   6.540   1.738  0.5411  1.5725 -0.2159
  105MOL0     H14457   8.728   6.612   1.876  0.0568 -0.9547  0.8900
  105MOL0     H14458   8.883   6.475   1.650 -3.1757  0.5254 -0.3330
  105MOL0     H14459   8.959   6.515   1.808  0.2108 -0.1974 -0.0577
  105MOL0     H14460   8.882   6.759   1.757 -2.1749  2.6062 -2.9079
  105MOL0     H14461   8.829   6.702   1.610 -1.5654  1.8590  0.9235
  105MOL0     H14462   9.117   6.696   1.686  0.1030  0.0719  1.0436
  105MOL0     H14463   9.044   6.627   1.528  0.0860  0.7242 -0.0695
  105MOL0     H14464   8.995   6.911   1.612  0.3144  0.0354  0.8678
  105MOL0     H14465   8.957   6.830   1.463 -0.6329  0.7771  1.0075
  105MOL0     H14466   9.251   6.861   1.552 -0.2267  0.2566  1.4269
  105MOL0     H14467   9.155   6.985   1.463  1.0071 -1.0638  1.1612
  105MOL0     H14468   9.246   6.699   1.389 -0.5025 -0.8286 -2.6789
  105MOL0     H14469   9.307   6.852   1.316  0.9222 -1.7333 -1.2672
  105MOL0     H14470   8.494   6.268   1.856 -0.2488 -2.7836  0.5001
  105MOL0     H14471   8.309   6.246   1.699 -0.6261 -1.8222  0.0248
  105MOL0     H14472   8.299   6.106   1.189 -0.9209  1.4858 -1.5133
  105MOL0     H14473   8.184   6.031   1.014  2.1133 -0.3058  1.7614
  105MOL0     H14474   7.423   4.181   1.074 -0.8517 -1.5426  0.4885
  105MOL0     H14475   7.191   4.137   1.058 -1.0777  1.7843 -0.4014
  105MOL0     H14476   6.793   3.992   1.496  3.6192 -0.8953  0.2106
  105MOL0     H14477   6.594   3.849   1.445 -0.6580  2.1215  0.7485
  105MOL0     H14478   6.394   3.646   1.083  0.1197  0.7093  0.7023
  105MOL0     H14479   6.501   3.754   1.001  1.1860  1.6336  1.6890
  105MOL0     H14480   6.692   3.605   1.077 -1.6277  3.3759  2.0754
  105MOL0     H14481   6.584   3.508   0.986 -1.2678  3.5373 -1.7997
  105MOL0     H14482   6.485   3.494   1.256 -0.0645  1.0204 -0.0670
  105MOL0     H14483   6.592   3.374   1.170 -0.5939  0.1919  2.9872
  105MOL0     H14484   6.712   3.606   1.337 -1.2455  0.2730 -1.4397
  105MOL0     H14485   6.790   3.457   1.262  0.9467  0.3415  1.4161
  105MOL0     H14486   6.594   3.288   1.591 -0.9453 -1.4545 -1.2420
  105MOL0     H14487   6.707   3.833   1.040  1.0212  0.3093  0.3791
  105MOL0     H14488   6.982   4.013   1.028 -0.0899  1.3432  2.7468
  105MOL0     H14489   6.830   3.983   0.950  1.2210 -0.3010  0.3185
  105MOL0     H14490   6.862   4.146   1.043 -0.5397  0.5660  0.4062
  106MOL0     O14491   9.985   8.723   0.990 -0.7823 -0.4406 -0.4562
  106MOL0     C14492   9.898   8.645   1.010  0.5401  0.4646 -0.0155
  106MOL0     O14493   9.870   8.595   1.140  0.3062  0.1057  0.2511
  106MOL0     C14494   9.964   8.620   1.236 -0.3226 -0.2359 -0.5681
  106MOL0     C14495  10.048   8.522   1.286 -0.5041  0.4011  0.1705
  106MOL0     C14496  10.159   8.564   1.359 -1.2278  0.0859 -0.2983
  106MOL0     C14497  10.177   8.695   1.402  0.1340  0.0047  0.8236
  106MOL0     O14498  10.283   8.737   1.474 -1.0606 -0.2213  0.4031
  106MOL0     C14499  10.409   8.696   1.421  0.4353  0.0231  0.7745
  106MOL0     C14500  10.446   8.778   1.302 -0.3726 -1.2158 -0.4004
  106MOL0     C14501  10.586   8.741   1.261  0.3890  0.2283  0.4174
  106MOL0     C14502  10.648   8.840   1.164 -0.4179 -0.6818 -1.0032
  106MOL0     C14503  10.790   8.798   1.123 -0.1889 -0.6155  0.5743
  106MOL0     C14504  10.815   8.682   1.025 -0.6954 -0.3090  0.9180
  106MOL0     C14505  10.965   8.672   0.990  0.0576 -1.0137 -0.9883
  106MOL0     C14506  11.044   8.576   1.079  0.2854 -0.4673 -0.7672
  106MOL0     N14507  11.187   8.610   1.062  0.2585  0.4455 -0.5287
  106MOL0     C14508  11.258   8.690   1.142 -0.5327  1.2951  0.2042
  106MOL0     C14509  11.388   8.642   1.119  0.0207  0.6936 -0.2905
  106MOL0     C14510  11.512   8.678   1.180  0.2234 -0.8492  0.2420
  106MOL0     C14511  11.508   8.813   1.237  0.9487 -0.1910 -0.0820
  106MOL0     C14512  11.634   8.857   1.307  0.1614 -0.1017  0.0402
  106MOL0     C14513  11.617   8.996   1.359 -0.3662 -0.4077 -0.3610
  106MOL0     O14514  11.669   9.093   1.263 -0.6411 -0.6515 -0.5500
  106MOL0     C14515  11.615   9.218   1.272 -0.3068  0.0892 -0.3623
  106MOL0     C14516  11.615   9.297   1.390 -0.9475  0.1022 -0.1247
  106MOL0     C14517  11.570   9.433   1.391 -0.2879  0.1901 -0.0857
  106MOL0     C14518  11.572   9.506   1.521  0.4065 -0.3830  0.3670
  106MOL0     C14519  11.510   9.483   1.267  0.2908  0.1857 -0.2285
  106MOL0     C14520  11.472   9.621   1.242 -0.2717  0.1271  0.3332
  106MOL0     O14521  11.357   9.647   1.172  0.0026  0.0061  0.2666
  106MOL0     C14522  11.314   9.772   1.122 -0.3675  0.4664  0.7287
  106MOL0     C14523  11.283   9.790   0.985 -0.1507 -0.3806 -0.2426
  106MOL0     C14524  11.226   9.910   0.943  0.0198  0.0357  0.1237
  106MOL0     C14525  11.196  10.007   1.031  0.3541 -0.4109  0.0414
  106MOL0     O14526  11.149  10.123   0.975  0.2907 -0.4690 -0.2337
  106MOL0     C14527  11.069  10.217   1.051  0.1838  0.5336  0.2767
  106MOL0     C14528  10.941  10.144   1.117 -1.0400  0.0068 -0.0046
  106MOL0     C14529  10.908  10.232   1.244  0.1309 -1.1219  0.2010
  106MOL0     C14530  10.785  10.190   1.327 -0.2154 -0.6144  0.4762
  106MOL0     C14531  10.756  10.313   1.424 -0.9738  0.1479 -0.6546
  106MOL0     C14532  10.633  10.289   1.502 -0.4400 -0.5781 -0.5719
  106MOL0     C14533  10.601  10.392   1.617 -0.1791 -0.4844 -0.2765
  106MOL0     C14534  10.729  10.450   1.670  0.0631  0.5663 -1.3190
  106MOL0    Cl14535  10.690  10.522   1.831  0.1586  0.1603 -0.0036
  106MOL0     C14536  11.238   9.998   1.161 -0.3699 -0.1213  0.9010
  106MOL0     C14537  11.295   9.877   1.208  0.8519 -0.1834 -0.2284
  106MOL0     O14538  11.546   9.707   1.288 -0.8360 -0.7665  0.0406
  106MOL0     C14539  11.503   9.398   1.157  0.6568  0.3529 -0.0224
  106MOL0     C14540  11.559   9.267   1.160  0.2360 -0.0966 -0.2121
  106MOL0     N14541  11.395   8.545   1.023  0.3901  0.3226  0.5438
  106MOL0     N14542  11.267   8.514   1.000  0.4840  0.3831  0.7711
  106MOL0     C14543  10.081   8.789   1.368  0.4871 -0.3158  0.8048
  106MOL0     C14544   9.979   8.752   1.281 -0.4587  1.0557 -0.2336
  106MOL0     C14545   9.828   8.574   0.890 -0.3762  0.7093  0.2483
  106MOL0     C14546   9.745   8.464   0.916  0.9534  0.1834 -0.1473
  106MOL0     C14547   9.666   8.406   0.817 -0.1619  0.3758 -0.6997
  106MOL0     C14548   9.676   8.439   0.681 -0.2462 -0.6471 -0.1521
  106MOL0     O14549   9.590   8.359   0.599 -0.4824  0.0878 -0.1640
  106MOL0     C14550   9.600   8.368   0.456  0.7634 -0.0577  0.2702
  106MOL0     C14551   9.724   8.294   0.398  0.3650 -0.7455  0.0385
  106MOL0     C14552   9.739   8.143   0.430  0.8025  0.4854  0.3115
  106MOL0     C14553   9.643   8.072   0.339  0.0530  0.6306  0.4785
  106MOL0     C14554   9.657   7.925   0.335 -0.1640  0.0966 -0.4360
  106MOL0     C14555   9.678   7.808   0.329 -0.7759 -0.1087  0.8887
  106MOL0     C14556   9.763   8.540   0.646 -0.1381 -0.0486 -0.1507
  106MOL0     C14557   9.844   8.598   0.747 -0.1329  0.0321  0.0550
  106MOL0     C14558   9.930   8.720   0.709 -0.5085  0.0071  0.0290
  106MOL0     H14559  10.047   8.421   1.248 -1.9471  0.2233  0.6495
  106MOL0     H14560  10.233   8.494   1.395  1.7085  2.7667 -0.7217
  106MOL0     H14561  10.417   8.592   1.387 -1.3507  0.2547 -0.4979
  106MOL0     H14562  10.491   8.700   1.493  2.2945  2.7520 -1.3064
  106MOL0     H14563  10.384   8.759   1.214  1.7900 -0.5489 -2.1661
  106MOL0     H14564  10.442   8.885   1.322 -3.2419 -1.7826  3.0899
  106MOL0     H14565  10.661   8.729   1.340 -0.9833 -0.8213  1.6336
  106MOL0     H14566  10.573   8.644   1.212 -3.3496  1.2276 -0.8418
  106MOL0     H14567  10.584   8.855   1.077  0.4531  2.8659 -1.1962
  106MOL0     H14568  10.670   8.930   1.222  1.6023 -0.6944 -1.6584
  106MOL0     H14569  10.848   8.787   1.215  1.0499 -0.3797 -0.1496
  106MOL0     H14570  10.836   8.886   1.076 -0.6948 -1.2129 -1.1292
  106MOL0     H14571  10.777   8.586   1.062 -0.0002 -0.6454  0.7922
  106MOL0     H14572  10.760   8.703   0.933  1.0955 -1.2389 -0.4538
  106MOL0     H14573  11.008   8.772   1.002  0.8651 -1.5948  1.6764
  106MOL0     H14574  10.976   8.648   0.884  0.7964 -0.9786 -0.9250
  106MOL0     H14575  10.995   8.593   1.176 -0.1185  0.1212 -1.0735
  106MOL0     H14576  11.017   8.476   1.043  1.1835 -0.5521 -1.2210
  106MOL0     H14577  11.236   8.765   1.219 -0.8184  0.3610  1.0536
  106MOL0     H14578  11.592   8.674   1.106  0.8586  0.5056  0.8171
  106MOL0     H14579  11.533   8.613   1.266 -1.7177 -1.5924  0.1965
  106MOL0     H14580  11.483   8.883   1.156 -1.1879 -2.9434 -1.9867
  106MOL0     H14581  11.420   8.802   1.301 -0.8312  1.6569 -2.0441
  106MOL0     H14582  11.656   8.792   1.393  1.2611 -0.0337 -0.1765
  106MOL0     H14583  11.725   8.852   1.246 -0.0567  0.8029 -0.3752
  106MOL0     H14584  11.512   9.020   1.378 -0.0397 -0.1974  1.3004
  106MOL0     H14585  11.688   9.008   1.441 -1.7542  3.2077  0.5027
  106MOL0     H14586  11.664   9.239   1.467  1.1670  0.8742 -0.8034
  106MOL0     H14587  11.593   9.437   1.603 -2.0794  0.1206  1.5430
  106MOL0     H14588  11.477   9.556   1.542  0.3307  0.4917 -1.7943
  106MOL0     H14589  11.652   9.581   1.510  2.6845 -2.3230  2.5134
  106MOL0     H14590  11.295   9.711   0.912 -2.6265  0.6393 -1.9095
  106MOL0     H14591  11.197   9.923   0.840 -1.0944 -0.8901  0.2971
  106MOL0     H14592  11.126  10.266   1.131 -0.4561 -0.6592  1.5138
  106MOL0     H14593  11.036  10.294   0.981  0.3080  0.0769 -0.2953
  106MOL0     H14594  10.857  10.140   1.048 -1.6576  2.5493  0.4967
  106MOL0     H14595  10.971  10.049   1.162  2.0025  2.1913  3.0636
  106MOL0     H14596  10.895  10.337   1.217 -1.0819 -0.8449  1.6910
  106MOL0     H14597  10.997  10.232   1.307  0.4468  0.0477 -0.2257
  106MOL0     H14598  10.805  10.095   1.377 -0.8833 -0.9806  0.0566
  106MOL0     H14599  10.699  10.176   1.262 -0.7855 -1.1293  1.3168
  106MOL0     H14600  10.844  10.307   1.489 -2.0437 -1.2718  0.7404
  106MOL0     H14601  10.744  10.410   1.376  0.4883 -0.1485 -1.6721
  106MOL0     H14602  10.649  10.197   1.559  2.2292  1.7862  2.9583
  106MOL0     H14603  10.545  10.277   1.439 -1.1352  0.0601  0.2637
  106MOL0     H14604  10.548  10.342   1.698  0.7886  0.2229  0.8068
  106MOL0     H14605  10.550  10.480   1.575  3.4589  1.5656 -0.7619
  106MOL0     H14606  10.759  10.528   1.599 -2.3569  0.7406 -2.2730
  106MOL0     H14607  10.803  10.372   1.688 -1.3169  0.0692  3.9960
  106MOL0     H14608  11.227  10.080   1.231 -0.9155  1.6792 -1.1822
  106MOL0     H14609  11.313   9.867   1.314 -0.4026  1.1451  0.1455
  106MOL0     H14610  11.467   9.438   1.063  0.2760 -1.7587 -0.8279
  106MOL0     H14611  11.566   9.199   1.075  0.6519  0.9948 -1.0728
  106MOL0     H14612  10.092   8.896   1.385  1.5126 -0.2056 -0.3865
  106MOL0     H14613   9.905   8.826   1.252 -3.1211 -0.1208  2.9646
  106MOL0     H14614   9.742   8.414   1.012  0.7617 -0.3450 -0.4190
  106MOL0     H14615   9.597   8.324   0.837 -0.6220  0.8247 -0.4260
  106MOL0     H14616   9.516   8.319   0.405  2.5920  0.1732 -3.2826
  106MOL0     H14617   9.598   8.471   0.420  1.1583 -0.8366 -2.1885
  106MOL0     H14618   9.799   8.358   0.445 -0.6578 -0.2230  1.0187
  106MOL0     H14619   9.727   8.305   0.289 -1.1581 -2.1809 -0.1855
  106MOL0     H14620   9.847   8.129   0.414  0.7272  0.9401 -0.6455
  106MOL0     H14621   9.702   8.118   0.530  0.5108  1.8038  0.5560
  106MOL0     H14622   9.672   8.099   0.237  2.7201  2.9483  1.7276
  106MOL0     H14623   9.541   8.091   0.373 -0.0024 -0.9409  1.3074
  106MOL0     H14624   9.709   7.708   0.302  3.8132  0.9679  1.3346
  106MOL0     H14625   9.772   8.574   0.544 -2.7617  2.2684  0.2654
  106MOL0     H14626   9.930   8.718   0.600  0.9635 -2.1097  0.0062
  106MOL0     H14627   9.874   8.808   0.744 -1.7111 -1.1920  1.2265
  106MOL0     H14628  10.033   8.718   0.746 -0.8844 -1.7269  1.0880
  107MOL0     O14629   2.659   2.836   6.307 -0.7336 -0.2524  0.3861
  107MOL0     C14630   2.648   2.953   6.266 -0.8014 -1.3812 -0.4550
  107MOL0     O14631   2.735   3.021   6.190 -0.4641 -0.7243 -0.0686
  107MOL0     C14632   2.859   2.964   6.173  0.4117  0.1705 -0.7720
  107MOL0     C14633   2.897   2.864   6.089 -0.0274 -0.6627  0.1672
  107MOL0     C14634   3.025   2.812   6.096  0.0852  0.2777 -0.3120
  107MOL0     C14635   3.122   2.871   6.183  0.2742 -0.0413  0.0473
  107MOL0     O14636   3.244   2.815   6.198 -0.3487  0.6305 -0.3157
  107MOL0     C14637   3.327   2.802   6.084 -0.0330  0.2946  0.3451
  107MOL0     C14638   3.378   2.935   6.041  0.2432 -0.5812  0.6394
  107MOL0     C14639   3.464   2.910   5.916 -1.4976  0.2714  0.3825
  107MOL0     C14640   3.600   2.844   5.944  0.1755  1.1864 -0.2016
  107MOL0     C14641   3.683   2.845   5.813 -0.5820  0.0653 -0.0587
  107MOL0     C14642   3.827   2.799   5.824  0.3082  0.0724  0.6484
  107MOL0     C14643   3.904   2.860   5.946  0.1442 -0.5265 -0.4137
  107MOL0     C14644   4.054   2.836   5.927  0.4241  0.0689 -0.5003
  107MOL0     N14645   4.100   2.895   5.806 -0.2930 -0.2218 -0.0802
  107MOL0     C14646   4.169   2.837   5.704 -0.7088 -0.0729 -0.6077
  107MOL0     C14647   4.194   2.941   5.620 -0.4496  0.2785  1.0166
  107MOL0     C14648   4.256   2.947   5.478  1.1770  0.5704 -0.8837
  107MOL0     C14649   4.389   2.874   5.470  0.1460  1.2812 -0.1023
  107MOL0     C14650   4.376   2.723   5.430 -0.0991  0.4859  0.3946
  107MOL0     C14651   4.381   2.698   5.278 -0.1843 -0.2133  0.1871
  107MOL0     O14652   4.373   2.553   5.265 -0.1522 -0.1638 -0.3214
  107MOL0     C14653   4.386   2.510   5.137 -0.2004  0.3301  0.4303
  107MOL0     C14654   4.339   2.386   5.108  0.6656  0.0972  0.6484
  107MOL0     C14655   4.332   2.330   4.980 -0.0857  0.5649  0.1144
  107MOL0     C14656   4.268   2.196   4.961 -0.1191  0.3812 -0.7636
  107MOL0     C14657   4.383   2.404   4.870  0.8190 -0.0549  0.3329
  107MOL0     C14658   4.391   2.365   4.723 -0.3489 -0.5149  0.9964
  107MOL0     O14659   4.398   2.235   4.692 -0.6025 -0.2250  0.2752
  107MOL0     C14660   4.341   2.192   4.576 -0.2285 -0.3472  0.0951
  107MOL0     C14661   4.391   2.220   4.449  0.1778 -0.4882  1.1214
  107MOL0     C14662   4.320   2.195   4.336  0.2102  0.0813  0.0792
  107MOL0     C14663   4.194   2.134   4.348 -0.5690  0.2700  0.4875
  107MOL0     O14664   4.115   2.115   4.238  0.5174 -0.0876 -0.5834
  107MOL0     C14665   4.119   2.216   4.134 -0.4254  0.4128  0.3948
  107MOL0     C14666   4.229   2.179   4.029 -0.4864  0.5311  1.1353
  107MOL0     C14667   4.158   2.121   3.903  0.1112 -0.7835 -0.9835
  107MOL0     C14668   4.269   2.072   3.817 -0.2016 -0.7220  0.3975
  107MOL0     C14669   4.218   2.054   3.679  0.1158 -0.3391  0.4539
  107MOL0     C14670   4.155   1.925   3.658 -0.6480  0.6906 -0.4425
  107MOL0     C14671   4.248   1.818   3.625  0.6222 -0.6023 -0.4745
  107MOL0     C14672   4.169   1.703   3.575  0.6097  0.5083 -0.1236
  107MOL0    Cl14673   4.086   1.612   3.702 -0.4912  0.4378  0.1413
  107MOL0     C14674   4.156   2.076   4.471  0.4193 -1.0110  0.3401
  107MOL0     C14675   4.234   2.106   4.588 -0.8388 -0.4459 -0.2255
  107MOL0     O14676   4.393   2.457   4.643 -0.6832 -0.7589 -0.5980
  107MOL0     C14677   4.448   2.523   4.900  0.0607 -0.5317 -1.0638
  107MOL0     C14678   4.444   2.578   5.031 -0.6763 -0.4334  0.0716
  107MOL0     N14679   4.145   3.057   5.668  0.8905  0.2897 -0.8464
  107MOL0     N14680   4.095   3.032   5.783  0.3902 -0.0926  0.1644
  107MOL0     C14681   3.080   2.972   6.268 -0.1178 -0.7243 -0.0449
  107MOL0     C14682   2.954   3.026   6.262 -0.1954 -0.2330 -0.6968
  107MOL0     C14683   2.523   3.027   6.296 -0.2791  1.3796  0.4136
  107MOL0     C14684   2.408   2.944   6.325 -0.0214 -0.2830 -0.3089
  107MOL0     C14685   2.274   3.001   6.334  0.4647  0.2445  0.0195
  107MOL0     C14686   2.256   3.141   6.336  0.8653  0.0077 -0.9659
  107MOL0     O14687   2.143   3.207   6.369  0.3271 -0.3360  0.0662
  107MOL0     C14688   2.015   3.140   6.347  0.3960 -0.7363  0.0662
  107MOL0     C14689   1.907   3.244   6.374  0.8439 -0.0659  0.2831
  107MOL0     C14690   1.921   3.355   6.271  0.3083 -0.0221 -0.3914
  107MOL0     C14691   1.838   3.488   6.309  0.8207  0.1545  0.0491
  107MOL0     C14692   1.698   3.457   6.337  0.5405 -0.0077 -0.6464
  107MOL0     C14693   1.586   3.409   6.345  0.6004  0.3569 -0.0039
  107MOL0     C14694   2.372   3.215   6.332  0.2380 -0.3146 -0.4534
  107MOL0     C14695   2.496   3.169   6.304 -0.2266  0.7242 -0.1322
  107MOL0     C14696   2.608   3.276   6.280 -0.4046  0.9822 -0.0889
  107MOL0     H14697   2.813   2.838   6.026 -2.2958 -1.3433  3.2153
  107MOL0     H14698   3.054   2.729   6.032  0.3700 -1.6333  2.1211
  107MOL0     H14699   3.264   2.765   6.003  1.9186 -2.8710  0.1137
  107MOL0     H14700   3.410   2.737   6.112 -1.6999 -1.7754  0.7237
  107MOL0     H14701   3.291   2.995   6.013  0.0379 -1.9730 -1.9235
  107MOL0     H14702   3.436   2.979   6.124 -0.7616 -0.1941  1.1534
  107MOL0     H14703   3.404   2.835   5.863 -0.8944  1.5822 -2.3371
  107MOL0     H14704   3.470   2.996   5.849 -1.6130 -0.5304 -0.6909
  107MOL0     H14705   3.645   2.898   6.027  0.3339  0.4875  0.1697
  107MOL0     H14706   3.596   2.740   5.976 -0.7501  0.9921 -0.9002
  107MOL0     H14707   3.682   2.949   5.778 -1.8978  1.0185  2.5314
  107MOL0     H14708   3.625   2.788   5.740  0.6998 -0.6584 -0.5490
  107MOL0     H14709   3.841   2.690   5.827 -0.8543 -0.2433 -2.3549
  107MOL0     H14710   3.885   2.823   5.734 -0.7152 -3.4747 -1.1562
  107MOL0     H14711   3.864   2.818   6.039 -0.6258  3.2558  1.1355
  107MOL0     H14712   3.882   2.967   5.940 -0.2627 -0.4947  1.1447
  107MOL0     H14713   4.102   2.886   6.011 -0.6537  1.3535 -0.6222
  107MOL0     H14714   4.066   2.727   5.936 -1.6984 -0.1347  0.4693
  107MOL0     H14715   4.190   2.732   5.690 -4.6265 -1.3278  1.4557
  107MOL0     H14716   4.262   3.051   5.445 -0.4271  1.2792  0.9145
  107MOL0     H14717   4.185   2.906   5.406  2.4587 -2.0518 -0.8000
  107MOL0     H14718   4.449   2.921   5.392  0.7089 -0.3831 -0.7070
  107MOL0     H14719   4.444   2.882   5.564  0.8441 -0.5776 -0.3079
  107MOL0     H14720   4.458   2.662   5.467  1.5821  1.0439 -2.1405
  107MOL0     H14721   4.288   2.677   5.477  0.5767  0.5892  1.7931
  107MOL0     H14722   4.302   2.740   5.214  0.3622  1.6185  0.6359
  107MOL0     H14723   4.478   2.726   5.236 -0.7801  0.3057 -0.8878
  107MOL0     H14724   4.298   2.327   5.190 -0.5195  0.6795  0.5054
  107MOL0     H14725   4.340   2.120   4.930  1.0828  1.4805 -0.7469
  107MOL0     H14726   4.188   2.200   4.887  0.1303  0.2052 -1.0454
  107MOL0     H14727   4.227   2.161   5.057 -0.3940 -2.5689 -1.8449
  107MOL0     H14728   4.486   2.273   4.441 -1.1493  2.0749  1.5675
  107MOL0     H14729   4.360   2.225   4.240  4.0592  3.4707  2.3835
  107MOL0     H14730   4.027   2.229   4.077 -0.2832 -1.3655 -0.3310
  107MOL0     H14731   4.130   2.315   4.179 -1.0542  2.6469 -3.8037
  107MOL0     H14732   4.282   2.270   3.997 -1.0470 -0.6611 -3.9788
  107MOL0     H14733   4.306   2.108   4.058 -0.4510 -0.1536 -0.5480
  107MOL0     H14734   4.099   2.204   3.862 -1.0005 -1.1917 -0.2511
  107MOL0     H14735   4.087   2.047   3.941 -0.3569  1.1987  2.3939
  107MOL0     H14736   4.309   1.977   3.854 -2.9312 -2.5855 -1.1008
  107MOL0     H14737   4.343   2.152   3.826 -1.9551  1.0846 -0.3377
  107MOL0     H14738   4.145   2.132   3.659  0.7924 -0.0654 -1.0350
  107MOL0     H14739   4.292   2.074   3.601  0.5494 -1.9576  0.4104
  107MOL0     H14740   4.091   1.947   3.573 -1.8188 -1.9544 -0.3401
  107MOL0     H14741   4.097   1.886   3.742  0.7314  0.9820  0.6971
  107MOL0     H14742   4.305   1.787   3.713  2.3317 -1.7691 -1.9187
  107MOL0     H14743   4.318   1.853   3.548 -0.8992  1.4386 -1.0227
  107MOL0     H14744   4.239   1.634   3.528 -0.6694  0.7331 -2.5290
  107MOL0     H14745   4.101   1.730   3.493 -1.5007  0.6092  1.5484
  107MOL0     H14746   4.061   2.025   4.483 -1.1344  0.6619 -3.2841
  107MOL0     H14747   4.195   2.073   4.684  1.0220 -1.1198  0.3512
  107MOL0     H14748   4.483   2.580   4.815 -0.1209 -1.3339 -1.6886
  107MOL0     H14749   4.492   2.674   5.043 -1.8160  0.1928 -0.2292
  107MOL0     H14750   3.157   3.021   6.326 -0.6459  0.6597 -0.4823
  107MOL0     H14751   2.928   3.111   6.324  3.4506  1.3734 -1.1237
  107MOL0     H14752   2.417   2.839   6.349 -2.3870  0.0595  2.7012
  107MOL0     H14753   2.195   2.927   6.348  0.8479 -0.2046 -0.1899
  107MOL0     H14754   2.018   3.092   6.249 -2.0324 -2.5245  0.7733
  107MOL0     H14755   1.995   3.065   6.425 -3.1170  0.0521  0.0641
  107MOL0     H14756   1.913   3.274   6.479  1.1362  0.7243  0.0486
  107MOL0     H14757   1.809   3.195   6.369 -0.5589  2.5174  0.6233
  107MOL0     H14758   2.026   3.385   6.263  0.0939  0.3713 -2.1883
  107MOL0     H14759   1.878   3.331   6.173 -2.7001 -3.9750  1.5801
  107MOL0     H14760   1.843   3.544   6.215  0.2745 -2.2729 -1.5060
  107MOL0     H14761   1.874   3.549   6.392  0.6534  1.2832 -0.6854
  107MOL0     H14762   1.491   3.359   6.340  0.7102  0.0486  0.8892
  107MOL0     H14763   2.365   3.321   6.355  1.0717 -0.7261  1.8908
  107MOL0     H14764   2.620   3.284   6.172 -0.4566  0.3018 -0.1515
  107MOL0     H14765   2.587   3.373   6.325  1.2879  1.6511 -0.6691
  107MOL0     H14766   2.702   3.227   6.308 -0.7953 -0.3139 -0.9411
  108MOL0     O14767   9.929   8.101   6.299  0.4898  0.4360 -0.9909
  108MOL0     C14768  10.042   8.093   6.252  0.0008  1.1191  0.5673
  108MOL0     O14769  10.097   8.173   6.155  0.3524  0.1042  0.7468
  108MOL0     C14770  10.024   8.287   6.128 -0.0871  0.3101 -0.5394
  108MOL0     C14771   9.905   8.274   6.058  0.1907 -0.3165  0.8338
  108MOL0     C14772   9.833   8.384   6.010 -0.4764  0.6426 -0.5414
  108MOL0     C14773   9.873   8.509   6.055 -0.0803  0.2803 -0.0564
  108MOL0     O14774   9.807   8.620   6.018  0.5124  0.1698  0.0959
  108MOL0     C14775   9.787   8.737   6.103 -0.6755 -0.3517 -0.1170
  108MOL0     C14776   9.645   8.748   6.159  0.2612 -0.6076  0.0346
  108MOL0     C14777   9.617   8.627   6.259 -0.1444 -0.0067  0.8502
  108MOL0     C14778   9.476   8.655   6.323 -0.3570  0.8729  0.6788
  108MOL0     C14779   9.452   8.530   6.408 -0.2300 -0.6243 -0.0758
  108MOL0     C14780   9.316   8.520   6.483  0.0721 -0.3157  0.3126
  108MOL0     C14781   9.309   8.392   6.571 -0.4414  0.2301  0.1374
  108MOL0     C14782   9.159   8.380   6.617 -1.2232 -0.0225 -0.1234
  108MOL0     N14783   9.136   8.457   6.733  0.1429  0.6752 -0.1000
  108MOL0     C14784   9.101   8.415   6.854  0.7629 -1.0363  0.7325
  108MOL0     C14785   9.079   8.517   6.940 -0.6264  0.4021  0.4077
  108MOL0     C14786   9.072   8.518   7.096 -0.3342  0.0114  0.2317
  108MOL0     C14787   9.104   8.658   7.159  0.3243  0.0271 -0.0555
  108MOL0     C14788   9.084   8.646   7.306  0.1402 -0.5545 -0.5474
  108MOL0     C14789   9.101   8.774   7.385 -0.0644  0.5008  0.3943
  108MOL0     O14790   9.048   8.741   7.517  0.2746  0.2539 -0.2292
  108MOL0     C14791   9.031   8.850   7.596 -0.6688 -0.1328 -0.4754
  108MOL0     C14792   9.133   8.948   7.615 -0.0591 -0.9859  0.1771
  108MOL0     C14793   9.113   9.071   7.674  0.5013 -0.0111 -0.5483
  108MOL0     C14794   9.216   9.187   7.675  0.2151  0.2753  0.0219
  108MOL0     C14795   8.987   9.092   7.734 -0.0980  0.1140  0.0570
  108MOL0     C14796   8.958   9.220   7.804 -0.5046  0.0396  0.8311
  108MOL0     O14797   9.031   9.257   7.912 -0.4239  0.3345 -0.0958
  108MOL0     C14798   8.989   9.374   7.970 -0.2059 -0.4606 -1.1491
  108MOL0     C14799   9.006   9.497   7.905  0.3611 -0.3242 -0.3966
  108MOL0     C14800   8.978   9.626   7.954  0.2643 -0.3812 -0.4779
  108MOL0     C14801   8.935   9.630   8.090 -0.0091  0.9978  0.0039
  108MOL0     O14802   8.902   9.739   8.159  0.5593  0.1596 -0.1292
  108MOL0     C14803   8.941   9.870   8.127  0.6575  0.5752 -0.5243
  108MOL0     C14804   8.923   9.973   8.239  0.1581  0.2796 -0.1409
  108MOL0     C14805   8.972  10.114   8.204 -0.9591  0.2975  0.4966
  108MOL0     C14806   8.931  10.218   8.317  1.2042 -0.4698  0.2953
  108MOL0     C14807   8.938  10.359   8.263  0.2635  0.5691  0.1458
  108MOL0     C14808   9.089  10.399   8.263  0.3039  0.5656 -0.1109
  108MOL0     C14809   9.132  10.524   8.192 -0.8230  1.0930 -0.8897
  108MOL0     C14810   9.093  10.652   8.252  0.2182  0.6608 -0.5577
  108MOL0    Cl14811   9.159  10.662   8.417  0.3089  0.0660  0.3970
  108MOL0     C14812   8.906   9.509   8.156 -0.4559  1.7175  0.2737
  108MOL0     C14813   8.942   9.381   8.101  1.2217 -0.2672 -0.3732
  108MOL0     O14814   8.860   9.273   7.760  0.0934 -0.0488  0.2750
  108MOL0     C14815   8.890   8.994   7.733 -0.6543  0.2433  0.1341
  108MOL0     C14816   8.913   8.875   7.663  0.1995  0.4579 -0.3388
  108MOL0     N14817   9.087   8.631   6.862 -1.2022 -0.0110  0.3737
  108MOL0     N14818   9.113   8.586   6.740 -0.1523 -1.0760  0.1018
  108MOL0     C14819   9.983   8.523   6.135 -0.6956  0.3583 -0.6052
  108MOL0     C14820  10.070   8.413   6.169  0.1951 -1.0606 -0.4369
  108MOL0     C14821  10.139   7.991   6.297 -0.3661  0.1273  0.7946
  108MOL0     C14822  10.274   8.032   6.295 -0.2497 -0.1947  0.2423
  108MOL0     C14823  10.372   7.954   6.330 -0.9335  0.5201 -0.2750
  108MOL0     C14824  10.351   7.832   6.395 -0.9212  0.4987  0.0467
  108MOL0     O14825  10.457   7.768   6.444 -0.4976  0.2757 -0.3415
  108MOL0     C14826  10.432   7.628   6.496  0.3442  0.1236  0.4569
  108MOL0     C14827  10.400   7.532   6.385 -0.5508  1.8234  0.1694
  108MOL0     C14828  10.427   7.382   6.420  0.2778  0.1407 -0.2779
  108MOL0     C14829  10.406   7.287   6.298  0.4306  0.5534 -0.8956
  108MOL0     C14830  10.427   7.141   6.331 -0.1803  0.8269 -0.5009
  108MOL0     C14831  10.457   7.022   6.326 -0.0708  0.0326 -0.0531
  108MOL0     C14832  10.222   7.796   6.426  0.2679 -0.0006  0.0087
  108MOL0     C14833  10.113   7.867   6.373 -0.5593  0.1973  0.4177
  108MOL0     C14834   9.973   7.812   6.393 -0.4470  0.1688  0.5992
  108MOL0     H14835   9.856   8.182   6.027 -0.7202  0.2668  0.5075
  108MOL0     H14836   9.742   8.370   5.953 -1.2850 -0.9570  1.0686
  108MOL0     H14837   9.810   8.827   6.046 -2.9043  0.2294 -0.1577
  108MOL0     H14838   9.851   8.739   6.192 -1.6573  0.5963  0.5839
  108MOL0     H14839   9.630   8.841   6.214 -0.3599 -0.1263 -0.9129
  108MOL0     H14840   9.573   8.754   6.076  1.5954  4.7476 -1.0979
  108MOL0     H14841   9.620   8.526   6.218 -1.0724 -0.8721  2.7896
  108MOL0     H14842   9.692   8.639   6.338 -0.3730 -1.5130  1.3254
  108MOL0     H14843   9.490   8.746   6.382  1.9936  0.3532  1.0208
  108MOL0     H14844   9.388   8.660   6.258 -2.0012 -1.8707  2.4337
  108MOL0     H14845   9.532   8.520   6.482 -1.0168 -0.4822  0.8195
  108MOL0     H14846   9.449   8.446   6.338 -1.1496  1.0985 -2.2063
  108MOL0     H14847   9.294   8.607   6.544  1.9480  2.5430 -2.7619
  108MOL0     H14848   9.243   8.504   6.402 -1.2674  2.2026  0.9272
  108MOL0     H14849   9.374   8.401   6.658  2.0626  3.0093 -1.8473
  108MOL0     H14850   9.332   8.302   6.513 -0.0676  0.5226 -0.1704
  108MOL0     H14851   9.083   8.400   6.541 -0.3961 -0.3941 -1.0707
  108MOL0     H14852   9.137   8.274   6.635  0.7277 -0.3188  0.8825
  108MOL0     H14853   9.098   8.309   6.875  1.3013 -1.7201 -2.2131
  108MOL0     H14854   9.133   8.436   7.134 -1.4047 -1.0351 -0.2144
  108MOL0     H14855   8.966   8.493   7.108 -0.3835 -2.2444 -3.4062
  108MOL0     H14856   9.207   8.681   7.132  0.4412 -1.2643 -0.8344
  108MOL0     H14857   9.036   8.734   7.119 -1.8935 -1.1275  1.3270
  108MOL0     H14858   8.990   8.592   7.318  0.6709 -1.5459 -0.8162
  108MOL0     H14859   9.159   8.577   7.345 -2.1275 -2.3384  0.9180
  108MOL0     H14860   9.208   8.795   7.391  0.1895 -1.0227  1.9718
  108MOL0     H14861   9.044   8.856   7.340 -1.6408 -0.7267  0.0792
  108MOL0     H14862   9.236   8.928   7.584  0.7314 -2.6804  3.5098
  108MOL0     H14863   9.280   9.178   7.587 -2.5714 -2.0422 -1.8968
  108MOL0     H14864   9.281   9.204   7.762  2.6008  0.0463 -1.6151
  108MOL0     H14865   9.171   9.286   7.665  0.0547  0.2711  0.6581
  108MOL0     H14866   9.065   9.495   7.814 -1.0310  2.3076 -1.4677
  108MOL0     H14867   8.997   9.718   7.900  0.4829 -0.5040 -0.6126
  108MOL0     H14868   9.047   9.860   8.102  0.3572  1.3763 -2.2358
  108MOL0     H14869   8.888   9.909   8.040  0.9001 -0.7290 -1.2695
  108MOL0     H14870   8.815   9.983   8.248  0.1563 -0.0386  0.2773
  108MOL0     H14871   8.958   9.939   8.338 -0.3071  0.7761  0.1990
  108MOL0     H14872   8.925  10.147   8.111  0.8226  0.3935 -0.4008
  108MOL0     H14873   9.081  10.112   8.195 -0.7774  1.6144  1.9039
  108MOL0     H14874   9.003  10.202   8.398 -1.9237 -1.0563  3.1984
  108MOL0     H14875   8.830  10.193   8.352  0.4379 -0.1901 -1.6132
  108MOL0     H14876   8.896  10.372   8.163  2.4489  0.9343 -0.7617
  108MOL0     H14877   8.889  10.429   8.332 -0.3579  0.7779 -0.4918
  108MOL0     H14878   9.154  10.317   8.232  0.2620  0.4281  0.1536
  108MOL0     H14879   9.119  10.415   8.367  2.2982  2.7808 -0.9479
  108MOL0     H14880   9.097  10.510   8.089 -0.1860 -0.8445 -0.8924
  108MOL0     H14881   9.240  10.513   8.184 -1.1211 -3.0066 -1.5751
  108MOL0     H14882   8.985  10.656   8.267  0.3381  1.0345  0.2365
  108MOL0     H14883   9.118  10.740   8.193  0.4074  0.4973 -0.7230
  108MOL0     H14884   8.876   9.515   8.260 -2.5848  3.0002 -0.3500
  108MOL0     H14885   8.920   9.298   8.166 -2.2027  3.3396  3.7163
  108MOL0     H14886   8.797   9.036   7.768 -0.6022  3.9924 -3.4649
  108MOL0     H14887   8.843   8.792   7.668  1.0627 -0.3279 -0.7954
  108MOL0     H14888  10.028   8.621   6.150  0.6939 -0.0652 -1.7698
  108MOL0     H14889  10.170   8.429   6.209 -0.1099  1.7311 -0.6452
  108MOL0     H14890  10.301   8.118   6.234 -0.2607 -0.3611  0.0003
  108MOL0     H14891  10.476   7.977   6.311 -0.6064 -0.5086  0.1998
  108MOL0     H14892  10.524   7.602   6.550 -0.0183 -0.1069  0.9718
  108MOL0     H14893  10.356   7.630   6.575  0.4806  1.8296  0.5832
  108MOL0     H14894  10.459   7.561   6.297  0.8303 -1.8940 -0.3001
  108MOL0     H14895  10.293   7.541   6.364 -0.3960  0.3270 -1.5116
  108MOL0     H14896  10.531   7.372   6.449  1.4869 -2.5491 -4.5554
  108MOL0     H14897  10.356   7.370   6.502  0.0257  3.8513  0.1789
  108MOL0     H14898  10.482   7.318   6.226 -0.8169 -1.0943 -3.0478
  108MOL0     H14899  10.307   7.293   6.250  1.0518  0.0191 -2.2956
  108MOL0     H14900  10.480   6.919   6.346  0.1307  0.6348  3.5377
  108MOL0     H14901  10.199   7.708   6.486  4.5603  0.0665  2.0745
  108MOL0     H14902   9.970   7.776   6.497  0.0243  0.5196  0.7351
  108MOL0     H14903   9.893   7.885   6.380 -0.1819  0.1983 -1.0859
  108MOL0     H14904   9.952   7.726   6.328 -0.0060  0.9937 -0.6643
  109MOL0     O14905   4.279   1.707   3.189  0.2334  0.2041  0.1484
  109MOL0     C14906   4.368   1.732   3.108 -0.2849 -0.0283 -0.1791
  109MOL0     O14907   4.423   1.855   3.079  0.4827 -1.0767  0.3488
  109MOL0     C14908   4.379   1.971   3.147 -0.3157  0.1035  0.2670
  109MOL0     C14909   4.249   1.998   3.188 -1.0307  0.4218 -0.2753
  109MOL0     C14910   4.221   2.112   3.263 -0.8211  0.1430  0.1090
  109MOL0     C14911   4.321   2.205   3.293  0.0157  0.1505 -0.0889
  109MOL0     O14912   4.279   2.304   3.373  0.5683  0.0808 -0.2471
  109MOL0     C14913   4.314   2.438   3.355  0.0196 -0.2098 -0.4804
  109MOL0     C14914   4.243   2.548   3.437  0.4410  0.3305  0.5698
  109MOL0     C14915   4.295   2.540   3.582  0.0536  0.1168  0.0158
  109MOL0     C14916   4.250   2.653   3.678 -0.2677 -0.2831 -1.1829
  109MOL0     C14917   4.320   2.625   3.821 -0.5584  0.5152  0.1566
  109MOL0     C14918   4.247   2.665   3.947  0.3726 -1.2907  0.0027
  109MOL0     C14919   4.202   2.811   3.944 -0.4264  0.0628  0.0922
  109MOL0     C14920   4.085   2.827   4.036 -0.6421  0.8353 -0.1547
  109MOL0     N14921   4.039   2.962   4.053 -0.9346  0.4397 -0.2939
  109MOL0     C14922   3.919   3.011   4.038  1.2740  0.6097 -0.4198
  109MOL0     C14923   3.923   3.140   4.049  0.8621 -0.0185  0.1462
  109MOL0     C14924   3.816   3.239   4.036 -0.0440  0.4063 -0.1440
  109MOL0     C14925   3.812   3.334   4.161  0.9125 -0.3034  0.7714
  109MOL0     C14926   3.759   3.261   4.294  0.4414  0.1923  1.4220
  109MOL0     C14927   3.609   3.265   4.302 -0.3652  1.7427  0.1611
  109MOL0     O14928   3.567   3.160   4.396 -0.3589 -0.9718 -0.3382
  109MOL0     C14929   3.432   3.118   4.386  0.1741 -0.3771  1.5611
  109MOL0     C14930   3.330   3.209   4.346 -0.1513 -0.3059  0.2272
  109MOL0     C14931   3.191   3.173   4.346 -0.5524  0.0264 -0.4799
  109MOL0     C14932   3.097   3.277   4.285  0.3183 -0.2754  0.6934
  109MOL0     C14933   3.153   3.050   4.393 -0.2453  0.5296  0.7559
  109MOL0     C14934   3.009   3.019   4.414  0.4337 -0.4622 -0.5148
  109MOL0     O14935   2.983   2.882   4.421  0.3015 -0.2455 -0.1999
  109MOL0     C14936   2.881   2.826   4.493  0.0752 -0.3777  0.5892
  109MOL0     C14937   2.753   2.844   4.446 -0.7002  0.0395  0.4214
  109MOL0     C14938   2.650   2.780   4.513 -0.2978  0.1601  0.3602
  109MOL0     C14939   2.677   2.683   4.619 -0.9311 -0.3463  0.4307
  109MOL0     O14940   2.574   2.604   4.675 -0.8248  0.3722  0.7079
  109MOL0     C14941   2.609   2.472   4.727 -0.8871  0.7222 -0.1893
  109MOL0     C14942   2.491   2.370   4.720  0.0199  0.0677  0.3386
  109MOL0     C14943   2.531   2.225   4.773  0.0318  0.3012 -0.3972
  109MOL0     C14944   2.537   2.219   4.928 -0.7884  0.0335 -0.2038
  109MOL0     C14945   2.676   2.193   4.975 -0.3714 -0.1371  0.1322
  109MOL0     C14946   2.703   2.170   5.126  0.2113  0.7355  0.0724
  109MOL0     C14947   2.625   2.265   5.216 -0.7164  0.3590  0.7827
  109MOL0     C14948   2.671   2.412   5.205 -0.8954 -0.2683 -0.6534
  109MOL0    Cl14949   2.580   2.503   5.334  0.1786 -0.6863 -0.0325
  109MOL0     C14950   2.816   2.656   4.651  0.4370 -0.2322  0.0121
  109MOL0     C14951   2.912   2.742   4.598 -0.0283  0.0677  1.1004
  109MOL0     O14952   2.920   3.106   4.432 -0.1559 -0.4020 -0.0360
  109MOL0     C14953   3.253   2.953   4.417 -0.6515  0.6219 -0.5238
  109MOL0     C14954   3.390   2.984   4.416 -0.8675  0.5395 -0.4067
  109MOL0     N14955   4.054   3.171   4.071  0.3082 -0.0979  0.1031
  109MOL0     N14956   4.118   3.061   4.090 -1.0851  0.2968 -0.6920
  109MOL0     C14957   4.449   2.188   3.247 -0.3867  0.0517  0.9087
  109MOL0     C14958   4.482   2.071   3.174 -0.2850 -0.7831  0.2516
  109MOL0     C14959   4.429   1.616   3.045 -0.8141  0.3196  0.5868
  109MOL0     C14960   4.529   1.644   2.945 -0.7634  0.2115  0.7372
  109MOL0     C14961   4.601   1.538   2.888  0.0909 -0.8141 -0.1695
  109MOL0     C14962   4.567   1.407   2.909  1.2261 -0.2936 -0.7624
  109MOL0     O14963   4.620   1.291   2.846  1.1155 -0.4169 -0.0014
  109MOL0     C14964   4.750   1.320   2.790 -0.1136  0.5271 -0.6160
  109MOL0     C14965   4.738   1.345   2.635 -0.3943 -0.0652 -0.2230
  109MOL0     C14966   4.686   1.222   2.568 -0.1225 -0.1606 -0.4835
  109MOL0     C14967   4.702   1.234   2.414  0.0124  0.6593 -0.1451
  109MOL0     C14968   4.838   1.224   2.367  0.4629  1.3834  0.0245
  109MOL0     C14969   4.961   1.205   2.360  0.7915 -0.2917  0.3634
  109MOL0     C14970   4.466   1.381   3.004 -0.1179 -0.5740  0.9848
  109MOL0     C14971   4.399   1.479   3.072 -1.2601 -0.1125 -0.6164
  109MOL0     C14972   4.294   1.431   3.162  0.1090 -0.5668 -0.3399
  109MOL0     H14973   4.172   1.922   3.186  0.2591 -0.9481 -2.6696
  109MOL0     H14974   4.125   2.133   3.311  0.6791  1.8988  2.6252
  109MOL0     H14975   4.279   2.473   3.258 -0.2082  2.3727  0.4375
  109MOL0     H14976   4.422   2.452   3.366  0.0849 -1.4409  0.8509
  109MOL0     H14977   4.271   2.648   3.404 -1.3825  1.8400  3.2351
  109MOL0     H14978   4.135   2.531   3.435  0.4375  0.3610 -0.8648
  109MOL0     H14979   4.263   2.451   3.637  0.0431  1.3081  2.0430
  109MOL0     H14980   4.404   2.531   3.572  0.2418  2.1489 -0.3091
  109MOL0     H14981   4.273   2.749   3.631 -1.6952  0.0817 -1.1863
  109MOL0     H14982   4.143   2.649   3.697  0.1165  0.6491  1.6885
  109MOL0     H14983   4.413   2.681   3.830 -1.6063  2.2360  0.5625
  109MOL0     H14984   4.342   2.518   3.836  0.7275  1.0672  2.7230
  109MOL0     H14985   4.169   2.589   3.964 -1.7189  1.2478  2.8130
  109MOL0     H14986   4.306   2.651   4.038  0.5402  0.2383  0.1477
  109MOL0     H14987   4.174   2.833   3.840 -0.1187 -1.1868 -0.2690
  109MOL0     H14988   4.279   2.874   3.989 -0.4638  0.3957 -0.3041
  109MOL0     H14989   4.005   2.772   3.984 -0.0738  2.4954 -3.0007
  109MOL0     H14990   4.110   2.775   4.128  0.3877 -2.3780 -2.0663
  109MOL0     H14991   3.833   2.949   4.016  1.9738  0.0069 -1.6197
  109MOL0     H14992   3.718   3.193   4.019 -0.4720  1.8962 -2.0004
  109MOL0     H14993   3.839   3.294   3.944  0.6873 -1.1186 -0.9086
  109MOL0     H14994   3.912   3.378   4.170  0.4760  0.7360  0.7520
  109MOL0     H14995   3.745   3.420   4.151  1.5546  0.0300 -1.1528
  109MOL0     H14996   3.788   3.155   4.296 -0.4084 -0.0321  2.3399
  109MOL0     H14997   3.791   3.300   4.391  0.5463 -1.0119  1.8973
  109MOL0     H14998   3.559   3.361   4.316 -1.4508  0.9930  1.7173
  109MOL0     H14999   3.563   3.220   4.213 -2.3974 -0.1233  2.0169
  109MOL0     H15000   3.351   3.315   4.330 -0.8053 -0.1504  0.3852
  109MOL0     H15001   3.041   3.318   4.369  0.4696 -1.8943  1.6242
  109MOL0     H15002   3.031   3.225   4.214  1.6794 -1.9346  0.5787
  109MOL0     H15003   3.161   3.355   4.242 -0.4422  1.2796  2.2528
  109MOL0     H15004   2.733   2.917   4.368 -0.2276  2.9565  2.8784
  109MOL0     H15005   2.552   2.776   4.467  1.3087  0.8028 -3.6371
  109MOL0     H15006   2.698   2.428   4.682  0.1019  2.9848 -0.5390
  109MOL0     H15007   2.626   2.497   4.832  2.5044  0.4071 -0.5559
  109MOL0     H15008   2.401   2.407   4.770  0.3373  0.1952  0.8202
  109MOL0     H15009   2.465   2.355   4.614  3.4074  0.8853 -0.7323
  109MOL0     H15010   2.625   2.198   4.725 -0.7684 -2.1628 -0.7165
  109MOL0     H15011   2.458   2.152   4.736  1.5465 -0.2961 -2.3449
  109MOL0     H15012   2.483   2.137   4.976  0.8223 -0.8158  0.2569
  109MOL0     H15013   2.503   2.316   4.964  1.1664  0.7230 -0.0807
  109MOL0     H15014   2.720   2.104   4.929  2.1258  1.2294 -0.3155
  109MOL0     H15015   2.738   2.274   4.934  2.3006 -2.7049 -1.2216
  109MOL0     H15016   2.807   2.174   5.161  0.4127 -0.2276 -0.3856
  109MOL0     H15017   2.669   2.069   5.150  0.3346  0.2780 -1.5628
  109MOL0     H15018   2.638   2.230   5.319  2.5424 -1.5896 -0.1576
  109MOL0     H15019   2.516   2.260   5.210 -0.7294  1.8746 -1.2520
  109MOL0     H15020   2.650   2.448   5.104  3.0440 -1.3834 -2.0575
  109MOL0     H15021   2.779   2.425   5.218 -1.0706  1.0531 -0.3574
  109MOL0     H15022   2.846   2.580   4.722  0.0007 -0.2262  0.2037
  109MOL0     H15023   3.015   2.732   4.633 -0.1151 -0.4681  1.1987
  109MOL0     H15024   3.218   2.854   4.443 -2.1819  1.5420  1.1339
  109MOL0     H15025   3.470   2.914   4.438  0.6550  2.4334  0.3695
  109MOL0     H15026   4.536   2.250   3.264  2.3902 -3.4647  0.6849
  109MOL0     H15027   4.585   2.054   3.145 -0.5259 -3.1338  0.6385
  109MOL0     H15028   4.563   1.743   2.916 -2.3744  0.0266 -2.1205
  109MOL0     H15029   4.674   1.557   2.810 -0.7162 -1.7835 -1.2046
  109MOL0     H15030   4.798   1.401   2.846  1.5390 -1.9164  1.7339
  109MOL0     H15031   4.810   1.230   2.803 -1.1161 -0.2156 -0.9361
  109MOL0     H15032   4.844   1.357   2.608 -0.5540  2.7200  0.1526
  109MOL0     H15033   4.691   1.438   2.603  1.5966  1.0553 -0.0470
  109MOL0     H15034   4.746   1.137   2.601 -0.8566  0.0124  1.3916
  109MOL0     H15035   4.584   1.206   2.606 -0.0971 -1.1574 -0.7925
  109MOL0     H15036   4.672   1.331   2.374  1.4625  1.1377 -0.1545
  109MOL0     H15037   4.652   1.151   2.363  1.4485 -2.6015  3.3055
  109MOL0     H15038   5.062   1.179   2.338  0.6695 -2.5099  2.1092
  109MOL0     H15039   4.443   1.280   3.035  1.0965 -0.9788  0.6459
  109MOL0     H15040   4.305   1.460   3.267 -0.0207 -2.9581  0.3940
  109MOL0     H15041   4.200   1.465   3.119  0.4237  0.8736  0.0569
  109MOL0     H15042   4.284   1.322   3.171 -2.4985 -0.3647  0.0264
  110MOL0     O15043   7.046   1.597   5.963  0.0931 -0.4132  0.6604
  110MOL0     C15044   6.997   1.710   5.952  1.6195  0.1950 -0.1175
  110MOL0     O15045   6.997   1.780   5.832 -0.3961 -0.7671 -0.3701
  110MOL0     C15046   7.059   1.742   5.715  0.2062  0.5061 -0.2869
  110MOL0     C15047   7.059   1.840   5.609  0.8068 -0.2727  0.3064
  110MOL0     C15048   7.104   1.811   5.488  0.0174  0.1828  0.7380
  110MOL0     C15049   7.161   1.683   5.454 -0.1196 -0.0241  0.1424
  110MOL0     O15050   7.199   1.657   5.325 -0.4340  0.7117  0.2270
  110MOL0     C15051   7.160   1.741   5.213  0.5062  0.4805 -0.4605
  110MOL0     C15052   7.225   1.671   5.089 -0.8648 -0.0279 -0.5207
  110MOL0     C15053   7.154   1.709   4.958  0.2331  0.1774  0.0055
  110MOL0     C15054   7.224   1.642   4.843  0.8949  0.2930  0.6613
  110MOL0     C15055   7.134   1.624   4.719 -1.1790 -0.1415 -0.7770
  110MOL0     C15056   7.198   1.571   4.596 -0.6890 -0.0059 -0.5868
  110MOL0     C15057   7.096   1.564   4.478  0.5211  0.3397 -0.3040
  110MOL0     C15058   7.042   1.695   4.437  0.4614  0.4632 -1.0405
  110MOL0     N15059   7.136   1.794   4.388 -0.0009  0.1487 -0.3749
  110MOL0     C15060   7.198   1.894   4.461 -0.4480 -0.2488  0.3922
  110MOL0     C15061   7.279   1.944   4.370 -0.1461  0.0691 -0.2676
  110MOL0     C15062   7.373   2.050   4.401 -0.0793  0.0899 -0.2947
  110MOL0     C15063   7.389   2.145   4.282 -0.2844 -0.3090 -0.7652
  110MOL0     C15064   7.452   2.278   4.342  0.2686  0.3273  0.4954
  110MOL0     C15065   7.401   2.403   4.283 -0.5431 -0.3874 -0.4177
  110MOL0     O15066   7.443   2.433   4.152  0.1037 -0.3129 -0.2250
  110MOL0     C15067   7.562   2.494   4.121 -0.3913  0.7602 -0.2553
  110MOL0     C15068   7.654   2.522   4.223  0.6221  0.4922 -1.0924
  110MOL0     C15069   7.782   2.570   4.201  0.1931 -0.0635  0.8106
  110MOL0     C15070   7.879   2.586   4.315  0.2710  0.4582  0.3523
  110MOL0     C15071   7.800   2.626   4.071  0.2289  0.5374  0.5436
  110MOL0     C15072   7.923   2.694   4.032 -0.7777  0.8898  0.0654
  110MOL0     O15073   7.898   2.821   3.997 -0.4320  0.3402 -0.2686
  110MOL0     C15074   8.004   2.891   3.957  0.3998 -0.4331 -0.1061
  110MOL0     C15075   8.059   2.997   4.030  0.2433 -0.3235  0.7811
  110MOL0     C15076   8.163   3.081   3.982  0.1526  0.0262  0.5602
  110MOL0     C15077   8.217   3.047   3.865 -0.5167  0.4468  0.1531
  110MOL0     O15078   8.311   3.139   3.837 -0.4611  0.3418 -0.0704
  110MOL0     C15079   8.431   3.113   3.756 -0.7061  0.3003  0.7039
  110MOL0     C15080   8.520   3.247   3.747 -0.1452  0.6810  0.9921
  110MOL0     C15081   8.450   3.360   3.667  0.4860 -0.1060  0.6007
  110MOL0     C15082   8.556   3.474   3.648 -0.2430  0.2009 -0.4504
  110MOL0     C15083   8.491   3.615   3.666 -0.2610  0.4437  0.5334
  110MOL0     C15084   8.377   3.640   3.565  0.0104  0.5985 -0.7531
  110MOL0     C15085   8.302   3.776   3.581 -1.4903  0.2767 -0.9153
  110MOL0     C15086   8.181   3.780   3.492 -0.3454  0.3061 -0.3996
  110MOL0    Cl15087   8.093   3.935   3.489  0.2466 -0.5279  0.0071
  110MOL0     C15088   8.166   2.937   3.788 -0.3005  0.0502  1.0946
  110MOL0     C15089   8.058   2.862   3.835 -0.3976  0.0978 -0.0988
  110MOL0     O15090   8.034   2.632   4.029  0.4036 -0.2029  0.1918
  110MOL0     C15091   7.702   2.602   3.966 -0.5164 -0.2098  0.5292
  110MOL0     C15092   7.584   2.535   3.999  0.3246 -0.4449  0.3006
  110MOL0     N15093   7.283   1.870   4.254 -0.8915 -0.8485 -0.9460
  110MOL0     N15094   7.193   1.785   4.266  0.5406 -0.1588  0.5630
  110MOL0     C15095   7.177   1.590   5.556  0.6393 -0.0118 -0.4445
  110MOL0     C15096   7.127   1.621   5.686 -1.0357  0.4695 -0.5027
  110MOL0     C15097   6.942   1.785   6.074  0.2271 -0.1865 -0.3727
  110MOL0     C15098   6.922   1.928   6.060 -0.3819  0.1754  0.6820
  110MOL0     C15099   6.880   1.999   6.163  0.1520 -0.1137  0.1947
  110MOL0     C15100   6.870   1.950   6.295  0.7495 -0.5435 -0.4785
  110MOL0     O15101   6.822   2.014   6.407 -0.7095 -0.6737 -0.5486
  110MOL0     C15102   6.774   2.153   6.397 -0.6966 -0.9041  0.5341
  110MOL0     C15103   6.749   2.195   6.536 -0.2842  1.0521 -0.7256
  110MOL0     C15104   6.881   2.196   6.625 -0.6021  0.0743  0.5589
  110MOL0     C15105   6.850   2.244   6.775 -1.2317 -0.7299 -0.1824
  110MOL0     C15106   6.805   2.384   6.778 -0.8817  0.7819 -0.1372
  110MOL0     C15107   6.755   2.491   6.764  0.8702 -0.1329 -0.1600
  110MOL0     C15108   6.890   1.816   6.316  0.4145 -0.3922  0.6510
  110MOL0     C15109   6.925   1.730   6.206 -0.7217 -0.3206  0.1663
  110MOL0     C15110   6.936   1.595   6.236  0.7076 -0.1151 -0.2782
  110MOL0     H15111   7.004   1.931   5.628 -0.6729 -1.0188 -0.2209
  110MOL0     H15112   7.108   1.881   5.405  2.6310 -1.6383 -0.8056
  110MOL0     H15113   7.210   1.838   5.221  0.0493  0.7390 -0.6689
  110MOL0     H15114   7.051   1.754   5.210  0.3762  3.1685  4.8809
  110MOL0     H15115   7.332   1.693   5.086 -0.8585  0.1661  0.5532
  110MOL0     H15116   7.215   1.564   5.109  1.9576 -0.9569 -3.2705
  110MOL0     H15117   7.052   1.671   4.969 -0.7765  3.0018  1.1552
  110MOL0     H15118   7.140   1.816   4.939 -2.4453  0.2006  1.6493
  110MOL0     H15119   7.308   1.706   4.813  0.3329 -0.3681 -2.7111
  110MOL0     H15120   7.261   1.541   4.863 -1.7814 -1.4200 -2.1826
  110MOL0     H15121   7.109   1.729   4.706  1.2400  1.0126  2.4333
  110MOL0     H15122   7.051   1.558   4.746  1.3469 -2.5955  1.7039
  110MOL0     H15123   7.286   1.630   4.571  1.1793 -0.7943  3.3970
  110MOL0     H15124   7.231   1.467   4.602 -1.2282 -0.1892 -0.7096
  110MOL0     H15125   7.012   1.496   4.494  0.4243 -0.0780 -2.3866
  110MOL0     H15126   7.140   1.520   4.389  0.2882  1.0648 -0.7864
  110MOL0     H15127   6.974   1.668   4.356 -0.1505 -0.3066 -0.2920
  110MOL0     H15128   6.978   1.741   4.513  0.3068  1.8599 -1.9998
  110MOL0     H15129   7.200   1.921   4.566  2.9563 -0.6920  0.5833
  110MOL0     H15130   7.472   2.013   4.428 -0.5607 -0.1698  1.2358
  110MOL0     H15131   7.349   2.107   4.492  0.7357 -0.3004  0.1717
  110MOL0     H15132   7.456   2.094   4.211 -0.3835  0.8626 -1.7289
  110MOL0     H15133   7.298   2.163   4.224 -0.4803  0.5283 -0.2081
  110MOL0     H15134   7.421   2.279   4.447 -0.9598 -2.8243  0.2550
  110MOL0     H15135   7.560   2.268   4.338  0.2612  0.0762  0.8698
  110MOL0     H15136   7.291   2.401   4.278 -0.5161 -1.4418 -1.0946
  110MOL0     H15137   7.424   2.483   4.353  0.3042 -0.8963 -0.1131
  110MOL0     H15138   7.648   2.471   4.318 -1.8660  0.5447 -1.1692
  110MOL0     H15139   7.835   2.559   4.411 -6.6940  4.4452 -1.0339
  110MOL0     H15140   7.905   2.690   4.332 -1.4777  0.7445  1.5921
  110MOL0     H15141   7.974   2.533   4.303 -0.5970 -1.0582 -0.2174
  110MOL0     H15142   8.023   3.027   4.128  1.3247  0.8683  0.8439
  110MOL0     H15143   8.192   3.172   4.034  2.3418 -1.4421  2.1206
  110MOL0     H15144   8.491   3.031   3.797 -0.0698  0.8286  0.8547
  110MOL0     H15145   8.390   3.085   3.659 -0.3946  0.8424  0.4137
  110MOL0     H15146   8.561   3.288   3.840  1.6057 -2.4402  1.7517
  110MOL0     H15147   8.614   3.219   3.698  0.9989  1.6228  2.5344
  110MOL0     H15148   8.360   3.392   3.721  0.2416  2.0010 -0.9258
  110MOL0     H15149   8.429   3.324   3.566  2.6688 -1.2470  0.5151
  110MOL0     H15150   8.600   3.473   3.548 -0.6030  0.9893 -0.6226
  110MOL0     H15151   8.637   3.465   3.721 -1.4935  2.1382  1.2711
  110MOL0     H15152   8.454   3.611   3.769  0.0947  1.3581  0.7020
  110MOL0     H15153   8.568   3.691   3.652 -0.4134  0.3014 -1.2845
  110MOL0     H15154   8.304   3.558   3.570  0.2515  0.1900 -2.9988
  110MOL0     H15155   8.416   3.632   3.463 -0.6800 -1.7714 -0.8818
  110MOL0     H15156   8.365   3.864   3.565 -0.2253 -0.7789 -1.9641
  110MOL0     H15157   8.256   3.779   3.680  2.8466  2.3218  1.3057
  110MOL0     H15158   8.123   3.692   3.522 -0.1362 -0.6680 -2.6616
  110MOL0     H15159   8.210   3.765   3.388 -1.4474  0.0850 -0.6867
  110MOL0     H15160   8.215   2.912   3.694  0.7920  2.4360  0.9524
  110MOL0     H15161   8.014   2.783   3.775  0.2142  0.2477 -0.7589
  110MOL0     H15162   7.711   2.641   3.866 -1.2443 -2.7562 -0.6055
  110MOL0     H15163   7.501   2.540   3.930  0.1989  0.6259  0.5080
  110MOL0     H15164   7.217   1.493   5.529 -0.2581 -0.5376  0.0854
  110MOL0     H15165   7.141   1.537   5.753 -0.8607 -1.2625 -2.5981
  110MOL0     H15166   6.937   1.985   5.969 -1.0608  1.1696  1.1602
  110MOL0     H15167   6.883   2.106   6.150  2.7553  0.1430  2.0787
  110MOL0     H15168   6.856   2.217   6.361 -0.0227 -0.6642  2.3783
  110MOL0     H15169   6.691   2.177   6.330 -1.4388  0.1050  1.7631
  110MOL0     H15170   6.671   2.127   6.571  0.5803 -0.4454 -1.6085
  110MOL0     H15171   6.716   2.299   6.527 -0.1484  1.0920 -0.7701
  110MOL0     H15172   6.923   2.096   6.641  0.1683  0.5500  1.6915
  110MOL0     H15173   6.958   2.254   6.573 -1.3768 -0.7113 -1.5759
  110MOL0     H15174   6.938   2.213   6.830 -1.0224 -2.0056 -1.1856
  110MOL0     H15175   6.775   2.185   6.829  1.5255 -1.7690  2.7986
  110MOL0     H15176   6.699   2.582   6.760 -1.0397 -1.0795  2.1690
  110MOL0     H15177   6.868   1.763   6.408 -3.1368 -2.4213 -1.1267
  110MOL0     H15178   7.027   1.551   6.193  0.7815  1.3241 -1.6955
  110MOL0     H15179   6.935   1.564   6.341 -1.0209  2.4875  0.5597
  110MOL0     H15180   6.856   1.548   6.176  0.5504  2.0858 -1.9204
  111MOL0     O15181   5.097   5.076   7.448 -0.3189 -0.0527 -0.3955
  111MOL0     C15182   5.104   5.196   7.439  0.6529 -0.2110 -0.3121
  111MOL0     O15183   5.088   5.269   7.332 -0.1857 -0.2737 -0.2568
  111MOL0     C15184   5.046   5.211   7.214  0.4823  0.3133 -0.1047
  111MOL0     C15185   5.121   5.237   7.098  0.3219  0.0148 -0.4423
  111MOL0     C15186   5.049   5.199   6.983 -1.2710 -0.5837 -0.1496
  111MOL0     C15187   4.932   5.124   6.977  0.0446  0.3652 -0.7351
  111MOL0     O15188   4.856   5.107   6.856  0.3042  0.0238  0.4332
  111MOL0     C15189   4.791   4.977   6.835 -0.4220  0.0121 -0.5453
  111MOL0     C15190   4.644   4.991   6.829  0.7822 -0.2254  0.7675
  111MOL0     C15191   4.593   5.099   6.729 -0.9321  0.4959 -0.6298
  111MOL0     C15192   4.566   5.053   6.585  0.5036 -0.4760 -0.2547
  111MOL0     C15193   4.529   5.161   6.478  0.5931 -0.7610  0.5438
  111MOL0     C15194   4.385   5.202   6.498  0.3204  0.0723 -0.5011
  111MOL0     C15195   4.355   5.324   6.420  0.3308 -0.2318  0.4599
  111MOL0     C15196   4.213   5.372   6.431 -0.3031 -0.1088 -0.1203
  111MOL0     N15197   4.208   5.520   6.421  0.9771  0.0934 -0.6084
  111MOL0     C15198   4.213   5.594   6.307  0.3570  0.8972  0.4546
  111MOL0     C15199   4.258   5.714   6.332  1.0505  0.0525 -0.5538
  111MOL0     C15200   4.299   5.832   6.248  0.1027  0.7642 -0.0909
  111MOL0     C15201   4.438   5.889   6.275 -0.5538 -0.7056 -0.6807
  111MOL0     C15202   4.461   6.030   6.224 -0.2143  1.0980 -0.0395
  111MOL0     C15203   4.610   6.069   6.255  0.1053  0.1916 -0.4871
  111MOL0     O15204   4.609   6.216   6.248 -0.1697 -0.3721  0.2343
  111MOL0     C15205   4.719   6.288   6.286  1.0014  0.0995 -0.3859
  111MOL0     C15206   4.757   6.415   6.224 -0.4803  1.3716 -0.7983
  111MOL0     C15207   4.873   6.484   6.272  0.0234 -0.1880  0.5525
  111MOL0     C15208   4.893   6.611   6.189  0.2984 -0.0273 -0.1058
  111MOL0     C15209   4.952   6.441   6.379  0.1148  0.4559 -1.0871
  111MOL0     C15210   5.077   6.506   6.433 -0.0091 -0.9237  0.0860
  111MOL0     O15211   5.128   6.477   6.554  0.0250 -1.0060 -0.1901
  111MOL0     C15212   5.246   6.546   6.595  0.5557 -0.0681  0.0293
  111MOL0     C15213   5.376   6.490   6.590  0.6173 -0.2443  0.4008
  111MOL0     C15214   5.492   6.558   6.636  0.3598 -0.8040 -0.5067
  111MOL0     C15215   5.474   6.679   6.703 -0.2940 -0.1842  0.0847
  111MOL0     O15216   5.585   6.744   6.748 -0.8959  0.0283  0.4534
  111MOL0     C15217   5.573   6.803   6.880  0.1217  0.4459  0.7101
  111MOL0     C15218   5.718   6.837   6.932 -0.3271  0.1657  0.1486
  111MOL0     C15219   5.772   6.977   6.877  1.4531  0.4567 -0.9830
  111MOL0     C15220   5.921   6.985   6.913 -0.3964  0.4740 -0.2811
  111MOL0     C15221   5.987   7.092   6.826  0.3206 -0.5629 -0.8366
  111MOL0     C15222   6.109   7.141   6.897 -0.7152  1.1292  0.1564
  111MOL0     C15223   6.197   7.245   6.819 -0.6597 -0.0639  0.2911
  111MOL0     C15224   6.212   7.218   6.669  0.4326 -0.1825 -0.0787
  111MOL0    Cl15225   6.336   7.106   6.658 -0.0775  0.0286 -0.7372
  111MOL0     C15226   5.347   6.734   6.712  0.2171 -0.0950  0.2629
  111MOL0     C15227   5.234   6.665   6.660  0.3035 -0.7840 -0.0796
  111MOL0     O15228   5.129   6.590   6.350 -0.0534 -0.0680 -0.0695
  111MOL0     C15229   4.908   6.317   6.446 -0.6032 -0.9571 -0.1987
  111MOL0     C15230   4.803   6.237   6.398 -0.1944 -0.5608  0.8420
  111MOL0     N15231   4.250   5.729   6.470  0.7587 -0.4901 -0.3699
  111MOL0     N15232   4.214   5.612   6.520 -0.1114 -0.3538  1.0149
  111MOL0     C15233   4.862   5.097   7.094 -0.4786  0.4381  0.9634
  111MOL0     C15234   4.927   5.138   7.212  0.8456 -0.4031 -1.1027
  111MOL0     C15235   5.124   5.267   7.565  0.1854 -0.8686 -0.2381
  111MOL0     C15236   5.059   5.211   7.677 -0.4511 -0.1581 -0.5635
  111MOL0     C15237   5.073   5.260   7.802 -1.9534 -0.5714  0.2687
  111MOL0     C15238   5.156   5.369   7.830  0.2478 -0.3729  0.0720
  111MOL0     O15239   5.177   5.417   7.953  0.4064 -0.5890 -0.3954
  111MOL0     C15240   5.146   5.332   8.068  0.0889 -0.2983 -0.0099
  111MOL0     C15241   5.242   5.366   8.179 -0.3215  0.1256  0.1321
  111MOL0     C15242   5.387   5.313   8.151 -0.4505 -0.1051 -0.4603
  111MOL0     C15243   5.466   5.380   8.036  0.3884 -0.3618 -0.1168
  111MOL0     C15244   5.483   5.527   8.044 -0.0783 -1.4126  0.0793
  111MOL0     C15245   5.511   5.649   8.033  0.6949 -0.1557 -0.3997
  111MOL0     C15246   5.206   5.439   7.718  0.4846  0.0932 -0.0314
  111MOL0     C15247   5.191   5.392   7.582  0.4665 -0.4054 -1.0358
  111MOL0     C15248   5.263   5.472   7.474 -0.6789 -0.4935  0.7848
  111MOL0     H15249   5.223   5.272   7.114 -0.0893 -0.2215  3.6410
  111MOL0     H15250   5.116   5.203   6.897 -0.1731  1.8052  0.7218
  111MOL0     H15251   4.817   4.897   6.904 -0.5751  0.1036 -0.3796
  111MOL0     H15252   4.837   4.940   6.743  0.5278 -2.0092  0.6666
  111MOL0     H15253   4.611   4.894   6.792  2.8911 -0.3431 -0.9928
  111MOL0     H15254   4.598   5.019   6.925 -0.4188  1.0414 -0.1460
  111MOL0     H15255   4.498   5.142   6.761 -0.8884  1.8245 -2.1584
  111MOL0     H15256   4.676   5.170   6.722 -0.0887 -0.5882 -2.0690
  111MOL0     H15257   4.664   5.013   6.556  1.7236  1.7156  0.5646
  111MOL0     H15258   4.490   4.974   6.585 -0.4421  0.4153 -0.4294
  111MOL0     H15259   4.513   5.114   6.380 -1.1206  1.0306 -0.1004
  111MOL0     H15260   4.607   5.237   6.471  0.1077 -0.3517 -0.9309
  111MOL0     H15261   4.319   5.116   6.482  2.5800 -1.5011 -1.9187
  111MOL0     H15262   4.373   5.234   6.602  1.5987  0.7605 -0.5494
  111MOL0     H15263   4.386   5.316   6.316  2.6345 -0.4882  1.1183
  111MOL0     H15264   4.423   5.404   6.451  1.9848  0.6250 -4.5643
  111MOL0     H15265   4.151   5.314   6.361 -1.0470  2.4927 -1.7471
  111MOL0     H15266   4.177   5.352   6.532 -0.5078  1.8643  0.2410
  111MOL0     H15267   4.210   5.551   6.207  0.0661 -1.1883  1.3154
  111MOL0     H15268   4.220   5.907   6.259 -1.2481 -0.7942  1.4142
  111MOL0     H15269   4.288   5.799   6.145 -3.2682  3.0928 -0.6727
  111MOL0     H15270   4.452   5.889   6.384  0.3652  0.0224 -0.7953
  111MOL0     H15271   4.518   5.825   6.237  0.3271  0.4688 -0.8768
  111MOL0     H15272   4.445   6.036   6.115 -0.4701  0.9999 -0.0079
  111MOL0     H15273   4.393   6.103   6.270  1.1691  0.0441  4.0859
  111MOL0     H15274   4.641   6.036   6.354  1.4495  0.5580 -0.7723
  111MOL0     H15275   4.673   6.026   6.176 -1.6758  2.7007 -3.5083
  111MOL0     H15276   4.696   6.442   6.139  1.6764 -0.2134 -3.0030
  111MOL0     H15277   4.999   6.616   6.159  0.8130 -1.5699  1.3489
  111MOL0     H15278   4.871   6.704   6.243  0.6270 -0.6850  1.1893
  111MOL0     H15279   4.840   6.594   6.095  0.2016  2.1645 -0.4995
  111MOL0     H15280   5.392   6.392   6.546  3.5004  0.1929  0.3071
  111MOL0     H15281   5.592   6.522   6.619  1.0758 -0.0491  1.7704
  111MOL0     H15282   5.499   6.883   6.884 -0.1439  0.1697  1.9564
  111MOL0     H15283   5.541   6.725   6.950 -1.2688  1.2398  1.0002
  111MOL0     H15284   5.718   6.827   7.041  0.1632 -2.1770 -0.0135
  111MOL0     H15285   5.789   6.756   6.917  0.7277  0.3692  3.2909
  111MOL0     H15286   5.737   7.055   6.944  4.0558 -0.6262  1.8711
  111MOL0     H15287   5.737   6.990   6.774 -0.8344 -0.1541 -0.3332
  111MOL0     H15288   5.963   6.886   6.892 -2.4659 -0.5545  0.2267
  111MOL0     H15289   5.938   7.012   7.018  3.2645  1.9014 -1.0876
  111MOL0     H15290   6.017   7.044   6.733 -1.6182 -1.1259 -1.2138
  111MOL0     H15291   5.916   7.174   6.813 -0.2813 -0.7461  0.9260
  111MOL0     H15292   6.166   7.049   6.909 -0.9093  1.0134  0.2048
  111MOL0     H15293   6.095   7.176   7.000  1.1983  0.4379  0.6816
  111MOL0     H15294   6.291   7.269   6.869 -1.2047  1.7978  0.5032
  111MOL0     H15295   6.137   7.336   6.831 -1.9855 -0.8561 -0.0863
  111MOL0     H15296   6.248   7.307   6.617  1.4502 -1.0253 -0.8633
  111MOL0     H15297   6.128   7.179   6.610  0.2122 -0.1402  0.2037
  111MOL0     H15298   5.334   6.830   6.761  0.5551 -0.3993  0.9500
  111MOL0     H15299   5.132   6.701   6.668  0.8078  0.5452  0.7374
  111MOL0     H15300   4.955   6.281   6.537  0.5330  1.3133  0.2075
  111MOL0     H15301   4.773   6.153   6.460 -0.1119 -1.3198 -0.1174
  111MOL0     H15302   4.759   5.063   7.100 -0.1444 -0.8298 -0.2061
  111MOL0     H15303   4.875   5.133   7.307 -0.5444  4.2018 -1.3750
  111MOL0     H15304   4.998   5.122   7.668 -0.8047 -0.2612  2.0500
  111MOL0     H15305   4.997   5.217   7.866 -1.9850 -2.6327 -1.0879
  111MOL0     H15306   5.042   5.348   8.097 -0.1502 -0.6983 -0.6211
  111MOL0     H15307   5.162   5.225   8.049 -0.3462 -0.5463  0.9838
  111MOL0     H15308   5.211   5.317   8.272  0.8171  0.1174  0.5188
  111MOL0     H15309   5.239   5.473   8.202 -0.4530  0.3508 -0.8614
  111MOL0     H15310   5.435   5.324   8.249 -2.7045 -0.8600  0.8039
  111MOL0     H15311   5.379   5.206   8.132 -0.8867 -0.2072  0.2899
  111MOL0     H15312   5.423   5.353   7.939  1.7351  0.4978 -0.9967
  111MOL0     H15313   5.567   5.337   8.035  0.2377 -0.8345 -3.0568
  111MOL0     H15314   5.529   5.755   8.039  1.3186 -0.2673  5.0033
  111MOL0     H15315   5.260   5.532   7.731  0.9978 -0.2254  0.1590
  111MOL0     H15316   5.368   5.492   7.497 -1.3676  0.5651  3.3308
  111MOL0     H15317   5.264   5.424   7.375 -0.0720 -0.5426  0.8130
  111MOL0     H15318   5.217   5.572   7.472 -2.6053 -1.3533 -0.2329
  112MOL0     O15319   1.838   9.759   0.175  0.0815  0.0049 -0.4801
  112MOL0     C15320   1.740   9.833   0.171  0.3254 -0.5115  0.4365
  112MOL0     O15321   1.735   9.961   0.206 -0.3690 -1.2249  0.1053
  112MOL0     C15322   1.860  10.030   0.195  0.8843  0.0031  0.2245
  112MOL0     C15323   1.862  10.136   0.096  0.0470  0.1999 -0.4292
  112MOL0     C15324   1.977  10.214   0.068 -0.5393  1.3748 -0.2205
  112MOL0     C15325   2.095  10.186   0.138 -0.5432  0.5341 -0.7200
  112MOL0     O15326   2.209  10.256   0.093 -0.6766 -0.0464 -0.2120
  112MOL0     C15327   2.327  10.241   0.171 -0.1188  0.4521 -0.6297
  112MOL0     C15328   2.446  10.325   0.121  1.1011  0.0471  0.5598
  112MOL0     C15329   2.461  10.314  -0.032  0.8863  0.1764  0.1323
  112MOL0     C15330   2.574  10.401  -0.085  0.1190 -0.4358  0.4335
  112MOL0     C15331   2.563  10.408  -0.241  0.3556 -0.5459 -0.7180
  112MOL0     C15332   2.687  10.481  -0.313 -0.4081  0.2289  0.7818
  112MOL0     C15333   2.705  10.629  -0.280  0.1205 -0.1861 -0.0740
  112MOL0     C15334   2.828  10.693  -0.348  0.2224 -0.1385  0.3860
  112MOL0     N15335   2.820  10.693  -0.492 -0.0257 -1.2661 -0.3285
  112MOL0     C15336   2.877  10.597  -0.574  0.0884 -0.0289  0.0773
  112MOL0     C15337   2.859  10.649  -0.701 -0.1640 -0.8096  0.0829
  112MOL0     C15338   2.889  10.588  -0.836  0.4904  0.3634 -0.7591
  112MOL0     C15339   2.948  10.443  -0.818  0.3863  0.7925 -0.5532
  112MOL0     C15340   3.101  10.447  -0.784  0.9742 -0.4382 -0.1583
  112MOL0     C15341   3.170  10.314  -0.809 -0.0901 -0.3979  0.8519
  112MOL0     O15342   3.113  10.208  -0.734  0.7307 -0.2369  1.0095
  112MOL0     C15343   3.110  10.207  -0.598  0.2891  0.0285 -0.2145
  112MOL0     C15344   3.029  10.110  -0.524  0.5121  0.4502 -0.0255
  112MOL0     C15345   3.027  10.105  -0.382  0.2133 -0.7885 -0.1869
  112MOL0     C15346   2.947   9.992  -0.323  0.1974 -1.1930 -0.0791
  112MOL0     C15347   3.103  10.192  -0.304 -0.2036 -0.6901  0.1715
  112MOL0     C15348   3.087  10.182  -0.162 -0.7333 -0.6745  0.5389
  112MOL0     O15349   2.991  10.265  -0.110  0.0760 -0.7008 -0.0714
  112MOL0     C15350   2.943  10.250   0.015 -0.3175  0.2626 -0.2376
  112MOL0     C15351   2.898  10.123   0.058 -0.5272  0.1620  0.2143
  112MOL0     C15352   2.853  10.101   0.192 -0.7248  0.7331 -0.0589
  112MOL0     C15353   2.818  10.215   0.272  0.1354 -0.2416 -0.2514
  112MOL0     O15354   2.753  10.227   0.392  0.1059 -0.8016  0.1035
  112MOL0     C15355   2.724  10.106   0.459 -0.3851 -0.1620  0.2713
  112MOL0     C15356   2.577  10.080   0.435 -0.3079 -0.3788  0.3522
  112MOL0     C15357   2.536   9.946   0.497  0.0706  0.0292 -0.7298
  112MOL0     C15358   2.557   9.835   0.380  1.1936 -0.3200 -0.5467
  112MOL0     C15359   2.495   9.697   0.419  0.4686  0.3122 -0.4857
  112MOL0     C15360   2.343   9.700   0.379 -0.7298 -0.2650 -0.4999
  112MOL0     C15361   2.325   9.683   0.223  0.2070  0.6938 -0.2570
  112MOL0     C15362   2.177   9.664   0.179 -0.4230  0.3814 -0.1875
  112MOL0    Cl15363   2.167   9.649   0.004  0.3201  0.3353 -0.3578
  112MOL0     C15364   2.861  10.341   0.222  0.0278  0.2244  0.6819
  112MOL0     C15365   2.926  10.357   0.108 -1.0874 -0.2649  0.3156
  112MOL0     O15366   3.165  10.117  -0.100 -0.9535  0.0979  1.1388
  112MOL0     C15367   3.194  10.281  -0.366  0.1144  0.0488  0.5710
  112MOL0     C15368   3.192  10.286  -0.510  0.8770  0.3199  0.3090
  112MOL0     N15369   2.804  10.775  -0.691  0.7055  0.6680 -0.6081
  112MOL0     N15370   2.786  10.802  -0.564 -0.4256  0.7044  0.4901
  112MOL0     C15371   2.091  10.076   0.225  0.2622 -0.9095 -0.4082
  112MOL0     C15372   1.975  10.008   0.261  0.3855  0.2038 -0.2718
  112MOL0     C15373   1.609   9.774   0.128 -0.4842 -1.4044  0.3261
  112MOL0     C15374   1.611   9.636   0.099  0.2324 -0.1486 -0.6354
  112MOL0     C15375   1.500   9.572   0.062  0.6508  0.0495 -0.2389
  112MOL0     C15376   1.383   9.633   0.042 -0.3316  0.9112 -0.3483
  112MOL0     O15377   1.275   9.551   0.018 -0.8448  0.5530 -0.1779
  112MOL0     C15378   1.161   9.613  -0.040  0.0917 -0.2332 -0.3122
  112MOL0     C15379   1.043   9.612   0.065 -0.1274  0.1445  1.3482
  112MOL0     C15380   0.986   9.470   0.110  0.6000  0.1745  0.3103
  112MOL0     C15381   0.883   9.470   0.230 -0.2802 -0.0886  0.7884
  112MOL0     C15382   0.942   9.477   0.369  0.7609 -0.4290  0.2233
  112MOL0     C15383   0.987   9.486   0.483 -0.0144  0.3563  0.7741
  112MOL0     C15384   1.377   9.763   0.088  0.3212  0.5292  0.1429
  112MOL0     C15385   1.485   9.838   0.121 -0.5074  0.1124  0.1237
  112MOL0     C15386   1.476   9.987   0.156  0.1613  0.3306 -0.8284
  112MOL0     H15387   1.780  10.152   0.028  1.1492 -3.0269 -2.7953
  112MOL0     H15388   1.978  10.293  -0.006  0.9607 -0.2416 -2.0257
  112MOL0     H15389   2.355  10.136   0.166 -0.1068  0.2255  2.5271
  112MOL0     H15390   2.297  10.273   0.272  1.0697  3.8940 -1.2114
  112MOL0     H15391   2.441  10.432   0.141  1.4914  0.1016  0.3785
  112MOL0     H15392   2.538  10.286   0.166  1.1834 -0.5266 -0.0845
  112MOL0     H15393   2.465  10.209  -0.061 -1.3842 -0.3419  1.4653
  112MOL0     H15394   2.363  10.347  -0.066 -0.3419 -1.1196  2.2406
  112MOL0     H15395   2.569  10.503  -0.046 -0.8367 -0.2172 -0.2395
  112MOL0     H15396   2.671  10.364  -0.049 -0.8131 -2.0601  1.3878
  112MOL0     H15397   2.470  10.460  -0.267  0.6403 -0.2229 -1.0993
  112MOL0     H15398   2.540  10.310  -0.282  0.5392  0.0177 -2.2515
  112MOL0     H15399   2.777  10.422  -0.293  0.5418  0.6399 -1.8858
  112MOL0     H15400   2.667  10.474  -0.420 -0.7838  3.6813  0.5261
  112MOL0     H15401   2.721  10.633  -0.171 -1.2895 -0.0749  0.1489
  112MOL0     H15402   2.614  10.685  -0.300 -0.1637 -0.9554 -0.9803
  112MOL0     H15403   2.828  10.799  -0.323  0.9423 -0.4817  1.9420
  112MOL0     H15404   2.918  10.648  -0.304  1.7251 -0.1178 -2.4188
  112MOL0     H15405   2.922  10.505  -0.539  0.2096  0.2135  0.5666
  112MOL0     H15406   2.961  10.651  -0.890 -2.0587  2.4905 -1.8943
  112MOL0     H15407   2.796  10.574  -0.892 -3.1206  0.0628  4.5589
  112MOL0     H15408   2.893  10.392  -0.738  1.9370  0.5019  0.3720
  112MOL0     H15409   2.928  10.382  -0.906 -1.9838  0.2428  0.2786
  112MOL0     H15410   3.150  10.524  -0.844  2.6679  0.7508  2.5200
  112MOL0     H15411   3.122  10.475  -0.680  0.6081 -0.5048 -0.0669
  112MOL0     H15412   3.161  10.290  -0.915 -1.4110 -1.4943  1.1796
  112MOL0     H15413   3.275  10.328  -0.781  0.0416 -0.2871  0.3113
  112MOL0     H15414   2.971  10.043  -0.586 -0.8415  0.8007  0.8082
  112MOL0     H15415   2.998   9.947  -0.237  1.1426 -1.4808 -0.7751
  112MOL0     H15416   2.941   9.920  -0.404  2.1169 -1.1176 -0.3407
  112MOL0     H15417   2.845  10.021  -0.298 -0.4871 -2.4501 -1.3366
  112MOL0     H15418   2.921  10.038  -0.005  0.3550  0.8659 -0.4431
  112MOL0     H15419   2.837  10.001   0.232  1.7054  0.5797  0.6801
  112MOL0     H15420   2.780  10.017   0.432 -0.6030 -0.1078 -0.3629
  112MOL0     H15421   2.736  10.113   0.568  3.1156 -0.1311 -0.0267
  112MOL0     H15422   2.520  10.164   0.476  2.6330  2.3610 -0.7223
  112MOL0     H15423   2.548  10.082   0.330 -0.2399  1.2015  0.3394
  112MOL0     H15424   2.427   9.943   0.510  0.3131 -2.9740  1.7843
  112MOL0     H15425   2.589   9.929   0.591 -1.2050 -1.5095 -0.2298
  112MOL0     H15426   2.664   9.814   0.389  0.8397 -1.3478  3.4099
  112MOL0     H15427   2.522   9.859   0.279 -0.6982  1.8874  0.5250
  112MOL0     H15428   2.542   9.608   0.377 -0.4405 -0.4637  0.1052
  112MOL0     H15429   2.487   9.667   0.524 -0.2184 -3.3415 -1.4375
  112MOL0     H15430   2.288   9.789   0.411 -3.3711 -2.7422  2.4603
  112MOL0     H15431   2.292   9.615   0.425 -2.7445  0.7323 -0.7997
  112MOL0     H15432   2.388   9.602   0.186  0.5508  0.4397  0.8404
  112MOL0     H15433   2.361   9.777   0.180  0.5156  0.4622 -0.5022
  112MOL0     H15434   2.111   9.746   0.210  1.3533  2.3671 -1.3898
  112MOL0     H15435   2.138   9.574   0.227 -0.9046  0.2190 -0.8668
  112MOL0     H15436   2.834  10.424   0.286 -0.5958 -1.3318  2.5433
  112MOL0     H15437   2.960  10.452   0.069  0.3636 -0.3392  1.3331
  112MOL0     H15438   3.264  10.349  -0.317 -0.4045  0.2528  1.0482
  112MOL0     H15439   3.267  10.347  -0.559  0.6305  2.2450  2.1804
  112MOL0     H15440   2.185  10.039   0.266 -0.4816 -0.8434  1.4809
  112MOL0     H15441   1.988   9.926   0.332 -0.2759  0.9939  0.7884
  112MOL0     H15442   1.705   9.583   0.110  0.2642  0.2601  1.4484
  112MOL0     H15443   1.509   9.471   0.022 -0.4988 -0.3288  0.3924
  112MOL0     H15444   1.182   9.714  -0.075 -1.7896  0.7452  1.1782
  112MOL0     H15445   1.124   9.552  -0.123 -2.4220 -1.4974  1.5973
  112MOL0     H15446   0.953   9.662   0.028 -2.6009 -5.4920 -1.5684
  112MOL0     H15447   1.075   9.665   0.155 -0.1776 -2.8211  3.2562
  112MOL0     H15448   0.938   9.430   0.020  1.5145  3.0964 -1.6065
  112MOL0     H15449   1.063   9.402   0.146 -1.3531 -1.4663  1.6359
  112MOL0     H15450   0.822   9.380   0.226 -1.9284  1.0235 -1.2893
  112MOL0     H15451   0.815   9.552   0.208  1.5878  1.2923 -0.1634
  112MOL0     H15452   1.018   9.484   0.585 -0.5233 -2.2645  0.9626
  112MOL0     H15453   1.282   9.812   0.110  0.2426 -0.1554  1.4067
  112MOL0     H15454   1.514   9.996   0.258 -1.8415 -4.4000  0.6283
  112MOL0     H15455   1.531  10.042   0.079  0.8577  0.1776 -0.4434
  112MOL0     H15456   1.376  10.029   0.165  0.8632  1.7108  1.4530
  113MOL0     O15457   6.560   1.073   2.962  0.2747  0.0846 -0.1181
  113MOL0     C15458   6.507   1.175   2.924  1.1161 -0.4338 -0.0160
  113MOL0     O15459   6.554   1.305   2.950 -0.7307 -0.5269  0.3915
  113MOL0     C15460   6.651   1.317   3.047  0.1651  0.2671  0.2492
  113MOL0     C15461   6.662   1.247   3.169 -0.7031  0.0259 -0.5249
  113MOL0     C15462   6.774   1.273   3.257 -0.4239 -0.4627 -0.8195
  113MOL0     C15463   6.870   1.357   3.216  0.3466  0.2342 -0.7492
  113MOL0     O15464   6.975   1.362   3.303  0.1848 -0.0370  0.4224
  113MOL0     C15465   7.063   1.475   3.303 -0.5084  0.1146 -0.1410
  113MOL0     C15466   7.144   1.467   3.436 -0.1957 -0.6378 -0.9272
  113MOL0     C15467   7.255   1.366   3.434 -0.3593  0.8008  0.0759
  113MOL0     C15468   7.342   1.369   3.557  0.6516 -0.0088  0.8062
  113MOL0     C15469   7.271   1.367   3.697 -0.3831  0.3123 -0.1106
  113MOL0     C15470   7.171   1.248   3.711  0.2245  0.2967 -0.3700
  113MOL0     C15471   7.253   1.128   3.735 -0.1122  0.3805  1.1186
  113MOL0     C15472   7.175   0.998   3.702  0.1424 -0.6560 -0.0689
  113MOL0     N15473   7.258   0.878   3.686  0.6879 -0.4568  0.3265
  113MOL0     C15474   7.247   0.789   3.578 -0.5323 -1.2997 -0.6477
  113MOL0     C15475   7.305   0.676   3.627  0.0590 -0.6519 -1.3753
  113MOL0     C15476   7.324   0.552   3.557  0.6068  0.8799  1.1239
  113MOL0     C15477   7.428   0.566   3.444 -0.2503 -0.2296  0.2605
  113MOL0     C15478   7.477   0.429   3.391 -0.2560  0.5965 -0.1904
  113MOL0     C15479   7.354   0.349   3.330  0.1669 -1.1960  0.8071
  113MOL0     O15480   7.354   0.348   3.186  0.1472 -0.2595  0.6234
  113MOL0     C15481   7.441   0.267   3.122  0.4106  0.5126 -0.4098
  113MOL0     C15482   7.531   0.171   3.179  0.3259  0.9056 -0.2182
  113MOL0     C15483   7.602   0.085   3.091 -0.2353  0.7577  0.1246
  113MOL0     C15484   7.685  -0.025   3.155  0.0183 -0.4302 -0.4071
  113MOL0     C15485   7.598   0.092   2.947  0.8942 -0.3171 -0.8259
  113MOL0     C15486   7.673   0.011   2.851  0.8380  0.6483  0.3756
  113MOL0     O15487   7.618  -0.000   2.720 -0.3045 -0.2033 -0.7333
  113MOL0     C15488   7.696  -0.057   2.624 -0.8764  0.1060  0.0048
  113MOL0     C15489   7.785   0.023   2.556 -0.6491  0.0856 -0.4110
  113MOL0     C15490   7.898  -0.027   2.477  0.4030 -0.0608  0.6873
  113MOL0     C15491   7.921  -0.160   2.468 -0.2133  0.1305 -0.5076
  113MOL0     O15492   8.035  -0.200   2.408 -0.2087  0.6115  0.4009
  113MOL0     C15493   8.033  -0.342   2.389 -0.9934  0.6502 -0.3032
  113MOL0     C15494   8.150  -0.389   2.296 -1.1854 -0.0402  0.8794
  113MOL0     C15495   8.142  -0.548   2.264 -0.1228  0.0258  0.2065
  113MOL0     C15496   8.263  -0.590   2.186  0.2492  0.6295 -0.4953
  113MOL0     C15497   8.258  -0.671   2.054  0.9452  0.0437 -0.0014
  113MOL0     C15498   8.192  -0.590   1.940  0.1367 -0.3442 -0.4072
  113MOL0     C15499   8.170  -0.677   1.821  0.0979  0.0038  0.4563
  113MOL0     C15500   8.136  -0.594   1.688 -0.4275 -0.0949 -0.5527
  113MOL0    Cl15501   8.299  -0.512   1.638 -0.0363  0.2003  0.3373
  113MOL0     C15502   7.821  -0.247   2.532  0.8315 -0.2804 -0.0759
  113MOL0     C15503   7.716  -0.193   2.611 -0.1988 -0.3163 -0.4909
  113MOL0     O15504   7.775  -0.020   2.878 -1.0142  0.9840 -0.2459
  113MOL0     C15505   7.508   0.186   2.902  0.8377 -0.0907 -0.0520
  113MOL0     C15506   7.437   0.275   2.981 -0.2337  0.4615 -0.5543
  113MOL0     N15507   7.357   0.701   3.754  0.2014 -0.3745 -0.9207
  113MOL0     N15508   7.337   0.822   3.779 -0.7707 -0.3435 -0.0524
  113MOL0     C15509   6.851   1.439   3.096  0.0753  0.4291 -0.5608
  113MOL0     C15510   6.738   1.410   3.015 -0.1285  0.7565  0.5341
  113MOL0     C15511   6.381   1.162   2.840 -0.3168  0.7448 -0.3586
  113MOL0     C15512   6.268   1.112   2.913  0.3624  0.0712 -0.3021
  113MOL0     C15513   6.147   1.117   2.851  0.2299 -0.0063  0.2482
  113MOL0     C15514   6.128   1.149   2.718  0.2848  0.4359  0.1976
  113MOL0     O15515   6.004   1.145   2.660 -0.4624 -0.1510 -0.2069
  113MOL0     C15516   5.919   1.259   2.679  0.2295  0.7014 -0.7089
  113MOL0     C15517   5.832   1.233   2.801  0.3139  0.1251  0.4076
  113MOL0     C15518   5.717   1.339   2.814 -0.1341 -0.2301 -0.4139
  113MOL0     C15519   5.647   1.314   2.949 -0.6168  0.0526  0.3160
  113MOL0     C15520   5.556   1.199   2.931 -0.2489 -0.1661  0.3795
  113MOL0     C15521   5.494   1.102   2.934 -0.5393 -0.4429 -0.3331
  113MOL0     C15522   6.246   1.188   2.649 -0.2401  0.7146 -0.1903
  113MOL0     C15523   6.371   1.204   2.708  0.4738  0.2738  0.3634
  113MOL0     C15524   6.484   1.258   2.630 -0.4625  0.7278  0.3016
  113MOL0     H15525   6.594   1.165   3.189  0.5379 -1.3904 -1.8930
  113MOL0     H15526   6.765   1.218   3.349 -2.8233  1.6282  0.3286
  113MOL0     H15527   7.005   1.568   3.307 -1.5611 -0.4671 -1.1577
  113MOL0     H15528   7.128   1.490   3.216 -0.8825 -1.0922 -0.6497
  113MOL0     H15529   7.186   1.565   3.460  1.4143 -1.6496  0.6493
  113MOL0     H15530   7.073   1.434   3.513  1.8062 -2.9568  0.0768
  113MOL0     H15531   7.216   1.266   3.415  3.4608 -1.0043  0.7553
  113MOL0     H15532   7.327   1.383   3.353 -1.1930  0.7277 -0.7025
  113MOL0     H15533   7.423   1.297   3.544  1.5326  1.1318 -0.2583
  113MOL0     H15534   7.405   1.458   3.558  0.9188  0.0184 -3.1274
  113MOL0     H15535   7.214   1.458   3.720 -1.0285 -0.5967  2.1125
  113MOL0     H15536   7.347   1.363   3.776  0.2848  2.9414 -0.5230
  113MOL0     H15537   7.087   1.251   3.781 -0.3195 -0.2281 -0.9840
  113MOL0     H15538   7.127   1.242   3.611  1.9671 -1.1217 -1.1101
  113MOL0     H15539   7.275   1.119   3.841  0.3846 -0.8405  0.9273
  113MOL0     H15540   7.340   1.121   3.668 -1.4787 -2.4726 -0.5601
  113MOL0     H15541   7.103   0.979   3.783  0.2624  2.9990  1.0890
  113MOL0     H15542   7.116   1.012   3.612 -1.1035  1.8186  1.0346
  113MOL0     H15543   7.194   0.799   3.483 -1.4616 -2.9363 -0.3463
  113MOL0     H15544   7.223   0.531   3.520 -0.4815  4.8286  1.4703
  113MOL0     H15545   7.344   0.467   3.623  3.5767 -0.6379 -1.4734
  113MOL0     H15546   7.398   0.630   3.360 -0.4163  3.5557  2.9444
  113MOL0     H15547   7.509   0.634   3.472  0.8309 -0.9298 -1.0415
  113MOL0     H15548   7.551   0.449   3.314  0.4951  0.9031  0.5928
  113MOL0     H15549   7.531   0.382   3.474 -1.5032  2.9396  2.0806
  113MOL0     H15550   7.355   0.243   3.356 -1.0734 -1.6598 -0.8873
  113MOL0     H15551   7.263   0.392   3.372  2.4939  1.7320  3.3767
  113MOL0     H15552   7.529   0.150   3.285  2.9880 -2.8261 -0.7386
  113MOL0     H15553   7.664  -0.125   3.117  0.9931 -0.5730 -0.6140
  113MOL0     H15554   7.672  -0.023   3.263  2.2904  0.0980 -0.0894
  113MOL0     H15555   7.794  -0.015   3.142 -0.0262  1.3404  0.3703
  113MOL0     H15556   7.792   0.130   2.572  2.9643 -0.2501  1.1274
  113MOL0     H15557   7.964   0.044   2.429  0.8010  0.6113  2.1506
  113MOL0     H15558   8.043  -0.380   2.491 -3.2050 -0.6491 -0.5093
  113MOL0     H15559   7.936  -0.379   2.355 -0.4518 -2.1558  0.9106
  113MOL0     H15560   8.148  -0.323   2.209 -1.3221 -1.0134  0.1233
  113MOL0     H15561   8.242  -0.380   2.354 -1.0184  1.5992  0.3963
  113MOL0     H15562   8.049  -0.567   2.211 -1.9112  1.7695  2.4770
  113MOL0     H15563   8.137  -0.609   2.355 -3.7015 -0.0197  0.1392
  113MOL0     H15564   8.324  -0.652   2.253  1.0359  1.4051 -0.4710
  113MOL0     H15565   8.319  -0.497   2.171 -1.5042  1.9002  0.3668
  113MOL0     H15566   8.361  -0.693   2.027  0.7583 -1.2064  0.2716
  113MOL0     H15567   8.208  -0.766   2.075 -2.2211  0.9690 -2.5488
  113MOL0     H15568   8.237  -0.491   1.924 -0.5714  0.2014  0.8361
  113MOL0     H15569   8.092  -0.571   1.979 -0.3744  1.0629 -2.2302
  113MOL0     H15570   8.082  -0.742   1.825  0.1862 -0.2578 -1.1022
  113MOL0     H15571   8.262  -0.734   1.808  2.2321  3.3279 -0.3568
  113MOL0     H15572   8.060  -0.516   1.702 -0.6195 -0.5069  0.8002
  113MOL0     H15573   8.091  -0.657   1.611  0.5998  1.1749 -2.2579
  113MOL0     H15574   7.832  -0.355   2.532  1.4298 -0.2878  2.5198
  113MOL0     H15575   7.652  -0.266   2.660 -0.6179  0.2357 -0.2055
  113MOL0     H15576   7.493   0.205   2.796 -1.4504  0.9932  0.4123
  113MOL0     H15577   7.358   0.340   2.943 -3.6003 -0.9586  3.2356
  113MOL0     H15578   6.918   1.514   3.055 -0.3744  0.6367 -0.9259
  113MOL0     H15579   6.733   1.470   2.924 -1.4706 -0.1474 -0.0231
  113MOL0     H15580   6.275   1.072   3.013 -0.8030 -0.0721 -0.2583
  113MOL0     H15581   6.065   1.097   2.919 -1.6915 -0.3174 -2.0227
  113MOL0     H15582   5.978   1.349   2.695 -0.1270  1.1735 -1.9021
  113MOL0     H15583   5.855   1.276   2.591 -1.3784  2.5631  0.7277
  113MOL0     H15584   5.896   1.253   2.887  0.4477  0.2076  0.2873
  113MOL0     H15585   5.782   1.135   2.797  0.0919  0.2569 -0.0429
  113MOL0     H15586   5.768   1.436   2.812  1.1431 -0.8788 -2.8397
  113MOL0     H15587   5.634   1.339   2.743 -0.6213 -0.9711  0.1320
  113MOL0     H15588   5.591   1.399   2.988 -0.9126 -0.7626  1.7384
  113MOL0     H15589   5.718   1.282   3.026  0.2695 -1.5876 -1.1137
  113MOL0     H15590   5.446   1.007   2.942 -1.8883  0.0419 -2.0828
  113MOL0     H15591   6.228   1.221   2.547  0.1695 -1.6987 -1.0958
  113MOL0     H15592   6.453   1.332   2.556  2.1702  0.2163 -1.4649
  113MOL0     H15593   6.553   1.305   2.701  1.4750 -0.8036 -0.4819
  113MOL0     H15594   6.525   1.184   2.560  1.3543  2.2273 -0.3193
  114MOL0     O15595   4.131   1.270   5.084  0.1444 -0.3108 -0.2320
  114MOL0     C15596   4.070   1.165   5.067 -0.1078 -0.0910 -0.4912
  114MOL0     O15597   4.121   1.058   5.002  0.0442 -0.2819 -1.1691
  114MOL0     C15598   4.240   1.063   4.943  0.3045 -0.0423  0.9529
  114MOL0     C15599   4.329   0.962   4.980 -0.3605  0.6567 -0.3143
  114MOL0     C15600   4.464   0.955   4.922  0.7469 -0.7014 -0.3902
  114MOL0     C15601   4.506   1.061   4.839 -0.3906  0.3877  0.3999
  114MOL0     O15602   4.634   1.059   4.807 -0.0047  0.9249  0.3432
  114MOL0     C15603   4.687   1.187   4.778  0.2607 -0.2980 -0.2178
  114MOL0     C15604   4.843   1.178   4.767  0.1314 -0.1412  0.3701
  114MOL0     C15605   4.911   1.113   4.890  0.2050 -0.8472  0.7336
  114MOL0     C15606   5.060   1.134   4.873 -0.3183 -0.9235 -0.7192
  114MOL0     C15607   5.131   1.048   4.968 -0.1388  0.3682 -0.3494
  114MOL0     C15608   5.286   1.087   4.962  0.3600  0.1412  0.3211
  114MOL0     C15609   5.312   1.231   5.018  0.7342 -0.3169 -0.2510
  114MOL0     C15610   5.456   1.250   5.057 -0.6103  0.2571 -0.0219
  114MOL0     N15611   5.464   1.346   5.162  0.4556  0.0152  0.1522
  114MOL0     C15612   5.489   1.322   5.295 -1.0518 -1.4151  0.3735
  114MOL0     C15613   5.506   1.442   5.360  0.6343 -0.3846  0.7342
  114MOL0     C15614   5.554   1.472   5.499  0.8613  0.0386  0.0370
  114MOL0     C15615   5.704   1.504   5.518  0.5338  0.0826 -0.3414
  114MOL0     C15616   5.793   1.376   5.541 -0.3676 -0.0328 -0.1204
  114MOL0     C15617   5.933   1.407   5.590 -0.6396  0.7520  0.1359
  114MOL0     O15618   6.015   1.451   5.475  0.4868  0.0079  0.0969
  114MOL0     C15619   6.080   1.571   5.471 -0.3634  0.1639 -0.0944
  114MOL0     C15620   6.063   1.675   5.553  0.9524 -0.1375 -0.4526
  114MOL0     C15621   6.136   1.791   5.557 -0.4635 -0.1199  0.1612
  114MOL0     C15622   6.107   1.890   5.661 -0.2254  0.0120  0.9388
  114MOL0     C15623   6.248   1.798   5.467  0.3474  0.0622 -0.0811
  114MOL0     C15624   6.345   1.915   5.463 -1.0294  0.4002  0.4278
  114MOL0     O15625   6.431   1.918   5.355  0.6553  0.3227  0.3544
  114MOL0     C15626   6.537   2.009   5.362  0.2693 -0.3591  0.0029
  114MOL0     C15627   6.617   2.025   5.469 -0.6253  0.1069 -0.6008
  114MOL0     C15628   6.731   2.101   5.458 -0.2808  0.4907  0.0087
  114MOL0     C15629   6.773   2.175   5.341  0.5296 -0.1970 -0.5835
  114MOL0     O15630   6.885   2.255   5.325 -0.7739  0.8255  0.7576
  114MOL0     C15631   6.986   2.229   5.424 -0.5865 -0.1225  0.3215
  114MOL0     C15632   7.117   2.270   5.368 -0.6549 -0.1309 -0.4069
  114MOL0     C15633   7.178   2.153   5.291 -0.2458  0.4515 -0.6906
  114MOL0     C15634   7.312   2.197   5.239  0.1740  0.8344 -0.6923
  114MOL0     C15635   7.378   2.095   5.154  0.1562 -0.3135 -1.5117
  114MOL0     C15636   7.343   2.088   5.000 -0.6489  0.8288 -0.1681
  114MOL0     C15637   7.412   1.970   4.935 -0.3578 -0.1896  0.5065
  114MOL0     C15638   7.391   1.961   4.783  0.1440 -0.3796  0.2605
  114MOL0    Cl15639   7.501   1.858   4.685  0.1062 -0.2488  0.5322
  114MOL0     C15640   6.690   2.164   5.232 -0.2453 -0.0201  0.0164
  114MOL0     C15641   6.571   2.082   5.247 -0.3164  0.1308  1.1666
  114MOL0     O15642   6.349   1.995   5.555  0.7530 -0.8089 -0.1229
  114MOL0     C15643   6.261   1.692   5.371  0.0399 -0.0385  0.2164
  114MOL0     C15644   6.182   1.581   5.376  0.6135  0.3504 -0.3459
  114MOL0     N15645   5.465   1.537   5.266 -0.7714 -0.1565  0.1423
  114MOL0     N15646   5.443   1.482   5.149  0.6605  0.0819 -0.4468
  114MOL0     C15647   4.412   1.157   4.799  0.5401 -0.2821  0.6982
  114MOL0     C15648   4.279   1.156   4.847  0.4017  0.4435  0.3673
  114MOL0     C15649   3.921   1.169   5.106 -0.4082  0.3325  0.2509
  114MOL0     C15650   3.870   1.290   5.148  0.2652 -0.5794 -0.1117
  114MOL0     C15651   3.741   1.298   5.196  0.6231  0.7230  0.2789
  114MOL0     C15652   3.649   1.190   5.194  0.5282  0.1084 -0.2831
  114MOL0     O15653   3.521   1.206   5.233 -0.3409  0.4930 -0.2386
  114MOL0     C15654   3.421   1.156   5.144 -0.7482  0.3707 -0.6650
  114MOL0     C15655   3.366   1.272   5.060 -0.6795 -0.1532 -0.1203
  114MOL0     C15656   3.305   1.397   5.131  0.3383  0.4406 -0.1595
  114MOL0     C15657   3.163   1.383   5.186  0.5273  0.7011 -0.7680
  114MOL0     C15658   3.114   1.500   5.253  0.6657 -0.0867 -0.6315
  114MOL0     C15659   3.067   1.587   5.321  0.2123 -0.7617 -0.1425
  114MOL0     C15660   3.687   1.070   5.138  0.3884 -0.6291 -0.2904
  114MOL0     C15661   3.831   1.057   5.119  0.2760 -0.0068  0.5714
  114MOL0     C15662   3.880   0.912   5.075  0.0622 -0.4497  0.2885
  114MOL0     H15663   4.294   0.881   5.042 -1.6682  0.4736 -1.2467
  114MOL0     H15664   4.532   0.873   4.944 -1.6457 -2.4722  0.9615
  114MOL0     H15665   4.657   1.262   4.852  1.9287 -3.0711  3.6432
  114MOL0     H15666   4.649   1.216   4.680  0.4099 -0.9712 -0.4821
  114MOL0     H15667   4.861   1.130   4.670 -4.7293  1.1972 -1.4561
  114MOL0     H15668   4.891   1.276   4.761 -0.5319  0.2108  0.7435
  114MOL0     H15669   4.875   1.178   4.970  1.1166  1.2786 -0.5117
  114MOL0     H15670   4.891   1.006   4.901  2.1915 -1.2855  0.3914
  114MOL0     H15671   5.086   1.107   4.770 -2.7615 -2.2657 -1.0465
  114MOL0     H15672   5.086   1.239   4.893 -0.6841 -0.8485 -0.6210
  114MOL0     H15673   5.113   0.941   4.959  1.6961 -0.2413  2.2277
  114MOL0     H15674   5.100   1.078   5.068  2.4698  1.0470  0.3331
  114MOL0     H15675   5.338   0.999   5.002  0.2296 -0.4000 -0.6748
  114MOL0     H15676   5.320   1.091   4.858  3.9042 -0.6721  1.3222
  114MOL0     H15677   5.256   1.241   5.112  0.2105 -0.1153 -0.5809
  114MOL0     H15678   5.279   1.305   4.946 -0.1722 -1.9038 -1.5361
  114MOL0     H15679   5.510   1.163   5.096  2.4731  0.4483 -3.3080
  114MOL0     H15680   5.520   1.280   4.974  0.5026 -3.8941 -0.9115
  114MOL0     H15681   5.525   1.227   5.333  1.6386 -2.1749 -3.4764
  114MOL0     H15682   5.531   1.388   5.565 -1.6527  0.2089 -0.5180
  114MOL0     H15683   5.484   1.548   5.534  1.1896  0.9296 -1.1703
  114MOL0     H15684   5.739   1.564   5.433 -0.3115  1.5911  0.3464
  114MOL0     H15685   5.714   1.573   5.603 -2.3739 -0.3842  0.4704
  114MOL0     H15686   5.743   1.318   5.619 -0.0691 -0.1635 -0.0233
  114MOL0     H15687   5.800   1.318   5.448  0.8078 -1.2235  0.6714
  114MOL0     H15688   5.926   1.478   5.673 -0.5391  1.2604 -0.2863
  114MOL0     H15689   5.979   1.311   5.614 -1.2780  0.1291 -1.0160
  114MOL0     H15690   5.967   1.686   5.603  0.4671  2.7027 -1.7850
  114MOL0     H15691   6.003   1.871   5.690 -0.6537  1.3019  0.3230
  114MOL0     H15692   6.108   1.990   5.617  1.6363 -0.4790 -0.2450
  114MOL0     H15693   6.169   1.888   5.751  1.0116  0.9493  0.1405
  114MOL0     H15694   6.600   1.976   5.564 -0.7646 -0.7044 -1.0310
  114MOL0     H15695   6.787   2.100   5.552  0.5552 -1.1446 -0.4648
  114MOL0     H15696   6.966   2.300   5.505  2.1921 -1.2946  2.2086
  114MOL0     H15697   6.998   2.131   5.472  0.5058 -0.3327 -0.3412
  114MOL0     H15698   7.093   2.356   5.304  1.5483  2.0783  1.5507
  114MOL0     H15699   7.191   2.298   5.444  0.5835  0.8078 -1.8893
  114MOL0     H15700   7.117   2.118   5.207  0.0883  0.2824 -0.8661
  114MOL0     H15701   7.190   2.072   5.362  1.5610  1.5547  0.3423
  114MOL0     H15702   7.374   2.226   5.324 -0.1027  0.1495 -0.2515
  114MOL0     H15703   7.296   2.287   5.178 -5.2736  0.1228 -0.8279
  114MOL0     H15704   7.487   2.104   5.157  0.6248 -2.5828 -5.2634
  114MOL0     H15705   7.351   1.997   5.194 -0.2649  0.6330  0.6851
  114MOL0     H15706   7.384   2.176   4.950 -1.0389  1.3348  0.3834
  114MOL0     H15707   7.235   2.078   4.988 -0.6071  0.1701 -0.0202
  114MOL0     H15708   7.359   1.879   4.965 -1.7051 -0.6923 -2.9374
  114MOL0     H15709   7.517   1.966   4.962 -0.6225  0.4679  1.7114
  114MOL0     H15710   7.401   2.057   4.731  1.6260 -0.5574  0.1852
  114MOL0     H15711   7.286   1.934   4.767  0.2009 -0.0253 -0.8394
  114MOL0     H15712   6.698   2.214   5.136 -1.0831  1.1217  0.5146
  114MOL0     H15713   6.523   2.063   5.151 -1.4624 -1.7982  2.0601
  114MOL0     H15714   6.340   1.700   5.296 -0.3011  0.0117 -0.1417
  114MOL0     H15715   6.203   1.494   5.315  0.3996  0.7491 -0.9979
  114MOL0     H15716   4.434   1.228   4.720 -1.0021 -1.1874 -0.6052
  114MOL0     H15717   4.204   1.222   4.804  1.2240  0.8424 -0.4790
  114MOL0     H15718   3.935   1.377   5.152 -1.7913  1.1396 -1.6918
  114MOL0     H15719   3.701   1.385   5.246  4.8850  2.4237  1.1530
  114MOL0     H15720   3.460   1.092   5.065  0.7492  1.4825 -0.8753
  114MOL0     H15721   3.341   1.109   5.202 -2.2430  3.7002  0.2354
  114MOL0     H15722   3.291   1.239   4.987 -0.4039  2.1648 -1.5466
  114MOL0     H15723   3.445   1.303   4.991  2.2036 -1.3996  2.3741
  114MOL0     H15724   3.370   1.423   5.215  1.7405 -0.1179 -1.0162
  114MOL0     H15725   3.311   1.481   5.062 -0.8318  1.3682  0.8318
  114MOL0     H15726   3.160   1.298   5.256 -2.2998  2.0222  0.8682
  114MOL0     H15727   3.091   1.350   5.111 -1.6833 -1.1080  1.9333
  114MOL0     H15728   3.045   1.658   5.399  2.5884 -1.3561  1.1518
  114MOL0     H15729   3.624   0.984   5.118  1.7164 -1.0457 -3.3389
  114MOL0     H15730   3.922   0.929   4.975 -1.1344  2.8074  0.2239
  114MOL0     H15731   3.949   0.868   5.146 -0.1841  1.9188  2.1033
  114MOL0     H15732   3.786   0.855   5.075  0.4766 -1.1420  1.0817
  115MOL0     O15733   1.546   0.567   2.274  0.1705  0.2067  0.2107
  115MOL0     C15734   1.620   0.664   2.241  0.1095 -0.1715 -0.1790
  115MOL0     O15735   1.592   0.794   2.276  0.3820 -0.3179  0.3419
  115MOL0     C15736   1.476   0.823   2.349  0.8893 -0.2966 -0.3451
  115MOL0     C15737   1.455   0.780   2.479 -0.5761 -0.4863 -0.5835
  115MOL0     C15738   1.353   0.836   2.557 -0.8026  0.3424  0.0616
  115MOL0     C15739   1.266   0.928   2.505 -0.0046  0.8979 -1.1594
  115MOL0     O15740   1.171   0.970   2.599  1.1387 -0.0025 -0.3093
  115MOL0     C15741   1.086   1.077   2.557 -0.2937 -0.1155  0.3461
  115MOL0     C15742   1.033   1.133   2.685  0.5411  0.6092  0.1010
  115MOL0     C15743   1.150   1.156   2.782 -1.1870  0.0642 -0.0611
  115MOL0     C15744   1.273   1.229   2.732  0.2220 -0.3211 -0.5986
  115MOL0     C15745   1.332   1.314   2.846  0.5009 -0.1461  0.0023
  115MOL0     C15746   1.468   1.371   2.819  0.2018 -0.1720 -0.7485
  115MOL0     C15747   1.472   1.509   2.753 -0.2681 -0.3020 -0.4917
  115MOL0     C15748   1.552   1.620   2.829 -0.1845  0.1217  0.7099
  115MOL0     N15749   1.697   1.591   2.847 -0.1548  0.3490  0.2461
  115MOL0     C15750   1.791   1.596   2.743 -0.6490  0.1437 -0.5215
  115MOL0     C15751   1.902   1.554   2.803 -0.4323  0.0988  0.3348
  115MOL0     C15752   2.036   1.555   2.735  0.6162 -0.7685  0.2081
  115MOL0     C15753   2.068   1.418   2.682 -0.4989  0.5351 -0.0468
  115MOL0     C15754   2.141   1.337   2.794  0.1173  0.4057  0.2577
  115MOL0     C15755   2.193   1.208   2.747  0.6033 -0.1095  0.0033
  115MOL0     O15756   2.333   1.225   2.735 -0.1544 -0.2722 -0.0920
  115MOL0     C15757   2.413   1.127   2.684 -0.7601 -0.4174  0.6859
  115MOL0     C15758   2.544   1.152   2.669  0.2306 -0.6522  0.1005
  115MOL0     C15759   2.636   1.073   2.608 -0.4206  0.7693  0.3569
  115MOL0     C15760   2.770   1.141   2.573  0.2464  0.7950  0.1131
  115MOL0     C15761   2.592   0.944   2.550 -0.1193 -0.1407  0.0764
  115MOL0     C15762   2.682   0.844   2.485  0.1743  0.2123 -0.3105
  115MOL0     O15763   2.625   0.729   2.432  0.2611  0.0517 -0.1944
  115MOL0     C15764   2.687   0.665   2.326 -0.3103 -0.7256 -0.3154
  115MOL0     C15765   2.799   0.719   2.252 -0.3400 -0.4426 -0.4165
  115MOL0     C15766   2.847   0.658   2.134 -0.6990 -0.3206 -0.6220
  115MOL0     C15767   2.783   0.539   2.095  0.3510  0.3125 -0.0713
  115MOL0     O15768   2.824   0.481   1.982 -0.2770 -0.1795 -0.3722
  115MOL0     C15769   2.905   0.370   2.012 -0.4889  0.2970  0.4272
  115MOL0     C15770   2.950   0.305   1.877 -0.0143 -0.9862 -0.9142
  115MOL0     C15771   3.058   0.198   1.907 -0.1514  0.3981 -0.0930
  115MOL0     C15772   3.056   0.103   1.798  0.0669  0.1748  0.4833
  115MOL0     C15773   3.160  -0.003   1.832 -1.0744  0.4160  0.4999
  115MOL0     C15774   3.133  -0.125   1.749  0.9771  0.0618  0.2171
  115MOL0     C15775   3.204  -0.250   1.806  0.1519  0.8405  0.9498
  115MOL0     C15776   3.155  -0.389   1.749  0.0699 -0.3414  0.0243
  115MOL0    Cl15777   3.272  -0.521   1.796 -0.2388 -0.4068 -0.0198
  115MOL0     C15778   2.676   0.482   2.167  0.3731 -0.6873  0.0663
  115MOL0     C15779   2.628   0.547   2.283  0.7256 -0.7396  0.1494
  115MOL0     O15780   2.802   0.857   2.502 -0.8723 -0.3798 -0.0485
  115MOL0     C15781   2.446   0.922   2.569  0.6651  0.9183 -0.0502
  115MOL0     C15782   2.362   1.007   2.630  0.0702 -0.7798 -0.0128
  115MOL0     N15783   1.877   1.543   2.947  0.6496  0.6717  0.3184
  115MOL0     N15784   1.752   1.560   2.966  0.0699 -0.4435  0.2652
  115MOL0     C15785   1.265   0.943   2.366  0.8569 -0.1782  1.0917
  115MOL0     C15786   1.369   0.898   2.284  0.3693  0.1861  0.1121
  115MOL0     C15787   1.753   0.635   2.186  0.1866  0.6959 -0.1667
  115MOL0     C15788   1.775   0.500   2.143 -0.8320 -0.5284  0.1667
  115MOL0     C15789   1.909   0.460   2.119  0.0674 -0.4248  0.8257
  115MOL0     C15790   2.006   0.558   2.095 -0.3125 -0.1371  1.3841
  115MOL0     O15791   2.125   0.542   2.046  0.8878 -0.6050 -0.5995
  115MOL0     C15792   2.176   0.415   2.001 -0.9383  0.5819 -0.2938
  115MOL0     C15793   2.327   0.433   1.954  0.8060  0.3676 -0.2035
  115MOL0     C15794   2.346   0.532   1.844 -0.8421 -0.2157  0.0619
  115MOL0     C15795   2.461   0.485   1.741  0.1776 -0.3787  0.4723
  115MOL0     C15796   2.437   0.361   1.670 -0.1086 -0.2280 -0.1850
  115MOL0     C15797   2.402   0.265   1.613 -0.9020 -0.5039  0.3016
  115MOL0     C15798   1.974   0.689   2.118  0.0539  0.4493  0.2273
  115MOL0     C15799   1.851   0.734   2.165  0.3216 -0.0850  0.2427
  115MOL0     C15800   1.831   0.886   2.193  0.0577 -0.8854 -0.1061
  115MOL0     H15801   1.534   0.714   2.512 -0.8532 -1.7708 -2.3474
  115MOL0     H15802   1.338   0.812   2.662 -1.2892 -0.1636 -0.1175
  115MOL0     H15803   0.998   1.041   2.503 -0.2264 -1.6562  1.2353
  115MOL0     H15804   1.141   1.152   2.498 -1.5441 -0.2232 -1.0144
  115MOL0     H15805   0.971   1.223   2.683 -0.1228  0.1676  0.4504
  115MOL0     H15806   0.979   1.054   2.737 -1.0868  1.0660 -0.7915
  115MOL0     H15807   1.112   1.217   2.865 -1.6230 -1.4913  0.9084
  115MOL0     H15808   1.195   1.070   2.832  2.2805  1.7408  0.0722
  115MOL0     H15809   1.337   1.159   2.677 -0.4574 -1.4568  0.0149
  115MOL0     H15810   1.247   1.310   2.663  1.0355 -0.4272 -1.0463
  115MOL0     H15811   1.341   1.247   2.932 -2.4869  0.6208  1.0354
  115MOL0     H15812   1.262   1.396   2.866  2.9890  1.6627  1.9646
  115MOL0     H15813   1.526   1.359   2.910 -0.5650  2.1097  0.1179
  115MOL0     H15814   1.517   1.299   2.753  2.7598 -0.0865  0.9083
  115MOL0     H15815   1.368   1.544   2.761 -0.2327  0.7980 -3.4383
  115MOL0     H15816   1.516   1.508   2.653  2.9972  1.2204  0.7587
  115MOL0     H15817   1.541   1.720   2.785 -1.1000  0.3950  1.5213
  115MOL0     H15818   1.507   1.641   2.926 -2.7671  0.8661 -0.5581
  115MOL0     H15819   1.774   1.617   2.637  1.8885 -0.7137 -1.1761
  115MOL0     H15820   2.112   1.605   2.795  1.0002 -1.4996  0.3410
  115MOL0     H15821   2.021   1.623   2.651 -0.6497  1.9310  2.4612
  115MOL0     H15822   1.974   1.371   2.650  0.9329 -1.3781 -1.7378
  115MOL0     H15823   2.136   1.413   2.597 -1.4401 -5.2532 -0.8540
  115MOL0     H15824   2.222   1.400   2.831  2.9409 -1.6060 -2.0382
  115MOL0     H15825   2.076   1.329   2.882 -0.4428  1.5199 -0.0340
  115MOL0     H15826   2.180   1.131   2.823  0.6417 -1.8472 -1.6743
  115MOL0     H15827   2.136   1.170   2.661 -2.4483  0.9577  1.3939
  115MOL0     H15828   2.581   1.247   2.704 -2.0690  0.3733 -0.0456
  115MOL0     H15829   2.756   1.168   2.468 -0.5845  2.3607  0.5788
  115MOL0     H15830   2.861   1.085   2.592  0.0029 -0.2683 -1.6842
  115MOL0     H15831   2.785   1.240   2.618  1.8168 -0.2101  1.9276
  115MOL0     H15832   2.838   0.820   2.267 -1.8787  0.0156  0.8055
  115MOL0     H15833   2.919   0.698   2.063  2.3221 -0.4775  2.1153
  115MOL0     H15834   3.005   0.398   2.047  0.8349 -2.2644 -0.9498
  115MOL0     H15835   2.841   0.304   2.072 -0.0837  0.8265  1.4603
  115MOL0     H15836   2.867   0.255   1.826 -0.9032 -2.2936  1.6141
  115MOL0     H15837   2.991   0.379   1.808 -1.8381 -0.1841 -1.1772
  115MOL0     H15838   3.026   0.144   1.996 -3.2107 -2.8307 -2.8447
  115MOL0     H15839   3.157   0.244   1.916  0.1345 -0.2299 -0.0100
  115MOL0     H15840   3.081   0.145   1.699 -3.9534 -2.8065 -2.1014
  115MOL0     H15841   2.951   0.074   1.791 -0.8141  2.4807  2.6475
  115MOL0     H15842   3.265   0.016   1.809 -1.7644  1.9997 -1.7627
  115MOL0     H15843   3.149  -0.030   1.937  4.3689  4.5761  2.6039
  115MOL0     H15844   3.168  -0.094   1.650 -0.3816  0.5823 -0.1182
  115MOL0     H15845   3.026  -0.143   1.741  1.3317 -1.8787 -0.7336
  115MOL0     H15846   3.182  -0.252   1.913 -1.0777 -3.1992  0.8094
  115MOL0     H15847   3.311  -0.236   1.786 -0.2878  2.1011 -0.6977
  115MOL0     H15848   3.160  -0.368   1.641  2.3577 -0.4289  0.0702
  115MOL0     H15849   3.055  -0.403   1.790 -0.1119  1.0590  0.1334
  115MOL0     H15850   2.623   0.405   2.113 -0.4575  0.0852 -0.2418
  115MOL0     H15851   2.546   0.504   2.339 -0.4950 -2.3294 -2.6615
  115MOL0     H15852   2.396   0.828   2.548  1.9452 -0.1936  1.6244
  115MOL0     H15853   2.258   0.980   2.617 -0.9471  2.1329  1.2629
  115MOL0     H15854   1.189   1.009   2.327 -0.7261 -2.5067 -0.0036
  115MOL0     H15855   1.391   0.926   2.181  1.1839  0.4191  0.3466
  115MOL0     H15856   1.691   0.432   2.146 -2.5278  1.4889  0.8138
  115MOL0     H15857   1.921   0.353   2.104 -1.7396 -0.7833  1.6320
  115MOL0     H15858   2.175   0.353   2.092 -2.7928  1.3864  0.2869
  115MOL0     H15859   2.115   0.362   1.927 -1.9524 -2.3905  2.3958
  115MOL0     H15860   2.360   0.331   1.933 -0.3580 -0.1801  0.5254
  115MOL0     H15861   2.371   0.463   2.050 -0.3402  1.4026  0.0165
  115MOL0     H15862   2.256   0.555   1.786  0.9976  1.6872 -2.2674
  115MOL0     H15863   2.391   0.614   1.901  2.7401 -0.9100 -1.4669
  115MOL0     H15864   2.557   0.478   1.794  0.1248 -1.2624  0.4590
  115MOL0     H15865   2.472   0.564   1.666 -0.1985 -0.4215  0.3725
  115MOL0     H15866   2.382   0.181   1.549 -0.3621 -0.4281  0.0239
  115MOL0     H15867   2.059   0.749   2.086  0.0950  0.6885  0.7676
  115MOL0     H15868   1.751   0.905   2.120 -1.5052 -1.5622  1.3604
  115MOL0     H15869   1.804   0.905   2.297 -0.0273 -2.5920  0.2105
  115MOL0     H15870   1.912   0.955   2.168 -1.7314  2.3361  2.1926
  116MOL0     O15871   7.267   8.298   5.446 -0.5319  0.2044  0.1537
  116MOL0     C15872   7.235   8.232   5.546  0.2089  1.3228  1.3895
  116MOL0     O15873   7.280   8.246   5.673 -0.1653 -0.7669  0.2850
  116MOL0     C15874   7.380   8.336   5.687 -0.2396 -0.2770 -0.7629
  116MOL0     C15875   7.359   8.478   5.679  0.4320 -0.2563  0.5724
  116MOL0     C15876   7.470   8.565   5.697  0.6206  0.5902  0.1006
  116MOL0     C15877   7.594   8.514   5.720  0.5600  0.0059  0.3009
  116MOL0     O15878   7.699   8.596   5.723 -0.1296  0.6516  0.1081
  116MOL0     C15879   7.788   8.558   5.615 -0.0340  0.6017  0.1931
  116MOL0     C15880   7.888   8.671   5.573 -0.3155 -0.1032 -0.1303
  116MOL0     C15881   7.824   8.807   5.542  0.9205  0.5152 -0.3933
  116MOL0     C15882   7.886   8.891   5.433 -0.2458 -0.0625 -0.4245
  116MOL0     C15883   7.833   9.030   5.414 -0.3381  0.5640 -0.0325
  116MOL0     C15884   7.881   9.105   5.290  0.8142  0.0272  0.2724
  116MOL0     C15885   7.827   9.244   5.289 -0.3511 -0.5702  0.5143
  116MOL0     C15886   7.676   9.252   5.310  0.2581  0.0794  0.3262
  116MOL0     N15887   7.630   9.384   5.269 -0.0822  0.3909  0.0062
  116MOL0     C15888   7.642   9.486   5.352 -0.8428 -0.4390  0.1363
  116MOL0     C15889   7.639   9.594   5.274  0.2152  0.9242  0.8090
  116MOL0     C15890   7.623   9.738   5.317 -0.2771 -0.5064 -0.8865
  116MOL0     C15891   7.472   9.771   5.304 -0.9089  0.8019  0.2583
  116MOL0     C15892   7.441   9.912   5.364  0.0106  0.4884  0.1065
  116MOL0     C15893   7.301   9.971   5.338  0.2269 -0.1261  0.2241
  116MOL0     O15894   7.269   9.986   5.202 -0.4380 -0.0447 -0.1264
  116MOL0     C15895   7.138  10.011   5.166  0.1773  0.3804  0.2875
  116MOL0     C15896   7.107  10.009   5.032  0.1663  0.2099 -0.9267
  116MOL0     C15897   6.975  10.030   4.986 -0.4379 -0.1101 -0.9253
  116MOL0     C15898   6.951  10.005   4.841  0.5265  0.0308 -0.1585
  116MOL0     C15899   6.869  10.060   5.080  0.0163 -0.2846 -0.6603
  116MOL0     C15900   6.728  10.062   5.048 -0.1933 -0.0379  0.3551
  116MOL0     O15901   6.638  10.009   5.150 -0.5980 -0.3979 -0.0380
  116MOL0     C15902   6.502  10.002   5.114  0.7452  0.6998 -0.4193
  116MOL0     C15903   6.458   9.946   4.987  0.7391 -0.2678  0.4592
  116MOL0     C15904   6.326   9.918   4.979  0.1349  0.6807  0.0409
  116MOL0     C15905   6.229   9.941   5.081 -0.4765 -0.3471  0.2313
  116MOL0     O15906   6.097   9.907   5.072 -0.2086  0.0181  0.5918
  116MOL0     C15907   6.043   9.903   4.940 -0.7562 -0.8025 -0.5769
  116MOL0     C15908   5.892   9.883   4.961 -0.2816 -0.3285  0.7639
  116MOL0     C15909   5.806   9.915   4.834  0.0853  0.0524 -0.2639
  116MOL0     C15910   5.749   9.790   4.770 -0.2830  0.0242  0.2119
  116MOL0     C15911   5.645   9.835   4.671  0.3061  1.0449  0.2363
  116MOL0     C15912   5.616   9.716   4.571  0.4679 -0.1364  0.7362
  116MOL0     C15913   5.543   9.779   4.452  0.4646 -0.3525 -0.6448
  116MOL0     C15914   5.487   9.674   4.354  0.2318 -0.6323 -0.1603
  116MOL0    Cl15915   5.365   9.753   4.248 -0.3487  0.1018 -0.1303
  116MOL0     C15916   6.269   9.993   5.202 -0.6204  0.1827  0.3632
  116MOL0     C15917   6.407  10.019   5.217  0.9976 -0.4212  0.3200
  116MOL0     O15918   6.690  10.127   4.946 -0.0095  0.3345 -0.2378
  116MOL0     C15919   6.909  10.066   5.220 -0.1790  0.2304  0.4856
  116MOL0     C15920   7.044  10.056   5.260  0.0460  0.8914  0.3661
  116MOL0     N15921   7.617   9.560   5.144  0.2478  0.3108 -0.2270
  116MOL0     N15922   7.612   9.431   5.141  0.6531  0.5374  0.2812
  116MOL0     C15923   7.610   8.384   5.743 -0.8501 -0.6460  0.1136
  116MOL0     C15924   7.505   8.296   5.725 -0.1782  0.0491 -0.0352
  116MOL0     C15925   7.116   8.143   5.542 -0.1871  0.1595  0.1123
  116MOL0     C15926   7.028   8.136   5.649  0.1694  0.3814 -0.6735
  116MOL0     C15927   6.924   8.043   5.658  0.4156 -0.2709 -1.6249
  116MOL0     C15928   6.882   7.967   5.551 -0.8430  0.0485 -0.1815
  116MOL0     O15929   6.764   7.902   5.568  0.3462 -0.7787 -0.4363
  116MOL0     C15930   6.736   7.779   5.492 -0.4742  0.1520 -0.9588
  116MOL0     C15931   6.609   7.797   5.387  0.4310 -0.4424 -0.0720
  116MOL0     C15932   6.485   7.855   5.457  0.0054 -0.1118  0.5107
  116MOL0     C15933   6.375   7.892   5.357  0.1162 -0.0924  0.1166
  116MOL0     C15934   6.249   7.903   5.429  0.5091  0.2391 -0.2881
  116MOL0     C15935   6.151   7.924   5.491  0.5148  0.0202 -0.6931
  116MOL0     C15936   6.957   7.969   5.431  0.1095  0.2486 -0.5994
  116MOL0     C15937   7.079   8.052   5.437 -1.3038  0.3904 -0.7099
  116MOL0     C15938   7.163   8.048   5.315 -0.1755  0.3689  0.0436
  116MOL0     H15939   7.262   8.521   5.657  1.0889  0.8594 -0.2384
  116MOL0     H15940   7.452   8.672   5.704  1.3269  0.6255  1.8341
  116MOL0     H15941   7.726   8.535   5.528 -1.4955 -0.9718  1.5751
  116MOL0     H15942   7.851   8.469   5.632 -0.9106  0.1960  1.4350
  116MOL0     H15943   7.968   8.679   5.646  0.3218  3.2091 -1.0450
  116MOL0     H15944   7.934   8.642   5.478  1.7277  0.1810  0.7351
  116MOL0     H15945   7.716   8.800   5.523  0.9084 -0.2196 -0.1188
  116MOL0     H15946   7.837   8.866   5.633 -0.4643  2.2305 -1.2423
  116MOL0     H15947   7.993   8.903   5.451 -0.4745  1.0165  0.2485
  116MOL0     H15948   7.863   8.836   5.340  0.0593 -1.2553  0.1765
  116MOL0     H15949   7.862   9.089   5.502 -3.5551  3.0828 -0.4580
  116MOL0     H15950   7.723   9.030   5.416 -0.5971  4.5486 -2.5041
  116MOL0     H15951   7.989   9.123   5.280  1.0932 -2.3826 -1.8313
  116MOL0     H15952   7.845   9.048   5.204 -4.4375 -0.1006  2.2065
  116MOL0     H15953   7.855   9.298   5.198 -3.5163  2.1600  0.9805
  116MOL0     H15954   7.871   9.307   5.367  2.1986  1.3771 -2.2602
  116MOL0     H15955   7.634   9.190   5.230 -2.3630  0.4715  1.2922
  116MOL0     H15956   7.630   9.227   5.406  0.5531 -1.1272  0.1661
  116MOL0     H15957   7.650   9.476   5.459  1.5403  1.2275  0.1956
  116MOL0     H15958   7.677   9.803   5.248  4.1959 -2.8990  0.0251
  116MOL0     H15959   7.661   9.756   5.418 -1.6129 -3.4559  0.2662
  116MOL0     H15960   7.443   9.758   5.199 -0.0353 -2.7588  0.3155
  116MOL0     H15961   7.417   9.692   5.357  0.1254  0.9758  1.6249
  116MOL0     H15962   7.462   9.917   5.471  3.4904  1.4087 -0.4791
  116MOL0     H15963   7.516   9.979   5.320  5.0342 -4.9998 -1.0697
  116MOL0     H15964   7.235   9.896   5.383  0.4712 -0.2438  0.3899
  116MOL0     H15965   7.276  10.064   5.391  3.3079  0.5655  0.6182
  116MOL0     H15966   7.180   9.964   4.966  1.0893 -0.6155  0.5958
  116MOL0     H15967   6.963  10.096   4.781  2.8006 -2.2121 -3.3939
  116MOL0     H15968   6.846   9.977   4.825  0.4806  0.6282 -0.9620
  116MOL0     H15969   7.021   9.932   4.800  0.8484  0.6543 -0.7250
  116MOL0     H15970   6.540   9.932   4.918  2.9483 -2.1807  3.2199
  116MOL0     H15971   6.292   9.876   4.885 -0.7686 -3.0520  1.8593
  116MOL0     H15972   6.051  10.004   4.898 -1.5196 -1.0481 -1.3279
  116MOL0     H15973   6.076   9.823   4.874  1.3623 -0.3763 -0.1273
  116MOL0     H15974   5.881   9.784   5.006  1.5516 -0.1321  1.7442
  116MOL0     H15975   5.866   9.955   5.040  0.6825  0.7428  0.1400
  116MOL0     H15976   5.846   9.973   4.750 -0.4280  2.4389  1.0515
  116MOL0     H15977   5.732   9.983   4.878  0.3001  1.6405 -2.2108
  116MOL0     H15978   5.708   9.729   4.850 -1.3392 -0.6272 -0.7877
  116MOL0     H15979   5.824   9.726   4.724 -3.6330 -3.0596 -1.4543
  116MOL0     H15980   5.553   9.861   4.724  0.5279 -0.3791  1.3947
  116MOL0     H15981   5.676   9.924   4.617  0.6679  1.1460  0.6133
  116MOL0     H15982   5.547   9.642   4.613  0.4399 -1.2821 -1.2004
  116MOL0     H15983   5.710   9.663   4.551  1.1789  0.5889  2.0383
  116MOL0     H15984   5.615   9.840   4.396  1.1157  0.5065  1.0602
  116MOL0     H15985   5.459   9.845   4.474 -2.5834 -3.7369 -1.1324
  116MOL0     H15986   5.433   9.604   4.418  1.5328 -1.2912  0.2556
  116MOL0     H15987   5.560   9.615   4.298 -0.4980  0.2055 -2.0967
  116MOL0     H15988   6.201  10.012   5.285 -1.0653 -0.7475  0.2239
  116MOL0     H15989   6.451  10.058   5.307  0.8388 -0.0708  0.2480
  116MOL0     H15990   6.827  10.081   5.289 -0.6414  0.8951 -0.1933
  116MOL0     H15991   7.061  10.063   5.367  0.0900  2.9717  0.2607
  116MOL0     H15992   7.709   8.342   5.759 -0.9034 -1.1574 -0.7882
  116MOL0     H15993   7.517   8.189   5.739 -1.1545 -0.0405  0.1626
  116MOL0     H15994   7.047   8.202   5.733 -1.2691  1.4742 -1.1609
  116MOL0     H15995   6.859   8.038   5.745  1.0622 -0.8876 -1.1646
  116MOL0     H15996   6.818   7.722   5.450 -0.0890  0.3841 -0.5324
  116MOL0     H15997   6.717   7.702   5.567  1.1905  1.1208  0.5350
  116MOL0     H15998   6.576   7.706   5.335  0.4358 -0.1514 -0.5939
  116MOL0     H15999   6.634   7.861   5.302  2.3356 -5.5189 -3.9230
  116MOL0     H16000   6.440   7.783   5.526  1.8013 -1.7546  0.0350
  116MOL0     H16001   6.514   7.937   5.524  1.8608 -0.0297 -0.3255
  116MOL0     H16002   6.359   7.806   5.291 -3.8067  0.5929 -0.0360
  116MOL0     H16003   6.389   7.994   5.319 -0.8298 -0.1180 -0.3159
  116MOL0     H16004   6.059   7.954   5.538  0.6778 -0.0037 -0.3569
  116MOL0     H16005   6.931   7.893   5.358 -1.8806 -0.0510  0.3662
  116MOL0     H16006   7.270   8.065   5.334  0.6454  0.2289 -3.7030
  116MOL0     H16007   7.154   7.949   5.269  3.4731 -0.3893  0.6786
  116MOL0     H16008   7.132   8.131   5.251  2.7615  1.0106 -0.6900
  117MOL0     O16009  10.895   4.249   8.697  0.0434  0.5644 -0.0368
  117MOL0     C16010  10.941   4.245   8.813  0.0061 -0.3786 -0.1580
  117MOL0     O16011  11.028   4.343   8.863 -0.1952 -0.1482 -0.2724
  117MOL0     C16012  11.112   4.411   8.770  0.3944 -0.3813 -0.4648
  117MOL0     C16013  11.245   4.369   8.753 -0.0203  0.3074  0.7452
  117MOL0     C16014  11.327   4.439   8.668 -0.6805 -0.0672 -0.1723
  117MOL0     C16015  11.282   4.544   8.593 -0.6648 -0.2519 -0.6373
  117MOL0     O16016  11.360   4.605   8.499 -0.4809 -0.4688  0.9131
  117MOL0     C16017  11.475   4.671   8.554 -0.1999  0.4349  0.0686
  117MOL0     C16018  11.548   4.744   8.437 -0.3896 -0.0653 -0.1539
  117MOL0     C16019  11.683   4.816   8.474 -0.1488 -0.1949  0.2684
  117MOL0     C16020  11.721   4.841   8.623  0.0534  0.4256  0.1542
  117MOL0     C16021  11.626   4.946   8.683  0.1213  0.2413  0.0082
  117MOL0     C16022  11.622   4.961   8.835  0.0122  0.3822  0.2228
  117MOL0     C16023  11.568   4.834   8.910  0.6633 -0.0644  0.3188
  117MOL0     C16024  11.417   4.835   8.922 -0.7133  0.0283 -0.5376
  117MOL0     N16025  11.366   4.924   9.029 -0.4940  0.5199  1.0943
  117MOL0     C16026  11.333   5.054   9.011 -0.7442  0.0255  0.0535
  117MOL0     C16027  11.274   5.098   9.132 -0.3458  0.0697 -0.3355
  117MOL0     C16028  11.256   5.241   9.172 -0.5104 -0.0962  0.1565
  117MOL0     C16029  11.264   5.340   9.059 -0.1112  0.0859  0.4544
  117MOL0     C16030  11.129   5.355   8.985 -0.3269 -0.2808 -0.2320
  117MOL0     C16031  11.137   5.448   8.867 -0.4241 -0.8953  0.0597
  117MOL0     O16032  11.185   5.376   8.742  0.3829 -0.3259  0.2649
  117MOL0     C16033  11.322   5.383   8.722 -0.5396 -0.5800 -0.2139
  117MOL0     C16034  11.416   5.482   8.774 -0.2111  0.7462 -0.3745
  117MOL0     C16035  11.551   5.474   8.741 -0.3092  0.0629  1.0571
  117MOL0     C16036  11.636   5.585   8.787 -0.3240 -0.1502  0.2557
  117MOL0     C16037  11.599   5.374   8.654 -0.1693 -0.1355  0.3494
  117MOL0     C16038  11.737   5.356   8.602 -0.3192 -0.0159  0.5152
  117MOL0     O16039  11.794   5.235   8.605 -0.4175 -0.8238 -0.3089
  117MOL0     C16040  11.917   5.207   8.560 -0.5921  0.3251 -0.4193
  117MOL0     C16041  11.924   5.109   8.462 -0.0278 -0.8801  0.8913
  117MOL0     C16042  12.049   5.053   8.420 -0.2898  0.2235 -0.5340
  117MOL0     C16043  12.169   5.101   8.482  0.6761 -0.1725  0.1559
  117MOL0     O16044  12.290   5.049   8.445 -0.9837  0.3042 -0.9545
  117MOL0     C16045  12.321   5.046   8.302 -0.3244 -0.6361  0.2281
  117MOL0     C16046  12.468   5.088   8.276  0.7629  0.5564 -0.8989
  117MOL0     C16047  12.540   5.030   8.149  0.0460 -0.5733  0.7486
  117MOL0     C16048  12.679   5.073   8.125 -0.3161  0.4629  0.3051
  117MOL0     C16049  12.749   4.951   8.065 -1.4638 -0.0134  0.1870
  117MOL0     C16050  12.868   4.989   7.974 -0.6132 -0.2447 -0.1226
  117MOL0     C16051  12.915   4.864   7.918  0.5754  0.6437 -0.6091
  117MOL0     C16052  13.060   4.871   7.867  0.4409 -0.2484  0.3809
  117MOL0    Cl16053  13.105   5.023   7.787  0.1515 -0.1979  0.2346
  117MOL0     C16054  12.168   5.210   8.567 -0.2801  0.2757  0.4896
  117MOL0     C16055  12.039   5.259   8.614 -0.0440  0.0507  0.4551
  117MOL0     O16056  11.800   5.461   8.575 -1.2900 -0.5932  0.4915
  117MOL0     C16057  11.517   5.281   8.594  0.0695  0.1658  0.3579
  117MOL0     C16058  11.387   5.279   8.639 -0.6179  0.3458 -0.5542
  117MOL0     N16059  11.274   4.993   9.217  0.4672 -0.9972 -0.2462
  117MOL0     N16060  11.327   4.890   9.155  0.1013  0.3255 -0.2116
  117MOL0     C16061  11.153   4.580   8.603  0.6802 -0.6854  0.5142
  117MOL0     C16062  11.068   4.516   8.689 -0.5214 -0.1775 -0.3719
  117MOL0     C16063  10.876   4.158   8.902 -0.1189 -0.9425  0.8517
  117MOL0     C16064  10.735   4.159   8.895  0.1181  0.4684  0.3748
  117MOL0     C16065  10.659   4.075   8.976  0.2104 -0.0961 -0.0879
  117MOL0     C16066  10.724   3.994   9.072  0.8864  0.0372 -0.0928
  117MOL0     O16067  10.652   3.928   9.173 -0.5995 -0.0954  0.1085
  117MOL0     C16068  10.571   3.813   9.121 -0.9941 -0.6999  0.2253
  117MOL0     C16069  10.668   3.712   9.054  0.1884  1.0540  1.0630
  117MOL0     C16070  10.617   3.563   9.068  0.9660 -0.7601 -0.1669
  117MOL0     C16071  10.703   3.475   8.981  0.0097  0.6865  0.2435
  117MOL0     C16072  10.843   3.480   9.019  0.3127 -0.1846  0.2941
  117MOL0     C16073  10.964   3.475   9.048 -0.1035 -0.7995 -0.5805
  117MOL0     C16074  10.861   3.986   9.065 -0.0433  0.2911 -0.1434
  117MOL0     C16075  10.940   4.063   8.984  0.1617  0.3634  0.2086
  117MOL0     C16076  11.093   4.022   8.980  1.1911  0.5222 -0.5292
  117MOL0     H16077  11.274   4.283   8.812 -0.5969 -0.1817  0.3212
  117MOL0     H16078  11.426   4.399   8.647  0.5558  2.2634  0.9177
  117MOL0     H16079  11.540   4.590   8.588 -1.2898 -0.6189 -0.2822
  117MOL0     H16080  11.444   4.744   8.629  0.3601  0.5717  0.1700
  117MOL0     H16081  11.577   4.661   8.372  0.4644 -0.1576  0.3398
  117MOL0     H16082  11.477   4.813   8.390  0.6051  0.8291 -0.4111
  117MOL0     H16083  11.760   4.744   8.446  0.3143  0.0616  0.8598
  117MOL0     H16084  11.683   4.909   8.416  0.1026 -0.8503 -0.8034
  117MOL0     H16085  11.726   4.741   8.667 -0.5315  0.2365 -0.1911
  117MOL0     H16086  11.821   4.883   8.628  1.0961 -1.6339 -1.5253
  117MOL0     H16087  11.528   4.926   8.640  0.8632 -1.6692 -0.9225
  117MOL0     H16088  11.662   5.042   8.645 -0.8534 -0.0282 -1.6522
  117MOL0     H16089  11.723   4.992   8.859  0.9584 -0.9553 -1.6926
  117MOL0     H16090  11.558   5.048   8.851  0.1406  0.0226  3.1323
  117MOL0     H16091  11.620   4.834   9.007  1.3664  0.1453 -0.0543
  117MOL0     H16092  11.604   4.747   8.855  6.3543  1.1748  1.4637
  117MOL0     H16093  11.362   4.865   8.832 -1.6598  4.5626  1.3196
  117MOL0     H16094  11.390   4.733   8.952 -2.1804  0.8798  1.2281
  117MOL0     H16095  11.360   5.116   8.926  0.8508  0.6572  0.9823
  117MOL0     H16096  11.339   5.263   9.240  0.3591  0.2986 -1.0012
  117MOL0     H16097  11.159   5.250   9.222 -2.2421 -4.9645 -1.8243
  117MOL0     H16098  11.288   5.438   9.100 -1.9488  0.8704 -0.2194
  117MOL0     H16099  11.357   5.321   9.005  0.6254 -0.9669  2.0026
  117MOL0     H16100  11.110   5.252   8.954  2.7442 -0.5733 -1.4528
  117MOL0     H16101  11.048   5.385   9.052 -0.0167  0.4003 -0.1544
  117MOL0     H16102  11.037   5.481   8.840  0.9679  2.9337 -1.0629
  117MOL0     H16103  11.189   5.540   8.893  0.5536 -1.1354 -0.9542
  117MOL0     H16104  11.377   5.566   8.830 -1.4426  1.8753 -2.7739
  117MOL0     H16105  11.591   5.657   8.855  3.2807 -0.3792  3.1701
  117MOL0     H16106  11.657   5.646   8.698  0.1827  0.0018  0.4778
  117MOL0     H16107  11.725   5.553   8.841 -1.6847 -1.8735  1.5815
  117MOL0     H16108  11.826   5.078   8.428 -0.4246  0.9903  0.2012
  117MOL0     H16109  12.048   4.981   8.338 -1.7234 -0.8419  0.3809
  117MOL0     H16110  12.309   4.942   8.271  1.4408 -1.3816  1.8812
  117MOL0     H16111  12.252   5.112   8.248  0.5170 -0.7634 -1.0577
  117MOL0     H16112  12.468   5.196   8.261 -1.4875  0.4536 -2.1007
  117MOL0     H16113  12.535   5.056   8.357  1.0788  0.2045 -1.2904
  117MOL0     H16114  12.478   5.054   8.062 -1.4813 -2.4696  1.2339
  117MOL0     H16115  12.537   4.921   8.158 -0.8345 -0.7783 -1.3803
  117MOL0     H16116  12.737   5.107   8.211  2.5512  2.9625 -2.3534
  117MOL0     H16117  12.684   5.155   8.053 -1.8201 -0.5456 -1.0234
  117MOL0     H16118  12.786   4.891   8.147  0.3483 -0.3933 -0.8533
  117MOL0     H16119  12.687   4.898   7.992 -0.9063  0.0496 -0.3360
  117MOL0     H16120  12.938   5.039   8.042 -2.0894  1.7546  0.0070
  117MOL0     H16121  12.843   5.065   7.900  2.1995  2.6835  1.6684
  117MOL0     H16122  12.852   4.827   7.836  0.1492  2.8032 -1.3190
  117MOL0     H16123  12.925   4.784   7.992  3.2897  1.3996 -0.0150
  117MOL0     H16124  13.077   4.781   7.809 -0.5673  0.0102 -0.3422
  117MOL0     H16125  13.112   4.869   7.964  0.4739  1.0155  0.4066
  117MOL0     H16126  12.267   5.241   8.597  0.8583 -0.5677 -2.1078
  117MOL0     H16127  12.053   5.347   8.676 -0.5553  0.5526 -0.1316
  117MOL0     H16128  11.547   5.205   8.523  2.1092 -1.8854  3.2063
  117MOL0     H16129  11.330   5.200   8.590 -0.1986 -0.2792 -0.0435
  117MOL0     H16130  11.120   4.653   8.529  1.1603  0.3907  1.3257
  117MOL0     H16131  10.965   4.549   8.698 -0.8861 -0.9481 -1.5063
  117MOL0     H16132  10.675   4.218   8.826 -0.5049 -0.4828  0.0877
  117MOL0     H16133  10.551   4.074   8.973  0.1467  1.8327  0.3807
  117MOL0     H16134  10.524   3.762   9.206 -2.3438 -2.7304 -1.6191
  117MOL0     H16135  10.495   3.855   9.055 -0.6311  2.0214  1.4064
  117MOL0     H16136  10.769   3.711   9.096  0.6874 -1.2069 -0.0206
  117MOL0     H16137  10.667   3.733   8.947  1.1532 -1.0624  0.5959
  117MOL0     H16138  10.609   3.521   9.169  0.1062  1.7179  0.8589
  117MOL0     H16139  10.514   3.573   9.032 -0.3580  2.8305  3.8609
  117MOL0     H16140  10.699   3.510   8.878 -1.8218  1.1365  0.4336
  117MOL0     H16141  10.665   3.372   8.983  0.6288  0.4601  0.8697
  117MOL0     H16142  11.060   3.437   9.077  0.1677 -0.2678 -0.7668
  117MOL0     H16143  10.901   3.906   9.128 -1.7647  0.1449  0.8398
  117MOL0     H16144  11.164   4.096   9.021  1.6302 -0.5787  0.7965
  117MOL0     H16145  11.101   3.927   9.035 -2.6670  0.6628  0.5351
  117MOL0     H16146  11.121   3.994   8.878 -3.2901 -0.2646 -1.7558
  118MOL0     O16147   8.849  11.468   1.752 -0.6207  0.0161 -0.1011
  118MOL0     C16148   8.969  11.491   1.779 -0.0269 -1.0022  0.1708
  118MOL0     O16149   9.081  11.493   1.693 -0.5079  0.0571 -0.0196
  118MOL0     C16150   9.063  11.461   1.559 -0.3077 -0.5540 -0.7964
  118MOL0     C16151   9.170  11.399   1.494 -0.1623  0.4427 -0.0718
  118MOL0     C16152   9.177  11.398   1.356 -0.1206 -0.4496  0.9176
  118MOL0     C16153   9.076  11.456   1.281 -0.2089 -0.7217 -0.2979
  118MOL0     O16154   9.086  11.457   1.139 -0.7001 -1.3477 -0.0187
  118MOL0     C16155   9.122  11.324   1.086 -0.1593 -0.3928  0.6255
  118MOL0     C16156   9.050  11.293   0.955 -0.1196 -1.0858 -0.2590
  118MOL0     C16157   9.073  11.152   0.887 -0.2121 -0.0098  0.0741
  118MOL0     C16158   9.215  11.143   0.850 -0.0868 -0.9870 -0.3866
  118MOL0     C16159   9.257  11.046   0.744 -0.0401 -0.0180  0.0399
  118MOL0     C16160   9.199  11.074   0.601  0.1582 -0.9158 -0.5663
  118MOL0     C16161   9.257  10.969   0.498  0.2980 -0.5116 -0.1883
  118MOL0     C16162   9.166  10.956   0.384 -0.9809 -0.4940  0.6291
  118MOL0     N16163   9.200  10.834   0.311 -0.6345 -0.4540 -0.5387
  118MOL0     C16164   9.140  10.710   0.337  0.7305 -0.1483  0.9675
  118MOL0     C16165   9.200  10.632   0.252 -1.0391 -0.1207  0.6401
  118MOL0     C16166   9.169  10.491   0.215  0.3915 -0.3316 -0.0216
  118MOL0     C16167   9.052  10.483   0.114  0.2060  0.1302 -0.1490
  118MOL0     C16168   9.009  10.333   0.086 -0.1123  0.4974  0.3318
  118MOL0     C16169   9.057  10.290  -0.057  1.4158 -0.6661  0.6533
  118MOL0     O16170   9.200  10.301  -0.056  0.3530 -0.7248 -0.5133
  118MOL0     C16171   9.279  10.307  -0.169  0.5402  0.2270  0.3994
  118MOL0     C16172   9.412  10.284  -0.155  0.8124 -0.9880 -0.3255
  118MOL0     C16173   9.505  10.272  -0.261 -1.0173 -0.2062  0.8894
  118MOL0     C16174   9.650  10.259  -0.226  0.5989 -0.0074 -0.7985
  118MOL0     C16175   9.461  10.297  -0.392  0.3308  0.2248  0.0394
  118MOL0     C16176   9.541  10.293  -0.521 -0.0552  0.3258  0.1292
  118MOL0     O16177   9.488  10.376  -0.611  0.1677  0.0404 -0.2833
  118MOL0     C16178   9.556  10.427  -0.723 -0.4172  0.4953  0.2012
  118MOL0     C16179   9.481  10.488  -0.833 -0.3219  0.4223  0.2218
  118MOL0     C16180   9.547  10.530  -0.945  0.5102 -0.4021  0.2204
  118MOL0     C16181   9.687  10.532  -0.957 -0.7613  0.0469 -0.2378
  118MOL0     O16182   9.736  10.581  -1.078 -0.4033  0.7046 -0.8971
  118MOL0     C16183   9.866  10.650  -1.072  0.7175 -0.3867 -0.1175
  118MOL0     C16184   9.870  10.742  -1.188  0.3765 -0.1720  0.9720
  118MOL0     C16185  10.007  10.783  -1.228  0.1546  0.2427 -0.6313
  118MOL0     C16186  10.015  10.919  -1.291 -0.2391 -1.1886 -0.2111
  118MOL0     C16187  10.155  10.977  -1.315 -0.1760 -0.8699  0.3967
  118MOL0     C16188  10.131  11.096  -1.405  0.4910  0.2480 -0.3645
  118MOL0     C16189  10.249  11.191  -1.441 -0.0888  0.3340 -0.4407
  118MOL0     C16190  10.286  11.287  -1.331  0.5309  0.1118  0.9661
  118MOL0    Cl16191  10.149  11.405  -1.315 -0.1177 -0.1604  0.2274
  118MOL0     C16192   9.766  10.484  -0.846  0.5036 -1.0484 -0.2331
  118MOL0     C16193   9.695  10.429  -0.733 -0.0410  0.3067  0.3904
  118MOL0     O16194   9.640  10.225  -0.537  0.3174  0.0901 -0.1852
  118MOL0     C16195   9.324  10.317  -0.407  0.8422  0.9441 -0.4055
  118MOL0     C16196   9.238  10.323  -0.300 -0.1979  0.1345  0.1948
  118MOL0     N16197   9.283  10.703   0.169 -0.0363 -0.4586 -0.2783
  118MOL0     N16198   9.282  10.822   0.204  0.7508 -0.0202 -0.5955
  118MOL0     C16199   8.972  11.519   1.348  1.7573  1.3190  0.8333
  118MOL0     C16200   8.960  11.529   1.486  0.0022  1.2763 -0.1709
  118MOL0     C16201   8.996  11.555   1.911  0.6423  0.2155 -0.1158
  118MOL0     C16202   8.890  11.618   1.981 -0.7117  0.0218  0.3221
  118MOL0     C16203   8.913  11.672   2.107 -1.0126  0.4700 -0.4797
  118MOL0     C16204   9.034  11.685   2.169  0.1190  0.0591 -0.3239
  118MOL0     O16205   9.056  11.739   2.301  0.4246 -0.6836 -1.1662
  118MOL0     C16206   8.955  11.825   2.354 -0.3990  0.0794 -0.2519
  118MOL0     C16207   9.000  11.914   2.470 -0.0777 -0.4774  0.5102
  118MOL0     C16208   9.105  12.018   2.423 -0.5865 -0.3751  0.0023
  118MOL0     C16209   9.143  12.115   2.530  0.2933  0.0429 -0.1255
  118MOL0     C16210   9.221  12.058   2.640 -0.3340 -1.0206 -1.2914
  118MOL0     C16211   9.301  12.023   2.723  0.0313 -0.9878  0.1781
  118MOL0     C16212   9.140  11.630   2.106 -0.2894  0.2493 -0.8231
  118MOL0     C16213   9.121  11.558   1.975 -0.8232 -0.2840 -0.5448
  118MOL0     C16214   9.246  11.497   1.923 -0.4550  0.3759 -0.5927
  118MOL0     H16215   9.252  11.349   1.544  1.7945  1.1770 -2.4124
  118MOL0     H16216   9.264  11.370   1.297 -1.0558  2.5434 -2.2719
  118MOL0     H16217   9.103  11.231   1.140 -1.5030  0.0288  0.9232
  118MOL0     H16218   9.231  11.321   1.073  0.4264  5.9169  1.1380
  118MOL0     H16219   8.946  11.309   0.984  0.5103 -0.7514  2.0940
  118MOL0     H16220   9.077  11.366   0.879 -0.1980  0.6836  1.3300
  118MOL0     H16221   9.042  11.066   0.948 -1.1436 -0.7621 -1.3931
  118MOL0     H16222   9.009  11.152   0.799  0.3241 -1.2375 -0.3344
  118MOL0     H16223   9.239  11.246   0.819 -1.5458  0.0072  1.5768
  118MOL0     H16224   9.267  11.123   0.944  0.2844 -2.6196 -0.9171
  118MOL0     H16225   9.234  10.944   0.777  1.0738  0.2776  1.8200
  118MOL0     H16226   9.365  11.037   0.734 -0.3517 -2.1276 -6.0480
  118MOL0     H16227   9.091  11.065   0.608  0.0895 -2.8071 -2.8263
  118MOL0     H16228   9.225  11.177   0.575  0.9497 -1.3638 -1.6582
  118MOL0     H16229   9.262  10.873   0.550  1.3196 -0.8132 -0.8325
  118MOL0     H16230   9.361  10.994   0.476  1.0733 -0.3932  3.0317
  118MOL0     H16231   9.066  10.956   0.427 -1.4658  3.2369 -0.1625
  118MOL0     H16232   9.167  11.043   0.317  2.8979 -1.1809 -0.4796
  118MOL0     H16233   9.066  10.687   0.412  2.2933 -0.1375  2.5816
  118MOL0     H16234   9.147  10.424   0.299 -0.2273 -1.7828 -1.2963
  118MOL0     H16235   9.251  10.433   0.173  1.3600 -0.1181  1.5099
  118MOL0     H16236   8.957  10.514   0.159 -0.8425  1.3198 -2.9419
  118MOL0     H16237   9.064  10.537   0.020 -0.5305  0.2343 -0.1927
  118MOL0     H16238   9.049  10.261   0.158 -1.2697 -1.9653 -1.3131
  118MOL0     H16239   8.900  10.320   0.085  0.0496 -1.6975  2.0156
  118MOL0     H16240   9.032  10.185  -0.072  0.5579 -0.0774 -2.8374
  118MOL0     H16241   9.002  10.344  -0.135  2.6289  1.9948  1.5133
  118MOL0     H16242   9.444  10.279  -0.051 -3.1769  1.0338  1.2142
  118MOL0     H16243   9.703  10.219  -0.312  1.4024  2.6585 -1.6456
  118MOL0     H16244   9.666  10.184  -0.147 -1.5253  0.6336  0.3257
  118MOL0     H16245   9.687  10.359  -0.203  1.3883 -0.5357  0.2848
  118MOL0     H16246   9.372  10.488  -0.840 -0.2431  0.0299 -1.6821
  118MOL0     H16247   9.493  10.563  -1.033 -0.6954 -2.5661  0.0661
  118MOL0     H16248   9.878  10.701  -0.977  0.2389 -1.9063  0.7973
  118MOL0     H16249   9.948  10.578  -1.067 -0.6239 -2.0099 -0.4474
  118MOL0     H16250   9.836  10.694  -1.280 -2.6005  1.9352  0.8243
  118MOL0     H16251   9.813  10.832  -1.164 -0.0120 -0.5477  1.4827
  118MOL0     H16252  10.050  10.705  -1.291 -1.7016 -1.1878 -0.2074
  118MOL0     H16253  10.066  10.790  -1.136  0.4463  2.9047 -0.9537
  118MOL0     H16254   9.966  10.995  -1.230  1.0443 -1.5728  1.3536
  118MOL0     H16255   9.963  10.921  -1.388 -2.4012  3.5912  0.7423
  118MOL0     H16256  10.191  11.019  -1.220  0.3652  1.8080 -0.9105
  118MOL0     H16257  10.233  10.919  -1.366 -0.7309 -1.1199 -0.1789
  118MOL0     H16258  10.054  11.159  -1.362  0.7085  1.6951 -1.9768
  118MOL0     H16259  10.098  11.064  -1.504 -1.2813  1.9397 -0.3724
  118MOL0     H16260  10.218  11.245  -1.530  0.6166  0.7605 -0.4366
  118MOL0     H16261  10.337  11.138  -1.480 -2.3590 -3.9604 -0.3081
  118MOL0     H16262  10.366  11.353  -1.366 -1.1893  1.3942 -0.7729
  118MOL0     H16263  10.309  11.237  -1.236 -0.7783 -0.9225  0.7653
  118MOL0     H16264   9.873  10.503  -0.849 -0.0116  2.7804 -0.3538
  118MOL0     H16265   9.754  10.393  -0.649  2.1031 -3.0341 -2.2998
  118MOL0     H16266   9.278  10.309  -0.505 -1.6175  0.2264  0.7239
  118MOL0     H16267   9.136  10.336  -0.332 -0.4587  0.6940  1.2071
  118MOL0     H16268   8.899  11.560   1.279  0.9584 -0.6783  0.4207
  118MOL0     H16269   8.888  11.588   1.543  0.6034  1.0579  0.8326
  118MOL0     H16270   8.788  11.610   1.944 -0.0451  1.1340 -1.9220
  118MOL0     H16271   8.830  11.714   2.162 -1.9330 -3.5194  1.5275
  118MOL0     H16272   8.921  11.885   2.269  1.7042 -0.8201 -1.8320
  118MOL0     H16273   8.873  11.766   2.394  0.4897 -0.3474  0.9949
  118MOL0     H16274   9.020  11.856   2.560 -3.9109 -1.8843  0.6696
  118MOL0     H16275   8.904  11.960   2.495 -0.5544  0.0926 -2.0534
  118MOL0     H16276   9.197  11.969   2.388 -1.2179 -1.2517 -0.4744
  118MOL0     H16277   9.079  12.076   2.334  2.3064 -0.6633 -1.1636
  118MOL0     H16278   9.052  12.166   2.564 -1.0797 -1.0013 -2.0090
  118MOL0     H16279   9.202  12.198   2.490  0.5176  1.1389  2.3368
  118MOL0     H16280   9.363  11.982   2.799  1.1623  0.4532  0.0827
  118MOL0     H16281   9.233  11.630   2.161 -0.7555 -0.0926 -0.0271
  118MOL0     H16282   9.217  11.398   1.886 -0.9178 -0.9636  2.9236
  118MOL0     H16283   9.294  11.558   1.847 -0.9074  0.6205 -0.6869
  118MOL0     H16284   9.322  11.475   1.998  0.8561  2.2125 -1.3207
  119MOL0     O16285  11.211   9.900   4.779  0.3420 -0.5460  0.1243
  119MOL0     C16286  11.228   9.788   4.813 -0.0283  0.1691  0.2727
  119MOL0     O16287  11.233   9.679   4.730 -0.7861 -0.3169  0.2164
  119MOL0     C16288  11.183   9.700   4.596  0.6397  0.0578 -0.5235
  119MOL0     C16289  11.277   9.684   4.486  0.5608 -1.1425  0.2936
  119MOL0     C16290  11.229   9.702   4.354  0.3245  0.4908  0.0003
  119MOL0     C16291  11.097   9.725   4.329 -0.6424  0.3333 -0.4430
  119MOL0     O16292  11.051   9.744   4.201 -0.6577 -0.0600 -0.3028
  119MOL0     C16293  11.148   9.774   4.092 -0.5139  0.7231  0.0343
  119MOL0     C16294  11.084   9.769   3.964  0.5363  0.6610  0.3778
  119MOL0     C16295  11.181   9.806   3.849 -0.5224  0.1485  0.4971
  119MOL0     C16296  11.100   9.784   3.720 -0.8436 -0.0774  0.0438
  119MOL0     C16297  11.175   9.821   3.590 -0.3899  0.7265 -0.2102
  119MOL0     C16298  11.316   9.751   3.560 -0.8938 -0.0591 -0.2076
  119MOL0     C16299  11.305   9.598   3.553 -1.3321 -0.2570  0.4388
  119MOL0     C16300  11.423   9.543   3.485 -0.5722  1.4429 -0.2880
  119MOL0     N16301  11.554   9.543   3.558 -0.1813 -0.5474  0.2835
  119MOL0     C16302  11.587   9.484   3.673  0.6825  0.3721  0.3550
  119MOL0     C16303  11.717   9.503   3.685 -0.0600 -0.2909 -0.0835
  119MOL0     C16304  11.788   9.453   3.809  0.6510  0.2087  0.7191
  119MOL0     C16305  11.930   9.515   3.793  0.9566  0.7974  0.4394
  119MOL0     C16306  12.022   9.465   3.905  0.7873  0.6537  0.8449
  119MOL0     C16307  12.155   9.551   3.909  0.5333  0.6754 -0.5759
  119MOL0     O16308  12.245   9.478   3.990 -0.9873 -0.1033  0.4285
  119MOL0     C16309  12.360   9.548   4.024  0.6835 -0.1327 -0.3343
  119MOL0     C16310  12.404   9.660   3.967 -0.7741  0.3654  0.2503
  119MOL0     C16311  12.526   9.718   4.001 -0.3697  0.2570  0.1123
  119MOL0     C16312  12.576   9.844   3.930  0.2715  0.0814  0.4259
  119MOL0     C16313  12.599   9.667   4.112 -0.5856  0.1697 -0.9221
  119MOL0     C16314  12.730   9.720   4.169 -0.7185 -1.5007  0.1695
  119MOL0     O16315  12.779   9.667   4.279  0.0835  0.4391 -0.9569
  119MOL0     C16316  12.894   9.721   4.318  0.7142 -0.2190  0.1243
  119MOL0     C16317  12.901   9.853   4.377 -0.6760 -0.7303  0.2841
  119MOL0     C16318  13.026   9.892   4.427  0.6641 -0.7146 -0.3810
  119MOL0     C16319  13.133   9.803   4.434  0.1484  0.3420  0.2509
  119MOL0     O16320  13.258   9.829   4.493  0.0361 -0.0190 -0.6232
  119MOL0     C16321  13.301   9.965   4.450  0.5349  1.3165  0.0333
  119MOL0     C16322  13.435   9.973   4.510 -0.1280  0.1149 -1.2015
  119MOL0     C16323  13.512  10.105   4.470  0.0165  0.2840 -0.0380
  119MOL0     C16324  13.481  10.223   4.561 -0.1396  0.0393  0.0053
  119MOL0     C16325  13.505  10.360   4.493 -0.1673  0.5959  0.6507
  119MOL0     C16326  13.653  10.375   4.448 -0.3638 -0.3419 -0.1961
  119MOL0     C16327  13.685  10.504   4.378 -0.0293  0.6881 -0.3059
  119MOL0     C16328  13.644  10.521   4.233  0.1623 -0.4596  0.7183
  119MOL0    Cl16329  13.758  10.515   4.099  0.5913 -0.4398 -0.2571
  119MOL0     C16330  13.110   9.666   4.386 -0.5737 -1.0747 -0.6306
  119MOL0     C16331  12.990   9.625   4.337 -0.7388  0.0881 -0.0652
  119MOL0     O16332  12.776   9.822   4.113 -0.9040  0.1291  0.2596
  119MOL0     C16333  12.554   9.545   4.171 -0.2775 -0.3662  1.2564
  119MOL0     C16334  12.436   9.488   4.120  0.0863 -0.0236 -0.0151
  119MOL0     N16335  11.766   9.581   3.575 -0.9643  0.2622 -0.1816
  119MOL0     N16336  11.669   9.605   3.504  0.3543 -0.2832  0.6013
  119MOL0     C16337  11.007   9.752   4.431 -0.1248  0.4047  0.0260
  119MOL0     C16338  11.049   9.740   4.568  0.1454 -0.8028 -0.3562
  119MOL0     C16339  11.266   9.775   4.961 -0.4769  0.1458  0.1382
  119MOL0     C16340  11.348   9.661   4.987  0.0939  0.6101  0.6368
  119MOL0     C16341  11.385   9.619   5.116  0.1774 -0.4091 -0.4023
  119MOL0     C16342  11.334   9.695   5.226  0.0183 -0.0738 -0.1261
  119MOL0     O16343  11.342   9.653   5.352 -0.4440  0.2998 -0.5021
  119MOL0     C16344  11.444   9.560   5.393 -0.5690 -0.3623  0.0527
  119MOL0     C16345  11.452   9.586   5.544 -0.2610  0.1762 -0.4103
  119MOL0     C16346  11.601   9.587   5.600 -0.3974  0.0950  0.5136
  119MOL0     C16347  11.608   9.610   5.752 -0.0813  0.9324 -0.0017
  119MOL0     C16348  11.555   9.490   5.825  0.2323 -0.1635  0.3137
  119MOL0     C16349  11.512   9.400   5.892 -0.0422 -0.6543 -0.7955
  119MOL0     C16350  11.266   9.815   5.201  0.0581 -0.0562  0.2438
  119MOL0     C16351  11.233   9.854   5.071 -0.5130  0.7751  0.3807
  119MOL0     C16352  11.135   9.974   5.060 -0.0923 -0.8326  0.6746
  119MOL0     H16353  11.373   9.649   4.521  0.8404  0.7133  1.5680
  119MOL0     H16354  11.303   9.687   4.277 -0.4569 -2.2234 -0.3383
  119MOL0     H16355  11.233   9.707   4.077 -0.8676  0.3731 -0.4778
  119MOL0     H16356  11.176   9.878   4.108 -4.4263  1.9707 -0.2143
  119MOL0     H16357  11.022   9.680   3.950 -0.7667  1.9384 -2.8180
  119MOL0     H16358  11.019   9.857   3.966 -1.6837 -0.8746 -0.5115
  119MOL0     H16359  11.216   9.909   3.862 -2.3590  0.9538 -0.6407
  119MOL0     H16360  11.267   9.739   3.859  0.1492  0.7479 -0.9832
  119MOL0     H16361  11.061   9.683   3.730  0.5599 -0.4698  2.1534
  119MOL0     H16362  11.015   9.853   3.725 -0.8506 -0.2078  2.6673
  119MOL0     H16363  11.197   9.928   3.591 -0.6202  0.7847  1.4091
  119MOL0     H16364  11.111   9.795   3.505 -0.3508  1.6384 -0.5259
  119MOL0     H16365  11.348   9.800   3.467  1.4302 -0.0483  0.5332
  119MOL0     H16366  11.394   9.771   3.633 -0.6263  1.0821 -0.7931
  119MOL0     H16367  11.220   9.569   3.491 -1.0125  1.0275 -0.6374
  119MOL0     H16368  11.298   9.567   3.658  1.4922  1.7476  1.3515
  119MOL0     H16369  11.396   9.438   3.475  1.0557  0.9928 -0.2469
  119MOL0     H16370  11.422   9.581   3.382 -0.0835  3.0636  0.2701
  119MOL0     H16371  11.521   9.425   3.736  2.7484 -1.9058  0.5452
  119MOL0     H16372  11.795   9.344   3.806  0.6157  0.0957  3.0183
  119MOL0     H16373  11.732   9.482   3.898 -0.9162 -2.0493  0.5604
  119MOL0     H16374  11.978   9.493   3.697  1.9871  0.2864  1.0570
  119MOL0     H16375  11.913   9.623   3.803  1.4918  0.9208  0.0927
  119MOL0     H16376  11.969   9.473   4.000  0.1847 -1.4910  0.7350
  119MOL0     H16377  12.048   9.359   3.907 -2.0379 -0.2137 -1.3792
  119MOL0     H16378  12.194   9.553   3.806  2.5876  1.2656  0.1630
  119MOL0     H16379  12.130   9.652   3.945 -2.0996 -0.3207  0.6109
  119MOL0     H16380  12.352   9.704   3.882 -1.8290 -1.8002 -0.2985
  119MOL0     H16381  12.667   9.837   3.870  0.2948 -0.2411  0.4927
  119MOL0     H16382  12.588   9.924   4.002  0.7211  0.2700  0.1444
  119MOL0     H16383  12.495   9.877   3.864 -1.3290 -0.5231  2.0100
  119MOL0     H16384  12.818   9.921   4.364 -0.9877 -1.5291 -2.7579
  119MOL0     H16385  13.023   9.997   4.456 -2.4055 -0.5038 -1.0874
  119MOL0     H16386  13.301   9.963   4.340 -0.3572  0.9552  0.0305
  119MOL0     H16387  13.236  10.049   4.477  0.5165  1.8268 -1.5028
  119MOL0     H16388  13.440   9.972   4.619  5.1691 -3.2697 -1.1514
  119MOL0     H16389  13.497   9.889   4.479 -1.3976 -0.7570 -1.4200
  119MOL0     H16390  13.486  10.126   4.365  3.5370  1.9635 -0.7053
  119MOL0     H16391  13.620  10.089   4.466 -0.1757 -1.0014 -1.3950
  119MOL0     H16392  13.549  10.210   4.646 -0.5552  0.4373  0.3995
  119MOL0     H16393  13.376  10.221   4.589  0.1626 -1.6878  1.1754
  119MOL0     H16394  13.448  10.362   4.399  0.3497 -0.8816  0.2819
  119MOL0     H16395  13.472  10.445   4.553 -1.6546  0.8010 -0.3854
  119MOL0     H16396  13.681  10.291   4.384  0.3590  0.3239 -0.7653
  119MOL0     H16397  13.716  10.373   4.537 -0.0044 -3.6589 -0.4141
  119MOL0     H16398  13.794  10.516   4.381  0.7757 -3.4672 -3.5644
  119MOL0     H16399  13.630  10.581   4.434  0.0696  0.5960 -0.0823
  119MOL0     H16400  13.599  10.621   4.228  1.3067  0.0112 -1.5403
  119MOL0     H16401  13.558  10.455   4.218  0.8351 -1.2250  0.1237
  119MOL0     H16402  13.190   9.593   4.380 -2.0332 -2.7733 -0.4229
  119MOL0     H16403  12.986   9.520   4.311  0.9340  0.2683 -1.1834
  119MOL0     H16404  12.607   9.492   4.250 -0.9013  0.2276  2.0879
  119MOL0     H16405  12.398   9.394   4.158 -1.7615  0.7647  0.2106
  119MOL0     H16406  10.903   9.768   4.403 -0.0678  4.1285  1.4273
  119MOL0     H16407  10.977   9.754   4.648  0.8828 -1.0457  0.3628
  119MOL0     H16408  11.387   9.599   4.907 -0.0069  2.3677 -0.8404
  119MOL0     H16409  11.420   9.517   5.131  0.5757 -0.3751 -1.0529
  119MOL0     H16410  11.425   9.454   5.373  1.2362 -0.7018 -0.0356
  119MOL0     H16411  11.542   9.574   5.347 -0.6143 -2.0040 -0.6166
  119MOL0     H16412  11.385   9.519   5.599 -0.6054 -0.7313 -1.9033
  119MOL0     H16413  11.422   9.690   5.561  1.6650  1.3001 -3.1667
  119MOL0     H16414  11.642   9.489   5.572  1.0419  0.2487  1.9672
  119MOL0     H16415  11.656   9.672   5.559 -0.4459 -0.7307 -1.3573
  119MOL0     H16416  11.553   9.699   5.784  0.7560  0.9565  1.4831
  119MOL0     H16417  11.710   9.627   5.788 -0.6885  0.2950  2.2185
  119MOL0     H16418  11.461   9.330   5.955 -1.0816  2.1477  1.7182
  119MOL0     H16419  11.226   9.880   5.278 -0.2528 -1.8708  1.6881
  119MOL0     H16420  11.172  10.049   4.991  1.0610 -2.5679 -0.6715
  119MOL0     H16421  11.039   9.940   5.020  0.4252 -1.2846 -0.2006
  119MOL0     H16422  11.131  10.033   5.152  1.1350  0.6563 -0.1884
  120MOL0     O16423  10.233   8.197   7.472 -0.0948 -0.3603  0.0373
  120MOL0     C16424  10.310   8.260   7.544 -0.5734 -0.9406  0.0511
  120MOL0     O16425  10.444   8.249   7.534 -0.4932  0.6895  0.3669
  120MOL0     C16426  10.497   8.171   7.425  0.9201 -0.6918  1.1121
  120MOL0     C16427  10.577   8.235   7.330 -0.2159  0.1792  0.0072
  120MOL0     C16428  10.619   8.174   7.211  0.9781 -0.7317  0.1736
  120MOL0     C16429  10.584   8.042   7.178  1.0850 -0.0441 -1.2091
  120MOL0     O16430  10.631   7.985   7.067 -0.6862  0.4524  0.8671
  120MOL0     C16431  10.693   7.856   7.075  0.9844 -0.2814  0.1444
  120MOL0     C16432  10.797   7.837   6.965 -0.4135  0.8478  0.5799
  120MOL0     C16433  10.927   7.908   7.006  0.5953  0.5698 -0.3452
  120MOL0     C16434  11.044   7.900   6.904  0.2473 -0.1935 -0.6777
  120MOL0     C16435  11.156   7.996   6.946 -0.8683  0.7427  0.4036
  120MOL0     C16436  11.286   7.946   6.886 -0.4402  0.0110 -0.5287
  120MOL0     C16437  11.273   7.934   6.734 -0.5119  0.5668  0.6344
  120MOL0     C16438  11.409   7.931   6.664 -0.6257 -0.4101 -0.2562
  120MOL0     N16439  11.404   7.953   6.514 -0.0410 -0.4120  0.1667
  120MOL0     C16440  11.514   7.906   6.436 -0.2124 -0.3059 -0.8199
  120MOL0     C16441  11.452   7.891   6.314  0.3470 -0.6890  0.6642
  120MOL0     C16442  11.516   7.816   6.199  0.5055  0.3522  0.4910
  120MOL0     C16443  11.559   7.910   6.081  0.0879  0.1449 -0.4784
  120MOL0     C16444  11.699   7.972   6.115 -0.0828 -0.1506 -0.0026
  120MOL0     C16445  11.763   8.053   5.994 -1.4096  0.3754  0.1267
  120MOL0     O16446  11.682   8.173   5.962  0.3009  0.7650 -0.1745
  120MOL0     C16447  11.757   8.268   5.896  0.3745  0.5555 -0.4536
  120MOL0     C16448  11.852   8.245   5.802  0.3308  0.5662  0.4091
  120MOL0     C16449  11.911   8.351   5.728 -0.0527  0.0282 -0.2640
  120MOL0     C16450  12.034   8.308   5.653 -0.1138 -0.4181  0.4053
  120MOL0     C16451  11.874   8.484   5.745  0.6268  0.3533 -0.9009
  120MOL0     C16452  11.939   8.600   5.677  0.4522  0.5303 -0.2092
  120MOL0     O16453  12.006   8.580   5.556 -0.0128  0.6683  0.6446
  120MOL0     C16454  12.064   8.687   5.490 -0.6801 -0.4030 -0.2882
  120MOL0     C16455  12.041   8.697   5.353 -0.3433  1.0211 -0.6585
  120MOL0     C16456  12.084   8.802   5.280 -1.4451 -0.8908 -0.1723
  120MOL0     C16457  12.151   8.911   5.341  0.1946  0.8086  0.4869
  120MOL0     O16458  12.169   9.026   5.268  1.3141 -0.1046  0.6553
  120MOL0     C16459  12.158   9.143   5.353  0.0500  0.8745 -0.0790
  120MOL0     C16460  12.135   9.274   5.274  0.5215  0.2885  1.3228
  120MOL0     C16461  11.997   9.275   5.210  0.0816 -0.2081 -0.1894
  120MOL0     C16462  11.987   9.393   5.107  0.6067  0.5463 -0.9229
  120MOL0     C16463  11.848   9.387   5.039 -0.5360 -0.8421  0.6752
  120MOL0     C16464  11.853   9.490   4.930  0.6239 -0.1371 -0.2177
  120MOL0     C16465  11.729   9.459   4.848 -0.6421  0.2032 -0.3545
  120MOL0     C16466  11.695   9.578   4.751  0.2320  0.2057 -0.3424
  120MOL0    Cl16467  11.550   9.517   4.643  0.0242 -0.7415 -0.1685
  120MOL0     C16468  12.196   8.886   5.471  0.0595 -0.2015  0.4716
  120MOL0     C16469  12.152   8.779   5.545  0.4277  0.7199 -0.4339
  120MOL0     O16470  11.924   8.704   5.733 -0.6238 -0.6181 -0.6749
  120MOL0     C16471  11.764   8.510   5.839 -0.1826  0.0773  0.0993
  120MOL0     C16472  11.717   8.403   5.917  0.2507  0.5896  0.1773
  120MOL0     N16473  11.312   7.916   6.324 -0.5822 -0.6916  0.3374
  120MOL0     N16474  11.289   7.953   6.438 -0.4281 -0.6267 -0.4921
  120MOL0     C16475  10.509   7.980   7.274  0.4221  0.0778  0.7860
  120MOL0     C16476  10.467   8.043   7.397  0.5440  1.6260  0.3761
  120MOL0     C16477  10.252   8.353   7.648 -0.9229  0.3368  0.0661
  120MOL0     C16478  10.275   8.493   7.640 -0.2014  0.7377 -0.5186
  120MOL0     C16479  10.230   8.575   7.739  0.2930 -0.0330 -0.2734
  120MOL0     C16480  10.157   8.526   7.850 -0.4243 -0.8753  0.5007
  120MOL0     O16481  10.105   8.620   7.942  0.5104 -0.7080  0.2299
  120MOL0     C16482  10.038   8.571   8.062 -0.4855  0.3436 -0.9165
  120MOL0     C16483  10.083   8.644   8.198 -0.0584  0.5512 -0.2030
  120MOL0     C16484  10.078   8.803   8.181 -0.1495  0.2792  0.8422
  120MOL0     C16485   9.939   8.865   8.150 -0.4562 -0.9309  1.2710
  120MOL0     C16486   9.846   8.839   8.256 -0.1576  0.3106  0.2625
  120MOL0     C16487   9.773   8.799   8.347  0.1562 -0.2227  0.6199
  120MOL0     C16488  10.126   8.392   7.844 -0.2474 -0.2923 -0.4289
  120MOL0     C16489  10.170   8.298   7.749  0.2484 -0.0684 -0.2270
  120MOL0     C16490  10.147   8.153   7.774  0.0729  0.7841  0.3025
  120MOL0     H16491  10.622   8.330   7.356 -0.0559  0.1684 -0.2254
  120MOL0     H16492  10.678   8.247   7.157  1.8342  0.2685  2.3539
  120MOL0     H16493  10.618   7.778   7.057  1.9901 -1.7518  1.9724
  120MOL0     H16494  10.729   7.837   7.177 -2.1531  1.1326  1.6598
  120MOL0     H16495  10.825   7.732   6.949  0.9219  1.4141 -0.9443
  120MOL0     H16496  10.764   7.878   6.870  1.5577  3.2085  0.8333
  120MOL0     H16497  10.900   8.014   7.011 -3.1848 -0.2158 -1.4576
  120MOL0     H16498  10.970   7.873   7.100  2.3293  0.9783 -0.9491
  120MOL0     H16499  11.096   7.804   6.912  0.6363 -0.1098 -1.9851
  120MOL0     H16500  11.010   7.905   6.801 -0.8221  1.4927 -0.2880
  120MOL0     H16501  11.164   8.007   7.054  2.9280 -1.6071  0.5393
  120MOL0     H16502  11.128   8.089   6.896 -1.7839 -0.5153 -1.5472
  120MOL0     H16503  11.357   8.028   6.902  0.9829 -1.2472 -0.1541
  120MOL0     H16504  11.311   7.856   6.942  1.1285  1.4187  1.1940
  120MOL0     H16505  11.226   8.024   6.693  2.3031  3.2942  2.9203
  120MOL0     H16506  11.232   7.836   6.707  2.0802 -1.2664  2.8442
  120MOL0     H16507  11.475   8.013   6.692  1.6819 -0.6798 -4.1950
  120MOL0     H16508  11.460   7.842   6.701 -0.5867  0.6520  2.4544
  120MOL0     H16509  11.615   7.877   6.464 -1.0790 -1.1057  1.7626
  120MOL0     H16510  11.443   7.745   6.159  1.3346  0.1948 -0.8296
  120MOL0     H16511  11.600   7.757   6.238  0.6737 -1.1202 -1.9064
  120MOL0     H16512  11.569   7.835   6.002 -2.6272  0.1874 -0.9401
  120MOL0     H16513  11.487   7.988   6.054 -1.4992 -0.8616  0.6719
  120MOL0     H16514  11.694   8.040   6.201  0.9033 -0.2110  0.1162
  120MOL0     H16515  11.768   7.889   6.137 -0.5354 -1.1345 -2.0482
  120MOL0     H16516  11.868   8.067   6.021 -1.5675  2.4527 -0.1724
  120MOL0     H16517  11.780   7.982   5.912 -0.7493 -2.3549  2.4590
  120MOL0     H16518  11.889   8.145   5.777  2.0855  1.9643 -3.4605
  120MOL0     H16519  12.105   8.391   5.652  0.3994 -0.8373 -1.3094
  120MOL0     H16520  12.014   8.274   5.551 -0.7250 -1.2009  0.7797
  120MOL0     H16521  12.075   8.221   5.704  0.3820 -0.1350  0.4964
  120MOL0     H16522  11.980   8.615   5.315 -2.3546  2.7396 -1.2933
  120MOL0     H16523  12.044   8.809   5.179  0.4158 -0.9249 -0.9399
  120MOL0     H16524  12.078   9.135   5.427  1.4446 -5.1873  1.4108
  120MOL0     H16525  12.245   9.152   5.419 -1.9547  0.5981  2.8118
  120MOL0     H16526  12.153   9.368   5.327 -0.3028  1.2110  0.0144
  120MOL0     H16527  12.195   9.264   5.183 -2.5137 -0.4046 -0.7468
  120MOL0     H16528  11.929   9.299   5.292  0.0070 -0.1618 -0.2648
  120MOL0     H16529  11.983   9.179   5.161  1.5620  0.0868 -1.2548
  120MOL0     H16530  12.061   9.359   5.035  1.6318 -1.4715  0.9536
  120MOL0     H16531  12.007   9.488   5.158  1.3298 -0.5834  1.0207
  120MOL0     H16532  11.833   9.290   4.991  1.7555  0.2020 -2.5754
  120MOL0     H16533  11.762   9.398   5.105 -1.2989 -2.8369  0.0619
  120MOL0     H16534  11.947   9.491   4.874  3.2230 -0.2090  3.7206
  120MOL0     H16535  11.842   9.593   4.964  1.0372  1.3031 -4.0226
  120MOL0     H16536  11.641   9.428   4.904  0.5996 -1.1943  0.9152
  120MOL0     H16537  11.745   9.365   4.794  0.6159  1.0416 -1.4984
  120MOL0     H16538  11.788   9.587   4.694  1.9238 -0.1623  2.1798
  120MOL0     H16539  11.660   9.666   4.805 -2.7700 -1.7211  1.1337
  120MOL0     H16540  12.252   8.962   5.525  0.3666  0.4313 -0.7023
  120MOL0     H16541  12.195   8.762   5.643  0.4206  1.6253 -0.2707
  120MOL0     H16542  11.731   8.613   5.851  0.2411  0.3516 -0.9267
  120MOL0     H16543  11.641   8.419   5.993 -1.5543  1.2464 -1.6675
  120MOL0     H16544  10.472   7.880   7.254 -0.4935  0.5742 -0.0588
  120MOL0     H16545  10.415   7.980   7.469 -0.0095 -1.1770 -2.2348
  120MOL0     H16546  10.335   8.523   7.554 -1.2510  0.1332 -1.4814
  120MOL0     H16547  10.255   8.681   7.735  0.0338  0.0560  0.3552
  120MOL0     H16548   9.930   8.585   8.052 -0.3663  3.5341  0.7875
  120MOL0     H16549  10.064   8.465   8.070  1.8026  0.9812  2.0399
  120MOL0     H16550  10.186   8.610   8.208 -1.0116 -4.0038 -2.9630
  120MOL0     H16551  10.026   8.608   8.284 -0.8378  2.6286  0.2164
  120MOL0     H16552  10.122   8.850   8.269  4.4501  1.3477 -1.7135
  120MOL0     H16553  10.155   8.822   8.106  0.0114 -0.7026  0.7374
  120MOL0     H16554   9.896   8.824   8.058 -0.4878  0.0583  0.8396
  120MOL0     H16555   9.950   8.972   8.130 -1.6717 -0.4106  3.1477
  120MOL0     H16556   9.707   8.766   8.424 -0.1808  0.7449  0.7657
  120MOL0     H16557  10.062   8.343   7.917 -0.7672 -1.2299 -1.4647
  120MOL0     H16558  10.111   8.131   7.874  3.7489 -1.3662  1.3580
  120MOL0     H16559  10.076   8.098   7.712 -0.6427 -2.1337  3.4625
  120MOL0     H16560  10.248   8.113   7.765 -0.5976 -1.0677  0.7171
  121MOL0     O16561   3.270  11.337   4.104  0.1441  0.8584  0.2608
  121MOL0     C16562   3.207  11.348   4.209 -0.1214  1.1334 -0.3127
  121MOL0     O16563   3.091  11.420   4.228 -0.2853  0.3351  0.3194
  121MOL0     C16564   3.068  11.527   4.145  0.4044  0.6290  0.8607
  121MOL0     C16565   3.162  11.622   4.110 -0.3114 -1.1333  0.2107
  121MOL0     C16566   3.139  11.726   4.019  0.5175  0.0472  0.6395
  121MOL0     C16567   3.010  11.738   3.961  0.6801  0.4388 -0.6964
  121MOL0     O16568   2.976  11.817   3.855  0.0786 -0.3978 -0.2138
  121MOL0     C16569   3.075  11.887   3.783 -0.1467  0.0773  0.1980
  121MOL0     C16570   3.096  12.021   3.864  0.2997  0.5197  0.2887
  121MOL0     C16571   3.222  12.100   3.808  0.1764 -0.4362  0.3245
  121MOL0     C16572   3.200  12.248   3.816  0.7457 -0.3013  0.7056
  121MOL0     C16573   3.309  12.336   3.753 -0.9306  0.3242  1.0800
  121MOL0     C16574   3.287  12.486   3.780  0.4444  0.0652  1.0298
  121MOL0     C16575   3.417  12.569   3.750 -0.5516 -0.8165 -0.3486
  121MOL0     C16576   3.471  12.568   3.612  0.6123  0.1802 -1.0820
  121MOL0     N16577   3.571  12.670   3.591  0.5124 -0.5396  0.2689
  121MOL0     C16578   3.550  12.804   3.552 -0.1422 -0.8760 -0.2427
  121MOL0     C16579   3.672  12.864   3.544 -0.2842 -0.0574 -0.2736
  121MOL0     C16580   3.713  13.006   3.491  0.7963 -0.2530 -0.7199
  121MOL0     C16581   3.661  13.122   3.583 -0.0571 -0.2675 -0.1803
  121MOL0     C16582   3.718  13.243   3.519 -0.2260 -0.2529 -0.9178
  121MOL0     C16583   3.671  13.362   3.606  1.3802  0.7116  0.9493
  121MOL0     O16584   3.741  13.483   3.566 -0.4950  0.3388 -0.4689
  121MOL0     C16585   3.753  13.601   3.645  0.6105  1.4800  0.7822
  121MOL0     C16586   3.829  13.708   3.602 -0.0563 -0.3287  0.5718
  121MOL0     C16587   3.833  13.826   3.679 -0.6054 -0.4297  0.0302
  121MOL0     C16588   3.917  13.935   3.621 -0.1978 -0.8485  0.0221
  121MOL0     C16589   3.763  13.836   3.803  0.0338  0.8548 -0.0671
  121MOL0     C16590   3.769  13.946   3.894  0.6657 -0.4191 -0.8216
  121MOL0     O16591   3.725  13.922   4.019  0.8353  0.3002 -0.6133
  121MOL0     C16592   3.743  14.022   4.110 -0.2084  0.9050 -0.2117
  121MOL0     C16593   3.869  14.037   4.170  0.1802  0.5188  0.0824
  121MOL0     C16594   3.891  14.146   4.259  0.0291  0.4519 -0.4610
  121MOL0     C16595   3.781  14.229   4.288 -1.3484 -0.0762  0.0759
  121MOL0     O16596   3.785  14.318   4.393 -0.1105 -0.4985  0.2929
  121MOL0     C16597   3.904  14.402   4.413 -0.3138  0.1036  0.7441
  121MOL0     C16598   3.894  14.472   4.545  1.2316 -0.3386  0.4463
  121MOL0     C16599   4.014  14.558   4.570 -0.2432 -0.7850  0.0785
  121MOL0     C16600   4.018  14.649   4.691  0.1666 -0.5415 -0.6496
  121MOL0     C16601   4.152  14.715   4.710 -0.1042  0.5760 -0.2547
  121MOL0     C16602   4.167  14.789   4.841 -0.1042 -0.1542 -0.4218
  121MOL0     C16603   4.064  14.907   4.860 -0.0644 -0.3815 -0.6050
  121MOL0     C16604   4.072  14.944   4.999 -0.6163  0.0001 -0.6531
  121MOL0    Cl16605   4.223  14.996   5.057  0.0263 -0.5456 -0.0200
  121MOL0     C16606   3.657  14.216   4.227 -0.5377 -0.6489 -0.2254
  121MOL0     C16607   3.635  14.107   4.136 -0.4648 -0.6858 -0.1814
  121MOL0     O16608   3.822  14.050   3.857 -0.0853 -1.0979  0.0147
  121MOL0     C16609   3.679  13.725   3.831  0.4751 -0.0972 -0.1375
  121MOL0     C16610   3.664  13.611   3.750 -0.5799 -0.7257 -0.5151
  121MOL0     N16611   3.767  12.769   3.574 -0.2309 -0.2402 -0.4898
  121MOL0     N16612   3.708  12.659   3.605  0.1589  0.0472 -0.1307
  121MOL0     C16613   2.903  11.659   4.008 -1.8416 -0.0794 -0.2102
  121MOL0     C16614   2.936  11.556   4.098 -0.1210  0.3509 -0.6250
  121MOL0     C16615   3.256  11.269   4.322  0.1822  0.5185  0.2090
  121MOL0     C16616   3.235  11.132   4.323  0.2573 -0.4684 -0.4985
  121MOL0     C16617   3.276  11.058   4.445  0.1831 -0.2849 -0.2001
  121MOL0     C16618   3.342  11.117   4.551  0.7352  0.4374 -0.1373
  121MOL0     O16619   3.383  11.031   4.644  0.0134 -0.0245 -0.6638
  121MOL0     C16620   3.502  11.056   4.720 -0.3608  0.1440  0.0357
  121MOL0     C16621   3.631  11.041   4.637 -0.2063 -0.0076 -0.1361
  121MOL0     C16622   3.652  10.899   4.588  0.9796  0.1819  0.6209
  121MOL0     C16623   3.787  10.872   4.514 -0.3382 -0.9124 -1.0703
  121MOL0     C16624   3.906  10.844   4.599 -0.4535 -0.1349 -0.3300
  121MOL0     C16625   4.011  10.832   4.663 -0.1183 -0.0194 -0.1789
  121MOL0     C16626   3.347  11.256   4.543 -0.6198 -0.5831 -0.3171
  121MOL0     C16627   3.299  11.333   4.438 -0.4924 -0.2045 -0.1909
  121MOL0     C16628   3.291  11.480   4.465 -0.0781 -0.0252  0.2270
  121MOL0     H16629   3.250  11.610   4.173 -1.1236 -1.8168  1.2544
  121MOL0     H16630   3.221  11.794   3.994 -0.7989  1.2497 -0.6228
  121MOL0     H16631   3.025  11.898   3.686  0.8100 -3.3877 -0.8230
  121MOL0     H16632   3.163  11.823   3.770 -0.7217 -1.4859  3.1441
  121MOL0     H16633   3.001  12.076   3.858 -0.1483 -0.3408 -1.0403
  121MOL0     H16634   3.124  11.997   3.967  0.7788  2.6313  0.6911
  121MOL0     H16635   3.320  12.085   3.853  0.8149 -3.1794 -1.7192
  121MOL0     H16636   3.223  12.085   3.699 -2.0380  0.9404  0.0518
  121MOL0     H16637   3.111  12.282   3.763  0.7828 -0.6799  0.3960
  121MOL0     H16638   3.172  12.280   3.917  0.3966  2.5437 -0.2015
  121MOL0     H16639   3.313  12.316   3.645 -2.5177  0.5033  0.9553
  121MOL0     H16640   3.407  12.310   3.794  0.2671 -0.8749 -2.1729
  121MOL0     H16641   3.214  12.528   3.710  0.7601  0.5162  0.9629
  121MOL0     H16642   3.246  12.504   3.880 -1.1845 -3.4050  1.1299
  121MOL0     H16643   3.496  12.549   3.822 -0.1220  3.9142  0.7823
  121MOL0     H16644   3.386  12.672   3.766  0.2341 -0.4124 -1.2548
  121MOL0     H16645   3.513  12.468   3.607  1.8966  0.5256  1.3519
  121MOL0     H16646   3.385  12.583   3.545 -2.2537  2.9594  2.7063
  121MOL0     H16647   3.457  12.856   3.531  0.6938  1.7864  2.0260
  121MOL0     H16648   3.669  13.011   3.391 -2.2181 -3.1266  0.2413
  121MOL0     H16649   3.822  13.009   3.497  0.7830  1.4222 -0.9187
  121MOL0     H16650   3.552  13.137   3.589 -0.0553  0.7831 -2.1402
  121MOL0     H16651   3.705  13.109   3.683  0.2156  1.9520  0.0349
  121MOL0     H16652   3.826  13.246   3.529 -0.3187 -1.4388  1.0417
  121MOL0     H16653   3.681  13.261   3.417 -0.6673  0.2404 -0.6752
  121MOL0     H16654   3.567  13.387   3.586  0.4900 -2.5033  0.9142
  121MOL0     H16655   3.692  13.349   3.713  0.2648  0.3243  1.1288
  121MOL0     H16656   3.884  13.702   3.509 -0.4392  0.2955  0.3035
  121MOL0     H16657   3.849  14.017   3.598  2.5222  1.5614 -0.0450
  121MOL0     H16658   3.960  13.904   3.525 -0.0646 -2.0122  0.4303
  121MOL0     H16659   3.999  13.965   3.687 -2.2542 -1.5937  3.1571
  121MOL0     H16660   3.943  13.958   4.163 -2.3899 -1.9073 -1.6997
  121MOL0     H16661   3.978  14.154   4.323 -0.5143 -2.9349  0.8916
  121MOL0     H16662   3.992  14.338   4.403 -2.7624 -3.7170  1.6365
  121MOL0     H16663   3.904  14.472   4.329 -2.6854  0.0876  0.6533
  121MOL0     H16664   3.808  14.539   4.536  3.1530  2.1285 -1.0180
  121MOL0     H16665   3.879  14.399   4.624  0.8044  0.4986  1.1560
  121MOL0     H16666   4.014  14.625   4.483  4.2389 -3.1416 -2.0851
  121MOL0     H16667   4.105  14.498   4.562  0.5814  0.5851 -1.5590
  121MOL0     H16668   3.994  14.589   4.779 -0.8784  2.0219  0.9491
  121MOL0     H16669   3.938  14.724   4.683 -1.0550 -1.7823 -0.5011
  121MOL0     H16670   4.231  14.639   4.707 -0.5197  0.1295  0.1404
  121MOL0     H16671   4.170  14.790   4.632  2.4209  0.7440  0.3995
  121MOL0     H16672   4.260  14.846   4.852 -0.2064 -0.2700  1.1546
  121MOL0     H16673   4.160  14.724   4.929  4.1321  1.1111  1.1260
  121MOL0     H16674   3.961  14.874   4.842 -1.1756  2.9201 -0.9471
  121MOL0     H16675   4.088  14.986   4.788  0.7782 -0.6731 -0.6575
  121MOL0     H16676   4.044  14.860   5.063  1.6623 -1.0665 -0.9778
  121MOL0     H16677   3.991  15.018   5.000 -1.6253 -1.0458 -1.3073
  121MOL0     H16678   3.591  14.292   4.268  1.7366 -0.4873  3.6413
  121MOL0     H16679   3.546  14.081   4.080 -0.1767 -0.2938 -0.8387
  121MOL0     H16680   3.620  13.725   3.922 -0.1759 -2.8573 -0.4920
  121MOL0     H16681   3.590  13.533   3.767 -4.9934  2.9362 -1.0295
  121MOL0     H16682   2.803  11.672   3.968 -2.0576 -0.4144  0.2141
  121MOL0     H16683   2.862  11.480   4.122 -1.6572  1.9518 -0.1346
  121MOL0     H16684   3.199  11.071   4.241  0.2182 -0.2764 -0.6243
  121MOL0     H16685   3.244  10.955   4.454 -1.8191  0.3169  0.2252
  121MOL0     H16686   3.498  11.163   4.746 -1.2883  0.2379 -0.4319
  121MOL0     H16687   3.497  10.998   4.812 -2.1977 -3.4137 -2.0817
  121MOL0     H16688   3.724  11.066   4.689  1.3839 -1.0443 -2.3230
  121MOL0     H16689   3.627  11.103   4.548 -1.4255  0.6773  0.3783
  121MOL0     H16690   3.648  10.832   4.674  5.4786 -0.5625  0.4706
  121MOL0     H16691   3.563  10.884   4.525 -0.2873 -2.2404  2.8239
  121MOL0     H16692   3.816  10.961   4.457 -1.5653 -0.8212 -1.6023
  121MOL0     H16693   3.778  10.795   4.437  0.5746 -0.9649 -1.1314
  121MOL0     H16694   4.085  10.798   4.732  0.7428  0.9992 -0.5671
  121MOL0     H16695   3.396  11.295   4.631  0.8084 -2.5061 -0.1935
  121MOL0     H16696   3.197  11.522   4.429 -0.9005 -1.4337  0.6478
  121MOL0     H16697   3.315  11.504   4.569 -2.1607  1.2732  0.4521
  121MOL0     H16698   3.361  11.517   4.389 -1.2170 -3.2239 -2.6648
  122MOL0     O16699   6.648   5.183   9.675 -0.0666 -0.0366  0.8686
  122MOL0     C16700   6.724   5.282   9.689  0.3484  0.3325  0.3982
  122MOL0     O16701   6.862   5.284   9.664 -0.7272 -0.8692  0.3581
  122MOL0     C16702   6.919   5.166   9.618 -1.2758 -0.8795  0.0388
  122MOL0     C16703   7.007   5.167   9.506  0.1681  0.2448 -0.4425
  122MOL0     C16704   7.079   5.051   9.472 -0.5258  0.0907 -1.0119
  122MOL0     C16705   7.071   4.929   9.545 -0.6660 -0.0717  0.9111
  122MOL0     O16706   7.158   4.825   9.520 -0.0033  0.9947  0.1319
  122MOL0     C16707   7.289   4.844   9.563 -0.2814 -0.2964  0.1697
  122MOL0     C16708   7.285   4.830   9.722 -0.6267  0.2890 -0.5223
  122MOL0     C16709   7.427   4.829   9.774  1.3861 -0.3920  0.5906
  122MOL0     C16710   7.430   4.786   9.920  0.3912  0.5922  0.2675
  122MOL0     C16711   7.574   4.757   9.973 -0.2008  0.2283  0.0858
  122MOL0     C16712   7.555   4.691  10.110  0.3295 -0.3209 -0.0339
  122MOL0     C16713   7.682   4.683  10.199  0.8883 -0.0702  0.0761
  122MOL0     C16714   7.779   4.582  10.146  0.3115 -0.2265  0.3123
  122MOL0     N16715   7.867   4.528  10.248 -0.1479  0.1880 -0.8330
  122MOL0     C16716   7.986   4.450  10.238 -0.2130  0.2621  0.3034
  122MOL0     C16717   8.020   4.406  10.363 -0.4830  0.4828 -0.1145
  122MOL0     C16718   8.133   4.320  10.413  0.4629 -0.3857  0.1288
  122MOL0     C16719   8.129   4.186  10.337  0.0539  0.3635  0.3922
  122MOL0     C16720   8.254   4.102  10.378 -0.2121  0.6352 -0.0722
  122MOL0     C16721   8.231   4.014  10.504  0.9904  0.9121  0.5290
  122MOL0     O16722   8.351   3.947  10.535 -0.6582 -0.7911 -0.0140
  122MOL0     C16723   8.350   3.857  10.637  0.0084  0.0569 -0.3062
  122MOL0     C16724   8.241   3.771  10.664 -0.4467  0.3214 -0.3918
  122MOL0     C16725   8.250   3.663  10.766  0.3444 -0.5874 -0.4084
  122MOL0     C16726   8.125   3.569  10.779 -0.7902 -0.9935 -0.1992
  122MOL0     C16727   8.374   3.649  10.836  0.8885  0.1688  0.6671
  122MOL0     C16728   8.407   3.552  10.935 -0.3075  0.0640  0.4055
  122MOL0     O16729   8.518   3.559  11.019 -0.4536 -0.6039 -0.0268
  122MOL0     C16730   8.568   3.443  11.077 -0.0550 -0.2211 -0.0844
  122MOL0     C16731   8.594   3.325  11.001  0.1672  0.3586  0.7660
  122MOL0     C16732   8.632   3.214  11.071  0.4903  1.1813 -0.4341
  122MOL0     C16733   8.670   3.218  11.211 -0.0841 -0.8578  1.2647
  122MOL0     O16734   8.707   3.112  11.289  0.7164  0.6707  0.0957
  122MOL0     C16735   8.748   2.984  11.234 -0.4289  0.4588  0.4260
  122MOL0     C16736   8.812   2.884  11.335 -0.3281 -0.1992 -0.2478
  122MOL0     C16737   8.953   2.929  11.378 -0.0359 -0.6136  0.0916
  122MOL0     C16738   9.056   2.855  11.289 -0.1321  0.1110  0.3337
  122MOL0     C16739   9.203   2.906  11.300 -0.8014 -0.9652 -0.1334
  122MOL0     C16740   9.253   2.915  11.450 -0.1833 -0.5406 -0.7346
  122MOL0     C16741   9.235   2.789  11.537 -0.3561  1.4049  0.3255
  122MOL0     C16742   9.324   2.684  11.485  0.3315 -1.0761 -0.0327
  122MOL0    Cl16743   9.299   2.526  11.550 -0.2582  0.1537  0.5295
  122MOL0     C16744   8.632   3.339  11.285 -0.1523 -0.1489  0.7341
  122MOL0     C16745   8.583   3.446  11.213 -0.8056  0.1378  0.1225
  122MOL0     O16746   8.338   3.446  10.923  0.0150 -0.1521 -0.3319
  122MOL0     C16747   8.478   3.730  10.797 -0.2799  0.4121 -0.2399
  122MOL0     C16748   8.469   3.836  10.705 -0.0886  0.1286 -0.5633
  122MOL0     N16749   7.922   4.461  10.449  0.1320  0.0801  0.6228
  122MOL0     N16750   7.834   4.533  10.385  0.6125  0.8018  0.2231
  122MOL0     C16751   6.982   4.931   9.651 -0.1628 -0.6237  0.8034
  122MOL0     C16752   6.907   5.047   9.689 -0.1349 -0.8547 -0.1742
  122MOL0     C16753   6.681   5.405   9.752  0.3802 -0.2195  0.8893
  122MOL0     C16754   6.774   5.520   9.748  1.2018  0.0777  0.1085
  122MOL0     C16755   6.741   5.640   9.814 -0.1317  0.4647  0.2866
  122MOL0     C16756   6.626   5.644   9.901  0.2606 -0.3115  0.4317
  122MOL0     O16757   6.607   5.759   9.983 -0.3121 -0.3834 -0.2537
  122MOL0     C16758   6.503   5.755  10.086  1.1388 -0.3089  0.3295
  122MOL0     C16759   6.529   5.670  10.207 -0.9092 -0.0862  0.6865
  122MOL0     C16760   6.665   5.714  10.272 -0.9783  0.3925 -0.5802
  122MOL0     C16761   6.716   5.619  10.379  0.1297 -0.4420 -1.0701
  122MOL0     C16762   6.854   5.658  10.412 -0.0120  0.1574  0.8116
  122MOL0     C16763   6.961   5.696  10.448 -1.0490  0.1769  0.6547
  122MOL0     C16764   6.544   5.527   9.908  0.2910 -0.6583 -0.0901
  122MOL0     C16765   6.560   5.419   9.828 -0.6677 -0.3154  0.8687
  122MOL0     C16766   6.459   5.307   9.843  0.3054 -0.9957  0.5656
  122MOL0     H16767   7.015   5.255   9.444 -0.2097 -1.3490 -2.8577
  122MOL0     H16768   7.148   5.056   9.388  0.5587 -2.5111 -0.3696
  122MOL0     H16769   7.324   4.943   9.532  1.3132  0.0480  2.7544
  122MOL0     H16770   7.367   4.773   9.531 -1.2686 -0.1124 -2.9483
  122MOL0     H16771   7.241   4.920   9.765  2.5099  0.8481  1.8669
  122MOL0     H16772   7.225   4.745   9.756  0.7227 -0.1351  0.9092
  122MOL0     H16773   7.489   4.763   9.712  2.6596  0.7852  0.5501
  122MOL0     H16774   7.478   4.922   9.750  0.8055 -0.6369 -1.8462
  122MOL0     H16775   7.400   4.872   9.981 -2.8636 -0.4622  0.3853
  122MOL0     H16776   7.368   4.696   9.929 -2.1745  2.0474 -1.5425
  122MOL0     H16777   7.636   4.847   9.971 -0.4286  0.4176  1.0078
  122MOL0     H16778   7.619   4.693   9.896  0.1720  0.5408  0.0435
  122MOL0     H16779   7.497   4.756  10.176  4.2665  1.3475  2.1519
  122MOL0     H16780   7.506   4.595  10.097  1.1909 -0.6772 -0.7452
  122MOL0     H16781   7.644   4.669  10.301 -2.1720  0.3260 -0.8958
  122MOL0     H16782   7.726   4.782  10.188  3.7186 -1.2200  0.2299
  122MOL0     H16783   7.729   4.495  10.104  4.0741 -2.0925 -0.7825
  122MOL0     H16784   7.832   4.631  10.064  0.6515 -4.4523 -2.2980
  122MOL0     H16785   8.041   4.430  10.146 -1.5196 -0.6274 -0.3066
  122MOL0     H16786   8.114   4.295  10.518  2.0389 -1.7406  0.1446
  122MOL0     H16787   8.229   4.372  10.420 -0.6618  1.6260  1.5586
  122MOL0     H16788   8.034   4.135  10.353  0.1334 -0.1520 -0.6744
  122MOL0     H16789   8.120   4.211  10.230 -0.1802  1.0807  0.5704
  122MOL0     H16790   8.280   4.033  10.297  2.9854  0.9135  0.6133
  122MOL0     H16791   8.344   4.161  10.395  0.5640 -1.0311  1.9862
  122MOL0     H16792   8.201   4.073  10.591  0.2543 -1.4976  2.0051
  122MOL0     H16793   8.147   3.947  10.482  0.4850  1.2082  1.4950
  122MOL0     H16794   8.141   3.774  10.621 -0.9039 -1.4097  0.4760
  122MOL0     H16795   8.135   3.474  10.725 -0.1944 -4.1665  4.8079
  122MOL0     H16796   8.032   3.614  10.744 -0.5511 -0.4679 -0.1637
  122MOL0     H16797   8.110   3.563  10.888  0.3977 -1.0427 -0.0206
  122MOL0     H16798   8.580   3.329  10.893  0.0629  1.7132  0.8151
  122MOL0     H16799   8.638   3.115  11.029 -1.7486  0.3762  0.9852
  122MOL0     H16800   8.660   2.936  11.190  1.6559  0.6065 -4.5555
  122MOL0     H16801   8.818   2.992  11.150  0.7810 -0.2773  1.3314
  122MOL0     H16802   8.749   2.899  11.424  0.0457  2.5648 -0.3684
  122MOL0     H16803   8.815   2.780  11.301  2.1001  0.1275 -1.1933
  122MOL0     H16804   8.969   2.894  11.481 -1.1011 -1.3621  0.0167
  122MOL0     H16805   8.963   3.038  11.373  0.4348 -0.6151  0.7763
  122MOL0     H16806   9.033   2.863  11.183  0.4093 -1.5488  0.0451
  122MOL0     H16807   9.042   2.748  11.308 -0.0824  0.3836  2.1220
  122MOL0     H16808   9.272   2.856  11.233  0.8123  0.7265  0.1884
  122MOL0     H16809   9.210   3.012  11.275 -0.2639 -0.9424  0.1002
  122MOL0     H16810   9.198   3.003  11.485  0.3853 -1.0096  1.4903
  122MOL0     H16811   9.361   2.933  11.452  0.0923 -1.8453 -2.1748
  122MOL0     H16812   9.129   2.763  11.525 -0.5009  1.6910  0.9247
  122MOL0     H16813   9.256   2.816  11.641 -0.0391  1.4367  0.2535
  122MOL0     H16814   9.428   2.711  11.506  0.6056  0.7401 -3.0791
  122MOL0     H16815   9.301   2.682  11.378 -0.5816 -4.5098  0.1104
  122MOL0     H16816   8.639   3.350  11.392 -2.6931 -0.5464  1.0059
  122MOL0     H16817   8.552   3.536  11.265 -0.5596  0.7851 -0.8064
  122MOL0     H16818   8.576   3.712  10.842 -1.6013 -3.3922  1.5844
  122MOL0     H16819   8.560   3.894  10.695  0.0047  0.4131  1.5292
  122MOL0     H16820   6.970   4.836   9.701 -0.9117 -2.4943 -2.6284
  122MOL0     H16821   6.838   5.053   9.772  1.0827  0.3035  0.8059
  122MOL0     H16822   6.864   5.518   9.688  0.1821  0.8444 -1.5139
  122MOL0     H16823   6.818   5.716   9.810  2.3807 -1.9623 -0.9963
  122MOL0     H16824   6.474   5.851  10.130  2.5258  0.0096  0.6065
  122MOL0     H16825   6.416   5.713  10.034  1.3381 -1.8966  1.2087
  122MOL0     H16826   6.537   5.564  10.184 -0.1020  0.3226 -1.1219
  122MOL0     H16827   6.444   5.688  10.275  0.3707  1.3317  1.9994
  122MOL0     H16828   6.742   5.714  10.195  1.7720  2.0828  1.9836
  122MOL0     H16829   6.671   5.816  10.311 -2.0732 -0.2881  1.5830
  122MOL0     H16830   6.708   5.513  10.351 -3.6799 -0.7407  0.5161
  122MOL0     H16831   6.654   5.638  10.467 -0.3864 -2.3426 -0.9670
  122MOL0     H16832   7.056   5.741  10.470 -0.8565  1.8243 -2.9016
  122MOL0     H16833   6.456   5.520   9.972 -0.1398  1.8644 -0.2808
  122MOL0     H16834   6.379   5.328   9.915  1.1060  1.5040  0.8107
  122MOL0     H16835   6.402   5.303   9.750  3.3860  2.2294 -1.7164
  122MOL0     H16836   6.506   5.218   9.886  0.8999  0.0399  2.1605
  123MOL0     O16837   7.938   1.075   0.876 -0.4150  0.8112 -0.3442
  123MOL0     C16838   7.984   1.014   0.777  0.0570  0.4128 -0.6549
  123MOL0     O16839   7.913   0.909   0.715  0.4943  0.7337  0.4930
  123MOL0     C16840   7.808   0.840   0.780 -0.0586 -0.5749 -0.0285
  123MOL0     C16841   7.838   0.708   0.837  0.2638  0.4003  0.0024
  123MOL0     C16842   7.741   0.636   0.907 -0.9068 -1.4002  1.2489
  123MOL0     C16843   7.616   0.693   0.921 -0.3904 -0.2135 -0.3717
  123MOL0     O16844   7.524   0.631   0.995 -0.0296 -0.0737 -0.6886
  123MOL0     C16845   7.392   0.615   0.939  0.3460  0.3930  0.0982
  123MOL0     C16846   7.304   0.521   1.013 -0.2706 -0.0831 -0.7783
  123MOL0     C16847   7.265   0.569   1.151  0.3178  0.0416  0.8887
  123MOL0     C16848   7.160   0.464   1.212 -0.1775 -0.8894 -0.0746
  123MOL0     C16849   7.138   0.518   1.354 -0.3113  0.6458 -0.5925
  123MOL0     C16850   7.043   0.434   1.442 -0.5534 -0.4109  1.0461
  123MOL0     C16851   6.979   0.528   1.551  0.5410  0.2250 -1.0044
  123MOL0     C16852   6.839   0.566   1.505  0.3926 -0.2255 -0.1284
  123MOL0     N16853   6.788   0.666   1.598  0.4031  0.0891  0.4721
  123MOL0     C16854   6.773   0.647   1.733 -0.1221 -1.3652 -0.2405
  123MOL0     C16855   6.751   0.772   1.785 -0.1645 -0.2220  0.4083
  123MOL0     C16856   6.721   0.808   1.934 -0.3939 -0.9414 -0.7472
  123MOL0     C16857   6.568   0.822   1.951  0.0319 -0.1708  0.0063
  123MOL0     C16858   6.539   0.824   2.103  0.3254  0.2551  0.7136
  123MOL0     C16859   6.590   0.950   2.184  0.7201  0.6380 -0.2791
  123MOL0     O16860   6.493   1.036   2.252 -0.4881  0.0837  0.4389
  123MOL0     C16861   6.432   0.977   2.355  0.4224 -0.3679 -0.3710
  123MOL0     C16862   6.294   0.960   2.343 -0.3391  0.0023  0.6363
  123MOL0     C16863   6.209   0.902   2.440 -0.6812 -0.0908 -0.4353
  123MOL0     C16864   6.060   0.917   2.413 -0.3576  0.0751 -0.7523
  123MOL0     C16865   6.269   0.859   2.556  0.1177  0.0029  0.5015
  123MOL0     C16866   6.185   0.797   2.660 -0.3284 -0.1878  0.2763
  123MOL0     O16867   6.237   0.804   2.785  0.2579  0.4409 -0.9629
  123MOL0     C16868   6.175   0.752   2.890  0.1176  0.5750 -0.1617
  123MOL0     C16869   6.252   0.699   2.993 -0.3100  0.2536 -0.2764
  123MOL0     C16870   6.206   0.661   3.123  0.1535  0.5978 -0.2159
  123MOL0     C16871   6.069   0.665   3.155  0.3942 -0.0269 -0.7699
  123MOL0     O16872   6.027   0.610   3.273  0.5775 -0.1357 -0.4052
  123MOL0     C16873   6.040   0.469   3.281 -0.7299  0.5037 -0.8367
  123MOL0     C16874   5.924   0.401   3.206 -0.2660 -0.0374 -0.7966
  123MOL0     C16875   5.912   0.249   3.245 -0.3177 -0.1364  0.5053
  123MOL0     C16876   5.791   0.208   3.171  0.3653  0.2005 -0.4566
  123MOL0     C16877   5.740   0.068   3.207 -0.0710  0.2908  0.7601
  123MOL0     C16878   5.608   0.023   3.149 -0.0681  0.4603  0.7449
  123MOL0     C16879   5.562  -0.123   3.193  0.4579 -0.7631  0.1263
  123MOL0     C16880   5.521  -0.133   3.340 -0.3240  0.4929 -0.0427
  123MOL0    Cl16881   5.658  -0.189   3.443  0.1813 -0.0754  0.0286
  123MOL0     C16882   5.989   0.726   3.059 -0.2600  0.0095  0.3239
  123MOL0     C16883   6.041   0.769   2.928 -0.7660 -0.5157  0.4859
  123MOL0     O16884   6.097   0.713   2.629 -0.9076 -0.4072 -0.4147
  123MOL0     C16885   6.408   0.872   2.575  0.4219  0.7617  0.0054
  123MOL0     C16886   6.491   0.928   2.475 -0.0491  0.3980 -0.6907
  123MOL0     N16887   6.738   0.864   1.683 -0.9961 -0.4290  0.2715
  123MOL0     N16888   6.774   0.804   1.569 -0.1881  0.9736 -0.5238
  123MOL0     C16889   7.586   0.816   0.868 -0.5312  1.0787 -0.6523
  123MOL0     C16890   7.675   0.893   0.799 -1.2006  0.1594 -0.2696
  123MOL0     C16891   8.099   1.062   0.705 -0.0989 -1.1389  0.1200
  123MOL0     C16892   8.158   0.969   0.612  0.4440 -0.7392 -0.0339
  123MOL0     C16893   8.283   0.988   0.556 -0.4083 -0.1190 -0.2165
  123MOL0     C16894   8.346   1.113   0.560  0.3664  0.8931 -0.3993
  123MOL0     O16895   8.466   1.155   0.503 -0.2828 -0.4669 -0.5235
  123MOL0     C16896   8.560   1.062   0.449  0.3472 -0.1192  0.3203
  123MOL0     C16897   8.661   1.122   0.366  0.2098 -0.6619 -0.3234
  123MOL0     C16898   8.774   1.186   0.451 -0.4487 -0.1646 -0.0964
  123MOL0     C16899   8.886   1.224   0.348  0.3781  1.0459  0.5907
  123MOL0     C16900   8.959   1.108   0.293 -0.8230 -0.6107 -0.4179
  123MOL0     C16901   9.035   1.015   0.264  1.1957  0.7845 -0.4871
  123MOL0     C16902   8.290   1.205   0.633  0.2245 -0.2719  0.3458
  123MOL0     C16903   8.172   1.182   0.716 -0.3601  0.1840 -0.1840
  123MOL0     C16904   8.125   1.287   0.813 -0.0731 -0.6992 -0.4186
  123MOL0     H16905   7.940   0.674   0.822 -0.1569 -0.3625 -1.2470
  123MOL0     H16906   7.778   0.541   0.945  1.3212 -1.2290 -0.2795
  123MOL0     H16907   7.400   0.591   0.833 -1.1487 -2.0609  0.4519
  123MOL0     H16908   7.339   0.711   0.940  2.5797  1.7247 -0.3328
  123MOL0     H16909   7.214   0.494   0.957 -0.8963 -3.6233  1.6183
  123MOL0     H16910   7.362   0.429   1.024 -0.2340 -0.0564 -0.7466
  123MOL0     H16911   7.356   0.573   1.211  1.4609  1.4221 -0.8600
  123MOL0     H16912   7.229   0.672   1.160  2.1335  0.6312  1.8218
  123MOL0     H16913   7.073   0.461   1.147  0.8484  1.7251 -1.7256
  123MOL0     H16914   7.200   0.362   1.221  1.6253 -0.1794  0.2969
  123MOL0     H16915   7.098   0.619   1.345 -4.5956 -0.4392  2.8254
  123MOL0     H16916   7.243   0.513   1.382  0.2854 -1.0420 -2.7610
  123MOL0     H16917   6.970   0.387   1.376  1.0915 -2.0282  0.2643
  123MOL0     H16918   7.098   0.354   1.493  1.5980 -1.1512 -2.0807
  123MOL0     H16919   7.039   0.616   1.577  0.1447  0.3538 -0.5116
  123MOL0     H16920   6.964   0.466   1.640  0.7441  0.3235 -0.9020
  123MOL0     H16921   6.841   0.623   1.411 -0.8775 -1.2154 -0.7951
  123MOL0     H16922   6.769   0.483   1.495 -0.4425  0.5107 -0.6347
  123MOL0     H16923   6.766   0.557   1.792  0.4463  0.5443  2.9663
  123MOL0     H16924   6.774   0.901   1.957 -1.0240 -0.6737 -0.3573
  123MOL0     H16925   6.778   0.726   1.979  2.8588 -0.3780 -3.4146
  123MOL0     H16926   6.539   0.920   1.910  1.6524  1.3995  2.3542
  123MOL0     H16927   6.514   0.746   1.894  2.2259 -1.8630  0.0638
  123MOL0     H16928   6.431   0.811   2.116 -0.0443  1.8796 -0.3816
  123MOL0     H16929   6.587   0.735   2.144  2.5975  0.6032 -0.9768
  123MOL0     H16930   6.665   0.924   2.258 -0.9655  0.6665  1.5242
  123MOL0     H16931   6.634   1.021   2.113  2.6290  0.9124  1.0958
  123MOL0     H16932   6.239   0.991   2.255 -0.5952  2.8783  1.7225
  123MOL0     H16933   5.990   0.889   2.493  0.4434 -0.0978 -0.1020
  123MOL0     H16934   6.046   0.849   2.328 -0.3050  0.5466 -1.1436
  123MOL0     H16935   6.031   1.018   2.382  1.9520  1.1317  0.3454
  123MOL0     H16936   6.355   0.696   2.959  0.2126  1.7625  1.0095
  123MOL0     H16937   6.277   0.628   3.198  0.8541  0.6846 -0.8219
  123MOL0     H16938   6.140   0.442   3.246  1.3850  2.6717  2.8093
  123MOL0     H16939   6.045   0.437   3.385  1.6448 -2.8899 -1.8140
  123MOL0     H16940   5.841   0.465   3.237  1.9514  1.2647  3.2983
  123MOL0     H16941   5.950   0.411   3.101 -1.6519 -0.0814 -1.1554
  123MOL0     H16942   5.915   0.240   3.354  0.5861 -1.1977  0.4161
  123MOL0     H16943   5.999   0.190   3.214  0.7123  1.9367 -0.7426
  123MOL0     H16944   5.807   0.192   3.064  0.7767  3.1058 -0.8967
  123MOL0     H16945   5.726   0.296   3.181 -0.1324 -0.3151  1.2732
  123MOL0     H16946   5.817  -0.002   3.176 -1.7845 -1.6273  0.6268
  123MOL0     H16947   5.729   0.067   3.316  0.2426 -3.7479  0.8942
  123MOL0     H16948   5.616   0.038   3.042 -0.1878 -0.0948  0.6521
  123MOL0     H16949   5.540   0.105   3.170  1.8503  3.0276 -2.2127
  123MOL0     H16950   5.640  -0.195   3.170 -0.5489 -2.7465  2.5656
  123MOL0     H16951   5.477  -0.162   3.136  0.8000 -1.9782  0.4230
  123MOL0     H16952   5.448  -0.215   3.349 -1.4880  1.6398  1.4435
  123MOL0     H16953   5.464  -0.048   3.379 -0.4632  0.3820  0.0013
  123MOL0     H16954   5.882   0.735   3.070 -0.1523  0.7252  0.8725
  123MOL0     H16955   5.977   0.822   2.859  0.1749 -2.6807 -2.2533
  123MOL0     H16956   6.460   0.841   2.666 -3.0185  0.0933  1.9097
  123MOL0     H16957   6.598   0.929   2.494 -0.4845  1.9132  2.3165
  123MOL0     H16958   7.488   0.858   0.889 -1.4691 -0.6008 -1.4904
  123MOL0     H16959   7.640   0.989   0.763 -1.2225 -0.3391 -1.6240
  123MOL0     H16960   8.120   0.871   0.589 -2.4370 -0.2478  2.0939
  123MOL0     H16961   8.334   0.906   0.508  2.7076  0.8206  1.1609
  123MOL0     H16962   8.597   0.998   0.530 -1.5929 -1.5680  0.1372
  123MOL0     H16963   8.494   1.004   0.383 -1.8302  3.9425 -1.4425
  123MOL0     H16964   8.621   1.203   0.304  0.9313 -0.6430 -0.7852
  123MOL0     H16965   8.703   1.043   0.303  0.9691 -0.3411 -0.2287
  123MOL0     H16966   8.730   1.269   0.507  2.5681  2.1225 -0.8625
  123MOL0     H16967   8.818   1.113   0.520  0.9875 -0.4389 -1.2637
  123MOL0     H16968   8.970   1.289   0.375  0.4464  1.5235 -0.7033
  123MOL0     H16969   8.841   1.269   0.259  1.1962  1.6932  0.4895
  123MOL0     H16970   9.098   0.933   0.236 -1.2868 -0.9728 -1.2922
  123MOL0     H16971   8.346   1.298   0.639  1.1110 -0.6879 -1.0272
  123MOL0     H16972   8.016   1.301   0.812 -0.3054 -2.1124  1.0415
  123MOL0     H16973   8.169   1.263   0.910  2.3316  4.5939  0.1955
  123MOL0     H16974   8.184   1.372   0.776 -1.9278 -0.1139 -2.2389
  124MOL0     O16975   4.022   0.450  10.279  0.1110 -0.5825  0.6910
  124MOL0     C16976   4.064   0.335  10.246 -0.6205 -0.1943 -0.1454
  124MOL0     O16977   4.023   0.258  10.139 -0.2131  0.4275  0.0453
  124MOL0     C16978   3.907   0.291  10.070 -1.0219 -0.0498 -0.3837
  124MOL0     C16979   3.809   0.199  10.037  0.2593  0.2552  0.7819
  124MOL0     C16980   3.687   0.236   9.985 -0.5526  0.1739 -0.1601
  124MOL0     C16981   3.649   0.365   9.963  0.6185 -1.3544  0.9761
  124MOL0     O16982   3.527   0.395   9.921 -0.3241 -1.5356 -0.1359
  124MOL0     C16983   3.496   0.347   9.791  0.0776 -0.0460  0.6210
  124MOL0     C16984   3.343   0.373   9.792  0.2038 -0.7662  0.5133
  124MOL0     C16985   3.312   0.530   9.825 -1.1499  0.2831  0.7495
  124MOL0     C16986   3.170   0.564   9.780  0.2405  1.2908 -0.0537
  124MOL0     C16987   3.174   0.616   9.636  0.2157  0.2020 -0.5037
  124MOL0     C16988   3.034   0.653   9.586 -1.2090  0.4773 -0.5779
  124MOL0     C16989   3.040   0.747   9.472 -0.1103 -0.2259  0.6192
  124MOL0     C16990   2.901   0.779   9.401  0.6520  0.6276 -0.0303
  124MOL0     N16991   2.822   0.856   9.485  0.4902 -0.7322 -0.5235
  124MOL0     C16992   2.705   0.816   9.566 -0.3224  0.4880  0.2298
  124MOL0     C16993   2.633   0.929   9.590 -0.6014 -0.8395  0.4567
  124MOL0     C16994   2.491   0.931   9.652  0.4065  0.6105  0.2471
  124MOL0     C16995   2.490   1.011   9.782  0.3650  0.3423 -0.0377
  124MOL0     C16996   2.360   1.008   9.854 -0.9777  0.1471 -0.3575
  124MOL0     C16997   2.348   0.877   9.931  0.4411  0.1449  1.7581
  124MOL0     O16998   2.308   0.757   9.866 -0.4054 -0.2905 -0.2874
  124MOL0     C16999   2.175   0.747   9.832 -0.3406  0.4407  0.5036
  124MOL0     C17000   2.092   0.695   9.933 -0.6755  0.1776  0.6012
  124MOL0     C17001   1.953   0.706   9.924  0.4115  1.2510 -0.4133
  124MOL0     C17002   1.880   0.675  10.051  0.0827  0.7890 -0.3042
  124MOL0     C17003   1.886   0.762   9.809 -0.3002 -0.1318 -0.4993
  124MOL0     C17004   1.741   0.801   9.802  1.4408 -0.7099  0.7917
  124MOL0     O17005   1.700   0.864   9.686 -0.7239  0.5766 -0.3028
  124MOL0     C17006   1.567   0.916   9.682  0.1526  0.3814 -0.2956
  124MOL0     C17007   1.558   1.044   9.625  0.7486 -0.4918 -0.4923
  124MOL0     C17008   1.426   1.106   9.624 -0.0620 -0.6988 -0.5116
  124MOL0     C17009   1.310   1.031   9.648 -1.0765  0.2128 -0.0414
  124MOL0     O17010   1.189   1.099   9.629 -0.6874 -0.1112  0.2899
  124MOL0     C17011   1.061   1.045   9.677  0.7441 -0.7115 -0.0282
  124MOL0     C17012   0.939   1.114   9.612  1.1136  0.3226 -0.1321
  124MOL0     C17013   0.910   1.056   9.468 -0.8717 -0.0398  0.1264
  124MOL0     C17014   0.787   1.125   9.410 -1.0135  0.1333  0.5297
  124MOL0     C17015   0.811   1.255   9.315 -0.0981 -0.1791  0.0413
  124MOL0     C17016   0.676   1.341   9.320 -0.4050 -0.6397 -0.4448
  124MOL0     C17017   0.679   1.470   9.223 -0.4411  0.6159 -0.3663
  124MOL0     C17018   0.791   1.560   9.244 -0.0729 -0.3139 -0.3419
  124MOL0    Cl17019   0.767   1.700   9.140  0.3219  0.1752 -0.1213
  124MOL0     C17020   1.326   0.906   9.706 -0.7883  0.9834  0.0610
  124MOL0     C17021   1.453   0.848   9.701 -0.3355 -0.5189  0.0244
  124MOL0     O17022   1.666   0.766   9.893  0.1920  0.7387 -0.2875
  124MOL0     C17023   1.973   0.815   9.707 -0.0905 -0.9323 -0.0392
  124MOL0     C17024   2.114   0.813   9.728  0.4153 -0.5016  0.4011
  124MOL0     N17025   2.704   1.035   9.534 -0.1061 -0.1202 -0.2939
  124MOL0     N17026   2.804   0.992   9.465 -0.1412 -0.7512 -0.4866
  124MOL0     C17027   3.749   0.456   9.979 -0.5824 -0.6314 -0.8663
  124MOL0     C17028   3.879   0.423  10.030  0.5372 -0.8634  0.8585
  124MOL0     C17029   4.176   0.288  10.318  1.1679  1.4463  0.1955
  124MOL0     C17030   4.301   0.343  10.286 -0.9061  0.2770 -0.6375
  124MOL0     C17031   4.415   0.313  10.371  0.3182  1.0542  0.5839
  124MOL0     C17032   4.399   0.216  10.481 -0.8380 -0.7589  0.4544
  124MOL0     O17033   4.497   0.174  10.577  0.7378 -0.6747 -0.0278
  124MOL0     C17034   4.630   0.230  10.567 -0.7278  0.1695  0.4817
  124MOL0     C17035   4.632   0.357  10.647 -0.1881 -0.1524  0.5131
  124MOL0     C17036   4.779   0.378  10.709 -0.0193  0.2621  0.6250
  124MOL0     C17037   4.806   0.303  10.841 -0.2994  0.3736 -0.1372
  124MOL0     C17038   4.928   0.215  10.841  0.9429 -0.6288  0.5169
  124MOL0     C17039   5.034   0.155  10.806 -0.0410 -0.5071 -0.0175
  124MOL0     C17040   4.275   0.165  10.502  0.1387  0.4141  0.7001
  124MOL0     C17041   4.159   0.186  10.424  0.4856 -0.0734  0.5733
  124MOL0     C17042   4.027   0.125  10.456 -0.2370  0.3376 -0.1667
  124MOL0     H17043   3.820   0.095  10.064 -5.4773 -0.6642  0.7494
  124MOL0     H17044   3.620   0.154   9.962 -0.8140  0.2729  0.2563
  124MOL0     H17045   3.514   0.242   9.765 -0.4439  0.0961 -0.3465
  124MOL0     H17046   3.542   0.408   9.713 -0.4425  0.1626  0.4731
  124MOL0     H17047   3.289   0.343   9.702 -0.9396  0.7290  0.6665
  124MOL0     H17048   3.299   0.313   9.872 -0.6872 -2.2453 -1.0272
  124MOL0     H17049   3.324   0.553   9.931 -0.4231  0.6364  0.6000
  124MOL0     H17050   3.387   0.591   9.772  1.9788 -3.5685  0.2622
  124MOL0     H17051   3.107   0.474   9.781 -1.6839  2.5617  1.8806
  124MOL0     H17052   3.131   0.631   9.857 -2.0238 -3.6155  3.7120
  124MOL0     H17053   3.218   0.547   9.563 -1.1755 -0.1202 -1.0626
  124MOL0     H17054   3.236   0.707   9.636  0.3804  0.0902 -0.6709
  124MOL0     H17055   2.969   0.566   9.574  0.8048 -0.8438 -2.7143
  124MOL0     H17056   2.989   0.704   9.672  0.2830  1.5064 -0.3651
  124MOL0     H17057   3.101   0.706   9.391 -0.9422  1.1238 -0.7537
  124MOL0     H17058   3.088   0.841   9.498 -0.5762  0.5523 -1.1965
  124MOL0     H17059   2.915   0.830   9.305  1.1684  0.6743  0.0705
  124MOL0     H17060   2.848   0.688   9.371 -1.3427  1.7156  0.0018
  124MOL0     H17061   2.675   0.714   9.586 -0.9415  0.6102 -0.0651
  124MOL0     H17062   2.463   0.826   9.669 -1.9856  0.9686 -1.0723
  124MOL0     H17063   2.423   0.967   9.574  2.5300  2.4225 -0.8924
  124MOL0     H17064   2.572   0.971   9.842  0.3645  0.4168  0.0122
  124MOL0     H17065   2.511   1.112   9.746 -2.5093  1.3384  0.7999
  124MOL0     H17066   2.352   1.087   9.928  0.0176 -0.1043  0.0394
  124MOL0     H17067   2.277   1.026   9.785 -2.3048  1.7483  1.5677
  124MOL0     H17068   2.442   0.849   9.979  0.4052 -2.9772  0.2098
  124MOL0     H17069   2.282   0.891  10.017  1.2874 -3.3641  3.1160
  124MOL0     H17070   2.142   0.644  10.015 -1.6996 -1.3684  0.3087
  124MOL0     H17071   1.938   0.600  10.106  0.3630 -0.8339 -2.6328
  124MOL0     H17072   1.793   0.613  10.025  1.3285 -0.0745 -2.7231
  124MOL0     H17073   1.854   0.768  10.102  1.4453  2.1564 -2.0185
  124MOL0     H17074   1.650   1.099   9.608  2.1745 -3.1656 -2.2434
  124MOL0     H17075   1.431   1.210   9.592 -0.7212 -0.8367 -1.0755
  124MOL0     H17076   1.065   0.936   9.670  2.1606 -0.8425  1.9023
  124MOL0     H17077   1.059   1.076   9.782  0.3270 -5.5141  1.6374
  124MOL0     H17078   0.845   1.100   9.667  0.5056  2.1114 -0.6607
  124MOL0     H17079   0.951   1.222   9.616 -0.2729  0.5086 -0.5415
  124MOL0     H17080   0.901   0.947   9.463  0.1172 -0.1350  0.2312
  124MOL0     H17081   0.998   1.088   9.411 -0.8546 -0.4159 -0.0653
  124MOL0     H17082   0.713   1.138   9.490 -1.0519 -2.1796  0.9323
  124MOL0     H17083   0.737   1.057   9.341  2.3097 -1.1644 -0.7753
  124MOL0     H17084   0.889   1.315   9.362  1.0955 -1.1620 -0.6306
  124MOL0     H17085   0.821   1.243   9.207 -4.1449  2.6146 -0.8745
  124MOL0     H17086   0.663   1.373   9.424  3.3655 -1.5447  0.4229
  124MOL0     H17087   0.589   1.280   9.295 -0.2480 -1.7646  1.5791
  124MOL0     H17088   0.583   1.521   9.237 -0.3816  0.2735  1.7085
  124MOL0     H17089   0.685   1.419   9.127 -1.9900  0.3470 -0.3438
  124MOL0     H17090   0.886   1.518   9.210 -0.2312 -1.7977  0.9212
  124MOL0     H17091   0.798   1.591   9.349 -1.1003  0.5461 -0.5233
  124MOL0     H17092   1.241   0.839   9.716  0.1992 -0.9079 -2.8853
  124MOL0     H17093   1.454   0.745   9.736 -0.0646 -1.1078 -1.6247
  124MOL0     H17094   1.946   0.877   9.623  1.5964  3.5460  2.3964
  124MOL0     H17095   2.175   0.857   9.650 -0.3387 -1.7194 -0.9294
  124MOL0     H17096   3.735   0.559   9.949  2.2118  1.2123  3.2595
  124MOL0     H17097   3.958   0.497  10.022 -2.1860  2.3047  0.7677
  124MOL0     H17098   4.316   0.400  10.195  2.4009 -1.2792 -1.2141
  124MOL0     H17099   4.508   0.352  10.331  0.6404 -2.3990 -2.4919
  124MOL0     H17100   4.705   0.157  10.599  2.0179  2.3990 -0.4674
  124MOL0     H17101   4.664   0.248  10.465  1.0413  0.5965  1.1162
  124MOL0     H17102   4.547   0.361  10.716 -1.3171  0.6729 -0.8565
  124MOL0     H17103   4.601   0.440  10.582 -2.9428 -0.8039  0.8875
  124MOL0     H17104   4.860   0.358  10.639  0.9814 -0.0238  1.8228
  124MOL0     H17105   4.800   0.485  10.725  0.9524  0.1333  0.2052
  124MOL0     H17106   4.721   0.239  10.865 -0.7032 -0.0953 -2.5287
  124MOL0     H17107   4.813   0.376  10.923  1.1743 -0.8665  0.9044
  124MOL0     H17108   5.116   0.090  10.787 -0.0553 -0.8770  1.0965
  124MOL0     H17109   4.276   0.092  10.582 -0.7039  0.1788  0.5040
  124MOL0     H17110   3.972   0.092  10.368 -1.1775  0.8643  0.2070
  124MOL0     H17111   4.025   0.045  10.531 -0.5098  0.4446 -0.0585
  124MOL0     H17112   3.967   0.210  10.489  1.9261  1.6710  0.5555
  125MOL0     O17113   3.321   6.136   9.683  0.0798  0.0061  0.3717
  125MOL0     C17114   3.396   6.155   9.589 -0.0809 -0.0967  0.6979
  125MOL0     O17115   3.377   6.116   9.459  0.3600  0.3333  0.2453
  125MOL0     C17116   3.258   6.064   9.423  0.1383  0.0406  0.0750
  125MOL0     C17117   3.142   6.137   9.441  0.6040 -0.0501  0.4559
  125MOL0     C17118   3.015   6.087   9.394 -0.0528 -0.8381  0.3797
  125MOL0     C17119   2.998   5.969   9.325 -0.1242 -0.2387 -0.4896
  125MOL0     O17120   2.875   5.926   9.279  0.2734  0.7898  0.5898
  125MOL0     C17121   2.851   5.782   9.289 -0.9723 -0.4401 -0.3413
  125MOL0     C17122   2.718   5.729   9.231  0.4677  0.5506 -0.1293
  125MOL0     C17123   2.724   5.733   9.079  0.4350  0.4751  0.5320
  125MOL0     C17124   2.575   5.724   9.039 -0.5463 -0.2788  0.4894
  125MOL0     C17125   2.564   5.701   8.888 -0.1100 -0.3081 -0.0451
  125MOL0     C17126   2.432   5.645   8.858  0.4672  0.5862 -0.6565
  125MOL0     C17127   2.323   5.730   8.917  0.5804 -1.5515 -0.7753
  125MOL0     C17128   2.323   5.880   8.880 -0.4367  0.1213 -0.3538
  125MOL0     N17129   2.196   5.939   8.922  0.4220 -0.6704  1.0210
  125MOL0     C17130   2.150   5.935   9.050  0.8419  0.1021  0.3588
  125MOL0     C17131   2.024   5.988   9.047  0.6247  0.5331  0.8440
  125MOL0     C17132   1.937   6.025   9.162 -0.6681  0.8991 -0.0974
  125MOL0     C17133   1.993   6.145   9.229 -0.2208  0.2657  0.3025
  125MOL0     C17134   1.888   6.244   9.275  0.0617 -1.3762 -0.1408
  125MOL0     C17135   1.872   6.250   9.421 -0.6899  1.1840 -0.1278
  125MOL0     O17136   1.974   6.331   9.479  0.2535 -0.7526 -0.8359
  125MOL0     C17137   2.004   6.310   9.616  0.2537  0.0964 -0.3163
  125MOL0     C17138   1.903   6.268   9.708 -0.0361 -0.3251  0.5041
  125MOL0     C17139   1.937   6.266   9.842 -0.1114 -0.1696 -0.0118
  125MOL0     C17140   1.814   6.224   9.931  0.9795  0.6087  0.8027
  125MOL0     C17141   2.065   6.310   9.881  0.1975  0.2717 -0.4655
  125MOL0     C17142   2.093   6.331  10.027  0.1631 -0.7424  0.3287
  125MOL0     O17143   2.188   6.427  10.047 -0.6083 -0.6412 -0.4145
  125MOL0     C17144   2.238   6.462  10.172 -0.4471  0.6566 -0.3930
  125MOL0     C17145   2.368   6.519  10.175 -0.4057  0.0784  0.2712
  125MOL0     C17146   2.426   6.564  10.296  0.3291  0.0655  0.0816
  125MOL0     C17147   2.353   6.556  10.415 -0.5707  0.1079 -0.3114
  125MOL0     O17148   2.426   6.606  10.520  0.5829 -0.2306 -0.0031
  125MOL0     C17149   2.358   6.628  10.649 -0.0765  0.1540 -0.1968
  125MOL0     C17150   2.401   6.766  10.699 -0.3821  0.5860 -1.0929
  125MOL0     C17151   2.322   6.879  10.629 -0.2194 -0.6134  0.0034
  125MOL0     C17152   2.363   7.007  10.699 -0.0765 -0.4453 -0.5990
  125MOL0     C17153   2.263   7.123  10.657 -1.1747  1.4860  0.1056
  125MOL0     C17154   2.269   7.143  10.507 -0.1049 -0.4008 -0.5932
  125MOL0     C17155   2.203   7.281  10.484  0.3626  0.4245  0.0336
  125MOL0     C17156   2.273   7.404  10.538 -0.3195  0.0405  0.7047
  125MOL0    Cl17157   2.442   7.407  10.510 -0.0463 -0.3528  0.0351
  125MOL0     C17158   2.234   6.491  10.418  0.5176 -0.1621  0.0479
  125MOL0     C17159   2.171   6.450  10.300 -0.1793 -0.4209 -0.1035
  125MOL0     O17160   2.030   6.273  10.112  0.0081  0.5139 -0.2341
  125MOL0     C17161   2.162   6.348   9.786  1.0699 -0.6405  0.2687
  125MOL0     C17162   2.124   6.351   9.655 -0.0120 -0.1076  0.8739
  125MOL0     N17163   2.005   6.023   8.909  0.5782 -0.0034 -0.5734
  125MOL0     N17164   2.107   5.999   8.836 -0.2231  0.1471  0.0014
  125MOL0     C17165   3.121   5.899   9.302 -0.2329 -0.3079 -0.0707
  125MOL0     C17166   3.244   5.942   9.356 -0.2660 -0.1363 -0.0998
  125MOL0     C17167   3.525   6.232   9.606  0.3337 -0.5260 -0.8591
  125MOL0     C17168   3.607   6.235   9.486 -0.0594 -0.2691 -0.6060
  125MOL0     C17169   3.739   6.289   9.496  0.1552  0.9625  0.5059
  125MOL0     C17170   3.790   6.326   9.620  0.6262 -0.4810 -0.5003
  125MOL0     O17171   3.919   6.373   9.617 -0.0797 -0.2219 -0.5116
  125MOL0     C17172   3.974   6.459   9.719 -0.3938  0.3729  0.2396
  125MOL0     C17173   3.915   6.600   9.739  0.2211 -0.2626 -0.2804
  125MOL0     C17174   3.912   6.673   9.604 -0.6111 -1.3381 -0.8596
  125MOL0     C17175   3.898   6.826   9.635  0.2976 -0.4316 -0.2821
  125MOL0     C17176   3.818   6.860   9.757 -0.4734  0.0175  0.1332
  125MOL0     C17177   3.770   6.908   9.860 -0.9134 -0.0570 -0.2529
  125MOL0     C17178   3.712   6.323   9.736 -0.4441  0.3826 -0.2574
  125MOL0     C17179   3.583   6.283   9.733  0.4476  0.8155  0.0872
  125MOL0     C17180   3.509   6.295   9.865  0.3284  0.2174  0.5027
  125MOL0     H17181   3.150   6.236   9.483 -0.2745  0.9140 -1.5236
  125MOL0     H17182   2.937   6.162   9.403 -0.1522 -0.9442  0.4079
  125MOL0     H17183   2.877   5.749   9.390  0.5618  0.7573 -0.3023
  125MOL0     H17184   2.929   5.734   9.229 -1.3917  1.1052 -2.2163
  125MOL0     H17185   2.700   5.625   9.260 -1.1069  0.9946  0.5964
  125MOL0     H17186   2.633   5.780   9.277 -0.2413 -3.2628  3.3812
  125MOL0     H17187   2.777   5.818   9.035  1.1745 -0.6451 -0.7944
  125MOL0     H17188   2.770   5.637   9.056 -0.4181 -0.1019  1.1419
  125MOL0     H17189   2.535   5.632   9.083 -1.4227  0.0510  0.3942
  125MOL0     H17190   2.520   5.813   9.070  1.8986  2.0921 -1.4528
  125MOL0     H17191   2.643   5.633   8.855 -0.3773 -2.3585  3.0795
  125MOL0     H17192   2.573   5.798   8.839 -3.6424 -1.6202 -3.8691
  125MOL0     H17193   2.406   5.633   8.752  0.2186 -1.1079 -0.4464
  125MOL0     H17194   2.426   5.546   8.905  0.7149  1.0388  0.3635
  125MOL0     H17195   2.316   5.719   9.026 -0.2016  0.9947 -0.5102
  125MOL0     H17196   2.225   5.707   8.874 -0.6124 -0.5634  1.2396
  125MOL0     H17197   2.398   5.934   8.939 -0.5851 -0.4584  0.3782
  125MOL0     H17198   2.346   5.881   8.773  1.1543  0.1681 -0.0450
  125MOL0     H17199   2.202   5.908   9.141  0.1004  0.2738  0.8433
  125MOL0     H17200   1.927   5.949   9.241  1.5609  1.2224  0.5489
  125MOL0     H17201   1.844   6.045   9.107 -1.0522  1.0408  0.5835
  125MOL0     H17202   2.057   6.119   9.313  0.8188  0.1035 -0.5094
  125MOL0     H17203   2.066   6.187   9.158  0.3449 -1.7587 -0.3818
  125MOL0     H17204   1.902   6.348   9.244 -3.4046 -0.4995  0.8018
  125MOL0     H17205   1.793   6.210   9.234  0.2904 -1.3088 -0.7305
  125MOL0     H17206   1.776   6.301   9.440 -1.4606  0.4462 -1.8854
  125MOL0     H17207   1.859   6.147   9.455  0.0901  0.2922 -2.3870
  125MOL0     H17208   1.802   6.234   9.686  0.1021 -2.2063  2.4255
  125MOL0     H17209   1.782   6.291  10.010 -2.7300 -1.8441  1.6459
  125MOL0     H17210   1.830   6.127   9.980 -1.7621  1.1523  2.9716
  125MOL0     H17211   1.723   6.208   9.873  2.7625  1.4757 -2.4942
  125MOL0     H17212   2.416   6.532  10.079 -1.0934  0.8489  0.0268
  125MOL0     H17213   2.520   6.618  10.290 -0.1495  0.8244 -1.0434
  125MOL0     H17214   2.249   6.619  10.646  0.0156 -1.1164 -1.8564
  125MOL0     H17215   2.390   6.551  10.720 -1.6052  0.1227  0.4909
  125MOL0     H17216   2.376   6.770  10.805 -4.1602  1.9207 -1.8922
  125MOL0     H17217   2.509   6.758  10.686 -0.4997 -1.9657 -0.9093
  125MOL0     H17218   2.215   6.861  10.641 -0.8280  1.7024 -1.4519
  125MOL0     H17219   2.350   6.884  10.523 -0.6486 -0.4486 -0.1045
  125MOL0     H17220   2.456   7.036  10.651 -1.7799  2.7161 -2.2497
  125MOL0     H17221   2.363   6.993  10.808  0.2734  0.8425 -0.4268
  125MOL0     H17222   2.164   7.111  10.702 -0.8665  0.7763  0.6012
  125MOL0     H17223   2.317   7.210  10.695  0.2731  1.0846 -0.9309
  125MOL0     H17224   2.225   7.055  10.459  3.3651 -2.6292 -0.0154
  125MOL0     H17225   2.372   7.142  10.471 -0.0733 -1.3402 -0.5014
  125MOL0     H17226   2.101   7.268  10.522  0.2930  0.8359 -0.0046
  125MOL0     H17227   2.191   7.289  10.375 -1.1403  1.3075  0.2383
  125MOL0     H17228   2.256   7.408  10.647 -2.0304  0.1595  0.4672
  125MOL0     H17229   2.224   7.491  10.494 -1.1545 -0.7776 -0.0252
  125MOL0     H17230   2.178   6.471  10.509 -0.7687 -1.0062 -0.8899
  125MOL0     H17231   2.074   6.403  10.313  0.6237 -1.6949  1.6522
  125MOL0     H17232   2.262   6.376   9.817  1.5367 -0.1962 -1.5381
  125MOL0     H17233   2.189   6.374   9.571 -1.1611 -0.3553 -0.0938
  125MOL0     H17234   3.128   5.808   9.244  4.8570  1.1787 -2.3748
  125MOL0     H17235   3.329   5.880   9.331 -2.3123 -2.6980 -1.2147
  125MOL0     H17236   3.580   6.184   9.394 -0.2434 -1.8526  0.2850
  125MOL0     H17237   3.789   6.278   9.400 -0.8858 -1.0900  0.1408
  125MOL0     H17238   3.958   6.396   9.808  1.2639 -2.5127 -1.3514
  125MOL0     H17239   4.078   6.467   9.687 -1.1771  0.6836 -2.4778
  125MOL0     H17240   3.981   6.645   9.814 -2.4409  1.2400  1.3183
  125MOL0     H17241   3.820   6.606   9.794 -0.3196 -0.1737 -1.2150
  125MOL0     H17242   4.005   6.662   9.547 -0.3335 -0.4400 -0.5968
  125MOL0     H17243   3.835   6.633   9.537 -1.5084 -2.1982  0.6449
  125MOL0     H17244   3.860   6.877   9.546  1.9507  0.3072 -0.6033
  125MOL0     H17245   3.997   6.871   9.646 -0.6221  2.2666 -1.9162
  125MOL0     H17246   3.729   6.948   9.950  0.1835  1.8387 -0.5343
  125MOL0     H17247   3.755   6.346   9.833 -0.9281 -2.8937  0.8775
  125MOL0     H17248   3.407   6.326   9.841  0.3112 -2.5243 -4.4562
  125MOL0     H17249   3.489   6.196   9.905 -3.0261 -0.0210 -1.4322
  125MOL0     H17250   3.562   6.351   9.943  1.2423  0.7099 -0.4357
  126MOL0     O17251   5.867  11.358   5.991  0.1349  0.4271  0.5318
  126MOL0     C17252   5.754  11.315   6.005  0.5216  0.1973 -0.0313
  126MOL0     O17253   5.698  11.296   6.122  0.5873  0.8068 -0.0133
  126MOL0     C17254   5.761  11.272   6.236  0.6988 -0.4193  0.4416
  126MOL0     C17255   5.763  11.380   6.332 -0.6628  0.3166 -0.0065
  126MOL0     C17256   5.823  11.344   6.448  0.4248 -1.0135 -1.0888
  126MOL0     C17257   5.887  11.225   6.477  0.4735  0.5561 -0.5531
  126MOL0     O17258   5.922  11.203   6.609 -0.8194  0.2574 -0.1610
  126MOL0     C17259   5.985  11.077   6.635  0.3530  0.2002 -1.0133
  126MOL0     C17260   6.008  11.058   6.783 -0.3016 -0.2699 -0.7571
  126MOL0     C17261   5.895  11.097   6.876  0.1948  0.4972  0.4434
  126MOL0     C17262   5.758  11.031   6.840  0.3368  0.1273 -0.0654
  126MOL0     C17263   5.652  11.114   6.928 -0.2344  0.0783 -0.9376
  126MOL0     C17264   5.505  11.059   6.920  0.0732  0.4982 -0.2861
  126MOL0     C17265   5.385  11.153   6.923 -0.7125 -0.0789  1.1888
  126MOL0     C17266   5.352  11.204   7.063  0.1680  0.0226  0.4839
  126MOL0     N17267   5.459  11.303   7.113  1.1289 -0.0158  0.0998
  126MOL0     C17268   5.470  11.435   7.078  0.4538  0.5386  0.4169
  126MOL0     C17269   5.559  11.493   7.153  0.1774 -0.7562 -0.0989
  126MOL0     C17270   5.588  11.639   7.178 -0.9427 -0.4368 -0.4720
  126MOL0     C17271   5.719  11.683   7.121  0.6920  0.1225  0.0333
  126MOL0     C17272   5.771  11.814   7.184  0.0077 -0.9893  0.9221
  126MOL0     C17273   5.924  11.828   7.178 -0.1176  0.1485 -0.2464
  126MOL0     O17274   5.962  11.955   7.244 -0.5940  0.0161  0.2147
  126MOL0     C17275   6.085  11.965   7.306 -0.2896  0.8415 -0.9651
  126MOL0     C17276   6.198  11.890   7.290  0.5874 -0.0301 -0.1340
  126MOL0     C17277   6.320  11.916   7.357 -0.4098  0.5190 -1.1266
  126MOL0     C17278   6.440  11.831   7.311  0.1901 -0.6180  0.9280
  126MOL0     C17279   6.343  12.024   7.443  0.4151  0.1334 -0.6143
  126MOL0     C17280   6.466  12.073   7.519 -0.2465 -0.8389 -0.2554
  126MOL0     O17281   6.453  12.156   7.627 -0.4488 -0.8566  1.0688
  126MOL0     C17282   6.425  12.099   7.750 -0.3097  0.1587  0.3558
  126MOL0     C17283   6.441  12.174   7.863  0.6145  0.3665  0.2481
  126MOL0     C17284   6.390  12.135   7.984  0.7017  0.6036 -0.1157
  126MOL0     C17285   6.321  12.016   8.000 -0.2981  0.0895 -0.5171
  126MOL0     O17286   6.271  11.988   8.125  0.3796 -0.4205 -0.0259
  126MOL0     C17287   6.187  11.884   8.145  0.7241  0.6130  0.2476
  126MOL0     C17288   6.250  11.745   8.152 -0.8477 -0.3334 -0.1985
  126MOL0     C17289   6.162  11.629   8.184  0.6914  0.7473  0.0217
  126MOL0     C17290   6.127  11.623   8.329 -0.1389 -0.2258  0.4957
  126MOL0     C17291   6.027  11.514   8.345  0.1742 -0.2301 -0.7442
  126MOL0     C17292   5.968  11.515   8.482  1.3456 -0.5719 -0.9749
  126MOL0     C17293   5.873  11.397   8.521  0.6761  0.1152 -0.1240
  126MOL0     C17294   5.786  11.439   8.644  0.6660  0.4859  0.1583
  126MOL0    Cl17295   5.649  11.541   8.588 -0.1694  0.2755 -0.0401
  126MOL0     C17296   6.319  11.932   7.887 -0.8169 -0.4812  0.4545
  126MOL0     C17297   6.371  11.970   7.765 -0.0339  0.1955  0.2236
  126MOL0     O17298   6.575  12.041   7.480  0.2537  0.6557 -0.3069
  126MOL0     C17299   6.220  12.090   7.467 -0.4162  0.2391  1.0545
  126MOL0     C17300   6.093  12.067   7.398  0.0251  0.4905  0.7035
  126MOL0     N17301   5.601  11.393   7.242  0.5431  0.2348  0.4004
  126MOL0     N17302   5.544  11.281   7.213  0.4519 -0.6005  0.2082
  126MOL0     C17303   5.886  11.128   6.376 -0.0593 -0.2316  0.1649
  126MOL0     C17304   5.827  11.152   6.251  0.5927  0.0571 -0.4335
  126MOL0     C17305   5.675  11.288   5.879 -0.0579 -1.6389  0.0969
  126MOL0     C17306   5.539  11.269   5.910 -0.5968 -0.6260  0.1487
  126MOL0     C17307   5.446  11.241   5.814 -0.3796  0.2721 -0.6393
  126MOL0     C17308   5.475  11.242   5.683 -0.3338 -0.5330  0.7801
  126MOL0     O17309   5.380  11.210   5.588 -0.0159 -0.1514 -0.6952
  126MOL0     C17310   5.422  11.092   5.508  0.5207 -0.1731 -0.4050
  126MOL0     C17311   5.302  11.019   5.466 -0.1778 -0.0139 -1.1075
  126MOL0     C17312   5.212  10.969   5.590 -0.0835 -0.9297  0.3022
  126MOL0     C17313   5.067  10.948   5.551 -0.5223  0.1915 -0.8894
  126MOL0     C17314   4.965  10.969   5.642  0.2739  0.7104  0.3702
  126MOL0     C17315   4.866  10.987   5.710 -0.4862  0.5407  0.2497
  126MOL0     C17316   5.606  11.280   5.648 -0.2281 -0.2151  0.5503
  126MOL0     C17317   5.705  11.306   5.749  0.1976  0.1576 -0.9115
  126MOL0     C17318   5.849  11.329   5.703 -0.4127  0.1300 -0.1027
  126MOL0     H17319   5.729  11.480   6.305 -0.3268 -0.0410 -1.8914
  126MOL0     H17320   5.837  11.421   6.524 -0.0510  1.5463 -3.4145
  126MOL0     H17321   6.077  11.083   6.576  1.0515  2.9530  0.1856
  126MOL0     H17322   5.926  10.989   6.608  0.4819 -0.6340  1.1933
  126MOL0     H17323   6.038  10.954   6.803 -0.2597  0.1180  1.3414
  126MOL0     H17324   6.086  11.126   6.818  1.6607 -2.0685 -1.4136
  126MOL0     H17325   5.924  11.054   6.972 -1.2188 -1.3385  0.0970
  126MOL0     H17326   5.881  11.206   6.872  0.8190  0.6128  1.1799
  126MOL0     H17327   5.733  11.037   6.734 -2.0693 -2.4148  0.2339
  126MOL0     H17328   5.759  10.929   6.879 -0.5211  0.8815  2.0314
  126MOL0     H17329   5.646  11.218   6.897 -3.5252  0.1371 -0.5150
  126MOL0     H17330   5.679  11.114   7.034 -5.2010 -1.8193  0.6213
  126MOL0     H17331   5.497  11.023   6.817  0.5696  0.0585 -0.1748
  126MOL0     H17332   5.495  10.969   6.981  2.6505  0.1463 -0.2711
  126MOL0     H17333   5.305  11.094   6.879  1.6164 -2.9489  0.4508
  126MOL0     H17334   5.402  11.233   6.850 -6.1218  1.0787  0.7934
  126MOL0     H17335   5.252  11.250   7.066  0.2772  0.2899  0.0077
  126MOL0     H17336   5.338  11.114   7.124  0.5676  0.7127  1.6316
  126MOL0     H17337   5.403  11.474   7.003 -0.2710 -1.8296 -0.2538
  126MOL0     H17338   5.588  11.653   7.286 -0.9987 -4.0444  0.1068
  126MOL0     H17339   5.511  11.706   7.138 -1.7416 -0.3904  1.0783
  126MOL0     H17340   5.802  11.614   7.141  1.4706  1.2232  0.7239
  126MOL0     H17341   5.708  11.694   7.012  0.9025  3.1797  0.2396
  126MOL0     H17342   5.737  11.901   7.127  1.4345  0.5278  2.2799
  126MOL0     H17343   5.733  11.826   7.286 -2.2784  1.8899 -0.1347
  126MOL0     H17344   5.969  11.743   7.231 -1.0832 -1.6285 -2.1229
  126MOL0     H17345   5.944  11.811   7.071 -3.2593  1.7051 -1.2045
  126MOL0     H17346   6.196  11.813   7.214 -0.0476  0.3088 -0.4690
  126MOL0     H17347   6.408  11.727   7.303 -0.6592 -0.2294 -1.4714
  126MOL0     H17348   6.528  11.842   7.377  0.0361 -1.4526  1.2867
  126MOL0     H17349   6.478  11.874   7.218  0.8292  0.3637  1.6140
  126MOL0     H17350   6.502  12.263   7.854  2.9778 -1.1084  0.7708
  126MOL0     H17351   6.397  12.193   8.075  1.0523 -2.3748  1.9164
  126MOL0     H17352   6.138  11.889   8.243 -2.2111 -2.0897 -0.8812
  126MOL0     H17353   6.110  11.875   8.068  0.9180 -1.2823  0.2110
  126MOL0     H17354   6.292  11.737   8.051  1.7964  1.1140  0.7019
  126MOL0     H17355   6.330  11.751   8.225 -0.3953 -2.7392 -0.4245
  126MOL0     H17356   6.205  11.534   8.152 -1.6144 -1.1497  2.1962
  126MOL0     H17357   6.071  11.638   8.124  2.0988  0.8740 -2.2299
  126MOL0     H17358   6.080  11.717   8.361 -1.7233 -0.8587  0.1184
  126MOL0     H17359   6.221  11.614   8.386  2.1871 -2.0325 -3.2444
  126MOL0     H17360   5.941  11.533   8.279  0.3347  1.6892 -0.4557
  126MOL0     H17361   6.075  11.418   8.327  1.6881 -0.1541  2.2576
  126MOL0     H17362   5.914  11.609   8.500  3.7806  1.0769 -1.8534
  126MOL0     H17363   6.051  11.519   8.552 -0.0128 -1.2615  0.7348
  126MOL0     H17364   5.940  11.315   8.546 -2.1111 -2.3080 -0.1328
  126MOL0     H17365   5.812  11.369   8.435  0.9208 -0.8714  0.0112
  126MOL0     H17366   5.829  11.496   8.726 -0.8569 -1.0095  2.1077
  126MOL0     H17367   5.743  11.349   8.689  0.3407  0.2965 -0.5201
  126MOL0     H17368   6.259  11.842   7.898 -0.3989 -0.5183  3.3935
  126MOL0     H17369   6.338  11.899   7.691 -1.4894 -0.0020  1.0026
  126MOL0     H17370   6.221  12.176   7.534  0.4153  1.2891 -0.2462
  126MOL0     H17371   6.016  12.143   7.404  0.9708  1.5205  0.2019
  126MOL0     H17372   5.926  11.030   6.395  0.2491 -0.1626 -0.1196
  126MOL0     H17373   5.839  11.085   6.166 -0.6518  0.4547 -0.9521
  126MOL0     H17374   5.505  11.251   6.012  1.0747 -0.5105  0.7499
  126MOL0     H17375   5.345  11.207   5.835 -0.8361  1.2886 -1.0857
  126MOL0     H17376   5.488  11.121   5.426 -1.2369 -0.8567 -2.1347
  126MOL0     H17377   5.470  11.016   5.570 -0.6440  0.7283  1.7228
  126MOL0     H17378   5.349  10.927   5.431  0.6033 -0.3982  0.8535
  126MOL0     H17379   5.254  11.082   5.390  1.7952 -0.6971 -3.0024
  126MOL0     H17380   5.246  10.878   5.640  2.7244  0.2719  0.7977
  126MOL0     H17381   5.212  11.033   5.679 -1.3476 -3.0308  1.8915
  126MOL0     H17382   5.057  10.843   5.525 -0.4244 -0.0964  0.1740
  126MOL0     H17383   5.045  11.009   5.463  1.2015 -1.0155 -2.2184
  126MOL0     H17384   4.782  10.994   5.777 -0.7127 -1.6222  0.2562
  126MOL0     H17385   5.640  11.288   5.546 -0.7460  1.2366  0.4684
  126MOL0     H17386   5.864  11.303   5.598 -0.4323  2.0218 -0.6148
  126MOL0     H17387   5.882  11.432   5.718  1.1700 -0.5254  1.2064
  126MOL0     H17388   5.909  11.260   5.764  0.0979 -0.7998 -1.6146
  127MOL0     O17389   9.509   5.050   4.181  0.9257  0.3968 -0.7901
  127MOL0     C17390   9.400   5.034   4.243  0.1982 -0.2252  0.9632
  127MOL0     O17391   9.387   4.988   4.373 -0.4596 -0.1839 -0.7071
  127MOL0     C17392   9.497   4.974   4.449 -0.5280  0.4549 -0.1069
  127MOL0     C17393   9.517   5.063   4.558 -1.4061  1.5657  0.3264
  127MOL0     C17394   9.626   5.045   4.644  1.1381  0.4187 -0.1422
  127MOL0     C17395   9.716   4.934   4.633 -0.0566  0.2320  0.3141
  127MOL0     O17396   9.815   4.892   4.716 -0.5963 -0.2587 -0.0847
  127MOL0     C17397   9.801   4.923   4.858  0.7077 -1.2145 -0.4778
  127MOL0     C17398   9.910   4.849   4.933 -0.4615  0.3968  0.5276
  127MOL0     C17399  10.059   4.906   4.916 -0.7306  0.9383 -0.6779
  127MOL0     C17400  10.070   5.044   4.845  0.0247 -0.7376  0.9368
  127MOL0     C17401  10.205   5.072   4.781  0.6779 -0.5201 -0.6377
  127MOL0     C17402  10.300   5.110   4.896 -0.3560 -0.3496 -0.7020
  127MOL0     C17403  10.440   5.125   4.835 -0.0467 -0.0136  0.5180
  127MOL0     C17404  10.544   5.159   4.948 -0.1727 -0.7346 -0.4470
  127MOL0     N17405  10.673   5.176   4.903 -0.0206  0.2273 -0.6165
  127MOL0     C17406  10.718   5.258   4.804  0.2027 -0.5881  0.1102
  127MOL0     C17407  10.852   5.244   4.809  0.8441 -0.7343  0.5148
  127MOL0     C17408  10.933   5.330   4.713  0.0640 -0.3091  1.0509
  127MOL0     C17409  11.077   5.329   4.753 -1.2462 -0.2982 -0.3570
  127MOL0     C17410  11.167   5.418   4.661  0.0229  0.2196 -0.6406
  127MOL0     C17411  11.296   5.455   4.729  0.4211  0.5399  0.0058
  127MOL0     O17412  11.358   5.349   4.793  0.2247  0.2074  0.0316
  127MOL0     C17413  11.454   5.369   4.890  0.8657 -0.0528  0.4031
  127MOL0     C17414  11.448   5.467   4.981 -0.2856 -0.2697 -0.3011
  127MOL0     C17415  11.543   5.487   5.081  0.1344  0.2761  0.5705
  127MOL0     C17416  11.533   5.607   5.171 -0.9038  0.1419 -0.3609
  127MOL0     C17417  11.647   5.381   5.097  0.0067  0.5658 -0.2475
  127MOL0     C17418  11.746   5.377   5.207  0.2535  0.8814 -0.3072
  127MOL0     O17419  11.860   5.328   5.175  0.0437  0.6280 -0.2307
  127MOL0     C17420  11.980   5.360   5.236 -0.5026  0.3238 -0.3839
  127MOL0     C17421  11.998   5.452   5.349 -0.2412 -1.3564  0.0930
  127MOL0     C17422  12.119   5.484   5.401 -1.0126  1.0883  0.2773
  127MOL0     C17423  12.237   5.434   5.332 -0.0263 -0.1221 -0.1075
  127MOL0     O17424  12.359   5.477   5.361  0.0657  0.5951 -0.0591
  127MOL0     C17425  12.439   5.391   5.450 -0.5799  0.4394  0.8270
  127MOL0     C17426  12.392   5.405   5.590 -0.1572 -0.3093  0.3504
  127MOL0     C17427  12.483   5.336   5.691  0.3560 -0.0043 -0.8324
  127MOL0     C17428  12.575   5.435   5.768  1.2223 -0.1309  0.7449
  127MOL0     C17429  12.692   5.496   5.690 -0.6431 -0.0150 -0.5551
  127MOL0     C17430  12.808   5.540   5.783  0.0918 -0.1449 -0.5409
  127MOL0     C17431  12.918   5.612   5.696 -0.3342  0.0680 -0.6502
  127MOL0     C17432  13.043   5.535   5.712  0.5212 -0.3947  0.0134
  127MOL0    Cl17433  13.175   5.640   5.641 -0.2457 -0.1535 -0.5192
  127MOL0     C17434  12.224   5.338   5.232 -0.0006  0.4575 -0.3317
  127MOL0     C17435  12.093   5.297   5.192 -0.1425 -0.4046 -0.1488
  127MOL0     O17436  11.714   5.426   5.312  0.2893  0.3838 -0.2170
  127MOL0     C17437  11.659   5.287   4.991 -0.1997  0.3035 -0.0476
  127MOL0     C17438  11.557   5.279   4.896 -0.7701  0.6229 -1.2696
  127MOL0     N17439  10.878   5.140   4.897  0.3956  0.7686 -0.5257
  127MOL0     N17440  10.773   5.098   4.955 -0.0752  0.4854 -0.1065
  127MOL0     C17441   9.689   4.843   4.526  0.3344  0.0911  0.1668
  127MOL0     C17442   9.584   4.861   4.434  0.9701  0.9165  0.4770
  127MOL0     C17443   9.278   5.054   4.170  0.0861  1.0179 -0.4535
  127MOL0     C17444   9.151   4.995   4.219  0.1382 -0.1508  0.2729
  127MOL0     C17445   9.036   4.992   4.145 -0.5768  0.5464 -0.2352
  127MOL0     C17446   9.026   5.054   4.027 -0.1858 -0.6068 -0.2867
  127MOL0     O17447   8.918   5.039   3.950  0.4198  0.2261  0.0929
  127MOL0     C17448   8.921   5.096   3.817 -0.2029  0.5850 -0.1434
  127MOL0     C17449   8.810   5.029   3.735 -0.1132 -0.3115 -0.0787
  127MOL0     C17450   8.822   4.874   3.722 -1.2751 -0.2832 -0.5881
  127MOL0     C17451   8.708   4.822   3.631 -0.6569 -0.4093 -1.3847
  127MOL0     C17452   8.718   4.679   3.621 -0.4024 -0.5242 -0.2423
  127MOL0     C17453   8.719   4.560   3.602 -0.8028 -0.2146  0.5995
  127MOL0     C17454   9.145   5.123   3.989 -0.3940  0.5371 -0.2168
  127MOL0     C17455   9.276   5.124   4.049 -0.2230 -0.8101  0.1583
  127MOL0     C17456   9.381   5.202   3.973  0.3544 -0.2567 -0.1116
  127MOL0     H17457   9.453   5.150   4.568  0.4930  3.6122 -3.4347
  127MOL0     H17458   9.655   5.108   4.727  1.4901 -0.0983  0.1351
  127MOL0     H17459   9.704   4.883   4.890  2.0453 -4.2644  0.1096
  127MOL0     H17460   9.809   5.029   4.880  0.0211 -1.6324  2.2451
  127MOL0     H17461   9.869   4.820   5.030 -1.8515 -1.9694 -0.6592
  127MOL0     H17462   9.914   4.749   4.888  2.0529  1.6211 -2.3601
  127MOL0     H17463  10.108   4.885   5.012 -1.0053 -1.2737 -0.9612
  127MOL0     H17464  10.107   4.841   4.842 -0.8529  0.2393 -0.1576
  127MOL0     H17465   9.996   5.043   4.764 -1.4727 -2.3269  2.2270
  127MOL0     H17466  10.065   5.127   4.915  3.6811 -0.7652  1.4203
  127MOL0     H17467  10.199   5.157   4.714 -4.4125  1.0308  1.3240
  127MOL0     H17468  10.233   4.983   4.723 -0.1690 -0.0221 -1.8458
  127MOL0     H17469  10.257   5.200   4.941 -1.9194 -1.6041  0.4258
  127MOL0     H17470  10.300   5.032   4.972 -0.2201  0.4439  0.1181
  127MOL0     H17471  10.449   5.199   4.755 -0.7230 -2.4844 -2.0095
  127MOL0     H17472  10.466   5.026   4.796 -0.5254  0.2947 -0.6042
  127MOL0     H17473  10.523   5.248   5.008  0.3153  0.3360 -1.8147
  127MOL0     H17474  10.529   5.074   5.016 -0.2969 -0.1592  0.2565
  127MOL0     H17475  10.660   5.315   4.733  1.2332  0.1040 -0.1852
  127MOL0     H17476  10.898   5.434   4.719  1.5229  0.3275 -0.6938
  127MOL0     H17477  10.912   5.306   4.608  0.1371 -0.4385  1.0667
  127MOL0     H17478  11.093   5.366   4.855  4.2213  0.0520 -1.0179
  127MOL0     H17479  11.106   5.223   4.746  0.5545 -0.3857  4.4281
  127MOL0     H17480  11.193   5.352   4.578  1.3590  1.5353 -1.3130
  127MOL0     H17481  11.110   5.496   4.610 -0.9688 -1.1087 -1.6239
  127MOL0     H17482  11.369   5.478   4.650 -0.4791 -2.4838 -1.8880
  127MOL0     H17483  11.285   5.546   4.788 -0.4422 -0.6761  1.7824
  127MOL0     H17484  11.364   5.536   4.984  0.3730  0.5127  1.1712
  127MOL0     H17485  11.454   5.674   5.135 -0.4315 -0.1726 -2.0944
  127MOL0     H17486  11.630   5.658   5.167  0.2955 -2.0968 -2.0243
  127MOL0     H17487  11.516   5.573   5.273 -0.1123 -2.4598 -1.0194
  127MOL0     H17488  11.914   5.509   5.389 -1.2096 -2.2373 -0.6229
  127MOL0     H17489  12.127   5.561   5.477 -1.7681  1.5769 -0.1178
  127MOL0     H17490  12.443   5.289   5.410  0.1872 -0.5876  3.2998
  127MOL0     H17491  12.546   5.414   5.459  0.5401 -3.7475  0.4526
  127MOL0     H17492  12.382   5.511   5.612  0.2510  0.1479 -1.5445
  127MOL0     H17493  12.294   5.357   5.599  0.3317 -0.9326  3.6329
  127MOL0     H17494  12.546   5.261   5.643 -1.3401 -2.9695  1.2733
  127MOL0     H17495  12.428   5.280   5.768  1.7236 -2.1244 -1.3421
  127MOL0     H17496  12.620   5.386   5.856 -1.7651 -0.2388  2.3426
  127MOL0     H17497  12.518   5.518   5.810  0.8005 -1.2154  2.4582
  127MOL0     H17498  12.731   5.429   5.613 -0.8583  1.0119 -1.5844
  127MOL0     H17499  12.654   5.585   5.638 -2.9682 -1.2617 -1.1369
  127MOL0     H17500  12.852   5.460   5.844  1.1515  2.8739  3.0671
  127MOL0     H17501  12.771   5.619   5.848 -0.8898 -1.4798  0.5916
  127MOL0     H17502  12.931   5.714   5.734  2.1868  0.6041 -2.6742
  127MOL0     H17503  12.891   5.615   5.590 -3.5405  0.4004  0.0706
  127MOL0     H17504  13.046   5.435   5.667 -1.2555  0.2028 -1.5931
  127MOL0     H17505  13.052   5.519   5.819 -2.4933 -0.3712  0.3524
  127MOL0     H17506  12.312   5.297   5.183  0.6962  0.8513  0.5576
  127MOL0     H17507  12.082   5.218   5.119 -0.4412 -0.7238  0.2366
  127MOL0     H17508  11.746   5.223   4.986 -0.3303  0.1255 -0.0522
  127MOL0     H17509  11.569   5.206   4.816 -1.8719  1.1836 -1.9704
  127MOL0     H17510   9.761   4.768   4.495 -0.1291 -0.0743 -0.5341
  127MOL0     H17511   9.572   4.799   4.345  3.3041  1.1832 -0.0729
  127MOL0     H17512   9.158   4.948   4.317  0.6455 -1.1614 -0.2349
  127MOL0     H17513   8.953   4.925   4.165 -0.4442 -0.1159 -1.8113
  127MOL0     H17514   8.912   5.205   3.819 -0.3372  0.5635  0.4537
  127MOL0     H17515   9.018   5.073   3.772 -0.7401 -1.0224 -0.5673
  127MOL0     H17516   8.805   5.081   3.639 -2.1512  0.5841  0.4472
  127MOL0     H17517   8.715   5.045   3.788 -0.7158 -2.9934 -0.1874
  127MOL0     H17518   8.921   4.849   3.683 -1.0641 -0.5302  0.0894
  127MOL0     H17519   8.819   4.827   3.821  2.9602 -2.5618 -1.2790
  127MOL0     H17520   8.724   4.868   3.533 -1.1073  1.7222 -0.5304
  127MOL0     H17521   8.609   4.847   3.672 -0.0910 -2.2076  1.3918
  127MOL0     H17522   8.713   4.454   3.584 -2.7732 -0.1645  0.7282
  127MOL0     H17523   9.147   5.181   3.898  0.0416  2.4836  0.9782
  127MOL0     H17524   9.339   5.266   3.895  0.9236  3.0271  2.0884
  127MOL0     H17525   9.448   5.262   4.036 -3.4787  1.8768  2.3266
  127MOL0     H17526   9.443   5.122   3.931 -0.5859 -2.3202  2.1390
  128MOL0     O17527   7.675   1.832  10.895  0.4412  0.1315 -0.4625
  128MOL0     C17528   7.612   1.852  10.998 -1.5209  0.4555 -0.2695
  128MOL0     O17529   7.654   1.795  11.120 -0.3573 -1.4358 -0.0479
  128MOL0     C17530   7.766   1.725  11.129 -0.4660  0.8755  0.2859
  128MOL0     C17531   7.759   1.587  11.176  0.0203 -2.0073 -0.3257
  128MOL0     C17532   7.863   1.520  11.204  0.2943 -1.0518  0.0925
  128MOL0     C17533   7.992   1.580  11.189  0.0728  0.0803 -0.7397
  128MOL0     O17534   8.096   1.503  11.226 -0.5832  0.1071  0.2149
  128MOL0     C17535   8.213   1.498  11.132  0.3247  0.1301 -0.1957
  128MOL0     C17536   8.303   1.380  11.149  0.5429 -0.5894 -0.3872
  128MOL0     C17537   8.231   1.247  11.128  0.4694  0.5640 -0.8139
  128MOL0     C17538   8.306   1.131  11.191 -0.2209  0.2168  0.1311
  128MOL0     C17539   8.302   1.105  11.336 -0.6008  0.2197  0.3268
  128MOL0     C17540   8.406   0.992  11.371  0.8387 -0.1923  0.3692
  128MOL0     C17541   8.401   0.948  11.519 -0.6690  0.6588  0.2999
  128MOL0     C17542   8.508   0.839  11.543  0.1613  0.6448  0.4228
  128MOL0     N17543   8.638   0.875  11.490 -0.0670  0.5501 -0.1839
  128MOL0     C17544   8.686   0.824  11.381  0.1730  0.4934  0.3064
  128MOL0     C17545   8.812   0.880  11.372  0.5706 -0.5999  0.4845
  128MOL0     C17546   8.898   0.848  11.251 -1.0534  0.1444 -0.9287
  128MOL0     C17547   8.888   0.968  11.156 -0.3824 -0.1533 -0.8669
  128MOL0     C17548   8.965   0.944  11.029 -0.9074  0.4767  0.5083
  128MOL0     C17549   8.991   1.081  10.949 -0.1742 -1.0182 -0.4065
  128MOL0     O17550   9.047   1.183  11.039 -0.2571  0.5053  0.4471
  128MOL0     C17551   9.057   1.312  10.991 -0.2703 -1.1690  0.0843
  128MOL0     C17552   9.106   1.402  11.084 -0.6970  0.8777 -0.3097
  128MOL0     C17553   9.123   1.532  11.056  0.4045  0.2488 -0.1729
  128MOL0     C17554   9.149   1.627  11.172 -0.4567  0.9395 -0.2874
  128MOL0     C17555   9.081   1.584  10.926 -0.0759  0.9700 -0.3479
  128MOL0     C17556   9.101   1.721  10.867 -0.4708  0.4521 -0.1698
  128MOL0     O17557   9.005   1.786  10.793  0.3705 -1.2325 -1.0740
  128MOL0     C17558   8.872   1.778  10.822 -0.0497 -0.2563  0.2551
  128MOL0     C17559   8.816   1.748  10.942  0.1033  0.3830  0.1163
  128MOL0     C17560   8.684   1.738  10.959  0.1366 -0.4279 -0.4436
  128MOL0     C17561   8.596   1.753  10.847  0.3245 -0.3509 -0.6468
  128MOL0     O17562   8.460   1.730  10.869  0.3407 -0.0605  0.4216
  128MOL0     C17563   8.373   1.739  10.758 -0.1438  0.0584 -0.1736
  128MOL0     C17564   8.229   1.704  10.799 -0.2705 -0.0631 -0.2673
  128MOL0     C17565   8.137   1.710  10.676  0.2694 -0.5687  0.3341
  128MOL0     C17566   7.987   1.692  10.705 -0.2491  0.2950 -0.0244
  128MOL0     C17567   7.913   1.675  10.572  0.0816  0.3591  0.1212
  128MOL0     C17568   7.757   1.684  10.601  0.1970  0.3102  0.6523
  128MOL0     C17569   7.680   1.696  10.466 -0.9811  0.3476  0.0656
  128MOL0     C17570   7.659   1.568  10.382 -0.0851 -0.0915 -0.0138
  128MOL0    Cl17571   7.814   1.510  10.302 -0.4530 -0.4150  0.3083
  128MOL0     C17572   8.656   1.763  10.719 -0.7118 -0.8205  0.0693
  128MOL0     C17573   8.798   1.772  10.709 -0.3393 -0.3004 -0.3019
  128MOL0     O17574   9.204   1.780  10.903 -0.3884 -0.5872 -0.2131
  128MOL0     C17575   9.037   1.485  10.834  0.3962  0.3860  0.6581
  128MOL0     C17576   9.021   1.345  10.863  1.2743 -0.5406  0.1352
  128MOL0     N17577   8.817   0.979  11.473  0.0754  0.5217  0.0124
  128MOL0     N17578   8.722   0.957  11.557 -0.2473 -0.2047  0.0285
  128MOL0     C17579   8.004   1.710  11.140 -0.4665  0.6480  0.0100
  128MOL0     C17580   7.887   1.777  11.104  0.3145  0.3693 -0.4361
  128MOL0     C17581   7.480   1.915  10.995  0.0049  0.3068  0.8362
  128MOL0     C17582   7.377   1.865  11.074 -0.8238 -0.6688  0.9882
  128MOL0     C17583   7.250   1.921  11.076  1.1282 -0.3309  1.2096
  128MOL0     C17584   7.219   2.034  10.995 -0.2667 -0.0103 -0.6830
  128MOL0     O17585   7.095   2.090  11.012  0.0515 -0.0042 -0.0624
  128MOL0     C17586   7.070   2.192  10.918 -0.5565 -0.2320 -0.5084
  128MOL0     C17587   6.930   2.234  10.926 -0.0646  0.2234  0.0677
  128MOL0     C17588   6.838   2.148  10.840  0.0049  0.2915 -0.0003
  128MOL0     C17589   6.816   2.225  10.703  0.2692 -0.3871 -0.3738
  128MOL0     C17590   6.930   2.220  10.616 -0.9574 -0.2215 -0.5539
  128MOL0     C17591   7.028   2.222  10.554 -0.3720  0.3545 -0.6867
  128MOL0     C17592   7.321   2.082  10.911 -0.3228  0.2349  0.0040
  128MOL0     C17593   7.448   2.020  10.907 -0.0589  0.1565 -0.5802
  128MOL0     C17594   7.540   2.100  10.819 -0.3488  0.4346 -0.1632
  128MOL0     H17595   7.658   1.548  11.187 -0.7434  0.2562  1.9359
  128MOL0     H17596   7.861   1.419  11.243 -0.5790 -0.9815  0.2566
  128MOL0     H17597   8.276   1.587  11.146  0.5346 -0.2326  1.3052
  128MOL0     H17598   8.175   1.507  11.030 -1.1504  2.9097  0.4935
  128MOL0     H17599   8.390   1.395  11.084 -0.4206 -0.8817 -1.7724
  128MOL0     H17600   8.331   1.385  11.255  0.2887 -0.2232 -0.3336
  128MOL0     H17601   8.133   1.255  11.175  0.0869 -1.9727 -1.0393
  128MOL0     H17602   8.214   1.231  11.021 -0.7099  1.8161 -0.8284
  128MOL0     H17603   8.246   1.049  11.151 -0.6502  1.5659 -2.1621
  128MOL0     H17604   8.408   1.131  11.150 -0.7227 -2.3581 -1.2937
  128MOL0     H17605   8.204   1.075  11.374 -0.1086  1.1660  2.5035
  128MOL0     H17606   8.322   1.189  11.403 -0.9838  0.3398  0.2928
  128MOL0     H17607   8.393   0.902  11.309  4.0513  1.2871 -2.8511
  128MOL0     H17608   8.510   1.017  11.346 -0.1258  2.0504 -1.7525
  128MOL0     H17609   8.303   0.911  11.554 -0.5264  0.2693  0.2867
  128MOL0     H17610   8.424   1.033  11.584 -1.7920  0.4384  1.0297
  128MOL0     H17611   8.519   0.814  11.649 -0.4084  0.5121  0.4509
  128MOL0     H17612   8.466   0.750  11.497 -1.0056  2.4238 -2.1817
  128MOL0     H17613   8.628   0.754  11.323  0.5889 -0.4283  0.9694
  128MOL0     H17614   8.870   0.749  11.213  4.2437 -0.6849 -3.6207
  128MOL0     H17615   9.000   0.834  11.287 -0.0657  3.6136 -1.9198
  128MOL0     H17616   8.783   0.996  11.148 -0.9292 -1.6523  0.4898
  128MOL0     H17617   8.931   1.055  11.207  1.2031 -2.5548  2.2954
  128MOL0     H17618   9.062   0.913  11.070 -0.6065  0.6978 -0.0199
  128MOL0     H17619   8.912   0.871  10.968  0.2918 -0.2453  0.2857
  128MOL0     H17620   9.066   1.063  10.871 -0.2685 -4.1812  0.1025
  128MOL0     H17621   8.903   1.113  10.892  0.7672  3.0819  0.0881
  128MOL0     H17622   9.121   1.375  11.188 -5.2769 -2.7725 -0.2451
  128MOL0     H17623   9.208   1.594  11.258  1.5575  3.2897 -0.6495
  128MOL0     H17624   9.055   1.665  11.213 -2.2134 -2.9185 -0.2452
  128MOL0     H17625   9.198   1.717  11.135 -1.2242  1.4347 -0.1078
  128MOL0     H17626   8.870   1.748  11.036  1.2171  1.7732 -0.4784
  128MOL0     H17627   8.643   1.721  11.058 -0.3242  1.9788 -0.1540
  128MOL0     H17628   8.369   1.842  10.721 -2.6430 -0.5076 -1.7086
  128MOL0     H17629   8.392   1.666  10.678 -0.8800  0.0004 -0.3004
  128MOL0     H17630   8.222   1.603  10.840 -0.6735  0.1816  0.2799
  128MOL0     H17631   8.189   1.781  10.865 -0.7667 -0.5446  0.0071
  128MOL0     H17632   8.164   1.623  10.615 -0.0480 -0.0624 -0.5366
  128MOL0     H17633   8.153   1.800  10.616  2.2457  0.5027  2.2914
  128MOL0     H17634   7.954   1.776  10.766 -0.2237  0.1845  0.1443
  128MOL0     H17635   7.974   1.602  10.766 -0.8006  0.9133  0.7985
  128MOL0     H17636   7.941   1.753  10.501  0.1128  0.5925  0.3896
  128MOL0     H17637   7.941   1.576  10.533 -0.5865 -0.1472  0.8835
  128MOL0     H17638   7.739   1.773  10.662 -1.5319  0.6446 -0.2726
  128MOL0     H17639   7.719   1.599  10.659  0.4878 -0.2147  0.0790
  128MOL0     H17640   7.724   1.769  10.397 -0.2681 -0.6946 -0.6251
  128MOL0     H17641   7.584   1.735  10.501  0.1727  0.1647  3.9177
  128MOL0     H17642   7.583   1.595  10.307  0.0121  0.4766  0.0859
  128MOL0     H17643   7.609   1.498  10.450 -1.3778 -0.4638 -1.2835
  128MOL0     H17644   8.598   1.775  10.629 -1.7649  2.2181  1.0536
  128MOL0     H17645   8.843   1.775  10.610  1.8016 -0.1087  0.6198
  128MOL0     H17646   9.008   1.509  10.733  1.4244  1.8124  0.6825
  128MOL0     H17647   8.980   1.281  10.786  0.7768 -0.2997  0.1933
  128MOL0     H17648   8.110   1.731  11.128  0.2699 -2.3580  0.4605
  128MOL0     H17649   7.898   1.877  11.065 -0.0560  1.0805  1.1831
  128MOL0     H17650   7.387   1.772  11.129 -0.9759 -1.1028  0.2913
  128MOL0     H17651   7.174   1.883  11.144 -1.4255  0.5686 -0.9929
  128MOL0     H17652   7.143   2.270  10.942  1.1724 -1.9680  0.1602
  128MOL0     H17653   7.104   2.163  10.818 -1.2465 -1.3401 -0.4417
  128MOL0     H17654   6.922   2.339  10.896  1.1783  0.2811 -0.1352
  128MOL0     H17655   6.890   2.236  11.027 -0.8275 -4.8695  0.1501
  128MOL0     H17656   6.875   2.047  10.818 -0.0577  0.5595 -1.4906
  128MOL0     H17657   6.748   2.141  10.901  0.6973  0.8185  1.1058
  128MOL0     H17658   6.792   2.326  10.735  3.3449 -0.4019  2.6390
  128MOL0     H17659   6.733   2.176  10.651 -0.5617  0.8529 -0.2429
  128MOL0     H17660   7.126   2.227  10.511 -0.0655  2.4617  0.1199
  128MOL0     H17661   7.310   2.180  10.867 -4.0409  0.0445  0.1331
  128MOL0     H17662   7.502   2.197  10.786 -1.4931  0.3192  0.7600
  128MOL0     H17663   7.630   2.120  10.877  0.0582  1.3886 -1.0765
  128MOL0     H17664   7.564   2.050  10.724  3.4086  2.1974 -0.3213
  129MOL0     O17665   4.153   9.010  10.971 -0.6592  0.0902  0.5182
  129MOL0     C17666   4.046   8.953  10.999  0.2405  0.1870 -0.3700
  129MOL0     O17667   3.937   9.010  11.064 -0.8583  0.2570 -0.0032
  129MOL0     C17668   3.962   9.140  11.102 -1.1953  0.4705 -0.3872
  129MOL0     C17669   3.885   9.242  11.040  0.5586  0.8589 -0.6001
  129MOL0     C17670   3.891   9.371  11.084 -0.7524 -0.2509  0.3995
  129MOL0     C17671   3.976   9.407  11.182 -0.8258  0.6479  0.4681
  129MOL0     O17672   3.983   9.541  11.227 -0.0257  0.0372 -0.6792
  129MOL0     C17673   3.909   9.639  11.150  0.0042  0.4004 -0.7726
  129MOL0     C17674   3.978   9.766  11.190  1.2338 -0.3834 -0.0284
  129MOL0     C17675   3.919   9.892  11.109 -0.2645  0.0806 -0.5512
  129MOL0     C17676   3.774   9.919  11.117  0.4287  0.7435 -0.9767
  129MOL0     C17677   3.737   9.985  11.253  0.3770 -0.0182  0.3482
  129MOL0     C17678   3.583   9.988  11.279  0.1372 -0.0101  0.0217
  129MOL0     C17679   3.511  10.112  11.227 -0.1880  0.1368 -0.3044
  129MOL0     C17680   3.575  10.244  11.233  0.5429  1.0701  1.0625
  129MOL0     N17681   3.578  10.283  11.372 -1.3446  0.0368 -0.0851
  129MOL0     C17682   3.476  10.275  11.459 -0.4453 -0.6459 -0.6717
  129MOL0     C17683   3.515  10.354  11.565  0.9280  0.4028  0.2693
  129MOL0     C17684   3.423  10.370  11.691  0.4916  0.9268 -0.1466
  129MOL0     C17685   3.285  10.435  11.650  0.2503 -0.2573  0.3719
  129MOL0     C17686   3.277  10.548  11.554  0.5217 -0.4058  0.1600
  129MOL0     C17687   3.361  10.678  11.582 -0.3588  0.3377 -0.1132
  129MOL0     O17688   3.340  10.775  11.482 -0.6170 -0.3086  0.8410
  129MOL0     C17689   3.371  10.728  11.353  0.2594  0.5018  0.1696
  129MOL0     C17690   3.283  10.730  11.250 -0.3196 -0.9934  0.1161
  129MOL0     C17691   3.311  10.685  11.121  0.3278  0.7038  0.0743
  129MOL0     C17692   3.198  10.687  11.024 -1.1925 -0.1770 -0.1436
  129MOL0     C17693   3.437  10.626  11.094  0.3642 -0.4944  0.5426
  129MOL0     C17694   3.468  10.547  10.970  0.1259 -0.2800 -1.0828
  129MOL0     O17695   3.598  10.491  10.977 -0.2392  0.4835 -0.6115
  129MOL0     C17696   3.644  10.417  10.873 -0.5766 -0.1243 -0.2955
  129MOL0     C17697   3.616  10.433  10.738  0.4408 -0.2734  0.5986
  129MOL0     C17698   3.684  10.350  10.653  0.2513 -0.5253 -0.5137
  129MOL0     C17699   3.784  10.265  10.685  1.0293 -0.0403 -0.0505
  129MOL0     O17700   3.844  10.204  10.580  0.1080  0.1868  0.3460
  129MOL0     C17701   3.929  10.096  10.609 -0.8872  0.9923  0.7868
  129MOL0     C17702   3.963  10.033  10.469 -0.8765  0.0254  0.5676
  129MOL0     C17703   4.063   9.917  10.483 -0.6152  0.5047  0.7863
  129MOL0     C17704   4.203   9.941  10.424 -0.0081  0.4793  0.6496
  129MOL0     C17705   4.270   9.815  10.418  1.3395  0.9062  0.4478
  129MOL0     C17706   4.414   9.832  10.353  0.2303 -0.0865  0.0699
  129MOL0     C17707   4.447   9.701  10.282 -0.0272 -0.1807  0.0544
  129MOL0     C17708   4.577   9.713  10.199 -0.2105  0.2695 -0.1146
  129MOL0    Cl17709   4.714   9.790  10.300  0.1457  0.1634  0.4427
  129MOL0     C17710   3.819  10.253  10.819  0.4914 -0.3735 -0.8722
  129MOL0     C17711   3.750  10.332  10.910  0.7401 -0.0095 -0.8821
  129MOL0     O17712   3.392  10.534  10.880  0.3487 -0.2221 -0.3695
  129MOL0     C17713   3.533  10.626  11.199 -0.8084  0.1756  0.5342
  129MOL0     C17714   3.499  10.670  11.327 -0.3314  1.4722  0.3797
  129MOL0     N17715   3.633  10.419  11.543 -0.3583 -0.4825  0.3384
  129MOL0     N17716   3.664  10.381  11.420  0.1671  0.2582  0.9087
  129MOL0     C17717   4.059   9.305  11.239 -0.0210 -0.6317  0.4544
  129MOL0     C17718   4.051   9.174  11.202 -0.2942 -0.8590 -0.0730
  129MOL0     C17719   4.031   8.802  10.981  0.6601 -0.7639 -0.5789
  129MOL0     C17720   3.902   8.745  11.006 -1.2184 -0.3846  0.1829
  129MOL0     C17721   3.878   8.613  10.973  0.2475  0.4708 -0.6568
  129MOL0     C17722   3.984   8.530  10.929 -0.7295 -0.1187  0.0933
  129MOL0     O17723   3.981   8.403  10.877 -0.1827  0.2085  0.1955
  129MOL0     C17724   3.862   8.322  10.905 -0.2259 -0.4782 -0.3528
  129MOL0     C17725   3.866   8.261  11.041  0.7815 -0.4491 -0.9189
  129MOL0     C17726   3.762   8.147  11.036 -0.4176  0.2326  0.1720
  129MOL0     C17727   3.739   8.070  11.160 -0.2490 -0.0725 -0.3788
  129MOL0     C17728   3.840   7.974  11.164 -0.1287 -0.4931 -0.5983
  129MOL0     C17729   3.924   7.884  11.175  0.5935 -0.2171 -0.5870
  129MOL0     C17730   4.115   8.583  10.914  0.0370  0.2245 -0.0444
  129MOL0     C17731   4.142   8.715  10.955  0.2519 -0.4981  0.5174
  129MOL0     C17732   4.294   8.755  10.956  0.6063 -0.1220 -0.2075
  129MOL0     H17733   3.809   9.219  10.966  0.1123  0.5308 -0.0497
  129MOL0     H17734   3.823   9.440  11.035  0.6227 -0.1327 -1.4060
  129MOL0     H17735   3.809   9.646  11.192  1.3095  1.8790  2.4359
  129MOL0     H17736   3.914   9.621  11.042  2.8299 -2.8770 -0.2595
  129MOL0     H17737   3.975   9.788  11.297  1.6417  2.7313 -0.5724
  129MOL0     H17738   4.084   9.764  11.161  1.3740 -0.3121  0.4637
  129MOL0     H17739   3.964   9.979  11.157 -3.6321  0.1854  2.9178
  129MOL0     H17740   3.940   9.873  11.003 -1.2872  0.6363 -0.8720
  129MOL0     H17741   3.752   9.999  11.046  2.8453 -0.7080 -3.5438
  129MOL0     H17742   3.715   9.834  11.081  0.8603 -0.8833  1.8814
  129MOL0     H17743   3.783  10.084  11.255 -0.9765  0.6293  1.7625
  129MOL0     H17744   3.782   9.931  11.336 -3.4117  0.0919  2.7540
  129MOL0     H17745   3.538   9.892  11.251  0.7457 -0.4905  0.6533
  129MOL0     H17746   3.573  10.000  11.388  2.7673 -1.0395  0.4605
  129MOL0     H17747   3.409  10.118  11.266  0.0288  2.4891  0.0456
  129MOL0     H17748   3.493  10.093  11.121 -1.4528 -0.2256 -0.0485
  129MOL0     H17749   3.670  10.264  11.182  0.4308  2.6154  1.4099
  129MOL0     H17750   3.509  10.318  11.187  2.7461  1.2901 -2.1083
  129MOL0     H17751   3.378  10.230  11.457  0.2959 -2.5249  1.3250
  129MOL0     H17752   3.474  10.428  11.768  1.5120 -0.1558  0.0357
  129MOL0     H17753   3.397  10.277  11.742  1.8715  0.7361  0.2441
  129MOL0     H17754   3.222  10.357  11.607  0.8114 -1.1204  1.0585
  129MOL0     H17755   3.236  10.469  11.742  1.3743  0.2534  0.8001
  129MOL0     H17756   3.295  10.521  11.449 -0.4709 -0.1534 -0.0920
  129MOL0     H17757   3.172  10.577  11.567  0.4757 -1.4162  2.4432
  129MOL0     H17758   3.345  10.720  11.682 -1.9578  0.0842 -0.2297
  129MOL0     H17759   3.469  10.658  11.584  0.1156  2.3685 -1.9703
  129MOL0     H17760   3.189  10.770  11.287 -0.2059 -1.6394  1.1182
  129MOL0     H17761   3.121  10.752  11.066  1.9676  1.9591  2.9247
  129MOL0     H17762   3.163  10.584  11.013  1.7580 -1.0715 -2.2474
  129MOL0     H17763   3.225  10.717  10.922  2.1601 -1.1911  0.3124
  129MOL0     H17764   3.539  10.500  10.701 -1.2387 -0.5838  3.3374
  129MOL0     H17765   3.659  10.358  10.548 -1.4708  0.0826 -0.0954
  129MOL0     H17766   4.017  10.119  10.670  0.9822 -3.8105  0.3460
  129MOL0     H17767   3.867  10.027  10.667 -1.3198  1.1479  0.5149
  129MOL0     H17768   3.871   9.998  10.422 -0.8846  0.4159  0.2924
  129MOL0     H17769   4.011  10.121  10.425  0.5271  0.1189  2.1314
  129MOL0     H17770   4.019   9.832  10.430 -2.1027  1.0498  1.0974
  129MOL0     H17771   4.075   9.889  10.588  2.0211  0.9494  0.6685
  129MOL0     H17772   4.260  10.011  10.486 -1.1156  2.1594 -0.1758
  129MOL0     H17773   4.200   9.984  10.324 -1.3064  1.5872  1.1271
  129MOL0     H17774   4.283   9.762  10.513  3.0839 -2.2700 -1.3685
  129MOL0     H17775   4.213   9.750  10.350  0.4715 -0.8693  2.7283
  129MOL0     H17776   4.491   9.864  10.423  3.2954 -3.4695 -1.4534
  129MOL0     H17777   4.395   9.906  10.275 -1.3952 -1.8345 -1.2971
  129MOL0     H17778   4.364   9.673  10.217  0.7056  2.2174 -2.0819
  129MOL0     H17779   4.453   9.621  10.357 -0.2130  1.2227  1.6203
  129MOL0     H17780   4.560   9.769  10.106 -2.1925  0.7075  0.4555
  129MOL0     H17781   4.613   9.618  10.158  0.7174  2.2984 -4.5664
  129MOL0     H17782   3.894  10.176  10.838 -1.4163 -2.0636  0.1229
  129MOL0     H17783   3.794  10.314  11.008  1.9200  1.5349 -1.0832
  129MOL0     H17784   3.625  10.569  11.199 -1.2144 -0.5572 -1.4996
  129MOL0     H17785   3.577  10.666  11.403  1.4551 -1.2339 -1.4233
  129MOL0     H17786   4.115   9.338  11.326  0.6673 -1.9893  0.5455
  129MOL0     H17787   4.104   9.098  11.259  3.0516  2.0002  0.9431
  129MOL0     H17788   3.820   8.811  11.033 -1.2353  1.5048 -3.8098
  129MOL0     H17789   3.772   8.592  10.984  0.8499 -1.7622  2.0793
  129MOL0     H17790   3.767   8.376  10.901 -0.0014 -0.0861 -0.4030
  129MOL0     H17791   3.852   8.243  10.830  1.3802 -0.8370 -0.2300
  129MOL0     H17792   3.832   8.340  11.108  1.0076  0.3826 -1.7657
  129MOL0     H17793   3.966   8.240  11.081 -0.2386 -3.2044  0.4476
  129MOL0     H17794   3.669   8.203  11.017 -0.8067  0.3428  2.1620
  129MOL0     H17795   3.790   8.079  10.955  0.2235  0.9871 -0.2559
  129MOL0     H17796   3.654   8.003  11.153  0.9346 -1.8677  1.3075
  129MOL0     H17797   3.743   8.123  11.256  0.1623 -1.6443  0.5065
  129MOL0     H17798   3.993   7.802  11.179 -0.5660 -1.2628 -1.3083
  129MOL0     H17799   4.183   8.519  10.860  0.3268  1.1441 -0.7975
  129MOL0     H17800   4.312   8.824  10.873 -1.1425 -2.0300 -2.3176
  129MOL0     H17801   4.326   8.799  11.051  0.3465 -0.4017  0.0105
  129MOL0     H17802   4.344   8.659  10.944  0.7853  0.1968 -2.3775
  130MOL0     O17803   6.694   8.961   8.742 -0.1594 -0.8418  0.4632
  130MOL0     C17804   6.720   8.964   8.619 -0.3940  0.6040 -0.7872
  130MOL0     O17805   6.640   8.923   8.519  0.2963 -0.2106 -0.2769
  130MOL0     C17806   6.510   8.884   8.553  0.9220  0.7125 -0.4927
  130MOL0     C17807   6.482   8.746   8.549  0.4957 -0.1602  0.7185
  130MOL0     C17808   6.349   8.710   8.578 -0.0786  0.9870 -0.1266
  130MOL0     C17809   6.251   8.800   8.601  0.5062 -0.2874 -0.5141
  130MOL0     O17810   6.129   8.748   8.618 -0.2684  0.6072 -0.6103
  130MOL0     C17811   6.006   8.819   8.579  0.3870  0.8518 -0.0597
  130MOL0     C17812   5.955   8.773   8.445  0.1638  0.5111  0.8340
  130MOL0     C17813   5.827   8.851   8.404  0.2783  0.3107 -0.1233
  130MOL0     C17814   5.789   8.826   8.258 -0.6375  0.8123  1.2030
  130MOL0     C17815   5.690   8.928   8.212  0.5327 -0.4524  0.3344
  130MOL0     C17816   5.632   8.928   8.071 -0.3717 -0.1490 -0.4874
  130MOL0     C17817   5.571   8.794   8.022 -0.6137 -0.0241 -0.2343
  130MOL0     C17818   5.474   8.727   8.124 -0.6077  0.2257  0.1124
  130MOL0     N17819   5.350   8.810   8.138 -0.5788 -0.6430  0.2168
  130MOL0     C17820   5.258   8.848   8.039 -0.3500 -0.5492  0.0649
  130MOL0     C17821   5.138   8.883   8.098 -0.4585  0.0221  0.0660
  130MOL0     C17822   5.024   8.934   8.024 -0.5788 -0.0050 -0.2853
  130MOL0     C17823   5.033   9.087   8.027 -0.4356  0.3160  0.8441
  130MOL0     C17824   4.992   9.151   8.155 -0.3837 -1.0688  0.2301
  130MOL0     C17825   5.006   9.305   8.129  0.6732  0.4518  0.1495
  130MOL0     O17826   4.928   9.360   8.020  0.6872 -0.3135 -0.3674
  130MOL0     C17827   4.806   9.407   8.059 -0.4340 -0.2178 -0.8228
  130MOL0     C17828   4.745   9.416   8.186 -0.6626 -0.4899 -0.1420
  130MOL0     C17829   4.615   9.474   8.201 -0.3936 -0.0271 -0.3447
  130MOL0     C17830   4.561   9.467   8.343  0.4742 -0.7601 -0.1303
  130MOL0     C17831   4.544   9.514   8.089 -0.0520 -0.5612 -0.5192
  130MOL0     C17832   4.407   9.575   8.097  0.2756 -0.5035 -0.4086
  130MOL0     O17833   4.362   9.656   7.997 -0.5395  0.4403 -0.7517
  130MOL0     C17834   4.253   9.733   8.000 -0.6502  0.0387  0.9372
  130MOL0     C17835   4.129   9.708   8.066 -0.8256 -0.0510  0.2899
  130MOL0     C17836   4.026   9.799   8.064 -0.5243  0.0875 -1.3476
  130MOL0     C17837   4.035   9.920   7.999  0.6986  0.6846  0.8929
  130MOL0     O17838   3.941  10.018   7.998 -0.8166  0.2285 -0.0409
  130MOL0     C17839   3.799   9.976   7.980  0.2267 -1.8909  0.6521
  130MOL0     C17840   3.710  10.105   7.949 -0.3901  0.2514 -0.3093
  130MOL0     C17841   3.562  10.080   7.992 -0.3830 -0.4767  0.1477
  130MOL0     C17842   3.469  10.168   7.909  0.5567  0.0255 -0.2170
  130MOL0     C17843   3.321  10.122   7.926  0.1565  0.7471 -0.5599
  130MOL0     C17844   3.269  10.148   8.076  0.0764  0.2165 -0.1029
  130MOL0     C17845   3.150  10.054   8.106 -0.3925  0.1538  0.5244
  130MOL0     C17846   3.111  10.058   8.250 -0.0078  0.4237 -0.8002
  130MOL0    Cl17847   2.944   9.988   8.275 -0.2810  0.2101  0.3753
  130MOL0     C17848   4.154   9.946   7.917 -0.3606  0.7114 -0.3064
  130MOL0     C17849   4.262   9.856   7.932  0.2812 -1.1637  0.2142
  130MOL0     O17850   4.343   9.538   8.199 -0.1223 -0.9520  0.5560
  130MOL0     C17851   4.607   9.507   7.967  0.3107 -0.2268  0.2625
  130MOL0     C17852   4.733   9.449   7.949 -0.0736  0.5721  0.2017
  130MOL0     N17853   5.167   8.874   8.231  0.5002 -0.7805  0.5333
  130MOL0     N17854   5.286   8.822   8.254  1.0255 -0.0208  0.2587
  130MOL0     C17855   6.281   8.937   8.597  0.8594  0.3191  0.1131
  130MOL0     C17856   6.407   8.983   8.560  0.0863  0.2446  0.3180
  130MOL0     C17857   6.860   8.972   8.576  0.4113 -0.8489  0.2135
  130MOL0     C17858   6.898   8.894   8.470  0.8180  0.6671 -0.1484
  130MOL0     C17859   7.024   8.898   8.421  0.3572  0.0348 -0.6885
  130MOL0     C17860   7.124   8.970   8.485 -0.4072  0.2584 -0.2270
  130MOL0     O17861   7.243   8.937   8.432 -0.3814 -0.4138  0.4682
  130MOL0     C17862   7.361   9.008   8.473 -0.1317 -0.0955 -0.4993
  130MOL0     C17863   7.413   8.933   8.593  0.7980  0.8091  0.5974
  130MOL0     C17864   7.408   8.775   8.564  0.0233  0.3124 -0.5506
  130MOL0     C17865   7.516   8.702   8.648 -0.3928  0.1227 -0.7596
  130MOL0     C17866   7.570   8.583   8.587 -0.8742  0.6360 -0.5649
  130MOL0     C17867   7.598   8.468   8.544 -0.9755 -0.1897 -0.7201
  130MOL0     C17868   7.091   9.040   8.602 -0.9495  0.5168 -0.6788
  130MOL0     C17869   6.955   9.045   8.647 -0.0674  1.7605  0.3193
  130MOL0     C17870   6.918   9.142   8.766  0.1225  0.6156  0.3474
  130MOL0     H17871   6.563   8.680   8.522  2.2377  1.8940  0.6122
  130MOL0     H17872   6.321   8.605   8.575 -5.4253  2.0349  1.4586
  130MOL0     H17873   6.000   8.928   8.584 -0.1886  0.7779  3.0684
  130MOL0     H17874   5.931   8.788   8.652  1.2482  2.3538  1.5148
  130MOL0     H17875   6.038   8.780   8.373  0.4478 -1.2681  0.9287
  130MOL0     H17876   5.918   8.670   8.456 -2.4922  1.3731  0.5310
  130MOL0     H17877   5.749   8.824   8.476  0.0845 -0.2033 -0.5120
  130MOL0     H17878   5.841   8.959   8.405 -1.0864  0.5142  1.2851
  130MOL0     H17879   5.878   8.841   8.195  0.1813 -2.9090  1.2673
  130MOL0     H17880   5.752   8.724   8.246  1.9776 -0.3198  2.1470
  130MOL0     H17881   5.743   9.024   8.218 -2.7184  1.4982  0.6825
  130MOL0     H17882   5.606   8.940   8.282 -1.6205  2.1202 -2.3970
  130MOL0     H17883   5.561   9.011   8.072 -1.5282 -1.0845  1.5432
  130MOL0     H17884   5.714   8.952   8.003 -0.1541 -1.1786 -0.6016
  130MOL0     H17885   5.650   8.720   8.006 -0.3647  0.6961 -2.8734
  130MOL0     H17886   5.530   8.807   7.921  2.1899 -0.1723 -1.4860
  130MOL0     H17887   5.447   8.624   8.099  0.0328  0.2254 -0.6385
  130MOL0     H17888   5.528   8.717   8.218  1.7230  3.2457 -0.7396
  130MOL0     H17889   5.276   8.841   7.932  1.3675 -0.8308  0.3437
  130MOL0     H17890   4.936   8.884   8.066 -1.5328  2.1258  0.3731
  130MOL0     H17891   5.040   8.903   7.920  0.0885 -0.1307 -0.1494
  130MOL0     H17892   5.135   9.105   7.991  0.4272  0.2657  3.0846
  130MOL0     H17893   4.967   9.116   7.945  0.1111 -2.7440 -0.8090
  130MOL0     H17894   4.887   9.133   8.180 -1.7173  3.0712 -1.5018
  130MOL0     H17895   5.060   9.125   8.237 -2.8996 -5.2107  1.2751
  130MOL0     H17896   4.982   9.357   8.222  1.4163  0.1428  0.5198
  130MOL0     H17897   5.112   9.331   8.112  0.2625  2.0501 -0.1467
  130MOL0     H17898   4.794   9.378   8.274 -0.5336 -3.9654 -1.5781
  130MOL0     H17899   4.645   9.470   8.413  0.6008  0.5753 -0.3147
  130MOL0     H17900   4.491   9.387   8.367 -1.7351  1.6603  2.0251
  130MOL0     H17901   4.512   9.561   8.370  0.2052 -1.2544  1.1614
  130MOL0     H17902   4.130   9.621   8.131  0.7082  1.2351  2.1091
  130MOL0     H17903   3.935   9.791   8.123  1.3512 -0.6278  1.6133
  130MOL0     H17904   3.779   9.904   7.900  0.7613 -0.7435 -0.5616
  130MOL0     H17905   3.762   9.962   8.082 -1.0110  3.1572  1.1742
  130MOL0     H17906   3.747  10.194   8.001  1.0729 -0.0680 -0.7656
  130MOL0     H17907   3.704  10.126   7.841 -0.9992  2.4033  0.0824
  130MOL0     H17908   3.546  10.109   8.097 -1.7631  1.5354 -0.5745
  130MOL0     H17909   3.527   9.977   7.977 -1.1696 -0.4726  1.6810
  130MOL0     H17910   3.506  10.163   7.806  2.5458 -1.2509  0.4936
  130MOL0     H17911   3.479  10.272   7.940 -0.0600 -0.6984  2.6738
  130MOL0     H17912   3.257  10.182   7.861 -1.0239 -1.4050 -1.5064
  130MOL0     H17913   3.306  10.017   7.900 -0.6664  1.4743 -3.4006
  130MOL0     H17914   3.230  10.250   8.079 -0.2001  0.1507 -1.0250
  130MOL0     H17915   3.343  10.122   8.152 -3.0173 -1.4844  2.5680
  130MOL0     H17916   3.170   9.956   8.060  0.5330  1.9815 -3.4071
  130MOL0     H17917   3.070  10.108   8.056  0.1468 -1.5155 -2.3901
  130MOL0     H17918   3.105  10.162   8.281  1.4176  0.5986 -1.0250
  130MOL0     H17919   3.193  10.009   8.304  0.5878  1.9899 -0.2394
  130MOL0     H17920   4.157  10.036   7.857 -0.0879  1.0892  0.2614
  130MOL0     H17921   4.357   9.889   7.893  0.9674 -1.3716  1.6456
  130MOL0     H17922   4.546   9.541   7.883  1.5381 -0.3943 -0.7248
  130MOL0     H17923   4.778   9.441   7.851  1.2789 -2.1492  0.9432
  130MOL0     H17924   6.207   9.015   8.610 -1.7501 -1.8706 -0.7387
  130MOL0     H17925   6.430   9.087   8.539 -0.6428  0.0281 -1.8259
  130MOL0     H17926   6.827   8.824   8.425 -0.0204  0.4644  1.4229
  130MOL0     H17927   7.046   8.818   8.351  1.0272 -1.0675  0.7399
  130MOL0     H17928   7.430   9.022   8.389  1.1376  1.3012  0.7005
  130MOL0     H17929   7.331   9.108   8.506 -3.8568 -1.2204 -0.0415
  130MOL0     H17930   7.340   8.952   8.672 -1.0987  1.0470 -1.1220
  130MOL0     H17931   7.514   8.963   8.624  0.2698  3.1021  0.2239
  130MOL0     H17932   7.308   8.739   8.591  0.6735 -1.6209 -0.5279
  130MOL0     H17933   7.424   8.750   8.458  0.1604  0.3898 -0.5492
  130MOL0     H17934   7.464   8.671   8.739  1.4531  2.3507  1.1916
  130MOL0     H17935   7.601   8.770   8.663  0.2939 -0.5336 -1.5934
  130MOL0     H17936   7.603   8.372   8.497 -0.5116 -0.0775 -0.9022
  130MOL0     H17937   7.171   9.086   8.659 -0.5354 -1.3383  0.3060
  130MOL0     H17938   6.827   9.199   8.743  0.5286  2.1949  2.2542
  130MOL0     H17939   6.895   9.085   8.857 -3.2127  0.5065 -0.4581
  130MOL0     H17940   6.997   9.214   8.790  0.6708 -0.5938  2.4365
  131MOL0     O17941   5.434   4.738   6.593  0.2816 -0.1903  0.3920
  131MOL0     C17942   5.379   4.762   6.697  0.1092  0.0114 -1.4176
  131MOL0     O17943   5.293   4.871   6.715  0.3345  0.1082 -0.2419
  131MOL0     C17944   5.209   4.908   6.600 -0.2902  0.1236 -0.2765
  131MOL0     C17945   5.180   5.043   6.577 -0.7894 -0.7818  0.7274
  131MOL0     C17946   5.101   5.083   6.463 -0.0524  0.5405 -0.5824
  131MOL0     C17947   5.046   4.989   6.378  0.1595 -0.5951 -0.1543
  131MOL0     O17948   4.981   5.036   6.265 -0.6492  0.4698  0.5943
  131MOL0     C17949   4.846   5.062   6.307 -0.0986  0.0562  1.1662
  131MOL0     C17950   4.754   5.033   6.185  0.4637 -0.4894  0.9387
  131MOL0     C17951   4.746   4.887   6.152  0.0683  0.4721 -0.6826
  131MOL0     C17952   4.606   4.840   6.103  0.4019 -0.5819  0.0208
  131MOL0     C17953   4.602   4.713   6.025  0.1980 -0.2184 -0.0206
  131MOL0     C17954   4.643   4.745   5.880 -0.3154 -1.2734  0.4084
  131MOL0     C17955   4.657   4.623   5.787 -0.2102 -0.3789 -0.2571
  131MOL0     C17956   4.749   4.524   5.857  0.4600  0.6627  0.6100
  131MOL0     N17957   4.886   4.565   5.886 -0.5320 -0.9590 -0.0946
  131MOL0     C17958   4.979   4.612   5.797 -0.2965  0.4405  0.6663
  131MOL0     C17959   5.086   4.643   5.866  0.2831 -0.2091  0.0110
  131MOL0     C17960   5.210   4.706   5.806  0.3979  0.2530  0.1785
  131MOL0     C17961   5.277   4.807   5.896 -0.1193 -0.5359 -0.1567
  131MOL0     C17962   5.208   4.938   5.933 -0.5120  0.3175 -0.0864
  131MOL0     C17963   5.273   4.990   6.064  0.1002  0.0467 -0.6370
  131MOL0     O17964   5.417   5.005   6.054 -0.5418 -0.0719  0.4810
  131MOL0     C17965   5.490   5.029   6.168  0.3055  0.5638 -0.2902
  131MOL0     C17966   5.611   5.086   6.156  0.4782 -0.0607 -0.1139
  131MOL0     C17967   5.698   5.110   6.270  0.6355 -1.0028  0.3550
  131MOL0     C17968   5.821   5.190   6.243 -0.0784  0.0520 -0.1603
  131MOL0     C17969   5.661   5.073   6.401  0.1820  0.3222 -0.4637
  131MOL0     C17970   5.737   5.100   6.532  0.1226 -0.2214  0.1160
  131MOL0     O17971   5.716   5.013   6.639  0.0208 -0.0784  0.7710
  131MOL0     C17972   5.809   5.003   6.741 -0.5220  0.3522 -0.6588
  131MOL0     C17973   5.939   5.055   6.753  0.3444 -0.0181 -0.1597
  131MOL0     C17974   6.024   5.027   6.860  0.2193  1.1202  0.1211
  131MOL0     C17975   5.975   4.939   6.964 -0.5722 -0.2298 -0.8885
  131MOL0     O17976   6.048   4.883   7.073  0.1262 -0.0790  0.0795
  131MOL0     C17977   6.181   4.922   7.106 -0.4196 -0.6635  0.2263
  131MOL0     C17978   6.176   5.058   7.186  0.0530 -0.4017  0.1090
  131MOL0     C17979   6.298   5.133   7.201 -1.4298  0.9936  0.3162
  131MOL0     C17980   6.403   5.054   7.284  0.3608 -0.0645 -0.1856
  131MOL0     C17981   6.532   5.139   7.290  0.4603 -0.8561  0.1735
  131MOL0     C17982   6.572   5.164   7.442  0.6790  0.5301  0.0719
  131MOL0     C17983   6.653   5.043   7.503 -0.1724 -0.3794  0.2792
  131MOL0     C17984   6.700   5.097   7.647 -0.3847  0.7337  0.0530
  131MOL0    Cl17985   6.828   5.232   7.632 -0.2017  0.4932 -0.2896
  131MOL0     C17986   5.846   4.895   6.961 -0.1516 -1.0800 -0.3279
  131MOL0     C17987   5.765   4.929   6.850 -0.1437  1.0313 -0.2497
  131MOL0     O17988   5.809   5.202   6.536  0.6031  0.4882 -0.6784
  131MOL0     C17989   5.534   5.006   6.406  0.7723  0.5917  0.1053
  131MOL0     C17990   5.445   4.999   6.298  0.5011 -0.1908  0.5595
  131MOL0     N17991   5.071   4.607   6.004 -0.0017  0.2939  0.4791
  131MOL0     N17992   4.949   4.568   6.007  0.8546 -0.7412 -0.0221
  131MOL0     C17993   5.081   4.856   6.400  1.1435 -0.1056 -0.1526
  131MOL0     C17994   5.166   4.813   6.508  1.1120 -0.0087 -0.0721
  131MOL0     C17995   5.433   4.691   6.813  0.2998  0.5337  0.2704
  131MOL0     C17996   5.538   4.598   6.789  0.4435  0.2549 -0.5262
  131MOL0     C17997   5.592   4.531   6.898 -0.1116  0.2397 -0.0626
  131MOL0     C17998   5.547   4.559   7.033  0.5722 -0.2800 -0.4550
  131MOL0     O17999   5.607   4.511   7.153  0.4740  0.0851 -0.2853
  131MOL0     C18000   5.713   4.413   7.141  0.4789  0.1461 -0.1619
  131MOL0     C18001   5.646   4.276   7.092 -0.1336  1.0465  0.4385
  131MOL0     C18002   5.741   4.165   7.129 -0.1513 -0.6947  0.3315
  131MOL0     C18003   5.670   4.033   7.135 -0.6217  0.0621 -0.7206
  131MOL0     C18004   5.776   3.944   7.187 -0.3885 -0.3241 -0.4958
  131MOL0     C18005   5.876   3.880   7.222  0.1229  0.4210  0.1665
  131MOL0     C18006   5.449   4.650   7.057 -1.2075  0.0245 -0.1458
  131MOL0     C18007   5.390   4.716   6.950  0.4668 -1.3054 -0.2600
  131MOL0     C18008   5.306   4.840   7.000  0.8173 -0.5712 -0.1288
  131MOL0     H18009   5.216   5.123   6.640  1.3869  0.6590 -2.1324
  131MOL0     H18010   5.097   5.190   6.445  0.1178  0.4070 -1.4417
  131MOL0     H18011   4.840   5.167   6.339 -0.5559  0.0589  1.0861
  131MOL0     H18012   4.820   4.992   6.386 -1.6687  0.5183  1.0978
  131MOL0     H18013   4.655   5.077   6.200 -0.2801 -0.8529 -2.2328
  131MOL0     H18014   4.801   5.087   6.102  0.0322 -0.8263  0.4708
  131MOL0     H18015   4.820   4.865   6.074  1.4881  0.2853  0.6842
  131MOL0     H18016   4.757   4.832   6.245 -4.1999  2.9524  1.5871
  131MOL0     H18017   4.529   4.845   6.181 -1.0940  1.3352 -1.4661
  131MOL0     H18018   4.563   4.918   6.040  1.4959  0.1462  0.1584
  131MOL0     H18019   4.499   4.677   6.031  0.3163 -1.0322 -2.1804
  131MOL0     H18020   4.669   4.638   6.068  3.3842  1.1841 -2.1221
  131MOL0     H18021   4.569   4.808   5.830  0.1612 -0.5966  0.5449
  131MOL0     H18022   4.738   4.799   5.872 -1.1509  0.1528 -0.2121
  131MOL0     H18023   4.705   4.657   5.694 -1.9007 -0.3881 -1.1633
  131MOL0     H18024   4.562   4.578   5.756 -0.3448 -1.3362  1.4273
  131MOL0     H18025   4.712   4.464   5.940  0.3254 -2.8430 -1.7858
  131MOL0     H18026   4.767   4.442   5.786  2.3789  1.0812  0.5616
  131MOL0     H18027   4.969   4.643   5.694  1.6451  4.5078  1.4604
  131MOL0     H18028   5.187   4.744   5.706 -0.4971 -0.4102  0.1147
  131MOL0     H18029   5.291   4.633   5.800 -0.2389 -0.5541  1.0237
  131MOL0     H18030   5.297   4.755   5.990  0.9251 -0.4511 -0.3238
  131MOL0     H18031   5.362   4.838   5.836  0.1787 -1.4758 -0.2297
  131MOL0     H18032   5.234   5.018   5.863  3.4407  0.5104  1.3498
  131MOL0     H18033   5.103   4.923   5.959 -0.5958  0.7009 -0.1914
  131MOL0     H18034   5.228   5.088   6.081 -0.2800 -0.1147 -0.6932
  131MOL0     H18035   5.243   4.939   6.157  3.1729  0.8384  0.9059
  131MOL0     H18036   5.627   5.127   6.056 -2.2674 -2.1079 -1.5112
  131MOL0     H18037   5.905   5.140   6.291 -0.5251  1.1953  1.9279
  131MOL0     H18038   5.803   5.285   6.294  0.2125 -0.8311  1.6950
  131MOL0     H18039   5.835   5.211   6.137 -2.8777  2.8181 -0.1203
  131MOL0     H18040   5.970   5.112   6.666 -0.2226 -1.2601 -1.2280
  131MOL0     H18041   6.127   5.061   6.869  0.1580  0.7705  3.3678
  131MOL0     H18042   6.238   4.851   7.167  5.2869  0.2834 -3.1860
  131MOL0     H18043   6.245   4.932   7.018 -0.0179 -0.0551  0.5779
  131MOL0     H18044   6.115   5.126   7.125  0.0570 -0.3450  0.1686
  131MOL0     H18045   6.121   5.047   7.280  2.8287  0.5363  1.9567
  131MOL0     H18046   6.284   5.232   7.246 -0.6520  0.4348  1.8769
  131MOL0     H18047   6.347   5.144   7.104 -1.6900  3.6129  0.3894
  131MOL0     H18048   6.421   4.952   7.251  2.8486  0.1472  0.3287
  131MOL0     H18049   6.367   5.037   7.386  0.8105  2.0870  0.3876
  131MOL0     H18050   6.608   5.073   7.247  2.0677 -0.1622  1.8443
  131MOL0     H18051   6.527   5.235   7.239  0.1968 -0.9301  0.0532
  131MOL0     H18052   6.476   5.186   7.490 -1.6634  2.2054 -4.7395
  131MOL0     H18053   6.632   5.256   7.440  0.1915  0.8725 -2.3887
  131MOL0     H18054   6.735   5.002   7.443 -0.9401 -0.8870 -0.4374
  131MOL0     H18055   6.579   4.965   7.521  1.7451 -1.7794  2.7768
  131MOL0     H18056   6.747   5.008   7.690 -2.1024  0.2378  1.0010
  131MOL0     H18057   6.611   5.128   7.702  1.0037  0.2889  2.7086
  131MOL0     H18058   5.802   4.829   7.035  1.5888 -1.2360  0.6095
  131MOL0     H18059   5.672   4.876   6.831 -1.0717  1.4861  2.4736
  131MOL0     H18060   5.486   4.975   6.499 -0.8328 -2.2127 -1.5213
  131MOL0     H18061   5.347   4.955   6.319  1.8848 -1.9350  4.2583
  131MOL0     H18062   5.044   4.773   6.341  0.2945 -1.4392  2.1245
  131MOL0     H18063   5.179   4.705   6.516 -2.1660 -0.4308  1.7624
  131MOL0     H18064   5.561   4.574   6.686  0.2939  1.8561 -0.9533
  131MOL0     H18065   5.662   4.454   6.867 -1.6650 -0.4909 -1.9856
  131MOL0     H18066   5.781   4.440   7.060  0.1060  0.3106 -0.4224
  131MOL0     H18067   5.778   4.409   7.229 -1.4462  1.0625  1.3832
  131MOL0     H18068   5.632   4.279   6.984  0.4959  0.6912  0.3397
  131MOL0     H18069   5.556   4.251   7.148  1.1595 -1.6809  1.4734
  131MOL0     H18070   5.820   4.162   7.053 -1.1097 -0.5446 -0.7067
  131MOL0     H18071   5.781   4.194   7.226  3.8317 -0.1430 -1.3087
  131MOL0     H18072   5.620   3.999   7.044 -0.8542 -3.2269  0.5099
  131MOL0     H18073   5.600   4.041   7.219  0.7749 -1.0295  0.6211
  131MOL0     H18074   5.966   3.828   7.248 -0.3918 -0.6529 -0.1742
  131MOL0     H18075   5.433   4.675   7.162 -0.9837 -2.0773  0.4201
  131MOL0     H18076   5.360   4.930   6.968 -4.2787  2.6610 -0.8155
  131MOL0     H18077   5.207   4.851   6.956  1.3198 -3.9352 -2.5058
  131MOL0     H18078   5.302   4.850   7.109 -1.3230  1.3060 -0.3073
  132MOL0     O18079   3.387   2.227  11.371  0.2091 -0.3891  0.6942
  132MOL0     C18080   3.277   2.253  11.319  0.3533  0.5114  0.0765
  132MOL0     O18081   3.160   2.196  11.361  0.0400 -1.1008  0.5628
  132MOL0     C18082   3.156   2.084  11.437  0.8319  0.2201 -0.3339
  132MOL0     C18083   3.199   2.093  11.568  0.3082 -0.3651 -1.0066
  132MOL0     C18084   3.171   1.985  11.659  0.3286 -1.1183  0.1729
  132MOL0     C18085   3.090   1.885  11.612 -0.5085  0.7639 -0.1468
  132MOL0     O18086   3.060   1.786  11.706 -0.0760  0.3448 -0.0102
  132MOL0     C18087   3.150   1.679  11.723  0.2584 -0.2227 -0.3559
  132MOL0     C18088   3.116   1.556  11.631 -0.2382 -1.1490 -0.3092
  132MOL0     C18089   3.186   1.433  11.676  0.2723  0.3138 -0.6008
  132MOL0     C18090   3.340   1.447  11.658  0.1496  0.6003  0.1170
  132MOL0     C18091   3.415   1.326  11.707 -0.3224 -0.6851 -0.1842
  132MOL0     C18092   3.515   1.357  11.819 -0.3767 -0.4914  0.1663
  132MOL0     C18093   3.448   1.400  11.954  0.2749  0.3281  0.6911
  132MOL0     C18094   3.544   1.478  12.043 -0.5783  0.9795 -0.2502
  132MOL0     N18095   3.521   1.618  12.005  0.1050  0.1562  0.0614
  132MOL0     C18096   3.461   1.713  12.088  0.2449 -0.2662  0.1175
  132MOL0     C18097   3.461   1.827  12.016 -0.8440  0.5766 -0.1635
  132MOL0     C18098   3.426   1.963  12.064  1.1283  0.6428 -0.2805
  132MOL0     C18099   3.453   2.001  12.211 -0.4885 -0.1426  0.4234
  132MOL0     C18100   3.595   2.054  12.225 -0.2097 -0.6548  0.2103
  132MOL0     C18101   3.647   2.044  12.368  0.0702 -0.3290 -0.5533
  132MOL0     O18102   3.679   1.911  12.400  0.2087 -0.0102  0.6091
  132MOL0     C18103   3.806   1.877  12.363  0.6260  0.6438  0.2499
  132MOL0     C18104   3.922   1.936  12.407 -0.2231  0.4060 -0.4288
  132MOL0     C18105   4.044   1.890  12.365  1.3316 -0.4331 -0.0389
  132MOL0     C18106   4.168   1.986  12.383 -0.7390  0.1911 -0.2912
  132MOL0     C18107   4.060   1.764  12.284 -0.0372 -0.8750  0.3205
  132MOL0     C18108   4.189   1.699  12.235  0.5533 -0.6480  0.6675
  132MOL0     O18109   4.173   1.590  12.155 -0.1402  1.5304  0.1408
  132MOL0     C18110   4.282   1.502  12.142  0.0405  0.7624 -0.7525
  132MOL0     C18111   4.295   1.402  12.236 -0.9379  1.1388  0.2704
  132MOL0     C18112   4.402   1.315  12.227  0.0834  1.2330 -0.1483
  132MOL0     C18113   4.489   1.330  12.126 -0.5082  0.4934  0.7628
  132MOL0     O18114   4.593   1.244  12.098  0.7376  0.2904 -0.5490
  132MOL0     C18115   4.638   1.152  12.197 -0.7983 -0.7585 -0.2765
  132MOL0     C18116   4.789   1.126  12.186  0.3338 -0.1652 -0.3268
  132MOL0     C18117   4.847   1.025  12.296 -0.2418 -0.2908  0.0053
  132MOL0     C18118   5.000   1.033  12.301 -0.2379 -0.8973  0.1369
  132MOL0     C18119   5.053   0.937  12.396 -0.3417 -0.2463  0.2111
  132MOL0     C18120   5.203   0.937  12.383  0.1759 -0.0624  0.1939
  132MOL0     C18121   5.266   0.834  12.470 -0.1516  0.0086 -0.4060
  132MOL0     C18122   5.416   0.843  12.478 -0.1770  0.2236  0.3655
  132MOL0    Cl18123   5.498   0.732  12.604  0.1769  0.0730  0.5085
  132MOL0     C18124   4.491   1.423  12.026  0.1426 -0.7412  0.8004
  132MOL0     C18125   4.379   1.508  12.031  0.1666  0.2921 -0.2236
  132MOL0     O18126   4.293   1.753  12.272 -0.3571  0.3574  0.2420
  132MOL0     C18127   3.936   1.709  12.246  0.0714 -0.1499 -0.5370
  132MOL0     C18128   3.808   1.769  12.279  0.6003  0.6042 -0.9661
  132MOL0     N18129   3.511   1.801  11.889 -1.2576  0.3479 -0.0867
  132MOL0     N18130   3.531   1.668  11.872  0.2392 -0.3530 -0.7212
  132MOL0     C18131   3.047   1.880  11.475  0.1648  1.3291 -0.1044
  132MOL0     C18132   3.092   1.974  11.390  1.4083 -0.7244  0.9359
  132MOL0     C18133   3.269   2.361  11.218 -0.2820 -0.8744  0.2808
  132MOL0     C18134   3.152   2.417  11.183  0.0885 -0.7961  0.6171
  132MOL0     C18135   3.136   2.515  11.089  0.0609 -0.1006  0.1059
  132MOL0     C18136   3.242   2.559  11.010  0.7392 -1.2100 -1.1616
  132MOL0     O18137   3.218   2.650  10.911  0.2859 -0.3328  0.1163
  132MOL0     C18138   3.318   2.739  10.863  0.4980  0.0531  0.8025
  132MOL0     C18139   3.310   2.863  10.959  0.0565  0.5622  0.2857
  132MOL0     C18140   3.387   2.854  11.098 -0.0696 -0.1228 -0.2675
  132MOL0     C18141   3.311   2.914  11.219 -0.7817 -0.1098  0.0141
  132MOL0     C18142   3.243   3.041  11.189 -0.6609 -0.5348 -0.1345
  132MOL0     C18143   3.181   3.141  11.146 -0.6978  0.6428 -0.6378
  132MOL0     C18144   3.365   2.511  11.051 -0.3615 -0.1744  0.0558
  132MOL0     C18145   3.381   2.413  11.147  0.9703 -0.0615  0.0426
  132MOL0     C18146   3.523   2.365  11.174 -0.1840 -0.7816  0.4585
  132MOL0     H18147   3.266   2.173  11.596  1.5955 -1.3238 -1.2358
  132MOL0     H18148   3.213   1.985  11.760 -0.5314 -2.5154  0.5667
  132MOL0     H18149   3.129   1.649  11.826 -1.0714  0.4763 -0.3996
  132MOL0     H18150   3.256   1.695  11.706  0.4833 -1.9920 -0.8659
  132MOL0     H18151   3.008   1.543  11.642 -0.5282 -0.2503 -1.8417
  132MOL0     H18152   3.141   1.575  11.526  0.6416 -3.8365 -0.6618
  132MOL0     H18153   3.164   1.414  11.782  1.2403  0.7472 -0.3075
  132MOL0     H18154   3.149   1.345  11.622  2.4490 -1.8989  1.1961
  132MOL0     H18155   3.352   1.462  11.551  1.9236 -1.3802 -0.0368
  132MOL0     H18156   3.369   1.535  11.717  0.5554 -0.2945  1.2952
  132MOL0     H18157   3.476   1.286  11.625  1.1362 -0.0793  0.5657
  132MOL0     H18158   3.343   1.252  11.743  1.2513 -3.0492 -1.6066
  132MOL0     H18159   3.583   1.272  11.828 -1.1299 -1.8859 -4.5905
  132MOL0     H18160   3.570   1.444  11.781 -3.0188  1.2318  0.0229
  132MOL0     H18161   3.430   1.306  12.007  1.6379 -0.4365 -0.1382
  132MOL0     H18162   3.358   1.460  11.941  1.7524  2.3482 -0.9767
  132MOL0     H18163   3.525   1.452  12.148 -1.7421 -0.4243 -0.7732
  132MOL0     H18164   3.645   1.452  12.012 -1.9148 -2.3794 -2.3015
  132MOL0     H18165   3.444   1.704  12.195  0.0222  1.7875  0.2950
  132MOL0     H18166   3.320   1.962  12.038  0.5811 -2.6978  1.4780
  132MOL0     H18167   3.483   2.040  12.011  1.2157  1.1206  0.4781
  132MOL0     H18168   3.383   2.081  12.237  0.3931  0.8868 -0.2411
  132MOL0     H18169   3.438   1.915  12.276 -1.9378 -0.7315 -0.6420
  132MOL0     H18170   3.661   1.993  12.163  1.1374 -2.4908  3.2422
  132MOL0     H18171   3.607   2.157  12.188  1.1905 -0.8285  0.1387
  132MOL0     H18172   3.734   2.109  12.382  1.1003 -1.8572  0.4326
  132MOL0     H18173   3.561   2.068  12.430 -0.9431 -3.5509 -0.5395
  132MOL0     H18174   3.909   2.022  12.473  0.4509  1.1342 -1.2145
  132MOL0     H18175   4.152   2.080  12.437  0.1152  1.0237 -1.4518
  132MOL0     H18176   4.198   2.009  12.280  2.3342  0.8668  0.6763
  132MOL0     H18177   4.239   1.915  12.427 -2.7933 -4.0530 -3.1135
  132MOL0     H18178   4.239   1.401  12.329  0.2448 -2.6297  1.1255
  132MOL0     H18179   4.413   1.235  12.300  0.6405 -0.9647 -2.5070
  132MOL0     H18180   4.614   1.195  12.295  0.2637  0.9671 -0.7241
  132MOL0     H18181   4.594   1.056  12.169  3.5598 -2.2251 -3.2200
  132MOL0     H18182   4.815   1.079  12.091 -2.7613  0.5919 -1.6916
  132MOL0     H18183   4.832   1.225  12.204  2.1834 -1.1330  0.8566
  132MOL0     H18184   4.816   0.924  12.265 -0.1265  0.0273 -1.2275
  132MOL0     H18185   4.804   1.048  12.394 -1.0500  0.8870 -0.5989
  132MOL0     H18186   5.025   1.135  12.331 -3.0417  0.0945 -0.5902
  132MOL0     H18187   5.047   1.023  12.202  0.7052  1.1684  0.3143
  132MOL0     H18188   5.037   0.966  12.500 -1.7649 -1.7151  0.4399
  132MOL0     H18189   5.009   0.841  12.369  2.3042 -1.7140  0.7830
  132MOL0     H18190   5.243   1.036  12.405 -0.1465  0.1332 -0.1056
  132MOL0     H18191   5.233   0.907  12.282  1.1572  0.6194  0.2677
  132MOL0     H18192   5.253   0.730  12.436  1.6141 -0.7028  0.9421
  132MOL0     H18193   5.219   0.836  12.568  1.8822 -3.1878  0.7920
  132MOL0     H18194   5.456   0.945  12.478 -0.3479  0.3855 -2.6669
  132MOL0     H18195   5.456   0.797  12.387  1.5460 -1.2109  1.7713
  132MOL0     H18196   4.557   1.421  11.940 -3.3227 -1.9029 -2.0921
  132MOL0     H18197   4.355   1.566  11.943  2.4330 -0.2093 -1.2735
  132MOL0     H18198   3.928   1.616  12.191 -1.3224  1.1018 -2.5838
  132MOL0     H18199   3.711   1.742  12.239 -0.4935  0.6770  1.4687
  132MOL0     H18200   2.975   1.803  11.448 -0.5755  1.5069  1.2482
  132MOL0     H18201   3.062   1.962  11.286  0.7862 -2.5825  1.2807
  132MOL0     H18202   3.063   2.391  11.240  0.9791  0.2988  2.6265
  132MOL0     H18203   3.041   2.563  11.066  0.1986 -0.6520 -1.8306
  132MOL0     H18204   3.421   2.702  10.851  0.3704 -1.2216  2.9042
  132MOL0     H18205   3.283   2.775  10.766  1.1912  0.9078  0.8569
  132MOL0     H18206   3.206   2.862  10.992  0.5448 -3.2715  2.3483
  132MOL0     H18207   3.337   2.954  10.905  2.8423  0.4832  1.3759
  132MOL0     H18208   3.429   2.754  11.113  0.5493  0.2097  0.2735
  132MOL0     H18209   3.468   2.926  11.083  0.3746 -0.9329 -2.1012
  132MOL0     H18210   3.380   2.917  11.304  0.1275  1.0649 -0.7368
  132MOL0     H18211   3.232   2.844  11.247 -1.1751  1.0848  2.1153
  132MOL0     H18212   3.136   3.226  11.100 -0.5035  1.0273 -0.1146
  132MOL0     H18213   3.457   2.535  10.999  0.7468 -3.0363  0.4900
  132MOL0     H18214   3.548   2.267  11.131  2.3927 -0.0737  0.1582
  132MOL0     H18215   3.589   2.438  11.127  0.0293 -1.5363 -0.4554
  132MOL0     H18216   3.547   2.365  11.281  0.8941  0.0041  0.2289
  133MOL0     O18217   0.657  10.479  10.349  0.8465 -0.6687  0.5647
  133MOL0     C18218   0.539  10.505  10.329  0.9587  0.2202  0.1837
  133MOL0     O18219   0.463  10.602  10.380 -0.2611  0.3963  0.0253
  133MOL0     C18220   0.529  10.692  10.465  0.1246  0.0667  0.9413
  133MOL0     C18221   0.557  10.821  10.418 -0.7401 -0.2122 -0.8217
  133MOL0     C18222   0.609  10.917  10.507  0.0154  0.5617 -0.4905
  133MOL0     C18223   0.665  10.878  10.629  0.0293 -0.3259  0.5074
  133MOL0     O18224   0.713  10.967  10.716  0.3154 -0.8735 -0.2950
  133MOL0     C18225   0.851  10.964  10.743 -0.0998  0.8861  0.6247
  133MOL0     C18226   0.929  10.981  10.611 -0.6675 -0.0368 -0.0908
  133MOL0     C18227   1.076  10.965  10.643  0.7749 -0.5484  0.7562
  133MOL0     C18228   1.148  10.962  10.508  0.1115  0.3801 -0.5534
  133MOL0     C18229   1.296  10.936  10.520  0.0934  0.2579  0.1554
  133MOL0     C18230   1.371  10.958  10.385 -0.5430  0.9452  0.1692
  133MOL0     C18231   1.353  10.837  10.292  0.5040  0.0669  0.0356
  133MOL0     C18232   1.480  10.805  10.231  1.0081 -0.1518 -0.2462
  133MOL0     N18233   1.453  10.684  10.154 -1.1159 -0.6153 -0.2239
  133MOL0     C18234   1.416  10.708  10.025 -0.2400 -0.4078 -0.5152
  133MOL0     C18235   1.327  10.614   9.992  0.3438  0.0293  0.5434
  133MOL0     C18236   1.261  10.594   9.854  0.0597  0.2782 -1.6844
  133MOL0     C18237   1.281  10.453   9.786 -0.7648 -1.1061  0.4223
  133MOL0     C18238   1.183  10.441   9.666  0.3190  0.5528  0.0783
  133MOL0     C18239   1.198  10.292   9.621  0.2983  0.1985 -0.2277
  133MOL0     O18240   1.142  10.262   9.491  0.3489  0.1907  0.1585
  133MOL0     C18241   1.143  10.140   9.437  0.0385  1.0028 -0.6762
  133MOL0     C18242   1.049  10.112   9.343  0.9862  0.9100 -0.3026
  133MOL0     C18243   1.044   9.987   9.276  1.1568  0.2256  0.3638
  133MOL0     C18244   0.950   9.969   9.165 -0.5974  0.6571 -0.0727
  133MOL0     C18245   1.123   9.878   9.320 -0.4023 -0.4236  0.1882
  133MOL0     C18246   1.139   9.748   9.255 -0.9041 -0.6060 -0.3688
  133MOL0     O18247   1.206   9.648   9.319  0.4005 -0.5421 -0.1835
  133MOL0     C18248   1.208   9.529   9.253 -0.3613 -0.1574  0.4091
  133MOL0     C18249   1.144   9.411   9.297  0.3130 -0.5241 -0.2399
  133MOL0     C18250   1.168   9.290   9.234  0.0856  0.3239 -1.0357
  133MOL0     C18251   1.254   9.271   9.131 -0.4485 -0.2799  0.5494
  133MOL0     O18252   1.294   9.149   9.081  0.5661  0.1083  0.4686
  133MOL0     C18253   1.343   9.043   9.172  1.0358 -0.3683  1.0316
  133MOL0     C18254   1.492   9.020   9.159  0.9915  0.4945 -0.8094
  133MOL0     C18255   1.537   8.932   9.285 -0.3211 -0.3856 -0.8342
  133MOL0     C18256   1.688   8.884   9.280  0.2503 -0.3835 -0.5603
  133MOL0     C18257   1.724   8.784   9.389 -0.0472 -0.1992 -0.3973
  133MOL0     C18258   1.879   8.796   9.421  0.5139  0.0031  0.4506
  133MOL0     C18259   1.911   8.721   9.554  0.3658 -0.3420 -0.3838
  133MOL0     C18260   2.064   8.698   9.563 -1.0630  0.1826  0.0661
  133MOL0    Cl18261   2.099   8.547   9.664 -0.1436  0.1381 -0.2432
  133MOL0     C18262   1.295   9.390   9.068  0.2018  0.2107  0.0112
  133MOL0     C18263   1.284   9.517   9.130 -1.2936 -0.5929 -0.2173
  133MOL0     O18264   1.102   9.749   9.140 -0.9988 -0.2575 -0.3191
  133MOL0     C18265   1.198   9.900   9.442 -0.1398 -0.4868  0.2449
  133MOL0     C18266   1.209  10.024   9.491 -1.2882 -0.3029 -0.4386
  133MOL0     N18267   1.317  10.526  10.098  0.1531 -0.5072 -0.2407
  133MOL0     N18268   1.391  10.573  10.187 -0.2766  0.0528 -0.1585
  133MOL0     C18269   0.655  10.742  10.663 -0.5626 -0.2265  0.3549
  133MOL0     C18270   0.586  10.650  10.587 -0.3141 -0.8006  0.3398
  133MOL0     C18271   0.472  10.412  10.238 -0.5466 -1.2857  0.2189
  133MOL0     C18272   0.464  10.272  10.266  0.0268  0.2377  0.4042
  133MOL0     C18273   0.416  10.188  10.169 -0.5020 -0.1545  0.2985
  133MOL0     C18274   0.355  10.234  10.056 -0.8920 -0.4245  0.2875
  133MOL0     O18275   0.301  10.139   9.973  0.3664  0.1340  0.0962
  133MOL0     C18276   0.163  10.118  10.011 -0.5094 -0.6290 -0.8686
  133MOL0     C18277   0.125   9.981   9.964 -0.6982 -0.1126 -0.0098
  133MOL0     C18278   0.108   9.970   9.814 -0.3333 -0.9060  0.7269
  133MOL0     C18279   0.051   9.830   9.758  0.3667 -0.0913  0.1344
  133MOL0     C18280   0.136   9.719   9.802 -0.3026  0.1684 -0.0495
  133MOL0     C18281   0.213   9.625   9.818 -0.2236  0.3839  0.5203
  133MOL0     C18282   0.341  10.370  10.037 -1.0045  0.5567 -1.0954
  133MOL0     C18283   0.405  10.466  10.119 -0.5620  0.6389 -0.1360
  133MOL0     C18284   0.404  10.616  10.096  1.5031  0.5616  0.3191
  133MOL0     H18285   0.526  10.838  10.315  0.0756  0.9683 -0.8921
  133MOL0     H18286   0.624  11.016  10.466 -2.5549  1.6120  0.8859
  133MOL0     H18287   0.874  10.867  10.788  1.3365  0.7271 -0.4034
  133MOL0     H18288   0.881  11.043  10.813 -1.5439 -0.7982  3.3254
  133MOL0     H18289   0.892  10.902  10.546 -2.4957 -0.2929  1.1783
  133MOL0     H18290   0.913  11.078  10.562 -0.5987 -0.1082 -0.2543
  133MOL0     H18291   1.109  11.059  10.687  0.3977  1.3846 -2.7045
  133MOL0     H18292   1.098  10.870  10.692 -1.9158 -1.2391  0.7641
  133MOL0     H18293   1.107  10.878  10.452  1.3195  1.0922 -2.5855
  133MOL0     H18294   1.136  11.055  10.451  1.6685  1.4927  0.8429
  133MOL0     H18295   1.325  10.845  10.575  1.3476  0.2247 -0.4992
  133MOL0     H18296   1.342  11.011  10.585 -2.2503  0.7370  1.3583
  133MOL0     H18297   1.338  11.048  10.332 -0.7546  0.6789 -0.1538
  133MOL0     H18298   1.475  10.980  10.411 -1.1789  2.4954  1.5980
  133MOL0     H18299   1.275  10.870  10.222  0.4163  1.4552  0.7486
  133MOL0     H18300   1.327  10.748  10.350  0.9251 -1.2014 -1.6590
  133MOL0     H18301   1.526  10.892  10.183  4.1697 -0.5888  1.6678
  133MOL0     H18302   1.551  10.783  10.312  1.5423  2.7970  0.1897
  133MOL0     H18303   1.438  10.789   9.956  1.0016 -0.4890 -0.2343
  133MOL0     H18304   1.308  10.668   9.788  2.4127  0.7169  0.3424
  133MOL0     H18305   1.152  10.605   9.862 -0.2772 -2.8455 -0.7392
  133MOL0     H18306   1.377  10.447   9.735 -1.1085 -1.1544 -0.2277
  133MOL0     H18307   1.266  10.370   9.856  0.6359 -1.6798  0.0746
  133MOL0     H18308   1.079  10.465   9.689 -1.9573 -5.3678 -2.2659
  133MOL0     H18309   1.221  10.497   9.579  1.1445 -0.9361 -0.5482
  133MOL0     H18310   1.303  10.262   9.623  0.5292  1.0090  0.2644
  133MOL0     H18311   1.139  10.224   9.684  1.0958 -1.5915 -1.3430
  133MOL0     H18312   0.989  10.193   9.304 -1.7683 -1.0921 -0.5787
  133MOL0     H18313   0.896   9.875   9.179 -0.3794  0.6526  0.8179
  133MOL0     H18314   0.998   9.954   9.068  0.6394  0.6115  0.5254
  133MOL0     H18315   0.885  10.057   9.165  1.9665  2.6728 -0.4522
  133MOL0     H18316   1.098   9.413   9.395  1.7243 -2.4262  0.5298
  133MOL0     H18317   1.115   9.204   9.273  0.4600  1.2902  1.8603
  133MOL0     H18318   1.307   9.068   9.272 -0.6487 -0.0355  0.3790
  133MOL0     H18319   1.295   8.947   9.150  1.0087 -0.0748 -0.2592
  133MOL0     H18320   1.520   8.953   9.078  1.5913 -3.4128  2.3088
  133MOL0     H18321   1.552   9.111   9.152 -1.4027  2.1085 -1.4496
  133MOL0     H18322   1.473   8.844   9.285 -0.5689 -0.2237  0.4426
  133MOL0     H18323   1.531   8.998   9.372 -0.9286  1.4563 -2.2016
  133MOL0     H18324   1.753   8.972   9.286  1.7810 -1.4022 -1.6617
  133MOL0     H18325   1.705   8.837   9.182 -2.5291 -1.0905 -0.7817
  133MOL0     H18326   1.663   8.792   9.479 -1.1299  1.3862 -1.2189
  133MOL0     H18327   1.684   8.686   9.360 -4.2299  1.2272 -0.1479
  133MOL0     H18328   1.914   8.898   9.440 -1.4354  0.8259 -0.0922
  133MOL0     H18329   1.928   8.741   9.340  0.3359  0.8527 -0.2478
  133MOL0     H18330   1.873   8.619   9.550  1.6365 -0.7916 -1.8558
  133MOL0     H18331   1.861   8.761   9.643 -2.3438 -3.8806 -0.0965
  133MOL0     H18332   2.120   8.784   9.600  2.4971 -1.8534 -0.1635
  133MOL0     H18333   2.106   8.675   9.465 -0.3383  1.3231  0.0981
  133MOL0     H18334   1.366   9.385   8.986  0.9519 -0.0838  0.6562
  133MOL0     H18335   1.340   9.599   9.086  1.5404 -2.0324  0.4455
  133MOL0     H18336   1.244   9.814   9.490  1.9748 -0.2284 -1.1625
  133MOL0     H18337   1.275  10.034   9.577  0.7821 -3.3926 -1.4814
  133MOL0     H18338   0.713  10.711  10.750  1.6923  1.0499 -0.5998
  133MOL0     H18339   0.587  10.546  10.619 -1.1248 -1.8393 -2.6502
  133MOL0     H18340   0.505  10.226  10.355 -1.2718  0.9581  1.4097
  133MOL0     H18341   0.427  10.081  10.181 -2.5172 -0.1335  3.6331
  133MOL0     H18342   0.150  10.126  10.119 -2.4762  0.0942 -1.1217
  133MOL0     H18343   0.099  10.194   9.964  0.0402 -1.1834 -2.5602
  133MOL0     H18344   0.035   9.951  10.018  0.7500 -4.4401  0.3945
  133MOL0     H18345   0.207   9.910   9.981  0.0764  0.7682  0.0446
  133MOL0     H18346   0.038  10.049   9.783 -0.0205 -0.8259  0.2075
  133MOL0     H18347   0.206   9.987   9.770 -1.0578 -0.0088 -0.6460
  133MOL0     H18348   0.043   9.818   9.650  0.1031 -0.3333  0.1788
  133MOL0     H18349  -0.050   9.822   9.801  1.3930 -0.1318  2.7368
  133MOL0     H18350   0.276   9.539   9.824 -2.6506 -1.7313 -2.0083
  133MOL0     H18351   0.290  10.404   9.947 -3.6723  2.5011  0.9495
  133MOL0     H18352   0.355  10.640  10.001  1.0427  0.3043  0.4910
  133MOL0     H18353   0.358  10.668  10.181 -1.2914 -1.6857  0.2897
  133MOL0     H18354   0.510  10.645  10.087  1.3838  0.7776 -0.4474
  134MOL0     O18355   9.187   9.119   0.048  0.1863 -0.7403 -0.8217
  134MOL0     C18356   9.304   9.148   0.082  0.6762  0.7527  0.5334
  134MOL0     O18357   9.335   9.195   0.209  0.2133  0.3544  0.0964
  134MOL0     C18358   9.241   9.189   0.310 -0.3022  0.7945  0.7427
  134MOL0     C18359   9.208   9.071   0.373  0.2068 -0.3054  0.4265
  134MOL0     C18360   9.110   9.074   0.482  0.6182  0.3114  0.9695
  134MOL0     C18361   9.062   9.193   0.538  0.0999 -0.0510 -0.9019
  134MOL0     O18362   8.985   9.181   0.656  0.0632 -0.3445  0.0711
  134MOL0     C18363   8.915   9.300   0.695 -0.4698 -0.2983 -0.5647
  134MOL0     C18364   8.990   9.374   0.796 -1.0560 -0.2762  0.0584
  134MOL0     C18365   8.907   9.490   0.848 -0.8328  0.2301 -0.1690
  134MOL0     C18366   8.975   9.624   0.806 -0.1177  0.1365 -0.2713
  134MOL0     C18367   8.937   9.762   0.877 -0.7272  0.1555 -0.5390
  134MOL0     C18368   8.791   9.796   0.860  0.7705  0.0199  0.5861
  134MOL0     C18369   8.721   9.898   0.954 -0.2145  0.0776  0.1596
  134MOL0     C18370   8.666   9.837   1.091  0.1707 -0.9875 -0.2097
  134MOL0     N18371   8.764   9.751   1.156  0.6408 -0.2051  0.0230
  134MOL0     C18372   8.872   9.803   1.230  0.1119  0.0292  0.7777
  134MOL0     C18373   8.942   9.692   1.261 -0.0402 -0.4556 -0.6570
  134MOL0     C18374   9.081   9.694   1.330  0.7013 -0.4481  0.3691
  134MOL0     C18375   9.168   9.560   1.305 -1.1522 -0.1974  0.0556
  134MOL0     C18376   9.182   9.514   1.155  0.4621 -0.4725 -0.1796
  134MOL0     C18377   9.261   9.391   1.148 -0.3320  0.4286  0.1587
  134MOL0     O18378   9.261   9.332   1.016 -0.9032 -0.1430  0.3945
  134MOL0     C18379   9.346   9.376   0.912 -0.0701  0.0941  0.3775
  134MOL0     C18380   9.436   9.480   0.922  0.4947  0.4599 -0.2850
  134MOL0     C18381   9.535   9.512   0.823  1.0758  0.9235  0.1080
  134MOL0     C18382   9.629   9.618   0.854  0.0468  0.2066 -0.2171
  134MOL0     C18383   9.520   9.449   0.691  0.1717  0.4785  0.0477
  134MOL0     C18384   9.603   9.467   0.567  0.2989  0.1999 -0.5095
  134MOL0     O18385   9.568   9.399   0.456 -0.1408  0.9150 -0.0339
  134MOL0     C18386   9.644   9.418   0.336  0.2961  0.7630 -0.2024
  134MOL0     C18387   9.717   9.313   0.284 -0.0729  0.3600  0.2308
  134MOL0     C18388   9.806   9.338   0.181  0.0798  0.5358  0.1199
  134MOL0     C18389   9.827   9.462   0.128 -0.3794 -0.1327 -0.0514
  134MOL0     O18390   9.902   9.481   0.013 -0.2092 -0.3304 -0.4377
  134MOL0     C18391   9.954   9.610  -0.010 -0.1576 -0.2029 -0.7742
  134MOL0     C18392  10.052   9.610  -0.128 -0.2832  0.4170  0.2100
  134MOL0     C18393  10.190   9.568  -0.086 -0.9689 -0.4829 -0.3070
  134MOL0     C18394  10.195   9.422  -0.116 -0.0275  0.3587  0.2320
  134MOL0     C18395  10.344   9.387  -0.117 -0.1356 -0.4400  0.5449
  134MOL0     C18396  10.366   9.243  -0.169  0.6903  0.1503 -0.7005
  134MOL0     C18397  10.319   9.154  -0.051  0.3231  0.6358  0.4561
  134MOL0     C18398  10.385   9.019  -0.069  0.6834 -1.2509  0.6537
  134MOL0    Cl18399  10.309   8.942  -0.209 -0.0214 -0.1983 -0.1231
  134MOL0     C18400   9.749   9.564   0.187 -0.3798 -0.6537  0.2342
  134MOL0     C18401   9.653   9.544   0.285 -0.5780  0.0280 -0.0014
  134MOL0     O18402   9.698   9.544   0.578 -0.2513  0.3269 -0.1022
  134MOL0     C18403   9.422   9.341   0.689  0.3271 -0.9689 -0.7732
  134MOL0     C18404   9.331   9.315   0.790 -0.0272 -0.4071 -0.7619
  134MOL0     N18405   8.864   9.583   1.218 -0.4340 -0.3466 -0.6966
  134MOL0     N18406   8.756   9.622   1.166 -0.6025  0.0164  0.2859
  134MOL0     C18407   9.111   9.312   0.478 -0.0183  0.1078  0.5150
  134MOL0     C18408   9.192   9.312   0.363 -0.0777  1.0269  0.8655
  134MOL0     C18409   9.402   9.163  -0.027 -0.1279  0.6981 -1.1576
  134MOL0     C18410   9.498   9.267  -0.006 -0.0545  0.1001  0.5268
  134MOL0     C18411   9.600   9.296  -0.096  0.0048  0.0709 -0.5823
  134MOL0     C18412   9.609   9.219  -0.211  0.9216 -0.3779 -0.4630
  134MOL0     O18413   9.718   9.221  -0.288  0.3432 -0.0143  0.0902
  134MOL0     C18414   9.848   9.199  -0.234  0.0673 -0.6464 -0.4143
  134MOL0     C18415   9.941   9.121  -0.338  0.2031  0.4187 -0.0644
  134MOL0     C18416   9.966   9.198  -0.467 -0.3750 -0.1490  1.2203
  134MOL0     C18417   9.855   9.187  -0.578 -0.1318 -0.5267  0.2054
  134MOL0     C18418   9.894   9.192  -0.721 -0.3107  0.2323 -0.9076
  134MOL0     C18419   9.923   9.162  -0.842  0.6132 -0.3043  0.2857
  134MOL0     C18420   9.518   9.111  -0.237 -0.3761 -1.0028 -0.2534
  134MOL0     C18421   9.407   9.093  -0.152  0.1522 -0.2944  0.2186
  134MOL0     C18422   9.315   8.973  -0.191  0.3131  0.9598  0.2477
  134MOL0     H18423   9.253   8.982   0.329  0.9105  0.9119 -1.4448
  134MOL0     H18424   9.083   8.978   0.524 -1.2804 -0.0698 -0.9528
  134MOL0     H18425   8.818   9.264   0.731 -1.1197  0.2857 -1.6821
  134MOL0     H18426   8.894   9.366   0.610  1.7001 -2.7771 -3.2572
  134MOL0     H18427   9.014   9.309   0.881  1.6268 -1.2356 -1.3363
  134MOL0     H18428   9.088   9.411   0.765 -1.0392 -1.9547 -2.1367
  134MOL0     H18429   8.804   9.480   0.813 -1.4126 -0.1534  1.5270
  134MOL0     H18430   8.884   9.493   0.955 -2.1725  2.4225 -0.4413
  134MOL0     H18431   9.082   9.607   0.826 -0.2068 -0.4286 -0.2512
  134MOL0     H18432   8.962   9.620   0.698  1.5515  2.1550 -0.6192
  134MOL0     H18433   8.994   9.849   0.842  3.0329 -1.4271  1.1319
  134MOL0     H18434   8.972   9.745   0.979  0.3025  0.1355 -0.8786
  134MOL0     H18435   8.779   9.825   0.755  0.8540 -0.9038  0.3099
  134MOL0     H18436   8.736   9.703   0.877  2.3894 -1.2718 -0.8297
  134MOL0     H18437   8.654   9.967   0.902  3.1075  3.5397  0.0325
  134MOL0     H18438   8.802   9.963   0.987 -0.0275 -0.8922  1.7377
  134MOL0     H18439   8.628   9.915   1.158 -0.0674 -1.3205  0.0526
  134MOL0     H18440   8.573   9.786   1.063  1.5787 -3.2868 -0.9440
  134MOL0     H18441   8.872   9.906   1.262 -3.2895 -0.1945  1.8179
  134MOL0     H18442   9.060   9.714   1.436 -0.1965  0.0013  0.1217
  134MOL0     H18443   9.148   9.770   1.289  1.0656 -0.8192  0.2676
  134MOL0     H18444   9.267   9.584   1.344 -2.0509  1.0365  1.6989
  134MOL0     H18445   9.133   9.475   1.363  2.8993 -3.1050 -1.3255
  134MOL0     H18446   9.082   9.495   1.116  0.1012  1.2765 -0.1588
  134MOL0     H18447   9.238   9.588   1.097  0.4792 -0.7560 -0.5286
  134MOL0     H18448   9.361   9.411   1.189  0.8720  0.5855 -2.6439
  134MOL0     H18449   9.219   9.307   1.205  0.9517 -0.5739 -0.2933
  134MOL0     H18450   9.457   9.531   1.016  2.0601  0.1868 -0.4704
  134MOL0     H18451   9.576   9.694   0.912 -2.0456  0.5099 -2.3930
  134MOL0     H18452   9.673   9.665   0.766  2.4504 -0.9679  0.2691
  134MOL0     H18453   9.721   9.592   0.908 -0.0998  2.2460  1.1117
  134MOL0     H18454   9.705   9.210   0.315  0.0114  0.2653 -0.0406
  134MOL0     H18455   9.869   9.259   0.142 -0.0257 -0.1989  1.3960
  134MOL0     H18456   9.878   9.679  -0.048 -1.1209 -1.4118 -1.1137
  134MOL0     H18457  10.005   9.654   0.076  0.9121 -0.9598 -1.0096
  134MOL0     H18458   9.999   9.549  -0.201 -2.7742  0.5848  1.7967
  134MOL0     H18459  10.065   9.714  -0.161 -0.2226  0.9350  1.7915
  134MOL0     H18460  10.222   9.595   0.015 -0.1183  4.0782 -1.5595
  134MOL0     H18461  10.260   9.627  -0.146  1.0576 -1.2082  1.2075
  134MOL0     H18462  10.151   9.409  -0.215 -1.0853  1.2347  0.5615
  134MOL0     H18463  10.144   9.372  -0.033 -0.9605 -2.9289 -2.1160
  134MOL0     H18464  10.405   9.454  -0.176  1.4439  2.2735  4.7754
  134MOL0     H18465  10.383   9.405  -0.016 -1.8976 -0.4976  1.2928
  134MOL0     H18466  10.475   9.235  -0.179  1.1045  0.7804  2.3162
  134MOL0     H18467  10.305   9.243  -0.260  0.3298  0.6303 -0.4655
  134MOL0     H18468  10.210   9.152  -0.062  0.5692 -0.6801 -2.6805
  134MOL0     H18469  10.344   9.194   0.048  0.4358 -1.1400  1.1859
  134MOL0     H18470  10.375   8.970   0.028 -0.2402  0.7208  1.6267
  134MOL0     H18471  10.490   9.041  -0.092  0.1352 -0.0053 -0.8763
  134MOL0     H18472   9.767   9.669   0.164 -2.4286  0.0586  1.6200
  134MOL0     H18473   9.583   9.615   0.327 -0.7053  1.5041 -2.5507
  134MOL0     H18474   9.416   9.294   0.591 -0.5824 -0.4674 -0.9719
  134MOL0     H18475   9.263   9.231   0.783 -2.5823  1.5044 -0.1753
  134MOL0     H18476   9.087   9.413   0.511 -0.2553  0.0491  0.5220
  134MOL0     H18477   9.218   9.404   0.311 -2.2149  0.5249 -1.2640
  134MOL0     H18478   9.490   9.330   0.082  0.4725 -1.0302  1.4098
  134MOL0     H18479   9.675   9.372  -0.075 -2.9972  2.5957  1.9527
  134MOL0     H18480   9.899   9.293  -0.210 -1.4926 -0.8059  4.4234
  134MOL0     H18481   9.826   9.150  -0.139 -2.4447  2.7020  0.9187
  134MOL0     H18482   9.891   9.026  -0.360  0.9405  0.4677 -2.1627
  134MOL0     H18483  10.037   9.109  -0.287  1.7116 -2.6791 -3.2226
  134MOL0     H18484   9.977   9.305  -0.447 -1.0093  0.3340 -0.7729
  134MOL0     H18485  10.065   9.168  -0.502  0.1734 -1.9792  3.9961
  134MOL0     H18486   9.776   9.262  -0.567 -0.6130 -0.8106 -1.1199
  134MOL0     H18487   9.809   9.088  -0.573 -0.1461 -0.5691 -0.6361
  134MOL0     H18488   9.931   9.152  -0.949 -1.8888 -0.3658  0.0329
  134MOL0     H18489   9.554   9.044  -0.314  0.8495 -0.0993 -0.5031
  134MOL0     H18490   9.342   8.947  -0.294  1.7044  0.2569  0.7687
  134MOL0     H18491   9.324   8.888  -0.124  3.5050  0.1156 -1.0480
  134MOL0     H18492   9.211   9.007  -0.187  0.3073  1.0867 -0.6456
  135MOL0     O18493   6.950  10.711  10.673  0.5376 -0.4535  0.0144
  135MOL0     C18494   6.906  10.802  10.607 -0.0088 -0.3781  0.0176
  135MOL0     O18495   6.944  10.835  10.481  0.3032  0.2526  0.0358
  135MOL0     C18496   7.053  10.760  10.435  1.0555 -0.0734  0.3114
  135MOL0     C18497   7.029  10.659  10.335  0.5914  0.9394 -0.2902
  135MOL0     C18498   7.134  10.591  10.285  0.0403 -0.4124  0.1417
  135MOL0     C18499   7.267  10.631  10.314 -0.3201 -1.0215  0.2161
  135MOL0     O18500   7.364  10.565  10.243  0.2592 -0.6479 -0.8142
  135MOL0     C18501   7.480  10.633  10.202 -0.3597  0.1310  0.1547
  135MOL0     C18502   7.593  10.624  10.306 -0.8489 -0.3471 -0.9150
  135MOL0     C18503   7.702  10.736  10.317 -0.6352  0.3414  0.2087
  135MOL0     C18504   7.839  10.689  10.374 -0.6458  0.6721 -0.7197
  135MOL0     C18505   7.918  10.595  10.287 -0.3402  0.3317  0.0429
  135MOL0     C18506   7.983  10.669  10.160  0.6812  0.4845  0.5789
  135MOL0     C18507   8.105  10.590  10.104  0.0649  0.2689  0.3829
  135MOL0     C18508   8.152  10.653   9.973 -0.2484  0.0856 -0.9529
  135MOL0     N18509   8.172  10.801   9.957  0.0600 -0.4552  0.1737
  135MOL0     C18510   8.237  10.867   9.853  0.3293  1.3615 -0.7828
  135MOL0     C18511   8.290  10.981   9.902  0.5173  0.1004  0.8865
  135MOL0     C18512   8.391  11.068   9.837 -0.7127  0.3311 -0.9339
  135MOL0     C18513   8.336  11.181   9.752  0.4225  0.2497 -0.4733
  135MOL0     C18514   8.450  11.256   9.682 -0.5659  0.0360  0.3410
  135MOL0     C18515   8.410  11.365   9.588  0.3835  0.4621 -0.2801
  135MOL0     O18516   8.477  11.354   9.466 -0.1448  0.0308 -0.7988
  135MOL0     C18517   8.448  11.436   9.366  0.8741  0.1316  0.9727
  135MOL0     C18518   8.523  11.426   9.251 -0.3042  0.3038 -0.2121
  135MOL0     C18519   8.487  11.492   9.135 -0.1922  0.6073 -0.3617
  135MOL0     C18520   8.566  11.457   9.006  0.2115  0.4389 -0.3824
  135MOL0     C18521   8.380  11.585   9.136  0.1856  0.8833  0.6537
  135MOL0     C18522   8.329  11.648   9.013 -0.7501  0.3393 -0.4676
  135MOL0     O18523   8.211  11.717   9.030 -0.8747  0.1302 -0.0281
  135MOL0     C18524   8.170  11.799   8.931 -0.2681  0.1361  0.6149
  135MOL0     C18525   8.051  11.763   8.860  0.0168 -0.7348 -0.0565
  135MOL0     C18526   7.991  11.849   8.765  0.8174 -0.4838 -0.9792
  135MOL0     C18527   8.047  11.971   8.731 -0.3171 -0.2592 -0.4635
  135MOL0     O18528   7.980  12.059   8.649 -0.0333 -0.3337  0.5142
  135MOL0     C18529   7.865  12.027   8.570 -0.0962 -0.2816  0.0395
  135MOL0     C18530   7.734  12.078   8.637  1.1321  0.2817 -0.9721
  135MOL0     C18531   7.611  12.044   8.556  0.0522 -0.0608  0.4399
  135MOL0     C18532   7.606  12.101   8.419 -0.3729 -0.1631 -0.8933
  135MOL0     C18533   7.473  12.073   8.348  0.1376  0.1314  0.1096
  135MOL0     C18534   7.468  12.136   8.213 -0.1299 -0.1658  0.5494
  135MOL0     C18535   7.333  12.112   8.155  0.1901 -0.6436  0.8092
  135MOL0     C18536   7.305  12.197   8.024 -0.0650 -1.1728 -0.5099
  135MOL0    Cl18537   7.437  12.193   7.907  0.2805  0.7180  0.2367
  135MOL0     C18538   8.164  12.003   8.802 -0.2876 -0.0936  0.6850
  135MOL0     C18539   8.233  11.918   8.895  0.2184 -0.4040  1.4203
  135MOL0     O18540   8.377  11.629   8.906 -0.8624  0.1628  0.0831
  135MOL0     C18541   8.302  11.598   9.257 -0.6323 -0.1702  2.7277
  135MOL0     C18542   8.345  11.527   9.367 -0.1496  0.5612  0.1415
  135MOL0     N18543   8.249  10.992  10.032  0.6036 -0.8387  0.8775
  135MOL0     N18544   8.175  10.895  10.053  0.4909  0.0603  0.2360
  135MOL0     C18545   7.298  10.735  10.403 -0.2004 -0.5256 -0.4754
  135MOL0     C18546   7.190  10.796  10.466  0.4420 -0.1031  0.2388
  135MOL0     C18547   6.802  10.885  10.675  0.3057 -0.4998 -0.1841
  135MOL0     C18548   6.801  11.017  10.625  1.2794 -1.4756  0.7821
  135MOL0     C18549   6.705  11.114  10.661 -0.4770  0.5449 -0.0476
  135MOL0     C18550   6.603  11.070  10.748 -0.0340 -0.4830  0.7074
  135MOL0     O18551   6.500  11.157  10.769  0.1763  0.3951  0.1657
  135MOL0     C18552   6.370  11.104  10.752 -0.0957 -0.0438 -0.5247
  135MOL0     C18553   6.284  11.225  10.714  0.8176  0.0343  0.4642
  135MOL0     C18554   6.148  11.170  10.669 -0.1878 -0.0140  0.5161
  135MOL0     C18555   6.137  11.087  10.535 -0.2804 -0.1258 -0.0862
  135MOL0     C18556   6.024  10.991  10.521 -0.5617  0.6089  0.0557
  135MOL0     C18557   5.938  10.909  10.510  0.1426 -0.5869 -0.0043
  135MOL0     C18558   6.607  10.945  10.810  0.7644 -0.4032  0.5948
  135MOL0     C18559   6.709  10.849  10.775 -0.0982  0.3525 -0.2011
  135MOL0     C18560   6.719  10.716  10.854  0.4671  0.5187  1.2509
  135MOL0     H18561   6.923  10.639  10.324  0.6504 -0.6102  1.4220
  135MOL0     H18562   7.120  10.502  10.225 -1.4288  0.7154 -1.2814
  135MOL0     H18563   7.450  10.737  10.184 -2.4159 -0.6078 -1.0069
  135MOL0     H18564   7.529  10.585  10.117  1.8993 -1.3434  2.1424
  135MOL0     H18565   7.560  10.605  10.408 -1.4922  0.6464 -0.9201
  135MOL0     H18566   7.655  10.538  10.280  0.1162 -0.9658  2.8536
  135MOL0     H18567   7.724  10.779  10.219  1.2723 -2.6551 -0.8157
  135MOL0     H18568   7.669  10.812  10.389  0.0336  0.2427  0.6310
  135MOL0     H18569   7.910  10.766  10.404  0.4429 -0.9325  1.0931
  135MOL0     H18570   7.813  10.636  10.467  0.5013  2.2064  0.5241
  135MOL0     H18571   7.857  10.510  10.254 -1.7392  1.6045 -0.7841
  135MOL0     H18572   8.001  10.563  10.351  2.0227  1.9010 -2.0525
  135MOL0     H18573   7.904  10.695  10.090  2.0560  2.2759 -0.3910
  135MOL0     H18574   8.018  10.766  10.196 -0.5956  1.4518 -0.6705
  135MOL0     H18575   8.074  10.486  10.088  0.5719 -0.6338  4.3179
  135MOL0     H18576   8.183  10.587  10.180 -0.3794  1.0209  0.8742
  135MOL0     H18577   8.246  10.609   9.939 -0.0462 -0.4965  0.3242
  135MOL0     H18578   8.082  10.626   9.893 -0.1173  0.2569 -1.1272
  135MOL0     H18579   8.248  10.843   9.748 -0.7494  0.2411 -0.6644
  135MOL0     H18580   8.452  11.004   9.772 -1.9070 -0.8321 -0.9626
  135MOL0     H18581   8.453  11.106   9.918  0.5386  0.3196 -1.8531
  135MOL0     H18582   8.253  11.155   9.686 -2.1527  0.1773  2.5329
  135MOL0     H18583   8.301  11.260   9.819  0.5416  1.9285 -2.3007
  135MOL0     H18584   8.517  11.306   9.753  1.3514  1.2021 -2.1052
  135MOL0     H18585   8.520  11.187   9.632 -0.6909 -0.6212  1.0540
  135MOL0     H18586   8.304  11.358   9.564  0.8790 -0.1414 -2.5594
  135MOL0     H18587   8.428  11.464   9.631 -1.4136 -0.6054  3.2370
  135MOL0     H18588   8.614  11.368   9.248 -0.1999  0.2714  1.9859
  135MOL0     H18589   8.656  11.397   9.023  0.2475  1.1894  2.6276
  135MOL0     H18590   8.612  11.544   8.959  0.9545  0.0936 -0.3225
  135MOL0     H18591   8.499  11.409   8.934  1.3572  1.5196 -2.2577
  135MOL0     H18592   7.993  11.681   8.902  0.0411  0.5177  2.6541
  135MOL0     H18593   7.887  11.827   8.742  0.1165 -0.7547  2.0285
  135MOL0     H18594   7.873  12.084   8.477 -0.5680 -3.0109 -1.8172
  135MOL0     H18595   7.856  11.925   8.533  1.2701  1.0636 -4.6842
  135MOL0     H18596   7.723  12.036   8.738  0.6773  3.2531  0.3308
  135MOL0     H18597   7.734  12.187   8.642 -2.9128  0.5808 -2.9272
  135MOL0     H18598   7.521  12.079   8.608 -2.9947 -1.7633 -3.1682
  135MOL0     H18599   7.592  11.937   8.540 -0.8922  0.2553 -0.6441
  135MOL0     H18600   7.678  12.064   8.345 -0.7530  1.0018 -1.8860
  135MOL0     H18601   7.619  12.209   8.427 -2.0872 -0.0443  1.2188
  135MOL0     H18602   7.464  11.964   8.337  1.0403  0.1729 -1.3345
  135MOL0     H18603   7.390  12.102   8.412 -0.0124  1.5091 -0.6576
  135MOL0     H18604   7.538  12.087   8.145  1.3085  1.7096  0.5913
  135MOL0     H18605   7.499  12.241   8.220  0.6965 -0.2965 -0.7335
  135MOL0     H18606   7.254  12.132   8.228 -0.0882 -0.5464  0.4847
  135MOL0     H18607   7.330  12.011   8.115 -0.5489  0.0835 -1.0749
  135MOL0     H18608   7.294  12.303   8.048  0.5226 -1.1793 -0.1952
  135MOL0     H18609   7.221  12.150   7.971 -0.6746 -1.4568  0.6875
  135MOL0     H18610   8.210  12.102   8.799  0.8579 -0.4927  2.9574
  135MOL0     H18611   8.300  11.971   8.963 -0.5036 -1.9229  3.3838
  135MOL0     H18612   8.218  11.667   9.265  0.1095  0.9437  1.2516
  135MOL0     H18613   8.288  11.546   9.458 -0.1886  1.8299 -0.1363
  135MOL0     H18614   7.401  10.762  10.427 -0.0328  0.3597 -2.0907
  135MOL0     H18615   7.195  10.879  10.536 -1.6297  0.4978 -0.2702
  135MOL0     H18616   6.872  11.066  10.559 -0.9858  0.7798 -0.1175
  135MOL0     H18617   6.707  11.216  10.622 -2.4225  0.5594 -0.2159
  135MOL0     H18618   6.376  11.033  10.670  0.9865 -1.1120  0.4399
  135MOL0     H18619   6.330  11.039  10.830  0.6699 -0.6620 -0.6358
  135MOL0     H18620   6.334  11.286  10.638  3.5325  0.9815  2.8365
  135MOL0     H18621   6.273  11.288  10.802 -0.7535 -2.1187  1.8961
  135MOL0     H18622   6.100  11.114  10.750 -0.0992  0.5107  0.9409
  135MOL0     H18623   6.086  11.259  10.655  0.9058  0.8171  0.7956
  135MOL0     H18624   6.234  11.042  10.514 -1.1063 -1.3487 -1.4856
  135MOL0     H18625   6.114  11.152  10.450 -0.8627  1.7608  1.4297
  135MOL0     H18626   5.856  10.847  10.479  0.4382  1.0190 -5.0358
  135MOL0     H18627   6.535  10.920  10.887 -1.0833  2.2542 -0.1293
  135MOL0     H18628   6.623  10.708  10.905 -1.4055  3.5677 -1.4556
  135MOL0     H18629   6.731  10.633  10.784  2.2048  0.8825  1.0729
  135MOL0     H18630   6.808  10.719  10.918 -0.9878  1.0616  3.3365
  136MOL0     O18631   7.124   9.299   0.568  0.6504 -0.0334 -1.2364
  136MOL0     C18632   7.015   9.345   0.556  0.8747  0.4908  1.0668
  136MOL0     O18633   6.947   9.416   0.652  0.2584 -0.7624 -0.2211
  136MOL0     C18634   6.980   9.423   0.784  0.7510 -0.3724  0.3798
  136MOL0     C18635   6.879   9.477   0.869 -0.4061 -0.3905 -0.0773
  136MOL0     C18636   6.902   9.479   1.012  0.0566 -0.9334  0.3573
  136MOL0     C18637   7.022   9.439   1.061 -0.0641 -0.1014 -0.5866
  136MOL0     O18638   7.035   9.441   1.199 -0.3143 -0.3381  0.0337
  136MOL0     C18639   7.155   9.384   1.257  0.6269 -0.0967 -0.6690
  136MOL0     C18640   7.154   9.411   1.405  0.5315 -0.1251  0.4094
  136MOL0     C18641   7.163   9.562   1.438  0.6788 -0.2289  0.4942
  136MOL0     C18642   7.160   9.587   1.587  0.0900 -0.6163  0.0383
  136MOL0     C18643   7.188   9.731   1.630  0.0555 -0.2227  0.7266
  136MOL0     C18644   7.081   9.825   1.609  0.0450 -0.1907 -0.2355
  136MOL0     C18645   6.982   9.807   1.727  0.7397  0.0584 -0.8654
  136MOL0     C18646   7.004   9.902   1.841 -0.9068  0.2952  0.3588
  136MOL0     N18647   6.988  10.046   1.801  0.4018  0.2077  0.0118
  136MOL0     C18648   6.869  10.103   1.751 -0.1615  0.6392 -0.4365
  136MOL0     C18649   6.901  10.222   1.698  0.1304  0.7038  0.3543
  136MOL0     C18650   6.800  10.298   1.618  0.3725 -0.0952 -0.6428
  136MOL0     C18651   6.830  10.289   1.457 -0.1456 -0.2346 -0.5513
  136MOL0     C18652   6.870  10.157   1.398 -0.2593  0.1550 -0.7101
  136MOL0     C18653   6.775  10.038   1.398  0.0867  0.4748  1.0702
  136MOL0     O18654   6.678  10.031   1.292 -0.3225 -0.3595 -0.0756
  136MOL0     C18655   6.698   9.979   1.163  0.4298  0.9027  0.9148
  136MOL0     C18656   6.587   9.910   1.110  0.2956  0.2247  0.2114
  136MOL0     C18657   6.586   9.855   0.979 -0.2479  0.0527  0.1321
  136MOL0     C18658   6.454   9.785   0.942  0.6976 -1.0002  0.6143
  136MOL0     C18659   6.700   9.866   0.895  0.5435 -0.1567 -0.2891
  136MOL0     C18660   6.701   9.817   0.757 -0.4340  0.5630 -0.2812
  136MOL0     O18661   6.759   9.896   0.656  0.2070  0.2152 -0.7679
  136MOL0     C18662   6.767   9.843   0.532 -0.7180  0.8067  0.1405
  136MOL0     C18663   6.832   9.722   0.497  0.5856 -0.1513 -0.2167
  136MOL0     C18664   6.838   9.678   0.365  0.2127  0.1794  0.3278
  136MOL0     C18665   6.790   9.763   0.257 -0.3937  0.1636 -0.5705
  136MOL0     O18666   6.786   9.725   0.127  0.4612  0.0955  0.3032
  136MOL0     C18667   6.864   9.615   0.084  0.4787 -0.1169 -0.4793
  136MOL0     C18668   6.909   9.646  -0.062  0.4056  0.2100  0.0603
  136MOL0     C18669   6.792   9.617  -0.155 -0.4316 -0.5690 -0.6111
  136MOL0     C18670   6.812   9.686  -0.291  1.1331 -0.0694  0.5320
  136MOL0     C18671   6.671   9.680  -0.363  1.0131  0.1992 -0.5846
  136MOL0     C18672   6.678   9.722  -0.502  0.5551 -0.5048  0.5179
  136MOL0     C18673   6.547   9.729  -0.586  0.0188  0.5754  1.4065
  136MOL0     C18674   6.514   9.871  -0.649  0.6092 -0.5660  0.5949
  136MOL0    Cl18675   6.530   9.993  -0.520 -0.4762  0.2563 -0.5806
  136MOL0     C18676   6.742   9.887   0.292  0.6263  0.6157 -0.1581
  136MOL0     C18677   6.726   9.927   0.423  0.0539  1.0852 -0.7823
  136MOL0     O18678   6.644   9.708   0.740 -0.5630  0.4259 -0.3273
  136MOL0     C18679   6.806   9.942   0.943 -0.4404  0.6012  0.9165
  136MOL0     C18680   6.810   9.995   1.076  0.1133  0.3241  0.0511
  136MOL0     N18681   7.039  10.233   1.711 -0.4568 -0.7167 -0.0516
  136MOL0     N18682   7.088  10.139   1.778  0.3413  0.0147  0.9228
  136MOL0     C18683   7.125   9.399   0.971  0.4936  0.5746 -0.4463
  136MOL0     C18684   7.109   9.402   0.835 -0.0153  0.7125  0.5289
  136MOL0     C18685   6.949   9.313   0.424  0.4655 -0.1315  0.4810
  136MOL0     C18686   7.031   9.268   0.313 -0.6191 -0.3083 -0.1585
  136MOL0     C18687   6.979   9.230   0.189 -0.4558 -0.3500  0.4407
  136MOL0     C18688   6.837   9.230   0.160 -0.3765 -1.6161 -1.0391
  136MOL0     O18689   6.797   9.177   0.043 -0.4390 -0.3858  0.4456
  136MOL0     C18690   6.659   9.172   0.010 -1.0487  1.1483 -0.3414
  136MOL0     C18691   6.628   9.144  -0.138  0.5426  0.3400  0.7832
  136MOL0     C18692   6.684   9.253  -0.232  0.2260 -0.1292 -0.5728
  136MOL0     C18693   6.648   9.225  -0.379  0.0653 -0.7597 -0.5437
  136MOL0     C18694   6.531   9.308  -0.425 -0.1603  0.2087  0.1501
  136MOL0     C18695   6.445   9.382  -0.453 -0.3554 -0.4881 -0.1161
  136MOL0     C18696   6.761   9.278   0.268  0.0579 -0.3635  0.1622
  136MOL0     C18697   6.811   9.305   0.391  1.0893 -0.7771 -0.8444
  136MOL0     C18698   6.706   9.330   0.500  0.1432 -0.9605 -0.1246
  136MOL0     H18699   6.780   9.502   0.834 -1.2199 -0.0181  2.3080
  136MOL0     H18700   6.833   9.526   1.082 -0.0345  0.0219 -0.3525
  136MOL0     H18701   7.244   9.425   1.209  0.2121  0.6616 -0.7977
  136MOL0     H18702   7.149   9.275   1.247 -1.3505 -0.0092 -0.8079
  136MOL0     H18703   7.065   9.371   1.455  0.8705 -0.5401  0.6884
  136MOL0     H18704   7.242   9.354   1.436  1.2051  1.0174  0.6551
  136MOL0     H18705   7.259   9.597   1.399 -0.0804 -0.1606 -1.4314
  136MOL0     H18706   7.090   9.619   1.379 -0.7364 -1.1865  1.2743
  136MOL0     H18707   7.058   9.556   1.611  0.7648 -2.6024  0.5164
  136MOL0     H18708   7.205   9.505   1.644 -0.6747  0.5495  2.4283
  136MOL0     H18709   7.275   9.778   1.583  0.3163  0.6912  2.0729
  136MOL0     H18710   7.214   9.727   1.736 -0.4542 -3.4137  0.8211
  136MOL0     H18711   7.131   9.922   1.598  2.5255 -1.5526 -2.1170
  136MOL0     H18712   7.031   9.805   1.514  0.2276  0.3743 -0.4584
  136MOL0     H18713   6.969   9.703   1.759  1.6622  0.3351  0.4793
  136MOL0     H18714   6.888   9.844   1.684 -0.7560  0.5453  2.5142
  136MOL0     H18715   6.923   9.885   1.911 -1.5252  2.6478  0.2735
  136MOL0     H18716   7.102   9.887   1.887 -0.3659 -3.6796 -1.6085
  136MOL0     H18717   6.779  10.045   1.733  0.6118 -0.0681 -2.2388
  136MOL0     H18718   6.801  10.402   1.651  0.7013 -0.5472  0.8796
  136MOL0     H18719   6.704  10.250   1.637  1.3897 -1.5130  1.2887
  136MOL0     H18720   6.754  10.333   1.392 -0.3022  0.0078 -0.2045
  136MOL0     H18721   6.917  10.354   1.441  0.9875 -1.6412 -0.3637
  136MOL0     H18722   6.903  10.180   1.296 -0.1434 -2.9839 -1.4699
  136MOL0     H18723   6.953  10.130   1.465 -2.1171 -0.3054  1.5217
  136MOL0     H18724   6.839   9.949   1.392 -1.2966 -0.7304  3.0152
  136MOL0     H18725   6.724  10.031   1.494  1.0367 -1.6436  1.4699
  136MOL0     H18726   6.496   9.905   1.170  0.8862 -3.6430  1.0222
  136MOL0     H18727   6.456   9.684   0.982 -2.6020 -1.8579 -0.9972
  136MOL0     H18728   6.442   9.781   0.833  1.5056  0.2814  0.4611
  136MOL0     H18729   6.369   9.840   0.985 -0.0088 -1.0619 -0.6461
  136MOL0     H18730   6.871   9.657   0.575 -1.2114 -3.9205 -2.1937
  136MOL0     H18731   6.875   9.578   0.349 -1.9840 -0.5776 -0.4624
  136MOL0     H18732   6.948   9.606   0.153 -1.0865 -2.9195  1.2418
  136MOL0     H18733   6.818   9.517   0.099  1.2318 -1.2210 -4.3253
  136MOL0     H18734   6.924   9.755  -0.063  0.5865  0.2387  1.7593
  136MOL0     H18735   7.002   9.596  -0.093  0.6769  0.7985 -0.0937
  136MOL0     H18736   6.707   9.667  -0.108  1.6833  1.5642  1.1933
  136MOL0     H18737   6.775   9.508  -0.153  2.5173 -1.0909  0.1316
  136MOL0     H18738   6.888   9.632  -0.347 -0.0212 -4.3996  2.7206
  136MOL0     H18739   6.837   9.791  -0.277  2.0857 -0.6521  3.8964
  136MOL0     H18740   6.632   9.578  -0.360 -0.8464  0.8949  2.5798
  136MOL0     H18741   6.605   9.743  -0.303  1.9885  2.3260 -1.6087
  136MOL0     H18742   6.730   9.641  -0.554  0.9271  0.3329 -0.4403
  136MOL0     H18743   6.737   9.813  -0.514 -0.1070  0.0874  1.6176
  136MOL0     H18744   6.469   9.683  -0.525  1.3581 -3.9121  0.1564
  136MOL0     H18745   6.544   9.651  -0.663 -1.6584 -0.4656  2.4489
  136MOL0     H18746   6.411   9.874  -0.685  1.3145 -0.1436 -1.5031
  136MOL0     H18747   6.583   9.895  -0.730 -2.2884 -1.5042 -2.3454
  136MOL0     H18748   6.714   9.954   0.211 -0.2513 -1.2107 -1.4464
  136MOL0     H18749   6.676  10.019   0.451 -0.6991 -0.0224  1.7038
  136MOL0     H18750   6.887   9.970   0.876 -1.4613 -0.0752 -0.6604
  136MOL0     H18751   6.897  10.056   1.096 -1.0337  1.5408  1.5416
  136MOL0     H18752   7.218   9.355   1.009 -0.4332 -1.2799 -0.1850
  136MOL0     H18753   7.189   9.393   0.762 -0.3234  2.5305 -0.0905
  136MOL0     H18754   7.138   9.255   0.320 -0.8468 -2.7029 -0.1106
  136MOL0     H18755   7.048   9.185   0.119  0.4969 -0.7445  1.6023
  136MOL0     H18756   6.612   9.094   0.070  2.9452  0.5231  2.3944
  136MOL0     H18757   6.608   9.261   0.048  1.2145  1.8372  1.3352
  136MOL0     H18758   6.521   9.144  -0.159  0.1716  3.0397  2.1815
  136MOL0     H18759   6.663   9.045  -0.166 -2.2598  0.0112 -1.9358
  136MOL0     H18760   6.630   9.339  -0.193 -0.0714 -1.3032  1.8123
  136MOL0     H18761   6.789   9.271  -0.205 -0.9305  2.1573  3.2904
  136MOL0     H18762   6.630   9.118  -0.394  0.6743 -1.0209  0.4093
  136MOL0     H18763   6.733   9.257  -0.440 -1.4144  4.2602 -0.4074
  136MOL0     H18764   6.363   9.449  -0.471 -1.0117 -1.0768  0.6206
  136MOL0     H18765   6.653   9.283   0.262 -0.0103  0.3064  1.6770
  136MOL0     H18766   6.716   9.429   0.545  0.6786 -0.6618 -0.8760
  136MOL0     H18767   6.605   9.323   0.458  0.4443  4.4822 -2.7017
  136MOL0     H18768   6.716   9.258   0.581  1.3142 -0.2131  0.4208
  137MOL0     O18769   9.975   0.357  11.300  0.0561 -0.1889 -0.4671
  137MOL0     C18770   9.997   0.255  11.232  0.3592  0.6071  0.0900
  137MOL0     O18771   9.901   0.169  11.189  0.6428  0.0285  0.5041
  137MOL0     C18772   9.774   0.202  11.215  0.4386  0.9802 -0.4956
  137MOL0     C18773   9.702   0.094  11.264  0.5836 -0.5025  0.9751
  137MOL0     C18774   9.563   0.108  11.284  0.8220  0.5105 -0.3104
  137MOL0     C18775   9.487   0.223  11.241 -0.6873  0.8298 -0.3768
  137MOL0     O18776   9.354   0.232  11.259  0.3338 -0.4376 -0.0609
  137MOL0     C18777   9.299   0.194  11.131 -0.8195 -0.6755 -0.7953
  137MOL0     C18778   9.156   0.140  11.149  0.1362  0.1876 -0.8040
  137MOL0     C18779   9.083   0.137  11.013 -0.6420 -0.9841 -0.9426
  137MOL0     C18780   9.117   0.033  10.912  0.9942  0.9429  0.6344
  137MOL0     C18781   9.011   0.037  10.788 -0.1004  0.0824 -0.3563
  137MOL0     C18782   8.950  -0.102  10.763  0.0088  0.1924 -0.6886
  137MOL0     C18783   9.053  -0.197  10.691 -0.2475  0.4985  0.1654
  137MOL0     C18784   8.989  -0.333  10.637 -0.2564  0.3378 -0.1073
  137MOL0     N18785   9.089  -0.418  10.577 -0.1182 -0.9226  0.1937
  137MOL0     C18786   9.171  -0.503  10.646 -0.4187  1.4917 -0.3720
  137MOL0     C18787   9.252  -0.561  10.551  0.5009  0.0325 -0.3973
  137MOL0     C18788   9.370  -0.648  10.584  0.0342  0.6291 -0.2679
  137MOL0     C18789   9.495  -0.578  10.521  0.4880  0.4217 -0.3989
  137MOL0     C18790   9.518  -0.430  10.554  0.3482 -0.8179  0.3285
  137MOL0     C18791   9.512  -0.405  10.714 -0.7763 -0.5195 -0.1529
  137MOL0     O18792   9.606  -0.314  10.760 -0.7923  0.4776 -0.6795
  137MOL0     C18793   9.616  -0.188  10.710  0.1109 -0.5092 -0.6879
  137MOL0     C18794   9.514  -0.110  10.649  0.0405 -0.1378  0.1008
  137MOL0     C18795   9.528   0.024  10.632  0.3977 -0.3150  0.4595
  137MOL0     C18796   9.402   0.089  10.572  0.3575 -0.3900 -0.0743
  137MOL0     C18797   9.643   0.085  10.673  0.6861 -0.3922 -1.0089
  137MOL0     C18798   9.655   0.227  10.661 -1.0897 -0.2646 -0.0239
  137MOL0     O18799   9.752   0.285  10.746  0.3487 -0.4804 -0.5299
  137MOL0     C18800   9.780   0.414  10.742  0.3694  0.8881  0.6077
  137MOL0     C18801   9.891   0.451  10.672 -1.1698  0.4036  0.1147
  137MOL0     C18802   9.932   0.585  10.664  0.6553  0.8512 -0.0640
  137MOL0     C18803   9.851   0.685  10.726  0.2566  1.0361  1.5560
  137MOL0     O18804   9.859   0.823  10.724  0.0455  0.0134 -0.2646
  137MOL0     C18805   9.936   0.883  10.623  0.7887 -1.0447 -0.4889
  137MOL0     C18806   9.910   1.035  10.628 -0.3182 -0.6204  0.6064
  137MOL0     C18807   9.790   1.070  10.537  0.3851  0.5677  0.1588
  137MOL0     C18808   9.823   1.138  10.405  0.0935 -0.5370 -0.0373
  137MOL0     C18809   9.704   1.188  10.324  0.9361 -0.6162 -0.4130
  137MOL0     C18810   9.686   1.339  10.332 -0.1169 -0.1250  0.1028
  137MOL0     C18811   9.550   1.387  10.267  0.0943 -0.5138  1.0711
  137MOL0     C18812   9.535   1.365  10.115  0.3733 -0.0098  0.2923
  137MOL0    Cl18813   9.674   1.433  10.018 -0.0169 -0.1588  0.2459
  137MOL0     C18814   9.749   0.642  10.819  0.2315 -0.0760 -0.3778
  137MOL0     C18815   9.710   0.507  10.820  0.5433  0.3837 -0.0050
  137MOL0     O18816   9.593   0.285  10.575  0.2211 -0.0212 -1.4561
  137MOL0     C18817   9.745   0.013  10.726 -0.6943 -0.1410 -0.1770
  137MOL0     C18818   9.735  -0.127  10.738  0.1956  1.1603 -0.2285
  137MOL0     N18819   9.216  -0.517  10.429  0.7048  0.0868  0.3018
  137MOL0     N18820   9.126  -0.424  10.443  0.0945 -0.3845  0.1446
  137MOL0     C18821   9.561   0.328  11.182  0.5418 -0.1169 -0.3937
  137MOL0     C18822   9.702   0.320  11.171 -0.1799  0.6757  1.1829
  137MOL0     C18823  10.128   0.222  11.203  0.4145  0.1130  0.3938
  137MOL0     C18824  10.225   0.197  11.299 -0.2730  0.1901 -0.3935
  137MOL0     C18825  10.354   0.172  11.265  0.0627 -1.1366 -0.0982
  137MOL0     C18826  10.389   0.161  11.126 -0.0091 -0.0586  0.3526
  137MOL0     O18827  10.518   0.146  11.072  0.3583  0.0600  0.0112
  137MOL0     C18828  10.633   0.142  11.161  0.0559 -0.1606 -0.6027
  137MOL0     C18829  10.678   0.282  11.197 -0.3381 -0.5404  0.6889
  137MOL0     C18830  10.822   0.269  11.271 -0.9192  0.4718 -0.0813
  137MOL0     C18831  10.821   0.223  11.415  0.1472 -0.2148 -0.4660
  137MOL0     C18832  10.726   0.303  11.488  0.2351 -0.0276  0.7418
  137MOL0     C18833  10.647   0.364  11.560  0.6018 -0.3601  0.5629
  137MOL0     C18834  10.296   0.183  11.032 -0.1956  0.1818 -0.3832
  137MOL0     C18835  10.164   0.212  11.061  0.5320  0.1451 -1.0151
  137MOL0     C18836  10.074   0.233  10.940 -0.1005 -0.0861  0.3766
  137MOL0     H18837   9.736  -0.007  11.281 -2.3471 -1.4937  1.4699
  137MOL0     H18838   9.500   0.024  11.312  0.5132  1.6767  2.7943
  137MOL0     H18839   9.362   0.115  11.089 -1.3414  0.5831 -4.2503
  137MOL0     H18840   9.302   0.288  11.076  2.6894  0.7702  1.5419
  137MOL0     H18841   9.148   0.045  11.202 -0.9371  1.8139  2.2034
  137MOL0     H18842   9.110   0.212  11.217  3.5034  0.9821  0.8670
  137MOL0     H18843   8.976   0.123  11.032  0.0126 -2.4789  2.4491
  137MOL0     H18844   9.081   0.239  10.973 -2.7459  0.6273  2.7965
  137MOL0     H18845   9.216   0.050  10.868  1.0673 -0.2614  0.3073
  137MOL0     H18846   9.124  -0.064  10.962 -0.8148 -0.0982 -1.0159
  137MOL0     H18847   9.057   0.065  10.693 -1.4737  0.9777 -0.7831
  137MOL0     H18848   8.928   0.106  10.806 -0.8638 -0.7314 -0.6900
  137MOL0     H18849   8.930  -0.146  10.861 -0.3025 -2.7613 -1.9589
  137MOL0     H18850   8.858  -0.092  10.704 -0.6132 -0.6540  0.1257
  137MOL0     H18851   9.129  -0.215  10.768 -2.6010 -0.5669  2.3965
  137MOL0     H18852   9.088  -0.144  10.602 -0.4261  3.0423  1.5154
  137MOL0     H18853   8.930  -0.389  10.710  0.2400 -1.3161 -0.9299
  137MOL0     H18854   8.918  -0.301  10.560  1.1915 -0.0046 -1.6349
  137MOL0     H18855   9.185  -0.517  10.753 -1.9558  1.2403 -0.1729
  137MOL0     H18856   9.355  -0.752  10.556  0.0806 -0.8788  4.4609
  137MOL0     H18857   9.386  -0.665  10.691  2.1164 -3.7278 -1.0704
  137MOL0     H18858   9.579  -0.641  10.553 -1.4008 -2.0195  0.0417
  137MOL0     H18859   9.486  -0.589  10.412  0.9145 -0.2080 -0.3768
  137MOL0     H18860   9.620  -0.405  10.524  0.7652 -0.4308  1.9719
  137MOL0     H18861   9.442  -0.359  10.518  1.2103  1.7484  3.1111
  137MOL0     H18862   9.411  -0.371  10.741 -1.0809 -2.8825  2.0424
  137MOL0     H18863   9.527  -0.496  10.772 -0.9786 -0.4040  0.0838
  137MOL0     H18864   9.419  -0.161  10.633  0.0796 -0.5545  1.1644
  137MOL0     H18865   9.321   0.016  10.579  0.7035 -0.6570  1.5934
  137MOL0     H18866   9.411   0.117  10.467  0.4525  1.2974  0.3455
  137MOL0     H18867   9.373   0.175  10.634 -1.9660 -0.3462 -1.1084
  137MOL0     H18868   9.945   0.381  10.609 -0.0486  0.2451  1.2119
  137MOL0     H18869  10.016   0.621  10.606  0.1311  4.5461  1.1443
  137MOL0     H18870  10.044   0.876  10.642  1.4236 -0.7036 -3.4803
  137MOL0     H18871   9.923   0.843  10.522  1.1125  2.5873 -2.1111
  137MOL0     H18872   9.888   1.048  10.735  2.8391 -0.8484  1.3749
  137MOL0     H18873   9.993   1.102  10.604 -0.8074  1.3308  3.7035
  137MOL0     H18874   9.721   1.130  10.597 -1.6649 -3.0681  1.7281
  137MOL0     H18875   9.737   0.981  10.502  0.4378  0.6082 -0.0270
  137MOL0     H18876   9.867   1.060  10.343 -1.4868 -0.5253 -1.2578
  137MOL0     H18877   9.896   1.217  10.422  0.2641 -0.5510 -0.6701
  137MOL0     H18878   9.719   1.174  10.217  0.5610 -0.3169 -0.5057
  137MOL0     H18879   9.609   1.146  10.360  0.6010  1.1657  0.9047
  137MOL0     H18880   9.766   1.393  10.279  0.3002  2.7376  3.2578
  137MOL0     H18881   9.688   1.369  10.437 -1.5327 -3.1352  1.0900
  137MOL0     H18882   9.536   1.495  10.279  1.6805 -0.0910 -0.4170
  137MOL0     H18883   9.471   1.342  10.328 -1.4362 -1.3980 -1.4169
  137MOL0     H18884   9.439   1.405  10.081  0.8292  0.8218 -0.0290
  137MOL0     H18885   9.534   1.258  10.089 -3.6662  0.1856 -1.0394
  137MOL0     H18886   9.689   0.715  10.872  0.0833 -0.0499 -0.5795
  137MOL0     H18887   9.621   0.476  10.873  0.1783 -1.3547 -1.5096
  137MOL0     H18888   9.843   0.057  10.741 -0.5064  0.1019 -1.8231
  137MOL0     H18889   9.819  -0.186  10.774 -0.5478 -1.0853 -1.8877
  137MOL0     H18890   9.514   0.426  11.172 -0.8758 -0.6105  0.9786
  137MOL0     H18891   9.747   0.410  11.130  0.3306  0.2607  0.8050
  137MOL0     H18892  10.191   0.211  11.402 -0.1658  2.3147 -0.5977
  137MOL0     H18893  10.423   0.154  11.347 -0.6362 -1.4807  0.4250
  137MOL0     H18894  10.624   0.077  11.248  2.0646  0.1697 -0.1015
  137MOL0     H18895  10.708   0.093  11.098 -1.7135 -1.9999 -1.3924
  137MOL0     H18896  10.605   0.333  11.261  0.9480  1.0567  0.9528
  137MOL0     H18897  10.691   0.337  11.103  4.1916 -0.5264  1.0796
  137MOL0     H18898  10.886   0.200  11.215  1.4489  1.1210  1.6699
  137MOL0     H18899  10.873   0.364  11.251 -0.5600  0.2131 -0.4087
  137MOL0     H18900  10.914   0.241  11.471 -0.9967 -3.9830  3.1222
  137MOL0     H18901  10.792   0.118  11.428 -2.3450  0.5189  0.5188
  137MOL0     H18902  10.564   0.409  11.610  0.4465 -1.8042  1.6920
  137MOL0     H18903  10.319   0.167  10.927 -0.8723  0.9856 -0.6670
  137MOL0     H18904  10.021   0.329  10.939 -2.9813 -1.5366  1.8785
  137MOL0     H18905  10.142   0.221  10.855  2.7732 -2.9306  2.8277
  137MOL0     H18906  10.005   0.151  10.916  1.3390 -0.5555 -2.6972
  138MOL0     O18907   1.674  10.392   4.880 -0.5697 -0.2111 -0.6398
  138MOL0     C18908   1.777  10.327   4.908 -0.5039 -0.6471  0.5557
  138MOL0     O18909   1.784  10.190   4.891 -0.3901 -0.7362 -0.2375
  138MOL0     C18910   1.672  10.117   4.874 -0.9037 -0.6105  0.4553
  138MOL0     C18911   1.541  10.154   4.905  0.0814 -0.8435 -0.1115
  138MOL0     C18912   1.437  10.062   4.883 -0.7166  0.6613  0.7951
  138MOL0     C18913   1.449   9.936   4.824 -0.6526 -0.9251 -0.4231
  138MOL0     O18914   1.336   9.868   4.815 -0.5840  0.2723 -0.3595
  138MOL0     C18915   1.332   9.741   4.749 -0.5109  0.6002  0.0587
  138MOL0     C18916   1.189   9.716   4.706 -1.1116 -0.4167  0.0935
  138MOL0     C18917   1.171   9.577   4.645  0.0158  0.5932 -0.3642
  138MOL0     C18918   1.020   9.553   4.594 -0.3620  0.2842  0.6239
  138MOL0     C18919   0.986   9.408   4.549  0.2411 -0.2529  0.0511
  138MOL0     C18920   0.834   9.400   4.501  0.1233 -0.1209  0.2752
  138MOL0     C18921   0.800   9.253   4.512  0.2898  0.2807 -0.1801
  138MOL0     C18922   0.654   9.230   4.467 -0.3905  0.9707 -0.2137
  138MOL0     N18923   0.591   9.123   4.559 -0.1144  0.2458 -0.9371
  138MOL0     C18924   0.599   9.122   4.702  0.1994 -0.1367  0.4551
  138MOL0     C18925   0.527   9.014   4.736 -0.0606  0.1199 -0.7280
  138MOL0     C18926   0.488   8.961   4.869  0.0301  0.0862 -0.4027
  138MOL0     C18927   0.340   8.997   4.901 -0.0013 -0.5695 -0.0294
  138MOL0     C18928   0.306   8.951   5.044 -0.5595  0.1491  0.1898
  138MOL0     C18929   0.164   8.936   5.063  0.2138 -0.5241 -0.6994
  138MOL0     O18930   0.156   8.866   5.191  0.3937  0.9392 -0.2044
  138MOL0     C18931   0.042   8.836   5.256  0.9896 -0.0293 -0.7415
  138MOL0     C18932   0.054   8.771   5.379 -0.2473  0.3991  0.1624
  138MOL0     C18933  -0.055   8.740   5.463 -0.0334  0.5468 -0.1975
  138MOL0     C18934  -0.007   8.669   5.588  0.5035  0.3933 -0.3715
  138MOL0     C18935  -0.185   8.767   5.416  0.4208 -0.6960  0.4994
  138MOL0     C18936  -0.309   8.729   5.480  0.5713 -0.1004 -0.4288
  138MOL0     O18937  -0.411   8.823   5.467 -0.2044 -0.8578 -0.8290
  138MOL0     C18938  -0.481   8.863   5.580 -0.0437  0.4904  0.3828
  138MOL0     C18939  -0.421   8.891   5.700 -0.3075  0.0864 -0.0223
  138MOL0     C18940  -0.498   8.941   5.808  1.1313  1.3321 -0.5889
  138MOL0     C18941  -0.645   8.944   5.793 -0.2047 -0.6124  0.1143
  138MOL0     O18942  -0.733   9.005   5.884 -0.3175 -0.1558 -1.1667
  138MOL0     C18943  -0.693   8.984   6.022  0.4633  0.1663 -1.0548
  138MOL0     C18944  -0.803   9.037   6.107 -0.2799 -0.3685  0.1376
  138MOL0     C18945  -0.904   8.935   6.155  0.8317 -0.2075  0.5015
  138MOL0     C18946  -1.026   9.011   6.215 -0.6966 -0.0783  0.7946
  138MOL0     C18947  -1.144   8.914   6.239 -0.2877  0.3884 -0.2179
  138MOL0     C18948  -1.259   8.990   6.319  0.4743  0.7263  0.3150
  138MOL0     C18949  -1.371   8.896   6.331  0.8416 -0.1471  0.1386
  138MOL0     C18950  -1.459   8.919   6.454  0.0293 -0.2628  0.0247
  138MOL0    Cl18951  -1.592   8.792   6.460 -0.0442 -0.1110 -0.1054
  138MOL0     C18952  -0.706   8.910   5.670  0.1221 -0.3825 -1.4483
  138MOL0     C18953  -0.619   8.866   5.566  0.1908 -0.4243  0.7524
  138MOL0     O18954  -0.306   8.639   5.562 -0.1357  0.2368 -0.2610
  138MOL0     C18955  -0.200   8.820   5.282 -0.0541  0.0320 -0.2977
  138MOL0     C18956  -0.083   8.859   5.199  0.3589  0.9293 -0.6686
  138MOL0     N18957   0.498   8.934   4.626  0.1875 -0.3973 -0.6086
  138MOL0     N18958   0.536   9.003   4.524 -0.2706  0.0142  0.2097
  138MOL0     C18959   1.579   9.903   4.783  0.0744 -1.1669  0.3314
  138MOL0     C18960   1.689   9.993   4.805  0.3706 -0.0357 -0.1336
  138MOL0     C18961   1.910  10.399   4.926  0.5586 -0.0787  0.2625
  138MOL0     C18962   2.026  10.324   4.947  0.5952  0.0040 -0.3450
  138MOL0     C18963   2.153  10.382   4.963 -0.1598  0.2327  0.3124
  138MOL0     C18964   2.171  10.515   4.953  0.0582  0.2547 -1.1574
  138MOL0     O18965   2.303  10.559   4.965  0.0759  0.0775  0.1155
  138MOL0     C18966   2.348  10.700   4.945 -0.0892  0.5126 -0.7948
  138MOL0     C18967   2.374  10.728   4.799 -0.7583  0.5513  0.0213
  138MOL0     C18968   2.433  10.612   4.729 -0.4876  0.1910  0.2756
  138MOL0     C18969   2.568  10.566   4.771  0.1496  0.0577 -0.2044
  138MOL0     C18970   2.667  10.674   4.772 -0.1849  0.6932 -0.5778
  138MOL0     C18971   2.739  10.769   4.794  0.6895  0.8449  0.3613
  138MOL0     C18972   2.058  10.595   4.933  0.6262  0.4034 -0.2641
  138MOL0     C18973   1.927  10.538   4.916 -0.5146  0.2673  0.0940
  138MOL0     C18974   1.825  10.648   4.893 -0.0425 -0.0255  0.0131
  138MOL0     H18975   1.521  10.246   4.958 -0.9487 -0.6558 -0.7977
  138MOL0     H18976   1.339  10.102   4.905 -1.0778  0.8988 -1.0705
  138MOL0     H18977   1.359   9.656   4.813  0.2860  0.6304 -0.2177
  138MOL0     H18978   1.389   9.729   4.657 -2.8677 -3.0576 -1.1317
  138MOL0     H18979   1.131   9.722   4.798 -2.4236 -1.4680 -0.6404
  138MOL0     H18980   1.140   9.787   4.639 -3.2719 -1.2367  0.7265
  138MOL0     H18981   1.250   9.563   4.571 -1.5713 -0.0525 -2.0177
  138MOL0     H18982   1.185   9.496   4.717 -1.6954  0.6394  0.0802
  138MOL0     H18983   0.949   9.576   4.674  0.8644 -0.1515  1.8772
  138MOL0     H18984   0.999   9.619   4.509 -0.0211 -1.6106 -1.0181
  138MOL0     H18985   0.995   9.349   4.640  3.0575  3.4432  2.4767
  138MOL0     H18986   1.051   9.365   4.472 -0.8992 -0.9559 -0.5511
  138MOL0     H18987   0.780   9.458   4.576  1.2063 -0.1532  1.1138
  138MOL0     H18988   0.826   9.441   4.400  1.8622 -0.9979 -0.2700
  138MOL0     H18989   0.825   9.215   4.611 -0.3149 -1.1078 -0.5303
  138MOL0     H18990   0.858   9.194   4.440  0.3473  1.1119 -0.8319
  138MOL0     H18991   0.607   9.328   4.481  1.6067  1.7753  1.3305
  138MOL0     H18992   0.656   9.198   4.362  0.1615  0.7028 -0.1249
  138MOL0     H18993   0.640   9.184   4.781 -1.8218 -0.7193  2.0587
  138MOL0     H18994   0.552   9.001   4.947  1.9389  1.0362 -2.3544
  138MOL0     H18995   0.506   8.853   4.863  0.8186  0.2246 -0.5833
  138MOL0     H18996   0.321   9.105   4.900 -0.2421 -0.6022  0.5552
  138MOL0     H18997   0.275   8.957   4.822  0.3691  0.4074 -0.8506
  138MOL0     H18998   0.353   8.853   5.061  1.1949  0.6790 -1.2624
  138MOL0     H18999   0.337   9.026   5.117 -3.3194  1.4251  0.1799
  138MOL0     H19000   0.106   9.028   5.079  1.8418  0.1105  2.4296
  138MOL0     H19001   0.101   8.883   4.991 -2.3813 -2.4660  2.6912
  138MOL0     H19002   0.158   8.760   5.407 -1.2141  1.0566  4.6799
  138MOL0     H19003  -0.091   8.668   5.659  0.7202  0.4056 -0.1122
  138MOL0     H19004   0.084   8.713   5.630 -0.3304  1.3042  0.5443
  138MOL0     H19005   0.011   8.562   5.571  0.7351 -0.1156  2.5358
  138MOL0     H19006  -0.313   8.891   5.708 -0.2025 -0.7182 -1.1584
  138MOL0     H19007  -0.456   8.984   5.899 -2.4290  0.5618  1.6184
  138MOL0     H19008  -0.667   8.882   6.052 -0.0741  0.1327 -0.7031
  138MOL0     H19009  -0.603   9.040   6.049  0.2140 -0.6726  1.8034
  138MOL0     H19010  -0.763   9.074   6.202 -0.9112 -1.1615  0.7308
  138MOL0     H19011  -0.861   9.115   6.056  0.2574  0.6503  1.0507
  138MOL0     H19012  -0.850   8.876   6.229  5.9826 -0.6060 -3.0503
  138MOL0     H19013  -0.943   8.869   6.077 -0.8908 -0.1620  1.2912
  138MOL0     H19014  -1.054   9.090   6.145  3.5732  1.0169 -0.0122
  138MOL0     H19015  -0.991   9.074   6.298  3.6121  1.9866 -2.1902
  138MOL0     H19016  -1.187   8.879   6.145 -0.5052 -0.1485  0.0794
  138MOL0     H19017  -1.109   8.828   6.297 -0.3481  0.6695  0.2419
  138MOL0     H19018  -1.295   9.075   6.260  1.6538  1.0355  0.0151
  138MOL0     H19019  -1.227   9.028   6.416  1.1277  2.6836 -0.6249
  138MOL0     H19020  -1.324   8.798   6.346  4.6318  1.5531  0.6098
  138MOL0     H19021  -1.440   8.899   6.246  0.8091 -0.5104  0.1526
  138MOL0     H19022  -1.504   9.019   6.451  0.8055  0.0804 -0.8892
  138MOL0     H19023  -1.400   8.911   6.545 -0.7294 -2.4747  0.3910
  138MOL0     H19024  -0.813   8.923   5.657  0.3040  1.4206 -1.3076
  138MOL0     H19025  -0.667   8.858   5.469  0.5132 -1.1424  0.6452
  138MOL0     H19026  -0.303   8.830   5.250 -0.2186 -2.5556 -0.8167
  138MOL0     H19027  -0.106   8.907   5.104 -1.2726  1.0553 -0.2370
  138MOL0     H19028   1.607   9.813   4.729  0.9982  0.9058 -2.9680
  138MOL0     H19029   1.786   9.954   4.776  0.8433  0.8464  0.2277
  138MOL0     H19030   2.014  10.218   4.966  1.8834  0.2336  2.1694
  138MOL0     H19031   2.244  10.325   4.975  1.9850  3.2172 -0.4303
  138MOL0     H19032   2.274  10.768   4.988  1.5274  0.7724  1.7354
  138MOL0     H19033   2.447  10.707   4.990 -0.2736  0.2330 -0.3317
  138MOL0     H19034   2.434  10.819   4.790 -0.3442  0.3944  1.1204
  138MOL0     H19035   2.281  10.755   4.747 -0.4884  2.3575  0.3940
  138MOL0     H19036   2.356  10.536   4.736  1.8105 -2.2888  0.2240
  138MOL0     H19037   2.451  10.644   4.626 -0.3761  1.9078  0.7925
  138MOL0     H19038   2.616  10.493   4.705 -0.9559  1.4659 -2.7264
  138MOL0     H19039   2.562  10.534   4.875  0.6279 -2.7711 -0.9544
  138MOL0     H19040   2.788  10.850   4.845  2.3644 -0.9346  1.6970
  138MOL0     H19041   2.088  10.699   4.926  1.4387  0.2099  0.2592
  138MOL0     H19042   1.741  10.617   4.831 -1.2592 -0.9955  2.0366
  138MOL0     H19043   1.793  10.680   4.993  0.8719 -0.9360  0.6248
  138MOL0     H19044   1.873  10.726   4.834 -0.7341 -0.6012 -1.3541
  139MOL0     O19045  10.059   9.044   0.196 -0.4841 -0.3720  0.3233
  139MOL0     C19046   9.985   9.039   0.296 -0.0507  0.2922 -0.2262
  139MOL0     O19047   9.861   8.990   0.296  0.2548  0.4910 -0.0824
  139MOL0     C19048   9.817   8.907   0.198 -0.9020 -0.7054  0.8244
  139MOL0     C19049   9.764   8.949   0.080  0.7255  0.6275  0.2051
  139MOL0     C19050   9.718   8.853  -0.006 -0.2964  0.0550 -0.0194
  139MOL0     C19051   9.723   8.715   0.023  0.1196  1.2061 -0.8403
  139MOL0     O19052   9.653   8.615  -0.041 -0.1991  0.0226  0.1324
  139MOL0     C19053   9.713   8.601  -0.176  0.6596 -0.5002  0.3497
  139MOL0     C19054   9.588   8.607  -0.267  0.0091 -1.1342 -0.3468
  139MOL0     C19055   9.604   8.587  -0.420  0.1090  0.9712  0.2188
  139MOL0     C19056   9.471   8.578  -0.500 -0.5770  0.1942  0.1222
  139MOL0     C19057   9.401   8.714  -0.493 -0.6064 -0.2302 -0.2948
  139MOL0     C19058   9.271   8.698  -0.572 -0.5644  0.3818 -0.3795
  139MOL0     C19059   9.209   8.840  -0.595  0.2306 -0.9599  0.4780
  139MOL0     C19060   9.071   8.816  -0.655  0.2948 -0.6432 -0.5188
  139MOL0     N19061   9.006   8.936  -0.711 -0.4012  0.5466 -0.4116
  139MOL0     C19062   9.058   9.028  -0.789 -0.2935  0.0818  0.8246
  139MOL0     C19063   8.948   9.099  -0.827  0.3641 -0.8700  0.8038
  139MOL0     C19064   8.925   9.212  -0.927 -0.1426 -0.8257 -0.9644
  139MOL0     C19065   8.961   9.361  -0.873  0.8823  0.5553 -0.0555
  139MOL0     C19066   9.107   9.365  -0.819  0.9363 -0.5937  0.0721
  139MOL0     C19067   9.148   9.499  -0.773 -0.7029 -0.8081 -0.5355
  139MOL0     O19068   9.169   9.592  -0.875 -0.1686  0.2475  0.7270
  139MOL0     C19069   9.071   9.682  -0.893 -0.0481 -1.0170  0.7437
  139MOL0     C19070   9.037   9.719  -1.024 -0.0432  0.2031  0.0530
  139MOL0     C19071   8.935   9.820  -1.040 -0.0748  0.3347 -0.5242
  139MOL0     C19072   8.906   9.851  -1.176  0.7488  1.3392 -0.0498
  139MOL0     C19073   8.884   9.893  -0.932  0.2450  0.2526 -1.0984
  139MOL0     C19074   8.775   9.990  -0.949  0.2820 -0.6178  0.1492
  139MOL0     O19075   8.772  10.092  -0.873  0.2083  0.1245  0.0642
  139MOL0     C19076   8.690  10.195  -0.900  1.0178 -0.5121 -0.4272
  139MOL0     C19077   8.628  10.254  -0.788 -0.1502 -0.1762 -0.5794
  139MOL0     C19078   8.547  10.363  -0.808 -0.2631  0.4871  0.3291
  139MOL0     C19079   8.515  10.416  -0.935 -0.4038  0.3451 -0.6113
  139MOL0     O19080   8.408  10.506  -0.960  0.0986  0.3732  0.7494
  139MOL0     C19081   8.450  10.641  -0.975  0.5718 -0.5173 -0.3626
  139MOL0     C19082   8.335  10.716  -1.051  0.0419 -0.1024  0.3152
  139MOL0     C19083   8.205  10.725  -0.970  0.2775 -0.5062 -0.7715
  139MOL0     C19084   8.222  10.753  -0.819  0.3599 -0.9477  0.3432
  139MOL0     C19085   8.089  10.765  -0.742  0.3658  0.1532  0.7605
  139MOL0     C19086   8.004  10.892  -0.794 -0.5328  0.3580 -0.2740
  139MOL0     C19087   7.877  10.921  -0.706 -0.0138 -0.1652  0.2287
  139MOL0     C19088   7.783  10.810  -0.716  0.3702  0.1651  0.2926
  139MOL0    Cl19089   7.629  10.860  -0.623  0.0097  0.2152 -0.0236
  139MOL0     C19090   8.591  10.359  -1.041  0.4343 -0.1659  0.0336
  139MOL0     C19091   8.678  10.251  -1.022  0.7251 -0.3808 -0.4664
  139MOL0     O19092   8.680   9.954  -1.022 -1.3591 -1.1017  0.1491
  139MOL0     C19093   8.926   9.858  -0.804 -0.3666 -0.3177  0.5479
  139MOL0     C19094   9.010   9.751  -0.784 -0.1947  0.2235  1.3687
  139MOL0     N19095   8.829   9.045  -0.774 -0.3539  0.0638 -0.4694
  139MOL0     N19096   8.866   8.953  -0.694 -0.3188  0.1700 -0.1697
  139MOL0     C19097   9.791   8.673   0.137 -1.1180 -0.3255  0.1343
  139MOL0     C19098   9.839   8.770   0.219  0.2066 -0.2270  0.4361
  139MOL0     C19099  10.046   9.077   0.437  0.1188 -0.8338  0.5129
  139MOL0     C19100   9.950   9.076   0.536  0.0460 -0.8004  0.2140
  139MOL0     C19101   9.990   9.091   0.669 -0.1808 -0.0368  0.8685
  139MOL0     C19102  10.121   9.124   0.692  0.9292  0.5630 -0.0004
  139MOL0     O19103  10.160   9.124   0.822  0.0481 -0.0708 -0.6205
  139MOL0     C19104  10.215   9.001   0.891  0.3234  0.0823  1.1408
  139MOL0     C19105  10.223   9.018   1.046  0.3761  0.0249 -0.5027
  139MOL0     C19106  10.327   9.134   1.090  0.1554  0.7015 -0.3797
  139MOL0     C19107  10.452   9.151   1.007  0.3113 -0.6816  0.2837
  139MOL0     C19108  10.534   9.261   1.063  0.4188 -0.6186 -0.1049
  139MOL0     C19109  10.587   9.363   1.110  0.6416 -0.1099 -0.2704
  139MOL0     C19110  10.218   9.144   0.597 -1.0401  0.2926  1.5923
  139MOL0     C19111  10.182   9.105   0.461 -0.4170  0.7817 -0.1792
  139MOL0     C19112  10.290   9.091   0.358 -0.9844 -1.0089  0.8483
  139MOL0     H19113   9.765   9.055   0.055 -1.0037  1.0724  1.7606
  139MOL0     H19114   9.677   8.876  -0.104  3.0197 -0.9946 -1.8334
  139MOL0     H19115   9.746   8.498  -0.194 -0.6399 -1.2141  1.7564
  139MOL0     H19116   9.785   8.678  -0.202 -1.1658  2.4225  3.1478
  139MOL0     H19117   9.514   8.538  -0.226 -3.4813  0.5990 -3.1698
  139MOL0     H19118   9.547   8.707  -0.249  1.4676 -0.8566  1.8968
  139MOL0     H19119   9.674   8.659  -0.463 -0.6439  0.0486 -2.8265
  139MOL0     H19120   9.658   8.492  -0.423 -0.3882  0.6560  1.0215
  139MOL0     H19121   9.492   8.541  -0.600 -2.1148 -0.4498  0.0037
  139MOL0     H19122   9.402   8.507  -0.454 -1.0511  0.4849 -0.1282
  139MOL0     H19123   9.469   8.792  -0.529 -1.0214 -0.3153 -1.3163
  139MOL0     H19124   9.373   8.734  -0.389 -0.6108 -1.7363  0.0151
  139MOL0     H19125   9.300   8.640  -0.660  0.6661  2.7547 -1.6511
  139MOL0     H19126   9.194   8.641  -0.519 -1.4139 -0.0987 -2.0531
  139MOL0     H19127   9.275   8.896  -0.661 -0.7973  2.1516  1.9304
  139MOL0     H19128   9.208   8.899  -0.503 -1.2023 -1.3838  0.7723
  139MOL0     H19129   9.075   8.731  -0.724  1.2298 -0.0678 -1.1847
  139MOL0     H19130   9.011   8.785  -0.569  2.4224 -2.0938  0.5291
  139MOL0     H19131   9.161   9.027  -0.824 -0.9202 -0.2817 -1.1395
  139MOL0     H19132   8.819   9.207  -0.952 -0.4261  2.3391 -0.7340
  139MOL0     H19133   8.984   9.189  -1.017  1.9897  0.2881  0.0858
  139MOL0     H19134   8.938   9.436  -0.949  0.2943 -1.9932 -2.5607
  139MOL0     H19135   8.895   9.382  -0.787 -2.8665 -0.6917 -2.3705
  139MOL0     H19136   9.112   9.296  -0.734  0.7341 -2.9294 -1.7221
  139MOL0     H19137   9.173   9.324  -0.897  0.4597 -0.8182 -0.2147
  139MOL0     H19138   9.067   9.528  -0.704  1.2382 -1.6346  2.2972
  139MOL0     H19139   9.233   9.504  -0.704 -2.0831  0.7469  1.1912
  139MOL0     H19140   9.074   9.673  -1.114 -0.8040  0.2519 -0.2974
  139MOL0     H19141   8.955   9.947  -1.196 -0.7360  2.5546  1.8152
  139MOL0     H19142   8.804   9.857  -1.216  0.8997  0.9140 -0.5046
  139MOL0     H19143   8.945   9.777  -1.246 -3.4374 -1.0546 -0.2086
  139MOL0     H19144   8.655  10.208  -0.693 -3.9258 -2.3365 -0.3439
  139MOL0     H19145   8.497  10.420  -0.730 -0.4655  2.3779 -1.0934
  139MOL0     H19146   8.477  10.686  -0.879  0.5980 -1.4654  0.0910
  139MOL0     H19147   8.542  10.640  -1.034  0.5537  0.8622 -0.4369
  139MOL0     H19148   8.372  10.818  -1.065  0.8982 -0.6656 -1.7961
  139MOL0     H19149   8.325  10.675  -1.152  0.1583 -0.0861  0.2972
  139MOL0     H19150   8.146  10.633  -0.980 -1.8271  0.9131 -2.2915
  139MOL0     H19151   8.137  10.798  -1.014 -1.2437  1.1154  3.6348
  139MOL0     H19152   8.263  10.855  -0.816 -0.1518 -0.7072 -0.3855
  139MOL0     H19153   8.282  10.684  -0.760 -1.4071 -1.0765  2.0700
  139MOL0     H19154   8.023  10.680  -0.762  2.4239 -1.1985 -0.6512
  139MOL0     H19155   8.107  10.762  -0.634  1.2051 -0.1694  0.6127
  139MOL0     H19156   7.966  10.884  -0.896 -0.2530  1.0154 -0.4371
  139MOL0     H19157   8.078  10.970  -0.811 -1.5395  1.9302  2.0190
  139MOL0     H19158   7.842  11.020  -0.737  3.4006  0.2131 -3.2116
  139MOL0     H19159   7.916  10.911  -0.604  0.9337 -3.1748 -0.3521
  139MOL0     H19160   7.820  10.719  -0.669  0.5414  0.4827  0.7805
  139MOL0     H19161   7.751  10.787  -0.818  0.0088  2.4688 -0.1685
  139MOL0     H19162   8.575  10.382  -1.146 -1.1762 -2.0565 -0.1982
  139MOL0     H19163   8.742  10.217  -1.102  1.4626  0.7670 -0.3872
  139MOL0     H19164   8.898   9.895  -0.706 -2.5052  1.6290 -0.7000
  139MOL0     H19165   9.040   9.739  -0.681 -2.2943  0.5844  2.0612
  139MOL0     H19166   9.805   8.566   0.150  0.8554 -0.1915 -0.4915
  139MOL0     H19167   9.888   8.728   0.306 -5.5024 -2.3911  3.0971
  139MOL0     H19168   9.845   9.071   0.508 -0.2649  3.2937  0.1014
  139MOL0     H19169   9.917   9.089   0.749 -0.6075 -0.9212  0.4724
  139MOL0     H19170  10.149   8.917   0.869 -0.1723 -0.5259  4.4410
  139MOL0     H19171  10.319   8.987   0.857  1.0841 -0.3329  3.4767
  139MOL0     H19172  10.270   8.924   1.079  0.0035 -0.6200 -1.7341
  139MOL0     H19173  10.125   9.036   1.090 -0.3959  1.8858 -2.7875
  139MOL0     H19174  10.267   9.222   1.069 -0.4861  0.9316  2.0960
  139MOL0     H19175  10.346   9.121   1.197  2.1117 -0.5609 -0.8183
  139MOL0     H19176  10.426   9.183   0.906 -0.3355 -1.1867  0.2789
  139MOL0     H19177  10.506   9.057   0.997  0.7609 -0.1640 -4.0207
  139MOL0     H19178  10.630   9.454   1.148  1.4479 -0.4530 -0.3403
  139MOL0     H19179  10.317   9.156   0.639  0.7754 -3.4933 -0.9838
  139MOL0     H19180  10.270   9.166   0.281  1.8289  2.5233  3.2131
  139MOL0     H19181  10.377   9.117   0.420 -0.7579 -0.6429  0.3844
  139MOL0     H19182  10.302   8.998   0.300  0.8165  1.3651 -3.0251
  140MOL0     O19183  10.885   1.864   8.101  0.1275  0.0090 -0.5113
  140MOL0     C19184  10.852   1.756   8.065 -0.4954  0.2825 -0.9174
  140MOL0     O19185  10.741   1.735   7.977  0.3892  1.1606  1.3460
  140MOL0     C19186  10.701   1.847   7.900  0.3854 -0.4976 -0.9393
  140MOL0     C19187  10.715   1.840   7.767 -0.1709 -0.0496  0.0313
  140MOL0     C19188  10.660   1.931   7.682  0.5553  0.3982 -0.0447
  140MOL0     C19189  10.585   2.043   7.733 -0.2850 -0.5174  0.3743
  140MOL0     O19190  10.546   2.131   7.633 -0.2835 -0.3589 -0.3663
  140MOL0     C19191  10.493   2.263   7.671  0.5871 -0.3179  0.5881
  140MOL0     C19192  10.432   2.360   7.556 -0.4321  0.0793 -0.0368
  140MOL0     C19193  10.526   2.395   7.434 -1.1996 -0.0738  0.5261
  140MOL0     C19194  10.652   2.481   7.474  0.0579 -0.2691  0.6012
  140MOL0     C19195  10.768   2.473   7.374 -0.2199 -0.4517 -0.8569
  140MOL0     C19196  10.861   2.586   7.404 -0.1680  0.2860  0.1988
  140MOL0     C19197  10.975   2.600   7.308  0.5864  0.6377 -0.2118
  140MOL0     C19198  11.067   2.706   7.344  0.0468 -1.2702  0.5418
  140MOL0     N19199  11.093   2.711   7.490 -0.4900  0.5244 -0.0110
  140MOL0     C19200  11.030   2.772   7.589  0.5505 -0.3849 -0.2124
  140MOL0     C19201  11.089   2.743   7.701 -0.2624 -0.0971 -0.4764
  140MOL0     C19202  11.052   2.788   7.844  0.1546  0.2702  0.6235
  140MOL0     C19203  10.970   2.674   7.903  0.2234  0.3746 -0.6619
  140MOL0     C19204  10.897   2.713   8.033 -0.3837 -0.5882 -0.0883
  140MOL0     C19205  10.987   2.770   8.139 -0.2868 -0.5254  0.5288
  140MOL0     O19206  11.111   2.693   8.154  0.4584  0.8324 -0.4003
  140MOL0     C19207  11.218   2.763   8.215  0.0330 -0.0022 -0.0698
  140MOL0     C19208  11.204   2.842   8.327  1.4964  0.4316  0.8752
  140MOL0     C19209  11.311   2.907   8.381 -0.1830 -0.7078 -0.1993
  140MOL0     C19210  11.291   3.003   8.501 -0.4268  0.7705  0.5649
  140MOL0     C19211  11.442   2.885   8.330  1.2692  0.5937 -0.1374
  140MOL0     C19212  11.561   2.955   8.389 -0.7267 -0.3669  0.5553
  140MOL0     O19213  11.649   3.002   8.292 -0.3540  1.1482 -0.4967
  140MOL0     C19214  11.765   3.047   8.341  0.8303 -0.7161 -0.5047
  140MOL0     C19215  11.775   3.180   8.388 -0.2103  0.3187  0.2953
  140MOL0     C19216  11.894   3.236   8.421  0.3685 -0.6052 -0.9246
  140MOL0     C19217  12.010   3.163   8.415 -0.1860  0.1635  0.3018
  140MOL0     O19218  12.126   3.239   8.439 -0.1355 -0.5788 -0.1355
  140MOL0     C19219  12.227   3.176   8.530  0.4215 -0.6685  0.4166
  140MOL0     C19220  12.308   3.300   8.574 -0.0307 -0.1090 -0.0830
  140MOL0     C19221  12.427   3.273   8.667  0.2335  0.1206  0.0333
  140MOL0     C19222  12.385   3.224   8.803  0.0698 -0.4702 -0.1403
  140MOL0     C19223  12.506   3.210   8.892  0.4021 -0.0960  0.9795
  140MOL0     C19224  12.450   3.209   9.033 -0.1003  0.0436 -0.7523
  140MOL0     C19225  12.555   3.199   9.139  0.2408 -0.2375 -0.0030
  140MOL0     C19226  12.614   3.065   9.159 -0.4203  0.8041 -0.1403
  140MOL0    Cl19227  12.726   3.005   9.025  0.3770 -0.1330 -0.0622
  140MOL0     C19228  12.006   3.031   8.380 -1.4136 -0.4120  0.2395
  140MOL0     C19229  11.888   2.975   8.331  0.6461 -0.1732 -0.8232
  140MOL0     O19230  11.574   2.967   8.506 -0.5549  0.2435 -0.2091
  140MOL0     C19231  11.455   2.798   8.221  0.0438  0.2161 -0.6428
  140MOL0     C19232  11.348   2.728   8.168  0.2874 -0.0680 -0.3540
  140MOL0     N19233  11.196   2.665   7.666 -0.6042  0.2101 -0.6801
  140MOL0     N19234  11.204   2.648   7.539  0.5228 -0.4723  0.9500
  140MOL0     C19235  10.571   2.058   7.877 -0.4920  0.4748  0.3860
  140MOL0     C19236  10.627   1.954   7.956  0.5559  0.8127  0.7203
  140MOL0     C19237  10.918   1.624   8.112 -0.6929 -0.2023 -0.3828
  140MOL0     C19238  10.894   1.496   8.046  0.0387 -0.5089  0.4444
  140MOL0     C19239  10.952   1.377   8.088  0.2425 -0.3343  0.0426
  140MOL0     C19240  11.039   1.384   8.197 -0.3137 -0.4107  0.2422
  140MOL0     O19241  11.086   1.263   8.235 -0.4636  0.1561  0.2102
  140MOL0     C19242  11.202   1.256   8.322  0.3052  0.4137 -0.0162
  140MOL0     C19243  11.247   1.107   8.343 -0.7587 -0.1736  0.7944
  140MOL0     C19244  11.341   1.062   8.222  0.0166  0.0149 -0.0061
  140MOL0     C19245  11.363   0.912   8.226 -0.1195  1.4619 -0.7695
  140MOL0     C19246  11.427   0.875   8.351 -0.2214  0.5813  0.0691
  140MOL0     C19247  11.480   0.828   8.447  0.2656 -0.8237 -0.8121
  140MOL0     C19248  11.065   1.505   8.267 -0.1820  0.3544 -0.6865
  140MOL0     C19249  11.005   1.622   8.225  1.0468  0.0877 -0.0884
  140MOL0     C19250  11.002   1.725   8.335  0.1882  0.3003  0.3110
  140MOL0     H19251  10.764   1.751   7.730  1.4508  0.8593 -0.0796
  140MOL0     H19252  10.660   1.918   7.575  0.1517 -0.6134  0.0698
  140MOL0     H19253  10.568   2.318   7.729 -0.1768  1.2910  0.1390
  140MOL0     H19254  10.407   2.242   7.736  0.9025  0.7344  1.3910
  140MOL0     H19255  10.343   2.314   7.513 -0.0752  0.0225 -0.7217
  140MOL0     H19256  10.395   2.455   7.595  3.4594  2.1017 -0.8264
  140MOL0     H19257  10.567   2.299   7.403  0.2399  0.8594 -0.5537
  140MOL0     H19258  10.466   2.433   7.351 -2.3106 -0.4651  1.1249
  140MOL0     H19259  10.616   2.584   7.486  0.4747  0.0148 -0.4464
  140MOL0     H19260  10.685   2.463   7.577 -0.1922  0.1162  0.7502
  140MOL0     H19261  10.728   2.473   7.272 -1.2301 -2.2557 -0.5193
  140MOL0     H19262  10.812   2.374   7.389  2.7082  0.2968 -3.3748
  140MOL0     H19263  10.800   2.677   7.409 -1.3156 -0.4059 -0.7028
  140MOL0     H19264  10.905   2.558   7.500  1.4257 -1.0796 -0.8850
  140MOL0     H19265  10.943   2.610   7.203  2.5523  0.6046 -0.8576
  140MOL0     H19266  11.019   2.499   7.304  0.0852  0.3849 -4.2253
  140MOL0     H19267  11.158   2.689   7.285 -1.4177 -2.3354 -1.5210
  140MOL0     H19268  11.018   2.800   7.319  1.1239 -0.9431 -0.4377
  140MOL0     H19269  10.933   2.821   7.592 -0.6863 -2.7205  0.5207
  140MOL0     H19270  10.998   2.882   7.855  0.2941  0.1301  3.1162
  140MOL0     H19271  11.149   2.799   7.894  0.3677 -1.4830  0.6807
  140MOL0     H19272  10.903   2.627   7.830 -2.5817  0.0868  1.8988
  140MOL0     H19273  11.032   2.585   7.918  2.3158  1.1798 -3.5851
  140MOL0     H19274  10.827   2.793   8.007  2.9920  2.5084 -0.4536
  140MOL0     H19275  10.853   2.620   8.069 -0.1014 -1.4910 -1.9331
  140MOL0     H19276  10.998   2.878   8.128 -2.3982 -0.3825 -0.6291
  140MOL0     H19277  10.929   2.763   8.231  0.6357 -0.0492  1.1703
  140MOL0     H19278  11.104   2.869   8.360  0.3119  0.4238 -2.3253
  140MOL0     H19279  11.367   3.080   8.516 -0.4587  0.7621  0.7730
  140MOL0     H19280  11.277   2.939   8.588 -0.2013 -2.2102 -1.4550
  140MOL0     H19281  11.201   3.062   8.481 -1.2084  0.0372  1.8132
  140MOL0     H19282  11.678   3.229   8.387 -2.7959 -4.2543 -0.7721
  140MOL0     H19283  11.898   3.342   8.444 -1.6055 -0.4393 -1.1145
  140MOL0     H19284  12.192   3.108   8.609  3.8133 -2.3870  0.6388
  140MOL0     H19285  12.284   3.105   8.470 -2.2908 -1.8932 -0.9191
  140MOL0     H19286  12.347   3.343   8.482 -0.2823 -1.5194 -0.8763
  140MOL0     H19287  12.233   3.360   8.627 -0.7577 -1.1367  0.0843
  140MOL0     H19288  12.503   3.352   8.659  0.2272  0.0485 -0.8941
  140MOL0     H19289  12.480   3.190   8.620 -0.1678  1.6957 -3.5764
  140MOL0     H19290  12.328   3.131   8.800 -1.8177  0.5318  1.6036
  140MOL0     H19291  12.325   3.302   8.850  2.6757  1.1351  0.6994
  140MOL0     H19292  12.544   3.109   8.876  1.8278  0.4049  1.0908
  140MOL0     H19293  12.582   3.285   8.868 -0.7474  0.0100 -2.9458
  140MOL0     H19294  12.392   3.116   9.035  0.7316 -0.4747 -0.5161
  140MOL0     H19295  12.382   3.295   9.043  0.9632  0.7440  0.7997
  140MOL0     H19296  12.507   3.236   9.230 -3.4992  0.5720 -2.0845
  140MOL0     H19297  12.637   3.268   9.118 -1.8373  2.2673 -0.3864
  140MOL0     H19298  12.533   2.991   9.164  1.0407 -0.9168 -0.8548
  140MOL0     H19299  12.673   3.066   9.251 -0.2969 -0.8134 -0.1712
  140MOL0     H19300  12.094   2.967   8.378 -1.5312 -0.5882  0.5629
  140MOL0     H19301  11.875   2.878   8.286 -0.5564  0.8135 -2.7295
  140MOL0     H19302  11.554   2.792   8.177 -0.5136 -1.1993 -1.7712
  140MOL0     H19303  11.356   2.649   8.093 -0.5486 -2.0973  1.5739
  140MOL0     H19304  10.503   2.134   7.916  0.2674  1.8258 -0.8188
  140MOL0     H19305  10.601   1.945   8.061  3.2268  4.5575  1.9202
  140MOL0     H19306  10.835   1.499   7.955  1.6151 -0.7339 -0.6294
  140MOL0     H19307  10.940   1.277   8.047 -1.5769 -1.3026  2.6636
  140MOL0     H19308  11.283   1.319   8.285 -1.6689  2.6223 -0.7872
  140MOL0     H19309  11.169   1.284   8.423  1.4027 -2.5536  1.3051
  140MOL0     H19310  11.158   1.042   8.347 -1.0441 -0.1132 -2.3693
  140MOL0     H19311  11.310   1.104   8.432 -0.8533 -2.8014  0.8603
  140MOL0     H19312  11.298   1.093   8.127 -0.6593  1.9679  0.8800
  140MOL0     H19313  11.434   1.121   8.219 -0.1766  0.5359  2.1216
  140MOL0     H19314  11.427   0.888   8.140  1.5960  2.9167  0.0235
  140MOL0     H19315  11.262   0.874   8.208 -0.5718  3.8854 -4.3355
  140MOL0     H19316  11.524   0.778   8.531  3.3878  0.0898 -1.7490
  140MOL0     H19317  11.113   1.502   8.364  1.9364 -1.4226 -1.6787
  140MOL0     H19318  11.100   1.766   8.361  0.2493  0.5030 -0.2130
  140MOL0     H19319  10.924   1.800   8.317  1.7040  1.2953 -2.9395
  140MOL0     H19320  10.957   1.681   8.424 -1.2319 -0.6035 -0.8049
  141MOL0     O19321   7.413   8.898   3.087  0.0712 -0.3281  0.1010
  141MOL0     C19322   7.518   8.860   3.133 -0.3726  0.8500 -1.1990
  141MOL0     O19323   7.567   8.743   3.129  0.2796 -0.4300  0.1664
  141MOL0     C19324   7.482   8.643   3.085 -1.1030  0.5583 -0.4614
  141MOL0     C19325   7.452   8.554   3.189  0.6030  0.2555 -0.4169
  141MOL0     C19326   7.348   8.457   3.169 -0.1902 -0.3066 -0.1459
  141MOL0     C19327   7.292   8.437   3.036  0.2569  0.5071  0.9758
  141MOL0     O19328   7.201   8.337   3.008  0.7906 -0.0381  0.2414
  141MOL0     C19329   7.157   8.241   3.107 -0.5047 -0.8301  0.5018
  141MOL0     C19330   7.066   8.135   3.039 -1.2522 -0.0102  0.0827
  141MOL0     C19331   7.030   8.043   3.151 -0.4409  0.2505 -0.2237
  141MOL0     C19332   6.938   7.941   3.089 -0.0524 -0.1378  0.5266
  141MOL0     C19333   6.910   7.831   3.197  0.1581  0.3324 -0.0088
  141MOL0     C19334   7.003   7.705   3.188  1.4791 -0.7090 -0.6598
  141MOL0     C19335   7.146   7.734   3.222 -0.2650 -0.2738 -0.2437
  141MOL0     C19336   7.222   7.606   3.245 -0.1507  0.0491 -0.6842
  141MOL0     N19337   7.350   7.611   3.324  0.4566 -0.3091  0.1242
  141MOL0     C19338   7.430   7.726   3.335  0.6425  0.5422 -0.7412
  141MOL0     C19339   7.546   7.675   3.388 -1.0849  0.2786  0.6968
  141MOL0     C19340   7.669   7.753   3.392  0.8647 -0.2080  0.1325
  141MOL0     C19341   7.727   7.767   3.251 -0.5363  0.2819 -0.4730
  141MOL0     C19342   7.647   7.865   3.160 -0.8302  0.1335  0.4572
  141MOL0     C19343   7.728   7.936   3.048 -0.7515 -0.2935  0.0746
  141MOL0     O19344   7.789   7.830   2.971  0.3482  0.4048 -0.6787
  141MOL0     C19345   7.880   7.865   2.872  0.3269 -0.0947 -0.2205
  141MOL0     C19346   7.926   7.777   2.771  0.0008  0.4573  0.2206
  141MOL0     C19347   8.011   7.814   2.669  0.6628 -0.1280 -0.1526
  141MOL0     C19348   8.037   7.710   2.560  0.5489  0.3792  0.4201
  141MOL0     C19349   8.065   7.945   2.666  0.6975  0.5575  0.6506
  141MOL0     C19350   8.164   7.990   2.566  0.5217 -0.5081  0.6344
  141MOL0     O19351   8.234   8.102   2.606 -0.1620 -0.5292  0.0881
  141MOL0     C19352   8.335   8.153   2.531 -0.3957  0.5083 -0.6156
  141MOL0     C19353   8.426   8.078   2.452 -0.3566  0.7236  0.3949
  141MOL0     C19354   8.524   8.147   2.380 -0.7139 -0.4655  0.5864
  141MOL0     C19355   8.555   8.285   2.411 -0.4430 -0.6953 -0.3915
  141MOL0     O19356   8.672   8.355   2.377  0.3214 -0.7247 -0.4503
  141MOL0     C19357   8.734   8.312   2.256  0.2831  0.0402 -1.0631
  141MOL0     C19358   8.848   8.405   2.203 -0.7489  0.1981 -0.4159
  141MOL0     C19359   8.977   8.390   2.292 -1.1711 -0.3198 -0.2793
  141MOL0     C19360   9.060   8.522   2.284 -0.2893 -0.3655 -0.8686
  141MOL0     C19361   9.200   8.510   2.353  0.2043 -0.5876  0.7814
  141MOL0     C19362   9.185   8.532   2.506  0.2458  0.0191 -0.2320
  141MOL0     C19363   9.318   8.499   2.566 -0.3921 -0.0342 -1.0148
  141MOL0     C19364   9.368   8.354   2.565  0.0669  1.0194  0.8454
  141MOL0    Cl19365   9.277   8.254   2.679  0.3327 -0.3911 -0.1381
  141MOL0     C19366   8.474   8.354   2.494  0.4348  0.4355  0.2172
  141MOL0     C19367   8.357   8.293   2.554  0.3089 -0.8467  0.3555
  141MOL0     O19368   8.168   7.936   2.459 -0.3481  0.1171  0.9540
  141MOL0     C19369   8.025   8.038   2.762 -0.1044  0.2202  0.4687
  141MOL0     C19370   7.928   8.005   2.859 -0.0333  0.3646  0.5062
  141MOL0     N19371   7.533   7.532   3.413  0.9650 -0.1982 -0.4574
  141MOL0     N19372   7.413   7.500   3.364 -0.3289 -0.0807 -0.0656
  141MOL0     C19373   7.341   8.509   2.934  0.0725  0.2189  0.2968
  141MOL0     C19374   7.434   8.613   2.953  0.8763  0.3564  0.8420
  141MOL0     C19375   7.596   8.959   3.216 -1.1839 -0.0881  1.0658
  141MOL0     C19376   7.521   9.072   3.263 -0.3617 -0.9727  0.1013
  141MOL0     C19377   7.580   9.166   3.344  0.9785 -0.0081 -0.2590
  141MOL0     C19378   7.702   9.139   3.407 -0.2316 -1.1115 -0.0590
  141MOL0     O19379   7.746   9.230   3.500 -0.1775  0.1388 -0.2503
  141MOL0     C19380   7.864   9.219   3.580  0.1035  0.1322  0.2694
  141MOL0     C19381   7.861   9.346   3.677 -0.5132  0.1698 -0.5720
  141MOL0     C19382   7.979   9.340   3.777  0.0077  0.1476 -1.0252
  141MOL0     C19383   7.985   9.457   3.875  0.3095 -0.8306 -0.4831
  141MOL0     C19384   8.036   9.432   4.011  1.0465  0.2553  0.1724
  141MOL0     C19385   8.091   9.434   4.112  1.2325 -0.3459 -0.0702
  141MOL0     C19386   7.781   9.033   3.359  0.3148  0.3187  0.1576
  141MOL0     C19387   7.730   8.937   3.275  0.6518 -0.1510  0.0273
  141MOL0     C19388   7.822   8.818   3.236 -0.0181 -0.3854  0.3648
  141MOL0     H19389   7.496   8.562   3.287 -0.4291 -0.4629  0.1250
  141MOL0     H19390   7.322   8.395   3.254 -0.9632  1.5253  1.0319
  141MOL0     H19391   7.103   8.296   3.185  3.4396  3.2918  0.7396
  141MOL0     H19392   7.241   8.183   3.144 -2.4844 -3.3624  1.3409
  141MOL0     H19393   6.982   8.177   2.984 -1.4131 -0.4617 -0.0161
  141MOL0     H19394   7.123   8.081   2.963 -0.3139 -1.7426  1.9309
  141MOL0     H19395   7.119   7.988   3.181  0.5769  0.9967 -1.7629
  141MOL0     H19396   6.982   8.097   3.233  0.8270 -2.9205  2.8454
  141MOL0     H19397   6.840   7.983   3.065  1.0096  1.9875 -0.3800
  141MOL0     H19398   6.982   7.898   2.998  1.4779 -0.0433  1.1904
  141MOL0     H19399   6.809   7.791   3.192  0.3078 -0.3845  1.9042
  141MOL0     H19400   6.923   7.888   3.290  2.3313  2.1851 -1.3373
  141MOL0     H19401   6.961   7.638   3.264 -1.0932  4.1765  2.7671
  141MOL0     H19402   6.981   7.653   3.094 -0.4472 -1.0937 -0.0468
  141MOL0     H19403   7.151   7.788   3.317  2.7783 -0.1176 -0.3979
  141MOL0     H19404   7.200   7.793   3.148 -1.4080  1.0650 -0.0369
  141MOL0     H19405   7.151   7.531   3.282 -0.8908  1.3551  0.6062
  141MOL0     H19406   7.248   7.582   3.141 -2.3603  1.0785 -1.5618
  141MOL0     H19407   7.406   7.826   3.302 -0.5076  0.1979 -1.0022
  141MOL0     H19408   7.738   7.707   3.463  2.0543  1.4388  0.1023
  141MOL0     H19409   7.636   7.849   3.435 -1.2504 -1.9908  2.8749
  141MOL0     H19410   7.833   7.789   3.267 -0.8053  0.2224  1.6372
  141MOL0     H19411   7.737   7.670   3.203  2.6966 -0.3634  1.2451
  141MOL0     H19412   7.566   7.811   3.111 -0.5155 -0.0724  0.1580
  141MOL0     H19413   7.603   7.945   3.221  1.4043  0.8545  1.2158
  141MOL0     H19414   7.667   8.002   2.987  1.5536 -0.3320 -2.4248
  141MOL0     H19415   7.808   7.988   3.100  0.2467 -2.3509  0.7024
  141MOL0     H19416   7.886   7.676   2.773  0.6551  0.1986  1.6594
  141MOL0     H19417   8.145   7.701   2.550  0.8112  2.8323  0.5125
  141MOL0     H19418   8.005   7.747   2.462  0.7553  1.8367  0.8835
  141MOL0     H19419   7.988   7.615   2.584 -1.5937  1.1361 -0.6231
  141MOL0     H19420   8.419   7.972   2.431 -0.7578  0.3009  2.4828
  141MOL0     H19421   8.586   8.083   2.318 -3.4670 -3.4824  0.7102
  141MOL0     H19422   8.783   8.215   2.270 -0.6021 -0.0806  1.8643
  141MOL0     H19423   8.656   8.305   2.179  0.7568 -2.1030 -1.4035
  141MOL0     H19424   8.877   8.378   2.101  2.5519 -1.3800  0.7652
  141MOL0     H19425   8.812   8.508   2.194 -4.0096 -0.8628 -1.0229
  141MOL0     H19426   9.045   8.314   2.254  1.7473  1.0290  1.8872
  141MOL0     H19427   8.949   8.356   2.393  0.1348  0.8854  0.5299
  141MOL0     H19428   8.991   8.597   2.323 -0.7406  0.3584 -2.8951
  141MOL0     H19429   9.074   8.535   2.176 -2.4805 -1.3841 -1.3317
  141MOL0     H19430   9.239   8.413   2.323  0.4867 -0.4650  0.7496
  141MOL0     H19431   9.270   8.589   2.324  0.0142  0.6892  3.4956
  141MOL0     H19432   9.124   8.454   2.552 -2.1062  1.2611 -1.0350
  141MOL0     H19433   9.138   8.630   2.516 -1.2126 -0.8685  2.4653
  141MOL0     H19434   9.319   8.526   2.672 -1.5912  2.3351 -1.5474
  141MOL0     H19435   9.397   8.564   2.526  2.0358 -1.1712  1.6119
  141MOL0     H19436   9.476   8.347   2.584  0.2161 -4.3343 -0.5127
  141MOL0     H19437   9.360   8.308   2.466  0.4421 -0.9519  1.6710
  141MOL0     H19438   8.495   8.457   2.521 -0.0623  0.4752  0.4597
  141MOL0     H19439   8.284   8.349   2.612 -0.0795  2.0436 -2.6360
  141MOL0     H19440   8.062   8.140   2.767  1.9278 -0.4584  0.5648
  141MOL0     H19441   7.906   8.089   2.924 -1.2296 -0.8634  1.7431
  141MOL0     H19442   7.279   8.512   2.845  1.5445 -2.9044 -1.0144
  141MOL0     H19443   7.453   8.684   2.874  3.9676 -1.3852 -0.1531
  141MOL0     H19444   7.430   9.099   3.212  0.0443 -0.6311 -0.4580
  141MOL0     H19445   7.520   9.253   3.372  1.8687 -0.2447  2.7543
  141MOL0     H19446   7.857   9.135   3.649  1.6038 -1.0544 -0.9520
  141MOL0     H19447   7.959   9.212   3.527  0.9778  0.4272  1.7311
  141MOL0     H19448   7.766   9.335   3.730 -1.0260  0.0663 -1.4805
  141MOL0     H19449   7.871   9.438   3.619 -0.5028  0.6681  0.2036
  141MOL0     H19450   7.974   9.248   3.835  1.4612 -0.1663 -1.3619
  141MOL0     H19451   8.068   9.333   3.715 -0.3392 -0.2214 -1.4886
  141MOL0     H19452   7.884   9.498   3.885 -0.3802 -2.7060  0.6766
  141MOL0     H19453   8.053   9.534   3.838 -1.5029  2.5606  2.6202
  141MOL0     H19454   8.134   9.422   4.209 -0.0678  1.2250  0.7305
  141MOL0     H19455   7.878   9.008   3.402  0.8478  1.5836 -0.2559
  141MOL0     H19456   7.790   8.725   3.284  0.9281 -1.5257 -1.1341
  141MOL0     H19457   7.819   8.823   3.127 -0.6239 -0.3986  0.3767
  141MOL0     H19458   7.926   8.843   3.258 -0.3840 -0.9443  3.0494
  142MOL0     O19459  10.725   4.739   2.705  0.3369  0.6476  0.2119
  142MOL0     C19460  10.692   4.772   2.589  0.2235  0.7926  0.3890
  142MOL0     O19461  10.761   4.860   2.514  0.3996  0.2641 -0.4998
  142MOL0     C19462  10.864   4.932   2.571  0.5166 -0.7127 -0.0697
  142MOL0     C19463  10.990   4.901   2.533  0.5082  0.1218 -0.2168
  142MOL0     C19464  11.095   4.967   2.585 -0.2282  0.8978  0.4069
  142MOL0     C19465  11.080   5.062   2.685 -0.2135  0.2153  0.3784
  142MOL0     O19466  11.194   5.115   2.752  0.1547  0.2681  0.6301
  142MOL0     C19467  11.185   5.127   2.888  0.2660  0.3260  1.0425
  142MOL0     C19468  11.243   5.007   2.951  0.1601  0.2968  0.1633
  142MOL0     C19469  11.394   4.989   2.930  2.0252  0.4719 -0.0893
  142MOL0     C19470  11.441   4.883   3.036  0.1836 -0.4094  0.0443
  142MOL0     C19471  11.595   4.877   3.037 -0.4037  0.0344  0.2279
  142MOL0     C19472  11.641   4.738   3.092 -0.6528 -0.7066  0.1169
  142MOL0     C19473  11.791   4.712   3.069  0.2916  0.6566 -0.3808
  142MOL0     C19474  11.834   4.572   3.102  0.8866 -0.2176  0.3873
  142MOL0     N19475  11.972   4.541   3.061 -0.7389 -0.0979  0.0890
  142MOL0     C19476  12.091   4.571   3.134  1.0342  0.8052 -0.2313
  142MOL0     C19477  12.174   4.474   3.091 -0.1140 -0.0955  0.6133
  142MOL0     C19478  12.309   4.434   3.146  0.2473 -0.0357 -0.0457
  142MOL0     C19479  12.301   4.331   3.257 -0.1231  0.5122 -0.6387
  142MOL0     C19480  12.445   4.316   3.329 -0.5407 -0.4759  0.6061
  142MOL0     C19481  12.552   4.260   3.242 -0.6038 -0.2603 -0.2276
  142MOL0     O19482  12.600   4.342   3.138  0.7811  0.1428  0.4224
  142MOL0     C19483  12.691   4.443   3.156  0.6113  0.5440 -0.0527
  142MOL0     C19484  12.702   4.543   3.061  0.1906 -0.5829 -1.0165
  142MOL0     C19485  12.797   4.649   3.069  0.7043 -0.4200 -0.2903
  142MOL0     C19486  12.804   4.753   2.959  0.8775 -0.3006 -0.1134
  142MOL0     C19487  12.887   4.653   3.181  0.1545  0.3172 -0.1705
  142MOL0     C19488  12.985   4.767   3.206 -0.9071 -0.1944 -0.1486
  142MOL0     O19489  13.004   4.872   3.125  0.3526  0.4480 -0.4127
  142MOL0     C19490  13.059   4.994   3.168  0.2283 -0.3129 -0.4195
  142MOL0     C19491  13.135   5.061   3.069 -0.0071 -0.9103  0.4476
  142MOL0     C19492  13.211   5.174   3.100 -0.0513 -0.3347 -0.2641
  142MOL0     C19493  13.219   5.222   3.232  0.3820  0.9210  0.5191
  142MOL0     O19494  13.291   5.325   3.273 -0.3948  0.1533  0.1191
  142MOL0     C19495  13.433   5.323   3.258  0.3679 -0.5335  0.5395
  142MOL0     C19496  13.484   5.470   3.255 -0.2610  0.1597  0.1086
  142MOL0     C19497  13.627   5.486   3.209 -0.4040 -0.1888  0.5722
  142MOL0     C19498  13.668   5.631   3.209 -0.1704 -0.1995 -0.7521
  142MOL0     C19499  13.825   5.645   3.217  0.8733  0.1904  0.3441
  142MOL0     C19500  13.900   5.580   3.099  0.3473  0.2881 -0.3675
  142MOL0     C19501  14.055   5.588   3.128  0.2868  0.1181 -0.0676
  142MOL0     C19502  14.137   5.504   3.034  0.1019  0.9366  0.3359
  142MOL0    Cl19503  14.149   5.590   2.865  0.3564 -0.5205  0.3265
  142MOL0     C19504  13.125   5.171   3.320 -0.1306  0.0127  0.3857
  142MOL0     C19505  13.057   5.051   3.299  0.1698  0.4706  0.0059
  142MOL0     O19506  13.013   4.768   3.319  0.1459  0.0400 -0.2266
  142MOL0     C19507  12.872   4.548   3.276  0.0148 -0.2676 -0.2401
  142MOL0     C19508  12.781   4.446   3.259 -0.1840  0.7520  0.3168
  142MOL0     N19509  12.112   4.403   2.983  0.0670  0.0150 -0.4735
  142MOL0     N19510  11.993   4.443   2.969 -0.3684  0.0530 -0.3143
  142MOL0     C19511  10.948   5.109   2.709 -0.0259 -0.7651  0.9078
  142MOL0     C19512  10.835   5.040   2.668 -0.6681  0.6328 -0.2441
  142MOL0     C19513  10.577   4.705   2.518 -0.1920 -0.7271 -0.5459
  142MOL0     C19514  10.595   4.651   2.389 -0.2210  0.2179  0.2033
  142MOL0     C19515  10.499   4.579   2.321 -0.8086  0.6185 -0.6815
  142MOL0     C19516  10.388   4.534   2.388  0.0709 -0.3998  0.1602
  142MOL0     O19517  10.292   4.458   2.331  0.0291  0.0148 -0.1278
  142MOL0     C19518  10.295   4.316   2.362 -0.2382 -0.2862  0.9920
  142MOL0     C19519  10.145   4.283   2.332  0.2346  0.5247 -0.1545
  142MOL0     C19520  10.122   4.134   2.378 -0.3173  0.5461 -0.1615
  142MOL0     C19521   9.974   4.087   2.368 -0.3279  0.3064 -0.7360
  142MOL0     C19522   9.938   4.047   2.233  0.6954  0.1210 -0.3422
  142MOL0     C19523   9.936   4.033   2.111  0.0066 -0.3190  0.0646
  142MOL0     C19524  10.364   4.586   2.513 -0.0691  0.1153 -0.5007
  142MOL0     C19525  10.452   4.672   2.580 -0.3432  0.6407 -0.5020
  142MOL0     C19526  10.416   4.726   2.714 -0.7373  0.1762 -0.5443
  142MOL0     H19527  10.999   4.822   2.460 -3.5118 -0.5529 -0.1936
  142MOL0     H19528  11.199   4.951   2.559 -0.3856  0.1703  0.2192
  142MOL0     H19529  11.083   5.142   2.926 -0.7603 -1.0882 -0.9759
  142MOL0     H19530  11.235   5.217   2.926 -0.4692  0.0886  2.6393
  142MOL0     H19531  11.229   5.002   3.059  3.2465 -1.7626  0.5947
  142MOL0     H19532  11.197   4.915   2.914 -1.3727  1.4495 -0.9365
  142MOL0     H19533  11.415   4.961   2.827  1.1852 -3.0285  0.5491
  142MOL0     H19534  11.452   5.075   2.964  2.0373  0.0233  1.0829
  142MOL0     H19535  11.409   4.917   3.135  0.1533  0.7517 -0.3525
  142MOL0     H19536  11.402   4.781   3.023  0.5150 -1.0255  3.1041
  142MOL0     H19537  11.619   4.963   3.100  2.2200 -0.7463  0.3974
  142MOL0     H19538  11.631   4.898   2.936 -5.2279  0.5449 -1.6512
  142MOL0     H19539  11.627   4.732   3.200  2.4717 -0.0050  0.6567
  142MOL0     H19540  11.585   4.661   3.038  0.0535 -0.4270 -1.0534
  142MOL0     H19541  11.857   4.758   3.144  1.7406  0.6891 -1.6184
  142MOL0     H19542  11.822   4.744   2.969 -1.6231  2.1613 -0.5401
  142MOL0     H19543  11.825   4.553   3.209  1.8376 -2.8083  0.0929
  142MOL0     H19544  11.763   4.502   3.057  1.1059  0.8280 -1.7000
  142MOL0     H19545  12.106   4.638   3.219  3.7140  0.3996 -0.3187
  142MOL0     H19546  12.360   4.526   3.174  0.7615 -0.7557  1.5269
  142MOL0     H19547  12.364   4.395   3.060  1.3970 -0.7766  0.9921
  142MOL0     H19548  12.231   4.361   3.335 -2.6090  0.4752 -2.7264
  142MOL0     H19549  12.268   4.232   3.225  0.6220  0.3554 -0.9584
  142MOL0     H19550  12.473   4.416   3.364 -3.8727  1.0921 -0.7952
  142MOL0     H19551  12.421   4.247   3.411 -0.1599 -2.3198 -0.7557
  142MOL0     H19552  12.638   4.232   3.303  0.1884  0.0964 -1.1586
  142MOL0     H19553  12.512   4.168   3.197  2.1381 -0.7993 -1.7339
  142MOL0     H19554  12.628   4.553   2.982 -0.4391  2.0141 -0.1928
  142MOL0     H19555  12.903   4.754   2.913  1.2063  0.2602  0.5853
  142MOL0     H19556  12.779   4.851   3.000 -0.1000 -1.1212  1.3663
  142MOL0     H19557  12.731   4.726   2.883  0.1939  0.3471  0.2930
  142MOL0     H19558  13.134   5.022   2.967  0.5938  0.2042  0.0009
  142MOL0     H19559  13.281   5.208   3.024 -0.4292 -0.1543 -0.5385
  142MOL0     H19560  13.468   5.260   3.341 -1.1697 -0.6280  1.1565
  142MOL0     H19561  13.465   5.274   3.166  0.6440  2.6555 -1.1877
  142MOL0     H19562  13.430   5.538   3.188 -2.2106  1.2582  2.5936
  142MOL0     H19563  13.450   5.506   3.353 -3.4890  0.3390 -0.9433
  142MOL0     H19564  13.645   5.442   3.111 -3.2452  1.4029 -0.8122
  142MOL0     H19565  13.690   5.425   3.273  2.4264  1.5046 -0.4233
  142MOL0     H19566  13.624   5.690   3.290  0.5581 -3.2070  2.0675
  142MOL0     H19567  13.643   5.668   3.109 -0.4304 -1.2025 -1.0620
  142MOL0     H19568  13.848   5.751   3.230 -0.4780  0.8820 -2.0670
  142MOL0     H19569  13.858   5.595   3.308 -2.6343 -0.9757  1.1167
  142MOL0     H19570  13.878   5.640   3.010  2.4657  2.4361  0.4781
  142MOL0     H19571  13.874   5.475   3.081  0.4880  0.0698  0.6672
  142MOL0     H19572  14.074   5.546   3.227 -1.7904 -1.0825 -0.1364
  142MOL0     H19573  14.084   5.694   3.129  3.5578 -0.6694  1.0610
  142MOL0     H19574  14.084   5.413   3.004 -1.4252  2.9295 -3.8216
  142MOL0     H19575  14.235   5.486   3.079 -1.3783 -1.0799  3.0508
  142MOL0     H19576  13.106   5.229   3.411  0.8428  1.9101 -0.5522
  142MOL0     H19577  13.003   5.003   3.380 -0.4218  1.9285  0.5005
  142MOL0     H19578  12.948   4.531   3.352  0.5826  1.4465 -0.3831
  142MOL0     H19579  12.795   4.358   3.321  1.4081 -0.8356 -2.0743
  142MOL0     H19580  10.932   5.187   2.782  0.1993  0.5997 -0.4636
  142MOL0     H19581  10.738   5.067   2.709  0.1050  1.1827  1.3088
  142MOL0     H19582  10.693   4.659   2.343 -0.0416 -0.6809  0.4099
  142MOL0     H19583  10.520   4.540   2.222 -0.2738  0.5127 -0.5304
  142MOL0     H19584  10.358   4.280   2.280 -0.3922 -0.4666  0.9539
  142MOL0     H19585  10.333   4.284   2.459  0.5060  0.2204  0.8710
  142MOL0     H19586  10.123   4.289   2.225  0.0339 -2.3050 -0.3515
  142MOL0     H19587  10.094   4.354   2.397  2.3347  0.8218  1.2943
  142MOL0     H19588  10.190   4.070   2.322 -0.3967  0.1197  0.2256
  142MOL0     H19589  10.146   4.127   2.485 -3.3989 -1.7914  0.4915
  142MOL0     H19590   9.904   4.166   2.395 -0.0130 -0.2834  2.1935
  142MOL0     H19591   9.935   4.019   2.444 -0.9088  0.5050 -0.8551
  142MOL0     H19592   9.935   4.032   2.004 -3.9602  1.3067 -0.1063
  142MOL0     H19593  10.270   4.543   2.545 -0.6378  2.6662  1.7282
  142MOL0     H19594  10.310   4.750   2.714 -0.5576  1.0301 -0.7338
  142MOL0     H19595  10.429   4.651   2.792 -1.0798 -0.6879 -1.3110
  142MOL0     H19596  10.475   4.816   2.734 -1.5699  0.2297  2.0829
  143MOL0     O19597   4.916   0.272   6.713  1.1893 -0.4793 -0.3789
  143MOL0     C19598   4.872   0.373   6.658 -1.0074  0.1128  0.6224
  143MOL0     O19599   4.949   0.481   6.632 -0.3335 -0.0442  0.2054
  143MOL0     C19600   5.083   0.485   6.669 -0.5967  0.4159 -0.6987
  143MOL0     C19601   5.111   0.500   6.802 -0.4956  0.2586 -0.1519
  143MOL0     C19602   5.241   0.528   6.835 -1.5993 -0.2739 -0.2315
  143MOL0     C19603   5.344   0.549   6.740 -0.9080 -0.2484  0.5589
  143MOL0     O19604   5.477   0.593   6.777 -0.8073 -0.0363 -0.6587
  143MOL0     C19605   5.509   0.611   6.917  0.8644 -0.5599 -0.8505
  143MOL0     C19606   5.654   0.653   6.944 -0.4389 -0.4522 -0.0989
  143MOL0     C19607   5.745   0.565   6.851  0.4845  0.0089  0.8268
  143MOL0     C19608   5.885   0.567   6.915 -0.8709  0.2877  0.1894
  143MOL0     C19609   5.997   0.494   6.843  0.1593  0.5361 -0.1679
  143MOL0     C19610   6.129   0.486   6.925 -0.6409 -0.0916  0.5876
  143MOL0     C19611   6.247   0.446   6.831  0.3251 -0.7166  0.4204
  143MOL0     C19612   6.386   0.475   6.888 -0.6571  0.6957 -0.2104
  143MOL0     N19613   6.461   0.360   6.942 -0.2503  0.0298  0.3657
  143MOL0     C19614   6.589   0.363   6.988 -0.0450 -0.3050 -0.2109
  143MOL0     C19615   6.630   0.238   6.997 -0.9658  1.2105 -0.8978
  143MOL0     C19616   6.762   0.178   7.035  0.3563 -0.1786 -0.0356
  143MOL0     C19617   6.773   0.177   7.189  0.6169 -1.0525 -0.3730
  143MOL0     C19618   6.900   0.100   7.236 -0.2293 -0.1655 -0.3433
  143MOL0     C19619   6.965   0.161   7.359  0.0605  0.7014 -0.5405
  143MOL0     O19620   7.087   0.091   7.387 -0.5925 -0.8294 -0.0931
  143MOL0     C19621   7.157   0.145   7.491  0.2595 -0.4844 -0.3559
  143MOL0     C19622   7.282   0.078   7.510 -0.2620 -0.5043  0.0435
  143MOL0     C19623   7.348   0.102   7.632  0.2269 -0.3936  0.0245
  143MOL0     C19624   7.485   0.032   7.632  0.2382  0.0607 -0.6303
  143MOL0     C19625   7.307   0.199   7.728 -0.0959  0.4671 -0.2416
  143MOL0     C19626   7.372   0.224   7.863  0.1875  0.7016  0.2998
  143MOL0     O19627   7.470   0.131   7.891  0.0362  0.1746 -0.6786
  143MOL0     C19628   7.520   0.117   8.018 -0.3715 -0.0647 -1.0913
  143MOL0     C19629   7.568   0.217   8.102 -0.0047  0.7065 -0.0249
  143MOL0     C19630   7.628   0.196   8.230 -0.3634  0.4223 -0.5854
  143MOL0     C19631   7.636   0.069   8.289 -0.0803 -0.2092  0.0917
  143MOL0     O19632   7.680   0.073   8.419  0.2652  0.5016  0.0514
  143MOL0     C19633   7.689  -0.048   8.490  0.3710  0.2043 -0.4459
  143MOL0     C19634   7.764  -0.010   8.615  0.2385  0.4849  1.1340
  143MOL0     C19635   7.780  -0.138   8.709 -0.3887 -0.5341 -0.0564
  143MOL0     C19636   7.648  -0.164   8.774  1.2434  0.0504 -0.2669
  143MOL0     C19637   7.664  -0.263   8.885  0.3473 -0.1536 -0.2595
  143MOL0     C19638   7.533  -0.330   8.932 -0.2154  0.3209 -1.0961
  143MOL0     C19639   7.467  -0.251   9.043  0.1532 -0.6833 -0.3307
  143MOL0     C19640   7.336  -0.319   9.091 -0.4625 -0.4743  0.0398
  143MOL0    Cl19641   7.222  -0.331   8.958 -0.6461 -0.2552 -0.2650
  143MOL0     C19642   7.595  -0.036   8.208  0.7425 -0.4017 -0.1572
  143MOL0     C19643   7.537  -0.015   8.073 -0.6486  0.6913 -0.6070
  143MOL0     O19644   7.319   0.309   7.939 -0.2824 -0.0775 -0.5325
  143MOL0     C19645   7.206   0.287   7.685 -0.4723  0.0241  0.3558
  143MOL0     C19646   7.122   0.252   7.581  0.6500  0.3098 -0.3954
  143MOL0     N19647   6.531   0.150   6.967 -0.1866 -0.4529 -0.3934
  143MOL0     N19648   6.431   0.229   6.943 -0.2094 -0.2372  0.0877
  143MOL0     C19649   5.311   0.517   6.610 -0.3132 -0.2088 -1.0569
  143MOL0     C19650   5.182   0.506   6.574 -0.4314  0.3279  0.4178
  143MOL0     C19651   4.732   0.385   6.619 -0.4037 -0.8422  0.0291
  143MOL0     C19652   4.696   0.427   6.490  0.0922  0.3458  0.7918
  143MOL0     C19653   4.560   0.435   6.444  0.0203  0.7529  0.2167
  143MOL0     C19654   4.458   0.383   6.529  0.9699  0.4010  0.7289
  143MOL0     O19655   4.335   0.356   6.479 -0.2287  0.4096  0.5030
  143MOL0     C19656   4.245   0.470   6.471  0.0153  0.4386  0.9809
  143MOL0     C19657   4.228   0.519   6.324 -0.9745  1.0713  0.9919
  143MOL0     C19658   4.164   0.418   6.224 -0.6855 -0.5217 -0.9620
  143MOL0     C19659   4.016   0.380   6.240 -0.1741 -0.6945 -0.2760
  143MOL0     C19660   3.926   0.502   6.229  0.0333 -0.1139  0.3066
  143MOL0     C19661   3.845   0.592   6.210 -0.5742  0.1642  0.2167
  143MOL0     C19662   4.488   0.344   6.656 -0.0772 -0.6004 -0.2313
  143MOL0     C19663   4.619   0.355   6.699 -0.4495 -0.5431 -0.2361
  143MOL0     C19664   4.634   0.360   6.850  0.4887  0.3783  0.2374
  143MOL0     H19665   5.036   0.501   6.880  0.2879 -2.8689  0.7797
  143MOL0     H19666   5.270   0.552   6.937 -1.7063  0.5653 -0.3931
  143MOL0     H19667   5.486   0.518   6.969 -0.3530  0.6144  0.8330
  143MOL0     H19668   5.442   0.693   6.944  1.4447 -0.9041  1.9726
  143MOL0     H19669   5.656   0.760   6.919 -5.0859 -0.4750 -1.5576
  143MOL0     H19670   5.676   0.662   7.050 -2.7894 -2.8001  0.7043
  143MOL0     H19671   5.699   0.469   6.826 -1.0717  1.0918 -0.7183
  143MOL0     H19672   5.749   0.615   6.754  0.6317  0.5576  1.1085
  143MOL0     H19673   5.919   0.671   6.903 -0.4945  0.0771 -0.5679
  143MOL0     H19674   5.888   0.539   7.021 -1.8933 -0.5582  0.0030
  143MOL0     H19675   6.016   0.554   6.753  0.7771  0.9210  0.2095
  143MOL0     H19676   5.955   0.399   6.809  2.8411 -1.2933  1.2693
  143MOL0     H19677   6.156   0.581   6.971  2.6397 -1.4162  1.7262
  143MOL0     H19678   6.131   0.402   6.995 -0.1062 -1.0067 -0.4831
  143MOL0     H19679   6.252   0.515   6.746  3.1886 -1.2806  0.0401
  143MOL0     H19680   6.230   0.343   6.797 -1.3047 -0.7474  1.2397
  143MOL0     H19681   6.444   0.520   6.807 -2.5180  2.8354 -0.4211
  143MOL0     H19682   6.374   0.545   6.971  1.3941  0.0006  0.7535
  143MOL0     H19683   6.643   0.455   7.005 -1.0329  0.5952 -1.7428
  143MOL0     H19684   6.844   0.240   6.995 -0.6047  0.9731 -0.2938
  143MOL0     H19685   6.773   0.077   6.996 -1.0433 -0.1768 -0.4964
  143MOL0     H19686   6.764   0.280   7.224 -2.3968 -1.0100 -0.9822
  143MOL0     H19687   6.689   0.125   7.237  1.8186 -1.4611  1.3763
  143MOL0     H19688   6.884  -0.005   7.264  1.8132 -0.0625  1.4955
  143MOL0     H19689   6.970   0.097   7.151 -0.3372 -3.6853 -0.4791
  143MOL0     H19690   6.987   0.265   7.333 -3.2793  2.1604  1.6349
  143MOL0     H19691   6.884   0.161   7.433 -3.7324  1.4423 -4.2652
  143MOL0     H19692   7.305  -0.002   7.441 -2.3848 -2.2680  1.2536
  143MOL0     H19693   7.489  -0.036   7.718 -3.3102  0.0126 -0.3658
  143MOL0     H19694   7.573   0.096   7.640  0.5805 -0.6395  4.1539
  143MOL0     H19695   7.490  -0.037   7.547 -0.6960  0.6453 -1.1739
  143MOL0     H19696   7.561   0.318   8.064  2.1727  0.6061 -0.8514
  143MOL0     H19697   7.664   0.274   8.296  2.4697 -1.4651  0.2842
  143MOL0     H19698   7.588  -0.089   8.503 -1.1246  3.0756 -2.1219
  143MOL0     H19699   7.744  -0.122   8.431  1.6441 -0.7368  1.8210
  143MOL0     H19700   7.866   0.013   8.585  0.3239 -0.7581  0.3970
  143MOL0     H19701   7.715   0.079   8.655 -0.1387  0.8372 -0.0438
  143MOL0     H19702   7.858  -0.110   8.781  0.3103  1.2908 -1.4077
  143MOL0     H19703   7.814  -0.228   8.658 -1.6091 -0.2044 -1.5204
  143MOL0     H19704   7.579  -0.215   8.705 -0.3312 -1.8416  2.4893
  143MOL0     H19705   7.595  -0.078   8.818 -1.1271 -1.6515  0.4395
  143MOL0     H19706   7.735  -0.341   8.856  2.0840  1.8126 -1.4836
  143MOL0     H19707   7.706  -0.223   8.978  0.0119 -1.1148  0.3234
  143MOL0     H19708   7.552  -0.433   8.964  0.1148  1.1664  1.7144
  143MOL0     H19709   7.461  -0.320   8.850 -4.0730  0.0387  2.0149
  143MOL0     H19710   7.452  -0.149   9.009 -2.7592 -0.9006 -0.0264
  143MOL0     H19711   7.525  -0.255   9.136  1.7296 -1.5682 -1.3056
  143MOL0     H19712   7.303  -0.256   9.174  4.8844  2.2440  0.5839
  143MOL0     H19713   7.368  -0.417   9.127  1.0206 -1.1639 -2.8211
  143MOL0     H19714   7.601  -0.131   8.260 -0.3470  0.7946  2.3196
  143MOL0     H19715   7.513  -0.106   8.019 -1.0490 -0.0798  0.8185
  143MOL0     H19716   7.174   0.378   7.734  0.5186  0.9535 -0.6617
  143MOL0     H19717   7.024   0.299   7.577 -0.1858 -1.4395 -1.5204
  143MOL0     H19718   5.390   0.533   6.537  1.6202 -4.2364 -0.1195
  143MOL0     H19719   5.166   0.499   6.467  2.4556  1.4934 -0.1891
  143MOL0     H19720   4.776   0.460   6.423  2.1162  0.5038  3.1341
  143MOL0     H19721   4.534   0.460   6.342  1.5355  3.5770  0.4082
  143MOL0     H19722   4.154   0.427   6.515 -1.3640  0.7319 -1.3707
  143MOL0     H19723   4.270   0.551   6.539 -0.0541 -1.3753  3.2814
  143MOL0     H19724   4.320   0.552   6.274 -0.4881 -3.4572 -1.6017
  143MOL0     H19725   4.166   0.609   6.329 -2.5642  0.0444  0.4488
  143MOL0     H19726   4.183   0.452   6.122 -1.8652  1.3455 -0.6244
  143MOL0     H19727   4.214   0.322   6.222  0.0680 -0.1534 -0.3428
  143MOL0     H19728   3.999   0.327   6.334 -1.1245  0.9933  0.5650
  143MOL0     H19729   3.992   0.312   6.158  0.6974  1.3225 -2.3073
  143MOL0     H19730   3.759   0.656   6.211 -0.1243  0.7761  0.4226
  143MOL0     H19731   4.409   0.301   6.717 -1.3977  0.3295 -1.2223
  143MOL0     H19732   4.561   0.433   6.889 -2.0600 -2.5601  1.4310
  143MOL0     H19733   4.600   0.260   6.880  0.6019  0.0339 -0.7603
  143MOL0     H19734   4.732   0.378   6.894  0.1618 -1.6566  1.9766
  144MOL0     O19735   4.238   4.108   2.020 -0.0129 -0.0252 -0.2899
  144MOL0     C19736   4.115   4.151   2.021 -0.8885  0.3945  0.1854
  144MOL0     O19737   4.036   4.164   2.136  0.8697 -0.2383 -0.5132
  144MOL0     C19738   4.072   4.106   2.264 -0.2862 -1.4364  1.1786
  144MOL0     C19739   4.155   4.003   2.289 -0.1777 -0.4932  0.2945
  144MOL0     C19740   4.181   3.967   2.419 -0.8743  1.7578  0.1241
  144MOL0     C19741   4.113   4.016   2.528 -0.3400 -0.0817  0.1546
  144MOL0     O19742   4.137   3.968   2.655  0.2948 -0.5044 -0.1009
  144MOL0     C19743   4.271   3.976   2.699 -0.5409 -0.9484  0.3902
  144MOL0     C19744   4.267   3.981   2.854  0.0715  0.2361  0.6595
  144MOL0     C19745   4.344   3.860   2.899  0.7297 -0.3183  0.1379
  144MOL0     C19746   4.372   3.851   3.051 -0.0460 -0.4246  0.9267
  144MOL0     C19747   4.413   3.705   3.088 -0.5721 -0.8586 -0.0909
  144MOL0     C19748   4.469   3.709   3.229 -0.2189 -0.5080  0.2798
  144MOL0     C19749   4.489   3.564   3.285  0.8721 -0.6256 -0.3501
  144MOL0     C19750   4.539   3.583   3.423  0.5053 -0.5567 -0.4904
  144MOL0     N19751   4.609   3.464   3.471 -0.0786  0.2893 -0.0084
  144MOL0     C19752   4.742   3.445   3.463 -0.6516 -0.1043 -0.1903
  144MOL0     C19753   4.769   3.326   3.527  0.3500 -0.5056 -0.9055
  144MOL0     C19754   4.892   3.248   3.529  0.0836 -0.2972  0.6217
  144MOL0     C19755   4.996   3.302   3.429  0.5070 -0.7345  0.4038
  144MOL0     C19756   5.129   3.242   3.462 -0.1208 -0.7595 -0.0372
  144MOL0     C19757   5.252   3.277   3.369  0.1746  0.4801 -0.2136
  144MOL0     O19758   5.363   3.193   3.409 -0.0494 -0.0076 -0.7356
  144MOL0     C19759   5.466   3.179   3.319  0.0595  0.2117  0.0693
  144MOL0     C19760   5.485   3.256   3.207 -0.4942 -0.7312  1.1422
  144MOL0     C19761   5.604   3.239   3.124  1.0475  0.0299 -0.1398
  144MOL0     C19762   5.592   3.321   2.996  0.8590 -0.4057 -0.4703
  144MOL0     C19763   5.704   3.138   3.154  0.3238 -0.3901 -0.4624
  144MOL0     C19764   5.819   3.101   3.062 -0.2693  0.9999 -0.2020
  144MOL0     O19765   5.853   2.971   3.038  0.1877 -0.2866  0.3442
  144MOL0     C19766   5.958   2.941   2.957 -0.3062  0.1541  0.0278
  144MOL0     C19767   6.085   2.915   3.016 -0.9530 -0.5943  0.1758
  144MOL0     C19768   6.202   2.880   2.942 -0.3118  0.3721  0.2796
  144MOL0     C19769   6.185   2.868   2.805  0.0652  0.0914 -0.2020
  144MOL0     O19770   6.283   2.822   2.715  0.2682  0.0590 -0.2632
  144MOL0     C19771   6.345   2.692   2.745 -0.4336 -0.6893  0.2040
  144MOL0     C19772   6.465   2.659   2.664  0.3101  0.0244  0.2088
  144MOL0     C19773   6.585   2.750   2.688 -0.2579  0.2847  0.0667
  144MOL0     C19774   6.712   2.674   2.656 -0.1892 -0.4449  0.2666
  144MOL0     C19775   6.821   2.785   2.672  0.0939 -0.8653 -0.6197
  144MOL0     C19776   6.963   2.732   2.700 -0.3052  0.0670  0.3472
  144MOL0     C19777   7.046   2.741   2.577  0.2990 -0.7141  0.4121
  144MOL0     C19778   7.167   2.646   2.581 -0.2300  0.0509 -0.7164
  144MOL0    Cl19779   7.289   2.676   2.714  0.3618 -0.1687 -0.7583
  144MOL0     C19780   6.063   2.886   2.737  0.0484 -0.2131 -0.9194
  144MOL0     C19781   5.948   2.936   2.816 -0.2309  0.8615  0.7049
  144MOL0     O19782   5.880   3.195   3.011  0.1604  0.1378  0.5564
  144MOL0     C19783   5.675   3.063   3.274  0.7879 -1.4110  0.0725
  144MOL0     C19784   5.558   3.082   3.351 -0.3568 -0.2684  0.5797
  144MOL0     N19785   4.649   3.271   3.569 -0.2084  0.2148 -0.5253
  144MOL0     N19786   4.554   3.363   3.541  0.1439  0.6945  0.4382
  144MOL0     C19787   4.016   4.109   2.496 -0.8361 -0.3227 -0.4115
  144MOL0     C19788   3.997   4.165   2.369  0.6880  0.8038  0.5261
  144MOL0     C19789   4.039   4.159   1.892 -0.0672  0.0829 -0.0884
  144MOL0     C19790   3.902   4.163   1.900 -0.4190 -0.1183 -0.1445
  144MOL0     C19791   3.822   4.161   1.794  0.6374  0.0297 -0.2813
  144MOL0     C19792   3.871   4.191   1.672 -0.0418  0.6681  0.1348
  144MOL0     O19793   3.777   4.214   1.569 -0.6207 -0.6648 -0.2772
  144MOL0     C19794   3.746   4.351   1.541 -0.0373  0.7411 -0.5264
  144MOL0     C19795   3.599   4.355   1.552 -0.1742 -0.0722 -0.0984
  144MOL0     C19796   3.512   4.349   1.431  0.7332 -0.5054  0.3088
  144MOL0     C19797   3.356   4.340   1.457  0.1335  0.3650 -0.4340
  144MOL0     C19798   3.282   4.297   1.339  0.7828  0.3665 -0.2398
  144MOL0     C19799   3.219   4.282   1.228  0.2489 -0.2423  0.0092
  144MOL0     C19800   4.012   4.180   1.654 -0.9378  0.7066  0.8769
  144MOL0     C19801   4.098   4.159   1.760  0.3210  0.0209 -0.2490
  144MOL0     C19802   4.247   4.157   1.735 -0.5004 -0.5267  0.3790
  144MOL0     H19803   4.200   3.949   2.207  2.5705  1.0073  0.6732
  144MOL0     H19804   4.240   3.876   2.429 -1.8477  1.3671  3.0294
  144MOL0     H19805   4.327   4.062   2.660  0.1184 -1.3817  0.3598
  144MOL0     H19806   4.332   3.896   2.655  0.9926  0.9336 -1.0735
  144MOL0     H19807   4.306   4.080   2.879 -0.1000  0.2385  0.9122
  144MOL0     H19808   4.170   3.976   2.904  1.9036 -0.1518  4.5790
  144MOL0     H19809   4.283   3.774   2.872  2.1987 -0.9091 -1.5435
  144MOL0     H19810   4.438   3.850   2.842  0.5967 -0.2957 -0.0892
  144MOL0     H19811   4.453   3.924   3.063 -0.2615 -0.1948  1.0166
  144MOL0     H19812   4.281   3.887   3.100 -0.4620 -2.4798  1.7747
  144MOL0     H19813   4.486   3.653   3.026  0.2297 -1.8515  1.5895
  144MOL0     H19814   4.326   3.638   3.092  1.3512 -3.5133  2.5302
  144MOL0     H19815   4.572   3.743   3.217 -0.6652  0.1536 -2.2337
  144MOL0     H19816   4.414   3.780   3.292  1.8458  2.3349 -0.9294
  144MOL0     H19817   4.547   3.491   3.228  2.1085 -1.3093  1.6626
  144MOL0     H19818   4.387   3.524   3.296  0.0804  0.4688 -2.9884
  144MOL0     H19819   4.608   3.667   3.437  1.3068 -1.0244 -1.5288
  144MOL0     H19820   4.456   3.605   3.492 -0.3152 -0.9756 -1.3200
  144MOL0     H19821   4.815   3.499   3.404  0.2893 -3.9397 -2.9382
  144MOL0     H19822   4.859   3.146   3.507 -2.3661  0.7180 -0.7698
  144MOL0     H19823   4.935   3.261   3.629 -0.9238 -2.5257  1.4079
  144MOL0     H19824   4.967   3.277   3.327 -0.9937  3.0203 -0.2320
  144MOL0     H19825   4.998   3.411   3.436 -1.8717 -0.7100  1.7190
  144MOL0     H19826   5.147   3.283   3.562  1.0742  0.2163 -0.6242
  144MOL0     H19827   5.118   3.133   3.465 -1.7107 -0.6053  1.0591
  144MOL0     H19828   5.220   3.266   3.265 -2.9990 -2.5797  0.8885
  144MOL0     H19829   5.280   3.379   3.397  0.2224  0.4863 -0.2849
  144MOL0     H19830   5.414   3.332   3.177 -1.0013 -1.3098  0.8483
  144MOL0     H19831   5.593   3.428   3.020  1.4839 -0.0737 -1.8785
  144MOL0     H19832   5.502   3.291   2.941  0.6329  1.9450 -1.4815
  144MOL0     H19833   5.669   3.295   2.924 -2.5045  0.5127 -4.8417
  144MOL0     H19834   6.096   2.917   3.124  1.7876 -3.3483  0.0890
  144MOL0     H19835   6.292   2.868   3.001 -0.4580 -2.6920  0.0090
  144MOL0     H19836   6.374   2.705   2.850 -0.9430  1.5754  0.1025
  144MOL0     H19837   6.275   2.609   2.729  0.1252 -1.1716  0.2163
  144MOL0     H19838   6.489   2.554   2.677  0.3968  0.2752  2.3234
  144MOL0     H19839   6.441   2.676   2.558  1.7853  1.1809  0.0165
  144MOL0     H19840   6.583   2.786   2.791  0.3228  1.9977 -0.4890
  144MOL0     H19841   6.581   2.835   2.619 -0.8758  3.0770  3.2883
  144MOL0     H19842   6.704   2.649   2.549 -0.8651  2.5955 -0.4946
  144MOL0     H19843   6.733   2.585   2.715  3.0904  1.7028  2.6678
  144MOL0     H19844   6.820   2.852   2.586 -0.8009  0.0998  0.1128
  144MOL0     H19845   6.807   2.857   2.753  1.4988 -0.9596 -0.2691
  144MOL0     H19846   6.967   2.630   2.739 -0.8204 -0.2725 -0.4542
  144MOL0     H19847   7.004   2.797   2.777 -1.4564 -1.8030  2.6694
  144MOL0     H19848   7.085   2.841   2.560  1.6377 -0.7745  2.7152
  144MOL0     H19849   6.990   2.709   2.489 -1.1758  2.8603 -0.1030
  144MOL0     H19850   7.200   2.660   2.477 -1.6691 -1.9004 -1.4873
  144MOL0     H19851   7.131   2.544   2.593 -0.4568  0.1732 -0.3538
  144MOL0     H19852   6.061   2.866   2.631  1.4250  0.2806 -1.0633
  144MOL0     H19853   5.857   2.971   2.768 -1.0094 -0.2730  1.2914
  144MOL0     H19854   5.744   2.991   3.316  3.2937 -0.4108 -2.0084
  144MOL0     H19855   5.536   3.020   3.438  1.2939  0.6123  1.6802
  144MOL0     H19856   3.968   4.174   2.569  2.3126  1.2994  0.4055
  144MOL0     H19857   3.930   4.246   2.343  1.5319  0.5671 -2.8204
  144MOL0     H19858   3.853   4.175   1.996  2.6904  1.1807  1.4304
  144MOL0     H19859   3.715   4.176   1.804  0.7024  0.5503 -0.3319
  144MOL0     H19860   3.806   4.418   1.604 -1.7146  0.2256  1.7748
  144MOL0     H19861   3.777   4.372   1.439  0.5890  2.3185 -0.0371
  144MOL0     H19862   3.571   4.450   1.598 -1.1813  0.3627 -1.5578
  144MOL0     H19863   3.563   4.280   1.623 -1.0234  1.5189  1.2456
  144MOL0     H19864   3.526   4.440   1.373 -3.7703  0.0814 -0.1928
  144MOL0     H19865   3.525   4.262   1.365 -2.5357  1.3169 -3.1558
  144MOL0     H19866   3.328   4.441   1.487  1.3613  1.3047 -2.2567
  144MOL0     H19867   3.338   4.261   1.531 -1.8006  2.1341  1.0796
  144MOL0     H19868   3.162   4.283   1.137  2.2372 -4.0633 -1.5345
  144MOL0     H19869   4.063   4.194   1.559 -0.2457  2.6057  1.4840
  144MOL0     H19870   4.264   4.181   1.630  0.1125 -2.0240  0.1136
  144MOL0     H19871   4.295   4.241   1.785  1.2765 -2.5962  2.4182
  144MOL0     H19872   4.299   4.066   1.768  0.2539 -0.9770 -1.8633
  145MOL0     O19873   4.300   7.641   7.286  0.0475  0.6532  0.9502
  145MOL0     C19874   4.307   7.534   7.341  0.1924  0.3255 -0.0437
  145MOL0     O19875   4.215   7.437   7.315  0.7510  0.0088 -0.4919
  145MOL0     C19876   4.112   7.443   7.223 -0.3396 -0.2320  0.1654
  145MOL0     C19877   4.006   7.355   7.237  0.7348 -0.1332  0.1641
  145MOL0     C19878   3.884   7.352   7.164  0.8571  0.0094  0.1084
  145MOL0     C19879   3.880   7.436   7.051  0.0903  0.0155 -0.7525
  145MOL0     O19880   3.785   7.439   6.951 -1.3386  0.2030 -0.1736
  145MOL0     C19881   3.657   7.393   6.988  0.3473 -0.0917 -0.3483
  145MOL0     C19882   3.570   7.490   7.067  0.6983 -0.6024  0.2171
  145MOL0     C19883   3.543   7.630   7.009 -0.1917 -0.3766  0.0244
  145MOL0     C19884   3.474   7.612   6.870 -0.7587 -0.0096 -0.4104
  145MOL0     C19885   3.394   7.746   6.839 -0.1806  0.0485  0.5705
  145MOL0     C19886   3.313   7.741   6.707 -0.1779 -0.2289  0.4946
  145MOL0     C19887   3.253   7.870   6.645 -0.3399 -0.3371 -0.8917
  145MOL0     C19888   3.115   7.932   6.690  0.3123 -0.5939  0.0529
  145MOL0     N19889   3.005   7.834   6.700 -0.2705  0.2354  0.7490
  145MOL0     C19890   2.900   7.837   6.789  0.0811 -0.4893  0.3124
  145MOL0     C19891   2.804   7.762   6.739 -0.2175  0.4237  1.3826
  145MOL0     C19892   2.663   7.747   6.803 -0.7118 -0.8243  0.3964
  145MOL0     C19893   2.594   7.618   6.762 -0.9800  0.4128 -0.4813
  145MOL0     C19894   2.627   7.485   6.838 -0.4977  0.1281 -0.3709
  145MOL0     C19895   2.777   7.445   6.853  0.3155  0.0505  0.5664
  145MOL0     O19896   2.823   7.417   6.723  0.0582  0.5998  0.3368
  145MOL0     C19897   2.948   7.362   6.703 -0.2623  0.5454  0.6695
  145MOL0     C19898   3.019   7.274   6.794  0.1461 -0.2389  0.0180
  145MOL0     C19899   3.154   7.241   6.757  0.5801 -0.4440 -0.5477
  145MOL0     C19900   3.235   7.163   6.863  0.0166 -0.0913  0.3541
  145MOL0     C19901   3.215   7.278   6.632  0.5542 -0.4613 -0.6027
  145MOL0     C19902   3.339   7.233   6.575 -1.4339  0.2705 -0.3311
  145MOL0     O19903   3.445   7.201   6.661 -0.1871 -0.8088  0.6534
  145MOL0     C19904   3.578   7.158   6.640 -0.1104  0.5657 -0.3921
  145MOL0     C19905   3.641   7.091   6.748  0.5460  0.6295  0.1223
  145MOL0     C19906   3.773   7.040   6.726  0.7583 -0.1712  0.3513
  145MOL0     C19907   3.835   7.052   6.603 -0.2625 -0.1747 -0.0557
  145MOL0     O19908   3.960   7.000   6.578  0.1134  0.3113 -0.7679
  145MOL0     C19909   3.972   6.944   6.444  0.1314 -0.5453 -0.2261
  145MOL0     C19910   4.060   6.813   6.439  0.3654 -0.0913  0.0602
  145MOL0     C19911   4.007   6.705   6.528 -0.2340  0.5947 -0.4442
  145MOL0     C19912   4.117   6.595   6.522 -0.5341 -0.1171  0.4972
  145MOL0     C19913   4.072   6.461   6.587 -0.6380  0.1071 -0.0138
  145MOL0     C19914   4.184   6.356   6.613  0.4739  0.4618 -0.0127
  145MOL0     C19915   4.268   6.317   6.489  0.6302 -0.1165 -0.4666
  145MOL0     C19916   4.411   6.370   6.492  0.2221  0.7379 -0.1153
  145MOL0    Cl19917   4.494   6.302   6.631  0.0573 -0.1384 -0.4838
  145MOL0     C19918   3.776   7.133   6.507  0.2007 -0.6269  0.4154
  145MOL0     C19919   3.650   7.189   6.522  0.3397  0.3619  0.3090
  145MOL0     O19920   3.356   7.250   6.459 -0.3100  0.0928 -0.3222
  145MOL0     C19921   3.135   7.372   6.557  0.1705 -0.0668 -0.3410
  145MOL0     C19922   3.011   7.418   6.590  0.1869 -0.5644 -0.8152
  145MOL0     N19923   2.848   7.712   6.617 -0.0978 -0.3675  0.9318
  145MOL0     N19924   2.969   7.755   6.595 -0.1147 -0.6449  0.8751
  145MOL0     C19925   3.994   7.512   7.020  0.3208  0.4128  0.1198
  145MOL0     C19926   4.102   7.526   7.108  0.7854 -0.1437 -0.3120
  145MOL0     C19927   4.417   7.507   7.431 -0.9225  0.1793  0.2573
  145MOL0     C19928   4.402   7.409   7.528 -0.4387  0.3340  0.8008
  145MOL0     C19929   4.492   7.384   7.633 -1.0164 -0.3729  0.4316
  145MOL0     C19930   4.612   7.458   7.634 -0.0691  0.4716 -0.0431
  145MOL0     O19931   4.717   7.431   7.722  0.3640 -0.4251  0.6944
  145MOL0     C19932   4.693   7.348   7.832  0.2980  0.2066  0.2290
  145MOL0     C19933   4.820   7.342   7.908  0.6549 -0.6255  0.6857
  145MOL0     C19934   4.923   7.260   7.825 -0.3369 -0.4588 -0.6520
  145MOL0     C19935   4.976   7.132   7.887 -0.5443  0.6276  0.0461
  145MOL0     C19936   4.859   7.050   7.930 -0.3747  0.6343 -0.5870
  145MOL0     C19937   4.749   6.997   7.957  0.7035  0.6949 -0.0290
  145MOL0     C19938   4.635   7.554   7.537 -0.2732  0.1793  0.2773
  145MOL0     C19939   4.541   7.580   7.446 -0.9819  0.1686 -0.5811
  145MOL0     C19940   4.576   7.691   7.351  0.5154  0.3696  0.3606
  145MOL0     H19941   4.009   7.278   7.314 -0.5124 -0.2185  0.1526
  145MOL0     H19942   3.810   7.282   7.200  0.0897  0.0248 -1.3588
  145MOL0     H19943   3.662   7.305   7.052 -0.7693  0.2070  0.1788
  145MOL0     H19944   3.607   7.368   6.893  0.9596  0.9904 -0.9647
  145MOL0     H19945   3.476   7.433   7.071  0.7506 -0.7579 -0.6723
  145MOL0     H19946   3.612   7.510   7.166  0.9196 -1.0915  0.2202
  145MOL0     H19947   3.477   7.682   7.079 -0.3449 -1.1881  0.4996
  145MOL0     H19948   3.631   7.695   7.009 -0.0051 -0.5659  1.9527
  145MOL0     H19949   3.551   7.582   6.799  0.3211  0.4086  0.5466
  145MOL0     H19950   3.398   7.535   6.885 -0.9962  0.8387  4.2422
  145MOL0     H19951   3.462   7.829   6.820 -2.0664  1.3311 -0.9957
  145MOL0     H19952   3.322   7.771   6.917 -0.6514 -1.1282  0.5401
  145MOL0     H19953   3.386   7.690   6.643  3.1448  2.7321  1.5758
  145MOL0     H19954   3.232   7.668   6.710 -2.0129  1.7129  0.4866
  145MOL0     H19955   3.261   7.851   6.537  2.0012 -0.5058 -0.7570
  145MOL0     H19956   3.334   7.944   6.654  1.5410 -1.9838 -2.9670
  145MOL0     H19957   3.133   7.982   6.786 -2.2115  2.1317 -0.7524
  145MOL0     H19958   3.089   8.008   6.616 -0.0052 -2.7862 -2.2142
  145MOL0     H19959   2.873   7.906   6.868  2.2922  0.6059  0.1936
  145MOL0     H19960   2.618   7.840   6.766  0.3935 -0.1100  0.8075
  145MOL0     H19961   2.673   7.755   6.911  4.1595  1.1123  0.0335
  145MOL0     H19962   2.488   7.632   6.742 -0.4664  1.2104 -3.1973
  145MOL0     H19963   2.637   7.603   6.662  3.1301  0.5797  1.0704
  145MOL0     H19964   2.584   7.488   6.939  0.0409 -2.1688 -0.0248
  145MOL0     H19965   2.570   7.407   6.787 -0.9429  1.3115 -1.7477
  145MOL0     H19966   2.840   7.525   6.893 -1.0460  1.3075  0.2738
  145MOL0     H19967   2.796   7.359   6.919  3.1796  1.3428  1.5984
  145MOL0     H19968   2.978   7.250   6.891 -0.4918  0.3426 -0.1039
  145MOL0     H19969   3.297   7.079   6.830 -0.1107 -0.1116  0.1670
  145MOL0     H19970   3.169   7.123   6.941  0.2059 -1.6738 -0.2697
  145MOL0     H19971   3.300   7.241   6.904 -2.8312  3.7263 -1.6873
  145MOL0     H19972   3.590   7.083   6.844 -2.8980  3.0081 -1.3138
  145MOL0     H19973   3.812   6.980   6.808  0.3303 -0.8505  0.0647
  145MOL0     H19974   3.876   6.912   6.402  0.7477 -0.4255 -1.7665
  145MOL0     H19975   4.021   7.018   6.381 -1.9257 -0.2433 -1.5526
  145MOL0     H19976   4.058   6.787   6.333  4.2138  0.3878 -0.2797
  145MOL0     H19977   4.161   6.843   6.468  0.7863 -2.3408  1.2227
  145MOL0     H19978   3.909   6.671   6.495  0.2495 -1.3410 -0.0035
  145MOL0     H19979   4.008   6.746   6.630  1.5010  1.2715 -0.6999
  145MOL0     H19980   4.202   6.640   6.574 -1.5720 -0.4742  2.5908
  145MOL0     H19981   4.145   6.573   6.419 -3.3726 -3.8239  0.2999
  145MOL0     H19982   4.026   6.488   6.682 -1.2410 -0.7372 -0.0581
  145MOL0     H19983   4.000   6.409   6.523  1.4895  0.0334 -2.5225
  145MOL0     H19984   4.133   6.272   6.663 -1.6972  0.5061 -2.0014
  145MOL0     H19985   4.251   6.408   6.683  0.5788  0.4320 -0.0910
  145MOL0     H19986   4.216   6.339   6.395  3.0941 -0.3132 -1.9527
  145MOL0     H19987   4.270   6.207   6.494  0.6371 -0.1173 -0.4768
  145MOL0     H19988   4.401   6.479   6.495 -1.0680  0.6256  0.1493
  145MOL0     H19989   4.468   6.337   6.405 -0.6213  1.3501 -0.9072
  145MOL0     H19990   3.826   7.166   6.417  1.1296 -2.2077  0.3101
  145MOL0     H19991   3.597   7.238   6.441 -2.1949 -3.1039 -0.3704
  145MOL0     H19992   3.156   7.408   6.457 -2.8975  0.4398 -0.9241
  145MOL0     H19993   2.960   7.494   6.531 -0.2296  1.1786  1.6264
  145MOL0     H19994   3.991   7.576   6.933 -1.5325 -0.7297 -0.7122
  145MOL0     H19995   4.178   7.597   7.078  0.2786 -0.1460 -1.6861
  145MOL0     H19996   4.315   7.343   7.523  0.7096 -1.1522 -0.4224
  145MOL0     H19997   4.479   7.297   7.697 -0.9555  0.3393  1.4223
  145MOL0     H19998   4.611   7.385   7.894  0.5237  1.0778  0.0168
  145MOL0     H19999   4.670   7.244   7.804  3.4307 -0.3646 -0.5607
  145MOL0     H20000   4.801   7.285   8.000  0.5920 -1.8042 -0.0273
  145MOL0     H20001   4.849   7.441   7.943 -3.0699  0.1319  2.0777
  145MOL0     H20002   4.878   7.234   7.729 -2.6276  1.6784 -0.2493
  145MOL0     H20003   5.019   7.309   7.809 -0.5718  0.5713  0.9188
  145MOL0     H20004   5.025   7.159   7.981 -2.8772  2.3918  0.8471
  145MOL0     H20005   5.040   7.074   7.820 -2.0839  0.1710 -1.0833
  145MOL0     H20006   4.659   6.945   7.983  1.3781 -0.1887  0.6015
  145MOL0     H20007   4.724   7.616   7.536 -0.4240  0.3968 -0.7565
  145MOL0     H20008   4.679   7.726   7.351  0.4321  0.7284  2.1695
  145MOL0     H20009   4.555   7.661   7.248  1.2094 -2.9736  1.0734
  145MOL0     H20010   4.528   7.785   7.380  1.7175  1.2098 -0.3072
  146MOL0     O20011   5.442   5.464   9.135 -0.2853 -0.3294 -0.6154
  146MOL0     C20012   5.394   5.447   9.253 -1.0295  0.2952  0.7775
  146MOL0     O20013   5.268   5.458   9.289  0.1553  0.6557  0.3924
  146MOL0     C20014   5.179   5.491   9.196 -0.5762 -0.3653 -0.2139
  146MOL0     C20015   5.122   5.622   9.184  0.3045 -0.7719 -0.8582
  146MOL0     C20016   5.031   5.647   9.079 -0.3212  0.2885 -0.3409
  146MOL0     C20017   4.987   5.541   8.995  0.5509  0.0836  0.3754
  146MOL0     O20018   4.883   5.584   8.910 -0.4677 -0.0258 -0.1225
  146MOL0     C20019   4.773   5.489   8.896  0.0978 -0.1932 -0.1242
  146MOL0     C20020   4.662   5.558   8.816  0.3789  0.3672  0.6924
  146MOL0     C20021   4.611   5.708   8.855 -0.4963  1.6453 -0.3122
  146MOL0     C20022   4.505   5.713   8.959  0.3190 -0.0020  0.2415
  146MOL0     C20023   4.426   5.842   8.973 -0.1254 -0.5018  0.4073
  146MOL0     C20024   4.533   5.943   9.019 -0.3104 -0.2227 -0.6703
  146MOL0     C20025   4.473   6.083   9.039  0.6666 -0.3248 -0.4316
  146MOL0     C20026   4.562   6.192   8.972  0.5643  0.3001  0.5145
  146MOL0     N20027   4.552   6.315   9.064  0.1593 -0.2347  0.6509
  146MOL0     C20028   4.479   6.431   9.034 -0.4153  0.3430  0.3367
  146MOL0     C20029   4.482   6.497   9.142  0.3699 -0.5531 -0.1371
  146MOL0     C20030   4.390   6.617   9.163  0.1826  0.1333  0.0817
  146MOL0     C20031   4.411   6.760   9.115  0.6187  0.3692 -0.0373
  146MOL0     C20032   4.453   6.754   8.969 -0.5097 -0.2658  0.5956
  146MOL0     C20033   4.507   6.893   8.932 -0.0624  0.3077 -0.0160
  146MOL0     O20034   4.584   6.955   9.032 -0.4088  0.7057 -0.2879
  146MOL0     C20035   4.603   7.086   9.028 -0.7904  0.5810  0.0200
  146MOL0     C20036   4.671   7.141   9.133 -0.1611  0.0119 -0.6486
  146MOL0     C20037   4.695   7.275   9.143 -0.0497  1.0673 -0.8043
  146MOL0     C20038   4.787   7.315   9.255  0.7507  0.8322 -0.6633
  146MOL0     C20039   4.647   7.366   9.048 -0.4873  0.4473  0.0437
  146MOL0     C20040   4.661   7.511   9.055 -0.5038 -0.8756  0.2237
  146MOL0     O20041   4.702   7.569   9.174  0.1253  0.7480 -0.2690
  146MOL0     C20042   4.737   7.696   9.190 -0.7211 -0.1167 -0.4310
  146MOL0     C20043   4.838   7.723   9.281  0.3442  0.0620  0.7361
  146MOL0     C20044   4.884   7.848   9.301 -0.3183 -0.1785  0.2545
  146MOL0     C20045   4.824   7.965   9.242 -0.3454 -0.6107  0.5594
  146MOL0     O20046   4.852   8.098   9.273  0.4471  1.3414  1.1872
  146MOL0     C20047   4.985   8.134   9.304 -0.3760 -0.0986 -0.5214
  146MOL0     C20048   5.009   8.283   9.276  0.1803  0.3404 -0.1741
  146MOL0     C20049   4.918   8.375   9.358 -0.4129  0.1929  0.3981
  146MOL0     C20050   4.967   8.390   9.502  0.1201 -0.1739  1.0702
  146MOL0     C20051   5.081   8.492   9.517  0.4281 -0.9713 -0.4290
  146MOL0     C20052   5.049   8.619   9.608  0.1630  0.1610  0.6892
  146MOL0     C20053   5.032   8.580   9.749  0.4654 -0.0264 -0.7073
  146MOL0     C20054   5.068   8.698   9.838  0.0256  0.1386  0.2394
  146MOL0    Cl20055   5.243   8.726   9.861 -0.0834 -0.5369  0.1437
  146MOL0     C20056   4.719   7.945   9.152 -0.4211  0.8715  0.1746
  146MOL0     C20057   4.686   7.814   9.124  0.1596  0.0086 -0.2830
  146MOL0     O20058   4.635   7.574   8.955  0.6588 -0.8189 -0.3548
  146MOL0     C20059   4.576   7.308   8.935  0.1728 -0.2942 -0.0763
  146MOL0     C20060   4.566   7.172   8.919  0.6377  0.1232 -0.7748
  146MOL0     N20061   4.575   6.442   9.233  0.0119  0.7143  1.0619
  146MOL0     N20062   4.608   6.331   9.182  0.1168  0.4215 -0.0798
  146MOL0     C20063   5.042   5.412   9.006 -0.1780 -0.4814  0.0388
  146MOL0     C20064   5.142   5.385   9.111  0.1657 -0.5917  0.6225
  146MOL0     C20065   5.493   5.436   9.364  0.3996  0.0761  0.0216
  146MOL0     C20066   5.439   5.442   9.496 -0.4818  0.2624  0.2519
  146MOL0     C20067   5.520   5.447   9.618  0.8068 -0.9931  0.4302
  146MOL0     C20068   5.656   5.433   9.620 -0.6103  0.2774 -0.3360
  146MOL0     O20069   5.751   5.420   9.721  0.2511  0.4803 -0.3611
  146MOL0     C20070   5.692   5.390   9.844 -0.4069  0.0236 -0.2067
  146MOL0     C20071   5.652   5.525   9.908  0.1800 -0.1206 -1.0267
  146MOL0     C20072   5.778   5.614   9.922  0.8067  1.1379 -1.2262
  146MOL0     C20073   5.742   5.745   9.993 -0.2121 -0.2899  0.0927
  146MOL0     C20074   5.863   5.834  10.006 -0.0823  0.0354 -0.8800
  146MOL0     C20075   5.970   5.872  10.047  0.6148 -0.5179  0.5156
  146MOL0     C20076   5.709   5.435   9.491  0.2760  0.0218 -1.3800
  146MOL0     C20077   5.631   5.447   9.367 -1.0211  0.2252 -0.4555
  146MOL0     C20078   5.710   5.432   9.233  0.3419 -0.4460 -1.0775
  146MOL0     H20079   5.151   5.703   9.251 -2.0631  2.5544 -3.5020
  146MOL0     H20080   4.986   5.745   9.069 -1.1332  0.0263  0.5649
  146MOL0     H20081   4.740   5.466   8.998  0.3485  0.4916  0.1169
  146MOL0     H20082   4.798   5.393   8.850 -0.0131  1.2814 -3.5356
  146MOL0     H20083   4.711   5.581   8.721 -1.3283  1.0374 -0.0564
  146MOL0     H20084   4.588   5.479   8.802  0.7914 -0.6058  3.4648
  146MOL0     H20085   4.699   5.764   8.889 -1.6843  2.9762  0.6804
  146MOL0     H20086   4.578   5.754   8.762  1.9325  0.8037 -1.6855
  146MOL0     H20087   4.440   5.625   8.952  1.2261 -0.7324  0.6887
  146MOL0     H20088   4.546   5.696   9.059 -1.0565  1.2198  1.0455
  146MOL0     H20089   4.337   5.842   9.036  0.5527  2.7734  1.5421
  146MOL0     H20090   4.388   5.866   8.873  0.9473 -3.4188 -0.8198
  146MOL0     H20091   4.586   5.917   9.111  0.2127 -0.7245 -1.1038
  146MOL0     H20092   4.609   5.957   8.941  4.3218 -0.2953  3.3981
  146MOL0     H20093   4.458   6.087   9.147  2.6741  0.6460 -0.1388
  146MOL0     H20094   4.375   6.087   8.990  0.0078 -2.7795  0.5646
  146MOL0     H20095   4.665   6.154   8.971 -0.1642 -1.7621 -0.4079
  146MOL0     H20096   4.533   6.219   8.870 -2.9675 -1.3855  0.9148
  146MOL0     H20097   4.419   6.452   8.946  0.0925 -0.4470 -0.2145
  146MOL0     H20098   4.354   6.614   9.266  1.5703 -0.6331  0.5618
  146MOL0     H20099   4.296   6.592   9.111  0.0620 -3.4857  1.6901
  146MOL0     H20100   4.309   6.798   9.124 -0.5409 -2.7386  1.7304
  146MOL0     H20101   4.478   6.811   9.184  2.1841 -1.4911 -0.0765
  146MOL0     H20102   4.530   6.680   8.944 -0.8593 -0.8118  1.1315
  146MOL0     H20103   4.373   6.723   8.901 -1.4586  2.3470  0.3989
  146MOL0     H20104   4.571   6.884   8.844  0.8713  2.2642  0.4060
  146MOL0     H20105   4.414   6.946   8.907  0.0635 -1.0338 -4.0776
  146MOL0     H20106   4.721   7.066   9.194  0.7646 -1.7300 -3.3276
  146MOL0     H20107   4.876   7.369   9.221  0.0569  1.2856 -1.8120
  146MOL0     H20108   4.820   7.221   9.300 -2.0934 -0.3108 -0.7324
  146MOL0     H20109   4.737   7.375   9.331  0.5599  0.2226 -0.2977
  146MOL0     H20110   4.895   7.650   9.338  1.7379 -0.1932 -0.9194
  146MOL0     H20111   4.956   7.873   9.378  0.4974 -1.3460 -0.0906
  146MOL0     H20112   5.008   8.116   9.409  0.2253  0.1596 -0.6060
  146MOL0     H20113   5.058   8.084   9.240  0.2799  2.1762 -1.6759
  146MOL0     H20114   5.109   8.321   9.299  1.0791 -1.4623 -0.9046
  146MOL0     H20115   4.986   8.292   9.169 -0.1834 -0.7964 -0.2074
  146MOL0     H20116   4.818   8.329   9.360  0.2842 -1.4732 -0.7307
  146MOL0     H20117   4.909   8.473   9.312 -0.0948  0.8178  1.6095
  146MOL0     H20118   5.003   8.291   9.529 -3.4797 -1.7599  0.5872
  146MOL0     H20119   4.889   8.424   9.571  1.2379  3.6283  0.6995
  146MOL0     H20120   5.170   8.435   9.545  1.4127 -0.1892 -1.8315
  146MOL0     H20121   5.102   8.528   9.416  0.1794 -1.6789 -0.7361
  146MOL0     H20122   4.960   8.677   9.581  1.5123  1.8923 -0.2353
  146MOL0     H20123   5.135   8.685   9.598  0.0748  0.5964  2.4684
  146MOL0     H20124   5.113   8.510   9.773  0.0114 -0.3328 -0.0355
  146MOL0     H20125   4.932   8.542   9.773  0.0406  1.0006 -0.8100
  146MOL0     H20126   5.022   8.691   9.937 -2.7577  1.8307 -0.8359
  146MOL0     H20127   5.016   8.787   9.801  1.3518  1.1665  0.7706
  146MOL0     H20128   4.666   8.030   9.109  0.3884  1.1811 -0.2220
  146MOL0     H20129   4.605   7.806   9.052 -2.2826  3.0715  1.8535
  146MOL0     H20130   4.542   7.380   8.861 -2.5998  0.7918  2.0723
  146MOL0     H20131   4.514   7.135   8.831 -3.3435 -0.2624  1.5028
  146MOL0     H20132   5.011   5.342   8.929  1.0523 -1.4468  0.3893
  146MOL0     H20133   5.172   5.282   9.126 -2.6585 -2.3067 -3.4737
  146MOL0     H20134   5.331   5.453   9.508 -0.8426 -0.9138 -1.5817
  146MOL0     H20135   5.468   5.461   9.712 -0.4189 -2.7974  0.0646
  146MOL0     H20136   5.602   5.332   9.825  0.7194 -2.2628  0.9521
  146MOL0     H20137   5.757   5.333   9.911 -2.4444  0.5957  2.4146
  146MOL0     H20138   5.610   5.505  10.007 -0.3833  0.6001 -1.1094
  146MOL0     H20139   5.579   5.584   9.852 -3.8326 -0.9677  2.7303
  146MOL0     H20140   5.856   5.562   9.979  0.4074  2.3504  0.5253
  146MOL0     H20141   5.832   5.643   9.832  1.4907 -0.7940 -1.4936
  146MOL0     H20142   5.703   5.720  10.092  2.6190 -0.6382  1.2005
  146MOL0     H20143   5.664   5.792   9.932 -2.0223  0.5929  2.8935
  146MOL0     H20144   6.059   5.916  10.089 -0.1861  1.1614  0.5433
  146MOL0     H20145   5.817   5.435   9.477  0.6712 -2.7506  0.7963
  146MOL0     H20146   5.816   5.455   9.244  0.1713 -0.3405  0.5185
  146MOL0     H20147   5.702   5.329   9.197 -1.8045  0.2142 -2.7485
  146MOL0     H20148   5.670   5.497   9.154 -0.3399  0.3878 -0.0750
  147MOL0     O20149   0.160   7.914   7.136  0.0782  0.0786 -0.1232
  147MOL0     C20150   0.158   7.845   7.239  1.1110 -1.2531 -0.2400
  147MOL0     O20151   0.258   7.758   7.272 -0.5870  0.0321  0.6709
  147MOL0     C20152   0.361   7.734   7.186 -0.0998  0.1197 -0.9237
  147MOL0     C20153   0.433   7.835   7.116 -0.6142  0.8767 -1.1453
  147MOL0     C20154   0.547   7.801   7.042  0.0998  0.2006  0.0241
  147MOL0     C20155   0.587   7.665   7.032  0.7631 -0.0051 -0.5379
  147MOL0     O20156   0.695   7.626   6.950 -0.1709 -0.4035 -1.0696
  147MOL0     C20157   0.770   7.733   6.889  0.0805 -0.0441 -0.2847
  147MOL0     C20158   0.901   7.692   6.828  0.0178  0.5353 -0.4328
  147MOL0     C20159   1.000   7.622   6.931  0.2329  0.1214  0.6168
  147MOL0     C20160   1.093   7.720   6.998  0.1125 -0.2203 -0.1938
  147MOL0     C20161   1.209   7.663   7.075 -0.2931 -0.1221  0.0952
  147MOL0     C20162   1.192   7.615   7.225 -0.4272 -0.2181  0.6455
  147MOL0     C20163   1.298   7.505   7.270 -0.1577  0.1464 -0.2759
  147MOL0     C20164   1.448   7.523   7.214  0.6384  0.2326  0.2981
  147MOL0     N20165   1.529   7.406   7.254 -0.0010 -0.2219  0.2354
  147MOL0     C20166   1.549   7.352   7.378  0.3441  0.0963  1.1360
  147MOL0     C20167   1.577   7.218   7.357  0.0806 -0.1476 -0.0223
  147MOL0     C20168   1.598   7.131   7.479 -0.0086  0.6976  1.1457
  147MOL0     C20169   1.463   7.093   7.540  0.5841  0.2383 -0.2391
  147MOL0     C20170   1.352   7.033   7.435 -0.3579  0.4516 -0.1412
  147MOL0     C20171   1.234   6.961   7.505 -0.6540 -0.4517 -0.6190
  147MOL0     O20172   1.120   7.043   7.537  0.4320  0.2661 -0.4539
  147MOL0     C20173   1.039   7.002   7.642 -0.5132 -0.9836 -0.1525
  147MOL0     C20174   1.082   7.023   7.770 -0.2722  0.7336 -0.5583
  147MOL0     C20175   0.999   6.969   7.874  0.4578 -0.8888  0.3332
  147MOL0     C20176   1.041   6.994   8.010 -0.1648  0.3454 -0.1715
  147MOL0     C20177   0.866   6.933   7.852  0.3207 -0.3565 -0.8592
  147MOL0     C20178   0.758   6.934   7.963 -0.1425 -0.8948 -0.4371
  147MOL0     O20179   0.635   6.985   7.906 -0.7720 -0.2337  0.5305
  147MOL0     C20180   0.521   7.006   7.979 -1.1912  0.4767  0.4692
  147MOL0     C20181   0.455   7.128   7.954  0.0514 -0.7002 -0.1718
  147MOL0     C20182   0.338   7.163   8.022  1.3492  0.3189 -0.2385
  147MOL0     C20183   0.286   7.077   8.120  0.4052  0.9402  0.0927
  147MOL0     O20184   0.165   7.116   8.175  0.2565 -0.4889 -0.5115
  147MOL0     C20185   0.096   7.022   8.260 -0.3036  0.1817  0.3642
  147MOL0     C20186  -0.040   7.068   8.270  0.2610  0.0088 -0.4940
  147MOL0     C20187  -0.127   6.938   8.282 -0.1417 -0.3286 -0.7031
  147MOL0     C20188  -0.264   6.973   8.335 -0.3910 -0.2928 -1.0318
  147MOL0     C20189  -0.369   6.871   8.315  0.4662  0.1360 -0.9320
  147MOL0     C20190  -0.507   6.921   8.352 -0.0832 -0.7702  0.0343
  147MOL0     C20191  -0.622   6.819   8.375  0.0235  0.3645 -0.0574
  147MOL0     C20192  -0.749   6.863   8.446 -0.6389 -0.1743  0.0142
  147MOL0    Cl20193  -0.817   6.746   8.571 -0.0654  0.3238  0.3245
  147MOL0     C20194   0.352   6.955   8.161  0.1295 -0.2117  0.9694
  147MOL0     C20195   0.465   6.926   8.084 -0.4083  0.9224  0.2092
  147MOL0     O20196   0.767   6.899   8.081  0.1182 -0.0764  0.6180
  147MOL0     C20197   0.822   6.925   7.715 -0.4357 -0.1974  0.3295
  147MOL0     C20198   0.912   6.952   7.608  0.5004  0.2455  0.2177
  147MOL0     N20199   1.570   7.189   7.223 -0.1904 -0.6004  0.8219
  147MOL0     N20200   1.546   7.298   7.164  0.3423  0.5044 -0.1785
  147MOL0     C20201   0.518   7.567   7.091 -1.0528  0.3380 -0.4248
  147MOL0     C20202   0.415   7.600   7.180 -0.3126 -0.1926  0.6120
  147MOL0     C20203   0.038   7.862   7.324 -0.5092 -0.2402 -0.3609
  147MOL0     C20204  -0.079   7.933   7.278  0.1285  0.0400  0.2706
  147MOL0     C20205  -0.200   7.943   7.348  1.0273  0.7089  0.2761
  147MOL0     C20206  -0.210   7.879   7.469  0.9128  0.3040 -0.0574
  147MOL0     O20207  -0.334   7.882   7.535 -0.9257  0.6340  0.1548
  147MOL0     C20208  -0.392   8.007   7.562  0.6757 -0.9939  0.9739
  147MOL0     C20209  -0.531   8.025   7.505  0.1405 -0.8037 -0.4984
  147MOL0     C20210  -0.605   8.156   7.546  0.1871  0.5192  0.1851
  147MOL0     C20211  -0.542   8.283   7.484  0.7100  0.0648  0.5186
  147MOL0     C20212  -0.633   8.399   7.499 -0.0070  0.3864 -0.1437
  147MOL0     C20213  -0.709   8.489   7.515 -0.0701  0.0682 -0.8349
  147MOL0     C20214  -0.100   7.804   7.515  1.0887 -0.4323  0.3294
  147MOL0     C20215   0.023   7.805   7.453  0.1912  0.8335 -1.0566
  147MOL0     C20216   0.136   7.737   7.524  0.4024 -0.7267 -0.1023
  147MOL0     H20217   0.405   7.938   7.136  0.0957  0.4205  3.2169
  147MOL0     H20218   0.599   7.886   6.999  0.0602  0.8153  1.1344
  147MOL0     H20219   0.803   7.812   6.959  0.6692 -1.2061  0.7882
  147MOL0     H20220   0.706   7.772   6.809 -1.7552 -1.0788  0.6300
  147MOL0     H20221   0.900   7.617   6.749  2.5034 -1.4421  1.2306
  147MOL0     H20222   0.943   7.784   6.786  1.0564  0.0667 -0.4542
  147MOL0     H20223   0.952   7.555   7.004 -0.1926 -0.0180  0.2129
  147MOL0     H20224   1.069   7.568   6.866  0.7285  0.9143  0.4704
  147MOL0     H20225   1.134   7.780   6.916 -1.0106 -3.6171 -3.5274
  147MOL0     H20226   1.046   7.800   7.055  3.6702  2.2968 -0.4428
  147MOL0     H20227   1.295   7.729   7.060  0.1368 -0.9709 -1.3975
  147MOL0     H20228   1.236   7.575   7.016  2.3626  1.6279 -1.5155
  147MOL0     H20229   1.209   7.702   7.289  0.6556  0.2402 -0.2410
  147MOL0     H20230   1.091   7.577   7.242 -0.0321 -2.2243 -0.9831
  147MOL0     H20231   1.255   7.409   7.239  0.7678  0.1194 -1.5533
  147MOL0     H20232   1.298   7.499   7.380  0.8930  1.3219 -0.1891
  147MOL0     H20233   1.452   7.523   7.105 -0.1894 -0.0710  0.2661
  147MOL0     H20234   1.488   7.619   7.251  0.4524 -1.2504  5.1329
  147MOL0     H20235   1.541   7.405   7.473 -0.2194  1.0634  0.5632
  147MOL0     H20236   1.667   7.171   7.553  1.1426  0.8828 -0.0016
  147MOL0     H20237   1.643   7.039   7.439  1.8918  1.4648  1.4362
  147MOL0     H20238   1.476   7.026   7.626  1.1105  0.4402 -0.1633
  147MOL0     H20239   1.420   7.183   7.585  2.8642  0.7751  1.0355
  147MOL0     H20240   1.294   7.101   7.372 -0.2769  0.2370 -0.4506
  147MOL0     H20241   1.398   6.962   7.366 -1.7877 -3.3361  2.5108
  147MOL0     H20242   1.199   6.883   7.437  1.0065 -0.8388 -1.0508
  147MOL0     H20243   1.274   6.917   7.597  0.7935 -0.9077 -1.4426
  147MOL0     H20244   1.174   7.080   7.778  0.2379 -0.2256  1.1129
  147MOL0     H20245   1.143   7.035   8.005 -0.5756  1.6536  1.4350
  147MOL0     H20246   1.053   6.902   8.067 -1.1932 -0.1559 -0.7421
  147MOL0     H20247   0.979   7.067   8.063 -0.5135  0.6015 -0.9191
  147MOL0     H20248   0.494   7.198   7.881 -1.7596 -1.6265 -2.1488
  147MOL0     H20249   0.282   7.252   7.996  2.8830  0.9277 -1.6260
  147MOL0     H20250   0.100   6.925   8.208  1.1483 -1.5983  3.5018
  147MOL0     H20251   0.130   7.006   8.362 -2.5886 -1.9981  0.9047
  147MOL0     H20252  -0.060   7.121   8.364 -0.8783 -1.9534  0.4289
  147MOL0     H20253  -0.079   7.127   8.187 -2.8222  2.2334  2.2707
  147MOL0     H20254  -0.075   6.881   8.360  0.3997 -1.0365 -1.5680
  147MOL0     H20255  -0.141   6.882   8.189  0.1379  0.2050 -1.0681
  147MOL0     H20256  -0.305   7.065   8.291 -2.7991 -0.5188  0.5796
  147MOL0     H20257  -0.265   6.981   8.444 -2.1418  0.9051 -1.0914
  147MOL0     H20258  -0.378   6.845   8.209 -0.3018  0.0769 -0.8587
  147MOL0     H20259  -0.325   6.789   8.373  1.1536  1.0880 -0.0611
  147MOL0     H20260  -0.528   7.001   8.281 -2.4804 -1.9156 -0.6507
  147MOL0     H20261  -0.493   6.983   8.440 -0.3988 -0.5289 -0.0834
  147MOL0     H20262  -0.569   6.744   8.435 -0.2845  2.1245  2.5570
  147MOL0     H20263  -0.658   6.777   8.281  0.4907  0.8682 -0.4630
  147MOL0     H20264  -0.842   6.878   8.391 -0.3568  0.2352 -0.3515
  147MOL0     H20265  -0.719   6.958   8.492  0.1196 -0.3679 -0.0749
  147MOL0     H20266   0.333   6.900   8.253  0.8161  0.0664  1.2860
  147MOL0     H20267   0.515   6.833   8.109 -0.8816  0.7613  0.5943
  147MOL0     H20268   0.721   6.895   7.687 -0.9787 -0.7542  2.7143
  147MOL0     H20269   0.879   6.949   7.505  1.6877 -0.1127 -0.1633
  147MOL0     H20270   0.539   7.465   7.061 -1.0965  0.8389 -2.3033
  147MOL0     H20271   0.357   7.531   7.241 -0.5651  1.3105  2.1699
  147MOL0     H20272  -0.084   7.984   7.182 -1.5379 -1.1555 -0.3267
  147MOL0     H20273  -0.288   7.991   7.307  0.3278 -0.7939 -0.0586
  147MOL0     H20274  -0.401   8.031   7.669  2.8423 -1.9459  1.4178
  147MOL0     H20275  -0.325   8.078   7.514 -1.2486 -0.8834 -1.7481
  147MOL0     H20276  -0.602   7.948   7.538 -1.8894  0.6989 -1.1726
  147MOL0     H20277  -0.516   8.024   7.397  1.5017  0.0244 -0.3441
  147MOL0     H20278  -0.709   8.148   7.515 -0.1578 -1.7204  1.5949
  147MOL0     H20279  -0.609   8.166   7.655 -1.2072 -0.0539  0.2030
  147MOL0     H20280  -0.526   8.288   7.376  0.3654 -0.5321  0.4355
  147MOL0     H20281  -0.446   8.302   7.533  0.2729 -2.2052  2.4139
  147MOL0     H20282  -0.767   8.573   7.546  0.1021 -0.5973  1.4938
  147MOL0     H20283  -0.122   7.768   7.615 -2.0726  5.1921  2.1333
  147MOL0     H20284   0.102   7.697   7.620  0.4169 -0.6323 -0.0581
  147MOL0     H20285   0.163   7.651   7.463 -2.4403 -0.2564 -2.2491
  147MOL0     H20286   0.220   7.806   7.537 -0.7496  0.4400  1.5842
  148MOL0     O20287  10.223   9.973   2.641 -0.0445  0.5113  0.0438
  148MOL0     C20288  10.211  10.076   2.571 -0.6595  0.5061 -0.6115
  148MOL0     O20289  10.310  10.172   2.554  0.4315 -0.0751 -0.6325
  148MOL0     C20290  10.411  10.192   2.642 -1.1543  0.5386 -0.5260
  148MOL0     C20291  10.492  10.307   2.611 -1.4428  0.4957  0.3797
  148MOL0     C20292  10.596  10.343   2.691 -0.3504  0.0542  0.4435
  148MOL0     C20293  10.627  10.275   2.811 -0.1540  0.6762  0.5898
  148MOL0     O20294  10.741  10.313   2.879 -0.2085 -0.2040  0.0289
  148MOL0     C20295  10.739  10.440   2.952 -0.4577 -0.6324 -0.2015
  148MOL0     C20296  10.662  10.447   3.081 -0.0623  0.8434  0.1324
  148MOL0     C20297  10.651  10.596   3.121  1.2269 -0.0297  1.2333
  148MOL0     C20298  10.598  10.607   3.261  0.9835  0.2900  0.4008
  148MOL0     C20299  10.701  10.612   3.373 -0.2072  0.1636  0.2350
  148MOL0     C20300  10.650  10.612   3.523 -0.9946  0.5651  0.0905
  148MOL0     C20301  10.536  10.703   3.546 -0.0466  0.5055  0.9926
  148MOL0     C20302  10.514  10.737   3.694 -0.2616 -0.6202 -0.1930
  148MOL0     N20303  10.630  10.800   3.764  0.0415 -0.5028  0.0689
  148MOL0     C20304  10.652  10.939   3.746 -0.7484 -0.7196  0.9478
  148MOL0     C20305  10.770  10.961   3.808 -0.2768  0.7632 -0.2745
  148MOL0     C20306  10.821  11.104   3.813  0.3406 -0.5904 -0.0531
  148MOL0     C20307  10.731  11.218   3.875  1.2675  0.6959  0.0684
  148MOL0     C20308  10.729  11.191   4.031  0.1140 -0.0622  0.0198
  148MOL0     C20309  10.786  11.310   4.118  0.1612 -0.1777  0.5407
  148MOL0     O20310  10.905  11.365   4.059  0.1928  0.1362 -0.0613
  148MOL0     C20311  11.028  11.299   4.085 -0.1573  0.9599 -0.2186
  148MOL0     C20312  11.140  11.320   4.004  0.8853  0.9305  0.8302
  148MOL0     C20313  11.271  11.272   4.027 -0.4884  0.5901 -0.4987
  148MOL0     C20314  11.390  11.310   3.942 -0.3173 -0.1167  0.2816
  148MOL0     C20315  11.290  11.183   4.131  0.2721  1.1174  0.6026
  148MOL0     C20316  11.426  11.120   4.162  0.0515  1.3819  0.2127
  148MOL0     O20317  11.477  11.112   4.289  0.7152  0.2153 -0.4198
  148MOL0     C20318  11.605  11.083   4.324 -0.1974  0.4618  0.0279
  148MOL0     C20319  11.634  11.092   4.462  0.1938  0.1001  0.0632
  148MOL0     C20320  11.757  11.048   4.510  0.0106 -0.2049  0.1497
  148MOL0     C20321  11.861  11.000   4.425  0.2740 -0.6518  0.2774
  148MOL0     O20322  11.982  10.960   4.475 -1.0444 -0.8812 -0.9805
  148MOL0     C20323  12.053  10.846   4.428 -0.1901  0.3431 -0.0535
  148MOL0     C20324  12.180  10.877   4.359 -0.5451 -0.4273  0.4112
  148MOL0     C20325  12.269  10.754   4.368 -0.0398 -0.7665 -0.1728
  148MOL0     C20326  12.401  10.778   4.286  0.1905 -0.1595 -0.5008
  148MOL0     C20327  12.496  10.661   4.291 -1.1141 -0.6345 -1.4546
  148MOL0     C20328  12.619  10.687   4.201  0.3086  0.5027 -0.7788
  148MOL0     C20329  12.688  10.548   4.189 -0.6321 -0.2019  0.0727
  148MOL0     C20330  12.804  10.536   4.085 -0.0724  0.2543  0.4141
  148MOL0    Cl20331  12.931  10.635   4.135 -0.4514 -0.0346  0.0148
  148MOL0     C20332  11.837  11.012   4.289  0.3287 -0.2500  0.2076
  148MOL0     C20333  11.711  11.041   4.245  1.1620 -0.0472  0.7618
  148MOL0     O20334  11.485  11.069   4.066  0.2856  0.0274  1.0092
  148MOL0     C20335  11.178  11.149   4.209  0.7171  0.8934 -0.1706
  148MOL0     C20336  11.048  11.206   4.187 -0.2320 -0.8186 -0.1359
  148MOL0     N20337  10.816  10.839   3.853  0.0911 -0.5840 -0.1247
  148MOL0     N20338  10.736  10.738   3.827  0.8517 -0.4413  0.4043
  148MOL0     C20339  10.543  10.180   2.849  0.3235  0.4776 -0.3401
  148MOL0     C20340  10.435  10.138   2.770  0.3123  0.3516 -0.2638
  148MOL0     C20341  10.097  10.084   2.480  1.0474 -0.2903  0.8271
  148MOL0     C20342   9.978  10.019   2.517  0.5321 -0.4900 -0.0189
  148MOL0     C20343   9.867  10.019   2.440 -0.4586 -0.3081  0.1955
  148MOL0     C20344   9.861  10.078   2.315 -0.3142  0.3484  0.5233
  148MOL0     O20345   9.752  10.048   2.232  0.0900 -0.4340 -0.3080
  148MOL0     C20346   9.723  10.105   2.103 -0.4929  0.2497  0.5566
  148MOL0     C20347   9.637  10.022   2.009 -0.6470  0.3989  0.5548
  148MOL0     C20348   9.576  10.105   1.892 -0.5434 -0.0561  0.1390
  148MOL0     C20349   9.477  10.218   1.926  0.9947 -0.2045  1.3438
  148MOL0     C20350   9.408  10.266   1.804 -0.0934  0.4392 -0.2472
  148MOL0     C20351   9.333  10.308   1.719 -0.5652 -0.1151 -0.2001
  148MOL0     C20352   9.972  10.157   2.268  0.7172  0.3139 -0.4726
  148MOL0     C20353  10.088  10.157   2.349 -0.3545  0.1474 -0.1249
  148MOL0     C20354  10.205  10.232   2.292 -0.7729  0.0942 -0.7499
  148MOL0     H20355  10.462  10.375   2.532 -0.7493 -1.0686 -1.2949
  148MOL0     H20356  10.663  10.426   2.670  1.2081 -0.4361  3.0529
  148MOL0     H20357  10.707  10.515   2.879  1.5088  0.5425  0.0995
  148MOL0     H20358  10.844  10.464   2.970 -0.5829 -0.5374  0.4405
  148MOL0     H20359  10.568  10.391   3.084  1.6282 -2.4195 -1.9709
  148MOL0     H20360  10.717  10.405   3.166  0.5111  1.8182  0.2628
  148MOL0     H20361  10.753  10.636   3.116 -0.2461  4.2258  0.7448
  148MOL0     H20362  10.594  10.645   3.041  0.0605 -0.3486  1.8346
  148MOL0     H20363  10.531  10.693   3.261  0.6181  0.0455 -1.4770
  148MOL0     H20364  10.533  10.521   3.280 -0.5892  0.4203 -3.5776
  148MOL0     H20365  10.762  10.700   3.352 -0.7946  1.4543  3.3112
  148MOL0     H20366  10.765  10.524   3.369  0.5771  0.4799  3.1535
  148MOL0     H20367  10.616  10.512   3.550  2.2710 -0.3517  1.2388
  148MOL0     H20368  10.733  10.641   3.588  1.3282  0.3310 -2.5232
  148MOL0     H20369  10.450  10.649   3.508  0.7000 -0.4959  0.6761
  148MOL0     H20370  10.547  10.792   3.484  0.7752 -1.9563 -2.7286
  148MOL0     H20371  10.431  10.807   3.707 -2.4346 -3.1282  0.3369
  148MOL0     H20372  10.496  10.651   3.759 -1.4839  0.5281  1.0472
  148MOL0     H20373  10.583  11.008   3.699  1.2623  0.3985 -0.5303
  148MOL0     H20374  10.851  11.134   3.712  0.1596  1.1014  0.3655
  148MOL0     H20375  10.911  11.107   3.875  1.2030 -5.5841 -0.6290
  148MOL0     H20376  10.764  11.322   3.867 -0.9365  1.4994  0.7929
  148MOL0     H20377  10.626  11.219   3.842  0.9582  3.7246  0.8817
  148MOL0     H20378  10.626  11.178   4.066  0.0027  2.1458  0.7080
  148MOL0     H20379  10.774  11.098   4.068 -0.5118 -0.5096 -0.3250
  148MOL0     H20380  10.726  11.400   4.102  1.7130  0.7214 -0.5028
  148MOL0     H20381  10.797  11.289   4.225  1.4114 -1.4232  0.2005
  148MOL0     H20382  11.117  11.378   3.915 -1.1001 -2.1162 -0.8213
  148MOL0     H20383  11.372  11.406   3.893  1.3665  1.0747  1.8446
  148MOL0     H20384  11.401  11.239   3.860  1.5072  1.4081 -0.8714
  148MOL0     H20385  11.486  11.320   3.994 -0.3324 -0.6682  0.4159
  148MOL0     H20386  11.558  11.114   4.535  1.0318 -2.0910  1.7143
  148MOL0     H20387  11.776  11.044   4.617  2.2858  2.5765 -0.0328
  148MOL0     H20388  12.062  10.795   4.524 -1.4075  1.0990  0.4892
  148MOL0     H20389  11.993  10.788   4.358  0.3590  0.7098 -0.8413
  148MOL0     H20390  12.155  10.895   4.254  0.6669  1.5730  0.4155
  148MOL0     H20391  12.230  10.966   4.399 -0.8669 -0.0115 -0.0972
  148MOL0     H20392  12.213  10.682   4.307 -1.8801  1.8264 -1.7799
  148MOL0     H20393  12.301  10.725   4.468 -1.8784 -1.9174  0.1202
  148MOL0     H20394  12.454  10.856   4.341 -0.0296 -0.5601  0.3010
  148MOL0     H20395  12.378  10.809   4.184 -0.6748  2.3572  0.4005
  148MOL0     H20396  12.531  10.627   4.389  3.8687  0.2181 -2.6610
  148MOL0     H20397  12.451  10.566   4.259  0.7656 -1.9395 -0.4469
  148MOL0     H20398  12.681  10.764   4.248 -0.5524  1.7002 -1.5250
  148MOL0     H20399  12.594  10.724   4.101 -0.8865 -1.1955 -1.1551
  148MOL0     H20400  12.616  10.468   4.171 -0.4572 -0.2045 -0.6583
  148MOL0     H20401  12.718  10.524   4.292 -2.0465  3.9450  1.6469
  148MOL0     H20402  12.769  10.567   3.986 -2.1878  1.2472  1.4017
  148MOL0     H20403  12.833  10.430   4.086 -1.2163 -0.2037 -2.8777
  148MOL0     H20404  11.904  10.981   4.209 -0.3938  0.0553 -0.5262
  148MOL0     H20405  11.709  11.027   4.137  0.0823  0.6731  0.6670
  148MOL0     H20406  11.182  11.081   4.294 -0.5039  0.6438 -0.2908
  148MOL0     H20407  10.982  11.181   4.270  2.2482 -2.5261  1.4875
  148MOL0     H20408  10.567  10.131   2.943  1.4881  2.7365  0.6189
  148MOL0     H20409  10.384  10.046   2.798 -1.0303  0.9242 -0.7061
  148MOL0     H20410   9.965   9.975   2.615  0.8671  0.6997  0.5785
  148MOL0     H20411   9.783   9.957   2.469 -0.8610  1.4907  3.4022
  148MOL0     H20412   9.672  10.201   2.118 -0.5203  0.7809 -2.2461
  148MOL0     H20413   9.814  10.136   2.050 -1.7795  2.0327 -0.7752
  148MOL0     H20414   9.560   9.969   2.067 -1.1682 -3.3458 -3.0470
  148MOL0     H20415   9.699   9.940   1.970 -1.4918 -1.1894  2.3380
  148MOL0     H20416   9.653  10.133   1.820 -2.4011 -0.8953 -2.3332
  148MOL0     H20417   9.517  10.043   1.824 -1.3559  0.3874  0.4259
  148MOL0     H20418   9.527  10.306   1.968  0.4585  0.4648  0.6063
  148MOL0     H20419   9.398  10.179   1.991  1.8675 -2.5217  1.1102
  148MOL0     H20420   9.260  10.332   1.645  1.4442 -0.9142 -2.5771
  148MOL0     H20421   9.959  10.193   2.167 -3.7705 -0.2648 -0.2909
  148MOL0     H20422  10.196  10.336   2.326  1.6211  1.5224 -4.0407
  148MOL0     H20423  10.298  10.190   2.332 -0.4534 -0.2846 -1.8610
  148MOL0     H20424  10.223  10.233   2.185  2.6546  1.7076 -0.3012
  149MOL0     O20425   9.329   4.442   2.931  0.0467 -0.8081 -0.0494
  149MOL0     C20426   9.251   4.535   2.972 -0.5860  0.7413 -0.2774
  149MOL0     O20427   9.164   4.530   3.080 -0.6221  0.2154  0.1102
  149MOL0     C20428   9.164   4.415   3.161 -0.2218  0.5659  0.1928
  149MOL0     C20429   9.115   4.298   3.108  0.5361  0.0553  0.6307
  149MOL0     C20430   9.109   4.182   3.193 -0.1178 -0.5456 -0.6522
  149MOL0     C20431   9.157   4.184   3.325 -0.3281  0.6335  0.8273
  149MOL0     O20432   9.163   4.075   3.413  0.0288 -0.3620 -0.3053
  149MOL0     C20433   9.104   3.947   3.384  0.7642 -0.1478 -0.0436
  149MOL0     C20434   8.951   3.944   3.405 -0.3983  0.0039  0.6564
  149MOL0     C20435   8.900   3.832   3.506 -0.0957  0.0615  0.1135
  149MOL0     C20436   8.931   3.686   3.477 -0.2573 -0.8601 -1.3551
  149MOL0     C20437   9.034   3.617   3.573  0.3618 -0.6059 -0.0168
  149MOL0     C20438   8.962   3.594   3.718 -0.0222 -0.1130 -0.3379
  149MOL0     C20439   9.044   3.526   3.826 -0.2479  0.1646  1.1228
  149MOL0     C20440   9.016   3.586   3.963 -0.1963  0.1563 -0.4799
  149MOL0     N20441   8.886   3.547   4.005 -0.2891  0.8670 -0.5263
  149MOL0     C20442   8.834   3.575   4.132  0.3945 -1.5337 -0.0400
  149MOL0     C20443   8.704   3.527   4.134 -0.3836 -0.4204  0.8245
  149MOL0     C20444   8.606   3.538   4.247 -0.0473  0.6580 -0.3181
  149MOL0     C20445   8.470   3.473   4.228 -0.5297 -0.2555  0.3707
  149MOL0     C20446   8.383   3.510   4.112  0.8937  0.9062  0.3933
  149MOL0     C20447   8.247   3.432   4.115  0.9571  0.1558 -0.2116
  149MOL0     O20448   8.178   3.442   3.990  0.2838 -0.8105  0.1655
  149MOL0     C20449   8.083   3.537   3.986  0.2100  0.1488 -0.4718
  149MOL0     C20450   8.105   3.653   3.918 -0.4054  0.0176  0.0623
  149MOL0     C20451   8.002   3.752   3.897 -0.8026 -0.8915  0.0165
  149MOL0     C20452   8.035   3.892   3.850  0.2535  0.3911 -0.0723
  149MOL0     C20453   7.873   3.726   3.936  0.5233 -0.7467  0.3403
  149MOL0     C20454   7.755   3.812   3.914  0.0348 -0.3135 -0.2710
  149MOL0     O20455   7.761   3.925   3.835  0.6124 -0.4006 -0.5154
  149MOL0     C20456   7.655   4.015   3.829  0.0899 -0.0930 -0.3459
  149MOL0     C20457   7.635   4.068   3.701  0.3744  0.5490 -0.7004
  149MOL0     C20458   7.527   4.154   3.679 -0.2015 -0.1616  0.4484
  149MOL0     C20459   7.448   4.200   3.790 -0.2729 -0.1352  0.8617
  149MOL0     O20460   7.342   4.285   3.771  0.1273  0.2175  0.2009
  149MOL0     C20461   7.269   4.288   3.644  0.1769 -0.2343  0.7269
  149MOL0     C20462   7.161   4.393   3.644 -0.5322 -0.2897  0.3738
  149MOL0     C20463   7.062   4.362   3.756 -0.0877 -0.4871  0.9971
  149MOL0     C20464   6.941   4.455   3.743  0.8353 -0.8095 -0.3706
  149MOL0     C20465   6.852   4.434   3.861  0.3733 -0.6031 -0.0862
  149MOL0     C20466   6.741   4.528   3.839  1.2065  0.3101 -0.5845
  149MOL0     C20467   6.628   4.493   3.933 -1.0595 -0.1930 -0.2576
  149MOL0     C20468   6.521   4.588   3.917  1.0189 -0.4085  0.5501
  149MOL0    Cl20469   6.550   4.760   3.988  0.2705  0.8429 -0.3040
  149MOL0     C20470   7.471   4.161   3.925  0.1311  0.3937 -0.2719
  149MOL0     C20471   7.579   4.064   3.939  0.7080 -0.3041  0.3146
  149MOL0     O20472   7.652   3.768   3.964  0.2824  0.2161 -0.3827
  149MOL0     C20473   7.849   3.603   4.004 -0.2769  0.0683 -0.2358
  149MOL0     C20474   7.952   3.509   4.027  0.0916  0.2833 -0.2394
  149MOL0     N20475   8.682   3.466   4.011  0.2954  0.2587  0.6500
  149MOL0     N20476   8.791   3.475   3.940  0.2860 -0.7276  0.8653
  149MOL0     C20477   9.222   4.301   3.367 -0.0010 -0.6099  0.7185
  149MOL0     C20478   9.222   4.422   3.287 -0.0101 -0.0551 -0.1544
  149MOL0     C20479   9.251   4.671   2.908  0.3420  0.0823 -0.7035
  149MOL0     C20480   9.144   4.762   2.942  0.1812 -0.1909  0.0084
  149MOL0     C20481   9.138   4.887   2.889 -0.1619 -0.2083  0.5804
  149MOL0     C20482   9.240   4.933   2.808 -0.1082 -0.2722 -0.1232
  149MOL0     O20483   9.237   5.071   2.795  0.0637  0.5395 -0.5966
  149MOL0     C20484   9.346   5.130   2.724 -0.2544  0.2920 -0.8660
  149MOL0     C20485   9.309   5.274   2.678  0.8464  0.6067 -0.8343
  149MOL0     C20486   9.198   5.277   2.570  0.9232  0.6444  0.0100
  149MOL0     C20487   9.096   5.392   2.601  0.7723 -0.1450  0.0465
  149MOL0     C20488   8.985   5.337   2.684  0.1888 -0.8389 -1.6049
  149MOL0     C20489   8.899   5.299   2.760 -0.3461  0.1495 -0.1828
  149MOL0     C20490   9.349   4.856   2.778 -0.1405  0.5223  0.4057
  149MOL0     C20491   9.355   4.718   2.820 -0.0645  0.4247 -0.2288
  149MOL0     C20492   9.473   4.639   2.776  0.7531  0.6429 -0.7054
  149MOL0     H20493   9.100   4.293   3.001  0.6651  0.7658  0.5752
  149MOL0     H20494   9.057   4.099   3.147 -0.5861 -1.6363  1.7214
  149MOL0     H20495   9.153   3.877   3.453  1.0307 -0.8424 -0.9196
  149MOL0     H20496   9.125   3.916   3.281  1.9713  2.2391 -0.5991
  149MOL0     H20497   8.930   4.047   3.435  1.6416  1.5442 -2.6720
  149MOL0     H20498   8.914   3.927   3.304  0.4855 -0.1589  0.3494
  149MOL0     H20499   8.926   3.859   3.609  0.9834 -0.3970 -0.0344
  149MOL0     H20500   8.791   3.843   3.498 -0.1079  4.7219  2.9091
  149MOL0     H20501   8.838   3.630   3.471 -1.6104  0.8147  1.6778
  149MOL0     H20502   8.971   3.676   3.376  2.1582 -1.3687 -0.4127
  149MOL0     H20503   9.123   3.679   3.583 -0.7044  0.9176  0.4568
  149MOL0     H20504   9.068   3.517   3.545  1.5208 -1.3096  3.3990
  149MOL0     H20505   8.912   3.684   3.758  1.5230 -0.2654  2.1136
  149MOL0     H20506   8.877   3.526   3.707  0.0458 -0.1736 -0.4853
  149MOL0     H20507   9.148   3.539   3.798 -0.2334  0.5227  1.3360
  149MOL0     H20508   9.018   3.420   3.818  1.0133 -0.0039 -2.0211
  149MOL0     H20509   9.096   3.547   4.027  0.6648  0.9974 -1.0015
  149MOL0     H20510   9.028   3.695   3.963  0.4246  0.0938 -0.7224
  149MOL0     H20511   8.886   3.618   4.218  1.0062 -0.6803 -0.8146
  149MOL0     H20512   8.604   3.635   4.297 -0.2005 -0.7371  2.5631
  149MOL0     H20513   8.655   3.496   4.335 -1.4487  0.6842  0.5003
  149MOL0     H20514   8.480   3.365   4.237 -1.1865 -0.3528  0.0290
  149MOL0     H20515   8.422   3.504   4.322 -1.4893  1.5404 -0.6629
  149MOL0     H20516   8.363   3.616   4.091 -0.3421  1.0969  2.3716
  149MOL0     H20517   8.423   3.469   4.019 -2.4400 -3.2923  0.5337
  149MOL0     H20518   8.255   3.328   4.148 -0.9023  0.4699  1.3687
  149MOL0     H20519   8.175   3.471   4.186 -1.0082 -0.8437 -1.5590
  149MOL0     H20520   8.208   3.675   3.891  0.0119 -0.6017  1.0988
  149MOL0     H20521   8.007   3.901   3.745 -1.2716 -2.3984  0.0092
  149MOL0     H20522   8.144   3.890   3.860  0.1440 -3.1957  1.9082
  149MOL0     H20523   7.993   3.969   3.915 -1.6082 -1.1337  0.6129
  149MOL0     H20524   7.689   4.035   3.613  2.5032  0.7468  0.4626
  149MOL0     H20525   7.522   4.198   3.580  0.3785  0.4249  0.6750
  149MOL0     H20526   7.333   4.311   3.559 -0.1654 -2.8294 -0.3151
  149MOL0     H20527   7.216   4.195   3.625  0.9579 -0.9788  2.0554
  149MOL0     H20528   7.208   4.491   3.656 -3.2946  1.3500 -1.0462
  149MOL0     H20529   7.115   4.393   3.544 -2.0231 -0.4587  1.0310
  149MOL0     H20530   7.111   4.404   3.845  0.4760  0.8340  0.0953
  149MOL0     H20531   7.033   4.257   3.766  0.8617 -1.1499 -2.2567
  149MOL0     H20532   6.894   4.433   3.647  2.2304  2.9203 -2.1012
  149MOL0     H20533   6.983   4.556   3.742  0.7544 -0.7581  0.6751
  149MOL0     H20534   6.822   4.328   3.858 -0.6701 -0.3361  0.6003
  149MOL0     H20535   6.907   4.453   3.953 -2.2909 -2.5469  2.0927
  149MOL0     H20536   6.705   4.524   3.736 -1.8579  2.4883  0.2612
  149MOL0     H20537   6.786   4.626   3.853  3.0610 -0.0612 -3.2842
  149MOL0     H20538   6.667   4.482   4.035 -0.5193 -1.6497 -0.5969
  149MOL0     H20539   6.596   4.394   3.899  0.0630 -1.8769  3.1348
  149MOL0     H20540   6.429   4.560   3.969 -0.2578  0.9589 -0.8665
  149MOL0     H20541   6.485   4.600   3.814 -0.8683 -0.6556  1.1290
  149MOL0     H20542   7.426   4.199   4.016  1.4335 -3.3577  2.1836
  149MOL0     H20543   7.583   4.024   4.039 -0.4061  1.8951  1.3161
  149MOL0     H20544   7.749   3.566   4.024 -0.5363 -0.3114 -2.0353
  149MOL0     H20545   7.934   3.413   4.073 -2.2987  0.7541 -0.0839
  149MOL0     H20546   9.276   4.294   3.460  2.2637  0.0595 -0.4780
  149MOL0     H20547   9.259   4.516   3.329 -3.9399  0.2863  3.1982
  149MOL0     H20548   9.069   4.742   3.018 -2.1988 -1.6914 -2.5212
  149MOL0     H20549   9.054   4.944   2.926 -0.8030 -0.0241 -1.0574
  149MOL0     H20550   9.428   5.129   2.796  0.4123  0.4465 -1.6114
  149MOL0     H20551   9.378   5.080   2.632  0.7578  0.2539 -0.5039
  149MOL0     H20552   9.403   5.316   2.641  1.7114 -1.0404 -0.5550
  149MOL0     H20553   9.271   5.329   2.765  2.3714 -0.4106  0.5254
  149MOL0     H20554   9.242   5.293   2.472 -1.3987 -1.6618 -1.5433
  149MOL0     H20555   9.142   5.183   2.561 -1.0749  1.8899 -1.1681
  149MOL0     H20556   9.050   5.424   2.507 -2.1798 -1.6401  0.8666
  149MOL0     H20557   9.143   5.481   2.645  0.8532  0.1245 -0.5760
  149MOL0     H20558   8.833   5.264   2.837 -0.5448 -2.0807 -1.2698
  149MOL0     H20559   9.442   4.900   2.744  1.7871 -1.6901  2.4153
  149MOL0     H20560   9.530   4.696   2.703  1.6260  0.1787 -0.4083
  149MOL0     H20561   9.549   4.616   2.852  0.8753 -1.4628 -1.3900
  149MOL0     H20562   9.441   4.550   2.720  0.7911  0.7441 -0.8859
  150MOL0     O20563   6.885   8.053  10.036 -0.0417 -0.0138  0.3110
  150MOL0     C20564   6.804   8.039  10.131 -0.6666  0.3937 -0.1250
  150MOL0     O20565   6.848   8.010  10.262 -1.2279  0.4838  0.0363
  150MOL0     C20566   6.982   8.026  10.307  0.2025 -0.6671 -0.2848
  150MOL0     C20567   7.077   8.095  10.240 -0.9009  0.1529  0.4674
  150MOL0     C20568   7.202   8.095  10.297  0.0600 -0.7310  0.4818
  150MOL0     C20569   7.242   8.012  10.404 -1.0795  0.3465  0.3692
  150MOL0     O20570   7.368   8.014  10.459  0.2788 -0.3642 -0.4094
  150MOL0     C20571   7.464   8.090  10.386 -0.6664  0.6850  0.6455
  150MOL0     C20572   7.598   8.110  10.446  0.4624  0.0283  0.9830
  150MOL0     C20573   7.675   7.980  10.445 -0.8381 -0.0534  0.2086
  150MOL0     C20574   7.819   7.993  10.447 -0.8279 -0.3246  0.4011
  150MOL0     C20575   7.881   8.064  10.323 -0.4348 -0.1286  0.2818
  150MOL0     C20576   8.026   8.027  10.321  0.5442 -0.4106  0.3039
  150MOL0     C20577   8.096   8.076  10.191  0.5400 -0.0860  0.4670
  150MOL0     C20578   8.046   7.994  10.064  0.1557  0.4690 -0.6372
  150MOL0     N20579   8.135   8.020   9.949  0.1863  0.5952  0.1823
  150MOL0     C20580   8.190   8.147   9.915  0.7002 -0.0887 -0.8302
  150MOL0     C20581   8.295   8.116   9.841 -0.1291  0.0076  0.2910
  150MOL0     C20582   8.403   8.211   9.789  0.1109 -0.2467 -0.8990
  150MOL0     C20583   8.394   8.233   9.641 -0.3309 -0.3191 -0.4437
  150MOL0     C20584   8.504   8.339   9.606  0.3299  0.1911  0.1209
  150MOL0     C20585   8.489   8.389   9.455 -0.6636  0.6246  0.6752
  150MOL0     O20586   8.473   8.282   9.368  0.9437  0.2034 -0.3479
  150MOL0     C20587   8.527   8.279   9.242 -0.7437  0.5483 -0.0109
  150MOL0     C20588   8.588   8.382   9.164  0.1827 -0.6934 -1.1123
  150MOL0     C20589   8.650   8.355   9.041 -0.1431  0.8485  0.7712
  150MOL0     C20590   8.711   8.478   8.966 -0.5445 -0.2801  0.0174
  150MOL0     C20591   8.655   8.225   8.988 -0.9852 -0.2525  0.0177
  150MOL0     C20592   8.731   8.182   8.860  0.2838  0.4661  0.2308
  150MOL0     O20593   8.815   8.275   8.813  0.6253 -0.3804  0.1419
  150MOL0     C20594   8.912   8.238   8.730 -0.4158  0.0065 -0.1739
  150MOL0     C20595   9.026   8.166   8.771  0.5277  0.2799  0.6872
  150MOL0     C20596   9.125   8.123   8.686 -0.0820 -0.6721 -0.0747
  150MOL0     C20597   9.104   8.161   8.552 -0.8297 -0.0413 -0.3151
  150MOL0     O20598   9.213   8.124   8.477  0.1552 -0.3684 -0.2981
  150MOL0     C20599   9.246   8.203   8.360  0.7765 -0.6517 -0.5308
  150MOL0     C20600   9.384   8.167   8.318 -0.5247  0.6930 -0.8872
  150MOL0     C20601   9.406   8.023   8.301  0.1628 -0.0887  0.0438
  150MOL0     C20602   9.553   7.998   8.293 -0.1973  0.7059  0.8335
  150MOL0     C20603   9.577   7.845   8.295 -0.4554  0.3675  0.0912
  150MOL0     C20604   9.500   7.770   8.189 -0.1096 -0.4285  0.2149
  150MOL0     C20605   9.555   7.625   8.178 -0.2184 -0.7143 -0.2772
  150MOL0     C20606   9.466   7.551   8.078  0.5893  0.4392 -0.4693
  150MOL0    Cl20607   9.530   7.378   8.069  0.1077 -0.1342 -0.1517
  150MOL0     C20608   9.005   8.236   8.511  0.5564  0.2601  0.1195
  150MOL0     C20609   8.902   8.275   8.598 -0.0161 -0.7310  0.2588
  150MOL0     O20610   8.720   8.065   8.815 -0.1281 -0.5162 -0.1025
  150MOL0     C20611   8.587   8.122   9.056  0.1916 -0.0870 -0.3776
  150MOL0     C20612   8.518   8.157   9.174 -0.3329  0.5945  1.0993
  150MOL0     N20613   8.292   7.982   9.822  0.1632 -0.8659 -0.0769
  150MOL0     N20614   8.203   7.927   9.882 -1.3546 -0.6042 -0.2618
  150MOL0     C20615   7.145   7.924  10.455  0.6218 -0.0541 -0.0540
  150MOL0     C20616   7.010   7.949  10.422 -1.2994  0.3239 -0.2996
  150MOL0     C20617   6.653   8.049  10.114 -0.5881 -0.4675  1.1359
  150MOL0     C20618   6.566   8.015  10.219 -0.1131  0.0987  0.2664
  150MOL0     C20619   6.421   8.023  10.205  0.4156 -0.1945  0.4796
  150MOL0     C20620   6.364   8.049  10.081  0.4115  0.5075  0.3658
  150MOL0     O20621   6.229   8.042  10.081 -0.1016  0.6207 -0.3266
  150MOL0     C20622   6.145   8.061   9.960 -0.3156 -0.6199  0.4668
  150MOL0     C20623   5.998   8.035   9.985  0.5844 -0.0718  0.7059
  150MOL0     C20624   5.923   8.162  10.029 -0.6148 -0.9134 -0.2240
  150MOL0     C20625   5.774   8.134  10.044  0.1156 -0.6136  0.1632
  150MOL0     C20626   5.702   8.258  10.071 -0.3991  1.1415  0.5459
  150MOL0     C20627   5.641   8.359  10.080  0.1548  0.1417 -0.1830
  150MOL0     C20628   6.448   8.088   9.978  0.1435  0.3034 -0.1436
  150MOL0     C20629   6.589   8.089   9.984  0.5696 -0.3483  0.6032
  150MOL0     C20630   6.664   8.137   9.857  0.4174  1.1826  0.0188
  150MOL0     H20631   7.064   8.155  10.151  2.0707  0.6689  0.3023
  150MOL0     H20632   7.264   8.160  10.235 -3.9194  2.5940 -0.4309
  150MOL0     H20633   7.418   8.189  10.378 -2.6456 -0.0746  1.8331
  150MOL0     H20634   7.470   8.053  10.283 -1.4722  0.1944  0.7680
  150MOL0     H20635   7.655   8.183  10.388  0.7072 -0.0711  1.0953
  150MOL0     H20636   7.585   8.153  10.546  0.6531 -0.8155  1.3752
  150MOL0     H20637   7.637   7.916  10.525  1.7479 -2.9348 -0.6684
  150MOL0     H20638   7.651   7.931  10.350  0.6236 -0.5230  0.0644
  150MOL0     H20639   7.854   8.047  10.536 -3.5809 -1.0194  2.0378
  150MOL0     H20640   7.860   7.892  10.445  0.8781  0.1927 -4.5829
  150MOL0     H20641   7.861   8.171  10.336 -1.9515 -0.3299 -0.1319
  150MOL0     H20642   7.830   8.032  10.232  2.1510 -0.4700 -1.1313
  150MOL0     H20643   8.076   8.089  10.396  0.7484  0.4930 -0.5421
  150MOL0     H20644   8.035   7.918  10.321 -0.0733 -0.4781  1.8306
  150MOL0     H20645   8.204   8.059  10.190  0.2100 -2.6480  0.4831
  150MOL0     H20646   8.073   8.182  10.177  2.4992  0.2077 -0.9675
  150MOL0     H20647   8.038   7.887  10.085 -1.7405  0.3407 -1.7500
  150MOL0     H20648   7.947   8.024  10.027 -0.5435 -2.4262 -1.3659
  150MOL0     H20649   8.169   8.233   9.978  2.5104 -1.9954  2.6774
  150MOL0     H20650   8.495   8.156   9.811 -2.2035 -3.1985  2.3130
  150MOL0     H20651   8.404   8.304   9.847  0.7496  0.4399 -1.9726
  150MOL0     H20652   8.406   8.144   9.579  0.0896 -1.1764  0.8164
  150MOL0     H20653   8.303   8.280   9.604  1.9802  2.3430 -3.4048
  150MOL0     H20654   8.506   8.427   9.671 -0.5288  0.6250 -0.4167
  150MOL0     H20655   8.601   8.289   9.610 -0.3139 -1.3956 -2.1242
  150MOL0     H20656   8.391   8.435   9.442 -1.1800 -0.7869 -0.6826
  150MOL0     H20657   8.575   8.451   9.427 -1.0753  0.4152 -1.1831
  150MOL0     H20658   8.589   8.486   9.196 -2.9226  0.2152 -3.4884
  150MOL0     H20659   8.818   8.492   8.988 -0.0850  0.0988 -2.2506
  150MOL0     H20660   8.665   8.569   9.005  1.2505  1.2508 -1.2452
  150MOL0     H20661   8.701   8.469   8.858  1.0541 -1.4500 -0.0624
  150MOL0     H20662   9.032   8.134   8.875 -2.4908  3.4959  2.0567
  150MOL0     H20663   9.218   8.070   8.706  1.4926  1.5650 -1.1665
  150MOL0     H20664   9.169   8.176   8.288  0.9158 -1.4193 -0.3963
  150MOL0     H20665   9.239   8.310   8.384 -0.4259 -0.6510 -0.8600
  150MOL0     H20666   9.397   8.219   8.222 -1.2840  0.1511 -1.2891
  150MOL0     H20667   9.455   8.211   8.388  1.1623 -0.9180 -1.4910
  150MOL0     H20668   9.356   8.011   8.205 -0.0987 -0.8258  0.2680
  150MOL0     H20669   9.362   7.967   8.384  1.7195  2.3906  2.7557
  150MOL0     H20670   9.600   8.031   8.387  0.2135 -3.3113  2.2360
  150MOL0     H20671   9.592   8.041   8.201  1.0680 -0.5559  0.7425
  150MOL0     H20672   9.683   7.818   8.289  0.3357  3.1082  0.3478
  150MOL0     H20673   9.559   7.803   8.394  2.0436  0.4640  0.6392
  150MOL0     H20674   9.531   7.827   8.101 -1.7006  0.6846  0.3367
  150MOL0     H20675   9.392   7.770   8.207 -0.2232  1.4100 -0.2349
  150MOL0     H20676   9.562   7.569   8.271 -0.2037 -0.2999 -0.0246
  150MOL0     H20677   9.658   7.624   8.141  0.2362  1.8202  0.7226
  150MOL0     H20678   9.467   7.600   7.981  0.7348 -2.3461 -1.9896
  150MOL0     H20679   9.363   7.548   8.114  0.6846  0.9917 -0.1399
  150MOL0     H20680   9.002   8.267   8.408  2.6058  1.5190  0.3674
  150MOL0     H20681   8.816   8.318   8.548  1.9452  3.2357 -0.0982
  150MOL0     H20682   8.581   8.021   9.017  1.9875 -0.4908  0.2646
  150MOL0     H20683   8.467   8.069   9.212  0.3125 -0.0314  0.5507
  150MOL0     H20684   7.161   7.852  10.534  1.8583 -1.4755 -1.5121
  150MOL0     H20685   6.930   7.887  10.460 -0.0961 -0.1713  1.5119
  150MOL0     H20686   6.603   7.972  10.311 -1.1773 -4.0063 -1.0247
  150MOL0     H20687   6.361   8.001  10.293  1.5418 -0.8133  1.1158
  150MOL0     H20688   6.153   8.167   9.932 -2.2910 -1.2415 -3.0990
  150MOL0     H20689   6.180   8.002   9.875  0.3762  2.6203 -1.6871
  150MOL0     H20690   5.993   7.962  10.067 -1.3702 -1.1673 -0.3131
  150MOL0     H20691   5.962   7.996   9.890 -0.1874  0.5279  0.7460
  150MOL0     H20692   5.967   8.200  10.122 -0.1321  0.6551 -1.0562
  150MOL0     H20693   5.940   8.234   9.947  1.6698 -1.8433 -0.6401
  150MOL0     H20694   5.752   8.057  10.118 -0.7418 -1.6093 -1.0839
  150MOL0     H20695   5.738   8.093   9.950 -0.2839 -2.4431  1.0698
  150MOL0     H20696   5.582   8.449  10.082  0.7968  0.5698 -0.0481
  150MOL0     H20697   6.398   8.107   9.883 -4.2333  4.2030  2.5194
  150MOL0     H20698   6.598   8.147   9.770 -0.6585 -1.7324  0.4093
  150MOL0     H20699   6.710   8.235   9.871  1.7002  0.5855  0.0970
  150MOL0     H20700   6.738   8.063   9.827 -1.5051 -0.3985 -1.1198
  151MOL0     O20701   8.607   8.759   9.689 -0.4511  0.3476 -0.1069
  151MOL0     C20702   8.574   8.877   9.684  0.7146 -0.3320  1.1937
  151MOL0     O20703   8.517   8.941   9.578  0.0663 -0.0577  0.1925
  151MOL0     C20704   8.463   8.866   9.478  0.5086  0.0657 -0.0643
  151MOL0     C20705   8.349   8.794   9.501  0.3692 -0.5367 -0.1528
  151MOL0     C20706   8.279   8.751   9.386 -0.7674 -0.1810  0.8473
  151MOL0     C20707   8.323   8.769   9.258 -0.1151  0.8594  0.3469
  151MOL0     O20708   8.268   8.712   9.144  0.4066  0.2042 -0.5804
  151MOL0     C20709   8.170   8.613   9.158  0.1446  0.3277 -0.4377
  151MOL0     C20710   8.158   8.547   9.018 -1.2701  0.0615  0.1766
  151MOL0     C20711   8.122   8.663   8.915 -1.1402  0.0090 -0.3131
  151MOL0     C20712   8.160   8.634   8.762 -0.1390  0.2164 -0.6997
  151MOL0     C20713   8.047   8.554   8.689 -0.4774  0.6221  0.0978
  151MOL0     C20714   8.063   8.561   8.535  0.7942 -0.7586 -0.3506
  151MOL0     C20715   7.925   8.539   8.473 -1.1619  0.2229  0.1819
  151MOL0     C20716   7.934   8.504   8.324 -0.3914 -0.3329  0.0262
  151MOL0     N20717   8.056   8.527   8.253  0.3999  0.2139 -0.6349
  151MOL0     C20718   8.102   8.438   8.158  0.1339 -0.3005  0.1170
  151MOL0     C20719   8.190   8.510   8.087 -0.9265  0.0286  0.2596
  151MOL0     C20720   8.260   8.469   7.960  0.1150 -0.9199  0.0387
  151MOL0     C20721   8.377   8.380   8.000 -0.2438  0.1118 -0.2636
  151MOL0     C20722   8.456   8.357   7.878 -0.8934 -0.0815  0.6037
  151MOL0     C20723   8.542   8.482   7.842  0.7800  0.0602 -0.3510
  151MOL0     O20724   8.619   8.512   7.960  0.1848  0.6025 -0.1488
  151MOL0     C20725   8.623   8.643   7.998  0.2951  0.6465 -0.0942
  151MOL0     C20726   8.665   8.660   8.126  0.2945 -0.2820 -0.8168
  151MOL0     C20727   8.676   8.780   8.190 -0.4704 -0.9530 -0.1461
  151MOL0     C20728   8.715   8.787   8.337 -0.2482 -0.6276  0.0343
  151MOL0     C20729   8.658   8.899   8.114  0.7378  0.1081 -0.5268
  151MOL0     C20730   8.676   9.037   8.171 -0.0191 -0.3662 -0.9502
  151MOL0     O20731   8.627   9.138   8.095 -0.0234  0.8858 -0.2872
  151MOL0     C20732   8.584   9.257   8.136 -0.1924  0.4662  0.4633
  151MOL0     C20733   8.548   9.289   8.276  0.0510  0.2974  0.1899
  151MOL0     C20734   8.515   9.424   8.313 -0.5853 -0.6515  1.4358
  151MOL0     C20735   8.546   9.529   8.224  1.1534  0.3462 -0.2192
  151MOL0     O20736   8.523   9.656   8.263  0.5893  0.0239 -0.1951
  151MOL0     C20737   8.531   9.759   8.169  0.4137 -0.9577  1.0123
  151MOL0     C20738   8.504   9.890   8.244 -0.5150 -0.0369  1.2430
  151MOL0     C20739   8.373   9.898   8.312  0.1826  0.1431 -0.4541
  151MOL0     C20740   8.318  10.043   8.325 -0.0108  0.0557  0.1642
  151MOL0     C20741   8.257  10.052   8.457  0.6334  0.0829  0.2687
  151MOL0     C20742   8.160  10.168   8.469  0.0967  0.1161  0.8827
  151MOL0     C20743   8.105  10.170   8.614  0.0927 -0.2604  0.0015
  151MOL0     C20744   7.970  10.239   8.608 -0.8664 -0.6554 -0.5341
  151MOL0    Cl20745   7.997  10.419   8.595  0.5105  0.1836 -0.0724
  151MOL0     C20746   8.569   9.497   8.087 -0.1581 -0.8130 -0.9530
  151MOL0     C20747   8.588   9.366   8.055 -0.9859 -0.1113  0.4211
  151MOL0     O20748   8.740   9.059   8.275 -0.0763 -0.5719  0.2058
  151MOL0     C20749   8.609   8.883   7.984 -0.0806 -0.7085 -0.5219
  151MOL0     C20750   8.591   8.760   7.928  0.7009 -0.0296  0.4016
  151MOL0     N20751   8.201   8.637   8.144  0.3787  1.3404 -0.8360
  151MOL0     N20752   8.121   8.646   8.244  0.0051 -0.2645  0.4260
  151MOL0     C20753   8.442   8.834   9.242  0.8355 -0.2895  0.7108
  151MOL0     C20754   8.517   8.884   9.351  0.3276 -0.7772  0.0726
  151MOL0     C20755   8.600   8.962   9.804 -0.0215  0.7263  0.0163
  151MOL0     C20756   8.729   8.996   9.834 -0.3168  0.3487  0.2163
  151MOL0     C20757   8.764   9.083   9.936  0.2391 -0.5181 -0.4278
  151MOL0     C20758   8.651   9.134  10.015  0.2232  0.1189 -1.0566
  151MOL0     O20759   8.662   9.235  10.114 -0.2010 -0.8747 -0.8225
  151MOL0     C20760   8.788   9.295  10.125 -0.5844 -0.5942  0.5491
  151MOL0     C20761   8.778   9.390  10.237 -0.4104 -0.2969 -0.0416
  151MOL0     C20762   8.665   9.500  10.237 -0.3890  0.7462  0.0213
  151MOL0     C20763   8.671   9.585  10.380  0.5235  0.3413 -0.3028
  151MOL0     C20764   8.634   9.507  10.505 -0.8906 -0.1445 -0.2574
  151MOL0     C20765   8.620   9.439  10.598  0.1253 -0.2489  0.0753
  151MOL0     C20766   8.526   9.076  10.000 -0.4091 -0.1326  0.2656
  151MOL0     C20767   8.500   8.979   9.900  0.1754 -0.6712 -0.6809
  151MOL0     C20768   8.358   8.924   9.895  0.2445  0.3525  0.1682
  151MOL0     H20769   8.314   8.772   9.601 -2.4263 -1.8966 -1.3058
  151MOL0     H20770   8.194   8.684   9.399 -1.9556  1.1735  0.3246
  151MOL0     H20771   8.073   8.653   9.188 -1.1760 -1.1863 -2.4527
  151MOL0     H20772   8.206   8.533   9.224 -1.3791 -1.9068 -2.1634
  151MOL0     H20773   8.254   8.502   8.991  0.5633  3.3060  0.7244
  151MOL0     H20774   8.069   8.485   9.024 -1.8938  0.8519 -0.5415
  151MOL0     H20775   8.014   8.678   8.913 -1.7041 -2.9280  1.2288
  151MOL0     H20776   8.168   8.753   8.956  0.8167 -0.9569 -0.2569
  151MOL0     H20777   8.170   8.724   8.702 -2.7405  1.1940  0.1742
  151MOL0     H20778   8.256   8.583   8.763  0.9092  2.0750  1.2059
  151MOL0     H20779   7.953   8.587   8.734 -1.7775 -0.1474 -1.9135
  151MOL0     H20780   8.061   8.449   8.716 -1.6328  0.1217 -1.1731
  151MOL0     H20781   8.094   8.665   8.516  0.1349 -0.2854  0.9769
  151MOL0     H20782   8.137   8.492   8.496 -0.1572 -1.6384 -0.6276
  151MOL0     H20783   7.864   8.627   8.493 -0.3873  0.5999  0.9350
  151MOL0     H20784   7.868   8.463   8.527 -2.0326  0.6610 -0.0971
  151MOL0     H20785   7.899   8.400   8.319 -3.6083  0.4577  2.5739
  151MOL0     H20786   7.866   8.574   8.274  1.8772  0.2120 -2.5242
  151MOL0     H20787   8.082   8.332   8.146 -3.3680  0.2487 -0.0914
  151MOL0     H20788   8.297   8.562   7.916  0.1316 -0.1488  1.5818
  151MOL0     H20789   8.189   8.427   7.890  0.1045 -0.6462 -0.1144
  151MOL0     H20790   8.430   8.433   8.080  0.9816  3.1501 -2.9178
  151MOL0     H20791   8.334   8.291   8.048 -0.2956  0.7359  0.8844
  151MOL0     H20792   8.525   8.273   7.891  0.4169  0.9492  0.5023
  151MOL0     H20793   8.386   8.326   7.799  1.9357 -0.4710 -1.9407
  151MOL0     H20794   8.609   8.458   7.759  3.7441 -0.2007  1.9606
  151MOL0     H20795   8.481   8.568   7.813  1.2427  1.0699  1.4828
  151MOL0     H20796   8.662   8.572   8.190 -0.5934  0.2772 -0.0648
  151MOL0     H20797   8.810   8.840   8.344  0.6776 -1.4827 -3.7200
  151MOL0     H20798   8.734   8.683   8.365 -1.4117 -2.5043 -5.0027
  151MOL0     H20799   8.644   8.829   8.409  1.6307  1.1632  0.9364
  151MOL0     H20800   8.539   9.211   8.350 -2.2328  1.5498  1.3598
  151MOL0     H20801   8.488   9.446   8.416  0.4582  2.2828  1.1800
  151MOL0     H20802   8.627   9.762   8.118 -1.2502  0.6484 -2.3074
  151MOL0     H20803   8.460   9.751   8.086  1.2932 -3.7293  0.4106
  151MOL0     H20804   8.581   9.892   8.321  2.9782 -3.0694 -1.7610
  151MOL0     H20805   8.507   9.971   8.170  3.0192  1.4619  2.8104
  151MOL0     H20806   8.377   9.855   8.413  1.4462  2.9556  0.8177
  151MOL0     H20807   8.290   9.843   8.267 -2.1104 -0.9730  4.4908
  151MOL0     H20808   8.243  10.062   8.247 -2.3716 -1.4511  1.8975
  151MOL0     H20809   8.399  10.113   8.306 -2.5611  2.6354 -2.3605
  151MOL0     H20810   8.214   9.957   8.490  1.0765 -0.6720 -1.2628
  151MOL0     H20811   8.338  10.059   8.530 -0.5434  3.0973  1.4286
  151MOL0     H20812   8.079  10.153   8.398  1.4641 -2.6094 -0.2225
  151MOL0     H20813   8.207  10.265   8.449  0.0715  0.0426  0.4700
  151MOL0     H20814   8.173  10.224   8.681 -2.2062  0.8468  1.5797
  151MOL0     H20815   8.086  10.069   8.652 -1.5599 -0.0481 -0.2105
  151MOL0     H20816   7.915  10.221   8.701  0.0093  0.8708  0.3011
  151MOL0     H20817   7.914  10.207   8.520 -3.0840  1.8482 -0.1694
  151MOL0     H20818   8.584   9.571   8.010 -3.4520  2.7247  1.4614
  151MOL0     H20819   8.628   9.340   7.958  1.1048  0.7338  1.0141
  151MOL0     H20820   8.593   8.964   7.913  0.3269 -1.5089 -1.5672
  151MOL0     H20821   8.543   8.761   7.831  1.1673  2.2541  0.1489
  151MOL0     H20822   8.484   8.849   9.143  0.3522  0.4591  0.6167
  151MOL0     H20823   8.611   8.938   9.339  1.2284 -2.5691 -1.3458
  151MOL0     H20824   8.814   8.966   9.773 -0.9999  0.9918 -1.0946
  151MOL0     H20825   8.871   9.103   9.944  0.6831 -2.8504  0.3563
  151MOL0     H20826   8.879   9.234  10.128 -0.2220 -0.0561  0.7330
  151MOL0     H20827   8.813   9.356  10.037  1.4763 -1.9652  0.1108
  151MOL0     H20828   8.865   9.455  10.245 -0.0317 -0.4803 -2.2163
  151MOL0     H20829   8.764   9.336  10.331  5.4163  0.1599  1.4527
  151MOL0     H20830   8.682   9.567  10.153 -0.8583  1.7092  0.6748
  151MOL0     H20831   8.564   9.457  10.226 -0.8600  2.1112 -1.3054
  151MOL0     H20832   8.616   9.679  10.372  4.0143  2.3989 -2.2288
  151MOL0     H20833   8.774   9.618  10.393  0.0088  2.5574 -1.4208
  151MOL0     H20834   8.603   9.381  10.687  0.1024 -0.2359  0.0795
  151MOL0     H20835   8.444   9.118  10.058  1.7681  0.4957  3.1204
  151MOL0     H20836   8.287   8.995   9.939 -0.1443  0.5014 -0.6778
  151MOL0     H20837   8.322   8.896   9.795  2.1231 -3.5814  0.3878
  151MOL0     H20838   8.360   8.831   9.953 -1.3360  0.3660  0.2877
  152MOL0     O20839   1.786   6.015  10.816  0.2943  0.5666  0.2242
  152MOL0     C20840   1.677   5.983  10.768 -0.3668  0.4905  0.7712
  152MOL0     O20841   1.601   6.075  10.703 -1.3666 -0.0383 -0.3870
  152MOL0     C20842   1.662   6.196  10.670  0.2419 -0.0524  0.4381
  152MOL0     C20843   1.662   6.300  10.765  0.7006  0.4439  0.7678
  152MOL0     C20844   1.718   6.421  10.739 -0.0476 -0.5983  0.2403
  152MOL0     C20845   1.783   6.440  10.611  1.6209 -1.0449 -0.1783
  152MOL0     O20846   1.846   6.560  10.591  0.6816 -0.1132 -0.0550
  152MOL0     C20847   1.846   6.629  10.468  0.6236 -0.5803  0.5223
  152MOL0     C20848   1.951   6.735  10.468  0.2649 -0.8549 -0.3138
  152MOL0     C20849   1.967   6.812  10.331  0.4179  0.6252  0.2663
  152MOL0     C20850   2.103   6.800  10.263  0.2996 -0.2218  0.6711
  152MOL0     C20851   2.101   6.900  10.152 -0.3683  0.9159  0.6593
  152MOL0     C20852   2.233   6.906  10.068  0.2394  0.2774  0.6382
  152MOL0     C20853   2.253   6.777   9.975  0.2476 -0.4995 -0.0857
  152MOL0     C20854   2.398   6.770   9.926  0.2877 -0.2902 -0.4643
  152MOL0     N20855   2.395   6.684   9.809  1.1387  1.2421  0.7853
  152MOL0     C20856   2.456   6.556   9.797  0.1448  0.6058 -0.0851
  152MOL0     C20857   2.447   6.527   9.672  0.4695  0.0197  0.4626
  152MOL0     C20858   2.500   6.402   9.603  0.2919 -0.6832  0.2859
  152MOL0     C20859   2.623   6.452   9.521  0.2577  0.6123  0.0168
  152MOL0     C20860   2.755   6.486   9.603  0.0972 -0.1914 -0.2394
  152MOL0     C20861   2.863   6.529   9.498  0.0814  0.3420 -0.6333
  152MOL0     O20862   2.893   6.415   9.416  0.2077 -0.2925 -0.7148
  152MOL0     C20863   2.890   6.442   9.287  0.2219 -0.6144  0.2733
  152MOL0     C20864   2.999   6.429   9.204  1.2417 -0.3679 -0.3228
  152MOL0     C20865   2.993   6.446   9.059 -0.3780 -0.2088 -0.0564
  152MOL0     C20866   3.111   6.397   8.983 -0.3973  0.2634  0.2261
  152MOL0     C20867   2.871   6.499   8.999 -0.1650  0.7195 -0.1087
  152MOL0     C20868   2.850   6.511   8.848  0.6104 -0.0046  0.7938
  152MOL0     O20869   2.724   6.564   8.812 -0.1932  0.2754 -0.4202
  152MOL0     C20870   2.688   6.588   8.679  0.0015 -0.3631  1.0337
  152MOL0     C20871   2.787   6.621   8.579 -0.2792 -0.1287 -0.2676
  152MOL0     C20872   2.743   6.662   8.457 -0.1601  1.1367 -0.9862
  152MOL0     C20873   2.608   6.651   8.409 -0.4298 -0.2389 -0.3934
  152MOL0     O20874   2.584   6.679   8.282  0.5055  0.3215 -0.4141
  152MOL0     C20875   2.479   6.778   8.269  0.7280 -0.3935 -0.2198
  152MOL0     C20876   2.447   6.813   8.121  0.4757  0.1253 -0.2214
  152MOL0     C20877   2.567   6.888   8.058 -0.0132 -0.0899 -0.0961
  152MOL0     C20878   2.536   6.952   7.918  1.2059  0.0181  0.0662
  152MOL0     C20879   2.642   7.034   7.865 -0.4704  0.7908  0.1202
  152MOL0     C20880   2.617   7.079   7.719 -0.2609  0.6124  0.3788
  152MOL0     C20881   2.724   7.169   7.676 -0.8904 -0.2658  0.1904
  152MOL0     C20882   2.685   7.260   7.558  0.0757  0.0215  0.0519
  152MOL0    Cl20883   2.815   7.304   7.448 -0.5152  0.1075 -0.4273
  152MOL0     C20884   2.509   6.614   8.504 -0.9080 -0.2162  0.8510
  152MOL0     C20885   2.549   6.592   8.644 -0.8190 -0.9329 -0.8777
  152MOL0     O20886   2.931   6.456   8.772 -0.4251  0.1523  0.6379
  152MOL0     C20887   2.758   6.520   9.089 -0.9994 -0.5253  0.0773
  152MOL0     C20888   2.778   6.503   9.227  0.3327  0.1212 -0.3484
  152MOL0     N20889   2.356   6.613   9.613  0.1844  0.1977 -0.3014
  152MOL0     N20890   2.324   6.706   9.699 -0.3530  0.4121 -0.4829
  152MOL0     C20891   1.767   6.343  10.512  0.4872  0.4657  0.2530
  152MOL0     C20892   1.708   6.221  10.541  0.2545 -1.0276  0.9900
  152MOL0     C20893   1.616   5.844  10.773  0.3738  0.5323 -0.4775
  152MOL0     C20894   1.495   5.819  10.710 -0.6719 -0.7626 -1.0600
  152MOL0     C20895   1.441   5.686  10.705  0.1581 -0.0971  0.0502
  152MOL0     C20896   1.505   5.580  10.757  0.2021 -0.0502 -0.2950
  152MOL0     O20897   1.435   5.469  10.775  0.2731 -0.2080  0.3264
  152MOL0     C20898   1.470   5.370  10.879 -0.5391  0.4309 -0.1636
  152MOL0     C20899   1.397   5.409  11.008  0.4028  0.9922  0.2900
  152MOL0     C20900   1.245   5.388  10.993  0.1622 -0.8527 -0.1562
  152MOL0     C20901   1.193   5.270  11.067 -0.3047  0.6519 -0.2659
  152MOL0     C20902   1.203   5.266  11.210  0.0057  0.3852 -0.9156
  152MOL0     C20903   1.195   5.259  11.331  0.1959  0.4397 -0.0724
  152MOL0     C20904   1.617   5.608  10.829  1.0159 -0.5142  1.1501
  152MOL0     C20905   1.687   5.735  10.834  0.3542 -1.0545 -0.1349
  152MOL0     C20906   1.808   5.738  10.914 -0.2160  0.6374 -1.0540
  152MOL0     H20907   1.623   6.272  10.862  3.7696 -0.4856  1.8521
  152MOL0     H20908   1.724   6.501  10.811 -1.1392  1.1316 -1.4929
  152MOL0     H20909   1.745   6.671  10.462  1.6198  1.8330 -0.7335
  152MOL0     H20910   1.859   6.562  10.383 -0.9972 -1.4285  0.9036
  152MOL0     H20911   1.930   6.801  10.554 -0.7579 -1.4736 -0.0702
  152MOL0     H20912   2.052   6.696  10.482  1.5105  2.0150 -0.4466
  152MOL0     H20913   1.892   6.773  10.261  0.5251  0.9664 -0.0453
  152MOL0     H20914   1.942   6.916  10.354  0.5951  0.7665 -0.1539
  152MOL0     H20915   2.184   6.817  10.335 -0.6690  1.8949  1.3595
  152MOL0     H20916   2.117   6.700  10.220  0.0131  0.4387 -1.0354
  152MOL0     H20917   2.097   6.992  10.211 -2.7575  0.3701  1.4860
  152MOL0     H20918   2.007   6.883  10.098  0.0751 -0.5722  0.3037
  152MOL0     H20919   2.240   6.996  10.007 -2.3026 -0.5343 -1.0096
  152MOL0     H20920   2.313   6.905  10.143  1.0959  1.3325 -0.2287
  152MOL0     H20921   2.188   6.794   9.889  1.0469  1.1021 -0.4287
  152MOL0     H20922   2.222   6.687  10.028  4.3675 -1.3152  1.3715
  152MOL0     H20923   2.427   6.868   9.886  0.1623  1.3474  3.0905
  152MOL0     H20924   2.462   6.739  10.009  3.4114  1.6999 -1.9239
  152MOL0     H20925   2.501   6.496   9.874 -0.6004  0.8892  0.5829
  152MOL0     H20926   2.425   6.369   9.531  1.0804 -5.6249  1.3018
  152MOL0     H20927   2.521   6.320   9.673 -0.4935 -1.4818 -0.3793
  152MOL0     H20928   2.643   6.379   9.442  1.5197 -0.2298  1.0752
  152MOL0     H20929   2.598   6.546   9.471 -4.4577  0.8681  2.2749
  152MOL0     H20930   2.737   6.564   9.678  1.1499  0.8640 -1.0449
  152MOL0     H20931   2.783   6.394   9.653  2.7699  0.3084 -0.6712
  152MOL0     H20932   2.816   6.609   9.440 -0.3220  0.5461 -0.0380
  152MOL0     H20933   2.948   6.564   9.557  0.4193  0.8584 -1.4090
  152MOL0     H20934   3.088   6.396   9.256  0.0346 -0.4939  1.7439
  152MOL0     H20935   3.171   6.341   9.056  1.8064  1.4825 -0.5521
  152MOL0     H20936   3.164   6.484   8.945  2.4430 -1.1532  0.6906
  152MOL0     H20937   3.086   6.322   8.907 -2.1309  0.8056  0.2131
  152MOL0     H20938   2.892   6.613   8.604 -0.8589 -1.8550  1.9395
  152MOL0     H20939   2.820   6.674   8.381  0.2716 -0.7898 -0.9046
  152MOL0     H20940   2.387   6.731   8.302  0.5176  0.1483 -0.0146
  152MOL0     H20941   2.508   6.868   8.325 -3.7186  2.6558 -2.1938
  152MOL0     H20942   2.422   6.722   8.066  0.9225 -0.0428 -0.1556
  152MOL0     H20943   2.354   6.870   8.115  0.4702 -0.0453 -2.6677
  152MOL0     H20944   2.641   6.809   8.041  3.2672  2.7656 -0.1955
  152MOL0     H20945   2.614   6.965   8.119  0.7254 -2.8895  3.1986
  152MOL0     H20946   2.448   7.017   7.927  1.4378  0.5545 -1.3478
  152MOL0     H20947   2.503   6.874   7.850  0.3459  1.3978 -1.1756
  152MOL0     H20948   2.654   7.121   7.931 -0.2657  0.6798  0.2315
  152MOL0     H20949   2.728   6.967   7.877 -2.1267 -1.5981 -0.5674
  152MOL0     H20950   2.527   7.141   7.724 -2.0833 -1.5352 -2.3323
  152MOL0     H20951   2.604   6.998   7.647 -1.1581  1.5521 -0.5544
  152MOL0     H20952   2.804   7.101   7.646 -0.6310  0.2640 -0.3684
  152MOL0     H20953   2.757   7.238   7.755  1.8991  1.2866 -2.0877
  152MOL0     H20954   2.639   7.353   7.593 -2.2382 -0.4606 -1.4613
  152MOL0     H20955   2.611   7.203   7.501 -0.7280 -0.5397  1.6220
  152MOL0     H20956   2.403   6.612   8.483 -0.7775 -2.7583  0.0293
  152MOL0     H20957   2.469   6.588   8.716 -0.1487  1.4773  0.1209
  152MOL0     H20958   2.657   6.547   9.058 -0.3903  2.7437  0.6519
  152MOL0     H20959   2.689   6.520   9.286  0.1289  1.2439 -0.9645
  152MOL0     H20960   1.812   6.339  10.413  0.1962  1.0876  0.0928
  152MOL0     H20961   1.709   6.143  10.466 -0.6222 -1.1936  1.1411
  152MOL0     H20962   1.433   5.893  10.662 -0.8637 -1.0399 -1.2407
  152MOL0     H20963   1.341   5.667  10.667 -0.9002 -2.2539  3.4481
  152MOL0     H20964   1.427   5.275  10.846 -0.3513  0.1863  0.2814
  152MOL0     H20965   1.573   5.337  10.897 -0.8364  1.1615  3.8990
  152MOL0     H20966   1.422   5.514  11.024 -0.1905  1.0961  0.5924
  152MOL0     H20967   1.426   5.342  11.089 -0.1890  0.5321  0.1319
  152MOL0     H20968   1.194   5.477  11.032  1.2568 -1.4903  3.0093
  152MOL0     H20969   1.212   5.389  10.888  0.7852  0.7144 -0.3700
  152MOL0     H20970   1.249   5.185  11.025  0.2680  1.1683 -0.5689
  152MOL0     H20971   1.086   5.255  11.048 -0.4775 -1.5369  1.9856
  152MOL0     H20972   1.200   5.243  11.437  0.2404 -0.2308 -0.1669
  152MOL0     H20973   1.663   5.543  10.903 -0.8643 -1.6224  1.3836
  152MOL0     H20974   1.796   5.778  11.015 -1.5373 -1.7421 -0.1985
  152MOL0     H20975   1.848   5.639  10.934  0.3877  0.7925 -1.4649
  152MOL0     H20976   1.885   5.780  10.849  2.5304 -4.4933 -1.5570
  153MOL0     O20977   2.495   1.317   3.202 -0.1594 -0.5042  0.1392
  153MOL0     C20978   2.582   1.344   3.121 -0.3880 -0.6512 -0.4485
  153MOL0     O20979   2.708   1.291   3.125 -0.2875  0.2234  0.1939
  153MOL0     C20980   2.727   1.165   3.186  0.1981 -0.0138  0.9061
  153MOL0     C20981   2.694   1.149   3.322 -0.0889 -0.0103  0.6218
  153MOL0     C20982   2.723   1.039   3.398 -0.3959 -0.3047 -0.5275
  153MOL0     C20983   2.803   0.943   3.337  0.4285 -0.3982  0.2243
  153MOL0     O20984   2.847   0.832   3.398  0.5732 -0.3442  0.3198
  153MOL0     C20985   2.901   0.838   3.534  0.1151 -0.2450 -0.0479
  153MOL0     C20986   2.856   0.716   3.620 -0.1133 -0.2645  0.5083
  153MOL0     C20987   2.707   0.683   3.612  0.0131  0.9036 -0.4058
  153MOL0     C20988   2.663   0.593   3.736  0.0432 -0.2726  0.0827
  153MOL0     C20989   2.512   0.598   3.759 -0.6182  0.1286 -0.7674
  153MOL0     C20990   2.447   0.473   3.826 -0.3328 -0.4128  0.0898
  153MOL0     C20991   2.315   0.505   3.882 -0.6157 -0.0965 -0.5843
  153MOL0     C20992   2.227   0.566   3.770  0.7177  0.9923  0.1034
  153MOL0     N20993   2.095   0.591   3.843 -0.1886 -0.1823 -0.8808
  153MOL0     C20994   2.054   0.713   3.891  0.4627  0.0827 -0.6456
  153MOL0     C20995   1.921   0.690   3.928  0.1617 -0.9529  0.0399
  153MOL0     C20996   1.818   0.787   3.985  0.1164  1.2867  0.2551
  153MOL0     C20997   1.747   0.856   3.866  0.4169 -0.6379  0.8957
  153MOL0     C20998   1.841   0.964   3.798  0.5818  0.2084 -0.7624
  153MOL0     C20999   1.769   1.025   3.682 -0.6379  0.3194  0.4527
  153MOL0     O21000   1.847   1.122   3.606  0.0672 -0.5093 -0.4875
  153MOL0     C21001   1.880   1.240   3.674  1.0899 -0.7382  0.4169
  153MOL0     C21002   1.778   1.335   3.709 -0.2258  0.4174 -0.1630
  153MOL0     C21003   1.820   1.454   3.773 -0.4290 -0.1487 -0.5238
  153MOL0     C21004   1.700   1.543   3.808 -0.4351  0.6338 -0.0766
  153MOL0     C21005   1.957   1.488   3.797  0.1315  0.0587  0.5849
  153MOL0     C21006   1.987   1.616   3.875 -0.5486  1.0988 -0.1163
  153MOL0     O21007   2.123   1.639   3.870 -0.5107 -0.4434  0.0297
  153MOL0     C21008   2.169   1.730   3.961 -0.9546  0.3253 -1.1839
  153MOL0     C21009   2.140   1.709   4.099 -0.2960  0.3158 -0.3886
  153MOL0     C21010   2.202   1.800   4.189  0.3293  0.2379 -0.1124
  153MOL0     C21011   2.298   1.900   4.159  0.1148  0.4677  0.2480
  153MOL0     O21012   2.342   1.993   4.253 -0.1435 -0.8631  0.1806
  153MOL0     C21013   2.455   2.072   4.231 -0.0278 -0.1147 -0.4835
  153MOL0     C21014   2.497   2.139   4.366 -0.7553 -0.0699  0.3001
  153MOL0     C21015   2.625   2.217   4.369  0.4411  0.4014  1.0830
  153MOL0     C21016   2.619   2.336   4.278 -0.8465  0.3807 -0.1737
  153MOL0     C21017   2.722   2.437   4.325 -0.2266  0.4871 -0.8544
  153MOL0     C21018   2.868   2.390   4.280  0.3810 -0.8860 -0.8137
  153MOL0     C21019   2.972   2.493   4.263  0.5903  0.0620 -0.0276
  153MOL0     C21020   2.931   2.593   4.155 -0.5641  0.3369  0.6167
  153MOL0    Cl21021   2.973   2.531   3.986  0.0738 -0.1329 -0.0288
  153MOL0     C21022   2.322   1.916   4.019 -0.4585 -0.8791 -0.6416
  153MOL0     C21023   2.253   1.837   3.926  0.4679 -0.4714 -0.3237
  153MOL0     O21024   1.904   1.687   3.920  0.0735  0.2332 -0.2350
  153MOL0     C21025   2.051   1.396   3.746  0.2580  0.7679  0.7509
  153MOL0     C21026   2.008   1.273   3.699  0.2024 -0.4379 -0.3934
  153MOL0     N21027   1.892   0.554   3.912  0.1302  2.0913 -0.0427
  153MOL0     N21028   1.996   0.495   3.861  0.0717 -0.3376  0.0502
  153MOL0     C21029   2.843   0.955   3.198  0.0492  0.4388  0.1322
  153MOL0     C21030   2.793   1.058   3.120 -0.3871  0.8075 -0.4043
  153MOL0     C21031   2.566   1.438   3.010 -0.4381 -0.1283  0.1213
  153MOL0     C21032   2.664   1.445   2.912 -0.3753  0.4387  0.3913
  153MOL0     C21033   2.668   1.546   2.818 -0.1635  0.2616  0.2516
  153MOL0     C21034   2.547   1.608   2.783 -0.1454 -0.1908  0.0864
  153MOL0     O21035   2.544   1.667   2.662 -0.2010  1.1522  0.0746
  153MOL0     C21036   2.424   1.644   2.595  1.1042 -0.3841 -0.3929
  153MOL0     C21037   2.455   1.615   2.450  0.0802  0.5622  0.5289
  153MOL0     C21038   2.516   1.472   2.421  0.7482  0.0836 -0.0403
  153MOL0     C21039   2.597   1.473   2.294 -0.3804 -0.5370  0.4950
  153MOL0     C21040   2.532   1.502   2.164  0.3186  0.3204  0.1844
  153MOL0     C21041   2.503   1.548   2.056 -0.7054 -0.2051 -0.4705
  153MOL0     C21042   2.439   1.604   2.878 -0.3264  0.6385 -0.9875
  153MOL0     C21043   2.447   1.521   2.988 -0.5779  0.7515  0.3590
  153MOL0     C21044   2.333   1.528   3.089 -0.3961 -0.1149  0.3130
  153MOL0     H21045   2.643   1.231   3.372 -2.0673 -0.6931 -0.1985
  153MOL0     H21046   2.692   1.038   3.502  3.0788 -0.1330  0.6261
  153MOL0     H21047   2.877   0.937   3.574  0.2123 -0.0818 -0.3919
  153MOL0     H21048   3.008   0.820   3.521 -0.6922 -3.9478 -3.6421
  153MOL0     H21049   2.918   0.636   3.579 -1.9637 -0.3156 -2.4793
  153MOL0     H21050   2.869   0.748   3.724 -1.8972  0.2990  0.6065
  153MOL0     H21051   2.654   0.778   3.617 -0.3269  0.6705  1.1592
  153MOL0     H21052   2.682   0.635   3.517 -0.7065  0.6654 -0.1043
  153MOL0     H21053   2.702   0.491   3.723 -0.5041 -0.6153  1.0871
  153MOL0     H21054   2.717   0.629   3.824  1.0592  0.9341 -0.9925
  153MOL0     H21055   2.458   0.630   3.670 -1.1195  0.6551 -0.2841
  153MOL0     H21056   2.497   0.681   3.829 -1.9330 -3.4127  3.6767
  153MOL0     H21057   2.428   0.394   3.754 -1.2026  2.4156 -3.0661
  153MOL0     H21058   2.513   0.427   3.900  1.8482  1.8433 -0.2980
  153MOL0     H21059   2.328   0.584   3.957 -0.4355  0.8552 -1.5893
  153MOL0     H21060   2.261   0.422   3.929 -1.6268  0.9078  0.0664
  153MOL0     H21061   2.262   0.665   3.740 -2.2680  2.3327  0.6453
  153MOL0     H21062   2.203   0.497   3.689 -5.2466  0.7312  1.6200
  153MOL0     H21063   2.116   0.802   3.889 -0.8606  1.0371 -0.9176
  153MOL0     H21064   1.873   0.862   4.043  2.9267 -0.8690  0.6167
  153MOL0     H21065   1.742   0.743   4.051  1.5057 -1.1134  0.3850
  153MOL0     H21066   1.707   0.781   3.797  3.7286 -1.4328 -0.3283
  153MOL0     H21067   1.659   0.913   3.898  0.2643  0.6654 -1.5904
  153MOL0     H21068   1.871   1.034   3.876 -0.9739 -1.5821  1.5451
  153MOL0     H21069   1.931   0.918   3.754  0.5160  1.7411 -2.6892
  153MOL0     H21070   1.732   0.953   3.609 -2.7945  3.0512 -1.3268
  153MOL0     H21071   1.683   1.080   3.719  0.5781  3.6741 -1.2928
  153MOL0     H21072   1.674   1.303   3.702 -1.3301  3.6985 -0.5927
  153MOL0     H21073   1.684   1.549   3.916  1.8925 -3.5545  0.7490
  153MOL0     H21074   1.615   1.517   3.744 -0.7134  2.3846 -0.4561
  153MOL0     H21075   1.728   1.646   3.784  0.7607  0.3565  0.0333
  153MOL0     H21076   2.079   1.626   4.133 -0.0875  0.7206  1.0003
  153MOL0     H21077   2.186   1.794   4.296  0.8400 -1.4342 -0.1113
  153MOL0     H21078   2.540   2.013   4.197  1.2894  1.0095  0.7171
  153MOL0     H21079   2.425   2.144   4.154 -0.9630 -1.6281 -1.5824
  153MOL0     H21080   2.422   2.205   4.411 -1.9431 -1.7928  0.9591
  153MOL0     H21081   2.517   2.063   4.442 -0.7918 -2.4626 -1.9479
  153MOL0     H21082   2.706   2.145   4.354  2.0158  2.0685  1.1731
  153MOL0     H21083   2.641   2.252   4.471 -0.5360  0.5993  1.1806
  153MOL0     H21084   2.524   2.390   4.287 -0.6538  1.8335 -4.4583
  153MOL0     H21085   2.637   2.301   4.176 -2.3213  1.5196 -0.8700
  153MOL0     H21086   2.680   2.530   4.288 -3.5322  0.1465  1.5399
  153MOL0     H21087   2.720   2.458   4.433  1.5179  0.5535 -0.8110
  153MOL0     H21088   2.852   2.343   4.183 -0.3704 -0.9180 -0.6874
  153MOL0     H21089   2.899   2.314   4.352 -0.1393  0.2644  0.6930
  153MOL0     H21090   3.070   2.453   4.238  0.5394 -0.0901  0.0155
  153MOL0     H21091   2.981   2.548   4.357 -1.1258  0.1874  0.1004
  153MOL0     H21092   3.002   2.673   4.176  1.5386 -1.8227  2.3294
  153MOL0     H21093   2.827   2.625   4.151 -0.0223  2.1858 -2.5129
  153MOL0     H21094   2.386   1.998   3.987 -0.6943 -0.5679 -0.3235
  153MOL0     H21095   2.284   1.862   3.825  1.7148  1.2339  0.4325
  153MOL0     H21096   2.158   1.410   3.744 -0.0936  4.1370  0.0497
  153MOL0     H21097   2.082   1.204   3.659  1.9623  2.3833 -2.4206
  153MOL0     H21098   2.914   0.885   3.158 -0.1120  0.5448 -0.3451
  153MOL0     H21099   2.822   1.073   3.017  2.5876 -0.5722  0.1485
  153MOL0     H21100   2.750   1.381   2.926 -2.3607 -2.4969 -0.0280
  153MOL0     H21101   2.755   1.549   2.752 -1.2968 -0.3123 -1.3391
  153MOL0     H21102   2.365   1.559   2.629 -0.7992  1.5958  1.6360
  153MOL0     H21103   2.362   1.734   2.604  0.3055 -0.9914  0.2827
  153MOL0     H21104   2.520   1.699   2.426  0.6792  1.4451  4.4886
  153MOL0     H21105   2.355   1.626   2.406 -0.1085  1.5009  1.1650
  153MOL0     H21106   2.574   1.446   2.510  0.4552  2.2009  0.8181
  153MOL0     H21107   2.432   1.401   2.417 -0.4866  1.5184 -0.4427
  153MOL0     H21108   2.646   1.376   2.284 -2.1691 -1.3462 -0.9543
  153MOL0     H21109   2.680   1.544   2.304 -0.2159 -0.7647  0.7591
  153MOL0     H21110   2.475   1.586   1.959  0.7908 -0.3399 -0.9831
  153MOL0     H21111   2.352   1.665   2.855 -2.6797 -1.7211  0.9147
  153MOL0     H21112   2.260   1.601   3.054  0.8908  1.2010  0.2917
  153MOL0     H21113   2.290   1.427   3.089  0.0104 -0.2931  0.2749
  153MOL0     H21114   2.370   1.557   3.188 -2.9440 -1.0169  1.6039
  154MOL0     O21115   3.753   7.273   9.678  0.2031  0.8350  0.5838
  154MOL0     C21116   3.809   7.325   9.778  0.4001  0.4658 -0.8506
  154MOL0     O21117   3.749   7.419   9.859 -0.2459 -0.7126  0.8112
  154MOL0     C21118   3.623   7.462   9.825 -0.1365 -0.4390 -0.4212
  154MOL0     C21119   3.514   7.379   9.809  0.8282  0.0887 -1.5652
  154MOL0     C21120   3.391   7.447   9.778  0.5235 -0.5203  0.3882
  154MOL0     C21121   3.382   7.583   9.742 -0.3186  0.9809 -0.4283
  154MOL0     O21122   3.267   7.651   9.695 -0.1964 -0.2222  0.1988
  154MOL0     C21123   3.144   7.581   9.672 -0.2217 -0.1585 -0.3501
  154MOL0     C21124   3.059   7.664   9.580 -0.3185  0.3962  0.7964
  154MOL0     C21125   2.952   7.578   9.507  0.5198 -0.7063 -0.2441
  154MOL0     C21126   2.879   7.684   9.413  0.3309 -0.5176  0.2956
  154MOL0     C21127   2.947   7.697   9.273  0.1048 -1.4914  0.1341
  154MOL0     C21128   2.892   7.821   9.199 -0.3051 -0.0490 -1.0976
  154MOL0     C21129   2.910   7.796   9.045 -0.7911 -0.2206 -0.4115
  154MOL0     C21130   2.821   7.680   8.993  0.7596  0.0945 -0.6005
  154MOL0     N21131   2.783   7.681   8.855 -0.0460 -0.6463  0.4928
  154MOL0     C21132   2.705   7.791   8.802 -0.0384  1.3191  0.7919
  154MOL0     C21133   2.675   7.745   8.678  0.7723  0.7588  0.2822
  154MOL0     C21134   2.598   7.814   8.564 -0.6491  1.2150 -0.3561
  154MOL0     C21135   2.528   7.715   8.462  0.3803 -0.8729 -0.2783
  154MOL0     C21136   2.465   7.803   8.354  0.0224 -0.1193  0.5855
  154MOL0     C21137   2.416   7.717   8.247 -1.1030 -0.5442  0.3935
  154MOL0     O21138   2.358   7.792   8.138 -0.4267 -0.2294  0.4327
  154MOL0     C21139   2.366   7.745   8.013 -0.0608 -0.1013 -1.1757
  154MOL0     C21140   2.374   7.611   7.988 -1.1671  0.5723 -0.1635
  154MOL0     C21141   2.390   7.552   7.865  0.1990  0.2692  0.2411
  154MOL0     C21142   2.393   7.409   7.865 -0.5960  0.0896 -0.8489
  154MOL0     C21143   2.393   7.640   7.750 -0.2816  0.4301 -0.5650
  154MOL0     C21144   2.430   7.592   7.608  0.2717  0.0424 -0.5966
  154MOL0     O21145   2.430   7.691   7.514 -0.1408 -0.3700 -0.4534
  154MOL0     C21146   2.528   7.672   7.422  0.2492  0.6635  0.7711
  154MOL0     C21147   2.658   7.653   7.454 -0.4051  0.1756 -0.3441
  154MOL0     C21148   2.755   7.641   7.357 -0.6109 -0.1889 -0.7590
  154MOL0     C21149   2.723   7.641   7.221 -0.3788 -1.2272 -0.3324
  154MOL0     O21150   2.812   7.645   7.115 -0.2582  0.5893  0.1833
  154MOL0     C21151   2.951   7.674   7.136 -0.7236 -0.2557 -0.3136
  154MOL0     C21152   3.042   7.559   7.103 -0.0275 -0.4311 -0.3178
  154MOL0     C21153   3.069   7.465   7.223  0.1095  1.0292 -0.5060
  154MOL0     C21154   3.199   7.385   7.205 -0.1908  0.4940 -1.0226
  154MOL0     C21155   3.226   7.269   7.304 -0.1611 -0.9163 -0.2956
  154MOL0     C21156   3.317   7.164   7.244  0.0577 -0.4591  0.5544
  154MOL0     C21157   3.324   7.040   7.344 -0.1069  0.5143  0.0965
  154MOL0     C21158   3.456   6.969   7.304  0.1506  0.1228 -1.8080
  154MOL0    Cl21159   3.430   6.883   7.155  0.2394  0.2103  0.4888
  154MOL0     C21160   2.588   7.653   7.190 -0.1321  0.5192  0.6224
  154MOL0     C21161   2.495   7.660   7.285  0.5024 -0.3464 -0.4417
  154MOL0     O21162   2.450   7.475   7.585 -0.3507  0.3668 -0.2362
  154MOL0     C21163   2.391   7.778   7.771  0.2549 -0.6166  0.0601
  154MOL0     C21164   2.368   7.831   7.905  0.4254 -0.2679  0.0432
  154MOL0     N21165   2.747   7.627   8.654 -0.3134 -0.3485  0.0347
  154MOL0     N21166   2.820   7.592   8.760  0.0842  0.1799  0.1130
  154MOL0     C21167   3.495   7.655   9.762  0.2670  0.5121 -0.8875
  154MOL0     C21168   3.607   7.599   9.813 -0.3592  0.7689  0.7026
  154MOL0     C21169   3.934   7.276   9.834  0.1611 -0.2142 -0.1330
  154MOL0     C21170   3.948   7.266   9.975  0.3539 -0.0958  0.5274
  154MOL0     C21171   4.054   7.206  10.033 -0.6612 -0.9242  0.5818
  154MOL0     C21172   4.150   7.140   9.958 -0.4627 -0.5869 -0.4929
  154MOL0     O21173   4.254   7.066  10.023  0.4088 -0.0653 -0.3682
  154MOL0     C21174   4.302   6.943   9.974  0.2256 -0.3868  0.1920
  154MOL0     C21175   4.191   6.839   9.992  0.3595 -0.0750  0.1425
  154MOL0     C21176   4.133   6.829  10.136 -0.2057  0.8381  0.2039
  154MOL0     C21177   4.236   6.801  10.251  0.1498  0.5249  0.4723
  154MOL0     C21178   4.336   6.695  10.215  0.8183 -0.1571 -0.4568
  154MOL0     C21179   4.405   6.604  10.208  0.0654  1.0933  0.9124
  154MOL0     C21180   4.142   7.144   9.819  0.2580  0.0413  0.4102
  154MOL0     C21181   4.038   7.211   9.755  0.1151  0.3212  0.1850
  154MOL0     C21182   4.049   7.201   9.600  0.4892  0.9015 -0.3079
  154MOL0     H21183   3.517   7.276   9.842 -1.2570  0.9916  2.0494
  154MOL0     H21184   3.299   7.392   9.790  0.7748 -0.8761  0.7332
  154MOL0     H21185   3.094   7.573   9.769 -0.3165  4.2750  0.1505
  154MOL0     H21186   3.155   7.478   9.637 -1.2436 -0.2134 -0.5563
  154MOL0     H21187   3.007   7.740   9.638  1.3263  1.9680  0.3207
  154MOL0     H21188   3.127   7.708   9.506  1.7363 -3.4738  0.0613
  154MOL0     H21189   3.012   7.508   9.448 -0.6254 -1.3981 -0.6239
  154MOL0     H21190   2.874   7.536   9.571 -0.4075  0.8468 -0.2773
  154MOL0     H21191   2.776   7.654   9.393  0.6767 -1.5675  0.0178
  154MOL0     H21192   2.882   7.782   9.461  2.5147 -1.4429  2.2562
  154MOL0     H21193   2.916   7.609   9.216  0.9185 -0.6387 -1.7132
  154MOL0     H21194   3.056   7.696   9.285  0.3310  2.6352 -0.0790
  154MOL0     H21195   2.786   7.834   9.223  0.1133 -0.9931  1.5750
  154MOL0     H21196   2.956   7.900   9.240 -0.2017 -0.0508 -1.2532
  154MOL0     H21197   3.012   7.761   9.027 -1.2947 -1.9762 -0.0910
  154MOL0     H21198   2.895   7.894   8.998 -1.1622 -0.8234 -1.5790
  154MOL0     H21199   2.862   7.580   9.008 -0.4071 -0.5462 -1.4406
  154MOL0     H21200   2.726   7.688   9.047 -1.7426  1.1956 -4.7007
  154MOL0     H21201   2.679   7.887   8.845  2.0928  1.2294  2.4436
  154MOL0     H21202   2.674   7.865   8.506  0.9141 -0.1091  0.4468
  154MOL0     H21203   2.522   7.872   8.617 -1.7621 -2.3444  2.3559
  154MOL0     H21204   2.606   7.651   8.420  0.1959 -0.8060 -0.7331
  154MOL0     H21205   2.454   7.659   8.520  0.5650  0.7489  1.6271
  154MOL0     H21206   2.381   7.861   8.393  0.1194  1.3426 -1.2322
  154MOL0     H21207   2.540   7.872   8.316 -1.6935  1.5766  0.1172
  154MOL0     H21208   2.506   7.666   8.212  0.4495 -0.3538  3.7539
  154MOL0     H21209   2.348   7.637   8.275 -1.1036 -0.8112 -0.3376
  154MOL0     H21210   2.390   7.540   8.069 -2.0424 -1.1577 -1.4445
  154MOL0     H21211   2.341   7.354   7.786  1.2826  0.2475 -2.2661
  154MOL0     H21212   2.342   7.376   7.956  2.3470 -0.9193  0.5470
  154MOL0     H21213   2.496   7.373   7.874 -1.4267 -2.0882  0.9326
  154MOL0     H21214   2.687   7.647   7.559  0.1491  1.8814 -0.3778
  154MOL0     H21215   2.860   7.641   7.387 -0.6259 -0.2493 -0.7068
  154MOL0     H21216   2.998   7.751   7.075  2.6877 -1.1517  0.9753
  154MOL0     H21217   2.977   7.705   7.238  0.8287 -3.6479  0.4795
  154MOL0     H21218   3.002   7.510   7.014 -0.5953 -0.7855  0.1202
  154MOL0     H21219   3.136   7.589   7.057  0.6888 -3.0197 -0.6788
  154MOL0     H21220   2.995   7.385   7.232  1.8622 -0.4522  4.0275
  154MOL0     H21221   3.091   7.525   7.313  1.9327  1.7467 -1.3726
  154MOL0     H21222   3.277   7.460   7.218 -1.6111  2.0265 -1.0769
  154MOL0     H21223   3.200   7.340   7.105 -0.5155  0.1614 -0.8799
  154MOL0     H21224   3.272   7.305   7.397 -1.2651 -0.9452  0.2731
  154MOL0     H21225   3.131   7.223   7.333 -0.5077 -0.8285 -1.2746
  154MOL0     H21226   3.412   7.208   7.212 -0.4393 -0.0979 -0.4492
  154MOL0     H21227   3.272   7.133   7.150  0.9256  1.4231 -0.5314
  154MOL0     H21228   3.233   6.982   7.327 -0.6696  1.7087 -1.1985
  154MOL0     H21229   3.332   7.073   7.448  2.8010  1.9679 -0.4680
  154MOL0     H21230   3.476   6.886   7.373 -2.2829  1.5591  0.8452
  154MOL0     H21231   3.540   7.038   7.300  1.4195 -1.3947 -2.7439
  154MOL0     H21232   2.562   7.643   7.085 -1.9929  0.0131  1.1056
  154MOL0     H21233   2.390   7.659   7.256  0.5337  1.6229 -0.7964
  154MOL0     H21234   2.392   7.850   7.689  0.4451  1.6276  1.9391
  154MOL0     H21235   2.364   7.939   7.912  0.7088 -0.1295 -1.5846
  154MOL0     H21236   3.495   7.762   9.743  2.6181  1.3292  2.6406
  154MOL0     H21237   3.696   7.659   9.832  0.9587 -1.3272  1.5267
  154MOL0     H21238   3.874   7.308  10.042  0.1609  0.5261 -0.0708
  154MOL0     H21239   4.056   7.190  10.141 -3.1676  1.6911  1.1362
  154MOL0     H21240   4.342   6.944   9.872 -1.0355 -0.0349 -0.3161
  154MOL0     H21241   4.385   6.904  10.034  1.7232 -0.1893 -1.6644
  154MOL0     H21242   4.219   6.736   9.968 -1.1868 -0.2846 -0.8568
  154MOL0     H21243   4.111   6.864   9.922 -0.3519  2.2300  1.6614
  154MOL0     H21244   4.084   6.922  10.167  0.1667  1.0554  0.1423
  154MOL0     H21245   4.062   6.745  10.134  2.8690 -1.9793  0.7089
  154MOL0     H21246   4.177   6.772  10.338  0.2250  1.1713  0.7400
  154MOL0     H21247   4.294   6.892  10.264  0.7520  0.4573 -1.3907
  154MOL0     H21248   4.476   6.524  10.199  0.7950  1.6714  1.4321
  154MOL0     H21249   4.221   7.097   9.761  1.9344  2.6299  0.4134
  154MOL0     H21250   4.143   7.214   9.545 -1.3089  0.5598 -3.6958
  154MOL0     H21251   4.004   7.112   9.554 -1.3435  1.7067 -0.1716
  154MOL0     H21252   3.990   7.285   9.563  0.7194  0.7291 -1.0767
  155MOL0     O21253   0.509   7.037   4.166  0.3757  0.2511  0.3826
  155MOL0     C21254   0.624   7.030   4.199 -0.7579 -0.3863  0.0596
  155MOL0     O21255   0.694   6.921   4.210  0.2196 -0.0296 -0.1977
  155MOL0     C21256   0.630   6.804   4.174  0.9484 -0.2728 -0.3415
  155MOL0     C21257   0.642   6.746   4.044 -0.1386 -0.2365  0.3189
  155MOL0     C21258   0.579   6.635   3.996  1.4408 -0.2229  0.1821
  155MOL0     C21259   0.518   6.558   4.088 -0.4606 -0.4661 -0.7058
  155MOL0     O21260   0.477   6.438   4.037 -0.2561  0.5106  0.1379
  155MOL0     C21261   0.517   6.324   4.102  0.2772 -0.2103 -0.9091
  155MOL0     C21262   0.404   6.281   4.186  0.0053  0.0322  0.5828
  155MOL0     C21263   0.287   6.211   4.119  0.3263 -0.2764  0.2524
  155MOL0     C21264   0.177   6.180   4.223  0.0430 -0.6549  0.2449
  155MOL0     C21265   0.056   6.115   4.151  0.8370  0.1069 -0.4557
  155MOL0     C21266  -0.062   6.110   4.250  0.3111  0.7422  0.0224
  155MOL0     C21267  -0.166   6.002   4.194  0.0810  0.0966  0.0982
  155MOL0     C21268  -0.282   6.011   4.285 -0.2080 -0.5553 -1.2750
  155MOL0     N21269  -0.265   5.936   4.412 -1.0079 -0.0025  0.5119
  155MOL0     C21270  -0.298   5.976   4.534  0.0924  0.3321  0.0445
  155MOL0     C21271  -0.311   5.862   4.605  0.5840  1.2766 -0.4476
  155MOL0     C21272  -0.341   5.838   4.756 -0.4136 -0.0039  0.3302
  155MOL0     C21273  -0.492   5.794   4.776  0.2207  0.2342 -0.0647
  155MOL0     C21274  -0.517   5.726   4.914 -0.1762 -0.9462  0.6513
  155MOL0     C21275  -0.662   5.684   4.930 -0.3923 -0.3041  0.1755
  155MOL0     O21276  -0.751   5.795   4.954  0.7440  0.0767 -0.1046
  155MOL0     C21277  -0.875   5.784   5.028 -0.5403  0.7978 -0.3871
  155MOL0     C21278  -0.947   5.664   5.025 -0.3094 -0.3435  1.3131
  155MOL0     C21279  -1.075   5.650   5.081  0.2978 -0.0810 -0.1653
  155MOL0     C21280  -1.142   5.517   5.062  0.9997 -0.4235 -0.0021
  155MOL0     C21281  -1.129   5.763   5.150  0.1503  0.9688 -0.3420
  155MOL0     C21282  -1.258   5.761   5.216 -0.8005  0.3381 -0.5543
  155MOL0     O21283  -1.323   5.642   5.232  0.2224 -0.2346 -0.2161
  155MOL0     C21284  -1.445   5.640   5.293  0.2236  0.1735  0.1688
  155MOL0     C21285  -1.471   5.665   5.426  0.2247 -0.4863 -0.1144
  155MOL0     C21286  -1.603   5.656   5.482  0.1275  0.3621 -0.7980
  155MOL0     C21287  -1.709   5.621   5.404 -0.3910 -0.2803 -0.2988
  155MOL0     O21288  -1.830   5.610   5.463  0.4439  0.5595  0.4688
  155MOL0     C21289  -1.946   5.621   5.373 -0.0183  0.5091  0.9601
  155MOL0     C21290  -2.070   5.611   5.447  0.6242 -0.1003  0.0377
  155MOL0     C21291  -2.090   5.740   5.535 -0.1778  0.0040  0.1485
  155MOL0     C21292  -2.106   5.715   5.683  0.6975  0.0022  0.4367
  155MOL0     C21293  -2.172   5.836   5.758  0.7234 -0.4302 -0.1173
  155MOL0     C21294  -2.217   5.804   5.898  0.1873  0.5514 -0.1712
  155MOL0     C21295  -2.250   5.936   5.971  0.9754  1.2756 -0.5212
  155MOL0     C21296  -2.388   5.991   5.942 -0.5380 -0.1577  0.5501
  155MOL0    Cl21297  -2.527   5.883   5.928 -0.0844 -0.1540  0.6422
  155MOL0     C21298  -1.679   5.582   5.272  0.2726  0.0920  0.0933
  155MOL0     C21299  -1.551   5.589   5.221 -0.2943 -0.6034  0.4233
  155MOL0     O21300  -1.299   5.868   5.265 -0.3200  0.4661  0.0577
  155MOL0     C21301  -1.059   5.885   5.149  0.2173  0.0763  0.5233
  155MOL0     C21302  -0.932   5.892   5.088  0.3513 -0.4677 -0.0125
  155MOL0     N21303  -0.280   5.755   4.520  0.1807  0.3147  0.6330
  155MOL0     N21304  -0.251   5.804   4.406 -0.1098 -0.0746  0.6042
  155MOL0     C21305   0.516   6.592   4.226  0.5654 -0.1950  0.0658
  155MOL0     C21306   0.551   6.725   4.261 -0.5579  0.4532 -0.3729
  155MOL0     C21307   0.694   7.158   4.219  0.5926  0.3399  0.1881
  155MOL0     C21308   0.836   7.158   4.232  0.4146  0.0457 -0.6475
  155MOL0     C21309   0.905   7.276   4.230  0.0220  0.1463 -0.1825
  155MOL0     C21310   0.845   7.390   4.195  0.0417 -1.0425  0.5402
  155MOL0     O21311   0.926   7.488   4.148  0.6651  0.0758 -0.2537
  155MOL0     C21312   0.876   7.604   4.076  0.1147  0.2788 -0.5304
  155MOL0     C21313   0.973   7.717   4.053 -0.5463  0.2568 -0.0920
  155MOL0     C21314   0.911   7.857   4.038  0.3059 -0.9425 -0.0710
  155MOL0     C21315   0.810   7.855   3.916 -0.8700  0.7718 -0.4815
  155MOL0     C21316   0.757   7.986   3.910 -0.4209 -0.4503 -0.3670
  155MOL0     C21317   0.726   8.104   3.908  0.0401 -0.4341  0.1853
  155MOL0     C21318   0.704   7.397   4.186 -0.1054  0.1274  0.0343
  155MOL0     C21319   0.623   7.287   4.206  0.1687  0.1901 -0.1042
  155MOL0     C21320   0.466   7.314   4.220  0.0913  0.2092 -0.1541
  155MOL0     H21321   0.692   6.808   3.971 -1.7574 -0.6276 -1.1777
  155MOL0     H21322   0.582   6.596   3.895  0.8598  0.1694  0.0072
  155MOL0     H21323   0.599   6.338   4.174 -2.3414  0.6446  2.1549
  155MOL0     H21324   0.540   6.247   4.028 -0.4299 -2.9667  1.5440
  155MOL0     H21325   0.447   6.217   4.264  1.6240 -1.3923 -1.3772
  155MOL0     H21326   0.344   6.364   4.225 -3.9533 -0.9728 -2.6815
  155MOL0     H21327   0.250   6.276   4.040  2.8163  0.6367 -0.2526
  155MOL0     H21328   0.325   6.117   4.078 -0.7425 -0.2508 -0.8425
  155MOL0     H21329   0.228   6.121   4.299 -0.7676  1.9349  2.9983
  155MOL0     H21330   0.155   6.268   4.285  2.4727 -1.2847  2.1980
  155MOL0     H21331   0.086   6.015   4.120  3.0625  0.0995  1.4833
  155MOL0     H21332   0.030   6.177   4.064  0.9089 -0.3917 -0.8390
  155MOL0     H21333  -0.031   6.084   4.352  2.2744 -0.6342 -0.8722
  155MOL0     H21334  -0.093   6.215   4.254 -0.2996  0.6998 -2.3337
  155MOL0     H21335  -0.115   5.905   4.185 -2.0552 -1.0295 -0.7605
  155MOL0     H21336  -0.197   6.036   4.094  1.0211  0.3607 -0.1132
  155MOL0     H21337  -0.304   6.117   4.303  2.0604 -0.4166  1.1203
  155MOL0     H21338  -0.368   5.961   4.239 -0.9367 -2.3895  1.7851
  155MOL0     H21339  -0.305   6.076   4.577 -0.3161  0.0523  0.6345
  155MOL0     H21340  -0.314   5.932   4.804  1.1323  0.3015 -1.0469
  155MOL0     H21341  -0.262   5.767   4.780  0.2896 -1.1630 -4.4775
  155MOL0     H21342  -0.551   5.882   4.750 -1.4228 -0.1876  1.9136
  155MOL0     H21343  -0.505   5.716   4.700  2.1830  0.7062 -0.9377
  155MOL0     H21344  -0.459   5.633   4.920  2.2770  0.5424  1.2376
  155MOL0     H21345  -0.481   5.794   4.991 -0.9289 -2.0631  2.0464
  155MOL0     H21346  -0.685   5.648   4.829  2.2987  1.1348 -1.0626
  155MOL0     H21347  -0.681   5.615   5.013 -1.7642 -3.2289 -2.3366
  155MOL0     H21348  -0.916   5.583   4.960  1.9039 -0.1530  2.0720
  155MOL0     H21349  -1.241   5.527   5.016  0.8186  2.8403  0.8273
  155MOL0     H21350  -1.158   5.463   5.155 -0.5754 -0.4594 -0.2538
  155MOL0     H21351  -1.083   5.455   4.993  2.6068 -1.6785  2.3803
  155MOL0     H21352  -1.388   5.696   5.489  0.2312 -1.5329  0.4103
  155MOL0     H21353  -1.624   5.661   5.589  0.9122 -0.7127 -0.5827
  155MOL0     H21354  -1.947   5.721   5.329  0.8060  0.6336  1.2026
  155MOL0     H21355  -1.954   5.542   5.297  0.4623  0.6003  0.8110
  155MOL0     H21356  -2.155   5.577   5.387  1.3001 -3.6018  0.8057
  155MOL0     H21357  -2.059   5.528   5.518 -1.8145  1.0307  1.8971
  155MOL0     H21358  -2.185   5.785   5.503  0.9125  3.1602  0.9973
  155MOL0     H21359  -2.018   5.820   5.515  0.2459  0.0049  1.5871
  155MOL0     H21360  -2.006   5.689   5.719  1.4608 -0.1323 -1.6645
  155MOL0     H21361  -2.164   5.623   5.695 -1.0450  0.7977 -1.3722
  155MOL0     H21362  -2.098   5.916   5.755 -0.3493  0.6618 -3.8628
  155MOL0     H21363  -2.253   5.875   5.696  2.2773  1.6052 -0.9789
  155MOL0     H21364  -2.140   5.743   5.948 -0.5690 -2.7212 -2.6560
  155MOL0     H21365  -2.306   5.742   5.890  0.9428 -0.5382 -0.4342
  155MOL0     H21366  -2.178   6.014   5.948 -1.7274  3.7171 -1.1927
  155MOL0     H21367  -2.267   5.921   6.078 -0.0715  1.7196 -0.6201
  155MOL0     H21368  -2.379   6.049   5.849 -1.7747 -0.6928  0.0748
  155MOL0     H21369  -2.413   6.065   6.019  1.9440  1.8366 -0.4178
  155MOL0     H21370  -1.749   5.548   5.196 -2.0214  1.5889  1.3957
  155MOL0     H21371  -1.543   5.562   5.116 -2.2894 -3.3399  0.8771
  155MOL0     H21372  -1.072   5.975   5.207 -0.1669  0.5787 -0.3240
  155MOL0     H21373  -0.874   5.984   5.081 -1.3010  0.4880 -2.4170
  155MOL0     H21374   0.479   6.514   4.291  0.8898  1.6612  2.6125
  155MOL0     H21375   0.521   6.767   4.356  3.5536  1.3366  0.7279
  155MOL0     H21376   0.889   7.065   4.245 -1.8003 -0.8693  3.6631
  155MOL0     H21377   1.013   7.278   4.225  0.0560 -2.2706 -1.3870
  155MOL0     H21378   0.826   7.579   3.983 -2.3189  0.3851  0.6669
  155MOL0     H21379   0.800   7.642   4.145 -0.3587 -3.4605  1.2686
  155MOL0     H21380   1.035   7.689   3.968  0.3907  2.4230 -0.1902
  155MOL0     H21381   1.055   7.717   4.126  2.0248  1.4275 -2.7917
  155MOL0     H21382   0.853   7.871   4.129  2.4991  0.6239  1.1948
  155MOL0     H21383   0.989   7.933   4.038  0.8982 -1.5301 -0.8503
  155MOL0     H21384   0.731   7.781   3.928 -1.8044  2.0163  1.4111
  155MOL0     H21385   0.868   7.820   3.830 -1.2238 -1.7297  0.2185
  155MOL0     H21386   0.701   8.208   3.897  2.0766 -0.0078 -1.1374
  155MOL0     H21387   0.661   7.496   4.180  4.3090  2.1338 -2.7714
  155MOL0     H21388   0.415   7.247   4.151  2.2324 -2.5266  0.6775
  155MOL0     H21389   0.430   7.286   4.319 -2.0346 -0.2056 -1.0039
  155MOL0     H21390   0.439   7.419   4.211 -3.5149 -0.3938  1.7627
  156MOL0     O21391   8.329   8.959   5.919  0.4373 -0.2116 -0.4947
  156MOL0     C21392   8.351   9.025   6.019  0.2754 -0.0090 -0.4587
  156MOL0     O21393   8.257   9.076   6.107  0.1428 -0.1336 -0.6013
  156MOL0     C21394   8.126   9.077   6.068  0.7125  0.7381 -0.2163
  156MOL0     C21395   8.071   9.068   5.938 -0.7753 -0.0640 -0.1122
  156MOL0     C21396   7.931   9.050   5.929 -0.5061 -0.3938 -0.3568
  156MOL0     C21397   7.846   9.057   6.041 -0.4153 -0.4254  0.2597
  156MOL0     O21398   7.711   9.045   6.016 -0.4818  0.1163 -0.1116
  156MOL0     C21399   7.666   8.932   5.942  0.1235  0.1009  0.3795
  156MOL0     C21400   7.639   8.806   6.038  0.1543  1.0108 -0.3996
  156MOL0     C21401   7.747   8.762   6.137  0.3228  1.2352  0.3360
  156MOL0     C21402   7.877   8.730   6.064  0.7287 -1.0154 -0.1095
  156MOL0     C21403   7.977   8.646   6.152 -0.9645  0.3469  0.2280
  156MOL0     C21404   8.108   8.628   6.086 -0.0059  0.0625 -0.0270
  156MOL0     C21405   8.211   8.565   6.186  0.1346  0.6188  0.1241
  156MOL0     C21406   8.310   8.664   6.245 -0.4361  0.4088 -0.3651
  156MOL0     N21407   8.270   8.767   6.335  0.5141 -0.4302  0.4579
  156MOL0     C21408   8.195   8.746   6.445 -0.1033 -0.5748 -0.3351
  156MOL0     C21409   8.183   8.863   6.503  0.5195 -0.1397 -0.8223
  156MOL0     C21410   8.107   8.887   6.632 -0.3918  0.1592 -0.2669
  156MOL0     C21411   8.196   8.983   6.727  0.1238  0.5065 -0.3602
  156MOL0     C21412   8.130   9.005   6.870 -0.2754 -0.1670 -0.3173
  156MOL0     C21413   8.017   8.904   6.912 -0.5946  0.6457 -0.3756
  156MOL0     O21414   8.086   8.783   6.927  0.1371  0.7588  0.0654
  156MOL0     C21415   8.072   8.700   7.035  0.5367 -0.0013  0.6855
  156MOL0     C21416   8.169   8.613   7.075  0.0610  0.7072 -0.1915
  156MOL0     C21417   8.158   8.518   7.185  0.0531  0.9309 -0.5367
  156MOL0     C21418   8.273   8.426   7.234 -0.4790 -1.1223  0.2628
  156MOL0     C21419   8.031   8.510   7.258 -0.2334 -0.6915 -0.1743
  156MOL0     C21420   8.000   8.417   7.371  0.3893  0.3578 -0.1926
  156MOL0     O21421   7.924   8.469   7.471 -0.6135 -0.6925  0.2520
  156MOL0     C21422   7.877   8.381   7.563  0.0181  0.2595  0.4226
  156MOL0     C21423   7.945   8.345   7.676  0.1153  0.3109 -0.6218
  156MOL0     C21424   7.896   8.244   7.762 -1.1492  0.4549 -0.3041
  156MOL0     C21425   7.772   8.185   7.737 -0.4939 -0.1499 -0.3993
  156MOL0     O21426   7.725   8.093   7.837  0.2834  0.1935  0.6711
  156MOL0     C21427   7.812   8.003   7.898 -0.5984  0.4252  0.0667
  156MOL0     C21428   7.730   7.883   7.937  0.5370 -1.1070  0.4826
  156MOL0     C21429   7.791   7.816   8.061 -0.3397  0.3383  0.3263
  156MOL0     C21430   7.699   7.694   8.109 -0.4894  0.1647 -0.4683
  156MOL0     C21431   7.674   7.724   8.259 -0.1321 -1.2724  0.3319
  156MOL0     C21432   7.565   7.630   8.308 -0.5154 -0.1318  0.3616
  156MOL0     C21433   7.516   7.660   8.449 -0.5856 -0.8353  0.3831
  156MOL0     C21434   7.410   7.564   8.504  0.9996  0.8808  0.4764
  156MOL0    Cl21435   7.451   7.392   8.522 -0.0099  0.0957  0.2031
  156MOL0     C21436   7.691   8.233   7.632 -0.0909  0.4833 -0.5420
  156MOL0     C21437   7.748   8.325   7.540  0.2260 -0.2831  0.1160
  156MOL0     O21438   8.041   8.306   7.373 -0.3320  0.5261  0.2153
  156MOL0     C21439   7.949   8.610   7.224 -0.5056  0.1243  0.5340
  156MOL0     C21440   7.957   8.696   7.115  0.4651 -0.0003 -0.2839
  156MOL0     N21441   8.254   8.955   6.422  0.4674 -0.7530 -0.1877
  156MOL0     N21442   8.305   8.895   6.323  0.4822  0.0720  0.4428
  156MOL0     C21443   7.901   9.072   6.161  1.0100  0.4134  0.3480
  156MOL0     C21444   8.043   9.083   6.183  0.7962  0.2528 -0.3476
  156MOL0     C21445   8.493   9.058   6.049  0.9010 -0.4939 -0.5429
  156MOL0     C21446   8.525   9.096   6.180 -0.0381  0.2512 -0.1144
  156MOL0     C21447   8.659   9.122   6.209  0.3510 -0.2378 -0.3255
  156MOL0     C21448   8.761   9.107   6.114  0.4220 -0.1117 -0.0540
  156MOL0     O21449   8.895   9.133   6.148 -1.0129  0.4729  0.4861
  156MOL0     C21450   8.951   9.062   6.261 -0.1683 -0.6742  0.3939
  156MOL0     C21451   9.054   8.968   6.207  0.7448  0.5817 -0.3373
  156MOL0     C21452   9.015   8.871   6.094  0.4790  0.3204  1.1491
  156MOL0     C21453   9.089   8.898   5.950 -0.5485  0.4328 -0.5472
  156MOL0     C21454   9.058   8.807   5.842  0.1215  0.2618  0.1836
  156MOL0     C21455   9.033   8.736   5.745  0.0760  0.0230  0.7204
  156MOL0     C21456   8.729   9.083   5.988 -0.6172 -0.4981  0.3980
  156MOL0     C21457   8.599   9.051   5.955  0.2478  0.2903  0.0313
  156MOL0     C21458   8.575   8.993   5.816 -0.1259 -0.1225  0.3409
  156MOL0     H21459   8.124   9.080   5.844 -1.8404  0.6065 -0.6556
  156MOL0     H21460   7.885   9.048   5.831  1.2160  0.5978 -1.2250
  156MOL0     H21461   7.743   8.901   5.870  1.2791  1.3207  1.0511
  156MOL0     H21462   7.581   8.964   5.880  0.7580  2.5732  0.6638
  156MOL0     H21463   7.553   8.841   6.094  0.7234  0.9006  0.5599
  156MOL0     H21464   7.612   8.723   5.972  3.1273 -0.6255  0.2231
  156MOL0     H21465   7.762   8.845   6.207 -1.2406  1.6418  0.2287
  156MOL0     H21466   7.711   8.675   6.193  1.4114  0.4556 -0.1546
  156MOL0     H21467   7.842   8.671   5.980  1.3494 -0.3993 -0.8151
  156MOL0     H21468   7.918   8.822   6.021  1.6509 -1.2182  0.2955
  156MOL0     H21469   7.933   8.551   6.181  0.0277  0.6173  2.9337
  156MOL0     H21470   7.995   8.699   6.246  1.3545  1.1440 -0.5871
  156MOL0     H21471   8.082   8.550   6.015 -1.8232 -1.1708  1.8704
  156MOL0     H21472   8.133   8.717   6.028 -1.1348 -0.1051 -0.7925
  156MOL0     H21473   8.267   8.489   6.130  0.6766 -0.3708  1.9178
  156MOL0     H21474   8.164   8.513   6.269  1.4313  0.7291  0.9473
  156MOL0     H21475   8.391   8.607   6.292 -1.8501 -0.1385  1.5139
  156MOL0     H21476   8.360   8.713   6.161  0.1118 -0.5765 -0.6331
  156MOL0     H21477   8.156   8.654   6.487  0.8831 -1.3576 -1.1027
  156MOL0     H21478   8.100   8.789   6.680  1.6107 -0.4244 -1.0521
  156MOL0     H21479   8.010   8.933   6.614 -1.1536 -1.3146 -0.0997
  156MOL0     H21480   8.292   8.932   6.732  0.8238  1.5637 -2.3024
  156MOL0     H21481   8.197   9.085   6.687 -0.1312 -0.0003 -1.6959
  156MOL0     H21482   8.206   8.992   6.948 -1.3162 -1.4989  0.5236
  156MOL0     H21483   8.093   9.108   6.872 -2.7357 -0.8521 -3.2097
  156MOL0     H21484   7.969   8.929   7.007  1.6743 -0.9737  1.3061
  156MOL0     H21485   7.941   8.880   6.837 -1.7541 -1.1670  1.2683
  156MOL0     H21486   8.255   8.610   7.009  0.7459  1.5697  0.6317
  156MOL0     H21487   8.238   8.324   7.217 -1.4133 -1.0274  1.4799
  156MOL0     H21488   8.298   8.442   7.340  4.3618 -0.3350 -0.7746
  156MOL0     H21489   8.372   8.428   7.187 -1.3127  0.6058 -1.5469
  156MOL0     H21490   8.035   8.402   7.697 -0.1995  0.2273  1.0977
  156MOL0     H21491   7.951   8.203   7.847  0.7586  0.3970 -1.5025
  156MOL0     H21492   7.893   7.965   7.835  1.0027  2.1576  0.9594
  156MOL0     H21493   7.855   8.035   7.994 -2.3535  2.6439  0.2043
  156MOL0     H21494   7.624   7.904   7.953  0.2066 -2.2510 -0.0813
  156MOL0     H21495   7.737   7.816   7.850  4.5326  1.0852 -1.1851
  156MOL0     H21496   7.804   7.883   8.146 -1.8974 -1.5614  2.1471
  156MOL0     H21497   7.885   7.771   8.027 -0.5667  0.8310 -1.0232
  156MOL0     H21498   7.747   7.597   8.098  3.2092  1.6630  0.7226
  156MOL0     H21499   7.601   7.701   8.060  0.3009 -0.1479 -2.1441
  156MOL0     H21500   7.771   7.713   8.308  2.1226  0.4746 -3.2522
  156MOL0     H21501   7.641   7.828   8.268  1.9815  0.0189 -3.8951
  156MOL0     H21502   7.611   7.530   8.310  2.5785  1.1764 -0.2441
  156MOL0     H21503   7.482   7.638   8.238 -1.5855  1.3793  1.7176
  156MOL0     H21504   7.496   7.767   8.460  0.0142 -0.7283  0.4843
  156MOL0     H21505   7.600   7.645   8.517  0.5173  0.0166 -0.7384
  156MOL0     H21506   7.319   7.569   8.444  2.9416  2.0314 -2.5991
  156MOL0     H21507   7.387   7.597   8.606  2.2883 -0.5392  1.2725
  156MOL0     H21508   7.590   8.198   7.615 -0.4014  2.1376 -2.4458
  156MOL0     H21509   7.687   8.361   7.458 -0.6778 -0.0939  0.8547
  156MOL0     H21510   7.857   8.618   7.281 -0.8931  1.5151 -0.2331
  156MOL0     H21511   7.874   8.764   7.104 -0.7307 -1.3760 -0.1509
  156MOL0     H21512   7.834   9.063   6.246 -1.0956 -0.5713 -1.3334
  156MOL0     H21513   8.077   9.094   6.286  0.9591  2.7251 -0.6028
  156MOL0     H21514   8.453   9.096   6.261 -2.3535 -0.7514 -2.0588
  156MOL0     H21515   8.690   9.147   6.310 -0.8310  1.9160 -0.4403
  156MOL0     H21516   8.993   9.135   6.331 -0.9372 -0.0237  0.1860
  156MOL0     H21517   8.875   9.002   6.312  0.5140 -2.4877 -0.6267
  156MOL0     H21518   9.098   8.919   6.294  3.6655 -0.3596 -2.1780
  156MOL0     H21519   9.129   9.039   6.169 -0.7182  1.7661 -1.1215
  156MOL0     H21520   9.021   8.766   6.124 -4.0043 -0.3996  0.1847
  156MOL0     H21521   8.912   8.884   6.062  0.8640  0.2981 -0.1440
  156MOL0     H21522   9.198   8.906   5.965 -0.7283  3.1999 -0.2655
  156MOL0     H21523   9.061   8.996   5.910  0.2703 -0.1280 -2.5892
  156MOL0     H21524   8.997   8.671   5.667 -1.2288 -0.9800  2.1106
  156MOL0     H21525   8.803   9.062   5.912  0.8810  1.4369  1.2224
  156MOL0     H21526   8.663   9.004   5.751 -2.7080 -0.2734 -3.5619
  156MOL0     H21527   8.550   8.887   5.826  1.0011 -0.4415  0.0419
  156MOL0     H21528   8.500   9.050   5.760  2.3513  1.0880 -2.0177
  157MOL0     O21529   2.329   7.733   5.683  0.4046  0.3606  0.3117
  157MOL0     C21530   2.277   7.626   5.682  0.6273  1.7121 -0.8096
  157MOL0     O21531   2.214   7.566   5.581  0.1313 -0.0994  0.2366
  157MOL0     C21532   2.223   7.628   5.460  0.4967 -0.9328 -0.3967
  157MOL0     C21533   2.109   7.627   5.392 -0.7385 -0.4942  0.4829
  157MOL0     C21534   2.101   7.684   5.261  0.4709 -0.1226 -0.1810
  157MOL0     C21535   2.212   7.731   5.194 -0.3422 -0.0258 -0.3394
  157MOL0     O21536   2.198   7.768   5.067 -0.1034 -0.6012  0.0709
  157MOL0     C21537   2.309   7.837   4.996  0.7039  0.8525  1.1172
  157MOL0     C21538   2.251   7.842   4.852 -0.7022 -0.1462  0.5392
  157MOL0     C21539   2.349   7.903   4.743 -0.1391  1.2722  1.1637
  157MOL0     C21540   2.337   7.814   4.614  0.2145 -0.6939 -0.0460
  157MOL0     C21541   2.423   7.856   4.494  0.7303 -0.6125 -1.3394
  157MOL0     C21542   2.575   7.844   4.526 -0.1734 -0.5234 -1.2117
  157MOL0     C21543   2.613   7.689   4.548 -0.7468  0.5057 -0.4591
  157MOL0     C21544   2.758   7.654   4.523  1.1326 -0.0176  0.6817
  157MOL0     N21545   2.786   7.524   4.584  0.6775 -0.0987 -0.0474
  157MOL0     C21546   2.845   7.502   4.700  0.0463 -0.7967 -0.0825
  157MOL0     C21547   2.838   7.373   4.727 -0.2149  0.3301 -0.1299
  157MOL0     C21548   2.876   7.316   4.867 -0.0088 -0.1838 -1.1453
  157MOL0     C21549   2.952   7.181   4.850  0.5626 -0.1430 -0.0005
  157MOL0     C21550   3.097   7.217   4.816 -0.1891  0.8689  1.2828
  157MOL0     C21551   3.199   7.103   4.831  0.5648  0.2180 -0.7749
  157MOL0     O21552   3.217   7.086   4.981  0.1037 -0.4420  0.2087
  157MOL0     C21553   3.313   6.995   5.016  0.4420 -0.7250 -0.7732
  157MOL0     C21554   3.371   6.903   4.929 -0.6195 -0.7563 -0.7216
  157MOL0     C21555   3.481   6.823   4.964  0.0745 -0.5206  0.5214
  157MOL0     C21556   3.547   6.747   4.850  0.0698 -0.3523  0.3308
  157MOL0     C21557   3.523   6.828   5.101 -0.7165 -0.2992 -0.3454
  157MOL0     C21558   3.635   6.739   5.152  0.2940 -0.5801  0.0861
  157MOL0     O21559   3.661   6.749   5.284 -0.0779 -1.1764  0.2031
  157MOL0     C21560   3.785   6.709   5.333 -0.5840  0.8637 -0.3318
  157MOL0     C21561   3.793   6.581   5.385 -0.2993  0.3630 -0.6969
  157MOL0     C21562   3.918   6.541   5.430 -0.7226  1.2833  0.1791
  157MOL0     C21563   4.029   6.626   5.426  0.3817 -0.0836 -0.1554
  157MOL0     O21564   4.148   6.585   5.478  0.0800 -0.5981  0.2566
  157MOL0     C21565   4.155   6.567   5.621 -0.2995 -1.0015 -0.3934
  157MOL0     C21566   4.073   6.668   5.702  0.3387 -0.0364  0.5824
  157MOL0     C21567   4.067   6.643   5.851 -0.0395 -0.3864  0.3112
  157MOL0     C21568   3.952   6.717   5.919 -0.0099 -0.6102  0.1572
  157MOL0     C21569   3.949   6.681   6.072  0.3991  0.7844 -0.4214
  157MOL0     C21570   3.847   6.777   6.144  0.9279 -0.3162 -0.0080
  157MOL0     C21571   3.700   6.771   6.099 -0.3418  0.2333  0.3464
  157MOL0     C21572   3.613   6.858   6.194 -0.1810 -0.2331 -0.8739
  157MOL0    Cl21573   3.454   6.876   6.117 -0.1776 -0.1898 -0.2566
  157MOL0     C21574   4.011   6.755   5.383 -0.3840  0.3847 -0.3536
  157MOL0     C21575   3.894   6.801   5.329  0.0871 -0.1322 -0.1944
  157MOL0     O21576   3.692   6.658   5.082  0.6329  0.0999 -0.1779
  157MOL0     C21577   3.452   6.916   5.192  0.0703  0.5437 -0.5653
  157MOL0     C21578   3.350   7.000   5.153  0.0976  0.1990 -0.0079
  157MOL0     N21579   2.781   7.309   4.621  0.0388 -0.0059  0.6021
  157MOL0     N21580   2.751   7.400   4.543 -0.6118 -1.9843 -0.4459
  157MOL0     C21581   2.336   7.719   5.257  0.3841  0.6693 -0.2272
  157MOL0     C21582   2.339   7.672   5.399 -0.3915 -0.3216  0.2383
  157MOL0     C21583   2.295   7.532   5.803  0.2668  0.7785  0.5727
  157MOL0     C21584   2.258   7.397   5.785  0.3895 -0.3721 -0.5735
  157MOL0     C21585   2.266   7.300   5.882  0.7485 -0.1897  0.3558
  157MOL0     C21586   2.331   7.336   6.011 -0.0760 -0.8400  1.5394
  157MOL0     O21587   2.355   7.246   6.108  0.0658  0.3112 -0.6178
  157MOL0     C21588   2.258   7.145   6.135 -0.8544 -0.0472 -0.0527
  157MOL0     C21589   2.141   7.191   6.222 -1.4113  0.0703  0.3421
  157MOL0     C21590   2.031   7.091   6.239 -0.0444  0.1335  0.2214
  157MOL0     C21591   2.049   6.998   6.362  0.2555  0.0605  0.6091
  157MOL0     C21592   1.926   6.915   6.367 -0.8063  0.8238  1.3659
  157MOL0     C21593   1.842   6.837   6.370  0.1781  0.5632 -0.1241
  157MOL0     C21594   2.367   7.468   6.028  0.8511  0.5097  0.4380
  157MOL0     C21595   2.347   7.567   5.926 -0.5743  1.0333  0.4802
  157MOL0     C21596   2.403   7.710   5.960  1.0360  0.1912  0.3535
  157MOL0     H21597   2.019   7.592   5.441 -1.1692  0.7436  0.6046
  157MOL0     H21598   2.006   7.697   5.209  0.4999  1.8205  0.1563
  157MOL0     H21599   2.402   7.780   5.010 -0.0539 -0.6715  0.1547
  157MOL0     H21600   2.323   7.936   5.041  2.1861  1.1419  0.0672
  157MOL0     H21601   2.206   7.745   4.826  0.4420 -0.7376  0.6746
  157MOL0     H21602   2.157   7.898   4.856 -2.0079 -1.9652 -1.8486
  157MOL0     H21603   2.312   8.002   4.718 -0.7461  0.5120 -1.2278
  157MOL0     H21604   2.453   7.911   4.777  0.0891 -1.8585  1.5020
  157MOL0     H21605   2.349   7.706   4.619  0.7466 -0.6495 -0.1996
  157MOL0     H21606   2.232   7.820   4.583 -0.2838 -2.4785  1.1630
  157MOL0     H21607   2.406   7.963   4.474  2.2903  0.0584  0.5852
  157MOL0     H21608   2.397   7.798   4.405 -2.0447  0.8143 -1.5935
  157MOL0     H21609   2.643   7.876   4.446  1.3265 -0.8063 -0.0985
  157MOL0     H21610   2.597   7.905   4.614 -1.6946 -0.2006 -1.0317
  157MOL0     H21611   2.544   7.636   4.482  1.7950 -4.0628  0.1410
  157MOL0     H21612   2.583   7.655   4.647 -0.6358 -2.1577 -1.2826
  157MOL0     H21613   2.789   7.658   4.418 -1.7388  0.6000 -0.2127
  157MOL0     H21614   2.804   7.733   4.584 -2.6931  2.0922  1.1296
  157MOL0     H21615   2.873   7.578   4.772 -2.9043 -0.7709  1.1811
  157MOL0     H21616   2.781   7.307   4.920  1.6414  0.3369  2.1167
  157MOL0     H21617   2.938   7.386   4.923  0.9035 -2.2955  0.6351
  157MOL0     H21618   2.946   7.136   4.949  0.6247  1.0135  0.5492
  157MOL0     H21619   2.899   7.118   4.779  2.9322 -2.3356  0.0475
  157MOL0     H21620   3.094   7.252   4.713  0.9099 -0.0619  0.9235
  157MOL0     H21621   3.131   7.297   4.883 -0.8259  1.1665  1.2678
  157MOL0     H21622   3.149   7.012   4.795 -0.6500  0.8489 -0.7648
  157MOL0     H21623   3.291   7.130   4.780 -0.8140  3.7364 -1.6832
  157MOL0     H21624   3.348   6.913   4.823 -0.7228  0.6241 -0.5790
  157MOL0     H21625   3.651   6.779   4.837  0.6004 -1.9020  0.5119
  157MOL0     H21626   3.508   6.770   4.750  1.4511 -0.9412 -0.3652
  157MOL0     H21627   3.551   6.640   4.870 -0.6427 -0.6420 -0.9714
  157MOL0     H21628   3.699   6.526   5.388  1.1953 -2.3789  2.1226
  157MOL0     H21629   3.936   6.447   5.480  2.4562  1.8152  0.2482
  157MOL0     H21630   4.133   6.461   5.638  0.0132 -1.2559 -1.4563
  157MOL0     H21631   4.262   6.565   5.646 -0.8006 -3.4083  1.9778
  157MOL0     H21632   4.116   6.768   5.687 -0.4942  0.2251 -0.1166
  157MOL0     H21633   3.970   6.666   5.666  0.5486 -0.5105 -0.0050
  157MOL0     H21634   4.164   6.669   5.895  0.6315 -3.0871  0.6070
  157MOL0     H21635   4.046   6.536   5.862 -2.1397 -0.0463  0.0611
  157MOL0     H21636   3.856   6.687   5.877  0.5340  0.6985 -2.2384
  157MOL0     H21637   3.973   6.821   5.892  0.3795 -1.5555 -3.9327
  157MOL0     H21638   3.933   6.575   6.091 -0.6047  0.6485 -1.8580
  157MOL0     H21639   4.047   6.703   6.115  1.0119  1.9685 -2.2903
  157MOL0     H21640   3.887   6.879   6.144  0.0352  0.1323  2.5545
  157MOL0     H21641   3.840   6.754   6.251 -0.2638 -0.3457 -0.0820
  157MOL0     H21642   3.674   6.665   6.104 -0.3428  0.2576  1.0919
  157MOL0     H21643   3.697   6.816   6.000 -0.8325  0.0330  0.2654
  157MOL0     H21644   3.650   6.958   6.219  1.0628 -0.6915 -0.8201
  157MOL0     H21645   3.600   6.800   6.286  2.0185 -1.1452 -1.0820
  157MOL0     H21646   4.096   6.823   5.384 -0.8407  0.9994  1.5781
  157MOL0     H21647   3.889   6.897   5.278  5.2705  1.0451  0.9802
  157MOL0     H21648   3.464   6.920   5.300 -1.6933  1.3896 -0.3632
  157MOL0     H21649   3.294   7.067   5.218 -0.2529  2.2954 -2.3409
  157MOL0     H21650   2.432   7.726   5.208  0.0657 -0.3632 -1.0195
  157MOL0     H21651   2.437   7.664   5.443  0.6652  4.7989 -0.5483
  157MOL0     H21652   2.221   7.369   5.687 -2.0116  1.3239 -0.2509
  157MOL0     H21653   2.223   7.202   5.866 -2.8879  1.1877  0.7629
  157MOL0     H21654   2.225   7.091   6.046 -1.8769  0.3247  0.0919
  157MOL0     H21655   2.295   7.059   6.191  0.9240  0.4656 -0.3718
  157MOL0     H21656   2.098   7.280   6.175 -0.1141  0.5745  0.0675
  157MOL0     H21657   2.186   7.226   6.316 -1.2805 -0.7298  0.5843
  157MOL0     H21658   1.951   7.161   6.267 -0.6724  0.1250 -1.4298
  157MOL0     H21659   2.024   7.040   6.143  2.5356 -0.3955  0.2271
  157MOL0     H21660   2.053   7.049   6.458  1.2546  1.2676 -0.0543
  157MOL0     H21661   2.129   6.927   6.337  0.8983  1.5738 -2.0668
  157MOL0     H21662   1.762   6.769   6.389 -0.2617  1.1374  0.1070
  157MOL0     H21663   2.420   7.491   6.120  1.2281  2.0488 -0.1496
  157MOL0     H21664   2.451   7.711   6.058  1.5963  1.6033  0.0881
  157MOL0     H21665   2.479   7.742   5.889 -0.4901 -0.9940 -1.9237
  157MOL0     H21666   2.323   7.785   5.960  0.8903  0.1074  2.2674
  158MOL0     O21667  10.320   9.971   6.520 -1.0658 -0.1002 -0.3205
  158MOL0     C21668  10.261   9.993   6.418 -0.4249 -0.8930 -0.2579
  158MOL0     O21669  10.318   9.995   6.291 -0.1687 -0.1127  0.5988
  158MOL0     C21670  10.451   9.980   6.297  0.4842  0.1729  0.4614
  158MOL0     C21671  10.513   9.858   6.333 -0.0509 -0.2028  0.5414
  158MOL0     C21672  10.650   9.836   6.319  0.1312  0.1663  0.1748
  158MOL0     C21673  10.727   9.944   6.281  0.1737  0.2404  0.2818
  158MOL0     O21674  10.862   9.936   6.275 -0.4899 -0.6954  0.4810
  158MOL0     C21675  10.928   9.856   6.369  0.9255 -0.3601  0.4933
  158MOL0     C21676  11.077   9.869   6.338 -0.8938 -0.5772  0.6023
  158MOL0     C21677  11.123  10.017   6.352 -0.3938  0.0095 -0.2525
  158MOL0     C21678  11.248  10.044   6.441  0.2587  0.0708  0.1247
  158MOL0     C21679  11.317  10.182   6.440 -0.1250 -0.0472  0.1214
  158MOL0     C21680  11.334  10.248   6.309 -0.4190  0.6982 -0.6808
  158MOL0     C21681  11.400  10.386   6.303  0.1889  0.3391 -0.0100
  158MOL0     C21682  11.546  10.400   6.369 -0.6243 -0.0481  0.4019
  158MOL0     N21683  11.634  10.510   6.338 -0.5114  0.2481 -0.3024
  158MOL0     C21684  11.598  10.610   6.251  0.6010 -0.1597  0.6128
  158MOL0     C21685  11.699  10.700   6.260 -0.6937  0.9515 -0.0299
  158MOL0     C21686  11.731  10.817   6.178 -0.5312 -0.1757 -0.0789
  158MOL0     C21687  11.676  10.947   6.256  0.5509 -0.0960  0.0374
  158MOL0     C21688  11.767  11.012   6.375  0.0748  0.5265 -0.4070
  158MOL0     C21689  11.920  11.007   6.354 -0.1773 -0.4851 -0.5947
  158MOL0     O21690  11.972  11.136   6.377  0.4085 -0.3037  1.2754
  158MOL0     C21691  12.113  11.136   6.376  0.4985  0.5260  0.6885
  158MOL0     C21692  12.175  11.237   6.443 -0.0091 -0.2002 -0.4542
  158MOL0     C21693  12.319  11.245   6.445 -0.2558 -0.3927 -0.6537
  158MOL0     C21694  12.377  11.346   6.541 -0.6602 -0.1094  0.2495
  158MOL0     C21695  12.394  11.159   6.370 -0.7428 -0.1551 -0.3756
  158MOL0     C21696  12.549  11.146   6.365 -0.2518 -0.3304  0.2631
  158MOL0     O21697  12.597  11.064   6.270 -0.3942 -0.7704 -0.6315
  158MOL0     C21698  12.729  11.062   6.240 -0.0306 -0.0098 -0.2255
  158MOL0     C21699  12.787  11.090   6.114 -0.0924  0.4959 -0.7711
  158MOL0     C21700  12.925  11.065   6.092 -0.4951  0.2692  0.5287
  158MOL0     C21701  13.003  11.018   6.198 -0.6234  0.5714  0.3158
  158MOL0     O21702  13.132  11.001   6.169 -1.2148 -0.8009  0.1939
  158MOL0     C21703  13.196  10.885   6.219 -1.1114  0.5671  0.6844
  158MOL0     C21704  13.295  10.841   6.111  0.0577 -0.5641  0.3431
  158MOL0     C21705  13.421  10.933   6.117  0.3344  0.1892  0.2002
  158MOL0     C21706  13.519  10.883   6.216 -0.7474 -0.2814 -0.8232
  158MOL0     C21707  13.643  10.980   6.231  0.1177  1.0007  0.1556
  158MOL0     C21708  13.762  10.904   6.307 -0.1002 -0.6339  0.9307
  158MOL0     C21709  13.727  10.888   6.451  0.6333  0.0387 -0.9248
  158MOL0     C21710  13.827  10.805   6.528 -0.4081  1.3003 -1.2652
  158MOL0    Cl21711  13.976  10.910   6.545  0.3240 -0.2117  0.0642
  158MOL0     C21712  12.950  10.985   6.327 -0.1556  0.4789  0.6498
  158MOL0     C21713  12.812  11.005   6.340  0.4962 -0.3185  0.3443
  158MOL0     O21714  12.617  11.214   6.443 -0.4343  0.5353 -0.0148
  158MOL0     C21715  12.329  11.065   6.296  0.5165  1.0220 -0.8345
  158MOL0     C21716  12.187  11.055   6.297 -0.2490 -0.1690 -0.2796
  158MOL0     N21717  11.786  10.649   6.354  0.0540 -0.3291  0.5070
  158MOL0     N21718  11.751  10.535   6.397 -0.4848 -1.0070  0.7264
  158MOL0     C21719  10.663  10.063   6.240  0.0702  0.2484 -0.3399
  158MOL0     C21720  10.527  10.084   6.255 -0.5089 -1.0041  0.0957
  158MOL0     C21721  10.108  10.009   6.426  0.5378  0.2277 -1.0058
  158MOL0     C21722  10.062  10.096   6.327 -0.5146 -0.4209  0.0923
  158MOL0     C21723   9.919  10.103   6.330 -0.2084  0.1053 -0.0275
  158MOL0     C21724   9.840  10.031   6.420  0.0084 -0.2504  0.1677
  158MOL0     O21725   9.706  10.045   6.419  0.3992 -0.1827  0.7549
  158MOL0     C21726   9.657  10.160   6.492  0.2596  0.3473  0.9012
  158MOL0     C21727   9.530  10.118   6.564  0.1673  0.0778  0.1085
  158MOL0     C21728   9.545   9.982   6.641 -0.5755  0.6555 -0.1935
  158MOL0     C21729   9.427   9.973   6.738  0.5680  0.4809 -0.0987
  158MOL0     C21730   9.392   9.834   6.765  0.1502 -0.7847  0.1992
  158MOL0     C21731   9.340   9.732   6.795 -0.9331  0.1397  0.3377
  158MOL0     C21732   9.900   9.962   6.520 -0.5974  0.3921 -0.0248
  158MOL0     C21733  10.040   9.949   6.535 -0.2710 -0.5279  0.5028
  158MOL0     C21734  10.092   9.865   6.649  0.5654 -0.0751 -0.1467
  158MOL0     H21735  10.443   9.779   6.359 -1.1138  0.4002 -0.4131
  158MOL0     H21736  10.685   9.737   6.346 -0.8714 -0.0624  0.6710
  158MOL0     H21737  10.892   9.753   6.361 -4.6838  1.1895  1.3698
  158MOL0     H21738  10.900   9.891   6.469  0.9101 -0.7295  0.6204
  158MOL0     H21739  11.138   9.800   6.395  0.7642  0.5793  0.2896
  158MOL0     H21740  11.101   9.844   6.234  0.4429  3.7725 -0.3819
  158MOL0     H21741  11.132  10.064   6.254  2.6600  2.4584  1.0274
  158MOL0     H21742  11.042  10.066   6.406  0.5182  2.6359 -1.1372
  158MOL0     H21743  11.211  10.021   6.542  1.3691 -3.8097 -0.1689
  158MOL0     H21744  11.323   9.965   6.430 -1.1298 -1.7699  2.7577
  158MOL0     H21745  11.418  10.166   6.477 -0.1723 -3.2607 -0.8311
  158MOL0     H21746  11.258  10.242   6.510 -1.1507  1.5120 -1.9596
  158MOL0     H21747  11.399  10.187   6.246  1.1757 -0.7307  2.1244
  158MOL0     H21748  11.237  10.247   6.259  0.4676 -3.2561 -2.7431
  158MOL0     H21749  11.332  10.443   6.367 -1.7153 -1.4602 -0.3293
  158MOL0     H21750  11.398  10.423   6.200  0.8135 -1.2458 -0.6212
  158MOL0     H21751  11.539  10.397   6.478  0.1317  0.9564  0.4961
  158MOL0     H21752  11.597  10.310   6.331  1.2188  0.4812  1.4664
  158MOL0     H21753  11.515  10.620   6.182  0.9461  0.7062  0.3015
  158MOL0     H21754  11.678  10.815   6.082  2.0247 -2.5153 -1.6237
  158MOL0     H21755  11.839  10.816   6.158  0.2412  1.7452  3.2279
  158MOL0     H21756  11.669  11.034   6.189  0.2402 -0.2000 -0.0707
  158MOL0     H21757  11.574  10.932   6.292  0.4233 -0.9030 -0.6218
  158MOL0     H21758  11.721  11.111   6.387 -1.8411 -0.3882  0.2805
  158MOL0     H21759  11.742  10.961   6.469  0.0113 -0.2525 -0.8364
  158MOL0     H21760  11.959  10.921   6.410 -0.9387 -1.6287 -1.7511
  158MOL0     H21761  11.933  10.976   6.250  2.1413 -1.2539 -0.1295
  158MOL0     H21762  12.106  11.311   6.484 -1.4830 -1.6508 -0.1852
  158MOL0     H21763  12.303  11.343   6.621 -0.8274 -0.7658  0.0700
  158MOL0     H21764  12.371  11.448   6.502  0.8369  1.0012  2.6467
  158MOL0     H21765  12.473  11.331   6.592  0.1705  1.9698 -0.6046
  158MOL0     H21766  12.723  11.139   6.041 -2.8783 -0.5994  0.7525
  158MOL0     H21767  12.963  11.106   5.998  0.7695  1.5294  1.5528
  158MOL0     H21768  13.255  10.904   6.309  0.0362 -1.3973  0.4062
  158MOL0     H21769  13.128  10.804   6.247 -0.2429 -0.2553  0.4485
  158MOL0     H21770  13.324  10.738   6.135  1.2866  0.0102  1.4413
  158MOL0     H21771  13.257  10.840   6.009  1.0483  0.0543 -0.0405
  158MOL0     H21772  13.396  11.037   6.141 -0.1817 -0.2715  1.7846
  158MOL0     H21773  13.475  10.928   6.022 -0.1663  0.0511 -0.0806
  158MOL0     H21774  13.559  10.786   6.187 -4.1120 -2.6366  1.6057
  158MOL0     H21775  13.469  10.871   6.313  0.0676 -0.1275 -0.3704
  158MOL0     H21776  13.685  11.003   6.133 -2.1757 -0.0938 -1.1940
  158MOL0     H21777  13.621  11.075   6.280  1.1669  2.4408 -2.0393
  158MOL0     H21778  13.850  10.968   6.296 -1.0257  1.1892  3.3269
  158MOL0     H21779  13.775  10.803   6.267 -1.3910 -0.7423  0.7494
  158MOL0     H21780  13.633  10.831   6.451 -0.7003  1.7939  3.7895
  158MOL0     H21781  13.710  10.984   6.501 -0.1672  0.0487 -1.1880
  158MOL0     H21782  13.854  10.716   6.470  6.5811  2.0506 -0.0662
  158MOL0     H21783  13.781  10.785   6.625 -2.0521  3.5865 -1.4982
  158MOL0     H21784  13.007  10.949   6.413 -0.0303  0.7218  0.6717
  158MOL0     H21785  12.769  10.980   6.437  2.4902 -1.5864  0.9572
  158MOL0     H21786  12.373  10.994   6.226  2.0117 -0.0778  1.1293
  158MOL0     H21787  12.148  10.974   6.236  1.1224 -1.1107  0.0623
  158MOL0     H21788  10.722  10.150   6.211  0.3723  0.8533  1.8645
  158MOL0     H21789  10.490  10.183   6.229  0.4364 -0.3429  1.1760
  158MOL0     H21790  10.130  10.145   6.259  1.1510 -1.9500  0.5862
  158MOL0     H21791   9.876  10.173   6.259  2.4099  1.9059  0.0083
  158MOL0     H21792   9.728  10.189   6.570  0.4474 -1.0992  1.2917
  158MOL0     H21793   9.643  10.240   6.419  1.2272  1.7676  2.2203
  158MOL0     H21794   9.446  10.103   6.496  0.8837  0.5435 -0.9153
  158MOL0     H21795   9.512  10.200   6.635 -0.0530 -0.8977  1.2114
  158MOL0     H21796   9.552   9.898   6.571  0.4937  0.3639  0.2289
  158MOL0     H21797   9.639   9.970   6.696 -1.1759  0.0337  0.7232
  158MOL0     H21798   9.341  10.030   6.703  0.4146  2.3240  2.9245
  158MOL0     H21799   9.452  10.012   6.838  2.5701 -2.4219  0.6473
  158MOL0     H21800   9.293   9.640   6.821 -0.0280 -1.4011 -2.9001
  158MOL0     H21801   9.856   9.901   6.599  0.4647 -0.1149  0.1875
  158MOL0     H21802  10.100   9.929   6.738 -1.8527  1.1882 -0.7412
  158MOL0     H21803  10.014   9.790   6.666 -2.3592  2.7399 -0.2741
  158MOL0     H21804  10.187   9.813   6.636 -0.0139 -2.1121  2.7169
  159MOL0     O21805   4.615   3.490   9.275 -0.2217 -0.5098 -0.1022
  159MOL0     C21806   4.640   3.372   9.240  0.4157  0.2427 -0.8435
  159MOL0     O21807   4.647   3.266   9.327 -0.5963 -0.1642  0.3071
  159MOL0     C21808   4.638   3.273   9.461  0.4361  0.5288 -0.6652
  159MOL0     C21809   4.607   3.151   9.528 -0.4090  0.1216 -0.2282
  159MOL0     C21810   4.595   3.140   9.664  0.1120  0.1850 -0.3464
  159MOL0     C21811   4.644   3.249   9.742  0.4524  0.8533  0.4329
  159MOL0     O21812   4.665   3.259   9.875  0.5205  0.6955  0.1949
  159MOL0     C21813   4.599   3.167   9.966  0.3865 -0.1004  0.3910
  159MOL0     C21814   4.697   3.051  10.000  0.3090  0.6683 -0.2984
  159MOL0     C21815   4.617   2.924  10.040  0.9982  0.4224  0.2673
  159MOL0     C21816   4.715   2.811  10.050 -0.5633  0.1851  0.4937
  159MOL0     C21817   4.659   2.680  10.096  0.1960 -0.1072 -0.3446
  159MOL0     C21818   4.615   2.672  10.250 -0.3600 -0.7918  0.5612
  159MOL0     C21819   4.568   2.536  10.291  0.6645  1.0992  0.0193
  159MOL0     C21820   4.418   2.506  10.288 -0.2328 -0.0582 -0.2950
  159MOL0     N21821   4.340   2.606  10.368  0.0167  0.0853  0.6789
  159MOL0     C21822   4.359   2.648  10.494  0.3368  0.0806 -0.1325
  159MOL0     C21823   4.247   2.724  10.511 -0.5847 -0.8168  0.8402
  159MOL0     C21824   4.226   2.814  10.633 -0.5790 -0.1569 -0.1348
  159MOL0     C21825   4.113   2.756  10.728  0.4441  0.3387  0.5859
  159MOL0     C21826   4.069   2.868  10.831  0.7024 -1.6254  0.5557
  159MOL0     C21827   4.176   2.910  10.941 -1.0624 -0.4476 -0.0660
  159MOL0     O21828   4.195   2.799  11.033  0.4664 -0.2075 -0.1934
  159MOL0     C21829   4.296   2.806  11.125  0.2737 -0.0557 -0.1564
  159MOL0     C21830   4.272   2.707  11.226 -0.2339 -1.0806  0.1483
  159MOL0     C21831   4.342   2.709  11.346  0.7114 -0.0149 -0.6373
  159MOL0     C21832   4.288   2.620  11.456 -0.3470 -0.4623  0.3077
  159MOL0     C21833   4.459   2.794  11.354 -0.0105 -0.7113  0.0668
  159MOL0     C21834   4.550   2.773  11.471 -0.1069 -0.4293  0.4265
  159MOL0     O21835   4.653   2.871  11.480  0.7821  0.3484 -0.4176
  159MOL0     C21836   4.756   2.847  11.568 -0.2186  0.2055  0.3997
  159MOL0     C21837   4.857   2.749  11.534 -1.3906 -1.5125 -0.2586
  159MOL0     C21838   4.976   2.738  11.606  1.0207 -0.2004  0.3063
  159MOL0     C21839   4.993   2.817  11.726 -0.6022  0.6917  0.2679
  159MOL0     O21840   5.107   2.788  11.802  0.0982 -0.1125 -0.1721
  159MOL0     C21841   5.227   2.864  11.777 -0.5223  0.6689  0.0695
  159MOL0     C21842   5.209   3.010  11.790  0.5282  0.8741  0.1192
  159MOL0     C21843   5.345   3.067  11.791 -0.0712 -0.0475 -0.0985
  159MOL0     C21844   5.332   3.220  11.805  0.4232  0.1626 -0.2698
  159MOL0     C21845   5.479   3.276  11.825  0.5332 -0.4724  0.6160
  159MOL0     C21846   5.487   3.429  11.804  0.5765  0.3093 -0.3671
  159MOL0     C21847   5.626   3.490  11.820  0.0687  0.2283  0.6349
  159MOL0     C21848   5.640   3.632  11.808 -0.4533 -0.8956 -0.7726
  159MOL0    Cl21849   5.536   3.722  11.927  0.2242 -0.1632  0.1733
  159MOL0     C21850   4.890   2.907  11.760 -0.8907  0.3509 -0.8799
  159MOL0     C21851   4.777   2.917  11.683 -0.6320 -0.3269 -0.2562
  159MOL0     O21852   4.546   2.677  11.540  0.6407 -0.4882 -0.1805
  159MOL0     C21853   4.499   2.875  11.243  0.6854  0.2639  1.5019
  159MOL0     C21854   4.413   2.885  11.130  0.8893  0.4030  0.1561
  159MOL0     N21855   4.173   2.739  10.393 -0.9241 -0.6504  0.1347
  159MOL0     N21856   4.232   2.666  10.310  0.5625  0.9988 -0.1349
  159MOL0     C21857   4.682   3.363   9.673 -0.7618  0.6951 -0.0792
  159MOL0     C21858   4.688   3.383   9.534 -0.1058  0.3043 -0.3527
  159MOL0     C21859   4.659   3.334   9.092 -0.6714 -0.0710 -0.0112
  159MOL0     C21860   4.559   3.385   9.012 -0.2213 -0.1161  0.3737
  159MOL0     C21861   4.558   3.360   8.873  0.5733  0.7693 -0.1731
  159MOL0     C21862   4.653   3.284   8.807 -0.3807 -1.1394 -0.3487
  159MOL0     O21863   4.644   3.273   8.677  0.5504  0.1470  0.3724
  159MOL0     C21864   4.763   3.217   8.621  0.5518 -0.5571  0.9859
  159MOL0     C21865   4.751   3.229   8.466 -0.4600 -1.0404 -0.1098
  159MOL0     C21866   4.624   3.170   8.406 -0.6977  0.4434  0.2004
  159MOL0     C21867   4.582   3.231   8.273  0.2225  0.0582  0.0603
  159MOL0     C21868   4.690   3.227   8.178  0.1599  0.8918 -0.0152
  159MOL0     C21869   4.794   3.225   8.106  0.6173 -0.8863 -0.5898
  159MOL0     C21870   4.760   3.228   8.893  0.9028  0.2172 -0.5299
  159MOL0     C21871   4.750   3.242   9.033 -0.7536 -0.6635 -0.0080
  159MOL0     C21872   4.846   3.165   9.130 -0.3927 -0.6435 -0.0445
  159MOL0     H21873   4.574   3.065   9.470 -0.7870  0.8856 -1.1640
  159MOL0     H21874   4.564   3.046   9.709 -1.3253  1.7058  2.0434
  159MOL0     H21875   4.522   3.114   9.909 -1.5321  1.4869  1.3859
  159MOL0     H21876   4.566   3.216  10.058  3.7210 -1.5016  2.5315
  159MOL0     H21877   4.740   3.027   9.902 -2.2579 -0.8403 -1.1733
  159MOL0     H21878   4.781   3.079  10.064 -0.3573 -2.7027  2.3935
  159MOL0     H21879   4.568   2.954  10.133  3.6947  2.4782  1.1610
  159MOL0     H21880   4.542   2.910   9.962 -0.2631  2.9306  0.9244
  159MOL0     H21881   4.766   2.801   9.953 -0.8509  1.5182  0.1890
  159MOL0     H21882   4.791   2.831  10.126  0.2731 -1.4892  0.1491
  159MOL0     H21883   4.728   2.597  10.084 -1.8885 -2.2241  1.2365
  159MOL0     H21884   4.571   2.654  10.036  0.0472  1.4502 -0.8419
  159MOL0     H21885   4.708   2.696  10.303  1.1780  0.3281 -2.4104
  159MOL0     H21886   4.545   2.754  10.271  1.4833  1.2167 -0.6700
  159MOL0     H21887   4.598   2.536  10.397  0.0111  0.6254  0.2077
  159MOL0     H21888   4.618   2.449  10.248 -0.6758 -0.1344  0.8738
  159MOL0     H21889   4.387   2.491  10.184 -2.1581  1.9128 -0.0871
  159MOL0     H21890   4.407   2.405  10.328  0.9625 -0.5991 -1.2751
  159MOL0     H21891   4.447   2.628  10.555  0.1985 -0.4056 -0.0898
  159MOL0     H21892   4.196   2.912  10.595  1.5888  0.1522 -1.1999
  159MOL0     H21893   4.318   2.824  10.691 -0.5194  2.7972 -0.6224
  159MOL0     H21894   4.025   2.738  10.667  0.8944  0.6666 -0.1757
  159MOL0     H21895   4.142   2.663  10.777  1.0556 -0.0970 -0.5707
  159MOL0     H21896   4.049   2.955  10.768  2.3979 -0.9002  0.9856
  159MOL0     H21897   3.971   2.850  10.877 -1.1142  0.5941 -2.0923
  159MOL0     H21898   4.268   2.950  10.897  0.9686 -0.0456  4.0437
  159MOL0     H21899   4.134   2.996  10.993 -2.0198 -1.3418  0.6957
  159MOL0     H21900   4.181   2.649  11.234 -1.0081  0.1638  0.6350
  159MOL0     H21901   4.311   2.659  11.556  2.2664 -1.7667  0.2810
  159MOL0     H21902   4.324   2.519  11.437 -0.1264 -0.0482 -1.6477
  159MOL0     H21903   4.179   2.621  11.451 -0.3179  0.9808 -0.6239
  159MOL0     H21904   4.833   2.680  11.454  1.0140 -1.8754 -0.7504
  159MOL0     H21905   5.063   2.680  11.574  0.2108 -0.3112 -1.8863
  159MOL0     H21906   5.294   2.834  11.858  1.7407  1.8835 -1.2478
  159MOL0     H21907   5.256   2.832  11.677 -0.2447 -1.1612  0.6889
  159MOL0     H21908   5.158   3.038  11.698  2.5124 -1.0820 -1.6856
  159MOL0     H21909   5.155   3.031  11.883  0.7489  0.1311  0.4291
  159MOL0     H21910   5.401   3.043  11.700 -0.2673  1.0107 -0.5193
  159MOL0     H21911   5.408   3.035  11.874  0.3378  2.6729  0.7231
  159MOL0     H21912   5.262   3.239  11.887  2.2391 -0.2788  1.4580
  159MOL0     H21913   5.292   3.270  11.716 -0.8722 -0.5337 -0.1057
  159MOL0     H21914   5.504   3.259  11.930  0.0130 -1.6482  0.5696
  159MOL0     H21915   5.546   3.214  11.764 -0.5368 -1.7923  0.7246
  159MOL0     H21916   5.434   3.477  11.887 -0.3934  0.1132 -0.8544
  159MOL0     H21917   5.448   3.460  11.706 -1.9328 -1.5568 -0.0442
  159MOL0     H21918   5.684   3.446  11.737  0.0307  1.7672 -0.2431
  159MOL0     H21919   5.676   3.460  11.912  0.1379  0.1150  0.5605
  159MOL0     H21920   5.599   3.666  11.713 -0.2332  5.9251  1.0612
  159MOL0     H21921   5.745   3.662  11.813 -0.5503 -0.6850  0.1739
  159MOL0     H21922   4.891   2.965  11.852  2.9496 -0.0101 -0.5298
  159MOL0     H21923   4.704   2.995  11.697  1.1154  2.1087 -3.4702
  159MOL0     H21924   4.595   2.924  11.235  1.0798 -0.7280 -0.5508
  159MOL0     H21925   4.421   2.958  11.050  0.8275  0.1181 -0.1111
  159MOL0     H21926   4.729   3.438   9.736 -1.0680 -0.2618  1.3398
  159MOL0     H21927   4.709   3.479   9.487 -0.3007 -0.0770 -1.2351
  159MOL0     H21928   4.476   3.438   9.057 -1.5192 -1.0574 -0.8184
  159MOL0     H21929   4.480   3.408   8.816  1.5680  0.3432 -1.9797
  159MOL0     H21930   4.849   3.278   8.653 -0.1076 -0.3371  2.4250
  159MOL0     H21931   4.784   3.111   8.633  0.6165 -0.9186 -1.7058
  159MOL0     H21932   4.835   3.179   8.417  1.4586 -0.5674  2.4825
  159MOL0     H21933   4.764   3.336   8.446 -0.0816 -0.8220  1.1913
  159MOL0     H21934   4.644   3.062   8.401  0.6033  0.7110 -0.9727
  159MOL0     H21935   4.538   3.188   8.471 -0.5607  1.4311  0.1173
  159MOL0     H21936   4.547   3.334   8.282  2.6204  1.0640 -1.0278
  159MOL0     H21937   4.511   3.162   8.226  0.1796 -2.9434  4.0727
  159MOL0     H21938   4.883   3.229   8.046 -0.1607 -0.4488 -1.7594
  159MOL0     H21939   4.833   3.154   8.860  1.7522  0.2897  1.0870
  159MOL0     H21940   4.882   3.228   9.212 -0.0104  0.0464 -0.7216
  159MOL0     H21941   4.779   3.094   9.179 -0.8702  0.2983  0.7014
  159MOL0     H21942   4.929   3.121   9.075 -0.9138  0.1343 -1.5089
  160MOL0     O21943   2.780   6.555   6.038  0.1811 -0.4111 -0.5386
  160MOL0     C21944   2.795   6.584   6.159  0.1264  0.1093  0.0912
  160MOL0     O21945   2.791   6.709   6.210 -0.1230  0.2713  0.0155
  160MOL0     C21946   2.795   6.813   6.119 -1.1740 -0.3634 -0.5115
  160MOL0     C21947   2.703   6.913   6.126  0.4827 -0.1360 -0.0771
  160MOL0     C21948   2.686   7.008   6.024 -0.2264 -0.7607 -0.7433
  160MOL0     C21949   2.785   7.027   5.925  0.6161  0.2044  0.9835
  160MOL0     O21950   2.802   7.122   5.837  0.7230 -0.1944 -0.0172
  160MOL0     C21951   2.676   7.161   5.771 -0.2257 -0.0443  0.9448
  160MOL0     C21952   2.627   7.308   5.788  0.1103 -0.8779 -0.0934
  160MOL0     C21953   2.731   7.395   5.715  0.0138  0.0112 -0.3920
  160MOL0     C21954   2.715   7.541   5.733 -0.0586 -0.1980 -0.2875
  160MOL0     C21955   2.793   7.605   5.618  0.0677  0.0380  0.0519
  160MOL0     C21956   2.793   7.755   5.635  0.3953  0.3070  0.1087
  160MOL0     C21957   2.865   7.828   5.518  0.0103 -0.2668 -0.2875
  160MOL0     C21958   2.886   7.978   5.537 -0.8459  0.0051 -0.7218
  160MOL0     N21959   2.765   8.047   5.496  0.0578 -0.5076 -0.0555
  160MOL0     C21960   2.653   8.071   5.575  0.0935  0.9344 -0.1205
  160MOL0     C21961   2.558   8.133   5.490 -0.5932 -0.2261  0.2858
  160MOL0     C21962   2.417   8.168   5.536  0.5069 -0.7714  0.7154
  160MOL0     C21963   2.411   8.317   5.577  0.9583 -0.0129  0.4890
  160MOL0     C21964   2.323   8.337   5.699  0.6619 -0.0819  0.5435
  160MOL0     C21965   2.402   8.301   5.822  0.0014 -0.4947 -0.3630
  160MOL0     O21966   2.510   8.404   5.842  0.0086 -0.2398  0.0393
  160MOL0     C21967   2.487   8.481   5.951  0.4757 -0.3995  0.6416
  160MOL0     C21968   2.481   8.428   6.083 -0.0531  0.5225 -0.0405
  160MOL0     C21969   2.448   8.514   6.189  0.1760  0.2750 -0.2421
  160MOL0     C21970   2.447   8.459   6.331 -0.7052 -0.0237 -0.3909
  160MOL0     C21971   2.429   8.657   6.162 -0.7048  0.4051 -0.3393
  160MOL0     C21972   2.408   8.747   6.274 -0.2505  0.4833 -0.6621
  160MOL0     O21973   2.288   8.725   6.334  0.5088 -0.0152  0.0979
  160MOL0     C21974   2.266   8.781   6.459 -0.2898  0.1838  0.9851
  160MOL0     C21975   2.361   8.784   6.561  1.1249  0.1042  0.6541
  160MOL0     C21976   2.330   8.830   6.685  0.0765  0.7095 -0.8472
  160MOL0     C21977   2.212   8.907   6.707 -0.7894  0.5765 -0.9468
  160MOL0     O21978   2.190   8.964   6.836 -1.2641 -0.5543  0.1776
  160MOL0     C21979   2.087   9.067   6.840  0.6679  0.3368  0.4542
  160MOL0     C21980   1.951   9.019   6.863  0.1713  0.1444  0.1487
  160MOL0     C21981   1.916   8.989   7.011 -0.2431 -0.3135  0.1766
  160MOL0     C21982   1.795   8.900   7.007  0.8180  0.4606 -0.6338
  160MOL0     C21983   1.727   8.886   7.146  0.8246  0.2396  0.3423
  160MOL0     C21984   1.614   8.988   7.169 -0.4547 -0.0064 -0.5013
  160MOL0     C21985   1.573   8.977   7.319  0.3618  1.6155 -0.2948
  160MOL0     C21986   1.462   9.080   7.363 -0.2530  0.1863 -1.1283
  160MOL0    Cl21987   1.539   9.242   7.393 -0.5073  0.2526  0.2822
  160MOL0     C21988   2.116   8.907   6.601  1.0047  0.3471  0.4930
  160MOL0     C21989   2.140   8.840   6.484 -0.0211 -0.1174  0.3017
  160MOL0     O21990   2.497   8.828   6.303 -0.4264  0.2263  0.7707
  160MOL0     C21991   2.452   8.711   6.034  0.3950  0.6478  0.1044
  160MOL0     C21992   2.488   8.620   5.933 -0.4106 -0.6823 -0.1201
  160MOL0     N21993   2.612   8.144   5.368 -0.2575  0.2357  0.6739
  160MOL0     N21994   2.730   8.085   5.367  0.0736  0.3832 -0.4763
  160MOL0     C21995   2.889   6.930   5.919 -0.1826 -0.2099 -0.7166
  160MOL0     C21996   2.883   6.829   6.012 -1.2304 -0.4354  0.4948
  160MOL0     C21997   2.802   6.474   6.262  0.1713 -0.5560 -0.5383
  160MOL0     C21998   2.797   6.344   6.209  0.7095 -0.5899  0.9796
  160MOL0     C21999   2.783   6.239   6.295 -0.1922  0.5102  0.8999
  160MOL0     C22000   2.798   6.256   6.431 -1.3089 -0.1496 -0.1333
  160MOL0     O22001   2.797   6.153   6.526  0.6665  1.4780  1.1110
  160MOL0     C22002   2.920   6.090   6.548 -0.1387 -0.2034  0.2328
  160MOL0     C22003   3.036   6.175   6.601 -0.9958 -0.2588 -1.0396
  160MOL0     C22004   3.029   6.223   6.753 -0.1358 -0.3257  0.0657
  160MOL0     C22005   3.105   6.129   6.844  0.3187  0.2329 -0.4080
  160MOL0     C22006   3.108   6.180   6.987 -0.5712  0.6465 -0.7001
  160MOL0     C22007   3.102   6.221   7.098  0.9343 -0.5707  0.2943
  160MOL0     C22008   2.801   6.382   6.484  0.5739 -0.0110 -0.1968
  160MOL0     C22009   2.804   6.491   6.400  0.6329  0.8059 -0.4230
  160MOL0     C22010   2.815   6.628   6.464 -0.2387 -0.3810 -0.4159
  160MOL0     H22011   2.654   6.914   6.223 -0.3094 -1.7339 -0.4156
  160MOL0     H22012   2.605   7.080   6.028 -1.8593 -2.5510  1.9138
  160MOL0     H22013   2.591   7.099   5.803 -0.0758 -0.4097  0.6415
  160MOL0     H22014   2.690   7.133   5.667  3.7234 -0.6282  1.4887
  160MOL0     H22015   2.526   7.319   5.747  0.8078  2.1298 -1.2885
  160MOL0     H22016   2.628   7.342   5.892 -1.4155  0.3519 -0.4354
  160MOL0     H22017   2.832   7.377   5.752 -0.8032 -1.9638  1.0378
  160MOL0     H22018   2.735   7.362   5.611 -0.2031 -0.1429 -0.3527
  160MOL0     H22019   2.609   7.567   5.722 -0.2193  0.2728  1.8860
  160MOL0     H22020   2.744   7.571   5.834 -1.5908  0.2789  0.0482
  160MOL0     H22021   2.742   7.575   5.526 -0.6016 -2.6022  1.1645
  160MOL0     H22022   2.896   7.571   5.626  0.8193  2.4111  1.3870
  160MOL0     H22023   2.686   7.774   5.624  0.2326 -1.0069 -0.8704
  160MOL0     H22024   2.829   7.774   5.737  0.9246  0.1349 -0.0427
  160MOL0     H22025   2.818   7.820   5.419 -0.5996  0.8612 -0.1006
  160MOL0     H22026   2.963   7.783   5.498 -0.7317 -0.7137 -3.5060
  160MOL0     H22027   2.910   8.014   5.637 -0.5230  4.2335 -2.1539
  160MOL0     H22028   2.973   8.016   5.484 -0.6678  1.1865  0.3691
  160MOL0     H22029   2.641   8.046   5.680  1.5733 -0.0252 -0.1556
  160MOL0     H22030   2.401   8.111   5.628  1.8804 -0.4895  1.1435
  160MOL0     H22031   2.339   8.135   5.467 -0.2747  1.2486  0.5687
  160MOL0     H22032   2.507   8.358   5.610 -0.0631  1.1879  2.1019
  160MOL0     H22033   2.372   8.371   5.491 -0.6184  1.6132  2.1266
  160MOL0     H22034   2.292   8.442   5.702  0.9635  0.0508 -0.5098
  160MOL0     H22035   2.233   8.276   5.691 -0.4076  1.3480  1.1546
  160MOL0     H22036   2.325   8.293   5.899 -2.9710  2.9354 -2.6516
  160MOL0     H22037   2.453   8.205   5.815  0.6176 -0.1772 -0.3618
  160MOL0     H22038   2.499   8.322   6.100  3.8900  1.1990  1.1023
  160MOL0     H22039   2.454   8.350   6.326  2.4144  0.0663  0.0525
  160MOL0     H22040   2.357   8.497   6.381 -0.4983  3.1100 -2.1217
  160MOL0     H22041   2.540   8.492   6.376 -0.0572 -1.0796 -0.9113
  160MOL0     H22042   2.457   8.740   6.535  0.5012 -0.2853 -1.1718
  160MOL0     H22043   2.397   8.811   6.767 -1.2212 -3.5646 -0.5694
  160MOL0     H22044   2.107   9.140   6.920  2.7280 -0.8837  1.1408
  160MOL0     H22045   2.080   9.119   6.745 -0.1887  0.2100  0.4442
  160MOL0     H22046   1.873   9.093   6.842 -1.6935 -1.2884  1.6415
  160MOL0     H22047   1.941   8.929   6.801 -1.1124  0.6349 -0.3833
  160MOL0     H22048   1.883   9.083   7.057 -0.9846 -0.3959 -0.1658
  160MOL0     H22049   2.004   8.943   7.055  1.5288  1.6762 -1.0792
  160MOL0     H22050   1.831   8.800   6.977 -0.8794  0.0726 -1.4770
  160MOL0     H22051   1.718   8.941   6.941 -1.7616 -0.8883  1.3739
  160MOL0     H22052   1.673   8.790   7.146  1.1764  0.0327 -0.4624
  160MOL0     H22053   1.798   8.880   7.230 -1.9326 -0.0970  2.8100
  160MOL0     H22054   1.534   8.965   7.099 -0.9876  0.5351 -0.0764
  160MOL0     H22055   1.663   9.084   7.154  1.1998 -0.1943  2.6334
  160MOL0     H22056   1.667   8.989   7.375  0.6099 -1.4744  0.1510
  160MOL0     H22057   1.551   8.870   7.326 -0.0192  1.0974 -5.6137
  160MOL0     H22058   1.411   9.059   7.457 -0.1861  1.9779 -0.6712
  160MOL0     H22059   1.389   9.087   7.282 -1.4703  0.6474 -0.0201
  160MOL0     H22060   2.029   8.970   6.608  0.9093  0.1484  1.1876
  160MOL0     H22061   2.066   8.852   6.405 -1.1990  1.3753  1.5653
  160MOL0     H22062   2.456   8.819   6.020  0.2004  0.8828  1.6023
  160MOL0     H22063   2.494   8.660   5.832 -2.0243 -1.1145 -0.4243
  160MOL0     H22064   2.968   6.930   5.844  2.4162 -0.8192  1.8481
  160MOL0     H22065   2.951   6.746   5.991 -0.5772 -0.0264  0.9601
  160MOL0     H22066   2.788   6.332   6.102 -2.1470  1.9479  0.7862
  160MOL0     H22067   2.776   6.135   6.264  0.6296  0.4877  0.7565
  160MOL0     H22068   2.910   6.019   6.631  2.2729 -1.2662 -0.3058
  160MOL0     H22069   2.942   6.025   6.463 -3.3272 -3.6886  1.8009
  160MOL0     H22070   3.049   6.263   6.537 -0.2781  1.4070  1.2568
  160MOL0     H22071   3.130   6.120   6.597  0.1239  1.5968 -1.5136
  160MOL0     H22072   3.068   6.325   6.760 -2.4824  0.6399  0.0862
  160MOL0     H22073   2.926   6.222   6.789 -0.2339 -2.2429 -0.1400
  160MOL0     H22074   3.210   6.138   6.817 -0.0566 -1.2915 -2.7032
  160MOL0     H22075   3.076   6.024   6.828  3.7048 -0.7530 -0.7328
  160MOL0     H22076   3.118   6.244   7.201 -0.6651 -1.2184  0.7119
  160MOL0     H22077   2.810   6.388   6.592 -2.0996 -2.2235  0.2933
  160MOL0     H22078   2.728   6.694   6.455  0.5711  0.6409 -0.9454
  160MOL0     H22079   2.822   6.612   6.572  0.6759  2.2641  0.0071
  160MOL0     H22080   2.909   6.678   6.438 -0.1752 -0.2854 -0.0078
  161MOL0     O22081  10.459   2.719   5.613 -0.0867  0.0929 -0.6450
  161MOL0     C22082  10.423   2.731   5.498 -0.5460  0.3941  0.4163
  161MOL0     O22083  10.318   2.666   5.443  0.8228  0.0159 -0.4396
  161MOL0     C22084  10.233   2.597   5.526 -0.3658 -0.5864 -0.8541
  161MOL0     C22085  10.252   2.464   5.560 -0.3571  0.9344 -0.3820
  161MOL0     C22086  10.179   2.396   5.667 -0.7722  0.2744  0.3721
  161MOL0     C22087  10.072   2.463   5.725 -0.9001  0.4494  0.3362
  161MOL0     O22088  10.012   2.392   5.827 -0.3431 -0.1003 -0.4056
  161MOL0     C22089   9.867   2.391   5.827  0.1590  0.9045  0.3382
  161MOL0     C22090   9.827   2.258   5.901 -0.2671  0.8315  0.4233
  161MOL0     C22091   9.670   2.246   5.912 -0.4137  0.7133 -0.2485
  161MOL0     C22092   9.611   2.256   6.062 -0.4292 -0.3747  0.4901
  161MOL0     C22093   9.636   2.379   6.152 -0.6518  0.7483 -0.1711
  161MOL0     C22094   9.573   2.505   6.086  0.3623  0.6797  0.0081
  161MOL0     C22095   9.425   2.521   6.091 -0.6182 -0.1550  0.2464
  161MOL0     C22096   9.375   2.582   6.218  0.3081  0.2945 -0.1320
  161MOL0     N22097   9.225   2.587   6.231 -0.2460  0.8228 -0.1876
  161MOL0     C22098   9.138   2.682   6.178  0.6234  0.3479  0.3129
  161MOL0     C22099   9.013   2.654   6.227  0.3591  0.9761  0.3153
  161MOL0     C22100   8.887   2.735   6.228 -0.7251  0.6834 -0.3281
  161MOL0     C22101   8.809   2.711   6.097 -0.0799 -0.1971 -1.3575
  161MOL0     C22102   8.731   2.845   6.068 -0.4959  0.0994 -1.0038
  161MOL0     C22103   8.642   2.825   5.946 -0.1985 -0.9080  0.8807
  161MOL0     O22104   8.706   2.838   5.816  0.1285 -0.0311 -1.0389
  161MOL0     C22105   8.761   2.958   5.773  1.2012  0.1785 -0.3843
  161MOL0     C22106   8.842   2.956   5.658 -0.1066  0.4644 -0.5669
  161MOL0     C22107   8.911   3.068   5.619  0.1189  0.1812 -0.4039
  161MOL0     C22108   9.005   3.045   5.501 -0.1396  0.8406 -0.6061
  161MOL0     C22109   8.876   3.197   5.678 -0.0671  0.3700  0.4625
  161MOL0     C22110   8.948   3.320   5.649 -0.4036  0.0662  0.6135
  161MOL0     O22111   8.887   3.437   5.688 -0.9388 -0.1601  0.6098
  161MOL0     C22112   8.938   3.555   5.657  0.2397  0.0717  0.6697
  161MOL0     C22113   8.841   3.646   5.607  0.5642  0.4478 -0.1153
  161MOL0     C22114   8.883   3.774   5.573  0.4864 -0.2381 -0.4688
  161MOL0     C22115   9.022   3.817   5.580  0.4478 -0.0742 -0.9322
  161MOL0     O22116   9.064   3.949   5.539 -0.0352 -0.0810 -1.0311
  161MOL0     C22117   8.977   4.022   5.449  0.7354  0.5132  0.5067
  161MOL0     C22118   9.051   4.139   5.392  0.2487 -0.2933 -0.2013
  161MOL0     C22119   8.966   4.231   5.301 -0.1863 -0.0329  0.3009
  161MOL0     C22120   8.943   4.151   5.172 -0.2173 -0.4380  0.4428
  161MOL0     C22121   8.869   4.241   5.070  0.1792 -0.3027 -0.7852
  161MOL0     C22122   8.806   4.155   4.948 -0.0770 -0.1625 -0.3224
  161MOL0     C22123   8.888   4.036   4.905  0.1520  0.7616 -0.3782
  161MOL0     C22124   8.859   3.984   4.771 -0.0340  0.5838  0.6673
  161MOL0    Cl22125   8.870   4.095   4.638  0.1509 -0.4527  0.4686
  161MOL0     C22126   9.115   3.717   5.626  0.4312 -0.8832 -0.0787
  161MOL0     C22127   9.073   3.594   5.669  0.9586  0.3575  0.7335
  161MOL0     O22128   9.058   3.316   5.584  0.1632  0.6299 -0.4828
  161MOL0     C22129   8.779   3.205   5.785 -0.2613  0.9975  0.0759
  161MOL0     C22130   8.736   3.086   5.835 -0.1958  0.4123 -0.0362
  161MOL0     N22131   9.025   2.535   6.297  0.7042  0.6945 -0.0726
  161MOL0     N22132   9.145   2.492   6.299  0.3956 -0.0530  0.8304
  161MOL0     C22133  10.044   2.596   5.685  0.5631 -0.3345 -0.7089
  161MOL0     C22134  10.125   2.657   5.584 -0.2178 -0.1181 -0.7137
  161MOL0     C22135  10.504   2.810   5.394  0.3641  0.0707 -0.0740
  161MOL0     C22136  10.645   2.808   5.414 -0.6679  0.7427  0.2199
  161MOL0     C22137  10.719   2.877   5.312 -1.2243 -0.3005  0.3335
  161MOL0     C22138  10.665   2.949   5.205 -0.1425  1.1204  0.9422
  161MOL0     O22139  10.760   3.009   5.116  0.3105  0.2318 -0.8009
  161MOL0     C22140  10.705   3.059   4.997 -0.3492  0.6230 -0.7959
  161MOL0     C22141  10.826   3.138   4.939  1.3662  0.3829  0.3227
  161MOL0     C22142  10.905   3.038   4.859 -0.0166  0.3737  0.2857
  161MOL0     C22143  11.040   3.092   4.815  0.0754 -0.0040 -0.3719
  161MOL0     C22144  11.131   2.986   4.761 -0.1083 -0.7291 -0.4261
  161MOL0     C22145  11.203   2.915   4.696 -0.6574  0.0430  0.2217
  161MOL0     C22146  10.529   2.954   5.193  0.1174  0.3723 -0.5373
  161MOL0     C22147  10.441   2.895   5.293 -0.2917 -0.0545  0.2911
  161MOL0     C22148  10.291   2.916   5.276  0.2679  0.0416  0.4039
  161MOL0     H22149  10.334   2.413   5.510  0.9721  2.8987 -0.3408
  161MOL0     H22150  10.208   2.293   5.688  2.7470  0.1547 -3.5955
  161MOL0     H22151   9.823   2.408   5.729 -1.5629  0.4166  0.9918
  161MOL0     H22152   9.835   2.469   5.897  2.7148  0.5359  2.0847
  161MOL0     H22153   9.849   2.173   5.837  2.4964  0.6738  1.4656
  161MOL0     H22154   9.868   2.241   6.001  0.6023  0.7769  0.0668
  161MOL0     H22155   9.622   2.318   5.844 -3.5644  1.1289  2.1752
  161MOL0     H22156   9.633   2.152   5.872 -0.2369  1.2799 -1.8109
  161MOL0     H22157   9.505   2.233   6.049 -0.3453 -0.3128 -0.3281
  161MOL0     H22158   9.665   2.169   6.101  1.2283 -1.0212 -2.9014
  161MOL0     H22159   9.744   2.399   6.162  0.0215 -3.1679  3.4179
  161MOL0     H22160   9.581   2.358   6.244 -2.6589 -0.4853 -1.5686
  161MOL0     H22161   9.616   2.591   6.138  0.6634  0.4958  0.0674
  161MOL0     H22162   9.603   2.514   5.981 -0.8214 -2.7915 -0.7628
  161MOL0     H22163   9.382   2.423   6.069 -5.1360  1.6661 -0.1877
  161MOL0     H22164   9.381   2.580   6.010 -1.1060 -0.4514  0.2918
  161MOL0     H22165   9.406   2.516   6.299  1.4837 -0.3264 -1.0501
  161MOL0     H22166   9.418   2.682   6.226  1.0896 -0.0330 -0.1006
  161MOL0     H22167   9.161   2.766   6.114  0.6381 -0.6980 -1.1194
  161MOL0     H22168   8.921   2.838   6.240  3.0887 -0.5659  1.0117
  161MOL0     H22169   8.826   2.720   6.318 -0.2247 -4.4407 -0.5406
  161MOL0     H22170   8.876   2.694   6.012 -0.7033 -4.7278 -1.1629
  161MOL0     H22171   8.751   2.619   6.100  2.1624 -1.6809 -0.5787
  161MOL0     H22172   8.665   2.872   6.150  1.4097 -0.1010  0.6833
  161MOL0     H22173   8.800   2.929   6.055 -0.0375 -0.4887 -2.6628
  161MOL0     H22174   8.581   2.736   5.957 -2.4329  0.4024 -0.1580
  161MOL0     H22175   8.574   2.911   5.945  0.8299 -0.0609  0.8410
  161MOL0     H22176   8.866   2.858   5.619 -0.1723  0.8908 -1.7313
  161MOL0     H22177   9.107   3.071   5.529  1.1155 -3.0387 -1.0776
  161MOL0     H22178   8.964   3.099   5.415 -0.4471 -5.1455 -4.8510
  161MOL0     H22179   9.004   2.940   5.472  1.6454  0.1931  1.4534
  161MOL0     H22180   8.744   3.600   5.593  1.1664 -0.6150 -0.9251
  161MOL0     H22181   8.801   3.834   5.534 -0.8701 -1.4145  0.4970
  161MOL0     H22182   8.945   3.949   5.374  0.5579 -0.8007  1.8320
  161MOL0     H22183   8.888   4.038   5.509 -1.0657  0.3672 -1.9739
  161MOL0     H22184   9.072   4.209   5.473  0.1920  0.0184 -0.4550
  161MOL0     H22185   9.142   4.100   5.346  0.8654 -0.4718  1.1398
  161MOL0     H22186   9.024   4.321   5.279 -0.6837  0.1320 -0.3746
  161MOL0     H22187   8.872   4.265   5.345 -0.9771 -1.4766 -0.2059
  161MOL0     H22188   8.887   4.058   5.186 -0.4450 -0.8005 -2.3885
  161MOL0     H22189   9.038   4.122   5.126 -1.8465 -1.2770 -2.6047
  161MOL0     H22190   8.784   4.294   5.114  1.6250  0.0826  1.7005
  161MOL0     H22191   8.946   4.306   5.027  0.9573  0.6449  1.8403
  161MOL0     H22192   8.808   4.221   4.861  3.4981 -1.5314 -1.4372
  161MOL0     H22193   8.705   4.120   4.972  0.8625 -2.3425  0.7806
  161MOL0     H22194   8.881   3.954   4.977  2.1652 -0.3605 -1.3889
  161MOL0     H22195   8.995   4.059   4.905 -0.0764  1.9237 -0.5799
  161MOL0     H22196   8.762   3.935   4.765 -0.4196  1.3582  0.4907
  161MOL0     H22197   8.937   3.909   4.757  0.0614  0.3474  2.2550
  161MOL0     H22198   9.218   3.751   5.628  0.2612 -0.3624  0.5627
  161MOL0     H22199   9.146   3.518   5.696 -2.1929 -2.4786  1.9198
  161MOL0     H22200   8.751   3.294   5.841  2.9620  1.1021  1.8067
  161MOL0     H22201   8.675   3.090   5.925  0.9994 -0.5726  0.8444
  161MOL0     H22202   9.966   2.653   5.734 -0.2118 -1.2750 -0.8210
  161MOL0     H22203  10.108   2.760   5.554 -3.0794 -0.1172  0.5530
  161MOL0     H22204  10.696   2.755   5.494  2.0542  0.7843 -1.3657
  161MOL0     H22205  10.827   2.887   5.316 -0.8691 -2.9681 -0.6456
  161MOL0     H22206  10.664   2.980   4.934  1.1235 -0.7177 -0.1612
  161MOL0     H22207  10.631   3.137   5.013 -1.1374  0.1271 -1.8833
  161MOL0     H22208  10.893   3.173   5.018  0.9380  0.4940  0.6420
  161MOL0     H22209  10.787   3.223   4.882 -1.4115  0.2950  1.9262
  161MOL0     H22210  10.920   2.938   4.901  0.1491 -0.0587 -0.7521
  161MOL0     H22211  10.846   3.017   4.769 -1.4257  0.1375  1.2341
  161MOL0     H22212  11.089   3.138   4.901 -1.6999  4.0612 -1.2975
  161MOL0     H22213  11.025   3.166   4.736 -1.8924  1.4604  1.2542
  161MOL0     H22214  11.254   2.835   4.646 -0.7381  0.0820  0.0760
  161MOL0     H22215  10.476   3.011   5.117 -2.7310  1.4895  2.0816
  161MOL0     H22216  10.271   3.003   5.214  1.6155 -1.1277 -1.7771
  161MOL0     H22217  10.237   2.840   5.220 -0.4357 -0.5320  1.7982
  161MOL0     H22218  10.248   2.916   5.377  0.6551  1.8354  0.6002
  162MOL0     O22219   1.066   1.642   5.556 -1.1523  0.1307 -0.2677
  162MOL0     C22220   1.031   1.608   5.443  0.3380  1.3715 -0.5819
  162MOL0     O22221   1.064   1.492   5.381 -0.4448  1.0807  0.4277
  162MOL0     C22222   1.158   1.411   5.443  0.7735 -0.4424 -1.7407
  162MOL0     C22223   1.134   1.268   5.455  0.7737 -0.1177  0.6294
  162MOL0     C22224   1.223   1.180   5.503  0.0233  0.9570  0.6952
  162MOL0     C22225   1.350   1.220   5.540  0.3783 -0.1895  0.0524
  162MOL0     O22226   1.441   1.139   5.593 -0.4286  0.0552 -0.2901
  162MOL0     C22227   1.422   0.997   5.623  0.0614  0.7239  0.6779
  162MOL0     C22228   1.548   0.970   5.704 -0.7636 -0.2587 -0.7054
  162MOL0     C22229   1.563   0.819   5.737  0.1367  0.0749 -0.6026
  162MOL0     C22230   1.692   0.791   5.805 -1.0197  1.0024 -0.5623
  162MOL0     C22231   1.728   0.642   5.797 -0.5140 -0.0367 -0.3044
  162MOL0     C22232   1.858   0.606   5.875 -0.1287 -0.0379  0.5892
  162MOL0     C22233   1.877   0.460   5.900 -0.4694  0.5650 -0.3978
  162MOL0     C22234   1.897   0.383   5.772  0.1864 -0.2195  0.5647
  162MOL0     N22235   1.927   0.242   5.799 -0.2396  0.6928 -0.4450
  162MOL0     C22236   2.048   0.184   5.790  0.1687  0.3575 -0.3543
  162MOL0     C22237   2.030   0.066   5.855  0.1009  0.3569 -0.0869
  162MOL0     C22238   2.124  -0.049   5.882 -0.0341 -0.6582  1.2918
  162MOL0     C22239   2.211  -0.027   6.006  0.6523  0.9829  0.3913
  162MOL0     C22240   2.286  -0.163   6.035  0.5742 -0.4438  0.2856
  162MOL0     C22241   2.405  -0.132   6.126 -0.6151  0.6604  0.5129
  162MOL0     O22242   2.457  -0.260   6.179 -0.0094  0.4716  0.6384
  162MOL0     C22243   2.573  -0.264   6.258  0.1863  0.1595  0.3029
  162MOL0     C22244   2.666  -0.158   6.269 -0.9698 -0.4959 -0.4711
  162MOL0     C22245   2.797  -0.176   6.323 -0.4077 -0.3251 -0.8866
  162MOL0     C22246   2.887  -0.055   6.345 -0.0552  0.5636 -0.4908
  162MOL0     C22247   2.835  -0.306   6.369  0.1867  0.3010  0.6674
  162MOL0     C22248   2.970  -0.348   6.416  0.0426  0.4223  0.2621
  162MOL0     O22249   3.081  -0.270   6.406  0.6441 -0.2602 -0.7517
  162MOL0     C22250   3.197  -0.312   6.454 -0.9915 -0.9209 -0.2154
  162MOL0     C22251   3.244  -0.442   6.477  0.6275 -0.5746 -0.1104
  162MOL0     C22252   3.364  -0.464   6.537  0.7978  0.4488  0.0047
  162MOL0     C22253   3.450  -0.361   6.586  0.1118  0.1145  1.2475
  162MOL0     O22254   3.570  -0.375   6.635 -0.0246  0.4480  0.2228
  162MOL0     C22255   3.626  -0.504   6.642 -0.2513  0.4624 -0.1246
  162MOL0     C22256   3.775  -0.492   6.685 -0.0917  0.1231 -0.6997
  162MOL0     C22257   3.868  -0.602   6.635 -0.3149  0.7135 -0.5774
  162MOL0     C22258   4.005  -0.569   6.693  0.5765  0.0496  0.5874
  162MOL0     C22259   4.113  -0.671   6.648 -0.5659  1.1589  0.9308
  162MOL0     C22260   4.109  -0.819   6.689  0.1045  0.7772  0.2394
  162MOL0     C22261   4.228  -0.882   6.622 -0.2433 -0.1660 -0.5377
  162MOL0     C22262   4.251  -1.029   6.656  0.3768  0.5803  0.0324
  162MOL0    Cl22263   4.306  -1.043   6.824  0.3823 -0.1980 -0.1748
  162MOL0     C22264   3.414  -0.228   6.562 -0.0004  0.7882  0.5525
  162MOL0     C22265   3.292  -0.214   6.496  1.4758 -1.0579 -0.6571
  162MOL0     O22266   2.967  -0.448   6.483 -0.0223 -0.1533  0.4462
  162MOL0     C22267   2.734  -0.406   6.363 -0.1140  0.8266  0.1133
  162MOL0     C22268   2.609  -0.390   6.310  0.2081 -0.1567 -0.8653
  162MOL0     N22269   1.898   0.059   5.901  0.1065  0.2401  0.5975
  162MOL0     N22270   1.833   0.163   5.850 -0.4696 -0.2613 -0.0976
  162MOL0     C22271   1.384   1.357   5.528  0.0984  0.7501 -0.1914
  162MOL0     C22272   1.291   1.455   5.478  0.1635  0.0197  0.1252
  162MOL0     C22273   0.931   1.695   5.368 -0.4684  0.4073 -1.2291
  162MOL0     C22274   0.916   1.666   5.231 -0.1390  0.3396  0.8074
  162MOL0     C22275   0.838   1.738   5.147  0.0945 -0.0517  0.4597
  162MOL0     C22276   0.760   1.845   5.190  0.2099 -0.6457 -0.4785
  162MOL0     O22277   0.680   1.936   5.114  0.1975  0.2559  0.3874
  162MOL0     C22278   0.609   1.896   4.997  0.4728 -0.1087  0.3741
  162MOL0     C22279   0.509   1.790   5.033  0.7639  0.8977 -0.3031
  162MOL0     C22280   0.377   1.804   4.952 -0.2131  1.3977 -0.1329
  162MOL0     C22281   0.285   1.679   4.967  0.0067  0.5869 -0.2272
  162MOL0     C22282   0.228   1.680   5.102  0.2627 -1.0321 -0.0690
  162MOL0     C22283   0.172   1.693   5.209  0.8839  0.3069  0.3450
  162MOL0     C22284   0.752   1.868   5.326 -0.4705  0.2640  0.3811
  162MOL0     C22285   0.850   1.801   5.416  0.4233 -0.9280  0.9009
  162MOL0     C22286   0.867   1.857   5.554 -0.0606 -0.7992 -0.9538
  162MOL0     H22287   1.041   1.228   5.418  0.1052  1.7711  0.1794
  162MOL0     H22288   1.205   1.073   5.495  0.0234  0.9585  0.6740
  162MOL0     H22289   1.417   0.940   5.530  0.9047  0.1880  0.9461
  162MOL0     H22290   1.331   0.989   5.682 -0.5549  1.5741 -0.1217
  162MOL0     H22291   1.630   1.009   5.644 -0.8455  1.0249 -0.0047
  162MOL0     H22292   1.546   1.024   5.799  1.7017  0.2582 -0.8917
  162MOL0     H22293   1.479   0.785   5.799  0.3259 -2.5084 -1.6299
  162MOL0     H22294   1.560   0.761   5.644 -2.6398  0.6921 -0.9938
  162MOL0     H22295   1.774   0.844   5.756  3.1199 -3.3882  0.8411
  162MOL0     H22296   1.694   0.823   5.909 -0.3199 -0.3582 -0.1311
  162MOL0     H22297   1.748   0.625   5.690  5.2717 -1.4871  0.6748
  162MOL0     H22298   1.642   0.586   5.833 -0.2751  0.4777  1.1182
  162MOL0     H22299   1.943   0.636   5.812  2.7170 -2.6465  2.8771
  162MOL0     H22300   1.863   0.657   5.972  0.4200  2.5898 -0.7090
  162MOL0     H22301   1.793   0.429   5.962 -2.0605  3.8517 -0.6820
  162MOL0     H22302   1.966   0.445   5.962 -0.7333  0.0172 -0.1522
  162MOL0     H22303   1.814   0.394   5.703 -1.6641  0.3311  2.7737
  162MOL0     H22304   1.987   0.407   5.714 -0.4074 -1.7082 -1.0635
  162MOL0     H22305   2.141   0.226   5.751 -0.3745  2.3642  0.3769
  162MOL0     H22306   2.187  -0.057   5.792  1.9798  2.2340  2.2967
  162MOL0     H22307   2.050  -0.129   5.885 -1.8755  0.7125 -1.8032
  162MOL0     H22308   2.284   0.053   5.990  2.5289 -0.8390 -0.7041
  162MOL0     H22309   2.145  -0.004   6.089  0.8070  1.3807  0.4054
  162MOL0     H22310   2.213  -0.240   6.065 -1.9444 -0.1765 -4.2075
  162MOL0     H22311   2.325  -0.204   5.942  2.0749 -1.5327  1.3456
  162MOL0     H22312   2.483  -0.068   6.083  1.7834 -3.2963 -1.6537
  162MOL0     H22313   2.362  -0.072   6.206 -1.6361 -1.5759  1.7482
  162MOL0     H22314   2.638  -0.057   6.237 -2.2053 -1.4288 -2.5543
  162MOL0     H22315   2.939  -0.067   6.441 -1.3665  0.6384  0.2689
  162MOL0     H22316   2.821   0.032   6.358  0.8272  0.9106  2.5932
  162MOL0     H22317   2.959  -0.039   6.265  0.8898 -1.9251 -0.2194
  162MOL0     H22318   3.182  -0.528   6.458  0.8982 -1.1805  1.5937
  162MOL0     H22319   3.381  -0.568   6.563 -2.1683  0.2839  1.7082
  162MOL0     H22320   3.568  -0.573   6.703  1.2106  0.1475  0.9879
  162MOL0     H22321   3.620  -0.551   6.543  0.3666  0.1388 -0.0181
  162MOL0     H22322   3.810  -0.398   6.642 -1.1065 -0.1182 -2.1590
  162MOL0     H22323   3.787  -0.490   6.793  1.2589 -0.3739 -0.8231
  162MOL0     H22324   3.864  -0.601   6.526  1.7952 -3.0245 -0.8295
  162MOL0     H22325   3.822  -0.697   6.664 -3.3855  2.2901  0.2416
  162MOL0     H22326   4.000  -0.577   6.802 -1.8221 -3.3122  0.3684
  162MOL0     H22327   4.043  -0.471   6.664  1.1041 -0.3389 -0.0537
  162MOL0     H22328   4.098  -0.667   6.540  0.4800  0.2948  0.7440
  162MOL0     H22329   4.209  -0.622   6.665 -0.4850  0.9162  1.1750
  162MOL0     H22330   4.021  -0.871   6.651  2.6305 -1.8399 -2.6762
  162MOL0     H22331   4.128  -0.830   6.796 -0.6580  2.9880  0.6497
  162MOL0     H22332   4.315  -0.829   6.662  0.6409 -1.7192 -0.3388
  162MOL0     H22333   4.221  -0.879   6.513 -0.4420 -0.9524 -0.5555
  162MOL0     H22334   4.334  -1.076   6.603  0.7216  1.3949 -0.1517
  162MOL0     H22335   4.165  -1.094   6.637  1.6421 -1.0340 -0.4374
  162MOL0     H22336   3.470  -0.143   6.599 -0.5474  0.3023  2.6174
  162MOL0     H22337   3.266  -0.109   6.480  0.8701 -1.2109 -0.7025
  162MOL0     H22338   2.760  -0.505   6.400  2.9019  1.6878  0.5666
  162MOL0     H22339   2.552  -0.482   6.297 -0.5730  0.3518 -1.1161
  162MOL0     H22340   1.487   1.385   5.550  0.0274  2.4191 -1.7875
  162MOL0     H22341   1.320   1.559   5.470  0.1466 -0.0470 -1.1144
  162MOL0     H22342   0.965   1.581   5.184 -1.7550 -0.9171  1.3326
  162MOL0     H22343   0.841   1.706   5.043 -0.8576 -0.4017  0.5370
  162MOL0     H22344   0.549   1.981   4.964 -0.0598  0.4355  2.5609
  162MOL0     H22345   0.679   1.857   4.923 -0.4870 -1.7460  0.2738
  162MOL0     H22346   0.483   1.802   5.138 -1.1158  1.0070 -0.7317
  162MOL0     H22347   0.556   1.692   5.017  1.2573  0.8179  1.4597
  162MOL0     H22348   0.327   1.895   4.985  0.4857  1.3446  1.1615
  162MOL0     H22349   0.405   1.821   4.848 -0.1470 -3.6835 -1.2148
  162MOL0     H22350   0.342   1.588   4.945  1.2400  1.6847 -1.8198
  162MOL0     H22351   0.205   1.683   4.892  0.7847  0.0127 -1.1136
  162MOL0     H22352   0.127   1.700   5.306 -0.0625  0.4569 -0.0906
  162MOL0     H22353   0.693   1.954   5.355  1.4211  2.4536 -1.7281
  162MOL0     H22354   0.788   1.923   5.592  0.8124  0.0238 -0.5013
  162MOL0     H22355   0.878   1.780   5.631  2.4614  0.4082  0.0362
  162MOL0     H22356   0.958   1.918   5.565 -1.0677  0.2756  3.4386
  163MOL0     O22357   5.982   7.027  10.225 -0.6139 -0.1041 -0.0031
  163MOL0     C22358   6.082   7.069  10.158  0.7567 -0.8261 -0.4632
  163MOL0     O22359   6.141   7.189  10.187  0.2406  0.2404  0.1786
  163MOL0     C22360   6.136   7.220  10.324 -0.3574 -0.2180  0.7498
  163MOL0     C22361   6.019   7.268  10.395 -0.2884  0.3097 -0.1315
  163MOL0     C22362   6.029   7.301  10.533 -0.6162 -0.2708 -0.5008
  163MOL0     C22363   6.140   7.246  10.596  0.3560  0.2823  0.5876
  163MOL0     O22364   6.130   7.253  10.735 -0.8401 -0.2826 -0.4787
  163MOL0     C22365   6.174   7.139  10.805 -0.9778  0.0654 -1.1264
  163MOL0     C22366   6.169   7.170  10.952  0.4946 -0.0973  0.4302
  163MOL0     C22367   6.195   7.048  11.044  1.0040  0.4028 -0.0085
  163MOL0     C22368   6.255   7.091  11.184 -0.0647  0.1409  1.0339
  163MOL0     C22369   6.405   7.087  11.187 -0.0129 -0.9252 -0.4801
  163MOL0     C22370   6.458   7.194  11.292  0.7354 -0.3489  0.5052
  163MOL0     C22371   6.559   7.142  11.396  0.0329 -0.4988 -0.1215
  163MOL0     C22372   6.581   7.250  11.491  0.5530 -0.0958 -0.3002
  163MOL0     N22373   6.702   7.202  11.575  0.0881  1.4377  0.0520
  163MOL0     C22374   6.834   7.186  11.535  0.3063 -0.3572  0.2226
  163MOL0     C22375   6.894   7.156  11.650 -0.0896  0.5335 -0.5382
  163MOL0     C22376   7.029   7.105  11.681 -1.0428  0.4110  0.2638
  163MOL0     C22377   7.069   6.964  11.624  0.3089  1.0916  0.6026
  163MOL0     C22378   7.219   6.926  11.624 -0.3489  1.0460  0.1104
  163MOL0     C22379   7.249   6.818  11.738 -0.0205 -0.0414  0.0466
  163MOL0     O22380   7.391   6.803  11.726  0.2405  0.4296 -0.4906
  163MOL0     C22381   7.444   6.719  11.637  0.2227  0.5421 -0.8599
  163MOL0     C22382   7.379   6.646  11.533 -0.1574  0.0959 -0.7512
  163MOL0     C22383   7.441   6.557  11.455  0.6241  0.5463 -0.7763
  163MOL0     C22384   7.353   6.471  11.355  0.0449  0.4416  0.2420
  163MOL0     C22385   7.582   6.533  11.471 -0.2422  0.8382  0.3765
  163MOL0     C22386   7.667   6.460  11.378 -0.9660  0.3328 -0.0693
  163MOL0     O22387   7.809   6.485  11.382 -0.5923  0.5493  0.1527
  163MOL0     C22388   7.879   6.427  11.281  0.3714 -0.5564 -0.3271
  163MOL0     C22389   7.882   6.480  11.154 -0.8909  0.2802 -0.8202
  163MOL0     C22390   7.949   6.411  11.056 -0.5794 -0.7233 -0.7746
  163MOL0     C22391   8.036   6.313  11.083  0.7452 -0.4775 -0.2492
  163MOL0     O22392   8.113   6.241  10.998 -0.1757 -0.2026 -0.1131
  163MOL0     C22393   8.133   6.278  10.861  0.2515 -0.5414 -0.1764
  163MOL0     C22394   8.208   6.155  10.810  0.5706  0.1324 -0.0732
  163MOL0     C22395   8.348   6.148  10.873 -1.0184 -0.0777 -0.7884
  163MOL0     C22396   8.357   6.047  10.985  1.0217  0.2533  0.0062
  163MOL0     C22397   8.497   6.014  11.018 -0.8324  0.1754  0.5184
  163MOL0     C22398   8.550   6.132  11.112  0.3556  0.7324  0.4124
  163MOL0     C22399   8.689   6.110  11.145  0.3792  0.3986  0.5569
  163MOL0     C22400   8.783   6.129  11.030  0.0580 -0.2653 -0.4346
  163MOL0    Cl22401   8.775   6.299  10.958  0.3480  0.3370  0.2506
  163MOL0     C22402   8.037   6.258  11.211 -0.0312 -0.0382  0.0586
  163MOL0     C22403   7.960   6.318  11.312 -0.0062  0.5020 -0.5503
  163MOL0     O22404   7.616   6.385  11.301  0.6585 -1.2215 -0.2641
  163MOL0     C22405   7.633   6.603  11.579 -0.7708 -0.8598  0.7681
  163MOL0     C22406   7.578   6.701  11.659  0.7776 -0.6356  0.9343
  163MOL0     N22407   6.797   7.163  11.751 -0.0229  1.1516 -0.1680
  163MOL0     N22408   6.684   7.193  11.714  0.5143  0.1419 -0.0844
  163MOL0     C22409   6.260   7.197  10.529  0.8552  0.8682 -0.8513
  163MOL0     C22410   6.259   7.179  10.393  0.5326 -0.7987  0.5413
  163MOL0     C22411   6.151   6.997  10.046  0.1208 -0.0608 -0.4829
  163MOL0     C22412   6.245   7.072   9.969 -0.1244 -0.1855  0.5584
  163MOL0     C22413   6.316   7.009   9.864  0.0688  1.3197 -0.5284
  163MOL0     C22414   6.304   6.875   9.841  0.9666  0.0236 -0.6206
  163MOL0     O22415   6.361   6.811   9.737  0.2159  0.3834  0.2512
  163MOL0     C22416   6.306   6.850   9.610  0.2961  0.4210 -0.4810
  163MOL0     C22417   6.412   6.881   9.507 -0.0799  0.5078  0.1697
  163MOL0     C22418   6.465   6.771   9.410  0.7381 -1.1361 -0.5365
  163MOL0     C22419   6.528   6.652   9.495 -0.3794 -0.5119 -0.4808
  163MOL0     C22420   6.488   6.509   9.475 -0.1870 -0.6677  0.0879
  163MOL0     C22421   6.435   6.401   9.466 -0.5606 -0.2123  0.3725
  163MOL0     C22422   6.207   6.806   9.916  0.4578  0.0856  0.9471
  163MOL0     C22423   6.137   6.860  10.021 -0.4640  0.3234 -0.2571
  163MOL0     C22424   6.064   6.756  10.106  1.2803  0.4179  0.3861
  163MOL0     H22425   5.931   7.313  10.350  0.3422  2.6461  0.8202
  163MOL0     H22426   5.941   7.346  10.578 -1.1266 -0.8275 -0.9249
  163MOL0     H22427   6.274   7.109  10.772 -2.4021 -3.1001 -2.9842
  163MOL0     H22428   6.108   7.057  10.777 -1.2982  0.2245 -0.8438
  163MOL0     H22429   6.242   7.249  10.973  0.0844  0.1896  0.7788
  163MOL0     H22430   6.069   7.203  10.979  1.0582 -0.2121  2.9283
  163MOL0     H22431   6.112   6.980  11.063 -0.9996  3.3264  2.7307
  163MOL0     H22432   6.279   6.999  10.994  0.1212 -0.1434 -0.9783
  163MOL0     H22433   6.222   7.194  11.196  0.9624  0.7792 -1.1716
  163MOL0     H22434   6.219   7.033  11.269  0.1136 -1.9972 -0.2729
  163MOL0     H22435   6.443   7.110  11.088 -1.8181 -1.7158 -1.4054
  163MOL0     H22436   6.441   6.984  11.200 -0.4652 -1.0153  0.1080
  163MOL0     H22437   6.504   7.269  11.228 -0.9237  1.0090  0.8194
  163MOL0     H22438   6.373   7.236  11.347  0.4645 -1.6889  1.1447
  163MOL0     H22439   6.651   7.101  11.354 -1.4578 -3.9860 -0.3150
  163MOL0     H22440   6.511   7.057  11.446 -0.3305  1.5652  3.3571
  163MOL0     H22441   6.605   7.344  11.440 -1.1834  2.5294  3.2889
  163MOL0     H22442   6.498   7.260  11.562 -1.2604 -0.6616 -2.2486
  163MOL0     H22443   6.870   7.196  11.433  0.8186  2.2739  0.5850
  163MOL0     H22444   7.050   7.086  11.786  0.5548  1.6040  0.1821
  163MOL0     H22445   7.094   7.184  11.642 -2.4520  1.8400  0.6942
  163MOL0     H22446   7.013   6.886  11.675  0.0917  0.8899  0.0690
  163MOL0     H22447   7.042   6.956  11.518  1.7445 -0.0062  0.2874
  163MOL0     H22448   7.261   6.881  11.533  4.5641 -1.9248  3.3386
  163MOL0     H22449   7.278   7.016  11.644  0.7998  0.9138 -2.2472
  163MOL0     H22450   7.220   6.868  11.831  1.6629  1.3138 -0.1050
  163MOL0     H22451   7.203   6.718  11.735 -1.7795  0.5525  2.9789
  163MOL0     H22452   7.271   6.644  11.532 -0.1579 -0.7333  0.1131
  163MOL0     H22453   7.248   6.502  11.362 -0.7389 -1.4256 -1.9151
  163MOL0     H22454   7.363   6.366  11.384 -0.8209 -0.0094 -0.9977
  163MOL0     H22455   7.373   6.482  11.248 -0.7409  0.1920  0.0645
  163MOL0     H22456   7.823   6.564  11.120  0.8736  2.1933  0.5710
  163MOL0     H22457   7.940   6.446  10.954 -1.0914 -0.1749 -0.5394
  163MOL0     H22458   8.040   6.277  10.803  1.0186 -0.7443 -1.4426
  163MOL0     H22459   8.194   6.369  10.852 -4.0052  2.6996  0.3115
  163MOL0     H22460   8.148   6.067  10.833 -4.1389  3.1581  0.6117
  163MOL0     H22461   8.212   6.166  10.701  0.8114  2.2997  0.1073
  163MOL0     H22462   8.384   6.246  10.908  1.6703 -1.1987 -0.1251
  163MOL0     H22463   8.416   6.129  10.790 -1.0322  1.2434 -1.1198
  163MOL0     H22464   8.305   5.956  10.954  0.4439 -0.2024  2.1820
  163MOL0     H22465   8.301   6.067  11.076 -1.7857  0.8347 -1.7502
  163MOL0     H22466   8.500   5.908  11.046 -1.0729 -0.5363 -1.8592
  163MOL0     H22467   8.559   6.018  10.928  0.6929  1.7103  1.5874
  163MOL0     H22468   8.488   6.134  11.202  0.2964 -3.6598  0.6865
  163MOL0     H22469   8.539   6.228  11.062 -0.1047 -0.2938 -1.5632
  163MOL0     H22470   8.697   6.012  11.192  1.2780  0.5233  0.6755
  163MOL0     H22471   8.713   6.180  11.225  1.6534 -1.2685  1.7065
  163MOL0     H22472   8.775   6.052  10.953 -1.9030  1.8697 -2.5335
  163MOL0     H22473   8.881   6.119  11.078 -0.9964 -0.0769  1.9227
  163MOL0     H22474   8.086   6.165  11.239 -1.5781 -1.0708 -0.5489
  163MOL0     H22475   7.970   6.270  11.409 -2.9809 -0.0432 -0.4307
  163MOL0     H22476   7.740   6.594  11.596  0.2774  0.9069 -3.6731
  163MOL0     H22477   7.636   6.759  11.730  0.5174 -0.5403  1.0691
  163MOL0     H22478   6.341   7.159  10.590 -0.5981  1.0907  1.3820
  163MOL0     H22479   6.340   7.138  10.334  1.7631  0.9997  0.8862
  163MOL0     H22480   6.257   7.179   9.985  2.0437 -0.3974  0.6913
  163MOL0     H22481   6.395   7.046   9.798  1.9766 -3.2210 -1.1925
  163MOL0     H22482   6.243   6.765   9.580  2.2889 -1.4419  0.3557
  163MOL0     H22483   6.240   6.937   9.605 -1.2041 -0.7096 -1.8597
  163MOL0     H22484   6.493   6.925   9.566 -0.4636  1.0151  0.3189
  163MOL0     H22485   6.364   6.954   9.442 -2.1249 -2.0381 -1.3901
  163MOL0     H22486   6.385   6.735   9.343 -0.8506 -3.7290  2.4922
  163MOL0     H22487   6.543   6.808   9.343  1.2904 -2.0512 -0.4091
  163MOL0     H22488   6.498   6.675   9.598 -0.6632  1.3795 -0.9476
  163MOL0     H22489   6.636   6.666   9.496 -0.5205  0.9210 -1.9252
  163MOL0     H22490   6.395   6.302   9.463 -0.8390 -0.0910 -0.4085
  163MOL0     H22491   6.188   6.700   9.901 -3.6095  0.8299 -0.5623
  163MOL0     H22492   6.054   6.656  10.063 -3.0129  1.9063 -2.8284
  163MOL0     H22493   6.100   6.747  10.209  0.8023 -0.7605  0.4726
  163MOL0     H22494   5.958   6.782  10.113  1.1692  0.8558 -2.1464
  164MOL0     O22495   5.041   0.526  10.057  0.3683 -0.8923 -0.2864
  164MOL0     C22496   4.991   0.576  10.159 -1.0724 -0.4191 -0.3429
  164MOL0     O22497   4.885   0.656  10.154  0.6580  0.1531 -0.6944
  164MOL0     C22498   4.805   0.657  10.040 -0.8837  0.0168 -0.2832
  164MOL0     C22499   4.671   0.633  10.058 -0.1051 -0.7491  0.2642
  164MOL0     C22500   4.588   0.638   9.947 -0.1311 -0.0855  0.3446
  164MOL0     C22501   4.633   0.676   9.818  0.0825 -0.4986  0.2863
  164MOL0     O22502   4.534   0.701   9.722  0.4137 -0.4842  0.4051
  164MOL0     C22503   4.569   0.683   9.590  1.2483  0.8732  0.7433
  164MOL0     C22504   4.463   0.685   9.486  0.3156  1.0269  0.7879
  164MOL0     C22505   4.428   0.827   9.457 -0.5347 -0.5771 -0.4671
  164MOL0     C22506   4.314   0.888   9.538 -0.8883  0.1419  0.2472
  164MOL0     C22507   4.277   1.025   9.489  0.1145 -0.3104 -0.8285
  164MOL0     C22508   4.227   1.040   9.341  0.1980  0.7867 -0.1986
  164MOL0     C22509   4.193   1.177   9.301 -0.3602 -0.5289 -0.1191
  164MOL0     C22510   4.161   1.195   9.141  0.9982  1.0302 -0.2208
  164MOL0     N22511   4.050   1.108   9.107 -0.1095  0.0257  0.6493
  164MOL0     C22512   4.045   0.982   9.057  0.0572 -0.1457  0.5458
  164MOL0     C22513   3.920   0.954   9.013  0.1326  0.5411 -0.5793
  164MOL0     C22514   3.868   0.835   8.933 -0.2233 -0.9268 -0.0678
  164MOL0     C22515   3.897   0.855   8.780  0.8423 -0.2709 -0.0538
  164MOL0     C22516   3.904   0.719   8.707  0.7760  0.1584 -0.2146
  164MOL0     C22517   3.954   0.747   8.571 -0.0563  0.0908 -0.2707
  164MOL0     O22518   3.912   0.629   8.495  0.2114 -0.7115 -0.6941
  164MOL0     C22519   3.969   0.617   8.367 -0.3326 -0.4573 -0.1776
  164MOL0     C22520   3.951   0.495   8.300 -1.0169 -0.1382 -0.4140
  164MOL0     C22521   4.001   0.476   8.171  0.4248 -0.0404  0.4903
  164MOL0     C22522   3.999   0.329   8.117  0.3770 -1.5833 -0.2635
  164MOL0     C22523   4.052   0.589   8.100  0.4905  0.0783  0.4532
  164MOL0     C22524   4.106   0.588   7.957  1.2754  0.0041  0.5023
  164MOL0     O22525   4.137   0.698   7.895 -0.3245  0.2312 -0.6382
  164MOL0     C22526   4.184   0.681   7.772  1.1106 -0.5987  0.2446
  164MOL0     C22527   4.309   0.610   7.764  0.8975 -0.1599  0.6747
  164MOL0     C22528   4.363   0.583   7.631  0.3581 -0.2306 -0.4692
  164MOL0     C22529   4.307   0.655   7.526 -0.3938 -0.2873  0.3440
  164MOL0     O22530   4.386   0.640   7.409  0.5417 -0.2703  0.5145
  164MOL0     C22531   4.323   0.653   7.285 -1.0683 -1.0269  0.0043
  164MOL0     C22532   4.252   0.530   7.251 -0.9575 -0.8677  0.4582
  164MOL0     C22533   4.346   0.409   7.270  0.7606 -0.5302  0.0781
  164MOL0     C22534   4.282   0.271   7.225 -0.5631 -0.2291 -0.2585
  164MOL0     C22535   4.385   0.160   7.238 -0.0637  0.9586 -0.6949
  164MOL0     C22536   4.319   0.024   7.209  0.5009  0.2768 -0.0715
  164MOL0     C22537   4.425  -0.085   7.220  0.4711  0.5089 -0.0600
  164MOL0     C22538   4.485  -0.110   7.358 -0.6001  0.3861  0.0784
  164MOL0    Cl22539   4.580  -0.255   7.333 -0.4178  0.0957  0.3258
  164MOL0     C22540   4.178   0.717   7.542  0.4186  0.8221 -0.1334
  164MOL0     C22541   4.125   0.739   7.662 -0.3106  0.7383 -0.2659
  164MOL0     O22542   4.095   0.475   7.908 -0.2388 -0.2565 -0.4393
  164MOL0     C22543   4.076   0.708   8.172  0.4210 -0.4128 -0.0418
  164MOL0     C22544   4.015   0.729   8.297 -0.2809  1.0961  0.5890
  164MOL0     N22545   3.853   1.073   9.040  0.3061 -0.2631  0.5812
  164MOL0     N22546   3.920   1.145   9.110  0.6373 -0.5677 -0.1963
  164MOL0     C22547   4.773   0.698   9.801 -0.0878 -0.4146  0.1041
  164MOL0     C22548   4.852   0.696   9.913 -0.0318 -0.5805 -0.5563
  164MOL0     C22549   5.059   0.555  10.293  0.1008  0.8962 -1.0974
  164MOL0     C22550   4.994   0.599  10.406 -0.3545  0.0118  0.3318
  164MOL0     C22551   5.042   0.581  10.533 -0.8402 -0.0444 -0.4368
  164MOL0     C22552   5.166   0.509  10.555  0.1536  0.8961  0.8837
  164MOL0     O22553   5.222   0.480  10.674  0.3174 -0.3350 -0.3967
  164MOL0     C22554   5.141   0.511  10.793  0.6633 -0.5051  0.0059
  164MOL0     C22555   5.214   0.449  10.917 -0.0714  0.0193 -0.5404
  164MOL0     C22556   5.138   0.474  11.046 -0.1239  0.5914 -0.0306
  164MOL0     C22557   5.168   0.375  11.163 -0.7463  0.7081 -0.4671
  164MOL0     C22558   5.304   0.356  11.198 -0.0248 -0.3383 -0.0526
  164MOL0     C22559   5.420   0.362  11.236  0.6250  0.4025 -1.1278
  164MOL0     C22560   5.232   0.466  10.440 -0.2838  0.1221 -0.0418
  164MOL0     C22561   5.187   0.492  10.309  0.4076  0.2255 -0.3561
  164MOL0     C22562   5.274   0.441  10.199 -0.4741  0.0374  0.0616
  164MOL0     H22563   4.628   0.629  10.158  2.3207  2.3310  1.5625
  164MOL0     H22564   4.483   0.617   9.966 -0.3589  1.3485  0.7436
  164MOL0     H22565   4.622   0.588   9.577  0.6740  0.8205 -1.8066
  164MOL0     H22566   4.646   0.757   9.564  0.8814  0.9258 -0.2356
  164MOL0     H22567   4.499   0.637   9.395 -2.8095 -1.1505  0.5256
  164MOL0     H22568   4.379   0.623   9.518 -1.0188  2.0982 -0.4836
  164MOL0     H22569   4.513   0.896   9.456 -1.3558  0.5160  1.0012
  164MOL0     H22570   4.401   0.824   9.351  3.7344 -2.8330 -1.7053
  164MOL0     H22571   4.229   0.823   9.513  1.4421 -2.6121 -1.1787
  164MOL0     H22572   4.323   0.871   9.646  1.2431  2.1827  0.4665
  164MOL0     H22573   4.362   1.092   9.503 -0.0598 -0.5219  1.6143
  164MOL0     H22574   4.196   1.071   9.545  1.5103  0.9822  0.2019
  164MOL0     H22575   4.298   1.005   9.266  0.9387 -2.5918  1.8858
  164MOL0     H22576   4.140   0.975   9.335  1.0162 -0.2130 -3.7013
  164MOL0     H22577   4.276   1.244   9.327  1.4699 -2.5460 -0.3978
  164MOL0     H22578   4.107   1.213   9.358  0.4666  1.3504  0.0291
  164MOL0     H22579   4.137   1.299   9.120  2.6158  1.7779  1.3604
  164MOL0     H22580   4.239   1.155   9.075 -0.9632 -1.4980 -1.1741
  164MOL0     H22581   4.133   0.918   9.049 -0.3920 -0.7265  0.0996
  164MOL0     H22582   3.759   0.827   8.933 -0.1058 -3.0678 -1.2013
  164MOL0     H22583   3.910   0.743   8.973  3.7619  1.8373  2.9855
  164MOL0     H22584   3.808   0.901   8.736 -0.7407 -1.5990  1.5901
  164MOL0     H22585   3.988   0.913   8.759 -0.1039  1.5604  0.6712
  164MOL0     H22586   3.972   0.668   8.776  0.8383  1.9622  1.1414
  164MOL0     H22587   3.805   0.673   8.703  0.4247  0.9360 -0.8437
  164MOL0     H22588   3.913   0.834   8.519  1.5451  0.0239 -1.7635
  164MOL0     H22589   4.063   0.756   8.581 -0.2210  0.1316  1.9573
  164MOL0     H22590   3.909   0.412   8.356 -0.9131  1.1489  1.6969
  164MOL0     H22591   4.090   0.298   8.065  0.4297 -1.4393 -0.2589
  164MOL0     H22592   3.921   0.328   8.041 -1.4801  1.7359  1.4180
  164MOL0     H22593   3.972   0.252   8.191 -0.8039 -1.1396 -0.2112
  164MOL0     H22594   4.359   0.581   7.856  0.8083  0.3847  0.8992
  164MOL0     H22595   4.443   0.511   7.614 -1.2745 -2.3317  0.2239
  164MOL0     H22596   4.256   0.739   7.287  0.4237  0.2612 -1.5826
  164MOL0     H22597   4.390   0.661   7.199 -2.0383  1.9439 -0.5982
  164MOL0     H22598   4.166   0.522   7.319  0.6200 -1.6105  2.4737
  164MOL0     H22599   4.215   0.539   7.149  1.2989 -0.4539 -0.3621
  164MOL0     H22600   4.372   0.401   7.375  0.7636  0.1839  0.1397
  164MOL0     H22601   4.437   0.417   7.209  1.0058  0.7491  0.5811
  164MOL0     H22602   4.245   0.288   7.123  3.6866  0.3490 -1.8885
  164MOL0     H22603   4.201   0.246   7.295 -0.6442  2.0705  0.5402
  164MOL0     H22604   4.453   0.179   7.154 -1.3503  1.9738 -1.5485
  164MOL0     H22605   4.436   0.153   7.335 -1.1825 -1.2405 -0.2161
  164MOL0     H22606   4.269   0.004   7.113  0.5595 -3.8423  0.5541
  164MOL0     H22607   4.242  -0.001   7.282  1.1023  0.7917  0.7513
  164MOL0     H22608   4.516  -0.068   7.162  0.5352  2.6727  0.5766
  164MOL0     H22609   4.376  -0.179   7.193  3.0364 -1.0838  0.5296
  164MOL0     H22610   4.397  -0.140   7.416 -0.0487 -3.8289 -0.9480
  164MOL0     H22611   4.545  -0.029   7.401 -2.9010  1.8910  0.6742
  164MOL0     H22612   4.115   0.765   7.468  1.2577  2.4938  0.1950
  164MOL0     H22613   4.034   0.797   7.661 -0.0272  1.1919  0.2524
  164MOL0     H22614   4.133   0.789   8.127  2.7494 -2.6518 -1.3996
  164MOL0     H22615   4.010   0.829   8.336  0.3803  0.5889  2.0427
  164MOL0     H22616   4.810   0.717   9.701 -1.4256 -0.6840 -0.4696
  164MOL0     H22617   4.955   0.724   9.892  0.0552 -0.0370  0.5285
  164MOL0     H22618   4.890   0.629  10.400 -1.7070 -4.1023  0.0162
  164MOL0     H22619   4.979   0.609  10.618 -2.0497  2.9424 -2.1525
  164MOL0     H22620   5.115   0.617  10.788 -4.1447 -1.5204 -3.5369
  164MOL0     H22621   5.041   0.469  10.790 -0.7475  2.4680  1.2698
  164MOL0     H22622   5.309   0.503  10.915 -0.2868  0.4661  0.3892
  164MOL0     H22623   5.211   0.340  10.910 -1.5315  0.0129 -0.3094
  164MOL0     H22624   5.174   0.569  11.087 -0.7388  0.2763  1.3145
  164MOL0     H22625   5.029   0.484  11.036 -0.5388 -2.7978  0.1796
  164MOL0     H22626   5.129   0.276  11.137  0.7629  0.3867 -1.6192
  164MOL0     H22627   5.112   0.406  11.252  0.1044 -1.5772  0.9792
  164MOL0     H22628   5.522   0.347  11.265  0.2715 -2.8956 -1.2356
  164MOL0     H22629   5.325   0.412  10.455 -0.6215 -0.0140  1.7265
  164MOL0     H22630   5.377   0.431  10.236 -0.5888  1.9383  1.0466
  164MOL0     H22631   5.235   0.354  10.147  0.6160 -0.9377  0.8319
  164MOL0     H22632   5.302   0.516  10.124 -2.6600  0.2149 -0.6431
  165MOL0     O22633   1.852   3.282   1.947  0.0200  0.7134  0.0543
  165MOL0     C22634   1.900   3.344   1.846  0.3653 -0.0742 -0.3693
  165MOL0     O22635   2.033   3.327   1.813 -0.9134 -0.1110 -0.0631
  165MOL0     C22636   2.106   3.233   1.883 -0.4211 -0.1938  0.5451
  165MOL0     C22637   2.075   3.101   1.887  0.6284 -0.4878  0.0094
  165MOL0     C22638   2.144   3.020   1.970 -0.2051  0.4011 -0.0462
  165MOL0     C22639   2.262   3.045   2.040 -0.1084 -1.3475 -0.2906
  165MOL0     O22640   2.317   2.945   2.116 -0.0975 -0.0238 -0.3495
  165MOL0     C22641   2.462   2.934   2.102 -0.2346 -0.1914  0.4376
  165MOL0     C22642   2.514   2.791   2.148 -0.4508  0.1532  1.1215
  165MOL0     C22643   2.498   2.760   2.300 -0.3676 -0.4756 -0.0457
  165MOL0     C22644   2.470   2.881   2.389 -0.4055  0.6024  0.9385
  165MOL0     C22645   2.457   2.814   2.531  0.1034  0.0268  0.6788
  165MOL0     C22646   2.397   2.908   2.633  0.4482 -0.4654 -0.1927
  165MOL0     C22647   2.420   2.846   2.772 -0.6973 -0.3701  0.9160
  165MOL0     C22648   2.404   2.966   2.881 -1.0174  0.2319  0.3965
  165MOL0     N22649   2.278   3.035   2.879 -0.4984  0.2468 -0.6021
  165MOL0     C22650   2.165   2.997   2.947  0.9178 -0.3458  0.2474
  165MOL0     C22651   2.058   3.063   2.882 -0.8569  0.6173 -0.2875
  165MOL0     C22652   1.914   3.040   2.934 -0.1824 -0.3151  0.1082
  165MOL0     C22653   1.828   2.925   2.878  0.3054  0.0420  0.6275
  165MOL0     C22654   1.871   2.779   2.919 -0.5836 -0.2364 -0.5663
  165MOL0     C22655   1.868   2.751   3.065 -0.6791 -0.0496 -0.3829
  165MOL0     O22656   1.730   2.762   3.100  0.0151 -0.4424 -0.6610
  165MOL0     C22657   1.691   2.722   3.229  0.1940  0.2871  0.7188
  165MOL0     C22658   1.546   2.728   3.257 -0.1982  0.1299 -0.8712
  165MOL0     C22659   1.499   2.698   3.390  0.1683 -0.2390  0.2153
  165MOL0     C22660   1.349   2.732   3.413  0.5938 -0.9477 -0.5778
  165MOL0     C22661   1.590   2.632   3.473  1.3253 -0.3159 -0.8352
  165MOL0     C22662   1.541   2.576   3.612  0.1733  0.1671  0.7719
  165MOL0     O22663   1.640   2.551   3.702 -0.4668  1.0484  0.0404
  165MOL0     C22664   1.625   2.504   3.837  0.8815 -0.0255  0.0035
  165MOL0     C22665   1.506   2.473   3.905 -0.6513 -0.3881 -0.1003
  165MOL0     C22666   1.510   2.433   4.042 -0.8040 -0.3708  0.5243
  165MOL0     C22667   1.633   2.430   4.103 -0.3316  0.1730  0.0067
  165MOL0     O22668   1.629   2.382   4.235 -0.0368 -0.1099 -0.3299
  165MOL0     C22669   1.704   2.456   4.341 -0.0068 -0.1697  1.1433
  165MOL0     C22670   1.633   2.423   4.471 -0.0711  0.3420 -0.7848
  165MOL0     C22671   1.633   2.549   4.572 -0.7438 -0.3134 -0.2563
  165MOL0     C22672   1.560   2.534   4.704  0.5440 -0.0583  0.4638
  165MOL0     C22673   1.640   2.465   4.807 -0.3676  0.0461  1.1363
  165MOL0     C22674   1.751   2.552   4.859  0.4129 -0.4146  0.2010
  165MOL0     C22675   1.705   2.682   4.911 -0.3117 -0.7084 -0.6274
  165MOL0     C22676   1.816   2.759   4.995 -0.3654 -1.0363 -0.2549
  165MOL0    Cl22677   1.762   2.929   5.050 -0.3233  0.0201  0.2458
  165MOL0     C22678   1.754   2.447   4.035  0.2481  0.4457  0.0535
  165MOL0     C22679   1.751   2.494   3.906  0.2607 -0.5216  0.5759
  165MOL0     O22680   1.425   2.544   3.624  0.7162 -0.3553  0.6632
  165MOL0     C22681   1.718   2.639   3.446  0.3665  0.6485 -0.9292
  165MOL0     C22682   1.771   2.679   3.330  0.1972  0.0749  0.6183
  165MOL0     N22683   2.110   3.160   2.797 -0.7909  0.1672  0.1962
  165MOL0     N22684   2.241   3.143   2.804 -0.0562 -0.9781  0.0559
  165MOL0     C22685   2.308   3.177   2.030  0.5257 -0.7654  0.1132
  165MOL0     C22686   2.223   3.274   1.960  0.3363  0.1454 -0.0516
  165MOL0     C22687   1.822   3.437   1.759  0.3156 -0.2732  1.0240
  165MOL0     C22688   1.883   3.491   1.644  0.2228 -0.7460 -0.2005
  165MOL0     C22689   1.818   3.551   1.544 -0.4396  0.4849 -0.2634
  165MOL0     C22690   1.677   3.572   1.561 -0.6739 -0.3272 -0.0219
  165MOL0     O22691   1.600   3.641   1.476 -0.0595  0.8776  0.0801
  165MOL0     C22692   1.646   3.708   1.350  0.1126  0.1538 -1.1935
  165MOL0     C22693   1.542   3.703   1.238  1.0200 -0.5068 -0.5742
  165MOL0     C22694   1.581   3.791   1.128 -0.4076 -0.4984 -0.4654
  165MOL0     C22695   1.482   3.785   1.007  0.3659 -0.7554 -0.3523
  165MOL0     C22696   1.510   3.886   0.903 -0.9292 -0.3460 -0.2537
  165MOL0     C22697   1.520   3.971   0.818 -0.2296 -1.0752  0.2443
  165MOL0     C22698   1.615   3.524   1.675  0.0252  0.2752 -1.1512
  165MOL0     C22699   1.682   3.459   1.779  0.4416  0.3261  0.4395
  165MOL0     C22700   1.603   3.428   1.908  0.1937 -1.0089  0.2602
  165MOL0     H22701   1.980   3.072   1.842  1.0258  0.0521 -1.2053
  165MOL0     H22702   2.097   2.923   1.977 -0.4804  0.1766 -3.3083
  165MOL0     H22703   2.521   3.007   2.158 -0.3112 -0.6093  1.0851
  165MOL0     H22704   2.493   2.950   1.999  3.3087  1.9590  1.6548
  165MOL0     H22705   2.446   2.728   2.090 -0.7207  0.9372  0.5706
  165MOL0     H22706   2.609   2.761   2.103 -1.4374 -1.2779 -0.1298
  165MOL0     H22707   2.435   2.672   2.316 -1.2220  0.0538 -0.3906
  165MOL0     H22708   2.598   2.725   2.327 -0.0346  2.3987  3.0552
  165MOL0     H22709   2.556   2.948   2.378  1.1357 -1.6275 -1.9061
  165MOL0     H22710   2.374   2.928   2.364 -0.7968 -1.1879 -1.1571
  165MOL0     H22711   2.559   2.786   2.559  0.3454  1.2124  1.0426
  165MOL0     H22712   2.398   2.722   2.524  1.0827 -0.5449 -0.5091
  165MOL0     H22713   2.445   3.006   2.623  2.1577 -0.7675  3.4976
  165MOL0     H22714   2.289   2.922   2.625  0.6270  0.0702 -2.1888
  165MOL0     H22715   2.516   2.795   2.782  0.4871  0.7988 -2.9012
  165MOL0     H22716   2.339   2.774   2.781 -1.1734 -0.4324 -2.4665
  165MOL0     H22717   2.411   2.918   2.979  1.4738  0.5219  0.4095
  165MOL0     H22718   2.474   3.046   2.855 -1.6779  0.5371 -0.4899
  165MOL0     H22719   2.155   2.929   3.031 -0.9462  1.8392  1.9191
  165MOL0     H22720   1.865   3.137   2.930 -0.3493 -0.3538  0.9091
  165MOL0     H22721   1.917   3.027   3.043 -0.9598 -1.8101 -0.0196
  165MOL0     H22722   1.726   2.948   2.911  0.0705  1.2880 -0.8694
  165MOL0     H22723   1.834   2.930   2.769 -1.6850  1.1239  0.5133
  165MOL0     H22724   1.811   2.707   2.863  0.1024 -0.4460 -1.0371
  165MOL0     H22725   1.973   2.770   2.881 -0.2179  0.3968  0.2252
  165MOL0     H22726   1.908   2.653   3.093 -0.9443 -0.3612 -1.0675
  165MOL0     H22727   1.923   2.825   3.123 -1.1029 -1.5282  2.0263
  165MOL0     H22728   1.485   2.772   3.179  1.5852  4.1588 -0.2290
  165MOL0     H22729   1.291   2.641   3.430  0.5191 -0.9153 -0.6603
  165MOL0     H22730   1.310   2.791   3.330  5.5369  2.8102 -0.7406
  165MOL0     H22731   1.324   2.788   3.504 -0.2675 -2.3847  0.1025
  165MOL0     H22732   1.412   2.501   3.859  0.5917  6.3234  0.4811
  165MOL0     H22733   1.423   2.401   4.098 -2.6900  0.5141 -1.7027
  165MOL0     H22734   1.810   2.434   4.324 -0.5453 -1.2642 -1.2979
  165MOL0     H22735   1.702   2.565   4.330  3.3707  0.0577  1.8510
  165MOL0     H22736   1.529   2.397   4.453  0.0245 -0.4002 -0.3095
  165MOL0     H22737   1.689   2.340   4.516 -0.8388  0.3079  0.1283
  165MOL0     H22738   1.586   2.632   4.519  1.0793  2.1242  1.6580
  165MOL0     H22739   1.732   2.594   4.584 -0.3104 -0.9160 -1.4054
  165MOL0     H22740   1.468   2.480   4.680  0.8534 -0.3118 -0.1934
  165MOL0     H22741   1.521   2.630   4.738  0.2713 -0.3061  0.8647
  165MOL0     H22742   1.586   2.432   4.896  3.4816  2.9975  5.0548
  165MOL0     H22743   1.681   2.371   4.768 -0.6661 -0.2129  1.4412
  165MOL0     H22744   1.833   2.576   4.791  1.5174  4.2632  2.7877
  165MOL0     H22745   1.800   2.497   4.940  2.3005  0.2590 -0.4280
  165MOL0     H22746   1.620   2.675   4.979  1.7376  5.2670  3.3647
  165MOL0     H22747   1.689   2.758   4.833  0.9251  0.2856  0.0545
  165MOL0     H22748   1.911   2.757   4.942 -0.6395  0.0323 -0.8053
  165MOL0     H22749   1.823   2.693   5.082 -1.6100 -3.7763 -2.0958
  165MOL0     H22750   1.849   2.429   4.084  1.9222 -2.4137 -3.7598
  165MOL0     H22751   1.842   2.520   3.852 -2.4302  2.2820 -3.1124
  165MOL0     H22752   1.779   2.605   3.529 -2.6295 -0.4114  1.0206
  165MOL0     H22753   1.876   2.659   3.313  0.0005  0.0864 -0.6822
  165MOL0     H22754   2.402   3.202   2.079 -1.3094 -0.8394  3.9934
  165MOL0     H22755   2.254   3.377   1.964  0.2913  0.1633 -0.1789
  165MOL0     H22756   1.987   3.465   1.628  0.4611 -2.1990  2.9402
  165MOL0     H22757   1.870   3.564   1.449 -3.5448  0.8255 -2.0532
  165MOL0     H22758   1.645   3.815   1.370  2.1596 -0.2332  1.4856
  165MOL0     H22759   1.751   3.685   1.328 -0.4721 -2.2741 -1.7986
  165MOL0     H22760   1.446   3.745   1.271  0.7987 -1.0664 -0.4860
  165MOL0     H22761   1.538   3.603   1.193  3.5321 -1.7493  1.6849
  165MOL0     H22762   1.584   3.895   1.161  2.5508 -0.9449  1.0016
  165MOL0     H22763   1.683   3.773   1.093 -0.3700  0.7672 -1.0455
  165MOL0     H22764   1.380   3.800   1.046  0.5372 -0.0394 -0.1685
  165MOL0     H22765   1.481   3.682   0.969  0.7931 -1.1304  0.6227
  165MOL0     H22766   1.538   4.038   0.737 -2.2445  1.2725  1.5962
  165MOL0     H22767   1.511   3.544   1.698  0.2817 -1.5884  2.2512
  165MOL0     H22768   1.585   3.321   1.921 -1.4565 -0.5724  1.9427
  165MOL0     H22769   1.651   3.451   2.004 -2.9084 -1.8396  2.1482
  165MOL0     H22770   1.514   3.492   1.910  0.8976  0.0075  2.0437
  166MOL0     O22771   7.559  10.192   0.247 -0.3034  0.2225  0.8002
  166MOL0     C22772   7.614  10.277   0.315  0.1816 -0.9811  0.8208
  166MOL0     O22773   7.722  10.350   0.286  0.6484 -0.1381 -0.2925
  166MOL0     C22774   7.808  10.301   0.196  0.4153 -0.1213  0.2984
  166MOL0     C22775   7.901  10.210   0.235  0.3520  0.6695 -0.5332
  166MOL0     C22776   7.980  10.149   0.137 -0.4324  0.5479  1.6206
  166MOL0     C22777   7.967  10.184  -0.000  0.8364 -0.0921  0.5689
  166MOL0     O22778   8.064  10.128  -0.086  0.4791  0.4240  0.0714
  166MOL0     C22779   8.021  10.092  -0.215 -0.1203  0.5250 -0.6717
  166MOL0     C22780   7.904   9.998  -0.232 -1.0996  1.2362 -0.2067
  166MOL0     C22781   7.940   9.849  -0.181  0.4181 -0.6573  0.1234
  166MOL0     C22782   7.869   9.747  -0.271  0.4391 -0.5803 -0.2487
  166MOL0     C22783   7.944   9.706  -0.397 -0.3916  0.1711  0.5893
  166MOL0     C22784   7.849   9.613  -0.484 -0.1788 -0.1684 -0.1830
  166MOL0     C22785   7.790   9.481  -0.419 -1.0155 -0.4337 -0.1560
  166MOL0     C22786   7.899   9.393  -0.360  0.5884  0.1245 -0.4258
  166MOL0     N22787   7.886   9.258  -0.421  0.5702 -0.1709  0.0948
  166MOL0     C22788   7.783   9.173  -0.382  0.7226  0.7323  0.6241
  166MOL0     C22789   7.783   9.077  -0.472 -0.4721 -0.5461  0.6852
  166MOL0     C22790   7.718   8.942  -0.465 -0.7327  1.0302  0.3265
  166MOL0     C22791   7.645   8.911  -0.599 -0.0484 -0.4408 -0.6188
  166MOL0     C22792   7.569   8.789  -0.592 -0.2171  0.0681 -0.6749
  166MOL0     C22793   7.658   8.660  -0.589 -0.9364  0.1022 -0.7682
  166MOL0     O22794   7.677   8.623  -0.445 -0.8178 -0.3128  0.1488
  166MOL0     C22795   7.580   8.557  -0.377  0.5042  1.3406  0.4014
  166MOL0     C22796   7.446   8.526  -0.424  0.3393  0.2091 -0.5284
  166MOL0     C22797   7.351   8.473  -0.340 -0.0649 -0.1703 -0.8496
  166MOL0     C22798   7.205   8.478  -0.377  0.2589  0.1660  0.6609
  166MOL0     C22799   7.388   8.441  -0.207  0.8572 -0.4019  0.1122
  166MOL0     C22800   7.293   8.394  -0.105 -1.3860  0.3103 -0.9143
  166MOL0     O22801   7.295   8.458   0.019  0.2472 -0.1912  0.2882
  166MOL0     C22802   7.225   8.421   0.134 -0.4785  0.0897  0.8555
  166MOL0     C22803   7.212   8.525   0.226  0.4733  0.0155  0.0170
  166MOL0     C22804   7.149   8.500   0.354  0.2236  0.0370  0.3338
  166MOL0     C22805   7.099   8.375   0.386  0.6422  0.3044 -0.0144
  166MOL0     O22806   7.053   8.358   0.519  0.5040 -0.0559 -0.1566
  166MOL0     C22807   6.904   8.337   0.522 -0.2025  0.5067 -0.2328
  166MOL0     C22808   6.851   8.192   0.565 -0.7266 -0.2123  0.3293
  166MOL0     C22809   6.915   8.155   0.691  0.2489  0.3663 -0.0177
  166MOL0     C22810   6.874   8.245   0.807 -0.3650 -0.1496 -0.9581
  166MOL0     C22811   6.894   8.187   0.944 -0.1772  0.4088 -0.1699
  166MOL0     C22812   7.047   8.181   0.989  0.3469 -1.2711  0.1830
  166MOL0     C22813   7.080   8.152   1.133  0.2902  0.3778 -0.1291
  166MOL0     C22814   7.222   8.092   1.150 -0.6557  0.4313 -0.0043
  166MOL0    Cl22815   7.248   8.039   1.324 -0.1205  0.0351 -0.0609
  166MOL0     C22816   7.106   8.272   0.295 -0.5547 -0.0293  0.9974
  166MOL0     C22817   7.161   8.301   0.163  0.5052  1.1799 -0.0744
  166MOL0     O22818   7.210   8.309  -0.133 -0.5944  0.3453 -0.4424
  166MOL0     C22819   7.517   8.455  -0.166  0.4582  0.3325  0.2965
  166MOL0     C22820   7.615   8.511  -0.246 -0.4283 -0.5734 -0.0383
  166MOL0     N22821   7.864   9.111  -0.577 -0.1404 -0.2329 -0.0280
  166MOL0     N22822   7.927   9.218  -0.547 -0.5604  0.1100  0.1636
  166MOL0     C22823   7.880  10.288  -0.034  0.6960 -0.4958 -0.3699
  166MOL0     C22824   7.796  10.342   0.066 -0.0186  0.2713  0.1885
  166MOL0     C22825   7.539  10.321   0.441  0.0152  0.9183 -0.5428
  166MOL0     C22826   7.410  10.372   0.429 -0.0761 -0.3750  0.1622
  166MOL0     C22827   7.338  10.404   0.545  0.1305 -0.4851  0.1960
  166MOL0     C22828   7.386  10.379   0.672 -0.4280 -0.1579  0.0499
  166MOL0     O22829   7.309  10.406   0.789  0.2416  0.0566  0.0335
  166MOL0     C22830   7.378  10.427   0.905 -0.0239 -0.1484 -0.5945
  166MOL0     C22831   7.285  10.442   1.027 -0.5574  0.3039  0.5097
  166MOL0     C22832   7.158  10.357   1.032  0.0965  0.6787  0.4230
  166MOL0     C22833   7.195  10.203   1.051 -0.7844  0.0397 -0.3846
  166MOL0     C22834   7.205  10.164   1.199 -0.8556 -0.2698 -0.2702
  166MOL0     C22835   7.195  10.146   1.320 -0.2366 -0.9475 -0.1524
  166MOL0     C22836   7.519  10.323   0.681  1.3152  0.1305 -0.3890
  166MOL0     C22837   7.599  10.305   0.566  0.1509  0.3985 -0.5598
  166MOL0     C22838   7.746  10.273   0.581  0.4436 -0.6327  0.0070
  166MOL0     H22839   7.916  10.180   0.338 -1.4408 -3.1434 -1.2162
  166MOL0     H22840   8.045  10.063   0.154  0.1561  0.3963 -1.0307
  166MOL0     H22841   8.104  10.050  -0.273 -0.5429 -1.3018 -0.0177
  166MOL0     H22842   7.997  10.179  -0.278 -0.8197  0.1141 -0.9754
  166MOL0     H22843   7.821  10.032  -0.170  1.7343  3.7130  2.6047
  166MOL0     H22844   7.880   9.998  -0.339 -0.2583 -0.1031 -0.4164
  166MOL0     H22845   8.049   9.836  -0.179  0.4505 -0.3305  1.2481
  166MOL0     H22846   7.904   9.829  -0.079 -1.7137  0.5666 -0.3414
  166MOL0     H22847   7.848   9.666  -0.201  0.3612 -0.8660 -0.6018
  166MOL0     H22848   7.774   9.801  -0.285  1.4729  1.5753  0.6404
  166MOL0     H22849   8.039   9.659  -0.369  1.2794  1.5855 -2.3106
  166MOL0     H22850   7.981   9.790  -0.455 -1.0685 -0.4205 -0.7552
  166MOL0     H22851   7.758   9.669  -0.506 -0.0691 -1.1742 -3.7046
  166MOL0     H22852   7.911   9.586  -0.570  1.7307 -0.1460  1.1152
  166MOL0     H22853   7.741   9.421  -0.495 -0.0978 -2.4327  0.7652
  166MOL0     H22854   7.712   9.499  -0.344 -0.0747  1.4257  0.4510
  166MOL0     H22855   8.001   9.429  -0.376  2.2904 -1.2671  4.9021
  166MOL0     H22856   7.878   9.399  -0.252 -1.2183  1.0724 -0.7987
  166MOL0     H22857   7.720   9.182  -0.294  2.2202 -1.3105  2.0183
  166MOL0     H22858   7.645   8.938  -0.383 -0.1290 -1.5546  0.8239
  166MOL0     H22859   7.792   8.864  -0.446 -0.3758  0.3811 -3.1285
  166MOL0     H22860   7.581   8.997  -0.619  1.4631  0.4873 -1.6287
  166MOL0     H22861   7.720   8.909  -0.678 -0.8292  1.6723 -1.5001
  166MOL0     H22862   7.515   8.789  -0.497 -0.7968  0.5980 -0.9988
  166MOL0     H22863   7.504   8.765  -0.677  1.6952 -0.5201 -2.0456
  166MOL0     H22864   7.613   8.574  -0.639  3.5425 -2.8028 -0.3640
  166MOL0     H22865   7.750   8.679  -0.645  0.2340  2.0239  1.6295
  166MOL0     H22866   7.413   8.559  -0.523  0.1156  0.9609 -0.2108
  166MOL0     H22867   7.163   8.377  -0.377 -0.5400  0.4891  0.7571
  166MOL0     H22868   7.183   8.532  -0.469  1.1989  2.1670  1.5569
  166MOL0     H22869   7.159   8.534  -0.295  0.6170  2.7774 -0.8097
  166MOL0     H22870   7.261   8.621   0.210 -0.0586  0.1663 -0.7279
  166MOL0     H22871   7.152   8.573   0.434 -0.3158  1.1211 -0.6288
  166MOL0     H22872   6.863   8.405   0.596 -1.4053  0.6616 -1.0148
  166MOL0     H22873   6.864   8.363   0.424  1.0983  0.1463 -0.8940
  166MOL0     H22874   6.741   8.188   0.571 -0.8373  1.4874 -0.0520
  166MOL0     H22875   6.883   8.121   0.488 -0.8089 -1.2620  1.2281
  166MOL0     H22876   7.023   8.146   0.679  0.1392 -2.6980  0.5931
  166MOL0     H22877   6.879   8.058   0.727 -1.7196  0.7330 -0.8815
  166MOL0     H22878   6.770   8.275   0.796 -0.0934  1.2409  0.0381
  166MOL0     H22879   6.925   8.342   0.809 -3.8482  1.8331 -0.5521
  166MOL0     H22880   6.838   8.251   1.012 -2.9298  1.3337 -3.0899
  166MOL0     H22881   6.849   8.087   0.951  0.7662 -0.1000 -1.1169
  166MOL0     H22882   7.110   8.267   0.963  1.9020 -2.2732  0.5482
  166MOL0     H22883   7.094   8.102   0.930 -1.5463 -3.1536  1.0730
  166MOL0     H22884   7.012   8.077   1.175  2.7173 -2.9817 -1.6758
  166MOL0     H22885   7.069   8.246   1.188 -1.7583  2.5301 -3.8184
  166MOL0     H22886   7.296   8.168   1.121 -1.4909  1.0566 -0.5486
  166MOL0     H22887   7.230   8.000   1.092  1.7763 -0.4359  1.5598
  166MOL0     H22888   7.078   8.172   0.324  1.5755 -1.6269 -1.9177
  166MOL0     H22889   7.156   8.224   0.086  0.0535 -1.1781  2.2071
  166MOL0     H22890   7.538   8.440  -0.061  0.6305 -1.2926  0.0494
  166MOL0     H22891   7.715   8.522  -0.205 -1.3971  0.0454  2.3361
  166MOL0     H22892   7.874  10.320  -0.137 -1.3082  0.6729  0.0644
  166MOL0     H22893   7.723  10.418   0.037 -1.1596 -1.5361 -1.9467
  166MOL0     H22894   7.363  10.388   0.332  0.9499  0.8834 -0.1581
  166MOL0     H22895   7.240  10.449   0.537  0.9572  1.0263 -3.2059
  166MOL0     H22896   7.432  10.335   0.930 -2.6469 -1.5220  0.4946
  166MOL0     H22897   7.450  10.508   0.891  0.8454 -1.0618 -1.6657
  166MOL0     H22898   7.254  10.547   1.037  1.2669  1.3162 -2.7328
  166MOL0     H22899   7.345  10.427   1.117 -4.0700  2.2319  3.4061
  166MOL0     H22900   7.111  10.395   1.124  2.3386  3.7855  0.4400
  166MOL0     H22901   7.096  10.361   0.942  0.8699 -1.3635 -0.2589
  166MOL0     H22902   7.294  10.169   1.019  0.1038  1.7617  0.3426
  166MOL0     H22903   7.119  10.137   1.008 -0.2596  1.7679 -4.5608
  166MOL0     H22904   7.187  10.134   1.426 -0.8978  0.9117  0.0499
  166MOL0     H22905   7.570  10.304   0.775  2.6362 -0.1923 -1.1483
  166MOL0     H22906   7.801  10.317   0.497  3.2056 -1.0465  1.4933
  166MOL0     H22907   7.786  10.316   0.673  1.0235  2.4843 -1.5614
  166MOL0     H22908   7.752  10.164   0.575  1.4591 -0.6442  1.0266
  167MOL0     O22909   1.000   9.526   8.290  0.2763  0.6534  0.0076
  167MOL0     C22910   0.973   9.618   8.212 -0.2054  0.4258  0.0338
  167MOL0     O22911   0.877   9.719   8.240 -0.4899  0.1735 -0.2943
  167MOL0     C22912   0.766   9.694   8.329 -0.0780  0.0092 -0.2183
  167MOL0     C22913   0.685   9.805   8.354 -0.1388  0.2602 -0.2769
  167MOL0     C22914   0.562   9.803   8.422 -0.1825 -0.6043  0.1732
  167MOL0     C22915   0.520   9.682   8.471 -0.3064 -0.0993 -0.5512
  167MOL0     O22916   0.401   9.674   8.539  0.0794  0.4452  0.3685
  167MOL0     C22917   0.410   9.643   8.680  0.4688 -0.0245  0.0226
  167MOL0     C22918   0.268   9.608   8.711  0.0354  0.4184  0.5204
  167MOL0     C22919   0.216   9.622   8.855 -0.8065  0.0382 -0.4026
  167MOL0     C22920   0.268   9.518   8.949 -0.0463  0.7152 -0.1435
  167MOL0     C22921   0.245   9.374   8.911  0.1017 -0.9522 -0.2189
  167MOL0     C22922   0.315   9.282   9.013  0.0237 -0.1060  0.4246
  167MOL0     C22923   0.447   9.230   8.950  0.0020 -0.1178 -0.0349
  167MOL0     C22924   0.540   9.178   9.064 -1.0675 -0.1349  0.3655
  167MOL0     N22925   0.497   9.048   9.101 -0.6665  0.5284 -0.0623
  167MOL0     C22926   0.525   8.933   9.023  1.0684  0.2839 -0.7477
  167MOL0     C22927   0.470   8.829   9.097  0.5147 -0.1633  0.3391
  167MOL0     C22928   0.452   8.694   9.036 -0.9343  0.2089 -0.0179
  167MOL0     C22929   0.308   8.638   9.051 -0.1903 -0.1090  0.3194
  167MOL0     C22930   0.274   8.543   8.938 -0.5345  0.2186  0.1523
  167MOL0     C22931   0.137   8.480   8.948 -0.3588 -1.3674 -0.6195
  167MOL0     O22932   0.021   8.566   8.938 -0.1807  0.5718 -1.0867
  167MOL0     C22933  -0.098   8.514   8.907 -1.4059  0.1677  0.4440
  167MOL0     C22934  -0.138   8.378   8.892 -1.0178 -0.4440 -0.5770
  167MOL0     C22935  -0.273   8.348   8.889 -0.0117 -0.5963  0.2031
  167MOL0     C22936  -0.319   8.198   8.886  0.4749 -0.0560  0.0764
  167MOL0     C22937  -0.367   8.452   8.877  0.0034  0.4102 -1.2714
  167MOL0     C22938  -0.504   8.436   8.833  0.0300  0.5218 -0.0727
  167MOL0     O22939  -0.601   8.516   8.885 -0.2662 -0.1476 -0.5886
  167MOL0     C22940  -0.734   8.495   8.866 -0.4741  0.5834  1.3272
  167MOL0     C22941  -0.824   8.607   8.894  0.3756 -1.1422 -1.0127
  167MOL0     C22942  -0.965   8.594   8.874 -0.0951  0.0184 -0.5270
  167MOL0     C22943  -1.019   8.477   8.835 -0.6730  0.0424 -0.4835
  167MOL0     O22944  -1.154   8.463   8.827 -0.0430  0.1086 -0.1001
  167MOL0     C22945  -1.208   8.435   8.954 -0.0804  0.9617  0.1755
  167MOL0     C22946  -1.357   8.455   8.940  1.0325  0.3377  0.2310
  167MOL0     C22947  -1.434   8.436   9.077 -0.5949 -0.8550  0.1166
  167MOL0     C22948  -1.591   8.457   9.071  0.4711  0.2737  0.3378
  167MOL0     C22949  -1.655   8.393   9.196  0.8175  0.4920 -0.0801
  167MOL0     C22950  -1.809   8.440   9.204  0.0863 -0.3186  0.4728
  167MOL0     C22951  -1.907   8.345   9.271  0.1448 -0.1861 -0.5022
  167MOL0     C22952  -2.057   8.394   9.266 -0.8941  0.4242 -0.2927
  167MOL0    Cl22953  -2.082   8.553   9.343  0.3470 -0.2533 -0.4066
  167MOL0     C22954  -0.934   8.370   8.818  0.0525  0.0353  0.1990
  167MOL0     C22955  -0.790   8.375   8.820  0.7195  0.1348  0.6289
  167MOL0     O22956  -0.519   8.358   8.738 -0.9189 -0.3123  0.3391
  167MOL0     C22957  -0.334   8.590   8.892 -0.2019  0.5747  0.4140
  167MOL0     C22958  -0.195   8.616   8.914  0.6764 -0.0733  0.3909
  167MOL0     N22959   0.428   8.882   9.216  0.2730  0.2313 -1.1014
  167MOL0     N22960   0.444   9.012   9.219 -0.0568 -0.1027 -0.0381
  167MOL0     C22961   0.589   9.567   8.434  0.5382 -0.7447 -0.5045
  167MOL0     C22962   0.722   9.571   8.379  0.0317 -0.3743  0.4360
  167MOL0     C22963   1.054   9.630   8.096 -0.5003  0.1653 -0.0841
  167MOL0     C22964   0.997   9.626   7.966  0.7110  0.5331 -1.0040
  167MOL0     C22965   1.069   9.634   7.845  0.6502  0.3334 -0.4302
  167MOL0     C22966   1.205   9.658   7.848  0.1736 -0.7558 -0.3998
  167MOL0     O22967   1.257   9.651   7.719 -0.4598 -0.3911 -0.1724
  167MOL0     C22968   1.396   9.683   7.697  0.6062 -0.5497  0.3108
  167MOL0     C22969   1.444   9.627   7.565 -0.2576  1.5919 -0.3201
  167MOL0     C22970   1.393   9.705   7.447 -0.5072 -0.0862  0.6897
  167MOL0     C22971   1.466   9.667   7.313 -1.4265  0.6716 -0.0749
  167MOL0     C22972   1.480   9.787   7.242 -0.9198 -0.7025  0.2478
  167MOL0     C22973   1.507   9.868   7.156  0.1571 -0.0415 -0.3342
  167MOL0     C22974   1.275   9.666   7.975  0.2223  0.0118 -0.4109
  167MOL0     C22975   1.200   9.644   8.100 -1.4002 -0.3280 -0.8826
  167MOL0     C22976   1.279   9.643   8.223 -0.4192 -0.4939  0.7640
  167MOL0     H22977   0.717   9.904   8.325  0.3601 -0.0580 -0.8414
  167MOL0     H22978   0.504   9.894   8.424 -1.3171 -1.2620 -1.0432
  167MOL0     H22979   0.444   9.731   8.736 -0.6787  0.3246  0.1989
  167MOL0     H22980   0.479   9.558   8.689 -0.4154 -0.8425 -0.6817
  167MOL0     H22981   0.220   9.668   8.633  2.0412 -1.1073 -2.0349
  167MOL0     H22982   0.255   9.507   8.674  2.0816 -0.1002  1.1016
  167MOL0     H22983   0.240   9.722   8.890  0.0645 -0.0583 -0.7004
  167MOL0     H22984   0.107   9.617   8.852 -1.0820  3.3753  0.4199
  167MOL0     H22985   0.374   9.534   8.970 -0.1999  2.1726 -0.3924
  167MOL0     H22986   0.220   9.534   9.046 -0.1500  2.6530 -0.4668
  167MOL0     H22987   0.290   9.364   8.811  0.8885  2.9539 -0.4283
  167MOL0     H22988   0.141   9.346   8.894 -0.8421  1.6108  0.8721
  167MOL0     H22989   0.332   9.322   9.113  3.3652  0.4936 -0.2660
  167MOL0     H22990   0.253   9.191   9.021 -0.4591  0.2443  0.7449
  167MOL0     H22991   0.501   9.310   8.899  0.4536 -0.8576 -0.7238
  167MOL0     H22992   0.425   9.148   8.882  0.6542 -0.6024  0.3261
  167MOL0     H22993   0.644   9.183   9.030 -1.0432  0.6729  0.5462
  167MOL0     H22994   0.548   9.244   9.151  1.5436 -1.2355  1.0511
  167MOL0     H22995   0.562   8.928   8.921  2.2892  0.1912 -0.3113
  167MOL0     H22996   0.515   8.621   9.088 -2.1063 -1.3047 -0.6555
  167MOL0     H22997   0.483   8.695   8.931 -2.2590  0.8509 -0.4175
  167MOL0     H22998   0.302   8.583   9.146  0.0186 -1.7934 -0.6136
  167MOL0     H22999   0.239   8.723   9.041  0.3684  0.1336 -2.0989
  167MOL0     H23000   0.276   8.595   8.842  3.4064 -0.4435 -0.2717
  167MOL0     H23001   0.352   8.466   8.942  1.1511  1.7477 -1.5790
  167MOL0     H23002   0.127   8.408   8.866  0.7548 -2.1910 -0.0681
  167MOL0     H23003   0.140   8.430   9.045  4.0861 -0.5444 -0.1120
  167MOL0     H23004  -0.062   8.301   8.890 -0.7748 -0.2492  0.4909
  167MOL0     H23005  -0.238   8.133   8.923  0.9150  1.0819  1.2065
  167MOL0     H23006  -0.344   8.166   8.785  2.0319  2.9814 -1.3796
  167MOL0     H23007  -0.403   8.192   8.956  0.2889  1.7300  0.0345
  167MOL0     H23008  -0.775   8.686   8.950 -3.3900  0.8320 -0.1917
  167MOL0     H23009  -1.016   8.688   8.894  0.1928  0.1540 -0.4317
  167MOL0     H23010  -1.177   8.333   8.976  1.7941  1.2752 -0.8132
  167MOL0     H23011  -1.172   8.512   9.023 -1.2612  1.0872  0.6752
  167MOL0     H23012  -1.378   8.556   8.902  0.9044 -0.2443 -1.3227
  167MOL0     H23013  -1.386   8.380   8.866 -2.5495  1.9148 -0.1924
  167MOL0     H23014  -1.391   8.510   9.146  1.1116 -0.9124 -0.8181
  167MOL0     H23015  -1.407   8.338   9.118 -1.2273 -0.9336  0.3475
  167MOL0     H23016  -1.626   8.404   8.981 -0.2346 -0.1762  0.8653
  167MOL0     H23017  -1.612   8.564   9.064 -0.5836  0.1359  1.0825
  167MOL0     H23018  -1.654   8.283   9.201 -0.7479  0.4652  0.1929
  167MOL0     H23019  -1.612   8.428   9.291  0.7618  1.9035 -0.5551
  167MOL0     H23020  -1.843   8.443   9.100  0.9889  1.3867  0.2017
  167MOL0     H23021  -1.819   8.539   9.250  1.6441  0.0721  0.0100
  167MOL0     H23022  -1.871   8.341   9.374 -2.6948 -0.2223  0.5653
  167MOL0     H23023  -1.914   8.248   9.222 -0.4825 -0.5595  0.3215
  167MOL0     H23024  -2.116   8.318   9.317  0.0537 -1.2720 -1.6365
  167MOL0     H23025  -2.089   8.401   9.161  3.8909 -3.4085 -2.4078
  167MOL0     H23026  -0.989   8.282   8.785  0.3057  0.4982 -1.5485
  167MOL0     H23027  -0.735   8.283   8.802  2.2926  1.4628 -2.0078
  167MOL0     H23028  -0.403   8.673   8.892  0.6795  1.3591 -1.1380
  167MOL0     H23029  -0.167   8.721   8.917 -1.8946  0.8891 -2.5975
  167MOL0     H23030   0.544   9.472   8.459  2.5355 -2.3220 -2.4806
  167MOL0     H23031   0.766   9.472   8.371  1.9945  0.5041 -0.1941
  167MOL0     H23032   0.889   9.627   7.964  0.3599 -0.9741  3.9798
  167MOL0     H23033   1.018   9.638   7.750 -0.1626  4.6935 -0.0244
  167MOL0     H23034   1.401   9.792   7.701  0.5906 -0.5495  0.3255
  167MOL0     H23035   1.458   9.645   7.778  0.8985 -1.6330 -0.4039
  167MOL0     H23036   1.417   9.522   7.550 -2.1601  2.1772 -1.2824
  167MOL0     H23037   1.552   9.634   7.552  0.0513  2.5382  2.2082
  167MOL0     H23038   1.290   9.669   7.431 -0.7149  1.2854 -1.5442
  167MOL0     H23039   1.390   9.812   7.465  1.6488  0.1152  0.0718
  167MOL0     H23040   1.414   9.588   7.258  1.6382 -1.2909 -0.3665
  167MOL0     H23041   1.566   9.631   7.336 -2.3822 -1.7307  0.5432
  167MOL0     H23042   1.522   9.938   7.077 -3.1970  0.3134 -0.8226
  167MOL0     H23043   1.380   9.689   7.987 -0.0095 -0.3755  3.7282
  167MOL0     H23044   1.366   9.707   8.211  1.1557 -2.4668  1.1968
  167MOL0     H23045   1.217   9.692   8.299  0.3367 -0.1143  1.1407
  167MOL0     H23046   1.310   9.544   8.258 -0.4727 -0.4269  1.0047
  168MOL0     O23047   2.355   6.526   1.244  0.3212  0.6153  0.4351
  168MOL0     C23048   2.377   6.614   1.165  0.5463  0.6599 -0.3719
  168MOL0     O23049   2.497   6.686   1.169 -0.2577 -0.0770 -0.7037
  168MOL0     C23050   2.607   6.685   1.244  0.3761  0.0733 -0.3015
  168MOL0     C23051   2.721   6.739   1.184 -0.1305 -0.3498  1.3685
  168MOL0     C23052   2.841   6.742   1.254  0.8000 -0.0037  0.2130
  168MOL0     C23053   2.849   6.698   1.388  0.2747 -0.5219 -0.2578
  168MOL0     O23054   2.964   6.698   1.458 -0.7492  0.2351 -0.0344
  168MOL0     C23055   2.992   6.835   1.502  0.0854  0.1323 -0.0308
  168MOL0     C23056   3.133   6.865   1.544 -0.4982 -0.4432  0.0222
  168MOL0     C23057   3.237   6.879   1.429 -0.9602  0.3817 -0.0638
  168MOL0     C23058   3.231   7.029   1.378 -0.7608 -0.7393  0.3997
  168MOL0     C23059   3.310   7.046   1.241  0.5364  0.3770 -0.4141
  168MOL0     C23060   3.251   7.165   1.169 -1.1145  0.4160 -0.7097
  168MOL0     C23061   3.157   7.133   1.061  0.4244 -0.3561 -1.1689
  168MOL0     C23062   3.037   7.030   1.097 -1.0733  0.4547  0.0410
  168MOL0     N23063   2.951   6.991   0.983  0.3282  0.1258 -0.4487
  168MOL0     C23064   2.965   6.874   0.915  0.0546 -0.7828  0.8863
  168MOL0     C23065   2.837   6.858   0.866 -0.7448  0.8200 -0.8012
  168MOL0     C23066   2.819   6.752   0.766  0.1938  0.3220 -0.1004
  168MOL0     C23067   2.868   6.613   0.820  0.6868  0.0970  0.6305
  168MOL0     C23068   2.874   6.516   0.703 -0.1487 -0.6087  0.1408
  168MOL0     C23069   2.937   6.386   0.738  0.2940  0.7020  0.0394
  168MOL0     O23070   3.076   6.392   0.777 -0.1312  0.0725 -0.1489
  168MOL0     C23071   3.140   6.280   0.803 -1.0513 -0.0715 -0.9793
  168MOL0     C23072   3.074   6.155   0.806  0.0191 -0.2105  0.3466
  168MOL0     C23073   3.151   6.037   0.834 -0.7050 -0.0917 -0.4175
  168MOL0     C23074   3.087   5.900   0.838 -0.0672 -0.4135  0.2208
  168MOL0     C23075   3.294   6.046   0.868  0.4017  0.3081 -0.5077
  168MOL0     C23076   3.368   5.923   0.917  0.1767 -0.2721  0.1642
  168MOL0     O23077   3.311   5.824   1.007  0.3109  0.0572  0.9746
  168MOL0     C23078   3.375   5.703   1.012  0.2934 -0.1631 -0.4266
  168MOL0     C23079   3.300   5.599   0.960 -0.2879  0.4579  0.0055
  168MOL0     C23080   3.355   5.475   0.975  0.4409  0.1510 -0.1381
  168MOL0     C23081   3.478   5.445   1.038 -0.4619  1.4310 -0.4898
  168MOL0     O23082   3.522   5.312   1.042  0.0717 -1.0751  0.0548
  168MOL0     C23083   3.628   5.300   1.130 -0.5096  0.1247  0.2943
  168MOL0     C23084   3.670   5.154   1.129  0.2975 -0.6881 -0.5750
  168MOL0     C23085   3.552   5.063   1.189 -0.4339  0.3262  0.0139
  168MOL0     C23086   3.574   5.051   1.340  0.1860 -0.2560 -0.9534
  168MOL0     C23087   3.452   4.980   1.402 -0.0144 -0.2527 -0.2417
  168MOL0     C23088   3.482   4.919   1.545  0.0264  0.0887  0.0002
  168MOL0     C23089   3.355   4.849   1.598 -0.8854  0.3104  0.5998
  168MOL0     C23090   3.383   4.754   1.714  0.4237  1.4513  0.2566
  168MOL0    Cl23091   3.236   4.643   1.731  0.2057  0.4795 -0.6444
  168MOL0     C23092   3.556   5.555   1.080 -0.0514 -0.6775  0.2455
  168MOL0     C23093   3.506   5.691   1.061  0.6089  0.4366 -0.2002
  168MOL0     O23094   3.480   5.923   0.862  0.3668  0.2478 -0.2554
  168MOL0     C23095   3.360   6.169   0.858  0.2552 -0.8325  0.9114
  168MOL0     C23096   3.279   6.288   0.829  0.4983  0.3751 -0.3259
  168MOL0     N23097   2.753   6.963   0.913 -0.5731  0.8905  0.7860
  168MOL0     N23098   2.827   7.042   0.981  0.0432  0.2093 -0.2814
  168MOL0     C23099   2.734   6.632   1.440  0.4542  0.0593 -0.3350
  168MOL0     C23100   2.618   6.631   1.370 -0.1894 -0.5233 -0.4848
  168MOL0     C23101   2.271   6.650   1.048  0.5768  1.0066  0.0032
  168MOL0     C23102   2.139   6.606   1.072  0.5472 -0.7416  0.5911
  168MOL0     C23103   2.036   6.644   0.978 -0.2935  0.4330 -0.4292
  168MOL0     C23104   2.057   6.725   0.865 -0.6791 -0.0942 -0.0740
  168MOL0     O23105   1.967   6.779   0.779  0.7268 -0.3556  0.0893
  168MOL0     C23106   1.832   6.736   0.774  0.0099  0.2593  0.5952
  168MOL0     C23107   1.818   6.607   0.690  0.5220  1.0548  0.2780
  168MOL0     C23108   1.892   6.608   0.561 -1.2203 -0.8506  0.4070
  168MOL0     C23109   1.848   6.506   0.457 -0.7257  0.4321  0.3246
  168MOL0     C23110   1.921   6.530   0.324  0.1489 -0.0193  0.1791
  168MOL0     C23111   1.982   6.539   0.222  0.1512  0.1111  0.4359
  168MOL0     C23112   2.190   6.762   0.846  0.5077 -1.0551 -0.5461
  168MOL0     C23113   2.300   6.726   0.930  0.2791 -0.1010 -0.5173
  168MOL0     C23114   2.431   6.792   0.885  0.4349 -0.3987 -0.0635
  168MOL0     H23115   2.718   6.763   1.078 -1.5602 -1.0531  1.2259
  168MOL0     H23116   2.930   6.747   1.192  0.7002 -0.1327  0.0556
  168MOL0     H23117   2.929   6.837   1.591  0.2800 -0.0108  0.1114
  168MOL0     H23118   2.968   6.918   1.436 -2.1766 -0.3108  0.1661
  168MOL0     H23119   3.138   6.953   1.609 -0.2618 -1.7376  1.8109
  168MOL0     H23120   3.154   6.773   1.599 -0.3089  0.4838  1.5764
  168MOL0     H23121   3.333   6.856   1.475 -0.9898  0.6326  0.1235
  168MOL0     H23122   3.226   6.817   1.340  1.7890  3.3673 -2.7662
  168MOL0     H23123   3.133   7.075   1.360 -1.2048 -1.1309  1.7208
  168MOL0     H23124   3.267   7.099   1.453 -0.5213 -0.2960 -0.1212
  168MOL0     H23125   3.294   6.964   1.170 -1.7050  1.0222 -0.7090
  168MOL0     H23126   3.416   7.066   1.262  0.1242  2.4666 -0.1687
  168MOL0     H23127   3.210   7.238   1.240  1.5888  0.4979  0.9189
  168MOL0     H23128   3.333   7.219   1.119 -1.7521  0.5907 -1.5824
  168MOL0     H23129   3.220   7.094   0.980  0.3819  0.4491 -1.5918
  168MOL0     H23130   3.116   7.229   1.029  0.4025 -0.3199 -1.0353
  168MOL0     H23131   3.068   6.937   1.144 -1.4240 -0.3294 -1.2427
  168MOL0     H23132   2.974   7.081   1.171 -2.1076 -0.6107 -0.0804
  168MOL0     H23133   3.051   6.809   0.902  0.9445  0.5151  0.1152
  168MOL0     H23134   2.871   6.776   0.673 -2.8239  2.9076 -1.2866
  168MOL0     H23135   2.716   6.739   0.732 -0.3526 -0.9944  1.8846
  168MOL0     H23136   2.966   6.614   0.869  0.7707 -1.0287  0.5217
  168MOL0     H23137   2.800   6.577   0.898 -2.5189  1.0942 -1.5234
  168MOL0     H23138   2.775   6.494   0.663 -0.1263  0.6989 -0.6828
  168MOL0     H23139   2.928   6.569   0.623 -0.6111 -1.3923 -0.7097
  168MOL0     H23140   2.872   6.349   0.818  1.4619 -0.9028  0.2930
  168MOL0     H23141   2.916   6.325   0.649  0.4344  0.5505  0.1102
  168MOL0     H23142   2.974   6.135   0.770  1.0238 -2.1332 -1.5387
  168MOL0     H23143   2.985   5.902   0.800 -0.4304 -3.5135  0.7801
  168MOL0     H23144   3.093   5.867   0.942  4.6591 -3.4069 -0.6484
  168MOL0     H23145   3.143   5.825   0.781 -0.3718 -1.5974  1.4465
  168MOL0     H23146   3.202   5.608   0.914  1.0546 -2.0040 -3.7370
  168MOL0     H23147   3.297   5.392   0.936  2.5239 -1.2175 -0.4817
  168MOL0     H23148   3.719   5.359   1.112 -2.8480  4.2134  0.6703
  168MOL0     H23149   3.588   5.316   1.231 -1.8065  2.1280 -0.4811
  168MOL0     H23150   3.692   5.129   1.025  1.3680 -0.2901 -0.4505
  168MOL0     H23151   3.769   5.141   1.173  0.3608  0.2926 -0.4185
  168MOL0     H23152   3.546   4.966   1.138  0.2411  0.8239 -1.0598
  168MOL0     H23153   3.455   5.110   1.169  1.1826  3.9568 -0.1407
  168MOL0     H23154   3.610   5.139   1.393 -2.6233 -0.8525  2.2933
  168MOL0     H23155   3.670   4.999   1.354  0.8670  1.1383 -0.2944
  168MOL0     H23156   3.375   5.057   1.401 -0.2874 -0.4675  1.4019
  168MOL0     H23157   3.416   4.894   1.346  3.2054 -3.2476  1.8491
  168MOL0     H23158   3.506   4.997   1.618 -3.0782  0.0321  1.2267
  168MOL0     H23159   3.562   4.844   1.543 -1.1850 -1.2265 -0.4399
  168MOL0     H23160   3.307   4.798   1.513  2.7313 -1.7939 -0.4415
  168MOL0     H23161   3.287   4.929   1.629 -1.4406  0.3205 -0.5869
  168MOL0     H23162   3.386   4.810   1.808  0.5237  0.7839  0.6572
  168MOL0     H23163   3.481   4.707   1.701 -0.4837 -1.0254  1.7875
  168MOL0     H23164   3.651   5.545   1.133  0.5297  0.3580 -0.5695
  168MOL0     H23165   3.546   5.774   1.118  1.1887 -1.2865  2.0280
  168MOL0     H23166   3.467   6.171   0.877  1.1621 -2.3487 -3.0187
  168MOL0     H23167   3.329   6.385   0.826 -1.0482  1.3248  1.9013
  168MOL0     H23168   2.741   6.608   1.546 -0.2119 -0.7080 -0.4568
  168MOL0     H23169   2.525   6.599   1.414 -1.4804  1.6718 -1.4353
  168MOL0     H23170   2.119   6.537   1.154  2.7948 -0.3418  1.5220
  168MOL0     H23171   1.933   6.613   0.990 -0.1806 -0.5160 -1.6405
  168MOL0     H23172   1.782   6.716   0.869 -3.0788 -0.9618 -1.1249
  168MOL0     H23173   1.771   6.813   0.726 -2.0061 -0.9080  1.1751
  168MOL0     H23174   1.713   6.593   0.664  0.0856 -2.0580  3.0664
  168MOL0     H23175   1.837   6.516   0.747 -1.8965  0.5320  0.3521
  168MOL0     H23176   1.869   6.707   0.519  1.3821  0.9282  2.8583
  168MOL0     H23177   1.995   6.582   0.584 -1.9786 -4.7367  0.0644
  168MOL0     H23178   1.740   6.512   0.439 -0.8527 -2.7769 -0.6394
  168MOL0     H23179   1.851   6.403   0.492 -2.6826  0.1448 -0.2514
  168MOL0     H23180   2.032   6.534   0.127  3.2174  3.3049  1.6466
  168MOL0     H23181   2.203   6.839   0.771 -3.6984 -0.1387 -0.6107
  168MOL0     H23182   2.488   6.817   0.975  2.5286 -2.3929 -0.7300
  168MOL0     H23183   2.507   6.734   0.832  2.7162  1.2537  1.1830
  168MOL0     H23184   2.421   6.880   0.821 -0.2493 -1.2770 -1.1970
  169MOL0     O23185   4.210   7.344   0.064 -0.2800  0.6762  0.4939
  169MOL0     C23186   4.139   7.345   0.168  0.9254 -0.1885 -0.1689
  169MOL0     O23187   4.170   7.286   0.282 -0.0234  0.0509 -0.1489
  169MOL0     C23188   4.262   7.186   0.278  0.1804 -0.0024 -0.1030
  169MOL0     C23189   4.239   7.056   0.340 -0.3289 -0.5390 -0.3416
  169MOL0     C23190   4.335   6.956   0.356 -0.0404 -0.2351  0.0777
  169MOL0     C23191   4.465   6.982   0.327 -0.6928 -0.2332  0.3524
  169MOL0     O23192   4.560   6.879   0.346 -0.6912  0.1907 -0.3372
  169MOL0     C23193   4.698   6.905   0.325  1.0002 -0.0326 -0.6258
  169MOL0     C23194   4.764   6.761   0.321 -0.2008 -0.7000  0.2135
  169MOL0     C23195   4.911   6.753   0.302 -0.5033 -0.0224  0.5459
  169MOL0     C23196   4.972   6.832   0.180 -0.0543 -1.0701 -0.4562
  169MOL0     C23197   4.904   6.810   0.056 -0.6205 -0.3926  0.0500
  169MOL0     C23198   4.950   6.914  -0.053 -0.0267  0.3736 -0.0558
  169MOL0     C23199   4.896   6.913  -0.190 -0.1889 -0.2806  0.4746
  169MOL0     C23200   4.965   6.836  -0.299  0.6530  0.0192 -0.2994
  169MOL0     N23201   4.901   6.851  -0.429 -0.2221  0.7049 -0.4246
  169MOL0     C23202   4.868   6.734  -0.495  0.0559  0.8757  0.3228
  169MOL0     C23203   4.796   6.786  -0.604 -0.5731 -0.3111 -0.6614
  169MOL0     C23204   4.741   6.700  -0.716 -0.7451  0.4384 -0.6009
  169MOL0     C23205   4.786   6.757  -0.846  0.4811  0.0643 -0.2312
  169MOL0     C23206   4.772   6.655  -0.944 -0.7156 -0.1983  0.2020
  169MOL0     C23207   4.750   6.693  -1.092  0.0873  0.3777 -0.5155
  169MOL0     O23208   4.759   6.580  -1.170 -0.0562  0.2375 -0.6548
  169MOL0     C23209   4.779   6.612  -1.296 -0.5570  0.2302  0.9249
  169MOL0     C23210   4.749   6.724  -1.377 -0.1829 -0.4791 -1.3760
  169MOL0     C23211   4.787   6.747  -1.511 -0.0711 -0.4869  0.1982
  169MOL0     C23212   4.736   6.872  -1.580  0.0437  0.0482 -0.1400
  169MOL0     C23213   4.879   6.660  -1.567 -0.1320  0.2528  0.2419
  169MOL0     C23214   4.938   6.652  -1.709  0.0025 -0.0167 -0.1521
  169MOL0     O23215   5.050   6.578  -1.723  0.1943 -0.0327  0.2172
  169MOL0     C23216   5.130   6.601  -1.835 -0.0761  0.6155  0.3332
  169MOL0     C23217   5.239   6.685  -1.831 -0.3912 -0.2698  0.3964
  169MOL0     C23218   5.309   6.718  -1.948 -0.1366  0.5453  0.0975
  169MOL0     C23219   5.287   6.634  -2.057 -1.3147 -0.3239  0.3951
  169MOL0     O23220   5.366   6.648  -2.167 -0.3617  0.3455 -0.1128
  169MOL0     C23221   5.316   6.746  -2.263 -0.5154  0.0851 -0.6940
  169MOL0     C23222   5.410   6.744  -2.380 -0.6178  0.3749  0.4800
  169MOL0     C23223   5.409   6.609  -2.461 -0.6574  0.6103 -0.3155
  169MOL0     C23224   5.270   6.559  -2.495  0.1644  0.0414 -0.4571
  169MOL0     C23225   5.274   6.456  -2.615 -0.2206 -1.0863 -0.0852
  169MOL0     C23226   5.281   6.508  -2.758 -0.5717  0.0882  0.7564
  169MOL0     C23227   5.418   6.519  -2.839  0.2799 -0.0902 -0.6327
  169MOL0     C23228   5.424   6.632  -2.940  0.6106  0.3784 -0.0405
  169MOL0    Cl23229   5.298   6.605  -3.063  0.0493  0.1567  0.1917
  169MOL0     C23230   5.186   6.540  -2.053 -0.1611  0.5546 -0.0013
  169MOL0     C23231   5.101   6.521  -1.945 -1.0302  0.2501 -0.4343
  169MOL0     O23232   4.895   6.732  -1.791 -0.3167 -0.1792  0.0056
  169MOL0     C23233   4.911   6.544  -1.491  0.0727 -0.3803  0.1103
  169MOL0     C23234   4.857   6.516  -1.363  1.1659 -0.2260  0.1532
  169MOL0     N23235   4.785   6.929  -0.590 -0.4319 -0.1226  0.4048
  169MOL0     N23236   4.852   6.959  -0.488 -0.3041  0.6519 -0.4554
  169MOL0     C23237   4.495   7.101   0.263 -0.5186  1.0050  0.0418
  169MOL0     C23238   4.395   7.201   0.242  0.0368  0.1462 -1.0995
  169MOL0     C23239   4.020   7.440   0.153 -0.2748 -0.1972 -0.0356
  169MOL0     C23240   3.947   7.465   0.268 -0.6454  0.3656 -0.1089
  169MOL0     C23241   3.833   7.543   0.269  0.6252 -0.6844 -0.1467
  169MOL0     C23242   3.794   7.623   0.162 -0.3778 -0.0707  1.8553
  169MOL0     O23243   3.688   7.709   0.180 -0.2089 -0.4040  0.3711
  169MOL0     C23244   3.648   7.805   0.081 -0.2136  0.3495 -0.1119
  169MOL0     C23245   3.540   7.743  -0.004 -0.1488 -0.1610  0.4650
  169MOL0     C23246   3.541   7.823  -0.137  0.3784 -0.5379  0.3382
  169MOL0     C23247   3.416   7.767  -0.207 -0.8107 -0.4870  0.1239
  169MOL0     C23248   3.399   7.834  -0.335 -0.4058  0.0001 -0.2002
  169MOL0     C23249   3.357   7.873  -0.445 -0.8272 -0.0261  0.2356
  169MOL0     C23250   3.880   7.615   0.041  0.9318  0.0181  0.0188
  169MOL0     C23251   3.984   7.511   0.028 -0.1236  0.1910  0.4533
  169MOL0     C23252   4.074   7.525  -0.096  0.6728 -0.9186 -0.3515
  169MOL0     H23253   4.138   7.041   0.378  1.0767 -1.3691  3.5517
  169MOL0     H23254   4.298   6.865   0.403 -1.1609  1.7015  3.2756
  169MOL0     H23255   4.748   6.956   0.409  2.5157  0.0581 -1.5381
  169MOL0     H23256   4.722   6.962   0.235  0.7519  0.8285 -0.1630
  169MOL0     H23257   4.742   6.703   0.411 -0.9140  0.0892  0.5602
  169MOL0     H23258   4.716   6.713   0.235  0.6598 -2.4401  0.6652
  169MOL0     H23259   4.962   6.769   0.397 -1.2945 -0.3911  1.0475
  169MOL0     H23260   4.922   6.646   0.282 -1.3531  0.2494 -1.6664
  169MOL0     H23261   4.967   6.940   0.198  1.3905 -0.7963 -1.5408
  169MOL0     H23262   5.079   6.810   0.169  0.2995  1.0546 -1.7278
  169MOL0     H23263   4.795   6.818   0.061 -0.4844  1.9895  0.0453
  169MOL0     H23264   4.921   6.708   0.019 -1.6197 -1.1323  1.5097
  169MOL0     H23265   4.921   7.011  -0.011  2.6525  1.0500  0.4530
  169MOL0     H23266   5.058   6.899  -0.058 -0.4153 -2.4602 -1.2907
  169MOL0     H23267   4.894   7.017  -0.226  0.9049  0.2522  1.8438
  169MOL0     H23268   4.794   6.874  -0.183  0.9976 -3.5544  1.1726
  169MOL0     H23269   5.060   6.890  -0.305 -0.5264  2.0398 -3.2090
  169MOL0     H23270   4.973   6.730  -0.275  1.6320  0.4886  1.6923
  169MOL0     H23271   4.895   6.634  -0.462  0.7446  0.3057 -1.8242
  169MOL0     H23272   4.632   6.699  -0.708 -1.2751 -1.0712 -5.1575
  169MOL0     H23273   4.770   6.596  -0.697 -1.9730  0.5086  2.0926
  169MOL0     H23274   4.717   6.838  -0.873 -1.2187 -1.9983 -2.4275
  169MOL0     H23275   4.889   6.794  -0.842  0.1052  1.0549  1.1449
  169MOL0     H23276   4.855   6.583  -0.940 -1.5896 -1.2926 -0.6725
  169MOL0     H23277   4.681   6.600  -0.915 -1.6734  0.0107 -2.1818
  169MOL0     H23278   4.647   6.728  -1.107 -0.8476 -2.3371 -0.8697
  169MOL0     H23279   4.823   6.766  -1.128  1.7963 -1.1065 -0.1697
  169MOL0     H23280   4.695   6.810  -1.340  1.3299  1.2470 -2.9397
  169MOL0     H23281   4.685   6.843  -1.673 -0.1126  1.7022 -0.6041
  169MOL0     H23282   4.821   6.933  -1.612 -2.1349  2.3276 -1.9993
  169MOL0     H23283   4.666   6.925  -1.516  0.1716  0.2649 -0.1786
  169MOL0     H23284   5.264   6.730  -1.735  1.9241 -1.7968  0.5750
  169MOL0     H23285   5.384   6.795  -1.930 -3.2335  3.7791  0.3604
  169MOL0     H23286   5.208   6.738  -2.279 -1.0365 -1.4709  2.6278
  169MOL0     H23287   5.335   6.846  -2.225 -1.9761  1.0739 -2.4245
  169MOL0     H23288   5.365   6.819  -2.446 -0.4203 -0.5422 -0.7446
  169MOL0     H23289   5.513   6.778  -2.364  0.9628 -3.1484 -0.9664
  169MOL0     H23290   5.474   6.539  -2.409  1.4406  1.4029 -1.7439
  169MOL0     H23291   5.461   6.638  -2.553 -1.7079  1.8449 -0.5436
  169MOL0     H23292   5.215   6.648  -2.528  1.6856  2.2204  2.4011
  169MOL0     H23293   5.218   6.510  -2.413 -1.8176 -2.0985 -2.8050
  169MOL0     H23294   5.351   6.379  -2.599  0.7068 -0.2777 -0.5375
  169MOL0     H23295   5.181   6.398  -2.611 -1.4739  0.9003  0.9300
  169MOL0     H23296   5.241   6.609  -2.754  2.2632  1.4318 -1.2782
  169MOL0     H23297   5.212   6.456  -2.825 -0.8267  1.1395  0.1839
  169MOL0     H23298   5.436   6.423  -2.888 -2.0445 -0.8193 -0.1790
  169MOL0     H23299   5.498   6.528  -2.766  1.1645  0.7004 -1.6599
  169MOL0     H23300   5.522   6.634  -2.988  0.0708  0.8770 -1.1660
  169MOL0     H23301   5.415   6.730  -2.891 -0.8608 -0.4283  1.3906
  169MOL0     H23302   5.177   6.481  -2.143 -1.2080  0.2081  0.3160
  169MOL0     H23303   5.023   6.447  -1.945 -1.5229  0.7457 -1.7267
  169MOL0     H23304   4.985   6.471  -1.522  1.2933  0.6156  0.5909
  169MOL0     H23305   4.886   6.425  -1.311  1.0889 -1.4754 -1.8733
  169MOL0     H23306   4.597   7.130   0.238 -0.7107  1.7947  0.1428
  169MOL0     H23307   4.426   7.293   0.195  0.8770 -0.8611 -2.5939
  169MOL0     H23308   3.973   7.414   0.361 -1.2581  0.0960 -0.0791
  169MOL0     H23309   3.765   7.549   0.353 -0.5353  2.7105 -1.1819
  169MOL0     H23310   3.616   7.894   0.137  2.6927 -0.2634  2.8293
  169MOL0     H23311   3.732   7.845   0.022  0.3932  1.8852  1.6916
  169MOL0     H23312   3.445   7.722   0.045  0.4856 -2.7242  0.7101
  169MOL0     H23313   3.582   7.644  -0.025  2.6462  0.5874  1.9449
  169MOL0     H23314   3.528   7.931  -0.126  0.6675 -0.1561 -2.4160
  169MOL0     H23315   3.630   7.808  -0.199  2.1987  2.1682  2.0710
  169MOL0     H23316   3.330   7.791  -0.144  0.5379 -1.8716  2.6413
  169MOL0     H23317   3.426   7.661  -0.231 -1.6543 -0.2067 -1.5904
  169MOL0     H23318   3.321   7.879  -0.546  0.2516  1.5353 -0.0939
  169MOL0     H23319   3.867   7.673  -0.050 -4.7091  4.3859  2.9424
  169MOL0     H23320   4.174   7.558  -0.067  0.3126  2.6522 -2.4951
  169MOL0     H23321   4.088   7.428  -0.145 -0.2125 -2.0290  1.5137
  169MOL0     H23322   4.033   7.591  -0.173 -0.7091  0.3082  1.3660
  170MOL0     O23323  11.009   0.327   6.208  0.5105  0.6069 -0.0537
  170MOL0     C23324  11.103   0.400   6.178 -0.0955 -0.5644  0.2526
  170MOL0     O23325  11.185   0.393   6.065 -0.1765  1.0069 -0.5265
  170MOL0     C23326  11.142   0.324   5.958  0.0093  0.3984 -0.5317
  170MOL0     C23327  11.011   0.326   5.916  0.1903  0.1906 -0.0166
  170MOL0     C23328  10.966   0.234   5.815  0.0180  0.2954  0.1698
  170MOL0     C23329  11.060   0.142   5.753 -0.2362  0.2130 -1.2810
  170MOL0     O23330  11.032   0.062   5.641 -0.2846  0.0278  0.1272
  170MOL0     C23331  10.939  -0.041   5.674 -0.0973 -0.2294 -0.2584
  170MOL0     C23332  10.855  -0.090   5.560  0.6884  0.3166  0.2543
  170MOL0     C23333  10.748   0.012   5.524  0.4566 -0.9058  0.7571
  170MOL0     C23334  10.657  -0.037   5.415 -0.4434 -0.5605 -0.1215
  170MOL0     C23335  10.544   0.057   5.387 -0.5769  0.1480  0.6948
  170MOL0     C23336  10.439  -0.010   5.295  0.8893  0.0852 -0.4201
  170MOL0     C23337  10.330   0.097   5.284 -0.8809  0.3659 -0.8356
  170MOL0     C23338  10.192   0.027   5.274  0.1982 -0.6235 -1.0919
  170MOL0     N23339  10.090   0.120   5.230  0.8802  1.4344 -0.2206
  170MOL0     C23340  10.081   0.184   5.108 -0.2457  0.1191  0.0389
  170MOL0     C23341   9.973   0.264   5.115 -0.0272 -0.9144 -0.2804
  170MOL0     C23342   9.927   0.358   5.008 -0.1578  0.1199  0.0262
  170MOL0     C23343   9.980   0.503   5.040  0.0936  0.5866 -0.3572
  170MOL0     C23344  10.133   0.518   5.055  0.8267  0.6150 -0.1226
  170MOL0     C23345  10.202   0.490   4.927 -0.4636  0.4752 -0.6665
  170MOL0     O23346  10.127   0.539   4.815  0.7111 -0.7571  0.4617
  170MOL0     C23347  10.198   0.574   4.704  0.1401  0.0542 -0.2110
  170MOL0     C23348  10.324   0.511   4.682  0.0440  0.1570 -0.7181
  170MOL0     C23349  10.406   0.540   4.566  0.4226  0.3899  0.1948
  170MOL0     C23350  10.542   0.471   4.558  0.1897 -0.8610 -0.4471
  170MOL0     C23351  10.354   0.645   4.481 -0.0176  0.5125 -0.0371
  170MOL0     C23352  10.439   0.692   4.376  1.1936 -0.0621 -0.3588
  170MOL0     O23353  10.447   0.612   4.268 -0.6980  0.1677  0.2351
  170MOL0     C23354  10.540   0.633   4.176 -0.4229 -0.2982  0.6010
  170MOL0     C23355  10.505   0.621   4.042 -0.5908  0.0100  0.0202
  170MOL0     C23356  10.593   0.638   3.934 -0.3796  0.1415 -0.4800
  170MOL0     C23357  10.729   0.649   3.960  0.1602 -0.5807  0.9511
  170MOL0     O23358  10.809   0.662   3.857 -0.4894 -0.3936 -0.1062
  170MOL0     C23359  10.947   0.673   3.869 -0.0975  0.1967  0.2759
  170MOL0     C23360  10.996   0.651   3.737  0.0997  0.1602  1.1662
  170MOL0     C23361  11.147   0.679   3.729 -0.6539 -0.3911 -1.1022
  170MOL0     C23362  11.192   0.711   3.589 -0.1590  0.6016  0.5556
  170MOL0     C23363  11.332   0.760   3.573 -0.5993  0.2998  0.5930
  170MOL0     C23364  11.359   0.854   3.453 -0.1682  0.9176  0.0041
  170MOL0     C23365  11.503   0.856   3.413  0.2627 -0.4459  0.4374
  170MOL0     C23366  11.589   0.951   3.506 -0.4949 -0.5907 -0.1478
  170MOL0    Cl23367  11.645   0.860   3.649 -0.0456 -0.2013  0.0702
  170MOL0     C23368  10.777   0.644   4.091 -0.3307 -0.1900  0.6798
  170MOL0     C23369  10.687   0.638   4.199  0.5819 -0.3608  0.4806
  170MOL0     O23370  10.495   0.798   4.397  0.1301 -0.1392  0.8512
  170MOL0     C23371  10.224   0.700   4.496 -0.6015 -0.2141 -0.5127
  170MOL0     C23372  10.144   0.654   4.601 -0.9992  0.0835  0.3723
  170MOL0     N23373   9.910   0.241   5.236  0.0648 -0.3177  0.4495
  170MOL0     N23374   9.993   0.168   5.311  0.1552 -0.6847  0.0292
  170MOL0     C23375  11.201   0.153   5.787 -0.1005 -1.2264  0.1172
  170MOL0     C23376  11.234   0.233   5.898 -0.3540  0.1135 -0.4925
  170MOL0     C23377  11.153   0.500   6.284 -0.4199  0.4855 -1.3342
  170MOL0     C23378  11.274   0.567   6.268 -0.9126 -0.4506 -0.0174
  170MOL0     C23379  11.313   0.677   6.351 -0.1322  0.6219  0.1100
  170MOL0     C23380  11.225   0.718   6.454  0.1410  0.1276 -0.1057
  170MOL0     O23381  11.243   0.817   6.541 -1.0065  0.4647 -0.6705
  170MOL0     C23382  11.285   0.939   6.480  0.5479 -0.6468 -0.5082
  170MOL0     C23383  11.212   1.056   6.547  0.4140 -1.1490 -1.2199
  170MOL0     C23384  11.251   1.093   6.690  0.0613  0.9083 -0.1827
  170MOL0     C23385  11.178   1.213   6.749  0.0014 -0.2220  0.2291
  170MOL0     C23386  11.250   1.243   6.867 -0.9102  0.9220  0.5424
  170MOL0     C23387  11.309   1.275   6.965 -0.8759 -0.6075 -0.7982
  170MOL0     C23388  11.115   0.645   6.480  0.6438 -0.3660  0.4169
  170MOL0     C23389  11.083   0.533   6.407 -0.1187 -0.5288 -0.7521
  170MOL0     C23390  10.957   0.456   6.449  1.0487  0.1288 -0.7300
  170MOL0     H23391  10.932   0.383   5.965 -0.1049  0.8193 -1.1821
  170MOL0     H23392  10.865   0.226   5.776  0.1586 -2.5968  0.1561
  170MOL0     H23393  10.871  -0.008   5.752  0.3955  1.5047 -0.5015
  170MOL0     H23394  10.981  -0.135   5.711 -0.5515 -0.7865 -1.1286
  170MOL0     H23395  10.917  -0.101   5.471  0.6610  1.9519  0.0068
  170MOL0     H23396  10.811  -0.189   5.579  1.9772 -0.4341 -0.5497
  170MOL0     H23397  10.688   0.028   5.614 -0.9162  1.4306 -0.4536
  170MOL0     H23398  10.793   0.109   5.499 -0.7009 -0.0676  1.7708
  170MOL0     H23399  10.712  -0.066   5.325  3.0583  0.7617  1.4023
  170MOL0     H23400  10.610  -0.128   5.454 -3.7313 -0.5673 -3.4584
  170MOL0     H23401  10.583   0.137   5.324 -0.8999 -1.3564 -1.5565
  170MOL0     H23402  10.506   0.108   5.476  2.2732 -0.7047  2.5138
  170MOL0     H23403  10.481  -0.035   5.197  0.4448 -1.2158 -0.2921
  170MOL0     H23404  10.405  -0.100   5.347  5.5806  0.1849  3.5290
  170MOL0     H23405  10.345   0.172   5.205  0.0416 -0.5823 -1.5854
  170MOL0     H23406  10.323   0.155   5.376 -1.3093 -0.4728 -0.3249
  170MOL0     H23407  10.193  -0.051   5.197  1.8313 -5.4724  3.2824
  170MOL0     H23408  10.163  -0.029   5.363 -0.0635  1.3560  0.1345
  170MOL0     H23409  10.163   0.186   5.037  1.9124  0.9595  2.3915
  170MOL0     H23410   9.818   0.363   5.003 -0.0462  2.1836 -1.3861
  170MOL0     H23411   9.960   0.319   4.912  1.2612  1.0470  0.1036
  170MOL0     H23412   9.942   0.572   4.964 -2.8826  1.5359  1.7990
  170MOL0     H23413   9.940   0.549   5.131  0.7087  1.2283 -0.4046
  170MOL0     H23414  10.161   0.616   5.094  0.2909  1.1093 -0.9657
  170MOL0     H23415  10.171   0.443   5.125 -0.1096  1.8757  1.8261
  170MOL0     H23416  10.290   0.552   4.945 -0.9238  1.1832 -0.8486
  170MOL0     H23417  10.229   0.385   4.911  3.3579  1.4411 -1.5614
  170MOL0     H23418  10.362   0.433   4.748  2.2005 -0.5988 -2.7078
  170MOL0     H23419  10.621   0.545   4.545  1.1431 -1.9690 -1.1915
  170MOL0     H23420  10.548   0.415   4.465  0.2297 -1.7395  0.0672
  170MOL0     H23421  10.568   0.415   4.649  1.5172 -0.8763 -0.8201
  170MOL0     H23422  10.403   0.599   4.013 -0.5752 -2.3653  1.5135
  170MOL0     H23423  10.551   0.635   3.834 -0.9431 -0.8261 -0.2308
  170MOL0     H23424  10.976   0.769   3.914  0.6637 -0.0391  0.2903
  170MOL0     H23425  10.994   0.594   3.927 -1.8309 -0.6077  0.6450
  170MOL0     H23426  10.966   0.553   3.701  1.5095 -0.3355  1.2772
  170MOL0     H23427  10.939   0.716   3.670 -2.3773 -1.7404  1.3328
  170MOL0     H23428  11.189   0.584   3.761  1.1012 -0.0506 -2.2875
  170MOL0     H23429  11.172   0.757   3.801  2.9907 -1.8437 -0.5997
  170MOL0     H23430  11.125   0.787   3.546 -2.1001  0.2810  2.8001
  170MOL0     H23431  11.169   0.624   3.527 -1.0122  0.4844  1.0159
  170MOL0     H23432  11.374   0.806   3.663 -0.5702  0.4294  0.5140
  170MOL0     H23433  11.394   0.673   3.548 -2.2841 -0.8042  0.1028
  170MOL0     H23434  11.330   0.958   3.465  0.6541  1.6610 -3.4419
  170MOL0     H23435  11.302   0.831   3.363 -0.9013  2.7302 -0.0364
  170MOL0     H23436  11.503   0.892   3.310 -0.8766  0.7114  0.8308
  170MOL0     H23437  11.541   0.753   3.421 -1.8804 -1.2187  1.4475
  170MOL0     H23438  11.525   1.036   3.531 -0.9878 -1.7921  2.9932
  170MOL0     H23439  11.664   0.982   3.432 -0.8078 -4.6986 -2.4633
  170MOL0     H23440  10.881   0.660   4.121 -0.1985  0.1438  0.0688
  170MOL0     H23441  10.726   0.640   4.300  0.7618  1.8910  0.4178
  170MOL0     H23442  10.201   0.781   4.429 -0.4336 -0.5054 -0.9299
  170MOL0     H23443  10.042   0.687   4.621 -1.9864 -0.5582 -2.9684
  170MOL0     H23444  11.278   0.092   5.740 -0.4104  0.2617 -2.4995
  170MOL0     H23445  11.340   0.237   5.918  0.7266  1.8502 -5.2302
  170MOL0     H23446  11.348   0.549   6.192 -1.9145 -0.6979 -0.9659
  170MOL0     H23447  11.407   0.730   6.344 -0.2777  0.8531 -0.1300
  170MOL0     H23448  11.394   0.941   6.468  0.4189 -1.5662 -2.0001
  170MOL0     H23449  11.254   0.938   6.376  2.3864  0.7303 -1.1356
  170MOL0     H23450  11.108   1.025   6.555  0.0236  0.2887 -0.4302
  170MOL0     H23451  11.218   1.147   6.488 -2.0882  0.6420  1.0707
  170MOL0     H23452  11.228   1.002   6.745  0.1446 -1.3857 -3.6761
  170MOL0     H23453  11.359   1.110   6.686  0.6979 -2.7855 -2.9072
  170MOL0     H23454  11.073   1.201   6.779  0.1465  1.3201  1.4619
  170MOL0     H23455  11.183   1.302   6.684  1.0552  0.8051  1.6662
  170MOL0     H23456  11.357   1.307   7.055 -0.6628 -2.4118 -0.2248
  170MOL0     H23457  11.056   0.670   6.568  1.3991 -0.9514  1.1067
  170MOL0     H23458  10.992   0.356   6.477 -1.1901  0.6318  5.3729
  170MOL0     H23459  10.913   0.482   6.545  0.1045  2.5032 -1.7276
  170MOL0     H23460  10.871   0.454   6.382 -0.7710 -1.2933  1.5199
  171MOL0     O23461   4.219   0.579   1.668  0.6984 -0.6193  0.5843
  171MOL0     C23462   4.325   0.647   1.654  0.3602 -0.1934 -0.5898
  171MOL0     O23463   4.401   0.666   1.541  0.6131 -0.0867  0.2668
  171MOL0     C23464   4.345   0.630   1.420 -0.9693  1.3339 -0.1089
  171MOL0     C23465   4.321   0.494   1.383  0.7605 -0.0699 -0.6361
  171MOL0     C23466   4.262   0.460   1.259  0.6531 -0.4993 -0.0726
  171MOL0     C23467   4.237   0.553   1.160  0.1981 -0.7987 -0.2288
  171MOL0     O23468   4.204   0.532   1.031 -0.4149  0.1713 -0.1510
  171MOL0     C23469   4.147   0.403   1.010 -0.5945 -0.3814  1.3902
  171MOL0     C23470   4.110   0.388   0.858  0.5001  0.5972  0.1419
  171MOL0     C23471   3.992   0.282   0.844  0.6188 -0.0345 -0.0745
  171MOL0     C23472   4.039   0.140   0.885 -0.0035  0.7361 -0.0444
  171MOL0     C23473   3.918   0.039   0.859 -0.3861 -1.2900  0.2322
  171MOL0     C23474   3.942  -0.084   0.939  0.1587 -0.3419 -1.0022
  171MOL0     C23475   3.830  -0.184   0.905  0.2963  0.9474  1.5275
  171MOL0     C23476   3.782  -0.266   1.020  0.5463 -0.2547  0.0984
  171MOL0     N23477   3.879  -0.349   1.089 -0.9867 -0.1311  0.3203
  171MOL0     C23478   4.000  -0.406   1.040  0.3199 -0.1510 -0.1607
  171MOL0     C23479   4.066  -0.458   1.151  0.2337 -0.4382  0.1116
  171MOL0     C23480   4.209  -0.515   1.150  0.3233 -0.1105 -0.9708
  171MOL0     C23481   4.213  -0.666   1.175  0.4571 -0.2751  0.2811
  171MOL0     C23482   4.345  -0.725   1.178 -0.2156 -0.8920 -0.8665
  171MOL0     C23483   4.348  -0.876   1.160  0.3704 -0.2794  0.6113
  171MOL0     O23484   4.483  -0.917   1.188 -0.7126  0.2460  0.0669
  171MOL0     C23485   4.543  -1.018   1.112  1.1923  0.1293  0.9764
  171MOL0     C23486   4.484  -1.132   1.059  0.1167 -2.0959 -0.4864
  171MOL0     C23487   4.545  -1.226   0.972  0.6576  0.3455 -0.7223
  171MOL0     C23488   4.458  -1.337   0.923 -0.5977 -0.6604 -0.0525
  171MOL0     C23489   4.692  -1.217   0.958  0.5542 -0.1326 -0.4416
  171MOL0     C23490   4.768  -1.311   0.877  0.1957 -0.9894  0.3039
  171MOL0     O23491   4.893  -1.275   0.878  0.1174 -0.0121  0.0262
  171MOL0     C23492   4.970  -1.344   0.791 -1.0773  0.1330 -0.2588
  171MOL0     C23493   5.010  -1.479   0.793 -1.0760 -0.4916 -0.1205
  171MOL0     C23494   5.081  -1.540   0.687 -0.0690 -0.6621 -0.6851
  171MOL0     C23495   5.116  -1.463   0.569  0.4640  0.2797 -0.6893
  171MOL0     O23496   5.171  -1.530   0.465  0.2280 -0.7424 -0.4115
  171MOL0     C23497   5.225  -1.449   0.354  0.7265 -0.1302 -0.4570
  171MOL0     C23498   5.298  -1.539   0.252 -0.9044  0.1713 -0.0613
  171MOL0     C23499   5.197  -1.630   0.179 -0.4083 -0.2317  0.0809
  171MOL0     C23500   5.284  -1.721   0.081  0.6734  0.6042  0.2279
  171MOL0     C23501   5.187  -1.785  -0.017  0.1207  0.2671 -0.3467
  171MOL0     C23502   5.246  -1.897  -0.104  0.0524 -0.5712 -1.2770
  171MOL0     C23503   5.126  -1.973  -0.164 -0.8255  0.0696 -0.1609
  171MOL0     C23504   5.043  -1.884  -0.258 -0.2497  0.7846 -0.5683
  171MOL0    Cl23505   4.919  -1.986  -0.361 -0.3034 -0.2385  0.1874
  171MOL0     C23506   5.077  -1.323   0.568 -0.2382  0.3955 -0.1584
  171MOL0     C23507   5.013  -1.268   0.677 -0.5895 -0.7033  0.4212
  171MOL0     O23508   4.724  -1.410   0.817  0.2260  0.0138  0.3293
  171MOL0     C23509   4.748  -1.108   1.025 -0.7649  0.6659 -0.1429
  171MOL0     C23510   4.680  -1.018   1.101 -0.0670  1.1710  0.2832
  171MOL0     N23511   3.980  -0.442   1.257 -0.3517  0.6243 -0.0822
  171MOL0     N23512   3.877  -0.368   1.222  0.3870  0.2239 -0.0100
  171MOL0     C23513   4.275   0.686   1.190  0.0022  0.0515 -0.1835
  171MOL0     C23514   4.322   0.725   1.316  0.2034 -0.7223  0.5567
  171MOL0     C23515   4.381   0.729   1.762  0.6241 -0.3892 -0.2359
  171MOL0     C23516   4.289   0.815   1.821  0.5311  0.1875  0.5663
  171MOL0     C23517   4.330   0.894   1.930  1.1068 -0.7247 -0.3570
  171MOL0     C23518   4.460   0.897   1.973 -0.7807  0.3682 -0.7654
  171MOL0     O23519   4.510   0.976   2.074 -0.3316  0.4812  0.7838
  171MOL0     C23520   4.429   1.048   2.169  0.7226 -0.3003  0.6333
  171MOL0     C23521   4.360   0.958   2.266  0.3782 -0.3245  0.0964
  171MOL0     C23522   4.395   1.005   2.407 -0.3981 -0.2236  0.9722
  171MOL0     C23523   4.315   0.935   2.519 -0.8495 -1.1446  0.3813
  171MOL0     C23524   4.341   1.007   2.651  0.4116 -0.3211 -0.0497
  171MOL0     C23525   4.364   1.065   2.755  0.3421 -0.3487 -0.2542
  171MOL0     C23526   4.554   0.823   1.901  0.0724 -0.2766 -0.3581
  171MOL0     C23527   4.516   0.740   1.792 -0.5827  0.1547  0.2113
  171MOL0     C23528   4.615   0.637   1.744 -0.2100 -0.3527 -0.5687
  171MOL0     H23529   4.348   0.417   1.454 -1.1920  0.1352  0.4085
  171MOL0     H23530   4.252   0.353   1.244  0.7917 -1.3630  4.5983
  171MOL0     H23531   4.061   0.385   1.075  0.4805  2.7503  3.8923
  171MOL0     H23532   4.219   0.326   1.038 -0.3079 -1.2337 -1.3888
  171MOL0     H23533   4.090   0.487   0.815 -0.5493  0.4470  0.2570
  171MOL0     H23534   4.192   0.342   0.803  1.4603  2.9468 -0.4946
  171MOL0     H23535   3.902   0.313   0.899 -0.4248  1.2446 -2.3601
  171MOL0     H23536   3.959   0.287   0.740 -2.3895  0.4738  0.7970
  171MOL0     H23537   4.124   0.104   0.827 -1.0911 -1.1761 -0.5561
  171MOL0     H23538   4.073   0.139   0.988  1.6229 -1.0861 -0.5404
  171MOL0     H23539   3.906   0.004   0.756  1.2151 -0.7583 -0.1745
  171MOL0     H23540   3.830   0.093   0.895 -0.1785 -0.6284 -0.2436
  171MOL0     H23541   4.033  -0.138   0.913  1.3442  0.9515  0.3034
  171MOL0     H23542   3.949  -0.074   1.048 -0.2567 -0.8002 -0.9306
  171MOL0     H23543   3.855  -0.246   0.819 -0.6077  3.5482 -0.7844
  171MOL0     H23544   3.743  -0.125   0.876  0.3976 -0.3282 -1.7592
  171MOL0     H23545   3.753  -0.183   1.086 -0.2281  0.1856 -0.7620
  171MOL0     H23546   3.688  -0.314   0.993  0.0100  0.4731  0.6283
  171MOL0     H23547   4.038  -0.414   0.939 -0.6056 -0.4976 -0.4947
  171MOL0     H23548   4.259  -0.464   1.234 -1.4236 -1.3964  0.9585
  171MOL0     H23549   4.271  -0.496   1.062 -2.5994 -0.9334 -3.3363
  171MOL0     H23550   4.155  -0.711   1.255 -1.0191  0.4823 -0.3316
  171MOL0     H23551   4.151  -0.692   1.089  0.3128  3.0857 -0.7778
  171MOL0     H23552   4.397  -0.680   1.092  1.6418  1.1037  1.1614
  171MOL0     H23553   4.399  -0.700   1.270  0.9780 -0.8138 -1.5583
  171MOL0     H23554   4.287  -0.922   1.238  2.6880 -0.6938  2.3055
  171MOL0     H23555   4.303  -0.894   1.063 -0.0797 -0.4553  0.8544
  171MOL0     H23556   4.378  -1.122   1.081 -0.1583  0.0608 -2.3962
  171MOL0     H23557   4.439  -1.420   0.992  0.0032  0.8821  2.0698
  171MOL0     H23558   4.483  -1.377   0.824 -1.1036 -1.0591 -0.0232
  171MOL0     H23559   4.360  -1.288   0.911  0.2425  1.3078  0.6744
  171MOL0     H23560   4.986  -1.543   0.877  1.1843 -1.5244 -0.1800
  171MOL0     H23561   5.098  -1.648   0.691  2.1127 -0.5125 -3.0652
  171MOL0     H23562   5.141  -1.401   0.302  0.5079 -1.4837 -1.3903
  171MOL0     H23563   5.296  -1.371   0.383 -1.4773  1.2965  1.4600
  171MOL0     H23564   5.344  -1.474   0.177  0.0428  1.7028  1.7445
  171MOL0     H23565   5.377  -1.589   0.309 -1.4607  1.2996  1.7890
  171MOL0     H23566   5.119  -1.577   0.124 -0.3333  2.3050  2.2127
  171MOL0     H23567   5.135  -1.674   0.258 -1.6856 -2.2392 -1.9138
  171MOL0     H23568   5.334  -1.789   0.150 -2.1745  1.1344  3.0678
  171MOL0     H23569   5.345  -1.655   0.019  0.0616  0.0688 -0.9858
  171MOL0     H23570   5.099  -1.821   0.037 -1.1322 -2.6986 -3.9305
  171MOL0     H23571   5.159  -1.702  -0.083 -0.6330  0.4066  0.1365
  171MOL0     H23572   5.307  -1.972  -0.052  0.4156  0.3298 -0.3773
  171MOL0     H23573   5.304  -1.854  -0.186 -0.0235  2.4339  0.1244
  171MOL0     H23574   5.056  -2.028  -0.100  0.9285 -2.2345 -0.0718
  171MOL0     H23575   5.161  -2.058  -0.224 -1.2962 -0.4200  0.2438
  171MOL0     H23576   5.123  -1.835  -0.314  1.7078  0.3810  1.7136
  171MOL0     H23577   4.987  -1.819  -0.190 -0.0384 -1.0234  1.4029
  171MOL0     H23578   5.086  -1.269   0.474 -0.7356  1.0099  0.1411
  171MOL0     H23579   4.991  -1.162   0.680  1.5011 -0.1158 -1.9587
  171MOL0     H23580   4.851  -1.090   0.996 -1.1881  2.2087 -0.8137
  171MOL0     H23581   4.731  -0.938   1.153 -0.1871  2.2194 -1.1566
  171MOL0     H23582   4.265   0.746   1.100  1.2496 -0.8675 -0.9652
  171MOL0     H23583   4.341   0.831   1.333 -3.2621 -0.3876  3.7763
  171MOL0     H23584   4.186   0.818   1.787  0.1738 -0.5965  1.5409
  171MOL0     H23585   4.246   0.946   1.977  1.9628  0.0702  0.3351
  171MOL0     H23586   4.491   1.120   2.222 -0.5339  0.6856  0.7971
  171MOL0     H23587   4.356   1.104   2.111  0.5085  1.0020  2.1062
  171MOL0     H23588   4.396   0.856   2.253  0.4512 -0.5779  2.0141
  171MOL0     H23589   4.253   0.967   2.247  0.8110 -1.4686 -3.8849
  171MOL0     H23590   4.503   0.997   2.426  0.0358 -2.7114 -1.7725
  171MOL0     H23591   4.353   1.105   2.411 -2.0704 -0.9066  1.0564
  171MOL0     H23592   4.356   0.834   2.525 -1.5247 -1.3827  1.1052
  171MOL0     H23593   4.208   0.931   2.498 -0.6824  0.3220 -0.9640
  171MOL0     H23594   4.384   1.111   2.849 -3.6896  1.4383 -0.0482
  171MOL0     H23595   4.660   0.825   1.927 -0.0436 -1.4793  0.2694
  171MOL0     H23596   4.661   0.663   1.648  0.4280 -1.8131 -0.6828
  171MOL0     H23597   4.685   0.625   1.827  1.0038  2.1193 -1.1372
  171MOL0     H23598   4.567   0.542   1.718 -2.9500  0.7463  0.1382
  172MOL0     O23599   1.305   0.582   3.647 -0.3108  0.9118  0.5954
  172MOL0     C23600   1.424   0.572   3.649  0.4133 -0.5137  0.6583
  172MOL0     O23601   1.507   0.683   3.643 -0.2123 -0.4177  0.0927
  172MOL0     C23602   1.455   0.814   3.640  0.3381  1.0483 -0.5258
  172MOL0     C23603   1.468   0.892   3.526 -0.4856  0.6661 -0.8210
  172MOL0     C23604   1.399   1.010   3.524 -0.7589  0.7823  0.1131
  172MOL0     C23605   1.323   1.060   3.639 -0.4149 -0.7815 -0.0675
  172MOL0     O23606   1.255   1.179   3.642  0.3667  0.3484 -0.4697
  172MOL0     C23607   1.230   1.244   3.514 -0.1805  0.1609  1.1400
  172MOL0     C23608   1.115   1.174   3.437 -0.0236  0.3453 -0.4438
  172MOL0     C23609   1.085   1.241   3.303 -0.9176  0.4364 -0.5758
  172MOL0     C23610   0.989   1.359   3.306  0.6398  0.5349  0.4499
  172MOL0     C23611   0.847   1.328   3.330  0.0236  0.2892  0.5328
  172MOL0     C23612   0.787   1.440   3.412  0.1181 -0.2912 -0.4792
  172MOL0     C23613   0.653   1.385   3.473 -0.8887  0.5652 -0.4541
  172MOL0     C23614   0.561   1.326   3.371 -0.4117  0.4302 -0.2718
  172MOL0     N23615   0.418   1.332   3.412 -0.2164 -0.4059 -0.0017
  172MOL0     C23616   0.336   1.444   3.389  0.5972 -1.3192  0.1774
  172MOL0     C23617   0.217   1.407   3.446 -0.5406  0.0155  0.5304
  172MOL0     C23618   0.088   1.463   3.438  0.4311 -0.5765  0.1124
  172MOL0     C23619   0.066   1.534   3.297 -0.1231 -0.3159 -0.4178
  172MOL0     C23620  -0.083   1.534   3.245  0.2302 -0.0219 -0.5219
  172MOL0     C23621  -0.090   1.601   3.108  0.0845 -0.0015 -0.6180
  172MOL0     O23622  -0.221   1.625   3.069  0.3766 -0.5910  0.2023
  172MOL0     C23623  -0.270   1.754   3.088  0.6212 -0.0050  0.3179
  172MOL0     C23624  -0.232   1.866   3.015  0.5545 -0.4459 -0.4255
  172MOL0     C23625  -0.275   1.996   3.050  0.1590  0.2181 -0.4784
  172MOL0     C23626  -0.234   2.118   2.970 -0.2081 -0.0065 -0.6779
  172MOL0     C23627  -0.366   2.012   3.157 -0.7870  0.8223 -0.7970
  172MOL0     C23628  -0.410   2.146   3.226 -0.9297  0.5736 -1.6238
  172MOL0     O23629  -0.322   2.252   3.203  0.1275  0.1009 -0.4378
  172MOL0     C23630  -0.352   2.371   3.272 -0.5877 -0.2880 -0.9544
  172MOL0     C23631  -0.390   2.482   3.200  0.5144 -0.0706  0.7924
  172MOL0     C23632  -0.426   2.604   3.266 -0.5985  0.0399  0.4444
  172MOL0     C23633  -0.418   2.618   3.408  0.0248  1.5627  0.1670
  172MOL0     O23634  -0.441   2.736   3.468 -0.0347  0.0355 -0.3433
  172MOL0     C23635  -0.336   2.782   3.559  0.1322 -0.5826  0.3899
  172MOL0     C23636  -0.356   2.918   3.607  1.0311  0.9303 -0.0708
  172MOL0     C23637  -0.263   2.961   3.720  1.2338  0.1798 -0.3811
  172MOL0     C23638  -0.122   2.977   3.670  0.3968  0.0313  0.5443
  172MOL0     C23639  -0.028   3.043   3.776 -0.5605 -0.0043  0.0708
  172MOL0     C23640  -0.068   3.194   3.789 -0.1889  1.3774  0.0859
  172MOL0     C23641   0.015   3.276   3.889 -0.1757 -0.3585 -1.1469
  172MOL0     C23642  -0.016   3.269   4.044  0.8714 -0.0658  0.5933
  172MOL0    Cl23643  -0.159   3.362   4.051 -0.2814 -0.2891  0.3857
  172MOL0     C23644  -0.387   2.501   3.478  0.1375  0.2550  0.2959
  172MOL0     C23645  -0.360   2.383   3.411 -0.7411  0.3111  0.2158
  172MOL0     O23646  -0.511   2.149   3.296  0.4305 -0.7395 -0.5477
  172MOL0     C23647  -0.416   1.892   3.224  0.0013 -0.9414 -0.3950
  172MOL0     C23648  -0.367   1.766   3.189 -0.7765 -0.0694 -0.9307
  172MOL0     N23649   0.230   1.284   3.498  0.8157  0.1262  0.0690
  172MOL0     N23650   0.344   1.236   3.478 -0.0232  0.0047 -0.1669
  172MOL0     C23651   1.316   0.980   3.754  0.6526  0.5750  0.2101
  172MOL0     C23652   1.386   0.856   3.756  0.1971  0.0689 -0.2266
  172MOL0     C23653   1.487   0.444   3.662  0.1792  0.4039  0.4273
  172MOL0     C23654   1.596   0.434   3.748 -0.9551  0.9935  0.8116
  172MOL0     C23655   1.669   0.314   3.760  0.6249  0.5765 -0.0963
  172MOL0     C23656   1.628   0.193   3.717 -0.4347  0.1623 -0.5100
  172MOL0     O23657   1.696   0.082   3.763  0.2427 -0.0467  0.0690
  172MOL0     C23658   1.651  -0.037   3.705  0.5977 -0.3990  0.2652
  172MOL0     C23659   1.718  -0.144   3.785 -0.5434  0.6673 -0.3321
  172MOL0     C23660   1.847  -0.181   3.718 -0.0865  0.5261 -0.5916
  172MOL0     C23661   1.911  -0.288   3.813 -0.6766  0.0365 -0.0644
  172MOL0     C23662   2.056  -0.302   3.787 -0.7839 -0.7984 -0.7231
  172MOL0     C23663   2.174  -0.293   3.751 -0.5662 -0.0199  0.3534
  172MOL0     C23664   1.508   0.194   3.639  0.4249 -0.1113  0.1905
  172MOL0     C23665   1.444   0.315   3.614 -0.1183  0.2354 -0.1010
  172MOL0     C23666   1.329   0.308   3.525 -0.6947  0.7246  0.3065
  172MOL0     H23667   1.533   0.859   3.446 -0.6324  0.1865 -0.7453
  172MOL0     H23668   1.399   1.066   3.431 -3.6407 -0.4706 -0.7465
  172MOL0     H23669   1.321   1.261   3.456 -0.3501 -0.8791  0.5382
  172MOL0     H23670   1.198   1.344   3.542 -2.2999 -0.4549  1.1128
  172MOL0     H23671   1.142   1.072   3.408  0.3083  0.4003 -0.3351
  172MOL0     H23672   1.027   1.172   3.502  0.8835  2.0273  0.9445
  172MOL0     H23673   1.180   1.274   3.262  1.6132 -0.4771  3.9255
  172MOL0     H23674   1.050   1.162   3.235  0.2731 -1.7423  1.1945
  172MOL0     H23675   1.031   1.415   3.390 -0.2889 -1.9029  2.6967
  172MOL0     H23676   0.988   1.414   3.211 -1.5574 -2.0336 -1.1420
  172MOL0     H23677   0.834   1.228   3.372  1.3447 -1.3606 -2.6153
  172MOL0     H23678   0.792   1.323   3.235 -0.6208 -0.9761  0.9487
  172MOL0     H23679   0.851   1.472   3.495  0.6992  3.0687 -2.0518
  172MOL0     H23680   0.765   1.526   3.349  1.2191 -0.9003 -1.7413
  172MOL0     H23681   0.600   1.469   3.519 -0.5757  0.1910  0.6229
  172MOL0     H23682   0.685   1.313   3.549  1.6747  0.1689 -1.8014
  172MOL0     H23683   0.577   1.378   3.276  0.0477  2.3089  0.7835
  172MOL0     H23684   0.597   1.223   3.367  1.5950  1.0875 -0.1457
  172MOL0     H23685   0.361   1.532   3.330  4.0410 -1.9970  0.4289
  172MOL0     H23686   0.084   1.527   3.526  1.6106  0.5936 -0.6418
  172MOL0     H23687   0.006   1.391   3.451 -1.7900  1.9288  0.8466
  172MOL0     H23688   0.101   1.636   3.315  2.3954 -1.6364  3.5361
  172MOL0     H23689   0.129   1.499   3.215  0.3080 -0.9830  0.1765
  172MOL0     H23690  -0.115   1.429   3.241 -2.7054  0.7247  0.6237
  172MOL0     H23691  -0.150   1.591   3.310 -0.9431 -0.3071 -1.4441
  172MOL0     H23692  -0.034   1.695   3.120  1.2730 -0.7142 -0.4052
  172MOL0     H23693  -0.025   1.550   3.036  2.8564 -0.9877  2.2839
  172MOL0     H23694  -0.160   1.854   2.934  2.4467 -2.1555  1.3930
  172MOL0     H23695  -0.157   2.172   3.027 -0.4674  0.4380 -0.7443
  172MOL0     H23696  -0.313   2.190   2.945 -1.3058 -1.1735 -0.6576
  172MOL0     H23697  -0.200   2.086   2.871  1.0326  1.4296 -0.7607
  172MOL0     H23698  -0.404   2.470   3.093  2.2448 -1.2100  0.6664
  172MOL0     H23699  -0.442   2.698   3.213 -1.5070 -0.6183 -0.4764
  172MOL0     H23700  -0.327   2.718   3.647  2.1823  1.1733  1.5408
  172MOL0     H23701  -0.242   2.784   3.504  0.3129  0.9664  0.7066
  172MOL0     H23702  -0.352   2.986   3.522 -3.3461  1.3122 -0.1907
  172MOL0     H23703  -0.460   2.915   3.642  1.1303  2.4067  0.4153
  172MOL0     H23704  -0.260   2.888   3.802  5.2701  0.8102  0.2511
  172MOL0     H23705  -0.307   3.046   3.773  2.9565  0.8234  0.0866
  172MOL0     H23706  -0.133   3.044   3.584 -3.0129 -0.3292  0.5482
  172MOL0     H23707  -0.084   2.880   3.638  1.3137 -0.2743  2.4246
  172MOL0     H23708  -0.030   2.992   3.873  1.7859  1.6435  1.1008
  172MOL0     H23709   0.070   3.041   3.728 -1.0113 -1.3406 -0.8216
  172MOL0     H23710  -0.170   3.190   3.830  0.2177  0.8562  1.0767
  172MOL0     H23711  -0.064   3.234   3.687 -0.6086  1.1522 -0.0215
  172MOL0     H23712   0.016   3.380   3.854 -0.3017 -0.0789 -0.3225
  172MOL0     H23713   0.122   3.254   3.882 -0.1077 -0.0479 -1.0997
  172MOL0     H23714   0.067   3.312   4.101 -0.3868  0.7103  1.9045
  172MOL0     H23715  -0.035   3.167   4.078 -1.0612  1.0468  3.1394
  172MOL0     H23716  -0.384   2.492   3.586  2.6482 -1.0597  0.2093
  172MOL0     H23717  -0.330   2.297   3.470 -0.6297 -0.2798 -0.6786
  172MOL0     H23718  -0.482   1.909   3.309  0.3866  1.7826 -0.5489
  172MOL0     H23719  -0.392   1.681   3.251  0.0435 -1.3178 -2.2584
  172MOL0     H23720   1.257   1.004   3.842 -2.7351  0.6400 -1.9214
  172MOL0     H23721   1.387   0.788   3.840  1.5663 -0.1805 -0.4142
  172MOL0     H23722   1.641   0.525   3.789  1.8458 -0.0022  0.1830
  172MOL0     H23723   1.765   0.307   3.810  1.5213 -3.2106 -1.9331
  172MOL0     H23724   1.543  -0.050   3.715  0.5418 -1.5128 -1.4225
  172MOL0     H23725   1.666  -0.032   3.596 -1.7447  0.5960 -0.0853
  172MOL0     H23726   1.654  -0.233   3.789 -0.3926  0.4705 -1.6034
  172MOL0     H23727   1.722  -0.110   3.888  0.4099  1.0647 -0.4949
  172MOL0     H23728   1.825  -0.228   3.621  0.5133 -4.0924  1.2693
  172MOL0     H23729   1.922  -0.102   3.702  1.1822 -0.4118  0.4800
  172MOL0     H23730   1.859  -0.384   3.804  1.5939 -1.3139  0.2521
  172MOL0     H23731   1.893  -0.248   3.913 -0.0728  0.8653 -0.2779
  172MOL0     H23732   2.280  -0.287   3.731  0.3919 -0.3463  4.4482
  172MOL0     H23733   1.469   0.107   3.589 -0.2481  0.2998 -0.0060
  172MOL0     H23734   1.357   0.374   3.443  2.5314 -2.6518 -1.6001
  172MOL0     H23735   1.303   0.207   3.491 -0.8119  0.8574 -0.0046
  172MOL0     H23736   1.235   0.333   3.576 -0.0683 -0.4072  2.1117
  173MOL0     O23737   8.887   1.755   8.938 -0.4811 -0.4119  0.1432
  173MOL0     C23738   8.812   1.770   9.041 -0.5203 -0.1589  0.8230
  173MOL0     O23739   8.848   1.718   9.166  0.5003 -0.7425 -0.6677
  173MOL0     C23740   8.968   1.678   9.208 -0.4955  0.4703  0.1071
  173MOL0     C23741   9.087   1.703   9.139  0.0857  0.1342 -0.1872
  173MOL0     C23742   9.205   1.636   9.164  0.4202  0.2011  0.3185
  173MOL0     C23743   9.213   1.538   9.266  1.3215 -0.6859  0.0618
  173MOL0     O23744   9.330   1.467   9.299  0.1115  0.4836 -0.5703
  173MOL0     C23745   9.390   1.402   9.183 -0.5776 -0.5499  0.2349
  173MOL0     C23746   9.513   1.343   9.242  0.7826  0.0403 -0.4621
  173MOL0     C23747   9.593   1.277   9.128 -0.8967  0.5047 -0.9913
  173MOL0     C23748   9.741   1.236   9.186  0.6651  0.1582 -0.1531
  173MOL0     C23749   9.828   1.166   9.075 -0.4279  0.6594  0.0201
  173MOL0     C23750   9.976   1.116   9.112  0.1726  0.5178  0.1823
  173MOL0     C23751  10.061   1.052   9.008 -0.1981  0.1626  0.8942
  173MOL0     C23752  10.102   1.150   8.891  0.4981 -0.8043 -0.8131
  173MOL0     N23753  10.204   1.246   8.934 -0.7145 -0.0110  0.4105
  173MOL0     C23754  10.185   1.354   9.011 -0.3112 -0.1451 -0.1471
  173MOL0     C23755  10.308   1.411   9.026  0.9025 -0.7657  0.2255
  173MOL0     C23756  10.335   1.561   9.051  0.0638 -0.6597 -0.4176
  173MOL0     C23757  10.280   1.654   8.940 -0.5299 -0.8089 -0.8034
  173MOL0     C23758  10.376   1.782   8.928  0.1658 -0.7757  0.9831
  173MOL0     C23759  10.392   1.869   9.063  0.5848  0.5749 -0.0896
  173MOL0     O23760  10.490   1.817   9.155  0.2404  0.2622 -0.1814
  173MOL0     C23761  10.622   1.844   9.140  0.3347  0.3015  1.3062
  173MOL0     C23762  10.705   1.791   9.242 -0.8072  0.9114  1.1545
  173MOL0     C23763  10.844   1.821   9.246  0.1372  0.5840  0.2516
  173MOL0     C23764  10.919   1.768   9.368 -0.2835 -0.6924  0.8938
  173MOL0     C23765  10.903   1.895   9.141  0.2461 -0.3142 -0.0550
  173MOL0     C23766  11.046   1.936   9.144  0.9546  0.0491  0.2104
  173MOL0     O23767  11.130   1.836   9.161  0.0295  0.7807  0.5001
  173MOL0     C23768  11.265   1.858   9.175 -0.1282  0.4678 -0.1431
  173MOL0     C23769  11.349   1.924   9.089  0.1052 -0.6383 -0.4269
  173MOL0     C23770  11.487   1.939   9.123  0.9476  0.0524 -0.8786
  173MOL0     C23771  11.537   1.888   9.242 -0.5673 -0.1774 -0.4417
  173MOL0     O23772  11.667   1.895   9.281 -0.6624 -0.0457  0.1752
  173MOL0     C23773  11.769   1.955   9.203  0.7832  0.2386 -1.0753
  173MOL0     C23774  11.905   1.956   9.276 -1.0941  0.1297  0.2205
  173MOL0     C23775  11.967   1.828   9.327  0.3342  0.0194 -0.0438
  173MOL0     C23776  11.961   1.804   9.476  0.5253 -0.7037 -0.9222
  173MOL0     C23777  11.977   1.657   9.517 -0.5355 -0.6013  0.3266
  173MOL0     C23778  11.859   1.564   9.488 -0.1219 -0.4906  0.1997
  173MOL0     C23779  11.885   1.434   9.563  0.8035  0.2926  0.2691
  173MOL0     C23780  11.761   1.349   9.538  0.0828  0.0418 -0.8273
  173MOL0    Cl23781  11.789   1.201   9.632  0.0549  0.1030  0.0102
  173MOL0     C23782  11.458   1.811   9.330  0.1177 -0.3914  0.5351
  173MOL0     C23783  11.319   1.800   9.293 -0.5288 -0.6016 -1.1009
  173MOL0     O23784  11.070   2.052   9.103  0.4578 -0.1379 -1.4067
  173MOL0     C23785  10.825   1.927   9.029  0.1898  0.3885 -0.2013
  173MOL0     C23786  10.685   1.904   9.030 -0.4436  0.5873  1.0401
  173MOL0     N23787  10.405   1.327   8.984  0.8908  0.3327 -0.2967
  173MOL0     N23788  10.339   1.230   8.930  0.2019 -0.2267 -0.6137
  173MOL0     C23789   9.097   1.518   9.344 -0.2075  0.3074  0.1661
  173MOL0     C23790   8.972   1.581   9.311  0.6293  0.9344  0.3123
  173MOL0     C23791   8.682   1.844   9.020 -0.1078  0.7572 -1.0936
  173MOL0     C23792   8.639   1.880   8.892  0.1705  1.1122 -0.2977
  173MOL0     C23793   8.515   1.948   8.873 -0.5527 -0.8971 -1.0036
  173MOL0     C23794   8.453   2.008   8.982  0.5798 -0.0442 -0.6385
  173MOL0     O23795   8.331   2.076   8.977  0.5632 -0.8110 -0.3768
  173MOL0     C23796   8.351   2.212   8.923  0.2510 -0.7991 -1.1108
  173MOL0     C23797   8.300   2.310   9.028 -1.1379 -0.2836  0.4247
  173MOL0     C23798   8.155   2.338   9.058 -0.2006  0.2260 -0.0195
  173MOL0     C23799   8.065   2.293   8.946 -0.2022 -0.7265 -0.1177
  173MOL0     C23800   7.919   2.343   8.966 -0.5584  0.0219 -0.8317
  173MOL0     C23801   7.800   2.362   8.972  0.0875 -1.0196  1.1019
  173MOL0     C23802   8.493   1.981   9.111  0.5786  0.6899  0.7671
  173MOL0     C23803   8.605   1.894   9.133 -1.1567  0.1778 -0.3255
  173MOL0     C23804   8.639   1.893   9.277 -0.2324 -0.3970  0.0781
  173MOL0     H23805   9.094   1.773   9.057  0.5987 -0.7917 -0.9631
  173MOL0     H23806   9.297   1.664   9.114  1.3429 -3.5476 -0.3636
  173MOL0     H23807   9.401   1.465   9.095 -1.6126 -2.3327 -1.2402
  173MOL0     H23808   9.335   1.314   9.148  1.2849 -2.3490  1.5747
  173MOL0     H23809   9.578   1.415   9.292 -0.9405  0.4880  1.2496
  173MOL0     H23810   9.485   1.267   9.315 -3.0811 -0.3737 -2.1457
  173MOL0     H23811   9.547   1.183   9.096  2.6073 -1.6110 -0.3000
  173MOL0     H23812   9.608   1.349   9.047  0.4309  2.0741  0.5868
  173MOL0     H23813   9.789   1.331   9.211 -0.0879  0.6567 -0.5711
  173MOL0     H23814   9.735   1.171   9.274 -0.0025 -0.9455 -0.9756
  173MOL0     H23815   9.838   1.228   8.985 -0.0019 -1.2124 -1.2861
  173MOL0     H23816   9.770   1.082   9.036 -1.2282  0.1567  2.1469
  173MOL0     H23817  10.025   1.206   9.150 -0.8488  2.5690 -2.9783
  173MOL0     H23818   9.962   1.043   9.192  4.5227  0.7419  1.3812
  173MOL0     H23819  10.002   0.976   8.955  0.3299 -0.1254  0.7044
  173MOL0     H23820  10.150   1.009   9.054  0.6159 -1.4973 -1.9387
  173MOL0     H23821  10.153   1.096   8.811 -1.3463 -1.6651 -1.4506
  173MOL0     H23822  10.008   1.180   8.844  0.6048 -3.9164 -3.2700
  173MOL0     H23823  10.092   1.407   9.031 -1.4583 -1.2958 -2.1396
  173MOL0     H23824  10.443   1.564   9.066 -0.2681  0.5461  2.4411
  173MOL0     H23825  10.294   1.595   9.147  0.8886 -0.5724 -0.0838
  173MOL0     H23826  10.287   1.596   8.848  1.1335 -1.5220 -0.2661
  173MOL0     H23827  10.180   1.679   8.978  0.5151 -0.4810  1.9580
  173MOL0     H23828  10.473   1.751   8.890 -0.4573 -2.5624  0.7382
  173MOL0     H23829  10.326   1.845   8.854  1.4603  0.2848  0.9928
  173MOL0     H23830  10.405   1.973   9.033 -1.9354  0.9444 -0.0668
  173MOL0     H23831  10.292   1.858   9.105 -0.0901 -1.0920 -1.9789
  173MOL0     H23832  10.657   1.726   9.315 -1.7573  0.7324  0.4030
  173MOL0     H23833  10.867   1.679   9.404 -0.1876 -1.6987 -1.3011
  173MOL0     H23834  10.938   1.848   9.440  1.0838 -0.3939  0.2412
  173MOL0     H23835  11.017   1.740   9.329 -2.1287 -1.8634 -3.5174
  173MOL0     H23836  11.309   1.961   8.995  0.3579 -0.5458 -0.4970
  173MOL0     H23837  11.555   1.999   9.064  3.0149  0.1524  1.4301
  173MOL0     H23838  11.782   1.899   9.111  3.0560 -2.4305  0.7074
  173MOL0     H23839  11.739   2.058   9.178 -0.7905 -0.3788 -1.8334
  173MOL0     H23840  11.969   1.999   9.198 -1.3877  0.7682  0.3174
  173MOL0     H23841  11.904   2.027   9.359  0.9473 -0.1497  0.5308
  173MOL0     H23842  12.074   1.825   9.306  1.1907 -1.4539  3.7111
  173MOL0     H23843  11.908   1.752   9.275  2.4091 -3.1203  1.8677
  173MOL0     H23844  11.865   1.834   9.519  1.1290 -0.4390  0.3018
  173MOL0     H23845  12.045   1.849   9.530 -0.6469  0.5893 -0.1155
  173MOL0     H23846  12.069   1.620   9.472  0.2065 -2.6222  3.2300
  173MOL0     H23847  12.009   1.673   9.620  3.1230  0.2728 -0.8256
  173MOL0     H23848  11.856   1.543   9.381 -1.9300 -0.0361  0.1291
  173MOL0     H23849  11.765   1.612   9.518 -1.0318 -1.9568 -0.2105
  173MOL0     H23850  11.885   1.470   9.666 -1.5306 -1.1660  0.8507
  173MOL0     H23851  11.977   1.378   9.544 -0.9396 -2.0109 -2.0596
  173MOL0     H23852  11.739   1.343   9.431 -1.6857 -1.1915 -0.4390
  173MOL0     H23853  11.677   1.410   9.572  0.1582 -0.7559  0.8696
  173MOL0     H23854  11.499   1.771   9.422  1.4059  0.1705  0.2254
  173MOL0     H23855  11.267   1.755   9.377  3.3066 -2.1031  0.6777
  173MOL0     H23856  10.862   1.985   8.944  0.1010  1.5710  0.5408
  173MOL0     H23857  10.618   1.953   8.959 -0.3584  1.1415  1.3388
  173MOL0     H23858   9.103   1.445   9.423  2.0334 -1.9460 -1.8950
  173MOL0     H23859   8.881   1.559   9.366  1.2161 -1.6197  0.3837
  173MOL0     H23860   8.681   1.838   8.801 -1.6605 -0.9821 -0.2672
  173MOL0     H23861   8.481   1.961   8.771 -2.1804  0.6202 -0.3296
  173MOL0     H23862   8.458   2.223   8.901  0.6815  0.0688  1.1678
  173MOL0     H23863   8.301   2.223   8.826  2.2693  0.1250 -2.1190
  173MOL0     H23864   8.341   2.406   8.994  0.9680 -0.2729  2.6968
  173MOL0     H23865   8.356   2.293   9.120 -2.6788 -0.7275  1.2952
  173MOL0     H23866   8.129   2.276   9.144  0.6936 -2.1498 -1.3618
  173MOL0     H23867   8.139   2.443   9.084 -1.5014  0.0532 -0.0538
  173MOL0     H23868   8.068   2.184   8.938  1.2989 -0.6364 -1.2370
  173MOL0     H23869   8.095   2.338   8.850 -0.8198  3.3229  1.3799
  173MOL0     H23870   7.695   2.375   8.987 -0.2735 -1.9216 -0.4362
  173MOL0     H23871   8.427   2.016   9.190 -1.8395 -0.1181 -0.7672
  173MOL0     H23872   8.695   1.986   9.290  0.2008 -0.7438  0.6957
  173MOL0     H23873   8.544   1.899   9.330  0.0025  1.0716  0.3554
  173MOL0     H23874   8.696   1.804   9.304  0.1388 -0.9646 -2.3396
  174MOL0     O23875   7.342   1.536   2.796 -0.0607  0.0554 -0.0787
  174MOL0     C23876   7.373   1.426   2.759 -0.0200  0.4026 -0.7805
  174MOL0     O23877   7.439   1.337   2.833  0.2822  0.0807 -0.0989
  174MOL0     C23878   7.507   1.380   2.944  0.4256  0.3844 -0.0753
  174MOL0     C23879   7.436   1.447   3.050 -0.9439  1.0666 -0.1082
  174MOL0     C23880   7.499   1.480   3.169 -0.5597  0.4332 -1.5665
  174MOL0     C23881   7.631   1.434   3.192 -0.3287 -0.0139 -1.4940
  174MOL0     O23882   7.683   1.485   3.306  0.1883  0.2744 -0.2336
  174MOL0     C23883   7.823   1.470   3.333 -0.3341  0.0614 -1.0323
  174MOL0     C23884   7.853   1.519   3.476 -1.0173 -0.7585 -0.5204
  174MOL0     C23885   7.789   1.436   3.586 -1.3357  0.1586 -0.6353
  174MOL0     C23886   7.799   1.508   3.730 -0.1586 -0.1150  0.1892
  174MOL0     C23887   7.691   1.441   3.835 -0.2059 -0.2675 -0.3070
  174MOL0     C23888   7.763   1.354   3.943 -0.1639 -0.8020  1.1320
  174MOL0     C23889   7.832   1.226   3.905  0.1375  0.2196 -0.1137
  174MOL0     C23890   7.917   1.162   4.015 -0.9035 -0.3207  0.1928
  174MOL0     N23891   8.045   1.230   4.036 -0.0189 -0.6814 -0.5474
  174MOL0     C23892   8.090   1.263   4.164  0.3435  0.5155  0.1304
  174MOL0     C23893   8.211   1.323   4.139 -0.1835 -0.8502 -0.1805
  174MOL0     C23894   8.292   1.377   4.248  1.0169  0.8135 -0.1981
  174MOL0     C23895   8.212   1.446   4.358  0.3642 -0.9736  0.1532
  174MOL0     C23896   8.110   1.554   4.310 -0.5959 -0.3780  0.2429
  174MOL0     C23897   8.059   1.641   4.426  0.1283  0.2325  0.1169
  174MOL0     O23898   7.999   1.549   4.522 -0.2590  0.0527 -0.8251
  174MOL0     C23899   7.943   1.599   4.637 -0.1858 -0.6944  0.1363
  174MOL0     C23900   7.956   1.537   4.758 -0.4727  0.8002  0.3572
  174MOL0     C23901   7.912   1.593   4.881  0.1483 -0.9274  0.3727
  174MOL0     C23902   7.923   1.503   5.001  0.8337 -0.3335 -0.0920
  174MOL0     C23903   7.851   1.728   4.878 -0.7998  0.3651 -0.9253
  174MOL0     C23904   7.793   1.801   4.997 -0.0868  0.2011 -0.7377
  174MOL0     O23905   7.745   1.735   5.103 -0.3100  0.9355 -1.0187
  174MOL0     C23906   7.684   1.809   5.199  0.7168 -0.7157  1.2734
  174MOL0     C23907   7.561   1.764   5.239 -0.3207 -0.6445  0.6194
  174MOL0     C23908   7.511   1.825   5.353  1.1544 -0.2763 -0.3391
  174MOL0     C23909   7.574   1.928   5.419 -0.6788 -0.3649 -0.1252
  174MOL0     O23910   7.524   1.979   5.544  0.9845 -0.6456  0.0600
  174MOL0     C23911   7.567   1.941   5.675  0.9446  0.2507 -0.4810
  174MOL0     C23912   7.469   1.842   5.741  1.1408  0.1917  0.3782
  174MOL0     C23913   7.522   1.806   5.883  0.0352 -0.6975 -0.1829
  174MOL0     C23914   7.440   1.691   5.948 -0.0776 -0.1623 -0.0887
  174MOL0     C23915   7.477   1.684   6.099  0.5080  0.0079 -0.3752
  174MOL0     C23916   7.382   1.579   6.171  0.2602 -0.5137 -1.0964
  174MOL0     C23917   7.425   1.553   6.320 -0.9639 -1.4329  0.4073
  174MOL0     C23918   7.415   1.688   6.393  0.2909 -0.7375  0.1018
  174MOL0    Cl23919   7.460   1.672   6.563  0.0211  0.1840 -0.2599
  174MOL0     C23920   7.691   1.982   5.370 -0.2555  0.1042  0.6564
  174MOL0     C23921   7.750   1.918   5.262  0.0622 -0.1615 -0.2561
  174MOL0     O23922   7.787   1.923   4.981 -0.3771 -0.0556  0.2571
  174MOL0     C23923   7.850   1.795   4.755 -1.0259 -0.1934 -0.2977
  174MOL0     C23924   7.894   1.729   4.641  0.7469 -0.3331 -0.7825
  174MOL0     N23925   8.232   1.311   4.008  0.2409  0.7617  1.0369
  174MOL0     N23926   8.131   1.266   3.942 -0.1801  0.0174  0.2247
  174MOL0     C23927   7.694   1.356   3.098  0.1862 -1.0363 -0.9880
  174MOL0     C23928   7.635   1.334   2.974  0.6831  0.2260  0.5202
  174MOL0     C23929   7.330   1.392   2.622  0.6037 -0.2845 -0.0276
  174MOL0     C23930   7.209   1.447   2.572 -0.3132  0.5313 -0.1489
  174MOL0     C23931   7.178   1.429   2.437 -0.4577  0.5505 -0.0893
  174MOL0     C23932   7.264   1.367   2.351  0.8893  0.0438  0.7399
  174MOL0     O23933   7.244   1.357   2.216 -0.0457 -0.1897 -0.4813
  174MOL0     C23934   7.157   1.448   2.146 -0.0520 -0.0799 -0.3835
  174MOL0     C23935   7.221   1.587   2.136 -0.6025  0.1311  0.3453
  174MOL0     C23936   7.102   1.696   2.148 -0.5985 -0.2651 -0.4978
  174MOL0     C23937   7.137   1.843   2.091 -0.5176 -0.2208 -0.0596
  174MOL0     C23938   7.126   1.848   1.939 -0.4648 -0.5062 -0.4926
  174MOL0     C23939   7.125   1.861   1.820 -0.5982  0.2562  0.5380
  174MOL0     C23940   7.372   1.298   2.406  0.2657  0.5987  0.4467
  174MOL0     C23941   7.408   1.312   2.539 -1.1958 -0.2853  0.3033
  174MOL0     C23942   7.547   1.256   2.570 -0.6139  0.0228  0.4301
  174MOL0     H23943   7.335   1.484   3.034 -0.8741  1.7168  0.8393
  174MOL0     H23944   7.457   1.533   3.253  0.3023 -2.3054  0.7432
  174MOL0     H23945   7.877   1.528   3.258 -2.7443  2.6782 -0.9359
  174MOL0     H23946   7.856   1.368   3.311 -1.5433  0.2377 -4.4312
  174MOL0     H23947   7.960   1.527   3.495 -1.4406  1.0177  1.7375
  174MOL0     H23948   7.810   1.620   3.488 -0.3836 -0.3887 -1.2947
  174MOL0     H23949   7.685   1.408   3.567 -0.7554 -2.7985 -0.0187
  174MOL0     H23950   7.842   1.340   3.594 -1.1383  0.0654 -2.5075
  174MOL0     H23951   7.901   1.510   3.769 -0.7383  2.1375  1.7410
  174MOL0     H23952   7.764   1.611   3.721  0.5724  0.0050 -1.8067
  174MOL0     H23953   7.615   1.388   3.776 -0.2699 -1.1319  0.5278
  174MOL0     H23954   7.651   1.529   3.886  3.0904  1.5424 -0.5918
  174MOL0     H23955   7.837   1.421   3.987 -0.6266 -0.5146  1.4748
  174MOL0     H23956   7.686   1.337   4.019 -1.2913  0.2130  0.2507
  174MOL0     H23957   7.896   1.255   3.821 -1.6165  1.2228 -1.1672
  174MOL0     H23958   7.767   1.149   3.863 -0.8840  0.9508  0.0990
  174MOL0     H23959   7.848   1.152   4.099  0.0823 -0.6297  0.9888
  174MOL0     H23960   7.936   1.061   3.977  0.0873  0.6816 -2.1767
  174MOL0     H23961   8.032   1.251   4.255  0.6031 -3.6760 -0.0573
  174MOL0     H23962   8.370   1.445   4.212 -2.2488  3.2408 -3.4698
  174MOL0     H23963   8.337   1.293   4.301 -2.9473 -3.3340 -2.6888
  174MOL0     H23964   8.153   1.372   4.413 -0.5763 -1.1550 -1.0630
  174MOL0     H23965   8.282   1.490   4.429 -1.7494  1.8017  0.6980
  174MOL0     H23966   8.159   1.629   4.247 -2.6875 -1.3052 -2.7383
  174MOL0     H23967   8.024   1.517   4.253 -2.2984  2.3613  0.7774
  174MOL0     H23968   8.147   1.690   4.469  1.0735 -0.2025 -1.2447
  174MOL0     H23969   7.988   1.714   4.388 -1.2561 -0.3270  1.5177
  174MOL0     H23970   8.004   1.440   4.753 -1.3434  0.4073 -1.4519
  174MOL0     H23971   7.966   1.561   5.083  0.3570 -0.2686  0.1161
  174MOL0     H23972   7.987   1.419   4.975 -1.6214 -1.3801 -3.5329
  174MOL0     H23973   7.826   1.458   5.025  0.7217 -1.3115 -2.1827
  174MOL0     H23974   7.500   1.691   5.188  0.8740 -0.0218 -1.8404
  174MOL0     H23975   7.409   1.816   5.391 -0.2493  2.0687 -3.1008
  174MOL0     H23976   7.669   1.902   5.684  0.5121 -0.7016  0.6200
  174MOL0     H23977   7.576   2.030   5.738  2.9438  0.3290 -0.8296
  174MOL0     H23978   7.367   1.880   5.754 -0.2415 -1.8361 -3.1882
  174MOL0     H23979   7.466   1.750   5.682 -0.9986  0.4351  0.0433
  174MOL0     H23980   7.513   1.895   5.948 -1.5550 -0.7322 -0.3018
  174MOL0     H23981   7.629   1.787   5.875 -0.2135 -1.5554 -1.6990
  174MOL0     H23982   7.454   1.598   5.892  1.6755 -0.0592  0.1262
  174MOL0     H23983   7.333   1.706   5.930 -0.2934 -0.9729  0.4804
  174MOL0     H23984   7.579   1.647   6.109  1.2238  2.2902  1.9621
  174MOL0     H23985   7.469   1.787   6.136  0.2648  0.5473 -1.8579
  174MOL0     H23986   7.385   1.487   6.111 -1.1072 -3.1823  2.5304
  174MOL0     H23987   7.280   1.617   6.183  0.9901  1.7138 -1.4215
  174MOL0     H23988   7.528   1.515   6.322 -0.5296 -0.3102  0.2461
  174MOL0     H23989   7.352   1.483   6.362 -2.1352  0.4491  1.6225
  174MOL0     H23990   7.310   1.720   6.388 -0.0619 -1.7612  0.7671
  174MOL0     H23991   7.481   1.768   6.356  1.2936 -1.7843 -0.4392
  174MOL0     H23992   7.724   2.070   5.425  0.6472 -1.0769  2.1029
  174MOL0     H23993   7.847   1.950   5.225 -1.5375  5.2629 -0.5184
  174MOL0     H23994   7.813   1.893   4.728 -2.5063 -1.2689 -2.4972
  174MOL0     H23995   7.886   1.788   4.550 -0.2118  0.1877 -0.3772
  174MOL0     H23996   7.798   1.329   3.113  1.1318  2.1209 -1.2740
  174MOL0     H23997   7.683   1.274   2.896  0.0707 -1.1583  1.1711
  174MOL0     H23998   7.150   1.496   2.649 -3.1530 -0.8634 -1.2763
  174MOL0     H23999   7.089   1.478   2.398  0.0274  1.5423 -0.0080
  174MOL0     H24000   7.152   1.409   2.044 -1.6282 -1.4827  0.1869
  174MOL0     H24001   7.055   1.460   2.183 -0.5480  2.8198 -2.3368
  174MOL0     H24002   7.273   1.589   2.039 -1.9735  2.0361 -0.4416
  174MOL0     H24003   7.292   1.601   2.218 -2.9954 -0.1689  2.5783
  174MOL0     H24004   7.019   1.664   2.085 -0.4891 -1.0688 -0.2392
  174MOL0     H24005   7.081   1.693   2.256  1.9208 -0.1743  0.0519
  174MOL0     H24006   7.236   1.881   2.118 -0.7759  1.7837 -1.6673
  174MOL0     H24007   7.066   1.917   2.128 -3.1077 -0.3676 -4.1264
  174MOL0     H24008   7.141   1.890   1.718 -2.5388  1.3664  0.5063
  174MOL0     H24009   7.440   1.243   2.341 -2.5561 -0.3398 -1.9073
  174MOL0     H24010   7.621   1.332   2.542  2.2042 -2.0633  1.7232
  174MOL0     H24011   7.574   1.220   2.670 -1.6352 -2.1961 -0.0325
  174MOL0     H24012   7.573   1.178   2.498  0.2470  0.5222  0.1806
  175MOL0     O24013   1.812   0.777   8.806 -0.8461  0.5783 -0.3897
  175MOL0     C24014   1.766   0.688   8.734 -0.1983  0.0128 -0.1526
  175MOL0     O24015   1.787   0.553   8.743  0.1634 -0.0166 -0.0597
  175MOL0     C24016   1.900   0.502   8.795  0.1103  0.4644  0.0914
  175MOL0     C24017   1.905   0.365   8.787 -0.0659 -1.0581  0.0062
  175MOL0     C24018   2.007   0.289   8.850 -0.5366  0.0358 -0.0031
  175MOL0     C24019   2.125   0.354   8.906  0.3129 -1.0580  0.3312
  175MOL0     O24020   2.235   0.280   8.949  0.5691 -0.6974  0.0752
  175MOL0     C24021   2.273   0.183   8.847 -0.5589 -0.1441 -0.6388
  175MOL0     C24022   2.424   0.170   8.837 -1.1004 -0.8059 -1.2056
  175MOL0     C24023   2.506   0.285   8.771  0.7919  0.1369  0.0585
  175MOL0     C24024   2.647   0.242   8.743 -1.2249 -0.0137  0.8718
  175MOL0     C24025   2.717   0.367   8.683 -0.5176  0.7163 -0.3061
  175MOL0     C24026   2.867   0.342   8.658  0.8175 -1.1670 -0.0617
  175MOL0     C24027   2.950   0.456   8.590  0.3423  0.0450  0.2542
  175MOL0     C24028   2.962   0.585   8.681  0.5969 -0.2538 -0.1152
  175MOL0     N24029   3.047   0.689   8.619 -0.4744  0.8952  0.3468
  175MOL0     C24030   3.014   0.823   8.588 -0.8890 -0.4191 -0.0940
  175MOL0     C24031   3.133   0.877   8.557  0.5330 -0.3269  0.0387
  175MOL0     C24032   3.146   1.006   8.495 -0.2688 -0.1269  0.7430
  175MOL0     C24033   3.288   1.032   8.427 -0.2843 -0.4571 -0.1034
  175MOL0     C24034   3.292   1.172   8.351 -0.6596  0.1532 -0.2448
  175MOL0     C24035   3.426   1.218   8.303  0.1033  0.3294 -0.4367
  175MOL0     O24036   3.499   1.309   8.393 -0.0092 -0.4036  0.6430
  175MOL0     C24037   3.586   1.401   8.335  0.2490 -0.9631  0.0036
  175MOL0     C24038   3.645   1.487   8.429  0.1763 -0.0995 -0.1748
  175MOL0     C24039   3.750   1.576   8.394  0.1374  0.1804  0.4449
  175MOL0     C24040   3.830   1.643   8.504 -0.2027 -0.8888 -0.2116
  175MOL0     C24041   3.788   1.594   8.260  0.8745  0.3875 -0.5138
  175MOL0     C24042   3.892   1.691   8.212  1.2980  0.6708 -0.4544
  175MOL0     O24043   3.897   1.710   8.071 -0.2839 -0.6518 -0.8794
  175MOL0     C24044   3.986   1.784   8.002  0.0223 -0.5934  0.1381
  175MOL0     C24045   3.947   1.833   7.880 -0.2469 -0.3685  0.0271
  175MOL0     C24046   4.035   1.916   7.799  0.2556  1.1727  0.0176
  175MOL0     C24047   4.163   1.950   7.846  0.7304 -0.8437 -0.0457
  175MOL0     O24048   4.246   2.047   7.790  0.0171  0.0799 -0.1715
  175MOL0     C24049   4.191   2.132   7.686 -0.4660 -0.1879 -0.2020
  175MOL0     C24050   4.257   2.272   7.677  0.5218  0.6445  0.4554
  175MOL0     C24051   4.185   2.363   7.569  0.3361  0.1296  0.0274
  175MOL0     C24052   4.038   2.393   7.602  0.2955  0.7488  0.1814
  175MOL0     C24053   3.960   2.435   7.477  0.4629 -0.6577  0.7147
  175MOL0     C24054   3.872   2.554   7.522  0.3347 -0.1624  1.3093
  175MOL0     C24055   3.809   2.624   7.397  0.2801 -0.0834  0.6261
  175MOL0     C24056   3.751   2.759   7.431  0.9225  0.1000 -0.2990
  175MOL0    Cl24057   3.655   2.813   7.291  0.2040 -0.4831 -0.3930
  175MOL0     C24058   4.201   1.898   7.972  0.1716 -0.4005  0.1235
  175MOL0     C24059   4.119   1.812   8.045  0.2387 -0.6169 -0.0017
  175MOL0     O24060   3.971   1.741   8.291  0.3031  0.0798  0.2522
  175MOL0     C24061   3.714   1.515   8.168 -0.8507  0.1045 -0.1821
  175MOL0     C24062   3.615   1.421   8.200 -0.3518  0.0441  0.3465
  175MOL0     N24063   3.234   0.786   8.585  0.2447  0.6359  0.3970
  175MOL0     N24064   3.179   0.671   8.612 -0.6483 -1.2419  0.4861
  175MOL0     C24065   2.118   0.496   8.927  0.3159 -0.0645  0.2546
  175MOL0     C24066   2.006   0.560   8.875  0.0083 -0.1455  0.6277
  175MOL0     C24067   1.665   0.733   8.632  1.2812 -0.0634 -0.0325
  175MOL0     C24068   1.627   0.660   8.524 -0.2132  1.1113 -0.9792
  175MOL0     C24069   1.537   0.707   8.427  0.5487 -0.0393  0.2678
  175MOL0     C24070   1.475   0.826   8.436 -0.3263  1.0412 -0.5475
  175MOL0     O24071   1.396   0.869   8.337 -0.2689 -0.5876 -0.5096
  175MOL0     C24072   1.266   0.812   8.327 -0.5193 -0.2949 -0.5814
  175MOL0     C24073   1.174   0.865   8.426  0.6986 -0.2945  0.4209
  175MOL0     C24074   1.024   0.831   8.396  0.2061  0.5802 -0.0308
  175MOL0     C24075   0.929   0.828   8.515 -0.6557 -0.7021 -0.4172
  175MOL0     C24076   0.795   0.794   8.464  0.7627  0.1385 -0.6904
  175MOL0     C24077   0.684   0.745   8.448 -0.5567  0.6190 -0.2609
  175MOL0     C24078   1.506   0.901   8.542 -0.8813  0.2977  0.0610
  175MOL0     C24079   1.585   0.853   8.650 -0.4464  0.7885  0.3157
  175MOL0     C24080   1.610   0.952   8.770  0.4483  0.0265  0.0671
  175MOL0     H24081   1.825   0.308   8.741 -0.0080 -0.9746 -0.1999
  175MOL0     H24082   2.011   0.182   8.832 -0.5550 -0.1051  0.7984
  175MOL0     H24083   2.252   0.226   8.748 -0.6745  2.5190  0.4492
  175MOL0     H24084   2.215   0.092   8.865 -1.1684  0.6457  1.7128
  175MOL0     H24085   2.453   0.164   8.942 -0.4179  0.1365 -1.3269
  175MOL0     H24086   2.441   0.079   8.778  0.2026 -0.3281 -1.6028
  175MOL0     H24087   2.444   0.315   8.686 -2.2099  2.2293  2.7352
  175MOL0     H24088   2.510   0.368   8.842  2.3882 -0.7735  1.0928
  175MOL0     H24089   2.690   0.207   8.838  1.4525 -1.5098 -0.7666
  175MOL0     H24090   2.645   0.150   8.684  2.9483  0.6542 -0.6534
  175MOL0     H24091   2.691   0.446   8.754  0.0840 -0.2492  1.0540
  175MOL0     H24092   2.665   0.384   8.589 -4.2372 -1.7837  1.0281
  175MOL0     H24093   2.918   0.326   8.754  4.8898 -0.9809 -1.9971
  175MOL0     H24094   2.871   0.251   8.598 -2.2082 -2.0292  0.8882
  175MOL0     H24095   2.932   0.472   8.484  1.2456 -1.8387 -0.2282
  175MOL0     H24096   3.051   0.416   8.589  0.6703  0.8411  0.2792
  175MOL0     H24097   2.864   0.626   8.707  0.6926  0.2729 -0.5749
  175MOL0     H24098   3.006   0.566   8.780  1.5819  2.0521 -0.0533
  175MOL0     H24099   2.918   0.874   8.586 -0.5372  0.3514  1.4391
  175MOL0     H24100   3.138   1.080   8.575 -0.5439 -0.5606  1.1228
  175MOL0     H24101   3.065   1.008   8.421  1.8633  1.9042 -1.7403
  175MOL0     H24102   3.355   1.030   8.513 -1.3837  0.5329  0.8040
  175MOL0     H24103   3.310   0.956   8.352 -3.8476 -0.7699 -0.9885
  175MOL0     H24104   3.237   1.160   8.257  4.3781 -2.0496 -3.3066
  175MOL0     H24105   3.252   1.241   8.426  1.7891 -1.1587  2.4384
  175MOL0     H24106   3.483   1.129   8.275 -0.7954 -1.0632  1.8637
  175MOL0     H24107   3.394   1.278   8.218 -1.7726 -0.7992 -0.5862
  175MOL0     H24108   3.632   1.473   8.536 -1.2360 -1.0920 -0.4393
  175MOL0     H24109   3.818   1.752   8.511 -0.0156 -0.9283  0.9627
  175MOL0     H24110   3.937   1.626   8.493  0.2395  2.0687 -1.5978
  175MOL0     H24111   3.807   1.601   8.603  1.1735 -0.9635  0.0958
  175MOL0     H24112   3.845   1.819   7.847 -0.3174 -0.3400  0.2302
  175MOL0     H24113   4.000   1.948   7.702 -1.9072  1.4670  0.8367
  175MOL0     H24114   4.205   2.089   7.586 -0.0546 -0.1876 -0.1488
  175MOL0     H24115   4.084   2.145   7.702 -1.1938 -1.8880 -3.0002
  175MOL0     H24116   4.245   2.322   7.774  0.3398  1.5820 -0.0438
  175MOL0     H24117   4.361   2.266   7.645 -0.1865 -0.6538 -1.8251
  175MOL0     H24118   4.179   2.319   7.469 -4.1234  0.2388  0.0388
  175MOL0     H24119   4.242   2.456   7.569  0.3952  0.0920  0.3229
  175MOL0     H24120   4.038   2.457   7.690  3.2443  0.8591  0.2090
  175MOL0     H24121   3.985   2.298   7.618 -1.1007  1.0328 -2.2928
  175MOL0     H24122   4.031   2.457   7.396  1.1032 -1.9716  0.8858
  175MOL0     H24123   3.896   2.353   7.443  1.2634 -0.9804 -0.0500
  175MOL0     H24124   3.941   2.616   7.581  1.9177 -0.4695 -0.1364
  175MOL0     H24125   3.796   2.510   7.588 -1.1347  0.8833  0.3749
  175MOL0     H24126   3.739   2.551   7.356  2.7526 -1.9046 -0.6906
  175MOL0     H24127   3.880   2.637   7.315  1.3588  2.9935  1.8990
  175MOL0     H24128   3.835   2.827   7.449  0.3747  0.5205  0.7722
  175MOL0     H24129   3.688   2.762   7.520  2.1421 -0.8358  0.6341
  175MOL0     H24130   4.299   1.918   8.015  1.4214 -2.3759 -1.5860
  175MOL0     H24131   4.150   1.760   8.135  1.1630 -0.5221 -0.2511
  175MOL0     H24132   3.758   1.515   8.069 -3.1175 -1.0741 -1.2651
  175MOL0     H24133   3.582   1.362   8.115 -0.3692  0.6259 -0.0538
  175MOL0     H24134   2.197   0.539   8.987  1.7116 -3.0144  0.7279
  175MOL0     H24135   2.009   0.668   8.888 -2.2048 -0.2729  3.2791
  175MOL0     H24136   1.678   0.565   8.512  1.3717  1.7507  0.2570
  175MOL0     H24137   1.525   0.641   8.341  1.6784 -3.2091  2.3305
  175MOL0     H24138   1.225   0.834   8.229 -1.7138  2.0790  0.3812
  175MOL0     H24139   1.277   0.705   8.349  0.3711 -0.1104 -0.0434
  175MOL0     H24140   1.183   0.974   8.434 -2.4868 -0.0062  1.4519
  175MOL0     H24141   1.201   0.828   8.526  2.3329  0.3956  0.2753
  175MOL0     H24142   0.980   0.901   8.325  1.6441  1.8907  0.3228
  175MOL0     H24143   1.028   0.734   8.346  0.4034  0.6088 -0.0740
  175MOL0     H24144   0.917   0.930   8.552  1.1551  0.0640 -1.7916
  175MOL0     H24145   0.959   0.755   8.592 -3.0845 -0.5633  0.7417
  175MOL0     H24146   0.596   0.689   8.424 -0.4927  1.1558 -1.8974
  175MOL0     H24147   1.444   0.988   8.562 -2.4881 -0.4249 -1.4604
  175MOL0     H24148   1.597   0.902   8.866  1.1843 -0.4224 -0.0589
  175MOL0     H24149   1.707   1.001   8.756 -0.2307  2.4620  2.8396
  175MOL0     H24150   1.533   1.030   8.777 -0.5689 -1.0636  5.1793
  176MOL0     O24151  11.122   7.520  10.061 -0.0204  0.0105  0.4771
  176MOL0     C24152  11.016   7.499  10.005 -0.1924  1.0404 -0.4956
  176MOL0     O24153  11.008   7.423   9.891 -0.2167 -0.6283 -0.3334
  176MOL0     C24154  11.120   7.387   9.822 -0.2430  0.8407 -0.4204
  176MOL0     C24155  11.212   7.300   9.885 -0.2743  0.7782  0.8042
  176MOL0     C24156  11.318   7.250   9.807 -0.0366 -0.2240 -0.9178
  176MOL0     C24157  11.331   7.291   9.677  0.7688  0.2478 -0.1454
  176MOL0     O24158  11.426   7.223   9.606 -1.0307 -0.1934  0.1392
  176MOL0     C24159  11.523   7.313   9.554 -0.0500 -0.2707 -0.1647
  176MOL0     C24160  11.550   7.278   9.403  0.0029  0.1860  0.3733
  176MOL0     C24161  11.439   7.339   9.309 -0.0528 -0.0325 -0.2037
  176MOL0     C24162  11.507   7.338   9.172 -0.0973  0.7507  0.3630
  176MOL0     C24163  11.428   7.430   9.079 -0.9385 -1.1779  0.1902
  176MOL0     C24164  11.285   7.394   9.040 -0.3604  0.0312 -0.6788
  176MOL0     C24165  11.221   7.511   8.971  0.0514 -0.9235 -0.1926
  176MOL0     C24166  11.168   7.624   9.060  0.5490  0.1273 -1.4985
  176MOL0     N24167  11.106   7.730   8.982  0.6846  0.3514 -0.1071
  176MOL0     C24168  10.999   7.706   8.900 -0.3421 -0.5867 -0.4579
  176MOL0     C24169  10.998   7.819   8.826  0.2472  0.7038 -0.4352
  176MOL0     C24170  10.897   7.855   8.714  0.6460  0.5234 -0.8813
  176MOL0     C24171  10.759   7.873   8.790  0.5128 -1.0125  1.1156
  176MOL0     C24172  10.657   7.923   8.688 -0.1868  0.4097 -0.8941
  176MOL0     C24173  10.516   7.933   8.750 -0.5985  0.5077  0.3761
  176MOL0     O24174  10.419   7.956   8.642  0.5286 -0.7303 -0.6720
  176MOL0     C24175  10.284   7.953   8.672  0.9173 -0.4793  0.3439
  176MOL0     C24176  10.203   7.850   8.630  0.3200  0.5874  0.1484
  176MOL0     C24177  10.062   7.863   8.652  1.1028 -0.6900 -0.0938
  176MOL0     C24178   9.989   7.741   8.628 -0.2800  0.0974 -0.2325
  176MOL0     C24179  10.011   7.970   8.737 -0.0825  0.0650  0.0164
  176MOL0     C24180   9.868   7.982   8.765  0.3325 -0.0212  0.6331
  176MOL0     O24181   9.832   8.033   8.885 -0.1878  0.2457 -0.1993
  176MOL0     C24182   9.696   8.036   8.900  0.9400  1.2568  0.4928
  176MOL0     C24183   9.628   8.157   8.924 -0.3293  0.0173  0.3235
  176MOL0     C24184   9.495   8.152   8.961 -0.5695 -0.1037  0.3792
  176MOL0     C24185   9.431   8.026   8.983  0.4211  0.6697 -0.6745
  176MOL0     O24186   9.296   8.018   9.018  0.1294  0.5992  0.0550
  176MOL0     C24187   9.251   8.134   9.088 -0.3116  0.0686  0.3358
  176MOL0     C24188   9.122   8.098   9.161  0.7611 -0.9101 -0.4959
  176MOL0     C24189   9.089   8.229   9.239 -0.3632  0.4966 -0.4281
  176MOL0     C24190   8.955   8.214   9.327  0.5198 -0.0266  0.3769
  176MOL0     C24191   8.899   8.351   9.372  0.2364 -0.3889  0.7997
  176MOL0     C24192   8.994   8.448   9.450 -0.8114  0.6025 -0.1197
  176MOL0     C24193   8.923   8.591   9.436 -0.6084  0.0689 -0.5025
  176MOL0     C24194   8.870   8.634   9.572 -0.1286 -1.0745 -0.2304
  176MOL0    Cl24195   9.012   8.657   9.682  0.0694 -0.3857  0.1462
  176MOL0     C24196   9.498   7.907   8.958 -0.4391  0.5989 -0.0859
  176MOL0     C24197   9.636   7.915   8.925 -0.7176  0.4896 -1.1685
  176MOL0     O24198   9.793   7.948   8.672 -0.3797  0.2046 -0.0220
  176MOL0     C24199  10.095   8.070   8.764 -0.0550 -0.4909 -0.8818
  176MOL0     C24200  10.229   8.059   8.738 -0.0725 -0.0973 -0.7709
  176MOL0     N24201  11.103   7.898   8.857 -0.6650 -0.5290  0.9218
  176MOL0     N24202  11.166   7.849   8.956 -0.9470 -0.2988  0.6279
  176MOL0     C24203  11.246   7.388   9.626  0.0719  0.3974  1.8148
  176MOL0     C24204  11.136   7.429   9.694  0.7950 -0.0400 -1.0622
  176MOL0     C24205  10.890   7.534  10.072 -0.2961 -0.1608 -0.0564
  176MOL0     C24206  10.774   7.458  10.054 -0.3603 -0.4502  0.1142
  176MOL0     C24207  10.650   7.504  10.107 -1.2062  0.1434  0.3572
  176MOL0     C24208  10.631   7.625  10.175 -0.3548  0.3309  0.2169
  176MOL0     O24209  10.505   7.662  10.212  0.2506  0.4391 -0.0829
  176MOL0     C24210  10.473   7.799  10.222  0.0962  0.2568 -0.9975
  176MOL0     C24211  10.349   7.839  10.144  1.0078  1.4902  0.1768
  176MOL0     C24212  10.293   7.968  10.189 -0.4639  0.0036 -0.1290
  176MOL0     C24213  10.178   8.006  10.096 -0.7686 -1.0996  0.6561
  176MOL0     C24214  10.105   8.127  10.143  0.2929 -0.0680  0.5675
  176MOL0     C24215  10.033   8.227  10.150  0.0891  1.2891 -0.7148
  176MOL0     C24216  10.750   7.696  10.193 -0.0233 -0.0380 -0.5307
  176MOL0     C24217  10.874   7.648  10.150  0.4687 -0.6932 -0.5344
  176MOL0     C24218  10.994   7.732  10.191  0.7348 -0.2187  0.0405
  176MOL0     H24219  11.189   7.254   9.980 -0.7055 -0.5794  0.0623
  176MOL0     H24220  11.386   7.180   9.854  1.5343  1.3471 -0.7815
  176MOL0     H24221  11.620   7.303   9.604 -0.2802 -1.1026  0.1303
  176MOL0     H24222  11.492   7.418   9.559  3.4397  0.9654 -1.2347
  176MOL0     H24223  11.649   7.321   9.385 -2.0206  4.3698 -2.1470
  176MOL0     H24224  11.560   7.171   9.382 -1.9505  0.2389 -1.0462
  176MOL0     H24225  11.348   7.281   9.292  1.4745 -1.9951 -2.1520
  176MOL0     H24226  11.405   7.432   9.356 -1.6283 -0.3432 -0.6771
  176MOL0     H24227  11.609   7.377   9.171 -0.2255  1.0967 -0.9626
  176MOL0     H24228  11.503   7.235   9.134 -3.1041  1.5606 -1.9803
  176MOL0     H24229  11.491   7.447   8.992  0.7119  0.2628  1.5836
  176MOL0     H24230  11.424   7.520   9.141 -1.2982 -2.0497  1.4719
  176MOL0     H24231  11.289   7.308   8.973  1.3902 -1.7328  1.5209
  176MOL0     H24232  11.233   7.367   9.133  1.6002  1.5491  0.9755
  176MOL0     H24233  11.138   7.476   8.909 -0.5739  0.3506 -0.1065
  176MOL0     H24234  11.288   7.552   8.894  1.8530 -0.6212  1.4569
  176MOL0     H24235  11.101   7.589   9.138 -0.2689  2.1223 -1.2266
  176MOL0     H24236  11.251   7.674   9.110 -0.6172  1.3396 -0.7036
  176MOL0     H24237  10.935   7.618   8.894 -0.0340 -0.8969  0.6151
  176MOL0     H24238  10.884   7.772   8.645 -0.6218  0.5735 -0.7311
  176MOL0     H24239  10.929   7.947   8.663  0.1042  2.7992  2.5338
  176MOL0     H24240  10.721   7.773   8.814 -3.7014 -0.4308 -1.9587
  176MOL0     H24241  10.744   7.943   8.873 -3.3144  5.0514 -3.7686
  176MOL0     H24242  10.674   8.027   8.657 -0.1956  0.5713 -0.3669
  176MOL0     H24243  10.657   7.857   8.601 -1.3687  0.7894 -1.2097
  176MOL0     H24244  10.493   7.837   8.798 -1.8929  0.2814 -0.6659
  176MOL0     H24245  10.514   8.010   8.827  2.0303 -0.7654  1.8683
  176MOL0     H24246  10.246   7.771   8.570  0.9637 -1.9150  3.5877
  176MOL0     H24247   9.947   7.691   8.716  4.7321 -1.1125  1.7845
  176MOL0     H24248  10.052   7.671   8.572  0.5437  0.2542  0.4772
  176MOL0     H24249   9.906   7.762   8.560 -0.5353  0.0436  0.0607
  176MOL0     H24250   9.688   8.246   8.913 -1.5231  0.8183  0.1282
  176MOL0     H24251   9.443   8.247   8.969 -0.9904 -0.4486  2.3515
  176MOL0     H24252   9.326   8.157   9.164  0.8828 -1.6121 -0.2679
  176MOL0     H24253   9.247   8.219   9.020  3.0898 -0.0944 -0.2224
  176MOL0     H24254   9.042   8.064   9.095  0.0782 -1.7467  0.7253
  176MOL0     H24255   9.139   8.021   9.237  1.5473 -0.2757 -0.0180
  176MOL0     H24256   9.072   8.316   9.174  0.6390  1.4178  0.4858
  176MOL0     H24257   9.176   8.239   9.305 -1.1507 -1.7017  1.0600
  176MOL0     H24258   8.978   8.153   9.414 -2.8148 -3.0475 -0.6359
  176MOL0     H24259   8.876   8.154   9.281  0.6866 -1.2923  1.6751
  176MOL0     H24260   8.855   8.399   9.284 -3.8628 -1.1391  2.2242
  176MOL0     H24261   8.826   8.321   9.448 -1.1975 -0.4736 -0.5481
  176MOL0     H24262   9.099   8.449   9.420 -0.7947 -1.2414 -0.2143
  176MOL0     H24263   9.005   8.412   9.553  1.8790  0.6890 -0.2913
  176MOL0     H24264   8.851   8.607   9.354  0.3140  0.6361 -1.2158
  176MOL0     H24265   9.000   8.657   9.396 -0.2081  0.1082  0.3140
  176MOL0     H24266   8.805   8.562   9.621 -2.2154  0.4099 -0.6666
  176MOL0     H24267   8.833   8.737   9.566  3.7989  0.8454  3.3798
  176MOL0     H24268   9.441   7.818   8.983  0.5327  0.0761  0.3120
  176MOL0     H24269   9.686   7.819   8.936 -1.6907  0.2170  1.8421
  176MOL0     H24270  10.059   8.145   8.833 -0.7873 -0.8101 -0.9078
  176MOL0     H24271  10.280   8.149   8.772  1.6881 -1.1272 -0.5773
  176MOL0     H24272  11.259   7.421   9.524  0.3964 -1.9067  1.0525
  176MOL0     H24273  11.064   7.499   9.652  0.4428 -0.3336 -0.9425
  176MOL0     H24274  10.784   7.370   9.991  3.0064  1.0485 -1.7545
  176MOL0     H24275  10.567   7.436  10.088  1.0283 -2.1569 -2.0479
  176MOL0     H24276  10.445   7.818  10.326 -0.1416 -0.5386 -0.9062
  176MOL0     H24277  10.558   7.859  10.190  1.0910 -0.3630  0.3790
  176MOL0     H24278  10.273   7.764  10.167  1.0270  0.9446 -1.4139
  176MOL0     H24279  10.376   7.833  10.038 -1.3910  0.8916 -0.4638
  176MOL0     H24280  10.251   7.968  10.291 -1.4099  3.4483 -0.3930
  176MOL0     H24281  10.368   8.046  10.202  1.2438 -1.9552  3.0567
  176MOL0     H24282  10.105   7.925  10.083 -1.9031 -0.0640  0.3217
  176MOL0     H24283  10.214   8.016   9.994 -1.9892  3.1172  0.4382
  176MOL0     H24284   9.985   8.322  10.164 -1.5997  1.0742 -4.0412
  176MOL0     H24285  10.746   7.787  10.252 -1.6872 -1.9774  2.5512
  176MOL0     H24286  11.056   7.763  10.106 -0.2584  2.6397  0.2545
  176MOL0     H24287  10.950   7.823  10.234 -1.4097 -1.3292  0.3211
  176MOL0     H24288  11.046   7.677  10.270  0.9645  1.8359  1.3854
  177MOL0     O24289   8.404   8.060   6.085 -0.2414 -0.3055  0.1704
  177MOL0     C24290   8.485   7.984   6.140 -0.8062 -0.3794  0.5260
  177MOL0     O24291   8.618   7.989   6.114 -0.1378 -0.4123 -0.5493
  177MOL0     C24292   8.674   8.034   5.994 -1.0169 -0.0542 -1.2106
  177MOL0     C24293   8.818   8.039   5.999  0.1334  0.0283  0.1660
  177MOL0     C24294   8.885   8.077   5.883 -0.4206 -0.2114  0.3354
  177MOL0     C24295   8.816   8.117   5.769  0.0003  0.1898  0.9359
  177MOL0     O24296   8.870   8.178   5.657  0.1007  0.4758  0.1563
  177MOL0     C24297   8.991   8.247   5.674  0.3579  0.1628  0.0539
  177MOL0     C24298   9.011   8.330   5.554  0.6921 -0.3833  0.0359
  177MOL0     C24299   9.138   8.413   5.573 -1.1182  0.1915  0.4563
  177MOL0     C24300   9.155   8.488   5.447  0.0430 -1.0299 -0.8285
  177MOL0     C24301   9.260   8.595   5.464 -0.7660 -0.3758  0.7801
  177MOL0     C24302   9.330   8.631   5.338  1.3890 -0.1458 -0.9451
  177MOL0     C24303   9.421   8.746   5.362 -0.4350  0.6399 -0.1506
  177MOL0     C24304   9.476   8.802   5.236  0.7501 -0.4284 -0.1638
  177MOL0     N24305   9.370   8.851   5.150  0.3600 -0.5995 -0.3296
  177MOL0     C24306   9.304   8.792   5.055  0.2116  0.4766  0.4877
  177MOL0     C24307   9.215   8.874   5.004 -0.0581  1.2381 -1.4233
  177MOL0     C24308   9.104   8.844   4.907  0.6307 -0.3342  0.1666
  177MOL0     C24309   8.963   8.814   4.966 -0.7848 -1.0880 -0.5831
  177MOL0     C24310   8.958   8.677   5.052  0.0071 -1.2330  0.1834
  177MOL0     C24311   8.817   8.621   5.062 -0.4643  0.8919  0.0722
  177MOL0     O24312   8.822   8.506   5.150  0.5799  0.0005 -0.3525
  177MOL0     C24313   8.714   8.488   5.229 -0.4035  0.1647  0.1849
  177MOL0     C24314   8.723   8.508   5.369  0.7241 -0.1369 -0.1899
  177MOL0     C24315   8.617   8.470   5.461  0.2374  0.3862 -0.1703
  177MOL0     C24316   8.623   8.489   5.605  0.6861  0.0991 -0.5090
  177MOL0     C24317   8.488   8.422   5.406  0.0277  0.9759 -0.4570
  177MOL0     C24318   8.373   8.394   5.483 -0.3882 -0.0292 -0.0274
  177MOL0     O24319   8.379   8.299   5.584 -0.3828 -0.7526  0.5643
  177MOL0     C24320   8.272   8.251   5.649  0.0575  1.1108  0.2186
  177MOL0     C24321   8.168   8.332   5.700  0.2492 -0.9749  0.5153
  177MOL0     C24322   8.058   8.287   5.769  0.2118 -1.3715  0.2384
  177MOL0     C24323   8.039   8.153   5.789  0.9874 -0.3391 -0.3697
  177MOL0     O24324   7.931   8.099   5.854  0.3212 -0.8578  0.4457
  177MOL0     C24325   7.909   8.138   5.994  1.1085  0.5777 -0.6664
  177MOL0     C24326   7.760   8.121   6.040  0.4381 -0.1166  1.1942
  177MOL0     C24327   7.746   8.207   6.161  0.4821  0.4398  0.0494
  177MOL0     C24328   7.593   8.236   6.206 -0.5184  0.0163  0.8109
  177MOL0     C24329   7.580   8.380   6.266  0.2602 -0.5328  0.4138
  177MOL0     C24330   7.668   8.397   6.390 -0.0034  0.7620  0.7469
  177MOL0     C24331   7.650   8.519   6.466 -0.0975  0.3897  0.0092
  177MOL0     C24332   7.512   8.547   6.518  0.3215  0.5144 -0.4298
  177MOL0    Cl24333   7.423   8.632   6.391 -0.6215  0.4425 -0.0698
  177MOL0     C24334   8.137   8.064   5.745  0.8809 -0.3095 -0.0088
  177MOL0     C24335   8.249   8.110   5.672 -0.3310  0.4246 -0.8983
  177MOL0     O24336   8.270   8.453   5.441 -0.1035  0.8471  0.0792
  177MOL0     C24337   8.485   8.406   5.270  0.3593  0.7768  0.6542
  177MOL0     C24338   8.591   8.431   5.182 -0.5158  0.6808  0.0660
  177MOL0     N24339   9.237   8.994   5.068 -0.5614 -0.0809 -0.6688
  177MOL0     N24340   9.332   8.978   5.152  1.1624 -0.5078 -0.3089
  177MOL0     C24341   8.680   8.098   5.766 -0.6856  0.1261 -0.3170
  177MOL0     C24342   8.610   8.045   5.868 -0.3974  0.0392 -1.4338
  177MOL0     C24343   8.449   7.910   6.254  0.8367 -0.2314 -0.7346
  177MOL0     C24344   8.335   7.950   6.327 -0.3529  0.3455  0.6943
  177MOL0     C24345   8.297   7.875   6.440 -0.5618 -0.2416 -1.0578
  177MOL0     C24346   8.366   7.755   6.477 -0.2978 -0.1367 -0.2407
  177MOL0     O24347   8.314   7.671   6.577 -0.1550 -0.6934  0.4875
  177MOL0     C24348   8.269   7.742   6.697 -0.1148 -0.2434 -0.0148
  177MOL0     C24349   8.311   7.646   6.806  0.9983  0.3612  0.2709
  177MOL0     C24350   8.453   7.629   6.843 -0.0048 -0.3021 -0.4234
  177MOL0     C24351   8.524   7.503   6.792 -0.8414  0.3460 -0.2040
  177MOL0     C24352   8.663   7.495   6.857 -0.0201  1.2702  0.8381
  177MOL0     C24353   8.759   7.480   6.928 -0.2104 -1.2128  1.0109
  177MOL0     C24354   8.472   7.709   6.402  0.1728 -0.4743 -0.2195
  177MOL0     C24355   8.511   7.783   6.290 -0.1411 -0.4519  0.9959
  177MOL0     C24356   8.617   7.716   6.206 -0.8544 -0.1758  0.6013
  177MOL0     H24357   8.888   8.013   6.077 -0.0395 -4.7988 -0.9721
  177MOL0     H24358   8.994   8.076   5.890 -0.1070  1.4157 -2.8142
  177MOL0     H24359   9.076   8.178   5.677  2.1761  2.2795  2.8339
  177MOL0     H24360   8.980   8.302   5.768  0.1210  0.1713  0.0195
  177MOL0     H24361   9.019   8.272   5.462 -1.3879  1.4314 -1.4207
  177MOL0     H24362   8.931   8.405   5.549  0.7380 -0.1515  2.1473
  177MOL0     H24363   9.131   8.484   5.655 -2.4583  1.5212 -0.7674
  177MOL0     H24364   9.232   8.357   5.585 -0.1886  0.9282 -2.5391
  177MOL0     H24365   9.198   8.417   5.376  0.6062 -0.4578 -1.0693
  177MOL0     H24366   9.055   8.523   5.419  0.0532 -0.0387  0.3169
  177MOL0     H24367   9.335   8.547   5.529  1.3877  2.5343  0.6461
  177MOL0     H24368   9.218   8.684   5.510 -2.2756 -1.1188  0.8888
  177MOL0     H24369   9.377   8.546   5.287 -1.3240 -0.7270 -2.7044
  177MOL0     H24370   9.247   8.652   5.269  2.0588 -0.9131 -2.0212
  177MOL0     H24371   9.508   8.717   5.422 -1.1747  3.7285  2.7212
  177MOL0     H24372   9.378   8.833   5.414  0.4450  0.8574  0.2302
  177MOL0     H24373   9.541   8.884   5.267  1.6377 -1.0264 -0.4165
  177MOL0     H24374   9.532   8.731   5.175  2.2795 -1.4437  2.2970
  177MOL0     H24375   9.299   8.685   5.041 -1.4708  0.5814  0.0764
  177MOL0     H24376   9.132   8.759   4.844 -1.2896  0.1219 -1.4249
  177MOL0     H24377   9.099   8.932   4.841  2.0127 -0.0946  0.3397
  177MOL0     H24378   8.931   8.899   5.026 -0.8518 -1.1037 -0.5965
  177MOL0     H24379   8.906   8.802   4.873  1.2302  0.3351 -2.0820
  177MOL0     H24380   9.029   8.608   5.006  0.9829 -0.3297  0.2771
  177MOL0     H24381   8.993   8.688   5.155 -2.3092 -0.3535  0.9376
  177MOL0     H24382   8.738   8.688   5.096 -1.7919 -0.9168  0.7178
  177MOL0     H24383   8.781   8.591   4.964 -3.5036  0.1284  1.3013
  177MOL0     H24384   8.819   8.539   5.411  1.2155 -3.6773  1.6702
  177MOL0     H24385   8.549   8.558   5.646 -0.2957 -0.4643 -1.2773
  177MOL0     H24386   8.715   8.534   5.642 -0.5610  2.3862 -0.0381
  177MOL0     H24387   8.604   8.393   5.653  0.1921  0.0015 -0.8867
  177MOL0     H24388   8.177   8.439   5.689  0.6745 -0.9403  1.2128
  177MOL0     H24389   7.978   8.350   5.810  1.5093  0.1309  0.5711
  177MOL0     H24390   7.979   8.076   6.053  0.6750 -1.9098 -2.5919
  177MOL0     H24391   7.938   8.243   6.002  0.7274  0.6591 -0.3485
  177MOL0     H24392   7.697   8.150   5.956  2.2038 -2.6477 -1.1851
  177MOL0     H24393   7.732   8.017   6.061 -1.7627 -0.4222 -2.4708
  177MOL0     H24394   7.791   8.302   6.130 -2.0598  1.5391 -0.6007
  177MOL0     H24395   7.807   8.170   6.243 -1.3720 -1.0068  0.8605
  177MOL0     H24396   7.546   8.165   6.274  0.1532 -0.3918  0.8562
  177MOL0     H24397   7.541   8.238   6.109  0.0944 -1.2260  0.4393
  177MOL0     H24398   7.602   8.460   6.194  2.2220  0.4582  1.9944
  177MOL0     H24399   7.477   8.385   6.303 -0.4047  1.4356 -1.4754
  177MOL0     H24400   7.766   8.412   6.345 -1.1495 -0.3151 -2.3869
  177MOL0     H24401   7.663   8.309   6.455  0.4034  1.0393  1.1601
  177MOL0     H24402   7.678   8.612   6.415 -5.8832  0.7706 -3.4290
  177MOL0     H24403   7.713   8.505   6.554 -1.6946 -0.2712  1.0932
  177MOL0     H24404   7.526   8.598   6.613  1.7402 -2.5386  1.1777
  177MOL0     H24405   7.465   8.451   6.542  0.0326  1.0407  1.1608
  177MOL0     H24406   8.109   7.959   5.755  0.4014 -0.4462 -2.3198
  177MOL0     H24407   8.308   8.029   5.632 -0.7510 -0.6461  0.5369
  177MOL0     H24408   8.390   8.375   5.227 -0.2558  3.6071 -0.2221
  177MOL0     H24409   8.571   8.404   5.079  0.4444 -0.2134  0.0942
  177MOL0     H24410   8.623   8.111   5.675 -2.2190 -2.0834  0.2200
  177MOL0     H24411   8.502   8.030   5.860 -0.5023  0.9703 -1.9350
  177MOL0     H24412   8.278   8.037   6.296 -0.0725  0.7760  1.3681
  177MOL0     H24413   8.212   7.904   6.500 -0.5667 -3.0198  0.4709
  177MOL0     H24414   8.314   7.841   6.710  0.4415 -0.2962 -1.3586
  177MOL0     H24415   8.161   7.759   6.703 -0.2612 -1.3938  0.9492
  177MOL0     H24416   8.277   7.546   6.778  2.8911 -0.9081  2.1781
  177MOL0     H24417   8.258   7.692   6.890  0.1548  4.1553 -2.0986
  177MOL0     H24418   8.506   7.714   6.800 -0.1678  0.1613  0.2735
  177MOL0     H24419   8.471   7.650   6.949 -1.8543 -1.3652  0.1581
  177MOL0     H24420   8.543   7.521   6.686 -2.2848  3.1745 -0.0561
  177MOL0     H24421   8.475   7.407   6.810  2.4961 -1.3835  0.4872
  177MOL0     H24422   8.846   7.473   6.989 -0.7430  1.3017  2.2097
  177MOL0     H24423   8.518   7.612   6.416  0.6490 -0.0126  1.6358
  177MOL0     H24424   8.627   7.616   6.250  0.4565  0.0200  0.8002
  177MOL0     H24425   8.608   7.720   6.097  0.3082  0.5166  0.5104
  177MOL0     H24426   8.710   7.770   6.228 -2.2969  2.2338  1.2022
  178MOL0     O24427   9.290   0.820  11.506  0.1113  0.0689 -0.1929
  178MOL0     C24428   9.298   0.873  11.395 -0.2781  0.1321 -0.4804
  178MOL0     O24429   9.320   1.004  11.369 -0.1758 -0.4620  0.5365
  178MOL0     C24430   9.362   1.084  11.471  0.6000 -0.9738  0.1267
  178MOL0     C24431   9.275   1.145  11.563  1.0879  0.3245  0.0696
  178MOL0     C24432   9.321   1.233  11.658  0.2805  0.4631  0.2654
  178MOL0     C24433   9.451   1.275  11.653 -0.6226 -0.3836  0.2480
  178MOL0     O24434   9.490   1.373  11.741  0.0028  0.0641 -0.1526
  178MOL0     C24435   9.558   1.489  11.693 -0.1415  1.0939  0.0887
  178MOL0     C24436   9.601   1.575  11.814  0.3281 -0.0138  0.2118
  178MOL0     C24437   9.470   1.671  11.837  0.4746 -0.4664 -0.7643
  178MOL0     C24438   9.470   1.736  11.978 -0.0621  0.0187  0.2190
  178MOL0     C24439   9.557   1.858  11.983  0.2543  1.0926  0.8322
  178MOL0     C24440   9.588   1.910  12.125  0.4127 -0.8796 -0.8474
  178MOL0     C24441   9.472   2.001  12.192  0.1058  0.5517 -0.7233
  178MOL0     C24442   9.443   2.130  12.140 -0.4310 -1.7441  0.0530
  178MOL0     N24443   9.406   2.139  11.998  0.8238 -0.4457  0.2689
  178MOL0     C24444   9.478   2.190  11.889 -0.6907 -0.0432  0.2260
  178MOL0     C24445   9.401   2.164  11.783  0.4793  0.1794  0.6480
  178MOL0     C24446   9.426   2.204  11.641 -0.0503  0.1639 -0.5892
  178MOL0     C24447   9.502   2.087  11.571 -1.2665 -0.0879  1.1138
  178MOL0     C24448   9.638   2.069  11.610 -0.0172  0.2092 -0.1119
  178MOL0     C24449   9.713   1.939  11.555  0.4220 -0.4986 -0.5480
  178MOL0     O24450   9.621   1.834  11.542 -0.9122  0.5355  1.3562
  178MOL0     C24451   9.646   1.732  11.453 -0.0752 -0.3772  0.3835
  178MOL0     C24452   9.778   1.692  11.414  0.5370 -0.2847  0.8832
  178MOL0     C24453   9.786   1.592  11.312  0.2723 -0.3468 -0.3364
  178MOL0     C24454   9.919   1.552  11.257 -0.0264  0.1989  0.2165
  178MOL0     C24455   9.668   1.528  11.259 -1.0705 -0.1441  0.1679
  178MOL0     C24456   9.662   1.420  11.159 -0.6960  0.9848  0.7120
  178MOL0     O24457   9.544   1.339  11.167  0.4995 -0.3838 -0.0812
  178MOL0     C24458   9.523   1.261  11.052  0.6110  0.0010  0.4332
  178MOL0     C24459   9.602   1.148  11.019  1.2753  0.3120  0.3668
  178MOL0     C24460   9.561   1.066  10.915 -0.5778  0.1721 -0.0043
  178MOL0     C24461   9.443   1.091  10.846 -0.4038 -0.4617  1.2852
  178MOL0     O24462   9.421   1.001  10.741 -0.1396 -0.1545  0.5689
  178MOL0     C24463   9.359   1.050  10.620 -0.4776  0.9553  0.1002
  178MOL0     C24464   9.357   0.931  10.524  1.3816 -0.5951 -0.2989
  178MOL0     C24465   9.347   0.943  10.375  1.1399  0.2778  0.5456
  178MOL0     C24466   9.212   1.013  10.345 -0.5624  1.2434  0.1987
  178MOL0     C24467   9.190   0.997  10.196  0.7722 -0.2110  0.4741
  178MOL0     C24468   9.054   1.062  10.152  0.1333  0.5016  0.4007
  178MOL0     C24469   9.013   0.995  10.023 -0.5644  0.1511  0.5145
  178MOL0     C24470   8.939   0.862  10.051  0.2548 -0.0877 -0.3537
  178MOL0    Cl24471   8.790   0.869  10.148  0.1566 -0.3304  0.2996
  178MOL0     C24472   9.370   1.212  10.864 -0.7129 -1.4424  0.4696
  178MOL0     C24473   9.417   1.292  10.966 -0.1658  0.4033 -0.4672
  178MOL0     O24474   9.754   1.395  11.088 -0.3860  0.3625 -0.6132
  178MOL0     C24475   9.551   1.583  11.296 -0.0788 -0.5357 -0.5652
  178MOL0     C24476   9.527   1.678  11.401 -1.2967 -0.3134 -0.5621
  178MOL0     N24477   9.285   2.101  11.818 -0.2841 -0.0253  0.5853
  178MOL0     N24478   9.282   2.089  11.952  0.2823  0.0327 -0.1484
  178MOL0     C24479   9.546   1.220  11.564  0.2179  0.5852  0.2634
  178MOL0     C24480   9.496   1.126  11.475 -0.3339  0.5940 -1.0465
  178MOL0     C24481   9.289   0.790  11.272  0.2956 -0.9516  1.3006
  178MOL0     C24482   9.331   0.851  11.150  0.9357  0.4606  1.1718
  178MOL0     C24483   9.344   0.780  11.034  0.3101 -0.0147  0.8080
  178MOL0     C24484   9.320   0.646  11.026  0.2349 -0.7395  0.6028
  178MOL0     O24485   9.342   0.572  10.908  0.0037 -0.3522  0.2509
  178MOL0     C24486   9.318   0.624  10.774  0.2834  0.4236 -0.3772
  178MOL0     C24487   9.340   0.511  10.668  0.5269 -0.4999  0.9133
  178MOL0     C24488   9.302   0.563  10.520 -0.3797  0.0434  0.1565
  178MOL0     C24489   9.302   0.442  10.423  0.0535 -0.6969  1.3288
  178MOL0     C24490   9.201   0.341  10.454 -0.8405  0.5035 -0.1358
  178MOL0     C24491   9.101   0.275  10.452 -0.3504  0.0693 -1.4185
  178MOL0     C24492   9.278   0.584  11.142  0.9376 -0.0969 -0.6520
  178MOL0     C24493   9.247   0.653  11.268 -0.3766 -0.2957  0.7671
  178MOL0     C24494   9.200   0.572  11.385 -0.5295  0.0460  0.6085
  178MOL0     H24495   9.175   1.102  11.566  1.5252 -0.7878 -0.8309
  178MOL0     H24496   9.264   1.269  11.744  1.9098 -0.2284  1.6881
  178MOL0     H24497   9.500   1.552  11.625  0.7841  1.5106 -0.3417
  178MOL0     H24498   9.652   1.454  11.648  0.4851  1.3595  1.1634
  178MOL0     H24499   9.619   1.499  11.890  2.4439 -0.5451 -0.7521
  178MOL0     H24500   9.690   1.638  11.804  1.6727 -1.7833  0.5897
  178MOL0     H24501   9.455   1.743  11.756 -1.3140 -1.3276 -1.2593
  178MOL0     H24502   9.376   1.615  11.827 -2.1531  3.4673 -0.4028
  178MOL0     H24503   9.369   1.762  12.009 -0.6246 -0.7959 -0.8395
  178MOL0     H24504   9.500   1.659  12.050  0.1116  0.5433  0.7114
  178MOL0     H24505   9.529   1.941  11.917  0.3238  0.1342 -0.4234
  178MOL0     H24506   9.655   1.837  11.940 -0.5132  1.7531 -1.3996
  178MOL0     H24507   9.603   1.834  12.202  1.4925  0.0972 -0.0528
  178MOL0     H24508   9.673   1.979  12.123 -0.8174  0.7070 -1.5808
  178MOL0     H24509   9.520   2.015  12.290 -2.0944 -1.5174  0.7600
  178MOL0     H24510   9.379   1.947  12.209  1.2323 -0.7107  2.3045
  178MOL0     H24511   9.367   2.173  12.206  0.9399 -1.2933  1.4010
  178MOL0     H24512   9.529   2.198  12.143  0.3423 -2.6566 -0.7010
  178MOL0     H24513   9.580   2.229  11.887 -1.7796  3.2962 -2.9698
  178MOL0     H24514   9.482   2.297  11.621  1.8040 -0.8898 -0.5504
  178MOL0     H24515   9.328   2.197  11.593  1.0410 -1.5771 -2.7838
  178MOL0     H24516   9.439   1.998  11.572 -2.2734  0.6144  1.1296
  178MOL0     H24517   9.512   2.100  11.463 -1.0958  2.0522  1.3298
  178MOL0     H24518   9.688   2.164  11.587  0.3874 -0.0383 -0.2527
  178MOL0     H24519   9.642   2.073  11.719 -0.6206 -0.3290 -0.0660
  178MOL0     H24520   9.756   1.972  11.460 -0.4519  1.2898 -0.3667
  178MOL0     H24521   9.792   1.907  11.623  1.5474  5.1118  1.3168
  178MOL0     H24522   9.865   1.739  11.458 -0.1395  0.8325  1.0667
  178MOL0     H24523   9.936   1.577  11.152  1.6437 -1.0452  0.1466
  178MOL0     H24524   9.929   1.444  11.268  0.2620  0.2132  0.1147
  178MOL0     H24525   9.995   1.591  11.325  1.8855 -1.5145 -0.8218
  178MOL0     H24526   9.701   1.136  11.061  0.3680 -1.6252  2.0829
  178MOL0     H24527   9.630   0.987  10.885  1.5031  1.3919  1.3344
  178MOL0     H24528   9.259   1.095  10.628 -0.2071  1.3486  1.5807
  178MOL0     H24529   9.432   1.118  10.575  1.2456 -1.3137 -0.6691
  178MOL0     H24530   9.446   0.871  10.547  1.3445 -1.0468 -1.3154
  178MOL0     H24531   9.267   0.877  10.553 -0.4376  1.1104 -2.4454
  178MOL0     H24532   9.348   0.839  10.342  0.0643 -0.5404  2.9098
  178MOL0     H24533   9.429   1.003  10.334  1.7180 -1.0614 -0.2965
  178MOL0     H24534   9.237   1.116  10.373  0.9464  0.0609  3.7822
  178MOL0     H24535   9.132   0.972  10.408  0.4818 -1.0596  0.1286
  178MOL0     H24536   9.275   1.045  10.147  1.9627 -1.1270  1.5593
  178MOL0     H24537   9.197   0.890  10.174 -0.3430 -0.4567  1.2095
  178MOL0     H24538   9.073   1.169  10.140 -2.5843  0.8367 -2.2410
  178MOL0     H24539   8.974   1.056  10.226 -0.3617 -0.4380 -0.1910
  178MOL0     H24540   9.098   0.964   9.961 -1.4938 -1.9557  0.2048
  178MOL0     H24541   8.953   1.064   9.964 -0.5817 -0.0023  0.3548
  178MOL0     H24542   9.015   0.794  10.091  1.6163  1.2426 -0.6092
  178MOL0     H24543   8.902   0.818   9.958  1.6755 -1.8117 -0.1621
  178MOL0     H24544   9.282   1.240  10.808  0.8452  3.2177 -0.0535
  178MOL0     H24545   9.372   1.388  10.986  1.8813  1.1275  0.9727
  178MOL0     H24546   9.460   1.560  11.242 -0.4555  1.8914 -1.0687
  178MOL0     H24547   9.424   1.688  11.433 -1.4812 -1.7386 -0.6444
  178MOL0     H24548   9.652   1.244  11.560  0.4162  0.0077  1.6290
  178MOL0     H24549   9.561   1.067  11.410 -1.5358 -1.7166 -0.2607
  178MOL0     H24550   9.339   0.959  11.146  1.9181  0.3657 -0.1272
  178MOL0     H24551   9.368   0.823  10.937  1.5633 -4.1554 -0.9372
  178MOL0     H24552   9.215   0.658  10.788  1.2383  2.8626  1.5795
  178MOL0     H24553   9.371   0.714  10.743 -0.8455  0.2386 -3.0936
  178MOL0     H24554   9.288   0.417  10.691 -3.7044  2.0098  3.0070
  178MOL0     H24555   9.443   0.476  10.665  0.6520 -0.0991 -2.5396
  178MOL0     H24556   9.204   0.609  10.500  0.5908  1.6328 -1.2894
  178MOL0     H24557   9.374   0.641  10.495 -1.4729  1.2137  0.5338
  178MOL0     H24558   9.402   0.399  10.437  1.2454  1.9055  1.4154
  178MOL0     H24559   9.295   0.488  10.324  2.2194  1.0099  1.9024
  178MOL0     H24560   9.008   0.221  10.456 -0.4280  0.2509 -0.6861
  178MOL0     H24561   9.254   0.478  11.137  0.7066 -0.1671  1.2284
  178MOL0     H24562   9.118   0.627  11.434 -0.6259 -0.2967  0.8379
  178MOL0     H24563   9.164   0.471  11.360 -0.3577 -0.2217  1.3957
  178MOL0     H24564   9.286   0.559  11.451  3.0997 -1.3309 -3.8860
  179MOL0     O24565   7.779   8.882   4.854  0.3301  0.3260 -0.5974
  179MOL0     C24566   7.709   8.959   4.920 -0.3731  0.2115  0.3293
  179MOL0     O24567   7.668   9.080   4.881  0.1278  0.4119 -0.1087
  179MOL0     C24568   7.706   9.118   4.750 -0.0531 -1.2493  0.0757
  179MOL0     C24569   7.643   9.066   4.638 -0.2015  0.4359 -0.2133
  179MOL0     C24570   7.694   9.109   4.516  0.1242  0.9737  1.3959
  179MOL0     C24571   7.798   9.210   4.496  0.1659  0.4825 -0.0510
  179MOL0     O24572   7.841   9.243   4.367  0.0708 -0.1274 -0.4636
  179MOL0     C24573   7.914   9.134   4.295 -0.5639  0.6387 -0.1685
  179MOL0     C24574   8.040   9.078   4.360 -0.2182  0.1867  0.2536
  179MOL0     C24575   8.128   9.017   4.255 -1.1470  0.1531 -0.3534
  179MOL0     C24576   8.215   9.127   4.187 -0.3004  0.8870  0.0430
  179MOL0     C24577   8.347   9.079   4.143 -0.2282 -0.4566 -0.8417
  179MOL0     C24578   8.322   8.961   4.045  0.4764  0.6644  0.3293
  179MOL0     C24579   8.453   8.883   3.992 -0.5977  0.5226 -0.0951
  179MOL0     C24580   8.412   8.764   3.908 -0.1823  0.7968  0.0564
  179MOL0     N24581   8.531   8.689   3.862 -0.0817 -0.5705  0.2844
  179MOL0     C24582   8.636   8.629   3.931 -0.2253  0.5615 -0.7441
  179MOL0     C24583   8.720   8.580   3.832 -0.9209 -0.8142  1.5082
  179MOL0     C24584   8.839   8.492   3.851 -0.2806  0.0917  0.0409
  179MOL0     C24585   8.859   8.370   3.762 -0.1018  0.2690  1.0456
  179MOL0     C24586   9.010   8.334   3.747 -0.1204 -0.2490  0.0113
  179MOL0     C24587   9.071   8.276   3.869 -1.0721  0.6625 -0.2944
  179MOL0     O24588   9.067   8.361   3.982 -0.0955  0.8069 -0.5372
  179MOL0     C24589   9.125   8.310   4.097 -0.1805 -0.3629 -0.2892
  179MOL0     C24590   9.256   8.333   4.130  0.7958 -1.1336  0.1175
  179MOL0     C24591   9.315   8.293   4.252  0.0229  0.9457 -0.0525
  179MOL0     C24592   9.438   8.358   4.300 -0.2516 -0.0073 -0.3099
  179MOL0     C24593   9.250   8.191   4.329  0.1214  0.3302 -0.7014
  179MOL0     C24594   9.316   8.114   4.440 -0.6542 -0.2559 -0.5699
  179MOL0     O24595   9.438   8.156   4.479 -0.4456  0.3421  0.4087
  179MOL0     C24596   9.500   8.118   4.593  0.1121 -0.7199  1.0770
  179MOL0     C24597   9.631   8.085   4.577  0.0541  0.4693  0.1194
  179MOL0     C24598   9.699   8.051   4.688  0.0840  0.5719  0.5294
  179MOL0     C24599   9.648   8.041   4.816  0.6839  0.7002 -0.3500
  179MOL0     O24600   9.713   8.010   4.935 -0.5143 -0.3076 -0.0377
  179MOL0     C24601   9.850   8.040   4.928  0.3924 -0.1780 -0.3131
  179MOL0     C24602   9.914   8.013   5.070  0.3781  0.6200  0.6958
  179MOL0     C24603   9.900   7.863   5.101 -0.0462  0.4374 -0.5175
  179MOL0     C24604   9.934   7.834   5.254  0.2643  0.1902  1.0257
  179MOL0     C24605   9.985   7.692   5.259 -0.1981 -0.8923  0.0826
  179MOL0     C24606  10.045   7.661   5.391 -0.6068 -0.0349 -0.5960
  179MOL0     C24607  10.080   7.511   5.386 -0.1983  0.3906  0.4715
  179MOL0     C24608  10.201   7.490   5.295  0.0920 -0.0106  0.8074
  179MOL0    Cl24609  10.335   7.594   5.345  0.4059  0.2597  0.2472
  179MOL0     C24610   9.508   8.066   4.826  0.3176  0.1730  0.2418
  179MOL0     C24611   9.428   8.098   4.711 -0.5417  0.0257 -0.0441
  179MOL0     O24612   9.254   8.016   4.493  0.6948  0.4586 -0.3679
  179MOL0     C24613   9.117   8.159   4.287 -0.0632 -0.8212  0.3735
  179MOL0     C24614   9.057   8.225   4.177 -0.7936  0.3496 -0.3430
  179MOL0     N24615   8.685   8.636   3.714  1.0506 -0.2582  0.6694
  179MOL0     N24616   8.559   8.687   3.724 -0.4739 -0.3171 -0.1660
  179MOL0     C24617   7.855   9.264   4.610 -0.3947  0.2995  0.6017
  179MOL0     C24618   7.808   9.222   4.737  0.5393  0.4337 -0.4346
  179MOL0     C24619   7.655   8.906   5.057  0.6020 -0.9435 -0.3489
  179MOL0     C24620   7.539   8.959   5.101  0.2316  0.1012  0.6426
  179MOL0     C24621   7.454   8.912   5.199 -0.1647  0.3089  0.1310
  179MOL0     C24622   7.501   8.801   5.271 -0.3523 -0.9251  0.1984
  179MOL0     O24623   7.435   8.758   5.382 -0.5551  1.0343  0.3171
  179MOL0     C24624   7.374   8.848   5.465 -0.1369 -0.5588 -0.6848
  179MOL0     C24625   7.460   8.962   5.524 -0.7753  0.5739  0.0937
  179MOL0     C24626   7.372   9.061   5.616 -0.7682  0.1638  1.4677
  179MOL0     C24627   7.450   9.191   5.644 -0.1421  0.7303 -0.5176
  179MOL0     C24628   7.369   9.262   5.742 -0.5922  0.5245  0.4890
  179MOL0     C24629   7.308   9.344   5.813 -0.3561  0.6758 -0.9643
  179MOL0     C24630   7.619   8.742   5.243 -0.2390 -0.0728 -1.0955
  179MOL0     C24631   7.700   8.789   5.134 -1.0355  0.6998 -0.0696
  179MOL0     C24632   7.816   8.702   5.099  0.6738 -1.2831 -0.1424
  179MOL0     H24633   7.570   8.987   4.654 -1.0245  1.3869  0.8680
  179MOL0     H24634   7.650   9.064   4.428  0.0396  0.9495  1.4499
  179MOL0     H24635   7.951   9.184   4.205  1.9309  0.5022  0.7296
  179MOL0     H24636   7.844   9.056   4.262 -0.3538 -0.2294  1.3540
  179MOL0     H24637   8.092   9.157   4.415  1.0995 -2.2126  2.7296
  179MOL0     H24638   8.016   9.005   4.437 -1.1720 -0.4654 -0.6287
  179MOL0     H24639   8.201   8.961   4.313  0.0187  0.9464 -1.0124
  179MOL0     H24640   8.072   8.946   4.193 -0.5150 -0.2620 -0.4547
  179MOL0     H24641   8.157   9.146   4.096 -0.0453 -2.2710 -0.9330
  179MOL0     H24642   8.218   9.223   4.238  0.9010  1.3461 -0.8479
  179MOL0     H24643   8.412   9.054   4.227 -0.6732  1.0392 -0.0260
  179MOL0     H24644   8.393   9.160   4.086  0.0100 -0.5424 -0.7730
  179MOL0     H24645   8.258   8.885   4.092 -1.3702  2.7257  1.3351
  179MOL0     H24646   8.262   9.007   3.966 -1.3806 -0.0627  1.2389
  179MOL0     H24647   8.520   8.845   4.070 -1.7994 -2.3393 -0.3404
  179MOL0     H24648   8.504   8.955   3.926 -1.4719  2.6797  1.4571
  179MOL0     H24649   8.336   8.702   3.956  1.7988  0.9403  3.6884
  179MOL0     H24650   8.369   8.793   3.812  1.2228 -0.6241 -1.0653
  179MOL0     H24651   8.634   8.595   4.034  2.3857  2.8890  0.2060
  179MOL0     H24652   8.845   8.464   3.956  0.1458  1.6686  0.4526
  179MOL0     H24653   8.915   8.568   3.834 -1.1716  0.9753 -0.0780
  179MOL0     H24654   8.801   8.283   3.792  0.6481 -0.8498 -0.5740
  179MOL0     H24655   8.826   8.399   3.661 -0.2301 -1.7951  0.4466
  179MOL0     H24656   9.019   8.254   3.672  1.1538 -0.4439  0.3480
  179MOL0     H24657   9.051   8.427   3.706 -0.3148  0.0757  0.5464
  179MOL0     H24658   9.030   8.178   3.893 -3.2353  1.4114 -0.7692
  179MOL0     H24659   9.177   8.254   3.854 -1.0042 -0.2165  1.2975
  179MOL0     H24660   9.322   8.404   4.080  1.9216 -0.0432  2.8964
  179MOL0     H24661   9.433   8.376   4.408 -0.2065 -0.4846 -0.2233
  179MOL0     H24662   9.465   8.459   4.268  0.1918  1.1935  3.4009
  179MOL0     H24663   9.524   8.292   4.295  1.7105  1.8059  4.1990
  179MOL0     H24664   9.670   8.096   4.476 -2.5794 -1.6605 -1.2617
  179MOL0     H24665   9.801   8.015   4.683  0.7019  1.9743  2.0044
  179MOL0     H24666   9.902   7.977   4.855  0.2759 -0.0816 -0.4771
  179MOL0     H24667   9.861   8.145   4.899 -0.3335  0.0393  0.1741
  179MOL0     H24668  10.016   8.050   5.083  1.0535  0.3527 -2.9925
  179MOL0     H24669   9.851   8.071   5.139 -0.4621  0.3942  0.1233
  179MOL0     H24670   9.972   7.811   5.036 -1.5547 -2.5433  0.0028
  179MOL0     H24671   9.803   7.823   5.071  0.2974 -0.5741 -0.3448
  179MOL0     H24672   9.855   7.848   5.328 -1.7435 -0.7001 -0.8346
  179MOL0     H24673  10.015   7.902   5.281 -0.6721  1.6998  0.2132
  179MOL0     H24674   9.904   7.623   5.233 -0.9052 -0.0128 -0.1191
  179MOL0     H24675  10.065   7.688   5.184  0.1140  0.1733  0.3471
  179MOL0     H24676   9.972   7.667   5.472 -0.0629  0.8751 -0.1653
  179MOL0     H24677  10.123   7.730   5.425 -0.6260  0.8854 -2.2470
  179MOL0     H24678   9.998   7.450   5.347 -1.8338  2.6750  0.1597
  179MOL0     H24679  10.099   7.469   5.485  0.0069 -0.4691  0.0807
  179MOL0     H24680  10.179   7.524   5.193  1.4109  2.8494  1.3925
  179MOL0     H24681  10.230   7.385   5.297 -1.4229 -0.4850  0.0764
  179MOL0     H24682   9.453   8.057   4.919 -0.2511 -1.2685 -0.2190
  179MOL0     H24683   9.321   8.113   4.723 -0.7115 -0.2382 -1.1402
  179MOL0     H24684   9.068   8.075   4.337 -1.3810 -0.2193  0.1309
  179MOL0     H24685   8.955   8.199   4.151 -0.9928 -1.9504  2.2868
  179MOL0     H24686   7.924   9.348   4.598  1.1824 -0.9500  0.4989
  179MOL0     H24687   7.844   9.264   4.830  1.9175  1.9072 -1.5701
  179MOL0     H24688   7.498   9.041   5.042 -3.5287 -1.9919 -0.0179
  179MOL0     H24689   7.354   8.950   5.212 -1.3286 -2.1133 -1.1449
  179MOL0     H24690   7.290   8.885   5.405 -2.7054 -1.9364  1.8297
  179MOL0     H24691   7.331   8.796   5.551 -0.4997 -1.6829 -1.5146
  179MOL0     H24692   7.526   9.015   5.454  0.2964 -1.2180 -0.3195
  179MOL0     H24693   7.526   8.908   5.593 -0.5079  1.0698  0.2362
  179MOL0     H24694   7.274   9.084   5.572 -1.2579 -3.8016  0.0834
  179MOL0     H24695   7.356   9.016   5.714  0.3466  1.5423  2.3286
  179MOL0     H24696   7.472   9.233   5.546  2.2625  0.8770  0.0359
  179MOL0     H24697   7.551   9.187   5.684 -0.3522 -2.0682 -0.0745
  179MOL0     H24698   7.251   9.397   5.887 -0.5674 -1.7999  0.7765
  179MOL0     H24699   7.651   8.657   5.302  0.9529  0.6151 -0.7186
  179MOL0     H24700   7.903   8.765   5.080 -0.6859  0.2328 -1.6779
  179MOL0     H24701   7.833   8.622   5.172  1.2802  0.0761  1.2523
  179MOL0     H24702   7.803   8.653   5.002 -0.0498 -2.4608  0.5178
  180MOL0     O24703   0.692  11.275   9.983 -0.3148  0.1838 -0.3185
  180MOL0     C24704   0.809  11.294   9.958 -0.5791  0.8092  0.4175
  180MOL0     O24705   0.856  11.312   9.835  0.0762 -0.6243  0.9018
  180MOL0     C24706   0.771  11.333   9.729 -0.0454 -0.0828 -0.6418
  180MOL0     C24707   0.655  11.412   9.741 -0.0852 -0.3935 -0.1118
  180MOL0     C24708   0.575  11.434   9.630 -0.3409  0.0049 -0.1273
  180MOL0     C24709   0.599  11.358   9.514  0.0765  0.0367  0.2134
  180MOL0     O24710   0.504  11.359   9.420 -0.2122  0.0202 -0.0755
  180MOL0     C24711   0.540  11.353   9.284 -0.3367 -0.3071 -0.7745
  180MOL0     C24712   0.419  11.401   9.203  0.0163  0.0772 -1.0492
  180MOL0     C24713   0.397  11.550   9.210  0.4155  0.3109  0.1890
  180MOL0     C24714   0.289  11.607   9.119  0.4483  0.0949  0.6327
  180MOL0     C24715   0.262  11.755   9.156  0.6164 -0.1641 -0.6980
  180MOL0     C24716   0.168  11.817   9.053 -0.0355 -0.7472 -0.6489
  180MOL0     C24717   0.175  11.970   9.047  0.1819  0.7000  0.3261
  180MOL0     C24718   0.105  12.033   8.919 -0.1337  0.5229 -0.4485
  180MOL0     N24719  -0.032  11.981   8.885  0.0135 -0.4219 -0.2373
  180MOL0     C24720  -0.072  11.856   8.840 -0.8283  0.7361  0.0474
  180MOL0     C24721  -0.205  11.864   8.822 -0.1727  1.2356  0.6058
  180MOL0     C24722  -0.295  11.749   8.778  0.8155 -0.3770 -0.1558
  180MOL0     C24723  -0.384  11.675   8.894 -0.5348 -0.7094 -0.7209
  180MOL0     C24724  -0.464  11.780   8.983 -0.0942  0.3686 -0.4086
  180MOL0     C24725  -0.548  11.877   8.914 -0.7261 -0.2053  0.2888
  180MOL0     O24726  -0.655  11.799   8.874  1.4636  0.0414 -0.3253
  180MOL0     C24727  -0.771  11.791   8.951 -0.0811 -0.0768  0.5380
  180MOL0     C24728  -0.806  11.877   9.061  1.2493  0.5870  0.0565
  180MOL0     C24729  -0.933  11.889   9.112 -0.0250  0.2252  1.0102
  180MOL0     C24730  -0.951  11.991   9.219 -0.9603 -0.1352  0.1747
  180MOL0     C24731  -1.033  11.802   9.059  1.0851  0.2381  0.2362
  180MOL0     C24732  -1.173  11.785   9.120 -0.6518  0.4663 -0.3939
  180MOL0     O24733  -1.263  11.714   9.045 -0.0240 -0.8559 -0.1295
  180MOL0     C24734  -1.385  11.682   9.099 -0.2863  0.4253  0.3789
  180MOL0     C24735  -1.486  11.772   9.136 -0.1589  0.1113  0.2651
  180MOL0     C24736  -1.609  11.734   9.197  0.2003 -0.0553 -0.3952
  180MOL0     C24737  -1.636  11.593   9.216 -0.1503 -0.0753  0.4077
  180MOL0     O24738  -1.763  11.574   9.276 -0.0627  0.1463 -0.1282
  180MOL0     C24739  -1.785  11.446   9.331  0.9442 -0.4726 -0.4675
  180MOL0     C24740  -1.931  11.422   9.323  0.0345  0.0611 -0.0520
  180MOL0     C24741  -2.029  11.511   9.403  0.4239 -0.5850  0.3080
  180MOL0     C24742  -2.177  11.472   9.355  0.6525  0.7755  0.4110
  180MOL0     C24743  -2.265  11.600   9.333  0.1424 -0.2470  0.4703
  180MOL0     C24744  -2.414  11.573   9.301 -0.5619  0.5493  0.2145
  180MOL0     C24745  -2.495  11.700   9.295 -0.8893 -0.1861 -0.2537
  180MOL0     C24746  -2.630  11.666   9.232 -0.3973 -0.0072 -0.2628
  180MOL0    Cl24747  -2.612  11.618   9.063  0.3445  0.3004  0.0476
  180MOL0     C24748  -1.539  11.499   9.185 -0.5426  0.4670  0.6787
  180MOL0     C24749  -1.416  11.544   9.121 -0.1047 -0.3720 -0.8390
  180MOL0     O24750  -1.188  11.829   9.240 -0.1255  0.3958 -1.0022
  180MOL0     C24751  -1.000  11.721   8.944 -0.8581  0.0911  0.0538
  180MOL0     C24752  -0.870  11.725   8.883  0.7601  0.2053  0.1305
  180MOL0     N24753  -0.250  11.991   8.850 -0.2766  0.2680 -0.1493
  180MOL0     N24754  -0.139  12.059   8.898 -0.0558 -0.3736 -0.1171
  180MOL0     C24755   0.726  11.298   9.501  0.9728 -0.4306 -0.4663
  180MOL0     C24756   0.810  11.283   9.609  0.7262  0.9327 -0.0462
  180MOL0     C24757   0.917  11.312  10.062  0.8276 -0.2841  0.4500
  180MOL0     C24758   1.035  11.379  10.018  1.7047  1.6029  0.5494
  180MOL0     C24759   1.144  11.381  10.105  0.2200  1.1100 -0.6232
  180MOL0     C24760   1.131  11.346  10.233 -0.0477 -0.6675  0.1653
  180MOL0     O24761   1.236  11.336  10.324 -0.2911 -0.4641  0.1644
  180MOL0     C24762   1.367  11.395  10.302 -0.4907 -0.1458 -0.3376
  180MOL0     C24763   1.468  11.290  10.259 -0.2424 -0.1096  0.3233
  180MOL0     C24764   1.575  11.369  10.165 -0.1502  0.1276  0.0450
  180MOL0     C24765   1.693  11.292  10.133 -0.0836  0.6089  0.8880
  180MOL0     C24766   1.647  11.174  10.066  0.5976 -0.7671 -0.4792
  180MOL0     C24767   1.617  11.067  10.014 -0.2963 -0.2734 -0.4820
  180MOL0     C24768   1.009  11.291  10.273  0.0345  0.2458 -0.2570
  180MOL0     C24769   0.900  11.268  10.193  0.1209 -0.0404 -0.3885
  180MOL0     C24770   0.788  11.191  10.241  0.5151 -0.6118 -0.5766
  180MOL0     H24771   0.624  11.459   9.834 -3.3930 -1.2231 -0.6577
  180MOL0     H24772   0.480  11.488   9.628 -0.1833  0.4880 -4.7429
  180MOL0     H24773   0.566  11.247   9.273  0.2685 -0.1379 -1.0112
  180MOL0     H24774   0.622  11.419   9.256  0.4075 -0.8886  0.0037
  180MOL0     H24775   0.423  11.374   9.097 -2.3930 -2.2995 -0.6339
  180MOL0     H24776   0.329  11.350   9.238 -0.5649  0.0125 -2.5358
  180MOL0     H24777   0.375  11.577   9.314 -0.0071  0.0864  0.1621
  180MOL0     H24778   0.487  11.607   9.187  0.9302 -0.1712  0.9612
  180MOL0     H24779   0.328  11.609   9.017  1.4311  1.5341  1.0148
  180MOL0     H24780   0.195  11.551   9.129  0.9872 -0.4773  3.5236
  180MOL0     H24781   0.355  11.811   9.144 -0.7999  2.3229 -0.8301
  180MOL0     H24782   0.216  11.779   9.252  1.8566 -3.3010  0.8385
  180MOL0     H24783   0.190  11.783   8.952 -0.7818 -2.5241 -0.2520
  180MOL0     H24784   0.068  11.783   9.082 -0.4646  0.3477 -0.8102
  180MOL0     H24785   0.281  11.998   9.046 -0.3804  3.3429  3.0616
  180MOL0     H24786   0.146  12.010   9.144  1.9945  1.2060  0.6960
  180MOL0     H24787   0.093  12.141   8.933 -0.5294  0.5332 -0.8431
  180MOL0     H24788   0.164  12.006   8.831 -1.7073 -3.3516 -0.5125
  180MOL0     H24789  -0.007  11.771   8.824  0.3348  1.8197 -1.2068
  180MOL0     H24790  -0.228  11.680   8.725  1.1867  0.1069 -0.3280
  180MOL0     H24791  -0.362  11.799   8.707  0.0236 -0.7681  0.3082
  180MOL0     H24792  -0.452  11.605   8.844  0.6003  0.1296 -3.6179
  180MOL0     H24793  -0.325  11.619   8.967 -2.9125 -2.3152  0.1126
  180MOL0     H24794  -0.524  11.720   9.053  0.2755  0.0051 -0.3959
  180MOL0     H24795  -0.388  11.829   9.043  0.8975 -0.4276 -0.9884
  180MOL0     H24796  -0.586  11.950   8.986  0.5626 -0.8223  1.6629
  180MOL0     H24797  -0.504  11.928   8.828  2.6633 -3.1312  0.0521
  180MOL0     H24798  -0.734  11.950   9.097  1.0910  1.3902 -1.1835
  180MOL0     H24799  -1.024  12.068   9.192  2.1641  2.2833 -2.0900
  180MOL0     H24800  -0.855  12.041   9.239 -0.7149 -0.7439  0.5348
  180MOL0     H24801  -0.987  11.948   9.313 -2.4365 -0.6107 -0.5785
  180MOL0     H24802  -1.476  11.877   9.110 -1.1363 -0.0888 -1.0644
  180MOL0     H24803  -1.681  11.806   9.234  1.0175 -0.4528  2.1066
  180MOL0     H24804  -1.745  11.364   9.271 -0.1630  0.7058 -2.9775
  180MOL0     H24805  -1.748  11.446   9.434  0.2201  0.2788 -0.1969
  180MOL0     H24806  -1.961  11.412   9.218  2.2503 -2.9568 -0.5483
  180MOL0     H24807  -1.940  11.320   9.361 -0.2930 -0.1453 -0.6637
  180MOL0     H24808  -2.008  11.615   9.375 -0.3916 -0.1184  1.3791
  180MOL0     H24809  -2.018  11.494   9.510 -0.9141 -1.4692  0.3285
  180MOL0     H24810  -2.223  11.419   9.438  1.5891  0.3106  0.6513
  180MOL0     H24811  -2.183  11.409   9.265  0.3977  0.6940  0.4868
  180MOL0     H24812  -2.252  11.671   9.416 -2.0925  0.8935 -0.0823
  180MOL0     H24813  -2.232  11.653   9.243 -2.4795 -1.2949 -1.2054
  180MOL0     H24814  -2.463  11.501   9.367  0.9664 -1.3823 -0.6650
  180MOL0     H24815  -2.431  11.525   9.204 -0.6589 -1.7481  1.3044
  180MOL0     H24816  -2.451  11.767   9.220 -0.5034  0.3022  0.4003
  180MOL0     H24817  -2.507  11.759   9.386  1.0629  0.8192 -0.5737
  180MOL0     H24818  -2.694  11.754   9.243 -0.3270 -0.1732  1.7758
  180MOL0     H24819  -2.682  11.588   9.289  0.3748  0.6222  1.3735
  180MOL0     H24820  -1.553  11.392   9.189  0.4386  0.3364  0.8941
  180MOL0     H24821  -1.355  11.461   9.088 -0.7455 -1.7318  1.1931
  180MOL0     H24822  -1.077  11.676   8.883 -2.2571  1.3707  0.8067
  180MOL0     H24823  -0.863  11.677   8.786 -3.2048 -0.3806 -0.0511
  180MOL0     H24824   0.747  11.264   9.400  1.2983 -0.4483 -0.3913
  180MOL0     H24825   0.909  11.239   9.603  0.6481  0.3015  2.1832
  180MOL0     H24826   1.055  11.401   9.914  0.4414  1.0568  0.1791
  180MOL0     H24827   1.241  11.413  10.069  1.4965 -1.3336  0.3991
  180MOL0     H24828   1.363  11.477  10.230 -0.2175 -0.5043 -0.7668
  180MOL0     H24829   1.406  11.437  10.395  0.5383  0.8527 -1.1820
  180MOL0     H24830   1.413  11.223  10.193 -0.9782  0.6009  0.1993
  180MOL0     H24831   1.508  11.233  10.343  0.4854 -2.1913 -1.3377
  180MOL0     H24832   1.524  11.402  10.074  1.1956  2.8171  0.1698
  180MOL0     H24833   1.601  11.467  10.204 -0.7451  0.4605 -0.3787
  180MOL0     H24834   1.753  11.264  10.220 -0.1336  2.9842  1.7458
  180MOL0     H24835   1.752  11.346  10.059 -0.6670  1.0231  0.7161
  180MOL0     H24836   1.596  10.976   9.962  0.0020 -0.7034  0.1403
  180MOL0     H24837   1.006  11.244  10.371  1.5584 -0.7410 -0.6440
  180MOL0     H24838   0.783  11.094  10.189  3.2276 -1.5469  0.7233
  180MOL0     H24839   0.814  11.154  10.341  0.7486 -0.2155 -0.4915
  180MOL0     H24840   0.696  11.249  10.252 -1.0658 -3.3414  2.1984
  181MOL0     O24841   2.304   3.465   0.465 -0.0840  0.3017 -1.2302
  181MOL0     C24842   2.236   3.399   0.550  0.4701  0.0470 -0.4914
  181MOL0     O24843   2.250   3.401   0.681  0.0019  0.5284 -0.2563
  181MOL0     C24844   2.356   3.462   0.735  0.0982  0.3507 -0.5154
  181MOL0     C24845   2.335   3.543   0.845 -0.1394  0.5289 -0.1889
  181MOL0     C24846   2.435   3.619   0.912 -0.6871 -0.1391  0.6295
  181MOL0     C24847   2.566   3.605   0.863 -0.1882 -0.0960  0.0784
  181MOL0     O24848   2.672   3.665   0.924  0.3798 -0.5404 -0.1055
  181MOL0     C24849   2.650   3.803   0.964  1.1825 -0.5666 -0.9853
  181MOL0     C24850   2.707   3.833   1.105  0.8193  0.1294  0.7863
  181MOL0     C24851   2.852   3.774   1.099 -0.2198  0.6127 -0.5432
  181MOL0     C24852   2.919   3.813   1.229  0.7475 -0.0277 -0.5896
  181MOL0     C24853   3.052   3.748   1.268 -0.4153  0.7882  0.1002
  181MOL0     C24854   3.055   3.595   1.231 -0.8595  0.3571 -0.4580
  181MOL0     C24855   2.968   3.504   1.323 -0.0865  0.4556  0.0795
  181MOL0     C24856   3.007   3.484   1.464 -0.5477 -1.3162 -0.6518
  181MOL0     N24857   2.911   3.420   1.560  0.8739 -0.7620  0.2254
  181MOL0     C24858   2.856   3.295   1.560  0.0906  0.6782 -0.4545
  181MOL0     C24859   2.759   3.293   1.658 -0.6922  0.2414 -0.5007
  181MOL0     C24860   2.669   3.183   1.722 -0.4651 -0.2475  0.1219
  181MOL0     C24861   2.727   3.119   1.843 -1.8372  0.6282 -1.2304
  181MOL0     C24862   2.853   3.028   1.825 -0.2438  0.9072 -0.4388
  181MOL0     C24863   2.884   2.964   1.966  0.1355  0.9516 -0.8263
  181MOL0     O24864   2.867   2.818   1.946 -0.0929 -0.1102 -0.5790
  181MOL0     C24865   2.950   2.723   2.005  0.4744 -0.0114  0.2292
  181MOL0     C24866   2.916   2.589   1.984 -0.1295 -0.7201 -0.0092
  181MOL0     C24867   2.987   2.488   2.046 -0.0816  0.7412 -0.4162
  181MOL0     C24868   2.942   2.342   2.026  0.0462  0.1981 -0.5430
  181MOL0     C24869   3.110   2.513   2.113  0.8062  0.1024 -0.1758
  181MOL0     C24870   3.189   2.405   2.180 -0.0292 -0.9669 -0.2629
  181MOL0     O24871   3.126   2.335   2.273  0.3924  0.3963  0.5013
  181MOL0     C24872   3.188   2.247   2.358 -1.0449 -0.1001  0.1203
  181MOL0     C24873   3.260   2.145   2.305  0.4175  1.3116 -0.1142
  181MOL0     C24874   3.302   2.042   2.387  0.0607 -0.2357 -0.7420
  181MOL0     C24875   3.277   2.046   2.525 -0.4581  0.5319 -0.2233
  181MOL0     O24876   3.329   1.958   2.617  0.2440 -0.4559  0.2774
  181MOL0     C24877   3.457   1.893   2.585 -0.0279  0.0320 -0.1296
  181MOL0     C24878   3.520   1.841   2.708  0.9428 -1.4731 -0.5058
  181MOL0     C24879   3.441   1.725   2.764  0.1694 -0.2096  0.5818
  181MOL0     C24880   3.530   1.661   2.875  0.7702 -0.2037 -0.2960
  181MOL0     C24881   3.475   1.523   2.913 -0.1971 -0.6068 -0.1190
  181MOL0     C24882   3.552   1.449   3.019 -0.1578 -0.1763 -0.2473
  181MOL0     C24883   3.692   1.403   2.995  0.3381  0.3803  0.8451
  181MOL0     C24884   3.792   1.411   3.115  0.8188 -0.5076 -0.4279
  181MOL0    Cl24885   3.959   1.351   3.062 -0.2695  0.1689  0.5682
  181MOL0     C24886   3.201   2.142   2.573  0.1325 -1.4631 -0.1607
  181MOL0     C24887   3.165   2.248   2.498 -0.3569  0.1874  0.0024
  181MOL0     O24888   3.311   2.412   2.168  0.4842  0.1689  0.5223
  181MOL0     C24889   3.143   2.649   2.127 -0.3622  0.6736 -0.0757
  181MOL0     C24890   3.062   2.748   2.083 -0.6038 -0.0088  0.7422
  181MOL0     N24891   2.761   3.415   1.723  0.6585 -0.1903  0.3893
  181MOL0     N24892   2.849   3.487   1.659 -0.1214  0.3662 -0.2388
  181MOL0     C24893   2.587   3.518   0.759 -1.0085  0.7735  0.0277
  181MOL0     C24894   2.488   3.446   0.698 -0.3050 -0.0487 -0.9681
  181MOL0     C24895   2.128   3.317   0.490 -0.1852  0.1098  0.1094
  181MOL0     C24896   2.044   3.377   0.402 -0.4513  0.0369  0.5175
  181MOL0     C24897   1.941   3.307   0.337  0.2339  0.6466  0.3016
  181MOL0     C24898   1.915   3.170   0.374  0.4447  0.1681 -1.0630
  181MOL0     O24899   1.806   3.122   0.316 -0.0910 -1.0708  0.5985
  181MOL0     C24900   1.793   2.980   0.312  0.1932 -0.0292 -0.7176
  181MOL0     C24901   1.900   2.919   0.210  0.3529 -0.6307 -0.2654
  181MOL0     C24902   1.878   2.772   0.182  0.0092  0.1948 -0.0122
  181MOL0     C24903   1.964   2.714   0.070  0.2621 -0.2928  1.0186
  181MOL0     C24904   1.942   2.565   0.070  0.9220 -0.2689 -1.5130
  181MOL0     C24905   1.926   2.446   0.082  0.0218  1.2411 -0.5928
  181MOL0     C24906   2.009   3.114   0.466  0.7471 -0.8459  0.0580
  181MOL0     C24907   2.112   3.184   0.529  0.9971 -0.3068  0.6904
  181MOL0     C24908   2.204   3.107   0.625 -0.7428 -0.6416 -0.7345
  181MOL0     H24909   2.243   3.542   0.902 -0.1970 -1.7078 -0.2301
  181MOL0     H24910   2.409   3.659   1.009  2.5479  4.4650 -0.1195
  181MOL0     H24911   2.544   3.824   0.975  0.9847 -1.3225 -1.4026
  181MOL0     H24912   2.684   3.876   0.891  0.4760 -0.3140 -1.0657
  181MOL0     H24913   2.720   3.941   1.109  4.9703 -0.1836  0.4800
  181MOL0     H24914   2.646   3.787   1.184 -3.1525 -0.0296 -2.0350
  181MOL0     H24915   2.836   3.668   1.078  0.7469  0.2790  0.3341
  181MOL0     H24916   2.902   3.814   1.011  1.5632  0.7909  0.5088
  181MOL0     H24917   2.926   3.921   1.216 -0.8382 -0.1644 -3.4943
  181MOL0     H24918   2.859   3.798   1.320  1.9874  4.6533  1.2581
  181MOL0     H24919   3.087   3.765   1.371 -1.8214  1.1386  0.5405
  181MOL0     H24920   3.128   3.809   1.220  0.4018  1.6820  2.3781
  181MOL0     H24921   3.022   3.580   1.127 -2.5647 -1.7254  0.3172
  181MOL0     H24922   3.157   3.556   1.228  0.0563  2.2581  2.4489
  181MOL0     H24923   2.982   3.408   1.272 -1.9894  0.6970 -0.9716
  181MOL0     H24924   2.861   3.519   1.311 -0.1978 -0.0232  0.4277
  181MOL0     H24925   3.104   3.434   1.466 -0.5304 -1.2774  0.1542
  181MOL0     H24926   3.018   3.591   1.486 -3.2994  0.0105 -4.7068
  181MOL0     H24927   2.877   3.208   1.498 -4.1296 -2.0137  1.4698
  181MOL0     H24928   2.638   3.108   1.648 -1.3816 -0.5558  0.8093
  181MOL0     H24929   2.583   3.240   1.757 -1.9883 -3.2248  1.5964
  181MOL0     H24930   2.751   3.200   1.913  0.7850 -0.7219 -0.4121
  181MOL0     H24931   2.650   3.067   1.900 -0.0328  0.9679  1.7479
  181MOL0     H24932   2.833   2.953   1.748  0.1828 -3.4062  3.2453
  181MOL0     H24933   2.943   3.076   1.786 -0.8126  1.2323 -1.3915
  181MOL0     H24934   2.986   2.996   1.989  0.3432  1.3927 -2.2599
  181MOL0     H24935   2.813   2.997   2.043  1.4436  1.7466  0.0734
  181MOL0     H24936   2.828   2.568   1.922 -0.8308 -3.0368  1.6158
  181MOL0     H24937   2.863   2.337   1.950  1.8113  0.3960 -2.4546
  181MOL0     H24938   2.915   2.294   2.120 -0.8526  0.4961 -0.6374
  181MOL0     H24939   3.032   2.298   1.983  0.4608 -0.2447  0.7273
  181MOL0     H24940   3.268   2.127   2.198  0.5272  0.5737  0.0111
  181MOL0     H24941   3.364   1.962   2.349  3.0878  1.4684  0.2543
  181MOL0     H24942   3.439   1.815   2.510  0.8147  0.1581 -0.4754
  181MOL0     H24943   3.521   1.972   2.544 -1.1184  0.6017 -0.7851
  181MOL0     H24944   3.629   1.840   2.703  1.2294  1.5708  1.9805
  181MOL0     H24945   3.508   1.918   2.785  1.8834 -1.6550 -0.1619
  181MOL0     H24946   3.420   1.653   2.684 -0.7787  2.2414 -1.5022
  181MOL0     H24947   3.345   1.765   2.797  0.8138  0.2959  1.9135
  181MOL0     H24948   3.529   1.724   2.964  1.6530  1.0876 -1.1685
  181MOL0     H24949   3.634   1.653   2.842  0.3242  0.9444 -2.1439
  181MOL0     H24950   3.369   1.536   2.941  0.4002 -1.0926  2.6730
  181MOL0     H24951   3.480   1.463   2.822 -2.1666 -1.8444  0.5101
  181MOL0     H24952   3.492   1.358   3.030 -0.5886  0.0313 -0.8075
  181MOL0     H24953   3.561   1.505   3.112  1.7395 -0.4764 -0.2203
  181MOL0     H24954   3.730   1.466   2.915 -1.5996 -0.6850 -1.0122
  181MOL0     H24955   3.697   1.304   2.948  0.9927  1.1833 -0.8364
  181MOL0     H24956   3.765   1.358   3.207  1.4351 -1.0096 -0.5279
  181MOL0     H24957   3.803   1.518   3.134 -0.3634 -0.0247 -2.2222
  181MOL0     H24958   3.166   2.143   2.676 -0.6284  2.1228 -0.3318
  181MOL0     H24959   3.103   2.322   2.548  2.4503  1.3051  2.0885
  181MOL0     H24960   3.229   2.681   2.184 -0.2708  1.5535 -0.7016
  181MOL0     H24961   3.096   2.847   2.109  0.1802  0.0110 -0.2903
  181MOL0     H24962   2.689   3.495   0.729 -1.4925 -0.5030 -0.7269
  181MOL0     H24963   2.517   3.382   0.615 -2.2792 -1.5726 -0.5528
  181MOL0     H24964   2.059   3.480   0.370 -1.3031 -0.0369 -0.1622
  181MOL0     H24965   1.880   3.355   0.261 -1.4461  1.3565  2.0286
  181MOL0     H24966   1.802   2.948   0.416 -4.1976  2.1969  0.5680
  181MOL0     H24967   1.693   2.953   0.279 -0.0504  0.6646 -0.5618
  181MOL0     H24968   2.005   2.933   0.236  0.6001 -1.0373 -1.0043
  181MOL0     H24969   1.881   2.970   0.115  0.2287 -1.0392 -0.4664
  181MOL0     H24970   1.907   2.721   0.274  0.3961  2.6229  1.2628
  181MOL0     H24971   1.777   2.746   0.148  0.4100 -0.7707 -0.5265
  181MOL0     H24972   2.071   2.734   0.071  0.4873 -1.3195  0.0355
  181MOL0     H24973   1.925   2.761  -0.021  0.7857  1.3127  1.6027
  181MOL0     H24974   1.931   2.340   0.095 -2.2721  1.3816  2.6360
  181MOL0     H24975   2.002   3.007   0.486 -3.2406 -0.4937  1.2566
  181MOL0     H24976   2.303   3.151   0.640 -1.3940  0.8064 -0.5127
  181MOL0     H24977   2.153   3.101   0.721  3.5246 -2.1466  1.6598
  181MOL0     H24978   2.219   3.007   0.584 -0.6266 -1.3939  1.0704
  182MOL0     O24979   1.032   0.866   7.428  0.6870 -0.0732  0.8143
  182MOL0     C24980   1.107   0.960   7.417 -0.1450  0.2605  0.2612
  182MOL0     O24981   1.071   1.090   7.413 -0.7324 -0.3529  0.3973
  182MOL0     C24982   0.937   1.112   7.439 -0.2533  0.5302 -1.0625
  182MOL0     C24983   0.849   1.169   7.342  0.4375  0.0031 -0.1101
  182MOL0     C24984   0.713   1.206   7.362  0.3209  0.8072  0.1615
  182MOL0     C24985   0.670   1.192   7.498  0.1206  0.0197  0.3415
  182MOL0     O24986   0.541   1.195   7.528  0.7464 -0.6539  0.3590
  182MOL0     C24987   0.449   1.095   7.456 -0.7750 -0.2580 -0.6302
  182MOL0     C24988   0.338   1.038   7.551 -0.3547  0.6783  0.4813
  182MOL0     C24989   0.392   0.991   7.689 -0.5011  0.1414  0.9867
  182MOL0     C24990   0.476   0.857   7.686 -0.4488 -0.4342  1.9647
  182MOL0     C24991   0.528   0.802   7.813 -0.7090  0.7407  0.1194
  182MOL0     C24992   0.583   0.910   7.904 -0.3217 -0.0005  0.5394
  182MOL0     C24993   0.648   0.850   8.024 -0.5819 -0.3451  0.6462
  182MOL0     C24994   0.707   0.946   8.133  0.1603  0.9221 -0.0258
  182MOL0     N24995   0.804   1.040   8.069 -0.3114 -0.2830 -0.0512
  182MOL0     C24996   0.938   1.031   8.039  0.0464  0.2330 -0.5139
  182MOL0     C24997   0.959   1.135   7.957 -0.0320  0.2123 -0.4683
  182MOL0     C24998   1.104   1.169   7.909 -0.1531 -0.3687 -0.2642
  182MOL0     C24999   1.214   1.131   8.008  0.3371 -0.3644 -0.2115
  182MOL0     C25000   1.355   1.153   7.939 -0.9972  0.7510  0.6242
  182MOL0     C25001   1.459   1.121   8.038  0.0138 -0.1237 -0.3161
  182MOL0     O25002   1.489   0.980   8.008  0.5846  0.1093  0.4553
  182MOL0     C25003   1.588   0.919   8.085  0.4355  0.0745 -0.0359
  182MOL0     C25004   1.629   0.803   8.039 -0.0404 -0.1584  0.1953
  182MOL0     C25005   1.731   0.724   8.096  0.0955 -1.2787 -0.3235
  182MOL0     C25006   1.767   0.594   8.028  0.7298 -0.8719 -0.3436
  182MOL0     C25007   1.801   0.780   8.208  0.5728  0.5257 -0.2328
  182MOL0     C25008   1.900   0.705   8.293  0.2807  0.2310  0.0413
  182MOL0     O25009   1.934   0.756   8.408 -0.0567  0.1305 -0.2554
  182MOL0     C25010   2.047   0.721   8.484  1.5282  0.2256  0.5519
  182MOL0     C25011   2.062   0.796   8.599  0.1322  0.4244  0.2820
  182MOL0     C25012   2.165   0.764   8.688  0.3683 -0.4737  0.4129
  182MOL0     C25013   2.257   0.664   8.653 -0.0397  0.9987  0.6227
  182MOL0     O25014   2.357   0.625   8.744  0.4275 -0.9079  0.8841
  182MOL0     C25015   2.466   0.706   8.739 -0.7124 -1.2801  0.8056
  182MOL0     C25016   2.490   0.760   8.882  0.0176 -0.0765 -0.6826
  182MOL0     C25017   2.638   0.814   8.901  0.6236  0.1691 -0.1445
  182MOL0     C25018   2.684   0.924   8.801  0.5133 -0.5243 -0.4903
  182MOL0     C25019   2.810   1.010   8.844 -0.0864  0.7154  0.0105
  182MOL0     C25020   2.777   1.112   8.950  0.1915 -0.2410 -0.5514
  182MOL0     C25021   2.684   1.217   8.893 -0.6419  0.3197  0.3311
  182MOL0     C25022   2.682   1.341   8.981  1.2086 -0.0785  0.7456
  182MOL0    Cl25023   2.580   1.318   9.132 -0.0108  0.2403  0.2157
  182MOL0     C25024   2.255   0.593   8.535  0.7057 -0.0084 -0.0913
  182MOL0     C25025   2.143   0.618   8.451 -0.4031  0.0900 -0.4435
  182MOL0     O25026   1.952   0.607   8.247  0.2148  0.3592 -0.2110
  182MOL0     C25027   1.761   0.902   8.252  0.7104 -0.4771 -0.0165
  182MOL0     C25028   1.657   0.976   8.198 -1.1024 -0.1321  0.6527
  182MOL0     N25029   0.839   1.210   7.943 -0.0449 -0.4843  0.4228
  182MOL0     N25030   0.757   1.161   8.026  0.9218 -0.3536 -1.0333
  182MOL0     C25031   0.758   1.138   7.594 -0.2133 -0.9777  0.6464
  182MOL0     C25032   0.890   1.099   7.570 -0.4770 -0.8169  1.1193
  182MOL0     C25033   1.243   0.931   7.387 -0.6296 -1.0812  0.0896
  182MOL0     C25034   1.337   1.038   7.397 -0.4562 -1.1213 -0.2356
  182MOL0     C25035   1.470   1.028   7.362  0.2476 -0.9044  0.0380
  182MOL0     C25036   1.525   0.911   7.325  0.0394  0.0156  0.7977
  182MOL0     O25037   1.658   0.907   7.293  0.3956 -0.4228  0.1871
  182MOL0     C25038   1.717   0.788   7.227 -0.1352 -0.2284 -0.4355
  182MOL0     C25039   1.874   0.806   7.223 -0.2355  0.0943  0.7138
  182MOL0     C25040   1.925   0.930   7.140  0.0206 -0.2878  0.1971
  182MOL0     C25041   2.079   0.915   7.134 -0.3680  1.0079 -0.5044
  182MOL0     C25042   2.136   0.816   7.031  0.2837  0.3451 -0.3815
  182MOL0     C25043   2.165   0.735   6.944 -0.4165 -0.1878 -0.5515
  182MOL0     C25044   1.438   0.799   7.318  0.3129  0.0521 -0.1992
  182MOL0     C25045   1.301   0.809   7.340  0.5569  0.0079  0.0875
  182MOL0     C25046   1.227   0.672   7.318  0.2820 -0.6366 -0.0221
  182MOL0     H25047   0.894   1.192   7.246 -1.3584 -1.7295 -1.4462
  182MOL0     H25048   0.646   1.246   7.287 -2.4444  1.2347  2.6618
  182MOL0     H25049   0.514   1.011   7.431 -0.1220 -0.2252  0.8861
  182MOL0     H25050   0.420   1.146   7.363 -0.3980 -2.0405 -1.7827
  182MOL0     H25051   0.254   1.105   7.574  0.2688  1.3467  0.8337
  182MOL0     H25052   0.289   0.955   7.499 -1.3893  0.6350  1.4850
  182MOL0     H25053   0.442   1.080   7.730  0.2716  1.0171 -1.6771
  182MOL0     H25054   0.310   0.977   7.760 -0.2246 -2.8514  0.8522
  182MOL0     H25055   0.413   0.786   7.631  2.2662  1.5196 -4.5377
  182MOL0     H25056   0.555   0.867   7.612  0.2786 -1.8270  2.5179
  182MOL0     H25057   0.608   0.733   7.785  0.7860  1.5964  2.0755
  182MOL0     H25058   0.455   0.743   7.869  1.3968 -0.9564  1.2093
  182MOL0     H25059   0.661   0.972   7.861 -0.4803  0.5195  0.9895
  182MOL0     H25060   0.491   0.956   7.941 -2.0961 -2.5280 -0.4016
  182MOL0     H25061   0.728   0.787   7.984 -0.1850  1.4683 -1.6332
  182MOL0     H25062   0.570   0.787   8.069 -0.4501 -2.0827 -1.3913
  182MOL0     H25063   0.618   0.983   8.184 -2.7559 -3.3699 -1.5071
  182MOL0     H25064   0.761   0.884   8.205  1.7919 -0.8629 -2.6305
  182MOL0     H25065   1.007   0.954   8.074 -2.2974 -1.3432  0.8639
  182MOL0     H25066   1.103   1.274   7.881 -1.3120 -0.3490 -0.1869
  182MOL0     H25067   1.126   1.119   7.814  1.8735  2.1421 -1.2426
  182MOL0     H25068   1.211   1.204   8.090  3.3259  1.7393 -1.7720
  182MOL0     H25069   1.208   1.026   8.038  2.5874 -0.1460  1.2443
  182MOL0     H25070   1.380   1.099   7.847  0.2717  3.5627 -0.8237
  182MOL0     H25071   1.361   1.256   7.901 -0.3088 -0.0601 -1.6716
  182MOL0     H25072   1.547   1.183   8.017 -1.0219  0.6108 -2.8769
  182MOL0     H25073   1.427   1.145   8.140  3.4517  4.0508  0.0782
  182MOL0     H25074   1.574   0.764   7.954  2.7038 -1.3908 -1.1738
  182MOL0     H25075   1.869   0.595   7.989  1.2021 -0.2429  0.8505
  182MOL0     H25076   1.690   0.573   7.953 -0.0701  0.6156  0.0286
  182MOL0     H25077   1.763   0.514   8.103  3.1526 -0.7453 -0.0148
  182MOL0     H25078   1.981   0.866   8.621  1.6146  3.0926 -2.0718
  182MOL0     H25079   2.175   0.820   8.781 -1.0211  1.1417 -0.3634
  182MOL0     H25080   2.554   0.648   8.711  1.3710  1.6450  0.8227
  182MOL0     H25081   2.449   0.787   8.669  1.6778 -2.2766 -1.0779
  182MOL0     H25082   2.415   0.834   8.911  0.4550  0.0617  0.1438
  182MOL0     H25083   2.474   0.686   8.961  1.1626 -0.8986 -1.1951
  182MOL0     H25084   2.706   0.729   8.897 -1.4426 -1.5026 -2.1915
  182MOL0     H25085   2.638   0.850   9.004 -0.3330 -2.3875  0.8316
  182MOL0     H25086   2.594   0.983   8.779  2.3939  1.9278 -2.1670
  182MOL0     H25087   2.714   0.872   8.710  2.5597  2.0535 -1.4348
  182MOL0     H25088   2.881   0.941   8.893  1.0143  0.7154 -1.5142
  182MOL0     H25089   2.859   1.049   8.755  1.5721 -0.8796  0.1538
  182MOL0     H25090   2.867   1.161   8.988 -0.7671 -0.5778  2.4334
  182MOL0     H25091   2.733   1.062   9.037  1.0535 -2.0501 -1.0997
  182MOL0     H25092   2.579   1.189   8.879 -0.3441 -0.4286 -0.4887
  182MOL0     H25093   2.734   1.246   8.801 -0.4144 -2.0628 -0.3798
  182MOL0     H25094   2.636   1.417   8.918 -1.1291 -2.0685 -0.1224
  182MOL0     H25095   2.781   1.380   9.007  1.3583  0.2085 -0.2321
  182MOL0     H25096   2.326   0.513   8.518 -0.1167 -1.1642  1.6080
  182MOL0     H25097   2.127   0.544   8.373  1.4427 -0.5688 -0.2418
  182MOL0     H25098   1.809   0.954   8.334 -0.4793 -0.5905  0.7713
  182MOL0     H25099   1.643   1.079   8.230  0.9890  0.2828  0.3452
  182MOL0     H25100   0.705   1.138   7.689 -0.7883 -0.8098  0.3293
  182MOL0     H25101   0.949   1.069   7.656 -0.1083 -0.4059  1.0115
  182MOL0     H25102   1.313   1.143   7.414 -0.7181 -1.0181 -1.1562
  182MOL0     H25103   1.531   1.118   7.360  1.0375 -1.4468 -1.4974
  182MOL0     H25104   1.695   0.712   7.302  1.5997  1.2805  1.7685
  182MOL0     H25105   1.677   0.762   7.128 -1.2874 -0.8814  0.1853
  182MOL0     H25106   1.913   0.718   7.171 -1.1529  0.4201 -0.5923
  182MOL0     H25107   1.907   0.810   7.327 -2.2288 -1.7340  1.5007
  182MOL0     H25108   1.882   0.932   7.040  1.6493 -1.4581 -0.5824
  182MOL0     H25109   1.905   1.024   7.191  3.6138  0.1165  1.1338
  182MOL0     H25110   2.139   0.895   7.223  0.1564  1.0306 -0.8472
  182MOL0     H25111   2.124   1.012   7.109  0.5999  0.9032  0.7134
  182MOL0     H25112   2.190   0.663   6.869 -3.5727 -1.2604 -0.7292
  182MOL0     H25113   1.462   0.698   7.287 -4.6035 -1.9222  1.3646
  182MOL0     H25114   1.285   0.579   7.319 -0.2879 -1.0193  2.2174
  182MOL0     H25115   1.149   0.650   7.390 -0.8682 -0.4940 -1.1814
  182MOL0     H25116   1.198   0.685   7.213  0.6989 -1.4674 -0.2483
  183MOL0     O25117   7.376   7.453  10.238  0.2051 -0.9816 -0.4024
  183MOL0     C25118   7.382   7.563  10.293 -0.2421  0.0326 -0.9884
  183MOL0     O25119   7.369   7.689  10.224 -0.6275 -0.2964 -0.1409
  183MOL0     C25120   7.335   7.688  10.091 -0.4480  0.4022  0.3929
  183MOL0     C25121   7.248   7.785  10.056 -0.7263 -0.4122 -0.1799
  183MOL0     C25122   7.209   7.802   9.926 -0.3746 -0.2218  0.3896
  183MOL0     C25123   7.266   7.729   9.822  0.4126 -0.5715  0.2837
  183MOL0     O25124   7.232   7.736   9.688  0.1658 -0.7745  0.3599
  183MOL0     C25125   7.093   7.778   9.659 -0.7901  0.6533 -0.0615
  183MOL0     C25126   7.096   7.869   9.540  0.3203 -0.5351  0.2325
  183MOL0     C25127   6.968   7.862   9.463  0.4962 -0.2014  0.3749
  183MOL0     C25128   6.995   7.946   9.337 -0.2763  0.9943 -0.1264
  183MOL0     C25129   6.886   7.949   9.235 -1.2663 -0.0502  0.5860
  183MOL0     C25130   6.889   7.814   9.148  0.8792  0.2039  0.2857
  183MOL0     C25131   6.792   7.831   9.022 -0.1519  0.3813  0.1391
  183MOL0     C25132   6.777   7.693   8.972  0.2619 -1.0305 -0.1609
  183MOL0     N25133   6.662   7.683   8.878 -1.3467  0.3338 -0.4291
  183MOL0     C25134   6.614   7.570   8.831  0.0575  0.6787  0.6957
  183MOL0     C25135   6.498   7.601   8.774 -0.3312 -0.9510  0.4659
  183MOL0     C25136   6.381   7.520   8.724 -0.7650  0.6567 -0.2808
  183MOL0     C25137   6.268   7.512   8.824 -0.6664 -0.1219 -0.4695
  183MOL0     C25138   6.312   7.446   8.963  0.2393  0.1791  0.8726
  183MOL0     C25139   6.284   7.528   9.087  0.8361  0.1104  0.3052
  183MOL0     O25140   6.344   7.664   9.079  0.0078 -0.0839  1.0134
  183MOL0     C25141   6.342   7.744   9.184 -0.6658  0.3971 -0.5267
  183MOL0     C25142   6.293   7.719   9.315  0.4288  0.3729  0.3093
  183MOL0     C25143   6.295   7.819   9.416  0.5729 -0.2779  0.6054
  183MOL0     C25144   6.202   7.798   9.543 -0.6029  0.7515  0.3308
  183MOL0     C25145   6.364   7.940   9.384 -0.4495  0.8450  0.0415
  183MOL0     C25146   6.393   8.045   9.487  0.1383 -0.5084  0.7551
  183MOL0     O25147   6.471   8.149   9.441 -0.5766 -0.1198 -0.8516
  183MOL0     C25148   6.500   8.266   9.525  0.7054 -0.1763 -0.6599
  183MOL0     C25149   6.397   8.319   9.602  0.9106  0.3297  0.6494
  183MOL0     C25150   6.417   8.427   9.680  0.1157 -0.3021  0.1572
  183MOL0     C25151   6.544   8.485   9.669 -0.2198  1.1194  0.5748
  183MOL0     O25152   6.573   8.598   9.736  0.1095  0.1844  0.4068
  183MOL0     C25153   6.656   8.572   9.856 -0.0172 -0.4614 -0.2506
  183MOL0     C25154   6.578   8.522   9.980 -0.1312  0.1750 -0.4273
  183MOL0     C25155   6.673   8.500  10.088  0.6845  0.3372 -1.1854
  183MOL0     C25156   6.596   8.459  10.217  0.1699  0.1462 -0.3984
  183MOL0     C25157   6.678   8.374  10.305 -0.3346  0.0469  0.0991
  183MOL0     C25158   6.587   8.344  10.422  1.2856 -0.2322 -0.3764
  183MOL0     C25159   6.645   8.237  10.526  0.2418 -0.7881 -0.4241
  183MOL0     C25160   6.543   8.218  10.642 -0.1960 -0.4246  0.5171
  183MOL0    Cl25161   6.400   8.131  10.565 -0.3448  0.0885 -0.0236
  183MOL0     C25162   6.645   8.438   9.590 -0.4606 -0.2985  0.0961
  183MOL0     C25163   6.618   8.334   9.508  0.2653  0.1633  0.1583
  183MOL0     O25164   6.357   8.023   9.605 -0.7171 -0.1564  0.0069
  183MOL0     C25165   6.424   7.955   9.253 -0.1245 -0.5368 -0.3357
  183MOL0     C25166   6.404   7.858   9.154  0.5949  0.0828 -0.6396
  183MOL0     N25167   6.486   7.735   8.774  1.7615 -0.0425 -0.0731
  183MOL0     N25168   6.582   7.789   8.835  0.5239 -0.1859 -0.2141
  183MOL0     C25169   7.365   7.632   9.854  0.5392  0.2567  0.1546
  183MOL0     C25170   7.401   7.611   9.990 -0.3090  0.4703 -0.4429
  183MOL0     C25171   7.405   7.568  10.441  0.1152  0.3048 -0.6854
  183MOL0     C25172   7.409   7.697  10.499  0.1355 -0.5311 -0.2760
  183MOL0     C25173   7.414   7.715  10.638  0.4828 -0.4522 -0.2957
  183MOL0     C25174   7.411   7.600  10.725 -0.3118 -0.2089 -0.1392
  183MOL0     O25175   7.410   7.631  10.861 -0.0366  0.0938 -0.1848
  183MOL0     C25176   7.441   7.539  10.968 -0.0666 -0.4732 -0.2272
  183MOL0     C25177   7.513   7.618  11.072 -0.5494  0.3874  0.0654
  183MOL0     C25178   7.524   7.548  11.206  0.2696 -0.0808  0.6231
  183MOL0     C25179   7.594   7.410  11.203 -0.3427  0.2465  0.3095
  183MOL0     C25180   7.731   7.402  11.138  0.9491 -0.9228  0.0496
  183MOL0     C25181   7.840   7.386  11.097  0.4179 -0.0107  0.0030
  183MOL0     C25182   7.423   7.476  10.673  0.9286  0.0388 -0.2263
  183MOL0     C25183   7.413   7.459  10.534  0.5039  0.2916  0.3952
  183MOL0     C25184   7.399   7.316  10.486 -0.0271  0.3711 -0.4907
  183MOL0     H25185   7.200   7.836  10.139 -2.0793 -0.0209 -1.1614
  183MOL0     H25186   7.136   7.881   9.908 -0.1237 -0.4145 -1.6842
  183MOL0     H25187   7.035   7.815   9.743  1.9213  1.1097  1.7422
  183MOL0     H25188   7.046   7.682   9.634 -0.4143  0.3960  0.2085
  183MOL0     H25189   7.105   7.972   9.577  0.9148 -0.7081  0.5811
  183MOL0     H25190   7.182   7.858   9.474 -2.3844 -1.0300 -3.5436
  183MOL0     H25191   6.939   7.759   9.442  2.5657 -1.1367  1.8367
  183MOL0     H25192   6.876   7.899   9.511  0.7892  0.5238  0.3931
  183MOL0     H25193   7.002   8.052   9.362 -2.9244  0.7354  2.1487
  183MOL0     H25194   7.086   7.919   9.283 -0.1448  0.8905  0.1488
  183MOL0     H25195   6.901   8.038   9.174 -3.9329 -0.1204 -0.2984
  183MOL0     H25196   6.787   7.964   9.280 -2.2408  2.8657 -2.1595
  183MOL0     H25197   6.993   7.798   9.116  1.3565  4.7909 -1.3274
  183MOL0     H25198   6.861   7.735   9.217  0.0199  0.5546  0.3542
  183MOL0     H25199   6.842   7.892   8.946  0.8714 -0.7962 -0.1670
  183MOL0     H25200   6.701   7.888   9.042  0.1059  0.7336  0.3303
  183MOL0     H25201   6.868   7.652   8.926 -1.3424 -2.1338 -2.5768
  183MOL0     H25202   6.769   7.627   9.059  1.6404  2.0627  2.5346
  183MOL0     H25203   6.654   7.472   8.854  0.0599  0.9990  2.1239
  183MOL0     H25204   6.409   7.415   8.711 -1.5483  0.3774  0.2163
  183MOL0     H25205   6.336   7.563   8.635 -2.6025  0.4873  0.5214
  183MOL0     H25206   6.212   7.604   8.836  2.4320  1.6651  2.2387
  183MOL0     H25207   6.196   7.435   8.795 -0.6152 -0.6465  0.6995
  183MOL0     H25208   6.254   7.353   8.962  0.8300 -0.2801 -2.0799
  183MOL0     H25209   6.416   7.416   8.968  0.0779 -0.3240  1.2610
  183MOL0     H25210   6.176   7.536   9.095  0.8127  1.4079 -0.9245
  183MOL0     H25211   6.323   7.485   9.180 -1.5974 -0.6461  1.0381
  183MOL0     H25212   6.242   7.626   9.337 -1.4487  1.5289  1.1224
  183MOL0     H25213   6.129   7.718   9.527 -0.3476  0.2592  1.4848
  183MOL0     H25214   6.142   7.882   9.580 -3.8768 -1.5867  0.7860
  183MOL0     H25215   6.268   7.765   9.625  0.5147  1.4758 -0.2543
  183MOL0     H25216   6.299   8.272   9.604  1.7811 -2.1004 -2.8734
  183MOL0     H25217   6.342   8.474   9.743  1.1534 -0.7316  1.7740
  183MOL0     H25218   6.742   8.508   9.835  1.6083  0.6652  2.4486
  183MOL0     H25219   6.692   8.673   9.877 -0.4060  0.2426 -2.6478
  183MOL0     H25220   6.508   8.597  10.015 -2.3249 -2.4795  1.2438
  183MOL0     H25221   6.527   8.427   9.963  1.4946 -0.7576 -0.3175
  183MOL0     H25222   6.737   8.587  10.108 -0.6463  1.1680 -0.4291
  183MOL0     H25223   6.747   8.427  10.054  1.1358  0.0923  0.2631
  183MOL0     H25224   6.508   8.400  10.188 -0.3051 -0.8507  2.6582
  183MOL0     H25225   6.555   8.545  10.271 -0.8920 -0.1860 -0.6493
  183MOL0     H25226   6.712   8.279  10.263 -0.5830  0.3434 -0.7910
  183MOL0     H25227   6.770   8.427  10.333  1.5138 -2.3325 -1.0681
  183MOL0     H25228   6.487   8.311  10.394  1.0960 -0.4807  0.5471
  183MOL0     H25229   6.576   8.440  10.474  0.5211  1.1500 -2.9047
  183MOL0     H25230   6.741   8.276  10.562 -1.3760  1.5854  1.7886
  183MOL0     H25231   6.658   8.140  10.478 -2.5111 -2.2660  1.5236
  183MOL0     H25232   6.515   8.320  10.671  4.0907  1.1331 -0.0004
  183MOL0     H25233   6.591   8.170  10.727  2.8427 -0.5727 -1.1165
  183MOL0     H25234   6.738   8.492   9.574  0.2143 -1.7709 -1.3364
  183MOL0     H25235   6.698   8.310   9.438 -0.0576 -0.3677 -0.0344
  183MOL0     H25236   6.486   8.039   9.224  1.1449 -1.6402 -0.9758
  183MOL0     H25237   6.440   7.875   9.053 -0.1240  1.0791 -0.7373
  183MOL0     H25238   7.416   7.572   9.779  0.6192 -1.2802  1.3822
  183MOL0     H25239   7.480   7.545  10.026 -1.5022 -1.1685 -0.6827
  183MOL0     H25240   7.429   7.780  10.432 -1.1703  0.3005  0.3221
  183MOL0     H25241   7.419   7.818  10.672 -0.5287 -0.3674 -0.3938
  183MOL0     H25242   7.348   7.498  11.009 -0.6788 -0.9180 -1.9618
  183MOL0     H25243   7.497   7.449  10.942  0.0891 -0.0005 -1.5876
  183MOL0     H25244   7.461   7.710  11.100  0.4272  0.5883  1.2695
  183MOL0     H25245   7.618   7.642  11.055  0.4900 -3.4643  0.2233
  183MOL0     H25246   7.595   7.598  11.273 -1.0386 -0.8545  2.6755
  183MOL0     H25247   7.425   7.542  11.251  0.3386 -0.1007  0.7732
  183MOL0     H25248   7.525   7.344  11.151 -1.4577  0.7302  1.1488
  183MOL0     H25249   7.593   7.366  11.303  0.2892  2.4321  1.3436
  183MOL0     H25250   7.939   7.365  11.061  0.8575 -0.6964  1.4865
  183MOL0     H25251   7.431   7.385  10.732  3.5337  0.0844 -0.4003
  183MOL0     H25252   7.484   7.289  10.422 -0.5909  0.7935 -1.4325
  183MOL0     H25253   7.393   7.254  10.576 -0.7805 -1.0118 -1.4659
  183MOL0     H25254   7.304   7.300  10.435  0.9469  0.6920 -2.4856
  184MOL0     O25255   7.226   3.195   8.324 -0.6733  1.2159  0.2648
  184MOL0     C25256   7.200   3.107   8.235 -0.9429 -0.2018 -0.7572
  184MOL0     O25257   7.103   3.107   8.145 -0.0963 -0.1161  0.5999
  184MOL0     C25258   7.027   3.226   8.143  0.1443  0.9729  0.2390
  184MOL0     C25259   7.080   3.330   8.071  0.3628  0.6830  0.2697
  184MOL0     C25260   7.009   3.452   8.064 -0.0578 -0.3109  0.4946
  184MOL0     C25261   6.885   3.462   8.131 -0.5560 -0.0155 -0.5216
  184MOL0     O25262   6.816   3.585   8.133 -0.1537 -0.0639 -0.2751
  184MOL0     C25263   6.675   3.581   8.169  0.2176  0.1353  0.5991
  184MOL0     C25264   6.614   3.722   8.184 -0.2228  0.1085 -0.9893
  184MOL0     C25265   6.660   3.778   8.320  0.2787  0.4114  0.4575
  184MOL0     C25266   6.597   3.909   8.366  0.9991 -0.9545  0.1638
  184MOL0     C25267   6.640   3.958   8.507 -0.8472 -0.0373 -0.0579
  184MOL0     C25268   6.752   4.056   8.503 -1.0695  0.3132 -0.8171
  184MOL0     C25269   6.824   4.057   8.638  0.2476 -0.8952  0.2071
  184MOL0     C25270   6.739   4.129   8.737  0.4215 -0.2048  0.5131
  184MOL0     N25271   6.633   4.046   8.789  0.8961 -0.0390 -0.7863
  184MOL0     C25272   6.655   3.933   8.852  0.4494 -0.0962 -0.3280
  184MOL0     C25273   6.548   3.911   8.924 -0.2458  0.2350  0.6348
  184MOL0     C25274   6.522   3.786   9.013  0.2825  0.2179  0.3457
  184MOL0     C25275   6.540   3.810   9.165  0.3940  0.2386  0.2626
  184MOL0     C25276   6.684   3.840   9.197  0.3523 -0.9844  0.2572
  184MOL0     C25277   6.743   3.835   9.346 -0.3334 -0.4396  0.4069
  184MOL0     O25278   6.885   3.811   9.347  0.4085  1.1756 -0.8381
  184MOL0     C25279   6.952   3.772   9.465 -0.6929  0.4959 -0.4340
  184MOL0     C25280   6.898   3.766   9.595  0.2882  0.3913  0.3963
  184MOL0     C25281   6.972   3.752   9.710 -0.0994 -0.0660 -0.0758
  184MOL0     C25282   6.892   3.768   9.835 -0.0187 -0.6081  1.0870
  184MOL0     C25283   7.110   3.714   9.701 -0.6833  0.2494 -0.9670
  184MOL0     C25284   7.193   3.695   9.823 -0.5563 -0.4840 -0.3934
  184MOL0     O25285   7.313   3.624   9.802 -0.4446  0.4009  0.8512
  184MOL0     C25286   7.415   3.602   9.893  0.6589  0.1025 -0.3204
  184MOL0     C25287   7.410   3.636  10.025 -0.6352 -0.5425 -0.4531
  184MOL0     C25288   7.513   3.601  10.119 -0.6530  0.6893  0.0072
  184MOL0     C25289   7.624   3.524  10.069 -0.1641  0.1744  0.4599
  184MOL0     O25290   7.728   3.472  10.139  0.4906 -0.3398  0.2817
  184MOL0     C25291   7.682   3.392  10.246  0.3741 -0.4163 -0.3073
  184MOL0     C25292   7.769   3.266  10.259 -0.5169 -0.4718 -0.8164
  184MOL0     C25293   7.761   3.179  10.141 -0.2624  0.8193 -0.4937
  184MOL0     C25294   7.608   3.165  10.090 -0.9298  0.0452  0.2360
  184MOL0     C25295   7.585   3.057   9.988  0.1529 -0.0746  0.2880
  184MOL0     C25296   7.440   3.032   9.942 -0.0222  0.5035  0.1153
  184MOL0     C25297   7.439   2.985   9.796  0.7983 -0.0345  0.6805
  184MOL0     C25298   7.296   2.952   9.768  0.0023 -0.0181  0.0547
  184MOL0    Cl25299   7.294   2.870   9.603  0.4394 -0.0508  0.0010
  184MOL0     C25300   7.626   3.485   9.930  0.1158  0.0754  0.3276
  184MOL0     C25301   7.527   3.534   9.839 -0.6602 -0.5121  0.1704
  184MOL0     O25302   7.162   3.758   9.926  0.3839 -0.0532 -0.0425
  184MOL0     C25303   7.167   3.716   9.572  0.0911 -0.2029  0.9163
  184MOL0     C25304   7.090   3.749   9.459 -0.4253  0.3746  0.2135
  184MOL0     N25305   6.455   4.011   8.902  0.3728  0.6930 -0.3571
  184MOL0     N25306   6.511   4.097   8.825 -0.6571 -0.3340 -0.6612
  184MOL0     C25307   6.827   3.345   8.194 -0.6133 -0.5607  0.1434
  184MOL0     C25308   6.896   3.227   8.195 -0.4060 -0.0581 -0.1882
  184MOL0     C25309   7.300   3.001   8.234 -0.3490  0.2837  0.5293
  184MOL0     C25310   7.399   3.010   8.327  0.3551  0.8632  0.0003
  184MOL0     C25311   7.501   2.916   8.328 -0.9107  0.0102 -1.0149
  184MOL0     C25312   7.516   2.819   8.232  0.1685 -0.2006  0.7409
  184MOL0     O25313   7.631   2.743   8.233 -0.0134 -0.2215  0.1955
  184MOL0     C25314   7.718   2.771   8.119 -0.0852 -0.5743  0.5470
  184MOL0     C25315   7.776   2.644   8.062  0.4137  0.0296  0.5264
  184MOL0     C25316   7.701   2.594   7.935 -0.1196 -0.1079  0.9013
  184MOL0     C25317   7.770   2.483   7.862 -0.3560 -0.0365  0.7692
  184MOL0     C25318   7.699   2.461   7.734  0.5299  0.3040 -0.0712
  184MOL0     C25319   7.639   2.467   7.626 -0.7678  0.7270  0.2430
  184MOL0     C25320   7.415   2.806   8.128 -0.5939  0.1985 -1.3381
  184MOL0     C25321   7.301   2.892   8.139 -0.6640 -0.3019 -0.8840
  184MOL0     C25322   7.191   2.864   8.043 -0.1948  0.2259 -0.2529
  184MOL0     H25323   7.174   3.317   8.017 -0.4331 -0.5555 -0.8712
  184MOL0     H25324   7.052   3.537   8.011  2.2166 -1.4616  0.3739
  184MOL0     H25325   6.651   3.528   8.261  2.0744  2.4094  2.5250
  184MOL0     H25326   6.628   3.546   8.077  2.0470  2.6564 -1.4733
  184MOL0     H25327   6.621   3.789   8.098  0.8529  3.1198  1.2945
  184MOL0     H25328   6.509   3.698   8.201 -0.0973 -0.4272 -0.9501
  184MOL0     H25329   6.658   3.697   8.394 -0.9130 -0.1234 -0.1194
  184MOL0     H25330   6.766   3.803   8.315  0.2692  0.1724 -2.5706
  184MOL0     H25331   6.619   3.983   8.289  0.3496  0.1656  1.0117
  184MOL0     H25332   6.488   3.901   8.359  1.1295 -7.5953 -0.1338
  184MOL0     H25333   6.669   3.871   8.568  0.2035  0.1639 -0.2509
  184MOL0     H25334   6.546   4.003   8.542 -1.7574 -2.3651  0.6882
  184MOL0     H25335   6.833   4.031   8.433  1.5194 -0.3240  2.1580
  184MOL0     H25336   6.708   4.151   8.473 -1.4611  0.8693  1.3589
  184MOL0     H25337   6.915   4.117   8.632  0.2594 -0.8767  0.5664
  184MOL0     H25338   6.850   3.954   8.663  3.7300 -0.0294  0.6860
  184MOL0     H25339   6.793   4.168   8.824 -2.5363  1.3033  1.8223
  184MOL0     H25340   6.700   4.216   8.684  0.4322  1.0031  2.3864
  184MOL0     H25341   6.738   3.862   8.856  1.5559  1.1642 -0.0593
  184MOL0     H25342   6.600   3.710   8.997  1.4189  1.0731  1.5473
  184MOL0     H25343   6.420   3.753   8.993  1.5445 -4.2843  0.2220
  184MOL0     H25344   6.477   3.896   9.186 -1.0060 -0.0241 -2.4086
  184MOL0     H25345   6.508   3.731   9.234  2.4544  0.2259  1.2759
  184MOL0     H25346   6.752   3.781   9.134  0.9690 -0.1827  0.1636
  184MOL0     H25347   6.707   3.937   9.153 -0.0909 -1.6966 -1.6096
  184MOL0     H25348   6.716   3.922   9.407 -1.4931 -0.4443 -0.0796
  184MOL0     H25349   6.696   3.745   9.388  2.4024  0.3240  6.1085
  184MOL0     H25350   6.794   3.791   9.609 -0.4497 -2.8735  1.6010
  184MOL0     H25351   6.936   3.705   9.913 -1.0685  0.9133  3.0138
  184MOL0     H25352   6.787   3.739   9.830 -0.5487  1.3857 -0.9321
  184MOL0     H25353   6.898   3.866   9.884  0.0073 -0.6796  1.2286
  184MOL0     H25354   7.326   3.689  10.070  2.0879  3.5295  0.3881
  184MOL0     H25355   7.487   3.630  10.220  0.6977 -2.9321  1.5391
  184MOL0     H25356   7.688   3.443  10.342  5.2047  0.5889 -0.8888
  184MOL0     H25357   7.578   3.359  10.237  0.4259 -1.4370  2.0474
  184MOL0     H25358   7.874   3.292  10.279 -1.6364  2.5342  2.1826
  184MOL0     H25359   7.732   3.212  10.347  1.2451 -0.2659  0.1070
  184MOL0     H25360   7.810   3.085  10.168 -0.0354  0.8900 -0.6486
  184MOL0     H25361   7.829   3.223  10.067 -1.1138  4.4806  0.6906
  184MOL0     H25362   7.561   3.250  10.039 -0.8680 -2.3929 -4.5294
  184MOL0     H25363   7.549   3.150  10.180  0.7199  0.3658  1.4148
  184MOL0     H25364   7.646   3.088   9.903  0.6241 -1.8847 -0.0736
  184MOL0     H25365   7.632   2.965  10.024  0.3647  0.5502  1.6520
  184MOL0     H25366   7.384   3.125   9.958 -2.9427 -0.7899 -1.7625
  184MOL0     H25367   7.402   2.952  10.006  0.3656  0.0997 -0.1542
  184MOL0     H25368   7.491   2.890   9.781  0.1043 -0.2851 -0.2319
  184MOL0     H25369   7.471   3.065   9.728 -0.5436  1.9815  2.2740
  184MOL0     H25370   7.223   3.033   9.778 -0.1781 -0.3799  2.3746
  184MOL0     H25371   7.260   2.879   9.841 -3.0126  1.4058  0.1681
  184MOL0     H25372   7.715   3.428   9.906 -0.7228 -1.8327  1.4778
  184MOL0     H25373   7.544   3.527   9.732  3.0000 -2.8007  0.7605
  184MOL0     H25374   7.274   3.702   9.555 -0.2001 -0.5548 -0.9125
  184MOL0     H25375   7.140   3.743   9.363  2.7574 -0.6122  1.7841
  184MOL0     H25376   6.723   3.337   8.224 -1.4513  3.1027 -1.2085
  184MOL0     H25377   6.862   3.136   8.243  3.1340 -0.7988  1.2136
  184MOL0     H25378   7.404   3.082   8.409  0.8016 -1.6185  2.2949
  184MOL0     H25379   7.581   2.928   8.400 -0.5021  1.2184 -1.6365
  184MOL0     H25380   7.664   2.828   8.043  0.1119  0.8543  1.4552
  184MOL0     H25381   7.798   2.834   8.157  0.5432 -2.2414  2.1492
  184MOL0     H25382   7.768   2.576   8.147  3.6374 -1.2918 -0.0697
  184MOL0     H25383   7.878   2.676   8.039  1.1195 -0.0011  3.2471
  184MOL0     H25384   7.602   2.563   7.970  0.0801 -1.2186  0.5168
  184MOL0     H25385   7.670   2.674   7.867 -3.1443  0.5729  2.8611
  184MOL0     H25386   7.781   2.394   7.924  1.0771 -0.3309  0.1199
  184MOL0     H25387   7.873   2.511   7.842 -0.5429 -0.9418 -2.0026
  184MOL0     H25388   7.593   2.476   7.530 -0.9265  1.1467  0.3583
  184MOL0     H25389   7.411   2.716   8.068 -1.2090 -1.3748  0.9145
  184MOL0     H25390   7.094   2.857   8.093 -0.5803 -0.4441 -1.0679
  184MOL0     H25391   7.175   2.939   7.965 -0.3314 -1.4365 -1.9089
  184MOL0     H25392   7.216   2.775   7.984  0.0785  0.6791 -0.8249
  185MOL0     O25393   7.871  10.132   8.256 -0.0433  0.2403  0.3402
  185MOL0     C25394   7.777  10.170   8.189 -0.3833 -1.0584  0.1722
  185MOL0     O25395   7.645  10.176   8.234  0.1056  0.4002 -0.0856
  185MOL0     C25396   7.635  10.124   8.362 -0.2162  0.6006 -0.0606
  185MOL0     C25397   7.575   9.997   8.372  0.0927 -0.4375  0.5097
  185MOL0     C25398   7.565   9.925   8.494 -0.0751 -0.1092  0.2954
  185MOL0     C25399   7.592   9.999   8.611 -0.3114 -0.4216  0.8685
  185MOL0     O25400   7.575   9.929   8.725 -0.0208  0.6208  0.1566
  185MOL0     C25401   7.603   9.981   8.857 -0.3379 -0.8030 -0.2295
  185MOL0     C25402   7.585   9.869   8.959  0.0999 -1.1464  0.2120
  185MOL0     C25403   7.456   9.784   8.949  0.7978 -0.2326  0.3751
  185MOL0     C25404   7.431   9.689   9.067 -0.5432  0.6326 -0.6840
  185MOL0     C25405   7.349   9.760   9.176 -0.3783 -0.0559  0.1390
  185MOL0     C25406   7.199   9.762   9.145  0.1986 -0.3307 -0.3800
  185MOL0     C25407   7.128   9.647   9.223 -0.8712  0.5972  0.8573
  185MOL0     C25408   6.982   9.658   9.268  0.6300  0.1522 -0.4714
  185MOL0     N25409   6.958   9.769   9.369 -0.2685 -0.0319 -0.4377
  185MOL0     C25410   6.926   9.750   9.498  0.1446 -1.3371  0.7535
  185MOL0     C25411   6.871   9.874   9.524  0.9151 -0.8622  0.1237
  185MOL0     C25412   6.809   9.909   9.654  0.3794 -0.3563  0.5586
  185MOL0     C25413   6.673   9.847   9.683  0.4696 -0.5140 -0.1489
  185MOL0     C25414   6.612   9.911   9.814 -0.4703 -0.0137  0.5936
  185MOL0     C25415   6.472   9.855   9.833 -0.0645  0.1160 -1.5019
  185MOL0     O25416   6.437   9.882   9.970 -0.4527 -0.3845  0.9521
  185MOL0     C25417   6.359   9.783  10.029 -0.2718 -0.3907  0.2369
  185MOL0     C25418   6.265   9.827  10.114  0.3473  0.1948  0.4062
  185MOL0     C25419   6.172   9.734  10.173  0.5392 -0.1285 -1.2432
  185MOL0     C25420   6.061   9.791  10.258  0.4143  0.0722  0.1007
  185MOL0     C25421   6.193   9.589  10.158 -0.5441 -0.4863  0.3929
  185MOL0     C25422   6.127   9.481  10.240  0.2523  0.6000 -0.8131
  185MOL0     O25423   6.167   9.348  10.220 -0.9516  0.3252 -0.0227
  185MOL0     C25424   6.112   9.251  10.296  0.0064  0.2205  0.3214
  185MOL0     C25425   6.073   9.132  10.234  0.0190 -0.6249  0.3345
  185MOL0     C25426   6.018   9.028  10.310 -0.3483  0.9483 -0.2434
  185MOL0     C25427   6.009   9.042  10.447 -0.5059 -0.2403  0.5213
  185MOL0     O25428   5.970   8.939  10.535  0.5098  0.2147 -0.9403
  185MOL0     C25429   5.900   8.819  10.490  1.0557  0.8366 -0.0666
  185MOL0     C25430   6.006   8.709  10.446  0.0281 -0.4608 -0.8791
  185MOL0     C25431   6.097   8.664  10.561 -0.2817 -0.0470  0.5867
  185MOL0     C25432   6.177   8.530  10.537 -0.0196  0.0196  0.6961
  185MOL0     C25433   6.244   8.482  10.657 -0.6442  0.4945 -0.2284
  185MOL0     C25434   6.147   8.396  10.734 -0.7699 -0.1972 -0.5439
  185MOL0     C25435   6.219   8.321  10.847 -0.1184 -0.5023  0.6985
  185MOL0     C25436   6.164   8.323  10.980 -0.1080 -0.5138 -0.9677
  185MOL0    Cl25437   6.020   8.213  10.980  0.4436  0.2402 -0.7945
  185MOL0     C25438   6.065   9.151  10.508 -0.5922 -0.4644 -0.2298
  185MOL0     C25439   6.108   9.260  10.434 -0.5978 -0.0140  0.0570
  185MOL0     O25440   6.034   9.506  10.324  0.3663 -0.2554  0.7512
  185MOL0     C25441   6.300   9.551  10.072 -0.1467 -0.1809 -0.5605
  185MOL0     C25442   6.386   9.644  10.013  0.1796  0.2346 -0.0457
  185MOL0     N25443   6.869   9.960   9.418 -0.0772  0.2483  0.1188
  185MOL0     N25444   6.930   9.891   9.329 -0.4369 -0.8084  0.4102
  185MOL0     C25445   7.646  10.136   8.598 -0.6445  0.4103 -0.2600
  185MOL0     C25446   7.669  10.198   8.471  0.5876 -0.1605  0.6167
  185MOL0     C25447   7.817  10.214   8.053 -0.6915 -0.3180  0.5776
  185MOL0     C25448   7.962  10.246   8.032  0.3549 -0.4059 -0.2547
  185MOL0     C25449   8.012  10.279   7.904 -0.7713  0.1674  0.1019
  185MOL0     C25450   7.926  10.280   7.802 -0.2992 -0.1066 -0.5675
  185MOL0     O25451   7.992  10.305   7.683 -0.1392  0.3881  0.0124
  185MOL0     C25452   7.923  10.278   7.563 -0.4910  0.2306 -0.0344
  185MOL0     C25453   8.023  10.286   7.453 -0.3545  0.3169  0.0253
  185MOL0     C25454   8.116  10.162   7.464 -0.6758  0.5182 -0.1896
  185MOL0     C25455   8.226  10.166   7.352 -0.9075 -0.3716  1.0039
  185MOL0     C25456   8.180  10.106   7.227 -0.0683  0.8335  0.0389
  185MOL0     C25457   8.138  10.040   7.131  0.0816 -0.1135  0.3965
  185MOL0     C25458   7.793  10.268   7.824 -0.5287  0.5437 -0.6962
  185MOL0     C25459   7.731  10.235   7.946  0.1475  0.3649 -0.4472
  185MOL0     C25460   7.582  10.216   7.942  0.3347 -0.1399  0.5389
  185MOL0     H25461   7.545   9.945   8.281 -0.4776  1.9521 -0.7528
  185MOL0     H25462   7.564   9.817   8.500 -0.3974 -0.2062 -1.2018
  185MOL0     H25463   7.532  10.062   8.877 -1.8980 -1.9602 -0.8779
  185MOL0     H25464   7.707  10.012   8.868 -1.3039  2.9179 -0.2553
  185MOL0     H25465   7.675   9.807   8.950 -0.6671 -2.4345  1.0442
  185MOL0     H25466   7.590   9.918   9.057  0.3865  1.5362 -1.0588
  185MOL0     H25467   7.378   9.861   8.941  0.6779 -0.0595  2.5162
  185MOL0     H25468   7.449   9.726   8.857  0.0634  2.3536 -1.3183
  185MOL0     H25469   7.383   9.595   9.041  1.5222 -0.1529 -1.8619
  185MOL0     H25470   7.528   9.664   9.113  1.4750  3.3068 -3.1374
  185MOL0     H25471   7.369   9.867   9.185 -0.8002 -0.1275  2.7822
  185MOL0     H25472   7.380   9.720   9.273  4.9336 -0.8005 -1.5375
  185MOL0     H25473   7.169   9.857   9.190  1.4891  0.0577 -0.2761
  185MOL0     H25474   7.167   9.767   9.041 -4.1304 -2.4033  0.6603
  185MOL0     H25475   7.189   9.627   9.312 -0.3852 -1.3337  0.1400
  185MOL0     H25476   7.129   9.556   9.163  0.6476  1.5472 -0.6655
  185MOL0     H25477   6.915   9.658   9.182  0.9255 -0.9341 -0.7165
  185MOL0     H25478   6.956   9.566   9.322 -1.0757 -0.3176 -1.9925
  185MOL0     H25479   6.935   9.664   9.563  1.4521 -1.4103  0.5091
  185MOL0     H25480   6.819  10.016   9.673  1.7599 -0.5355  0.9656
  185MOL0     H25481   6.869   9.866   9.735 -1.0509 -0.0050  1.8567
  185MOL0     H25482   6.618   9.861   9.589  1.1407  2.7315 -0.1747
  185MOL0     H25483   6.694   9.740   9.690 -1.4514 -0.9917 -0.9996
  185MOL0     H25484   6.681   9.895   9.898  0.4778  0.0511 -0.1442
  185MOL0     H25485   6.583  10.016   9.805 -1.9361 -0.4782 -0.6350
  185MOL0     H25486   6.396   9.897   9.767 -0.1395 -0.3475 -1.7185
  185MOL0     H25487   6.481   9.751   9.798  2.5554  0.9930 -3.8933
  185MOL0     H25488   6.251   9.934  10.123  0.2655  0.1214  1.2178
  185MOL0     H25489   5.964   9.787  10.208  1.0854 -0.1222 -1.2372
  185MOL0     H25490   6.077   9.897  10.278 -2.9347  0.5127  0.9279
  185MOL0     H25491   6.049   9.747  10.357  1.8454 -0.0483  0.2533
  185MOL0     H25492   6.077   9.118  10.127 -0.3976 -1.6617  0.4327
  185MOL0     H25493   5.980   8.937  10.267  1.0036 -2.9038  5.5859
  185MOL0     H25494   5.834   8.776  10.566  1.7005 -0.2907 -0.1279
  185MOL0     H25495   5.835   8.854  10.410  3.4633  0.7701 -2.2055
  185MOL0     H25496   5.949   8.616  10.432 -1.1649  0.3835 -1.7764
  185MOL0     H25497   6.057   8.746  10.357 -1.7649  3.2610 -0.5443
  185MOL0     H25498   6.035   8.649  10.650 -1.5311 -0.7155 -0.3584
  185MOL0     H25499   6.168   8.744  10.583 -1.2470  1.1744 -0.5339
  185MOL0     H25500   6.250   8.561  10.461  0.2632 -0.8767  0.5882
  185MOL0     H25501   6.114   8.458  10.484 -0.4095  0.8007  0.0781
  185MOL0     H25502   6.328   8.418  10.628  0.1835  0.3813  2.2093
  185MOL0     H25503   6.286   8.560  10.720 -1.2644 -0.0083  0.8251
  185MOL0     H25504   6.100   8.320  10.671 -4.2120  0.2235  1.2531
  185MOL0     H25505   6.068   8.461  10.774 -0.5895 -0.4871  0.3128
  185MOL0     H25506   6.323   8.349  10.867 -0.9728  2.4026  1.5004
  185MOL0     H25507   6.218   8.214  10.825 -4.2711 -0.8419  1.6759
  185MOL0     H25508   6.139   8.423  11.016  1.6856 -0.5924  0.6883
  185MOL0     H25509   6.244   8.293  11.049 -0.9957 -0.3841  0.1461
  185MOL0     H25510   6.066   9.169  10.615  0.3075  1.4676 -0.5206
  185MOL0     H25511   6.153   9.342  10.489  1.6686 -1.7068  0.8975
  185MOL0     H25512   6.327   9.447  10.054  1.8263  0.5475 -2.1459
  185MOL0     H25513   6.469   9.604   9.955  0.7122 -2.5360  2.4278
  185MOL0     H25514   7.676  10.169   8.697  0.0812 -1.7174  0.2814
  185MOL0     H25515   7.719  10.293   8.453  1.5744 -1.2656 -3.5559
  185MOL0     H25516   8.027  10.240   8.120 -0.1373  0.4989  0.1846
  185MOL0     H25517   8.120  10.284   7.902 -0.6321 -1.4174  1.3625
  185MOL0     H25518   7.874  10.180   7.565  0.4685 -0.2467  0.6171
  185MOL0     H25519   7.850  10.357   7.541 -0.0088  0.0731 -2.4533
  185MOL0     H25520   8.089  10.372   7.468  2.0117 -1.4067  0.0536
  185MOL0     H25521   7.975  10.285   7.355 -0.3385  0.4566  0.0163
  185MOL0     H25522   8.156  10.167   7.566 -0.2369 -0.3040 -0.3174
  185MOL0     H25523   8.069  10.064   7.463 -4.4818  2.1642  0.6974
  185MOL0     H25524   8.303  10.097   7.389 -0.0247  0.4178  0.6651
  185MOL0     H25525   8.271  10.263   7.330 -0.3880 -1.2085 -2.0764
  185MOL0     H25526   8.094   9.991   7.046 -0.0611  2.2579 -0.9910
  185MOL0     H25527   7.735  10.278   7.733  0.0836 -0.2342 -1.1851
  185MOL0     H25528   7.542  10.239   7.843  3.0820 -0.2668 -0.7015
  185MOL0     H25529   7.556  10.117   7.979 -3.4062  1.4283  2.6961
  185MOL0     H25530   7.541  10.278   8.023 -2.3896  1.6276 -1.9804
  186MOL0     O25531   1.991   8.098   5.124  1.0992  0.2435 -0.2879
  186MOL0     C25532   1.987   8.127   5.241  0.0503 -0.1047  0.6069
  186MOL0     O25533   2.069   8.215   5.303 -0.8572  0.5006 -0.2503
  186MOL0     C25534   2.153   8.281   5.228 -0.9567 -0.0581 -0.0907
  186MOL0     C25535   2.127   8.416   5.197  0.6846 -0.3867 -0.0754
  186MOL0     C25536   2.223   8.499   5.135 -0.0351  0.0709  0.9425
  186MOL0     C25537   2.342   8.440   5.108 -0.5821  0.0219 -0.0421
  186MOL0     O25538   2.446   8.519   5.049 -0.8351  0.0811 -0.8557
  186MOL0     C25539   2.459   8.661   5.050  0.7439  0.0625  0.1396
  186MOL0     C25540   2.609   8.692   5.067 -1.1364 -0.1590 -0.3115
  186MOL0     C25541   2.648   8.839   5.072 -0.1798 -1.0121 -0.0824
  186MOL0     C25542   2.566   8.915   5.180 -0.7907  0.1697 -0.0704
  186MOL0     C25543   2.619   9.061   5.203 -0.8552 -0.2221 -0.1280
  186MOL0     C25544   2.565   9.118   5.327  0.3594 -0.6192  0.6809
  186MOL0     C25545   2.598   9.264   5.343 -0.1173 -0.0673  0.1333
  186MOL0     C25546   2.741   9.280   5.391 -0.0924 -0.5804  0.7137
  186MOL0     N25547   2.757   9.281   5.537 -0.9268  0.0286  0.1671
  186MOL0     C25548   2.746   9.174   5.617  0.2047  0.6287 -0.5000
  186MOL0     C25549   2.746   9.227   5.745 -0.4681  0.3302 -0.4343
  186MOL0     C25550   2.723   9.159   5.879  0.1849 -0.1268 -0.0493
  186MOL0     C25551   2.837   9.060   5.900 -0.1116 -0.8415  0.1165
  186MOL0     C25552   2.800   8.976   6.017 -0.3892  0.2851  0.4434
  186MOL0     C25553   2.884   8.856   6.027 -0.4620 -0.3261  0.3635
  186MOL0     O25554   3.020   8.896   6.052 -0.0005  0.0543 -0.6439
  186MOL0     C25555   3.081   8.807   6.141 -0.3691 -0.2203 -0.4543
  186MOL0     C25556   3.145   8.857   6.255  0.1615 -0.0682 -0.1534
  186MOL0     C25557   3.219   8.770   6.333  0.5645  0.1135 -0.3686
  186MOL0     C25558   3.278   8.841   6.452  0.7486  0.2580  0.2656
  186MOL0     C25559   3.236   8.630   6.297 -0.4243  0.7504  0.0017
  186MOL0     C25560   3.324   8.529   6.364 -0.2616 -0.2712  0.4812
  186MOL0     O25561   3.380   8.551   6.485 -0.5270  0.2088  0.1240
  186MOL0     C25562   3.465   8.453   6.534  0.1975 -0.5303  0.3346
  186MOL0     C25563   3.590   8.433   6.490 -0.1576 -0.0217 -0.7348
  186MOL0     C25564   3.680   8.339   6.554  0.8580 -0.8436 -0.5097
  186MOL0     C25565   3.632   8.254   6.652  0.3987  0.5442  0.2786
  186MOL0     O25566   3.717   8.163   6.714 -0.1693 -0.2837  0.0954
  186MOL0     C25567   3.717   8.026   6.668 -0.0277 -0.5732 -0.7484
  186MOL0     C25568   3.802   7.948   6.773 -0.0037 -0.1593 -0.2338
  186MOL0     C25569   3.942   8.012   6.805 -0.1470 -0.4880  0.3208
  186MOL0     C25570   4.044   7.928   6.880 -0.1134  0.0622 -0.5280
  186MOL0     C25571   4.153   8.033   6.940 -0.4197  0.3767  0.0320
  186MOL0     C25572   4.276   7.963   7.001  0.5256 -0.7090  0.7212
  186MOL0     C25573   4.402   8.026   6.973  0.2147 -0.9207  0.5440
  186MOL0     C25574   4.515   7.974   7.060 -0.1024  0.7974 -0.7324
  186MOL0    Cl25575   4.574   7.809   7.028  0.3542  0.3622  0.0632
  186MOL0     C25576   3.494   8.253   6.684 -0.5917  0.4495 -0.1891
  186MOL0     C25577   3.416   8.366   6.639 -0.2103  0.2015 -0.4098
  186MOL0     O25578   3.348   8.429   6.296  0.3455 -0.1840 -0.1823
  186MOL0     C25579   3.170   8.585   6.177  0.1284 -0.2494 -0.1088
  186MOL0     C25580   3.097   8.675   6.101 -0.0594  0.0424 -0.4819
  186MOL0     N25581   2.771   9.364   5.732 -0.0342  0.4191 -0.5295
  186MOL0     N25582   2.788   9.390   5.613 -1.0860 -1.0755  0.5600
  186MOL0     C25583   2.365   8.306   5.127 -0.1539 -0.2426  0.9441
  186MOL0     C25584   2.276   8.221   5.188  0.9371 -0.5271  0.7447
  186MOL0     C25585   1.900   8.042   5.315 -0.0300 -0.5883  0.5810
  186MOL0     C25586   1.956   7.952   5.406  0.1744  0.0366  0.1749
  186MOL0     C25587   1.868   7.877   5.477  0.3297 -0.1947 -0.7815
  186MOL0     C25588   1.726   7.877   5.469 -0.3210 -0.1541 -0.5576
  186MOL0     O25589   1.655   7.787   5.544 -0.2687  0.4620 -0.0378
  186MOL0     C25590   1.548   7.718   5.475 -0.6514  0.6124 -0.2448
  186MOL0     C25591   1.603   7.607   5.395  1.2883  0.2535 -0.6057
  186MOL0     C25592   1.579   7.465   5.454  0.0736 -0.3546 -0.0751
  186MOL0     C25593   1.646   7.442   5.596  0.6865  0.4632 -0.0486
  186MOL0     C25594   1.571   7.466   5.724  0.3699  0.4095  0.0947
  186MOL0     C25595   1.501   7.474   5.822  0.5087 -0.0493 -0.1945
  186MOL0     C25596   1.675   7.969   5.377  0.1681 -0.2488  0.8960
  186MOL0     C25597   1.761   8.053   5.300  0.4684 -0.4443 -0.4391
  186MOL0     C25598   1.690   8.169   5.237 -0.8400  0.5596 -0.1337
  186MOL0     H25599   2.026   8.454   5.216 -1.2612 -2.7674 -4.2674
  186MOL0     H25600   2.215   8.607   5.127 -1.5472 -0.0807  0.0589
  186MOL0     H25601   2.405   8.705   5.135  0.8496  3.0106 -1.1995
  186MOL0     H25602   2.432   8.707   4.955  4.1245  1.1799 -0.4245
  186MOL0     H25603   2.665   8.649   5.150  0.5419  1.4784 -0.5354
  186MOL0     H25604   2.664   8.646   4.984 -1.1582 -0.4359 -0.1720
  186MOL0     H25605   2.756   8.851   5.077 -0.1806  0.3411 -2.3713
  186MOL0     H25606   2.620   8.882   4.976  2.1718  2.4062  0.5764
  186MOL0     H25607   2.457   8.918   5.164 -1.1587 -1.0908  1.9548
  186MOL0     H25608   2.582   8.862   5.274 -0.4818 -2.3622 -1.4691
  186MOL0     H25609   2.604   9.114   5.109 -1.5970 -2.8049 -1.5506
  186MOL0     H25610   2.728   9.054   5.213 -0.7612  1.5074  0.5113
  186MOL0     H25611   2.456   9.123   5.320  0.4702  1.0759 -0.2794
  186MOL0     H25612   2.593   9.053   5.410 -0.7321 -1.6285  0.2876
  186MOL0     H25613   2.532   9.312   5.416  0.0882 -1.3406  1.2025
  186MOL0     H25614   2.601   9.311   5.244 -0.3779 -1.9898 -0.8416
  186MOL0     H25615   2.814   9.219   5.337 -0.7325 -0.5251 -0.2403
  186MOL0     H25616   2.769   9.383   5.365 -1.2273 -0.5330 -0.4027
  186MOL0     H25617   2.737   9.069   5.589 -1.7181  0.9279 -1.1417
  186MOL0     H25618   2.631   9.100   5.878  1.2111 -1.8971  1.6478
  186MOL0     H25619   2.713   9.231   5.960  1.0750 -0.2375  0.1739
  186MOL0     H25620   2.865   8.996   5.815  3.1130 -3.0126  2.5821
  186MOL0     H25621   2.927   9.116   5.926 -0.4617 -1.1315  2.0808
  186MOL0     H25622   2.796   9.040   6.105 -1.6570  0.3006  0.3980
  186MOL0     H25623   2.695   8.944   6.018  0.5948 -3.5172  3.4506
  186MOL0     H25624   2.838   8.792   6.103 -2.5535  0.5627 -0.0995
  186MOL0     H25625   2.867   8.814   5.927  0.9184  1.5610 -0.7125
  186MOL0     H25626   3.124   8.962   6.275  0.7486 -0.2464  1.5460
  186MOL0     H25627   3.382   8.816   6.475  0.1452 -0.1889  2.8517
  186MOL0     H25628   3.217   8.826   6.541 -0.0578  0.6835 -0.2087
  186MOL0     H25629   3.278   8.948   6.432  1.9837  0.8822  3.1149
  186MOL0     H25630   3.619   8.498   6.407  1.5254  1.2137  0.7434
  186MOL0     H25631   3.785   8.336   6.527  0.3796  0.4483 -2.7781
  186MOL0     H25632   3.618   7.978   6.667  0.5804 -1.9228  0.4305
  186MOL0     H25633   3.758   8.016   6.567 -2.3152  2.0136 -2.0637
  186MOL0     H25634   3.742   7.936   6.863  0.2773 -0.2920 -0.0621
  186MOL0     H25635   3.819   7.850   6.727  0.4154  1.5096 -4.0283
  186MOL0     H25636   3.940   8.114   6.845  0.5061 -0.2546 -0.2269
  186MOL0     H25637   3.992   8.039   6.711  1.0562 -0.8764  0.8206
  186MOL0     H25638   4.085   7.846   6.820 -2.8670 -1.8750  0.0776
  186MOL0     H25639   3.991   7.882   6.963 -1.5225 -0.3875 -1.6374
  186MOL0     H25640   4.179   8.099   6.856  0.2606  0.3925  0.2446
  186MOL0     H25641   4.103   8.086   7.021 -1.9538 -0.8542 -0.0640
  186MOL0     H25642   4.287   7.861   6.964  3.7771  0.1533 -1.1449
  186MOL0     H25643   4.259   7.958   7.109  2.3997 -0.1584  1.0860
  186MOL0     H25644   4.390   8.130   7.002  2.2783  0.4946 -3.0804
  186MOL0     H25645   4.428   8.026   6.867 -0.3954  1.7551  0.3305
  186MOL0     H25646   4.474   7.972   7.162  0.4721 -0.7499 -0.5050
  186MOL0     H25647   4.603   8.038   7.057 -1.6865  3.3372  1.9025
  186MOL0     H25648   3.449   8.187   6.758 -0.4142  1.1002  0.5139
  186MOL0     H25649   3.315   8.367   6.677 -0.3048 -1.9128 -0.4848
  186MOL0     H25650   3.161   8.482   6.144 -1.8137  0.0748 -0.7625
  186MOL0     H25651   3.045   8.622   6.022  2.7875 -0.3746 -2.2135
  186MOL0     H25652   2.455   8.258   5.090 -1.0958 -1.4258  0.1143
  186MOL0     H25653   2.293   8.118   5.217  1.4366 -0.6434  0.0925
  186MOL0     H25654   2.064   7.958   5.416  0.6420 -2.4826 -2.0726
  186MOL0     H25655   1.905   7.809   5.554  1.3226 -2.0832 -2.8153
  186MOL0     H25656   1.476   7.680   5.549 -0.3447 -0.3927 -0.4564
  186MOL0     H25657   1.484   7.788   5.419  0.9829  2.5332  0.1613
  186MOL0     H25658   1.707   7.626   5.367  2.2006  1.6751  3.1063
  186MOL0     H25659   1.545   7.610   5.302  1.3014 -1.8638 -0.7277
  186MOL0     H25660   1.472   7.443   5.463  0.3057 -2.1047 -1.1178
  186MOL0     H25661   1.620   7.390   5.386 -1.6731  1.3519 -3.2893
  186MOL0     H25662   1.741   7.495   5.605 -1.6601  4.8546  1.7255
  186MOL0     H25663   1.668   7.335   5.599  0.4166  0.4238  0.9876
  186MOL0     H25664   1.441   7.486   5.910 -1.6257  2.9456 -1.8792
  186MOL0     H25665   1.569   7.982   5.360  0.0498 -0.0931  1.6923
  186MOL0     H25666   1.701   8.160   5.129  1.6579  2.6907 -0.1633
  186MOL0     H25667   1.593   8.180   5.285  0.3699 -1.3238  3.1106
  186MOL0     H25668   1.741   8.266   5.246  1.7820 -0.4911 -2.1343
  187MOL0     O25669   9.335   7.653   1.404 -0.1649  0.3378 -0.7072
  187MOL0     C25670   9.283   7.705   1.502  0.4523 -0.1484  0.3119
  187MOL0     O25671   9.315   7.675   1.634  0.6299 -0.7583 -0.0067
  187MOL0     C25672   9.417   7.591   1.664 -0.0036  0.0654 -0.4976
  187MOL0     C25673   9.399   7.504   1.774 -0.0624  0.2074 -0.0314
  187MOL0     C25674   9.508   7.428   1.820 -0.0613  0.3074 -0.5293
  187MOL0     C25675   9.637   7.452   1.773  0.0636 -0.1422  0.6005
  187MOL0     O25676   9.739   7.379   1.833  0.5806  0.0681 -0.7178
  187MOL0     C25677   9.836   7.479   1.888  0.1446  0.4635 -0.0240
  187MOL0     C25678   9.945   7.398   1.949  0.4544  0.1969 -0.0035
  187MOL0     C25679  10.053   7.486   2.025  0.5984  0.4980 -0.6203
  187MOL0     C25680  10.154   7.396   2.104  0.6596  0.0566  0.8958
  187MOL0     C25681  10.271   7.472   2.168  0.4793 -0.2896 -0.2936
  187MOL0     C25682  10.378   7.371   2.205 -0.0510 -0.1896  0.9234
  187MOL0     C25683  10.509   7.424   2.286  0.9773  0.9407  0.3960
  187MOL0     C25684  10.472   7.487   2.419 -0.3149 -0.0046 -0.1923
  187MOL0     N25685  10.599   7.515   2.491  0.6344 -0.7391 -0.1205
  187MOL0     C25686  10.636   7.466   2.614  0.2489 -0.4140 -0.8028
  187MOL0     C25687  10.767   7.503   2.631  0.3413 -0.9714  0.8984
  187MOL0     C25688  10.841   7.480   2.759 -0.9792 -0.5666 -0.1403
  187MOL0     C25689  10.964   7.393   2.724  0.4806  0.4874  0.4611
  187MOL0     C25690  10.932   7.249   2.659  0.4374  0.6394 -0.2259
  187MOL0     C25691  10.853   7.158   2.748 -0.0927  0.1925 -0.6288
  187MOL0     O25692  10.713   7.179   2.740  0.0450 -0.6407 -0.0418
  187MOL0     C25693  10.642   7.070   2.692 -0.2481 -0.1761 -1.1217
  187MOL0     C25694  10.590   7.081   2.573 -0.1132 -0.4135  0.6862
  187MOL0     C25695  10.509   6.991   2.507  0.6630 -0.0816 -1.2659
  187MOL0     C25696  10.466   7.022   2.369  0.5306  0.3328  0.5783
  187MOL0     C25697  10.485   6.870   2.583 -0.7058  0.0377 -0.3497
  187MOL0     C25698  10.402   6.758   2.530  0.3637 -0.0434 -0.0640
  187MOL0     O25699  10.376   6.649   2.610 -0.8302  0.9361 -0.6892
  187MOL0     C25700  10.340   6.526   2.551  0.0421  0.1629 -0.8742
  187MOL0     C25701  10.401   6.458   2.440 -0.2203 -0.2692  0.1254
  187MOL0     C25702  10.357   6.337   2.397 -0.9785 -0.1124  0.5845
  187MOL0     C25703  10.266   6.265   2.470  0.6292  0.8902 -0.7456
  187MOL0     O25704  10.222   6.137   2.432 -0.4362 -0.7081  0.8260
  187MOL0     C25705  10.287   6.080   2.323  0.8137  1.6077 -0.8672
  187MOL0     C25706  10.248   5.922   2.313  0.0506 -0.3989  0.5793
  187MOL0     C25707  10.097   5.899   2.334  0.2424 -0.5985 -0.1238
  187MOL0     C25708  10.002   5.956   2.235  1.1772  0.3403 -0.4119
  187MOL0     C25709   9.854   5.923   2.271 -0.1305 -0.0701 -0.3859
  187MOL0     C25710   9.821   5.775   2.257  0.1034 -0.3176  0.1784
  187MOL0     C25711   9.695   5.737   2.345  0.4152  0.4397  0.3536
  187MOL0     C25712   9.591   5.650   2.271  0.2486  0.5830  0.8474
  187MOL0    Cl25713   9.429   5.648   2.364 -0.1814  0.3397  0.3015
  187MOL0     C25714  10.205   6.320   2.591 -0.4040 -0.0865 -0.1289
  187MOL0     C25715  10.239   6.454   2.627 -0.3855  0.5850  0.3754
  187MOL0     O25716  10.346   6.768   2.421 -0.0335  0.6917  0.3944
  187MOL0     C25717  10.535   6.858   2.717 -0.3000 -0.0426 -0.7712
  187MOL0     C25718  10.626   6.956   2.758  0.0667  0.1268 -0.4642
  187MOL0     N25719  10.804   7.580   2.517  0.2370 -0.1003 -0.0499
  187MOL0     N25720  10.706   7.576   2.433 -0.8122 -0.5919 -0.1928
  187MOL0     C25721   9.656   7.529   1.661  0.5580  0.2609 -0.2923
  187MOL0     C25722   9.546   7.608   1.618 -0.5434  1.5984 -0.3343
  187MOL0     C25723   9.153   7.784   1.476 -0.2214  0.5577 -0.6232
  187MOL0     C25724   9.096   7.840   1.593  0.1571 -0.7194  0.4406
  187MOL0     C25725   8.986   7.924   1.580 -0.3908  0.0278 -0.5702
  187MOL0     C25726   8.922   7.947   1.459 -0.1820 -0.4027  0.0912
  187MOL0     O25727   8.802   8.012   1.431 -0.5289 -0.1981 -1.0010
  187MOL0     C25728   8.728   8.044   1.548 -0.2604  0.8467  0.1101
  187MOL0     C25729   8.585   8.075   1.503  0.1768  0.5136  0.2690
  187MOL0     C25730   8.577   8.216   1.430 -0.0549  0.5355 -0.2101
  187MOL0     C25731   8.446   8.214   1.354  0.5874 -0.1178  0.2246
  187MOL0     C25732   8.324   8.232   1.434  0.4990  0.6400  0.7912
  187MOL0     C25733   8.219   8.235   1.493  0.0588  0.4735 -1.0958
  187MOL0     C25734   8.988   7.906   1.343  0.6901 -0.3816 -0.4087
  187MOL0     C25735   9.095   7.821   1.350  0.0265 -0.4284 -0.3299
  187MOL0     C25736   9.138   7.776   1.211 -0.0909 -0.0744  0.2637
  187MOL0     H25737   9.295   7.482   1.798 -0.1040  0.8265  0.3824
  187MOL0     H25738   9.505   7.350   1.896  2.2715 -0.6383 -1.3144
  187MOL0     H25739   9.787   7.529   1.973 -0.3711 -0.4435  0.2220
  187MOL0     H25740   9.873   7.543   1.807 -0.8445  0.2120 -0.6935
  187MOL0     H25741   9.898   7.330   2.020  0.2476 -1.2330 -1.4550
  187MOL0     H25742   9.996   7.342   1.869 -0.1602  0.9993 -0.9737
  187MOL0     H25743  10.097   7.552   1.950 -2.6447  3.2147 -0.3606
  187MOL0     H25744  10.003   7.546   2.101 -3.5558 -0.0558 -2.6539
  187MOL0     H25745  10.103   7.331   2.175 -1.0455 -1.4524 -1.5606
  187MOL0     H25746  10.185   7.328   2.025 -1.8439 -2.3666  1.8420
  187MOL0     H25747  10.242   7.541   2.248 -2.4596 -2.6125  0.8461
  187MOL0     H25748  10.318   7.528   2.087 -2.2254  1.4406 -0.8221
  187MOL0     H25749  10.329   7.288   2.257  1.0735 -2.3619 -1.2840
  187MOL0     H25750  10.421   7.330   2.113  1.3475  0.4394  1.2723
  187MOL0     H25751  10.570   7.498   2.233  2.7401 -0.8927 -0.2900
  187MOL0     H25752  10.576   7.338   2.296 -0.4328 -0.3857 -1.0024
  187MOL0     H25753  10.402   7.570   2.403 -0.6703  0.2027  2.0706
  187MOL0     H25754  10.411   7.420   2.480 -1.3200  0.9531 -0.1156
  187MOL0     H25755  10.576   7.407   2.683 -1.6995 -0.5029 -2.4734
  187MOL0     H25756  10.777   7.449   2.843 -1.8282  1.9480  0.2147
  187MOL0     H25757  10.890   7.568   2.803  0.6635 -1.1476 -0.7163
  187MOL0     H25758  11.018   7.442   2.642  0.3053 -1.7035 -1.0522
  187MOL0     H25759  11.030   7.385   2.811  3.6702  2.2137 -1.5875
  187MOL0     H25760  10.874   7.255   2.566 -0.3044  1.1930  0.2565
  187MOL0     H25761  11.027   7.198   2.641 -0.4695 -1.2796  0.1953
  187MOL0     H25762  10.877   7.054   2.726 -1.4682  0.6020 -4.9350
  187MOL0     H25763  10.870   7.189   2.852 -2.4825  1.7586 -0.6277
  187MOL0     H25764  10.631   7.172   2.530  2.1252 -1.0188  1.4197
  187MOL0     H25765  10.358   7.008   2.364  0.8460 -2.1678 -0.9255
  187MOL0     H25766  10.512   6.953   2.297 -0.6139 -0.2710  0.4011
  187MOL0     H25767  10.500   7.124   2.349  1.1994  0.9091  3.9807
  187MOL0     H25768  10.490   6.509   2.403  0.6494 -1.0249  1.1054
  187MOL0     H25769  10.403   6.294   2.308  1.0913  0.2459  1.4092
  187MOL0     H25770  10.268   6.138   2.232  1.4563  2.8459 -0.2344
  187MOL0     H25771  10.393   6.079   2.349  0.4726 -1.0952  0.8120
  187MOL0     H25772  10.280   5.892   2.213 -0.1601  0.3173  0.2867
  187MOL0     H25773  10.307   5.865   2.385 -0.4389  1.4597  2.5618
  187MOL0     H25774  10.072   5.937   2.434  2.1862 -1.1119  0.6051
  187MOL0     H25775  10.087   5.790   2.341 -0.5272 -0.6062 -1.0717
  187MOL0     H25776  10.014   5.916   2.134  1.0256 -2.6315  0.6514
  187MOL0     H25777  10.022   6.064   2.230  2.7317  0.0637 -4.0421
  187MOL0     H25778   9.839   5.967   2.370  2.1258  0.7568 -0.3685
  187MOL0     H25779   9.789   5.981   2.205  0.9442  3.5957  1.5165
  187MOL0     H25780   9.903   5.706   2.283  0.0734 -0.8831 -1.1642
  187MOL0     H25781   9.786   5.753   2.156 -0.6543  0.9051  0.1562
  187MOL0     H25782   9.633   5.825   2.364 -0.9518  0.0939 -2.0575
  187MOL0     H25783   9.733   5.684   2.434  0.0019 -2.8428 -1.2606
  187MOL0     H25784   9.629   5.548   2.254  2.0424  1.0818  1.6355
  187MOL0     H25785   9.580   5.672   2.164 -1.7166 -4.4188 -0.2628
  187MOL0     H25786  10.121   6.270   2.639  0.2021 -1.0134 -0.0015
  187MOL0     H25787  10.171   6.510   2.691 -1.1026  0.8776 -0.6217
  187MOL0     H25788  10.526   6.769   2.778  2.2813  0.7912  1.0054
  187MOL0     H25789  10.664   6.960   2.860  2.3727  1.8801 -1.3261
  187MOL0     H25790   9.753   7.546   1.614  0.5567  1.5268  0.1045
  187MOL0     H25791   9.569   7.671   1.532 -1.4621  2.2153 -0.1332
  187MOL0     H25792   9.135   7.818   1.692 -1.1548 -1.1558  0.8956
  187MOL0     H25793   8.944   7.958   1.674 -2.0862 -1.2758 -0.8067
  187MOL0     H25794   8.713   7.955   1.610  0.6555  0.7229  0.1693
  187MOL0     H25795   8.766   8.129   1.606 -0.0600  0.5611  0.4036
  187MOL0     H25796   8.522   8.077   1.592  0.2220 -3.5927  0.5828
  187MOL0     H25797   8.555   7.999   1.431 -0.4576  0.4564  0.5935
  187MOL0     H25798   8.584   8.303   1.496  0.9280 -0.1519  0.6189
  187MOL0     H25799   8.652   8.226   1.351  1.2546 -1.0316  0.7838
  187MOL0     H25800   8.449   8.122   1.296 -1.2764  1.6927 -3.0565
  187MOL0     H25801   8.456   8.288   1.274 -0.8183 -0.1576  0.0013
  187MOL0     H25802   8.130   8.227   1.551 -0.3564  1.8580 -1.5151
  187MOL0     H25803   8.931   7.919   1.251 -4.5197  0.7869  2.5340
  187MOL0     H25804   9.054   7.762   1.143 -0.7786 -0.8188  1.2311
  187MOL0     H25805   9.213   7.844   1.167 -1.3278 -0.0191 -1.8719
  187MOL0     H25806   9.184   7.677   1.217  0.1851  0.1096  1.4797
  188MOL0     O25807  10.198   5.376  11.392  0.4142  0.2537  0.2529
  188MOL0     C25808  10.184   5.495  11.427  0.2394 -0.2014  0.0699
  188MOL0     O25809  10.235   5.550  11.539 -0.2565 -0.5198 -0.4659
  188MOL0     C25810  10.353   5.510  11.596 -0.1385  0.1699 -0.5434
  188MOL0     C25811  10.474   5.481  11.524 -0.5025 -0.6882 -1.1322
  188MOL0     C25812  10.580   5.423  11.602 -0.6887  0.6616  0.4570
  188MOL0     C25813  10.570   5.403  11.738  0.1752  0.2825  0.5343
  188MOL0     O25814  10.687   5.354  11.798 -0.2238 -0.2955  0.3266
  188MOL0     C25815  10.723   5.403  11.928 -0.1369 -0.5759  0.5767
  188MOL0     C25816  10.709   5.287  12.021 -0.1609 -0.6677  0.4364
  188MOL0     C25817  10.750   5.324  12.160 -0.5906  0.3672  0.6792
  188MOL0     C25818  10.903   5.310  12.184  0.3098 -0.6696 -0.0344
  188MOL0     C25819  10.937   5.362  12.324  0.3760 -0.0217  0.2844
  188MOL0     C25820  10.905   5.272  12.453  0.1050 -0.4684  0.6081
  188MOL0     C25821  11.010   5.167  12.473  1.7753  0.6270 -0.1916
  188MOL0     C25822  10.973   5.036  12.558 -0.7942 -0.7145  0.2299
  188MOL0     N25823  11.001   5.042  12.708 -0.5119 -0.3227  0.2601
  188MOL0     C25824  11.079   5.139  12.765 -1.2652 -0.1859 -0.4120
  188MOL0     C25825  11.119   5.075  12.875  0.6462 -0.6450 -0.5617
  188MOL0     C25826  11.207   5.139  12.980  0.0879  0.4801  0.0532
  188MOL0     C25827  11.131   5.203  13.089 -0.2548  0.5067 -0.1425
  188MOL0     C25828  11.230   5.222  13.214  0.3599 -0.5030 -0.9117
  188MOL0     C25829  11.268   5.373  13.227 -0.6997 -0.2171  0.6045
  188MOL0     O25830  11.154   5.462  13.234 -0.5631  0.5690 -0.8939
  188MOL0     C25831  11.082   5.460  13.345  0.9736  0.1515 -0.9177
  188MOL0     C25832  11.119   5.555  13.444  0.1334 -1.0377 -0.6037
  188MOL0     C25833  11.042   5.566  13.560 -0.3787  0.2879 -0.3625
  188MOL0     C25834  11.096   5.650  13.673  0.1346 -0.1745  0.7428
  188MOL0     C25835  10.917   5.503  13.580 -0.7032 -0.3238  0.5089
  188MOL0     C25836  10.816   5.560  13.668 -0.2785 -0.4081  0.2350
  188MOL0     O25837  10.792   5.693  13.672 -0.3823 -0.1770  0.3777
  188MOL0     C25838  10.737   5.752  13.778 -0.6883  0.1130 -0.1174
  188MOL0     C25839  10.615   5.730  13.841 -0.3062 -0.1361 -0.1219
  188MOL0     C25840  10.573   5.802  13.956 -0.3932 -0.6519  0.1621
  188MOL0     C25841  10.652   5.906  14.015 -0.7100  0.0856  0.5791
  188MOL0     O25842  10.618   5.962  14.136  0.2536 -0.2172 -0.2270
  188MOL0     C25843  10.497   6.031  14.148 -0.0853 -0.0884  0.4531
  188MOL0     C25844  10.514   6.130  14.264 -0.1191 -0.1034  0.4799
  188MOL0     C25845  10.640   6.204  14.292 -1.3410 -0.5132  0.0579
  188MOL0     C25846  10.693   6.276  14.164  0.9675  0.2100 -0.2808
  188MOL0     C25847  10.811   6.356  14.184  0.1510  0.6892  0.3278
  188MOL0     C25848  10.787   6.493  14.260 -0.5838 -0.0607  0.2963
  188MOL0     C25849  10.910   6.586  14.241  0.3985  0.4853 -0.0797
  188MOL0     C25850  10.897   6.728  14.286 -0.8068  0.5429 -0.0046
  188MOL0    Cl25851  11.046   6.805  14.238 -0.3144  0.0885  0.3968
  188MOL0     C25852  10.776   5.928  13.950  0.7787 -0.5924  0.4804
  188MOL0     C25853  10.819   5.851  13.842 -0.2392  0.0513 -0.3814
  188MOL0     O25854  10.746   5.478  13.731 -0.4364 -0.0224  0.4569
  188MOL0     C25855  10.886   5.406  13.485 -0.1704 -0.0075  0.1693
  188MOL0     C25856  10.967   5.374  13.376 -0.2831 -0.4464  0.1882
  188MOL0     N25857  11.075   4.947  12.880  0.3636 -0.5570  0.3391
  188MOL0     N25858  10.995   4.930  12.787 -0.1761  0.6743 -1.0025
  188MOL0     C25859  10.462   5.439  11.817  1.5072 -0.1998  0.6671
  188MOL0     C25860  10.356   5.490  11.736  0.2689  0.3121 -0.2143
  188MOL0     C25861  10.085   5.565  11.346  0.0929  0.8046 -0.4480
  188MOL0     C25862   9.966   5.617  11.408 -0.0977 -1.1246 -0.6198
  188MOL0     C25863   9.881   5.685  11.328 -0.5763 -0.8744 -0.1949
  188MOL0     C25864   9.905   5.714  11.196  0.8792  0.3223 -0.0073
  188MOL0     O25865   9.799   5.786  11.142 -0.4744  0.4860 -0.2739
  188MOL0     C25866   9.801   5.820  11.002  0.4553  0.1987 -0.3628
  188MOL0     C25867   9.909   5.929  10.962  0.0883  0.2721 -0.2547
  188MOL0     C25868   9.875   6.003  10.834 -0.3902  0.1992  0.5027
  188MOL0     C25869   9.941   5.931  10.713  0.1991  0.3450  0.2378
  188MOL0     C25870   9.910   5.991  10.583 -0.2479 -0.9561  0.3014
  188MOL0     C25871   9.885   6.018  10.464 -0.6405 -0.8557  0.7609
  188MOL0     C25872  10.027   5.676  11.137  0.3544 -0.7628  0.5869
  188MOL0     C25873  10.112   5.596  11.211 -0.2327  0.9837 -0.2514
  188MOL0     C25874  10.235   5.544  11.145 -0.0347 -0.0559  0.3837
  188MOL0     H25875  10.483   5.498  11.417  0.7819  1.6881 -0.7202
  188MOL0     H25876  10.668   5.379  11.557 -2.2740 -1.9005 -0.3837
  188MOL0     H25877  10.670   5.494  11.958  2.2994  1.4918 -0.9312
  188MOL0     H25878  10.826   5.437  11.913 -0.2985  0.4130  1.5378
  188MOL0     H25879  10.603   5.262  12.026 -0.9591  2.2624  0.1769
  188MOL0     H25880  10.774   5.207  11.984 -0.3465  0.5171 -2.7786
  188MOL0     H25881  10.713   5.423  12.189  0.0302  0.3320  1.6150
  188MOL0     H25882  10.711   5.251  12.232  1.4913 -0.3246  1.1834
  188MOL0     H25883  10.921   5.202  12.186  2.8019 -0.3115 -0.0297
  188MOL0     H25884  10.961   5.358  12.104  2.3814 -1.2564  1.0327
  188MOL0     H25885  10.899   5.463  12.342  2.4073  0.9469 -0.4899
  188MOL0     H25886  11.046   5.366  12.333  0.3140 -0.1880  1.2213
  188MOL0     H25887  10.899   5.331  12.545  2.3668  0.4869  0.2021
  188MOL0     H25888  10.806   5.229  12.434  0.0279 -0.4951  1.0614
  188MOL0     H25889  11.106   5.209  12.504  1.9685  1.8739 -2.3246
  188MOL0     H25890  11.022   5.119  12.375  2.2240 -2.9200  1.4238
  188MOL0     H25891  10.872   5.005  12.530 -0.3430 -0.4270 -1.8428
  188MOL0     H25892  11.026   4.952  12.512  1.3057 -0.1287  1.4418
  188MOL0     H25893  11.108   5.241  12.740 -0.5151  0.3009  2.0610
  188MOL0     H25894  11.262   5.220  12.931  2.4043  1.5324  3.9797
  188MOL0     H25895  11.281   5.071  13.023 -0.2178  0.9948  1.4470
  188MOL0     H25896  11.086   5.296  13.056 -0.1636  0.0324 -1.6646
  188MOL0     H25897  11.055   5.135  13.128  1.1805 -1.6430 -0.8553
  188MOL0     H25898  11.184   5.178  13.303  0.1862 -1.4409 -1.4501
  188MOL0     H25899  11.329   5.175  13.204  1.3644  1.0351  1.1678
  188MOL0     H25900  11.337   5.384  13.311  0.6819  0.8856 -0.6324
  188MOL0     H25901  11.319   5.388  13.132 -1.6512 -2.1272 -0.2721
  188MOL0     H25902  11.196   5.621  13.405 -1.5270  0.0816 -2.1233
  188MOL0     H25903  11.037   5.642  13.764 -0.4538 -1.4564  0.2645
  188MOL0     H25904  11.089   5.757  13.649 -0.4592  0.5517  3.7276
  188MOL0     H25905  11.203   5.636  13.693  0.9204  3.0356 -0.4829
  188MOL0     H25906  10.547   5.658  13.797  1.7742 -1.4090 -1.4382
  188MOL0     H25907  10.478   5.769  13.997 -1.8791  0.1450 -2.4357
  188MOL0     H25908  10.475   6.084  14.055  0.5353 -0.9833 -0.2239
  188MOL0     H25909  10.412   5.964  14.164  0.3110 -0.2177  2.2392
  188MOL0     H25910  10.435   6.206  14.258  0.3449  0.2963 -1.3395
  188MOL0     H25911  10.491   6.069  14.351  5.6040 -1.8925  1.1307
  188MOL0     H25912  10.708   6.122  14.321  0.2324 -0.1532 -2.3164
  188MOL0     H25913  10.623   6.284  14.365 -1.4538  1.2246 -1.7994
  188MOL0     H25914  10.609   6.334  14.123  0.3411  0.4010  1.2111
  188MOL0     H25915  10.703   6.194  14.093  0.4978  0.3667 -0.5343
  188MOL0     H25916  10.880   6.295  14.243 -1.1913 -1.7962 -0.5379
  188MOL0     H25917  10.851   6.373  14.084  0.9448  0.8528  0.6602
  188MOL0     H25918  10.766   6.482  14.367  0.6241 -0.4865  0.5023
  188MOL0     H25919  10.695   6.535  14.217  0.8285 -0.5912 -3.6606
  188MOL0     H25920  10.933   6.590  14.134  0.8345  2.1381  0.0475
  188MOL0     H25921  10.995   6.543  14.294  0.3497 -1.1320 -1.2253
  188MOL0     H25922  10.875   6.741  14.392 -0.4065  0.8591  0.0443
  188MOL0     H25923  10.817   6.776  14.231  0.8486  0.1537 -2.9604
  188MOL0     H25924  10.852   5.998  13.982  0.4923  0.8744 -1.8404
  188MOL0     H25925  10.923   5.870  13.818  0.5219 -2.5081  0.5512
  188MOL0     H25926  10.795   5.346  13.484 -0.6068  0.6203  0.8191
  188MOL0     H25927  10.930   5.298  13.308 -1.0599 -0.7364  0.9087
  188MOL0     H25928  10.447   5.422  11.923 -2.9032  0.8651  0.4365
  188MOL0     H25929  10.271   5.528  11.791 -0.2337  0.8804 -1.3517
  188MOL0     H25930   9.940   5.614  11.513 -0.0183  1.9343 -0.4237
  188MOL0     H25931   9.781   5.706  11.365 -2.0028 -2.7601 -2.6760
  188MOL0     H25932   9.828   5.736  10.937  4.8008  1.7570 -0.8872
  188MOL0     H25933   9.701   5.852  10.969  0.6243  1.4581  0.2783
  188MOL0     H25934  10.010   5.887  10.959  1.1169  2.6319 -1.0446
  188MOL0     H25935   9.901   6.001  11.044  0.5309 -2.3075  2.2413
  188MOL0     H25936   9.770   6.006  10.805 -0.7220  0.7993  1.7265
  188MOL0     H25937   9.911   6.106  10.822  2.0415 -0.7768 -1.9119
  188MOL0     H25938   9.912   5.825  10.710  1.0449  0.0873  0.7961
  188MOL0     H25939  10.047   5.934  10.741  0.1762  0.8242  0.2752
  188MOL0     H25940   9.860   6.049  10.364  2.3795 -0.4317  0.0273
  188MOL0     H25941  10.056   5.705  11.036  0.1306  1.8176  1.1795
  188MOL0     H25942  10.252   5.437  11.158  1.6974  0.1778  0.2169
  188MOL0     H25943  10.218   5.563  11.039 -0.6826  1.7026  0.7644
  188MOL0     H25944  10.325   5.593  11.184 -0.5956 -1.9288  4.5270
  189MOL0     O25945  11.338  10.784  10.568  0.9361 -0.5780  0.0459
  189MOL0     C25946  11.302  10.868  10.487 -0.4513  0.4793  0.5971
  189MOL0     O25947  11.189  10.861  10.402 -0.2247 -0.2351  0.0997
  189MOL0     C25948  11.117  10.748  10.370 -0.5106  0.0449  0.1655
  189MOL0     C25949  11.140  10.612  10.411  0.2666 -1.1007 -0.3898
  189MOL0     C25950  11.059  10.508  10.380 -0.4736  0.2677  0.0036
  189MOL0     C25951  10.956  10.529  10.298 -0.8368 -0.1363  0.0821
  189MOL0     O25952  10.881  10.419  10.264  0.3493 -0.3997  1.1196
  189MOL0     C25953  10.945  10.330  10.172  0.6583  0.3426  0.4412
  189MOL0     C25954  10.838  10.238  10.119 -0.0019  0.4594 -0.9251
  189MOL0     C25955  10.897  10.120  10.033 -0.0283 -0.1434 -0.7873
  189MOL0     C25956  10.801  10.008  10.016  0.7951 -0.2605 -0.0361
  189MOL0     C25957  10.856   9.912   9.916 -0.3132  0.2788 -0.0535
  189MOL0     C25958  10.762   9.800   9.885 -0.3683 -0.1719  0.1057
  189MOL0     C25959  10.733   9.712  10.011  0.4510 -0.4819  1.5236
  189MOL0     C25960  10.858   9.648  10.072 -0.9163 -0.0949  0.0801
  189MOL0     N25961  10.956   9.582   9.979  0.7141  0.1192  0.1674
  189MOL0     C25962  11.095   9.575   9.994  0.0733 -0.0810  0.2557
  189MOL0     C25963  11.135   9.477   9.900  0.0426  0.4760 -0.0647
  189MOL0     C25964  11.285   9.438   9.884  0.5199 -0.7559  0.7653
  189MOL0     C25965  11.311   9.286   9.879  0.5251  0.2497 -0.2513
  189MOL0     C25966  11.453   9.261   9.852 -0.5949 -0.4370  0.6216
  189MOL0     C25967  11.485   9.108   9.833 -0.4099 -0.4838 -0.7872
  189MOL0     O25968  11.480   9.041   9.958  0.8708  0.8153 -0.2224
  189MOL0     C25969  11.559   8.932   9.979 -0.2471 -0.5253  0.2653
  189MOL0     C25970  11.565   8.885  10.110 -0.1735 -0.2911  0.1926
  189MOL0     C25971  11.649   8.789  10.155  0.2215  0.3692 -0.2127
  189MOL0     C25972  11.652   8.758  10.306 -0.5557  0.0606  0.7304
  189MOL0     C25973  11.718   8.715  10.056 -0.6021 -0.1785  0.2159
  189MOL0     C25974  11.786   8.588  10.087 -0.0463 -0.2434  0.2872
  189MOL0     O25975  11.715   8.494  10.155  0.3746 -0.1333  0.7534
  189MOL0     C25976  11.771   8.379  10.207  0.4817 -0.1174  0.2934
  189MOL0     C25977  11.746   8.364  10.346  0.1226 -0.0342  0.8022
  189MOL0     C25978  11.800   8.250  10.405  0.0012  0.0190 -0.2326
  189MOL0     C25979  11.884   8.162  10.341  0.3358 -0.4409  0.7673
  189MOL0     O25980  11.939   8.055  10.410  0.0202  0.6725  0.2933
  189MOL0     C25981  11.860   7.928  10.400 -0.2527 -0.1289 -0.7777
  189MOL0     C25982  11.877   7.841  10.525 -0.2412  0.4436  0.1691
  189MOL0     C25983  11.815   7.898  10.655 -0.0982  0.5938  0.8490
  189MOL0     C25984  11.813   7.788  10.771 -0.0629  0.0480 -1.2778
  189MOL0     C25985  11.776   7.854  10.907 -0.8972  0.4352  0.7713
  189MOL0     C25986  11.694   7.773  11.001 -0.3013  0.9166  0.4053
  189MOL0     C25987  11.550   7.739  10.976 -0.5404  0.6251  0.0984
  189MOL0     C25988  11.461   7.835  10.912  0.2821  0.1504 -0.0770
  189MOL0    Cl25989  11.295   7.796  10.972  0.1956  0.7315  0.1606
  189MOL0     C25990  11.900   8.182  10.208 -0.7305  0.5911  0.0195
  189MOL0     C25991  11.848   8.289  10.137  1.6791  0.1965  0.2127
  189MOL0     O25992  11.896   8.568  10.037  0.1106  0.4644  0.0795
  189MOL0     C25993  11.712   8.766   9.920 -0.6509  0.3637  0.2082
  189MOL0     C25994  11.630   8.868   9.882  0.1561  0.2049 -0.2645
  189MOL0     N25995  11.023   9.415   9.840  0.0744 -1.2429 -0.6343
  189MOL0     N25996  10.923   9.488   9.883  0.8688  0.5418 -0.5677
  189MOL0     C25997  10.918  10.659  10.253  0.3773 -0.0114  0.0825
  189MOL0     C25998  11.005  10.765  10.290 -0.7512 -0.3100 -0.8746
  189MOL0     C25999  11.373  11.010  10.479  0.2053  0.8773  0.2995
  189MOL0     C26000  11.304  11.111  10.415 -0.3780  0.7109  0.9605
  189MOL0     C26001  11.354  11.246  10.408 -0.4659  0.7201  0.4979
  189MOL0     C26002  11.483  11.277  10.463 -0.1046  0.5992  1.0332
  189MOL0     O26003  11.570  11.376  10.426 -0.8789 -0.1238 -0.4358
  189MOL0     C26004  11.515  11.499  10.387  0.0026  0.1399 -0.0821
  189MOL0     C26005  11.610  11.625  10.396  0.1654 -0.2948  0.8474
  189MOL0     C26006  11.745  11.599  10.331 -0.6755 -0.4117  0.2239
  189MOL0     C26007  11.737  11.585  10.176 -0.4622 -0.0357 -0.8320
  189MOL0     C26008  11.672  11.702  10.104 -0.7092  0.4596  0.1076
  189MOL0     C26009  11.615  11.793  10.049 -0.8810  0.0898  0.3560
  189MOL0     C26010  11.553  11.168  10.514 -0.1020 -1.1341  0.1857
  189MOL0     C26011  11.495  11.044  10.542 -0.5874  0.9618 -0.4176
  189MOL0     C26012  11.577  10.939  10.617  0.4671  0.4908 -0.2887
  189MOL0     H26013  11.221  10.586  10.478  2.2384  0.9956 -1.8134
  189MOL0     H26014  11.098  10.411  10.409  0.2494  0.4585 -0.3045
  189MOL0     H26015  11.019  10.270  10.227  1.2457 -0.1576 -0.8563
  189MOL0     H26016  11.001  10.382  10.094  2.5757 -3.1350 -0.7468
  189MOL0     H26017  10.785  10.211  10.211  1.5370 -0.9888 -0.4014
  189MOL0     H26018  10.769  10.298  10.059  1.3002 -0.5478 -3.5964
  189MOL0     H26019  10.927  10.163   9.937 -1.9799  0.6401 -1.0900
  189MOL0     H26020  10.990  10.077  10.071 -0.3078 -0.6369 -0.6454
  189MOL0     H26021  10.769   9.960  10.109 -0.0513  1.5202  0.6414
  189MOL0     H26022  10.715  10.058   9.971 -0.0935 -0.0100  1.8488
  189MOL0     H26023  10.958   9.879   9.938 -0.0190  1.0609 -0.2305
  189MOL0     H26024  10.865   9.954   9.816 -3.6840 -1.7387 -1.3850
  189MOL0     H26025  10.666   9.839   9.850  0.5235 -0.0475 -2.3255
  189MOL0     H26026  10.815   9.747   9.806 -1.4732  0.6898 -1.2653
  189MOL0     H26027  10.663   9.632   9.983 -0.8151  0.2349  2.5234
  189MOL0     H26028  10.678   9.764  10.090 -2.4614 -0.5536 -0.3260
  189MOL0     H26029  10.907   9.730  10.126 -0.7657 -0.7827  1.0005
  189MOL0     H26030  10.818   9.573  10.140  0.3376 -1.7925 -1.0015
  189MOL0     H26031  11.165   9.632  10.055 -0.3743  0.6810  0.0704
  189MOL0     H26032  11.336   9.484   9.969  0.7856  0.3546  0.0243
  189MOL0     H26033  11.317   9.492   9.795 -4.9727  2.0897  0.0761
  189MOL0     H26034  11.276   9.230   9.966  1.6374 -0.2027 -0.0721
  189MOL0     H26035  11.260   9.240   9.793  0.7372 -2.1856  0.8398
  189MOL0     H26036  11.480   9.308   9.757  0.0509 -0.4145  0.8124
  189MOL0     H26037  11.509   9.312   9.931 -0.3360  0.7487 -0.2978
  189MOL0     H26038  11.407   9.065   9.770 -2.1081  2.9545 -1.2590
  189MOL0     H26039  11.579   9.099   9.778  0.4062  2.0394  0.0702
  189MOL0     H26040  11.518   8.945  10.187  0.6001  1.5699 -0.7144
  189MOL0     H26041  11.671   8.855  10.354 -0.3079  0.3201  0.1108
  189MOL0     H26042  11.733   8.688  10.330 -2.8944 -3.7875 -1.6283
  189MOL0     H26043  11.557   8.716  10.342 -0.9055 -0.5161 -0.8012
  189MOL0     H26044  11.672   8.428  10.393 -0.5317 -1.7708  2.2841
  189MOL0     H26045  11.773   8.212  10.502  0.2550 -2.2515 -0.9831
  189MOL0     H26046  11.754   7.952  10.387 -1.0234 -2.5870  0.3271
  189MOL0     H26047  11.886   7.874  10.309 -2.0791 -3.7881  0.6661
  189MOL0     H26048  11.829   7.746  10.498  0.3299 -0.0034  0.7117
  189MOL0     H26049  11.981   7.821  10.550 -0.1243  0.0083 -0.6223
  189MOL0     H26050  11.717   7.944  10.636 -2.4597 -2.1569  4.7884
  189MOL0     H26051  11.879   7.980  10.688 -0.7479  0.8975  1.3921
  189MOL0     H26052  11.901   7.728  10.795  0.2222  1.9405  3.2741
  189MOL0     H26053  11.731   7.717  10.751 -1.0209  0.7709 -0.0338
  189MOL0     H26054  11.861   7.899  10.960 -1.7155  2.4641  0.4655
  189MOL0     H26055  11.710   7.933  10.870  0.1773  0.7917 -0.5125
  189MOL0     H26056  11.699   7.834  11.091 -0.5381  0.9861  0.3721
  189MOL0     H26057  11.741   7.680  11.035 -0.3549  1.2402  1.3976
  189MOL0     H26058  11.511   7.734  11.078 -1.0432  1.6173 -0.0355
  189MOL0     H26059  11.536   7.648  10.917 -0.5983  2.8491 -3.5868
  189MOL0     H26060  11.474   7.834  10.804  0.7074 -2.0106 -0.0513
  189MOL0     H26061  11.483   7.940  10.936  0.4550  0.2281 -0.5696
  189MOL0     H26062  11.964   8.106  10.165  1.0594  3.3191 -2.5579
  189MOL0     H26063  11.884   8.309  10.037  2.6286  0.8882  0.6752
  189MOL0     H26064  11.773   8.706   9.852 -2.5904 -0.6576 -0.7345
  189MOL0     H26065  11.639   8.892   9.777  0.0871 -1.0237 -0.5680
  189MOL0     H26066  10.824  10.673  10.201  0.7339  2.0374 -0.0936
  189MOL0     H26067  10.961  10.859  10.258 -0.1556  1.4774  3.0239
  189MOL0     H26068  11.206  11.091  10.373 -0.5570 -0.2933  1.8336
  189MOL0     H26069  11.294  11.317  10.352  0.5404  1.6866  0.6106
  189MOL0     H26070  11.497  11.499  10.279 -0.5840 -0.9720  0.0035
  189MOL0     H26071  11.420  11.521  10.437  0.0948 -1.0948  0.6652
  189MOL0     H26072  11.626  11.653  10.500  3.0120  2.4519 -0.1707
  189MOL0     H26073  11.559  11.712  10.354  1.9098  0.5950  0.4918
  189MOL0     H26074  11.811  11.683  10.356  1.5849 -2.2010  0.7030
  189MOL0     H26075  11.802  11.513  10.369 -1.8183 -1.2223  0.1378
  189MOL0     H26076  11.674  11.497  10.159  3.9281 -3.7643 -0.0454
  189MOL0     H26077  11.836  11.573  10.129 -0.5754 -0.8295 -0.8897
  189MOL0     H26078  11.574  11.881  10.004 -2.5518 -0.3808  0.8977
  189MOL0     H26079  11.658  11.193  10.516 -0.0960 -0.9506 -1.1507
  189MOL0     H26080  11.668  10.990  10.651 -0.4945  2.3792 -0.3930
  189MOL0     H26081  11.517  10.902  10.700  1.7567 -0.9566  0.0478
  189MOL0     H26082  11.603  10.856  10.551  3.6958  2.5697 -1.8840
  190MOL0     O26083   6.935   6.246   1.641  0.7832  0.0386 -0.1436
  190MOL0     C26084   6.836   6.224   1.704  0.5963  0.2451  0.3608
  190MOL0     O26085   6.827   6.245   1.847 -0.0786  0.5753 -0.0865
  190MOL0     C26086   6.934   6.235   1.923  0.3918 -0.5470  0.9188
  190MOL0     C26087   6.968   6.112   1.965  0.2552 -0.0691  0.3245
  190MOL0     C26088   7.059   6.096   2.067  0.6271  0.5603 -0.0245
  190MOL0     C26089   7.110   6.198   2.150  0.1956 -0.0616  0.7976
  190MOL0     O26090   7.198   6.184   2.253 -0.2423 -0.5747 -0.3125
  190MOL0     C26091   7.272   6.064   2.270  0.3063  0.1466  0.6858
  190MOL0     C26092   7.335   6.080   2.409 -0.0370 -0.4633  0.3398
  190MOL0     C26093   7.330   5.938   2.472 -0.1173  0.4434  0.6238
  190MOL0     C26094   7.373   5.946   2.621  0.7873 -0.4389  0.2353
  190MOL0     C26095   7.341   5.816   2.689 -0.1204 -0.0719  0.0519
  190MOL0     C26096   7.387   5.804   2.845  0.0685  0.3716 -0.0478
  190MOL0     C26097   7.287   5.880   2.935 -0.0911  0.6119  0.2161
  190MOL0     C26098   7.334   5.873   3.074 -0.4877 -0.4858  0.2684
  190MOL0     N26099   7.318   5.737   3.126 -0.2015  0.2083 -0.2090
  190MOL0     C26100   7.197   5.677   3.144 -1.0733  0.3502 -0.0744
  190MOL0     C26101   7.224   5.549   3.172 -0.0889 -0.5780  0.3441
  190MOL0     C26102   7.116   5.456   3.224 -0.0262 -0.0801 -0.5172
  190MOL0     C26103   7.114   5.475   3.381  0.7899 -0.5268  0.3537
  190MOL0     C26104   7.221   5.407   3.463  0.1347  0.1587 -0.5847
  190MOL0     C26105   7.220   5.249   3.434  0.0747 -0.6591 -0.0859
  190MOL0     O26106   7.299   5.178   3.536 -0.2826 -0.1245  0.0283
  190MOL0     C26107   7.242   5.120   3.644  0.3644 -0.5184 -0.7499
  190MOL0     C26108   7.114   5.154   3.691 -0.7229 -0.0110  0.1986
  190MOL0     C26109   7.062   5.105   3.812 -0.4791 -0.7711 -0.6816
  190MOL0     C26110   6.926   5.133   3.861  0.3531 -0.3079 -0.6431
  190MOL0     C26111   7.147   5.014   3.884  0.4386 -0.3689  0.8682
  190MOL0     C26112   7.101   4.940   4.009 -0.4083  0.1325  0.6272
  190MOL0     O26113   6.994   4.857   3.988  0.0616  0.2516 -0.2646
  190MOL0     C26114   6.944   4.807   4.104 -0.9899  0.2142  0.5118
  190MOL0     C26115   7.017   4.703   4.162  0.6221  0.5505 -0.1458
  190MOL0     C26116   6.984   4.645   4.285  0.4655  0.2441 -0.7156
  190MOL0     C26117   6.873   4.696   4.345 -0.6887 -0.0619 -0.3244
  190MOL0     O26118   6.850   4.631   4.463 -0.1523  0.2752  0.6273
  190MOL0     C26119   6.716   4.618   4.511  0.8381 -1.2320 -0.6598
  190MOL0     C26120   6.706   4.499   4.606  0.0250 -0.5313 -0.1934
  190MOL0     C26121   6.569   4.474   4.671 -0.0373 -0.7472  0.4478
  190MOL0     C26122   6.566   4.370   4.783  0.6670  0.1809 -0.4577
  190MOL0     C26123   6.572   4.225   4.722 -0.5662  0.6858 -0.5380
  190MOL0     C26124   6.491   4.122   4.788  0.4007  1.1887 -1.3150
  190MOL0     C26125   6.483   3.978   4.726  0.9602  0.7824  0.0912
  190MOL0     C26126   6.439   3.968   4.582  0.0724 -0.1404 -0.7479
  190MOL0    Cl26127   6.567   4.029   4.468  0.2117  0.0059 -0.2078
  190MOL0     C26128   6.808   4.809   4.298  0.1512  0.2680  0.0596
  190MOL0     C26129   6.842   4.867   4.176  0.1560  0.6208 -0.5185
  190MOL0     O26130   7.140   4.973   4.118 -0.0062  0.6205  0.3947
  190MOL0     C26131   7.268   4.972   3.830 -0.3245  1.0394  0.2924
  190MOL0     C26132   7.317   5.025   3.710  0.6449  0.6567 -0.6534
  190MOL0     N26133   7.362   5.525   3.175  0.4524 -0.5559  0.1546
  190MOL0     N26134   7.407   5.643   3.151  0.2072 -0.1035 -1.3289
  190MOL0     C26135   7.065   6.330   2.115 -0.3584  0.0277 -0.0064
  190MOL0     C26136   6.975   6.346   2.010 -0.3314 -0.6995 -0.0556
  190MOL0     C26137   6.720   6.184   1.628  0.5106 -0.5132 -0.4565
  190MOL0     C26138   6.630   6.103   1.702 -0.2477 -0.1504 -0.0419
  190MOL0     C26139   6.507   6.061   1.644 -0.1643 -0.2387 -0.3395
  190MOL0     C26140   6.475   6.109   1.516  0.4292  0.4700 -0.2839
  190MOL0     O26141   6.364   6.059   1.465  0.0556 -0.5006  0.3140
  190MOL0     C26142   6.370   6.009   1.327 -0.6136  0.7567  0.5589
  190MOL0     C26143   6.242   5.915   1.314 -0.1207  0.2101 -0.1651
  190MOL0     C26144   6.208   5.815   1.429 -0.0317  0.1569 -0.6877
  190MOL0     C26145   6.119   5.704   1.377 -0.9762  0.0898  0.3159
  190MOL0     C26146   5.984   5.750   1.358 -0.2187  0.0193  0.6503
  190MOL0     C26147   5.887   5.815   1.327 -1.0676 -0.5642  0.3611
  190MOL0     C26148   6.558   6.194   1.450  0.5396 -0.2581 -0.5295
  190MOL0     C26149   6.689   6.223   1.498  0.0669 -0.2257 -0.0339
  190MOL0     C26150   6.765   6.327   1.409 -0.3790  0.1264  0.3256
  190MOL0     H26151   6.908   6.027   1.933 -1.7169  0.3158  2.7447
  190MOL0     H26152   7.085   5.996   2.099  2.6290  1.2298  0.5879
  190MOL0     H26153   7.351   6.050   2.196 -1.2776 -2.2890 -0.6787
  190MOL0     H26154   7.209   5.975   2.268  0.8563 -0.2419 -1.3894
  190MOL0     H26155   7.435   6.120   2.392 -0.0972  0.0001  1.0281
  190MOL0     H26156   7.287   6.154   2.474  1.7182 -0.5294  1.7909
  190MOL0     H26157   7.225   5.911   2.466  0.0118  0.2277 -1.2617
  190MOL0     H26158   7.398   5.867   2.424 -0.4499 -0.8766  2.0581
  190MOL0     H26159   7.479   5.971   2.632  1.0584  1.0214 -3.8414
  190MOL0     H26160   7.310   6.015   2.677  0.0144 -2.3622  1.8508
  190MOL0     H26161   7.390   5.729   2.644 -1.7059 -1.2919  0.5912
  190MOL0     H26162   7.232   5.808   2.683 -0.4350  2.3201  1.4364
  190MOL0     H26163   7.410   5.702   2.878  1.7800  0.5105 -0.7172
  190MOL0     H26164   7.485   5.852   2.851  0.2383  0.1902 -1.1690
  190MOL0     H26165   7.188   5.834   2.924 -0.0958  0.7274 -0.2259
  190MOL0     H26166   7.275   5.983   2.900 -1.8499 -0.1135 -1.5076
  190MOL0     H26167   7.437   5.910   3.076 -0.5974  0.0821 -1.9191
  190MOL0     H26168   7.275   5.943   3.134  2.9556  3.5500 -0.5471
  190MOL0     H26169   7.098   5.723   3.152 -0.8189  0.6223  4.6445
  190MOL0     H26170   7.137   5.352   3.195 -0.7839 -0.1148 -0.9724
  190MOL0     H26171   7.022   5.474   3.171 -0.7234 -0.5134  0.5290
  190MOL0     H26172   7.131   5.582   3.399  0.6385 -0.4987  0.3238
  190MOL0     H26173   7.017   5.448   3.423  1.2248 -0.4158  1.4586
  190MOL0     H26174   7.320   5.452   3.447 -0.6117  2.4828  0.9006
  190MOL0     H26175   7.188   5.430   3.565 -1.6501 -1.8528 -0.6377
  190MOL0     H26176   7.118   5.208   3.432  0.5036 -1.7859  0.3306
  190MOL0     H26177   7.269   5.248   3.337 -2.5196  1.1845 -1.5266
  190MOL0     H26178   7.061   5.235   3.641 -2.1127  0.5949  2.4963
  190MOL0     H26179   6.925   5.143   3.970  1.1603 -2.3707 -0.4107
  190MOL0     H26180   6.865   5.046   3.836  3.0398 -2.1920 -1.0511
  190MOL0     H26181   6.891   5.227   3.816  1.8167 -0.0759 -1.3584
  190MOL0     H26182   7.105   4.671   4.109  0.2074 -2.0367  0.5654
  190MOL0     H26183   7.044   4.570   4.336  1.7056 -0.2193 -2.7482
  190MOL0     H26184   6.690   4.710   4.564  1.5315 -0.3399 -1.8152
  190MOL0     H26185   6.645   4.613   4.428 -0.2767 -1.4831  0.2931
  190MOL0     H26186   6.729   4.412   4.544 -4.4431  0.3047 -3.5851
  190MOL0     H26187   6.784   4.517   4.680  0.7888 -0.0942 -1.0791
  190MOL0     H26188   6.504   4.449   4.586 -4.8533  2.5790  2.6928
  190MOL0     H26189   6.526   4.564   4.716 -2.2526 -0.9394 -1.0836
  190MOL0     H26190   6.473   4.380   4.840  0.7890  1.1338 -0.3984
  190MOL0     H26191   6.647   4.383   4.856  0.3183  0.4513 -0.1100
  190MOL0     H26192   6.538   4.236   4.618  0.5767 -0.5622 -1.0779
  190MOL0     H26193   6.673   4.185   4.731 -2.2690 -3.7127  2.7377
  190MOL0     H26194   6.387   4.149   4.808  0.1813 -0.3806 -0.1747
  190MOL0     H26195   6.535   4.109   4.887 -1.2671  1.4466 -0.5017
  190MOL0     H26196   6.415   3.924   4.793  1.7326 -3.2312 -2.0325
  190MOL0     H26197   6.569   3.911   4.738 -1.9509 -3.2144  0.6393
  190MOL0     H26198   6.350   4.031   4.576 -0.3464 -0.6806 -0.3789
  190MOL0     H26199   6.412   3.864   4.561  2.2582 -1.2584  1.5007
  190MOL0     H26200   6.722   4.856   4.344 -0.6688 -0.9238 -0.1951
  190MOL0     H26201   6.787   4.948   4.130 -1.9568  0.8305  2.1170
  190MOL0     H26202   7.325   4.889   3.871 -2.1906 -2.7746 -3.8692
  190MOL0     H26203   7.414   5.001   3.668  0.3167 -2.7706  0.2566
  190MOL0     H26204   7.100   6.408   2.182  0.3476 -0.7372  0.5360
  190MOL0     H26205   6.938   6.439   1.967 -0.7869 -1.6840 -1.9107
  190MOL0     H26206   6.652   6.066   1.802 -1.1504 -2.8509 -0.7544
  190MOL0     H26207   6.447   5.984   1.691 -2.0290  1.9107  1.0638
  190MOL0     H26208   6.361   6.086   1.251 -0.6855 -0.0052 -0.2167
  190MOL0     H26209   6.452   5.944   1.296  2.1907  3.4927  1.6605
  190MOL0     H26210   6.255   5.854   1.225  2.3372  1.1566 -0.5379
  190MOL0     H26211   6.161   5.987   1.302 -0.3967  0.3262  1.9502
  190MOL0     H26212   6.302   5.772   1.466 -0.9400  1.2604  3.4715
  190MOL0     H26213   6.164   5.867   1.515 -1.2492 -1.9103  0.0399
  190MOL0     H26214   6.109   5.632   1.459  1.3137  1.1468  1.6106
  190MOL0     H26215   6.174   5.660   1.293 -0.1042 -0.0684  0.9529
  190MOL0     H26216   5.802   5.866   1.286  0.5005  2.3039  0.4158
  190MOL0     H26217   6.522   6.235   1.356 -2.5187 -2.2014 -0.3351
  190MOL0     H26218   6.699   6.350   1.325 -0.3865 -2.5908 -0.5094
  190MOL0     H26219   6.792   6.419   1.462 -2.1653  0.1433  1.3086
  190MOL0     H26220   6.851   6.276   1.365 -1.7818 -0.8674 -1.4227
  191MOL0     O26221  10.033   2.245   3.488  0.7053 -0.6454  0.4858
  191MOL0     C26222  10.047   2.340   3.566 -0.4666 -0.0070  0.5618
  191MOL0     O26223  10.116   2.461   3.539  1.1686 -0.0595 -0.9315
  191MOL0     C26224  10.176   2.480   3.416 -0.4231 -0.2561 -0.1954
  191MOL0     C26225  10.100   2.465   3.293 -0.0235  0.5096 -1.2166
  191MOL0     C26226  10.161   2.482   3.169 -0.1357 -0.7236  0.4159
  191MOL0     C26227  10.298   2.532   3.164  0.7267 -0.0966 -0.1924
  191MOL0     O26228  10.350   2.552   3.043 -0.6667  0.6469  0.7402
  191MOL0     C26229  10.494   2.524   3.035  0.5441  0.0887 -0.1477
  191MOL0     C26230  10.516   2.371   3.026 -0.3578 -0.2137  0.3205
  191MOL0     C26231  10.661   2.341   2.992 -0.1694  0.0662  0.4992
  191MOL0     C26232  10.693   2.191   2.995 -0.4638  0.6435 -0.6797
  191MOL0     C26233  10.634   2.123   2.872 -0.1427 -0.1533  0.1825
  191MOL0     C26234  10.643   1.970   2.881 -1.0584  0.6575  0.1367
  191MOL0     C26235  10.783   1.921   2.908 -0.5913  0.6126  0.5349
  191MOL0     C26236  10.779   1.771   2.883 -0.2454  0.4866  0.0647
  191MOL0     N26237  10.815   1.740   2.738 -0.1939 -0.3359 -0.2693
  191MOL0     C26238  10.934   1.699   2.702  0.1188  0.0388 -0.0081
  191MOL0     C26239  10.930   1.689   2.570 -0.5642  0.7391  0.3174
  191MOL0     C26240  11.045   1.677   2.474 -0.7320  0.8166 -0.4905
  191MOL0     C26241  11.084   1.817   2.409  0.1947 -0.1538  0.2491
  191MOL0     C26242  11.104   1.936   2.487  0.2327 -0.2860  0.2048
  191MOL0     C26243  11.202   1.908   2.608  0.2619  0.2314 -0.1131
  191MOL0     O26244  11.315   1.833   2.573  0.0758  0.1878 -1.0658
  191MOL0     C26245  11.406   1.878   2.483  0.1286 -1.1668  0.7214
  191MOL0     C26246  11.497   1.789   2.425  0.2398  0.0446 -0.5671
  191MOL0     C26247  11.599   1.825   2.339  0.7605 -0.0574  0.1831
  191MOL0     C26248  11.696   1.719   2.310  1.3039  0.4015  0.4111
  191MOL0     C26249  11.616   1.951   2.303  0.2590 -0.0079  0.3756
  191MOL0     C26250  11.723   1.996   2.213 -0.2640  0.7944  0.6710
  191MOL0     O26251  11.857   1.955   2.230 -0.4714 -0.4267 -0.0592
  191MOL0     C26252  11.939   1.980   2.124 -0.6951  0.2576 -0.2425
  191MOL0     C26253  11.997   2.111   2.124 -0.4183  0.2135 -0.0039
  191MOL0     C26254  12.081   2.142   2.017  0.1745 -0.7025 -0.0391
  191MOL0     C26255  12.102   2.051   1.907 -0.4441 -0.5291  0.1179
  191MOL0     O26256  12.166   2.109   1.802 -0.2985 -0.5859 -0.2560
  191MOL0     C26257  12.098   2.114   1.677 -0.3229 -0.4166  0.3346
  191MOL0     C26258  12.190   2.063   1.569 -0.7844 -0.7583 -0.4207
  191MOL0     C26259  12.109   2.023   1.448  0.1210 -0.0786 -0.3365
  191MOL0     C26260  12.202   2.004   1.331 -0.5062  0.2645 -0.0746
  191MOL0     C26261  12.112   1.944   1.217  0.3027 -0.8555  0.7913
  191MOL0     C26262  12.191   1.920   1.091  0.4008  0.3347  0.1198
  191MOL0     C26263  12.108   1.947   0.964 -0.7660 -0.4146 -0.4647
  191MOL0     C26264  12.085   2.104   0.940  0.2564 -0.1703 -1.5716
  191MOL0    Cl26265  12.234   2.201   0.916 -0.1713  0.1506  0.1196
  191MOL0     C26266  12.047   1.925   1.918 -0.6919  0.5654  0.4238
  191MOL0     C26267  11.963   1.880   2.020 -0.1974 -0.4806 -0.9535
  191MOL0     O26268  11.685   2.059   2.111  0.0129 -0.7939  0.0360
  191MOL0     C26269  11.518   2.045   2.344 -0.8943 -0.3425 -0.1133
  191MOL0     C26270  11.424   2.008   2.440  0.1592 -0.5063 -0.8328
  191MOL0     N26271  10.795   1.705   2.526 -0.5008 -0.6506  0.3324
  191MOL0     N26272  10.730   1.732   2.631 -0.0483 -0.6663 -0.4067
  191MOL0     C26273  10.360   2.552   3.283  0.0272 -0.5578 -0.7746
  191MOL0     C26274  10.296   2.540   3.404 -0.2570 -1.0219 -0.0704
  191MOL0     C26275   9.979   2.321   3.697  0.0595  0.3359 -0.9979
  191MOL0     C26276   9.859   2.375   3.726  0.3180 -0.3534  0.4403
  191MOL0     C26277   9.797   2.344   3.845 -0.2589  0.3366 -0.2574
  191MOL0     C26278   9.848   2.254   3.943  0.1496  1.0085 -0.6076
  191MOL0     O26279   9.780   2.235   4.062  0.5344  0.5831 -1.2965
  191MOL0     C26280   9.820   2.125   4.150 -0.1322  0.1782  0.4737
  191MOL0     C26281   9.689   2.097   4.234  0.2727 -0.2700 -0.1803
  191MOL0     C26282   9.703   1.971   4.334 -0.7123 -0.5113  0.1646
  191MOL0     C26283   9.598   1.979   4.444  0.8235 -1.0369 -0.2482
  191MOL0     C26284   9.620   2.087   4.539 -1.0007  0.2551  0.6185
  191MOL0     C26285   9.634   2.184   4.613 -0.1058  0.4891  0.4351
  191MOL0     C26286   9.976   2.199   3.914 -0.2326 -0.3204 -0.4745
  191MOL0     C26287  10.039   2.234   3.792 -0.2353 -0.1115 -0.7267
  191MOL0     C26288  10.183   2.200   3.786 -0.2856 -0.5059 -0.9007
  191MOL0     H26289   9.999   2.427   3.310  1.8234 -4.6684  0.1788
  191MOL0     H26290  10.116   2.466   3.071 -2.5281  1.2790  1.0830
  191MOL0     H26291  10.541   2.579   3.117  3.3811 -0.0225 -1.5487
  191MOL0     H26292  10.526   2.573   2.943  2.4942 -1.4992 -0.3934
  191MOL0     H26293  10.491   2.333   3.126 -1.1314 -3.5289 -1.0285
  191MOL0     H26294  10.447   2.326   2.954 -2.1905 -0.8554  2.3570
  191MOL0     H26295  10.695   2.390   2.900 -1.6110 -2.0845 -1.2545
  191MOL0     H26296  10.730   2.393   3.060  1.9764 -1.2806 -0.5498
  191MOL0     H26297  10.800   2.176   3.012 -0.4724  1.5758  0.2621
  191MOL0     H26298  10.655   2.143   3.086  0.2566 -1.2434 -1.3098
  191MOL0     H26299  10.696   2.149   2.786 -0.4798  0.1288  0.0253
  191MOL0     H26300  10.529   2.143   2.848  0.2394 -0.5519 -2.1199
  191MOL0     H26301  10.573   1.930   2.955 -0.9524  0.4845  0.1425
  191MOL0     H26302  10.613   1.921   2.788 -4.6635  2.8189 -0.0232
  191MOL0     H26303  10.804   1.933   3.015 -2.0939 -1.3940  1.1067
  191MOL0     H26304  10.864   1.972   2.856  2.5695 -2.6961  1.8002
  191MOL0     H26305  10.856   1.729   2.949  0.3744 -1.5638 -1.8357
  191MOL0     H26306  10.687   1.720   2.910  0.1950 -0.3473  0.0180
  191MOL0     H26307  11.018   1.685   2.769 -0.5776 -2.7154  0.4252
  191MOL0     H26308  11.015   1.603   2.399 -1.1170  2.1637 -1.7082
  191MOL0     H26309  11.138   1.643   2.520  0.0846  0.9114 -2.0056
  191MOL0     H26310  11.165   1.820   2.336 -1.3734  1.9848 -1.5384
  191MOL0     H26311  10.994   1.840   2.350  1.2669  0.1262 -1.3432
  191MOL0     H26312  11.126   2.018   2.419  0.1055 -0.0533  0.4416
  191MOL0     H26313  11.007   1.960   2.531  0.0544 -0.2885 -0.1887
  191MOL0     H26314  11.232   2.003   2.655  1.4350 -1.0103  1.7948
  191MOL0     H26315  11.144   1.860   2.688 -1.4281 -1.2682 -2.1349
  191MOL0     H26316  11.493   1.682   2.437 -1.6252 -0.1665 -2.4345
  191MOL0     H26317  11.747   1.742   2.216  1.5403 -1.4721  0.0459
  191MOL0     H26318  11.636   1.630   2.287  3.9640 -2.2311  2.7734
  191MOL0     H26319  11.760   1.690   2.394 -1.0988 -0.7890  1.9713
  191MOL0     H26320  11.959   2.173   2.205 -2.3423 -0.9365  0.0167
  191MOL0     H26321  12.131   2.238   2.006  0.2569 -0.6341  0.8260
  191MOL0     H26322  12.010   2.050   1.677 -0.9560  0.4046 -1.4085
  191MOL0     H26323  12.072   2.217   1.650  0.1969 -0.7064 -1.3880
  191MOL0     H26324  12.262   2.145   1.556 -1.6134  0.6525  2.8508
  191MOL0     H26325  12.253   1.982   1.607 -0.8619 -2.1235 -2.9966
  191MOL0     H26326  12.027   2.090   1.422 -0.6888 -0.7225  0.5059
  191MOL0     H26327  12.064   1.924   1.458 -0.4648 -0.1930 -3.3368
  191MOL0     H26328  12.283   1.939   1.363  0.5968  1.7812  0.3179
  191MOL0     H26329  12.261   2.089   1.295  3.5732 -1.9036  0.8722
  191MOL0     H26330  12.075   1.846   1.246 -1.0854 -0.5842 -0.0141
  191MOL0     H26331  12.022   2.006   1.208 -0.2454 -1.1836  3.4191
  191MOL0     H26332  12.219   1.814   1.099 -1.2896 -0.1109  0.5804
  191MOL0     H26333  12.281   1.978   1.071  0.6161 -0.6354 -2.1110
  191MOL0     H26334  12.006   1.908   0.969 -0.8088 -0.2231  0.3103
  191MOL0     H26335  12.152   1.901   0.876  0.7586 -1.0295  0.5769
  191MOL0     H26336  12.036   2.142   1.030 -0.1516 -0.7559 -1.5432
  191MOL0     H26337  12.018   2.113   0.854 -1.1537  1.0816 -0.3797
  191MOL0     H26338  12.061   1.850   1.841  0.9895  2.0752 -0.8186
  191MOL0     H26339  11.895   1.795   2.015 -1.5923  0.2589  2.3795
  191MOL0     H26340  11.517   2.144   2.299  1.9385  0.1596  0.7214
  191MOL0     H26341  11.350   2.077   2.480  2.2157  0.8267  0.9855
  191MOL0     H26342  10.459   2.594   3.294  0.8159 -2.3298 -0.7588
  191MOL0     H26343  10.343   2.545   3.502 -0.4515  0.7178 -0.0293
  191MOL0     H26344   9.799   2.440   3.663  0.8945 -0.4232 -0.1907
  191MOL0     H26345   9.707   2.402   3.864 -0.2190 -0.2368  1.9726
  191MOL0     H26346   9.832   2.032   4.095 -0.8664  0.1284  0.3830
  191MOL0     H26347   9.910   2.142   4.210  2.1825 -1.7461 -2.1555
  191MOL0     H26348   9.607   2.073   4.166  0.1210  1.7360 -0.7628
  191MOL0     H26349   9.678   2.192   4.286 -1.6035 -1.3624  1.5427
  191MOL0     H26350   9.678   1.876   4.285  1.1618 -1.7956  1.5924
  191MOL0     H26351   9.805   1.963   4.372 -0.1411 -1.4195 -1.4586
  191MOL0     H26352   9.583   1.888   4.504 -0.8502 -0.5780  0.0643
  191MOL0     H26353   9.503   1.989   4.392  0.9548 -0.8943 -0.4598
  191MOL0     H26354   9.651   2.272   4.671  1.8441  1.7324 -1.8206
  191MOL0     H26355  10.020   2.134   3.989  0.2215 -1.5047 -1.7201
  191MOL0     H26356  10.239   2.292   3.806 -2.3590  0.4946  0.6823
  191MOL0     H26357  10.209   2.136   3.870  1.8228  0.8697 -0.4244
  191MOL0     H26358  10.210   2.157   3.689 -2.8570 -2.9911 -0.6504
  192MOL0     O26359  11.302   5.538   0.664 -0.3331  0.0038  0.6687
  192MOL0     C26360  11.379   5.460   0.606  0.9052 -0.0061  0.0676
  192MOL0     O26361  11.470   5.376   0.675 -0.3712 -0.9872  0.2905
  192MOL0     C26362  11.459   5.351   0.811  0.6297  0.0628  0.8871
  192MOL0     C26363  11.549   5.258   0.856  0.2518  0.9494 -0.1980
  192MOL0     C26364  11.563   5.225   0.994  0.1030 -0.6133  0.1765
  192MOL0     C26365  11.478   5.290   1.095  0.3853 -0.2669 -0.0160
  192MOL0     O26366  11.493   5.283   1.231  0.5611 -0.5311  0.1393
  192MOL0     C26367  11.586   5.187   1.283  0.3748 -0.1207  0.2044
  192MOL0     C26368  11.582   5.175   1.432  0.3269  0.3036  0.1938
  192MOL0     C26369  11.690   5.083   1.492  0.5579  0.4220 -0.6229
  192MOL0     C26370  11.709   5.113   1.642  0.1369 -0.4338 -0.5321
  192MOL0     C26371  11.823   5.039   1.700 -0.1023 -0.1513 -0.1704
  192MOL0     C26372  11.821   5.042   1.848 -0.0508 -0.8989 -0.5796
  192MOL0     C26373  11.933   4.967   1.919 -0.1724  0.1479  1.1543
  192MOL0     C26374  12.080   5.002   1.870 -0.9270  0.8716 -0.3151
  192MOL0     N26375  12.112   5.141   1.861  1.1376  0.4926 -0.2928
  192MOL0     C26376  12.092   5.229   1.753 -0.0866 -0.0025  0.3095
  192MOL0     C26377  12.085   5.348   1.816 -0.6684  0.3894 -0.3550
  192MOL0     C26378  12.067   5.479   1.743 -0.3341 -0.7473  0.8692
  192MOL0     C26379  11.965   5.571   1.807  0.5229 -0.8647 -0.7626
  192MOL0     C26380  11.963   5.714   1.753 -0.2481  0.4464 -0.5994
  192MOL0     C26381  11.837   5.796   1.797  0.2016  0.0638  0.3455
  192MOL0     O26382  11.863   5.929   1.760 -0.4659 -0.5312 -0.1890
  192MOL0     C26383  11.780   6.013   1.689  0.3946  0.3535  1.6501
  192MOL0     C26384  11.826   6.121   1.619  0.0339  0.3985  0.9013
  192MOL0     C26385  11.745   6.197   1.524 -1.0655 -0.3657 -1.0561
  192MOL0     C26386  11.820   6.304   1.447  0.2393 -0.4914 -0.0529
  192MOL0     C26387  11.610   6.161   1.497 -0.3356  0.9674 -0.4306
  192MOL0     C26388  11.534   6.218   1.385 -0.0074 -0.3574 -0.7327
  192MOL0     O26389  11.461   6.128   1.310 -0.3150 -0.2030 -0.3867
  192MOL0     C26390  11.369   6.177   1.224  0.0327 -0.8009  0.1182
  192MOL0     C26391  11.372   6.138   1.096  0.3817  0.8156 -0.3519
  192MOL0     C26392  11.267   6.171   1.011  0.2689  0.3642 -1.1376
  192MOL0     C26393  11.166   6.263   1.055  0.5589  0.2783 -0.4729
  192MOL0     O26394  11.067   6.286   0.958 -0.5222 -0.4887 -0.1129
  192MOL0     C26395  10.952   6.359   0.997  0.4418 -0.0541  0.8082
  192MOL0     C26396  10.833   6.331   0.901  0.4705  0.0053 -0.6085
  192MOL0     C26397  10.696   6.392   0.964 -0.2166 -0.2618  0.7707
  192MOL0     C26398  10.578   6.380   0.869  0.0442 -0.8391 -0.6358
  192MOL0     C26399  10.601   6.453   0.728  0.7785 -0.4552 -0.0269
  192MOL0     C26400  10.473   6.480   0.648 -0.2686  0.1853 -0.2706
  192MOL0     C26401  10.517   6.551   0.520  0.6094 -0.5282  0.4804
  192MOL0     C26402  10.415   6.551   0.410  0.9308  0.3670  0.9560
  192MOL0    Cl26403  10.269   6.634   0.467  0.4535  0.2564 -0.1389
  192MOL0     C26404  11.171   6.312   1.190 -0.6918 -0.0956 -0.0744
  192MOL0     C26405  11.271   6.264   1.273 -0.4641  0.5130 -0.0414
  192MOL0     O26406  11.542   6.342   1.365 -0.1959 -0.2151 -0.1433
  192MOL0     C26407  11.558   6.054   1.576 -0.1721  0.3176  0.3493
  192MOL0     C26408  11.641   5.981   1.666 -0.4307  0.1879  1.0708
  192MOL0     N26409  12.104   5.330   1.956 -0.4106 -0.5753 -0.0825
  192MOL0     N26410  12.116   5.207   1.979  0.5458  0.1514  0.2283
  192MOL0     C26411  11.380   5.371   1.039  0.1761  0.3850 -0.3558
  192MOL0     C26412  11.363   5.398   0.905  0.4616 -1.0528 -1.1420
  192MOL0     C26413  11.381   5.445   0.460 -0.2381  0.3733  0.6179
  192MOL0     C26414  11.450   5.339   0.398  0.3151 -0.0920 -0.0860
  192MOL0     C26415  11.470   5.333   0.264 -0.0589  0.1457 -0.3967
  192MOL0     C26416  11.417   5.421   0.173 -0.4207  0.9531  0.3108
  192MOL0     O26417  11.428   5.413   0.032  0.1670 -1.0084  0.0648
  192MOL0     C26418  11.489   5.519  -0.032  0.1954  0.0681  0.6356
  192MOL0     C26419  11.642   5.512  -0.003  0.7683  0.7266 -0.1899
  192MOL0     C26420  11.706   5.380  -0.056  0.5203 -0.5530 -0.2867
  192MOL0     C26421  11.842   5.374  -0.105  0.5243 -0.2785  1.1283
  192MOL0     C26422  11.941   5.368  -0.001  0.7980 -0.9448 -0.2872
  192MOL0     C26423  12.017   5.379   0.091 -0.4008  0.0973  0.7825
  192MOL0     C26424  11.339   5.523   0.232 -0.3155 -0.2725 -0.1058
  192MOL0     C26425  11.320   5.533   0.369 -0.4406 -0.4000 -0.9841
  192MOL0     C26426  11.223   5.647   0.404 -1.0933 -0.1382  0.2570
  192MOL0     H26427  11.612   5.203   0.787 -1.5267  0.2346 -1.3367
  192MOL0     H26428  11.645   5.160   1.023 -1.0818 -2.3871 -0.2847
  192MOL0     H26429  11.684   5.223   1.251 -0.7090  1.1799 -1.8745
  192MOL0     H26430  11.564   5.095   1.228  0.9111 -1.1301  1.6123
  192MOL0     H26431  11.590   5.278   1.469  1.5769  1.3291 -2.6964
  192MOL0     H26432  11.486   5.138   1.468 -0.3004  1.0837 -0.6496
  192MOL0     H26433  11.669   4.979   1.467  3.0241 -0.1348 -0.6162
  192MOL0     H26434  11.776   5.101   1.427 -1.9371  0.6874 -4.1113
  192MOL0     H26435  11.737   5.218   1.656  1.9144 -1.1063  1.2866
  192MOL0     H26436  11.611   5.102   1.689 -1.6155 -0.4026 -3.8636
  192MOL0     H26437  11.919   5.063   1.655  0.1956 -2.5272 -0.9752
  192MOL0     H26438  11.816   4.933   1.671 -0.5250  0.5652 -2.9524
  192MOL0     H26439  11.832   5.146   1.882  0.4238 -0.8763 -0.7975
  192MOL0     H26440  11.734   5.005   1.903  1.2251 -0.7577  1.6512
  192MOL0     H26441  11.911   4.860   1.921  0.2084  0.0642  2.6910
  192MOL0     H26442  11.927   4.994   2.025 -0.3700  0.4559  1.0665
  192MOL0     H26443  12.154   4.954   1.935 -1.7482  0.2661  0.1914
  192MOL0     H26444  12.085   4.960   1.769  1.3498  3.2895 -1.3227
  192MOL0     H26445  12.094   5.211   1.646  1.6258  0.0074  0.3078
  192MOL0     H26446  12.055   5.462   1.636  0.9933  0.0213  0.5780
  192MOL0     H26447  12.164   5.528   1.755 -0.4165 -0.7831  1.7767
  192MOL0     H26448  11.863   5.533   1.797 -0.3072  0.6567  1.2539
  192MOL0     H26449  11.986   5.590   1.913  3.1706  1.1120 -1.5448
  192MOL0     H26450  12.053   5.768   1.783 -0.2960 -0.5626  1.6023
  192MOL0     H26451  11.961   5.703   1.644 -1.6543 -3.7741 -0.3263
  192MOL0     H26452  11.739   5.759   1.765  0.0232 -0.9644  1.9518
  192MOL0     H26453  11.829   5.798   1.906  3.8705 -1.3908  0.8001
  192MOL0     H26454  11.926   6.164   1.628 -0.7974  2.1486  2.4583
  192MOL0     H26455  11.765   6.396   1.425 -0.4619 -1.4028 -2.4567
  192MOL0     H26456  11.836   6.256   1.350  0.0567  0.4248 -0.5497
  192MOL0     H26457  11.916   6.327   1.495 -0.3296 -0.9290  1.3479
  192MOL0     H26458  11.450   6.074   1.055  1.2831  3.9801 -4.1851
  192MOL0     H26459  11.242   6.133   0.913 -0.1249 -4.1608  0.4673
  192MOL0     H26460  10.914   6.329   1.096  0.7784 -1.5278  0.5207
  192MOL0     H26461  10.967   6.467   0.995  0.1639 -0.0030  1.3229
  192MOL0     H26462  10.839   6.361   0.796 -2.3905 -2.2299 -1.5304
  192MOL0     H26463  10.818   6.223   0.905  1.6304 -0.1345  1.5254
  192MOL0     H26464  10.707   6.498   0.989 -1.3210  0.9042 -3.0869
  192MOL0     H26465  10.678   6.341   1.059  1.1563 -0.2083  1.0950
  192MOL0     H26466  10.496   6.434   0.917  2.6175  2.2812  0.7046
  192MOL0     H26467  10.555   6.277   0.842 -0.7418 -1.1207  0.9674
  192MOL0     H26468  10.660   6.544   0.742  4.0767 -2.4401  0.2856
  192MOL0     H26469  10.658   6.386   0.663  1.6405 -0.1807  0.4288
  192MOL0     H26470  10.404   6.543   0.705  0.9864 -1.3091  3.2028
  192MOL0     H26471  10.419   6.388   0.623 -1.3846  1.2814 -2.0849
  192MOL0     H26472  10.614   6.521   0.479  1.4171  1.9088  0.4667
  192MOL0     H26473  10.538   6.654   0.551 -1.7468  0.2041 -0.1274
  192MOL0     H26474  10.384   6.449   0.389  0.7265  1.0721 -2.6753
  192MOL0     H26475  10.462   6.594   0.321 -0.3396  1.8164  0.9476
  192MOL0     H26476  11.108   6.391   1.229 -0.9483 -1.4297  2.3828
  192MOL0     H26477  11.269   6.279   1.381  1.3052  1.2788 -0.0885
  192MOL0     H26478  11.456   6.015   1.577 -0.3702  0.6604 -1.5099
  192MOL0     H26479  11.593   5.904   1.725 -1.0447  0.4911  0.9796
  192MOL0     H26480  11.307   5.411   1.109 -0.0649 -0.7506  0.0741
  192MOL0     H26481  11.274   5.452   0.875  0.2185 -0.5726  0.3830
  192MOL0     H26482  11.500   5.259   0.452 -1.8024 -2.6069 -1.5752
  192MOL0     H26483  11.540   5.256   0.232 -0.0367 -0.0362  0.0745
  192MOL0     H26484  11.483   5.506  -0.140 -2.6585 -0.4936  0.7764
  192MOL0     H26485  11.445   5.615  -0.004 -0.8977 -0.6457  1.4947
  192MOL0     H26486  11.682   5.535   0.096  2.5676  2.7308 -1.2966
  192MOL0     H26487  11.687   5.593  -0.062  3.1293 -2.1073 -2.5955
  192MOL0     H26488  11.697   5.299   0.017 -1.2691  0.1893  0.3702
  192MOL0     H26489  11.643   5.350  -0.140 -1.2798  2.1698 -0.0354
  192MOL0     H26490  11.869   5.456  -0.171  0.6269 -1.4337 -0.3072
  192MOL0     H26491  11.854   5.282  -0.162 -1.9129 -0.5141  0.9000
  192MOL0     H26492  12.099   5.402   0.157  0.4382  2.1655 -0.8616
  192MOL0     H26493  11.305   5.593   0.157  2.2443 -0.1870 -1.3221
  192MOL0     H26494  11.117   5.618   0.403 -1.3237  0.3164 -3.6704
  192MOL0     H26495  11.238   5.689   0.504  0.1239  2.9032 -1.0716
  192MOL0     H26496  11.231   5.734   0.338  1.4041  0.4237  1.1769
  193MOL0     O26497   4.524   2.375   8.918 -0.9543 -0.3963  0.3601
  193MOL0     C26498   4.483   2.386   9.033  0.2134 -0.1298 -0.0822
  193MOL0     O26499   4.544   2.364   9.156 -0.7328  0.4562  0.3194
  193MOL0     C26500   4.677   2.336   9.170 -0.0567 -0.4422 -0.0454
  193MOL0     C26501   4.715   2.325   9.304 -0.2578  0.4224 -0.9556
  193MOL0     C26502   4.845   2.319   9.346 -1.0346 -0.0957  0.6820
  193MOL0     C26503   4.945   2.332   9.250  0.0099  0.2414 -0.2450
  193MOL0     O26504   5.074   2.298   9.288  0.5821 -0.5525 -0.2032
  193MOL0     C26505   5.155   2.415   9.328 -0.2750  1.3210  0.2908
  193MOL0     C26506   5.294   2.385   9.266  0.1574 -0.0895  0.4971
  193MOL0     C26507   5.425   2.435   9.339  0.4270 -0.0954 -0.7500
  193MOL0     C26508   5.421   2.402   9.487 -0.3207  0.8454 -0.1275
  193MOL0     C26509   5.556   2.435   9.555 -0.1269  0.0750  0.8670
  193MOL0     C26510   5.588   2.587   9.536  0.4164  0.4438 -0.8050
  193MOL0     C26511   5.702   2.636   9.623  0.5992 -0.2707 -1.1057
  193MOL0     C26512   5.723   2.791   9.593 -1.1464 -0.3584  0.3558
  193MOL0     N26513   5.856   2.835   9.647 -0.4135 -0.3551 -0.4027
  193MOL0     C26514   5.866   2.922   9.755  0.8068  0.5113  0.5613
  193MOL0     C26515   5.996   2.932   9.765 -0.1201  0.0904 -0.5688
  193MOL0     C26516   6.064   3.032   9.864 -0.3252  0.3752  0.0686
  193MOL0     C26517   6.053   3.179   9.807  0.2482  0.8802  0.2563
  193MOL0     C26518   6.159   3.282   9.877 -0.8953  0.2164 -0.2710
  193MOL0     C26519   6.130   3.316  10.022 -0.4542  0.3926 -0.1455
  193MOL0     O26520   5.999   3.367  10.025 -0.2965  0.4756  0.0146
  193MOL0     C26521   5.979   3.421  10.151  0.0022 -0.3016 -0.5676
  193MOL0     C26522   6.012   3.373  10.277  1.3326  0.2164  0.6722
  193MOL0     C26523   5.994   3.434  10.399 -0.5173  0.6172 -0.0017
  193MOL0     C26524   6.058   3.370  10.517  0.3932  0.3574 -0.0255
  193MOL0     C26525   5.947   3.562  10.405 -0.0982  1.3888 -0.5420
  193MOL0     C26526   5.925   3.643  10.526 -0.3540  0.9408  0.5108
  193MOL0     O26527   5.911   3.774  10.504  0.3959 -0.1036  0.2252
  193MOL0     C26528   5.868   3.843  10.615 -0.3184  0.6525 -0.2382
  193MOL0     C26529   5.966   3.870  10.717 -1.3331  0.4688 -0.7842
  193MOL0     C26530   5.939   3.954  10.826 -0.0089 -0.7207 -0.5047
  193MOL0     C26531   5.810   4.011  10.839  0.1074  0.4079 -0.2468
  193MOL0     O26532   5.776   4.082  10.949 -0.8244  0.1348 -0.4696
  193MOL0     C26533   5.712   4.211  10.930  0.4444 -0.5822  0.3789
  193MOL0     C26534   5.704   4.289  11.065  0.5366  0.5644 -0.6772
  193MOL0     C26535   5.628   4.420  11.056 -0.0386 -0.1343 -0.1624
  193MOL0     C26536   5.716   4.538  11.010  0.2024  1.0737  0.5159
  193MOL0     C26537   5.646   4.672  11.005  0.1108 -0.0370  0.1020
  193MOL0     C26538   5.541   4.674  10.895  0.3374  0.5523  0.2512
  193MOL0     C26539   5.470   4.811  10.869  0.1205 -0.0030 -0.8516
  193MOL0     C26540   5.334   4.789  10.796 -0.5873 -0.4696 -0.1840
  193MOL0    Cl26541   5.365   4.675  10.658  0.2504  0.0961 -0.2344
  193MOL0     C26542   5.723   3.992  10.731  0.5317 -0.5029 -0.1275
  193MOL0     C26543   5.749   3.910  10.621 -0.0623 -0.3450  0.5229
  193MOL0     O26544   5.908   3.586  10.639  0.5082 -0.1553  0.7457
  193MOL0     C26545   5.905   3.618  10.279  0.7008  0.0460 -0.4481
  193MOL0     C26546   5.920   3.544  10.161 -0.8705  0.2074  0.5429
  193MOL0     N26547   6.068   2.858   9.678  0.4905  0.2079  0.0131
  193MOL0     N26548   5.978   2.792   9.609 -0.5632  0.4705 -0.3457
  193MOL0     C26549   4.911   2.334   9.113 -0.7440  0.8765 -0.0827
  193MOL0     C26550   4.776   2.340   9.069  0.0898 -0.5040  0.1563
  193MOL0     C26551   4.344   2.439   9.039  0.2564 -0.2008 -0.4221
  193MOL0     C26552   4.309   2.541   8.944 -0.4220  0.3971  0.1334
  193MOL0     C26553   4.184   2.602   8.943  0.7134  0.5197 -0.4521
  193MOL0     C26554   4.091   2.565   9.042 -0.4355 -0.4362 -0.4710
  193MOL0     O26555   3.961   2.626   9.053  0.1798  0.4214 -0.1993
  193MOL0     C26556   3.937   2.765   9.036  0.6933 -0.2245 -0.1028
  193MOL0     C26557   3.973   2.834   9.169  1.0865  0.9769  0.0670
  193MOL0     C26558   3.962   2.985   9.166 -0.8269 -0.2934 -0.2261
  193MOL0     C26559   4.084   3.046   9.094  0.2693 -0.4933  0.2755
  193MOL0     C26560   4.194   3.084   9.176  0.6675 -0.2235 -0.3121
  193MOL0     C26561   4.293   3.109   9.244 -0.5832  0.8953  0.2830
  193MOL0     C26562   4.126   2.465   9.129  1.2050  0.9273  0.0568
  193MOL0     C26563   4.251   2.406   9.136 -0.3374 -0.9876  1.0877
  193MOL0     C26564   4.275   2.295   9.243  0.4309 -0.2511  0.5137
  193MOL0     H26565   4.649   2.330   9.390 -1.4642  2.8337 -1.9247
  193MOL0     H26566   4.860   2.302   9.452  0.0750 -2.6376  0.2036
  193MOL0     H26567   5.162   2.404   9.436 -0.8418 -0.4276  0.1885
  193MOL0     H26568   5.112   2.513   9.305  0.7400  1.6847 -0.1199
  193MOL0     H26569   5.307   2.277   9.281  0.2695 -0.1937 -0.2982
  193MOL0     H26570   5.293   2.404   9.158 -0.6776 -1.0725  0.3134
  193MOL0     H26571   5.512   2.390   9.290 -1.5428 -1.4029 -3.2569
  193MOL0     H26572   5.429   2.543   9.321 -4.8038  0.5292  0.2093
  193MOL0     H26573   5.336   2.456   9.530 -1.9844  1.1177 -3.4628
  193MOL0     H26574   5.401   2.297   9.506  1.6594  0.7732  2.1641
  193MOL0     H26575   5.639   2.386   9.504  0.6069  3.3320 -1.4216
  193MOL0     H26576   5.548   2.406   9.660  1.4062  1.0824  1.2839
  193MOL0     H26577   5.617   2.608   9.432 -1.1224  1.0554 -1.1363
  193MOL0     H26578   5.499   2.645   9.561 -0.2412 -0.4604 -1.0080
  193MOL0     H26579   5.786   2.566   9.620 -0.0983 -1.1012 -1.5113
  193MOL0     H26580   5.676   2.630   9.729  1.3352  1.5384 -0.7810
  193MOL0     H26581   5.734   2.808   9.485 -0.2048  2.8201  0.8266
  193MOL0     H26582   5.639   2.848   9.635  1.0592  3.7175 -0.1819
  193MOL0     H26583   5.791   2.972   9.814  1.5020  1.1994  0.8724
  193MOL0     H26584   6.170   3.009   9.882 -1.0420 -1.6860  2.2026
  193MOL0     H26585   6.015   3.024   9.962  2.8251  0.9074  1.8271
  193MOL0     H26586   6.081   3.188   9.701 -1.9713  1.2458 -0.3556
  193MOL0     H26587   5.954   3.224   9.819  0.5316  1.3861  0.7091
  193MOL0     H26588   6.259   3.237   9.885  0.1436  2.4854  0.6083
  193MOL0     H26589   6.162   3.373   9.817 -1.5232  0.1092 -0.4721
  193MOL0     H26590   6.142   3.221  10.074  0.9757  1.4855  1.6475
  193MOL0     H26591   6.202   3.389  10.062 -0.8322 -0.2909  1.8963
  193MOL0     H26592   6.046   3.270  10.287 -0.5602 -0.3330  2.3109
  193MOL0     H26593   6.126   3.288  10.494 -0.5726 -0.1548 -1.1847
  193MOL0     H26594   5.981   3.316  10.574  0.7461  0.2391  0.3410
  193MOL0     H26595   6.101   3.442  10.586  2.3789  0.4822 -1.3299
  193MOL0     H26596   6.064   3.825  10.713  0.4052  3.0582  4.1388
  193MOL0     H26597   6.004   3.970  10.911 -0.2491 -0.4967 -0.3609
  193MOL0     H26598   5.771   4.260  10.853  0.6680 -3.8270 -1.7179
  193MOL0     H26599   5.608   4.208  10.896  0.5059  3.8078 -0.7766
  193MOL0     H26600   5.658   4.220  11.137 -3.0833  1.8413 -1.5587
  193MOL0     H26601   5.807   4.319  11.087  0.3698  1.5415 -1.1912
  193MOL0     H26602   5.587   4.438  11.156 -2.4309  1.2413 -1.2731
  193MOL0     H26603   5.543   4.413  10.988 -1.6101 -0.7926  1.7579
  193MOL0     H26604   5.740   4.515  10.905 -0.6282  2.0772  0.0882
  193MOL0     H26605   5.807   4.542  11.071 -1.1667 -0.1203  2.7730
  193MOL0     H26606   5.605   4.683  11.106  0.3733  1.7045  0.0518
  193MOL0     H26607   5.715   4.757  11.001 -1.7457  1.5153 -1.2489
  193MOL0     H26608   5.461   4.610  10.933 -0.5828  1.3269 -0.3250
  193MOL0     H26609   5.583   4.640  10.800  1.3080  3.3597 -0.4246
  193MOL0     H26610   5.543   4.879  10.825  1.5739 -0.0840  1.2888
  193MOL0     H26611   5.449   4.872  10.957  0.5921  1.0762 -1.4677
  193MOL0     H26612   5.287   4.883  10.766 -0.1884 -0.5333 -1.0605
  193MOL0     H26613   5.281   4.745  10.880  3.0746  1.1853  3.3313
  193MOL0     H26614   5.625   4.038  10.738  0.7168 -0.2263  0.7426
  193MOL0     H26615   5.679   3.887  10.541 -2.5156 -0.0501  2.4458
  193MOL0     H26616   5.849   3.711  10.279  1.0021  0.3603  3.4690
  193MOL0     H26617   5.884   3.592  10.070 -1.4838  1.1213  1.2408
  193MOL0     H26618   4.988   2.325   9.037 -0.3858  0.6801  0.2971
  193MOL0     H26619   4.752   2.332   8.964 -1.8299 -3.3187  0.7053
  193MOL0     H26620   4.371   2.574   8.861 -0.2384 -1.0197 -0.3195
  193MOL0     H26621   4.171   2.679   8.868 -1.4380  0.1043 -0.5668
  193MOL0     H26622   3.992   2.807   8.952  1.7857 -2.0903 -0.3854
  193MOL0     H26623   3.831   2.785   9.015  0.1971 -0.3328  1.9953
  193MOL0     H26624   4.068   2.794   9.204 -0.0130 -1.8182  0.1210
  193MOL0     H26625   3.893   2.795   9.233  0.4526 -0.0511 -1.3026
  193MOL0     H26626   3.865   3.009   9.121  0.6311  0.6177 -3.1609
  193MOL0     H26627   3.953   3.021   9.269  1.5360  0.8470 -0.3677
  193MOL0     H26628   4.053   3.139   9.045  0.2910  0.1014  1.3513
  193MOL0     H26629   4.132   2.977   9.024  0.4818 -0.5806  0.5062
  193MOL0     H26630   4.369   3.143   9.311 -1.2686  3.0495  0.0370
  193MOL0     H26631   4.044   2.435   9.193  0.1833  4.5913  0.7263
  193MOL0     H26632   4.309   2.199   9.202  1.5279  0.0317  0.7180
  193MOL0     H26633   4.357   2.329   9.308  0.9561 -0.5276  0.0129
  193MOL0     H26634   4.181   2.279   9.296  0.4308 -0.6720  0.3884
  194MOL0     O26635   4.371   1.430   6.645  0.8332 -0.1935 -0.4147
  194MOL0     C26636   4.466   1.508   6.662  0.4074  0.9056  0.8684
  194MOL0     O26637   4.494   1.582   6.774  1.1335  0.1518 -0.3859
  194MOL0     C26638   4.403   1.570   6.877 -0.1321 -0.3732  0.2845
  194MOL0     C26639   4.385   1.474   6.970 -0.7446  0.4473  0.5808
  194MOL0     C26640   4.298   1.502   7.074 -0.0727  0.8681  0.7531
  194MOL0     C26641   4.240   1.621   7.077  1.0900  0.6763  0.0653
  194MOL0     O26642   4.152   1.641   7.183 -0.5156  0.1738 -0.1570
  194MOL0     C26643   4.227   1.709   7.289 -0.0668 -0.3510  0.4450
  194MOL0     C26644   4.118   1.727   7.394 -0.2789 -0.3823 -0.2162
  194MOL0     C26645   4.052   1.594   7.448 -0.7118 -0.8849 -0.3938
  194MOL0     C26646   3.998   1.607   7.590 -0.2223  0.9836  0.4735
  194MOL0     C26647   3.868   1.518   7.609 -0.4183  1.0140  0.1433
  194MOL0     C26648   3.821   1.508   7.758 -0.0578  0.4422 -0.4214
  194MOL0     C26649   3.690   1.425   7.773 -0.3335  0.0503  0.2716
  194MOL0     C26650   3.720   1.270   7.753  0.1830 -0.2518  0.3557
  194MOL0     N26651   3.608   1.198   7.811  0.0115  0.5226  0.5716
  194MOL0     C26652   3.490   1.158   7.748 -0.2594 -0.6157 -0.6106
  194MOL0     C26653   3.409   1.102   7.840 -0.6249 -0.0220 -0.9735
  194MOL0     C26654   3.274   1.057   7.823 -0.5547 -0.2241 -0.4097
  194MOL0     C26655   3.249   0.909   7.790 -0.9103 -0.1373  0.2869
  194MOL0     C26656   3.300   0.815   7.893 -0.1126 -0.5328  0.9307
  194MOL0     C26657   3.242   0.678   7.861 -0.7154 -1.3866 -0.0561
  194MOL0     O26658   3.297   0.617   7.742 -0.1753  0.1676  0.1539
  194MOL0     C26659   3.272   0.479   7.729  0.7328 -0.3874  0.0245
  194MOL0     C26660   3.353   0.396   7.647 -0.4236 -0.1077 -0.5082
  194MOL0     C26661   3.333   0.259   7.621  0.0071  0.3617 -0.3285
  194MOL0     C26662   3.434   0.177   7.544 -0.7574 -0.1095  0.0846
  194MOL0     C26663   3.216   0.200   7.697  0.0682 -0.1305 -0.0035
  194MOL0     C26664   3.181   0.054   7.697  0.4505  0.2737  0.8681
  194MOL0     O26665   3.113   0.024   7.808  0.0877 -0.0470  0.5249
  194MOL0     C26666   3.086  -0.112   7.833  0.7228  0.5800  0.1519
  194MOL0     C26667   2.989  -0.186   7.766  0.3413  0.8050  0.6762
  194MOL0     C26668   2.959  -0.326   7.782 -0.8536 -0.0573 -0.3468
  194MOL0     C26669   3.036  -0.398   7.874  0.4622 -0.2579  0.0706
  194MOL0     O26670   3.026  -0.536   7.883  0.4202 -0.6481  0.4247
  194MOL0     C26671   3.044  -0.591   8.016 -0.6366  0.2574  0.2463
  194MOL0     C26672   2.981  -0.732   8.029  0.0029 -0.2763 -0.0974
  194MOL0     C26673   2.994  -0.806   8.164  0.2475 -0.5037  0.0446
  194MOL0     C26674   2.891  -0.920   8.183  0.7103 -0.2654 -0.3153
  194MOL0     C26675   2.920  -0.991   8.322  0.6702  0.2232  0.7937
  194MOL0     C26676   2.861  -0.925   8.451 -0.3549 -0.5226 -0.3180
  194MOL0     C26677   2.910  -0.997   8.580 -0.2301 -0.5697 -0.1249
  194MOL0     C26678   2.872  -0.932   8.716  0.5573 -0.5862 -0.7917
  194MOL0    Cl26679   2.694  -0.962   8.760 -0.8761  0.1396 -0.0107
  194MOL0     C26680   3.136  -0.323   7.948  0.2535 -0.7143  0.5786
  194MOL0     C26681   3.159  -0.187   7.920  0.4191  0.8960  0.1840
  194MOL0     O26682   3.206  -0.021   7.602 -0.6178 -0.0611  0.5465
  194MOL0     C26683   3.137   0.292   7.771 -0.1458 -0.3694 -0.0017
  194MOL0     C26684   3.154   0.427   7.780  0.4073  0.3278  0.7610
  194MOL0     N26685   3.479   1.109   7.962  0.2432 -0.5065 -0.0446
  194MOL0     N26686   3.596   1.165   7.945 -0.0661 -0.1600 -0.2258
  194MOL0     C26687   4.255   1.717   6.989 -0.3855 -0.2834  0.6182
  194MOL0     C26688   4.329   1.684   6.874  0.3456 -0.1445 -0.3093
  194MOL0     C26689   4.568   1.497   6.551 -0.7834  0.4432  0.1235
  194MOL0     C26690   4.697   1.544   6.576 -0.8602  1.6636 -0.3229
  194MOL0     C26691   4.797   1.525   6.481  0.2009  0.6850  0.9082
  194MOL0     C26692   4.779   1.465   6.353  0.4294  0.2328  0.2286
  194MOL0     O26693   4.867   1.451   6.248  0.0945  0.0880 -0.2682
  194MOL0     C26694   4.999   1.517   6.246 -0.5136  0.0908 -0.0346
  194MOL0     C26695   5.112   1.398   6.266 -0.0920 -0.5095 -0.8361
  194MOL0     C26696   5.107   1.299   6.148 -0.0213  0.2665 -0.8064
  194MOL0     C26697   5.224   1.191   6.140  0.0674 -0.3987 -0.5199
  194MOL0     C26698   5.279   1.136   6.266  0.4273  0.2360  0.4931
  194MOL0     C26699   5.331   1.086   6.363  0.2765  0.3022  0.1229
  194MOL0     C26700   4.641   1.440   6.323 -0.2233 -0.0353 -0.3627
  194MOL0     C26701   4.542   1.452   6.422 -0.3777 -0.1295  0.0331
  194MOL0     C26702   4.407   1.440   6.367  0.6925 -0.5478  0.4276
  194MOL0     H26703   4.424   1.375   6.948 -1.3557  0.0824  1.1002
  194MOL0     H26704   4.284   1.420   7.144  1.8941  0.0732  0.3033
  194MOL0     H26705   4.267   1.805   7.255  0.3636 -0.6865 -0.0296
  194MOL0     H26706   4.314   1.651   7.323  0.2976 -1.4258 -2.1169
  194MOL0     H26707   4.167   1.775   7.480 -1.8939 -1.6354  1.4923
  194MOL0     H26708   4.043   1.791   7.346 -0.7288 -1.4515 -0.9716
  194MOL0     H26709   3.974   1.571   7.375 -0.7779  0.5592 -0.8126
  194MOL0     H26710   4.128   1.515   7.442  0.5777  0.4353 -2.7193
  194MOL0     H26711   4.077   1.574   7.658 -1.6521 -4.1480  0.1050
  194MOL0     H26712   3.961   1.708   7.605 -0.5459  0.9903 -0.2943
  194MOL0     H26713   3.885   1.414   7.581  0.9502  0.9865  0.9520
  194MOL0     H26714   3.785   1.565   7.556 -3.0037 -2.2481  0.9777
  194MOL0     H26715   3.902   1.465   7.817 -0.4522 -1.7288 -1.3689
  194MOL0     H26716   3.807   1.613   7.787  2.8521  0.3282  1.9725
  194MOL0     H26717   3.610   1.456   7.706 -1.7704 -1.2786  1.3093
  194MOL0     H26718   3.656   1.452   7.874  2.0753  2.7713  0.5000
  194MOL0     H26719   3.728   1.250   7.646 -0.9214 -2.5024  0.6243
  194MOL0     H26720   3.815   1.242   7.799  1.1999 -2.3843 -2.7174
  194MOL0     H26721   3.460   1.174   7.644  0.9615 -1.5321 -1.1296
  194MOL0     H26722   3.228   1.119   7.746 -1.3786 -0.8801 -0.4606
  194MOL0     H26723   3.220   1.078   7.916  2.1165 -1.4205  1.5413
  194MOL0     H26724   3.140   0.898   7.791 -0.9918  0.6731  0.7457
  194MOL0     H26725   3.292   0.880   7.693 -0.3738 -2.0948  1.0696
  194MOL0     H26726   3.408   0.802   7.878 -0.2318 -0.3223 -0.2276
  194MOL0     H26727   3.278   0.837   7.998  0.6322 -0.7016  1.1321
  194MOL0     H26728   3.256   0.606   7.943 -0.9694 -3.1272 -1.4864
  194MOL0     H26729   3.135   0.687   7.839 -0.4894 -1.0383 -1.0415
  194MOL0     H26730   3.445   0.444   7.615  0.0108  0.9859  2.1634
  194MOL0     H26731   3.490   0.106   7.605 -1.2370 -0.9733 -0.4539
  194MOL0     H26732   3.504   0.247   7.497 -0.4081  0.0183  0.7876
  194MOL0     H26733   3.384   0.116   7.468  0.7465 -1.3088  0.0067
  194MOL0     H26734   2.937  -0.122   7.695  0.3367  1.3153  1.1284
  194MOL0     H26735   2.896  -0.376   7.709 -0.4751  0.4177 -1.0178
  194MOL0     H26736   3.150  -0.594   8.040  0.0515 -1.5419 -2.4893
  194MOL0     H26737   2.988  -0.536   8.092 -1.7976  0.7829 -0.9457
  194MOL0     H26738   2.877  -0.729   7.996  0.6754 -1.8122 -2.7058
  194MOL0     H26739   3.024  -0.796   7.951  1.6347 -0.8077  1.1687
  194MOL0     H26740   2.970  -0.737   8.246  0.6734 -3.3842  2.8067
  194MOL0     H26741   3.098  -0.829   8.188  0.1921  1.5506  2.8524
  194MOL0     H26742   2.896  -0.998   8.107  0.1868 -0.7645  0.1489
  194MOL0     H26743   2.787  -0.887   8.175  0.7673  0.3991  1.2553
  194MOL0     H26744   2.881  -1.093   8.313  3.2893 -1.0378  2.5409
  194MOL0     H26745   3.028  -1.004   8.337  0.5541  0.7707  2.1541
  194MOL0     H26746   2.752  -0.935   8.454 -0.6597  2.0524 -0.6694
  194MOL0     H26747   2.895  -0.821   8.459  1.8263 -1.2048  0.1127
  194MOL0     H26748   3.019  -0.998   8.571  0.3409 -0.6077  4.5125
  194MOL0     H26749   2.882  -1.103   8.574 -1.1890 -0.4713  1.8703
  194MOL0     H26750   2.882  -0.823   8.704 -1.7846 -0.2200  0.1272
  194MOL0     H26751   2.928  -0.975   8.799  0.7626 -1.3692 -1.3233
  194MOL0     H26752   3.200  -0.373   8.020  0.8128  1.0747  1.3681
  194MOL0     H26753   3.237  -0.127   7.967  0.8531  0.5033 -0.0241
  194MOL0     H26754   3.055   0.258   7.833  0.8924 -0.5855  1.2945
  194MOL0     H26755   3.072   0.483   7.822  0.3543 -0.5186  1.8500
  194MOL0     H26756   4.202   1.812   6.998  0.2243  0.0347  0.9026
  194MOL0     H26757   4.328   1.752   6.790 -1.0776  2.3681  1.5933
  194MOL0     H26758   4.723   1.582   6.674 -0.6202 -3.0911  1.7135
  194MOL0     H26759   4.898   1.560   6.496  0.3016  0.1403  1.5760
  194MOL0     H26760   4.997   1.570   6.151  0.0065 -0.3204 -0.2783
  194MOL0     H26761   5.009   1.575   6.339  1.5455  0.5116 -0.4671
  194MOL0     H26762   5.105   1.348   6.363  5.1895  4.0579  2.5702
  194MOL0     H26763   5.209   1.449   6.266 -0.0386 -0.6128 -0.8322
  194MOL0     H26764   5.021   1.234   6.162 -0.3093  0.7009 -0.5444
  194MOL0     H26765   5.095   1.343   6.048  1.0358 -1.3715 -1.6927
  194MOL0     H26766   5.309   1.236   6.087 -0.9559  0.9785 -1.0307
  194MOL0     H26767   5.183   1.109   6.081 -1.1701 -0.7201  0.7339
  194MOL0     H26768   5.360   1.063   6.464 -1.6601 -0.0706  0.6238
  194MOL0     H26769   4.612   1.408   6.223  0.9815 -1.5819 -0.2585
  194MOL0     H26770   4.408   1.481   6.266  1.7122 -0.8385  0.3121
  194MOL0     H26771   4.370   1.337   6.369 -2.1127  0.3519 -0.2197
  194MOL0     H26772   4.329   1.495   6.420 -0.6391 -1.4108 -0.5675
  195MOL0     O26773   1.954   6.193   6.005 -0.4322 -0.8127  0.0329
  195MOL0     C26774   1.915   6.305   6.055 -0.0873 -0.9118  0.2580
  195MOL0     O26775   1.861   6.322   6.178  0.0651 -0.0466 -0.0689
  195MOL0     C26776   1.845   6.211   6.267  0.3697  0.3288  0.0113
  195MOL0     C26777   1.884   6.233   6.398 -0.2025  0.4741  0.0528
  195MOL0     C26778   1.900   6.129   6.482  0.2884  0.2215  1.0984
  195MOL0     C26779   1.859   5.996   6.444  0.0816 -0.1689 -0.0222
  195MOL0     O26780   1.865   5.882   6.525 -0.2957  0.0878 -0.6192
  195MOL0     C26781   1.951   5.886   6.647 -0.4154  0.3322  0.2663
  195MOL0     C26782   2.010   5.748   6.682 -0.1863  1.2780  0.6903
  195MOL0     C26783   2.124   5.743   6.780 -0.4739  0.3613  0.9871
  195MOL0     C26784   2.182   5.601   6.776 -0.2465 -0.2644  0.7640
  195MOL0     C26785   2.315   5.605   6.846 -0.0883 -0.2614 -0.8698
  195MOL0     C26786   2.376   5.466   6.874  0.1327 -0.3313  0.2054
  195MOL0     C26787   2.521   5.471   6.929  0.3804 -0.1910 -0.2588
  195MOL0     C26788   2.532   5.557   7.050  1.1079 -0.0295 -0.3316
  195MOL0     N26789   2.649   5.547   7.126 -0.3833 -0.2028 -0.8710
  195MOL0     C26790   2.661   5.469   7.245  0.0372  0.3193  0.9089
  195MOL0     C26791   2.794   5.439   7.256 -0.5109  0.6487  0.0559
  195MOL0     C26792   2.848   5.371   7.381 -0.1894  0.3306  0.6045
  195MOL0     C26793   2.858   5.219   7.368  0.9328  0.3601 -0.3095
  195MOL0     C26794   2.893   5.156   7.499  0.7175  0.0411 -0.3969
  195MOL0     C26795   2.871   5.003   7.508  0.4949 -0.1789 -0.2498
  195MOL0     O26796   2.950   4.948   7.408  0.8103  0.1658 -0.4000
  195MOL0     C26797   2.894   4.844   7.335 -0.4085  0.7544 -0.8049
  195MOL0     C26798   2.831   4.740   7.401  0.7643 -0.1150 -0.3965
  195MOL0     C26799   2.765   4.642   7.336 -0.1539  0.3434  0.7072
  195MOL0     C26800   2.693   4.536   7.428 -0.7047  0.5977  0.7213
  195MOL0     C26801   2.763   4.644   7.189 -1.2149  0.2436  0.4295
  195MOL0     C26802   2.681   4.550   7.108  0.1736  0.7405  0.0806
  195MOL0     O26803   2.714   4.549   6.976 -0.3546  0.8672  0.7306
  195MOL0     C26804   2.662   4.466   6.890 -0.0450  0.1089 -0.3154
  195MOL0     C26805   2.560   4.497   6.803 -0.0063 -0.4685 -0.4721
  195MOL0     C26806   2.509   4.408   6.715 -0.3227  0.3467  0.3518
  195MOL0     C26807   2.542   4.273   6.725 -0.8651  0.6548 -0.1646
  195MOL0     O26808   2.476   4.175   6.653 -0.1471  0.0498  0.9490
  195MOL0     C26809   2.550   4.053   6.613  0.3900 -0.3528  0.4266
  195MOL0     C26810   2.549   3.958   6.721 -0.4200  0.1393 -0.8591
  195MOL0     C26811   2.682   3.873   6.725 -0.0226 -0.2075 -0.1076
  195MOL0     C26812   2.692   3.775   6.846 -0.1406 -0.4696 -0.3248
  195MOL0     C26813   2.825   3.691   6.845 -0.7188 -0.3100 -0.6976
  195MOL0     C26814   2.847   3.602   6.978  0.0355  0.0080  0.0834
  195MOL0     C26815   2.993   3.577   7.025  0.3477  0.2016 -0.7538
  195MOL0     C26816   3.080   3.498   6.932 -0.4481 -0.1730 -0.0869
  195MOL0    Cl26817   3.105   3.577   6.776  0.2108  0.3046  0.2031
  195MOL0     C26818   2.653   4.249   6.808  0.7405  0.7227 -0.2355
  195MOL0     C26819   2.705   4.338   6.895  0.3029  0.1136  0.0697
  195MOL0     O26820   2.586   4.482   7.162 -0.1822 -0.0371 -0.4206
  195MOL0     C26821   2.826   4.755   7.128 -0.1460  0.3938  0.1676
  195MOL0     C26822   2.897   4.852   7.197 -0.4459 -0.0747 -0.6386
  195MOL0     N26823   2.853   5.508   7.152 -0.3631  0.5505 -0.0897
  195MOL0     N26824   2.773   5.561   7.076 -0.5926 -0.2839 -0.4173
  195MOL0     C26825   1.810   5.973   6.313 -0.6622  0.0794 -0.3489
  195MOL0     C26826   1.806   6.079   6.224 -0.0947  1.1691  0.2775
  195MOL0     C26827   1.954   6.420   5.980  0.6788 -0.1472  1.0078
  195MOL0     C26828   1.997   6.533   6.057  0.1123  1.1967  0.4159
  195MOL0     C26829   2.053   6.642   6.008  0.1461 -0.5220  0.6820
  195MOL0     C26830   2.061   6.655   5.871 -0.5191  0.4836  0.7591
  195MOL0     O26831   2.115   6.768   5.819 -0.2349  0.3664  0.3405
  195MOL0     C26832   2.188   6.748   5.697 -0.4967  0.3580  0.6596
  195MOL0     C26833   2.253   6.884   5.665 -0.1492  0.1674 -0.1715
  195MOL0     C26834   2.378   6.902   5.744  0.1041  0.4640  0.3041
  195MOL0     C26835   2.507   6.820   5.703 -0.2211 -0.1441 -0.3658
  195MOL0     C26836   2.548   6.858   5.570 -0.4985  0.0305 -0.2367
  195MOL0     C26837   2.570   6.897   5.452 -0.0850  0.8336  0.0550
  195MOL0     C26838   2.008   6.557   5.785 -0.0698 -0.8549  0.9276
  195MOL0     C26839   1.954   6.439   5.838  0.4614 -0.4318 -1.1976
  195MOL0     C26840   1.911   6.332   5.749 -1.1002  0.6003  0.6981
  195MOL0     H26841   1.897   6.336   6.428  2.2373  0.0167  0.8506
  195MOL0     H26842   1.923   6.140   6.587  0.9655  1.0740  0.8680
  195MOL0     H26843   1.891   5.912   6.735 -0.3511 -3.3414  1.5617
  195MOL0     H26844   2.029   5.957   6.622 -2.2648  2.0541 -0.9679
  195MOL0     H26845   1.924   5.688   6.714  0.2687  0.5761  0.6213
  195MOL0     H26846   2.043   5.701   6.590  0.4997  0.3294  1.4026
  195MOL0     H26847   2.199   5.813   6.742 -1.9597  1.7876  0.5819
  195MOL0     H26848   2.089   5.769   6.880  0.2997  5.4589  0.1748
  195MOL0     H26849   2.121   5.520   6.817  0.8665 -1.7451 -0.3794
  195MOL0     H26850   2.182   5.577   6.669 -3.1286 -0.1203  0.6522
  195MOL0     H26851   2.300   5.656   6.941 -0.4842 -3.0031  0.6645
  195MOL0     H26852   2.392   5.650   6.782 -2.2850  0.1207 -3.3919
  195MOL0     H26853   2.307   5.421   6.946  0.7785 -0.2771  0.8752
  195MOL0     H26854   2.378   5.412   6.779  2.7166  2.9301 -1.8402
  195MOL0     H26855   2.597   5.514   6.863  2.1228  1.4525  2.6527
  195MOL0     H26856   2.552   5.369   6.951 -0.8888 -0.0576  2.5255
  195MOL0     H26857   2.534   5.664   7.028 -0.7437  0.8292  2.9705
  195MOL0     H26858   2.453   5.528   7.120  4.1069 -3.2057  2.0525
  195MOL0     H26859   2.585   5.440   7.318  0.6615 -1.4572  0.9135
  195MOL0     H26860   2.776   5.408   7.454  0.2606  0.5167  0.9535
  195MOL0     H26861   2.941   5.423   7.406  1.0810 -1.2408 -0.5665
  195MOL0     H26862   2.763   5.182   7.327  1.1623 -1.5867  0.7722
  195MOL0     H26863   2.928   5.183   7.291  2.7122  3.0732 -0.0999
  195MOL0     H26864   2.997   5.180   7.523  0.3053  0.5452  0.9372
  195MOL0     H26865   2.827   5.196   7.577  0.7135 -1.9782  0.6989
  195MOL0     H26866   2.900   4.967   7.607  0.9439 -2.1945 -1.0700
  195MOL0     H26867   2.768   4.973   7.487  1.0762 -3.7254  1.2761
  195MOL0     H26868   2.833   4.745   7.510 -1.4311  0.0667 -0.3168
  195MOL0     H26869   2.716   4.565   7.531 -0.2497  0.0664  0.7729
  195MOL0     H26870   2.725   4.435   7.404  0.8765  0.8066  1.8257
  195MOL0     H26871   2.583   4.535   7.424 -0.6985  1.2955  0.0252
  195MOL0     H26872   2.525   4.599   6.804  2.0652  0.3101 -1.6458
  195MOL0     H26873   2.442   4.436   6.634  1.0136  1.5678 -0.3648
  195MOL0     H26874   2.497   4.005   6.530  0.0550  1.6098 -0.5640
  195MOL0     H26875   2.651   4.070   6.575  0.7957  0.7670  1.9242
  195MOL0     H26876   2.548   4.008   6.818  2.4296 -0.3576 -0.4859
  195MOL0     H26877   2.464   3.889   6.722 -1.7860  1.7486  0.2661
  195MOL0     H26878   2.769   3.939   6.722 -0.9017  1.2612  2.5382
  195MOL0     H26879   2.685   3.818   6.631  2.8697  0.1674 -0.3310
  195MOL0     H26880   2.607   3.707   6.850  1.1809 -2.1860 -0.3879
  195MOL0     H26881   2.690   3.831   6.940  0.8224 -1.8170  0.5296
  195MOL0     H26882   2.822   3.623   6.760 -0.9165 -0.5189 -0.5247
  195MOL0     H26883   2.910   3.757   6.826 -0.6441 -0.2797 -0.2543
  195MOL0     H26884   2.800   3.505   6.960  0.3468 -0.1631  0.1933
  195MOL0     H26885   2.800   3.661   7.057 -0.9207  0.8529 -1.0740
  195MOL0     H26886   2.976   3.527   7.121  2.2895  2.8222  1.1398
  195MOL0     H26887   3.044   3.669   7.057  0.2611  0.2510 -0.7558
  195MOL0     H26888   3.037   3.398   6.920  0.4028 -0.5572  0.0487
  195MOL0     H26889   3.175   3.488   6.984  0.1776  2.2435 -0.6630
  195MOL0     H26890   2.697   4.150   6.819  0.8220  0.6422 -1.2217
  195MOL0     H26891   2.787   4.309   6.960  1.9545  0.6391 -1.6601
  195MOL0     H26892   2.815   4.770   7.022  1.9442  1.0484 -0.0123
  195MOL0     H26893   2.950   4.935   7.151  0.0905  0.2084  0.4519
  195MOL0     H26894   1.777   5.871   6.297 -1.2619 -0.3131  2.7764
  195MOL0     H26895   1.783   6.073   6.119 -1.2130  0.4314  0.5413
  195MOL0     H26896   1.996   6.532   6.166 -0.9133 -0.1492  0.4066
  195MOL0     H26897   2.081   6.723   6.075  1.8652  1.2323 -1.9616
  195MOL0     H26898   2.270   6.676   5.706 -1.0079 -0.4252 -0.7194
  195MOL0     H26899   2.115   6.731   5.618  1.5473  4.8950 -2.6051
  195MOL0     H26900   2.186   6.966   5.693  1.2668  2.0128 -1.9498
  195MOL0     H26901   2.269   6.911   5.561 -2.8058  1.9245 -0.2186
  195MOL0     H26902   2.415   7.005   5.745  2.9599 -0.4667 -1.0009
  195MOL0     H26903   2.344   6.875   5.844 -3.2891  0.0461 -0.8072
  195MOL0     H26904   2.497   6.711   5.715 -0.5866 -0.2958 -1.8063
  195MOL0     H26905   2.596   6.839   5.764 -1.3401 -3.1452  2.5014
  195MOL0     H26906   2.573   6.930   5.350  1.7414  3.1041  0.7556
  195MOL0     H26907   2.017   6.576   5.679  0.9132 -1.2514  0.9361
  195MOL0     H26908   1.988   6.256   5.736 -0.5867  1.1992  0.2334
  195MOL0     H26909   1.826   6.274   5.787 -1.9563 -0.2236 -2.1981
  195MOL0     H26910   1.887   6.386   5.658 -1.2720  0.5236  0.6965
  196MOL0     O26911   6.734   3.075   7.650 -0.3803  0.1904 -0.4373
  196MOL0     C26912   6.768   3.003   7.555  0.4432  0.3889  1.5530
  196MOL0     O26913   6.690   2.977   7.441 -0.2515 -0.1225  0.4293
  196MOL0     C26914   6.575   3.051   7.411 -0.5367 -0.0960  0.6427
  196MOL0     C26915   6.586   3.146   7.318 -0.2640 -0.3314  0.3044
  196MOL0     C26916   6.472   3.202   7.255  0.1122 -0.9205  0.4609
  196MOL0     C26917   6.345   3.160   7.298  0.2108  0.4138 -0.0505
  196MOL0     O26918   6.231   3.185   7.222 -0.0143  0.6046 -1.1152
  196MOL0     C26919   6.248   3.214   7.085 -0.2882  0.0169  0.4253
  196MOL0     C26920   6.140   3.140   7.014  0.2202 -0.0518  0.2409
  196MOL0     C26921   6.006   3.212   7.037  0.2893  0.0948  0.0377
  196MOL0     C26922   5.901   3.124   6.965  0.5770 -0.3182 -0.7200
  196MOL0     C26923   5.752   3.160   7.013  0.5683 -1.0724  0.1756
  196MOL0     C26924   5.659   3.094   6.913  0.0032 -0.0535  0.3593
  196MOL0     C26925   5.516   3.145   6.935 -0.4887 -0.3246  0.4964
  196MOL0     C26926   5.458   3.091   7.062 -0.3334  0.0285 -0.1765
  196MOL0     N26927   5.380   2.968   7.036  0.4434  0.1265 -0.1102
  196MOL0     C26928   5.398   2.835   7.063  0.3943  0.5454  0.9197
  196MOL0     C26929   5.278   2.772   7.042 -0.2710 -0.2675  0.1930
  196MOL0     C26930   5.248   2.632   7.070 -0.0761 -0.2516  0.6198
  196MOL0     C26931   5.095   2.595   7.028 -0.4321 -0.1657  1.1729
  196MOL0     C26932   5.066   2.463   7.101  0.0665  0.2291  0.5263
  196MOL0     C26933   4.917   2.427   7.066  0.7678 -0.0853  0.1186
  196MOL0     O26934   4.879   2.334   7.164  0.4710 -0.0270  0.0405
  196MOL0     C26935   4.756   2.281   7.160  0.0136  0.0506 -0.1604
  196MOL0     C26936   4.728   2.201   7.272  0.2575 -0.3712  1.0057
  196MOL0     C26937   4.595   2.156   7.299 -0.5072  1.0367 -0.7067
  196MOL0     C26938   4.600   2.055   7.411 -0.6539  0.5130  0.3661
  196MOL0     C26939   4.488   2.186   7.219  0.3376 -0.0507 -0.0113
  196MOL0     C26940   4.343   2.137   7.237 -0.6404 -0.4780  1.1003
  196MOL0     O26941   4.248   2.180   7.146 -0.5143  0.1981 -0.2129
  196MOL0     C26942   4.112   2.159   7.167 -0.0560  0.8915 -0.0055
  196MOL0     C26943   4.037   2.182   7.056  0.9336 -0.5316  0.1068
  196MOL0     C26944   3.897   2.161   7.061 -0.0856  0.2826  0.3439
  196MOL0     C26945   3.835   2.119   7.177 -0.5248  0.3334 -0.0538
  196MOL0     O26946   3.703   2.082   7.174  0.2551  0.2253 -0.3637
  196MOL0     C26947   3.665   1.943   7.136 -0.1030  0.1695 -0.3641
  196MOL0     C26948   3.515   1.939   7.121 -0.0617 -0.8008 -0.1185
  196MOL0     C26949   3.488   1.925   6.974 -0.4194 -0.9540  0.1391
  196MOL0     C26950   3.537   2.044   6.884  0.5472 -0.0175  0.2946
  196MOL0     C26951   3.497   2.006   6.733  0.1015  0.3182 -0.5875
  196MOL0     C26952   3.576   1.884   6.686  0.5216 -0.1500 -1.1983
  196MOL0     C26953   3.501   1.780   6.604  0.2932 -0.4619  0.1358
  196MOL0     C26954   3.390   1.710   6.687 -0.0389  0.0102 -0.5812
  196MOL0    Cl26955   3.444   1.604   6.807 -0.3376 -0.1626  0.6419
  196MOL0     C26956   3.914   2.096   7.288 -0.2468  0.3483 -0.9744
  196MOL0     C26957   4.052   2.117   7.283  0.3406 -0.0377 -0.4704
  196MOL0     O26958   4.324   2.039   7.305  0.4857 -0.2375  0.0798
  196MOL0     C26959   4.513   2.270   7.106  0.3338 -0.2862 -0.7917
  196MOL0     C26960   4.648   2.322   7.083 -0.1105 -0.3534  0.7811
  196MOL0     N26961   5.192   2.870   7.000  0.1379  0.2369 -0.7737
  196MOL0     N26962   5.250   2.981   7.000 -0.2924  0.1837 -0.2381
  196MOL0     C26963   6.334   3.072   7.404 -0.2274 -0.4704 -0.0640
  196MOL0     C26964   6.449   3.017   7.470  0.6794  0.1011 -0.0636
  196MOL0     C26965   6.891   2.920   7.583 -0.2223  0.9142  1.5914
  196MOL0     C26966   6.900   2.791   7.520 -0.0378 -0.3278  0.0681
  196MOL0     C26967   7.001   2.705   7.555  0.5207  0.4581 -0.7628
  196MOL0     C26968   7.108   2.734   7.637 -0.3360 -0.7904 -0.7101
  196MOL0     O26969   7.222   2.657   7.663  0.8674 -0.7812 -0.0360
  196MOL0     C26970   7.256   2.534   7.598  1.6717  0.3592 -0.3538
  196MOL0     C26971   7.201   2.412   7.672  0.9032 -0.2307  0.4001
  196MOL0     C26972   7.158   2.424   7.821  0.4113 -0.1907  0.1124
  196MOL0     C26973   7.280   2.446   7.914  0.1798  1.1735  0.7799
  196MOL0     C26974   7.234   2.474   8.055  0.3653 -0.3630 -0.2452
  196MOL0     C26975   7.193   2.509   8.164 -0.0175 -0.1841  0.1997
  196MOL0     C26976   7.104   2.862   7.697 -0.7589  0.5558  0.5936
  196MOL0     C26977   6.998   2.949   7.674  0.4727  0.3300  0.0933
  196MOL0     C26978   7.013   3.080   7.750  0.2877 -0.4492  0.0785
  196MOL0     H26979   6.683   3.175   7.280 -0.8767  0.4476 -0.7669
  196MOL0     H26980   6.492   3.272   7.175  2.0084 -0.5566  1.2057
  196MOL0     H26981   6.344   3.190   7.037 -2.5898  0.9128 -5.5539
  196MOL0     H26982   6.233   3.319   7.057  2.6660  0.6673  0.9261
  196MOL0     H26983   6.165   3.128   6.908 -1.8256 -3.7502  0.0169
  196MOL0     H26984   6.128   3.044   7.065 -0.8678 -1.0688 -1.8267
  196MOL0     H26985   5.983   3.215   7.144  1.1995 -1.5784  0.2988
  196MOL0     H26986   6.010   3.316   7.003  2.1924 -0.0274 -0.1855
  196MOL0     H26987   5.898   3.148   6.859 -3.4817 -0.7152 -0.8530
  196MOL0     H26988   5.911   3.015   6.974 -0.3973 -0.4740 -1.4070
  196MOL0     H26989   5.730   3.267   7.009  1.8456 -0.7985 -4.0432
  196MOL0     H26990   5.730   3.114   7.110  0.3901 -1.9907 -0.2951
  196MOL0     H26991   5.693   3.122   6.813  1.6589  0.5054  1.0430
  196MOL0     H26992   5.663   2.986   6.930  4.2984  0.1954  2.2746
  196MOL0     H26993   5.452   3.118   6.850  0.5267 -0.4518 -0.2375
  196MOL0     H26994   5.517   3.254   6.949  0.0770 -0.3901  0.9897
  196MOL0     H26995   5.528   3.074   7.144 -0.0417  2.1397  0.0598
  196MOL0     H26996   5.390   3.167   7.099  2.1504  1.9757  0.7107
  196MOL0     H26997   5.479   2.782   7.113 -0.0158 -0.0804  0.9338
  196MOL0     H26998   5.273   2.591   7.168  4.1503 -1.7346 -0.8150
  196MOL0     H26999   5.316   2.572   7.007  3.1074  0.1720  3.3851
  196MOL0     H27000   5.030   2.676   7.062 -0.1846  0.4583  0.2014
  196MOL0     H27001   5.092   2.582   6.920  0.7135  1.6509  0.8806
  196MOL0     H27002   5.135   2.383   7.071 -1.6303 -1.6042  1.2563
  196MOL0     H27003   5.067   2.486   7.208 -2.3402  1.4888  0.3332
  196MOL0     H27004   4.856   2.517   7.056  2.5937  1.0036 -2.4930
  196MOL0     H27005   4.918   2.381   6.967  0.8762 -0.0241  0.0912
  196MOL0     H27006   4.800   2.185   7.351  1.5642 -2.5136 -0.5112
  196MOL0     H27007   4.589   1.960   7.358  2.9825  0.9732 -1.5580
  196MOL0     H27008   4.525   2.078   7.488 -0.5725  1.8142  0.0925
  196MOL0     H27009   4.692   2.060   7.469 -0.3250 -1.9806  0.1438
  196MOL0     H27010   4.075   2.234   6.969  1.1204 -1.3077 -0.2795
  196MOL0     H27011   3.839   2.172   6.970 -0.3684 -0.8825  0.3674
  196MOL0     H27012   3.719   1.912   7.047 -0.8096  0.1215 -0.7803
  196MOL0     H27013   3.702   1.879   7.217 -0.8924  1.6048  1.2093
  196MOL0     H27014   3.457   1.857   7.164 -1.0424 -1.2607 -2.1987
  196MOL0     H27015   3.478   2.033   7.163  0.7196 -0.7503  0.4654
  196MOL0     H27016   3.381   1.926   6.952  0.0847  0.2468 -2.8494
  196MOL0     H27017   3.519   1.823   6.949  0.6836 -0.7392  0.5517
  196MOL0     H27018   3.644   2.065   6.892  1.3856 -3.0153 -1.3622
  196MOL0     H27019   3.489   2.140   6.906 -1.6960 -1.2445  0.9715
  196MOL0     H27020   3.388   1.997   6.722  0.0886  0.7138 -0.7744
  196MOL0     H27021   3.529   2.087   6.668  0.9505  0.3286 -0.1657
  196MOL0     H27022   3.628   1.838   6.770  0.2071  0.2402 -0.7871
  196MOL0     H27023   3.656   1.914   6.617 -1.9877 -0.1900 -4.3989
  196MOL0     H27024   3.570   1.704   6.566  1.4951 -0.0701  1.4771
  196MOL0     H27025   3.463   1.830   6.514 -0.3345  2.2557  1.7960
  196MOL0     H27026   3.327   1.647   6.623  2.1101 -2.4247 -0.4828
  196MOL0     H27027   3.328   1.786   6.735  1.2903 -0.9250  2.8821
  196MOL0     H27028   3.850   2.064   7.369  1.6715  0.0452  0.4836
  196MOL0     H27029   4.112   2.117   7.373  0.1121 -0.2660 -0.3171
  196MOL0     H27030   4.437   2.288   7.031 -0.7822 -0.1535  0.3434
  196MOL0     H27031   4.659   2.382   6.993  1.4456  0.4295  1.4636
  196MOL0     H27032   6.234   3.055   7.443  0.5931 -3.6468  0.9709
  196MOL0     H27033   6.455   2.963   7.564 -0.5474 -0.2401 -0.1693
  196MOL0     H27034   6.818   2.757   7.457 -0.9053  1.8138 -0.0734
  196MOL0     H27035   7.009   2.602   7.520  3.1754 -0.7565  2.8609
  196MOL0     H27036   7.231   2.517   7.493  2.6851 -0.3368 -0.5023
  196MOL0     H27037   7.365   2.536   7.610  1.7081 -0.2922 -0.5229
  196MOL0     H27038   7.263   2.322   7.666  0.1987 -0.6926 -0.1125
  196MOL0     H27039   7.114   2.374   7.617  2.7667 -2.0880 -1.4806
  196MOL0     H27040   7.076   2.494   7.839 -1.0479 -1.6285 -0.6998
  196MOL0     H27041   7.104   2.331   7.843 -2.2913  0.7661 -1.9800
  196MOL0     H27042   7.324   2.540   7.881 -3.0454  1.7764 -2.4307
  196MOL0     H27043   7.347   2.360   7.907 -3.4828 -1.8016 -3.4979
  196MOL0     H27044   7.146   2.549   8.252  0.0927  1.1566 -0.3296
  196MOL0     H27045   7.186   2.888   7.763 -0.9204 -2.4163  2.0942
  196MOL0     H27046   6.923   3.094   7.811 -0.2510 -1.7176 -0.3918
  196MOL0     H27047   7.109   3.087   7.801 -0.4185 -1.4705  1.6047
  196MOL0     H27048   7.022   3.157   7.673  0.4345 -1.1385 -0.6049
  197MOL0     O27049   3.087   2.228  10.195  0.4979 -0.6844 -0.1700
  197MOL0     C27050   3.122   2.309  10.108 -0.8104 -0.9355  0.4182
  197MOL0     O27051   3.251   2.355  10.105  0.0975 -0.1468 -0.1350
  197MOL0     C27052   3.347   2.276  10.164 -0.4029 -0.4197  0.1426
  197MOL0     C27053   3.352   2.136  10.140  1.4807  0.0233 -0.7412
  197MOL0     C27054   3.443   2.057  10.203 -0.3509  0.4840 -0.2804
  197MOL0     C27055   3.538   2.114  10.285 -0.1192  0.7715  0.5863
  197MOL0     O27056   3.654   2.051  10.334 -0.3183 -1.1936  0.3645
  197MOL0     C27057   3.741   2.009  10.218  0.0100 -0.2952  0.2954
  197MOL0     C27058   3.808   2.127  10.150  0.0173  0.5662 -0.8749
  197MOL0     C27059   3.917   2.200  10.232  0.5000  0.1939 -0.2828
  197MOL0     C27060   4.028   2.114  10.278 -0.1365 -0.1155 -0.1151
  197MOL0     C27061   4.146   2.185  10.344  0.3505 -0.7097  1.3115
  197MOL0     C27062   4.088   2.230  10.476  0.0820  0.2822 -0.0802
  197MOL0     C27063   4.193   2.291  10.561 -0.5014 -0.2399 -0.9396
  197MOL0     C27064   4.320   2.202  10.592 -0.0050  0.0320 -0.3424
  197MOL0     N27065   4.434   2.284  10.588 -0.4644  0.0794 -0.2762
  197MOL0     C27066   4.561   2.247  10.544 -0.7217  0.0772 -0.7380
  197MOL0     C27067   4.647   2.341  10.595  0.1166  0.0310 -0.0933
  197MOL0     C27068   4.796   2.340  10.581 -0.3534 -0.0457 -0.3010
  197MOL0     C27069   4.859   2.235  10.686 -0.4438 -0.0733 -0.1921
  197MOL0     C27070   4.843   2.289  10.825  1.0312  0.2528 -0.0208
  197MOL0     C27071   4.961   2.240  10.919  0.7493  0.5186  0.7386
  197MOL0     O27072   5.001   2.103  10.905 -0.1174  0.8143  0.0328
  197MOL0     C27073   5.097   2.051  10.994 -0.4937 -0.5028 -0.3073
  197MOL0     C27074   5.144   2.122  11.113 -0.5300  0.2255  0.0498
  197MOL0     C27075   5.240   2.063  11.196 -0.4606  0.4445 -0.6758
  197MOL0     C27076   5.278   2.150  11.316 -0.7133  0.2972 -1.0393
  197MOL0     C27077   5.280   1.929  11.170 -0.0882  0.0609  0.2372
  197MOL0     C27078   5.361   1.853  11.258  0.2402  0.9580 -0.3635
  197MOL0     O27079   5.448   1.768  11.192 -0.2579 -0.0769  0.4625
  197MOL0     C27080   5.530   1.668  11.248  0.7264  0.3100 -0.0547
  197MOL0     C27081   5.651   1.631  11.189 -0.7625 -0.6245  0.5927
  197MOL0     C27082   5.724   1.521  11.231  0.1725  0.2142 -0.7315
  197MOL0     C27083   5.682   1.450  11.343 -0.0888 -0.2848  0.6002
  197MOL0     O27084   5.741   1.347  11.399  0.4128 -0.2750 -0.0531
  197MOL0     C27085   5.876   1.312  11.365  0.6437  0.4075 -0.4723
  197MOL0     C27086   5.965   1.331  11.484 -0.4341  0.2379 -0.2752
  197MOL0     C27087   5.998   1.465  11.553 -0.8780  0.5136  0.6763
  197MOL0     C27088   6.121   1.441  11.641  0.0464  0.3125  0.3685
  197MOL0     C27089   6.166   1.563  11.722  0.3363  0.7695 -0.0152
  197MOL0     C27090   6.317   1.567  11.741  0.1454  0.6016 -0.9020
  197MOL0     C27091   6.343   1.653  11.865  0.2141  0.0643 -0.0236
  197MOL0     C27092   6.312   1.802  11.852 -0.2371 -0.7745 -0.2682
  197MOL0    Cl27093   6.446   1.888  11.774  0.1932 -0.2107 -0.6491
  197MOL0     C27094   5.560   1.486  11.397 -0.3198 -0.1782 -0.3368
  197MOL0     C27095   5.487   1.593  11.357 -0.2014  0.0654 -0.4709
  197MOL0     O27096   5.339   1.851  11.381  0.0285  0.5804  0.0817
  197MOL0     C27097   5.214   1.862  11.069 -0.7166  0.1483  0.0049
  197MOL0     C27098   5.123   1.915  10.988  0.3585  0.0352  0.3214
  197MOL0     N27099   4.573   2.443  10.666  0.4698  1.4140  1.6488
  197MOL0     N27100   4.448   2.398  10.662  0.7459  0.4197  0.3537
  197MOL0     C27101   3.544   2.251  10.306 -0.2623 -0.0028  0.3206
  197MOL0     C27102   3.443   2.337  10.245 -0.6456 -0.4255 -0.5693
  197MOL0     C27103   3.033   2.360  10.004  0.5782 -0.1056 -0.2410
  197MOL0     C27104   3.085   2.467   9.932 -0.1459 -0.6008  0.2935
  197MOL0     C27105   3.009   2.530   9.834  1.0676  0.4799 -0.3160
  197MOL0     C27106   2.880   2.490   9.805 -0.2480 -0.5488 -0.0885
  197MOL0     O27107   2.788   2.556   9.725  0.3564  0.3589  0.2393
  197MOL0     C27108   2.812   2.682   9.665 -0.4421 -0.8185 -0.2049
  197MOL0     C27109   2.894   2.661   9.537  0.1257 -0.1506  1.0071
  197MOL0     C27110   2.844   2.547   9.458  0.0599  0.7378  0.8671
  197MOL0     C27111   2.877   2.569   9.314  0.2876  0.2162  0.0821
  197MOL0     C27112   2.815   2.467   9.228 -0.5425 -0.6293  0.5514
  197MOL0     C27113   2.772   2.388   9.151  0.3913 -0.6144 -0.3560
  197MOL0     C27114   2.834   2.372   9.870  0.2928  0.1447  0.2891
  197MOL0     C27115   2.906   2.311   9.973 -1.0292 -0.6817  0.2958
  197MOL0     C27116   2.840   2.197  10.043  0.5123  0.8576  0.4296
  197MOL0     H27117   3.271   2.093  10.082  0.2465 -1.1261  1.6512
  197MOL0     H27118   3.437   1.951  10.179  2.1096  0.4266 -1.0111
  197MOL0     H27119   3.679   1.954  10.147  1.1597 -0.3941 -0.6560
  197MOL0     H27120   3.826   1.949  10.251 -1.2267 -1.7696  0.9248
  197MOL0     H27121   3.859   2.077  10.067 -2.7034  2.2073 -3.7728
  197MOL0     H27122   3.728   2.190  10.109 -2.8453 -0.5977  2.4618
  197MOL0     H27123   3.954   2.278  10.165 -1.3599 -0.0250 -1.6470
  197MOL0     H27124   3.862   2.248  10.313 -3.0281 -0.3622 -2.1448
  197MOL0     H27125   3.978   2.047  10.349  2.0626  0.4016  2.0720
  197MOL0     H27126   4.065   2.058  10.191 -1.4640  0.0402 -0.7999
  197MOL0     H27127   4.179   2.264  10.276  0.0988 -2.3721 -0.8588
  197MOL0     H27128   4.227   2.112  10.356  0.2158 -1.4808 -1.8122
  197MOL0     H27129   3.999   2.294  10.470 -1.7528 -1.2394  5.1991
  197MOL0     H27130   4.065   2.137  10.530  4.2753 -1.1640 -0.4107
  197MOL0     H27131   4.150   2.334  10.651  2.2172  0.6152  0.0588
  197MOL0     H27132   4.231   2.377  10.504 -0.1232  0.1559 -0.0972
  197MOL0     H27133   4.306   2.168  10.695  0.9253  2.0735  0.5226
  197MOL0     H27134   4.347   2.116  10.530  0.7758  2.1174 -3.0881
  197MOL0     H27135   4.597   2.153  10.505  2.4920 -0.8697  3.7623
  197MOL0     H27136   4.836   2.441  10.594 -0.4325 -0.2056  1.3836
  197MOL0     H27137   4.813   2.321  10.474 -0.2663  2.3238 -0.7626
  197MOL0     H27138   4.827   2.131  10.675  3.7500 -1.5366 -0.7357
  197MOL0     H27139   4.958   2.224  10.640 -0.6130 -3.7694  0.0532
  197MOL0     H27140   4.848   2.398  10.823 -0.5192  0.3800  1.0920
  197MOL0     H27141   4.750   2.274  10.880  1.5448  0.5544  0.9614
  197MOL0     H27142   5.050   2.300  10.898  2.0897 -0.9140  2.0274
  197MOL0     H27143   4.930   2.259  11.022 -1.7514 -1.4427  0.4412
  197MOL0     H27144   5.100   2.216  11.144  0.4391  0.6851  0.0624
  197MOL0     H27145   5.232   2.130  11.413 -0.8958 -0.9678 -1.3634
  197MOL0     H27146   5.271   2.258  11.300  1.4021  0.6132 -0.1767
  197MOL0     H27147   5.383   2.136  11.343 -0.4201  2.5707 -0.7941
  197MOL0     H27148   5.689   1.699  11.113 -1.3853  1.6759  2.2626
  197MOL0     H27149   5.804   1.481  11.168 -0.0778 -2.3067  0.4439
  197MOL0     H27150   5.882   1.206  11.338 -3.4144  0.0326 -0.5961
  197MOL0     H27151   5.914   1.366  11.278 -1.4175  0.2789 -1.5263
  197MOL0     H27152   5.920   1.263  11.558  0.1299  1.1495  0.9328
  197MOL0     H27153   6.057   1.280  11.457  0.2133 -0.0716  2.2570
  197MOL0     H27154   5.916   1.495  11.620  0.7698  1.2837  2.4763
  197MOL0     H27155   6.011   1.549  11.484 -0.3327 -0.3817 -0.3215
  197MOL0     H27156   6.201   1.418  11.570 -0.5185 -0.5440 -0.0066
  197MOL0     H27157   6.103   1.354  11.704 -2.4062 -0.7706 -1.6493
  197MOL0     H27158   6.139   1.657  11.673 -1.2942  0.3732  0.0550
  197MOL0     H27159   6.109   1.552  11.815 -0.7820 -1.8390 -0.9153
  197MOL0     H27160   6.372   1.606  11.655 -1.1978  1.2903 -1.4762
  197MOL0     H27161   6.356   1.467  11.761  1.9441  1.2727 -0.9336
  197MOL0     H27162   6.450   1.650  11.888  0.3757  0.0877 -0.7468
  197MOL0     H27163   6.278   1.623  11.947 -0.1053  1.1341  0.1354
  197MOL0     H27164   6.300   1.840  11.954  1.7994 -2.1752  0.5544
  197MOL0     H27165   6.223   1.812  11.789 -0.5778 -0.1579  0.3000
  197MOL0     H27166   5.529   1.412  11.470 -1.3146  0.5162 -0.0287
  197MOL0     H27167   5.392   1.620  11.402 -0.9107  1.3963 -2.6147
  197MOL0     H27168   5.230   1.755  11.060 -2.0471  0.0258 -1.1802
  197MOL0     H27169   5.063   1.851  10.923  2.8379 -1.6899 -0.4451
  197MOL0     H27170   3.642   2.286  10.337 -1.0629  3.0478 -0.2232
  197MOL0     H27171   3.440   2.445  10.258 -0.0737 -0.2838 -1.4836
  197MOL0     H27172   3.179   2.520   9.942 -0.7961  0.6804 -0.2060
  197MOL0     H27173   3.055   2.605   9.771  0.4226  1.0282 -0.1442
  197MOL0     H27174   2.713   2.721   9.638  1.7839  3.8720 -2.7080
  197MOL0     H27175   2.862   2.745   9.739  4.4910 -1.9849 -2.2069
  197MOL0     H27176   2.995   2.630   9.566  0.4726  0.2284  0.2307
  197MOL0     H27177   2.900   2.754   9.480 -1.0673 -2.9055 -4.3616
  197MOL0     H27178   2.890   2.451   9.483  0.5872  0.0391 -2.4049
  197MOL0     H27179   2.736   2.547   9.477  0.1707 -0.0031  1.5340
  197MOL0     H27180   2.985   2.554   9.303  0.7096  2.6009  0.4081
  197MOL0     H27181   2.856   2.670   9.279  1.5607  1.0820  1.6598
  197MOL0     H27182   2.715   2.322   9.090 -0.7320 -0.1682  0.1813
  197MOL0     H27183   2.740   2.324   9.846 -0.6035  0.8663  2.2026
  197MOL0     H27184   2.774   2.221  10.128  1.8278  1.6680  1.2492
  197MOL0     H27185   2.784   2.133   9.974 -2.1300 -0.0428  3.1535
  197MOL0     H27186   2.906   2.126  10.095 -1.4845 -2.3747 -1.1131
  198MOL0     O27187   5.627   9.311   3.790 -0.2823  0.1807 -0.2650
  198MOL0     C27188   5.601   9.430   3.784  0.1598  0.3260  0.0790
  198MOL0     O27189   5.662   9.530   3.861  0.1233 -0.2846  0.2548
  198MOL0     C27190   5.720   9.487   3.980 -0.0253  0.8191 -0.0529
  198MOL0     C27191   5.850   9.513   3.999  0.4105  0.0098  0.1842
  198MOL0     C27192   5.909   9.506   4.123 -1.3221  1.0419 -0.4881
  198MOL0     C27193   5.844   9.457   4.237  0.4784  0.5024  0.2981
  198MOL0     O27194   5.913   9.426   4.343  0.4974 -0.1898 -0.5580
  198MOL0     C27195   5.855   9.367   4.457  0.5246  0.8016 -0.1053
  198MOL0     C27196   5.961   9.338   4.563 -0.7663 -0.6455 -0.6850
  198MOL0     C27197   6.022   9.459   4.618 -0.1672  0.4152  0.4325
  198MOL0     C27198   6.092   9.431   4.747  0.3895  1.0650 -0.3617
  198MOL0     C27199   6.208   9.545   4.771 -0.1221  0.3717 -1.0117
  198MOL0     C27200   6.264   9.550   4.921 -0.7263 -0.5483  0.4984
  198MOL0     C27201   6.163   9.569   5.030  1.0764  1.0831 -0.3369
  198MOL0     C27202   6.228   9.592   5.160  0.1113 -0.3749 -0.2064
  198MOL0     N27203   6.321   9.490   5.200 -0.4368  0.2620  0.9115
  198MOL0     C27204   6.460   9.502   5.176  0.3681  0.0665 -0.4468
  198MOL0     C27205   6.503   9.394   5.245  0.7487  0.1991 -0.6319
  198MOL0     C27206   6.647   9.368   5.262  0.1040 -0.4507  0.7021
  198MOL0     C27207   6.661   9.216   5.251 -0.9348  0.1217 -0.0818
  198MOL0     C27208   6.629   9.151   5.118 -0.0076  0.1841 -0.7077
  198MOL0     C27209   6.720   9.205   5.016 -0.8628 -0.7077  0.2808
  198MOL0     O27210   6.749   9.105   4.909 -0.3307  0.7548  1.2415
  198MOL0     C27211   6.846   9.132   4.810  0.0862  0.1557  0.0833
  198MOL0     C27212   6.873   9.021   4.724 -0.1848  0.0346 -1.3219
  198MOL0     C27213   6.951   9.034   4.617 -0.0894  0.1313  0.2907
  198MOL0     C27214   6.959   8.912   4.527 -0.1835 -0.3331 -0.5272
  198MOL0     C27215   7.012   9.161   4.579  0.5380  0.2786 -1.1225
  198MOL0     C27216   7.103   9.193   4.468 -0.2735  0.2581 -0.0272
  198MOL0     O27217   7.116   9.087   4.382 -0.8617 -0.5028  0.3251
  198MOL0     C27218   7.216   9.106   4.285  0.7858  0.1714 -0.1274
  198MOL0     C27219   7.347   9.094   4.307 -0.9173 -0.4990 -0.1733
  198MOL0     C27220   7.439   9.118   4.198 -0.0480  0.1261  0.1001
  198MOL0     C27221   7.390   9.136   4.071  0.9457  0.2984  0.0019
  198MOL0     O27222   7.490   9.138   3.977  0.5181 -0.1900 -0.2702
  198MOL0     C27223   7.459   9.191   3.854 -0.5474 -0.3404  0.5320
  198MOL0     C27224   7.453   9.343   3.863  0.1967  0.2187  0.0921
  198MOL0     C27225   7.412   9.407   3.723  0.5693  0.5775  0.1470
  198MOL0     C27226   7.261   9.372   3.699  0.1424 -0.0409  0.7370
  198MOL0     C27227   7.204   9.457   3.586 -0.1124  0.4687 -0.0894
  198MOL0     C27228   7.255   9.412   3.441  0.8916 -0.3530 -0.8915
  198MOL0     C27229   7.172   9.480   3.335  0.0216  0.2287 -0.0023
  198MOL0     C27230   7.165   9.409   3.202  0.8164  0.6073  0.1660
  198MOL0    Cl27231   7.332   9.366   3.134 -0.3376 -0.1050  0.0319
  198MOL0     C27232   7.257   9.132   4.049  0.7866 -0.6670 -0.6580
  198MOL0     C27233   7.167   9.123   4.154 -0.5723  0.4111  0.3099
  198MOL0     O27234   7.157   9.300   4.457  0.3447  0.4847  0.1022
  198MOL0     C27235   6.977   9.271   4.674 -0.1555 -0.1228  0.7812
  198MOL0     C27236   6.897   9.259   4.785  1.8960 -0.4977 -0.3674
  198MOL0     N27237   6.395   9.345   5.315 -0.6724  0.7381 -0.9753
  198MOL0     N27238   6.290   9.391   5.277  0.5204 -0.6087  0.4681
  198MOL0     C27239   5.712   9.410   4.210  0.3147  0.2731 -0.1129
  198MOL0     C27240   5.645   9.436   4.086 -0.2622  0.5108  0.4063
  198MOL0     C27241   5.498   9.455   3.685  0.1644 -0.0837 -0.3160
  198MOL0     C27242   5.487   9.369   3.575 -0.2543 -0.0482  0.6436
  198MOL0     C27243   5.402   9.394   3.466 -1.3151 -0.3490 -0.9401
  198MOL0     C27244   5.303   9.495   3.477 -0.9571 -0.0549 -0.0382
  198MOL0     O27245   5.211   9.514   3.382  0.5370  0.6373  0.5634
  198MOL0     C27246   5.264   9.503   3.247  0.3277  0.0888 -0.2906
  198MOL0     C27247   5.173   9.601   3.155  1.4477  0.2986  0.5795
  198MOL0     C27248   5.026   9.628   3.185 -0.1934 -0.1918  0.4738
  198MOL0     C27249   5.001   9.727   3.299  0.5249 -0.1714  0.5138
  198MOL0     C27250   4.865   9.786   3.299 -0.1600  0.5548 -0.0299
  198MOL0     C27251   4.754   9.830   3.281 -0.1206 -0.0373 -0.5713
  198MOL0     C27252   5.329   9.588   3.583 -1.1565 -0.0867  0.4725
  198MOL0     C27253   5.407   9.565   3.691 -0.9664 -0.2240 -0.6923
  198MOL0     C27254   5.405   9.657   3.806  0.2385  0.7647 -0.0348
  198MOL0     H27255   5.896   9.568   3.917 -2.2343  1.8580 -0.1853
  198MOL0     H27256   6.016   9.519   4.139 -0.9389  0.3435 -2.1790
  198MOL0     H27257   5.817   9.268   4.435  1.1522  0.4079  0.5222
  198MOL0     H27258   5.771   9.426   4.495  0.2321  0.2156  0.1662
  198MOL0     H27259   5.917   9.290   4.651  1.0359 -1.1602 -0.0165
  198MOL0     H27260   6.033   9.268   4.519  0.2272  0.6548 -1.1858
  198MOL0     H27261   6.100   9.486   4.547  1.2034 -2.0182  0.9256
  198MOL0     H27262   5.959   9.548   4.621  1.2096  1.4121  1.7757
  198MOL0     H27263   6.016   9.405   4.822  0.0895 -1.6399 -1.4706
  198MOL0     H27264   6.143   9.335   4.735  1.3148  1.4494  0.3166
  198MOL0     H27265   6.170   9.646   4.753 -2.8063 -0.4007 -0.2062
  198MOL0     H27266   6.280   9.526   4.690  1.2236  1.0224  0.0036
  198MOL0     H27267   6.313   9.455   4.943 -1.8272 -1.3759 -0.4405
  198MOL0     H27268   6.341   9.627   4.926  1.9881 -3.1037  0.8737
  198MOL0     H27269   6.090   9.487   5.041 -1.7512  3.7783  4.3090
  198MOL0     H27270   6.092   9.650   5.012 -2.2625 -1.7422 -1.0360
  198MOL0     H27271   6.290   9.681   5.167  1.2881 -1.1200 -0.7706
  198MOL0     H27272   6.151   9.597   5.238  1.0151 -2.7354  0.9645
  198MOL0     H27273   6.521   9.574   5.122  0.7895 -0.2264 -0.3674
  198MOL0     H27274   6.671   9.411   5.360 -0.9211  2.6361 -0.2899
  198MOL0     H27275   6.704   9.419   5.184  0.5597 -0.8565  0.7552
  198MOL0     H27276   6.764   9.181   5.268 -1.0897  0.2480  1.1708
  198MOL0     H27277   6.594   9.163   5.319 -3.2692  1.4990 -1.1876
  198MOL0     H27278   6.638   9.042   5.124 -0.4727  0.1925  0.2840
  198MOL0     H27279   6.524   9.165   5.092 -0.3935  0.4002  0.9082
  198MOL0     H27280   6.685   9.299   4.973  1.9561  0.7608  0.9715
  198MOL0     H27281   6.820   9.232   5.051  0.0142 -1.7948 -1.2357
  198MOL0     H27282   6.823   8.927   4.740 -0.3898 -0.1472 -2.8657
  198MOL0     H27283   7.059   8.871   4.517 -0.2861 -0.3792 -1.4559
  198MOL0     H27284   6.927   8.935   4.424 -1.3961 -1.1962 -0.3720
  198MOL0     H27285   6.886   8.840   4.566 -0.1512 -0.1301 -0.0857
  198MOL0     H27286   7.387   9.075   4.406  0.8909 -0.2358 -0.8196
  198MOL0     H27287   7.546   9.108   4.212  0.3066  1.6199 -1.3581
  198MOL0     H27288   7.534   9.154   3.783  0.2656  0.0406  1.1708
  198MOL0     H27289   7.369   9.150   3.808 -0.7291  0.5440  0.0773
  198MOL0     H27290   7.393   9.375   3.948 -1.2652 -0.4004 -0.6750
  198MOL0     H27291   7.555   9.367   3.893  0.1287 -0.5456  0.9897
  198MOL0     H27292   7.482   9.377   3.645  1.9582 -1.6502  2.1247
  198MOL0     H27293   7.421   9.515   3.737  0.2432  0.4031  1.9234
  198MOL0     H27294   7.197   9.385   3.786  1.8342 -2.1728  2.4077
  198MOL0     H27295   7.246   9.267   3.671 -2.1296  0.8871 -2.0679
  198MOL0     H27296   7.096   9.445   3.588 -0.0604 -1.3557  4.0944
  198MOL0     H27297   7.230   9.560   3.611  0.3009  0.3673 -0.0898
  198MOL0     H27298   7.247   9.303   3.437  2.2674 -0.4552 -2.2796
  198MOL0     H27299   7.361   9.438   3.429  0.4013  1.5541 -1.4019
  198MOL0     H27300   7.195   9.585   3.315 -2.7816  0.6529 -1.5125
  198MOL0     H27301   7.069   9.488   3.370 -0.0589  1.8790 -0.5422
  198MOL0     H27302   7.104   9.470   3.135 -3.8631 -2.8433  0.8469
  198MOL0     H27303   7.110   9.319   3.229 -1.9194  1.7066 -1.3070
  198MOL0     H27304   7.217   9.129   3.948  0.0228 -0.2587 -0.3773
  198MOL0     H27305   7.060   9.122   4.136 -0.7393  0.7512  1.2413
  198MOL0     H27306   7.007   9.369   4.638 -2.8764  0.5249  0.0774
  198MOL0     H27307   6.862   9.339   4.850  3.1568  0.0551 -0.3302
  198MOL0     H27308   5.669   9.355   4.293 -0.7632  1.0363 -0.1496
  198MOL0     H27309   5.544   9.404   4.062  0.5440 -2.2832  0.2676
  198MOL0     H27310   5.557   9.285   3.568  0.1483  0.2848  0.6267
  198MOL0     H27311   5.385   9.313   3.397  1.8002 -1.8251 -0.1377
  198MOL0     H27312   5.365   9.544   3.235  0.7911 -1.0407 -0.4311
  198MOL0     H27313   5.253   9.401   3.209 -3.6565  0.0738  0.4751
  198MOL0     H27314   5.173   9.566   3.052  2.6138  3.9778 -0.8209
  198MOL0     H27315   5.218   9.701   3.152 -0.3053  1.0853 -0.9590
  198MOL0     H27316   4.991   9.672   3.091  0.1365  0.8607  0.8267
  198MOL0     H27317   4.976   9.531   3.193  0.0372 -0.2698  1.0570
  198MOL0     H27318   5.068   9.813   3.299 -1.3380  1.3555  0.1742
  198MOL0     H27319   5.014   9.677   3.396 -0.0485 -0.6207  0.3642
  198MOL0     H27320   4.656   9.874   3.280 -0.4470 -0.7556 -1.3952
  198MOL0     H27321   5.277   9.682   3.575  3.1369  2.4085 -3.6483
  198MOL0     H27322   5.498   9.715   3.808  0.5322  0.4296 -1.9021
  198MOL0     H27323   5.313   9.715   3.801 -2.0434 -2.4266  1.8114
  198MOL0     H27324   5.408   9.588   3.890 -1.2004 -0.5488 -1.0118
  199MOL0     O27325  10.244   6.949   8.825 -0.8851  0.3095 -0.0189
  199MOL0     C27326  10.332   7.024   8.858 -0.4264 -0.9054 -0.2266
  199MOL0     O27327  10.331   7.160   8.853  0.6111 -0.4400 -0.2955
  199MOL0     C27328  10.216   7.223   8.806  0.4524 -0.0519 -0.5325
  199MOL0     C27329  10.223   7.313   8.697  0.0830  0.9780  0.3939
  199MOL0     C27330  10.114   7.388   8.653  0.1038  0.4954  0.8981
  199MOL0     C27331   9.990   7.375   8.714  0.5825  0.4092  0.0845
  199MOL0     O27332   9.891   7.465   8.679  0.2759  0.4737  0.0749
  199MOL0     C27333   9.750   7.429   8.671 -0.4777 -0.6204  1.0370
  199MOL0     C27334   9.672   7.564   8.672  0.2027  0.6417 -0.6341
  199MOL0     C27335   9.523   7.543   8.690  0.2087 -0.0604 -0.6079
  199MOL0     C27336   9.433   7.668   8.676 -0.4256  0.5845 -0.8843
  199MOL0     C27337   9.296   7.624   8.623 -0.8612  0.0149 -0.2319
  199MOL0     C27338   9.307   7.577   8.469  0.0807  0.2239 -0.1724
  199MOL0     C27339   9.171   7.587   8.401 -0.6096 -0.7279 -0.1374
  199MOL0     C27340   9.082   7.470   8.464 -0.0869 -0.7544  0.4461
  199MOL0     N27341   8.951   7.439   8.396  0.0118 -0.6867  0.7071
  199MOL0     C27342   8.910   7.492   8.270  0.2292  0.2471 -0.5886
  199MOL0     C27343   8.779   7.437   8.264 -0.0885  0.0535 -0.1839
  199MOL0     C27344   8.676   7.469   8.166 -0.0521  0.3872  0.7994
  199MOL0     C27345   8.597   7.582   8.199  0.2625  0.0198 -0.2586
  199MOL0     C27346   8.470   7.518   8.267 -0.2358 -1.0037 -0.1515
  199MOL0     C27347   8.371   7.634   8.297 -0.8369  0.6022  0.2146
  199MOL0     O27348   8.231   7.579   8.306 -0.0903  0.1331 -0.4334
  199MOL0     C27349   8.173   7.549   8.427 -0.6825  0.0426  0.5177
  199MOL0     C27350   8.046   7.496   8.425 -0.2535  0.1940  0.2729
  199MOL0     C27351   7.983   7.443   8.544  0.0712  0.0327 -0.3230
  199MOL0     C27352   7.831   7.412   8.523 -0.4937  0.1193 -0.1560
  199MOL0     C27353   8.045   7.451   8.668  0.2245  0.3026  0.0723
  199MOL0     C27354   7.988   7.404   8.801  0.1001  0.7809 -0.1532
  199MOL0     O27355   8.077   7.418   8.911 -0.2960  0.5364  0.0061
  199MOL0     C27356   8.027   7.406   9.042  0.2980 -0.9543 -0.1472
  199MOL0     C27357   8.012   7.276   9.099  0.2214 -0.1343  0.5986
  199MOL0     C27358   7.958   7.264   9.215 -0.3184 -0.3129  0.1013
  199MOL0     C27359   7.915   7.373   9.292  0.8784  0.0856  0.6218
  199MOL0     O27360   7.885   7.366   9.422 -0.0895 -0.3269 -0.3296
  199MOL0     C27361   7.748   7.371   9.447  0.1966 -0.2273 -0.1170
  199MOL0     C27362   7.714   7.301   9.588  0.7588 -0.0317  0.3731
  199MOL0     C27363   7.724   7.146   9.567 -0.2705 -0.0432  0.8496
  199MOL0     C27364   7.684   7.061   9.693 -0.4857  0.6648 -0.2728
  199MOL0     C27365   7.576   7.122   9.777 -0.3672 -0.5176 -0.8992
  199MOL0     C27366   7.532   7.021   9.878 -0.4360 -0.1496  0.7136
  199MOL0     C27367   7.427   6.934   9.814  0.8037 -0.3856 -0.5374
  199MOL0     C27368   7.396   6.798   9.896  0.7499 -0.3118 -0.0976
  199MOL0    Cl27369   7.539   6.678   9.914  0.2201 -0.1486  0.0972
  199MOL0     C27370   7.916   7.501   9.229 -0.9731  0.3736  0.2145
  199MOL0     C27371   7.974   7.516   9.098  0.1628 -0.0240 -0.0707
  199MOL0     O27372   7.873   7.364   8.815 -0.1390  0.4118  0.2322
  199MOL0     C27373   8.181   7.492   8.672  0.5717  0.3246 -0.2690
  199MOL0     C27374   8.239   7.533   8.552  0.1435 -0.2236 -0.5576
  199MOL0     N27375   8.761   7.346   8.363 -0.0059 -1.2173  0.3499
  199MOL0     N27376   8.864   7.342   8.443  1.0010  0.3499 -0.3483
  199MOL0     C27377   9.977   7.292   8.821 -0.1259 -0.0463 -0.1492
  199MOL0     C27378  10.091   7.225   8.871 -0.3193 -0.2172 -0.1857
  199MOL0     C27379  10.463   6.972   8.881 -0.1782  0.4910 -0.5802
  199MOL0     C27380  10.566   7.034   8.814 -0.6865 -0.4727  0.2133
  199MOL0     C27381  10.690   6.983   8.820  0.0091 -0.5953  0.1003
  199MOL0     C27382  10.722   6.883   8.909  0.9059 -0.4959  0.5216
  199MOL0     O27383  10.857   6.850   8.917 -0.0916 -0.1038  0.0366
  199MOL0     C27384  10.902   6.716   8.950  0.0609  0.7208 -0.7606
  199MOL0     C27385  10.903   6.621   8.823  0.1922 -0.4722 -0.3784
  199MOL0     C27386  11.008   6.662   8.718  0.2559  0.8176 -0.0145
  199MOL0     C27387  11.148   6.709   8.788  0.1311  0.8809 -0.7927
  199MOL0     C27388  11.246   6.709   8.683 -0.0555 -0.1097  0.6398
  199MOL0     C27389  11.337   6.722   8.597  0.3822  0.2534  0.5579
  199MOL0     C27390  10.614   6.816   8.976 -0.0820  0.8336 -0.2249
  199MOL0     C27391  10.482   6.858   8.958  0.0054 -0.0378 -1.0656
  199MOL0     C27392  10.376   6.793   9.045  0.0210  1.0004 -0.5854
  199MOL0     H27393  10.316   7.329   8.644  0.6708  2.2364  1.7532
  199MOL0     H27394  10.119   7.456   8.569 -2.2135  2.4382  2.1891
  199MOL0     H27395   9.735   7.354   8.750  1.2591 -1.0365  1.0047
  199MOL0     H27396   9.725   7.373   8.581  2.7065 -2.9038  1.4119
  199MOL0     H27397   9.714   7.624   8.754 -3.1020  0.0545  1.6786
  199MOL0     H27398   9.684   7.621   8.579 -0.9684  3.6323  0.8918
  199MOL0     H27399   9.482   7.466   8.625 -3.2982  2.6837 -1.9718
  199MOL0     H27400   9.513   7.504   8.792 -1.8464  1.9456  0.0534
  199MOL0     H27401   9.416   7.709   8.777 -0.8712 -0.4780 -0.5119
  199MOL0     H27402   9.484   7.740   8.612  0.4872  0.4300 -0.3437
  199MOL0     H27403   9.220   7.702   8.631  0.2916  1.2214 -0.7957
  199MOL0     H27404   9.272   7.536   8.684  2.5464 -0.1494  1.0751
  199MOL0     H27405   9.376   7.643   8.415  0.6902  0.6888  1.1437
  199MOL0     H27406   9.346   7.475   8.464 -1.1021 -0.3386  1.3922
  199MOL0     H27407   9.175   7.569   8.293 -1.3045 -0.4552 -0.2100
  199MOL0     H27408   9.135   7.687   8.423  1.4564  0.3119 -1.2238
  199MOL0     H27409   9.139   7.377   8.466  1.0312 -0.1269 -0.7493
  199MOL0     H27410   9.068   7.474   8.572 -1.1826 -1.4368  0.3507
  199MOL0     H27411   8.940   7.566   8.197 -3.1033  0.4036 -1.9841
  199MOL0     H27412   8.608   7.388   8.136  0.2854 -0.4206  2.1329
  199MOL0     H27413   8.729   7.496   8.074 -1.0074 -0.6456 -0.0860
  199MOL0     H27414   8.641   7.657   8.265  0.6416 -0.1602 -0.3034
  199MOL0     H27415   8.573   7.630   8.104  0.8030 -0.6307 -0.7342
  199MOL0     H27416   8.420   7.444   8.204 -0.5687 -0.2225 -0.8183
  199MOL0     H27417   8.505   7.468   8.358  0.2472  0.7941  0.6947
  199MOL0     H27418   8.407   7.679   8.390  1.8250 -2.9087  1.0784
  199MOL0     H27419   8.372   7.711   8.219 -3.6699  0.8366  0.2901
  199MOL0     H27420   8.004   7.471   8.328  3.3007 -1.2460 -1.0521
  199MOL0     H27421   7.788   7.461   8.435  2.4653  1.8949 -0.7498
  199MOL0     H27422   7.767   7.459   8.598 -2.5123 -1.6960 -0.6502
  199MOL0     H27423   7.807   7.307   8.508  2.1381 -0.5008 -0.5919
  199MOL0     H27424   8.046   7.189   9.042  2.4969  0.3705  1.0727
  199MOL0     H27425   7.956   7.162   9.251 -1.1840 -0.0573  0.8195
  199MOL0     H27426   7.725   7.477   9.464 -2.3507 -1.0654  2.5849
  199MOL0     H27427   7.681   7.325   9.375 -0.2417 -3.4956  2.1469
  199MOL0     H27428   7.796   7.326   9.656  2.2280  0.5415 -1.5290
  199MOL0     H27429   7.621   7.348   9.621  1.0148  2.5283 -2.1132
  199MOL0     H27430   7.822   7.120   9.526  0.4069  0.2992  2.1689
  199MOL0     H27431   7.645   7.118   9.497 -0.8206 -1.9105  2.1308
  199MOL0     H27432   7.778   7.049   9.747 -0.2586 -3.5858 -1.2679
  199MOL0     H27433   7.657   6.964   9.651  1.9979 -0.2942  0.2278
  199MOL0     H27434   7.620   7.194   9.847  0.1644 -2.1163  0.4658
  199MOL0     H27435   7.494   7.177   9.731 -0.9413  1.1813  1.9550
  199MOL0     H27436   7.488   7.089   9.951  0.8283  0.1259  1.2370
  199MOL0     H27437   7.607   6.960   9.930 -1.4651 -3.0730 -0.9605
  199MOL0     H27438   7.452   6.905   9.712 -0.6912  0.0557 -1.0443
  199MOL0     H27439   7.333   6.988   9.799 -0.0587 -1.6243  0.2713
  199MOL0     H27440   7.308   6.747   9.855  0.1243  0.8185 -0.1741
  199MOL0     H27441   7.383   6.829  10.000  4.1881 -0.7782  0.5943
  199MOL0     H27442   7.878   7.593   9.273 -3.0611  0.5507 -1.7357
  199MOL0     H27443   7.962   7.611   9.047 -0.7122  0.1025  0.3476
  199MOL0     H27444   8.233   7.487   8.767  0.9967 -2.0627 -0.5538
  199MOL0     H27445   8.339   7.573   8.560 -0.6026  1.5599  0.2748
  199MOL0     H27446   9.881   7.286   8.870 -0.3438 -3.4312 -0.7817
  199MOL0     H27447  10.075   7.172   8.964 -1.6660 -1.7827 -1.2550
  199MOL0     H27448  10.541   7.114   8.744 -1.9239 -1.5835 -0.6617
  199MOL0     H27449  10.768   7.028   8.761 -1.2409 -0.1301 -1.2731
  199MOL0     H27450  11.000   6.717   8.999  0.1522 -0.4848 -0.8721
  199MOL0     H27451  10.833   6.679   9.026 -1.4871  2.2015 -1.3961
  199MOL0     H27452  10.804   6.615   8.777  0.2458 -0.0117 -0.5562
  199MOL0     H27453  10.918   6.516   8.852  0.5726 -0.5752 -0.9185
  199MOL0     H27454  11.030   6.579   8.651  0.2725 -2.1577  3.3986
  199MOL0     H27455  10.971   6.740   8.651 -0.3241  0.3482 -0.2428
  199MOL0     H27456  11.181   6.648   8.873  0.3699 -1.7554 -2.6549
  199MOL0     H27457  11.124   6.806   8.833 -0.9414  2.1262 -3.8020
  199MOL0     H27458  11.428   6.754   8.551  0.3718 -1.2885 -0.6234
  199MOL0     H27459  10.641   6.734   9.041  1.4666 -0.9997 -2.9918
  199MOL0     H27460  10.329   6.868   9.109 -4.4937 -1.2393 -0.8648
  199MOL0     H27461  10.294   6.748   8.987 -0.0403 -2.4883  1.8930
  199MOL0     H27462  10.414   6.710   9.104  0.3609  0.3463 -1.6810
  200MOL0     O27463   0.373   6.909   6.943 -0.1616 -0.4126 -0.3030
  200MOL0     C27464   0.355   7.013   6.998  0.0790  0.3167  0.7626
  200MOL0     O27465   0.441   7.090   7.067  0.2197  0.2111  0.4096
  200MOL0     C27466   0.545   7.024   7.120  0.8430 -0.1129 -0.1487
  200MOL0     C27467   0.547   6.969   7.255  0.0803 -0.0430  0.0225
  200MOL0     C27468   0.647   6.880   7.302  0.8540 -0.2424  0.8656
  200MOL0     C27469   0.752   6.841   7.212 -0.1879 -0.6467  0.0151
  200MOL0     O27470   0.829   6.737   7.249  0.3594  0.1044 -0.0935
  200MOL0     C27471   0.809   6.652   7.372  0.2653 -0.2316 -0.7183
  200MOL0     C27472   0.914   6.546   7.384 -0.3002 -0.1182  0.6450
  200MOL0     C27473   1.048   6.613   7.420 -0.4028 -0.1266  0.3224
  200MOL0     C27474   1.164   6.521   7.391 -0.6010  0.7282 -0.2924
  200MOL0     C27475   1.296   6.589   7.441 -0.5958  0.6465  0.1248
  200MOL0     C27476   1.415   6.509   7.404 -0.1579  0.9259 -0.1643
  200MOL0     C27477   1.533   6.572   7.481  0.3059  0.6581 -0.2397
  200MOL0     C27478   1.607   6.689   7.409  0.3911  0.1682 -1.0994
  200MOL0     N27479   1.724   6.723   7.487 -0.5612  0.1746 -0.2479
  200MOL0     C27480   1.842   6.652   7.488 -1.0330  0.8847  0.0648
  200MOL0     C27481   1.931   6.697   7.576  0.5945  0.3575  0.1687
  200MOL0     C27482   2.060   6.626   7.609  1.2815 -0.3711  0.1046
  200MOL0     C27483   2.185   6.709   7.568 -0.0337  0.5756  0.6887
  200MOL0     C27484   2.304   6.629   7.607  0.5470 -0.3882 -0.1690
  200MOL0     C27485   2.432   6.707   7.563 -1.1228  0.3366 -0.4017
  200MOL0     O27486   2.541   6.638   7.627 -0.8228  0.3405 -0.0472
  200MOL0     C27487   2.666   6.693   7.623 -0.4692 -0.3820 -0.6158
  200MOL0     C27488   2.710   6.745   7.505 -0.0855  0.6317 -0.5892
  200MOL0     C27489   2.821   6.821   7.507  0.1564 -0.2142 -0.2847
  200MOL0     C27490   2.848   6.892   7.372 -0.3260 -0.0685  0.1561
  200MOL0     C27491   2.899   6.828   7.627  0.2726 -0.2449 -0.4482
  200MOL0     C27492   3.027   6.908   7.657  0.3887  0.2118  0.2311
  200MOL0     O27493   3.035   6.968   7.778 -0.6657 -0.4414  0.0414
  200MOL0     C27494   3.126   7.071   7.781 -0.4734 -0.6610  0.0147
  200MOL0     C27495   3.239   7.071   7.873  0.4111  0.0460 -0.3636
  200MOL0     C27496   3.321   7.185   7.892  0.2638 -0.2705  0.0680
  200MOL0     C27497   3.301   7.300   7.813  0.0391 -0.0600  0.1391
  200MOL0     O27498   3.360   7.418   7.831  0.3330  0.7427  0.1433
  200MOL0     C27499   3.497   7.428   7.877  0.0647  0.9839  0.0392
  200MOL0     C27500   3.550   7.568   7.852 -0.3323 -1.4765  0.2669
  200MOL0     C27501   3.696   7.585   7.897  0.6088 -0.0340  0.2300
  200MOL0     C27502   3.750   7.727   7.884  0.4759  0.4598  0.0302
  200MOL0     C27503   3.899   7.727   7.825 -1.1559  0.4866 -0.0069
  200MOL0     C27504   3.939   7.871   7.805  0.8825 -0.9749  0.2512
  200MOL0     C27505   4.087   7.892   7.803 -0.6403 -0.3843  0.1547
  200MOL0     C27506   4.129   8.037   7.794  0.6769 -0.2722 -0.9988
  200MOL0    Cl27507   4.045   8.137   7.925  0.2708  0.1900  0.2692
  200MOL0     C27508   3.197   7.299   7.724  0.3264  0.0896  0.1421
  200MOL0     C27509   3.110   7.188   7.708 -0.3922  0.5167 -0.2511
  200MOL0     O27510   3.104   6.923   7.557 -0.4935  0.4403  0.1919
  200MOL0     C27511   2.859   6.755   7.735  0.4089 -0.3984  0.6820
  200MOL0     C27512   2.741   6.683   7.738  0.0455  0.4375 -0.6214
  200MOL0     N27513   1.861   6.810   7.638  0.1397  0.7516  0.4170
  200MOL0     N27514   1.752   6.828   7.576  0.5966  0.0856  0.2415
  200MOL0     C27515   0.765   6.906   7.095  0.5916  0.0625  0.8632
  200MOL0     C27516   0.663   6.995   7.049  0.3641  0.1090  0.7328
  200MOL0     C27517   0.218   7.065   6.980 -0.6638 -0.5053  0.0884
  200MOL0     C27518   0.198   7.189   7.029 -0.4881 -0.7266 -0.3992
  200MOL0     C27519   0.083   7.264   7.003  0.2074 -0.1102 -0.7642
  200MOL0     C27520  -0.029   7.208   6.935 -0.3587  0.3154  0.6624
  200MOL0     O27521  -0.148   7.279   6.919 -0.0070  0.4491  0.1072
  200MOL0     C27522  -0.252   7.220   6.832 -0.2103  0.2096 -0.8070
  200MOL0     C27523  -0.373   7.312   6.818  0.0165 -0.5902 -1.0548
  200MOL0     C27524  -0.464   7.311   6.946  0.9124 -0.4264 -0.7809
  200MOL0     C27525  -0.552   7.444   6.937 -0.7501  0.0089  0.2398
  200MOL0     C27526  -0.664   7.447   7.036  0.4852 -0.8028 -0.9686
  200MOL0     C27527  -0.764   7.421   7.105  0.8584  0.0600  0.3957
  200MOL0     C27528  -0.014   7.075   6.889 -0.9681 -0.3877 -0.4029
  200MOL0     C27529   0.109   7.004   6.911  0.5547 -0.0559  0.1733
  200MOL0     C27530   0.116   6.861   6.856 -0.1358 -1.0163 -0.7262
  200MOL0     H27531   0.463   7.000   7.317 -0.0710  1.1664 -0.7495
  200MOL0     H27532   0.629   6.843   7.403 -2.9358 -0.8577  0.1107
  200MOL0     H27533   0.708   6.611   7.374  0.0907  0.2274  0.8482
  200MOL0     H27534   0.815   6.718   7.459 -2.0133 -2.4159  1.2726
  200MOL0     H27535   0.911   6.478   7.469  2.3559 -1.2763 -0.0846
  200MOL0     H27536   0.914   6.487   7.292 -0.4422 -2.6389  2.1597
  200MOL0     H27537   1.056   6.703   7.358  1.9062 -0.7835 -0.4241
  200MOL0     H27538   1.049   6.646   7.524 -0.5386 -1.8626  0.8916
  200MOL0     H27539   1.153   6.425   7.441 -1.0950  2.5376  3.4393
  200MOL0     H27540   1.166   6.509   7.282  0.5921 -1.8300 -0.0609
  200MOL0     H27541   1.284   6.611   7.548 -4.0569  2.9845 -0.5817
  200MOL0     H27542   1.311   6.681   7.384 -0.9057 -0.3561 -1.6362
  200MOL0     H27543   1.409   6.403   7.431  1.8247  1.1557  1.4499
  200MOL0     H27544   1.427   6.508   7.296 -0.8232  3.6126 -0.3423
  200MOL0     H27545   1.601   6.489   7.500  0.2486  1.2200  2.8941
  200MOL0     H27546   1.496   6.596   7.581 -0.0281 -0.4135 -0.0941
  200MOL0     H27547   1.625   6.679   7.302 -3.5319 -0.2316 -1.8760
  200MOL0     H27548   1.536   6.772   7.418  1.2284  1.1425 -3.0300
  200MOL0     H27549   1.866   6.566   7.427  1.5139  1.1020  0.6485
  200MOL0     H27550   2.049   6.525   7.569 -2.9986 -0.7034  1.5580
  200MOL0     H27551   2.066   6.615   7.718  0.0832 -0.4740  0.1762
  200MOL0     H27552   2.187   6.722   7.459 -0.0317 -1.1819  0.4630
  200MOL0     H27553   2.178   6.805   7.621 -1.6792 -0.9329  3.4064
  200MOL0     H27554   2.300   6.618   7.716  5.6871  0.2669  0.3297
  200MOL0     H27555   2.308   6.529   7.563  1.6441 -0.9141  1.0607
  200MOL0     H27556   2.441   6.696   7.454  0.7027 -0.2860 -0.2294
  200MOL0     H27557   2.414   6.809   7.598  0.3918  0.1684  0.9652
  200MOL0     H27558   2.660   6.726   7.410  2.4101 -1.1778 -1.6533
  200MOL0     H27559   2.946   6.940   7.364  0.7528 -2.3711 -1.2348
  200MOL0     H27560   2.775   6.974   7.372 -0.6879 -0.3537 -1.5795
  200MOL0     H27561   2.841   6.818   7.292  1.3227 -0.5910  0.4710
  200MOL0     H27562   3.256   6.985   7.937  0.7385  0.1735 -0.2770
  200MOL0     H27563   3.396   7.183   7.971  1.3592  0.5673 -0.9189
  200MOL0     H27564   3.504   7.400   7.983  2.1022 -0.5787 -0.4321
  200MOL0     H27565   3.543   7.343   7.826 -0.9288  1.1656 -1.1913
  200MOL0     H27566   3.534   7.600   7.748  0.5241  1.6521  0.9930
  200MOL0     H27567   3.503   7.652   7.905 -0.2880  0.6212 -2.7471
  200MOL0     H27568   3.754   7.514   7.837 -4.1501 -7.0848  2.7071
  200MOL0     H27569   3.700   7.551   8.001 -2.2152 -2.3706 -0.3164
  200MOL0     H27570   3.740   7.789   7.974  0.6735  4.0407 -2.1790
  200MOL0     H27571   3.687   7.788   7.818 -1.4876  2.7042  3.6412
  200MOL0     H27572   3.972   7.688   7.896  1.3014  0.1068 -2.5556
  200MOL0     H27573   3.908   7.663   7.736  2.0177  1.4284 -0.4848
  200MOL0     H27574   3.886   7.931   7.880 -0.9340 -0.6758 -1.2147
  200MOL0     H27575   3.885   7.904   7.716  1.7401 -0.5874 -0.1345
  200MOL0     H27576   4.116   7.841   7.710 -3.1342 -1.2562 -0.2001
  200MOL0     H27577   4.130   7.850   7.894 -2.3713  0.0186  1.1824
  200MOL0     H27578   4.118   8.089   7.699  1.1197  3.4401  0.7974
  200MOL0     H27579   4.236   8.041   7.813  0.4725  2.2359 -0.0604
  200MOL0     H27580   3.171   7.386   7.664 -0.5540  0.5743  1.1844
  200MOL0     H27581   3.026   7.190   7.640 -0.5436 -1.8768 -0.1983
  200MOL0     H27582   2.912   6.755   7.830  0.4556  0.3645  0.6591
  200MOL0     H27583   2.723   6.611   7.817  2.1858 -1.8672 -2.0619
  200MOL0     H27584   0.849   6.863   7.041  0.1600 -1.7808  1.5864
  200MOL0     H27585   0.667   7.030   6.947 -1.3109  0.6315  0.8109
  200MOL0     H27586   0.277   7.252   7.068 -2.0612  0.9013  0.3546
  200MOL0     H27587   0.081   7.362   7.048  3.2362  0.0104 -0.6833
  200MOL0     H27588  -0.204   7.210   6.734 -2.9496  1.0680 -2.3482
  200MOL0     H27589  -0.285   7.125   6.874 -0.1993  1.5559  2.5629
  200MOL0     H27590  -0.429   7.291   6.726 -1.4787  0.3486 -0.3946
  200MOL0     H27591  -0.335   7.413   6.802  0.5585 -0.6724 -0.3575
  200MOL0     H27592  -0.534   7.228   6.942  1.0592 -0.5740 -0.2749
  200MOL0     H27593  -0.410   7.305   7.040 -0.4792 -1.9103 -0.0293
  200MOL0     H27594  -0.598   7.452   6.838 -0.9515 -1.0518  0.2274
  200MOL0     H27595  -0.487   7.529   6.957  1.6623 -1.7752  0.3876
  200MOL0     H27596  -0.842   7.393   7.172  1.3935  1.2102  1.5635
  200MOL0     H27597  -0.085   7.031   6.819 -1.8146 -2.1686  1.4552
  200MOL0     H27598   0.027   6.841   6.796 -0.4428 -1.1481 -0.2384
  200MOL0     H27599   0.204   6.849   6.793  1.0430 -1.4254  0.9204
  200MOL0     H27600   0.119   6.789   6.939 -0.5437 -0.7901 -0.5118
  201MOL0     O27601   3.563   9.006   9.952  0.6871 -0.8700  0.7378
  201MOL0     C27602   3.649   9.034   9.869 -0.3698  1.2734  0.0049
  201MOL0     O27603   3.752   8.951   9.834  0.6446 -0.0256  0.5004
  201MOL0     C27604   3.772   8.829   9.894  0.3608 -0.7165 -0.1618
  201MOL0     C27605   3.776   8.804  10.038  0.1864  0.1992 -0.4003
  201MOL0     C27606   3.788   8.664  10.081 -0.3838 -0.6851 -0.2643
  201MOL0     C27607   3.786   8.565   9.984  0.2259 -0.9902  0.6573
  201MOL0     O27608   3.785   8.432  10.013 -0.0070 -0.8731  0.4193
  201MOL0     C27609   3.698   8.391  10.109  1.4371  0.1065  0.8477
  201MOL0     C27610   3.761   8.289  10.194 -0.9050  0.1600 -1.2003
  201MOL0     C27611   3.850   8.344  10.310 -0.0295  0.4258  0.2076
  201MOL0     C27612   3.876   8.231  10.407 -0.1783  0.5087 -0.9094
  201MOL0     C27613   3.972   8.274  10.527 -0.7436 -0.1356 -0.9721
  201MOL0     C27614   4.121   8.270  10.482  0.3390  1.0980 -0.1786
  201MOL0     C27615   4.211   8.331  10.591 -0.6619  0.0937  0.1649
  201MOL0     C27616   4.362   8.310  10.571  0.1366  0.3190 -0.6000
  201MOL0     N27617   4.459   8.315  10.683 -0.2387 -0.3141  0.1411
  201MOL0     C27618   4.437   8.249  10.804 -0.3065  0.0519 -0.1659
  201MOL0     C27619   4.533   8.301  10.887 -0.0794 -0.2586 -0.0344
  201MOL0     C27620   4.550   8.263  11.034 -0.4246  1.2842 -0.0515
  201MOL0     C27621   4.604   8.122  11.052 -0.2176  0.0669 -0.4862
  201MOL0     C27622   4.633   8.129  11.212  0.3866 -0.8558 -0.6624
  201MOL0     C27623   4.639   7.996  11.286 -0.4954 -0.1985  0.1882
  201MOL0     O27624   4.728   8.015  11.403 -0.5502  0.5373 -0.2441
  201MOL0     C27625   4.866   7.974  11.392 -0.4900 -0.1722  0.1813
  201MOL0     C27626   4.889   7.848  11.351 -0.2803 -0.1110 -0.1771
  201MOL0     C27627   5.019   7.789  11.366 -0.7735 -0.1610 -0.3750
  201MOL0     C27628   5.010   7.642  11.335  0.6620  0.8428  0.2868
  201MOL0     C27629   5.130   7.858  11.413  1.0305  0.1454 -0.4079
  201MOL0     C27630   5.259   7.800  11.404 -0.2859  0.7040  0.0345
  201MOL0     O27631   5.300   7.737  11.296  0.0866 -0.0800 -0.3257
  201MOL0     C27632   5.429   7.750  11.266 -0.4463 -0.1315 -0.0743
  201MOL0     C27633   5.498   7.874  11.278 -0.4100 -0.3769  0.6224
  201MOL0     C27634   5.634   7.875  11.244 -0.1678 -0.6332  0.0052
  201MOL0     C27635   5.702   7.764  11.213 -0.0482 -0.3857 -0.2273
  201MOL0     O27636   5.837   7.763  11.195  0.1613  0.5669 -0.3350
  201MOL0     C27637   5.870   7.728  11.062  0.8723 -0.0479  0.1237
  201MOL0     C27638   6.005   7.793  11.040 -0.5555  0.2387 -0.4139
  201MOL0     C27639   6.074   7.762  10.902  0.1219  0.2848 -0.2411
  201MOL0     C27640   6.216   7.827  10.898  0.8664 -0.2509 -0.1650
  201MOL0     C27641   6.267   7.818  10.745 -0.2345  0.3172 -0.6640
  201MOL0     C27642   6.398   7.752  10.723 -1.1016  0.7477 -0.2165
  201MOL0     C27643   6.380   7.598  10.749 -1.1683 -0.4507 -0.0216
  201MOL0     C27644   6.513   7.513  10.771  0.2871  0.0096 -0.3103
  201MOL0    Cl27645   6.629   7.510  10.626  0.1701  0.0716 -0.0466
  201MOL0     C27646   5.637   7.639  11.204  0.1207 -0.1686 -0.0112
  201MOL0     C27647   5.497   7.632  11.229 -0.7044 -0.1451  0.2880
  201MOL0     O27648   5.324   7.813  11.504 -0.4633 -0.2069  0.0850
  201MOL0     C27649   5.103   7.986  11.458 -0.2630  0.2275 -0.5176
  201MOL0     C27650   4.975   8.041  11.447  0.1302  0.2081  1.2449
  201MOL0     N27651   4.583   8.412  10.829  0.3076 -0.1943  0.2152
  201MOL0     N27652   4.540   8.416  10.704 -0.1978 -0.0553 -0.1191
  201MOL0     C27653   3.782   8.601   9.844 -0.0193 -0.3107 -0.3289
  201MOL0     C27654   3.774   8.735   9.797  0.9088 -0.1719  0.3669
  201MOL0     C27655   3.665   9.168   9.836 -0.3618 -0.6299  0.8833
  201MOL0     C27656   3.796   9.226   9.810  0.2036 -1.3388 -0.0553
  201MOL0     C27657   3.816   9.366   9.807  0.3137  1.0637 -0.6084
  201MOL0     C27658   3.706   9.447   9.799  0.6122  0.0490  0.1984
  201MOL0     O27659   3.735   9.576   9.757  0.2677 -0.3732 -0.3600
  201MOL0     C27660   3.627   9.675   9.735 -0.8803 -0.6066 -0.4825
  201MOL0     C27661   3.696   9.816   9.722 -0.0713  0.9777  1.1519
  201MOL0     C27662   3.736   9.850   9.586 -1.0556  1.1042  0.0293
  201MOL0     C27663   3.804   9.733   9.497  0.3570 -0.0986  0.6014
  201MOL0     C27664   3.852   9.800   9.376  0.3414 -0.3380  0.7647
  201MOL0     C27665   3.901   9.852   9.276  0.0925  0.4237  0.1532
  201MOL0     C27666   3.575   9.391   9.808 -0.1503  0.7599  0.3560
  201MOL0     C27667   3.551   9.254   9.833  0.3414  1.1348  0.1450
  201MOL0     C27668   3.408   9.204   9.829  0.9832 -1.1697  0.7957
  201MOL0     H27669   3.771   8.894  10.098 -0.1902 -0.2899  0.3075
  201MOL0     H27670   3.797   8.632  10.184 -0.7073  2.6326  0.9254
  201MOL0     H27671   3.617   8.341  10.055  1.4238  0.6582  0.3432
  201MOL0     H27672   3.642   8.472  10.158  0.2829  0.1639 -0.4939
  201MOL0     H27673   3.675   8.234  10.234 -0.6050  1.1696  0.9976
  201MOL0     H27674   3.825   8.219  10.139 -1.1215  0.4205 -1.7864
  201MOL0     H27675   3.938   8.390  10.266 -1.6032  1.3823 -2.1744
  201MOL0     H27676   3.810   8.423  10.373  2.1229 -0.6294  3.0786
  201MOL0     H27677   3.783   8.194  10.450  0.3226 -1.0100 -1.0889
  201MOL0     H27678   3.920   8.140  10.365  1.1063 -2.7206  6.0399
  201MOL0     H27679   3.964   8.200  10.607 -1.7153 -2.7165 -3.3108
  201MOL0     H27680   3.950   8.372  10.571 -0.0175 -0.5965  0.4692
  201MOL0     H27681   4.150   8.168  10.455  0.1795  1.0822 -0.2969
  201MOL0     H27682   4.133   8.338  10.397  0.9846  4.1593  2.2099
  201MOL0     H27683   4.170   8.290  10.684  0.8087 -0.3518  0.6461
  201MOL0     H27684   4.187   8.437  10.598 -0.1446  0.5428 -3.0309
  201MOL0     H27685   4.369   8.216  10.517 -2.1414 -0.3418  0.1459
  201MOL0     H27686   4.397   8.396  10.512  0.2765  0.3823 -0.4265
  201MOL0     H27687   4.389   8.152  10.817  1.8635 -1.1842 -0.7873
  201MOL0     H27688   4.458   8.265  11.093  0.8937  0.1036  2.1777
  201MOL0     H27689   4.618   8.339  11.076 -0.9615  1.3356  0.7379
  201MOL0     H27690   4.527   8.051  11.021 -1.3538  1.5342 -1.1347
  201MOL0     H27691   4.699   8.116  10.998 -0.1615  4.1307 -1.1578
  201MOL0     H27692   4.730   8.175  11.234 -1.1780  1.3033  2.4610
  201MOL0     H27693   4.553   8.187  11.261 -2.0563 -2.5487 -2.3947
  201MOL0     H27694   4.537   7.974  11.319 -1.1880  1.1641 -0.9457
  201MOL0     H27695   4.671   7.915  11.221 -3.4926 -2.2310  1.0495
  201MOL0     H27696   4.814   7.773  11.327 -0.2761 -0.0121 -0.5057
  201MOL0     H27697   4.933   7.614  11.262  2.6436 -5.2595 -0.0456
  201MOL0     H27698   4.972   7.580  11.416  0.6219 -1.2484 -1.2385
  201MOL0     H27699   5.109   7.611  11.299  0.8275  2.6826 -1.0212
  201MOL0     H27700   5.445   7.967  11.296  1.3320  0.8066 -0.1549
  201MOL0     H27701   5.682   7.972  11.252  1.1547 -1.3410  0.9160
  201MOL0     H27702   5.888   7.621  11.047  0.1051  0.0588 -1.9558
  201MOL0     H27703   5.794   7.755  10.988 -0.4981  4.5372  2.7754
  201MOL0     H27704   5.972   7.897  11.033 -1.5423 -0.1715 -2.9318
  201MOL0     H27705   6.073   7.775  11.123 -0.5730  0.4538 -0.3525
  201MOL0     H27706   6.013   7.797  10.818 -1.5667 -0.0406  0.8116
  201MOL0     H27707   6.092   7.656  10.887  1.7963  0.5194 -0.0465
  201MOL0     H27708   6.282   7.784  10.974 -1.0406  1.3114  2.5513
  201MOL0     H27709   6.209   7.933  10.925 -2.5250 -0.4582  0.2056
  201MOL0     H27710   6.182   7.779  10.689 -1.8739 -1.4370  2.7109
  201MOL0     H27711   6.288   7.923  10.723 -1.0005  1.0626  1.7969
  201MOL0     H27712   6.462   7.794  10.801  0.3721 -2.0934  0.2163
  201MOL0     H27713   6.442   7.765  10.624 -0.1055  0.4014  0.1754
  201MOL0     H27714   6.336   7.557  10.657 -0.5443 -1.1105 -0.0315
  201MOL0     H27715   6.308   7.585  10.830 -1.8875  1.3498 -0.3081
  201MOL0     H27716   6.488   7.409  10.796 -0.6326  0.2882 -0.0261
  201MOL0     H27717   6.561   7.566  10.854  0.4895  2.8044 -2.1108
  201MOL0     H27718   5.696   7.554  11.171 -2.0803 -1.2181 -1.4521
  201MOL0     H27719   5.444   7.538  11.228  1.4460 -1.5660  3.0626
  201MOL0     H27720   5.183   8.045  11.502  1.0812 -1.5573 -0.3998
  201MOL0     H27721   4.955   8.144  11.476 -0.2361  1.0149 -1.5615
  201MOL0     H27722   3.780   8.526   9.765  0.2920  0.5841 -1.2210
  201MOL0     H27723   3.746   8.750   9.694 -0.6336 -2.8398  0.3047
  201MOL0     H27724   3.887   9.168   9.797  2.8734  2.0964  1.6593
  201MOL0     H27725   3.915   9.410   9.793  1.5358 -1.0719  0.8015
  201MOL0     H27726   3.571   9.636   9.650  0.9091 -1.4404 -1.3212
  201MOL0     H27727   3.573   9.676   9.831 -2.8467  2.1909 -1.4772
  201MOL0     H27728   3.790   9.828   9.778  1.1778  4.1230 -1.3055
  201MOL0     H27729   3.631   9.896   9.758 -1.0361  2.2745 -2.9551
  201MOL0     H27730   3.647   9.895   9.542 -0.2742  1.2453 -1.4683
  201MOL0     H27731   3.805   9.934   9.597  0.9959 -0.5189  0.3089
  201MOL0     H27732   3.733   9.656   9.466 -0.3717  0.5700  0.5681
  201MOL0     H27733   3.885   9.681   9.549 -1.4006 -5.0789 -1.1276
  201MOL0     H27734   3.920   9.922   9.197 -2.3043  1.3963  0.3479
  201MOL0     H27735   3.495   9.463   9.795 -1.0558 -0.1545  0.6849
  201MOL0     H27736   3.370   9.203   9.931  1.2488 -0.1901  0.9122
  201MOL0     H27737   3.349   9.278   9.774  0.3790 -2.6633 -0.6603
  201MOL0     H27738   3.395   9.111   9.772  1.1193 -0.3531 -0.6369
  202MOL0     O27739   2.296   1.564   9.905 -0.3647  0.3117 -0.3605
  202MOL0     C27740   2.235   1.620   9.998 -0.0773  0.7571 -0.5438
  202MOL0     O27741   2.120   1.690   9.983  0.0507  0.1518  0.3941
  202MOL0     C27742   2.067   1.709   9.856  0.0641  0.0847 -0.1799
  202MOL0     C27743   2.082   1.629   9.736 -0.2437  0.3161  0.8339
  202MOL0     C27744   2.028   1.676   9.614 -0.5627 -0.1791  0.0446
  202MOL0     C27745   1.974   1.803   9.606  0.2292 -0.6849 -0.2574
  202MOL0     O27746   1.930   1.845   9.482 -0.0662  0.8174 -0.2749
  202MOL0     C27747   1.910   1.987   9.462 -0.0932 -0.2922  0.2461
  202MOL0     C27748   1.918   2.017   9.313  0.0382  0.6265  0.7832
  202MOL0     C27749   1.837   1.903   9.228  0.8052  0.4121  0.0278
  202MOL0     C27750   1.686   1.932   9.251 -0.1927  0.3593  0.6959
  202MOL0     C27751   1.594   1.816   9.221  0.1814 -0.0217 -0.0946
  202MOL0     C27752   1.601   1.776   9.077 -0.0703  0.4407  0.6507
  202MOL0     C27753   1.479   1.682   9.041  0.4255 -0.3148  0.1992
  202MOL0     C27754   1.369   1.761   8.983  0.0253 -0.3612 -0.7564
  202MOL0     N27755   1.252   1.680   8.971  0.4362  0.6538 -0.3262
  202MOL0     C27756   1.240   1.556   8.906  0.3634  0.4828 -0.2695
  202MOL0     C27757   1.109   1.528   8.918  1.1315 -0.6237 -0.3924
  202MOL0     C27758   1.058   1.400   8.861 -0.9202  0.1135  0.3072
  202MOL0     C27759   0.930   1.357   8.937 -0.1348 -0.3930 -0.1975
  202MOL0     C27760   0.865   1.249   8.838  0.2934 -0.7181 -0.6819
  202MOL0     C27761   0.766   1.167   8.920 -0.5336 -0.3812 -0.1771
  202MOL0     O27762   0.829   1.085   9.012 -0.2669  0.0044 -0.1126
  202MOL0     C27763   0.745   1.008   9.085 -0.6537  0.1242 -0.4902
  202MOL0     C27764   0.611   1.043   9.112 -0.0803 -0.0703  0.1270
  202MOL0     C27765   0.522   0.963   9.174 -1.0210  0.9411  0.0084
  202MOL0     C27766   0.371   1.006   9.182 -0.0530 -0.1239  0.0974
  202MOL0     C27767   0.564   0.832   9.213 -0.1628 -0.1197 -1.3301
  202MOL0     C27768   0.469   0.727   9.270  0.9764  0.0101 -0.1466
  202MOL0     O27769   0.531   0.640   9.355  0.1366 -0.2441  0.3389
  202MOL0     C27770   0.469   0.535   9.419 -0.3155 -1.2496  0.4752
  202MOL0     C27771   0.545   0.441   9.486 -0.2056 -0.1451  0.8044
  202MOL0     C27772   0.498   0.320   9.546  0.3358  0.3989 -0.3064
  202MOL0     C27773   0.363   0.290   9.548 -0.4958  1.3881 -0.3985
  202MOL0     O27774   0.316   0.179   9.620 -0.3229  0.4207 -0.3717
  202MOL0     C27775   0.185   0.188   9.658 -0.9333  0.6776 -0.5635
  202MOL0     C27776   0.162   0.073   9.764 -0.5494 -0.3082  0.3383
  202MOL0     C27777   0.013   0.064   9.791 -0.6240  0.2604 -1.1634
  202MOL0     C27778  -0.030  -0.052   9.893 -0.5425 -0.5154 -0.0071
  202MOL0     C27779  -0.186  -0.056   9.926 -0.7018  0.6678  0.5623
  202MOL0     C27780  -0.273  -0.118   9.815 -0.3335 -0.1686 -0.1351
  202MOL0     C27781  -0.222  -0.254   9.775  0.0260 -0.7595  0.6704
  202MOL0     C27782  -0.332  -0.329   9.699 -0.0185 -0.6049  0.2727
  202MOL0    Cl27783  -0.254  -0.470   9.612  0.0866  0.5843  0.4649
  202MOL0     C27784   0.283   0.379   9.476 -0.1089  0.5057  0.5324
  202MOL0     C27785   0.335   0.491   9.409 -0.8456  0.5801  0.1066
  202MOL0     O27786   0.348   0.731   9.237 -0.4858  1.3077  0.1996
  202MOL0     C27787   0.694   0.787   9.194  0.1677 -0.5809  0.6867
  202MOL0     C27788   0.788   0.879   9.136  0.6512 -0.0739 -0.1918
  202MOL0     N27789   1.044   1.639   8.981 -0.2844  0.2208  0.1285
  202MOL0     N27790   1.129   1.726   9.013  0.6883 -0.7072 -0.1769
  202MOL0     C27791   1.962   1.883   9.725 -0.2198 -0.4228  0.6830
  202MOL0     C27792   2.004   1.838   9.845 -0.0727  0.9562 -0.3781
  202MOL0     C27793   2.282   1.606  10.141  0.7969 -0.1397 -0.8366
  202MOL0     C27794   2.225   1.698  10.236 -0.8013 -1.2126 -0.2269
  202MOL0     C27795   2.277   1.708  10.364 -0.4005 -0.1569 -0.6836
  202MOL0     C27796   2.372   1.611  10.409  0.6390 -1.3146  0.0999
  202MOL0     O27797   2.429   1.605  10.537  0.1353  0.2596 -0.3679
  202MOL0     C27798   2.348   1.628  10.650 -0.2021  0.0858  0.9584
  202MOL0     C27799   2.445   1.664  10.768  1.0231 -0.4178  0.6421
  202MOL0     C27800   2.518   1.792  10.724 -0.5170  0.3248 -0.3706
  202MOL0     C27801   2.627   1.853  10.835 -0.4322  0.8596  0.5531
  202MOL0     C27802   2.734   1.756  10.862 -0.5903  0.3417 -0.4878
  202MOL0     C27803   2.832   1.680  10.872 -0.1309 -0.8143 -0.3192
  202MOL0     C27804   2.425   1.525  10.313  0.1968  0.2124  0.3046
  202MOL0     C27805   2.380   1.518  10.186 -0.3909 -0.0566  1.0490
  202MOL0     C27806   2.447   1.406  10.110 -0.1736 -0.7076  0.9215
  202MOL0     H27807   2.126   1.530   9.734  0.2084  0.5238 -1.0583
  202MOL0     H27808   2.032   1.623   9.519 -2.4265  1.4511 -1.0453
  202MOL0     H27809   1.983   2.040   9.525  0.3944 -2.2443  1.4268
  202MOL0     H27810   1.809   2.010   9.497  0.0142  0.2277  0.2232
  202MOL0     H27811   1.882   2.118   9.289  2.3842  0.9543 -1.8590
  202MOL0     H27812   2.020   2.019   9.272  0.1569 -0.5589  0.9986
  202MOL0     H27813   1.851   1.908   9.120  0.9510 -0.5405 -0.0034
  202MOL0     H27814   1.855   1.801   9.264  1.5545 -0.0515 -1.5817
  202MOL0     H27815   1.662   1.966   9.351 -0.8079  1.8620  0.0628
  202MOL0     H27816   1.651   2.010   9.182 -2.2434 -1.5323 -0.5515
  202MOL0     H27817   1.495   1.847   9.255  1.5626  3.6995  0.9752
  202MOL0     H27818   1.628   1.733   9.284 -1.7886  1.7165  3.5808
  202MOL0     H27819   1.598   1.862   9.010  3.3263  0.8829  0.9294
  202MOL0     H27820   1.688   1.719   9.043 -2.0273 -1.2517 -2.0170
  202MOL0     H27821   1.459   1.610   9.121  0.0231 -1.3432 -0.7925
  202MOL0     H27822   1.505   1.622   8.953  1.0183  2.3236 -1.5297
  202MOL0     H27823   1.365   1.844   9.054  2.5017  0.0006 -0.9251
  202MOL0     H27824   1.404   1.805   8.889  0.2581 -1.8978 -1.4334
  202MOL0     H27825   1.318   1.490   8.869 -1.1917 -1.2915 -0.5307
  202MOL0     H27826   1.138   1.326   8.860  0.4281  1.4056  3.1574
  202MOL0     H27827   1.037   1.415   8.754 -2.3112 -5.0255 -0.4021
  202MOL0     H27828   0.957   1.316   9.035  0.5065 -0.4346 -0.3903
  202MOL0     H27829   0.855   1.437   8.940  1.4237  1.2229 -1.6482
  202MOL0     H27830   0.798   1.303   8.771 -0.6452 -1.1906 -0.1404
  202MOL0     H27831   0.926   1.176   8.785 -1.2015 -2.0564 -0.6161
  202MOL0     H27832   0.722   1.249   8.977 -1.5508  0.8211 -2.5590
  202MOL0     H27833   0.687   1.118   8.863 -1.2904 -2.0492  2.1167
  202MOL0     H27834   0.572   1.131   9.063 -0.3724 -1.2830 -1.9336
  202MOL0     H27835   0.301   0.974   9.105  0.7918 -1.1519 -0.2625
  202MOL0     H27836   0.377   1.115   9.172  0.7819 -0.2997 -1.9034
  202MOL0     H27837   0.344   0.990   9.287  3.2199 -0.5149  0.9982
  202MOL0     H27838   0.646   0.480   9.489 -0.4492  1.3640 -3.5260
  202MOL0     H27839   0.573   0.263   9.602  0.3905  0.1077 -0.6728
  202MOL0     H27840   0.169   0.274   9.723 -0.6928 -0.0722  0.5272
  202MOL0     H27841   0.115   0.173   9.575 -3.1901 -1.5959  1.5644
  202MOL0     H27842   0.203  -0.023   9.732  1.3493 -0.3739  2.6457
  202MOL0     H27843   0.213   0.104   9.856  1.4307  3.5904 -1.8106
  202MOL0     H27844  -0.034   0.039   9.695 -0.9726  0.4629 -1.0482
  202MOL0     H27845  -0.023   0.158   9.834 -0.5656  0.0674 -0.6917
  202MOL0     H27846   0.040  -0.033   9.976 -0.1563 -3.4229  0.4447
  202MOL0     H27847   0.005  -0.144   9.847  2.1542  1.0590 -1.3850
  202MOL0     H27848  -0.199  -0.114  10.017  2.3460  0.4160  0.9265
  202MOL0     H27849  -0.216   0.048   9.943 -0.4526  0.7216  0.6719
  202MOL0     H27850  -0.282  -0.052   9.728  1.5739 -0.0893 -0.3292
  202MOL0     H27851  -0.370  -0.126   9.864 -0.3183  0.8049  0.0838
  202MOL0     H27852  -0.202  -0.309   9.868  5.3855  1.5192  1.2671
  202MOL0     H27853  -0.129  -0.259   9.717 -0.0006  2.5442  0.1801
  202MOL0     H27854  -0.383  -0.264   9.627  0.7403  0.6873  0.8745
  202MOL0     H27855  -0.412  -0.374   9.758  0.1767 -1.5328 -0.1492
  202MOL0     H27856   0.177   0.365   9.459 -0.2671  2.1532  0.0675
  202MOL0     H27857   0.258   0.546   9.355  1.2535  0.3608 -3.4046
  202MOL0     H27858   0.733   0.687   9.212  2.2585 -0.1122 -0.7465
  202MOL0     H27859   0.889   0.857   9.105 -0.1866 -2.8617 -1.2792
  202MOL0     H27860   1.912   1.979   9.725  0.9556  0.2436  1.8990
  202MOL0     H27861   1.988   1.904   9.929  2.9471  0.6716  0.5462
  202MOL0     H27862   2.146   1.771  10.218 -0.5926 -1.5831 -3.3285
  202MOL0     H27863   2.244   1.792  10.424  0.7783  0.5620 -1.0143
  202MOL0     H27864   2.281   1.714  10.636  2.5295  2.5713  2.2627
  202MOL0     H27865   2.290   1.541  10.684  0.1553 -1.0479 -1.1463
  202MOL0     H27866   2.515   1.582  10.788  1.0698 -0.4097  0.5180
  202MOL0     H27867   2.387   1.690  10.856 -0.4737 -0.2605 -0.3655
  202MOL0     H27868   2.582   1.778  10.637 -0.9790 -1.1368 -0.5050
  202MOL0     H27869   2.444   1.867  10.694  0.0216  0.4300 -1.4826
  202MOL0     H27870   2.572   1.893  10.920  0.0776 -0.7170  1.6763
  202MOL0     H27871   2.674   1.943  10.796 -2.6069  1.0757 -1.9296
  202MOL0     H27872   2.922   1.623  10.877  1.0714  1.1146  1.2571
  202MOL0     H27873   2.497   1.449  10.341 -0.2622 -0.5389 -0.5510
  202MOL0     H27874   2.363   1.355  10.063 -1.6632 -2.7336  5.2691
  202MOL0     H27875   2.503   1.452  10.027 -4.9362  0.1084 -2.2386
  202MOL0     H27876   2.502   1.337  10.174  1.8263  1.6783  1.9495
  203MOL0     O27877  10.885   7.569   0.868 -0.2581  0.0102 -0.6557
  203MOL0     C27878  10.924   7.476   0.941 -0.1330  0.1058  0.6728
  203MOL0     O27879  11.025   7.488   1.027 -0.2759  0.2603  0.1202
  203MOL0     C27880  11.078   7.613   1.051  0.1243  0.1554  0.1336
  203MOL0     C27881  11.188   7.665   0.978 -0.7806  0.7521 -0.1158
  203MOL0     C27882  11.249   7.790   1.006  0.2973 -0.9329 -0.0162
  203MOL0     C27883  11.203   7.862   1.110  0.4368 -0.1393 -0.8860
  203MOL0     O27884  11.265   7.969   1.160  0.0271 -1.0136  0.3717
  203MOL0     C27885  11.398   8.003   1.128 -0.3483  0.4585 -0.3788
  203MOL0     C27886  11.465   8.069   1.250 -0.2906 -0.0307  0.2222
  203MOL0     C27887  11.463   7.982   1.372  0.7559 -0.5422 -0.5660
  203MOL0     C27888  11.580   7.889   1.381 -0.2285 -0.7025  0.1442
  203MOL0     C27889  11.585   7.830   1.521  0.0656  0.2837  0.2764
  203MOL0     C27890  11.720   7.763   1.536 -0.2116  0.2056 -0.3459
  203MOL0     C27891  11.700   7.614   1.514  0.0032 -0.0505 -0.1340
  203MOL0     C27892  11.821   7.521   1.474  0.3957 -0.3647 -0.2590
  203MOL0     N27893  11.945   7.544   1.558 -0.0491 -0.3472 -0.3768
  203MOL0     C27894  11.954   7.538   1.691  0.4209 -0.2235 -1.1654
  203MOL0     C27895  12.073   7.595   1.723 -0.0051 -0.0567  0.4183
  203MOL0     C27896  12.138   7.631   1.853  0.7168  0.0978 -0.5176
  203MOL0     C27897  12.146   7.791   1.878  0.6538 -0.1999  0.2217
  203MOL0     C27898  12.018   7.858   1.907  0.5992  0.4070 -0.5028
  203MOL0     C27899  12.025   8.011   1.939  0.8163 -0.3199  0.0336
  203MOL0     O27900  12.082   8.045   2.063 -0.5876  0.2102 -1.0030
  203MOL0     C27901  12.222   8.064   2.071  0.4852 -0.7547  0.5727
  203MOL0     C27902  12.300   8.107   1.957 -0.3749 -0.1777 -0.4106
  203MOL0     C27903  12.438   8.128   1.966 -0.5284 -0.6243  0.5673
  203MOL0     C27904  12.498   8.191   1.843 -0.4578 -0.1116 -0.1231
  203MOL0     C27905  12.510   8.105   2.088 -0.4945  0.3070  0.3442
  203MOL0     C27906  12.647   8.127   2.106  0.5705 -0.0719  0.2923
  203MOL0     O27907  12.740   8.086   2.018  0.3501  0.6233  0.1753
  203MOL0     C27908  12.869   8.123   2.030  0.3439  0.4286 -0.3643
  203MOL0     C27909  12.934   8.165   1.907  0.0540  0.2069 -0.8069
  203MOL0     C27910  13.069   8.204   1.910 -0.4058  0.2269 -0.9554
  203MOL0     C27911  13.141   8.185   2.025  0.1131  0.4040 -0.0632
  203MOL0     O27912  13.275   8.211   2.013 -0.3905  0.0562 -0.2227
  203MOL0     C27913  13.370   8.152   2.098 -0.7203 -0.5212  1.2266
  203MOL0     C27914  13.486   8.106   1.994  1.0580 -0.0824 -0.8833
  203MOL0     C27915  13.571   7.997   2.053  0.3001  1.8597 -0.5646
  203MOL0     C27916  13.685   7.941   1.968 -0.9300  0.0025  0.5678
  203MOL0     C27917  13.826   7.948   2.044  0.3603  0.8881  0.4010
  203MOL0     C27918  13.934   7.875   1.970 -0.1991 -0.5585 -0.6204
  203MOL0     C27919  13.947   7.726   1.998  0.1176  0.3233 -1.2230
  203MOL0     C27920  13.969   7.680   2.151 -1.1834 -0.5198 -1.8766
  203MOL0    Cl27921  13.936   7.513   2.178  0.5288  0.2542 -0.4186
  203MOL0     C27922  13.081   8.148   2.143  0.1629  0.3017  0.4869
  203MOL0     C27923  12.945   8.116   2.145 -0.1836  0.3035 -0.5363
  203MOL0     O27924  12.662   8.214   2.192 -0.6508 -0.1227  0.0812
  203MOL0     C27925  12.422   8.076   2.201  0.2459 -0.2242 -0.0677
  203MOL0     C27926  12.289   8.060   2.195 -0.3297  0.3092 -0.4443
  203MOL0     N27927  12.142   7.634   1.605  0.0317 -1.2000 -0.5017
  203MOL0     N27928  12.053   7.612   1.516  0.0548 -0.1499 -0.4170
  203MOL0     C27929  11.102   7.817   1.194  0.2897  0.3988  0.8440
  203MOL0     C27930  11.042   7.689   1.166  0.1013 -0.0768 -0.1911
  203MOL0     C27931  10.868   7.345   0.931 -0.3928  1.0383  0.6660
  203MOL0     C27932  10.905   7.256   1.030  0.0002  0.5652 -0.2107
  203MOL0     C27933  10.845   7.125   1.045 -0.8609  0.8471 -0.1761
  203MOL0     C27934  10.732   7.089   0.969  0.1545 -1.3562 -0.6251
  203MOL0     O27935  10.655   6.981   0.975 -0.5833 -0.2287 -0.0693
  203MOL0     C27936  10.667   6.891   1.091  0.2851  0.0842 -0.5482
  203MOL0     C27937  10.634   6.745   1.049 -0.4937 -0.2940  0.7045
  203MOL0     C27938  10.490   6.743   0.982 -0.9484 -0.6917  0.5850
  203MOL0     C27939  10.370   6.777   1.076 -0.2359  0.3173  0.2558
  203MOL0     C27940  10.372   6.699   1.198  0.4390 -0.4722  0.5567
  203MOL0     C27941  10.383   6.631   1.296 -0.2496  0.2870  0.4529
  203MOL0     C27942  10.694   7.181   0.873  0.8568 -0.3080 -0.1729
  203MOL0     C27943  10.760   7.298   0.842 -0.1550 -1.3741 -0.0463
  203MOL0     C27944  10.704   7.369   0.717 -0.3065 -0.3203  0.0133
  203MOL0     H27945  11.232   7.597   0.905  0.7132  2.0045 -0.4154
  203MOL0     H27946  11.343   7.816   0.958  0.5673 -0.0679  0.9272
  203MOL0     H27947  11.419   8.071   1.045  0.7348  0.7439  0.0995
  203MOL0     H27948  11.455   7.912   1.108 -0.2486  0.2567  0.7887
  203MOL0     H27949  11.563   8.110   1.223 -0.9298 -0.0189 -2.3489
  203MOL0     H27950  11.400   8.154   1.272  0.0083 -0.0739  1.3294
  203MOL0     H27951  11.457   8.048   1.459  0.9519  1.7050 -2.1679
  203MOL0     H27952  11.372   7.923   1.358 -0.0209  0.7421 -1.1716
  203MOL0     H27953  11.572   7.807   1.309  0.5156  0.3382 -1.1822
  203MOL0     H27954  11.671   7.947   1.363 -1.9572  2.0905 -0.2546
  203MOL0     H27955  11.500   7.762   1.533 -1.2488  2.0252  1.3175
  203MOL0     H27956  11.593   7.904   1.601  2.1999  1.4326 -0.8863
  203MOL0     H27957  11.781   7.799   1.453 -0.1948  4.5096  1.2384
  203MOL0     H27958  11.758   7.786   1.636 -1.2916 -3.5846  1.0994
  203MOL0     H27959  11.620   7.586   1.444 -0.5243  0.7876  0.1117
  203MOL0     H27960  11.660   7.576   1.609  1.0137 -2.5434 -0.6299
  203MOL0     H27961  11.799   7.414   1.485 -1.8204  0.2784  3.3150
  203MOL0     H27962  11.855   7.538   1.372 -0.7997 -0.3818 -0.6722
  203MOL0     H27963  11.892   7.475   1.755  0.7991 -0.2815 -0.8494
  203MOL0     H27964  12.241   7.593   1.851  0.8678  0.4593  0.1877
  203MOL0     H27965  12.072   7.587   1.928 -0.4226  0.1325 -1.4788
  203MOL0     H27966  12.215   7.802   1.962  1.8587  0.7758 -0.8437
  203MOL0     H27967  12.181   7.843   1.788  0.1820 -0.0236  0.1392
  203MOL0     H27968  11.954   7.835   1.822  2.0600  1.1153 -1.8437
  203MOL0     H27969  11.984   7.806   1.997 -0.0792  0.4202 -0.7479
  203MOL0     H27970  12.050   8.069   1.850 -1.8979  0.3512 -0.3652
  203MOL0     H27971  11.922   8.039   1.961 -0.7645 -1.9706 -4.2463
  203MOL0     H27972  12.262   8.132   1.859  1.7819  0.7885 -1.0564
  203MOL0     H27973  12.586   8.250   1.869  1.4528 -1.0670 -3.6390
  203MOL0     H27974  12.429   8.249   1.780 -1.2571  0.4098  1.1899
  203MOL0     H27975  12.544   8.104   1.795  3.0144  0.3715  2.0224
  203MOL0     H27976  12.874   8.166   1.816  0.1194 -0.9254 -0.8808
  203MOL0     H27977  13.110   8.254   1.822 -1.6681  0.3878 -1.4682
  203MOL0     H27978  13.411   8.226   2.166 -3.4035  1.3629  0.9346
  203MOL0     H27979  13.332   8.059   2.143 -0.7476 -2.8812 -3.0742
  203MOL0     H27980  13.440   8.076   1.900 -2.2146  0.7187  0.3439
  203MOL0     H27981  13.552   8.193   1.980  0.3965  0.2795 -1.8167
  203MOL0     H27982  13.499   7.916   2.072  1.2869  0.8319 -1.0746
  203MOL0     H27983  13.607   8.020   2.153 -1.5024  1.0357  0.3207
  203MOL0     H27984  13.678   7.986   1.868  2.4096 -0.0006  0.2174
  203MOL0     H27985  13.673   7.834   1.950  1.0419 -0.0442 -0.7761
  203MOL0     H27986  13.851   8.051   2.069  0.2321  0.7819  0.9926
  203MOL0     H27987  13.807   7.896   2.139  1.6534  0.2708  0.3484
  203MOL0     H27988  14.023   7.928   2.004 -1.1070  1.3060 -0.9645
  203MOL0     H27989  13.928   7.879   1.861 -1.3110 -3.3219 -0.7287
  203MOL0     H27990  14.027   7.687   1.935  3.4879 -2.2145  3.9333
  203MOL0     H27991  13.858   7.677   1.959 -0.6707  1.7293 -1.2705
  203MOL0     H27992  13.918   7.729   2.234  2.6174 -0.9892  0.9852
  203MOL0     H27993  14.073   7.707   2.168 -1.4188 -1.4143  1.8033
  203MOL0     H27994  13.128   8.147   2.240 -1.5500  1.5917  1.3912
  203MOL0     H27995  12.905   8.084   2.240 -2.1191  0.3855 -1.2664
  203MOL0     H27996  12.472   8.068   2.297 -2.1376 -2.8950  1.1101
  203MOL0     H27997  12.231   8.039   2.285  1.0638 -0.9755  0.1999
  203MOL0     H27998  11.079   7.879   1.280 -0.5231  0.5330  0.5346
  203MOL0     H27999  10.979   7.653   1.247 -1.4624 -0.1505 -1.3790
  203MOL0     H28000  10.989   7.272   1.098 -0.2922 -0.2790  0.3610
  203MOL0     H28001  10.892   7.053   1.110  2.6944  0.6130 -2.7366
  203MOL0     H28002  10.764   6.893   1.142 -0.2679  0.1356  0.5285
  203MOL0     H28003  10.588   6.924   1.159  0.5493  3.7937 -1.7584
  203MOL0     H28004  10.633   6.682   1.139  1.0776 -1.1287  0.1866
  203MOL0     H28005  10.710   6.700   0.985 -1.3213  0.2267 -0.6786
  203MOL0     H28006  10.493   6.795   0.886  0.3331  3.7478  2.7616
  203MOL0     H28007  10.467   6.643   0.945 -0.5357 -1.1195  1.4528
  203MOL0     H28008  10.275   6.761   1.023  0.2756  1.1956 -0.9776
  203MOL0     H28009  10.384   6.884   1.096  0.2738  0.4015 -0.4984
  203MOL0     H28010  10.374   6.564   1.379  1.0571  0.8744  1.1027
  203MOL0     H28011  10.607   7.158   0.812 -1.3839  1.3984  2.1447
  203MOL0     H28012  10.663   7.303   0.641 -2.2288 -0.2035  0.8709
  203MOL0     H28013  10.644   7.450   0.760  2.6508  2.1876 -0.2423
  203MOL0     H28014  10.786   7.423   0.669  1.0056 -2.9997 -0.9075
  204MOL0     O28015  11.319   8.664   3.019 -0.4204 -0.1840  0.3515
  204MOL0     C28016  11.303   8.550   3.063 -0.7070  0.0095  0.5599
  204MOL0     O28017  11.366   8.493   3.168  0.3303  0.1874 -0.5149
  204MOL0     C28018  11.471   8.561   3.220  0.4652  0.2182 -0.1022
  204MOL0     C28019  11.455   8.649   3.322 -0.1559 -0.5292  0.3750
  204MOL0     C28020  11.561   8.699   3.392 -0.6011  0.5786  1.0114
  204MOL0     C28021  11.692   8.672   3.354  0.4451 -0.0308  0.3340
  204MOL0     O28022  11.787   8.729   3.430  0.1093 -0.0209 -0.5313
  204MOL0     C28023  11.913   8.759   3.370 -0.2842  0.5639  1.0430
  204MOL0     C28024  12.006   8.654   3.417  0.0862  0.1945  0.5058
  204MOL0     C28025  12.117   8.633   3.315 -0.2506  0.5743  0.5581
  204MOL0     C28026  12.235   8.584   3.394  0.0005  0.6909  0.6269
  204MOL0     C28027  12.342   8.562   3.294  0.0216  0.3231 -0.4804
  204MOL0     C28028  12.467   8.534   3.381  0.3044  0.2397  0.0905
  204MOL0     C28029  12.539   8.413   3.338 -1.0075  0.8948  0.4574
  204MOL0     C28030  12.572   8.405   3.182  0.9139 -0.3957 -0.3840
  204MOL0     N28031  12.699   8.472   3.157  0.1221 -0.1874  0.2120
  204MOL0     C28032  12.722   8.604   3.160 -0.1284  0.0943  0.9858
  204MOL0     C28033  12.856   8.617   3.165 -0.3106 -0.6721  0.7602
  204MOL0     C28034  12.952   8.737   3.153  0.2745  0.3669 -0.0333
  204MOL0     C28035  13.055   8.715   3.049 -0.3135  0.3466 -0.4348
  204MOL0     C28036  13.122   8.841   2.989  0.7865  0.1189 -0.8922
  204MOL0     C28037  13.242   8.808   2.903  1.1167  1.3982 -0.6869
  204MOL0     O28038  13.315   8.926   2.895 -0.3517  0.9289  0.0408
  204MOL0     C28039  13.449   8.921   2.859  0.0612  0.7923  0.1080
  204MOL0     C28040  13.539   8.987   2.934  0.0798 -0.8318  0.0401
  204MOL0     C28041  13.678   8.977   2.917  0.2105 -0.1600  0.1310
  204MOL0     C28042  13.774   9.065   3.003 -0.5436  1.5773  0.7341
  204MOL0     C28043  13.725   8.891   2.815 -0.0678 -0.9162  0.1489
  204MOL0     C28044  13.866   8.869   2.796 -0.3900 -0.5217  0.5850
  204MOL0     O28045  13.929   8.910   2.676 -0.1782 -0.0543 -0.3528
  204MOL0     C28046  14.067   8.903   2.654 -1.0682 -0.3060  1.1820
  204MOL0     C28047  14.173   8.937   2.743 -0.0325  0.2130  0.5451
  204MOL0     C28048  14.304   8.956   2.703  0.6874 -0.9415  0.1514
  204MOL0     C28049  14.339   8.953   2.569  0.0007 -0.5686 -0.4551
  204MOL0     O28050  14.461   8.999   2.526  0.9787  0.4495  0.1298
  204MOL0     C28051  14.489   9.138   2.526 -0.6317  0.0731  0.5621
  204MOL0     C28052  14.631   9.161   2.470  0.7223 -0.5429 -0.4969
  204MOL0     C28053  14.665   9.312   2.454 -0.5729  0.4538  0.9329
  204MOL0     C28054  14.810   9.339   2.425  1.1970 -1.2941 -0.3113
  204MOL0     C28055  14.844   9.488   2.431  0.4054 -0.2625  1.1234
  204MOL0     C28056  14.759   9.579   2.333  1.2280  1.2024 -0.7935
  204MOL0     C28057  14.830   9.716   2.319 -0.3024 -0.1308  0.6974
  204MOL0     C28058  14.749   9.832   2.241 -0.3204 -0.0022 -0.7882
  204MOL0    Cl28059  14.591   9.859   2.323 -0.2781 -0.1049 -0.2197
  204MOL0     C28060  14.246   8.908   2.471  0.3092 -1.6278 -1.0215
  204MOL0     C28061  14.112   8.900   2.520 -0.2044 -0.3119  0.0336
  204MOL0     O28062  13.921   8.810   2.884  0.3136 -0.7608 -0.5080
  204MOL0     C28063  13.635   8.817   2.740  0.1503 -0.3105  0.1828
  204MOL0     C28064  13.501   8.840   2.756 -0.5535 -0.8069  0.6923
  204MOL0     N28065  12.915   8.494   3.173 -0.0475 -0.9383  0.1143
  204MOL0     N28066  12.822   8.410   3.173  0.7455  0.5369  0.5646
  204MOL0     C28067  11.718   8.583   3.251  0.5869  0.6888 -0.1242
  204MOL0     C28068  11.603   8.535   3.180 -0.5211 -0.2791 -0.3538
  204MOL0     C28069  11.190   8.482   2.987  0.1950 -0.4384  0.7219
  204MOL0     C28070  11.107   8.561   2.900 -1.0566  0.4535 -0.3259
  204MOL0     C28071  10.994   8.505   2.826 -0.2841 -1.1529  0.5306
  204MOL0     C28072  10.982   8.363   2.829  0.6705  1.3566  0.4457
  204MOL0     O28073  10.882   8.295   2.749  0.2777  0.1445 -0.0734
  204MOL0     C28074  10.760   8.258   2.808  0.6088  0.1180  0.1145
  204MOL0     C28075  10.656   8.361   2.769 -0.1677 -0.3549 -0.6626
  204MOL0     C28076  10.511   8.309   2.804 -0.0002  0.5417 -0.1964
  204MOL0     C28077  10.405   8.379   2.720 -0.7521  0.2406  1.0300
  204MOL0     C28078  10.420   8.527   2.715  0.3980 -0.0036 -0.0188
  204MOL0     C28079  10.435   8.648   2.711  0.2121 -0.5998 -0.0242
  204MOL0     C28080  11.066   8.288   2.903 -0.6007 -0.2619  0.5093
  204MOL0     C28081  11.166   8.340   2.987 -0.3759 -0.0292  1.1942
  204MOL0     C28082  11.241   8.246   3.067 -0.2998  0.1715  0.7242
  204MOL0     H28083  11.357   8.686   3.350 -0.4657 -0.4509 -0.7501
  204MOL0     H28084  11.551   8.767   3.476  0.7845  2.3319 -0.1398
  204MOL0     H28085  11.948   8.858   3.403  3.6685 -0.5451  0.7434
  204MOL0     H28086  11.903   8.757   3.261  0.9839 -1.7138  0.9049
  204MOL0     H28087  12.053   8.684   3.512  0.7220 -1.1822  0.6544
  204MOL0     H28088  11.959   8.556   3.434  1.5133 -0.3351  1.6201
  204MOL0     H28089  12.079   8.570   3.235 -0.0291  0.3836  0.6033
  204MOL0     H28090  12.134   8.724   3.256 -0.0066 -2.0306 -3.8436
  204MOL0     H28091  12.264   8.654   3.473 -1.6167 -0.2945  2.1584
  204MOL0     H28092  12.215   8.489   3.444 -0.8206  0.1250 -0.7507
  204MOL0     H28093  12.358   8.643   3.223  0.3567  1.9683  1.3962
  204MOL0     H28094  12.306   8.475   3.238 -2.9866  2.3728 -1.9889
  204MOL0     H28095  12.528   8.625   3.382  2.3699 -1.0367 -1.3366
  204MOL0     H28096  12.448   8.510   3.486  2.3239 -4.2357 -0.3254
  204MOL0     H28097  12.464   8.338   3.366  0.5004 -0.0583  2.0794
  204MOL0     H28098  12.634   8.400   3.390 -1.0057  1.9621  0.7464
  204MOL0     H28099  12.571   8.297   3.165  2.5590 -1.0205  2.8279
  204MOL0     H28100  12.487   8.446   3.126 -1.2426 -2.4495  1.2034
  204MOL0     H28101  12.650   8.685   3.155 -0.1554  0.0826  1.1668
  204MOL0     H28102  12.987   8.773   3.251 -3.4657  0.6196  1.3626
  204MOL0     H28103  12.873   8.804   3.116 -2.5225 -3.1540 -0.9855
  204MOL0     H28104  13.138   8.654   3.087  1.8864  3.5588  0.3075
  204MOL0     H28105  13.001   8.669   2.965 -0.6436  2.5790 -1.5180
  204MOL0     H28106  13.048   8.896   2.932 -0.0702 -0.2635 -0.1689
  204MOL0     H28107  13.155   8.906   3.071  0.3092 -0.5345 -0.1715
  204MOL0     H28108  13.298   8.722   2.941 -0.5602 -0.0352 -1.2931
  204MOL0     H28109  13.206   8.759   2.811  1.6740 -1.2995  0.4377
  204MOL0     H28110  13.491   9.028   3.022 -1.0641 -6.3775  2.4977
  204MOL0     H28111  13.858   9.005   3.037 -0.5779  2.7772  3.0997
  204MOL0     H28112  13.729   9.115   3.089 -3.1935 -2.3093  1.8678
  204MOL0     H28113  13.817   9.142   2.938  0.4484 -0.0369 -0.5956
  204MOL0     H28114  14.153   8.939   2.849  0.2633  0.9856  0.5936
  204MOL0     H28115  14.371   8.982   2.784 -1.4348  3.1793  0.8470
  204MOL0     H28116  14.420   9.202   2.470 -1.4978  0.1637  1.6936
  204MOL0     H28117  14.479   9.173   2.629 -3.7559  1.0989  0.0251
  204MOL0     H28118  14.699   9.115   2.542 -0.6830 -1.7375  0.1349
  204MOL0     H28119  14.643   9.118   2.371  1.3437  3.2113 -2.2371
  204MOL0     H28120  14.646   9.356   2.553 -0.6944 -1.3047  1.7195
  204MOL0     H28121  14.599   9.353   2.377 -3.0082 -1.4743  1.8967
  204MOL0     H28122  14.833   9.301   2.325  1.5286 -5.9238  1.2930
  204MOL0     H28123  14.873   9.285   2.497  0.5906 -0.9319  0.5159
  204MOL0     H28124  14.841   9.531   2.532 -0.9616  3.0203 -0.1927
  204MOL0     H28125  14.947   9.495   2.396 -0.8415  1.3952 -2.7299
  204MOL0     H28126  14.662   9.590   2.383  1.7067 -2.9111  1.4924
  204MOL0     H28127  14.741   9.528   2.238  1.7033 -3.0327  1.1328
  204MOL0     H28128  14.925   9.693   2.270  0.4175 -2.0084  2.8079
  204MOL0     H28129  14.857   9.748   2.420 -0.7074  0.2548  0.6891
  204MOL0     H28130  14.736   9.818   2.134 -1.8276  1.8511 -0.8997
  204MOL0     H28131  14.812   9.921   2.245  1.0016 -0.9173 -0.5556
  204MOL0     H28132  14.272   8.910   2.366  2.2348 -0.2782 -0.5892
  204MOL0     H28133  14.028   8.884   2.452 -0.3974 -0.2035  0.2457
  204MOL0     H28134  13.678   8.747   2.669 -1.7431 -2.5141  1.0787
  204MOL0     H28135  13.431   8.794   2.686 -0.6621  0.6072 -0.1777
  204MOL0     H28136  11.815   8.546   3.220 -0.0380 -0.2373 -1.0241
  204MOL0     H28137  11.622   8.465   3.099  0.5411  0.3809 -0.6843
  204MOL0     H28138  11.131   8.667   2.905  0.4011  0.1000  1.1094
  204MOL0     H28139  10.931   8.577   2.775  0.0998 -0.7348  0.6414
  204MOL0     H28140  10.730   8.157   2.779 -3.1889  0.3042  2.6409
  204MOL0     H28141  10.768   8.231   2.914  1.2401 -0.9177 -0.1774
  204MOL0     H28142  10.671   8.391   2.665  2.5965  3.9235  0.7052
  204MOL0     H28143  10.673   8.450   2.830  1.2431 -2.1702  1.7621
  204MOL0     H28144  10.505   8.200   2.796 -0.7524  0.4610  1.1850
  204MOL0     H28145  10.503   8.346   2.906  5.2153  2.4845 -0.1593
  204MOL0     H28146  10.310   8.347   2.763 -0.1155 -3.5354 -0.0271
  204MOL0     H28147  10.397   8.345   2.617 -0.8650  0.1649  1.0635
  204MOL0     H28148  10.454   8.754   2.704  0.1283 -0.4703  1.4728
  204MOL0     H28149  11.037   8.183   2.905 -1.6295  0.0268  1.3811
  204MOL0     H28150  11.346   8.275   3.062 -0.2046 -0.3333 -0.5174
  204MOL0     H28151  11.201   8.244   3.169  0.2289 -0.1055  0.9311
  204MOL0     H28152  11.238   8.141   3.036 -0.5174 -0.6363  3.2361
  205MOL0     O28153   3.312   9.721   5.359  0.4564 -0.4177 -0.1469
  205MOL0     C28154   3.430   9.763   5.363  0.7738  0.8311  0.6683
  205MOL0     O28155   3.469   9.842   5.460  0.4627  1.2312  0.2041
  205MOL0     C28156   3.368   9.905   5.530  0.6491  0.5757  0.2984
  205MOL0     C28157   3.352  10.037   5.505 -0.3842  0.5045  0.2366
  205MOL0     C28158   3.278  10.108   5.598 -0.4045 -0.3885 -0.0053
  205MOL0     C28159   3.210  10.044   5.709 -0.0157  0.2317 -0.0694
  205MOL0     O28160   3.140  10.108   5.817  0.9632 -0.1020 -0.0297
  205MOL0     C28161   3.138  10.249   5.828 -0.5585  0.0772 -0.2522
  205MOL0     C28162   3.015  10.287   5.916 -0.7159 -0.5325  0.8426
  205MOL0     C28163   2.982  10.431   5.885 -0.5979  0.6928 -0.0508
  205MOL0     C28164   2.918  10.473   5.754 -0.4501  0.0942 -0.2418
  205MOL0     C28165   2.906  10.624   5.752 -0.2870  0.2960 -0.1987
  205MOL0     C28166   2.847  10.663   5.618 -0.1448  0.2687 -0.0904
  205MOL0     C28167   2.813  10.812   5.594 -0.3200 -0.1573  0.9323
  205MOL0     C28168   2.925  10.907   5.546 -0.5021 -0.0942 -0.2044
  205MOL0     N28169   2.875  11.044   5.537  0.2201  0.0002  0.0010
  205MOL0     C28170   2.792  11.095   5.437  0.4097  0.0966 -1.1671
  205MOL0     C28171   2.787  11.224   5.468  0.9797  0.8389  0.0894
  205MOL0     C28172   2.714  11.335   5.397 -0.5991 -0.0617  0.2162
  205MOL0     C28173   2.570  11.346   5.454  0.3594  0.1250  0.3876
  205MOL0     C28174   2.511  11.492   5.424 -0.7263 -0.6033 -0.4889
  205MOL0     C28175   2.365  11.498   5.455  0.6538 -0.4777  0.8005
  205MOL0     O28176   2.305  11.627   5.429  0.9296 -0.1413  0.4505
  205MOL0     C28177   2.186  11.622   5.351  0.4827 -0.9779 -0.1186
  205MOL0     C28178   2.071  11.593   5.422 -0.7011  0.6714  0.0986
  205MOL0     C28179   1.940  11.611   5.367 -0.5419 -0.9324 -0.1202
  205MOL0     C28180   1.822  11.561   5.446  0.1449  0.5865 -0.4396
  205MOL0     C28181   1.928  11.652   5.229 -0.0062 -0.3509  0.1854
  205MOL0     C28182   1.807  11.665   5.157 -0.3808 -0.3934  0.0932
  205MOL0     O28183   1.750  11.792   5.136 -0.3984 -0.8866 -0.6046
  205MOL0     C28184   1.648  11.788   5.042  0.6636  0.4756  0.1617
  205MOL0     C28185   1.684  11.775   4.908 -0.1002 -0.3612  0.5246
  205MOL0     C28186   1.581  11.795   4.813 -0.1289  0.5953  0.5527
  205MOL0     C28187   1.445  11.806   4.846  0.2236 -0.3564 -0.0335
  205MOL0     O28188   1.352  11.824   4.746 -0.2170  0.6022  0.0799
  205MOL0     C28189   1.214  11.779   4.771 -1.1272  0.2027 -0.9131
  205MOL0     C28190   1.128  11.797   4.649  0.1520 -0.6734  0.4120
  205MOL0     C28191   1.169  11.718   4.532  0.2436 -0.4128  0.0279
  205MOL0     C28192   1.075  11.752   4.411 -0.7084 -0.6678  0.3693
  205MOL0     C28193   0.997  11.632   4.362 -0.3423  0.2653 -0.3696
  205MOL0     C28194   0.891  11.587   4.463  0.0539 -0.0517  0.3868
  205MOL0     C28195   0.811  11.467   4.412  0.2356 -0.1749 -0.0308
  205MOL0     C28196   0.697  11.431   4.516  0.2700 -0.5237 -0.6264
  205MOL0    Cl28197   0.596  11.565   4.555 -0.2573  0.4567 -0.1570
  205MOL0     C28198   1.414  11.811   4.980  0.3274 -0.0457  0.9138
  205MOL0     C28199   1.513  11.810   5.081 -0.3742  0.2896 -0.1781
  205MOL0     O28200   1.754  11.563   5.128  0.0772 -0.0021  0.1793
  205MOL0     C28201   2.045  11.692   5.158  0.5751  0.2755 -0.2145
  205MOL0     C28202   2.171  11.676   5.222  0.5861  1.0090  0.3065
  205MOL0     N28203   2.864  11.251   5.580 -0.8371 -0.8569 -0.5341
  205MOL0     N28204   2.923  11.144   5.618 -0.1320  0.0502 -0.4681
  205MOL0     C28205   3.218   9.909   5.721  0.1347 -0.1631  0.0530
  205MOL0     C28206   3.292   9.836   5.626  0.2121  0.0928 -0.7306
  205MOL0     C28207   3.524   9.736   5.250  0.0709  0.1733 -0.0324
  205MOL0     C28208   3.651   9.796   5.248 -0.1917 -0.9587 -0.2171
  205MOL0     C28209   3.744   9.794   5.140  0.0119 -0.7297  0.8600
  205MOL0     C28210   3.714   9.712   5.032 -0.3897  0.3330 -0.1175
  205MOL0     O28211   3.782   9.701   4.909 -0.0654  0.2837 -0.2859
  205MOL0     C28212   3.888   9.801   4.887 -0.4204  0.0238 -0.2382
  205MOL0     C28213   3.956   9.792   4.741  1.2905 -0.3011  0.3900
  205MOL0     C28214   3.996   9.651   4.727  1.0751  0.3984  1.0863
  205MOL0     C28215   4.012   9.631   4.577 -0.3062  0.0204  0.6599
  205MOL0     C28216   4.035   9.487   4.560 -0.5499 -0.2488  0.0509
  205MOL0     C28217   4.053   9.368   4.565 -0.0100  0.7070  0.9992
  205MOL0     C28218   3.592   9.640   5.031  0.9069  0.1070  0.0098
  205MOL0     C28219   3.495   9.656   5.140 -0.7028 -0.1032 -0.8198
  205MOL0     C28220   3.382   9.563   5.124 -0.6227 -0.1127 -0.1867
  205MOL0     H28221   3.399  10.091   5.423 -1.8553  2.1500  0.4306
  205MOL0     H28222   3.270  10.216   5.592  0.0947 -0.4469 -2.3575
  205MOL0     H28223   3.135  10.289   5.726 -0.2073  1.4100  0.2310
  205MOL0     H28224   3.220  10.298   5.882  1.0732 -1.1813 -1.4838
  205MOL0     H28225   2.931  10.220   5.897 -0.8728  0.3080 -1.9339
  205MOL0     H28226   3.057  10.279   6.017 -0.3428  1.8240  0.9394
  205MOL0     H28227   2.912  10.467   5.962 -1.9250 -0.5583 -0.6262
  205MOL0     H28228   3.072  10.491   5.904 -0.3850  0.0876  0.9709
  205MOL0     H28229   2.972  10.431   5.669  0.4814  0.9510 -0.0923
  205MOL0     H28230   2.818  10.428   5.745 -0.9979  1.1760  0.1656
  205MOL0     H28231   3.003  10.668   5.777 -1.4758  2.2686  1.2400
  205MOL0     H28232   2.843  10.665   5.831  1.8972  1.6377  0.9223
  205MOL0     H28233   2.915  10.623   5.542  3.2010 -0.0270  2.8060
  205MOL0     H28234   2.757  10.605   5.598 -0.2698  0.1266  0.8654
  205MOL0     H28235   2.760  10.844   5.684 -0.1650  1.2193  0.5435
  205MOL0     H28236   2.748  10.823   5.507  1.9186  3.1019 -0.5078
  205MOL0     H28237   2.994  10.908   5.631 -1.6035 -0.0463  0.6987
  205MOL0     H28238   2.979  10.877   5.455 -0.6458  1.1315 -0.7072
  205MOL0     H28239   2.744  11.048   5.352 -1.3188  0.1131 -0.2611
  205MOL0     H28240   2.692  11.306   5.294 -4.2383 -2.6060  1.4882
  205MOL0     H28241   2.780  11.422   5.407  2.7255 -2.3710  0.0213
  205MOL0     H28242   2.510  11.270   5.402  2.8978 -0.9374 -1.1841
  205MOL0     H28243   2.565  11.331   5.562 -0.0213  0.2062  0.3841
  205MOL0     H28244   2.571  11.555   5.491  2.0628 -2.4186 -1.0836
  205MOL0     H28245   2.538  11.528   5.324 -1.8102  1.9279  0.0786
  205MOL0     H28246   2.310  11.435   5.385 -2.4592  0.4083  2.2764
  205MOL0     H28247   2.356  11.472   5.561  3.0930 -0.4479  1.0712
  205MOL0     H28248   2.086  11.571   5.527  1.5208  0.2158 -0.2591
  205MOL0     H28249   1.735  11.620   5.418 -0.3607 -1.3764 -3.4615
  205MOL0     H28250   1.832  11.565   5.555 -2.2035 -0.4223 -0.1452
  205MOL0     H28251   1.799  11.459   5.414  2.4242 -1.4325  3.6284
  205MOL0     H28252   1.788  11.790   4.879  0.6886 -2.0454  2.2925
  205MOL0     H28253   1.597  11.808   4.706 -3.1996 -0.9194 -0.1958
  205MOL0     H28254   1.220  11.670   4.774 -0.5726  0.2437 -0.3177
  205MOL0     H28255   1.163  11.820   4.858 -0.4240 -2.2601  0.7670
  205MOL0     H28256   1.025  11.774   4.676 -0.2236  2.6112  2.1789
  205MOL0     H28257   1.138  11.902   4.622  0.4841 -0.8759 -0.2917
  205MOL0     H28258   1.157  11.613   4.560 -1.6839 -0.3389 -0.4047
  205MOL0     H28259   1.276  11.722   4.511  0.7235  0.1778  2.3620
  205MOL0     H28260   1.136  11.796   4.332 -1.3436  0.8860  0.7099
  205MOL0     H28261   1.001  11.829   4.434  0.8182  0.9123  0.2224
  205MOL0     H28262   0.953  11.654   4.264 -0.6261  2.7429  0.2522
  205MOL0     H28263   1.072  11.552   4.359  0.7076  1.0740  2.1161
  205MOL0     H28264   0.825  11.671   4.486 -1.9066 -1.5460  0.3780
  205MOL0     H28265   0.939  11.559   4.557  1.4713  1.0520  0.0286
  205MOL0     H28266   0.878  11.382   4.393 -2.3368 -2.1253 -0.9871
  205MOL0     H28267   0.763  11.479   4.314 -0.3677  1.5203  0.4384
  205MOL0     H28268   0.754  11.400   4.604 -0.6612  4.9596  2.3178
  205MOL0     H28269   0.620  11.365   4.475 -2.3720  1.9883 -0.0347
  205MOL0     H28270   1.309  11.803   5.007  0.0839 -3.1599 -0.5029
  205MOL0     H28271   1.479  11.813   5.184  1.0768 -0.9942  0.3788
  205MOL0     H28272   2.042  11.715   5.052 -1.7284  0.4389 -0.1660
  205MOL0     H28273   2.258  11.702   5.161 -0.3787  1.9469 -0.7240
  205MOL0     H28274   3.154   9.852   5.788 -0.0034 -1.8103 -1.3949
  205MOL0     H28275   3.326   9.736   5.653 -4.0169 -1.5273 -0.4870
  205MOL0     H28276   3.677   9.866   5.327 -1.5865 -0.7208  0.0549
  205MOL0     H28277   3.827   9.862   5.126 -1.2093  0.7125  0.4044
  205MOL0     H28278   3.843   9.901   4.892 -0.6832 -0.1246  0.5233
  205MOL0     H28279   3.961   9.794   4.968 -1.7862  1.2003  1.1901
  205MOL0     H28280   4.030   9.871   4.727 -1.4461  2.1481 -1.2969
  205MOL0     H28281   3.880   9.811   4.665  2.4886  0.3634 -0.6738
  205MOL0     H28282   4.085   9.627   4.785  0.0834 -1.8874  1.7650
  205MOL0     H28283   3.923   9.576   4.758  2.2612 -1.3707 -0.1815
  205MOL0     H28284   4.096   9.689   4.540 -1.4988  2.1020  1.0295
  205MOL0     H28285   3.925   9.666   4.521  2.1437  3.1522 -1.5493
  205MOL0     H28286   4.081   9.266   4.580  0.6746  1.2357  3.9835
  205MOL0     H28287   3.562   9.585   4.942  1.4687  2.2934 -1.6018
  205MOL0     H28288   3.286   9.614   5.113 -0.2144  0.8757  0.7124
  205MOL0     H28289   3.387   9.495   5.038  0.4222  1.8176 -1.7178
  205MOL0     H28290   3.369   9.501   5.214 -2.0279 -0.6509 -0.7286
  206MOL0     O28291   9.982  11.399   5.906 -0.3415  0.0398  0.6025
  206MOL0     C28292   9.940  11.415   5.788 -0.1573 -0.6067  0.2798
  206MOL0     O28293  10.015  11.428   5.687 -0.1637  0.3048  0.2951
  206MOL0     C28294  10.148  11.449   5.711 -0.0245  0.2731 -0.0689
  206MOL0     C28295  10.192  11.582   5.705  0.1926 -0.6110  0.0383
  206MOL0     C28296  10.329  11.603   5.745  0.8212 -0.2844 -0.0848
  206MOL0     C28297  10.424  11.513   5.774  0.0390  0.4780  0.8806
  206MOL0     O28298  10.550  11.539   5.792 -0.5541  0.2047 -0.1333
  206MOL0     C28299  10.575  11.598   5.919  0.5369  0.2614  0.4722
  206MOL0     C28300  10.707  11.548   5.993  0.2421 -0.4001  1.6249
  206MOL0     C28301  10.719  11.583   6.135  0.6177  0.1852 -0.1467
  206MOL0     C28302  10.807  11.487   6.225 -0.6011 -0.2388  0.3112
  206MOL0     C28303  10.954  11.495   6.177  0.5574 -0.1413 -0.1912
  206MOL0     C28304  11.056  11.510   6.285  0.5646  0.4062 -0.6668
  206MOL0     C28305  11.203  11.505   6.221  0.2839  0.5526  0.5518
  206MOL0     C28306  11.318  11.544   6.299 -0.3154 -0.5149  0.4508
  206MOL0     N28307  11.444  11.528   6.220 -0.3123  0.3412  0.6284
  206MOL0     C28308  11.536  11.422   6.227  0.6081  0.0757 -0.3652
  206MOL0     C28309  11.634  11.453   6.139  0.2271 -0.3407 -0.0902
  206MOL0     C28310  11.760  11.372   6.131  0.2185 -0.1454 -0.0509
  206MOL0     C28311  11.862  11.422   6.233 -0.1727  0.6529  0.6723
  206MOL0     C28312  11.926  11.557   6.186 -0.8697 -0.7715 -0.5304
  206MOL0     C28313  12.001  11.543   6.052  0.8062 -0.3569 -1.4445
  206MOL0     O28314  12.071  11.418   6.035 -0.6212 -0.2954 -0.4044
  206MOL0     C28315  12.207  11.423   6.022 -0.7087 -0.5764 -0.9834
  206MOL0     C28316  12.271  11.384   5.901 -0.3052 -0.9634 -0.0920
  206MOL0     C28317  12.413  11.399   5.899 -0.4725 -0.1175  0.6045
  206MOL0     C28318  12.476  11.363   5.768  0.3707 -0.2256 -1.2677
  206MOL0     C28319  12.484  11.435   6.019 -0.5626  0.8236 -0.1225
  206MOL0     C28320  12.631  11.459   6.027 -0.3862  0.3780 -0.0336
  206MOL0     O28321  12.678  11.527   6.134  0.1973  0.5409  0.5687
  206MOL0     C28322  12.811  11.502   6.174  0.3203  0.5259  0.9176
  206MOL0     C28323  12.907  11.562   6.105 -0.0744 -0.7491  1.0216
  206MOL0     C28324  13.036  11.540   6.135 -0.0736  0.4186  0.5449
  206MOL0     C28325  13.076  11.460   6.241 -0.4888  0.2912 -0.2995
  206MOL0     O28326  13.214  11.450   6.266  0.0475  0.6115  0.3233
  206MOL0     C28327  13.263  11.332   6.349 -0.0172 -0.0790  0.1941
  206MOL0     C28328  13.417  11.322   6.334  0.5773  0.2978  0.1833
  206MOL0     C28329  13.500  11.429   6.413  0.7388  0.1196  0.1139
  206MOL0     C28330  13.642  11.378   6.456  0.7097  0.0605  0.4284
  206MOL0     C28331  13.622  11.271   6.564  0.4288  0.0543 -0.0655
  206MOL0     C28332  13.737  11.273   6.652  1.7428  0.0686 -0.3647
  206MOL0     C28333  13.714  11.188   6.784  0.7657  0.3706  0.5840
  206MOL0     C28334  13.844  11.173   6.858 -0.0424 -0.6329 -1.2676
  206MOL0    Cl28335  13.892  11.337   6.909 -0.2200 -0.1417 -0.0045
  206MOL0     C28336  12.975  11.408   6.321 -0.1956  0.0440 -0.5400
  206MOL0     C28337  12.841  11.417   6.280  0.2778  0.3431  0.0962
  206MOL0     O28338  12.704  11.409   5.944 -0.4242 -0.2338  0.4293
  206MOL0     C28339  12.414  11.442   6.140  0.2659  0.2436 -0.5595
  206MOL0     C28340  12.277  11.447   6.141 -0.6282 -0.6573 -0.0970
  206MOL0     N28341  11.600  11.567   6.070 -0.7170 -0.2046 -0.3981
  206MOL0     N28342  11.489  11.615   6.125 -0.0652  0.2065  1.0353
  206MOL0     C28343  10.373  11.381   5.781  1.0687  0.3208 -0.6664
  206MOL0     C28344  10.234  11.357   5.753 -1.2413 -0.3556 -0.1033
  206MOL0     C28345   9.794  11.423   5.769 -1.1670  0.0865  0.5204
  206MOL0     C28346   9.711  11.389   5.876 -0.3921  0.0630 -0.1689
  206MOL0     C28347   9.574  11.372   5.853  0.7994 -0.2530 -0.5060
  206MOL0     C28348   9.510  11.412   5.741 -0.4622  1.1285 -0.6108
  206MOL0     O28349   9.371  11.403   5.752  0.9848 -0.0245 -0.2395
  206MOL0     C28350   9.295  11.434   5.630  0.3436  0.3319  0.0515
  206MOL0     C28351   9.146  11.441   5.685 -0.6559 -0.2833 -0.0294
  206MOL0     C28352   9.091  11.301   5.701 -0.3233  0.2058 -0.2514
  206MOL0     C28353   8.936  11.287   5.724 -0.8850  0.9671 -0.1005
  206MOL0     C28354   8.923  11.363   5.857 -0.4658  0.2723  0.1782
  206MOL0     C28355   8.925  11.428   5.960  0.7300  0.7550  0.6328
  206MOL0     C28356   9.586  11.472   5.636 -0.5008  0.4064  0.3066
  206MOL0     C28357   9.727  11.476   5.652  0.1588  0.2698  0.8174
  206MOL0     C28358   9.799  11.540   5.544 -0.6487  0.0595  0.4472
  206MOL0     H28359  10.124  11.662   5.677 -1.5353 -2.0578 -0.1049
  206MOL0     H28360  10.358  11.707   5.755  1.6796 -0.4429 -0.8318
  206MOL0     H28361  10.498  11.581   5.994  0.4112 -0.0284  0.2789
  206MOL0     H28362  10.569  11.707   5.913 -3.1495  0.1157 -1.4347
  206MOL0     H28363  10.723  11.440   5.985 -0.8481 -0.4985  0.4132
  206MOL0     H28364  10.789  11.585   5.930 -0.2508  4.2348  3.3309
  206MOL0     H28365  10.748  11.687   6.155 -0.1008 -0.1646  3.1783
  206MOL0     H28366  10.615  11.579   6.169  0.9262 -0.2721  0.7489
  206MOL0     H28367  10.803  11.515   6.330  0.2712 -1.0913  0.5866
  206MOL0     H28368  10.770  11.386   6.207 -3.9873  1.1188 -1.3251
  206MOL0     H28369  10.962  11.582   6.111  0.3234 -0.0091 -0.0484
  206MOL0     H28370  10.985  11.408   6.118 -2.9933 -0.0999 -2.4634
  206MOL0     H28371  11.034  11.604   6.336 -3.0895 -0.2758 -0.6687
  206MOL0     H28372  11.035  11.430   6.357 -1.2183 -2.0795 -3.7094
  206MOL0     H28373  11.196  11.555   6.124 -0.2771 -1.6252 -0.6129
  206MOL0     H28374  11.223  11.399   6.199  2.1846  0.8906  0.5251
  206MOL0     H28375  11.302  11.649   6.324 -0.8921 -0.5826  0.3837
  206MOL0     H28376  11.332  11.488   6.392 -2.0593 -2.1860 -0.2402
  206MOL0     H28377  11.546  11.337   6.294 -1.0540  1.4388  1.7525
  206MOL0     H28378  11.792  11.364   6.027 -1.0538  0.1082 -0.4695
  206MOL0     H28379  11.734  11.270   6.159  0.1852  0.2666  1.5006
  206MOL0     H28380  11.814  11.438   6.330  0.6726  3.2343  0.7333
  206MOL0     H28381  11.925  11.334   6.250  0.4744  1.3949  2.2923
  206MOL0     H28382  11.852  11.636   6.176 -1.8587 -1.4304  1.1534
  206MOL0     H28383  11.995  11.598   6.261 -0.0092 -1.8360 -0.6988
  206MOL0     H28384  11.931  11.557   5.969 -0.7650  0.0463 -0.1016
  206MOL0     H28385  12.077  11.621   6.042  1.6721 -1.1489 -1.2000
  206MOL0     H28386  12.207  11.358   5.817  0.4890 -2.3693 -0.2906
  206MOL0     H28387  12.575  11.317   5.774  1.7742  2.6000 -0.8418
  206MOL0     H28388  12.480  11.450   5.701  0.6118 -0.1295 -1.1270
  206MOL0     H28389  12.413  11.290   5.715 -0.2836  0.4016 -1.3772
  206MOL0     H28390  12.871  11.629   6.027 -0.9632 -2.1002  0.2316
  206MOL0     H28391  13.110  11.589   6.074 -1.2160  0.2803 -1.0166
  206MOL0     H28392  13.240  11.358   6.453  0.5427 -0.3220  0.3799
  206MOL0     H28393  13.217  11.240   6.310  1.6977  0.0149 -2.2586
  206MOL0     H28394  13.446  11.222   6.367 -0.4868  0.1238  0.6338
  206MOL0     H28395  13.455  11.332   6.232  3.5258 -1.4461  0.9997
  206MOL0     H28396  13.448  11.471   6.500  2.2734  2.0209  0.1817
  206MOL0     H28397  13.506  11.518   6.350 -0.1076 -0.2527 -0.5136
  206MOL0     H28398  13.704  11.463   6.487 -0.0775  0.7520  0.1531
  206MOL0     H28399  13.679  11.320   6.371 -0.1848 -1.9901  1.3706
  206MOL0     H28400  13.533  11.300   6.622 -0.7413 -1.3666 -1.0737
  206MOL0     H28401  13.594  11.172   6.527 -1.0916  1.6034 -3.6247
  206MOL0     H28402  13.744  11.374   6.695 -0.0041 -0.2269  0.7504
  206MOL0     H28403  13.829  11.240   6.603  2.4199  0.3542  0.6932
  206MOL0     H28404  13.678  11.087   6.764  1.4495  0.3795 -0.8334
  206MOL0     H28405  13.628  11.228   6.838 -1.2982  2.9129 -3.9565
  206MOL0     H28406  13.915  11.122   6.792  1.5691 -2.0139  1.3290
  206MOL0     H28407  13.831  11.100   6.938 -3.6113 -0.4428 -1.5255
  206MOL0     H28408  13.001  11.344   6.404  2.2529  1.7255  0.0776
  206MOL0     H28409  12.764  11.357   6.327 -0.1024  0.4859 -0.3445
  206MOL0     H28410  12.477  11.461   6.227  0.8434 -2.0585 -0.3793
  206MOL0     H28411  12.225  11.473   6.233 -3.5424  0.7982 -2.0019
  206MOL0     H28412  10.421  11.291   5.818 -0.2871  1.2626  4.0519
  206MOL0     H28413  10.195  11.257   5.764  0.5410 -1.3714 -2.2771
  206MOL0     H28414   9.760  11.368   5.971  2.2235  1.2459 -1.1545
  206MOL0     H28415   9.508  11.336   5.931  1.1396 -0.6296 -0.3874
  206MOL0     H28416   9.327  11.527   5.581 -0.3501 -0.5156 -2.1532
  206MOL0     H28417   9.306  11.354   5.556  4.8365 -0.1313  0.9024
  206MOL0     H28418   9.081  11.490   5.611 -1.5709  3.4631  2.9616
  206MOL0     H28419   9.147  11.498   5.778  2.6391 -0.4468  0.1263
  206MOL0     H28420   9.117  11.240   5.614  0.6867 -0.7627  0.7172
  206MOL0     H28421   9.145  11.253   5.783  1.4126  0.6085 -1.1084
  206MOL0     H28422   8.920  11.180   5.740 -2.2601  1.1628 -0.0940
  206MOL0     H28423   8.877  11.334   5.645 -1.9467 -2.2201 -1.3714
  206MOL0     H28424   8.932  11.500   6.039  3.6190  1.8682 -0.4946
  206MOL0     H28425   9.543  11.508   5.544 -0.2901 -2.2280 -0.9201
  206MOL0     H28426   9.878  11.604   5.585 -1.2199  2.3021 -1.6995
  206MOL0     H28427   9.830  11.465   5.471  0.6137  0.2386  0.7641
  206MOL0     H28428   9.739  11.616   5.494  0.4702  3.2078  3.4515
  207MOL0     O28429  10.500   7.169   1.880 -0.2361  0.2184 -0.2398
  207MOL0     C28430  10.446   7.251   1.810  0.7660  0.2696 -1.1654
  207MOL0     O28431  10.501   7.374   1.768 -0.6487  0.8531  0.7989
  207MOL0     C28432  10.630   7.412   1.818 -0.3562 -0.0237 -0.3701
  207MOL0     C28433  10.756   7.354   1.794  0.3006 -0.0557 -0.7315
  207MOL0     C28434  10.876   7.412   1.847  0.7015  0.3311  0.5096
  207MOL0     C28435  10.866   7.514   1.931  0.3027  0.6267  0.3741
  207MOL0     O28436  10.991   7.549   1.985  1.0848  0.5097  0.5151
  207MOL0     C28437  10.991   7.667   2.064 -0.0471 -0.5447  0.0713
  207MOL0     C28438  11.147   7.680   2.100  0.2047 -0.1000  0.0533
  207MOL0     C28439  11.175   7.796   2.196 -0.1690  0.2157 -0.1686
  207MOL0     C28440  11.157   7.764   2.343  0.0051  0.7440 -0.2074
  207MOL0     C28441  11.205   7.879   2.433  0.2948  0.2682 -0.0043
  207MOL0     C28442  11.223   7.832   2.575  0.7223 -0.0294 -0.4564
  207MOL0     C28443  11.107   7.763   2.646 -0.1412 -1.2589 -0.1476
  207MOL0     C28444  10.975   7.844   2.663  0.2981  0.5878 -0.1368
  207MOL0     N28445  10.907   7.859   2.799  0.0608 -0.1756  0.1232
  207MOL0     C28446  10.954   7.928   2.905 -0.0218 -0.1096  0.2101
  207MOL0     C28447  10.847   7.961   2.994  0.5294 -1.0724 -0.4527
  207MOL0     C28448  10.857   8.027   3.133  0.6576  0.0248  0.0367
  207MOL0     C28449  10.919   7.931   3.239  0.0043 -0.4685  0.5893
  207MOL0     C28450  10.951   7.981   3.382 -0.4754  0.2348  0.0671
  207MOL0     C28451  11.005   7.865   3.478  0.4068 -0.2762  0.2541
  207MOL0     O28452  11.140   7.828   3.438  0.0989  0.1375 -0.2300
  207MOL0     C28453  11.210   7.744   3.526  0.3172  0.2909 -0.1346
  207MOL0     C28454  11.339   7.706   3.500 -0.3147 -0.7572 -0.1767
  207MOL0     C28455  11.419   7.614   3.564 -0.4868 -0.1907 -0.0089
  207MOL0     C28456  11.562   7.585   3.519 -0.4162 -0.6286 -0.2805
  207MOL0     C28457  11.352   7.542   3.665 -1.4897  0.3603  0.9264
  207MOL0     C28458  11.420   7.443   3.748 -0.0397 -0.0412  1.0596
  207MOL0     O28459  11.505   7.351   3.685  0.0502 -0.4591 -1.0437
  207MOL0     C28460  11.537   7.238   3.755  0.3253  0.1734  0.5540
  207MOL0     C28461  11.661   7.238   3.820  0.2351 -0.1958 -1.1254
  207MOL0     C28462  11.677   7.134   3.911  0.2902  0.1887  0.0240
  207MOL0     C28463  11.585   7.033   3.931  0.9058 -0.0478  0.7901
  207MOL0     O28464  11.593   6.928   4.018  0.2503  0.1935 -0.1767
  207MOL0     C28465  11.718   6.896   4.082 -0.4482  0.1224  0.0657
  207MOL0     C28466  11.718   6.755   4.133 -0.7018  0.3702 -0.2108
  207MOL0     C28467  11.630   6.744   4.257  1.1475  0.4405 -1.2116
  207MOL0     C28468  11.630   6.597   4.307 -0.0638  0.2276 -0.0988
  207MOL0     C28469  11.649   6.583   4.453 -0.6292 -0.9269 -0.8333
  207MOL0     C28470  11.570   6.677   4.549 -0.7716  0.6262  0.7066
  207MOL0     C28471  11.444   6.598   4.603  0.2253  0.3956 -0.2397
  207MOL0     C28472  11.419   6.609   4.757 -0.3637 -1.5222  0.6891
  207MOL0    Cl28473  11.414   6.775   4.809 -0.0713  0.2927 -0.2342
  207MOL0     C28474  11.462   7.036   3.863 -0.1278 -0.7235  0.7447
  207MOL0     C28475  11.440   7.139   3.770 -0.4328 -0.3909  0.0222
  207MOL0     O28476  11.386   7.440   3.866 -0.3069 -0.1064  0.0376
  207MOL0     C28477  11.227   7.584   3.708 -1.0639  0.7192 -0.8754
  207MOL0     C28478  11.160   7.681   3.636  0.2092 -0.8029  0.5437
  207MOL0     N28479  10.739   7.908   2.938 -0.2867  0.1506  1.0667
  207MOL0     N28480  10.773   7.852   2.823 -0.3267  0.4762  0.8218
  207MOL0     C28481  10.739   7.564   1.971 -0.1127  0.6849  0.5073
  207MOL0     C28482  10.621   7.518   1.912 -0.5263  0.9741 -1.2211
  207MOL0     C28483  10.303   7.232   1.767  0.1932  0.3172  0.2980
  207MOL0     C28484  10.243   7.331   1.684  0.2709 -0.4253 -0.3963
  207MOL0     C28485  10.108   7.316   1.648  0.4217  0.3126  0.0012
  207MOL0     C28486  10.046   7.200   1.669  0.3330  0.5505  1.1449
  207MOL0     O28487   9.913   7.176   1.630  0.1364  0.4581 -0.0097
  207MOL0     C28488   9.847   7.260   1.549  1.0947  0.4173 -0.4286
  207MOL0     C28489   9.882   7.257   1.399  0.2014  0.6351 -0.8452
  207MOL0     C28490   9.945   7.125   1.354  0.0096  0.2638 -0.5982
  207MOL0     C28491   9.988   7.118   1.204 -0.4002 -0.2822 -0.3570
  207MOL0     C28492   9.980   6.983   1.153 -1.2296  0.4735 -0.3106
  207MOL0     C28493   9.961   6.866   1.126  0.7723  0.6398 -1.0946
  207MOL0     C28494  10.100   7.102   1.734 -0.5071  0.0321 -0.2486
  207MOL0     C28495  10.226   7.116   1.791 -0.3990  0.0802 -0.0323
  207MOL0     C28496  10.271   6.993   1.880  0.1391  0.0173  0.6314
  207MOL0     H28497  10.758   7.266   1.729  0.9122  0.0936 -0.9205
  207MOL0     H28498  10.972   7.365   1.827 -0.2847 -1.2213 -0.7437
  207MOL0     H28499  10.934   7.661   2.157  0.2304  0.3551  0.3048
  207MOL0     H28500  10.957   7.754   2.008 -3.3553 -1.6290  0.2015
  207MOL0     H28501  11.179   7.588   2.150 -0.2329  0.5459  1.5613
  207MOL0     H28502  11.207   7.689   2.009 -0.9415  1.1114 -0.6081
  207MOL0     H28503  11.280   7.823   2.181  0.4384 -2.8256 -2.3962
  207MOL0     H28504  11.101   7.874   2.176 -0.7616 -0.5979 -1.2499
  207MOL0     H28505  11.053   7.738   2.363  0.0788  1.9230  2.0069
  207MOL0     H28506  11.223   7.677   2.352  0.0872  0.5045 -2.4916
  207MOL0     H28507  11.142   7.968   2.430  0.1573  0.2159  0.8655
  207MOL0     H28508  11.304   7.917   2.407  0.4013  0.9488  1.2987
  207MOL0     H28509  11.314   7.772   2.570 -0.0297 -1.3579  0.8474
  207MOL0     H28510  11.239   7.922   2.635 -2.4266 -0.6953  1.6201
  207MOL0     H28511  11.129   7.730   2.748  0.0178 -1.2319 -0.1727
  207MOL0     H28512  11.093   7.663   2.604 -2.0849 -2.6895  3.4094
  207MOL0     H28513  10.990   7.945   2.624 -1.4995 -0.4538 -4.1468
  207MOL0     H28514  10.919   7.802   2.578  3.7519  0.7343 -2.7037
  207MOL0     H28515  11.058   7.944   2.932 -0.4472  0.2252  1.7642
  207MOL0     H28516  10.757   8.058   3.163 -0.5353 -1.3336 -2.1777
  207MOL0     H28517  10.918   8.115   3.113  3.0313 -1.1791  1.5441
  207MOL0     H28518  10.848   7.848   3.251 -0.0766 -0.0578  4.3861
  207MOL0     H28519  11.010   7.889   3.196 -1.8630 -0.7245 -3.5733
  207MOL0     H28520  11.040   8.043   3.366 -0.9409  1.5884  2.2693
  207MOL0     H28521  10.866   8.031   3.429  0.6347  0.3351  2.1074
  207MOL0     H28522  11.008   7.913   3.576  0.3873  1.3366 -0.4876
  207MOL0     H28523  10.942   7.777   3.464 -0.2475  0.1380  0.6063
  207MOL0     H28524  11.393   7.768   3.429  0.1890 -3.4408 -2.2957
  207MOL0     H28525  11.579   7.486   3.475  0.8178 -0.1700 -0.8852
  207MOL0     H28526  11.638   7.580   3.599 -0.5803  0.0508 -0.0759
  207MOL0     H28527  11.584   7.651   3.435  0.1067  1.3163  1.2918
  207MOL0     H28528  11.737   7.313   3.799 -0.4822  0.6438 -0.7647
  207MOL0     H28529  11.772   7.129   3.964 -0.3874 -4.4370  1.2127
  207MOL0     H28530  11.795   6.909   4.005 -0.0075  3.7604  0.9169
  207MOL0     H28531  11.742   6.970   4.159  0.8554  3.1434 -2.9591
  207MOL0     H28532  11.688   6.674   4.065  0.1857 -0.2960  0.1807
  207MOL0     H28533  11.824   6.759   4.158 -1.1758  1.1706  1.9001
  207MOL0     H28534  11.530   6.781   4.231  0.6968  1.0046  1.0623
  207MOL0     H28535  11.672   6.813   4.331  0.5633 -1.1879  0.7586
  207MOL0     H28536  11.723   6.553   4.268  0.4045  0.7808  0.3730
  207MOL0     H28537  11.544   6.536   4.280  0.3929 -0.2352 -0.5349
  207MOL0     H28538  11.640   6.481   4.492  2.8372  0.2265  4.0021
  207MOL0     H28539  11.756   6.600   4.469 -0.8340  1.6862 -1.8444
  207MOL0     H28540  11.526   6.760   4.493 -0.5783  0.2507 -0.0189
  207MOL0     H28541  11.632   6.722   4.627 -0.6886  0.9684  0.4438
  207MOL0     H28542  11.438   6.494   4.572  0.9295  0.7304 -1.5515
  207MOL0     H28543  11.366   6.646   4.543 -0.0344 -0.0520 -0.2667
  207MOL0     H28544  11.492   6.557   4.821  3.0944  0.4927 -1.3003
  207MOL0     H28545  11.320   6.565   4.773 -1.6049 -0.1336 -2.3697
  207MOL0     H28546  11.394   6.951   3.864 -0.5468 -0.4219 -0.4355
  207MOL0     H28547  11.358   7.153   3.701  1.1795 -1.1028 -2.1722
  207MOL0     H28548  11.178   7.537   3.792  3.3485 -0.7676  1.2145
  207MOL0     H28549  11.055   7.696   3.661 -0.7552 -2.5325 -2.0861
  207MOL0     H28550  10.728   7.642   2.045 -1.1190  1.3594 -0.3065
  207MOL0     H28551  10.516   7.546   1.918 -0.7552  0.1549 -1.2374
  207MOL0     H28552  10.290   7.424   1.655  1.8664 -0.8500  0.6830
  207MOL0     H28553  10.053   7.393   1.595 -0.6025 -1.2202 -1.2886
  207MOL0     H28554   9.745   7.222   1.566  2.5148 -2.9882  1.6020
  207MOL0     H28555   9.852   7.367   1.568 -1.0276  0.7671 -1.4848
  207MOL0     H28556   9.947   7.342   1.374  1.3046  0.2822  0.6718
  207MOL0     H28557   9.786   7.275   1.350 -0.2157 -0.0882 -0.3059
  207MOL0     H28558  10.041   7.110   1.404  1.1183  0.0190 -2.6656
  207MOL0     H28559   9.875   7.047   1.387 -1.8913  1.3327 -1.8776
  207MOL0     H28560  10.085   7.166   1.188 -1.5562  2.1332 -0.6881
  207MOL0     H28561   9.924   7.183   1.143 -0.1845  0.7271  0.4622
  207MOL0     H28562   9.934   6.768   1.091  0.0029  0.2478  0.5365
  207MOL0     H28563  10.061   7.001   1.739 -1.6966  0.5251  1.9711
  207MOL0     H28564  10.349   6.942   1.822  0.0598  1.4790 -0.8196
  207MOL0     H28565  10.300   7.028   1.980 -1.0331  2.8879  0.0586
  207MOL0     H28566  10.196   6.915   1.897 -3.7814  3.3079 -0.0116
  208MOL0     O28567   0.474   7.599   6.583  0.0776 -0.2744 -0.9705
  208MOL0     C28568   0.423   7.647   6.485  1.0999  0.1872 -0.6051
  208MOL0     O28569   0.291   7.680   6.481  0.3899 -0.4458  0.5232
  208MOL0     C28570   0.214   7.665   6.598 -0.4842  0.8056 -0.3153
  208MOL0     C28571   0.233   7.735   6.717  0.3696 -0.0815  0.2514
  208MOL0     C28572   0.151   7.711   6.832 -0.1024  0.5106  0.2079
  208MOL0     C28573   0.051   7.613   6.814  0.5716 -0.5367  0.2095
  208MOL0     O28574  -0.057   7.615   6.899  0.2478 -0.1339 -0.0815
  208MOL0     C28575  -0.014   7.631   7.037 -0.3665 -0.6353  0.3638
  208MOL0     C28576  -0.120   7.573   7.132 -0.6058 -0.3710  0.1199
  208MOL0     C28577  -0.257   7.642   7.127  0.3396 -0.5497  0.0696
  208MOL0     C28578  -0.348   7.583   7.239  0.1678 -0.0207  0.0423
  208MOL0     C28579  -0.475   7.670   7.265 -0.0604 -0.4942  0.0487
  208MOL0     C28580  -0.552   7.612   7.384  0.3840 -1.1598 -0.6286
  208MOL0     C28581  -0.687   7.679   7.407  0.0881  0.4837  0.1573
  208MOL0     C28582  -0.743   7.650   7.549  0.4364  0.0863  0.6974
  208MOL0     N28583  -0.878   7.686   7.582 -0.0977  0.0802  0.0013
  208MOL0     C28584  -0.990   7.614   7.555 -0.2294  0.0019 -0.3267
  208MOL0     C28585  -1.097   7.684   7.605 -0.4095  0.0893 -1.0921
  208MOL0     C28586  -1.245   7.655   7.598 -0.4722  0.4529  0.0406
  208MOL0     C28587  -1.317   7.764   7.521  0.1314  0.3984 -0.3091
  208MOL0     C28588  -1.459   7.775   7.561  0.7094  0.0737 -0.2169
  208MOL0     C28589  -1.543   7.867   7.470  0.9258 -0.5771  0.6674
  208MOL0     O28590  -1.679   7.868   7.511 -0.4107  0.5610 -0.4061
  208MOL0     C28591  -1.694   7.965   7.601 -0.5020 -1.0731 -0.5182
  208MOL0     C28592  -1.703   7.941   7.733  0.4315 -0.4658 -0.0984
  208MOL0     C28593  -1.723   8.041   7.825  0.2502 -0.3098 -0.4868
  208MOL0     C28594  -1.712   7.995   7.964 -0.4634 -0.0486 -0.5149
  208MOL0     C28595  -1.753   8.177   7.786  0.6694 -0.4481  0.1433
  208MOL0     C28596  -1.785   8.283   7.881 -0.0974 -0.7385 -0.1345
  208MOL0     O28597  -1.849   8.245   7.991 -0.1883 -0.6584 -0.0598
  208MOL0     C28598  -1.898   8.337   8.076 -0.4050  0.2825  0.1667
  208MOL0     C28599  -1.846   8.354   8.197 -0.8068  0.7205 -0.2591
  208MOL0     C28600  -1.885   8.462   8.275 -0.1235  0.2426 -0.1452
  208MOL0     C28601  -1.988   8.550   8.235 -0.3228  0.7920 -0.2463
  208MOL0     O28602  -2.015   8.661   8.315 -0.4395 -0.1786  0.1325
  208MOL0     C28603  -2.149   8.702   8.337 -0.1132 -0.1334 -0.6083
  208MOL0     C28604  -2.205   8.633   8.459  0.2220  0.6864  0.4013
  208MOL0     C28605  -2.361   8.632   8.463  0.5662 -0.2429 -0.1822
  208MOL0     C28606  -2.412   8.601   8.598  0.4900 -0.9393 -0.0364
  208MOL0     C28607  -2.423   8.716   8.705 -0.2469 -1.2945 -0.7518
  208MOL0     C28608  -2.499   8.831   8.635 -0.6037  0.2875  0.1176
  208MOL0     C28609  -2.563   8.924   8.739 -0.0700 -0.2047  0.2599
  208MOL0     C28610  -2.661   9.037   8.677 -0.8105 -0.0330  0.8408
  208MOL0    Cl28611  -2.802   8.948   8.631 -0.1725  0.3199 -0.1960
  208MOL0     C28612  -2.042   8.520   8.107 -0.9278 -0.0356 -0.2101
  208MOL0     C28613  -1.993   8.421   8.031 -0.1666 -0.1350  0.4790
  208MOL0     O28614  -1.751   8.398   7.855  0.1279 -0.0725  0.1271
  208MOL0     C28615  -1.741   8.204   7.650 -0.4478  0.1816  0.0041
  208MOL0     C28616  -1.716   8.100   7.559 -0.2545 -0.9074 -0.0160
  208MOL0     N28617  -1.048   7.783   7.681  0.5607  0.3799  0.7087
  208MOL0     N28618  -0.910   7.785   7.667  0.6406  0.2054 -0.5347
  208MOL0     C28619   0.025   7.545   6.695 -0.2778  0.5785  0.6021
  208MOL0     C28620   0.115   7.564   6.593 -0.3532  0.5765  0.3788
  208MOL0     C28621   0.495   7.654   6.363  0.2372  0.4992 -0.1457
  208MOL0     C28622   0.426   7.668   6.227 -0.6398 -0.4809  0.4751
  208MOL0     C28623   0.496   7.682   6.109  0.4714 -0.6270  0.3552
  208MOL0     C28624   0.632   7.680   6.102 -1.0869  0.2389 -0.7591
  208MOL0     O28625   0.708   7.674   5.985  0.5250  0.2390 -0.0612
  208MOL0     C28626   0.632   7.659   5.860  0.1390  0.1772 -0.4413
  208MOL0     C28627   0.745   7.627   5.758 -0.7403 -0.4978 -0.4967
  208MOL0     C28628   0.812   7.757   5.705  1.1200 -0.0095 -0.5812
  208MOL0     C28629   0.729   7.821   5.593  0.1584 -0.1266  0.5282
  208MOL0     C28630   0.810   7.928   5.524  0.3511  0.2192 -0.1508
  208MOL0     C28631   0.869   8.008   5.458 -0.7409  0.0923 -0.0043
  208MOL0     C28632   0.704   7.665   6.226  0.2796  0.3843 -0.3144
  208MOL0     C28633   0.638   7.658   6.351  0.1188  0.0035  0.4987
  208MOL0     C28634   0.725   7.645   6.467 -0.7249 -0.5557 -0.8129
  208MOL0     H28635   0.298   7.822   6.718 -0.4652  0.6192  2.9728
  208MOL0     H28636   0.159   7.774   6.920 -0.2376 -0.8222  1.1987
  208MOL0     H28637  -0.014   7.739   7.057 -0.6820 -0.1390 -2.0414
  208MOL0     H28638   0.081   7.579   7.051 -0.5414 -1.0284  0.0895
  208MOL0     H28639  -0.142   7.468   7.110 -1.0881 -0.4241  0.8572
  208MOL0     H28640  -0.078   7.585   7.232 -0.4856 -0.9999  0.1518
  208MOL0     H28641  -0.257   7.750   7.148 -0.4043 -0.7864  1.4064
  208MOL0     H28642  -0.314   7.633   7.035 -3.4464  2.0160  1.8992
  208MOL0     H28643  -0.375   7.484   7.200 -2.6864 -0.0149  1.6950
  208MOL0     H28644  -0.294   7.557   7.331  1.2365 -2.7835 -1.2344
  208MOL0     H28645  -0.545   7.680   7.181 -0.6904  0.0343  0.6300
  208MOL0     H28646  -0.433   7.766   7.296  0.4383 -0.6963  0.0102
  208MOL0     H28647  -0.580   7.508   7.366 -1.2951 -1.5465  3.3036
  208MOL0     H28648  -0.496   7.620   7.477 -0.7025  1.9473 -0.1147
  208MOL0     H28649  -0.761   7.643   7.335  2.4765 -2.2871 -1.1024
  208MOL0     H28650  -0.660   7.785   7.400  3.0145 -0.1662  0.4392
  208MOL0     H28651  -0.740   7.541   7.558 -0.8479 -0.2168 -1.6808
  208MOL0     H28652  -0.673   7.701   7.616  0.9499  0.0813  0.1745
  208MOL0     H28653  -0.986   7.530   7.487  0.5691  0.6873 -1.1608
  208MOL0     H28654  -1.296   7.655   7.696  0.7601 -0.3311  0.7048
  208MOL0     H28655  -1.259   7.559   7.547  2.8701  0.8046 -1.7944
  208MOL0     H28656  -1.278   7.862   7.551 -0.2164  0.2434  0.6836
  208MOL0     H28657  -1.307   7.761   7.412  0.9727  0.3412 -0.2341
  208MOL0     H28658  -1.503   7.675   7.562 -1.0772  0.8132 -0.4495
  208MOL0     H28659  -1.472   7.812   7.663 -3.5230  2.9021 -1.4854
  208MOL0     H28660  -1.503   7.969   7.470 -2.6112  0.9960 -1.0564
  208MOL0     H28661  -1.556   7.831   7.367  1.4256  0.6233  0.1632
  208MOL0     H28662  -1.707   7.834   7.748 -1.8489 -0.7400 -2.0901
  208MOL0     H28663  -1.632   7.921   7.973 -2.1948 -1.8931  0.6791
  208MOL0     H28664  -1.801   7.946   8.005  2.3475 -2.1456  3.8010
  208MOL0     H28665  -1.685   8.075   8.033 -2.0179 -0.1926  0.3101
  208MOL0     H28666  -1.759   8.293   8.221  2.0580  3.6450 -2.2809
  208MOL0     H28667  -1.841   8.464   8.374  2.8649 -2.5085 -1.2455
  208MOL0     H28668  -2.159   8.809   8.355  1.8326 -0.0866  0.3501
  208MOL0     H28669  -2.212   8.669   8.253 -1.3702 -1.6676  0.8612
  208MOL0     H28670  -2.165   8.531   8.450  2.8930  1.4595  2.2084
  208MOL0     H28671  -2.162   8.682   8.547 -3.1799  2.2762  1.3469
  208MOL0     H28672  -2.387   8.547   8.399  0.7402 -0.9843  0.7018
  208MOL0     H28673  -2.400   8.723   8.417 -2.1720 -1.2031  0.0673
  208MOL0     H28674  -2.357   8.520   8.648 -0.7365  0.2270  3.5118
  208MOL0     H28675  -2.515   8.567   8.584 -0.8097  2.8591 -0.7911
  208MOL0     H28676  -2.491   8.687   8.786 -1.1467  2.4266  0.0204
  208MOL0     H28677  -2.327   8.751   8.745 -0.8369 -0.3011 -0.1671
  208MOL0     H28678  -2.576   8.790   8.570 -2.5943  0.6789  2.0884
  208MOL0     H28679  -2.440   8.898   8.573 -0.6485 -2.0714 -2.6883
  208MOL0     H28680  -2.487   8.970   8.804 -1.7524 -1.4413  3.3041
  208MOL0     H28681  -2.630   8.866   8.803 -0.8714 -1.1922 -1.4246
  208MOL0     H28682  -2.602   9.087   8.600 -1.8089  1.4086  0.9701
  208MOL0     H28683  -2.678   9.109   8.758 -0.1816  0.2921  0.6810
  208MOL0     H28684  -2.114   8.580   8.054 -0.8386 -0.2264 -0.5476
  208MOL0     H28685  -2.050   8.398   7.942 -1.4239  0.1259  1.1846
  208MOL0     H28686  -1.762   8.298   7.601 -1.6689 -1.5235 -3.0635
  208MOL0     H28687  -1.719   8.109   7.451 -1.1266 -1.0076 -0.0036
  208MOL0     H28688  -0.053   7.470   6.694 -0.0359  0.3265 -0.0960
  208MOL0     H28689   0.102   7.511   6.500 -0.6674  3.5210 -1.3705
  208MOL0     H28690   0.318   7.678   6.216 -0.5676 -1.5562 -1.8153
  208MOL0     H28691   0.435   7.689   6.020 -0.3780 -0.1469  0.9617
  208MOL0     H28692   0.547   7.590   5.869 -0.7912  1.3464  0.1390
  208MOL0     H28693   0.584   7.753   5.832 -1.4879 -0.7969 -1.1154
  208MOL0     H28694   0.704   7.578   5.669  0.3144 -3.8324  0.6851
  208MOL0     H28695   0.827   7.574   5.807  0.5517  0.0281 -2.0152
  208MOL0     H28696   0.829   7.828   5.786  0.6324  0.6034 -1.0011
  208MOL0     H28697   0.911   7.727   5.669  0.2158 -1.8299 -1.7462
  208MOL0     H28698   0.644   7.864   5.647 -4.2184 -2.5130 -3.7265
  208MOL0     H28699   0.691   7.750   5.519  0.3204  1.4961 -1.2093
  208MOL0     H28700   0.905   8.085   5.393 -5.6636  0.7388 -2.4323
  208MOL0     H28701   0.813   7.663   6.217  0.3878 -2.0730  0.7401
  208MOL0     H28702   0.826   7.681   6.446 -1.4578  2.2574  0.1107
  208MOL0     H28703   0.698   7.694   6.561  0.0735 -1.5227 -0.0588
  208MOL0     H28704   0.746   7.537   6.471 -2.2365 -0.8537 -0.0782
  209MOL0     O28705   8.555   7.441   0.828  1.0194 -0.5015  0.2126
  209MOL0     C28706   8.644   7.510   0.876  0.6514 -0.8277 -0.6027
  209MOL0     O28707   8.749   7.559   0.806  0.2352  0.7944  0.7644
  209MOL0     C28708   8.766   7.515   0.677  0.5232 -0.4033  0.2830
  209MOL0     C28709   8.746   7.601   0.574  0.2106 -0.2886 -0.3404
  209MOL0     C28710   8.765   7.561   0.443  0.8439 -0.5240 -0.9252
  209MOL0     C28711   8.803   7.436   0.407 -0.1203 -0.6135 -0.1654
  209MOL0     O28712   8.812   7.402   0.269  0.2143 -0.4235 -0.1528
  209MOL0     C28713   8.927   7.320   0.241  0.3272 -0.1463 -0.0772
  209MOL0     C28714   8.926   7.290   0.090 -0.1055  0.3536 -0.0515
  209MOL0     C28715   9.054   7.205   0.049 -0.7083  0.4508  0.2505
  209MOL0     C28716   9.111   7.243  -0.092  0.0236 -0.6069  0.0005
  209MOL0     C28717   9.243   7.168  -0.121  0.2987 -0.2945  0.4301
  209MOL0     C28718   9.290   7.210  -0.266  0.2500 -0.1855 -0.6110
  209MOL0     C28719   9.417   7.130  -0.303 -0.0684  0.0544  0.6463
  209MOL0     C28720   9.467   7.175  -0.447  0.2474 -0.3583 -0.5793
  209MOL0     N28721   9.571   7.074  -0.486  0.3091  0.2915 -0.0902
  209MOL0     C28722   9.548   6.961  -0.555 -0.1151 -0.5156  0.0770
  209MOL0     C28723   9.674   6.907  -0.562  0.0558 -0.5982 -0.1871
  209MOL0     C28724   9.707   6.776  -0.632 -0.3924 -0.6661  1.0610
  209MOL0     C28725   9.692   6.781  -0.794 -0.6928 -0.5633  0.0037
  209MOL0     C28726   9.724   6.636  -0.843  0.2477  0.1431  0.1599
  209MOL0     C28727   9.780   6.641  -0.992 -0.5816  0.3320  0.6640
  209MOL0     O28728   9.914   6.699  -0.983 -0.6962  0.2022  0.2365
  209MOL0     C28729  10.000   6.739  -1.080  0.5088  0.3527  0.6651
  209MOL0     C28730   9.978   6.722  -1.221 -0.6142 -0.1141  0.3928
  209MOL0     C28731  10.082   6.747  -1.312 -0.1428  0.6589  0.4654
  209MOL0     C28732  10.039   6.732  -1.464 -0.2869  0.1427 -0.8350
  209MOL0     C28733  10.201   6.790  -1.265 -0.8793 -0.5079  0.2403
  209MOL0     C28734  10.321   6.819  -1.360  1.1324 -0.2296 -0.5513
  209MOL0     O28735  10.439   6.852  -1.304 -0.1309 -0.1107  0.3036
  209MOL0     C28736  10.544   6.828  -1.383 -0.0739  0.9147 -0.3189
  209MOL0     C28737  10.642   6.921  -1.416  0.1147  0.0572 -0.5627
  209MOL0     C28738  10.747   6.891  -1.506  0.2837  0.2753  0.1613
  209MOL0     C28739  10.765   6.750  -1.544 -0.9235 -0.4235 -1.0994
  209MOL0     O28740  10.860   6.715  -1.641  0.4488 -0.2977 -0.0398
  209MOL0     C28741  10.960   6.611  -1.621 -0.3062  0.5210  0.6755
  209MOL0     C28742  11.097   6.673  -1.602  0.6106 -0.1748  0.7858
  209MOL0     C28743  11.122   6.812  -1.666 -0.1058 -0.0136  0.1052
  209MOL0     C28744  11.258   6.870  -1.626 -0.3864 -0.5468 -0.9697
  209MOL0     C28745  11.380   6.788  -1.649 -1.2261  1.3737 -0.1152
  209MOL0     C28746  11.510   6.857  -1.599 -1.0026 -0.4888  0.6040
  209MOL0     C28747  11.639   6.767  -1.607  0.1319 -1.0892  0.0185
  209MOL0     C28748  11.695   6.746  -1.742  0.6404 -0.5577  1.1451
  209MOL0    Cl28749  11.740   6.903  -1.813 -0.4144 -0.0562 -0.0284
  209MOL0     C28750  10.666   6.656  -1.503  0.4951 -0.2330  0.8885
  209MOL0     C28751  10.565   6.694  -1.414  0.2349  0.4584  0.5160
  209MOL0     O28752  10.305   6.803  -1.480 -0.0448  1.0509  0.3313
  209MOL0     C28753  10.227   6.810  -1.132 -0.2381 -0.2005  0.4331
  209MOL0     C28754  10.124   6.790  -1.043  0.1763 -0.4416  0.6019
  209MOL0     N28755   9.756   6.988  -0.490  0.7384  0.1220 -0.6458
  209MOL0     N28756   9.696   7.085  -0.436  0.1869  1.0956 -0.7069
  209MOL0     C28757   8.825   7.343   0.514 -0.8421  0.4235  1.1459
  209MOL0     C28758   8.808   7.388   0.646 -0.4482 -0.3876  0.6385
  209MOL0     C28759   8.640   7.549   1.021 -0.0576 -0.4540  0.4326
  209MOL0     C28760   8.761   7.565   1.096  0.7460 -0.4957 -0.4914
  209MOL0     C28761   8.767   7.592   1.231 -0.2701 -0.4455  1.4722
  209MOL0     C28762   8.648   7.612   1.303  0.6481 -0.3255  1.0598
  209MOL0     O28763   8.661   7.647   1.436  0.0316  0.4144  0.4608
  209MOL0     C28764   8.547   7.675   1.517 -0.4055 -1.0129  0.2287
  209MOL0     C28765   8.605   7.657   1.663  0.8574 -0.1129 -0.3070
  209MOL0     C28766   8.689   7.536   1.693  0.4786 -0.2367 -0.2480
  209MOL0     C28767   8.662   7.479   1.827 -0.7996 -0.1853 -0.0902
  209MOL0     C28768   8.670   7.578   1.939 -0.4052  0.0167  0.7805
  209MOL0     C28769   8.675   7.651   2.037 -0.6386 -0.8455  0.4617
  209MOL0     C28770   8.525   7.604   1.234  0.3821 -0.4693 -0.1441
  209MOL0     C28771   8.518   7.575   1.095 -0.1722  0.0924  0.6997
  209MOL0     C28772   8.380   7.587   1.035 -0.1858  0.1944  0.4776
  209MOL0     H28773   8.718   7.702   0.603 -0.2205 -0.2791 -0.7916
  209MOL0     H28774   8.760   7.630   0.359  2.1276 -0.9884 -1.4119
  209MOL0     H28775   8.926   7.227   0.298 -0.2351  0.7439  1.4350
  209MOL0     H28776   9.010   7.382   0.277 -2.1392  3.9951 -0.8576
  209MOL0     H28777   8.833   7.239   0.066  0.9395 -2.3435  1.2056
  209MOL0     H28778   8.938   7.386   0.039  3.0382  1.5849  2.6728
  209MOL0     H28779   9.129   7.197   0.128 -0.5874 -3.6686 -0.0425
  209MOL0     H28780   9.012   7.105   0.032  1.7368 -0.4063 -1.2860
  209MOL0     H28781   9.041   7.234  -0.175  0.0997 -1.9163  0.0509
  209MOL0     H28782   9.146   7.347  -0.087  0.8159 -0.8331 -0.6017
  209MOL0     H28783   9.227   7.061  -0.108 -1.4715 -0.2630 -1.0407
  209MOL0     H28784   9.317   7.201  -0.048 -1.2349  2.7827  0.7734
  209MOL0     H28785   9.207   7.201  -0.337 -0.6253 -0.1538  0.3868
  209MOL0     H28786   9.312   7.317  -0.270  0.2355 -0.1832 -0.6324
  209MOL0     H28787   9.394   7.025  -0.320 -0.1200  0.2309 -0.4272
  209MOL0     H28788   9.499   7.151  -0.233 -0.4280 -2.9720  2.1119
  209MOL0     H28789   9.388   7.181  -0.523  0.0072 -1.0436 -0.3993
  209MOL0     H28790   9.515   7.273  -0.448 -0.8189  0.1699 -1.0475
  209MOL0     H28791   9.462   6.927  -0.611  0.2377 -0.7109 -0.3475
  209MOL0     H28792   9.638   6.698  -0.599 -1.5680 -1.6583 -3.1797
  209MOL0     H28793   9.810   6.746  -0.609  2.0170  4.7543 -0.9206
  209MOL0     H28794   9.589   6.805  -0.822 -0.2148  1.5186 -0.1274
  209MOL0     H28795   9.770   6.846  -0.832  2.4461 -4.1772 -0.3308
  209MOL0     H28796   9.804   6.593  -0.783  1.2357  1.7408  0.0675
  209MOL0     H28797   9.635   6.573  -0.844  0.4971 -0.2856 -2.6236
  209MOL0     H28798   9.791   6.538  -1.027 -1.2930  0.5407 -0.2233
  209MOL0     H28799   9.717   6.700  -1.059 -0.8131  0.1486  0.7190
  209MOL0     H28800   9.879   6.702  -1.260  0.0470 -1.0684 -0.8982
  209MOL0     H28801  10.058   6.829  -1.511  0.6545  0.0629 -0.6333
  209MOL0     H28802   9.934   6.702  -1.473  0.3080 -4.3498  3.2703
  209MOL0     H28803  10.106   6.659  -1.509 -0.0739  1.6602 -3.1250
  209MOL0     H28804  10.634   7.022  -1.378  1.2733 -0.5855  1.5331
  209MOL0     H28805  10.809   6.973  -1.539  0.7940 -0.3033 -0.3550
  209MOL0     H28806  10.934   6.552  -1.532 -0.3603 -0.2653  0.1477
  209MOL0     H28807  10.953   6.539  -1.703 -1.8913  0.3403  0.9309
  209MOL0     H28808  11.105   6.702  -1.497  0.3056  0.1372  0.7263
  209MOL0     H28809  11.163   6.592  -1.635  0.1917 -1.0642  2.0575
  209MOL0     H28810  11.047   6.878  -1.622 -0.2998 -0.7024  0.8215
  209MOL0     H28811  11.100   6.817  -1.773 -0.0292  2.8044  0.1424
  209MOL0     H28812  11.251   6.899  -1.520  0.5964  0.2899 -1.1139
  209MOL0     H28813  11.268   6.966  -1.677  0.1904  0.7619  1.4345
  209MOL0     H28814  11.371   6.693  -1.596 -0.9496  0.3786 -1.7725
  209MOL0     H28815  11.365   6.758  -1.753 -0.5876  3.3055 -0.8129
  209MOL0     H28816  11.499   6.892  -1.496 -1.1589 -0.9001  0.7278
  209MOL0     H28817  11.539   6.942  -1.662  2.8660 -0.8908  1.5882
  209MOL0     H28818  11.620   6.668  -1.564  2.0457 -0.9117  1.3935
  209MOL0     H28819  11.723   6.807  -1.550  1.0488  1.4082 -2.8228
  209MOL0     H28820  11.628   6.696  -1.811  3.3975 -1.2608 -1.2166
  209MOL0     H28821  11.783   6.684  -1.722  2.6648  2.4516  2.4112
  209MOL0     H28822  10.662   6.555  -1.541 -0.7329 -1.1498  3.2781
  209MOL0     H28823  10.499   6.612  -1.387  1.9478 -0.4687  2.1761
  209MOL0     H28824  10.323   6.833  -1.087 -0.2110 -2.2205  1.5407
  209MOL0     H28825  10.146   6.793  -0.937  6.7641 -0.9036 -0.3559
  209MOL0     H28826   8.847   7.238   0.493 -3.1258  0.2785 -0.8876
  209MOL0     H28827   8.832   7.321   0.729  2.8753 -0.2537 -0.0946
  209MOL0     H28828   8.856   7.548   1.046  1.4213  2.3636 -0.3831
  209MOL0     H28829   8.858   7.612   1.286  1.0750 -3.1033  0.3867
  209MOL0     H28830   8.517   7.780   1.502  2.3318 -0.1390  0.2317
  209MOL0     H28831   8.468   7.603   1.498 -0.3337 -0.4688 -2.7128
  209MOL0     H28832   8.511   7.649   1.718  1.7143  0.3880  1.3036
  209MOL0     H28833   8.658   7.743   1.706  0.1766 -0.4502  1.2846
  209MOL0     H28834   8.662   7.463   1.616 -0.3121 -0.9705  0.6942
  209MOL0     H28835   8.789   7.576   1.673 -0.4465  1.3750 -2.0500
  209MOL0     H28836   8.739   7.403   1.843  3.2314  3.0211 -2.2362
  209MOL0     H28837   8.562   7.435   1.827 -0.0674 -1.9668  1.0242
  209MOL0     H28838   8.679   7.716   2.122 -2.8789  3.2601 -2.2161
  209MOL0     H28839   8.434   7.630   1.287  0.4589  0.7785 -0.5844
  209MOL0     H28840   8.307   7.520   1.080  1.9865 -2.0356  0.9363
  209MOL0     H28841   8.341   7.685   1.064  0.0244  0.8374 -1.2490
  209MOL0     H28842   8.379   7.578   0.926  2.4719 -2.0546  0.5091
  210MOL0     O28843   0.717   9.985   7.611 -0.7101  0.3546  0.3101
  210MOL0     C28844   0.748   9.870   7.589  0.4714  0.1975  0.4138
  210MOL0     O28845   0.697   9.759   7.649  0.3660 -1.1964 -0.7809
  210MOL0     C28846   0.618   9.795   7.752  0.9051 -0.7655  0.2745
  210MOL0     C28847   0.484   9.760   7.759 -0.3815  0.6113  0.5972
  210MOL0     C28848   0.412   9.803   7.873 -0.2764  0.3114  0.0384
  210MOL0     C28849   0.473   9.877   7.975  0.0812  0.2382 -1.3770
  210MOL0     O28850   0.403   9.927   8.077  1.2517  0.0090 -0.1814
  210MOL0     C28851   0.256   9.948   8.068  0.0460  0.7157  0.3370
  210MOL0     C28852   0.213  10.042   8.184  0.3184  0.6775  0.8934
  210MOL0     C28853   0.183   9.978   8.322 -0.0723  0.3781  0.1712
  210MOL0     C28854   0.128  10.078   8.430  0.8099 -0.3025 -1.1345
  210MOL0     C28855   0.115  10.020   8.574 -0.5615 -1.1906 -0.5982
  210MOL0     C28856   0.028   9.890   8.588 -1.1082 -0.4785  0.1810
  210MOL0     C28857  -0.113   9.910   8.561  0.0993 -0.2237 -0.3913
  210MOL0     C28858  -0.196   9.779   8.558  0.3256  0.7940  0.5079
  210MOL0     N28859  -0.333   9.785   8.620  0.3801 -0.8121 -0.7352
  210MOL0     C28860  -0.339   9.805   8.761  0.6194  0.1643  0.1510
  210MOL0     C28861  -0.480   9.820   8.772  0.9176 -0.6052 -0.4080
  210MOL0     C28862  -0.534   9.864   8.902  0.5325 -0.1407  0.0672
  210MOL0     C28863  -0.530   9.761   9.008 -0.6349 -0.0830  1.2682
  210MOL0     C28864  -0.617   9.797   9.124 -0.5347  0.3799 -0.2596
  210MOL0     C28865  -0.601   9.686   9.234 -0.0868 -0.6576 -0.1839
  210MOL0     O28866  -0.470   9.696   9.298 -0.0581  0.0732 -0.0206
  210MOL0     C28867  -0.465   9.773   9.413  0.2913 -0.5234 -0.5892
  210MOL0     C28868  -0.398   9.896   9.405  0.0455  0.7101 -0.0129
  210MOL0     C28869  -0.359   9.964   9.511  0.4354  0.6630 -1.2564
  210MOL0     C28870  -0.265  10.081   9.491  0.3645 -0.7060  0.6744
  210MOL0     C28871  -0.390   9.922   9.646  0.2072  0.4895 -0.3174
  210MOL0     C28872  -0.322   9.974   9.764 -0.0141  0.0600 -0.3574
  210MOL0     O28873  -0.290  10.102   9.774  0.3247 -0.1729 -0.7459
  210MOL0     C28874  -0.243  10.161   9.891 -0.3683  0.2976  0.4296
  210MOL0     C28875  -0.200  10.289   9.871  0.2478 -0.1076 -0.1553
  210MOL0     C28876  -0.152  10.367   9.984  0.2995  0.6590 -0.4375
  210MOL0     C28877  -0.132  10.307  10.108 -0.7163 -0.2869  0.9551
  210MOL0     O28878  -0.108  10.383  10.218 -0.4201 -0.8549 -0.2768
  210MOL0     C28879  -0.002  10.328  10.295 -0.3823 -0.2196  0.5206
  210MOL0     C28880   0.060  10.449  10.374 -0.0656  0.2618 -0.3240
  210MOL0     C28881   0.112  10.553  10.278  0.0652 -0.9041 -0.1584
  210MOL0     C28882   0.009  10.654  10.234 -0.4277  0.1848  0.1103
  210MOL0     C28883   0.077  10.781  10.163 -0.0233 -0.4945 -0.6968
  210MOL0     C28884   0.159  10.886  10.256 -0.3966  0.4429 -0.0947
  210MOL0     C28885   0.243  10.979  10.166  0.1247 -0.2770 -0.2494
  210MOL0     C28886   0.310  11.093  10.243 -1.3484 -0.2200 -0.1098
  210MOL0    Cl28887   0.343  11.218  10.124  0.6484  0.4766 -0.1740
  210MOL0     C28888  -0.163  10.176  10.127 -0.3895  0.9781 -0.2644
  210MOL0     C28889  -0.222  10.104  10.017 -0.1551 -0.1672  0.9246
  210MOL0     O28890  -0.282   9.887   9.840  0.0041 -0.1165 -0.1246
  210MOL0     C28891  -0.461   9.800   9.658 -0.0232 -0.7777  0.2873
  210MOL0     C28892  -0.504   9.729   9.541 -1.0263 -0.4308 -0.5537
  210MOL0     N28893  -0.547   9.824   8.654 -0.0523 -0.0159 -0.2478
  210MOL0     N28894  -0.461   9.794   8.567 -0.5262  0.5814 -0.0008
  210MOL0     C28895   0.604   9.908   7.971  0.8889 -0.0821 -0.2757
  210MOL0     C28896   0.684   9.863   7.864  1.0595  0.7530 -0.0687
  210MOL0     C28897   0.835   9.828   7.477  0.0468  0.5658 -0.3234
  210MOL0     C28898   0.793   9.715   7.404  0.9441  0.4158  0.4882
  210MOL0     C28899   0.873   9.670   7.299 -0.4212  0.4413  0.4114
  210MOL0     C28900   0.992   9.738   7.260  0.4408  0.0225 -0.1102
  210MOL0     O28901   1.068   9.675   7.164  0.7511  0.4591  0.5618
  210MOL0     C28902   1.171   9.753   7.101 -1.0177 -0.6712 -1.1240
  210MOL0     C28903   1.114   9.815   6.971  0.5163 -0.1940  0.4275
  210MOL0     C28904   1.214   9.884   6.876 -0.0377 -0.0311 -1.0789
  210MOL0     C28905   1.138   9.971   6.778  1.0763 -0.0460 -0.3418
  210MOL0     C28906   1.225  10.008   6.665 -0.6671  0.6521  0.6470
  210MOL0     C28907   1.294  10.025   6.562  0.0078  0.1914  0.5342
  210MOL0     C28908   1.026   9.863   7.326 -0.9949 -0.6340 -0.5405
  210MOL0     C28909   0.957   9.902   7.446  1.3786 -0.0423  0.0430
  210MOL0     C28910   1.001  10.014   7.533 -0.3012 -0.5255 -0.9317
  210MOL0     H28911   0.433   9.706   7.681 -0.8243  1.4435  0.2994
  210MOL0     H28912   0.312   9.762   7.859  0.8414 -2.3048 -0.9145
  210MOL0     H28913   0.203   9.855   8.091  2.2983 -0.7055  0.1387
  210MOL0     H28914   0.229   9.988   7.970 -2.2355  1.7713  1.3244
  210MOL0     H28915   0.288  10.119   8.201  0.4328  1.0821 -1.2034
  210MOL0     H28916   0.121  10.096   8.160 -0.7720 -1.4348  0.0080
  210MOL0     H28917   0.100   9.909   8.304 -0.1043  0.7508 -1.2282
  210MOL0     H28918   0.278   9.937   8.357  0.2869  0.4723 -0.6621
  210MOL0     H28919   0.196  10.163   8.440  1.9126 -1.4245  5.3390
  210MOL0     H28920   0.030  10.123   8.412  0.5500 -1.1260 -1.8522
  210MOL0     H28921   0.090  10.104   8.640 -1.1420 -0.3982 -1.7886
  210MOL0     H28922   0.216   9.998   8.610  0.1616  4.9250  2.4610
  210MOL0     H28923   0.075   9.807   8.534  1.2305 -0.2418  1.7436
  210MOL0     H28924   0.041   9.859   8.692  3.1896 -0.7055 -0.2620
  210MOL0     H28925  -0.134   9.943   8.459 -0.7741 -2.7754 -1.0995
  210MOL0     H28926  -0.156   9.978   8.635  3.7871  0.2579  1.6023
  210MOL0     H28927  -0.193   9.747   8.453  1.2986  2.1944  0.0746
  210MOL0     H28928  -0.143   9.704   8.618  2.2066  1.2194 -0.5481
  210MOL0     H28929  -0.258   9.809   8.834  0.6095  0.4402  0.1479
  210MOL0     H28930  -0.636   9.887   8.872 -0.1029 -2.4480  0.3020
  210MOL0     H28931  -0.482   9.956   8.931 -0.1557  0.9879 -2.0745
  210MOL0     H28932  -0.570   9.664   8.979  1.9105 -1.7682  2.9664
  210MOL0     H28933  -0.429   9.747   9.048 -0.5035  1.0978  1.3880
  210MOL0     H28934  -0.588   9.895   9.161 -0.4344 -0.2119  1.2828
  210MOL0     H28935  -0.722   9.797   9.092 -0.3752 -0.5285 -0.8237
  210MOL0     H28936  -0.678   9.707   9.309 -0.2401  1.4848 -0.8974
  210MOL0     H28937  -0.628   9.588   9.194 -1.6264  0.0796 -1.0317
  210MOL0     H28938  -0.383   9.933   9.305  1.0606  2.2158  0.6520
  210MOL0     H28939  -0.179  10.083   9.558  0.9249 -0.1034 -0.0317
  210MOL0     H28940  -0.318  10.176   9.491 -1.2577 -1.5860  0.7487
  210MOL0     H28941  -0.217  10.074   9.393  0.4343 -0.4623  0.6893
  210MOL0     H28942  -0.216  10.340   9.777 -2.4554  1.7148  1.1645
  210MOL0     H28943  -0.140  10.475   9.989  2.2614  0.4791 -0.2688
  210MOL0     H28944  -0.048  10.253  10.360  0.5181  0.9957  2.6821
  210MOL0     H28945   0.070  10.283  10.226 -1.0274  1.3083 -1.2205
  210MOL0     H28946  -0.007  10.495  10.447 -0.2395  0.3254 -0.5208
  210MOL0     H28947   0.141  10.402  10.431 -1.0732  1.4428  2.2460
  210MOL0     H28948   0.162  10.510  10.191  2.5386 -0.4373  0.9329
  210MOL0     H28949   0.196  10.604  10.328  0.6554 -1.4248 -0.6001
  210MOL0     H28950  -0.048  10.697  10.317  1.2394  1.8360  0.4681
  210MOL0     H28951  -0.052  10.607  10.156 -1.1675  0.2201  0.6557
  210MOL0     H28952   0.147  10.758  10.081  0.9938 -1.0408  0.2892
  210MOL0     H28953   0.004  10.839  10.106 -0.5507 -2.2656 -1.9183
  210MOL0     H28954   0.230  10.847  10.330 -0.9455 -1.1368 -0.3526
  210MOL0     H28955   0.088  10.930  10.326 -0.9720 -2.0034  0.9641
  210MOL0     H28956   0.184  11.028  10.087  1.4376  0.0255 -1.0618
  210MOL0     H28957   0.324  10.926  10.117  1.1568  0.5156  0.5590
  210MOL0     H28958   0.407  11.052  10.273 -1.4753  0.5670  1.4529
  210MOL0     H28959   0.265  11.119  10.339  0.7103  1.6932  0.4311
  210MOL0     H28960  -0.155  10.124  10.222  1.2194  1.7165  0.0311
  210MOL0     H28961  -0.249  10.003  10.045  0.0086 -0.0683  1.4421
  210MOL0     H28962  -0.472   9.757   9.757  1.5585 -0.7307  0.5004
  210MOL0     H28963  -0.552   9.634   9.563 -0.8198  0.0954  2.5502
  210MOL0     H28964   0.643   9.965   8.055  0.5433 -1.1127  0.6087
  210MOL0     H28965   0.792   9.880   7.862  0.5413  5.3180 -0.1219
  210MOL0     H28966   0.702   9.662   7.432 -0.4198  2.0854 -0.5988
  210MOL0     H28967   0.860   9.572   7.255  1.2434 -0.6139  2.1226
  210MOL0     H28968   1.208   9.828   7.170  0.4124 -1.0745 -1.4276
  210MOL0     H28969   1.253   9.687   7.070 -0.6585  0.3698 -2.5076
  210MOL0     H28970   1.049   9.894   7.009  0.7595 -0.0798  0.6163
  210MOL0     H28971   1.052   9.740   6.922 -0.7137  0.2512  1.2663
  210MOL0     H28972   1.285   9.950   6.928  0.5653 -2.0372  0.7622
  210MOL0     H28973   1.283   9.813   6.829 -0.0406  1.4384 -3.4670
  210MOL0     H28974   1.099  10.059   6.831  0.7143 -1.2829  1.5566
  210MOL0     H28975   1.052   9.910   6.746 -1.0150  1.7927  1.4134
  210MOL0     H28976   1.360  10.058   6.484 -0.9855  0.7458 -0.0911
  210MOL0     H28977   1.113   9.925   7.303 -0.3850 -1.7311 -1.2686
  210MOL0     H28978   0.973   9.998   7.637  0.6569 -1.5984 -0.8229
  210MOL0     H28979   1.110  10.026   7.531 -0.4282  2.9236  2.2191
  210MOL0     H28980   0.970  10.109   7.489  2.6186  0.1256 -1.8228
  211MOL0     O28981  11.255   8.972   8.902 -0.2874 -0.2201 -0.3141
  211MOL0     C28982  11.186   9.061   8.955  0.4658  0.4016  0.3853
  211MOL0     O28983  11.050   9.061   8.959  0.3607 -0.2043  0.0428
  211MOL0     C28984  10.971   8.978   8.877 -0.3245 -0.2222 -0.4923
  211MOL0     C28985  10.838   8.997   8.910 -0.7496 -0.5322  0.5753
  211MOL0     C28986  10.730   8.952   8.836 -0.0256 -0.5652  0.2536
  211MOL0     C28987  10.755   8.890   8.709 -0.4250 -0.1047  0.2882
  211MOL0     O28988  10.655   8.842   8.628  1.0455  0.5309  0.5093
  211MOL0     C28989  10.695   8.720   8.555  0.1861  0.5245  0.3538
  211MOL0     C28990  10.567   8.661   8.490 -0.5095  0.3348 -0.0551
  211MOL0     C28991  10.570   8.514   8.462 -0.2369  0.5171 -0.4518
  211MOL0     C28992  10.667   8.473   8.354  0.3161  0.5287 -0.0860
  211MOL0     C28993  10.643   8.326   8.315  0.4162  0.3657  0.2143
  211MOL0     C28994  10.671   8.226   8.428 -0.1588  0.2740  0.5181
  211MOL0     C28995  10.692   8.090   8.369  0.0995  0.5782  0.0995
  211MOL0     C28996  10.844   8.080   8.329 -0.6700  0.2794  0.5733
  211MOL0     N28997  10.879   7.937   8.300  0.1151  0.2341 -0.4034
  211MOL0     C28998  10.974   7.900   8.215  0.3400 -0.6724  0.5541
  211MOL0     C28999  10.982   7.765   8.208 -0.5843 -0.4566  0.4789
  211MOL0     C29000  11.056   7.674   8.107 -0.8915  0.3740  0.1003
  211MOL0     C29001  11.130   7.729   7.978 -0.4131  0.3538 -0.6391
  211MOL0     C29002  11.043   7.761   7.854  0.1897  0.9924 -0.1952
  211MOL0     C29003  10.932   7.857   7.862 -0.3809 -0.8077 -0.4733
  211MOL0     O29004  10.980   7.988   7.895 -0.7834 -0.2627 -0.9677
  211MOL0     C29005  10.893   8.089   7.902 -0.4547 -0.2848  0.0223
  211MOL0     C29006  10.754   8.082   7.885  0.1083 -0.4233 -0.9983
  211MOL0     C29007  10.675   8.193   7.882  1.3443  0.8089 -0.5550
  211MOL0     C29008  10.519   8.170   7.852  1.1259  0.3075 -0.0080
  211MOL0     C29009  10.734   8.323   7.899 -1.0878 -1.1946 -0.4118
  211MOL0     C29010  10.647   8.447   7.914 -0.5524 -0.0898 -0.0807
  211MOL0     O29011  10.703   8.570   7.884  0.0658 -0.1517  0.9059
  211MOL0     C29012  10.640   8.680   7.923 -0.1211 -0.5349  0.5667
  211MOL0     C29013  10.669   8.718   8.056 -0.5382 -1.0192 -0.4573
  211MOL0     C29014  10.612   8.836   8.110 -0.2553 -0.0498  0.4924
  211MOL0     C29015  10.515   8.900   8.027 -0.1715 -0.3667  0.0688
  211MOL0     O29016  10.430   8.999   8.074  0.2427 -0.1448 -0.1823
  211MOL0     C29017  10.416   9.001   8.218  0.4884 -0.2918 -0.2534
  211MOL0     C29018  10.287   9.072   8.268  0.8081  0.5201  0.0905
  211MOL0     C29019  10.292   9.045   8.416 -0.4499 -0.0492 -0.7412
  211MOL0     C29020  10.225   9.159   8.494 -0.5164  0.1200 -0.4419
  211MOL0     C29021  10.318   9.274   8.552 -0.3782  0.7478 -0.3967
  211MOL0     C29022  10.372   9.371   8.444  0.3732  0.9545  0.7966
  211MOL0     C29023  10.482   9.472   8.481  0.9589  0.0799  0.3907
  211MOL0     C29024  10.565   9.522   8.364  0.0168 -0.9590  0.3022
  211MOL0    Cl29025  10.454   9.581   8.235 -0.2787 -0.3356  0.3094
  211MOL0     C29026  10.483   8.859   7.897  0.0397 -0.0976 -0.0568
  211MOL0     C29027  10.549   8.751   7.844 -1.2792  0.2366 -0.2508
  211MOL0     O29028  10.538   8.430   7.972 -0.2256  0.2785 -0.1206
  211MOL0     C29029  10.870   8.333   7.914 -0.5965  0.4254  0.5708
  211MOL0     C29030  10.950   8.220   7.919 -0.4268 -0.2606 -0.4269
  211MOL0     N29031  10.895   7.717   8.302 -0.4682  0.3207 -0.4259
  211MOL0     N29032  10.830   7.824   8.357 -0.7131 -0.0064  0.2473
  211MOL0     C29033  10.893   8.872   8.671 -0.5736 -0.7404 -0.1349
  211MOL0     C29034  10.991   8.924   8.752 -0.8169  0.7683 -0.1289
  211MOL0     C29035  11.251   9.172   9.022  0.5300  0.5626 -0.5001
  211MOL0     C29036  11.172   9.276   9.070 -0.5645  0.6954 -0.3451
  211MOL0     C29037  11.232   9.377   9.144 -0.7371 -0.7072 -0.5215
  211MOL0     C29038  11.371   9.397   9.146  0.5125 -0.1917  0.6518
  211MOL0     O29039  11.428   9.509   9.193 -0.2019  0.5307 -0.1149
  211MOL0     C29040  11.346   9.622   9.220 -0.3754  0.3791  0.6718
  211MOL0     C29041  11.422   9.752   9.250 -0.3246  0.0031  0.8299
  211MOL0     C29042  11.534   9.784   9.143  0.7323  0.6277  0.6640
  211MOL0     C29043  11.482   9.835   9.015 -0.3194  0.3211  0.5548
  211MOL0     C29044  11.389   9.950   9.033  0.3098 -0.7991  0.7260
  211MOL0     C29045  11.320  10.041   9.050 -0.2227  0.7794 -0.0701
  211MOL0     C29046  11.444   9.294   9.099 -0.0401 -0.3198  0.3091
  211MOL0     C29047  11.390   9.176   9.054  0.4181  0.4459  0.3443
  211MOL0     C29048  11.482   9.064   9.030 -0.1263  0.1386 -0.0530
  211MOL0     H29049  10.821   9.059   8.997  2.4086  0.4473  0.6170
  211MOL0     H29050  10.628   8.961   8.872 -0.2088 -1.5806  0.0164
  211MOL0     H29051  10.735   8.644   8.622  0.2116  1.1975  1.1110
  211MOL0     H29052  10.769   8.744   8.477  0.7393  1.9589  1.2749
  211MOL0     H29053  10.492   8.689   8.565  1.8942  0.7775  2.3380
  211MOL0     H29054  10.538   8.715   8.399 -1.6248 -1.3601 -0.7580
  211MOL0     H29055  10.583   8.468   8.561 -1.8789  0.3206 -0.2877
  211MOL0     H29056  10.467   8.487   8.434 -0.6906  2.1531 -0.4753
  211MOL0     H29057  10.641   8.529   8.264  1.6194  1.3544  0.0235
  211MOL0     H29058  10.771   8.492   8.385 -0.4223  1.2958  2.1078
  211MOL0     H29059  10.714   8.305   8.235  0.0463 -6.2324  1.0884
  211MOL0     H29060  10.545   8.317   8.267  1.5854 -3.5180 -1.9171
  211MOL0     H29061  10.745   8.257   8.503  0.7928  0.1119 -0.3319
  211MOL0     H29062  10.580   8.216   8.488  0.4752  2.6464  2.0255
  211MOL0     H29063  10.639   8.084   8.274  3.9520  1.6074 -2.3837
  211MOL0     H29064  10.669   8.004   8.433  0.0498  0.2461 -0.3590
  211MOL0     H29065  10.873   8.147   8.247  1.4074 -0.6574  0.4698
  211MOL0     H29066  10.909   8.112   8.411 -0.8707  2.0325  0.0891
  211MOL0     H29067  11.030   7.965   8.148 -0.0608  0.5964  1.4136
  211MOL0     H29068  10.984   7.599   8.072 -1.7082 -0.2719  2.9484
  211MOL0     H29069  11.123   7.615   8.170 -1.2446  1.8916  2.0108
  211MOL0     H29070  11.188   7.816   8.009  3.7156 -2.8589  1.5712
  211MOL0     H29071  11.214   7.667   7.945 -0.8417 -2.2297  2.6707
  211MOL0     H29072  11.128   7.798   7.797  0.9148  1.3350  1.0679
  211MOL0     H29073  11.008   7.667   7.808  2.0071  0.5560 -0.7666
  211MOL0     H29074  10.878   7.864   7.767  0.6600 -3.9238 -1.4218
  211MOL0     H29075  10.864   7.829   7.942 -1.7554 -0.4266 -1.4778
  211MOL0     H29076  10.696   7.990   7.882 -1.9484  0.8081 -0.4510
  211MOL0     H29077  10.483   8.248   7.784 -1.2177 -0.0858  0.6742
  211MOL0     H29078  10.456   8.182   7.940 -2.3016  0.2385 -2.2398
  211MOL0     H29079  10.497   8.073   7.806 -1.0110  0.7495 -0.0232
  211MOL0     H29080  10.750   8.667   8.107 -0.1595 -0.9211 -0.9607
  211MOL0     H29081  10.638   8.880   8.205 -2.2369  0.1787  0.9734
  211MOL0     H29082  10.414   8.896   8.248  3.2197 -1.0967 -2.4468
  211MOL0     H29083  10.508   9.050   8.253 -0.0583  0.4938  0.1182
  211MOL0     H29084  10.285   9.174   8.228  2.1049  0.1870 -0.8875
  211MOL0     H29085  10.199   9.019   8.230  1.5260 -1.1007  0.6218
  211MOL0     H29086  10.396   9.033   8.447  0.7394  2.2650 -3.4103
  211MOL0     H29087  10.244   8.950   8.441  0.0923 -0.1281  0.0236
  211MOL0     H29088  10.160   9.116   8.571 -0.3168  0.2004 -0.2243
  211MOL0     H29089  10.161   9.207   8.420 -1.6372 -1.6490 -0.6870
  211MOL0     H29090  10.245   9.336   8.606 -1.8399 -0.3585 -1.0381
  211MOL0     H29091  10.386   9.238   8.630  1.2408  0.5344 -1.8566
  211MOL0     H29092  10.297   9.427   8.388  0.0809 -1.2901 -1.1991
  211MOL0     H29093  10.413   9.299   8.373 -2.1680 -0.9134  1.0811
  211MOL0     H29094  10.562   9.434   8.545  1.5280  1.3093  0.4481
  211MOL0     H29095  10.429   9.558   8.524  1.2960  0.2793  0.4064
  211MOL0     H29096  10.621   9.432   8.338 -3.6229 -2.9543 -1.3987
  211MOL0     H29097  10.643   9.594   8.392  0.4133 -0.8102 -1.1306
  211MOL0     H29098  10.405   8.904   7.838 -1.0503 -1.3632  0.3720
  211MOL0     H29099  10.521   8.716   7.745 -0.7849  0.1339 -0.3583
  211MOL0     H29100  10.919   8.429   7.930  1.4508 -0.1938 -1.5318
  211MOL0     H29101  11.052   8.233   7.955 -0.8595  0.3757  0.6479
  211MOL0     H29102  10.934   8.837   8.576  2.5081 -0.3507  0.9669
  211MOL0     H29103  11.092   8.902   8.719 -1.5188 -1.2687 -1.0800
  211MOL0     H29104  11.065   9.291   9.059 -0.4329  0.9175 -1.4189
  211MOL0     H29105  11.157   9.449   9.174 -0.5169 -0.4553 -0.5782
  211MOL0     H29106  11.273   9.649   9.144 -2.0155  1.5950  2.5788
  211MOL0     H29107  11.276   9.600   9.301 -2.0671 -3.0057 -1.5036
  211MOL0     H29108  11.468   9.745   9.349 -0.6577  2.6095  1.2338
  211MOL0     H29109  11.343   9.827   9.257 -0.1641  0.1024  1.7312
  211MOL0     H29110  11.603   9.859   9.182 -0.6519  2.2129  0.1912
  211MOL0     H29111  11.586   9.690   9.123 -0.9847 -0.0017 -1.3043
  211MOL0     H29112  11.429   9.755   8.963 -0.7513  0.2705  1.0627
  211MOL0     H29113  11.569   9.862   8.955 -0.8680  1.2594  0.1516
  211MOL0     H29114  11.268  10.135   9.050  1.3803  1.7106 -1.2210
  211MOL0     H29115  11.549   9.318   9.113 -0.4936  2.9594 -0.8387
  211MOL0     H29116  11.492   9.046   8.922 -1.2869 -0.0843 -0.1379
  211MOL0     H29117  11.585   9.069   9.066 -0.1031 -2.2203  0.3622
  211MOL0     H29118  11.445   8.973   9.077 -1.3237 -1.2975 -3.4241
  212MOL0     O29119   6.028   2.032   9.354  0.0404  0.3071  0.0149
  212MOL0     C29120   5.997   2.133   9.417  0.9322  0.8778  0.1583
  212MOL0     O29121   5.877   2.156   9.479  0.4891 -0.0319  0.4049
  212MOL0     C29122   5.777   2.068   9.443 -0.3106 -0.4564  0.1034
  212MOL0     C29123   5.681   2.105   9.358  0.3632 -0.5227  0.1671
  212MOL0     C29124   5.577   2.023   9.317 -0.3708 -0.8692  0.6847
  212MOL0     C29125   5.558   1.901   9.378  0.0122  0.5567 -0.5245
  212MOL0     O29126   5.461   1.814   9.333  0.4940 -0.0524 -0.2082
  212MOL0     C29127   5.329   1.844   9.369 -0.5348 -0.1069 -0.0499
  212MOL0     C29128   5.238   1.770   9.275  0.1640 -0.0232 -0.5436
  212MOL0     C29129   5.258   1.819   9.136 -0.7243 -0.7763  0.3197
  212MOL0     C29130   5.110   1.853   9.096  0.4796 -0.7541  0.8467
  212MOL0     C29131   5.094   1.893   8.948 -0.1990  0.2128  0.4550
  212MOL0     C29132   5.099   1.769   8.847 -0.0282  0.1420 -0.3826
  212MOL0     C29133   5.058   1.805   8.706 -0.7162 -0.8564 -0.3461
  212MOL0     C29134   5.053   1.671   8.627 -0.0166  0.4445 -0.7391
  212MOL0     N29135   5.058   1.713   8.484  0.6867 -0.3705 -0.1282
  212MOL0     C29136   5.130   1.642   8.383 -0.0411 -0.3600 -0.0798
  212MOL0     C29137   5.122   1.722   8.268 -0.2845 -0.5666  0.7553
  212MOL0     C29138   5.171   1.714   8.129 -1.0399 -0.2227 -0.3010
  212MOL0     C29139   5.115   1.575   8.070  0.3045  0.0996  0.7167
  212MOL0     C29140   5.194   1.531   7.947  0.1420  0.2348  0.5134
  212MOL0     C29141   5.342   1.497   7.975  0.3052  0.1360 -0.4240
  212MOL0     O29142   5.350   1.421   8.100 -0.0292  0.2633  0.4664
  212MOL0     C29143   5.344   1.281   8.089  0.0059 -0.6013 -0.4108
  212MOL0     C29144   5.464   1.213   8.070 -0.2406 -1.0304  0.3195
  212MOL0     C29145   5.474   1.080   8.032  0.3900 -1.5946 -1.0844
  212MOL0     C29146   5.617   1.033   8.043 -0.4539  0.2147 -0.7419
  212MOL0     C29147   5.355   1.009   7.999  0.0513  0.1054 -0.5143
  212MOL0     C29148   5.360   0.873   7.950  0.0079 -0.4271  0.1001
  212MOL0     O29149   5.468   0.828   7.880 -0.8353 -0.3692  0.1260
  212MOL0     C29150   5.462   0.695   7.837 -0.2727 -0.6141 -0.7160
  212MOL0     C29151   5.386   0.654   7.727 -0.6367 -0.5211 -0.1664
  212MOL0     C29152   5.388   0.520   7.692  0.4109 -0.4135  0.6066
  212MOL0     C29153   5.467   0.426   7.761 -0.1021 -0.4504  0.5735
  212MOL0     O29154   5.440   0.300   7.725 -0.7361  0.2042 -0.5790
  212MOL0     C29155   5.525   0.199   7.777 -0.0970  0.9302  0.4175
  212MOL0     C29156   5.499   0.068   7.700  0.1139 -0.4858 -1.0116
  212MOL0     C29157   5.400   0.069   7.578  0.3716 -0.4805 -0.0964
  212MOL0     C29158   5.386  -0.071   7.515  0.5299  0.1356  0.3326
  212MOL0     C29159   5.262  -0.077   7.432 -0.9226  0.1035 -0.4192
  212MOL0     C29160   5.221  -0.226   7.412 -0.5884  0.0151 -0.1432
  212MOL0     C29161   5.110  -0.238   7.309 -0.0620  0.5885 -0.8834
  212MOL0     C29162   4.980  -0.173   7.354 -0.1256  0.4080  0.4070
  212MOL0    Cl29163   4.895  -0.270   7.489  0.1573  0.1819  0.5459
  212MOL0     C29164   5.554   0.464   7.864 -0.3922 -0.5117 -0.6015
  212MOL0     C29165   5.545   0.598   7.908  0.0768  1.0740  1.0394
  212MOL0     O29166   5.260   0.808   7.964  0.7303 -0.1539  0.0656
  212MOL0     C29167   5.229   1.070   8.028  0.1822 -0.0766 -0.2508
  212MOL0     C29168   5.226   1.208   8.074  0.0595 -0.6373 -0.6793
  212MOL0     N29169   5.056   1.844   8.311 -0.4623 -0.4226 -0.4217
  212MOL0     N29170   5.007   1.832   8.435  0.3317 -0.0811 -0.1984
  212MOL0     C29171   5.663   1.858   9.468 -0.4805 -0.5277 -0.4390
  212MOL0     C29172   5.778   1.944   9.491 -0.0278  0.3172 -0.4397
  212MOL0     C29173   6.110   2.220   9.445 -1.0175 -0.2986 -0.2407
  212MOL0     C29174   6.101   2.309   9.548  0.3546  0.6672  0.5145
  212MOL0     C29175   6.197   2.402   9.569  0.1666 -0.1279 -0.3498
  212MOL0     C29176   6.318   2.414   9.496 -0.2258 -0.6245 -0.2025
  212MOL0     O29177   6.431   2.495   9.524  0.0604  0.1035 -0.4124
  212MOL0     C29178   6.435   2.578   9.637  0.7267  0.5107  0.7506
  212MOL0     C29179   6.542   2.689   9.627 -0.7980  0.4831  0.1506
  212MOL0     C29180   6.686   2.644   9.657  0.1504  0.2150 -1.0369
  212MOL0     C29181   6.693   2.551   9.790  0.1983 -0.0541  0.5655
  212MOL0     C29182   6.819   2.556   9.846  1.3020  0.2099  0.0861
  212MOL0     C29183   6.933   2.568   9.889  0.0977  0.6684  0.4673
  212MOL0     C29184   6.326   2.329   9.390  0.1224 -1.1106 -0.0315
  212MOL0     C29185   6.231   2.236   9.364  0.1204 -0.5421 -0.6179
  212MOL0     C29186   6.271   2.145   9.246  0.1659  0.4345  0.3503
  212MOL0     H29187   5.687   2.202   9.309  2.3998 -1.0773 -0.7686
  212MOL0     H29188   5.507   2.053   9.239  0.8505 -2.1195 -0.9786
  212MOL0     H29189   5.308   1.951   9.361 -2.8692 -0.1432  3.4696
  212MOL0     H29190   5.302   1.820   9.472 -0.1782  1.4096  0.4153
  212MOL0     H29191   5.263   1.663   9.278  1.0887  0.2130  1.3191
  212MOL0     H29192   5.137   1.773   9.318  1.2828 -1.6230  2.5115
  212MOL0     H29193   5.317   1.911   9.127 -0.3074 -1.0923 -0.2764
  212MOL0     H29194   5.293   1.743   9.064  2.4365  0.1049  0.7648
  212MOL0     H29195   5.037   1.773   9.115 -3.2212  2.1067 -0.1201
  212MOL0     H29196   5.094   1.945   9.153  2.5981  0.3728 -0.2935
  212MOL0     H29197   5.176   1.964   8.930 -1.5734  2.4811  2.5178
  212MOL0     H29198   4.997   1.943   8.946  0.2408  1.3464  3.1067
  212MOL0     H29199   5.200   1.726   8.839  1.5213  3.5529 -0.8144
  212MOL0     H29200   5.025   1.697   8.882  0.4404 -0.2044 -0.0992
  212MOL0     H29201   5.131   1.869   8.657 -0.5844 -4.2968 -5.4157
  212MOL0     H29202   4.962   1.854   8.724 -1.1682 -1.0266 -2.0821
  212MOL0     H29203   5.142   1.610   8.644  1.5474  2.7664 -0.1569
  212MOL0     H29204   4.963   1.612   8.647  0.2476 -0.0603 -0.9977
  212MOL0     H29205   5.179   1.545   8.383 -0.2996 -0.5290 -1.8440
  212MOL0     H29206   5.280   1.699   8.127 -1.2928 -2.2955 -1.5545
  212MOL0     H29207   5.137   1.803   8.075 -3.8795  0.3339  2.1900
  212MOL0     H29208   5.104   1.502   8.150 -1.5115 -2.1531 -1.4346
  212MOL0     H29209   5.010   1.589   8.042  0.4070  1.0068  0.7536
  212MOL0     H29210   5.141   1.451   7.893  1.3824 -0.3841  0.1888
  212MOL0     H29211   5.201   1.617   7.880 -3.9516 -0.8311 -1.6615
  212MOL0     H29212   5.376   1.440   7.888 -1.7568 -2.1086  0.1554
  212MOL0     H29213   5.404   1.588   7.975 -2.3412  2.0687 -0.6301
  212MOL0     H29214   5.556   1.270   8.076  0.2706 -1.4506 -2.2639
  212MOL0     H29215   5.672   1.062   7.953  0.2185 -2.7641 -1.4151
  212MOL0     H29216   5.625   0.924   8.056  2.9434  0.4083 -0.2511
  212MOL0     H29217   5.661   1.058   8.139  1.5605  0.7397 -1.7525
  212MOL0     H29218   5.330   0.731   7.675 -1.6685 -0.3665  1.1160
  212MOL0     H29219   5.326   0.472   7.617  1.3671 -1.8955  0.7304
  212MOL0     H29220   5.629   0.230   7.761 -0.9399  1.8725 -5.1027
  212MOL0     H29221   5.500   0.199   7.883  2.5536  1.8195  1.1268
  212MOL0     H29222   5.599   0.039   7.667  0.0438 -0.7738 -0.9688
  212MOL0     H29223   5.460   0.009   7.783  0.4023 -2.8030 -2.4276
  212MOL0     H29224   5.432   0.143   7.504  1.2598  0.2180  0.9578
  212MOL0     H29225   5.302   0.083   7.626 -0.6755  0.4224 -2.3609
  212MOL0     H29226   5.388  -0.151   7.591  3.0090 -2.3013 -2.0803
  212MOL0     H29227   5.475  -0.075   7.453 -0.9656  0.8682 -1.9752
  212MOL0     H29228   5.173  -0.034   7.479 -3.2716 -1.3000 -3.2486
  212MOL0     H29229   5.273  -0.029   7.335  0.5647 -1.2928 -0.9962
  212MOL0     H29230   5.199  -0.276   7.507 -0.7843  2.9858  1.4860
  212MOL0     H29231   5.310  -0.284   7.384  0.3680  0.5707  1.6057
  212MOL0     H29232   5.091  -0.338   7.269 -0.4896  1.9167 -4.3877
  212MOL0     H29233   5.133  -0.188   7.214 -0.3576  1.2829 -0.6014
  212MOL0     H29234   4.911  -0.161   7.270  1.5108 -0.0080 -1.0385
  212MOL0     H29235   4.999  -0.069   7.381  0.8766 -0.1197  1.8238
  212MOL0     H29236   5.618   0.393   7.915  0.1986  0.6150  0.2664
  212MOL0     H29237   5.601   0.630   7.995 -1.7983 -0.5452  2.9480
  212MOL0     H29238   5.130   1.028   8.011 -0.2151  0.4308  0.7032
  212MOL0     H29239   5.133   1.264   8.075  2.1512  3.2742 -2.1849
  212MOL0     H29240   5.649   1.774   9.535 -2.9666  2.1310  2.7032
  212MOL0     H29241   5.850   1.901   9.560  0.0387 -1.9674 -1.8216
  212MOL0     H29242   6.025   2.289   9.623  0.5490  0.9403  0.7846
  212MOL0     H29243   6.189   2.476   9.648  4.9784 -0.6397  0.9324
  212MOL0     H29244   6.335   2.621   9.647 -1.0945 -2.9931 -0.7130
  212MOL0     H29245   6.454   2.521   9.729  3.0566 -0.8363 -0.4581
  212MOL0     H29246   6.516   2.764   9.703  0.1198  1.3595 -0.3664
  212MOL0     H29247   6.539   2.738   9.530 -1.6725  0.4408  0.1440
  212MOL0     H29248   6.730   2.589   9.573 -0.6904 -0.9896 -0.7181
  212MOL0     H29249   6.746   2.733   9.677 -0.2125  0.3242 -0.4161
  212MOL0     H29250   6.655   2.457   9.749 -2.3513  2.2446 -3.0042
  212MOL0     H29251   6.613   2.585   9.857 -1.2664 -1.8696 -0.1468
  212MOL0     H29252   7.027   2.571   9.940 -0.4388  1.4112  1.4519
  212MOL0     H29253   6.421   2.338   9.338  0.5478  2.0309  1.0235
  212MOL0     H29254   6.344   2.192   9.179  0.4709 -0.9653 -0.3326
  212MOL0     H29255   6.321   2.052   9.274 -1.5845 -0.3754  0.9512
  212MOL0     H29256   6.182   2.132   9.183 -2.3674  1.6059  3.4040
  213MOL0     O29257   1.149  11.317   9.408  0.1064 -0.7017 -0.1025
  213MOL0     C29258   1.114  11.415   9.337 -0.5779 -0.7184  0.1330
  213MOL0     O29259   1.150  11.432   9.204  0.2109 -0.8155  0.0715
  213MOL0     C29260   1.266  11.378   9.150 -0.3506 -0.8026 -0.2904
  213MOL0     C29261   1.387  11.383   9.231  0.0669 -0.2751 -0.4993
  213MOL0     C29262   1.505  11.327   9.174 -0.2153  0.0163  0.8624
  213MOL0     C29263   1.504  11.265   9.044 -0.1812 -0.0927 -0.3457
  213MOL0     O29264   1.617  11.199   8.987 -0.5245 -1.0194 -0.3670
  213MOL0     C29265   1.746  11.203   9.059  0.4647 -0.1096 -1.0144
  213MOL0     C29266   1.840  11.108   8.988 -0.9810  0.4281  0.0588
  213MOL0     C29267   1.811  10.961   9.018 -0.9165  1.3003  0.1656
  213MOL0     C29268   1.694  10.906   8.935  0.2714 -0.6076 -0.6284
  213MOL0     C29269   1.659  10.759   8.954  0.2834 -0.3709 -0.2197
  213MOL0     C29270   1.760  10.662   8.899  0.3370  1.1438  0.6454
  213MOL0     C29271   1.712  10.523   8.923 -0.7768 -0.0453 -0.3964
  213MOL0     C29272   1.799  10.416   8.859 -0.0022 -0.5158  0.5146
  213MOL0     N29273   1.945  10.434   8.870  0.1328  0.9172  0.4345
  213MOL0     C29274   2.035  10.337   8.910  0.2546 -0.0160  0.4087
  213MOL0     C29275   2.153  10.386   8.866 -0.1379  0.5939  0.0619
  213MOL0     C29276   2.293  10.329   8.885 -0.6118 -0.5481 -0.7932
  213MOL0     C29277   2.378  10.413   8.986 -0.1705 -0.1791  0.0642
  213MOL0     C29278   2.469  10.308   9.055 -0.1484 -0.9589 -0.3398
  213MOL0     C29279   2.589  10.262   8.971 -0.3411  0.4384  0.3639
  213MOL0     O29280   2.704  10.239   9.048  0.9086  0.1675 -0.0960
  213MOL0     C29281   2.827  10.224   8.979  0.2177 -0.1979 -0.0613
  213MOL0     C29282   2.944  10.251   9.045  0.4842  0.9017 -0.2257
  213MOL0     C29283   3.064  10.273   8.973  0.0401 -0.8585  0.0825
  213MOL0     C29284   3.177  10.350   9.053  0.3461 -0.0733  1.0323
  213MOL0     C29285   3.075  10.236   8.832  1.1513 -0.2689 -1.8368
  213MOL0     C29286   3.193  10.258   8.748  0.3015 -0.2744 -0.0959
  213MOL0     O29287   3.167  10.245   8.610 -0.3330  0.2564  0.1069
  213MOL0     C29288   3.277  10.255   8.532 -0.3894 -0.4796  0.2738
  213MOL0     C29289   3.326  10.377   8.490  0.0663  0.4675  0.7933
  213MOL0     C29290   3.440  10.398   8.419 -0.1697 -0.5197  0.0464
  213MOL0     C29291   3.521  10.285   8.396  0.4028 -0.0792  0.2864
  213MOL0     O29292   3.644  10.305   8.340  0.3606 -0.0002 -0.6712
  213MOL0     C29293   3.756  10.257   8.417 -0.1750  0.5238  0.0909
  213MOL0     C29294   3.840  10.154   8.342  0.0950 -0.4968  0.1814
  213MOL0     C29295   3.991  10.163   8.376 -0.5558  0.3346  1.2727
  213MOL0     C29296   4.091  10.090   8.281  0.0935 -0.1601  0.4441
  213MOL0     C29297   4.229  10.078   8.350 -0.2233  0.6864 -0.0119
  213MOL0     C29298   4.327  10.042   8.246 -0.9181  0.2654  0.6358
  213MOL0     C29299   4.456  10.032   8.312 -0.4855 -0.0177  0.4192
  213MOL0     C29300   4.577  10.038   8.202  0.2668 -0.2387 -0.2883
  213MOL0    Cl29301   4.571   9.916   8.081 -0.2897  0.2977  0.3636
  213MOL0     C29302   3.470  10.157   8.426  0.8138 -0.8322  0.2790
  213MOL0     C29303   3.349  10.141   8.496 -0.4147 -0.1420 -0.0524
  213MOL0     O29304   3.298  10.264   8.809 -0.5248  0.0917  0.0406
  213MOL0     C29305   2.955  10.186   8.771 -0.1784 -0.1024  0.6474
  213MOL0     C29306   2.835  10.182   8.851 -0.3567  0.7808  0.9428
  213MOL0     N29307   2.128  10.501   8.793 -0.6674  0.9906 -0.0029
  213MOL0     N29308   2.007  10.530   8.796  0.3222 -0.1941  0.2522
  213MOL0     C29309   1.382  11.253   8.979  0.1781  0.5241 -0.2534
  213MOL0     C29310   1.263  11.303   9.030  0.4876  1.1506 -0.8772
  213MOL0     C29311   1.032  11.518   9.399 -0.0617 -0.4770  0.6911
  213MOL0     C29312   1.068  11.545   9.532  0.8682  0.0189 -0.5228
  213MOL0     C29313   1.001  11.634   9.612  0.3716  0.9790  0.6028
  213MOL0     C29314   0.892  11.711   9.553  0.8275 -0.1036  0.5583
  213MOL0     O29315   0.816  11.801   9.611  0.7799 -0.2236 -0.2513
  213MOL0     C29316   0.864  11.845   9.739 -0.8720 -0.2338 -0.0218
  213MOL0     C29317   0.785  11.970   9.779 -0.2075  0.0221  0.1840
  213MOL0     C29318   0.801  12.087   9.686 -0.0260 -0.5585  0.2617
  213MOL0     C29319   0.899  12.187   9.745  0.4236 -0.5633  0.7593
  213MOL0     C29320   1.041  12.143   9.753  0.5942 -0.2156  0.3398
  213MOL0     C29321   1.150  12.096   9.758 -0.0666 -0.4338  0.8451
  213MOL0     C29322   0.857  11.685   9.421  0.9582 -0.7816  0.0719
  213MOL0     C29323   0.923  11.592   9.344  0.6430 -0.4511 -0.3880
  213MOL0     C29324   0.872  11.570   9.204 -0.2664 -0.1836 -0.1908
  213MOL0     H29325   1.394  11.443   9.321  0.9864  2.4991 -2.2600
  213MOL0     H29326   1.600  11.331   9.225  1.4558 -4.2756 -1.3738
  213MOL0     H29327   1.734  11.167   9.162  2.0478  1.8631 -0.0884
  213MOL0     H29328   1.795  11.301   9.060 -0.5689  0.4794  1.8405
  213MOL0     H29329   1.836  11.118   8.879 -0.9261 -0.4829 -0.0370
  213MOL0     H29330   1.939  11.132   9.027 -0.7456  0.9040 -0.8141
  213MOL0     H29331   1.902  10.908   8.990 -0.0946  1.7738  1.8454
  213MOL0     H29332   1.787  10.950   9.124  0.2825  1.1597  0.4371
  213MOL0     H29333   1.607  10.963   8.968  1.1650 -0.6287  2.0607
  213MOL0     H29334   1.713  10.928   8.830 -2.3644  1.8036 -0.7158
  213MOL0     H29335   1.564  10.747   8.899 -0.2639 -2.2014  1.0441
  213MOL0     H29336   1.638  10.739   9.059  0.9524 -1.0863 -0.2192
  213MOL0     H29337   1.773  10.697   8.797  1.0525 -0.6270  0.0961
  213MOL0     H29338   1.858  10.668   8.947  2.3680 -1.6950 -2.6703
  213MOL0     H29339   1.603  10.519   8.911 -1.0758  0.2084  1.8483
  213MOL0     H29340   1.726  10.517   9.031  1.9133  0.3306 -0.6760
  213MOL0     H29341   1.778  10.313   8.892  0.2390 -1.1345 -1.1940
  213MOL0     H29342   1.778  10.426   8.753 -2.1224 -2.2847  0.7065
  213MOL0     H29343   2.024  10.239   8.956  1.1581 -0.5948 -0.5321
  213MOL0     H29344   2.342  10.320   8.788 -0.8687  0.3149 -1.0119
  213MOL0     H29345   2.283  10.226   8.919  2.3687 -0.9894 -0.9439
  213MOL0     H29346   2.433  10.501   8.951 -0.8755  0.5739  0.8046
  213MOL0     H29347   2.305  10.451   9.059  1.7871 -0.7223  2.4550
  213MOL0     H29348   2.512  10.352   9.145  2.9227 -2.1806 -1.0737
  213MOL0     H29349   2.405  10.224   9.081 -0.5102 -0.7000 -0.3829
  213MOL0     H29350   2.575  10.182   8.897 -0.3435  1.8941 -1.2672
  213MOL0     H29351   2.605  10.352   8.911  0.2201  1.0220  1.3657
  213MOL0     H29352   2.921  10.275   9.148 -2.8347  4.2909 -1.5058
  213MOL0     H29353   3.213  10.284   9.132  2.4883 -0.5684 -0.2843
  213MOL0     H29354   3.127  10.441   9.088  0.7994  1.4586 -1.9402
  213MOL0     H29355   3.263  10.388   8.997 -1.2434 -0.2762 -1.7114
  213MOL0     H29356   3.276  10.468   8.523 -0.2041  1.0404 -1.0763
  213MOL0     H29357   3.474  10.497   8.390  1.9876 -1.7792 -2.2068
  213MOL0     H29358   3.825  10.342   8.419 -0.6027  0.8875 -0.3672
  213MOL0     H29359   3.729  10.218   8.516  0.2139 -0.0420 -0.0205
  213MOL0     H29360   3.808  10.052   8.365 -0.1142 -0.4455  0.1170
  213MOL0     H29361   3.837  10.166   8.233 -0.4749  0.0725  0.2546
  213MOL0     H29362   4.001  10.128   8.479  0.9016 -1.6386  0.5303
  213MOL0     H29363   4.022  10.268   8.379 -0.1768  0.2597  0.4351
  213MOL0     H29364   4.110  10.141   8.186  0.6574 -1.6709 -0.2988
  213MOL0     H29365   4.064   9.989   8.247  2.2650 -0.9444  0.8618
  213MOL0     H29366   4.255  10.175   8.392 -0.8011  0.2269  1.4559
  213MOL0     H29367   4.240  10.007   8.432  0.5864  1.9865  1.0381
  213MOL0     H29368   4.344  10.126   8.178  2.0055 -1.5320 -1.0428
  213MOL0     H29369   4.296   9.952   8.191  0.0066  0.5805 -0.4472
  213MOL0     H29370   4.465   9.935   8.362 -3.1527 -1.0547 -0.9106
  213MOL0     H29371   4.477  10.113   8.383  2.1136 -0.6990  0.5513
  213MOL0     H29372   4.671  10.010   8.250 -0.7662 -2.4552  0.5896
  213MOL0     H29373   4.573  10.136   8.152 -2.5261 -0.6699 -1.0663
  213MOL0     H29374   3.525  10.074   8.384  1.3588 -0.1772 -0.3152
  213MOL0     H29375   3.292  10.052   8.521 -2.4457  1.0554 -0.1517
  213MOL0     H29376   2.941  10.153   8.668 -1.8232 -0.3211  0.9195
  213MOL0     H29377   2.749  10.141   8.799  0.6749 -2.2644  1.4213
  213MOL0     H29378   1.375  11.189   8.891  2.3571  0.0466 -0.1419
  213MOL0     H29379   1.167  11.293   8.982 -0.5581 -3.0650  1.5843
  213MOL0     H29380   1.146  11.483   9.576  1.3367  1.3746  0.6510
  213MOL0     H29381   1.014  11.634   9.720 -2.5225  1.1357  1.0311
  213MOL0     H29382   0.851  11.770   9.818  0.6581 -2.4144 -1.7188
  213MOL0     H29383   0.972  11.858   9.738 -0.8805 -0.1030  0.4069
  213MOL0     H29384   0.824  12.005   9.875  0.9608  0.8309 -0.5660
  213MOL0     H29385   0.678  11.945   9.786  0.0947 -0.9394  1.9771
  213MOL0     H29386   0.821  12.063   9.582  1.4905  1.1645  0.0940
  213MOL0     H29387   0.710  12.146   9.676 -0.7007 -1.5327  0.5449
  213MOL0     H29388   0.869  12.222   9.844  0.6455  1.7721  0.0465
  213MOL0     H29389   0.880  12.265   9.671 -2.2702 -3.7937 -2.2984
  213MOL0     H29390   1.245  12.051   9.738  0.0385  0.7320 -1.6105
  213MOL0     H29391   0.778  11.746   9.380  1.5964  1.9872  2.6325
  213MOL0     H29392   0.945  11.607   9.132 -0.9014 -0.8789 -1.2153
  213MOL0     H29393   0.860  11.462   9.191 -5.2904 -0.1651  2.0567
  213MOL0     H29394   0.776  11.617   9.186 -0.8898 -1.4269 -0.2632
  214MOL0     O29395   7.567   5.822   6.190  0.2136  0.1736 -1.4024
  214MOL0     C29396   7.673   5.833   6.124 -1.0492 -0.1179 -0.8092
  214MOL0     O29397   7.687   5.862   5.988  0.7537 -1.1105 -0.1668
  214MOL0     C29398   7.566   5.850   5.924 -1.2529  0.3068  0.0214
  214MOL0     C29399   7.480   5.951   5.909  0.6086 -1.1324  0.3231
  214MOL0     C29400   7.349   5.935   5.844 -0.5614 -0.6118 -0.5052
  214MOL0     C29401   7.326   5.808   5.780 -0.7341  0.5585 -0.6186
  214MOL0     O29402   7.222   5.786   5.702  0.1928 -0.5234 -0.0023
  214MOL0     C29403   7.113   5.716   5.762  1.1912  0.7099 -0.2999
  214MOL0     C29404   7.066   5.600   5.670 -0.3480  0.3540 -0.2091
  214MOL0     C29405   6.926   5.553   5.697 -0.0440  1.5110  0.6548
  214MOL0     C29406   6.826   5.663   5.664  0.2699  0.9244  0.2892
  214MOL0     C29407   6.673   5.622   5.681 -0.6038  0.2999 -0.2073
  214MOL0     C29408   6.637   5.468   5.636 -0.3686 -0.4359 -0.0498
  214MOL0     C29409   6.487   5.442   5.618  1.2403  0.7882  0.6185
  214MOL0     C29410   6.408   5.483   5.483 -0.3348 -0.2934  0.2535
  214MOL0     N29411   6.472   5.522   5.354 -0.5839  0.8607 -0.4540
  214MOL0     C29412   6.561   5.435   5.294 -0.7103 -0.2340 -0.2811
  214MOL0     C29413   6.597   5.501   5.180  0.5491  0.3465  0.0708
  214MOL0     C29414   6.709   5.466   5.073  0.9166  0.2218  0.6594
  214MOL0     C29415   6.839   5.548   5.096  0.2633  1.2176  0.6954
  214MOL0     C29416   6.861   5.571   5.253  0.2214 -0.0543 -0.0423
  214MOL0     C29417   6.973   5.663   5.281  0.5122 -0.6616 -0.4052
  214MOL0     O29418   6.939   5.788   5.222  0.0228 -0.1173 -0.3790
  214MOL0     C29419   6.859   5.875   5.286  0.4666  0.0334 -0.0422
  214MOL0     C29420   6.891   5.931   5.415 -0.7655 -0.1006 -0.1687
  214MOL0     C29421   6.812   6.016   5.485  0.4091 -0.4759 -0.1974
  214MOL0     C29422   6.866   6.059   5.624 -0.4346 -0.2554 -0.0211
  214MOL0     C29423   6.687   6.056   5.433 -0.0605  0.3987  0.3190
  214MOL0     C29424   6.602   6.148   5.510 -0.2139  0.6695 -0.3438
  214MOL0     O29425   6.595   6.142   5.641 -0.5706  0.5452 -1.0349
  214MOL0     C29426   6.504   6.216   5.714  0.0403  0.0233  0.8202
  214MOL0     C29427   6.407   6.159   5.792 -0.0958 -0.3758  1.4443
  214MOL0     C29428   6.311   6.231   5.861 -0.6725  0.0850 -0.0139
  214MOL0     C29429   6.324   6.372   5.859 -0.5269  0.0378 -0.5839
  214MOL0     O29430   6.238   6.438   5.934 -0.5144  0.9748  0.1120
  214MOL0     C29431   6.260   6.573   5.984  0.3053  0.9802  0.2195
  214MOL0     C29432   6.149   6.606   6.087 -0.5192  0.0576  0.7448
  214MOL0     C29433   6.006   6.624   6.014  0.7083  0.1850 -0.8241
  214MOL0     C29434   5.994   6.762   5.947  1.0463 -0.1168  0.0033
  214MOL0     C29435   5.856   6.793   5.881 -1.1302 -0.4328 -0.1694
  214MOL0     C29436   5.807   6.691   5.779 -0.6670 -0.5847  0.2511
  214MOL0     C29437   5.699   6.756   5.691  0.1223  0.4543 -0.1118
  214MOL0     C29438   5.632   6.655   5.605 -0.2242 -0.2795 -0.5958
  214MOL0    Cl29439   5.541   6.533   5.704 -0.3732 -0.2611 -0.2081
  214MOL0     C29440   6.434   6.435   5.785 -0.3547  0.3590  0.0820
  214MOL0     C29441   6.501   6.351   5.701 -0.0286  0.6091  0.1908
  214MOL0     O29442   6.540   6.229   5.439  0.4437 -0.0002 -0.2622
  214MOL0     C29443   6.646   5.999   5.308 -0.1729 -0.7863 -0.4422
  214MOL0     C29444   6.731   5.909   5.242  0.5774 -1.5358 -0.2277
  214MOL0     N29445   6.532   5.626   5.181 -0.6325  0.9662  1.2480
  214MOL0     N29446   6.461   5.633   5.287 -0.6379 -0.2365 -0.0276
  214MOL0     C29447   7.421   5.706   5.798 -1.3075  0.8587  0.1398
  214MOL0     C29448   7.533   5.723   5.879 -0.4084 -0.0739  0.2804
  214MOL0     C29449   7.785   5.837   6.219 -0.1468 -0.5415  0.5961
  214MOL0     C29450   7.773   5.900   6.348 -0.0097 -0.1080 -0.5736
  214MOL0     C29451   7.879   5.897   6.440  0.5766 -0.9294  0.1063
  214MOL0     C29452   8.003   5.830   6.417  1.2832  0.1966 -0.2855
  214MOL0     O29453   8.116   5.811   6.496 -0.3161 -0.8872 -0.0120
  214MOL0     C29454   8.111   5.879   6.624 -0.1080  0.2578  0.7375
  214MOL0     C29455   8.240   5.843   6.693  0.8530 -0.3226  0.4476
  214MOL0     C29456   8.212   5.889   6.838 -0.5299  0.4323 -0.3503
  214MOL0     C29457   8.316   5.824   6.934 -0.8394  0.1991 -0.1519
  214MOL0     C29458   8.242   5.795   7.058  0.6041 -0.7576 -0.1646
  214MOL0     C29459   8.188   5.765   7.167  0.1820  0.2299  0.8341
  214MOL0     C29460   8.007   5.767   6.292  0.3263 -1.6107 -0.5739
  214MOL0     C29461   7.906   5.771   6.195 -0.6134 -0.3537  0.3224
  214MOL0     C29462   7.939   5.702   6.065  0.0907 -0.0069 -0.3359
  214MOL0     H29463   7.509   6.049   5.947 -0.2875 -1.1489  1.0923
  214MOL0     H29464   7.288   6.023   5.829  2.9253  1.6912 -2.4738
  214MOL0     H29465   7.032   5.787   5.785  1.3218  0.5673  0.6553
  214MOL0     H29466   7.142   5.684   5.862  0.7496  1.0130 -0.0689
  214MOL0     H29467   7.087   5.630   5.566  0.0936  1.4424  0.1784
  214MOL0     H29468   7.132   5.516   5.694  3.3471  1.6411 -4.3382
  214MOL0     H29469   6.920   5.462   5.637  1.3560  1.5013  0.4976
  214MOL0     H29470   6.916   5.528   5.803 -0.2719 -2.6271 -0.1946
  214MOL0     H29471   6.835   5.762   5.711 -1.6299  2.4640 -2.3073
  214MOL0     H29472   6.838   5.680   5.556  1.6644  0.0711  0.2949
  214MOL0     H29473   6.617   5.684   5.611  0.0969 -0.1429 -1.1897
  214MOL0     H29474   6.652   5.629   5.788 -0.1636 -1.9918  0.0803
  214MOL0     H29475   6.688   5.441   5.543  0.0885 -2.2095  0.6813
  214MOL0     H29476   6.682   5.414   5.720  3.0279  3.6465  1.1184
  214MOL0     H29477   6.428   5.474   5.705 -2.3768 -2.7793 -0.2249
  214MOL0     H29478   6.488   5.333   5.612 -0.2310  0.7948 -0.2434
  214MOL0     H29479   6.354   5.396   5.444  0.3650 -0.0020 -1.4390
  214MOL0     H29480   6.344   5.567   5.513 -1.6053 -2.1900  3.3132
  214MOL0     H29481   6.596   5.338   5.329  0.7888 -0.1463 -1.4493
  214MOL0     H29482   6.679   5.479   4.969  0.4989 -0.8149  0.6339
  214MOL0     H29483   6.725   5.360   5.094  0.1235  0.3875  2.2518
  214MOL0     H29484   6.924   5.499   5.046 -1.7171 -0.1771 -1.4923
  214MOL0     H29485   6.826   5.648   5.054  1.5004  2.1539  2.4110
  214MOL0     H29486   6.772   5.612   5.301 -2.1397 -0.9371 -3.3348
  214MOL0     H29487   6.871   5.469   5.292  0.9189 -0.1279 -0.4055
  214MOL0     H29488   6.977   5.681   5.389 -1.8773  0.1335 -0.3965
  214MOL0     H29489   7.072   5.640   5.240  0.3320  0.0567 -1.2787
  214MOL0     H29490   6.983   5.907   5.468 -1.0682  0.6788  0.7521
  214MOL0     H29491   6.829   5.986   5.696 -2.7112 -1.7502 -2.5021
  214MOL0     H29492   6.848   6.161   5.660 -0.1476 -0.5293  0.9253
  214MOL0     H29493   6.976   6.063   5.625 -0.2912 -2.1883  2.5180
  214MOL0     H29494   6.409   6.050   5.793  3.4883 -0.5502 -1.7864
  214MOL0     H29495   6.239   6.187   5.929  0.6463  1.3000  2.2756
  214MOL0     H29496   6.357   6.575   6.035  0.0840 -1.1594  0.8493
  214MOL0     H29497   6.259   6.630   5.891 -0.5937  1.1062  0.3005
  214MOL0     H29498   6.143   6.522   6.157 -1.2540 -1.4438 -1.0663
  214MOL0     H29499   6.161   6.703   6.137 -1.4474  0.9195 -0.6532
  214MOL0     H29500   5.926   6.617   6.089 -0.8208  1.0507 -2.3018
  214MOL0     H29501   5.994   6.542   5.943 -1.1504 -0.7091  0.4400
  214MOL0     H29502   6.070   6.779   5.871 -0.2739  3.1420 -0.7610
  214MOL0     H29503   6.007   6.846   6.016 -0.1925  1.7828 -1.9474
  214MOL0     H29504   5.795   6.802   5.971 -2.5464 -0.6602 -1.0840
  214MOL0     H29505   5.871   6.888   5.829  0.7720 -1.1212 -0.9734
  214MOL0     H29506   5.760   6.608   5.832 -0.9987  1.3269  3.1693
  214MOL0     H29507   5.893   6.660   5.719 -0.6505  0.1009 -0.0893
  214MOL0     H29508   5.740   6.837   5.630  0.9938  1.9786  2.3192
  214MOL0     H29509   5.619   6.803   5.749 -1.9379  0.4894 -2.8152
  214MOL0     H29510   5.708   6.608   5.542  1.6043  2.4860 -0.6092
  214MOL0     H29511   5.557   6.700   5.538  0.3506 -1.2118 -1.9121
  214MOL0     H29512   6.451   6.542   5.792  1.3253  0.0863  0.6304
  214MOL0     H29513   6.579   6.389   5.636  2.3376 -1.5563  1.5954
  214MOL0     H29514   6.551   6.035   5.270  1.5811  2.0127 -2.6098
  214MOL0     H29515   6.694   5.872   5.146  2.0550 -4.0808  0.0922
  214MOL0     H29516   7.402   5.611   5.750 -1.9469  1.4028 -0.7148
  214MOL0     H29517   7.591   5.634   5.900 -0.1726 -0.3624 -1.4567
  214MOL0     H29518   7.674   5.942   6.367  0.7621  1.1876  0.8087
  214MOL0     H29519   7.862   5.927   6.543  1.2647 -2.4019  0.6861
  214MOL0     H29520   8.107   5.988   6.608  1.4297  0.0189 -1.9943
  214MOL0     H29521   8.019   5.856   6.678 -2.4299  3.8720 -1.2739
  214MOL0     H29522   8.328   5.892   6.650  2.7670 -2.5170  1.6213
  214MOL0     H29523   8.246   5.734   6.701 -2.8331 -0.8756 -1.8879
  214MOL0     H29524   8.227   5.997   6.848 -1.1192  0.8106 -2.8122
  214MOL0     H29525   8.111   5.862   6.869 -1.4857  3.5918 -0.2978
  214MOL0     H29526   8.410   5.877   6.952 -3.3681  4.3027  2.7440
  214MOL0     H29527   8.355   5.730   6.894 -1.8492 -0.1630 -0.3244
  214MOL0     H29528   8.157   5.725   7.262  1.1123 -0.7635  0.7431
  214MOL0     H29529   8.102   5.716   6.281  1.1387 -1.0937  2.7899
  214MOL0     H29530   8.031   5.643   6.074  0.2299 -0.2367 -2.6314
  214MOL0     H29531   7.855   5.649   6.020  0.0141 -1.5784  1.5145
  214MOL0     H29532   7.973   5.776   5.992 -0.6636 -1.0731 -1.8118
  215MOL0     O29533   3.236   1.439  10.870  0.5180 -0.4295  0.7442
  215MOL0     C29534   3.349   1.424  10.909 -0.8499  0.0432 -0.0579
  215MOL0     O29535   3.434   1.321  10.872 -0.3955  0.5868  0.6570
  215MOL0     C29536   3.381   1.227  10.778  0.1016 -0.5974 -0.0541
  215MOL0     C29537   3.457   1.218  10.661 -0.9015  0.8896  0.7031
  215MOL0     C29538   3.382   1.162  10.550  1.2280 -0.1970  0.4558
  215MOL0     C29539   3.259   1.099  10.564  0.0401 -0.3889  0.9475
  215MOL0     O29540   3.214   1.043  10.447 -0.6657 -0.4203  0.2770
  215MOL0     C29541   3.081   0.985  10.452 -0.8502  0.3432 -0.7126
  215MOL0     C29542   3.038   0.927  10.314 -0.9704 -0.2670 -0.3715
  215MOL0     C29543   3.124   0.803  10.277 -0.2487 -0.1698 -0.5238
  215MOL0     C29544   3.097   0.672  10.352  1.5965  0.4703  0.0438
  215MOL0     C29545   3.148   0.559  10.267 -0.4033  0.2696 -0.2381
  215MOL0     C29546   3.152   0.436  10.353 -0.1803 -0.4605 -0.4853
  215MOL0     C29547   3.171   0.302  10.289  0.7278 -0.7984  0.1875
  215MOL0     C29548   3.319   0.286  10.233  0.0042  0.0805 -0.7568
  215MOL0     N29549   3.340   0.166  10.161  0.4002  0.3689 -0.3965
  215MOL0     C29550   3.455   0.086  10.167  0.4134  0.1750 -0.2249
  215MOL0     C29551   3.415  -0.035  10.107  0.3741  0.2581 -0.2212
  215MOL0     C29552   3.505  -0.147  10.061 -0.0960 -0.4835 -0.3540
  215MOL0     C29553   3.514  -0.264  10.158 -0.3773  0.2481  0.6346
  215MOL0     C29554   3.624  -0.276  10.263  0.2304  0.1268  0.6550
  215MOL0     C29555   3.623  -0.423  10.321 -0.6586 -0.3334  0.6410
  215MOL0     O29556   3.647  -0.516  10.220 -0.3068  0.0887  0.5809
  215MOL0     C29557   3.777  -0.542  10.173 -0.4405 -0.6482  0.4853
  215MOL0     C29558   3.796  -0.642  10.078  0.6740  0.4337 -0.2125
  215MOL0     C29559   3.920  -0.683  10.028 -0.8940  0.5380 -0.5640
  215MOL0     C29560   3.923  -0.816   9.953  0.5838 -0.3386 -0.1470
  215MOL0     C29561   4.039  -0.608  10.066  0.4532  0.8325  0.2064
  215MOL0     C29562   4.177  -0.639  10.037 -1.0052  0.2230  0.5553
  215MOL0     O29563   4.271  -0.640  10.137 -0.0325  0.5555 -0.2596
  215MOL0     C29564   4.396  -0.700  10.112 -0.0066  0.3417 -0.1202
  215MOL0     C29565   4.442  -0.827  10.137  0.8111  0.4194  0.4045
  215MOL0     C29566   4.565  -0.863  10.088  0.4427  0.3265  1.6828
  215MOL0     C29567   4.656  -0.772  10.018 -0.3882  0.6590 -0.0491
  215MOL0     O29568   4.772  -0.823   9.970 -0.2508 -0.3201  0.3040
  215MOL0     C29569   4.864  -0.727   9.920 -0.3887  0.4416  0.2460
  215MOL0     C29570   4.980  -0.806   9.860 -0.2427 -0.0234 -0.2273
  215MOL0     C29571   5.082  -0.719   9.798  0.3719  0.5747 -0.2914
  215MOL0     C29572   5.029  -0.621   9.681  0.7599  0.1863  0.1494
  215MOL0     C29573   5.151  -0.568   9.601  0.3612  0.0984  0.5025
  215MOL0     C29574   5.118  -0.474   9.493 -0.1218 -0.5651  0.8140
  215MOL0     C29575   5.239  -0.401   9.435  0.4966  1.0281 -0.2278
  215MOL0     C29576   5.255  -0.272   9.508  1.1200  0.9896  0.5542
  215MOL0    Cl29577   5.399  -0.199   9.444 -0.4358 -0.0356 -0.2326
  215MOL0     C29578   4.612  -0.639  10.017 -0.5800 -0.4553 -0.4818
  215MOL0     C29579   4.486  -0.602  10.062 -0.4580 -0.8230  0.3766
  215MOL0     O29580   4.196  -0.689   9.925  0.5359 -0.4500 -0.0465
  215MOL0     C29581   4.013  -0.506  10.163  0.5788  0.3540  0.0643
  215MOL0     C29582   3.885  -0.471  10.216 -0.5972  0.7234  0.0056
  215MOL0     N29583   3.283  -0.018  10.070 -0.1707  0.2051 -0.4461
  215MOL0     N29584   3.238   0.097  10.102  0.3164 -0.0672 -0.2504
  215MOL0     C29585   3.209   1.082  10.688 -0.1548  0.1120 -0.2898
  215MOL0     C29586   3.263   1.157  10.794  0.9849 -0.0625 -0.1535
  215MOL0     C29587   3.410   1.532  10.989  0.5522  0.6775 -0.4233
  215MOL0     C29588   3.331   1.615  11.069  0.2966  0.8929  0.0938
  215MOL0     C29589   3.381   1.715  11.150 -0.3416  0.4426  0.1293
  215MOL0     C29590   3.506   1.756  11.129  0.1996 -0.7683 -0.1469
  215MOL0     O29591   3.555   1.867  11.185  0.0199  0.1928  0.0449
  215MOL0     C29592   3.510   1.913  11.319  0.4608  0.9002 -0.5852
  215MOL0     C29593   3.520   1.798  11.428  0.2161 -0.3821  1.0189
  215MOL0     C29594   3.663   1.753  11.437  0.6357 -0.0555 -0.6439
  215MOL0     C29595   3.668   1.623  11.521 -0.1390  0.7304 -0.0397
  215MOL0     C29596   3.636   1.523  11.423  0.2875  0.0787 -0.9758
  215MOL0     C29597   3.611   1.454  11.335  0.5975 -1.1031 -0.3600
  215MOL0     C29598   3.588   1.677  11.048 -0.3279 -0.1523  0.6203
  215MOL0     C29599   3.541   1.559  10.986  0.3742  0.1934 -0.2343
  215MOL0     C29600   3.647   1.493  10.901 -0.1385 -0.1317  0.3881
  215MOL0     H29601   3.552   1.270  10.671 -0.5445 -0.0649  2.7822
  215MOL0     H29602   3.419   1.171  10.448 -1.8739 -0.0353 -0.7713
  215MOL0     H29603   3.010   1.058  10.492 -1.3546  0.3967 -1.6698
  215MOL0     H29604   3.091   0.900  10.520 -2.7998  0.1422 -0.6015
  215MOL0     H29605   2.931   0.903  10.309 -0.5147 -3.0394  1.2981
  215MOL0     H29606   3.049   1.006  10.239  0.4252  0.7985  0.8953
  215MOL0     H29607   3.118   0.782  10.170  2.7483  0.9267 -0.9938
  215MOL0     H29608   3.229   0.822  10.302  0.8198 -4.0101 -1.3296
  215MOL0     H29609   3.139   0.667  10.453  0.3915 -1.0284  0.5020
  215MOL0     H29610   2.989   0.655  10.349  1.7208 -0.4438 -2.6373
  215MOL0     H29611   3.244   0.561  10.215  0.9530  1.4679  2.1745
  215MOL0     H29612   3.075   0.539  10.188  0.9228 -2.0169 -1.0016
  215MOL0     H29613   3.230   0.449  10.428  1.2593 -3.6507 -1.2790
  215MOL0     H29614   3.056   0.426  10.404  0.3018  1.7887  1.0063
  215MOL0     H29615   3.102   0.303  10.204  1.3965  0.8011 -0.3679
  215MOL0     H29616   3.154   0.215  10.353  0.8400 -1.4230 -0.6082
  215MOL0     H29617   3.333   0.374  10.169  3.3568 -0.3159 -0.7736
  215MOL0     H29618   3.390   0.290  10.316 -1.3013 -0.3805  0.4037
  215MOL0     H29619   3.552   0.105  10.212  0.8683  0.4673 -1.3167
  215MOL0     H29620   3.606  -0.105  10.057  0.9036 -2.3819  2.4756
  215MOL0     H29621   3.476  -0.185   9.962 -2.4711  0.1912 -0.0017
  215MOL0     H29622   3.421  -0.275  10.214 -0.2373  0.1601  0.8497
  215MOL0     H29623   3.515  -0.355  10.098  2.3681  0.6132  0.0027
  215MOL0     H29624   3.714  -0.247  10.207 -1.1905  1.5958 -0.9895
  215MOL0     H29625   3.613  -0.200  10.340 -2.0652  0.7805 -0.2492
  215MOL0     H29626   3.695  -0.428  10.403 -1.1836  1.3742  1.2426
  215MOL0     H29627   3.518  -0.431  10.351 -2.1840  1.0229 -3.5970
  215MOL0     H29628   3.704  -0.695  10.056 -0.1616  1.8840 -0.2948
  215MOL0     H29629   3.864  -0.887  10.011  0.2451 -1.7882 -2.1775
  215MOL0     H29630   4.023  -0.855   9.933 -0.2483 -1.4968 -2.3223
  215MOL0     H29631   3.876  -0.800   9.856  2.1770  0.4367 -0.8215
  215MOL0     H29632   4.377  -0.906  10.173 -1.1772  1.2995 -1.0653
  215MOL0     H29633   4.585  -0.969  10.099  0.7727  0.4579  2.4576
  215MOL0     H29634   4.822  -0.656   9.847  0.1451 -0.2853 -0.7983
  215MOL0     H29635   4.908  -0.680  10.008  0.4313 -2.1796  1.3315
  215MOL0     H29636   5.011  -0.866   9.945  0.2830 -1.1734 -1.1910
  215MOL0     H29637   4.936  -0.872   9.784 -0.2984 -0.4311  0.1548
  215MOL0     H29638   5.159  -0.778   9.747 -0.1305  1.7684 -2.5596
  215MOL0     H29639   5.134  -0.662   9.876  2.1148  0.2876 -1.1986
  215MOL0     H29640   4.980  -0.539   9.736 -0.5975 -1.0969  0.9218
  215MOL0     H29641   4.965  -0.664   9.604  3.0256  1.0137 -2.3495
  215MOL0     H29642   5.209  -0.505   9.669  0.9711  0.1721 -0.0734
  215MOL0     H29643   5.205  -0.655   9.564 -1.4852 -1.2893  0.9074
  215MOL0     H29644   5.047  -0.398   9.529  0.7364  0.7099 -0.0670
  215MOL0     H29645   5.071  -0.525   9.409 -0.5767  2.0177 -0.6083
  215MOL0     H29646   5.218  -0.381   9.329  0.0929  0.1609 -0.3165
  215MOL0     H29647   5.327  -0.467   9.436 -1.5961 -1.9383 -0.1609
  215MOL0     H29648   5.264  -0.278   9.617  1.6971  0.0146  0.4695
  215MOL0     H29649   5.165  -0.216   9.481 -1.0973 -2.5021 -0.0324
  215MOL0     H29650   4.662  -0.551   9.978 -1.4591  0.8706  1.2322
  215MOL0     H29651   4.457  -0.499  10.045  0.2410 -1.0451 -2.7126
  215MOL0     H29652   4.102  -0.452  10.193  1.9955 -0.6670 -2.0351
  215MOL0     H29653   3.879  -0.388  10.286  1.4693  1.2212 -0.3440
  215MOL0     H29654   3.114   1.036  10.715  0.0625 -0.2814 -0.1961
  215MOL0     H29655   3.219   1.168  10.893 -0.6436  1.6556 -1.0040
  215MOL0     H29656   3.225   1.594  11.059  0.7836 -0.7384 -2.5299
  215MOL0     H29657   3.317   1.784  11.203  0.4993  1.3479 -0.0027
  215MOL0     H29658   3.567   2.003  11.342  0.3318  1.2277 -1.4746
  215MOL0     H29659   3.404   1.939  11.316  0.2059  0.8457  3.4757
  215MOL0     H29660   3.446   1.724  11.397 -0.8843  0.3810  1.7275
  215MOL0     H29661   3.496   1.849  11.521  0.7331  1.0627  0.3949
  215MOL0     H29662   3.712   1.751  11.339  2.4126 -2.0827  0.1946
  215MOL0     H29663   3.719   1.825  11.498  0.2652  0.3400 -0.7739
  215MOL0     H29664   3.597   1.627  11.604 -4.1955 -3.4753 -2.8332
  215MOL0     H29665   3.769   1.603  11.558 -0.5244 -0.6890  0.2764
  215MOL0     H29666   3.592   1.408  11.240  2.2387  0.0481 -1.2864
  215MOL0     H29667   3.694   1.698  11.042 -0.7098  2.0279  0.9300
  215MOL0     H29668   3.612   1.508  10.799 -1.0252 -1.8934  0.4010
  215MOL0     H29669   3.752   1.518  10.920  0.1203 -0.3875 -0.6308
  215MOL0     H29670   3.641   1.387  10.926 -0.6216  0.4407  2.9450
  216MOL0     O29671   6.553   1.716   2.512 -0.3935 -0.0517 -0.2735
  216MOL0     C29672   6.635   1.655   2.440 -0.4810 -0.2811 -0.1081
  216MOL0     O29673   6.760   1.622   2.471 -0.0453  0.3376 -0.3907
  216MOL0     C29674   6.817   1.669   2.577  0.0490 -0.3168 -0.4351
  216MOL0     C29675   6.818   1.812   2.594 -0.0997 -0.4893 -0.5056
  216MOL0     C29676   6.889   1.872   2.704 -0.3555 -0.4092  1.0766
  216MOL0     C29677   6.948   1.793   2.798 -1.2000 -0.5580 -0.5261
  216MOL0     O29678   7.001   1.857   2.904  0.3623 -0.2279  0.0960
  216MOL0     C29679   7.063   1.794   3.017 -0.0410 -0.4652  0.0094
  216MOL0     C29680   7.220   1.775   2.995  0.2754 -0.7844  0.4807
  216MOL0     C29681   7.297   1.902   2.955  0.6810 -0.4297 -0.7583
  216MOL0     C29682   7.397   1.878   2.841 -0.1902  0.0034 -0.1536
  216MOL0     C29683   7.520   1.803   2.902  0.0477 -0.5918  0.8832
  216MOL0     C29684   7.619   1.798   2.778 -0.1733 -0.3556 -0.3356
  216MOL0     C29685   7.583   1.681   2.689 -0.2267 -0.1724 -0.1675
  216MOL0     C29686   7.692   1.656   2.584  0.8420 -0.8034 -0.5182
  216MOL0     N29687   7.807   1.576   2.632  0.1713 -0.4117 -0.7897
  216MOL0     C29688   7.905   1.634   2.691 -0.2906  0.7173 -0.3292
  216MOL0     C29689   8.006   1.537   2.685  0.1491 -1.8805 -0.4048
  216MOL0     C29690   8.142   1.541   2.758  0.3458 -0.7246 -0.3467
  216MOL0     C29691   8.116   1.507   2.896  0.9139 -0.1754 -0.4650
  216MOL0     C29692   8.224   1.479   2.990  0.9022  0.4399  0.3267
  216MOL0     C29693   8.331   1.376   2.939  0.5147 -0.6168  0.2861
  216MOL0     O29694   8.388   1.346   3.069 -0.2339  0.0875 -0.0146
  216MOL0     C29695   8.519   1.306   3.066 -0.1427  0.3434 -0.0254
  216MOL0     C29696   8.594   1.314   3.184 -0.7515  0.4948 -0.7249
  216MOL0     C29697   8.728   1.282   3.188 -0.2074 -0.0872 -0.5643
  216MOL0     C29698   8.796   1.290   3.326 -0.6360  0.6030  0.7535
  216MOL0     C29699   8.799   1.257   3.072 -0.2086  0.2827  0.0218
  216MOL0     C29700   8.951   1.262   3.061  0.4119 -0.2564 -0.1343
  216MOL0     O29701   9.028   1.315   3.155 -0.1704  0.0184 -0.3009
  216MOL0     C29702   9.166   1.325   3.131  0.4936 -0.7838  0.3276
  216MOL0     C29703   9.246   1.210   3.173  0.9512 -0.5007  0.2707
  216MOL0     C29704   9.385   1.230   3.144  0.2361 -0.4702  0.6346
  216MOL0     C29705   9.439   1.351   3.094 -0.3552 -0.4459  0.4477
  216MOL0     O29706   9.576   1.355   3.070 -0.6790 -0.4405 -0.1340
  216MOL0     C29707   9.641   1.476   3.118  0.7342  0.1469 -0.3804
  216MOL0     C29708   9.795   1.462   3.130 -0.9618  0.6748 -0.3383
  216MOL0     C29709   9.862   1.575   3.209 -0.6425 -0.0717  0.3859
  216MOL0     C29710   9.825   1.568   3.358 -0.3286 -0.2451  1.4691
  216MOL0     C29711   9.916   1.644   3.456  0.1971 -0.4910 -0.1266
  216MOL0     C29712   9.908   1.796   3.438  0.0150 -0.0747 -0.6112
  216MOL0     C29713   9.934   1.862   3.572  0.1122 -0.6334  0.3835
  216MOL0     C29714   9.816   1.847   3.676  0.5239  0.5005 -0.4194
  216MOL0    Cl29715   9.665   1.901   3.592 -0.6406 -0.7266 -0.5334
  216MOL0     C29716   9.346   1.459   3.069 -1.2158 -0.0983  0.5168
  216MOL0     C29717   9.217   1.446   3.091 -0.0193  0.3799 -0.5649
  216MOL0     O29718   8.988   1.205   2.965 -0.2669 -0.0223  0.2530
  216MOL0     C29719   8.722   1.228   2.959 -0.2217  0.6935  0.5891
  216MOL0     C29720   8.589   1.252   2.953  0.1364 -0.9851 -0.2027
  216MOL0     N29721   7.954   1.425   2.631  0.9296  0.0546  0.2966
  216MOL0     N29722   7.837   1.454   2.602 -0.7737  0.5259  1.1427
  216MOL0     C29723   6.943   1.650   2.789 -0.6087 -0.6012 -0.7400
  216MOL0     C29724   6.874   1.591   2.678 -0.4118 -0.1828 -0.3863
  216MOL0     C29725   6.602   1.663   2.293 -0.4013  0.6841  0.4812
  216MOL0     C29726   6.712   1.659   2.201  0.5552 -1.0842 -1.2755
  216MOL0     C29727   6.706   1.687   2.069  0.6902 -0.8697  0.3098
  216MOL0     C29728   6.575   1.694   2.010  0.1725  0.0140  0.4415
  216MOL0     O29729   6.574   1.709   1.873 -0.2973 -0.0045 -0.3795
  216MOL0     C29730   6.437   1.708   1.817 -0.7082 -0.0228  0.2565
  216MOL0     C29731   6.431   1.714   1.663 -0.2080  0.6353  0.1234
  216MOL0     C29732   6.390   1.588   1.588  0.8996 -0.8689 -0.3223
  216MOL0     C29733   6.342   1.610   1.440 -0.1774  0.0677  0.4049
  216MOL0     C29734   6.438   1.686   1.368 -0.0743 -0.0956  0.8124
  216MOL0     C29735   6.529   1.747   1.303 -0.0939 -0.1255 -0.5975
  216MOL0     C29736   6.467   1.686   2.095 -0.1956 -0.6429  0.2635
  216MOL0     C29737   6.471   1.666   2.233 -0.2976  0.7760  0.0342
  216MOL0     C29738   6.350   1.662   2.315 -0.7127  0.3782 -0.3692
  216MOL0     H29739   6.771   1.878   2.522 -0.4541 -0.3708 -0.1727
  216MOL0     H29740   6.886   1.981   2.701 -2.8777 -0.4079  1.3009
  216MOL0     H29741   7.009   1.704   3.047 -1.2096 -0.1848 -1.1518
  216MOL0     H29742   7.064   1.858   3.105 -0.1427  1.1119 -1.0801
  216MOL0     H29743   7.260   1.721   3.081 -0.9281 -1.4825  0.6279
  216MOL0     H29744   7.233   1.702   2.914 -2.7423 -0.2336 -0.6204
  216MOL0     H29745   7.229   1.976   2.912 -0.0204 -0.1346  0.7959
  216MOL0     H29746   7.351   1.944   3.040  0.8250  0.8769 -1.4660
  216MOL0     H29747   7.342   1.822   2.764 -0.0365 -0.7008  0.2446
  216MOL0     H29748   7.438   1.970   2.801  1.4056  0.8686  3.1450
  216MOL0     H29749   7.478   1.709   2.938 -3.6775 -0.1611 -1.8050
  216MOL0     H29750   7.563   1.855   2.988 -0.3605 -1.0158  1.3515
  216MOL0     H29751   7.625   1.895   2.729 -1.5903 -0.2184 -0.2582
  216MOL0     H29752   7.713   1.778   2.830 -1.5714 -0.0018  2.4994
  216MOL0     H29753   7.491   1.707   2.636  0.3871  2.9859  0.1248
  216MOL0     H29754   7.573   1.588   2.746  0.2683 -0.9716 -1.3476
  216MOL0     H29755   7.632   1.600   2.511  1.5833 -0.8533 -1.0995
  216MOL0     H29756   7.724   1.744   2.528 -1.1929 -1.0033 -2.1509
  216MOL0     H29757   7.926   1.738   2.713 -1.3271  1.1165 -1.1918
  216MOL0     H29758   8.178   1.644   2.753  3.7181 -1.7889 -0.6296
  216MOL0     H29759   8.218   1.475   2.716 -0.0255 -1.2432 -0.2280
  216MOL0     H29760   8.054   1.587   2.939  0.0569 -0.1584 -1.6785
  216MOL0     H29761   8.057   1.415   2.894  0.0829  0.1987  2.2886
  216MOL0     H29762   8.274   1.569   3.026  1.5497  0.4692 -0.6006
  216MOL0     H29763   8.168   1.437   3.074 -1.3154  0.1119 -1.1983
  216MOL0     H29764   8.270   1.296   2.897 -2.4926  1.6145  0.1018
  216MOL0     H29765   8.403   1.413   2.866  1.9295 -2.0081  0.9032
  216MOL0     H29766   8.538   1.340   3.273  0.8769 -0.3026  0.5943
  216MOL0     H29767   8.816   1.394   3.353  0.1646  0.6890 -0.0863
  216MOL0     H29768   8.892   1.239   3.336  0.7520  2.8618 -0.3199
  216MOL0     H29769   8.720   1.263   3.400 -1.3895  0.3220 -0.0996
  216MOL0     H29770   9.200   1.124   3.220  0.8436  0.6896  2.4845
  216MOL0     H29771   9.454   1.147   3.157  0.0298 -0.4281  2.1680
  216MOL0     H29772   9.618   1.561   3.053  1.7534 -1.3412 -2.8411
  216MOL0     H29773   9.608   1.504   3.219  2.6453  3.0848 -0.4433
  216MOL0     H29774   9.834   1.376   3.186  1.2569  1.3146 -0.8237
  216MOL0     H29775   9.847   1.457   3.034  0.3243 -2.7211  0.3876
  216MOL0     H29776   9.829   1.663   3.154 -0.5383 -2.0315 -3.1687
  216MOL0     H29777   9.969   1.557   3.198 -1.1452 -2.8375 -0.9506
  216MOL0     H29778   9.836   1.461   3.380  4.7407 -0.7412 -1.8235
  216MOL0     H29779   9.722   1.603   3.361  0.1740  1.2270  3.1271
  216MOL0     H29780   9.881   1.605   3.553  0.4096 -0.6719 -0.1218
  216MOL0     H29781  10.020   1.613   3.441 -0.1039 -1.3682 -0.4555
  216MOL0     H29782   9.810   1.817   3.394 -0.4913 -0.8328  0.1310
  216MOL0     H29783   9.984   1.840   3.373  0.1039  2.9164  1.3653
  216MOL0     H29784   9.933   1.966   3.539 -4.5070 -0.2096  1.1796
  216MOL0     H29785  10.030   1.828   3.613  0.5764 -3.8332 -2.8318
  216MOL0     H29786   9.843   1.910   3.762  1.2121  1.1589 -1.0915
  216MOL0     H29787   9.804   1.743   3.706 -0.3347  0.7085 -0.0167
  216MOL0     H29788   9.393   1.552   3.037 -0.7155  0.1168  1.7883
  216MOL0     H29789   9.155   1.531   3.064  0.2488  2.0921  3.5105
  216MOL0     H29790   8.777   1.185   2.876 -1.5087 -0.6796  0.4160
  216MOL0     H29791   8.531   1.233   2.863 -0.4724  1.6800 -0.4705
  216MOL0     H29792   6.999   1.583   2.853  1.2345  0.6459 -0.9602
  216MOL0     H29793   6.887   1.484   2.682  1.2741  0.0018  0.3461
  216MOL0     H29794   6.811   1.633   2.236  0.2160  0.1946  0.8453
  216MOL0     H29795   6.796   1.699   2.010  0.3659  1.3865  0.1911
  216MOL0     H29796   6.382   1.617   1.845 -1.8270 -0.0788 -1.9190
  216MOL0     H29797   6.381   1.796   1.849 -0.3037  0.3809 -0.1244
  216MOL0     H29798   6.529   1.748   1.627  0.1183 -0.7908 -0.3901
  216MOL0     H29799   6.360   1.789   1.627 -0.4603 -0.2348 -1.2779
  216MOL0     H29800   6.475   1.519   1.592  0.2541 -1.7265  4.2461
  216MOL0     H29801   6.312   1.537   1.646 -2.1137  1.2327 -2.2073
  216MOL0     H29802   6.250   1.670   1.432  1.4385  2.8932  1.5809
  216MOL0     H29803   6.320   1.512   1.398  0.0777 -1.3425  3.2665
  216MOL0     H29804   6.616   1.787   1.256  0.7777 -1.0432  0.1799
  216MOL0     H29805   6.368   1.706   2.054 -0.0500  2.9742  1.3714
  216MOL0     H29806   6.352   1.581   2.389  0.8398  1.2146  0.5595
  216MOL0     H29807   6.343   1.757   2.369  1.3755 -1.4248  3.5048
  216MOL0     H29808   6.257   1.642   2.261  0.6372  1.5404 -3.2883
  217MOL0     O29809   0.850   0.990   1.992  0.2119  0.0828 -0.6242
  217MOL0     C29810   0.780   0.932   1.908  0.1811  0.4838  0.4902
  217MOL0     O29811   0.832   0.845   1.815  0.8240  0.1693  0.5378
  217MOL0     C29812   0.971   0.851   1.799 -0.1336  0.0329  0.2329
  217MOL0     C29813   1.043   0.807   1.917  0.1682  0.5165  0.6893
  217MOL0     C29814   1.179   0.773   1.908 -0.5584 -0.4712 -0.2345
  217MOL0     C29815   1.246   0.790   1.788  0.3399 -0.6487 -0.3178
  217MOL0     O29816   1.377   0.743   1.766  0.5847 -0.5204 -0.0018
  217MOL0     C29817   1.409   0.619   1.826 -0.3465 -0.1903  0.6897
  217MOL0     C29818   1.534   0.559   1.765 -0.6646  1.0064  0.1096
  217MOL0     C29819   1.537   0.524   1.619 -0.9513  0.0102 -0.4869
  217MOL0     C29820   1.420   0.446   1.567 -0.2777 -1.0902 -0.0798
  217MOL0     C29821   1.457   0.381   1.433 -0.3418 -0.1121 -0.7026
  217MOL0     C29822   1.340   0.335   1.345 -0.3193 -0.4512 -0.3240
  217MOL0     C29823   1.405   0.263   1.226  0.1350 -0.9001  0.7632
  217MOL0     C29824   1.469   0.350   1.109  0.7666 -0.4755  0.5198
  217MOL0     N29825   1.492   0.259   0.994 -0.1172  0.8824 -0.1749
  217MOL0     C29826   1.613   0.216   0.962  0.3474 -0.5112  1.0147
  217MOL0     C29827   1.593   0.144   0.843 -0.5942 -0.4080  1.0288
  217MOL0     C29828   1.709   0.078   0.764 -0.1794 -0.6371  0.4996
  217MOL0     C29829   1.724  -0.072   0.794 -0.1328 -0.0862  0.3241
  217MOL0     C29830   1.831  -0.139   0.708  0.6030 -0.2460  0.0486
  217MOL0     C29831   1.815  -0.121   0.556 -0.0560 -0.6004  0.0607
  217MOL0     O29832   1.925  -0.180   0.474  0.0051 -0.3181 -0.3389
  217MOL0     C29833   1.965  -0.311   0.488 -0.2645 -1.0480  0.7064
  217MOL0     C29834   2.086  -0.351   0.432  0.4819  0.7675 -0.7672
  217MOL0     C29835   2.145  -0.476   0.449 -0.4698  1.0199  0.2580
  217MOL0     C29836   2.267  -0.509   0.369 -0.5299 -1.1064  0.6991
  217MOL0     C29837   2.085  -0.565   0.540 -0.4727 -0.2782  0.2451
  217MOL0     C29838   2.136  -0.695   0.586 -0.0409  0.1777 -0.2454
  217MOL0     O29839   2.254  -0.736   0.528  0.8056 -0.4449  0.0536
  217MOL0     C29840   2.317  -0.849   0.577  0.1055  0.2844 -0.3840
  217MOL0     C29841   2.335  -0.962   0.485 -0.2212  1.0818 -0.3227
  217MOL0     C29842   2.396  -1.082   0.527  0.2902 -0.9062  0.9916
  217MOL0     C29843   2.444  -1.095   0.661 -0.0261 -0.6374  0.1673
  217MOL0     O29844   2.486  -1.225   0.692  0.2001 -0.1761  0.8518
  217MOL0     C29845   2.541  -1.235   0.819  0.6113  0.5883 -0.2892
  217MOL0     C29846   2.554  -1.374   0.856 -0.6236  0.4060 -0.1034
  217MOL0     C29847   2.418  -1.439   0.876  0.2741 -0.2498 -0.0250
  217MOL0     C29848   2.430  -1.587   0.880 -0.3658  0.1194  1.0740
  217MOL0     C29849   2.297  -1.658   0.919 -0.6327  0.1656 -0.1389
  217MOL0     C29850   2.241  -1.627   1.055 -0.9510 -0.4620  0.6078
  217MOL0     C29851   2.107  -1.700   1.094  1.6832 -0.2294 -1.5080
  217MOL0     C29852   2.042  -1.641   1.228  0.5460  0.3297  1.2833
  217MOL0    Cl29853   1.881  -1.731   1.253  0.0876 -0.3180  0.3081
  217MOL0     C29854   2.440  -0.975   0.744  0.5336 -0.7895  0.6346
  217MOL0     C29855   2.373  -0.857   0.702 -0.0245 -0.7167 -0.7970
  217MOL0     O29856   2.065  -0.754   0.666  0.6002  0.4958  0.5131
  217MOL0     C29857   1.954  -0.528   0.586 -0.0495 -0.5050  0.3987
  217MOL0     C29858   1.894  -0.413   0.549  0.5637 -0.6750  0.2856
  217MOL0     N29859   1.454   0.145   0.817 -0.8763 -0.2366  0.3399
  217MOL0     N29860   1.398   0.220   0.909  0.2566  0.6704  0.7199
  217MOL0     C29861   1.175   0.841   1.677  0.1447  0.1373  0.1377
  217MOL0     C29862   1.036   0.866   1.686  0.6232 -0.5120  0.9036
  217MOL0     C29863   0.636   0.952   1.918  0.7694  0.0376  0.5023
  217MOL0     C29864   0.563   0.844   1.874  0.5458 -0.2789 -0.0562
  217MOL0     C29865   0.425   0.839   1.887  0.7265  0.3798  0.1317
  217MOL0     C29866   0.362   0.948   1.951 -0.8251 -0.2072  0.1505
  217MOL0     O29867   0.222   0.964   1.965 -0.0303  0.3555  0.2953
  217MOL0     C29868   0.126   0.904   1.870  0.4321  0.7624  0.0915
  217MOL0     C29869   0.065   1.019   1.779  0.0487  0.5258 -0.8250
  217MOL0     C29870   0.166   1.033   1.663 -0.1067 -0.0081  0.3156
  217MOL0     C29871   0.114   1.141   1.561 -0.2454  0.9347 -0.0557
  217MOL0     C29872   0.228   1.176   1.469  0.0833  0.1039  0.6873
  217MOL0     C29873   0.326   1.206   1.406  0.1227 -0.0497 -0.0055
  217MOL0     C29874   0.439   1.047   2.010  1.1675  0.1903 -0.5182
  217MOL0     C29875   0.570   1.055   1.991  0.0705 -0.5314 -0.3513
  217MOL0     C29876   0.640   1.172   2.053 -0.0333  0.7067  0.4905
  217MOL0     H29877   0.996   0.794   2.014 -1.1169 -0.4519 -0.0443
  217MOL0     H29878   1.242   0.734   1.987  2.1116 -0.8328 -2.3783
  217MOL0     H29879   1.324   0.551   1.816  0.7688 -1.3438 -1.5652
  217MOL0     H29880   1.431   0.642   1.931  0.0685  2.7098  0.0527
  217MOL0     H29881   1.608   0.635   1.793  0.4904 -0.3710  0.8848
  217MOL0     H29882   1.568   0.467   1.813  2.2101  0.7248 -2.2380
  217MOL0     H29883   1.552   0.620   1.569 -0.2278  0.4170  0.4729
  217MOL0     H29884   1.633   0.476   1.597 -0.3301  1.6275 -1.4720
  217MOL0     H29885   1.380   0.376   1.642 -1.3962 -0.5116 -0.1128
  217MOL0     H29886   1.333   0.509   1.545 -2.1209 -3.4766 -0.0597
  217MOL0     H29887   1.512   0.290   1.458 -1.6058 -0.4105  1.2298
  217MOL0     H29888   1.520   0.449   1.375  2.8412 -1.8491  0.4792
  217MOL0     H29889   1.275   0.271   1.404  0.0670 -0.9214 -0.4058
  217MOL0     H29890   1.282   0.418   1.304  0.3940 -0.4758 -1.4183
  217MOL0     H29891   1.328   0.196   1.186  0.3994 -0.9647  0.3438
  217MOL0     H29892   1.479   0.192   1.265 -0.0194  0.5675  3.9878
  217MOL0     H29893   1.392   0.424   1.086 -1.6031 -1.8540  3.3541
  217MOL0     H29894   1.557   0.403   1.147  1.0352  0.7463 -1.6752
  217MOL0     H29895   1.711   0.231   1.006  0.8918 -0.2724 -0.2339
  217MOL0     H29896   1.804   0.131   0.773 -1.5788  2.3801 -0.8060
  217MOL0     H29897   1.679   0.094   0.660  1.0982  1.3904  0.3862
  217MOL0     H29898   1.752  -0.070   0.900 -4.0579  1.4940  1.5020
  217MOL0     H29899   1.622  -0.112   0.789 -0.6721  1.4297 -2.4259
  217MOL0     H29900   1.927  -0.101   0.744 -0.1141  1.2317  0.4486
  217MOL0     H29901   1.818  -0.245   0.733 -0.3014 -0.5843 -1.6733
  217MOL0     H29902   1.723  -0.160   0.512 -0.1069 -1.2609  0.7243
  217MOL0     H29903   1.806  -0.014   0.533  0.5909 -0.3045  1.1172
  217MOL0     H29904   2.131  -0.277   0.366 -0.6563 -0.6109 -3.2339
  217MOL0     H29905   2.359  -0.504   0.428  1.2722  2.3169 -2.0293
  217MOL0     H29906   2.284  -0.447   0.281 -0.8497  0.1979  1.5132
  217MOL0     H29907   2.258  -0.607   0.321 -0.2820  0.2524 -2.3194
  217MOL0     H29908   2.303  -0.940   0.384 -0.6027  3.4631  0.2398
  217MOL0     H29909   2.413  -1.167   0.461  0.0787 -0.4514  0.3399
  217MOL0     H29910   2.644  -1.199   0.810  1.2118 -1.2595 -1.2316
  217MOL0     H29911   2.476  -1.177   0.885  0.5000  3.4592 -2.7019
  217MOL0     H29912   2.593  -1.429   0.769 -2.3170  0.6858 -1.0749
  217MOL0     H29913   2.619  -1.387   0.943 -3.1029 -2.3434  1.5561
  217MOL0     H29914   2.350  -1.411   0.796  0.1184 -0.5039  0.0189
  217MOL0     H29915   2.370  -1.391   0.962 -0.8797  0.6457 -1.1470
  217MOL0     H29916   2.501  -1.612   0.960 -0.6405  1.8155  1.9001
  217MOL0     H29917   2.461  -1.627   0.783 -3.9428 -1.9791  0.6481
  217MOL0     H29918   2.218  -1.641   0.846 -1.5474  0.3382  0.8771
  217MOL0     H29919   2.312  -1.764   0.895 -3.4146  0.0684 -1.8493
  217MOL0     H29920   2.215  -1.521   1.063 -0.7538 -0.3330 -0.3798
  217MOL0     H29921   2.319  -1.635   1.132 -1.6581  0.9859  1.5148
  217MOL0     H29922   2.125  -1.807   1.097 -1.9113 -0.9400  1.7281
  217MOL0     H29923   2.036  -1.681   1.013 -2.3693  1.5001  2.0580
  217MOL0     H29924   2.026  -1.533   1.220  0.8201  0.4315  2.0295
  217MOL0     H29925   2.112  -1.651   1.311  2.2380  0.3645 -0.0762
  217MOL0     H29926   2.482  -0.967   0.844  1.2053 -1.0427  0.3818
  217MOL0     H29927   2.375  -0.765   0.759  3.1372 -0.7482 -0.6798
  217MOL0     H29928   1.900  -0.589   0.657  2.6001 -2.1838  1.0995
  217MOL0     H29929   1.793  -0.388   0.579  0.1585 -0.1933 -1.3769
  217MOL0     H29930   1.220   0.864   1.581 -2.4868  0.2932 -1.1611
  217MOL0     H29931   0.976   0.912   1.609 -1.2408  0.3119  2.7413
  217MOL0     H29932   0.610   0.752   1.841  1.2442  1.1380 -3.2856
  217MOL0     H29933   0.363   0.758   1.849 -2.3502  2.8758 -0.6555
  217MOL0     H29934   0.167   0.825   1.805 -3.4634 -2.3423  1.0525
  217MOL0     H29935   0.048   0.853   1.926  1.1332 -1.9547 -1.2421
  217MOL0     H29936   0.066   1.113   1.834 -0.2396 -0.8886  1.7705
  217MOL0     H29937  -0.038   1.003   1.744 -0.3583  1.8105 -0.2674
  217MOL0     H29938   0.271   1.051   1.691 -0.1174  0.7759 -0.1352
  217MOL0     H29939   0.158   0.941   1.605 -4.3950 -1.0553  2.2097
  217MOL0     H29940   0.087   1.232   1.615  2.2288  0.8717  1.4896
  217MOL0     H29941   0.031   1.109   1.498  0.8370 -1.4414 -0.3965
  217MOL0     H29942   0.407   1.244   1.348  0.5440  2.6287  2.1165
  217MOL0     H29943   0.405   1.126   2.075  1.5252  0.4201 -0.6049
  217MOL0     H29944   0.676   1.144   2.152 -3.7954  1.0501  2.1238
  217MOL0     H29945   0.725   1.197   1.989  0.7459 -1.3641  0.6494
  217MOL0     H29946   0.580   1.263   2.068  0.6743  1.1176  0.8964
  218MOL0     O29947   6.742  10.018   1.997  0.0715 -0.2173 -0.1506
  218MOL0     C29948   6.739  10.049   2.110 -0.0398  0.2403 -0.0878
  218MOL0     O29949   6.702  10.175   2.159 -0.2456  0.5083 -0.5075
  218MOL0     C29950   6.761  10.282   2.100  0.5028  0.2865  0.3607
  218MOL0     C29951   6.697  10.406   2.108  0.5706 -0.1497 -0.1193
  218MOL0     C29952   6.750  10.517   2.037  0.3675 -0.3201  0.1849
  218MOL0     C29953   6.864  10.500   1.966 -1.5149 -0.2029 -0.3371
  218MOL0     O29954   6.907  10.619   1.905  0.4404 -0.0802 -0.7757
  218MOL0     C29955   6.948  10.623   1.770  0.8548 -0.6949  0.8122
  218MOL0     C29956   7.014  10.760   1.751  0.1103  0.6272  0.2140
  218MOL0     C29957   7.067  10.783   1.609 -0.8411 -0.3680 -0.3133
  218MOL0     C29958   7.098  10.931   1.578 -0.0494 -0.1821  0.6090
  218MOL0     C29959   7.148  10.960   1.437  0.9795 -0.7529  0.8014
  218MOL0     C29960   7.257  10.858   1.386 -0.1388  0.1488 -0.2358
  218MOL0     C29961   7.385  10.882   1.475  0.2325  0.2562  0.1027
  218MOL0     C29962   7.490  10.782   1.436 -0.3849 -0.6968 -0.7638
  218MOL0     N29963   7.541  10.791   1.301 -0.3664 -0.0985 -0.1331
  218MOL0     C29964   7.638  10.865   1.256 -0.5315  0.1546  0.5137
  218MOL0     C29965   7.645  10.852   1.122  0.2079 -0.4047  0.3223
  218MOL0     C29966   7.732  10.930   1.029  0.6137 -0.0505 -0.2303
  218MOL0     C29967   7.699  11.072   1.039 -0.5669 -0.2745 -0.2964
  218MOL0     C29968   7.800  11.161   0.972  0.4530 -0.1997  0.7158
  218MOL0     C29969   7.728  11.292   0.938  0.8359  0.4825 -0.7566
  218MOL0     O29970   7.619  11.286   0.836  0.0829  0.1566 -0.2124
  218MOL0     C29971   7.550  11.394   0.805 -0.1708 -0.6212 -0.5816
  218MOL0     C29972   7.599  11.532   0.810  0.2143  0.5758 -0.7849
  218MOL0     C29973   7.516  11.643   0.784 -0.5667 -0.2260  0.3563
  218MOL0     C29974   7.575  11.788   0.779 -0.0026  0.2720  0.4344
  218MOL0     C29975   7.385  11.624   0.756  1.0573  0.2144 -0.2484
  218MOL0     C29976   7.290  11.734   0.718 -0.4261  0.6572 -0.8845
  218MOL0     O29977   7.306  11.779   0.593 -0.3233 -0.3446 -0.6413
  218MOL0     C29978   7.203  11.836   0.531 -0.2340  0.3634  0.6683
  218MOL0     C29979   7.165  11.791   0.404 -0.0618 -0.2782  1.1072
  218MOL0     C29980   7.057  11.849   0.346  0.5059 -0.6173  0.4439
  218MOL0     C29981   6.992  11.966   0.399 -0.2715  0.0056 -0.2280
  218MOL0     O29982   6.877  12.009   0.349  0.3357  0.8670 -0.1334
  218MOL0     C29983   6.881  12.088   0.238  0.2755  0.3845  0.1569
  218MOL0     C29984   6.763  12.180   0.243  1.0175  0.5467  0.1763
  218MOL0     C29985   6.774  12.283   0.357  0.0500  0.6426 -0.4014
  218MOL0     C29986   6.666  12.386   0.348  0.2453  0.4173  0.0487
  218MOL0     C29987   6.649  12.474   0.477  0.1629 -0.2483 -0.0088
  218MOL0     C29988   6.776  12.557   0.515  0.3478  0.7229  0.1189
  218MOL0     C29989   6.781  12.601   0.660  0.0229  0.1908  1.0280
  218MOL0     C29990   6.910  12.687   0.677  0.3590 -0.1912  0.0127
  218MOL0    Cl29991   6.911  12.847   0.585  0.1120  0.0955  0.1882
  218MOL0     C29992   7.025  12.006   0.526 -0.2231 -0.9577  0.1059
  218MOL0     C29993   7.133  11.945   0.589  0.3096 -0.3139 -0.5607
  218MOL0     O29994   7.206  11.764   0.797 -0.0740 -0.5038 -0.5347
  218MOL0     C29995   7.340  11.486   0.752  0.5813 -0.1477  0.1967
  218MOL0     C29996   7.418  11.376   0.773  0.2136 -0.5030  0.8459
  218MOL0     N29997   7.560  10.752   1.083  0.1140  0.7099 -0.1001
  218MOL0     N29998   7.496  10.704   1.196 -0.0514 -0.2872  0.0572
  218MOL0     C29999   6.943  10.390   1.971  0.9569  0.5291 -0.7650
  218MOL0     C30000   6.882  10.279   2.035  0.0180  0.3266 -0.6762
  218MOL0     C30001   6.759   9.933   2.214  0.2788 -0.1543  0.6633
  218MOL0     C30002   6.806   9.984   2.332  0.7038 -0.4166 -0.3248
  218MOL0     C30003   6.808   9.906   2.441  0.6206  0.4724 -1.5527
  218MOL0     C30004   6.776   9.765   2.438 -0.0242 -0.1667 -1.0739
  218MOL0     O30005   6.781   9.676   2.543  0.6285 -0.0292 -0.0138
  218MOL0     C30006   6.799   9.734   2.676 -0.8521 -0.6788  0.8308
  218MOL0     C30007   6.947   9.755   2.715 -1.3459 -0.3721  0.0679
  218MOL0     C30008   6.963   9.825   2.853  0.5723 -0.2275  0.2449
  218MOL0     C30009   7.110   9.867   2.877  0.6178 -0.5533 -0.0907
  218MOL0     C30010   7.151   9.987   2.794 -0.5603  0.2477  0.5166
  218MOL0     C30011   7.169  10.071   2.708  0.4474  0.0223 -1.4127
  218MOL0     C30012   6.745   9.709   2.317  0.1697  0.0255  0.0161
  218MOL0     C30013   6.737   9.792   2.199 -0.2692  0.0522 -0.2499
  218MOL0     C30014   6.700   9.730   2.072 -0.4487 -0.0105 -0.5806
  218MOL0     H30015   6.609  10.398   2.172  3.5282 -0.8552  4.2992
  218MOL0     H30016   6.704  10.614   2.054 -0.4539 -1.2047  3.8918
  218MOL0     H30017   6.866  10.634   1.698  1.3454  0.8552  0.4410
  218MOL0     H30018   7.003  10.530   1.753 -0.7397 -1.1810 -2.3545
  218MOL0     H30019   6.940  10.834   1.782 -0.1528 -0.1679  1.5368
  218MOL0     H30020   7.096  10.763   1.823  2.3990  0.0664 -2.1938
  218MOL0     H30021   7.150  10.715   1.590 -1.3101 -1.7349  2.0585
  218MOL0     H30022   6.982  10.745   1.551 -2.2584  1.3015  0.5734
  218MOL0     H30023   7.001  10.978   1.594 -0.2693 -0.7712  1.0725
  218MOL0     H30024   7.158  10.983   1.653 -1.9122  5.2064 -1.2123
  218MOL0     H30025   7.196  11.059   1.440  0.7451 -0.5733 -0.6312
  218MOL0     H30026   7.066  10.962   1.365  0.7778  2.4456  0.9740
  218MOL0     H30027   7.227  10.754   1.400 -1.2068  0.0570 -2.7165
  218MOL0     H30028   7.285  10.883   1.283 -0.4452  0.9989 -0.1203
  218MOL0     H30029   7.379  10.867   1.584  0.7950 -2.1736 -0.1277
  218MOL0     H30030   7.422  10.981   1.449  0.1956 -0.3116 -2.2890
  218MOL0     H30031   7.569  10.800   1.509  0.5131 -1.1974 -1.5781
  218MOL0     H30032   7.454  10.682   1.461 -1.0422 -0.0956  0.8054
  218MOL0     H30033   7.678  10.945   1.317 -1.1965  1.2054 -0.3688
  218MOL0     H30034   7.715  10.883   0.932 -0.4497  1.4182 -0.8067
  218MOL0     H30035   7.837  10.910   1.049  0.4639 -0.8001 -0.1677
  218MOL0     H30036   7.600  11.072   0.992 -0.5581  0.3800 -0.3191
  218MOL0     H30037   7.689  11.111   1.140 -1.2242 -0.4107 -0.3078
  218MOL0     H30038   7.886  11.163   1.040  0.4708 -1.6508  0.7703
  218MOL0     H30039   7.850  11.118   0.884 -0.2283 -1.9234  1.1283
  218MOL0     H30040   7.679  11.317   1.033 -0.5627 -2.0714 -0.7258
  218MOL0     H30041   7.800  11.372   0.919  0.5556  0.9456  0.0409
  218MOL0     H30042   7.704  11.534   0.834 -0.5878  1.5024  3.4706
  218MOL0     H30043   7.506  11.856   0.726  1.1167 -0.5037 -2.1706
  218MOL0     H30044   7.677  11.798   0.740  0.2665  3.8465  1.6361
  218MOL0     H30045   7.572  11.835   0.878 -0.4272  2.8866 -0.7167
  218MOL0     H30046   7.221  11.711   0.356 -1.7747  0.0564 -1.6530
  218MOL0     H30047   7.033  11.799   0.253  0.2529 -1.8513  1.1632
  218MOL0     H30048   6.970  12.151   0.240 -0.5543  1.6711 -1.3713
  218MOL0     H30049   6.887  12.020   0.153 -0.9892 -0.3892  0.6468
  218MOL0     H30050   6.748  12.228   0.146  3.7066  1.9179  0.3516
  218MOL0     H30051   6.673  12.124   0.272  0.3282 -0.9654 -4.1401
  218MOL0     H30052   6.877  12.319   0.361  0.7492 -1.3302  2.0845
  218MOL0     H30053   6.751  12.215   0.440  1.3723 -1.9332 -2.0372
  218MOL0     H30054   6.563  12.353   0.328  0.4823  0.4669 -1.2884
  218MOL0     H30055   6.698  12.452   0.268  0.0760 -1.1698 -1.3810
  218MOL0     H30056   6.564  12.541   0.464  0.3294 -0.1525 -0.6315
  218MOL0     H30057   6.616  12.408   0.558  0.4606 -0.1047  0.2320
  218MOL0     H30058   6.784  12.645   0.452  0.6589 -1.0709 -2.5051
  218MOL0     H30059   6.864  12.497   0.491  0.0110 -0.3677  1.4331
  218MOL0     H30060   6.784  12.517   0.729  0.1028  0.0658  0.8736
  218MOL0     H30061   6.695  12.665   0.678 -2.7993 -3.0239 -0.0341
  218MOL0     H30062   6.994  12.623   0.648 -0.7727 -1.7178 -0.0053
  218MOL0     H30063   6.922  12.711   0.783 -0.4173  1.3285 -0.2058
  218MOL0     H30064   6.983  12.095   0.572 -0.6469 -1.4261  0.6322
  218MOL0     H30065   7.173  11.992   0.678  2.0749  2.6809 -2.7684
  218MOL0     H30066   7.233  11.475   0.739  0.3826  2.4752 -0.9813
  218MOL0     H30067   7.365  11.281   0.768 -2.2855  0.8368 -1.1310
  218MOL0     H30068   7.040  10.369   1.927  1.2963 -2.3692  1.0831
  218MOL0     H30069   6.941  10.188   2.038  0.6472  0.7110 -1.0309
  218MOL0     H30070   6.818  10.091   2.350 -0.8829 -0.4975  1.4806
  218MOL0     H30071   6.832   9.951   2.537 -0.9393  0.4197 -1.1086
  218MOL0     H30072   6.737   9.822   2.694 -2.8229 -1.5449 -1.2055
  218MOL0     H30073   6.747   9.663   2.741 -4.8815  2.1071  0.9781
  218MOL0     H30074   6.992   9.812   2.633 -1.4072  1.0622  0.9986
  218MOL0     H30075   6.987   9.653   2.720 -2.2619 -0.6872  1.7927
  218MOL0     H30076   6.887   9.903   2.850 -0.9921 -1.6754  0.7630
  218MOL0     H30077   6.941   9.759   2.937 -3.5603 -1.5835 -1.6191
  218MOL0     H30078   7.173   9.783   2.845  1.6225  0.0423  0.2734
  218MOL0     H30079   7.127   9.876   2.984 -1.1553 -2.4549  0.4064
  218MOL0     H30080   7.189  10.133   2.624 -0.0650  2.6497  0.2955
  218MOL0     H30081   6.728   9.602   2.311  1.6269 -0.2150 -0.0671
  218MOL0     H30082   6.753   9.769   1.984 -4.2862  0.6643 -2.8212
  218MOL0     H30083   6.719   9.623   2.083  3.3858  0.5442 -0.5059
  218MOL0     H30084   6.595   9.760   2.062 -0.1817  2.3582  2.3294
  219MOL0     O30085  10.715   0.086   1.294 -0.3078 -0.4822 -0.1312
  219MOL0     C30086  10.752   0.120   1.181  0.0826 -1.1144  0.0877
  219MOL0     O30087  10.682   0.100   1.067 -0.0637  0.5854 -0.1401
  219MOL0     C30088  10.550   0.072   1.091 -0.1053 -0.8846 -0.5239
  219MOL0     C30089  10.471   0.162   1.168  0.2124  0.4650 -0.8239
  219MOL0     C30090  10.332   0.147   1.172  0.0192  0.8257 -0.7541
  219MOL0     C30091  10.265   0.039   1.108 -1.0724 -0.6616  0.0618
  219MOL0     O30092  10.131   0.020   1.124  0.1902  0.4209 -0.3488
  219MOL0     C30093  10.073  -0.005   0.997  0.8989 -0.5424  0.9680
  219MOL0     C30094   9.975   0.092   0.942  0.1035 -1.4725  0.3288
  219MOL0     C30095   9.888   0.047   0.826 -0.2913  0.5632  0.3798
  219MOL0     C30096   9.962  -0.039   0.718 -0.1568 -0.2764 -0.9492
  219MOL0     C30097   9.913  -0.028   0.577  0.4318 -0.2315  0.0700
  219MOL0     C30098   9.777  -0.093   0.569 -0.4157  0.1213 -0.9155
  219MOL0     C30099   9.726  -0.102   0.420  0.0263 -0.0965 -0.6341
  219MOL0     C30100   9.592  -0.179   0.426  0.0654  0.6842  0.2068
  219MOL0     N30101   9.474  -0.092   0.447  0.2604  0.3129 -0.0532
  219MOL0     C30102   9.468   0.048   0.453  0.1239  0.2061 -0.2695
  219MOL0     C30103   9.355   0.082   0.508 -0.2147  0.2398  0.9790
  219MOL0     C30104   9.311   0.233   0.515 -0.2847  0.1821 -0.5298
  219MOL0     C30105   9.379   0.289   0.646  0.6786  0.8139 -0.0167
  219MOL0     C30106   9.323   0.235   0.770  0.9684 -0.3167 -0.7572
  219MOL0     C30107   9.438   0.221   0.868  0.1593 -0.5023  1.1518
  219MOL0     O30108   9.372   0.167   0.983 -0.0146 -0.1553  0.0838
  219MOL0     C30109   9.448   0.173   1.098 -0.4631 -0.9120 -1.1079
  219MOL0     C30110   9.576   0.223   1.111  0.2304  0.2001  0.6375
  219MOL0     C30111   9.645   0.212   1.234 -0.4226  0.8639 -0.1174
  219MOL0     C30112   9.778   0.281   1.228 -0.0388 -0.7915  0.0244
  219MOL0     C30113   9.585   0.160   1.351  0.0074 -0.6530  0.2299
  219MOL0     C30114   9.648   0.151   1.491  0.2053 -0.9488 -0.0463
  219MOL0     O30115   9.785   0.162   1.477  0.2459 -0.3619  0.0852
  219MOL0     C30116   9.867   0.176   1.592 -0.0159  1.1903  0.2334
  219MOL0     C30117   9.970   0.087   1.603 -0.1521  0.5781  0.1315
  219MOL0     C30118  10.060   0.093   1.708 -1.0832 -0.2437 -0.0320
  219MOL0     C30119  10.044   0.205   1.805 -0.5374  0.2348 -0.1812
  219MOL0     O30120  10.126   0.229   1.918  0.2647 -0.0721  0.3731
  219MOL0     C30121  10.257   0.162   1.898 -0.6658 -0.3181 -0.3372
  219MOL0     C30122  10.362   0.239   1.988  0.2756  0.2620  1.0501
  219MOL0     C30123  10.502   0.189   1.988  0.3599 -0.0212 -0.3537
  219MOL0     C30124  10.605   0.287   2.056  0.8496  0.4873 -0.0650
  219MOL0     C30125  10.720   0.208   2.111 -0.2897  0.8725  0.0178
  219MOL0     C30126  10.838   0.305   2.153 -0.0560  0.0935  0.1621
  219MOL0     C30127  10.966   0.220   2.188 -0.2456 -0.7393  1.0756
  219MOL0     C30128  11.074   0.314   2.230 -0.2690  0.6925  0.1333
  219MOL0    Cl30129  11.114   0.441   2.114 -0.2621  0.0320 -0.3471
  219MOL0     C30130   9.935   0.288   1.788  0.2696  0.5235  0.2523
  219MOL0     C30131   9.850   0.277   1.686 -0.4002  0.4171 -0.2675
  219MOL0     O30132   9.587   0.154   1.599  0.2272  0.4968  0.4918
  219MOL0     C30133   9.443   0.117   1.338 -0.3223 -0.3089 -0.3109
  219MOL0     C30134   9.380   0.126   1.211 -0.2379 -0.5840 -0.9396
  219MOL0     N30135   9.284  -0.036   0.545  0.3616 -0.3493  0.4744
  219MOL0     N30136   9.358  -0.138   0.503 -0.3037  0.2850 -0.4667
  219MOL0     C30137  10.356  -0.058   1.046 -0.2179 -0.7600  0.8405
  219MOL0     C30138  10.494  -0.041   1.035  0.8779  0.7428 -0.4348
  219MOL0     C30139  10.884   0.193   1.169 -0.1921  0.2643  0.7579
  219MOL0     C30140  10.973   0.215   1.270 -0.5131 -0.0463  0.4043
  219MOL0     C30141  11.089   0.290   1.267 -0.0032 -0.6999 -0.8053
  219MOL0     C30142  11.134   0.336   1.140  0.2670  0.6530  0.3909
  219MOL0     O30143  11.263   0.381   1.115  0.1395  0.1538 -0.8433
  219MOL0     C30144  11.299   0.427   0.985  0.5822 -0.2062  0.6299
  219MOL0     C30145  11.435   0.491   0.992  0.7403  0.1209 -0.5750
  219MOL0     C30146  11.547   0.390   1.019 -0.5918  0.0885  0.8871
  219MOL0     C30147  11.603   0.322   0.893 -0.0330  0.5258 -0.3683
  219MOL0     C30148  11.691   0.210   0.925  0.6896 -0.2980 -0.2379
  219MOL0     C30149  11.749   0.108   0.955  0.0522  0.0567  0.6393
  219MOL0     C30150  11.046   0.325   1.039  0.2763  0.0986  0.2800
  219MOL0     C30151  10.926   0.258   1.043 -0.3093  0.6340  0.1162
  219MOL0     C30152  10.850   0.263   0.918  0.9423  0.8213  0.0092
  219MOL0     H30153  10.524   0.241   1.221  0.5874 -1.1658  1.3891
  219MOL0     H30154  10.275   0.213   1.236  2.0830  1.0039  1.0156
  219MOL0     H30155  10.023  -0.102   1.004 -0.4998  0.0159 -0.4900
  219MOL0     H30156  10.150  -0.023   0.922 -0.9114 -2.8229 -0.4937
  219MOL0     H30157   9.899   0.127   1.013  0.1572 -2.3935  0.8508
  219MOL0     H30158  10.034   0.175   0.902 -1.2444  0.5901  2.3540
  219MOL0     H30159   9.808  -0.013   0.871 -1.7196  2.0666 -0.0711
  219MOL0     H30160   9.841   0.131   0.775 -0.0506  1.1222  1.0647
  219MOL0     H30161  10.061   0.006   0.713 -0.3038  0.0796 -0.7007
  219MOL0     H30162   9.972  -0.133   0.773  0.4110  0.6970  0.6731
  219MOL0     H30163   9.979  -0.079   0.506 -0.7305 -2.2324  0.3559
  219MOL0     H30164   9.903   0.075   0.541  0.8074 -0.7523 -1.5881
  219MOL0     H30165   9.788  -0.193   0.612 -0.3759  0.6309  0.2935
  219MOL0     H30166   9.708  -0.036   0.631 -0.9445  0.0641 -1.4397
  219MOL0     H30167   9.799  -0.142   0.349 -0.6712  0.6804 -1.7964
  219MOL0     H30168   9.709  -0.006   0.372  2.3773  0.2671 -0.8675
  219MOL0     H30169   9.577  -0.227   0.329  1.6507  1.8283 -0.6500
  219MOL0     H30170   9.593  -0.265   0.493  1.6359 -1.3676 -2.2546
  219MOL0     H30171   9.540   0.112   0.403  1.0553  0.9685  1.9113
  219MOL0     H30172   9.202   0.242   0.507 -0.4853 -1.8001 -0.4461
  219MOL0     H30173   9.343   0.306   0.439  0.2012  1.0881  0.5216
  219MOL0     H30174   9.484   0.263   0.634 -0.3613 -3.0562 -2.4350
  219MOL0     H30175   9.374   0.398   0.650  1.8219  0.8335  2.3779
  219MOL0     H30176   9.252   0.308   0.811 -1.1674 -0.9639 -3.0793
  219MOL0     H30177   9.275   0.138   0.759  2.7374 -1.1398 -1.6440
  219MOL0     H30178   9.513   0.151   0.829 -0.4314 -1.1739  1.1934
  219MOL0     H30179   9.477   0.321   0.889 -1.4908  1.2551 -3.1254
  219MOL0     H30180   9.635   0.269   1.032  1.2885 -2.3207 -0.1303
  219MOL0     H30181   9.782   0.373   1.287 -1.2050 -2.0673  2.2506
  219MOL0     H30182   9.815   0.311   1.130 -2.9482 -2.4407 -1.7124
  219MOL0     H30183   9.848   0.204   1.263  1.4090 -0.4579 -1.9423
  219MOL0     H30184   9.977   0.021   1.517  0.2584 -0.2922  0.8152
  219MOL0     H30185  10.142   0.021   1.706 -0.7434  0.1417 -0.0606
  219MOL0     H30186  10.257   0.058   1.931  4.1529 -0.1284  0.9926
  219MOL0     H30187  10.286   0.161   1.793  1.5541 -1.5147  0.2388
  219MOL0     H30188  10.353   0.338   1.941  1.7066  0.1779  0.5596
  219MOL0     H30189  10.331   0.269   2.089 -1.0968  3.0153 -0.0773
  219MOL0     H30190  10.534   0.179   1.884  1.3730 -2.9888  0.1357
  219MOL0     H30191  10.496   0.093   2.040  1.5772  1.2901  2.4002
  219MOL0     H30192  10.554   0.339   2.138  0.5288 -0.8594  0.6187
  219MOL0     H30193  10.639   0.364   1.986  2.1738 -0.2695 -0.2897
  219MOL0     H30194  10.687   0.159   2.203 -0.5340  1.7616  0.4133
  219MOL0     H30195  10.751   0.134   2.037 -2.4699 -0.3958  0.2814
  219MOL0     H30196  10.801   0.354   2.244 -0.6420 -1.8876  1.0648
  219MOL0     H30197  10.861   0.375   2.073  1.6072 -2.2768 -1.5893
  219MOL0     H30198  11.004   0.169   2.098  0.7961  1.1842  0.3682
  219MOL0     H30199  10.948   0.149   2.269 -0.8076 -0.8296  0.8750
  219MOL0     H30200  11.168   0.259   2.242 -0.1093  0.6784 -1.0934
  219MOL0     H30201  11.035   0.359   2.322  1.2385  0.5103  0.9056
  219MOL0     H30202   9.908   0.358   1.867 -0.6944 -1.0313  1.3565
  219MOL0     H30203   9.766   0.344   1.679 -2.2190 -1.5343  1.3384
  219MOL0     H30204   9.386   0.080   1.423  0.0893  1.5630  0.8405
  219MOL0     H30205   9.277   0.093   1.210 -1.4336  2.8169 -0.6716
  219MOL0     H30206  10.316  -0.146   0.996  1.7858 -2.4228  2.0057
  219MOL0     H30207  10.553  -0.109   0.974 -1.6508  0.0518 -2.2672
  219MOL0     H30208  10.949   0.168   1.365 -0.2833 -0.0395  0.4671
  219MOL0     H30209  11.160   0.302   1.348 -1.3269  2.2346  0.0248
  219MOL0     H30210  11.305   0.351   0.907 -1.9325 -1.2077  1.3064
  219MOL0     H30211  11.227   0.504   0.954 -1.2607 -1.9731  0.2742
  219MOL0     H30212  11.429   0.565   1.072  0.5754 -2.3087  1.8294
  219MOL0     H30213  11.451   0.535   0.893  1.1055  0.6151 -0.2974
  219MOL0     H30214  11.619   0.447   1.078  0.4395  0.3731 -0.5902
  219MOL0     H30215  11.509   0.311   1.085  0.5997  0.7987  2.4973
  219MOL0     H30216  11.650   0.399   0.832  3.9392 -0.1017  1.5414
  219MOL0     H30217  11.525   0.270   0.837  1.4048 -1.1294 -0.9311
  219MOL0     H30218  11.810   0.021   0.970 -2.0579 -1.7812 -0.9158
  219MOL0     H30219  11.062   0.374   0.943 -1.5614  0.7307  0.2563
  219MOL0     H30220  10.827   0.166   0.873 -0.9718  0.6391  1.2860
  219MOL0     H30221  10.767   0.332   0.934 -0.7629 -0.6068 -1.9868
  219MOL0     H30222  10.902   0.317   0.839 -1.9007  4.2059  0.2188
  220MOL0     O30223   3.864   5.468  10.312 -0.6644 -0.4547 -0.4843
  220MOL0     C30224   3.894   5.538  10.407 -0.1298 -0.7745  0.2435
  220MOL0     O30225   3.946   5.498  10.518 -0.2429  0.4090 -0.5070
  220MOL0     C30226   3.946   5.364  10.560  0.4139  0.2565  1.0305
  220MOL0     C30227   3.827   5.292  10.549 -0.4554  0.3888 -0.5857
  220MOL0     C30228   3.827   5.156  10.594 -0.8892  0.1929 -0.0955
  220MOL0     C30229   3.938   5.103  10.657 -0.0382 -0.7389  0.0209
  220MOL0     O30230   3.944   4.975  10.709  0.2696 -0.1256  0.4937
  220MOL0     C30231   3.972   4.978  10.853  0.4486 -1.3468 -0.0677
  220MOL0     C30232   3.964   4.838  10.906 -0.0436  0.0876 -0.4302
  220MOL0     C30233   3.951   4.837  11.057 -0.1020 -0.0470 -0.2582
  220MOL0     C30234   3.830   4.751  11.111 -0.4325  0.1238  0.8492
  220MOL0     C30235   3.806   4.724  11.258 -0.2177  0.8877  0.4593
  220MOL0     C30236   3.779   4.847  11.339  0.7407  0.3631  0.7180
  220MOL0     C30237   3.743   4.824  11.484  0.3437 -0.4308 -0.7582
  220MOL0     C30238   3.838   4.733  11.559  0.4687 -1.0558 -0.1825
  220MOL0     N30239   3.974   4.790  11.554 -0.6791 -0.4114  0.3256
  220MOL0     C30240   4.024   4.872  11.651  1.0960 -0.3414  0.0058
  220MOL0     C30241   4.152   4.889  11.621  1.3260 -0.0642  0.5554
  220MOL0     C30242   4.250   4.980  11.689  0.1363 -0.7069 -0.2031
  220MOL0     C30243   4.275   5.096  11.596  0.2100 -0.0713  0.6944
  220MOL0     C30244   4.411   5.176  11.632 -0.1570 -0.1915 -0.2721
  220MOL0     C30245   4.424   5.290  11.537  0.0254 -0.0665  0.1942
  220MOL0     O30246   4.502   5.393  11.608 -0.3482  0.1112  0.4714
  220MOL0     C30247   4.469   5.518  11.572  0.1881 -0.2270 -0.8919
  220MOL0     C30248   4.445   5.608  11.679  1.0648 -0.5403  0.9704
  220MOL0     C30249   4.418   5.741  11.648 -0.2076 -0.4641  0.2202
  220MOL0     C30250   4.395   5.837  11.760  0.4196 -1.2285  1.0323
  220MOL0     C30251   4.407   5.787  11.514  0.2669  0.5975  0.3257
  220MOL0     C30252   4.387   5.928  11.465  0.1677 -0.0432 -0.3843
  220MOL0     O30253   4.420   6.033  11.541 -0.1180 -0.2174 -1.0822
  220MOL0     C30254   4.382   6.155  11.495  0.0001 -0.0359 -0.0737
  220MOL0     C30255   4.467   6.248  11.440  0.3130  1.2007 -0.6081
  220MOL0     C30256   4.419   6.378  11.423 -1.4845 -0.3771 -0.0931
  220MOL0     C30257   4.289   6.420  11.445 -0.3261  0.1718  0.5649
  220MOL0     O30258   4.268   6.553  11.430  0.2696 -0.5107 -0.6657
  220MOL0     C30259   4.190   6.591  11.542  0.1075 -0.1830 -0.3323
  220MOL0     C30260   4.177   6.744  11.554  0.2188 -0.0311  0.3566
  220MOL0     C30261   4.097   6.794  11.438 -0.4269 -0.6549  0.2133
  220MOL0     C30262   4.092   6.950  11.440 -0.2430  0.5418 -0.0096
  220MOL0     C30263   4.015   7.014  11.557 -0.7058 -0.5697  0.0468
  220MOL0     C30264   3.879   7.090  11.534 -0.0847 -0.1191  0.5115
  220MOL0     C30265   3.813   7.147  11.666 -0.0262 -0.0700  0.4260
  220MOL0     C30266   3.709   7.261  11.629 -0.1050 -0.3198 -0.2085
  220MOL0    Cl30267   3.575   7.270  11.757 -0.1542  0.1787  0.1823
  220MOL0     C30268   4.202   6.323  11.491 -0.9727  0.7514 -0.1527
  220MOL0     C30269   4.254   6.190  11.520  0.7025 -0.3593  0.5052
  220MOL0     O30270   4.337   5.938  11.351 -0.4850 -0.2939  0.0488
  220MOL0     C30271   4.428   5.692  11.405  0.1966  0.1646 -0.5624
  220MOL0     C30272   4.476   5.559  11.438  0.7053  0.2190  0.4011
  220MOL0     N30273   4.182   4.804  11.509  0.1645 -0.2914  0.1884
  220MOL0     N30274   4.072   4.743  11.469  0.4359 -0.4142 -0.7412
  220MOL0     C30275   4.051   5.190  10.673  0.5208  0.9076 -0.4211
  220MOL0     C30276   4.053   5.319  10.625 -0.4147 -0.2584  0.4288
  220MOL0     C30277   3.870   5.689  10.402 -0.6109  0.2314  0.5931
  220MOL0     C30278   3.850   5.750  10.526 -0.8093  0.4049  0.1917
  220MOL0     C30279   3.839   5.883  10.547  0.4785  0.0519  0.5852
  220MOL0     C30280   3.835   5.966  10.432  0.2007 -0.9264 -0.6616
  220MOL0     O30281   3.820   6.100  10.427 -0.4757  0.1080 -0.4133
  220MOL0     C30282   3.792   6.164  10.553  0.0002  0.5035  0.1367
  220MOL0     C30283   3.784   6.319  10.519  0.2036  0.0915 -0.3390
  220MOL0     C30284   3.749   6.417  10.635  0.1913  0.5753  1.1779
  220MOL0     C30285   3.611   6.414  10.688  0.0764  0.2559  0.5567
  220MOL0     C30286   3.602   6.504  10.806 -0.0571  0.7289  0.4613
  220MOL0     C30287   3.608   6.598  10.877  0.9346 -0.3645 -0.2769
  220MOL0     C30288   3.855   5.906  10.305  0.8011 -0.5652  0.0104
  220MOL0     C30289   3.876   5.768  10.287 -0.0174 -0.5604 -0.2101
  220MOL0     C30290   3.901   5.711  10.147  0.3374  0.2743 -0.8101
  220MOL0     H30291   3.735   5.323  10.499 -1.6268  2.2021  2.4495
  220MOL0     H30292   3.743   5.090  10.576 -1.0321 -0.4445  2.5247
  220MOL0     H30293   3.895   5.038  10.902 -1.1451 -2.6191 -0.9139
  220MOL0     H30294   4.073   5.021  10.858 -0.5374  1.0370  0.3963
  220MOL0     H30295   3.883   4.789  10.852 -1.0510 -0.1513  1.2245
  220MOL0     H30296   4.058   4.783  10.902  0.6582  1.1776  0.4030
  220MOL0     H30297   4.039   4.787  11.098  0.5783  1.5302  0.2736
  220MOL0     H30298   3.939   4.941  11.089  4.0978  0.3136  0.7105
  220MOL0     H30299   3.739   4.795  11.072 -1.2511 -0.7525  1.7085
  220MOL0     H30300   3.834   4.649  11.072 -0.8210 -0.1245  1.4537
  220MOL0     H30301   3.891   4.669  11.299  0.0378  1.4854  0.7320
  220MOL0     H30302   3.719   4.659  11.264  0.5573 -0.2216  0.0540
  220MOL0     H30303   3.862   4.919  11.341 -0.3584  1.8067 -1.2469
  220MOL0     H30304   3.691   4.890  11.290 -0.2391  0.3586  2.4395
  220MOL0     H30305   3.640   4.791  11.495 -0.8821  1.8743 -3.7620
  220MOL0     H30306   3.753   4.918  11.538  3.4954 -1.4535  0.6973
  220MOL0     H30307   3.813   4.730  11.665  0.5725  1.0975 -0.0645
  220MOL0     H30308   3.831   4.639  11.503 -1.5909 -0.7660 -0.5047
  220MOL0     H30309   3.966   4.909  11.735  0.7760  1.4969 -0.9719
  220MOL0     H30310   4.337   4.916  11.705 -0.6871 -1.6020  0.8811
  220MOL0     H30311   4.207   5.009  11.785 -3.3881  0.0424 -1.8465
  220MOL0     H30312   4.303   5.056  11.498  1.7358  0.7985  0.7341
  220MOL0     H30313   4.185   5.158  11.595 -1.0140 -1.7702  1.8029
  220MOL0     H30314   4.403   5.221  11.732 -1.7304 -0.1962 -0.3651
  220MOL0     H30315   4.496   5.108  11.625 -1.2990 -1.8831  1.1817
  220MOL0     H30316   4.466   5.269  11.439 -1.7199 -1.8372 -0.2371
  220MOL0     H30317   4.318   5.309  11.519 -0.5752 -1.4943  1.9253
  220MOL0     H30318   4.438   5.569  11.780  1.8781  1.6544  1.9346
  220MOL0     H30319   4.491   5.865  11.804  1.4167  0.3809 -1.8717
  220MOL0     H30320   4.317   5.795  11.824 -1.1660 -0.2949 -0.2167
  220MOL0     H30321   4.358   5.936  11.733  0.3748 -0.7065  2.9126
  220MOL0     H30322   4.571   6.223  11.419 -0.0148 -0.5994 -0.2680
  220MOL0     H30323   4.486   6.456  11.389 -0.9575 -0.9630 -0.4434
  220MOL0     H30324   4.089   6.549  11.545 -0.1031  0.2542 -0.9690
  220MOL0     H30325   4.234   6.541  11.629  1.2505  1.1249 -0.1292
  220MOL0     H30326   4.132   6.766  11.651  3.2627  1.7437  1.4789
  220MOL0     H30327   4.274   6.793  11.549  1.0692 -1.7297 -2.6718
  220MOL0     H30328   4.001   6.742  11.449 -0.4589 -0.3823  1.2762
  220MOL0     H30329   4.149   6.762  11.348  0.1957 -0.0950  0.3690
  220MOL0     H30330   4.047   6.986  11.347 -0.1652  1.9921  0.4796
  220MOL0     H30331   4.195   6.986  11.449  1.2282 -3.2541 -0.0710
  220MOL0     H30332   4.004   6.955  11.648 -0.9698  1.8619  1.7027
  220MOL0     H30333   4.084   7.091  11.592  0.1814 -1.4126  0.1803
  220MOL0     H30334   3.817   7.016  11.481  1.7531 -1.1082 -0.3548
  220MOL0     H30335   3.893   7.171  11.462 -0.0923 -0.1416  0.4842
  220MOL0     H30336   3.895   7.199  11.717  0.5419 -1.2301  0.7442
  220MOL0     H30337   3.778   7.065  11.729  1.2227 -1.2406 -0.3345
  220MOL0     H30338   3.663   7.259  11.529  0.2349 -0.5945 -0.3618
  220MOL0     H30339   3.760   7.356  11.640 -1.0258  0.8989 -4.4433
  220MOL0     H30340   4.097   6.335  11.517 -0.5839 -0.0469  1.9851
  220MOL0     H30341   4.188   6.112  11.558 -0.6002 -0.4550 -1.7493
  220MOL0     H30342   4.423   5.724  11.301 -1.7474  0.2345 -0.4997
  220MOL0     H30343   4.507   5.486  11.363  0.9484 -2.4248  2.9032
  220MOL0     H30344   4.139   5.141  10.713 -1.0848  0.6490  3.0624
  220MOL0     H30345   4.149   5.367  10.615 -0.7235  0.3016  0.1272
  220MOL0     H30346   3.846   5.693  10.618 -1.3021  2.1660  1.3259
  220MOL0     H30347   3.831   5.922  10.648 -0.1996  0.2509  0.4562
  220MOL0     H30348   3.698   6.120  10.589  0.3876 -1.2345 -0.8426
  220MOL0     H30349   3.867   6.133  10.626  2.1843  0.4913 -1.9684
  220MOL0     H30350   3.718   6.332  10.433 -0.2356  0.4759  0.0539
  220MOL0     H30351   3.886   6.342  10.485 -0.1109 -0.9867 -2.1001
  220MOL0     H30352   3.817   6.393  10.717 -0.2615  1.8473  1.9483
  220MOL0     H30353   3.770   6.519  10.601  0.5988 -0.2685 -1.3212
  220MOL0     H30354   3.581   6.312  10.716 -0.1601 -1.3467 -4.5089
  220MOL0     H30355   3.535   6.445  10.616  0.3916 -1.4900 -0.6018
  220MOL0     H30356   3.591   6.687  10.935 -4.0029 -1.7224  0.8567
  220MOL0     H30357   3.858   5.980  10.226 -2.6024 -0.4106 -0.1367
  220MOL0     H30358   3.884   5.798  10.084 -1.4955  0.8922  0.4548
  220MOL0     H30359   4.006   5.681  10.135 -0.5145 -4.3790  0.9653
  220MOL0     H30360   3.835   5.629  10.119  1.0905 -0.8522  0.5461
  221MOL0     O30361   1.315   5.575   0.196  0.7468 -0.3396  0.7575
  221MOL0     C30362   1.300   5.633   0.304  0.0383 -0.2787 -0.0824
  221MOL0     O30363   1.283   5.573   0.428  0.7047  0.6202  0.1933
  221MOL0     C30364   1.309   5.442   0.427 -0.3772 -0.4395  0.0694
  221MOL0     C30365   1.208   5.353   0.397 -0.1708 -0.2456  0.1102
  221MOL0     C30366   1.237   5.219   0.410  0.0146 -0.5601 -0.2124
  221MOL0     C30367   1.356   5.178   0.468 -0.1520 -0.4355  0.6787
  221MOL0     O30368   1.390   5.049   0.493  0.6832  0.6412 -0.2563
  221MOL0     C30369   1.314   4.940   0.433 -0.5372  0.0240 -1.4168
  221MOL0     C30370   1.199   4.891   0.515  0.0691 -0.0682 -0.4078
  221MOL0     C30371   1.231   4.876   0.661 -0.6563  0.2856 -0.3436
  221MOL0     C30372   1.152   4.755   0.723  0.6058 -0.5971  0.7295
  221MOL0     C30373   1.216   4.683   0.837 -0.5737  0.4461  0.6093
  221MOL0     C30374   1.329   4.589   0.806 -0.3892  1.0131  0.3622
  221MOL0     C30375   1.289   4.472   0.713  0.3488 -0.5554 -0.6193
  221MOL0     C30376   1.377   4.346   0.722  0.3310  1.0703 -0.6582
  221MOL0     N30377   1.329   4.241   0.624 -0.5527 -0.3284 -0.2743
  221MOL0     C30378   1.227   4.151   0.647  0.0390 -0.6361 -0.0236
  221MOL0     C30379   1.225   4.061   0.546 -0.0590 -0.2003 -0.1468
  221MOL0     C30380   1.128   3.942   0.518 -0.4869 -0.5557 -0.9746
  221MOL0     C30381   1.015   3.989   0.421  0.0550 -0.1655 -0.3702
  221MOL0     C30382   0.927   3.866   0.402 -0.8315 -0.1617 -0.4390
  221MOL0     C30383   0.782   3.900   0.372  0.4398 -0.5755 -0.2988
  221MOL0     O30384   0.728   3.843   0.250  0.1182  0.4651  0.4609
  221MOL0     C30385   0.601   3.880   0.198  0.6365  0.1447  0.3576
  221MOL0     C30386   0.550   3.829   0.079  0.0505 -0.3793  0.5401
  221MOL0     C30387   0.417   3.864   0.039 -0.1860  0.5588  0.6520
  221MOL0     C30388   0.375   3.820  -0.102 -0.0624  0.8545 -0.6323
  221MOL0     C30389   0.338   3.952   0.117  0.2623 -0.4719 -0.3242
  221MOL0     C30390   0.196   3.989   0.078 -1.0292  0.2537 -1.0292
  221MOL0     O30391   0.098   3.969   0.165 -0.1617  0.1357 -0.1827
  221MOL0     C30392  -0.035   3.980   0.122 -0.3007 -0.5628  0.1218
  221MOL0     C30393  -0.089   3.893   0.034  0.5185  0.3034  0.0566
  221MOL0     C30394  -0.227   3.899   0.004 -0.4216 -0.2676 -0.2077
  221MOL0     C30395  -0.308   3.995   0.060  0.2348  0.4555  0.5939
  221MOL0     O30396  -0.433   4.009   0.016 -0.5267 -0.1417 -0.7556
  221MOL0     C30397  -0.514   4.122   0.048 -0.3474  0.0475 -0.2372
  221MOL0     C30398  -0.639   4.096  -0.021  0.1132  0.7283 -0.5637
  221MOL0     C30399  -0.727   4.223  -0.025  0.1127 -0.3631 -0.9404
  221MOL0     C30400  -0.795   4.233   0.114  0.2658 -0.6975 -0.1608
  221MOL0     C30401  -0.921   4.321   0.119  0.2646  0.1082 -0.6377
  221MOL0     C30402  -0.874   4.462   0.087 -0.0508 -0.7668 -0.5292
  221MOL0     C30403  -0.983   4.573   0.128  0.5608  1.4880 -0.4927
  221MOL0     C30404  -0.912   4.700   0.128  0.2181 -0.0348  0.5600
  221MOL0    Cl30405  -0.829   4.726   0.284 -0.5931 -0.3179  0.0196
  221MOL0     C30406  -0.255   4.072   0.165 -0.0734 -0.6296  1.0583
  221MOL0     C30407  -0.121   4.067   0.192  0.3672  0.5820 -0.0533
  221MOL0     O30408   0.185   4.046  -0.031 -0.1810 -0.3432 -0.1535
  221MOL0     C30409   0.389   4.006   0.234  0.7323  0.6527  1.0862
  221MOL0     C30410   0.518   3.976   0.272 -0.6612  0.3210  0.5995
  221MOL0     N30411   1.329   4.102   0.460  0.5869  0.0502 -0.1491
  221MOL0     N30412   1.389   4.207   0.505 -0.3522 -0.0193  0.6379
  221MOL0     C30413   1.454   5.272   0.501  1.2621 -1.0272  0.1316
  221MOL0     C30414   1.428   5.405   0.483  0.4347 -1.0574  0.4683
  221MOL0     C30415   1.326   5.777   0.308  0.1385  0.4744  0.9004
  221MOL0     C30416   1.384   5.837   0.416  0.9407  0.5528 -0.2057
  221MOL0     C30417   1.427   5.969   0.413 -0.0515 -0.0758  0.2819
  221MOL0     C30418   1.400   6.047   0.301 -0.3231 -0.7766 -0.8185
  221MOL0     O30419   1.445   6.175   0.287  0.4365 -0.3733  0.0151
  221MOL0     C30420   1.540   6.227   0.372  0.1920  0.0488 -0.6726
  221MOL0     C30421   1.679   6.176   0.361 -0.8813  0.8268  0.4297
  221MOL0     C30422   1.740   6.222   0.232 -0.0249 -0.5601 -0.2839
  221MOL0     C30423   1.883   6.163   0.220  0.6739 -0.2717 -0.2912
  221MOL0     C30424   1.945   6.207   0.090 -0.7791 -0.0483 -0.4617
  221MOL0     C30425   1.991   6.234  -0.020 -1.0489 -0.0071 -0.6862
  221MOL0     C30426   1.327   5.998   0.200 -1.3778 -0.1452  0.3330
  221MOL0     C30427   1.288   5.861   0.195  0.4227 -0.4232  1.1750
  221MOL0     C30428   1.223   5.807   0.065 -0.3368 -1.6472  0.6393
  221MOL0     H30429   1.110   5.390   0.368 -0.7687 -0.7044  1.4820
  221MOL0     H30430   1.160   5.154   0.369 -2.2701  1.2795  0.8931
  221MOL0     H30431   1.386   4.861   0.410  3.8434  2.7356  1.4752
  221MOL0     H30432   1.268   4.974   0.339 -1.1309  0.1955 -1.0703
  221MOL0     H30433   1.118   4.962   0.496 -1.0122 -1.5588 -1.6469
  221MOL0     H30434   1.163   4.795   0.477 -0.4900  0.5946 -1.5944
  221MOL0     H30435   1.339   4.861   0.659 -0.7039 -0.0473 -0.5497
  221MOL0     H30436   1.209   4.962   0.725  0.2548 -0.3611  0.9080
  221MOL0     H30437   1.062   4.813   0.747  0.0240 -0.2105 -2.0338
  221MOL0     H30438   1.125   4.683   0.645 -1.1633  2.7941 -2.1004
  221MOL0     H30439   1.135   4.641   0.897 -0.5357  2.4031  2.1714
  221MOL0     H30440   1.252   4.764   0.902  1.3571 -0.6439  0.9704
  221MOL0     H30441   1.411   4.647   0.763 -1.7736  1.7887 -1.3808
  221MOL0     H30442   1.368   4.550   0.901  0.5358  1.7659  0.3065
  221MOL0     H30443   1.276   4.500   0.608 -1.2748 -0.6887 -0.4691
  221MOL0     H30444   1.193   4.435   0.750  0.7512  0.4348  1.5689
  221MOL0     H30445   1.482   4.370   0.704  0.2422  1.5679 -0.5298
  221MOL0     H30446   1.378   4.301   0.822  2.3595  1.3273 -0.5199
  221MOL0     H30447   1.165   4.160   0.735 -2.2870 -0.7546 -1.5406
  221MOL0     H30448   1.097   3.893   0.611  1.8693 -1.3023 -0.5025
  221MOL0     H30449   1.194   3.870   0.468  1.8131 -3.0038  4.7314
  221MOL0     H30450   0.962   4.073   0.468 -1.9071 -1.1328 -0.7483
  221MOL0     H30451   1.047   4.013   0.319 -2.4907 -0.4860 -1.3239
  221MOL0     H30452   0.960   3.805   0.317  0.0406  0.7384 -0.7741
  221MOL0     H30453   0.931   3.811   0.496 -2.2963  3.0186  1.6722
  221MOL0     H30454   0.732   3.872   0.465  1.3785  0.6539  0.6202
  221MOL0     H30455   0.772   4.009   0.366 -0.4354 -0.7292 -3.6397
  221MOL0     H30456   0.622   3.779   0.014 -0.5874 -0.7664  0.1174
  221MOL0     H30457   0.467   3.848  -0.154  2.1455 -1.1000  1.9396
  221MOL0     H30458   0.290   3.870  -0.149 -0.0837 -1.2502 -3.1002
  221MOL0     H30459   0.356   3.712  -0.106 -0.0990  0.8592 -0.5762
  221MOL0     H30460  -0.026   3.818  -0.014  0.2959  0.7928 -1.0312
  221MOL0     H30461  -0.273   3.829  -0.065 -1.8690 -0.2939  0.7646
  221MOL0     H30462  -0.541   4.135   0.153 -0.6766 -1.5349 -0.1067
  221MOL0     H30463  -0.456   4.204   0.004 -1.6953  0.8902 -0.4786
  221MOL0     H30464  -0.603   4.080  -0.124  0.4436 -1.3703 -0.1690
  221MOL0     H30465  -0.697   4.010   0.012 -0.0374  1.2984  0.7162
  221MOL0     H30466  -0.798   4.199  -0.105 -0.6713  0.0864 -0.3876
  221MOL0     H30467  -0.670   4.310  -0.057  0.8995 -0.9729 -1.2385
  221MOL0     H30468  -0.721   4.291   0.169 -2.5950  2.1853  0.9755
  221MOL0     H30469  -0.812   4.133   0.156  1.5708  0.1477  2.5976
  221MOL0     H30470  -1.003   4.305   0.048 -1.9388  0.9064  1.5416
  221MOL0     H30471  -0.956   4.321   0.223  3.8482 -1.8474  0.7403
  221MOL0     H30472  -0.844   4.464  -0.018  0.7687 -1.4271 -0.3177
  221MOL0     H30473  -0.788   4.486   0.151 -1.7524  0.3196  1.4945
  221MOL0     H30474  -1.027   4.555   0.227  0.5132  0.5885 -0.6643
  221MOL0     H30475  -1.056   4.563   0.047 -0.6754  3.5678  0.2940
  221MOL0     H30476  -0.987   4.780   0.131  3.1692  3.0141 -0.6874
  221MOL0     H30477  -0.855   4.724   0.038 -1.2342  2.4054  0.2024
  221MOL0     H30478  -0.320   4.154   0.196  0.8974  1.2686 -1.5537
  221MOL0     H30479  -0.090   4.135   0.271 -0.8619  2.4820 -1.1212
  221MOL0     H30480   0.332   4.076   0.294 -1.2455 -0.2772  0.3762
  221MOL0     H30481   0.550   4.018   0.367  0.5507 -0.2479  0.4573
  221MOL0     H30482   1.543   5.220   0.536  1.9104 -2.5206 -3.3014
  221MOL0     H30483   1.498   5.484   0.507 -0.2765 -0.1936 -0.2324
  221MOL0     H30484   1.408   5.771   0.499 -2.4636 -1.9352 -1.0205
  221MOL0     H30485   1.478   6.009   0.500 -0.1612 -1.1984  0.8878
  221MOL0     H30486   1.542   6.331   0.336  1.5399 -0.1322 -1.2122
  221MOL0     H30487   1.508   6.217   0.476  0.9762 -3.6553 -0.6670
  221MOL0     H30488   1.685   6.067   0.361  0.6189  0.8766 -0.5994
  221MOL0     H30489   1.737   6.204   0.449  1.2470  0.0502 -0.6635
  221MOL0     H30490   1.688   6.187   0.143  0.8927 -1.2711 -0.5675
  221MOL0     H30491   1.750   6.329   0.253  1.5066 -0.7404  0.0413
  221MOL0     H30492   1.883   6.054   0.226  0.3417 -0.2118  1.1183
  221MOL0     H30493   1.933   6.206   0.307 -1.0329  0.9416  0.1474
  221MOL0     H30494   2.020   6.262  -0.120 -1.6616  1.6882 -0.4283
  221MOL0     H30495   1.299   6.075   0.129 -1.4175 -0.1121  0.3843
  221MOL0     H30496   1.181   5.891   0.007 -1.6180 -0.8574  2.5911
  221MOL0     H30497   1.306   5.757   0.015  2.1669  2.1156  0.6034
  221MOL0     H30498   1.145   5.732   0.079  1.5527 -3.5004  1.7258
  222MOL0     O30499   2.126   2.046  10.196  0.0349 -0.3340 -0.1907
  222MOL0     C30500   2.153   2.137  10.268  0.2319  0.0192 -0.4671
  222MOL0     O30501   2.190   2.123  10.396 -0.0915  0.7002 -0.3191
  222MOL0     C30502   2.143   2.028  10.484  0.0047 -0.5545 -0.1745
  222MOL0     C30503   2.209   2.033  10.607  0.2468  0.3443  0.6351
  222MOL0     C30504   2.161   1.944  10.705 -0.9622  0.9693 -0.7060
  222MOL0     C30505   2.059   1.851  10.685 -0.0586  0.0339  0.0046
  222MOL0     O30506   2.032   1.763  10.786 -0.7938 -0.4056  0.2181
  222MOL0     C30507   1.924   1.671  10.773 -1.0033  0.7155  0.1923
  222MOL0     C30508   1.920   1.557  10.878 -0.3827 -0.2431 -0.1765
  222MOL0     C30509   2.071   1.510  10.893  0.2078  0.0509 -0.5645
  222MOL0     C30510   2.080   1.413  11.018 -0.0481  1.0759  0.5981
  222MOL0     C30511   2.040   1.266  10.977  0.3531  0.3794 -0.4616
  222MOL0     C30512   2.036   1.185  11.104 -0.8401 -0.7691  0.8120
  222MOL0     C30513   2.173   1.128  11.139  0.2669 -0.1233 -0.1912
  222MOL0     C30514   2.170   1.051  11.270 -0.4744  0.8154  0.4612
  222MOL0     N30515   2.166   1.150  11.379  0.8025 -0.4308 -0.1321
  222MOL0     C30516   2.273   1.221  11.427 -0.3236 -0.2436  0.3299
  222MOL0     C30517   2.226   1.281  11.538  0.4656  0.2493  0.7353
  222MOL0     C30518   2.305   1.367  11.633 -0.3793  1.0755  0.0543
  222MOL0     C30519   2.357   1.283  11.747  0.0280  0.3415  0.1951
  222MOL0     C30520   2.435   1.363  11.853  0.7186  0.0007 -0.5254
  222MOL0     C30521   2.332   1.431  11.958 -0.5713 -0.0187 -0.7985
  222MOL0     O30522   2.401   1.525  12.042  0.1542  0.3253 -0.1138
  222MOL0     C30523   2.491   1.468  12.133 -0.9050 -0.9262  0.2355
  222MOL0     C30524   2.490   1.332  12.176 -0.0192  0.8250 -0.4642
  222MOL0     C30525   2.588   1.267  12.262 -0.2445  0.1550  0.4625
  222MOL0     C30526   2.554   1.132  12.326 -0.0323  0.3829  0.3680
  222MOL0     C30527   2.696   1.348  12.288 -0.3132 -0.4292  0.1225
  222MOL0     C30528   2.813   1.309  12.356 -0.0258  0.1781 -0.1848
  222MOL0     O30529   2.858   1.186  12.343 -0.4546  0.0854  0.5838
  222MOL0     C30530   2.957   1.142  12.427 -0.4544  0.3250  1.1925
  222MOL0     C30531   2.920   1.082  12.548  0.0139 -0.3594  0.3978
  222MOL0     C30532   3.022   1.036  12.641 -0.5839  0.1438 -0.3999
  222MOL0     C30533   3.158   1.041  12.595  0.2870  0.8501 -0.0407
  222MOL0     O30534   3.271   1.001  12.669  0.2453 -0.1573 -0.4550
  222MOL0     C30535   3.226   0.898  12.758  0.1174  0.6465  0.3052
  222MOL0     C30536   3.355   0.835  12.821  0.3639 -0.2135 -1.1387
  222MOL0     C30537   3.433   0.939  12.909  0.3540  0.3158  0.8243
  222MOL0     C30538   3.517   0.863  13.016 -0.6790 -0.1837  0.8806
  222MOL0     C30539   3.627   0.766  12.962  0.2609  0.0249 -0.0899
  222MOL0     C30540   3.718   0.726  13.084 -0.0456 -0.1698  0.0822
  222MOL0     C30541   3.821   0.618  13.041  0.1120  0.9580  0.0971
  222MOL0     C30542   3.902   0.554  13.147 -1.2613  0.6048 -0.4375
  222MOL0    Cl30543   3.783   0.486  13.266  0.0691 -0.4460  0.3020
  222MOL0     C30544   3.190   1.101  12.475  0.9477 -0.9072 -0.7357
  222MOL0     C30545   3.091   1.151  12.393  0.0281  1.1137 -0.1293
  222MOL0     O30546   2.859   1.387  12.427  1.1152 -0.7408 -0.3329
  222MOL0     C30547   2.711   1.475  12.235  0.2695 -0.6069  0.3645
  222MOL0     C30548   2.613   1.539  12.166  0.2608 -0.5300 -0.0735
  222MOL0     N30549   2.085   1.266  11.538  0.1308 -0.3599  0.1916
  222MOL0     N30550   2.052   1.186  11.445  0.1021 -0.8311  0.5689
  222MOL0     C30551   1.999   1.851  10.561 -0.3047 -0.8463  0.1636
  222MOL0     C30552   2.036   1.940  10.460 -0.2550 -1.0117  0.6510
  222MOL0     C30553   2.147   2.274  10.203  0.7127  0.4467  0.1096
  222MOL0     C30554   2.188   2.380  10.293  0.8196 -0.2879  0.4407
  222MOL0     C30555   2.199   2.510  10.236  0.5923 -0.6487  0.5430
  222MOL0     C30556   2.173   2.542  10.100  1.0220 -0.2144  0.3571
  222MOL0     O30557   2.180   2.662  10.034 -0.1104  0.8348  0.3958
  222MOL0     C30558   2.266   2.761  10.085 -1.0682 -0.0361 -0.5180
  222MOL0     C30559   2.226   2.905  10.037  0.3725  0.1719 -0.5573
  222MOL0     C30560   2.097   2.943  10.108  0.6096  0.5188 -0.8258
  222MOL0     C30561   2.057   3.089  10.081 -0.2426 -0.6929  0.4396
  222MOL0     C30562   2.150   3.203  10.121  0.0919 -0.6910  0.0602
  222MOL0     C30563   2.230   3.293  10.134 -0.5559 -0.2596 -0.6687
  222MOL0     C30564   2.118   2.440  10.022 -0.0967  0.5152 -0.0058
  222MOL0     C30565   2.108   2.304  10.073 -0.2206 -0.0772  0.0500
  222MOL0     C30566   2.040   2.197   9.982 -0.1613 -0.5269 -0.0570
  222MOL0     H30567   2.286   2.108  10.627  1.8419 -0.6494 -1.4102
  222MOL0     H30568   2.211   1.952  10.801 -2.6001  1.2796  0.1442
  222MOL0     H30569   1.924   1.629  10.672  1.0017  3.9816 -1.3478
  222MOL0     H30570   1.824   1.712  10.788 -1.2888  0.2906 -0.5035
  222MOL0     H30571   1.887   1.603  10.971 -0.2476  1.3436 -0.8726
  222MOL0     H30572   1.859   1.470  10.852  3.0608 -2.7559 -0.5146
  222MOL0     H30573   2.113   1.452  10.810  0.6755 -4.1762  2.2667
  222MOL0     H30574   2.143   1.589  10.915 -1.7566  1.1974  2.3086
  222MOL0     H30575   2.184   1.406  11.051 -0.1822  3.2845  1.6918
  222MOL0     H30576   2.021   1.450  11.102 -3.0298 -2.0047  0.0661
  222MOL0     H30577   2.101   1.203  10.912 -1.6407 -2.9793  0.6672
  222MOL0     H30578   1.940   1.263  10.932  0.3449 -1.0762 -0.3881
  222MOL0     H30579   2.011   1.250  11.188 -2.7853  0.5400 -0.6912
  222MOL0     H30580   1.965   1.109  11.072  0.6791 -1.0850 -2.1549
  222MOL0     H30581   2.239   1.214  11.121 -0.5355  1.0070  1.9459
  222MOL0     H30582   2.198   1.067  11.051  0.9742  1.6937 -1.3225
  222MOL0     H30583   2.091   0.976  11.272  0.8712 -0.7202 -1.1711
  222MOL0     H30584   2.268   1.007  11.291 -0.1765  2.7744  4.0254
  222MOL0     H30585   2.373   1.225  11.387 -0.7025 -2.3389 -0.9340
  222MOL0     H30586   2.236   1.439  11.677  2.2679  2.3652  2.4146
  222MOL0     H30587   2.391   1.422  11.594  1.0297 -2.5285 -2.5661
  222MOL0     H30588   2.270   1.241  11.798  0.5991  1.0349  1.7712
  222MOL0     H30589   2.420   1.197  11.720 -1.1696 -1.0547  1.6659
  222MOL0     H30590   2.506   1.299  11.906  1.5849  0.1320 -1.5030
  222MOL0     H30591   2.497   1.444  11.814  2.2256 -1.0710 -0.4151
  222MOL0     H30592   2.274   1.498  11.895 -0.7348  0.3135 -0.2932
  222MOL0     H30593   2.261   1.363  12.005 -1.4484  1.3408 -0.1217
  222MOL0     H30594   2.404   1.267  12.161  0.9895 -0.6852  0.1326
  222MOL0     H30595   2.469   1.088  12.273  0.4751  1.8099 -1.7484
  222MOL0     H30596   2.525   1.159  12.428  3.5895 -2.3256  2.3168
  222MOL0     H30597   2.634   1.058  12.328 -1.9878 -1.9001 -0.4531
  222MOL0     H30598   2.814   1.067  12.568 -0.2667  0.8248 -0.1095
  222MOL0     H30599   2.990   0.994  12.736  1.3912  2.6006  1.4877
  222MOL0     H30600   3.173   0.937  12.846  2.2379  2.4694  0.8699
  222MOL0     H30601   3.173   0.819  12.704 -1.2404  1.6161  0.1600
  222MOL0     H30602   3.320   0.750  12.880  1.2651  0.5336  0.5430
  222MOL0     H30603   3.417   0.797  12.739 -0.4310 -3.5486 -0.3312
  222MOL0     H30604   3.374   1.016  12.961 -1.4255 -1.4973  1.6172
  222MOL0     H30605   3.504   0.986  12.840  1.8093 -3.9339 -0.8441
  222MOL0     H30606   3.446   0.798  13.069 -0.4683 -4.2963 -3.2820
  222MOL0     H30607   3.566   0.942  13.073 -1.4291  0.7281  0.2914
  222MOL0     H30608   3.577   0.682  12.911  1.2720 -0.2307 -0.7086
  222MOL0     H30609   3.685   0.814  12.883  0.0803  0.7139  0.1979
  222MOL0     H30610   3.659   0.678  13.162  2.0681 -0.0041  1.8823
  222MOL0     H30611   3.770   0.814  13.123 -0.0356  0.5364 -1.4343
  222MOL0     H30612   3.889   0.667  12.971 -1.2087  2.1000 -0.4112
  222MOL0     H30613   3.773   0.534  12.991 -0.3497  1.7490 -0.8090
  222MOL0     H30614   3.967   0.623  13.202  0.1601 -1.4483  0.5888
  222MOL0     H30615   3.963   0.469  13.114  0.1574 -0.6460  4.4542
  222MOL0     H30616   3.297   1.108  12.459  1.1305  2.2585  0.8874
  222MOL0     H30617   3.122   1.193  12.298 -1.8395  0.9705 -0.8390
  222MOL0     H30618   2.794   1.542  12.258 -1.8346  2.5346 -0.5660
  222MOL0     H30619   2.606   1.638  12.122 -2.0957  0.5022  2.3936
  222MOL0     H30620   1.911   1.790  10.542 -1.6335  1.5197 -1.9240
  222MOL0     H30621   1.989   1.944  10.362  2.1619 -1.6651 -0.6277
  222MOL0     H30622   2.222   2.369  10.396  1.8253 -1.4151  0.0191
  222MOL0     H30623   2.225   2.594  10.299 -1.8867  1.2634 -0.8082
  222MOL0     H30624   2.276   2.767  10.194  0.2708  0.2906 -0.6416
  222MOL0     H30625   2.365   2.730  10.051 -0.0477  1.8732  0.5672
  222MOL0     H30626   2.209   2.895   9.929 -1.5046 -3.5830 -0.0655
  222MOL0     H30627   2.296   2.989  10.048 -1.3339  1.9759 -2.5719
  222MOL0     H30628   2.011   2.879  10.088  0.9963 -0.6032  0.8722
  222MOL0     H30629   2.110   2.928  10.216  0.2854 -0.3642 -0.8950
  222MOL0     H30630   1.956   3.121  10.108  0.4895  0.9157  1.4723
  222MOL0     H30631   2.053   3.088   9.972 -0.9544 -2.3346  0.4437
  222MOL0     H30632   2.299   3.374  10.125 -1.5729  0.4068 -4.0705
  222MOL0     H30633   2.086   2.460   9.920 -1.8534 -0.1423  0.3779
  222MOL0     H30634   2.104   2.109   9.969  0.7124  0.0098  0.5521
  222MOL0     H30635   1.954   2.152  10.032 -1.4077  1.4433 -0.3026
  222MOL0     H30636   2.010   2.230   9.882  2.1869 -1.1618 -1.0264
  223MOL0     O30637   6.650   4.285   3.271  0.2633  0.7983  0.1222
  223MOL0     C30638   6.576   4.345   3.348  0.3244  0.0897  1.4387
  223MOL0     O30639   6.509   4.296   3.457  0.9002  0.4937 -0.8257
  223MOL0     C30640   6.542   4.170   3.494 -0.1960 -0.5165  0.3207
  223MOL0     C30641   6.669   4.152   3.553 -0.2910 -0.2366 -0.0267
  223MOL0     C30642   6.707   4.028   3.601  0.4045  0.3156 -0.2275
  223MOL0     C30643   6.625   3.917   3.582 -1.0033  0.2389 -0.9861
  223MOL0     O30644   6.665   3.792   3.638 -0.4783  0.4722  0.0649
  223MOL0     C30645   6.586   3.672   3.644  0.6688 -0.0912  0.1630
  223MOL0     C30646   6.570   3.604   3.506  0.9067 -0.5121 -0.4315
  223MOL0     C30647   6.699   3.575   3.441  0.6357  0.3528 -0.0699
  223MOL0     C30648   6.787   3.473   3.513 -0.2517 -0.9839 -0.8307
  223MOL0     C30649   6.925   3.435   3.453 -0.6911  0.7661  0.3228
  223MOL0     C30650   6.996   3.337   3.542 -0.3408 -0.0033  0.0319
  223MOL0     C30651   7.135   3.299   3.478  0.4553 -0.4670  0.3706
  223MOL0     C30652   7.199   3.201   3.571 -0.7810  0.3766  0.5527
  223MOL0     N30653   7.340   3.173   3.533  0.1759 -0.8073  0.5316
  223MOL0     C30654   7.384   3.131   3.401 -0.1609 -1.0205  0.1306
  223MOL0     C30655   7.517   3.112   3.415  0.5803 -0.6298 -0.1334
  223MOL0     C30656   7.613   3.099   3.304  0.2024 -0.1204  0.2500
  223MOL0     C30657   7.733   3.195   3.312  0.2959 -0.0523  0.7268
  223MOL0     C30658   7.845   3.153   3.199  0.6327 -1.1665 -0.5882
  223MOL0     C30659   7.808   3.198   3.062  0.7691  0.8463  0.2747
  223MOL0     O30660   7.920   3.238   2.986  0.7799  0.2730  0.0186
  223MOL0     C30661   8.006   3.150   2.928  0.0082  0.9653  0.5618
  223MOL0     C30662   8.111   3.196   2.855 -0.4689 -0.3410  0.9007
  223MOL0     C30663   8.206   3.108   2.803  0.1251  0.0983  0.2504
  223MOL0     C30664   8.310   3.186   2.734 -0.4582 -0.3473 -0.2132
  223MOL0     C30665   8.189   2.970   2.808 -0.3347  0.0614  0.1966
  223MOL0     C30666   8.278   2.870   2.743  0.4306 -0.4453  0.4963
  223MOL0     O30667   8.408   2.884   2.750  0.1391  0.1093 -0.2547
  223MOL0     C30668   8.487   2.823   2.671 -0.5673 -0.2426  0.5119
  223MOL0     C30669   8.545   2.706   2.716 -0.4577 -0.0998  0.7322
  223MOL0     C30670   8.648   2.648   2.638  0.1485  0.0695 -0.7436
  223MOL0     C30671   8.698   2.715   2.517  0.9553 -0.4522 -0.5013
  223MOL0     O30672   8.809   2.668   2.455 -0.2873  0.4651 -0.1905
  223MOL0     C30673   8.931   2.737   2.482  0.6763  0.0149 -0.4211
  223MOL0     C30674   9.054   2.665   2.431 -0.1468  0.3367  0.5564
  223MOL0     C30675   9.103   2.564   2.519 -0.8422  0.4961  0.4314
  223MOL0     C30676   9.255   2.537   2.475  0.2063  0.4026  0.2900
  223MOL0     C30677   9.309   2.407   2.527 -0.5604 -0.1246 -0.7550
  223MOL0     C30678   9.284   2.410   2.680  0.1100 -0.0707  0.8462
  223MOL0     C30679   9.365   2.308   2.757  0.2698 -0.0315 -0.3624
  223MOL0     C30680   9.296   2.271   2.892 -0.0679 -0.7730 -0.8827
  223MOL0    Cl30681   9.116   2.234   2.863 -0.0942 -0.0175  0.0508
  223MOL0     C30682   8.634   2.832   2.471 -0.4714 -0.5648 -0.3493
  223MOL0     C30683   8.529   2.878   2.551 -0.4714 -0.3560 -0.1407
  223MOL0     O30684   8.215   2.788   2.674  0.0960  0.6643 -0.4621
  223MOL0     C30685   8.067   2.925   2.861 -0.0597 -0.4349  0.2713
  223MOL0     C30686   7.980   3.009   2.925 -0.6694 -0.3097  0.9851
  223MOL0     N30687   7.548   3.129   3.553 -0.0840 -0.2571  0.2594
  223MOL0     N30688   7.443   3.161   3.617  0.2973  0.5102  1.0288
  223MOL0     C30689   6.507   3.941   3.521  0.4671  0.1932  1.2272
  223MOL0     C30690   6.460   4.061   3.477 -0.6467  0.5117 -0.2805
  223MOL0     C30691   6.543   4.477   3.293  0.2212  1.1765  0.3686
  223MOL0     C30692   6.630   4.586   3.286  0.6287  0.1208  0.6319
  223MOL0     C30693   6.584   4.712   3.240 -0.2698 -0.1938  1.0359
  223MOL0     C30694   6.449   4.730   3.204 -1.1300  0.8874 -0.6272
  223MOL0     O30695   6.423   4.855   3.158  0.4276 -0.3264 -0.1767
  223MOL0     C30696   6.297   4.891   3.090  0.1355 -1.0496  0.2480
  223MOL0     C30697   6.188   4.909   3.195  0.2741 -0.2826 -0.6540
  223MOL0     C30698   6.093   5.032   3.158 -0.1184 -0.7154  0.2614
  223MOL0     C30699   6.145   5.164   3.122  0.2918 -0.7707 -0.1552
  223MOL0     C30700   6.257   5.211   3.205 -0.6440 -0.9337 -1.0101
  223MOL0     C30701   6.340   5.237   3.294  0.6998  0.4244  0.1012
  223MOL0     C30702   6.364   4.620   3.196 -0.4323 -0.6580  0.3413
  223MOL0     C30703   6.412   4.495   3.233 -0.1659  0.1406  0.4607
  223MOL0     C30704   6.312   4.381   3.234 -0.7278 -0.6127  0.3469
  223MOL0     H30705   6.738   4.236   3.550  1.9613 -2.0013 -0.3267
  223MOL0     H30706   6.796   4.012   3.661 -0.5766 -1.5958  0.8156
  223MOL0     H30707   6.488   3.687   3.692 -0.5215 -0.4447 -2.0150
  223MOL0     H30708   6.631   3.603   3.717  2.5940 -0.6035 -1.4310
  223MOL0     H30709   6.525   3.510   3.539  1.8876  0.0281  2.7762
  223MOL0     H30710   6.497   3.658   3.443  1.2113  0.0130 -0.3414
  223MOL0     H30711   6.695   3.535   3.339  0.8869  2.7690 -1.1046
  223MOL0     H30712   6.745   3.674   3.435  2.2238 -0.3387  0.2098
  223MOL0     H30713   6.811   3.520   3.608 -0.9964 -1.4460 -0.4075
  223MOL0     H30714   6.729   3.384   3.540 -1.7425  0.4726  1.0390
  223MOL0     H30715   6.980   3.529   3.442  0.6650 -0.2965 -2.9645
  223MOL0     H30716   6.914   3.398   3.351 -0.5658  0.5067  0.4030
  223MOL0     H30717   7.003   3.372   3.645  2.2611 -0.8292  0.2237
  223MOL0     H30718   6.934   3.248   3.547 -0.3782  0.0941  2.4367
  223MOL0     H30719   7.191   3.393   3.467  0.3222 -0.3847  0.3960
  223MOL0     H30720   7.131   3.258   3.377 -0.8100  0.0213  0.2046
  223MOL0     H30721   7.190   3.224   3.677 -0.7534  1.7095  0.2774
  223MOL0     H30722   7.138   3.110   3.572  0.6389 -0.6305  2.4254
  223MOL0     H30723   7.334   3.130   3.305  0.1667 -1.5979 -0.0448
  223MOL0     H30724   7.563   3.118   3.209  2.0605  0.2097 -0.6940
  223MOL0     H30725   7.639   2.993   3.308 -0.7906 -0.3728  0.2186
  223MOL0     H30726   7.704   3.300   3.296 -1.3567 -0.6714 -0.6825
  223MOL0     H30727   7.777   3.192   3.412 -0.9032  0.3540  1.2867
  223MOL0     H30728   7.928   3.207   3.244  0.1344 -2.4943  2.1299
  223MOL0     H30729   7.875   3.049   3.215 -0.9600 -1.2381  2.9867
  223MOL0     H30730   7.752   3.116   3.016  1.1697  1.9872 -2.4444
  223MOL0     H30731   7.747   3.288   3.070  0.1974  0.5405 -0.5415
  223MOL0     H30732   8.128   3.303   2.856 -0.4487 -0.2646  4.0755
  223MOL0     H30733   8.327   3.293   2.747  1.7541 -0.6769 -0.0415
  223MOL0     H30734   8.288   3.179   2.627  3.1447 -1.7946 -1.0044
  223MOL0     H30735   8.408   3.143   2.760 -1.6296 -1.4274  2.7955
  223MOL0     H30736   8.515   2.660   2.810 -2.0213  0.1551  0.3827
  223MOL0     H30737   8.703   2.566   2.682 -0.3546  1.6993  3.3638
  223MOL0     H30738   8.930   2.831   2.426 -0.3026  2.8043  3.8242
  223MOL0     H30739   8.928   2.757   2.589 -2.5524 -2.1656  0.0570
  223MOL0     H30740   9.038   2.607   2.340  0.0190  0.9031  0.1598
  223MOL0     H30741   9.122   2.744   2.396 -1.6089  0.1809 -3.0880
  223MOL0     H30742   9.041   2.473   2.510  1.7905 -1.2395 -2.0976
  223MOL0     H30743   9.108   2.598   2.623  3.7618 -0.4387  0.7238
  223MOL0     H30744   9.311   2.624   2.510  1.9944 -1.1270  1.4294
  223MOL0     H30745   9.250   2.522   2.367 -1.5507 -0.8700  0.5079
  223MOL0     H30746   9.256   2.321   2.485  2.5703 -0.8928 -3.6174
  223MOL0     H30747   9.414   2.392   2.502  0.6007  2.2491  2.0007
  223MOL0     H30748   9.176   2.401   2.693 -0.0961  0.2392 -0.4699
  223MOL0     H30749   9.310   2.506   2.725  3.1255 -1.4075  2.2630
  223MOL0     H30750   9.469   2.340   2.763 -0.1572  1.2721  0.4535
  223MOL0     H30751   9.366   2.210   2.709  3.1073  0.4022 -1.3499
  223MOL0     H30752   9.322   2.348   2.965  0.1453 -3.0619  1.5994
  223MOL0     H30753   9.351   2.181   2.922  0.7664  0.1276  0.3635
  223MOL0     H30754   8.661   2.874   2.374 -1.4614 -1.9130 -1.2603
  223MOL0     H30755   8.475   2.967   2.520 -0.6298 -0.6742 -0.7893
  223MOL0     H30756   8.034   2.822   2.869 -2.3598  0.2504  0.3228
  223MOL0     H30757   7.896   2.961   2.975 -0.3455 -0.0037  1.8466
  223MOL0     H30758   6.429   3.866   3.535  1.7069 -0.9384  2.2393
  223MOL0     H30759   6.358   4.079   3.445 -1.1742  0.2803  1.2236
  223MOL0     H30760   6.735   4.566   3.306  0.5602  0.3396  1.2138
  223MOL0     H30761   6.658   4.791   3.235  3.4099 -3.3987  0.7070
  223MOL0     H30762   6.314   4.974   3.021 -0.6542 -0.7376  0.4211
  223MOL0     H30763   6.275   4.810   3.020  1.6871  0.6500 -2.3899
  223MOL0     H30764   6.229   4.928   3.294  1.3525 -1.3165 -0.8728
  223MOL0     H30765   6.125   4.820   3.207 -0.5911  0.3559 -0.3949
  223MOL0     H30766   6.014   4.997   3.092 -2.5422  4.5080 -0.1129
  223MOL0     H30767   6.046   5.043   3.256  1.3258  1.9593  0.7530
  223MOL0     H30768   6.063   5.234   3.140  2.0212  1.2466  0.3449
  223MOL0     H30769   6.184   5.165   3.020  3.2599  2.1929  0.8065
  223MOL0     H30770   6.423   5.259   3.358 -0.9341  2.7705  1.5761
  223MOL0     H30771   6.262   4.629   3.159 -0.1256  1.4735 -0.1291
  223MOL0     H30772   6.369   4.288   3.239 -3.0703 -2.1494 -0.0279
  223MOL0     H30773   6.242   4.399   3.316 -1.3872 -0.5676 -0.2181
  223MOL0     H30774   6.252   4.375   3.142 -0.5115 -2.1121  0.2857
  224MOL0     O30775   3.122   7.787   8.175  0.0825 -0.1801 -0.3114
  224MOL0     C30776   3.235   7.829   8.186 -0.7187  0.3986  0.1779
  224MOL0     O30777   3.346   7.760   8.211 -0.1351  0.2990  0.0280
  224MOL0     C30778   3.352   7.631   8.249  0.3153  0.1036  0.1031
  224MOL0     C30779   3.428   7.599   8.365  0.1906  0.0489 -0.9008
  224MOL0     C30780   3.447   7.463   8.401 -0.5999  0.0515  0.3769
  224MOL0     C30781   3.385   7.365   8.323  0.1140 -0.0476 -0.6768
  224MOL0     O30782   3.419   7.233   8.356  0.4797 -0.0657 -0.6356
  224MOL0     C30783   3.515   7.162   8.273  0.1797  0.2695 -0.2910
  224MOL0     C30784   3.450   7.035   8.223  0.0048 -0.0928  0.6842
  224MOL0     C30785   3.561   6.962   8.148  0.6625  0.4281  0.2257
  224MOL0     C30786   3.516   6.820   8.132  0.3887  0.5179 -0.3143
  224MOL0     C30787   3.621   6.740   8.073  0.1275  0.5394  0.7228
  224MOL0     C30788   3.574   6.601   8.029  0.4185 -0.2988 -0.3252
  224MOL0     C30789   3.682   6.513   7.970 -0.2383 -0.4504 -0.3887
  224MOL0     C30790   3.764   6.435   8.074  1.4406 -0.1116 -0.8489
  224MOL0     N30791   3.705   6.320   8.148 -0.0730 -0.7878  0.4609
  224MOL0     C30792   3.593   6.255   8.101 -0.6697 -0.3891 -0.0973
  224MOL0     C30793   3.552   6.174   8.198 -0.2462  1.4691 -1.0383
  224MOL0     C30794   3.439   6.077   8.189 -0.9839  0.5273 -0.8476
  224MOL0     C30795   3.396   6.051   8.049  1.5841  0.0812 -0.0166
  224MOL0     C30796   3.290   5.929   8.057 -0.5397  0.2540  0.2647
  224MOL0     C30797   3.158   5.994   8.063  0.3163 -1.1401 -1.1009
  224MOL0     O30798   3.054   5.899   8.035  0.1379 -1.0013  0.7104
  224MOL0     C30799   2.937   5.932   7.984 -0.8278 -0.1166 -0.5872
  224MOL0     C30800   2.837   5.953   8.081 -1.0248  0.4571  0.1078
  224MOL0     C30801   2.699   5.960   8.046 -0.3565  0.0049 -0.0080
  224MOL0     C30802   2.600   5.947   8.163 -0.3471 -1.0174 -0.8004
  224MOL0     C30803   2.664   5.964   7.905 -0.5511  0.0493 -0.0570
  224MOL0     C30804   2.533   5.999   7.859 -0.3251 -0.2634  0.0248
  224MOL0     O30805   2.495   5.960   7.740  0.2714 -0.5472 -0.7405
  224MOL0     C30806   2.365   5.918   7.722  0.0724 -0.8761 -0.3893
  224MOL0     C30807   2.295   5.978   7.622  0.3671 -0.8368  0.0791
  224MOL0     C30808   2.169   5.931   7.586 -0.2077  0.6422  0.0088
  224MOL0     C30809   2.107   5.834   7.664 -0.2680  0.9978  0.4842
  224MOL0     O30810   1.971   5.794   7.658 -0.4791  0.7462 -0.4330
  224MOL0     C30811   1.898   5.820   7.534  0.4151 -0.1440  0.2172
  224MOL0     C30812   1.809   5.691   7.516 -0.4364 -0.3818 -0.7570
  224MOL0     C30813   1.697   5.708   7.409 -0.4478 -0.5224  0.7775
  224MOL0     C30814   1.610   5.584   7.391  0.3280 -0.4327  1.0195
  224MOL0     C30815   1.527   5.574   7.261  0.0968  0.2534  0.0218
  224MOL0     C30816   1.467   5.431   7.232 -0.2211  0.2990  0.0307
  224MOL0     C30817   1.387   5.441   7.098  0.1595  0.3790  0.0007
  224MOL0     C30818   1.346   5.288   7.059 -0.4912 -0.4785  0.7852
  224MOL0    Cl30819   1.216   5.295   6.946  0.4770  0.1139 -0.1489
  224MOL0     C30820   2.170   5.790   7.783  0.6836  0.5059  1.0804
  224MOL0     C30821   2.303   5.812   7.798 -0.4392 -0.4580  0.1209
  224MOL0     O30822   2.466   6.056   7.935  0.7433  0.4308 -0.1842
  224MOL0     C30823   2.770   5.962   7.817  0.5957 -0.5913 -0.2464
  224MOL0     C30824   2.898   5.936   7.854 -0.9584  0.1815 -0.5095
  224MOL0     N30825   3.639   6.210   8.309  0.8418 -0.5695 -0.2166
  224MOL0     N30826   3.718   6.302   8.281 -1.2944  0.6798 -0.0587
  224MOL0     C30827   3.311   7.399   8.220  0.5263 -0.7224  0.6926
  224MOL0     C30828   3.285   7.535   8.176  0.1493 -0.4048  0.3500
  224MOL0     C30829   3.253   7.974   8.179 -0.3378 -0.3416 -0.1486
  224MOL0     C30830   3.157   8.056   8.242 -0.6063  0.3390  0.2347
  224MOL0     C30831   3.177   8.191   8.241 -0.2708 -0.3294  0.0011
  224MOL0     C30832   3.284   8.245   8.167 -0.0924 -0.7103  0.2595
  224MOL0     O30833   3.314   8.374   8.138  0.1877 -0.5612 -0.7507
  224MOL0     C30834   3.233   8.478   8.197  0.1558 -0.1605 -0.6832
  224MOL0     C30835   3.277   8.616   8.148  0.7684 -0.2386 -0.6004
  224MOL0     C30836   3.246   8.637   8.004  0.7592  0.2225 -0.3416
  224MOL0     C30837   3.304   8.772   7.966 -0.0863 -0.4529 -0.3215
  224MOL0     C30838   3.282   8.792   7.819  1.1596 -0.1306 -0.0773
  224MOL0     C30839   3.249   8.788   7.701  0.4225 -0.6556 -0.4791
  224MOL0     C30840   3.370   8.162   8.096  0.1974 -0.1055  0.1097
  224MOL0     C30841   3.360   8.025   8.110  0.2123  0.1921 -0.4279
  224MOL0     C30842   3.481   7.952   8.032  0.5396 -0.7943 -0.7807
  224MOL0     H30843   3.464   7.682   8.425 -0.3313 -0.1633 -0.2814
  224MOL0     H30844   3.499   7.442   8.494 -0.1759  1.6183  0.5183
  224MOL0     H30845   3.597   7.131   8.339 -0.5557 -1.6292 -0.2161
  224MOL0     H30846   3.550   7.224   8.191  0.4557  1.9628  1.0455
  224MOL0     H30847   3.423   6.976   8.312 -1.4949 -2.0374 -0.9497
  224MOL0     H30848   3.359   7.058   8.167 -0.5200 -0.5776  1.3200
  224MOL0     H30849   3.577   7.015   8.054 -2.3425  0.7704 -0.1921
  224MOL0     H30850   3.654   6.956   8.204  0.0647 -5.5322  1.1847
  224MOL0     H30851   3.502   6.774   8.230 -0.0384  0.4867 -0.3878
  224MOL0     H30852   3.423   6.812   8.075  0.7330 -2.8953 -0.5890
  224MOL0     H30853   3.695   6.736   8.154  1.4761 -1.8136 -0.5056
  224MOL0     H30854   3.658   6.804   7.992 -2.4987  3.7622  1.8716
  224MOL0     H30855   3.539   6.550   8.119  2.7035 -1.2361  0.0889
  224MOL0     H30856   3.483   6.607   7.969 -1.3666 -1.3654  2.1345
  224MOL0     H30857   3.755   6.558   7.903 -1.7882  0.9092 -1.2487
  224MOL0     H30858   3.630   6.447   7.900 -0.2633 -1.1512  0.2700
  224MOL0     H30859   3.852   6.389   8.029  2.9360  1.1909  0.6151
  224MOL0     H30860   3.806   6.518   8.132  0.0081  0.2578 -0.2729
  224MOL0     H30861   3.541   6.265   8.006  2.3972 -1.3251 -2.0343
  224MOL0     H30862   3.345   6.097   8.242 -0.9776 -0.0977 -0.5934
  224MOL0     H30863   3.480   5.979   8.214 -1.1828  0.4604 -0.7834
  224MOL0     H30864   3.345   6.137   8.005  0.9439 -1.1750 -1.8101
  224MOL0     H30865   3.479   6.027   7.981 -0.1686  0.5701 -2.4402
  224MOL0     H30866   3.311   5.892   7.957  4.1593 -0.3855  1.2392
  224MOL0     H30867   3.315   5.855   8.134  0.5207 -0.0218 -0.3336
  224MOL0     H30868   3.150   6.051   8.156  1.3549  1.4270 -2.4930
  224MOL0     H30869   3.155   6.074   7.989 -2.1249  1.2632  1.3656
  224MOL0     H30870   2.879   5.955   8.182  0.6012 -0.0382 -0.5181
  224MOL0     H30871   2.652   5.888   8.239  0.2440 -2.5217 -2.2944
  224MOL0     H30872   2.501   5.915   8.129 -0.9759 -0.0938  0.1285
  224MOL0     H30873   2.588   6.047   8.205 -0.4871 -0.3686 -2.3249
  224MOL0     H30874   2.332   6.062   7.564 -1.1661 -0.3772 -0.2718
  224MOL0     H30875   2.110   5.974   7.506  1.0224 -0.2777 -1.4489
  224MOL0     H30876   1.833   5.908   7.535  0.3797 -0.1639  1.4743
  224MOL0     H30877   1.962   5.833   7.447 -1.0275 -1.2387 -1.0699
  224MOL0     H30878   1.882   5.611   7.498  0.6000  0.3605  0.0045
  224MOL0     H30879   1.747   5.681   7.605 -0.6645  1.5605 -0.6550
  224MOL0     H30880   1.750   5.725   7.315 -0.6759  0.0728  0.7587
  224MOL0     H30881   1.636   5.796   7.430  1.3777  2.4380 -4.4419
  224MOL0     H30882   1.537   5.571   7.472  0.6842 -2.1272  1.0952
  224MOL0     H30883   1.688   5.508   7.395  1.8848  1.1382  2.5709
  224MOL0     H30884   1.463   5.661   7.247 -0.1720  0.1375  0.4824
  224MOL0     H30885   1.598   5.593   7.181 -0.8461  0.4344 -0.7915
  224MOL0     H30886   1.408   5.389   7.314  1.2580  0.6181  1.3166
  224MOL0     H30887   1.548   5.359   7.244 -1.4242 -1.5289 -2.0262
  224MOL0     H30888   1.450   5.481   7.018 -0.9119 -0.1964 -1.1610
  224MOL0     H30889   1.299   5.505   7.104  1.0370  1.6750 -0.4801
  224MOL0     H30890   1.320   5.245   7.156  0.4445  1.3884  1.9408
  224MOL0     H30891   1.427   5.230   7.013  0.4031  2.6840 -2.0562
  224MOL0     H30892   2.110   5.730   7.850 -0.8910 -1.7617 -2.0882
  224MOL0     H30893   2.345   5.773   7.890 -1.5851  1.3412  1.4782
  224MOL0     H30894   2.755   5.969   7.710 -2.3787 -3.8644 -0.2324
  224MOL0     H30895   2.977   5.930   7.779 -1.8121  3.6147 -1.8826
  224MOL0     H30896   3.253   7.322   8.170 -0.0432  0.1292  0.0120
  224MOL0     H30897   3.222   7.553   8.090 -0.8198 -1.5382  0.7970
  224MOL0     H30898   3.073   8.009   8.292 -1.7029 -0.9369 -2.5881
  224MOL0     H30899   3.104   8.257   8.286  0.1192  0.0520  0.0860
  224MOL0     H30900   3.132   8.460   8.158  0.2115 -1.5760 -0.2152
  224MOL0     H30901   3.229   8.482   8.306  3.4930  0.0462 -0.4789
  224MOL0     H30902   3.382   8.636   8.172  0.3778 -1.2508  2.3124
  224MOL0     H30903   3.216   8.693   8.195 -2.3170 -2.2063 -1.1211
  224MOL0     H30904   3.282   8.557   7.939  3.4260 -0.2156  1.5211
  224MOL0     H30905   3.137   8.642   8.002  0.6416 -1.1821  0.6911
  224MOL0     H30906   3.412   8.757   7.977 -0.3014 -2.3158 -0.4311
  224MOL0     H30907   3.272   8.851   8.034  2.0947 -1.5545  2.1804
  224MOL0     H30908   3.227   8.774   7.597  1.7941 -0.0476 -0.8648
  224MOL0     H30909   3.445   8.212   8.036 -0.0681  0.9708  0.6572
  224MOL0     H30910   3.547   7.885   8.088 -0.3020 -0.1914  1.0363
  224MOL0     H30911   3.433   7.896   7.952 -0.7157  3.4729 -3.3243
  224MOL0     H30912   3.546   8.030   7.992  0.1078 -1.0413 -1.9876
  225MOL0     O30913   3.166   3.156  10.309  0.5776 -0.7999 -0.1701
  225MOL0     C30914   3.228   3.170  10.416  0.3244  1.0880 -0.2837
  225MOL0     O30915   3.366   3.199  10.421 -0.0586 -0.1697 -1.1322
  225MOL0     C30916   3.435   3.217  10.308 -0.4924 -0.2666  0.1262
  225MOL0     C30917   3.407   3.317  10.216  0.3459 -0.4305  0.3173
  225MOL0     C30918   3.495   3.338  10.102  0.0793  0.2434 -0.0734
  225MOL0     C30919   3.606   3.257  10.080 -0.1526 -0.0906  0.0861
  225MOL0     O30920   3.688   3.282   9.970 -0.7691  0.5712 -0.5592
  225MOL0     C30921   3.723   3.169   9.892  0.4009 -0.1179  0.1416
  225MOL0     C30922   3.865   3.172   9.837  0.3080  0.2372 -0.2516
  225MOL0     C30923   3.902   3.053   9.752  0.1647  0.3259  0.0083
  225MOL0     C30924   3.816   3.018   9.629  1.2505 -0.4230  0.6307
  225MOL0     C30925   3.860   2.890   9.552 -0.7601  0.4914  1.1625
  225MOL0     C30926   3.851   2.760   9.631  0.1851  0.0258 -0.3622
  225MOL0     C30927   3.816   2.627   9.559 -0.2141 -0.7422  0.3326
  225MOL0     C30928   3.943   2.592   9.491  0.3634 -0.9185  0.2620
  225MOL0     N30929   4.024   2.491   9.554 -0.8680 -0.9078  0.0154
  225MOL0     C30930   4.018   2.448   9.683  0.3553 -0.4078 -0.4848
  225MOL0     C30931   4.132   2.378   9.710 -0.0343  0.6208  0.2951
  225MOL0     C30932   4.175   2.299   9.834 -0.5255  0.8523 -0.1820
  225MOL0     C30933   4.146   2.152   9.823 -0.2355 -0.0948  0.1875
  225MOL0     C30934   4.221   2.075   9.942  0.2201 -0.4013 -0.2758
  225MOL0     C30935   4.370   2.048   9.910  0.5364 -0.7180 -0.0836
  225MOL0     O30936   4.440   2.171   9.871 -0.8943  0.1424 -0.1356
  225MOL0     C30937   4.576   2.168   9.841  0.6523  0.5910 -0.5450
  225MOL0     C30938   4.649   2.284   9.847 -0.0068  0.1307 -0.1579
  225MOL0     C30939   4.786   2.285   9.816 -0.6524 -1.1305  0.0070
  225MOL0     C30940   4.854   2.423   9.828  0.0779 -0.3512  0.7601
  225MOL0     C30941   4.863   2.168   9.798  0.5527  0.2535  0.8897
  225MOL0     C30942   5.013   2.148   9.777 -0.5399  0.6400 -0.6539
  225MOL0     O30943   5.057   2.025   9.746  0.5836  0.0364 -0.5001
  225MOL0     C30944   5.179   1.983   9.785  0.4061 -0.6065 -0.3181
  225MOL0     C30945   5.293   2.014   9.702  0.7754  0.8771  0.1960
  225MOL0     C30946   5.420   1.987   9.749 -0.3483 -0.5023 -0.2756
  225MOL0     C30947   5.437   1.949   9.880 -0.2940  0.7086 -0.2563
  225MOL0     O30948   5.557   1.922   9.946  0.3328  0.4692  0.6997
  225MOL0     C30949   5.674   1.991   9.900  0.7690 -0.2438 -0.2856
  225MOL0     C30950   5.665   2.137   9.902  0.2732 -0.6786  0.9479
  225MOL0     C30951   5.803   2.212   9.921  0.3122  0.4643 -0.2320
  225MOL0     C30952   5.804   2.363   9.893  0.1145 -0.5974 -0.5822
  225MOL0     C30953   5.871   2.449  10.009 -0.1950  0.6987  0.8395
  225MOL0     C30954   5.859   2.596   9.974  0.7684 -0.0459  0.3301
  225MOL0     C30955   5.945   2.679  10.066 -0.0663 -0.3605  1.2033
  225MOL0     C30956   6.094   2.682  10.026  0.8040  0.0882 -0.1183
  225MOL0    Cl30957   6.161   2.824  10.123 -0.4863 -0.5101  0.3491
  225MOL0     C30958   5.330   1.927   9.958 -0.1750  0.4273  0.2199
  225MOL0     C30959   5.200   1.934   9.914 -0.6274 -0.6880 -0.1357
  225MOL0     O30960   5.084   2.244   9.784 -0.2841 -0.4854 -0.1774
  225MOL0     C30961   4.781   2.045   9.783 -0.1314  0.2189  0.7952
  225MOL0     C30962   4.639   2.050   9.809 -0.0778 -0.4402  0.1302
  225MOL0     N30963   4.199   2.366   9.585 -0.4549  0.0917  0.2999
  225MOL0     N30964   4.132   2.434   9.497 -0.6860 -0.1893  0.3383
  225MOL0     C30965   3.631   3.156  10.174  0.7669 -1.2000  0.4493
  225MOL0     C30966   3.544   3.139  10.287 -0.6311  0.4127 -0.3797
  225MOL0     C30967   3.156   3.171  10.551  0.4789  0.7026 -0.6917
  225MOL0     C30968   3.233   3.181  10.670 -0.2203 -0.3083  0.2330
  225MOL0     C30969   3.167   3.170  10.794 -0.4715  0.2725 -0.4757
  225MOL0     C30970   3.033   3.154  10.807  0.2140 -0.0634 -0.2228
  225MOL0     O30971   2.987   3.157  10.938  0.7311 -0.5719  0.1164
  225MOL0     C30972   2.843   3.145  10.965 -0.7631 -0.4068 -0.7428
  225MOL0     C30973   2.795   3.256  11.065  0.0347 -0.0920  0.3346
  225MOL0     C30974   2.658   3.223  11.097 -0.1933 -0.0633 -0.5553
  225MOL0     C30975   2.594   3.330  11.198  0.0068  0.5481 -0.8350
  225MOL0     C30976   2.595   3.287  11.340 -0.3736 -0.9923 -0.1937
  225MOL0     C30977   2.603   3.254  11.456  0.0989  0.5147  0.6026
  225MOL0     C30978   2.957   3.152  10.689  0.0968 -0.5314  0.0955
  225MOL0     C30979   3.016   3.165  10.564 -0.2929 -0.9151 -0.6657
  225MOL0     C30980   2.916   3.175  10.455 -0.2227  0.5753  0.6497
  225MOL0     H30981   3.323   3.386  10.224  1.5404  1.1927 -0.3817
  225MOL0     H30982   3.462   3.411  10.028 -2.1633 -0.9988 -0.3719
  225MOL0     H30983   3.661   3.179   9.802  2.2424  2.0994 -1.0001
  225MOL0     H30984   3.697   3.081   9.950  1.6032 -2.7659 -2.9967
  225MOL0     H30985   3.895   3.265   9.787  1.3114  0.9483  1.5842
  225MOL0     H30986   3.927   3.186   9.926 -0.0287  1.1105 -0.1426
  225MOL0     H30987   4.005   3.063   9.718  2.0859 -1.2435  4.6008
  225MOL0     H30988   3.909   2.967   9.820  0.1931  1.4391  1.4528
  225MOL0     H30989   3.712   3.006   9.661  0.5489  1.0750 -0.8739
  225MOL0     H30990   3.819   3.101   9.557 -0.0103 -2.5601 -2.0796
  225MOL0     H30991   3.961   2.901   9.512 -1.5072 -0.0015 -0.9662
  225MOL0     H30992   3.793   2.883   9.466  1.5130 -4.7138 -0.5751
  225MOL0     H30993   3.942   2.738   9.688 -0.0109 -0.5619 -0.2702
  225MOL0     H30994   3.768   2.766   9.702 -0.5943  2.2494 -1.3648
  225MOL0     H30995   3.742   2.649   9.482  0.6678 -0.0070 -0.3337
  225MOL0     H30996   3.773   2.544   9.616 -0.7153  1.0526  2.7132
  225MOL0     H30997   3.921   2.550   9.392 -1.5326 -2.0425  1.1034
  225MOL0     H30998   3.996   2.686   9.474  1.7633 -1.2406  2.5479
  225MOL0     H30999   3.937   2.477   9.749 -2.4782 -0.5497 -3.6653
  225MOL0     H31000   4.124   2.342   9.920 -0.3995 -0.4655  0.5732
  225MOL0     H31001   4.279   2.326   9.854 -0.1628 -0.2467 -0.4855
  225MOL0     H31002   4.040   2.128   9.827 -1.2116  3.7225  2.9864
  225MOL0     H31003   4.180   2.123   9.723  0.2934  0.6015  0.1547
  225MOL0     H31004   4.217   2.145  10.026  1.6310  0.7999 -1.1773
  225MOL0     H31005   4.168   1.982   9.966  0.1259 -0.2494  0.1215
  225MOL0     H31006   4.418   2.010  10.001  0.5619 -0.4429  0.0177
  225MOL0     H31007   4.376   1.969   9.835  1.3164  0.4366 -1.2852
  225MOL0     H31008   4.611   2.381   9.876  0.7823  0.9488 -1.7018
  225MOL0     H31009   4.785   2.503   9.856  2.7191  2.7118 -0.8227
  225MOL0     H31010   4.903   2.458   9.737  0.2261 -1.9403  0.2092
  225MOL0     H31011   4.939   2.436   9.896  1.2954  0.4837 -0.8488
  225MOL0     H31012   5.269   2.083   9.622 -0.1392  2.3290  1.6694
  225MOL0     H31013   5.506   2.010   9.688 -0.9692  1.2367 -0.5720
  225MOL0     H31014   5.761   1.952   9.953  1.1293 -2.0568 -2.1084
  225MOL0     H31015   5.701   1.964   9.798 -0.7429  1.1358 -1.0915
  225MOL0     H31016   5.601   2.173   9.821  0.2877 -0.5968  0.9702
  225MOL0     H31017   5.600   2.171   9.982 -2.3097  3.1845 -2.3891
  225MOL0     H31018   5.872   2.169   9.847 -1.1956 -2.1752 -0.2372
  225MOL0     H31019   5.842   2.185  10.020  1.2687 -4.5606 -1.6943
  225MOL0     H31020   5.698   2.379   9.873 -0.0724 -3.5857 -2.5088
  225MOL0     H31021   5.856   2.385   9.799 -0.1802  3.0317 -0.0276
  225MOL0     H31022   5.832   2.439  10.111  2.2549  0.2001  1.7785
  225MOL0     H31023   5.978   2.428  10.019 -0.4473 -0.0953  2.2374
  225MOL0     H31024   5.757   2.623  10.002 -0.1446 -1.4620 -1.4247
  225MOL0     H31025   5.889   2.600   9.869 -2.2013 -3.3238 -0.8124
  225MOL0     H31026   5.918   2.651  10.168 -3.2754  1.6058  1.0226
  225MOL0     H31027   5.907   2.782  10.063  0.3134 -0.2049  1.6093
  225MOL0     H31028   6.112   2.698   9.919  0.2069  2.5282  0.0801
  225MOL0     H31029   6.154   2.593  10.045  0.6857 -0.6595 -2.8515
  225MOL0     H31030   5.358   1.906  10.060  3.1213  2.9919  0.0013
  225MOL0     H31031   5.122   1.907   9.984 -2.3973  0.5016 -1.5492
  225MOL0     H31032   4.834   1.953   9.759 -0.3259 -0.3544  2.4375
  225MOL0     H31033   4.594   1.953   9.786 -2.2484  1.2130 -3.4855
  225MOL0     H31034   3.709   3.082  10.169 -0.9364 -3.2059  1.9478
  225MOL0     H31035   3.564   3.076  10.373 -3.9111 -2.3134 -1.3840
  225MOL0     H31036   3.341   3.184  10.662 -0.1004  2.7150  1.5505
  225MOL0     H31037   3.230   3.172  10.882 -3.0892  1.0675  1.5142
  225MOL0     H31038   2.776   3.129  10.880 -1.3900 -1.7243 -0.0467
  225MOL0     H31039   2.854   3.045  11.009 -3.5111 -1.0175 -1.2197
  225MOL0     H31040   2.797   3.356  11.021  0.6582  0.6945  2.0812
  225MOL0     H31041   2.861   3.259  11.152  2.2339 -1.9762 -1.1230
  225MOL0     H31042   2.602   3.225  11.003  0.6751  1.2185 -1.0766
  225MOL0     H31043   2.657   3.119  11.131  3.3605  0.1661  0.5901
  225MOL0     H31044   2.492   3.345  11.162 -0.4544 -1.6540 -0.5941
  225MOL0     H31045   2.648   3.425  11.195 -2.0959  1.8205 -0.4433
  225MOL0     H31046   2.618   3.229  11.559 -0.7662 -1.2472  0.3362
  225MOL0     H31047   2.849   3.137  10.692  0.1953 -1.4356 -0.3720
  225MOL0     H31048   2.914   3.072  10.418  0.1500  0.6726  0.3462
  225MOL0     H31049   2.816   3.183  10.498 -1.0012 -5.3822  0.7646
  225MOL0     H31050   2.942   3.248  10.377  1.1422  0.5402  1.0518
  226MOL0     O31051   7.181   5.749   9.012  0.1917 -0.4435 -0.4802
  226MOL0     C31052   7.067   5.728   9.066  0.3254 -0.2110  0.6624
  226MOL0     O31053   7.021   5.605   9.100 -0.0054 -0.0623 -0.6406
  226MOL0     C31054   7.117   5.506   9.105  0.3895 -0.4260 -0.1624
  226MOL0     C31055   7.158   5.431   8.997 -0.0716  0.6624 -0.6859
  226MOL0     C31056   7.248   5.324   9.018 -0.5081  0.0737  0.2861
  226MOL0     C31057   7.296   5.293   9.138 -0.3755  0.0147  0.4858
  226MOL0     O31058   7.390   5.197   9.147  0.4882  0.4874 -0.2809
  226MOL0     C31059   7.423   5.122   9.032  0.0050 -0.5834 -0.6799
  226MOL0     C31060   7.525   5.007   9.065 -0.1397 -1.9359  0.5141
  226MOL0     C31061   7.459   4.912   9.154 -0.0916 -0.4770  0.1088
  226MOL0     C31062   7.355   4.826   9.082  0.8723  0.2996 -0.0161
  226MOL0     C31063   7.299   4.720   9.173  0.6471  0.5212 -0.0560
  226MOL0     C31064   7.185   4.640   9.117 -0.1352  1.1594 -0.4377
  226MOL0     C31065   7.130   4.546   9.230  0.3017 -0.0318 -0.2733
  226MOL0     C31066   7.014   4.448   9.183 -0.0903 -0.2930  0.1763
  226MOL0     N31067   7.051   4.388   9.047 -0.1060  0.7282 -0.3438
  226MOL0     C31068   7.131   4.279   9.035  0.1271  0.1793  0.2690
  226MOL0     C31069   7.168   4.275   8.904  0.6254  0.7236  0.8774
  226MOL0     C31070   7.256   4.183   8.832  0.6778 -1.1673  0.5139
  226MOL0     C31071   7.184   4.054   8.778  0.1103 -0.2141 -0.7934
  226MOL0     C31072   7.263   3.977   8.664 -0.4188 -0.9930 -0.5757
  226MOL0     C31073   7.325   4.062   8.549  0.1360  0.3103 -0.1247
  226MOL0     O31074   7.216   4.113   8.474  0.7481 -0.4202 -0.1541
  226MOL0     C31075   7.225   4.246   8.431  0.5515 -0.6086 -0.0806
  226MOL0     C31076   7.322   4.299   8.353  0.7369  0.7249 -1.0614
  226MOL0     C31077   7.314   4.423   8.301 -0.9715 -0.3461  0.7437
  226MOL0     C31078   7.445   4.469   8.243 -0.0862  0.2225 -0.0696
  226MOL0     C31079   7.213   4.518   8.339  0.1391  0.4966 -0.6950
  226MOL0     C31080   7.200   4.658   8.298  0.6039  1.0673 -0.0008
  226MOL0     O31081   7.078   4.726   8.317  0.1160 -0.2456 -0.2458
  226MOL0     C31082   7.048   4.838   8.251 -0.1429 -0.1794  0.1626
  226MOL0     C31083   7.132   4.941   8.203 -0.0813 -0.1420 -0.2068
  226MOL0     C31084   7.080   5.051   8.129  0.6346 -0.3190 -1.0364
  226MOL0     C31085   6.946   5.065   8.104  0.4314 -0.0528  0.0020
  226MOL0     O31086   6.914   5.190   8.043 -0.4294 -0.5255  0.8665
  226MOL0     C31087   6.783   5.231   8.013  0.1851 -0.1354 -0.3700
  226MOL0     C31088   6.733   5.302   8.137 -1.4135  0.4856 -0.2931
  226MOL0     C31089   6.624   5.391   8.091  1.4128 -0.0589 -1.0845
  226MOL0     C31090   6.538   5.426   8.217  0.2077 -0.6808 -0.6764
  226MOL0     C31091   6.405   5.493   8.171  0.7000 -0.7615  0.0152
  226MOL0     C31092   6.424   5.615   8.079  0.0796  0.8780 -0.1630
  226MOL0     C31093   6.286   5.692   8.065 -0.0583  1.0646  0.7805
  226MOL0     C31094   6.322   5.819   7.989  0.8610  0.5082 -1.5526
  226MOL0    Cl31095   6.378   5.779   7.820 -0.4526  0.2326  0.2046
  226MOL0     C31096   6.859   4.971   8.153 -0.8573 -0.6991  0.6167
  226MOL0     C31097   6.909   4.858   8.229 -1.3377  0.5781  0.0714
  226MOL0     O31098   7.299   4.707   8.252  0.0503  0.9663 -0.7690
  226MOL0     C31099   7.103   4.454   8.410 -0.5124  0.1188 -0.6122
  226MOL0     C31100   7.109   4.326   8.453 -0.6362  0.8588 -0.3220
  226MOL0     N31101   7.091   4.372   8.831 -0.4323 -0.1573 -0.6600
  226MOL0     N31102   7.030   4.442   8.924 -0.3546 -0.0921  0.3706
  226MOL0     C31103   7.252   5.362   9.252 -0.3456  0.2255 -0.3084
  226MOL0     C31104   7.161   5.466   9.233 -0.2078 -0.0280  0.4075
  226MOL0     C31105   6.972   5.844   9.105  0.5516 -0.4382  0.5390
  226MOL0     C31106   6.848   5.810   9.153 -0.3623  0.3282  0.1192
  226MOL0     C31107   6.761   5.899   9.206  0.0300 -0.3587  0.0981
  226MOL0     C31108   6.794   6.034   9.215  0.6709 -0.5323 -0.2511
  226MOL0     O31109   6.687   6.112   9.259  1.1318 -0.0141  0.0273
  226MOL0     C31110   6.707   6.253   9.252  0.4300  0.4333  0.3480
  226MOL0     C31111   6.657   6.318   9.119 -0.1542 -0.4655  0.5691
  226MOL0     C31112   6.624   6.457   9.159  0.1046  0.0536 -0.6642
  226MOL0     C31113   6.565   6.534   9.048 -0.3119 -0.2682  0.6516
  226MOL0     C31114   6.650   6.628   8.974  0.0087  0.2289  0.1543
  226MOL0     C31115   6.716   6.702   8.903 -1.3735  0.2985  0.3058
  226MOL0     C31116   6.907   6.081   9.150 -0.2174 -0.4225 -0.2518
  226MOL0     C31117   6.996   5.985   9.100  0.1678 -0.3301 -0.0326
  226MOL0     C31118   7.117   6.040   9.022 -1.2329  0.8969  0.2341
  226MOL0     H31119   7.113   5.461   8.903  1.1444  1.4652 -1.0456
  226MOL0     H31120   7.278   5.278   8.924  0.6628  3.7139 -1.2982
  226MOL0     H31121   7.464   5.187   8.954 -2.6264  1.1254 -0.7603
  226MOL0     H31122   7.335   5.074   8.987  1.9276 -3.4456 -1.6466
  226MOL0     H31123   7.551   4.971   8.965  2.0874  2.6044 -0.8023
  226MOL0     H31124   7.615   5.044   9.116 -1.3593 -0.0126  1.3643
  226MOL0     H31125   7.528   4.842   9.201 -0.0926 -0.4910  0.0898
  226MOL0     H31126   7.415   4.978   9.230  2.0093  3.0074 -1.4324
  226MOL0     H31127   7.273   4.886   9.040  0.9757  0.5585  0.1466
  226MOL0     H31128   7.406   4.774   9.002  1.8301  1.0115  0.1129
  226MOL0     H31129   7.262   4.765   9.266 -0.2341 -0.8410  0.2920
  226MOL0     H31130   7.375   4.644   9.195 -0.2921 -0.1963  0.8524
  226MOL0     H31131   7.117   4.708   9.064  0.5199  1.9098 -0.3259
  226MOL0     H31132   7.227   4.585   9.032 -1.9751  2.4523 -2.2706
  226MOL0     H31133   7.089   4.621   9.298  2.6458  1.1842 -0.1142
  226MOL0     H31134   7.215   4.488   9.266  0.3905  0.7975  0.9069
  226MOL0     H31135   6.994   4.383   9.269  0.4931  0.4692  0.9055
  226MOL0     H31136   6.932   4.515   9.157 -2.0991 -3.0245 -0.8952
  226MOL0     H31137   7.172   4.223   9.118  0.8453 -1.6229 -1.2341
  226MOL0     H31138   7.342   4.159   8.895 -0.5488  0.2566  2.8909
  226MOL0     H31139   7.299   4.252   8.760  1.1913 -0.7546  1.1954
  226MOL0     H31140   7.158   3.995   8.867 -0.7173  0.5443 -0.5138
  226MOL0     H31141   7.084   4.073   8.737  0.4484  1.7279 -0.8450
  226MOL0     H31142   7.346   3.928   8.717 -0.8811  0.6735  1.8717
  226MOL0     H31143   7.214   3.893   8.613  0.9895 -1.5528 -1.0521
  226MOL0     H31144   7.398   4.137   8.581  1.5108 -1.4824  1.1316
  226MOL0     H31145   7.386   4.002   8.481  0.4550 -0.6489  0.9780
  226MOL0     H31146   7.408   4.237   8.328  1.7789  1.8486 -0.3235
  226MOL0     H31147   7.522   4.393   8.225  0.6471  1.2602 -1.5653
  226MOL0     H31148   7.488   4.535   8.319 -0.9304  0.4829  0.1917
  226MOL0     H31149   7.425   4.529   8.153 -0.6937 -0.8272 -0.6502
  226MOL0     H31150   7.238   4.921   8.214  0.1407  1.6450  1.4990
  226MOL0     H31151   7.151   5.124   8.091  2.2796 -1.7568 -0.8604
  226MOL0     H31152   6.791   5.299   7.927 -0.7936 -1.8453 -1.8907
  226MOL0     H31153   6.715   5.156   7.971  0.8067 -1.0741  0.2627
  226MOL0     H31154   6.690   5.230   8.208  1.6330 -0.7050  0.4970
  226MOL0     H31155   6.814   5.351   8.192 -0.7822 -2.2195  1.3908
  226MOL0     H31156   6.551   5.351   8.020 -2.1411 -1.2844  2.8096
  226MOL0     H31157   6.674   5.484   8.063  0.0497  2.5127  3.8231
  226MOL0     H31158   6.590   5.488   8.290 -1.0620  0.3153 -0.5812
  226MOL0     H31159   6.503   5.336   8.268 -1.5643  0.7717  0.7876
  226MOL0     H31160   6.348   5.408   8.132  0.9483 -0.8919 -0.0681
  226MOL0     H31161   6.352   5.532   8.258  0.3551 -0.3131 -0.3967
  226MOL0     H31162   6.443   5.577   7.978 -1.1986 -1.2685  0.3442
  226MOL0     H31163   6.506   5.679   8.114  3.6436 -1.8993 -2.6813
  226MOL0     H31164   6.245   5.712   8.164 -0.5792  3.0822  0.2201
  226MOL0     H31165   6.217   5.627   8.010  2.2841 -0.7029 -0.2430
  226MOL0     H31166   6.407   5.872   8.032  1.6057 -0.4784 -1.7755
  226MOL0     H31167   6.238   5.887   8.002  2.5709  2.2773  1.3052
  226MOL0     H31168   6.754   4.973   8.124 -0.1811 -2.8752 -2.4209
  226MOL0     H31169   6.837   4.787   8.270 -0.6679  0.2548  0.7063
  226MOL0     H31170   7.014   4.510   8.437  0.4306  0.9711  0.8791
  226MOL0     H31171   7.032   4.286   8.517 -0.8417 -0.7094 -1.4992
  226MOL0     H31172   7.281   5.322   9.349 -2.4694 -5.0380 -1.4493
  226MOL0     H31173   7.123   5.526   9.315 -1.7739  2.5264 -2.0151
  226MOL0     H31174   6.823   5.705   9.143  2.7013 -0.3937 -0.9976
  226MOL0     H31175   6.662   5.865   9.236  0.2906 -1.6845 -0.4743
  226MOL0     H31176   6.653   6.297   9.336  0.0913  0.5116  0.0895
  226MOL0     H31177   6.811   6.274   9.282  1.6866 -3.5632 -0.6089
  226MOL0     H31178   6.575   6.263   9.070 -0.5053  0.2592  0.3308
  226MOL0     H31179   6.732   6.322   9.039 -2.7106 -2.6271 -2.1910
  226MOL0     H31180   6.549   6.458   9.238 -0.6834 -1.7707 -1.3361
  226MOL0     H31181   6.704   6.512   9.209 -1.6703  2.4828 -0.3356
  226MOL0     H31182   6.484   6.598   9.083 -0.4244  0.7146 -1.2699
  226MOL0     H31183   6.517   6.455   8.988 -2.3332  0.1881  1.5682
  226MOL0     H31184   6.766   6.773   8.839  0.3555  0.9656  2.2963
  226MOL0     H31185   6.916   6.184   9.116  2.0004  0.3999  2.4046
  226MOL0     H31186   7.211   6.008   9.068 -0.5476  1.2814 -0.8549
  226MOL0     H31187   7.127   6.010   8.917  0.2764  1.8986  0.0600
  226MOL0     H31188   7.115   6.149   9.032 -1.5063  0.7270  2.5716
  227MOL0     O31189   6.951   5.118   0.750 -0.4269 -0.7754 -0.1914
  227MOL0     C31190   6.912   5.231   0.713 -0.5564 -0.0020 -0.1558
  227MOL0     O31191   6.790   5.247   0.651  0.1012 -0.4623 -0.5000
  227MOL0     C31192   6.691   5.149   0.659  0.4109  0.1309 -0.0408
  227MOL0     C31193   6.638   5.092   0.546  1.2411 -0.1692 -0.7848
  227MOL0     C31194   6.543   4.997   0.553  0.4012  1.0530  0.1659
  227MOL0     C31195   6.500   4.944   0.678  0.5628  1.0168 -0.0100
  227MOL0     O31196   6.411   4.847   0.689  0.4306  0.0963 -0.0116
  227MOL0     C31197   6.371   4.758   0.578 -0.2649  1.4932  0.5311
  227MOL0     C31198   6.243   4.789   0.494 -0.2938  0.3101  0.0555
  227MOL0     C31199   6.212   4.658   0.416  0.3004 -0.0615  0.9998
  227MOL0     C31200   6.091   4.687   0.323 -0.0346  0.1474  0.2900
  227MOL0     C31201   6.057   4.568   0.230 -0.2031 -0.1297 -0.6185
  227MOL0     C31202   5.914   4.589   0.159  0.5244 -0.1119 -0.4809
  227MOL0     C31203   5.895   4.477   0.051 -0.4137 -0.9762 -0.7131
  227MOL0     C31204   5.794   4.518  -0.063 -0.4652 -0.2822  0.1095
  227MOL0     N31205   5.845   4.630  -0.150  0.2489  0.1700 -0.3737
  227MOL0     C31206   5.946   4.622  -0.239  0.2930 -0.0189 -0.7732
  227MOL0     C31207   5.968   4.748  -0.268 -0.3211 -0.2672 -0.3649
  227MOL0     C31208   6.074   4.798  -0.358  0.5129  0.2368 -0.3646
  227MOL0     C31209   6.118   4.942  -0.334 -0.2433 -0.0895  0.3963
  227MOL0     C31210   6.229   4.967  -0.222 -0.2067  0.9714 -0.5852
  227MOL0     C31211   6.183   4.956  -0.073  0.5190  0.0284  0.3954
  227MOL0     O31212   6.300   4.950   0.014 -0.6006 -0.4502 -0.0596
  227MOL0     C31213   6.339   5.075   0.063  0.8418  0.3740  0.1953
  227MOL0     C31214   6.282   5.114   0.184 -0.6298  0.5868 -0.2549
  227MOL0     C31215   6.325   5.230   0.255  0.1077  0.2514  0.9398
  227MOL0     C31216   6.287   5.251   0.396  0.7614  0.0891 -0.1250
  227MOL0     C31217   6.408   5.322   0.179  1.0697  0.0695 -0.2003
  227MOL0     C31218   6.441   5.455   0.223 -0.4600  0.5616 -1.8445
  227MOL0     O31219   6.568   5.505   0.191 -0.7892  0.2915 -0.2859
  227MOL0     C31220   6.627   5.589   0.278 -0.8476  0.7939 -1.1895
  227MOL0     C31221   6.635   5.568   0.418  1.3949 -0.5011 -0.6976
  227MOL0     C31222   6.680   5.667   0.506 -0.5734  0.0845 -0.8616
  227MOL0     C31223   6.736   5.793   0.458  0.2156  0.3226 -0.0815
  227MOL0     O31224   6.766   5.891   0.546  0.4540  0.7207  0.5032
  227MOL0     C31225   6.760   6.019   0.483 -0.4786  0.6858  0.7397
  227MOL0     C31226   6.802   6.108   0.599  0.4338  0.8154 -0.1846
  227MOL0     C31227   6.838   6.255   0.574  0.2470 -1.0105 -0.5611
  227MOL0     C31228   6.706   6.333   0.583 -0.0977  0.1260  0.2091
  227MOL0     C31229   6.713   6.475   0.528 -1.1528  0.5600  0.0440
  227MOL0     C31230   6.805   6.552   0.630 -0.2889  0.1404  0.8632
  227MOL0     C31231   6.854   6.692   0.606 -0.3910 -0.3068  0.6139
  227MOL0     C31232   6.740   6.794   0.618 -0.4902  0.2771  0.5645
  227MOL0    Cl31233   6.739   6.826   0.799 -0.0723 -0.0864 -0.0699
  227MOL0     C31234   6.747   5.798   0.318 -0.4083 -0.1591  0.3055
  227MOL0     C31235   6.691   5.696   0.229  0.0244 -0.8931  0.5293
  227MOL0     O31236   6.350   5.519   0.282  0.0132 -0.4222 -0.6533
  227MOL0     C31237   6.469   5.275   0.064 -0.2217  0.2099  0.1977
  227MOL0     C31238   6.441   5.156   0.007  0.5322  0.9516 -0.0389
  227MOL0     N31239   5.874   4.831  -0.202 -0.4472 -0.9326 -0.2765
  227MOL0     N31240   5.808   4.760  -0.125 -0.5782  0.0751 -0.4621
  227MOL0     C31241   6.554   4.992   0.791 -0.2644  0.2015 -0.8473
  227MOL0     C31242   6.650   5.090   0.785  0.0261  0.0386 -0.7041
  227MOL0     C31243   7.003   5.344   0.723  0.4413 -0.8084 -0.0991
  227MOL0     C31244   6.960   5.469   0.672 -0.3000  0.2090  0.3675
  227MOL0     C31245   7.029   5.591   0.702 -0.2021  0.4989 -0.3879
  227MOL0     C31246   7.158   5.582   0.763 -0.3037 -0.8384  0.2696
  227MOL0     O31247   7.224   5.699   0.787 -0.6719  0.3728 -0.2365
  227MOL0     C31248   7.314   5.717   0.898  0.4430  0.1034 -0.1117
  227MOL0     C31249   7.295   5.843   0.985  0.6498  0.2474 -0.1860
  227MOL0     C31250   7.144   5.850   1.030 -0.1158  0.0387  0.4428
  227MOL0     C31251   7.122   5.965   1.130  0.7254 -0.3662 -0.1754
  227MOL0     C31252   7.151   5.913   1.263 -0.1815  0.5762 -0.9310
  227MOL0     C31253   7.173   5.883   1.379  0.9568 -0.1023  0.2507
  227MOL0     C31254   7.205   5.460   0.800 -0.3174 -1.1521  0.0745
  227MOL0     C31255   7.129   5.345   0.791  1.4232  0.2108  0.1786
  227MOL0     C31256   7.194   5.236   0.867 -0.1233 -0.5588  0.6507
  227MOL0     H31257   6.664   5.126   0.446 -2.7021  0.7925 -1.6707
  227MOL0     H31258   6.508   4.960   0.458 -3.0200  1.1017  1.2835
  227MOL0     H31259   6.354   4.667   0.636 -0.1014  1.9223  1.2577
  227MOL0     H31260   6.454   4.745   0.508 -1.0136  0.6411 -0.2229
  227MOL0     H31261   6.158   4.822   0.554  0.4197  1.7060  0.3299
  227MOL0     H31262   6.267   4.873   0.428  0.3381  0.7152  0.7847
  227MOL0     H31263   6.305   4.624   0.368  0.9498  2.9781 -0.1429
  227MOL0     H31264   6.181   4.586   0.492 -3.4262 -0.1962 -0.4636
  227MOL0     H31265   6.005   4.715   0.385 -1.7103 -1.8335 -1.0025
  227MOL0     H31266   6.120   4.775   0.265  0.2397 -0.2290 -0.1512
  227MOL0     H31267   6.061   4.479   0.294 -2.0723 -0.2033 -0.5502
  227MOL0     H31268   6.134   4.551   0.154  1.9792 -1.4667  1.7242
  227MOL0     H31269   5.831   4.584   0.229 -1.3936 -0.5428 -2.6901
  227MOL0     H31270   5.917   4.685   0.105  1.8829 -0.4715 -1.1118
  227MOL0     H31271   5.866   4.390   0.110  0.3507 -0.5228  0.3420
  227MOL0     H31272   5.993   4.447   0.013  1.1537  0.3113  2.0613
  227MOL0     H31273   5.783   4.434  -0.132 -0.0352 -0.6828  0.5241
  227MOL0     H31274   5.695   4.531  -0.017 -0.5917 -1.6775  0.2761
  227MOL0     H31275   6.003   4.532  -0.260  0.9606  0.3927 -0.7545
  227MOL0     H31276   6.028   4.809  -0.456  1.0595  0.4340 -0.6074
  227MOL0     H31277   6.153   4.722  -0.366  0.6562  0.5968 -3.0093
  227MOL0     H31278   6.169   4.982  -0.423  0.3803  1.3894  1.3722
  227MOL0     H31279   6.038   5.013  -0.312  0.9677  1.1642  0.9291
  227MOL0     H31280   6.315   4.899  -0.231 -0.4469 -0.0119  2.9095
  227MOL0     H31281   6.280   5.062  -0.239  0.8187  0.7457  0.9774
  227MOL0     H31282   6.123   5.045  -0.048 -0.0206 -0.5929  1.3808
  227MOL0     H31283   6.119   4.869  -0.056 -0.1392  0.4901  0.3205
  227MOL0     H31284   6.211   5.047   0.232  1.9978 -0.8359  1.9041
  227MOL0     H31285   6.293   5.157   0.452 -3.4615 -0.5125 -0.3394
  227MOL0     H31286   6.183   5.282   0.410  0.7774  0.5714 -1.0086
  227MOL0     H31287   6.347   5.326   0.450  0.8321 -1.9942  2.9686
  227MOL0     H31288   6.593   5.478   0.462 -1.9249  1.8489  1.4776
  227MOL0     H31289   6.660   5.654   0.612 -0.3832  2.7596 -0.4279
  227MOL0     H31290   6.835   6.037   0.405  0.7018 -0.4544  1.5732
  227MOL0     H31291   6.666   6.051   0.437 -0.6829 -2.4811 -1.3452
  227MOL0     H31292   6.730   6.084   0.678  0.0942 -1.9538 -1.2071
  227MOL0     H31293   6.890   6.051   0.632 -0.4517  1.0762  3.0130
  227MOL0     H31294   6.885   6.264   0.476 -2.3657 -3.5810 -2.2120
  227MOL0     H31295   6.903   6.293   0.653 -1.3667 -0.0422  0.3562
  227MOL0     H31296   6.674   6.342   0.687  1.2565 -3.5510  1.0921
  227MOL0     H31297   6.631   6.271   0.533  0.8366 -1.6544  0.9387
  227MOL0     H31298   6.748   6.467   0.424  0.2261 -4.5864  0.6108
  227MOL0     H31299   6.610   6.511   0.526 -1.5815 -0.5986 -2.2712
  227MOL0     H31300   6.899   6.500   0.650  0.7130  0.8851 -1.6292
  227MOL0     H31301   6.753   6.545   0.727 -0.5701 -2.3096  0.5953
  227MOL0     H31302   6.890   6.689   0.503 -1.1011 -2.5999  0.3752
  227MOL0     H31303   6.923   6.720   0.686 -1.7450 -0.1225  1.7456
  227MOL0     H31304   6.644   6.750   0.588  0.4183 -1.6920  0.3583
  227MOL0     H31305   6.771   6.886   0.568  0.5175  0.9075  2.2442
  227MOL0     H31306   6.801   5.869   0.257  1.0657  1.2235  2.9913
  227MOL0     H31307   6.703   5.708   0.122 -0.0910 -2.8922  0.2501
  227MOL0     H31308   6.537   5.347   0.020  0.9185 -1.6194 -1.1303
  227MOL0     H31309   6.474   5.122  -0.091  0.1628  1.5530 -0.3808
  227MOL0     H31310   6.522   4.958   0.889  1.3280  2.0021  0.3628
  227MOL0     H31311   6.682   5.120   0.885 -1.1573  2.6509 -1.0199
  227MOL0     H31312   6.867   5.483   0.618 -0.4517 -1.2022  0.2132
  227MOL0     H31313   6.993   5.685   0.660 -0.5275  0.9071  0.7786
  227MOL0     H31314   7.306   5.641   0.977  2.2009  1.3334  1.3376
  227MOL0     H31315   7.414   5.709   0.853  0.5613  0.0106  0.1632
  227MOL0     H31316   7.317   5.933   0.926 -1.2118  2.0854  1.7342
  227MOL0     H31317   7.357   5.838   1.075 -0.8476 -0.2107  0.8520
  227MOL0     H31318   7.078   5.873   0.946  2.0889 -1.7001 -1.9237
  227MOL0     H31319   7.107   5.758   1.075  0.0011  0.6916  1.9568
  227MOL0     H31320   7.016   5.991   1.125  0.4686 -0.7435  2.2277
  227MOL0     H31321   7.187   6.051   1.110  0.2482  0.2418  0.8165
  227MOL0     H31322   7.197   5.857   1.480 -0.9500 -0.3792  0.6755
  227MOL0     H31323   7.306   5.464   0.841  0.4211  0.1807 -1.7386
  227MOL0     H31324   7.127   5.158   0.904 -3.3816  1.1980 -1.1427
  227MOL0     H31325   7.263   5.181   0.802  1.2402 -0.5775  2.0687
  227MOL0     H31326   7.264   5.272   0.943 -0.3892  1.7117 -0.1158
  228MOL0     O31327   4.620   6.555   4.722 -0.1404 -0.2468  0.9169
  228MOL0     C31328   4.691   6.452   4.735 -0.2385  0.0410  0.2494
  228MOL0     O31329   4.826   6.453   4.750 -0.0931  0.4646  0.2805
  228MOL0     C31330   4.874   6.565   4.812  0.3613  0.0102  0.3911
  228MOL0     C31331   4.874   6.680   4.729  0.6086 -0.2776  0.1556
  228MOL0     C31332   4.921   6.799   4.784  0.7260  0.1860  0.3370
  228MOL0     C31333   4.965   6.800   4.917 -0.2334  0.1292  0.7133
  228MOL0     O31334   4.998   6.924   4.959 -0.8446 -0.1859 -0.1415
  228MOL0     C31335   5.008   6.952   5.100  0.8429 -0.5659 -0.2749
  228MOL0     C31336   5.041   7.097   5.127 -0.4205 -0.9803 -0.0380
  228MOL0     C31337   4.934   7.189   5.055 -0.0434 -0.0773 -0.1754
  228MOL0     C31338   4.985   7.330   5.088  0.3429 -0.6140  0.4794
  228MOL0     C31339   4.884   7.440   5.062  0.0499  1.1564 -0.1344
  228MOL0     C31340   4.966   7.575   5.068 -0.0416 -0.6105 -0.7103
  228MOL0     C31341   4.878   7.704   5.056  0.0136  0.9255 -0.9518
  228MOL0     C31342   4.764   7.726   5.159  0.9070  0.0284  0.4158
  228MOL0     N31343   4.686   7.847   5.140  0.0968 -0.0997  0.6776
  228MOL0     C31344   4.730   7.977   5.158 -0.5960 -0.0682  0.1161
  228MOL0     C31345   4.620   8.051   5.135  0.5427  0.6120  0.1085
  228MOL0     C31346   4.621   8.206   5.144  0.8643  0.4586  0.3756
  228MOL0     C31347   4.756   8.266   5.152  0.1237  0.2656  0.2246
  228MOL0     C31348   4.759   8.402   5.206  0.1692  0.3274 -0.0952
  228MOL0     C31349   4.903   8.458   5.198  0.8784 -0.4766 -0.1912
  228MOL0     O31350   4.909   8.560   5.297  0.5854 -0.2600  0.0189
  228MOL0     C31351   4.961   8.525   5.424  1.0433  0.1665 -0.4216
  228MOL0     C31352   5.020   8.619   5.502 -0.4019  0.0794 -0.1496
  228MOL0     C31353   5.099   8.602   5.609 -0.7594  0.1493  0.2225
  228MOL0     C31354   5.180   8.722   5.675 -0.2343 -0.8177  0.5783
  228MOL0     C31355   5.098   8.472   5.666 -0.4588  0.4782 -0.0164
  228MOL0     C31356   5.184   8.426   5.785  0.1850 -0.0657 -0.8705
  228MOL0     O31357   5.165   8.297   5.823 -0.0452  0.2555  0.6352
  228MOL0     C31358   5.251   8.242   5.917  0.1799 -0.8527  0.1540
  228MOL0     C31359   5.238   8.243   6.057  0.0283  0.6486  0.8341
  228MOL0     C31360   5.351   8.203   6.132  0.1114  0.7652 -0.6492
  228MOL0     C31361   5.462   8.143   6.068  0.3872  0.4838  0.5102
  228MOL0     O31362   5.569   8.080   6.136  0.2340 -0.1774  0.1760
  228MOL0     C31363   5.558   8.064   6.281  0.5947  1.2931  0.6067
  228MOL0     C31364   5.594   8.187   6.368  0.1277  0.2459  0.0873
  228MOL0     C31365   5.743   8.214   6.347  0.1160 -0.4360 -0.1052
  228MOL0     C31366   5.831   8.151   6.459 -0.1794 -0.2422  0.8216
  228MOL0     C31367   5.978   8.177   6.441 -0.8540  1.3596  0.9125
  228MOL0     C31368   6.034   8.305   6.510 -0.4182  0.4020  0.2286
  228MOL0     C31369   6.190   8.306   6.498  0.3504 -0.5784  0.6301
  228MOL0     C31370   6.261   8.414   6.579 -0.4513 -0.2642 -0.0254
  228MOL0    Cl31371   6.259   8.358   6.747  0.3699 -0.0022  0.1378
  228MOL0     C31372   5.457   8.125   5.934 -0.6499  0.5509  0.0770
  228MOL0     C31373   5.360   8.183   5.854 -0.5994  0.5830 -0.2292
  228MOL0     O31374   5.281   8.495   5.820 -0.7952 -0.3217 -0.7575
  228MOL0     C31375   5.029   8.372   5.598 -0.9807 -0.2785 -0.7287
  228MOL0     C31376   4.965   8.390   5.475 -0.9696  0.1137  0.3086
  228MOL0     N31377   4.514   7.965   5.104  0.5679  0.4622 -1.0215
  228MOL0     N31378   4.556   7.848   5.103 -0.3652  0.1744 -0.2142
  228MOL0     C31379   4.950   6.689   4.997  0.1465 -0.9297  0.0165
  228MOL0     C31380   4.903   6.571   4.941 -0.7444 -0.6995 -0.2652
  228MOL0     C31381   4.625   6.327   4.719 -0.0848  0.0355 -0.0527
  228MOL0     C31382   4.504   6.308   4.789 -0.2909  0.1308 -0.0461
  228MOL0     C31383   4.431   6.193   4.764 -0.3775  0.6733  0.2044
  228MOL0     C31384   4.470   6.084   4.685  0.1818  0.4794  0.0787
  228MOL0     O31385   4.378   5.974   4.676 -0.1733 -0.2716 -0.1290
  228MOL0     C31386   4.417   5.869   4.597 -0.8543  0.1042 -0.0854
  228MOL0     C31387   4.289   5.804   4.564  0.5068  0.4997  0.6060
  228MOL0     C31388   4.290   5.679   4.471  0.0059 -0.6509 -0.3012
  228MOL0     C31389   4.148   5.606   4.455 -0.3911  0.5355  0.6741
  228MOL0     C31390   4.178   5.494   4.361  0.1672 -0.0701 -0.1330
  228MOL0     C31391   4.199   5.412   4.275  0.5507  0.2571 -0.4955
  228MOL0     C31392   4.592   6.107   4.610  0.0995  0.4653  0.4852
  228MOL0     C31393   4.668   6.224   4.631  0.4173 -0.3586  0.3775
  228MOL0     C31394   4.802   6.228   4.556 -0.0075 -0.1598  0.1213
  228MOL0     H31395   4.840   6.665   4.627 -0.3867  0.3238  0.3862
  228MOL0     H31396   4.922   6.897   4.738  0.3504 -0.5839 -1.3984
  228MOL0     H31397   5.086   6.889   5.144 -0.5657 -2.2830 -0.1144
  228MOL0     H31398   4.920   6.924   5.159  1.9739 -1.4241  1.0404
  228MOL0     H31399   5.044   7.118   5.234  1.0175 -1.2069 -0.0156
  228MOL0     H31400   5.143   7.115   5.091 -1.0034 -1.9848 -2.4087
  228MOL0     H31401   4.926   7.185   4.946  1.6297  1.9715 -0.4461
  228MOL0     H31402   4.837   7.174   5.102  0.9668 -0.4353  1.9056
  228MOL0     H31403   5.018   7.332   5.192 -0.2881 -3.2206  0.7981
  228MOL0     H31404   5.074   7.348   5.026 -1.7903  1.5897 -2.2213
  228MOL0     H31405   4.793   7.434   5.123 -0.3167 -1.2385 -0.8239
  228MOL0     H31406   4.842   7.418   4.964 -1.1455 -2.4557  1.0221
  228MOL0     H31407   5.013   7.595   5.165  0.3039  2.1825 -1.3562
  228MOL0     H31408   5.037   7.579   4.984  1.7214  0.7551  0.7391
  228MOL0     H31409   4.822   7.697   4.962 -1.9911 -0.9198  0.2891
  228MOL0     H31410   4.946   7.790   5.054  3.3401 -1.4959 -1.1220
  228MOL0     H31411   4.698   7.640   5.151  1.2219 -0.1290 -0.6443
  228MOL0     H31412   4.799   7.727   5.262 -2.3010 -1.0066  1.6158
  228MOL0     H31413   4.826   8.003   5.200  0.7935 -1.4670 -1.9771
  228MOL0     H31414   4.577   8.236   5.240  1.9440  4.5104 -0.1843
  228MOL0     H31415   4.573   8.252   5.058  1.6296 -1.0728 -0.9359
  228MOL0     H31416   4.817   8.205   5.220  0.9801 -0.7857 -1.4164
  228MOL0     H31417   4.810   8.258   5.058  0.4655 -1.4631  0.5197
  228MOL0     H31418   4.691   8.465   5.148 -0.2111 -0.3768 -0.4281
  228MOL0     H31419   4.727   8.408   5.311 -0.4696  4.3511 -0.3595
  228MOL0     H31420   4.980   8.385   5.222 -0.2362 -2.2233 -1.6691
  228MOL0     H31421   4.923   8.501   5.099  1.1171  2.4983  1.0323
  228MOL0     H31422   5.012   8.714   5.450 -0.6477  1.1280  1.7178
  228MOL0     H31423   5.163   8.818   5.625 -2.3273 -2.2135 -1.6176
  228MOL0     H31424   5.285   8.693   5.661  0.4658  1.4414  0.7423
  228MOL0     H31425   5.147   8.737   5.778  0.8016 -1.7397  1.0691
  228MOL0     H31426   5.141   8.270   6.099 -0.2207 -0.4315  0.9938
  228MOL0     H31427   5.331   8.217   6.238  1.7227 -1.4102 -0.0066
  228MOL0     H31428   5.465   8.019   6.314  0.2596  1.2583 -0.3712
  228MOL0     H31429   5.634   7.988   6.302 -0.8446 -0.7156 -1.1754
  228MOL0     H31430   5.534   8.275   6.342  0.7528  0.9966  1.0996
  228MOL0     H31431   5.579   8.169   6.475  0.9556  0.9697  0.3352
  228MOL0     H31432   5.758   8.321   6.333 -2.5245 -0.3314 -3.6425
  228MOL0     H31433   5.778   8.184   6.247  0.0072  1.6856 -0.8326
  228MOL0     H31434   5.816   8.043   6.462  2.5993 -0.6904  0.8926
  228MOL0     H31435   5.796   8.198   6.552 -0.6875  1.9134 -0.3884
  228MOL0     H31436   6.032   8.088   6.476 -0.0093  0.9662 -1.2744
  228MOL0     H31437   6.000   8.182   6.334 -2.4833 -0.0576  0.4538
  228MOL0     H31438   6.007   8.297   6.615  3.0878 -1.0038  1.1411
  228MOL0     H31439   5.985   8.394   6.471 -0.0034  0.1533 -0.9073
  228MOL0     H31440   6.224   8.334   6.398  2.1324 -0.0305  1.3431
  228MOL0     H31441   6.230   8.210   6.531 -1.8521 -1.4935  0.8111
  228MOL0     H31442   6.220   8.515   6.567  3.4605  1.4567 -0.1248
  228MOL0     H31443   6.364   8.431   6.549 -0.0814 -2.0556  0.0907
  228MOL0     H31444   5.531   8.064   5.883 -1.9070  0.5885 -1.9109
  228MOL0     H31445   5.358   8.173   5.746 -1.8911 -0.2671 -0.1468
  228MOL0     H31446   5.034   8.266   5.625  0.1423 -0.0437  0.0685
  228MOL0     H31447   4.931   8.302   5.421 -0.8561  1.0200 -1.3391
  228MOL0     H31448   4.998   6.695   5.095  1.5480  3.5030 -0.7143
  228MOL0     H31449   4.884   6.491   5.013 -0.3790  0.4100  1.1006
  228MOL0     H31450   4.460   6.375   4.863 -1.8119  1.8663 -2.3674
  228MOL0     H31451   4.345   6.171   4.826  0.1447 -0.4656  0.5605
  228MOL0     H31452   4.453   5.910   4.503  1.0704  2.4694  1.5723
  228MOL0     H31453   4.490   5.803   4.645  1.4146  1.5856 -1.3290
  228MOL0     H31454   4.215   5.882   4.542 -0.9455 -0.7211  0.9889
  228MOL0     H31455   4.261   5.769   4.664 -0.8735  0.5662  0.2556
  228MOL0     H31456   4.322   5.713   4.372  0.6138 -2.3766 -0.7313
  228MOL0     H31457   4.356   5.601   4.511  2.7330  1.4810 -0.2783
  228MOL0     H31458   4.078   5.665   4.397  1.9562  1.0793 -1.8213
  228MOL0     H31459   4.112   5.553   4.544  0.6048 -2.5234 -0.5989
  228MOL0     H31460   4.190   5.335   4.200 -1.7152 -1.1025  1.0473
  228MOL0     H31461   4.614   6.033   4.533 -1.5204  1.0264 -0.5726
  228MOL0     H31462   4.880   6.208   4.630 -0.8126 -0.1153  0.9954
  228MOL0     H31463   4.797   6.143   4.487  0.4084 -0.2012  0.1390
  228MOL0     H31464   4.824   6.320   4.501 -0.0930  1.5475  2.7961
  229MOL0     O31465   7.216  11.351  10.966 -0.2338  1.1070 -0.9101
  229MOL0     C31466   7.130  11.270  10.939 -0.1333 -0.9614  1.3428
  229MOL0     O31467   7.007  11.280  10.981 -0.3035  0.4411 -0.1982
  229MOL0     C31468   6.951  11.389  11.030  0.1742 -0.2716 -0.3306
  229MOL0     C31469   6.975  11.519  10.986 -0.3857 -0.4870  0.6805
  229MOL0     C31470   6.924  11.634  11.046  0.0435  0.6721  0.1829
  229MOL0     C31471   6.852  11.618  11.160  0.1034  0.3365  0.9951
  229MOL0     O31472   6.831  11.737  11.237 -0.5466  0.1601  0.2841
  229MOL0     C31473   6.781  11.720  11.368  0.0316  0.7307  0.7320
  229MOL0     C31474   6.864  11.814  11.452 -0.0971  0.0617  0.0567
  229MOL0     C31475   7.015  11.816  11.437  0.2472  0.9682  0.4631
  229MOL0     C31476   7.070  11.681  11.453 -0.3710  0.4294 -0.4210
  229MOL0     C31477   7.216  11.681  11.436 -0.1498  0.8106 -0.3606
  229MOL0     C31478   7.281  11.550  11.483  0.4255 -0.4370 -0.8612
  229MOL0     C31479   7.250  11.438  11.386  0.5009 -0.6524  0.9176
  229MOL0     C31480   7.329  11.307  11.384  0.2670  0.7615  0.6967
  229MOL0     N31481   7.462  11.318  11.321  0.6202 -0.3164  0.9994
  229MOL0     C31482   7.516  11.264  11.203 -0.0623 -0.4030  0.8011
  229MOL0     C31483   7.641  11.297  11.199  0.5864 -0.6904  0.4191
  229MOL0     C31484   7.716  11.254  11.078 -1.0051 -0.2592 -0.0023
  229MOL0     C31485   7.689  11.357  10.968 -0.1085 -0.3796  0.1523
  229MOL0     C31486   7.751  11.320  10.841 -0.1271  0.4931 -0.2608
  229MOL0     C31487   7.709  11.421  10.744  0.1452 -0.5320  0.1652
  229MOL0     O31488   7.566  11.428  10.731  0.3465 -0.0033 -0.3855
  229MOL0     C31489   7.506  11.540  10.679  1.3340  0.1925  0.2638
  229MOL0     C31490   7.377  11.528  10.644 -0.2166  0.4267  0.4144
  229MOL0     C31491   7.295  11.631  10.588 -0.0547 -0.4180 -0.2557
  229MOL0     C31492   7.149  11.598  10.546  0.2335  0.0006 -0.0514
  229MOL0     C31493   7.347  11.761  10.561  0.1635 -0.3061  0.7445
  229MOL0     C31494   7.271  11.877  10.496 -0.5925  0.3387  0.1546
  229MOL0     O31495   7.348  11.993  10.503 -0.9039  0.0992  0.3403
  229MOL0     C31496   7.297  12.103  10.445  0.2908  0.1356 -0.5137
  229MOL0     C31497   7.252  12.103  10.315 -0.2023 -0.9145 -0.4662
  229MOL0     C31498   7.222  12.222  10.252 -0.3894  0.3062  0.7525
  229MOL0     C31499   7.211  12.340  10.326 -0.7986  0.0211 -0.4954
  229MOL0     O31500   7.166  12.462  10.278 -0.5009  0.1005 -0.0317
  229MOL0     C31501   7.281  12.525  10.215 -0.5139 -0.5461 -0.0064
  229MOL0     C31502   7.238  12.662  10.161 -0.1565 -0.0582  0.4809
  229MOL0     C31503   7.096  12.670  10.103 -0.1873  0.6660 -0.9181
  229MOL0     C31504   7.091  12.772   9.986 -1.1189 -1.0089 -0.4915
  229MOL0     C31505   6.945  12.811   9.947  0.7210  1.3738 -1.0991
  229MOL0     C31506   6.956  12.892   9.817  0.1401 -0.1390  0.0780
  229MOL0     C31507   6.828  12.972   9.808  0.0756 -0.1666  0.7367
  229MOL0     C31508   6.808  13.069   9.688 -0.1687  1.4634  0.2380
  229MOL0    Cl31509   6.681  13.188   9.717  0.2183  0.1599 -0.3501
  229MOL0     C31510   7.230  12.339  10.459 -0.4254 -0.5084 -0.8359
  229MOL0     C31511   7.279  12.216  10.513 -0.4491  0.0950 -0.4416
  229MOL0     O31512   7.161  11.876  10.460  0.6423  0.2198 -0.0609
  229MOL0     C31513   7.487  11.775  10.600 -0.6520  0.1885  0.2552
  229MOL0     C31514   7.559  11.670  10.669  0.9832  0.4910  0.2376
  229MOL0     N31515   7.663  11.374  11.311  0.0125 -0.2799  0.1106
  229MOL0     N31516   7.561  11.388  11.386 -0.2018 -0.1383  0.1096
  229MOL0     C31517   6.810  11.485  11.205  0.2480  0.0758  0.8638
  229MOL0     C31518   6.858  11.376  11.134 -0.6272  0.0357 -0.0142
  229MOL0     C31519   7.163  11.140  10.891  0.0673  1.0141 -0.3332
  229MOL0     C31520   7.073  11.032  10.902 -0.0225  0.5907  0.2991
  229MOL0     C31521   7.099  10.897  10.871 -0.7092 -0.2221 -0.0358
  229MOL0     C31522   7.229  10.865  10.820  0.0384  0.1700  0.1340
  229MOL0     O31523   7.274  10.745  10.786  0.7018  0.1769 -0.1289
  229MOL0     C31524   7.216  10.620  10.815  0.2168  0.3787  0.1854
  229MOL0     C31525   7.326  10.547  10.892 -0.0237 -0.9773  1.1833
  229MOL0     C31526   7.440  10.490  10.793  0.2713 -0.4547  0.6647
  229MOL0     C31527   7.532  10.401  10.873 -0.3341  0.6111 -1.0886
  229MOL0     C31528   7.643  10.370  10.779 -0.3334 -0.6821 -0.1754
  229MOL0     C31529   7.741  10.328  10.715  0.6041  0.3099 -0.2639
  229MOL0     C31530   7.315  10.970  10.793  0.8949  1.0460  0.9289
  229MOL0     C31531   7.280  11.106  10.822 -0.4701  0.3688 -0.3513
  229MOL0     C31532   7.402  11.192  10.799  0.8019 -0.2007  0.4147
  229MOL0     H31533   7.050  11.544  10.912 -0.8998  1.0128  0.6238
  229MOL0     H31534   6.976  11.720  11.005  3.0036 -1.5366 -1.0889
  229MOL0     H31535   6.789  11.620  11.411 -1.0630 -2.2137 -4.9041
  229MOL0     H31536   6.677  11.753  11.376 -0.4554 -1.0501  2.4448
  229MOL0     H31537   6.827  11.913  11.424 -1.3419  1.3350  5.2119
  229MOL0     H31538   6.842  11.800  11.558 -0.2640  0.3747  0.0670
  229MOL0     H31539   7.036  11.854  11.337  0.5159 -0.7291 -0.1608
  229MOL0     H31540   7.062  11.876  11.516  1.7545  1.2154 -0.5972
  229MOL0     H31541   7.036  11.651  11.552 -2.8877 -0.7446 -1.5681
  229MOL0     H31542   7.026  11.606  11.387 -0.8238 -0.0561  0.4162
  229MOL0     H31543   7.258  11.765  11.492  3.0440 -0.5203 -0.5263
  229MOL0     H31544   7.227  11.696  11.328 -0.6299  3.6493 -0.0952
  229MOL0     H31545   7.386  11.575  11.468 -0.0379  2.2546 -0.1362
  229MOL0     H31546   7.263  11.540  11.590  0.4663  1.7069 -0.6091
  229MOL0     H31547   7.262  11.479  11.285 -0.0913 -0.1792  1.0295
  229MOL0     H31548   7.141  11.423  11.387  0.5377 -0.9612  0.6019
  229MOL0     H31549   7.346  11.254  11.479  0.6342 -2.1467 -0.8861
  229MOL0     H31550   7.269  11.233  11.330  0.5024  2.3896 -1.9512
  229MOL0     H31551   7.464  11.199  11.133 -0.3592  0.9677 -0.3176
  229MOL0     H31552   7.685  11.151  11.057  1.6430 -1.2781  0.7333
  229MOL0     H31553   7.821  11.250  11.106 -0.6955  2.5738 -0.4839
  229MOL0     H31554   7.582  11.373  10.948 -0.1180 -1.8036 -1.1192
  229MOL0     H31555   7.740  11.446  11.006  1.3165 -1.3353  0.5449
  229MOL0     H31556   7.859  11.314  10.857  0.0388 -2.5458 -1.8291
  229MOL0     H31557   7.708  11.226  10.806 -1.3107  1.3529 -1.1851
  229MOL0     H31558   7.765  11.511  10.771  2.8273 -2.1649  0.4075
  229MOL0     H31559   7.738  11.405  10.640 -0.8816  1.0775 -0.4023
  229MOL0     H31560   7.333  11.429  10.655  2.7486 -0.8795  1.4023
  229MOL0     H31561   7.128  11.491  10.558  1.5936 -0.4798 -1.5595
  229MOL0     H31562   7.135  11.616  10.439 -1.1279  2.1675  0.4345
  229MOL0     H31563   7.077  11.660  10.599 -0.4428 -2.1460  1.6561
  229MOL0     H31564   7.247  12.007  10.265  0.7221 -1.1653 -0.1037
  229MOL0     H31565   7.204  12.214  10.145  2.3583 -0.0019  0.2431
  229MOL0     H31566   7.375  12.522  10.270 -2.2155 -0.1750  3.1233
  229MOL0     H31567   7.304  12.465  10.126  1.0137  1.4551 -1.0456
  229MOL0     H31568   7.240  12.721  10.254  2.7150 -0.6073  0.8680
  229MOL0     H31569   7.308  12.690  10.082 -1.3738  0.6686 -0.3698
  229MOL0     H31570   7.027  12.692  10.186 -0.8548 -1.7907 -0.7235
  229MOL0     H31571   7.065  12.575  10.058 -2.9109  1.4810 -0.9625
  229MOL0     H31572   7.146  12.717   9.909  2.2508  3.1293 -1.4132
  229MOL0     H31573   7.161  12.851  10.014  0.1013 -2.7848  1.8657
  229MOL0     H31574   6.892  12.716   9.937  3.6790 -1.0774  3.0759
  229MOL0     H31575   6.891  12.867  10.024  0.6840 -1.1826  0.8527
  229MOL0     H31576   6.977  12.833   9.726  1.9413 -0.4776  0.6676
  229MOL0     H31577   7.034  12.968   9.820 -0.5076  0.5071  1.2780
  229MOL0     H31578   6.833  13.033   9.899  3.2703  2.0268 -0.7246
  229MOL0     H31579   6.739  12.910   9.821 -1.0114  1.2416  0.1945
  229MOL0     H31580   6.777  13.000   9.610  2.8428 -1.4589  1.4082
  229MOL0     H31581   6.906  13.117   9.672  2.7232 -3.5691  0.8127
  229MOL0     H31582   7.205  12.431  10.512 -1.2035 -1.4772  0.5422
  229MOL0     H31583   7.302  12.212  10.619 -0.6309  0.8043 -0.3706
  229MOL0     H31584   7.539  11.869  10.591  2.8341 -1.5317  0.7204
  229MOL0     H31585   7.651  11.689  10.724 -0.0167 -1.3537  2.7224
  229MOL0     H31586   6.731  11.468  11.278 -2.4968 -0.6414 -2.0405
  229MOL0     H31587   6.824  11.278  11.165 -2.0076  1.1745  2.2909
  229MOL0     H31588   6.974  11.068  10.925  0.2001  4.1782 -3.1938
  229MOL0     H31589   7.024  10.821  10.890 -3.5585  1.6721 -2.9233
  229MOL0     H31590   7.127  10.632  10.877  1.7008  1.5457  2.2315
  229MOL0     H31591   7.181  10.569  10.725  0.3472 -1.7060  1.2476
  229MOL0     H31592   7.289  10.456  10.939 -0.4787 -0.6520  1.4626
  229MOL0     H31593   7.375  10.603  10.973  2.5525 -3.4858  1.5356
  229MOL0     H31594   7.401  10.424  10.715 -1.2769  0.2492  0.8061
  229MOL0     H31595   7.497  10.575  10.755  0.6159 -1.6297 -1.5444
  229MOL0     H31596   7.476  10.310  10.899  1.7898 -0.4352  0.1010
  229MOL0     H31597   7.569  10.447  10.966 -1.1683  3.9158 -2.2738
  229MOL0     H31598   7.831  10.307  10.662  0.5610  1.2409 -0.7345
  229MOL0     H31599   7.410  10.937  10.751  0.0031 -2.9104  1.5793
  229MOL0     H31600   7.377  11.298  10.801  2.3691  0.1830  1.1125
  229MOL0     H31601   7.473  11.195  10.882 -0.7190  1.7251  1.7355
  229MOL0     H31602   7.445  11.167  10.702  0.2082 -0.3919  0.1945
  230MOL0     O31603  10.479  11.128   1.681  0.0461  0.4270 -0.5878
  230MOL0     C31604  10.435  11.242   1.662 -0.0762  0.3977 -0.5502
  230MOL0     O31605  10.476  11.359   1.720  0.4762  0.1464 -0.2017
  230MOL0     C31606  10.584  11.354   1.802  0.7303 -0.1505 -0.2657
  230MOL0     C31607  10.715  11.366   1.755 -0.0726  0.4889  0.6414
  230MOL0     C31608  10.820  11.371   1.850  0.1273  0.7667 -0.7436
  230MOL0     C31609  10.786  11.367   1.988  0.1335  0.2207 -0.0363
  230MOL0     O31610  10.881  11.397   2.089 -0.4880 -0.1208 -0.4373
  230MOL0     C31611  11.010  11.345   2.064 -0.2553  1.3023 -0.4789
  230MOL0     C31612  11.020  11.193   2.059  0.4354  0.4789 -0.0502
  230MOL0     C31613  11.168  11.153   2.042 -0.5491 -0.1736 -0.1069
  230MOL0     C31614  11.182  11.012   2.003  0.0326  0.0211 -0.0346
  230MOL0     C31615  11.180  11.003   1.857  0.0779  0.1155 -0.4786
  230MOL0     C31616  11.179  10.853   1.802  0.5520  0.8917  0.1411
  230MOL0     C31617  11.316  10.780   1.832  0.9930  0.6494 -0.4727
  230MOL0     C31618  11.317  10.627   1.806  0.5975  0.0111 -0.6172
  230MOL0     N31619  11.316  10.608   1.664 -0.6181  0.5085  0.3406
  230MOL0     C31620  11.418  10.644   1.571  0.2366  0.2993  0.8848
  230MOL0     C31621  11.366  10.607   1.448 -0.3996 -0.7755 -0.5330
  230MOL0     C31622  11.434  10.599   1.324  0.3446  0.1907  0.3655
  230MOL0     C31623  11.512  10.718   1.276 -0.2335 -0.7068  0.3025
  230MOL0     C31624  11.422  10.831   1.228 -0.1237 -1.0829  0.5175
  230MOL0     C31625  11.354  10.906   1.339 -0.3747  0.3180 -0.1830
  230MOL0     O31626  11.437  10.945   1.452 -0.1284 -0.2885 -0.1022
  230MOL0     C31627  11.399  11.064   1.511 -0.1016 -0.2264 -0.2541
  230MOL0     C31628  11.265  11.117   1.516 -0.7610  0.3783 -0.1079
  230MOL0     C31629  11.240  11.234   1.585  0.1791 -0.3171  0.4559
  230MOL0     C31630  11.106  11.295   1.560  0.0956  0.3260  0.5958
  230MOL0     C31631  11.335  11.293   1.666 -0.3740 -0.0477 -0.4162
  230MOL0     C31632  11.317  11.411   1.749  0.7880 -0.2428 -0.2597
  230MOL0     O31633  11.420  11.422   1.837 -0.3836 -0.5937 -0.4357
  230MOL0     C31634  11.406  11.498   1.948  0.7342  0.1406  0.7909
  230MOL0     C31635  11.366  11.440   2.065  0.2990  0.5206 -0.3577
  230MOL0     C31636  11.381  11.515   2.184 -0.4555 -0.1968 -0.6749
  230MOL0     C31637  11.414  11.643   2.193  0.0968  0.2405 -0.2212
  230MOL0     O31638  11.395  11.717   2.309 -0.1372  1.0687 -0.3658
  230MOL0     C31639  11.503  11.794   2.350  0.2003  0.5017  0.9022
  230MOL0     C31640  11.521  11.798   2.500  0.2232 -0.5131 -0.4613
  230MOL0     C31641  11.607  11.909   2.555  0.1155 -0.1590  0.7589
  230MOL0     C31642  11.623  11.919   2.707  0.5945  0.1678 -0.3599
  230MOL0     C31643  11.714  12.039   2.744  0.5802  0.7723  0.3566
  230MOL0     C31644  11.750  12.031   2.890  0.5645  0.1516 -0.0732
  230MOL0     C31645  11.817  12.152   2.944  0.1948 -0.2475 -0.1772
  230MOL0     C31646  11.731  12.246   3.031 -0.6988  0.3260 -0.4805
  230MOL0    Cl31647  11.710  12.159   3.194  0.5058  0.0435 -0.0089
  230MOL0     C31648  11.434  11.706   2.067  0.3009 -0.4895 -0.0476
  230MOL0     C31649  11.432  11.634   1.945  0.1776  0.9400 -0.1103
  230MOL0     O31650  11.221  11.489   1.735  0.3408  0.2634  0.2229
  230MOL0     C31651  11.467  11.232   1.668 -0.3715  0.1587 -0.9160
  230MOL0     C31652  11.497  11.120   1.591 -0.9223 -0.0547  0.2585
  230MOL0     N31653  11.236  10.573   1.475  0.2865 -0.4032 -0.0957
  230MOL0     N31654  11.199  10.583   1.600 -0.0405  0.0116  0.7638
  230MOL0     C31655  10.658  11.349   2.033  0.5030  0.7928  0.1043
  230MOL0     C31656  10.559  11.345   1.937 -0.2336 -0.4805  0.5178
  230MOL0     C31657  10.308  11.257   1.593 -0.3805  0.5062 -0.1944
  230MOL0     C31658  10.201  11.196   1.654 -0.4920 -0.0637 -0.1330
  230MOL0     C31659  10.078  11.192   1.593 -0.4379 -0.5389  0.9023
  230MOL0     C31660  10.063  11.253   1.467  0.5365 -0.9775  0.1062
  230MOL0     O31661   9.935  11.251   1.411 -0.7701 -0.0240  0.1239
  230MOL0     C31662   9.919  11.315   1.283  0.0100  0.8012  0.0962
  230MOL0     C31663   9.767  11.311   1.251 -0.0697 -0.6115 -0.7173
  230MOL0     C31664   9.708  11.364   1.120  0.1842 -0.2791 -0.1625
  230MOL0     C31665   9.580  11.279   1.077 -0.3002 -0.3558 -0.1148
  230MOL0     C31666   9.500  11.344   0.974  0.4419  1.1654  1.1025
  230MOL0     C31667   9.447  11.389   0.869 -0.0861  0.0690 -0.0767
  230MOL0     C31668  10.170  11.327   1.414  0.6217  0.2406 -0.3274
  230MOL0     C31669  10.298  11.330   1.473  0.0682  0.3939 -0.0091
  230MOL0     C31670  10.414  11.395   1.412  0.5386 -0.1917  0.1420
  230MOL0     H31671  10.751  11.360   1.652  2.1792 -4.7106  1.3958
  230MOL0     H31672  10.924  11.380   1.822  0.5443  0.2117  0.5221
  230MOL0     H31673  11.070  11.362   2.154  0.4716 -4.3515  0.5098
  230MOL0     H31674  11.061  11.394   1.981  0.8112 -1.0335 -1.2949
  230MOL0     H31675  10.974  11.158   2.152  2.9801 -1.1316  0.6982
  230MOL0     H31676  10.956  11.160   1.977  0.6587 -3.8412  1.2543
  230MOL0     H31677  11.215  11.218   1.968  2.3989 -1.7824  0.2123
  230MOL0     H31678  11.227  11.171   2.132  1.4727  0.3388 -1.4771
  230MOL0     H31679  11.280  10.982   2.042  0.1170 -0.3437 -0.5130
  230MOL0     H31680  11.112  10.945   2.054  1.8882 -1.0052  1.2932
  230MOL0     H31681  11.270  11.053   1.819 -0.5542  2.7787  1.2637
  230MOL0     H31682  11.089  11.045   1.813 -0.7492 -2.1865 -1.1141
  230MOL0     H31683  11.101  10.791   1.846 -0.0500  1.9071  0.5359
  230MOL0     H31684  11.163  10.858   1.694 -2.0411 -0.8251  0.3537
  230MOL0     H31685  11.345  10.802   1.935 -2.0580 -0.3857  0.7161
  230MOL0     H31686  11.390  10.820   1.763  0.7714 -0.0328 -1.1152
  230MOL0     H31687  11.404  10.579   1.852  0.9058 -2.4292 -3.4460
  230MOL0     H31688  11.239  10.576   1.862  2.4267 -2.0451  0.1964
  230MOL0     H31689  11.518  10.682   1.590  0.9922 -0.3043 -1.5598
  230MOL0     H31690  11.353  10.575   1.254 -1.6909  1.4079  2.1904
  230MOL0     H31691  11.499  10.512   1.338 -1.1018 -0.8731  0.7106
  230MOL0     H31692  11.586  10.740   1.354 -0.2841 -1.1949  0.4924
  230MOL0     H31693  11.572  10.693   1.188  0.9385  0.9648  0.5822
  230MOL0     H31694  11.466  10.904   1.159  0.0633 -0.7311  0.9949
  230MOL0     H31695  11.345  10.779   1.171  1.5717 -1.6076 -1.4236
  230MOL0     H31696  11.314  10.999   1.297 -2.8054 -0.4909  0.1337
  230MOL0     H31697  11.269  10.851   1.381 -1.0542  1.8970  0.6188
  230MOL0     H31698  11.191  11.062   1.459  0.8694 -2.6154  0.4448
  230MOL0     H31699  11.120  11.399   1.531  3.4893  0.1306  1.0895
  230MOL0     H31700  11.041  11.289   1.648 -1.2091  2.8307 -0.0952
  230MOL0     H31701  11.054  11.248   1.476  1.6267 -0.5995  0.1114
  230MOL0     H31702  11.342  11.335   2.068  1.7138  0.1701 -0.5004
  230MOL0     H31703  11.350  11.474   2.280 -1.0779  1.0158 -0.3297
  230MOL0     H31704  11.593  11.768   2.294 -0.6986 -1.0194  0.0759
  230MOL0     H31705  11.479  11.893   2.311 -1.8601  0.3346  1.5970
  230MOL0     H31706  11.421  11.812   2.542  1.5400 -0.5982  3.0470
  230MOL0     H31707  11.573  11.708   2.536  1.4213  0.2319 -0.2964
  230MOL0     H31708  11.557  11.999   2.520  1.7050  1.9145  3.4468
  230MOL0     H31709  11.709  11.898   2.518 -0.5935 -2.1539 -0.8197
  230MOL0     H31710  11.658  11.828   2.757 -1.9948  0.8980  3.1263
  230MOL0     H31711  11.524  11.924   2.754  1.1484 -1.4548  1.0924
  230MOL0     H31712  11.805  12.038   2.684 -0.0919  3.6681 -0.8960
  230MOL0     H31713  11.657  12.125   2.707 -1.5930  0.1062  1.9498
  230MOL0     H31714  11.819  11.949   2.912  3.0505  2.5304  1.7909
  230MOL0     H31715  11.649  12.015   2.929  0.6580 -2.0872 -0.6175
  230MOL0     H31716  11.834  12.206   2.850 -1.8327  2.2665  0.7763
  230MOL0     H31717  11.908  12.132   3.002 -0.7913 -0.4483  1.3670
  230MOL0     H31718  11.639  12.259   2.974 -1.2470 -0.5848  0.1797
  230MOL0     H31719  11.783  12.341   3.048  1.6236 -0.7258 -1.3038
  230MOL0     H31720  11.447  11.814   2.070 -0.5498 -0.3915  0.3793
  230MOL0     H31721  11.454  11.677   1.848  0.5251  2.7716  0.7346
  230MOL0     H31722  11.553  11.250   1.731 -0.0893  1.5430 -1.6534
  230MOL0     H31723  11.594  11.073   1.601 -0.7671 -0.1851 -1.5428
  230MOL0     H31724  10.640  11.350   2.140 -1.0855  1.2041 -0.1369
  230MOL0     H31725  10.461  11.352   1.982  0.9297 -1.7242  3.4917
  230MOL0     H31726  10.229  11.149   1.747  1.7417  1.7178  0.1839
  230MOL0     H31727   9.996  11.133   1.632  0.8295 -0.8127  3.3949
  230MOL0     H31728   9.957  11.417   1.269  0.8071  0.5695  0.5311
  230MOL0     H31729   9.961  11.252   1.204 -3.3852 -2.8038  0.8246
  230MOL0     H31730   9.722  11.364   1.335  0.3939  1.0776 -1.4950
  230MOL0     H31731   9.735  11.207   1.263  1.2585 -0.8044  1.7253
  230MOL0     H31732   9.678  11.469   1.128 -1.2319 -0.7192  0.6668
  230MOL0     H31733   9.790  11.367   1.048  0.2439  3.8258 -0.1522
  230MOL0     H31734   9.529  11.258   1.172  0.7864 -1.1721  0.2995
  230MOL0     H31735   9.621  11.189   1.030 -1.2206 -0.9052  0.0944
  230MOL0     H31736   9.396  11.438   0.789  2.6425  0.8670 -1.4539
  230MOL0     H31737  10.159  11.378   1.319 -1.3640  1.4508  0.4608
  230MOL0     H31738  10.514  11.367   1.444  0.2954 -0.6396  0.5154
  230MOL0     H31739  10.413  11.389   1.303  1.4050 -1.1594  0.1788
  230MOL0     H31740  10.396  11.500   1.437 -2.5696 -0.5123 -0.3397
  231MOL0     O31741   1.616   4.872   4.067 -0.6295  0.3087 -0.1723
  231MOL0     C31742   1.500   4.914   4.065  0.7230  0.1758 -0.6279
  231MOL0     O31743   1.451   5.004   4.168 -0.2371  0.3895 -0.2815
  231MOL0     C31744   1.540   5.079   4.245  1.3676  0.1533 -0.1442
  231MOL0     C31745   1.508   5.118   4.370 -0.6355  1.0360 -0.6681
  231MOL0     C31746   1.593   5.202   4.445  0.5514  0.6306  0.2890
  231MOL0     C31747   1.706   5.250   4.392 -0.1031 -0.1894  0.0876
  231MOL0     O31748   1.798   5.314   4.463 -0.7857 -0.1039 -0.7417
  231MOL0     C31749   1.850   5.251   4.584 -0.6939 -0.2360 -0.1331
  231MOL0     C31750   1.993   5.310   4.623 -0.6812 -0.0332 -0.2657
  231MOL0     C31751   2.054   5.263   4.754 -0.3876  0.2805  0.8143
  231MOL0     C31752   2.166   5.159   4.723  0.4490 -0.3304  0.2286
  231MOL0     C31753   2.233   5.103   4.847 -1.3770 -0.5398 -0.8671
  231MOL0     C31754   2.279   5.207   4.945 -0.2687 -0.7893 -0.1040
  231MOL0     C31755   2.356   5.165   5.072 -0.2022  0.6185 -0.3103
  231MOL0     C31756   2.491   5.101   5.029 -0.6897  0.2575 -0.5148
  231MOL0     N31757   2.578   5.051   5.138 -0.0468  1.0065  0.3950
  231MOL0     C31758   2.555   4.940   5.209 -0.5210 -0.0507  0.2318
  231MOL0     C31759   2.645   4.950   5.305 -0.8826  0.4013 -0.6569
  231MOL0     C31760   2.663   4.845   5.416  0.3614 -0.2248  0.2379
  231MOL0     C31761   2.803   4.780   5.423 -0.2400  0.2987  0.2813
  231MOL0     C31762   2.845   4.669   5.327 -0.2706  0.2787  0.4236
  231MOL0     C31763   2.790   4.525   5.367  1.6174  0.1864  0.0726
  231MOL0     O31764   2.778   4.442   5.252 -0.4206 -0.6808 -0.0587
  231MOL0     C31765   2.661   4.421   5.186  0.5036  0.4464  0.1794
  231MOL0     C31766   2.575   4.522   5.143 -0.5527  0.3420  0.3375
  231MOL0     C31767   2.470   4.492   5.050  0.6484 -1.3678 -1.4070
  231MOL0     C31768   2.399   4.612   4.978  0.7165 -0.5612  0.1485
  231MOL0     C31769   2.443   4.356   5.015 -0.4631  0.2319 -0.7319
  231MOL0     C31770   2.334   4.322   4.930 -1.3775 -0.7586  0.7160
  231MOL0     O31771   2.339   4.207   4.856 -0.4375  0.2477 -0.2236
  231MOL0     C31772   2.248   4.162   4.754  0.5606  0.4988 -0.3812
  231MOL0     C31773   2.139   4.232   4.702 -0.4389 -0.8697  0.1614
  231MOL0     C31774   2.080   4.189   4.586 -0.6519  0.4206  0.2334
  231MOL0     C31775   2.114   4.069   4.519 -0.1333 -0.2050 -0.4655
  231MOL0     O31776   2.047   4.014   4.411  0.2839  0.5580  0.2714
  231MOL0     C31777   1.968   4.103   4.321  0.5063 -0.0639 -0.6717
  231MOL0     C31778   2.069   4.188   4.241  0.2046 -0.1618  0.2794
  231MOL0     C31779   2.145   4.083   4.157  0.1853  0.5379  0.0084
  231MOL0     C31780   2.089   4.092   4.016  0.3890  0.4557 -0.4116
  231MOL0     C31781   2.161   3.997   3.921  0.2269  0.4307  0.8817
  231MOL0     C31782   2.160   3.845   3.952  0.7785  0.3516  0.0825
  231MOL0     C31783   2.242   3.775   3.848 -0.8557  0.0401  0.2294
  231MOL0     C31784   2.209   3.627   3.863 -1.5247 -0.6887 -0.4102
  231MOL0    Cl31785   2.050   3.573   3.813  0.0334 -0.2454 -0.1820
  231MOL0     C31786   2.208   3.992   4.574 -0.1595 -0.6697 -1.0073
  231MOL0     C31787   2.275   4.038   4.688  0.7315  0.3275  0.8388
  231MOL0     O31788   2.236   4.388   4.948  0.2559  0.6263  0.0266
  231MOL0     C31789   2.532   4.254   5.070  0.4069  0.4971  1.5661
  231MOL0     C31790   2.632   4.293   5.145 -0.4721 -0.9203  0.0848
  231MOL0     N31791   2.705   5.071   5.306  0.0154  0.5145  0.1619
  231MOL0     N31792   2.679   5.126   5.194 -0.8594 -0.1782  0.1672
  231MOL0     C31793   1.739   5.217   4.268 -0.7086  0.4601  0.1146
  231MOL0     C31794   1.659   5.127   4.193  0.6578  0.1069  0.4985
  231MOL0     C31795   1.407   4.892   3.945 -0.7542 -0.0073 -0.0757
  231MOL0     C31796   1.305   4.982   3.934 -0.0894 -0.5620  0.7976
  231MOL0     C31797   1.219   4.985   3.823 -0.7981 -0.3825 -0.4301
  231MOL0     C31798   1.226   4.879   3.722  0.1852  0.0727 -0.0189
  231MOL0     O31799   1.144   4.886   3.609 -0.0377 -0.4126  0.2254
  231MOL0     C31800   1.186   4.831   3.488  0.5607 -0.0548  0.2374
  231MOL0     C31801   1.096   4.867   3.373 -0.3091 -0.0676 -0.8823
  231MOL0     C31802   0.947   4.855   3.393  0.4962 -0.1947 -0.5977
  231MOL0     C31803   0.879   4.893   3.260 -0.3237 -0.1484 -0.5867
  231MOL0     C31804   0.924   4.816   3.148  0.9546  0.4272 -0.4432
  231MOL0     C31805   0.945   4.761   3.045 -0.2176  0.6057  0.2096
  231MOL0     C31806   1.316   4.782   3.746  0.0448  0.4138  0.0043
  231MOL0     C31807   1.408   4.787   3.848  0.0188  0.4547 -0.8714
  231MOL0     C31808   1.508   4.677   3.867  0.2439  0.6323  0.2102
  231MOL0     H31809   1.412   5.085   4.408  0.2708 -0.8305  0.1093
  231MOL0     H31810   1.559   5.220   4.547  1.4455 -2.3521  1.2053
  231MOL0     H31811   1.865   5.142   4.575  1.1431  0.0392 -0.9989
  231MOL0     H31812   1.775   5.264   4.662 -0.4257  0.2223  0.0525
  231MOL0     H31813   2.057   5.299   4.535 -0.6001  1.7947 -0.4787
  231MOL0     H31814   1.981   5.419   4.631  2.9748  0.3914  1.2112
  231MOL0     H31815   2.110   5.350   4.788  1.3406  0.7776 -2.8397
  231MOL0     H31816   1.971   5.234   4.820 -1.7635  2.1740  0.0117
  231MOL0     H31817   2.119   5.078   4.666 -1.8228  2.1078 -1.6095
  231MOL0     H31818   2.233   5.201   4.648  0.0027  2.0106  1.0582
  231MOL0     H31819   2.318   5.044   4.812 -2.0968 -0.5380 -2.7210
  231MOL0     H31820   2.169   5.030   4.898 -1.9988  2.0391  2.3198
  231MOL0     H31821   2.346   5.277   4.894 -1.5756  2.5794  2.4882
  231MOL0     H31822   2.196   5.274   4.969 -0.9361 -1.3827 -0.6957
  231MOL0     H31823   2.304   5.076   5.109 -0.8745  0.7341 -0.9576
  231MOL0     H31824   2.370   5.243   5.148  1.9379 -0.6339  0.6881
  231MOL0     H31825   2.469   5.007   4.978 -0.5534  0.0126 -0.1270
  231MOL0     H31826   2.551   5.165   4.963 -0.4768 -0.5878 -1.1604
  231MOL0     H31827   2.487   4.860   5.181 -1.8193 -0.4123  3.9105
  231MOL0     H31828   2.596   4.762   5.394 -0.7027 -0.2700  3.1855
  231MOL0     H31829   2.626   4.884   5.512 -2.8085 -0.1042 -0.9076
  231MOL0     H31830   2.868   4.867   5.407 -1.7994  1.6858  1.1506
  231MOL0     H31831   2.819   4.739   5.523 -1.2678  2.0498  1.2267
  231MOL0     H31832   2.811   4.693   5.226  2.7074  0.6089 -0.5735
  231MOL0     H31833   2.953   4.657   5.327  0.3159  3.6034  4.0297
  231MOL0     H31834   2.868   4.485   5.431  2.1223 -0.2920 -0.8293
  231MOL0     H31835   2.691   4.528   5.413 -0.0254 -0.5300 -3.0838
  231MOL0     H31836   2.593   4.621   5.183 -0.4971  0.3682  0.2470
  231MOL0     H31837   2.310   4.652   5.028  0.6685  1.0451 -1.1373
  231MOL0     H31838   2.376   4.594   4.872 -0.1674  2.5014 -0.2795
  231MOL0     H31839   2.467   4.698   4.982 -0.7212  0.8161 -2.2832
  231MOL0     H31840   2.106   4.320   4.757 -1.2430 -0.7533 -0.4841
  231MOL0     H31841   2.005   4.257   4.545  0.2573  0.4083 -1.5844
  231MOL0     H31842   1.911   4.042   4.250  2.3449 -0.8241 -1.5721
  231MOL0     H31843   1.899   4.158   4.386  0.7299  1.0674 -1.3544
  231MOL0     H31844   2.020   4.265   4.181  0.6153 -1.2283 -1.5237
  231MOL0     H31845   2.140   4.243   4.303 -0.7710  1.0911  0.3167
  231MOL0     H31846   2.134   3.979   4.189  0.7576 -0.6520 -3.2048
  231MOL0     H31847   2.250   4.113   4.163  0.1921  0.3818  0.7869
  231MOL0     H31848   2.114   4.193   3.985 -0.1631  1.2799  1.6539
  231MOL0     H31849   1.981   4.075   4.024  0.4927  0.6369  3.4052
  231MOL0     H31850   2.114   4.010   3.823  1.6829  0.5785  0.1906
  231MOL0     H31851   2.263   4.036   3.918  0.3717  0.2924  2.7200
  231MOL0     H31852   2.057   3.810   3.946  1.3204 -1.1033 -1.8067
  231MOL0     H31853   2.202   3.826   4.052  0.6185 -3.4118 -0.3888
  231MOL0     H31854   2.349   3.797   3.853 -1.1683  1.4083  1.4108
  231MOL0     H31855   2.201   3.809   3.753 -1.8593 -0.5737  0.4281
  231MOL0     H31856   2.220   3.596   3.967 -3.9597  1.4255  0.5840
  231MOL0     H31857   2.282   3.569   3.804 -2.1933 -2.4627  0.4197
  231MOL0     H31858   2.231   3.894   4.533 -0.9441 -1.1724 -0.2824
  231MOL0     H31859   2.362   3.981   4.718  1.5035  0.6214 -0.7191
  231MOL0     H31860   2.526   4.154   5.030  1.5072  1.5776 -1.6384
  231MOL0     H31861   2.703   4.214   5.170 -1.2353 -1.8853 -0.7053
  231MOL0     H31862   1.831   5.251   4.222 -0.2892  1.6312  1.7675
  231MOL0     H31863   1.696   5.095   4.096 -1.3481  0.4209 -0.4320
  231MOL0     H31864   1.298   5.063   4.006 -1.0835  0.5942 -0.5508
  231MOL0     H31865   1.146   5.065   3.812  0.9551  1.0550 -2.3682
  231MOL0     H31866   1.288   4.867   3.473 -0.4193  3.2858  0.8829
  231MOL0     H31867   1.193   4.722   3.497  0.3987 -0.4555 -3.2296
  231MOL0     H31868   1.136   4.811   3.288 -0.1580  2.0059 -2.2492
  231MOL0     H31869   1.123   4.971   3.356 -2.1599  0.4240 -0.9635
  231MOL0     H31870   0.920   4.752   3.419 -1.1613 -0.1858 -2.1047
  231MOL0     H31871   0.916   4.928   3.469  0.0879  1.3381 -2.1730
  231MOL0     H31872   0.891   5.000   3.239 -2.0694  0.5162  1.4694
  231MOL0     H31873   0.773   4.873   3.279 -0.3058  1.8350  2.0634
  231MOL0     H31874   0.963   4.710   2.953  0.8208 -2.9480  2.1921
  231MOL0     H31875   1.329   4.698   3.679 -1.0686  0.9818 -0.9493
  231MOL0     H31876   1.490   4.582   3.815  0.9365  0.5742  0.0626
  231MOL0     H31877   1.606   4.707   3.828  0.8018 -1.4818 -0.1550
  231MOL0     H31878   1.526   4.647   3.971  0.5236 -0.4335 -0.1270
  232MOL0     O31879   8.595   7.982   0.500  0.0651  0.2128 -0.2496
  232MOL0     C31880   8.654   8.091   0.487 -0.8330  0.2837 -0.0140
  232MOL0     O31881   8.770   8.116   0.424  0.4400  0.0001  0.0121
  232MOL0     C31882   8.821   8.010   0.358 -0.2579 -0.3099  0.1611
  232MOL0     C31883   8.809   7.979   0.219  0.1375 -0.5002  0.5395
  232MOL0     C31884   8.901   7.888   0.153  0.3450 -0.9132  0.2858
  232MOL0     C31885   8.988   7.816   0.232 -0.0848 -0.3219  0.1418
  232MOL0     O31886   9.077   7.738   0.166  0.1828  0.9650  0.5332
  232MOL0     C31887   9.172   7.665   0.237 -0.4866  0.7537  0.1342
  232MOL0     C31888   9.250   7.559   0.138  0.8444 -0.0163  0.6165
  232MOL0     C31889   9.364   7.489   0.217  0.2394  0.8486 -0.3726
  232MOL0     C31890   9.334   7.460   0.367  0.4990 -0.6133  1.6344
  232MOL0     C31891   9.438   7.374   0.431 -0.0706 -0.8207  0.4569
  232MOL0     C31892   9.426   7.394   0.581  0.0601 -0.7173  0.7308
  232MOL0     C31893   9.523   7.300   0.669  0.1829 -0.3028 -0.1658
  232MOL0     C31894   9.466   7.160   0.684  0.3325 -0.8821  0.1339
  232MOL0     N31895   9.321   7.149   0.705  0.7952 -0.4203 -0.0005
  232MOL0     C31896   9.258   7.144   0.833 -0.2768  0.1928  1.0481
  232MOL0     C31897   9.129   7.113   0.809 -0.2515  1.2365  0.0522
  232MOL0     C31898   9.022   7.059   0.901  0.3702 -0.6782 -1.0333
  232MOL0     C31899   8.894   7.139   0.924  0.4187  0.0709  0.3750
  232MOL0     C31900   8.838   7.124   1.066  0.3940  0.6766 -0.0382
  232MOL0     C31901   8.786   6.982   1.112  0.4156  0.2598  0.3638
  232MOL0     O31902   8.647   7.002   1.164  0.5513  0.3729  0.2270
  232MOL0     C31903   8.554   6.981   1.067  0.6666  0.8310  0.3948
  232MOL0     C31904   8.468   7.090   1.040  0.1135  0.2068 -0.7500
  232MOL0     C31905   8.364   7.087   0.942 -0.0330 -0.2451  0.7278
  232MOL0     C31906   8.286   7.221   0.921 -0.5962 -0.0211  0.3174
  232MOL0     C31907   8.346   6.963   0.868  0.0842 -0.0683  0.3152
  232MOL0     C31908   8.256   6.951   0.750 -0.3756 -0.0003  0.6909
  232MOL0     O31909   8.242   6.827   0.697 -0.3410  0.2248  0.2705
  232MOL0     C31910   8.169   6.801   0.580 -1.1235 -0.0692 -0.1900
  232MOL0     C31911   8.116   6.904   0.503  0.0474 -0.1893 -0.0570
  232MOL0     C31912   8.061   6.866   0.379  0.3860  0.4618  0.5517
  232MOL0     C31913   8.022   6.732   0.348  1.6844  0.5004  0.2007
  232MOL0     O31914   7.950   6.691   0.230  0.4623  0.0482  0.1088
  232MOL0     C31915   7.937   6.786   0.124  0.2255  0.0363 -0.6787
  232MOL0     C31916   8.073   6.782   0.056 -0.1207  0.7415 -0.4089
  232MOL0     C31917   8.043   6.763  -0.093  1.2179  0.8987 -0.5527
  232MOL0     C31918   8.177   6.742  -0.167  0.0623 -0.0086 -0.3236
  232MOL0     C31919   8.142   6.733  -0.319 -0.3026  0.0714  0.8868
  232MOL0     C31920   8.257   6.742  -0.412 -0.2402  0.2481  0.3417
  232MOL0     C31921   8.353   6.625  -0.394 -0.2260 -0.2930  0.6723
  232MOL0     C31922   8.470   6.612  -0.497  0.6641 -1.2270 -0.6417
  232MOL0    Cl31923   8.549   6.775  -0.525 -0.2928  0.1042 -0.2943
  232MOL0     C31924   8.072   6.639   0.431  0.3126  0.5526  0.0172
  232MOL0     C31925   8.142   6.664   0.550 -0.0285  0.0358  0.2264
  232MOL0     O31926   8.209   7.055   0.712  0.3422  0.3123 -0.7122
  232MOL0     C31927   8.418   6.842   0.908 -0.1448 -0.4032 -0.8609
  232MOL0     C31928   8.529   6.857   0.999  0.3043  0.2301 -0.0790
  232MOL0     N31929   9.113   7.107   0.667  0.9223  0.0078  0.1068
  232MOL0     N31930   9.228   7.128   0.605  0.5411 -1.1350 -0.1876
  232MOL0     C31931   8.997   7.837   0.372  1.1642 -0.0799  0.1827
  232MOL0     C31932   8.917   7.938   0.431 -0.0978 -0.5183 -0.1431
  232MOL0     C31933   8.572   8.210   0.529  0.0836 -0.0068  0.0452
  232MOL0     C31934   8.436   8.205   0.487 -0.5519 -0.1880  0.4512
  232MOL0     C31935   8.356   8.310   0.513 -0.0428 -0.6610  1.2134
  232MOL0     C31936   8.404   8.434   0.555  0.2283  0.8346 -0.9373
  232MOL0     O31937   8.323   8.539   0.589 -0.4362  0.4813  0.6700
  232MOL0     C31938   8.302   8.623   0.468  0.1162 -0.5142 -0.4023
  232MOL0     C31939   8.205   8.742   0.501 -0.4744  1.4068 -0.1051
  232MOL0     C31940   8.286   8.865   0.545  0.2039 -0.1269  1.1599
  232MOL0     C31941   8.190   8.985   0.562 -0.7144  0.6566 -0.0537
  232MOL0     C31942   8.116   8.974   0.683 -0.5908 -0.0797 -0.0508
  232MOL0     C31943   8.051   8.972   0.784  0.0553 -0.0330 -0.9035
  232MOL0     C31944   8.532   8.451   0.577 -1.2640  0.0978  0.5186
  232MOL0     C31945   8.625   8.343   0.565 -0.9911  0.8379  0.2334
  232MOL0     C31946   8.777   8.361   0.595  0.6408  0.5632 -0.2606
  232MOL0     H31947   8.733   8.025   0.156  1.0429  0.9656  0.4686
  232MOL0     H31948   8.905   7.872   0.046  0.3154 -3.2926  0.5803
  232MOL0     H31949   9.125   7.612   0.320 -0.8297  1.7231  0.5808
  232MOL0     H31950   9.242   7.732   0.288  1.3306 -0.7718 -0.2517
  232MOL0     H31951   9.175   7.493   0.092  0.6378  0.0227  0.8962
  232MOL0     H31952   9.291   7.628   0.064  1.3110 -0.9470 -0.0134
  232MOL0     H31953   9.401   7.396   0.172  4.1891  0.4502  3.1292
  232MOL0     H31954   9.451   7.555   0.210 -0.9029  2.3764 -0.6382
  232MOL0     H31955   9.330   7.558   0.416  1.3831  0.5238 -0.4657
  232MOL0     H31956   9.234   7.417   0.380 -0.8589  1.4020 -1.0533
  232MOL0     H31957   9.542   7.387   0.398 -0.2871  1.4241  0.4983
  232MOL0     H31958   9.421   7.269   0.404  2.0688 -0.2923 -3.8578
  232MOL0     H31959   9.458   7.499   0.591 -0.2427 -0.6059  0.5468
  232MOL0     H31960   9.321   7.382   0.610 -0.1086 -0.8705  0.0671
  232MOL0     H31961   9.525   7.344   0.769 -2.6494  1.0831 -0.6246
  232MOL0     H31962   9.625   7.285   0.633  0.5893 -2.0874  1.5702
  232MOL0     H31963   9.480   7.113   0.586  0.3399  1.2975 -0.9643
  232MOL0     H31964   9.525   7.102   0.757  3.1605 -1.4419 -2.4096
  232MOL0     H31965   9.301   7.149   0.932 -3.2417  2.0092  2.3695
  232MOL0     H31966   9.075   7.050   0.997  0.2293  1.9866 -0.6172
  232MOL0     H31967   8.989   6.969   0.849  0.0045 -0.3064 -1.4595
  232MOL0     H31968   8.917   7.245   0.914  4.5163 -0.6269  0.8372
  232MOL0     H31969   8.824   7.109   0.846 -0.7597  0.3670  1.2840
  232MOL0     H31970   8.915   7.152   1.138  1.2312 -0.4156 -0.4803
  232MOL0     H31971   8.759   7.200   1.073 -2.9052 -2.1452 -2.8097
  232MOL0     H31972   8.807   6.905   1.037  0.7046 -1.3820  2.0407
  232MOL0     H31973   8.852   6.961   1.197  2.1631  0.5933 -0.8805
  232MOL0     H31974   8.472   7.185   1.093 -0.2654 -1.0067  1.5442
  232MOL0     H31975   8.180   7.204   0.899 -1.3225  3.2763  0.6766
  232MOL0     H31976   8.333   7.281   0.843 -2.6401 -0.3285 -1.2090
  232MOL0     H31977   8.283   7.279   1.014 -0.4945 -2.6287  2.0744
  232MOL0     H31978   8.127   7.010   0.521  1.1059 -0.3422  0.2804
  232MOL0     H31979   8.029   6.951   0.320  0.0309  1.3792  2.0033
  232MOL0     H31980   7.844   6.772   0.068 -0.1768 -0.5868  0.1243
  232MOL0     H31981   7.917   6.883   0.171 -1.9743 -0.5231 -0.3463
  232MOL0     H31982   8.133   6.873   0.062 -0.0011  0.7642 -1.5857
  232MOL0     H31983   8.135   6.696   0.084  1.9342  2.0362 -0.7891
  232MOL0     H31984   7.995   6.855  -0.128  2.2023  1.2429 -1.0534
  232MOL0     H31985   7.983   6.674  -0.113  2.1209 -0.0766  0.8796
  232MOL0     H31986   8.230   6.653  -0.132 -0.2753 -0.3989 -0.8046
  232MOL0     H31987   8.240   6.831  -0.155  0.7054 -0.5058  0.0708
  232MOL0     H31988   8.085   6.644  -0.345 -0.1396  0.1029  0.4076
  232MOL0     H31989   8.072   6.815  -0.340 -1.1607 -0.4089  1.7822
  232MOL0     H31990   8.314   6.831  -0.383 -0.0781  0.4333 -0.5351
  232MOL0     H31991   8.211   6.770  -0.507 -1.1394  2.2225  1.2780
  232MOL0     H31992   8.294   6.533  -0.394 -0.4633 -0.2729  3.9172
  232MOL0     H31993   8.405   6.630  -0.298  1.6948  3.3756 -0.3735
  232MOL0     H31994   8.426   6.587  -0.594  1.5700  1.2103 -1.7589
  232MOL0     H31995   8.553   6.551  -0.462  1.9024  2.5079  4.1027
  232MOL0     H31996   8.045   6.536   0.409  0.0319  0.0385  2.4883
  232MOL0     H31997   8.184   6.594   0.621  2.5713  0.5295 -0.7159
  232MOL0     H31998   8.402   6.750   0.852  1.3129 -1.3521  0.2097
  232MOL0     H31999   8.600   6.778   1.018 -1.1623 -1.7600 -2.2056
  232MOL0     H32000   9.072   7.776   0.421 -0.2601 -1.3739  0.8264
  232MOL0     H32001   8.936   7.959   0.536 -0.6147  0.2541 -0.1970
  232MOL0     H32002   8.398   8.112   0.447 -0.5306  0.4857 -1.2217
  232MOL0     H32003   8.252   8.310   0.483 -0.2660  0.4914  1.9240
  232MOL0     H32004   8.400   8.659   0.434  0.3811 -0.1385  0.7062
  232MOL0     H32005   8.261   8.561   0.389 -0.0914 -1.8824  0.7479
  232MOL0     H32006   8.135   8.707   0.578 -0.0383  2.8379  0.9853
  232MOL0     H32007   8.129   8.761   0.425  0.4952 -0.2114 -1.5394
  232MOL0     H32008   8.331   8.840   0.642  0.0689 -1.5658  0.8659
  232MOL0     H32009   8.356   8.881   0.462 -1.0587 -0.4403 -0.0001
  232MOL0     H32010   8.134   8.998   0.469  0.0598 -4.8792 -1.6264
  232MOL0     H32011   8.253   9.071   0.587 -0.7072  0.1844  1.6044
  232MOL0     H32012   7.993   8.968   0.874 -0.4462  2.4378 -1.0597
  232MOL0     H32013   8.565   8.550   0.606 -0.3658  0.3463 -1.2016
  232MOL0     H32014   8.835   8.387   0.506 -0.6018 -1.0533 -1.6109
  232MOL0     H32015   8.790   8.453   0.654  1.2229  2.6133 -3.3537
  232MOL0     H32016   8.815   8.267   0.636 -2.7422  0.3972  3.0604
  233MOL0     O32017   8.823   9.363   5.424  0.6956  0.3785  0.1982
  233MOL0     C32018   8.737   9.381   5.510  0.1683 -0.1099  0.0263
  233MOL0     O32019   8.723   9.300   5.617  0.3663  0.4735 -0.1887
  233MOL0     C32020   8.615   9.319   5.705 -0.9683 -0.9646  0.9358
  233MOL0     C32021   8.634   9.341   5.838 -0.3217  1.2116  0.1274
  233MOL0     C32022   8.519   9.356   5.921 -0.5991  0.0698  0.7259
  233MOL0     C32023   8.391   9.357   5.869  0.5276 -0.2072 -0.3715
  233MOL0     O32024   8.278   9.352   5.949  0.5079  0.1677  0.1621
  233MOL0     C32025   8.277   9.437   6.065 -0.0581  1.3652 -0.6703
  233MOL0     C32026   8.133   9.459   6.114 -0.3721 -0.3010 -0.2232
  233MOL0     C32027   8.143   9.570   6.224 -0.6410 -1.3654 -0.0766
  233MOL0     C32028   7.992   9.597   6.267 -0.2668  0.9042  0.5392
  233MOL0     C32029   7.985   9.706   6.372  0.2111 -0.3209  0.1327
  233MOL0     C32030   7.838   9.727   6.421  0.2469  0.2890 -0.0003
  233MOL0     C32031   7.798   9.871   6.447 -0.1736 -0.4222 -0.6972
  233MOL0     C32032   7.870   9.940   6.557 -0.1720 -0.7859  1.1201
  233MOL0     N32033   7.880   9.858   6.678 -0.4360 -0.4163  0.2598
  233MOL0     C32034   7.785   9.796   6.749 -0.5687  0.8322  0.0655
  233MOL0     C32035   7.848   9.731   6.853 -0.4122  0.0042 -0.7641
  233MOL0     C32036   7.774   9.654   6.955 -0.5641  0.3961  0.1123
  233MOL0     C32037   7.862   9.604   7.077  0.6534 -0.6045 -0.1360
  233MOL0     C32038   7.786   9.499   7.159 -0.1452 -0.4617 -0.5454
  233MOL0     C32039   7.646   9.539   7.217 -1.0877  0.4689 -1.5625
  233MOL0     O32040   7.614   9.441   7.324  0.7981  0.6725 -0.2274
  233MOL0     C32041   7.490   9.438   7.385  0.2082 -0.6000 -0.1500
  233MOL0     C32042   7.461   9.306   7.439 -0.4898 -0.7825  0.4241
  233MOL0     C32043   7.343   9.286   7.505 -0.3202  0.2120 -1.0636
  233MOL0     C32044   7.316   9.145   7.563 -0.9782 -0.0654  0.3666
  233MOL0     C32045   7.247   9.393   7.525 -0.0295  0.4949  0.0044
  233MOL0     C32046   7.112   9.385   7.606 -0.3026  0.4466 -0.2428
  233MOL0     O32047   7.037   9.502   7.614 -0.1486  0.9258 -0.3093
  233MOL0     C32048   6.921   9.505   7.685  0.7914 -0.6494  0.1097
  233MOL0     C32049   6.817   9.569   7.622 -0.2620 -1.0161  0.6459
  233MOL0     C32050   6.697   9.604   7.681 -0.0479  1.0258  1.0632
  233MOL0     C32051   6.678   9.563   7.812  0.7281 -0.5878 -0.4330
  233MOL0     O32052   6.565   9.595   7.883 -0.6071 -0.3601 -0.3006
  233MOL0     C32053   6.461   9.669   7.822  0.0542  0.3120  0.7102
  233MOL0     C32054   6.334   9.698   7.914 -0.1566 -0.1589  0.3499
  233MOL0     C32055   6.245   9.563   7.949 -1.0333 -0.0552 -0.5929
  233MOL0     C32056   6.131   9.601   8.047 -0.6611  0.8248 -0.4986
  233MOL0     C32057   6.045   9.486   8.090 -0.6715 -0.4234  0.1878
  233MOL0     C32058   6.092   9.403   8.211 -0.1331 -0.3907  1.4658
  233MOL0     C32059   5.972   9.326   8.263  0.2184 -0.2422  0.3249
  233MOL0     C32060   6.005   9.234   8.379  0.6224 -0.1224 -0.0181
  233MOL0    Cl32061   6.086   9.079   8.346  0.2037 -0.5568 -0.6088
  233MOL0     C32062   6.782   9.484   7.875  1.0050 -0.2831 -0.1411
  233MOL0     C32063   6.900   9.451   7.810 -0.5925 -0.3229 -0.2484
  233MOL0     O32064   7.089   9.282   7.671  0.7838 -0.3569  0.3258
  233MOL0     C32065   7.281   9.517   7.473  0.4238 -0.1145  0.2226
  233MOL0     C32066   7.400   9.546   7.409 -0.1551  0.5956  1.0382
  233MOL0     N32067   7.984   9.754   6.839  0.0867 -0.4503 -0.0654
  233MOL0     N32068   8.001   9.831   6.736 -0.4935  0.0662  0.5552
  233MOL0     C32069   8.370   9.343   5.727  0.0096 -1.0311 -0.0399
  233MOL0     C32070   8.481   9.308   5.650  0.3467  0.1326 -0.7345
  233MOL0     C32071   8.684   9.522   5.511  0.6216  0.6312 -0.3683
  233MOL0     C32072   8.718   9.615   5.613 -0.1409 -0.3822 -0.6371
  233MOL0     C32073   8.677   9.750   5.618  0.5002 -0.1417 -0.7641
  233MOL0     C32074   8.573   9.786   5.531  0.3769  0.4040  0.8286
  233MOL0     O32075   8.524   9.910   5.553 -0.1626 -0.3981 -0.0730
  233MOL0     C32076   8.408   9.946   5.483  0.2693 -0.1579 -0.7749
  233MOL0     C32077   8.387  10.105   5.491 -0.1196 -0.2104 -0.1180
  233MOL0     C32078   8.370  10.163   5.638 -0.1163 -0.2062  0.2317
  233MOL0     C32079   8.376  10.320   5.624  0.2494  0.6693 -0.0618
  233MOL0     C32080   8.249  10.373   5.564  0.2048  0.2689  0.0691
  233MOL0     C32081   8.140  10.402   5.520 -0.5889 -1.0114  0.6416
  233MOL0     C32082   8.537   9.698   5.434  1.1159 -0.4376 -0.3993
  233MOL0     C32083   8.598   9.570   5.416  0.2961  1.3072  0.5816
  233MOL0     C32084   8.548   9.500   5.299 -0.1257  0.0926  0.4524
  233MOL0     H32085   8.733   9.319   5.877 -0.8900 -4.2338 -0.7370
  233MOL0     H32086   8.537   9.354   6.028  3.5273 -1.1046  0.2081
  233MOL0     H32087   8.324   9.530   6.030  1.4718  1.3760  1.2389
  233MOL0     H32088   8.341   9.393   6.142  1.6314 -0.3097 -2.8864
  233MOL0     H32089   8.066   9.488   6.032  0.3099  3.0686  0.2351
  233MOL0     H32090   8.097   9.369   6.162 -1.2558  0.6275  0.8962
  233MOL0     H32091   8.213   9.547   6.305 -0.6941  2.2957  1.2251
  233MOL0     H32092   8.184   9.660   6.176  0.2374 -1.3534  0.6691
  233MOL0     H32093   7.912   9.618   6.196 -3.4708 -1.3694  3.1139
  233MOL0     H32094   7.943   9.512   6.318 -0.5200  1.8741  1.9816
  233MOL0     H32095   8.008   9.797   6.317  0.3691 -3.0137 -4.8913
  233MOL0     H32096   8.050   9.697   6.459  0.3394  3.2448  0.5388
  233MOL0     H32097   7.784   9.685   6.336  0.8441 -0.0976 -0.2002
  233MOL0     H32098   7.816   9.672   6.513 -4.1427 -0.8196 -1.4682
  233MOL0     H32099   7.692   9.875   6.472  0.2415  1.9956  0.9979
  233MOL0     H32100   7.800   9.932   6.357 -1.2122 -1.0053 -1.1306
  233MOL0     H32101   7.970   9.968   6.522  0.5407 -3.0207  1.1925
  233MOL0     H32102   7.817  10.030   6.589  1.0343 -0.9408  3.7465
  233MOL0     H32103   7.678   9.790   6.730 -0.3369  1.2069 -1.4176
  233MOL0     H32104   7.734   9.565   6.905 -1.9231  3.2043 -4.3684
  233MOL0     H32105   7.693   9.717   6.993  0.2937  0.0219  2.7562
  233MOL0     H32106   7.960   9.567   7.048  0.6780  0.7196 -1.9368
  233MOL0     H32107   7.881   9.686   7.147 -2.8910 -1.2134  1.7629
  233MOL0     H32108   7.772   9.410   7.097 -0.5865 -0.0732 -1.0070
  233MOL0     H32109   7.858   9.474   7.238 -0.0610  1.3106 -0.0146
  233MOL0     H32110   7.663   9.628   7.278  4.1838 -1.5976  0.6476
  233MOL0     H32111   7.572   9.544   7.137 -0.4888  0.3528 -2.1304
  233MOL0     H32112   7.537   9.228   7.438  0.3562 -0.0094  1.9622
  233MOL0     H32113   7.396   9.074   7.540 -0.9598  0.4509 -1.3244
  233MOL0     H32114   7.219   9.112   7.525 -0.5052  0.1206 -1.0540
  233MOL0     H32115   7.307   9.157   7.671 -0.6160 -0.4061  0.4369
  233MOL0     H32116   6.837   9.602   7.521  0.3777  2.2440  1.6928
  233MOL0     H32117   6.622   9.659   7.624  1.2400  1.1054 -0.6357
  233MOL0     H32118   6.509   9.763   7.793 -0.1657  0.5597  1.1452
  233MOL0     H32119   6.435   9.621   7.727  1.4707 -1.5459  1.2244
  233MOL0     H32120   6.376   9.735   8.008 -0.0254  0.4564  0.0481
  233MOL0     H32121   6.281   9.775   7.858  1.4784  0.1939 -0.7709
  233MOL0     H32122   6.306   9.496   8.011 -3.5153  0.5183  2.7881
  233MOL0     H32123   6.201   9.527   7.855  1.2856 -1.4042 -1.2286
  233MOL0     H32124   6.067   9.666   7.987 -0.0247 -0.6685 -2.9376
  233MOL0     H32125   6.187   9.643   8.131  2.9114 -2.3146 -1.0450
  233MOL0     H32126   5.944   9.524   8.109 -0.8157 -0.7736  0.1222
  233MOL0     H32127   6.029   9.424   8.002 -1.0321  0.1609 -0.1613
  233MOL0     H32128   6.125   9.467   8.293  0.4327  2.4913 -0.8678
  233MOL0     H32129   6.170   9.330   8.185  1.2112  2.0390 -2.1123
  233MOL0     H32130   5.922   9.269   8.184  0.3624  0.4754 -0.2941
  233MOL0     H32131   5.902   9.403   8.298  2.3330  0.4146  3.5321
  233MOL0     H32132   5.914   9.199   8.428  0.8768  0.0181  0.5630
  233MOL0     H32133   6.068   9.294   8.444  2.4513  0.5725 -2.2912
  233MOL0     H32134   6.772   9.464   7.981 -1.1459 -0.2424 -0.2845
  233MOL0     H32135   6.981   9.396   7.857 -0.0473  1.0984  0.5428
  233MOL0     H32136   7.225   9.605   7.503  1.1245  0.0756  1.0290
  233MOL0     H32137   7.430   9.648   7.387  0.7912  0.5149  1.9150
  233MOL0     H32138   8.267   9.341   5.693 -0.6400 -1.2122  1.8040
  233MOL0     H32139   8.470   9.270   5.549 -2.8543 -0.9980 -0.0961
  233MOL0     H32140   8.783   9.590   5.696  0.8667  1.9166 -0.6630
  233MOL0     H32141   8.709   9.810   5.703 -3.0327 -2.1981  2.3645
  233MOL0     H32142   8.392   9.923   5.378 -0.3377 -0.1949 -0.6836
  233MOL0     H32143   8.329   9.899   5.543  2.6897 -0.3448  2.4989
  233MOL0     H32144   8.297  10.133   5.435  0.1538  3.9022  1.1884
  233MOL0     H32145   8.475  10.153   5.448 -1.0398  1.7140  0.0426
  233MOL0     H32146   8.277  10.127   5.683 -0.4356  0.6678  0.2911
  233MOL0     H32147   8.450  10.128   5.703  1.1648  0.5163 -0.9000
  233MOL0     H32148   8.461  10.341   5.558  1.3943 -1.7359  0.5067
  233MOL0     H32149   8.408  10.371   5.715 -1.0168 -1.4556  1.6804
  233MOL0     H32150   8.044  10.407   5.473 -0.7735 -2.3278  0.8137
  233MOL0     H32151   8.471   9.726   5.353 -1.2000  0.7637  1.7486
  233MOL0     H32152   8.570   9.393   5.313 -0.2938 -0.3477 -2.0911
  233MOL0     H32153   8.441   9.515   5.288 -0.1991 -0.3892  0.4908
  233MOL0     H32154   8.594   9.529   5.204 -1.4709  2.7856  0.5450
  234MOL0     O32155   3.525   4.544   2.539 -0.6893 -0.1264  0.1863
  234MOL0     C32156   3.567   4.632   2.464 -0.0041 -0.0004 -0.0657
  234MOL0     O32157   3.686   4.673   2.455 -0.3645  0.2985 -0.6046
  234MOL0     C32158   3.793   4.611   2.521  0.0449 -0.8101 -0.0035
  234MOL0     C32159   3.793   4.560   2.655 -0.1915  0.4249  0.2639
  234MOL0     C32160   3.908   4.505   2.708  0.8756  0.7291 -0.3248
  234MOL0     C32161   4.012   4.472   2.636  0.2725  0.9469 -0.2889
  234MOL0     O32162   4.110   4.405   2.693 -0.6775 -0.9433 -0.4280
  234MOL0     C32163   4.247   4.456   2.691  0.1415  0.5069 -0.0860
  234MOL0     C32164   4.340   4.416   2.804 -0.3461 -0.3584  0.3070
  234MOL0     C32165   4.289   4.462   2.937 -0.7761  0.1615 -0.0393
  234MOL0     C32166   4.348   4.376   3.052 -0.3499 -0.2643  1.0457
  234MOL0     C32167   4.330   4.441   3.192 -0.2417  0.7381 -0.3506
  234MOL0     C32168   4.329   4.343   3.313  0.1198 -0.8926  0.0025
  234MOL0     C32169   4.214   4.380   3.407 -0.0184  0.3728  0.3099
  234MOL0     C32170   4.251   4.508   3.487  0.8785 -0.0020  0.1422
  234MOL0     N32171   4.136   4.543   3.579  0.0829 -0.1969  0.1018
  234MOL0     C32172   4.119   4.489   3.703 -0.2125 -0.3544 -0.4188
  234MOL0     C32173   4.008   4.546   3.751 -0.6686 -0.3873  0.0036
  234MOL0     C32174   3.946   4.517   3.885 -0.5860  0.0416  0.1342
  234MOL0     C32175   3.942   4.372   3.928 -0.4987  0.2649  0.0753
  234MOL0     C32176   3.831   4.295   3.856 -0.0376 -0.1892  0.7495
  234MOL0     C32177   3.828   4.134   3.857  0.2167  0.2459  0.8556
  234MOL0     O32178   3.948   4.098   3.787  0.3170  0.2171  0.6023
  234MOL0     C32179   3.927   4.089   3.650 -0.0958 -0.5271 -0.6249
  234MOL0     C32180   4.033   4.016   3.592  0.8789 -0.9068  0.5052
  234MOL0     C32181   4.039   3.996   3.458  1.2623  0.0807 -0.5234
  234MOL0     C32182   4.148   3.897   3.417  0.2157  0.5189 -0.4921
  234MOL0     C32183   3.932   4.045   3.367  0.5288 -0.4346 -0.4875
  234MOL0     C32184   3.924   4.030   3.221  0.3376 -0.1320 -0.1810
  234MOL0     O32185   3.813   4.084   3.159  0.2578 -0.3907 -0.1458
  234MOL0     C32186   3.786   4.065   3.026  0.0448 -0.1119  0.4231
  234MOL0     C32187   3.859   3.994   2.921  0.2569 -0.5289  0.0500
  234MOL0     C32188   3.828   4.002   2.783  0.5028  0.9550 -0.1599
  234MOL0     C32189   3.720   4.080   2.742  0.3000  1.1101 -0.4741
  234MOL0     O32190   3.671   4.074   2.617 -0.5464  0.1156  0.2003
  234MOL0     C32191   3.643   4.202   2.554  0.3541 -0.8291  0.6485
  234MOL0     C32192   3.503   4.210   2.484  0.0449 -0.1983 -0.4945
  234MOL0     C32193   3.375   4.245   2.575  0.0010  0.1212  0.9130
  234MOL0     C32194   3.250   4.236   2.493 -1.3311 -0.6199 -0.2295
  234MOL0     C32195   3.129   4.285   2.578  0.2572 -0.2645  0.0045
  234MOL0     C32196   2.991   4.255   2.528 -0.8761  0.3507 -0.6205
  234MOL0     C32197   2.890   4.355   2.571 -0.0794  0.2646  0.1760
  234MOL0     C32198   2.760   4.326   2.514  0.4112  0.8687 -0.3394
  234MOL0    Cl32199   2.709   4.155   2.527 -0.0630 -0.6098 -0.8615
  234MOL0     C32200   3.647   4.146   2.841 -0.9807 -0.8409  0.7086
  234MOL0     C32201   3.683   4.140   2.985  0.4263  0.2353 -0.0853
  234MOL0     O32202   4.014   3.973   3.160  0.0728 -0.7426 -0.5454
  234MOL0     C32203   3.819   4.105   3.434 -0.0590  0.0245 -0.0049
  234MOL0     C32204   3.818   4.125   3.566 -0.3911 -1.2636  0.3236
  234MOL0     N32205   3.976   4.641   3.665  0.0473 -0.6070 -0.2140
  234MOL0     N32206   4.047   4.640   3.564 -0.1438  0.6495 -0.2885
  234MOL0     C32207   4.009   4.519   2.503 -0.0949  0.2626 -0.2742
  234MOL0     C32208   3.909   4.596   2.447 -0.2340  0.5874 -0.7384
  234MOL0     C32209   3.464   4.679   2.361 -0.3759  0.2235  0.4364
  234MOL0     C32210   3.507   4.723   2.235 -0.2707  0.6068 -0.0898
  234MOL0     C32211   3.426   4.761   2.135  0.4316  0.1706 -0.0738
  234MOL0     C32212   3.289   4.753   2.158 -0.8964  0.1345 -0.1997
  234MOL0     O32213   3.202   4.775   2.056 -1.0558 -0.8830  0.3063
  234MOL0     C32214   3.120   4.895   2.069  0.8710 -0.1205  0.4889
  234MOL0     C32215   3.080   4.955   1.931 -0.6569 -1.1930 -0.0328
  234MOL0     C32216   2.960   4.875   1.880 -0.1074  0.4315  0.4634
  234MOL0     C32217   2.890   4.945   1.766  0.3739  0.0508 -0.5848
  234MOL0     C32218   2.958   4.931   1.640  0.1311 -0.5716  0.1681
  234MOL0     C32219   3.033   4.920   1.545  0.6671 -0.1240 -0.2821
  234MOL0     C32220   3.242   4.718   2.286  1.0452 -0.3474 -0.2293
  234MOL0     C32221   3.332   4.688   2.389  0.8196  0.0543 -0.0659
  234MOL0     C32222   3.273   4.674   2.525 -0.4721  0.0832 -0.9164
  234MOL0     H32223   3.698   4.584   2.700 -0.4663 -0.1688 -0.0011
  234MOL0     H32224   3.911   4.498   2.816 -0.2668 -0.7976 -0.3571
  234MOL0     H32225   4.239   4.565   2.688 -1.0714  0.5370  2.1159
  234MOL0     H32226   4.288   4.423   2.595 -2.3919 -0.0215 -1.0649
  234MOL0     H32227   4.351   4.307   2.804 -0.8539 -0.4240 -0.7548
  234MOL0     H32228   4.433   4.463   2.772 -0.9147  1.5002  1.2556
  234MOL0     H32229   4.330   4.563   2.950 -1.8326  0.6873 -0.6399
  234MOL0     H32230   4.180   4.473   2.939 -0.8260  0.7675 -2.5994
  234MOL0     H32231   4.296   4.280   3.040 -1.7059  0.3977  1.4666
  234MOL0     H32232   4.455   4.360   3.040 -0.3251  0.5203  0.1927
  234MOL0     H32233   4.231   4.487   3.192 -1.6021 -1.6936  3.4189
  234MOL0     H32234   4.399   4.524   3.209 -1.2920  1.6441 -0.3810
  234MOL0     H32235   4.297   4.241   3.292  1.1932 -1.7264  2.1361
  234MOL0     H32236   4.422   4.340   3.371  0.4134 -0.1528 -0.4120
  234MOL0     H32237   4.218   4.304   3.486 -0.6584 -1.3254 -1.2430
  234MOL0     H32238   4.114   4.383   3.363  1.1013  4.4197 -2.5747
  234MOL0     H32239   4.348   4.491   3.536  3.0242  0.1274 -3.6646
  234MOL0     H32240   4.262   4.592   3.418 -1.5588 -1.6527 -2.4379
  234MOL0     H32241   4.169   4.407   3.755 -0.5192  0.1362  0.6884
  234MOL0     H32242   3.847   4.561   3.894  0.4609  2.1505  2.4757
  234MOL0     H32243   4.012   4.576   3.950  0.4037 -1.7716  0.8760
  234MOL0     H32244   4.038   4.324   3.910 -0.3444  0.6566 -0.1648
  234MOL0     H32245   3.920   4.376   4.035  5.0339  0.2420  1.5325
  234MOL0     H32246   3.737   4.334   3.895  0.0055 -0.4086  1.0695
  234MOL0     H32247   3.837   4.329   3.752 -1.2016  0.2248  0.8080
  234MOL0     H32248   3.832   4.093   3.958  2.8800  0.3539  0.8670
  234MOL0     H32249   3.737   4.095   3.809  1.0209  0.3018 -0.7808
  234MOL0     H32250   4.109   3.982   3.662  1.0150  0.3683  1.0124
  234MOL0     H32251   4.109   3.829   3.341 -0.3506  0.8206 -0.4785
  234MOL0     H32252   4.186   3.841   3.503 -2.9060 -1.2850 -0.1384
  234MOL0     H32253   4.236   3.940   3.368  1.4605 -1.7540 -0.4023
  234MOL0     H32254   3.942   3.930   2.950 -0.7849 -2.9998 -2.0049
  234MOL0     H32255   3.883   3.951   2.706 -0.6199 -0.4647 -0.0689
  234MOL0     H32256   3.663   4.289   2.617  5.0114  0.4821 -2.1197
  234MOL0     H32257   3.728   4.200   2.485  2.0580 -1.2877  2.6420
  234MOL0     H32258   3.512   4.287   2.407  1.4510  0.5385  0.3622
  234MOL0     H32259   3.474   4.110   2.450 -1.4397 -0.3195  0.9699
  234MOL0     H32260   3.363   4.349   2.606  0.1873  0.6972 -0.8308
  234MOL0     H32261   3.372   4.178   2.661  2.9093  0.8596  1.6871
  234MOL0     H32262   3.242   4.132   2.458 -2.3773 -0.2197 -1.2649
  234MOL0     H32263   3.264   4.307   2.411  2.2882 -1.2130 -0.2948
  234MOL0     H32264   3.147   4.239   2.676 -0.8802 -4.0949 -1.4077
  234MOL0     H32265   3.149   4.392   2.588  0.2930 -0.0016 -2.3256
  234MOL0     H32266   2.965   4.152   2.552  4.1621 -1.5335 -2.0319
  234MOL0     H32267   2.991   4.252   2.419 -0.1051  1.7775 -0.6818
  234MOL0     H32268   2.904   4.462   2.551  0.3920  0.4426  1.3677
  234MOL0     H32269   2.885   4.352   2.680 -1.9084 -2.6388  0.1348
  234MOL0     H32270   2.764   4.353   2.408 -1.1558 -1.5069 -1.0623
  234MOL0     H32271   2.675   4.380   2.557 -0.2449 -0.0317 -0.4810
  234MOL0     H32272   3.559   4.201   2.808 -3.0167 -3.0648  2.0105
  234MOL0     H32273   3.630   4.200   3.058 -1.6713 -1.2975 -0.2507
  234MOL0     H32274   3.738   4.157   3.384  0.1055 -0.4595 -0.7849
  234MOL0     H32275   3.734   4.187   3.598  1.5973  2.0687 -0.3861
  234MOL0     H32276   4.092   4.498   2.435 -0.6452 -2.1698 -0.2849
  234MOL0     H32277   3.932   4.640   2.350  0.5022 -1.1195 -1.3779
  234MOL0     H32278   3.613   4.743   2.219 -0.1437  0.4215  0.5016
  234MOL0     H32279   3.463   4.793   2.038 -1.4240  1.5354 -0.3980
  234MOL0     H32280   3.025   4.874   2.121 -0.6342 -0.7163 -2.2993
  234MOL0     H32281   3.171   4.966   2.134  1.1678  0.5516 -0.4644
  234MOL0     H32282   3.170   4.926   1.876  2.6042 -1.9998  5.0600
  234MOL0     H32283   3.070   5.063   1.939 -1.8655 -1.4085  2.3808
  234MOL0     H32284   2.989   4.779   1.835 -0.7664  0.7864 -0.7638
  234MOL0     H32285   2.881   4.866   1.954 -1.8216 -0.6545 -1.3895
  234MOL0     H32286   2.875   5.049   1.794 -0.2524  0.2684 -1.6460
  234MOL0     H32287   2.792   4.899   1.750 -0.3362  1.9938 -2.2648
  234MOL0     H32288   3.100   4.897   1.465  1.2069  1.3031 -0.2792
  234MOL0     H32289   3.136   4.721   2.307  1.4894  0.4260  2.2681
  234MOL0     H32290   3.167   4.702   2.529 -1.0899 -2.1890  1.6249
  234MOL0     H32291   3.285   4.579   2.578 -1.7659 -0.4127 -1.4647
  234MOL0     H32292   3.320   4.752   2.585 -0.6359  1.1111 -2.0782
  235MOL0     O32293   9.896   2.076   8.433  0.6145 -0.2823 -0.0085
  235MOL0     C32294   9.885   1.959   8.420  0.0435  0.3915 -0.2577
  235MOL0     O32295   9.993   1.865   8.428  0.9898  0.8787 -0.1253
  235MOL0     C32296  10.127   1.896   8.449  0.3264 -0.1884  0.0221
  235MOL0     C32297  10.212   1.798   8.502 -0.0875  0.2789 -1.3022
  235MOL0     C32298  10.345   1.813   8.537 -0.1526 -0.5803  0.0666
  235MOL0     C32299  10.404   1.941   8.521  0.8970 -0.5810  0.2875
  235MOL0     O32300  10.538   1.975   8.549 -0.2580 -0.0816  0.7880
  235MOL0     C32301  10.638   1.878   8.525  1.0414  0.2802 -0.5686
  235MOL0     C32302  10.743   1.885   8.629 -0.2046 -0.1321 -0.0419
  235MOL0     C32303  10.804   2.032   8.645 -0.8289  0.8328 -0.1201
  235MOL0     C32304  10.954   2.029   8.680  0.1467  0.3212  0.6985
  235MOL0     C32305  11.044   2.058   8.562 -0.1565 -0.2371  0.5711
  235MOL0     C32306  11.185   2.028   8.587 -0.1521 -0.0121  0.0420
  235MOL0     C32307  11.243   2.060   8.728  0.2531 -0.2293 -0.3007
  235MOL0     C32308  11.252   2.208   8.770  0.8040  0.1070 -0.7547
  235MOL0     N32309  11.331   2.221   8.892 -0.4606 -0.3976  0.4302
  235MOL0     C32310  11.285   2.250   9.015 -0.0369  0.3575 -0.3416
  235MOL0     C32311  11.400   2.272   9.088 -0.3321  0.1895 -0.5607
  235MOL0     C32312  11.390   2.306   9.235 -0.6372  0.7265  0.3679
  235MOL0     C32313  11.504   2.396   9.270 -0.3693  1.2779 -0.0174
  235MOL0     C32314  11.474   2.437   9.415 -1.3511 -0.0349  0.4585
  235MOL0     C32315  11.587   2.427   9.518  1.0564 -0.6149  0.8508
  235MOL0     O32316  11.651   2.299   9.503 -0.8390  0.3319  0.0352
  235MOL0     C32317  11.740   2.257   9.594  0.2315 -0.7403  0.5610
  235MOL0     C32318  11.800   2.345   9.681 -0.0858 -0.0775 -0.0879
  235MOL0     C32319  11.898   2.305   9.765 -0.5006 -0.0739  0.2014
  235MOL0     C32320  11.952   2.411   9.860  0.1673 -1.3010 -0.9283
  235MOL0     C32321  11.934   2.165   9.770 -0.1051 -0.7237  0.2697
  235MOL0     C32322  12.039   2.116   9.863  0.2806 -0.0505  1.5908
  235MOL0     O32323  12.109   2.010   9.819  0.3906  0.1064 -0.4677
  235MOL0     C32324  12.226   1.962   9.872 -0.2791  0.6963  0.2666
  235MOL0     C32325  12.284   1.992   9.998  0.3707 -0.3896 -0.4059
  235MOL0     C32326  12.396   1.918  10.045  0.1565 -0.2388 -0.6879
  235MOL0     C32327  12.440   1.807   9.978 -0.0370 -0.3550 -0.6642
  235MOL0     O32328  12.542   1.731  10.023 -0.1401 -0.2373 -0.1440
  235MOL0     C32329  12.594   1.616   9.960 -0.5794  0.3667  0.5689
  235MOL0     C32330  12.717   1.570  10.042  0.1265 -0.6109  0.3004
  235MOL0     C32331  12.792   1.456   9.973 -0.2186 -0.4750 -0.2227
  235MOL0     C32332  12.839   1.347  10.071  0.6270 -0.7267  1.0313
  235MOL0     C32333  12.909   1.235   9.988 -0.3201 -0.6981  0.3753
  235MOL0     C32334  12.992   1.147  10.079  0.5136 -1.0227  0.0807
  235MOL0     C32335  13.050   1.009  10.038  1.3701  0.3779  0.1821
  235MOL0     C32336  13.093   0.925  10.158  1.1629  0.4239  0.4548
  235MOL0    Cl32337  13.223   1.012  10.246 -0.0875 -0.4356 -0.0834
  235MOL0     C32338  12.379   1.781   9.858  0.0220 -0.1021  0.0287
  235MOL0     C32339  12.283   1.856   9.806  0.8714 -0.0458 -0.2812
  235MOL0     O32340  12.051   2.169   9.972 -0.2744  0.7277  0.7189
  235MOL0     C32341  11.873   2.076   9.685  0.3298 -0.0395 -0.1945
  235MOL0     C32342  11.776   2.122   9.603  0.9711  0.2564 -0.6636
  235MOL0     N32343  11.512   2.250   9.006  0.6323 -0.3822 -0.4650
  235MOL0     N32344  11.467   2.202   8.894 -0.1102  0.3091 -0.3767
  235MOL0     C32345  10.332   2.043   8.458  0.4853  0.1360 -0.5051
  235MOL0     C32346  10.195   2.018   8.423  0.0143  0.2459 -0.3000
  235MOL0     C32347   9.755   1.898   8.397  0.8620  0.2857 -0.8272
  235MOL0     C32348   9.740   1.775   8.335 -0.1517  0.1578 -0.4176
  235MOL0     C32349   9.625   1.708   8.320  0.0493  0.3246  0.2483
  235MOL0     C32350   9.502   1.765   8.348 -0.3869 -0.0554 -0.0886
  235MOL0     O32351   9.378   1.719   8.306 -0.1652  0.9073 -0.3263
  235MOL0     C32352   9.355   1.575   8.295 -0.3247 -0.6537 -0.0482
  235MOL0     C32353   9.339   1.525   8.156  0.3242  0.2460 -0.0627
  235MOL0     C32354   9.197   1.562   8.094 -0.2140 -0.6833  0.5359
  235MOL0     C32355   9.168   1.502   7.956  0.5913  0.1212 -0.1940
  235MOL0     C32356   9.267   1.540   7.860 -0.2338 -0.6331 -0.6484
  235MOL0     C32357   9.345   1.560   7.776 -0.4068 -0.7186  0.3770
  235MOL0     C32358   9.505   1.891   8.404  0.5816  0.2549 -0.0499
  235MOL0     C32359   9.630   1.958   8.429  0.9493  0.8170 -0.4267
  235MOL0     C32360   9.617   2.110   8.453  0.5974  0.2622  0.0135
  235MOL0     H32361  10.156   1.707   8.521  0.0685 -0.1370 -2.6814
  235MOL0     H32362  10.413   1.745   8.588  3.2682  0.5812 -2.5597
  235MOL0     H32363  10.673   1.893   8.422 -0.2916 -1.2826 -1.3114
  235MOL0     H32364  10.598   1.776   8.524  0.4814  0.4282  1.5565
  235MOL0     H32365  10.703   1.862   8.728  1.7464 -0.1891  0.7636
  235MOL0     H32366  10.823   1.811   8.618 -0.4838 -0.5518  0.6536
  235MOL0     H32367  10.795   2.091   8.553 -1.1843  1.2270  0.1668
  235MOL0     H32368  10.743   2.077   8.724 -0.4667 -1.7310  1.7354
  235MOL0     H32369  10.972   2.110   8.752 -0.0372  0.9238  0.0746
  235MOL0     H32370  10.976   1.933   8.728  1.4880  0.4348  0.3706
  235MOL0     H32371  11.037   2.165   8.540  1.3509 -0.3414 -0.6036
  235MOL0     H32372  11.018   1.994   8.476  0.5176  0.8386 -0.4714
  235MOL0     H32373  11.187   1.919   8.574  0.3741 -0.0347  0.2875
  235MOL0     H32374  11.241   2.074   8.505 -0.0923  2.6981  1.4735
  235MOL0     H32375  11.340   2.010   8.725  0.1360 -0.4535 -2.3949
  235MOL0     H32376  11.180   2.013   8.804 -0.8273  1.3936 -0.1339
  235MOL0     H32377  11.301   2.257   8.685 -2.6131  1.0863 -2.3373
  235MOL0     H32378  11.154   2.257   8.764  1.4074  1.1805 -3.1060
  235MOL0     H32379  11.186   2.249   9.060 -0.6947 -1.2651 -1.6884
  235MOL0     H32380  11.389   2.214   9.294 -1.9651 -1.7486 -3.2132
  235MOL0     H32381  11.294   2.349   9.265  0.2845  1.7932  1.9538
  235MOL0     H32382  11.601   2.347   9.265 -1.0475  0.0021 -3.3158
  235MOL0     H32383  11.516   2.482   9.203 -0.8337 -0.0275 -1.8291
  235MOL0     H32384  11.428   2.536   9.412 -1.8237 -0.1400  2.7605
  235MOL0     H32385  11.398   2.371   9.458 -1.5429  1.9529  3.4661
  235MOL0     H32386  11.658   2.509   9.505  1.8720 -0.9849  2.5760
  235MOL0     H32387  11.530   2.445   9.610 -1.6216 -1.0436 -0.6406
  235MOL0     H32388  11.771   2.449   9.680 -0.6977 -0.1293  2.7894
  235MOL0     H32389  12.062   2.418   9.857  0.1192  0.4909  0.0854
  235MOL0     H32390  11.932   2.387   9.965  0.2093 -2.1787 -1.1139
  235MOL0     H32391  11.914   2.513   9.845 -0.8712 -1.3607  1.0564
  235MOL0     H32392  12.242   2.067  10.064 -0.8414 -2.9756  1.9929
  235MOL0     H32393  12.437   1.955  10.138 -0.3100  3.1531 -1.7046
  235MOL0     H32394  12.510   1.546   9.967 -1.4203  1.2029 -0.7428
  235MOL0     H32395  12.620   1.647   9.859  0.6717 -0.4191  0.6283
  235MOL0     H32396  12.791   1.645  10.071 -0.5584 -1.1479  3.9365
  235MOL0     H32397  12.690   1.533  10.142  2.5417  0.9635  1.6313
  235MOL0     H32398  12.881   1.500   9.927  2.4107 -2.9718  2.1162
  235MOL0     H32399  12.734   1.401   9.899  0.9491  1.0528 -2.3832
  235MOL0     H32400  12.748   1.308  10.118 -0.1596 -0.3471 -0.1107
  235MOL0     H32401  12.906   1.394  10.144  2.3392 -0.1076 -0.8560
  235MOL0     H32402  12.829   1.173   9.947  0.5146 -2.1796  0.9342
  235MOL0     H32403  12.975   1.286   9.917  0.1411 -1.5254  0.2036
  235MOL0     H32404  12.931   1.131  10.169  0.4201 -0.8471  0.0484
  235MOL0     H32405  13.076   1.210  10.110 -1.3346  1.6026  0.1323
  235MOL0     H32406  13.142   1.038   9.986  0.7446 -0.5353 -1.5187
  235MOL0     H32407  12.985   0.957   9.967  3.0883 -0.0511 -1.1437
  235MOL0     H32408  13.129   0.825  10.131  0.5738  0.4018 -0.2912
  235MOL0     H32409  13.001   0.918  10.215  0.9536  0.9796  0.1874
  235MOL0     H32410  12.406   1.694   9.799 -2.0240 -0.3973 -0.5533
  235MOL0     H32411  12.242   1.817   9.713  5.1528 -3.4102 -1.0692
  235MOL0     H32412  11.892   1.970   9.679  0.2073 -0.3867  3.3908
  235MOL0     H32413  11.734   2.060   9.525  0.4630 -0.0329 -0.1714
  235MOL0     H32414  10.375   2.141   8.443 -1.5692  1.4549  1.5908
  235MOL0     H32415  10.140   2.099   8.377 -3.0535 -0.4834  1.7223
  235MOL0     H32416   9.830   1.722   8.306 -1.1434 -2.0584  0.3978
  235MOL0     H32417   9.632   1.612   8.269 -1.3943  0.0982  0.4244
  235MOL0     H32418   9.436   1.520   8.343  0.4137 -1.0028 -1.6233
  235MOL0     H32419   9.270   1.562   8.363  0.7222 -1.4441  1.1564
  235MOL0     H32420   9.357   1.419   8.141 -0.8097  0.1382 -0.7898
  235MOL0     H32421   9.426   1.577   8.114  0.7709  0.6326  1.2831
  235MOL0     H32422   9.115   1.528   8.158  0.7530 -4.6377 -0.0608
  235MOL0     H32423   9.192   1.670   8.085  0.0900 -0.6357  0.9049
  235MOL0     H32424   9.066   1.521   7.922  1.1741  0.6450 -1.7230
  235MOL0     H32425   9.156   1.393   7.949 -2.4430  0.3351  0.4348
  235MOL0     H32426   9.418   1.565   7.698  2.9708 -1.9756  3.2129
  235MOL0     H32427   9.409   1.926   8.442  1.7593  2.3960  1.1381
  235MOL0     H32428   9.515   2.147   8.460 -0.0282 -1.0909 -1.3326
  235MOL0     H32429   9.660   2.141   8.548  0.8003  0.7831 -0.2414
  235MOL0     H32430   9.662   2.178   8.379 -1.3435  1.3645 -0.2113
  236MOL0     O32431   3.621   5.571   4.890  0.1215 -0.5344 -0.3733
  236MOL0     C32432   3.668   5.678   4.853  0.2133 -0.1588  0.4057
  236MOL0     O32433   3.705   5.706   4.725 -0.0937 -0.0494 -0.3199
  236MOL0     C32434   3.685   5.615   4.629 -0.1510  0.0746  0.2947
  236MOL0     C32435   3.568   5.628   4.555  0.0525 -0.4191  0.0763
  236MOL0     C32436   3.538   5.534   4.448 -0.2574 -0.1180 -1.0042
  236MOL0     C32437   3.627   5.431   4.432  0.1252  0.1066 -0.8173
  236MOL0     O32438   3.613   5.325   4.344  0.1950 -0.3800 -0.1697
  236MOL0     C32439   3.486   5.270   4.333 -0.3944 -0.1830 -0.8111
  236MOL0     C32440   3.490   5.151   4.238  0.1881  0.3245  0.5064
  236MOL0     C32441   3.352   5.108   4.212  0.3558 -0.1159  0.3704
  236MOL0     C32442   3.360   4.975   4.148  0.2571 -0.0155  0.4542
  236MOL0     C32443   3.222   4.907   4.172 -0.6653 -1.2629  0.1914
  236MOL0     C32444   3.121   4.967   4.079 -0.3730 -0.1829 -0.4470
  236MOL0     C32445   2.981   4.921   4.095 -0.6649  0.3779 -0.3482
  236MOL0     C32446   2.866   5.010   4.055  0.4453 -0.2550 -0.3855
  236MOL0     N32447   2.861   5.016   3.908 -0.0730  0.4342 -0.7822
  236MOL0     C32448   2.802   5.116   3.844 -0.3542 -0.3758 -0.0526
  236MOL0     C32449   2.795   5.080   3.714 -0.3841  0.5601 -0.0046
  236MOL0     C32450   2.717   5.160   3.619  0.1042 -0.3177  0.4450
  236MOL0     C32451   2.686   5.090   3.488  0.3554 -0.1066  0.3287
  236MOL0     C32452   2.593   5.157   3.391 -0.1391  0.4258 -0.3389
  236MOL0     C32453   2.572   5.065   3.270  0.5322  0.5772  0.7993
  236MOL0     O32454   2.702   5.044   3.207 -0.7785 -0.0556  0.4508
  236MOL0     C32455   2.701   4.989   3.082  0.5069  0.5624  0.3448
  236MOL0     C32456   2.783   5.038   2.985  0.0270 -0.0849  0.2677
  236MOL0     C32457   2.793   4.985   2.856 -0.0832 -0.9331  0.0334
  236MOL0     C32458   2.891   5.051   2.757  0.2345  0.3218 -0.1446
  236MOL0     C32459   2.722   4.872   2.822 -0.0303 -1.1680 -0.1693
  236MOL0     C32460   2.730   4.803   2.694  0.9100  0.6114 -0.7331
  236MOL0     O32461   2.726   4.873   2.579  0.2336 -0.2399  0.7515
  236MOL0     C32462   2.725   4.797   2.461  0.5028 -0.4097 -0.2250
  236MOL0     C32463   2.603   4.769   2.392 -0.0985  0.5290 -0.3909
  236MOL0     C32464   2.607   4.691   2.280  0.3416  0.4936  0.2741
  236MOL0     C32465   2.724   4.651   2.216 -0.6966 -1.0519  0.6281
  236MOL0     O32466   2.743   4.580   2.105 -0.5380  0.4050 -0.8468
  236MOL0     C32467   2.632   4.555   2.021 -0.3534 -0.1296  0.2598
  236MOL0     C32468   2.669   4.465   1.903 -0.8099  0.7487  0.1131
  236MOL0     C32469   2.804   4.516   1.828 -0.3196 -0.3593 -0.4452
  236MOL0     C32470   2.831   4.418   1.710  0.3345  0.2013 -0.2767
  236MOL0     C32471   2.953   4.465   1.625  0.4096  0.7340  0.8051
  236MOL0     C32472   2.916   4.524   1.497  0.4152 -0.4309 -0.4491
  236MOL0     C32473   3.031   4.583   1.409  0.1531 -0.9167 -1.3813
  236MOL0     C32474   2.976   4.665   1.299  0.8114 -0.2118  0.9076
  236MOL0    Cl32475   3.102   4.731   1.192 -0.1539  0.5349  0.2625
  236MOL0     C32476   2.843   4.690   2.279 -0.3797  0.6282  0.2897
  236MOL0     C32477   2.843   4.754   2.397 -0.4469 -0.0339  0.3137
  236MOL0     O32478   2.737   4.676   2.698  0.9815 -0.8974  0.1450
  236MOL0     C32479   2.631   4.817   2.920 -0.0058  0.0593 -0.6382
  236MOL0     C32480   2.628   4.870   3.048  0.3524 -0.1389 -0.9830
  236MOL0     N32481   2.847   4.959   3.688 -0.2449 -0.2771 -0.1854
  236MOL0     N32482   2.877   4.924   3.809  0.3556  0.0430  0.3043
  236MOL0     C32483   3.748   5.425   4.499  0.3162 -0.0365  0.1190
  236MOL0     C32484   3.776   5.514   4.605  0.3698  0.0430 -0.1515
  236MOL0     C32485   3.693   5.783   4.944 -0.5505  0.0595 -1.1948
  236MOL0     C32486   3.696   5.918   4.899 -0.2924  0.1335  0.4553
  236MOL0     C32487   3.715   6.028   4.984 -0.6012  0.3451  0.3045
  236MOL0     C32488   3.735   5.995   5.121  0.4760  0.4320  0.5932
  236MOL0     O32489   3.749   6.082   5.223 -0.3796 -0.0151  0.5024
  236MOL0     C32490   3.773   6.225   5.201  0.4462  0.4858  0.2386
  236MOL0     C32491   3.927   6.259   5.189 -0.6359  0.0172 -0.3647
  236MOL0     C32492   3.960   6.333   5.066  1.3969  1.0269 -0.4322
  236MOL0     C32493   4.074   6.425   5.083  0.3231  0.2892 -0.2691
  236MOL0     C32494   4.141   6.474   4.967 -0.2413  0.1148  0.6819
  236MOL0     C32495   4.201   6.519   4.873 -1.4045 -0.2337  0.9016
  236MOL0     C32496   3.730   5.860   5.161 -0.0586  0.9824 -0.1609
  236MOL0     C32497   3.703   5.756   5.083  0.4673  0.8849 -0.5649
  236MOL0     C32498   3.682   5.627   5.164  0.1982  0.3466  0.0916
  236MOL0     H32499   3.502   5.711   4.581  0.0603 -0.9111  1.7839
  236MOL0     H32500   3.449   5.552   4.389  0.6012  1.9574 -1.7892
  236MOL0     H32501   3.415   5.336   4.282  0.0943 -0.2269 -1.5647
  236MOL0     H32502   3.448   5.252   4.435 -0.7034  1.9459 -0.4909
  236MOL0     H32503   3.529   5.177   4.139 -2.8471 -0.6249 -1.0888
  236MOL0     H32504   3.551   5.076   4.289  0.4184  2.0771  2.9179
  236MOL0     H32505   3.293   5.111   4.304  1.1920 -0.9533  0.9691
  236MOL0     H32506   3.300   5.174   4.143 -0.8671 -1.9028 -0.5041
  236MOL0     H32507   3.391   4.981   4.044 -2.4436 -2.4744 -0.6280
  236MOL0     H32508   3.434   4.914   4.200  0.2237  1.8496  2.9284
  236MOL0     H32509   3.188   4.908   4.276 -0.1729 -0.4092  0.3503
  236MOL0     H32510   3.231   4.800   4.148  1.8323 -0.8252 -1.1638
  236MOL0     H32511   3.116   5.072   4.109  2.1728 -0.2265  0.3190
  236MOL0     H32512   3.167   4.958   3.980 -1.2403 -0.7297 -0.8146
  236MOL0     H32513   2.966   4.905   4.202  1.8437  2.1367  0.3428
  236MOL0     H32514   2.987   4.822   4.050 -0.2287 -1.1751  2.8778
  236MOL0     H32515   2.767   4.997   4.099  0.3698  1.4034 -0.0139
  236MOL0     H32516   2.890   5.107   4.099 -1.2898 -0.2384  0.6202
  236MOL0     H32517   2.768   5.203   3.899 -0.1563 -1.3693  1.7039
  236MOL0     H32518   2.756   5.258   3.590 -2.6412  0.4684 -0.9282
  236MOL0     H32519   2.620   5.182   3.666 -1.4120 -2.8002 -1.2658
  236MOL0     H32520   2.774   5.082   3.424  0.4641  0.8089  0.3446
  236MOL0     H32521   2.655   4.989   3.516  1.5610  0.3090  3.7370
  236MOL0     H32522   2.500   5.172   3.446  0.3743 -2.8096  1.7221
  236MOL0     H32523   2.630   5.249   3.344 -2.2000  1.1781 -0.5781
  236MOL0     H32524   2.527   4.971   3.303  0.6378 -0.8562 -2.6874
  236MOL0     H32525   2.510   5.112   3.193 -1.2579 -1.9567  0.5709
  236MOL0     H32526   2.829   5.132   3.013  1.8142 -0.8673  0.1297
  236MOL0     H32527   2.911   4.998   2.663  0.5942  1.1235 -0.5304
  236MOL0     H32528   2.983   5.072   2.812 -0.4722 -2.7652  2.5347
  236MOL0     H32529   2.836   5.141   2.729  1.3301  0.7482 -0.9930
  236MOL0     H32530   2.505   4.795   2.429 -0.9609 -1.2257 -1.3199
  236MOL0     H32531   2.512   4.657   2.241 -1.2993  4.8733 -0.1179
  236MOL0     H32532   2.548   4.516   2.078 -1.1491 -1.4771 -1.7224
  236MOL0     H32533   2.606   4.646   1.965  1.5764  1.1738  1.3500
  236MOL0     H32534   2.674   4.362   1.939 -2.3650  0.5678 -0.1145
  236MOL0     H32535   2.588   4.464   1.830 -1.4000  1.4897  0.7384
  236MOL0     H32536   2.895   4.522   1.890 -2.5533  2.0376  2.9361
  236MOL0     H32537   2.787   4.618   1.794 -1.0809  0.7028  2.7254
  236MOL0     H32538   2.750   4.411   1.637  0.9721 -1.5142 -0.8597
  236MOL0     H32539   2.844   4.316   1.747  2.2344 -1.0349 -3.8123
  236MOL0     H32540   3.021   4.539   1.669  2.4529 -0.2127 -0.5708
  236MOL0     H32541   3.024   4.387   1.593  3.2771  3.3625  0.3138
  236MOL0     H32542   2.840   4.601   1.512  1.2960  0.6835 -1.4655
  236MOL0     H32543   2.873   4.447   1.432 -2.0320 -0.9757  1.6725
  236MOL0     H32544   3.107   4.509   1.382  1.4943  0.2228 -0.9149
  236MOL0     H32545   3.077   4.656   1.477 -1.7360 -0.8686 -0.1054
  236MOL0     H32546   2.916   4.750   1.334  0.1115 -0.1388 -0.3784
  236MOL0     H32547   2.904   4.597   1.252  1.2154 -0.8246  1.1751
  236MOL0     H32548   2.933   4.647   2.236 -0.7150 -1.6470  1.6943
  236MOL0     H32549   2.937   4.784   2.442 -0.0149 -1.2414  0.2525
  236MOL0     H32550   2.573   4.732   2.885  0.5219 -1.8299  2.6489
  236MOL0     H32551   2.565   4.820   3.121  1.0079  0.1628 -0.1847
  236MOL0     H32552   3.815   5.344   4.472 -0.2183 -0.9433  1.4222
  236MOL0     H32553   3.867   5.508   4.665 -0.4191  1.0618  1.2019
  236MOL0     H32554   3.691   5.951   4.796  2.4953  0.0589  0.2254
  236MOL0     H32555   3.704   6.127   4.941 -1.0491 -0.2533 -1.0099
  236MOL0     H32556   3.714   6.268   5.120  1.3349  0.2385 -0.5452
  236MOL0     H32557   3.761   6.269   5.301  1.2331 -0.3472  0.7138
  236MOL0     H32558   3.978   6.163   5.188 -2.1214 -0.8363  1.0266
  236MOL0     H32559   3.962   6.311   5.279  0.5821  0.4769 -1.0828
  236MOL0     H32560   3.973   6.257   4.988  1.4494  0.1738  0.3983
  236MOL0     H32561   3.870   6.389   5.035  1.4475  1.3102 -0.0701
  236MOL0     H32562   4.155   6.375   5.137 -1.1870  0.0410  1.8998
  236MOL0     H32563   4.039   6.508   5.146  4.1005  0.7976  1.4725
  236MOL0     H32564   4.263   6.561   4.795  0.5920 -1.4915  1.7367
  236MOL0     H32565   3.732   5.855   5.270 -1.0317 -1.0350 -0.1973
  236MOL0     H32566   3.581   5.589   5.147  1.0039 -1.1797 -1.7555
  236MOL0     H32567   3.754   5.550   5.134 -1.6515 -1.1468 -0.7579
  236MOL0     H32568   3.691   5.636   5.273 -3.0981 -0.0551  0.4859
  237MOL0     O32569  11.501   3.424   2.723 -0.4860  0.2544  0.1984
  237MOL0     C32570  11.465   3.352   2.631  0.7179  0.6365  0.0495
  237MOL0     O32571  11.537   3.320   2.522  0.4625 -0.4842 -0.7983
  237MOL0     C32572  11.655   3.383   2.503 -0.7666  0.2387  0.0465
  237MOL0     C32573  11.674   3.455   2.391 -0.0922  0.0318  1.0438
  237MOL0     C32574  11.804   3.489   2.357 -0.2104  0.0983  0.2733
  237MOL0     C32575  11.907   3.471   2.443 -0.1675 -0.2786 -0.3022
  237MOL0     O32576  12.035   3.506   2.388  0.4296  0.5923 -0.6919
  237MOL0     C32577  12.134   3.536   2.486 -0.0676  0.6774  0.5757
  237MOL0     C32578  12.247   3.637   2.445 -0.0133  0.1714  0.2967
  237MOL0     C32579  12.349   3.663   2.554  0.1487 -0.6552 -0.0760
  237MOL0     C32580  12.412   3.808   2.538  1.2871 -0.1737 -0.5511
  237MOL0     C32581  12.466   3.852   2.670 -0.3926  0.3637  0.3826
  237MOL0     C32582  12.547   3.982   2.674  0.1809 -0.5806  0.3765
  237MOL0     C32583  12.567   4.038   2.811  0.4660 -0.6133 -0.4067
  237MOL0     C32584  12.655   4.164   2.805  0.7791  0.3567 -0.3481
  237MOL0     N32585  12.587   4.289   2.774 -0.0629 -1.0673  0.5666
  237MOL0     C32586  12.458   4.326   2.783  1.1128 -1.0026 -0.4206
  237MOL0     C32587  12.449   4.456   2.732 -0.2964 -0.0086  0.4559
  237MOL0     C32588  12.329   4.539   2.699  0.0440  0.0965  0.3280
  237MOL0     C32589  12.224   4.455   2.633  0.4203  0.3798 -0.6232
  237MOL0     C32590  12.106   4.530   2.571 -0.7161  0.3837  0.0190
  237MOL0     C32591  11.991   4.446   2.518 -0.6004 -0.2649 -0.2000
  237MOL0     O32592  11.905   4.533   2.451 -0.2759 -0.0257 -0.1127
  237MOL0     C32593  11.827   4.489   2.340  0.2245  0.7235  0.2493
  237MOL0     C32594  11.817   4.570   2.222  0.2047  0.0278  0.4214
  237MOL0     C32595  11.761   4.522   2.103  0.2213  0.5325  0.7743
  237MOL0     C32596  11.735   4.630   1.998  0.3893  0.8735 -0.3409
  237MOL0     C32597  11.726   4.380   2.097 -0.9395 -0.6416 -0.3017
  237MOL0     C32598  11.683   4.327   1.972  0.2808  0.1225  0.4134
  237MOL0     O32599  11.609   4.206   1.974  0.1364 -0.9534  0.2468
  237MOL0     C32600  11.550   4.176   1.865  0.1128  0.4183  0.6419
  237MOL0     C32601  11.439   4.233   1.815 -0.0730  0.4334 -1.1476
  237MOL0     C32602  11.392   4.199   1.688  1.6767  0.3395  0.3186
  237MOL0     C32603  11.436   4.089   1.612 -0.3234 -0.4847  0.7943
  237MOL0     O32604  11.370   4.037   1.498  0.3945  0.0999  0.2185
  237MOL0     C32605  11.437   3.959   1.398 -0.5775  0.3649 -0.3171
  237MOL0     C32606  11.337   3.928   1.289  0.0275  0.3333  0.6958
  237MOL0     C32607  11.322   4.060   1.205  0.6576  1.1831  0.7378
  237MOL0     C32608  11.207   4.048   1.100 -0.2312 -0.0167 -0.3708
  237MOL0     C32609  11.185   4.178   1.017  0.6250 -1.1486  0.7000
  237MOL0     C32610  11.234   4.168   0.871  0.3259  0.0100 -0.7949
  237MOL0     C32611  11.231   4.298   0.798  0.4363 -0.8775 -0.1720
  237MOL0     C32612  11.307   4.289   0.668 -0.4738  0.2346 -0.1630
  237MOL0    Cl32613  11.247   4.177   0.543  0.4027 -0.4078 -0.5425
  237MOL0     C32614  11.543   4.016   1.668 -0.5576 -0.1732 -0.3953
  237MOL0     C32615  11.600   4.064   1.787 -0.9069 -0.2468  0.8652
  237MOL0     O32616  11.713   4.385   1.866 -0.0740  0.3093  0.3830
  237MOL0     C32617  11.716   4.309   2.220 -0.3130 -0.1685 -0.0749
  237MOL0     C32618  11.771   4.358   2.333 -0.5189 -0.7265 -0.5454
  237MOL0     N32619  12.577   4.504   2.717 -0.4035 -0.7218 -0.3584
  237MOL0     N32620  12.658   4.400   2.734 -0.4815  0.8405 -0.1249
  237MOL0     C32621  11.885   3.421   2.564 -0.9294 -0.0893  0.3674
  237MOL0     C32622  11.765   3.371   2.593  0.8393  0.6158  0.2658
  237MOL0     C32623  11.329   3.299   2.636  0.8558 -0.8360  0.1097
  237MOL0     C32624  11.257   3.303   2.518  0.7254 -0.7576 -0.6416
  237MOL0     C32625  11.131   3.250   2.502 -1.0632  0.4759  0.6291
  237MOL0     C32626  11.074   3.192   2.614  0.2828  0.7453 -0.2799
  237MOL0     O32627  10.951   3.146   2.606 -0.0803  0.1967 -0.4136
  237MOL0     C32628  10.942   3.000   2.603  0.2179 -0.1410 -0.8729
  237MOL0     C32629  10.965   2.958   2.453  0.0506 -0.2470 -0.2851
  237MOL0     C32630  10.885   2.825   2.420 -0.8644 -1.5862 -0.9055
  237MOL0     C32631  10.958   2.761   2.299  0.1754 -0.2387  0.3406
  237MOL0     C32632  10.878   2.656   2.235 -0.4831  0.2510  0.3857
  237MOL0     C32633  10.825   2.554   2.194  0.6712 -0.1523  0.1415
  237MOL0     C32634  11.142   3.181   2.734 -0.4446  0.2863 -0.3392
  237MOL0     C32635  11.268   3.238   2.749  0.0948  0.0342 -0.8732
  237MOL0     C32636  11.342   3.235   2.882  0.4475 -0.1372 -0.0029
  237MOL0     H32637  11.597   3.461   2.314 -0.2542 -0.1677  1.1870
  237MOL0     H32638  11.816   3.527   2.256 -3.1252 -0.7471 -0.4909
  237MOL0     H32639  12.178   3.436   2.492 -3.0163 -0.6883  0.9801
  237MOL0     H32640  12.090   3.580   2.576 -0.4429  0.3159  0.5751
  237MOL0     H32641  12.295   3.597   2.356 -0.7833  0.5564 -0.3065
  237MOL0     H32642  12.208   3.734   2.410  3.4701  1.8970  0.7764
  237MOL0     H32643  12.301   3.660   2.652 -3.5247 -1.3964 -1.7388
  237MOL0     H32644  12.432   3.592   2.550  0.1845 -0.7084  1.1964
  237MOL0     H32645  12.481   3.806   2.453  1.0944  3.9331 -1.0042
  237MOL0     H32646  12.334   3.876   2.502  0.5187 -1.1693 -0.8197
  237MOL0     H32647  12.529   3.777   2.719  1.8064  0.0277 -2.6730
  237MOL0     H32648  12.375   3.857   2.731 -2.6335  2.7506 -2.8197
  237MOL0     H32649  12.647   3.959   2.634  0.6548  1.1539  0.4733
  237MOL0     H32650  12.498   4.064   2.621  0.3570 -1.4029 -1.1060
  237MOL0     H32651  12.604   3.964   2.882  0.0282 -1.3763 -0.9623
  237MOL0     H32652  12.464   4.047   2.847  0.1284 -1.0166 -1.2514
  237MOL0     H32653  12.681   4.186   2.909 -3.7474  2.5395  0.5944
  237MOL0     H32654  12.736   4.154   2.731 -0.4741  2.3273 -2.1188
  237MOL0     H32655  12.367   4.278   2.818 -1.4053  0.7789 -3.8774
  237MOL0     H32656  12.355   4.615   2.625 -2.7853 -0.9471 -1.9254
  237MOL0     H32657  12.290   4.588   2.789 -2.2416 -0.1573 -0.4641
  237MOL0     H32658  12.271   4.385   2.563  1.4787  0.4041  0.0406
  237MOL0     H32659  12.186   4.388   2.711 -1.2194  0.5695 -1.2249
  237MOL0     H32660  12.066   4.585   2.657 -0.7877  0.9020 -0.3397
  237MOL0     H32661  12.139   4.594   2.489  1.0213 -2.2192 -1.4502
  237MOL0     H32662  12.021   4.366   2.450 -0.6112 -2.6071  2.3883
  237MOL0     H32663  11.939   4.406   2.605 -0.5890  0.6001  0.2224
  237MOL0     H32664  11.864   4.668   2.228  1.2791 -0.3708 -0.8392
  237MOL0     H32665  11.638   4.603   1.954  0.8819 -1.7234  0.0552
  237MOL0     H32666  11.809   4.622   1.919  0.4152 -1.6382 -0.1193
  237MOL0     H32667  11.725   4.734   2.032 -0.6043  1.8044 -3.1382
  237MOL0     H32668  11.403   4.311   1.881 -2.6177 -1.0214 -0.6646
  237MOL0     H32669  11.314   4.256   1.638  1.0441 -2.2988 -1.9516
  237MOL0     H32670  11.531   4.003   1.364  0.5724 -2.0429 -0.4446
  237MOL0     H32671  11.451   3.864   1.449 -3.2293 -0.1957 -0.4584
  237MOL0     H32672  11.363   3.842   1.226  0.8651 -1.3079  3.1490
  237MOL0     H32673  11.239   3.898   1.329  0.2401  0.6271  1.4421
  237MOL0     H32674  11.413   4.065   1.144 -0.4865 -1.1600 -1.3305
  237MOL0     H32675  11.315   4.149   1.269  0.6221 -0.7949  3.6973
  237MOL0     H32676  11.120   4.035   1.164  1.0614 -1.1358  1.2426
  237MOL0     H32677  11.227   3.955   1.046 -2.3510 -1.4381  1.1462
  237MOL0     H32678  11.077   4.194   1.012  0.7523 -0.6731 -2.1271
  237MOL0     H32679  11.217   4.269   1.069 -0.9850  1.3319 -2.3106
  237MOL0     H32680  11.167   4.094   0.825 -0.1120 -0.7228  0.9327
  237MOL0     H32681  11.335   4.125   0.874  1.1625  1.8312 -1.4843
  237MOL0     H32682  11.284   4.372   0.859 -0.0356 -1.0425  0.4534
  237MOL0     H32683  11.128   4.329   0.777  0.6575 -1.2872 -1.9775
  237MOL0     H32684  11.407   4.260   0.699 -0.8276 -1.9251 -0.8678
  237MOL0     H32685  11.305   4.389   0.624  1.8031  0.2219 -0.3844
  237MOL0     H32686  11.576   3.922   1.626 -0.9484 -0.7477  0.5420
  237MOL0     H32687  11.697   4.019   1.806  0.7044  1.8829 -1.6994
  237MOL0     H32688  11.672   4.210   2.226 -0.8975  0.1635  1.4920
  237MOL0     H32689  11.781   4.298   2.422 -2.8674 -0.5424 -0.1004
  237MOL0     H32690  11.974   3.408   2.624  2.0554  1.3743 -3.3511
  237MOL0     H32691  11.751   3.335   2.694  1.9034 -3.2258 -0.7681
  237MOL0     H32692  11.305   3.360   2.440 -0.9787  0.8517 -0.5685
  237MOL0     H32693  11.096   3.246   2.400  1.4472 -1.2536 -0.2564
  237MOL0     H32694  11.019   2.955   2.666 -1.8920  1.5580  3.3420
  237MOL0     H32695  10.841   2.980   2.639 -0.4307  2.7365 -0.8061
  237MOL0     H32696  11.073   2.954   2.432  0.9223  0.6547  3.3579
  237MOL0     H32697  10.922   3.041   2.396 -0.3093 -0.0232  0.3009
  237MOL0     H32698  10.903   2.756   2.502 -1.1315  0.7407  1.2399
  237MOL0     H32699  10.780   2.856   2.415 -0.1166  1.3264 -0.4038
  237MOL0     H32700  11.064   2.735   2.310  0.2123  0.5031  1.9248
  237MOL0     H32701  10.969   2.837   2.221  0.6822  0.4994  1.1274
  237MOL0     H32702  10.771   2.463   2.177  0.4875  0.0426 -0.3300
  237MOL0     H32703  11.096   3.128   2.816  2.6595 -0.9843  0.7325
  237MOL0     H32704  11.408   3.320   2.897  0.9375 -0.1199 -2.0341
  237MOL0     H32705  11.272   3.225   2.966  3.6204 -1.0053  2.7718
  237MOL0     H32706  11.417   3.156   2.874  0.9438  0.3563 -0.2385
  238MOL0     O32707   0.646   3.979   3.909 -0.3923  0.1323 -0.0857
  238MOL0     C32708   0.656   3.897   4.001  0.6118  0.2731  0.2872
  238MOL0     O32709   0.712   3.930   4.125  0.3194  0.3210  0.2048
  238MOL0     C32710   0.774   4.054   4.132 -0.1128  0.1886  1.0457
  238MOL0     C32711   0.912   4.057   4.139 -0.1336  0.6128 -0.7885
  238MOL0     C32712   0.974   4.177   4.155 -0.4601  0.3712 -0.7481
  238MOL0     C32713   0.909   4.305   4.147  0.4572  0.3834 -0.4449
  238MOL0     O32714   0.987   4.417   4.162 -0.4780 -0.1413  0.2000
  238MOL0     C32715   0.929   4.553   4.159 -0.2583 -0.1361 -1.2272
  238MOL0     C32716   0.901   4.587   4.009 -0.0562 -0.8118 -0.5482
  238MOL0     C32717   0.849   4.729   3.986  0.5747 -0.8447 -0.5504
  238MOL0     C32718   0.894   4.840   4.077 -0.0699  1.1309 -0.2452
  238MOL0     C32719   0.908   4.977   4.009  0.6562 -0.1066 -0.0277
  238MOL0     C32720   0.999   5.063   4.096  0.0790 -0.2179 -0.6153
  238MOL0     C32721   1.007   5.202   4.054 -0.1450 -0.4405  0.5063
  238MOL0     C32722   1.108   5.278   4.141 -0.0529  0.5344 -0.0776
  238MOL0     N32723   1.084   5.289   4.280 -0.1391 -1.1024  0.1783
  238MOL0     C32724   0.966   5.289   4.343 -0.3430  0.0910  0.1507
  238MOL0     C32725   0.984   5.280   4.473 -0.4856  0.4183 -0.7145
  238MOL0     C32726   0.867   5.268   4.572 -0.2641  0.3793  0.2070
  238MOL0     C32727   0.772   5.145   4.554  0.3453 -0.0456 -0.7666
  238MOL0     C32728   0.828   5.016   4.609  0.8437 -1.0514  1.1055
  238MOL0     C32729   0.916   4.953   4.508 -0.1126  0.0079  1.5421
  238MOL0     O32730   0.944   4.830   4.548  0.3631 -0.1092 -0.0349
  238MOL0     C32731   1.052   4.769   4.490  0.8820  0.3887  0.2337
  238MOL0     C32732   1.073   4.634   4.541  0.3892 -0.2472  0.2229
  238MOL0     C32733   1.163   4.558   4.475  0.4822 -0.5007  0.0565
  238MOL0     C32734   1.181   4.425   4.536 -0.1135 -0.9059 -0.8356
  238MOL0     C32735   1.236   4.604   4.360 -0.1592 -0.0607  0.4762
  238MOL0     C32736   1.341   4.519   4.286 -0.3596  0.7312 -0.1741
  238MOL0     O32737   1.320   4.384   4.278 -0.1289  0.2739  0.4107
  238MOL0     C32738   1.409   4.299   4.222  0.2663 -0.4800  0.0107
  238MOL0     C32739   1.388   4.234   4.101 -0.9783 -0.8000 -0.5517
  238MOL0     C32740   1.486   4.144   4.046 -1.1751  0.0540 -0.7900
  238MOL0     C32741   1.613   4.130   4.108 -0.9009  0.0737 -0.7546
  238MOL0     O32742   1.716   4.042   4.068 -1.2874 -0.1966 -0.0126
  238MOL0     C32743   1.673   3.913   4.026 -0.1621 -0.3641 -0.0062
  238MOL0     C32744   1.758   3.816   4.115 -0.8127  0.4514 -0.0813
  238MOL0     C32745   1.751   3.668   4.066  0.6838  0.6300  0.3483
  238MOL0     C32746   1.855   3.582   4.133 -0.7860  1.2629  0.6510
  238MOL0     C32747   1.834   3.428   4.092 -0.2281 -1.2284 -0.5850
  238MOL0     C32748   1.944   3.330   4.142 -0.3526 -0.1407 -0.0157
  238MOL0     C32749   2.069   3.343   4.055  0.3812 -0.0668 -0.8170
  238MOL0     C32750   2.178   3.256   4.117 -0.1871 -0.5251 -0.3899
  238MOL0    Cl32751   2.220   3.347   4.256  0.0189  0.4395  0.1475
  238MOL0     C32752   1.629   4.197   4.229 -0.1504  0.5287  0.1327
  238MOL0     C32753   1.531   4.274   4.286  0.6098  0.2250  0.2970
  238MOL0     O32754   1.427   4.572   4.222 -0.1637 -0.3321  0.8970
  238MOL0     C32755   1.211   4.741   4.318  0.1856 -0.3064  0.3017
  238MOL0     C32756   1.123   4.819   4.380 -0.3627 -0.1425 -0.2147
  238MOL0     N32757   1.118   5.255   4.488  0.4153  1.1882  0.1182
  238MOL0     N32758   1.174   5.259   4.369  0.1111  0.4956 -0.4246
  238MOL0     C32759   0.767   4.294   4.130  0.0568 -0.5106  0.6089
  238MOL0     C32760   0.702   4.173   4.122 -0.0716  0.9860 -0.2084
  238MOL0     C32761   0.593   3.764   3.973  1.0963  0.7531 -0.3689
  238MOL0     C32762   0.652   3.661   4.056  0.0724  0.3272 -0.6732
  238MOL0     C32763   0.633   3.533   4.016 -0.1965  0.3348 -1.1509
  238MOL0     C32764   0.547   3.498   3.918  0.6715  0.2481  0.0372
  238MOL0     O32765   0.511   3.368   3.880 -0.0847 -0.2506 -0.6968
  238MOL0     C32766   0.543   3.251   3.964 -0.5930 -0.4884  0.7820
  238MOL0     C32767   0.526   3.109   3.889 -0.3285 -0.9331 -0.5890
  238MOL0     C32768   0.624   3.106   3.764  0.5293  0.2406 -0.6005
  238MOL0     C32769   0.605   2.973   3.683 -0.0270  0.6686 -0.2061
  238MOL0     C32770   0.476   2.978   3.619  0.0082 -0.9449 -0.2868
  238MOL0     C32771   0.364   2.989   3.575 -0.2329  0.2896 -0.7117
  238MOL0     C32772   0.477   3.601   3.857 -0.1608  0.2065  0.2808
  238MOL0     C32773   0.504   3.732   3.872  0.2967  0.5473  0.3900
  238MOL0     C32774   0.437   3.836   3.784  0.3058  0.2031 -0.1234
  238MOL0     H32775   0.962   3.962   4.120 -2.0754 -0.6051 -0.0780
  238MOL0     H32776   1.079   4.158   4.135 -0.9252 -0.3867 -2.6853
  238MOL0     H32777   1.012   4.614   4.196  1.4214 -2.1630 -1.4780
  238MOL0     H32778   0.849   4.554   4.233  1.8077 -3.8628  1.3682
  238MOL0     H32779   0.992   4.569   3.950 -1.9171  0.2276 -4.0567
  238MOL0     H32780   0.819   4.533   3.960 -1.3370  0.3632  0.2583
  238MOL0     H32781   0.863   4.761   3.882 -1.2277 -2.5148 -1.3702
  238MOL0     H32782   0.741   4.720   4.002  0.4163 -3.4904 -2.4828
  238MOL0     H32783   0.834   4.852   4.168  0.0432  3.6929 -0.4496
  238MOL0     H32784   0.995   4.825   4.117 -0.5611  3.0345  1.9204
  238MOL0     H32785   0.816   5.033   3.992  1.4824  0.6302 -2.3598
  238MOL0     H32786   0.965   4.966   3.916  1.0448 -1.0327  0.3013
  238MOL0     H32787   0.961   5.069   4.199  2.6133  0.9085  0.3293
  238MOL0     H32788   1.095   5.012   4.101  0.2429 -0.0761 -2.0793
  238MOL0     H32789   0.907   5.245   4.065 -0.3821 -0.7023 -0.5108
  238MOL0     H32790   1.039   5.209   3.949  1.0379 -0.9057  0.8239
  238MOL0     H32791   1.212   5.248   4.124 -0.2507 -1.5676  2.0158
  238MOL0     H32792   1.098   5.384   4.117 -2.1311  0.5579  0.7287
  238MOL0     H32793   0.869   5.281   4.294 -1.6976 -0.0017  2.6990
  238MOL0     H32794   0.809   5.360   4.559  0.7999  0.7158 -3.0928
  238MOL0     H32795   0.897   5.267   4.677  2.2292  1.0301 -0.4442
  238MOL0     H32796   0.679   5.177   4.601  1.8751  1.8014  1.1944
  238MOL0     H32797   0.756   5.138   4.446  0.1396 -1.9607 -0.6561
  238MOL0     H32798   0.885   5.035   4.701  0.9956  1.3714  0.5863
  238MOL0     H32799   0.741   4.954   4.629 -0.7707  0.1738 -1.5766
  238MOL0     H32800   0.860   4.951   4.414 -2.0616  0.7497  2.6294
  238MOL0     H32801   1.007   5.013   4.496  0.3223 -1.0558 -0.9606
  238MOL0     H32802   1.005   4.589   4.612  0.2876  0.5270  0.6335
  238MOL0     H32803   1.272   4.377   4.501  0.9272 -0.3168  0.9430
  238MOL0     H32804   1.101   4.354   4.515  0.8032 -1.5390 -2.3344
  238MOL0     H32805   1.173   4.427   4.645 -0.1949 -2.7854 -0.7816
  238MOL0     H32806   1.296   4.241   4.044 -3.8915 -2.2189  3.4472
  238MOL0     H32807   1.458   4.095   3.954  0.1514 -4.2740  0.8443
  238MOL0     H32808   1.565   3.894   4.021 -0.0305 -0.9232 -1.4380
  238MOL0     H32809   1.708   3.889   3.925 -2.2041  2.4043 -1.4984
  238MOL0     H32810   1.863   3.846   4.110 -1.1991  1.6746 -1.6708
  238MOL0     H32811   1.722   3.809   4.217  2.7755 -1.3952  1.2420
  238MOL0     H32812   1.752   3.658   3.957  2.7128 -1.0989  0.4735
  238MOL0     H32813   1.656   3.626   4.101  1.5578  0.8272  3.1665
  238MOL0     H32814   1.856   3.592   4.242 -2.2232  0.6168  0.7439
  238MOL0     H32815   1.957   3.609   4.102  0.2703 -1.3928  1.5869
  238MOL0     H32816   1.730   3.413   4.124 -1.1139  2.3973 -1.2206
  238MOL0     H32817   1.822   3.429   3.983  0.4374  2.9534 -0.7904
  238MOL0     H32818   1.914   3.225   4.144  0.4702 -0.4603 -2.0053
  238MOL0     H32819   1.958   3.357   4.247 -1.8722 -0.5581  0.3197
  238MOL0     H32820   2.095   3.450   4.055  4.5002 -0.7392  3.0751
  238MOL0     H32821   2.052   3.299   3.957  0.3920 -1.2500 -0.2989
  238MOL0     H32822   2.264   3.250   4.049  0.4778 -3.6812  0.5918
  238MOL0     H32823   2.136   3.160   4.145 -0.7720 -0.0466  0.4060
  238MOL0     H32824   1.722   4.186   4.285  0.4694 -2.7633 -1.2651
  238MOL0     H32825   1.553   4.334   4.374 -1.4212  1.0632  0.2815
  238MOL0     H32826   1.268   4.767   4.229  1.3318 -2.1278  0.4436
  238MOL0     H32827   1.107   4.918   4.339  1.1310  0.7945  1.2902
  238MOL0     H32828   0.703   4.377   4.102  0.4441 -0.8266 -1.3911
  238MOL0     H32829   0.595   4.161   4.105  0.0273 -0.4328  0.1020
  238MOL0     H32830   0.724   3.685   4.134  1.9647 -2.8857 -1.2642
  238MOL0     H32831   0.687   3.453   4.066  0.2340  1.1282 -0.3031
  238MOL0     H32832   0.645   3.253   4.006 -1.5459 -0.4491  3.2429
  238MOL0     H32833   0.478   3.259   4.051  1.2013 -0.3807  2.1920
  238MOL0     H32834   0.419   3.105   3.869 -0.2253 -1.3433 -1.0844
  238MOL0     H32835   0.555   3.020   3.946  1.9659  0.6428  0.8810
  238MOL0     H32836   0.591   3.191   3.703  0.1553  1.2662  0.9507
  238MOL0     H32837   0.724   3.126   3.803 -0.2995  1.2192  1.1786
  238MOL0     H32838   0.629   2.892   3.753 -0.2374  1.9884  1.4447
  238MOL0     H32839   0.688   2.972   3.612 -1.3340 -2.9074 -1.9349
  238MOL0     H32840   0.261   2.986   3.545 -0.8331 -0.5567  1.2105
  238MOL0     H32841   0.395   3.585   3.788  0.1852  1.6138 -0.4786
  238MOL0     H32842   0.503   3.913   3.744  0.8427 -1.5656 -2.8579
  238MOL0     H32843   0.392   3.792   3.695 -0.1825 -0.3332  0.3806
  238MOL0     H32844   0.349   3.872   3.840  0.1773 -2.6220  1.6654
  239MOL0     O32845   9.505   4.432   4.845 -0.0888  0.5816  0.3762
  239MOL0     C32846   9.500   4.544   4.790  0.2052  0.6844  0.2047
  239MOL0     O32847   9.545   4.657   4.842  0.4071  0.0216 -0.9617
  239MOL0     C32848   9.574   4.667   4.978  0.7372 -0.3337  0.1573
  239MOL0     C32849   9.674   4.586   5.036  0.5070 -0.8364 -0.5100
  239MOL0     C32850   9.704   4.597   5.179  0.5075 -0.4225  0.3117
  239MOL0     C32851   9.631   4.681   5.260  0.2863 -0.3851 -0.8148
  239MOL0     O32852   9.648   4.715   5.398 -0.2640  0.4174 -0.5730
  239MOL0     C32853   9.778   4.696   5.460  0.5364  0.2035 -0.7436
  239MOL0     C32854   9.749   4.698   5.615 -0.3935  0.2330 -0.6877
  239MOL0     C32855   9.880   4.695   5.695  1.2838 -0.4724 -0.7754
  239MOL0     C32856   9.936   4.835   5.702  0.1907 -0.0462 -0.1667
  239MOL0     C32857  10.080   4.837   5.751  0.3837 -0.1938  0.3828
  239MOL0     C32858  10.123   4.737   5.853  0.5486 -0.3959 -0.4255
  239MOL0     C32859  10.251   4.778   5.921 -0.1253  0.4954  0.1563
  239MOL0     C32860  10.275   4.687   6.037 -0.5605 -0.4729 -0.0436
  239MOL0     N32861  10.233   4.546   6.019  0.3296 -0.1789 -0.0214
  239MOL0     C32862  10.311   4.462   5.940  0.0562  0.1724  0.0105
  239MOL0     C32863  10.249   4.344   5.945  0.1361  0.5994 -0.3765
  239MOL0     C32864  10.293   4.217   5.885  0.0023  0.2007 -0.1851
  239MOL0     C32865  10.244   4.203   5.740 -0.7303 -0.3024 -0.0069
  239MOL0     C32866  10.319   4.100   5.659  0.7461 -0.2274 -0.2513
  239MOL0     C32867  10.303   4.116   5.504 -0.4593 -0.3830 -0.1494
  239MOL0     O32868  10.217   4.017   5.451  0.2398 -0.0165 -0.2301
  239MOL0     C32869  10.175   4.022   5.325 -0.1335 -0.4183 -0.3995
  239MOL0     C32870  10.090   3.924   5.277 -1.2161  0.4187  0.4803
  239MOL0     C32871  10.057   3.913   5.135  0.3374 -0.5261 -0.1008
  239MOL0     C32872   9.963   3.806   5.081 -0.3538  0.8297  0.1826
  239MOL0     C32873  10.105   4.023   5.050  0.9038 -0.0637 -0.4201
  239MOL0     C32874  10.064   4.050   4.906  0.4499 -0.2630  0.0404
  239MOL0     O32875  10.091   4.178   4.858 -0.2374 -0.4016 -0.2901
  239MOL0     C32876  10.070   4.204   4.722  0.1001  0.4669 -0.3877
  239MOL0     C32877  10.167   4.274   4.650 -0.4755  0.2788 -0.1736
  239MOL0     C32878  10.153   4.312   4.515  0.3338  0.2478 -0.6349
  239MOL0     C32879  10.027   4.287   4.448 -0.3639 -0.7309 -0.6142
  239MOL0     O32880  10.031   4.314   4.316 -0.4853  0.1266 -0.8409
  239MOL0     C32881   9.908   4.329   4.243  0.4456 -0.5608  0.1276
  239MOL0     C32882   9.906   4.265   4.103  0.0922 -0.0955  0.3717
  239MOL0     C32883   9.812   4.343   4.025 -0.0153  0.5949 -0.4292
  239MOL0     C32884   9.772   4.269   3.897  0.1490 -0.0357  0.5408
  239MOL0     C32885   9.645   4.191   3.916  0.0647 -0.7129  0.1508
  239MOL0     C32886   9.519   4.274   3.926 -0.4241 -0.6468 -1.6478
  239MOL0     C32887   9.487   4.347   3.796  0.1252 -0.0917  0.1068
  239MOL0     C32888   9.338   4.402   3.791  0.1313  0.3324 -0.5276
  239MOL0    Cl32889   9.330   4.519   3.658 -0.3887  0.1709 -0.1292
  239MOL0     C32890   9.929   4.232   4.524 -0.5356  0.6168  0.1574
  239MOL0     C32891   9.946   4.185   4.661 -1.2165  0.4596  0.1879
  239MOL0     O32892  10.023   3.953   4.843  0.4868  0.1735  0.7353
  239MOL0     C32893  10.208   4.106   5.093  0.2216  0.2099  0.1220
  239MOL0     C32894  10.237   4.109   5.231  0.6249 -0.5079 -0.4685
  239MOL0     N32895  10.140   4.358   6.027  0.0507  0.4610  0.6695
  239MOL0     N32896  10.128   4.475   6.073 -0.7557  0.0937  0.1014
  239MOL0     C32897   9.523   4.749   5.202 -0.2694 -0.9258 -0.5364
  239MOL0     C32898   9.497   4.752   5.063  0.4828  0.6876 -0.6553
  239MOL0     C32899   9.435   4.554   4.656  0.0399  1.3631 -0.0625
  239MOL0     C32900   9.460   4.452   4.566 -1.1156 -1.0507 -0.5455
  239MOL0     C32901   9.391   4.454   4.443 -0.1447  0.6618 -0.1963
  239MOL0     C32902   9.307   4.561   4.410  1.0325  0.7700 -0.2459
  239MOL0     O32903   9.253   4.561   4.279 -0.5238  0.7218 -0.1214
  239MOL0     C32904   9.205   4.682   4.228 -0.0971 -0.4243  0.0898
  239MOL0     C32905   9.172   4.657   4.082 -0.4332  0.6013 -0.4622
  239MOL0     C32906   9.032   4.592   4.078  0.1272 -0.2903 -0.1141
  239MOL0     C32907   8.995   4.544   3.939  0.1280  0.0892  0.8274
  239MOL0     C32908   8.880   4.450   3.941 -0.3915 -0.4507 -0.9835
  239MOL0     C32909   8.788   4.367   3.948 -0.3251 -0.2827 -0.1746
  239MOL0     C32910   9.284   4.673   4.504  0.4984 -0.4311 -0.2588
  239MOL0     C32911   9.349   4.666   4.625 -0.7862 -0.4371 -0.3792
  239MOL0     C32912   9.324   4.775   4.720  0.1605 -0.0406 -0.0411
  239MOL0     H32913   9.736   4.514   4.984  1.6261 -0.0250 -0.3151
  239MOL0     H32914   9.772   4.524   5.222  2.2689  0.5330 -0.7028
  239MOL0     H32915   9.844   4.782   5.444 -0.5332  1.6156  1.8064
  239MOL0     H32916   9.837   4.614   5.419  1.0970  2.3149 -4.6814
  239MOL0     H32917   9.695   4.783   5.657 -1.6090 -0.4464 -0.8470
  239MOL0     H32918   9.694   4.605   5.636 -0.3108  0.2180 -0.5336
  239MOL0     H32919   9.856   4.660   5.796 -2.5582  1.1991 -0.9267
  239MOL0     H32920   9.953   4.633   5.642  2.5370  1.4925 -1.4558
  239MOL0     H32921   9.921   4.892   5.609 -0.0151  0.0015 -0.1054
  239MOL0     H32922   9.882   4.889   5.780  1.3447  0.1514  0.5222
  239MOL0     H32923  10.108   4.941   5.771  0.7639  0.4019 -2.7535
  239MOL0     H32924  10.131   4.812   5.658  0.1182  1.4490 -0.2414
  239MOL0     H32925  10.050   4.737   5.935 -0.6327  2.3662 -1.4043
  239MOL0     H32926  10.133   4.640   5.803  2.7395 -0.7738  0.6184
  239MOL0     H32927  10.251   4.883   5.952 -1.0774  0.2524  1.0284
  239MOL0     H32928  10.333   4.766   5.849  0.7972 -0.9968  1.4092
  239MOL0     H32929  10.383   4.687   6.052  0.0655 -0.4143 -3.7321
  239MOL0     H32930  10.227   4.726   6.127  0.2576  1.5496 -0.4322
  239MOL0     H32931  10.408   4.485   5.897  1.1820  1.8731  3.1353
  239MOL0     H32932  10.252   4.131   5.939 -0.2203  1.6520  2.0801
  239MOL0     H32933  10.402   4.224   5.884 -0.0674  1.6377  0.4274
  239MOL0     H32934  10.136   4.187   5.737 -1.1451  2.1999 -1.9881
  239MOL0     H32935  10.259   4.299   5.690  1.0688 -1.2705 -1.4178
  239MOL0     H32936  10.425   4.110   5.685  1.1329 -0.0140 -1.8443
  239MOL0     H32937  10.286   4.003   5.696  0.4044  0.6245  1.8673
  239MOL0     H32938  10.273   4.217   5.475 -0.5105 -0.3752 -0.0668
  239MOL0     H32939  10.404   4.097   5.465 -0.7236  3.1654 -3.1339
  239MOL0     H32940  10.050   3.842   5.336  2.8233  0.0826  3.1754
  239MOL0     H32941   9.940   3.731   5.158  0.5507 -0.6006 -0.8896
  239MOL0     H32942  10.007   3.745   5.002  0.4075  0.1999  1.0630
  239MOL0     H32943   9.873   3.859   5.050  0.6170  1.4601 -1.6703
  239MOL0     H32944  10.255   4.305   4.706 -0.3980 -1.6030  0.8096
  239MOL0     H32945  10.222   4.373   4.457  0.2866 -0.7818 -1.8003
  239MOL0     H32946   9.823   4.287   4.297 -0.6562 -1.8766 -2.4645
  239MOL0     H32947   9.899   4.438   4.229  3.9500 -0.4889 -3.4296
  239MOL0     H32948  10.004   4.252   4.054  0.2048  1.3526  0.1806
  239MOL0     H32949   9.867   4.163   4.103  0.3656 -0.2436 -1.4126
  239MOL0     H32950   9.868   4.436   4.007 -2.0694  1.9075 -0.4428
  239MOL0     H32951   9.728   4.371   4.090  2.3781  3.1725  1.8307
  239MOL0     H32952   9.849   4.195   3.877  0.4738  0.7628 -1.3082
  239MOL0     H32953   9.780   4.326   3.804  2.0351 -1.2018 -0.0695
  239MOL0     H32954   9.629   4.125   3.830  0.4692 -2.1071  1.1094
  239MOL0     H32955   9.657   4.129   4.005 -0.8868  0.1345  0.8999
  239MOL0     H32956   9.526   4.355   3.998  0.4584 -2.2104  0.1161
  239MOL0     H32957   9.431   4.218   3.959 -1.6141 -0.1073 -3.7231
  239MOL0     H32958   9.503   4.280   3.711 -0.2105 -0.9811  0.7285
  239MOL0     H32959   9.555   4.430   3.778  1.4389 -1.0847  0.3676
  239MOL0     H32960   9.309   4.451   3.885 -0.2923 -0.1428 -0.4082
  239MOL0     H32961   9.269   4.320   3.772 -0.8371  1.3970 -1.8194
  239MOL0     H32962   9.824   4.228   4.497 -1.8374  1.0442  4.4572
  239MOL0     H32963   9.866   4.138   4.717 -0.2909 -0.0485  1.1266
  239MOL0     H32964  10.252   4.165   5.013 -1.2586 -0.2814 -1.1046
  239MOL0     H32965  10.304   4.192   5.253 -0.7452  0.8013 -1.0079
  239MOL0     H32966   9.461   4.812   5.266  0.9835  0.8975 -1.0279
  239MOL0     H32967   9.419   4.814   5.020  1.0366  1.5212 -0.4906
  239MOL0     H32968   9.537   4.379   4.585 -0.5223 -0.5023 -0.7991
  239MOL0     H32969   9.397   4.374   4.371 -1.8076  1.8538 -1.7506
  239MOL0     H32970   9.117   4.731   4.270 -0.3511  1.5682 -2.4609
  239MOL0     H32971   9.283   4.759   4.237 -1.6856  1.1016  1.7072
  239MOL0     H32972   9.251   4.587   4.056 -1.2670  0.1235 -1.7412
  239MOL0     H32973   9.190   4.752   4.031  0.4449  0.5939 -0.1825
  239MOL0     H32974   9.021   4.510   4.149  1.6415  1.5770  2.4334
  239MOL0     H32975   8.956   4.666   4.106 -0.4833 -1.0265  0.1898
  239MOL0     H32976   9.071   4.480   3.893 -0.9465  0.2725 -1.3324
  239MOL0     H32977   8.980   4.632   3.875  0.4607 -0.9279 -0.7220
  239MOL0     H32978   8.716   4.288   3.956  0.5595 -0.9769  1.3333
  239MOL0     H32979   9.209   4.751   4.498 -0.9409 -1.5599  1.8203
  239MOL0     H32980   9.415   4.835   4.710  2.7778 -3.4875  0.9377
  239MOL0     H32981   9.230   4.825   4.695  1.3394  2.0539 -0.4658
  239MOL0     H32982   9.304   4.747   4.824  1.9667 -0.1128  0.3224
  240MOL0     O32983   5.826   3.770   9.869  0.6755  0.1341 -0.5388
  240MOL0     C32984   5.792   3.881   9.913  1.6137 -0.0683 -0.8904
  240MOL0     O32985   5.724   3.908  10.034 -0.5749  0.7013 -0.2577
  240MOL0     C32986   5.653   3.811  10.101  0.3494 -0.7337 -0.4950
  240MOL0     C32987   5.613   3.847  10.226  0.1735  0.1785  0.6659
  240MOL0     C32988   5.531   3.758  10.304 -0.7266 -0.1735 -0.6498
  240MOL0     C32989   5.519   3.628  10.265  0.3773  0.3353 -0.5647
  240MOL0     O32990   5.437   3.546  10.345 -0.7317  1.0586 -0.8322
  240MOL0     C32991   5.518   3.462  10.428 -0.3687 -0.7005 -0.0981
  240MOL0     C32992   5.506   3.521  10.575  0.5774 -0.2866  0.0295
  240MOL0     C32993   5.592   3.443  10.667  0.5409  0.6394  0.1631
  240MOL0     C32994   5.586   3.486  10.814 -0.4997 -0.0157 -0.4457
  240MOL0     C32995   5.453   3.466  10.891 -0.5718  0.4096  0.7098
  240MOL0     C32996   5.458   3.534  11.026  0.6970  0.2747  1.2342
  240MOL0     C32997   5.417   3.682  11.010  0.1350  0.7369  0.5126
  240MOL0     C32998   5.419   3.767  11.134  0.4784 -0.6293  0.2114
  240MOL0     N32999   5.547   3.751  11.203 -0.7478 -0.8892 -0.1177
  240MOL0     C33000   5.664   3.785  11.142 -0.0223 -0.5273  0.4376
  240MOL0     C33001   5.750   3.800  11.244  0.6746  0.2383 -0.4558
  240MOL0     C33002   5.897   3.814  11.230  0.4619  0.4839  0.2704
  240MOL0     C33003   5.991   3.877  11.342 -0.1964  0.4014  0.3155
  240MOL0     C33004   5.955   4.020  11.358  0.2806 -0.1409  1.0233
  240MOL0     C33005   6.024   4.076  11.485  0.2316  0.5847  0.6591
  240MOL0     O33006   6.164   4.046  11.478 -0.3620 -0.0346 -0.0677
  240MOL0     C33007   6.248   4.141  11.538  0.1326 -0.1330 -0.0653
  240MOL0     C33008   6.377   4.150  11.484  0.1922  1.2477  0.8057
  240MOL0     C33009   6.469   4.248  11.525 -0.1748 -0.0872 -1.2386
  240MOL0     C33010   6.589   4.266  11.439  0.4649 -0.6460 -0.0377
  240MOL0     C33011   6.443   4.331  11.637  0.2097 -0.0687 -0.0779
  240MOL0     C33012   6.512   4.458  11.678 -0.2253 -0.9048  0.7579
  240MOL0     O33013   6.593   4.520  11.588  0.0524 -0.2234 -0.2412
  240MOL0     C33014   6.652   4.639  11.631 -1.0152 -0.4619 -0.1337
  240MOL0     C33015   6.579   4.753  11.670  0.0648  0.4904 -0.6572
  240MOL0     C33016   6.639   4.870  11.718 -1.5053  0.0093  0.9653
  240MOL0     C33017   6.779   4.887  11.717 -0.6217  0.3235  0.5223
  240MOL0     O33018   6.824   5.001  11.781  0.1043  0.8803  0.0885
  240MOL0     C33019   6.966   5.018  11.780  0.8651  0.3576 -0.7907
  240MOL0     C33020   6.990   5.154  11.846  0.9077 -1.2564  0.1899
  240MOL0     C33021   7.139   5.190  11.846  0.4198  0.2873  0.2194
  240MOL0     C33022   7.187   5.230  11.984  0.0148  0.4711 -0.3381
  240MOL0     C33023   7.340   5.219  12.002  0.2260 -0.7343 -0.5404
  240MOL0     C33024   7.421   5.310  11.898  0.2946 -0.3428 -0.6777
  240MOL0     C33025   7.556   5.350  11.960 -0.2160  0.5634  0.3732
  240MOL0     C33026   7.551   5.438  12.089  0.4189  0.4825 -0.0454
  240MOL0    Cl33027   7.718   5.478  12.131  0.1070 -0.1121  0.2605
  240MOL0     C33028   6.853   4.774  11.683 -1.0479 -0.0239  0.3466
  240MOL0     C33029   6.794   4.652  11.649 -0.4157 -0.4189  0.1201
  240MOL0     O33030   6.511   4.486  11.796 -0.0579  0.3958 -0.4824
  240MOL0     C33031   6.328   4.295  11.710 -0.5315  0.1232  0.0284
  240MOL0     C33032   6.228   4.207  11.658  0.2367  0.1033 -0.0427
  240MOL0     N33033   5.676   3.780  11.362 -0.3176 -0.0536 -0.2969
  240MOL0     N33034   5.558   3.743  11.331 -0.8373 -0.7206  0.6045
  240MOL0     C33035   5.562   3.588  10.141 -0.0258  0.3762 -0.1216
  240MOL0     C33036   5.628   3.678  10.059 -0.4511 -0.0448 -0.3054
  240MOL0     C33037   5.805   4.013   9.840  0.1312 -1.0972 -0.2942
  240MOL0     C33038   5.782   4.140   9.903 -0.7827  0.4385 -0.7382
  240MOL0     C33039   5.797   4.263   9.839  0.7726 -1.0746 -0.1867
  240MOL0     C33040   5.847   4.260   9.709  0.2260 -0.1654 -0.6926
  240MOL0     O33041   5.892   4.370   9.643  0.4452  0.1648 -0.0859
  240MOL0     C33042   5.932   4.484   9.716 -0.2418 -0.5237 -0.5131
  240MOL0     C33043   5.980   4.571   9.600  0.2459 -0.4286  0.4686
  240MOL0     C33044   6.023   4.711   9.651 -0.2245  0.3501 -0.8740
  240MOL0     C33045   6.031   4.805   9.526 -0.3097  0.8229  0.1422
  240MOL0     C33046   6.143   4.777   9.436 -0.0118  0.0420 -0.6897
  240MOL0     C33047   6.231   4.774   9.355  0.6446  0.0627  0.3882
  240MOL0     C33048   5.854   4.140   9.637  0.5461 -0.4731  0.3645
  240MOL0     C33049   5.829   4.019   9.695 -0.2914 -0.2672 -0.4380
  240MOL0     C33050   5.823   3.895   9.601  0.1461 -0.9260  0.1085
  240MOL0     H33051   5.648   3.946  10.251 -1.9627  1.3265 -0.5690
  240MOL0     H33052   5.502   3.784  10.405  2.0055 -0.0908  0.1996
  240MOL0     H33053   5.622   3.463  10.392 -0.5521 -3.4374 -0.9595
  240MOL0     H33054   5.479   3.360  10.431 -0.2410 -0.8006 -1.2157
  240MOL0     H33055   5.529   3.627  10.585 -3.3986  0.6844  0.8039
  240MOL0     H33056   5.400   3.511  10.603  0.1975  0.6452 -1.0362
  240MOL0     H33057   5.584   3.335  10.658 -1.0203  0.4169  3.1424
  240MOL0     H33058   5.695   3.464  10.634 -0.0929  1.2778 -1.5057
  240MOL0     H33059   5.664   3.428  10.864 -0.8823 -1.4159 -1.4279
  240MOL0     H33060   5.617   3.590  10.826  1.8844 -0.9588  2.8318
  240MOL0     H33061   5.434   3.361  10.910  1.1108  0.2180  1.5591
  240MOL0     H33062   5.369   3.486  10.824 -1.5230 -3.7012  0.4150
  240MOL0     H33063   5.383   3.489  11.092  0.3251 -1.6734 -0.4137
  240MOL0     H33064   5.557   3.517  11.069 -1.1950 -3.6696  4.8164
  240MOL0     H33065   5.313   3.693  10.978 -0.0344 -3.9327 -1.3252
  240MOL0     H33066   5.475   3.729  10.931  1.7270 -0.8114  0.6874
  240MOL0     H33067   5.389   3.867  11.104 -3.1616 -1.3659  0.9193
  240MOL0     H33068   5.336   3.743  11.202  0.1917  2.0903  0.9265
  240MOL0     H33069   5.673   3.795  11.034 -3.1909 -3.3499 -0.2362
  240MOL0     H33070   5.922   3.866  11.137 -2.3184 -0.4497 -1.1485
  240MOL0     H33071   5.931   3.711  11.219 -0.8306  0.0048  0.5454
  240MOL0     H33072   5.997   3.830  11.441  0.8725 -0.0222  0.0642
  240MOL0     H33073   6.092   3.885  11.302 -1.3172  1.3081 -2.5688
  240MOL0     H33074   5.984   4.080  11.271 -1.5077 -2.2203 -1.1234
  240MOL0     H33075   5.848   4.029  11.378  0.4737 -0.1057  2.0960
  240MOL0     H33076   6.008   4.184  11.484 -1.5214  0.3500 -0.8750
  240MOL0     H33077   5.990   4.034  11.580  1.1413  0.3036  0.8695
  240MOL0     H33078   6.395   4.078  11.405 -0.8274  0.2670  1.4447
  240MOL0     H33079   6.674   4.282  11.506 -0.9676  3.2473  1.1325
  240MOL0     H33080   6.583   4.340  11.358  1.6904  0.5155  0.8916
  240MOL0     H33081   6.619   4.176  11.384  0.6099 -2.0055  2.1514
  240MOL0     H33082   6.472   4.736  11.669 -0.1273  1.6189 -0.9881
  240MOL0     H33083   6.578   4.954  11.752 -1.0176 -0.0457  2.0261
  240MOL0     H33084   7.028   4.944  11.830  2.3254  3.4399  2.3643
  240MOL0     H33085   7.000   5.020  11.676 -0.5088 -0.3327 -1.2816
  240MOL0     H33086   6.946   5.233  11.784 -0.6178 -1.1513  1.3399
  240MOL0     H33087   6.945   5.157  11.946  0.1558  0.9710 -0.1550
  240MOL0     H33088   7.145   5.273  11.775 -0.8487  2.4743  2.5163
  240MOL0     H33089   7.187   5.095  11.824 -3.4873 -1.9863  0.4868
  240MOL0     H33090   7.142   5.168  12.061 -0.7404  3.8168  2.1418
  240MOL0     H33091   7.163   5.336  11.995 -0.7202  0.2360  0.4357
  240MOL0     H33092   7.367   5.249  12.104 -0.7516  3.9846 -1.4481
  240MOL0     H33093   7.373   5.115  11.994 -2.0953 -1.4161 -2.4585
  240MOL0     H33094   7.375   5.405  11.869  0.5652  0.2792  0.8691
  240MOL0     H33095   7.430   5.244  11.811 -0.7440 -0.1015 -0.9868
  240MOL0     H33096   7.623   5.394  11.886  1.8500 -0.4888  1.5319
  240MOL0     H33097   7.606   5.257  11.989  1.0799  1.3869  0.8595
  240MOL0     H33098   7.499   5.385  12.170 -1.0184  1.2485 -0.4415
  240MOL0     H33099   7.501   5.533  12.072  3.6914  1.9279 -2.8933
  240MOL0     H33100   6.960   4.764  11.699 -1.1418 -3.5643 -0.4736
  240MOL0     H33101   6.863   4.569  11.639 -3.0844 -2.8604  0.9083
  240MOL0     H33102   6.297   4.346  11.801 -3.1745 -3.5373  1.4140
  240MOL0     H33103   6.132   4.191  11.705  1.2315 -2.8508  1.2461
  240MOL0     H33104   5.541   3.490  10.098 -0.6047  0.7671 -0.7609
  240MOL0     H33105   5.652   3.645   9.959 -1.6780  2.4151 -1.4911
  240MOL0     H33106   5.753   4.150  10.007 -3.2899  2.4385 -1.5161
  240MOL0     H33107   5.775   4.355   9.893  2.3876  0.3164 -1.7372
  240MOL0     H33108   5.857   4.529   9.783  2.6979  2.8828  0.8277
  240MOL0     H33109   6.018   4.465   9.780 -0.8714 -1.2212  0.1454
  240MOL0     H33110   5.898   4.578   9.528 -0.1502 -0.3054  0.9257
  240MOL0     H33111   6.065   4.531   9.543  0.1334  1.4678 -1.1454
  240MOL0     H33112   5.944   4.749   9.716  2.8832  2.7245  1.8661
  240MOL0     H33113   6.104   4.701   9.724  0.0119 -1.4945 -1.3342
  240MOL0     H33114   6.048   4.910   9.551  2.9156  0.3386  0.3787
  240MOL0     H33115   5.936   4.808   9.472 -2.4193  0.6609  3.5092
  240MOL0     H33116   6.317   4.765   9.292  1.4189 -1.9970  1.6284
  240MOL0     H33117   5.880   4.146   9.532 -2.3037  0.3528 -0.3751
  240MOL0     H33118   5.829   3.917   9.494 -1.3012 -2.7701 -0.4115
  240MOL0     H33119   5.919   3.850   9.626  1.3376  1.2004 -0.4288
  240MOL0     H33120   5.730   3.839   9.620 -0.3514 -0.5565 -1.1629
  241MOL0     O33121  10.212   6.886   7.753 -1.0120 -0.2113  0.5918
  241MOL0     C33122  10.222   6.770   7.784  0.1278  0.3696  0.1023
  241MOL0     O33123  10.130   6.682   7.763  0.1438  0.5074  0.6187
  241MOL0     C33124  10.036   6.714   7.672 -0.7708 -0.4041 -0.3072
  241MOL0     C33125  10.069   6.713   7.535  0.0471 -0.5662 -1.1642
  241MOL0     C33126   9.975   6.779   7.454 -0.7683 -0.0452  0.6799
  241MOL0     C33127   9.852   6.820   7.498  0.8709 -0.1184  0.2410
  241MOL0     O33128   9.763   6.870   7.408  0.3766  0.4127  0.8388
  241MOL0     C33129   9.741   6.808   7.280 -0.4677  0.4864  0.7470
  241MOL0     C33130   9.733   6.651   7.267 -0.2075  0.7620 -0.0809
  241MOL0     C33131   9.684   6.589   7.129  0.4354  1.7203  0.4082
  241MOL0     C33132   9.780   6.474   7.074 -0.3232  0.1953 -0.4167
  241MOL0     C33133   9.928   6.517   7.045 -0.9009  0.4546  0.2553
  241MOL0     C33134  10.003   6.400   6.987 -0.1869  0.2770 -0.5498
  241MOL0     C33135  10.152   6.426   6.969  0.0295 -0.2326  0.3323
  241MOL0     C33136  10.246   6.329   7.041  1.0072  0.3662 -0.2824
  241MOL0     N33137  10.213   6.318   7.186  0.1685 -0.3580 -0.3639
  241MOL0     C33138  10.226   6.195   7.255  0.2071  0.3280  0.2413
  241MOL0     C33139  10.248   6.230   7.385  0.0095  0.2798  0.0903
  241MOL0     C33140  10.240   6.123   7.481  0.4670  0.5428 -0.1951
  241MOL0     C33141  10.116   6.128   7.576  1.1244 -0.2814  0.3748
  241MOL0     C33142   9.988   6.072   7.502  0.0024  0.1065 -0.3630
  241MOL0     C33143   9.868   6.059   7.601 -0.0385  0.1562 -0.6692
  241MOL0     O33144   9.779   5.966   7.542 -0.3359 -0.3915 -0.5462
  241MOL0     C33145   9.672   6.000   7.464 -0.1961 -1.2285 -0.5492
  241MOL0     C33146   9.617   6.127   7.453 -0.2858  0.2046  0.3456
  241MOL0     C33147   9.515   6.145   7.353  0.6029 -0.4066 -0.6612
  241MOL0     C33148   9.463   6.289   7.338  0.2960 -0.3501 -0.8548
  241MOL0     C33149   9.453   6.035   7.283  0.1010 -0.2476 -0.6459
  241MOL0     C33150   9.338   6.053   7.196  0.4423 -0.2018  0.7037
  241MOL0     O33151   9.319   5.941   7.110  0.1020 -0.0719 -0.0026
  241MOL0     C33152   9.206   5.912   7.029 -0.2937  0.4731  0.6240
  241MOL0     C33153   9.075   5.934   7.081  0.8777  0.1273  0.4723
  241MOL0     C33154   8.967   5.871   7.018 -0.1422 -0.1496 -0.5559
  241MOL0     C33155   8.991   5.809   6.895 -0.0937 -0.1854 -0.0715
  241MOL0     O33156   8.876   5.749   6.846 -0.1963  0.2364 -0.3522
  241MOL0     C33157   8.863   5.734   6.709 -0.0979 -1.2095  0.8486
  241MOL0     C33158   8.733   5.780   6.643 -0.9441 -0.0652 -0.6036
  241MOL0     C33159   8.735   5.761   6.490  0.2533 -0.2619  0.1612
  241MOL0     C33160   8.595   5.740   6.437  0.1914  0.6153 -0.5495
  241MOL0     C33161   8.586   5.753   6.284  0.1447  0.4823  0.5935
  241MOL0     C33162   8.449   5.725   6.219 -0.0147 -0.6720 -0.2456
  241MOL0     C33163   8.475   5.728   6.067 -0.3860 -0.3379 -0.5617
  241MOL0     C33164   8.328   5.703   6.006 -0.5196 -0.5503 -0.0578
  241MOL0    Cl33165   8.276   5.835   5.885  0.2855 -0.0117  0.1063
  241MOL0     C33166   9.117   5.776   6.848  0.4301 -0.6915 -0.4916
  241MOL0     C33167   9.226   5.836   6.913 -0.1114 -0.4324 -0.8279
  241MOL0     O33168   9.267   6.154   7.202 -0.6708 -0.3873 -0.0178
  241MOL0     C33169   9.505   5.916   7.310  0.9818  0.1103 -0.3441
  241MOL0     C33170   9.613   5.890   7.395 -0.2253 -0.2825  0.0947
  241MOL0     N33171  10.244   6.367   7.404  0.7170  0.0753  0.1701
  241MOL0     N33172  10.218   6.415   7.285  0.0727  0.3192  0.0197
  241MOL0     C33173   9.814   6.799   7.629 -0.5004 -0.7334  0.0339
  241MOL0     C33174   9.913   6.750   7.718 -0.3522  0.1593  0.0132
  241MOL0     C33175  10.338   6.734   7.874 -0.2054 -0.0669 -0.1112
  241MOL0     C33176  10.381   6.822   7.976  0.0124  0.8288 -0.6847
  241MOL0     C33177  10.478   6.792   8.073 -0.6699  0.2201  0.5508
  241MOL0     C33178  10.555   6.675   8.053  0.5204  0.3627 -0.8222
  241MOL0     O33179  10.639   6.617   8.138 -0.8174  0.4389  0.5596
  241MOL0     C33180  10.595   6.564   8.266  0.0223 -0.6208 -0.1753
  241MOL0     C33181  10.707   6.504   8.340 -0.3057  0.0778 -0.1069
  241MOL0     C33182  10.763   6.374   8.280  0.0197  0.0407  0.7402
  241MOL0     C33183  10.890   6.323   8.345  0.3576 -0.1659  0.6618
  241MOL0     C33184  11.013   6.407   8.348  0.6185  0.3112 -0.4240
  241MOL0     C33185  11.110   6.466   8.385 -0.2940  0.9145 -0.0906
  241MOL0     C33186  10.515   6.584   7.949 -0.2873 -0.1448 -0.0663
  241MOL0     C33187  10.407   6.609   7.862  0.6749  0.6139 -0.2958
  241MOL0     C33188  10.378   6.505   7.756  0.0108  0.7042  0.1875
  241MOL0     H33189  10.160   6.674   7.491  0.7562  0.7167 -0.8887
  241MOL0     H33190   9.993   6.794   7.348  0.1006 -0.3167  0.7837
  241MOL0     H33191   9.813   6.855   7.213  1.9637 -4.1475 -0.3247
  241MOL0     H33192   9.646   6.840   7.236 -1.3481 -2.5339  0.2390
  241MOL0     H33193   9.833   6.618   7.298 -0.3167 -1.5882 -1.9302
  241MOL0     H33194   9.669   6.617   7.350  2.0277 -0.3182  1.2937
  241MOL0     H33195   9.583   6.549   7.145  0.3840  1.8704  0.4631
  241MOL0     H33196   9.673   6.667   7.053  2.1953  0.9894 -0.6420
  241MOL0     H33197   9.785   6.391   7.145 -0.2092 -1.6840 -2.5032
  241MOL0     H33198   9.729   6.431   6.986 -0.8622  0.9691 -0.4984
  241MOL0     H33199   9.981   6.540   7.137 -0.0708 -0.5304  0.0435
  241MOL0     H33200   9.938   6.606   6.983 -0.0485  0.3499  0.2338
  241MOL0     H33201   9.996   6.311   7.051  1.1652  1.6929  1.7303
  241MOL0     H33202   9.970   6.380   6.885 -0.5414  2.2264 -0.8487
  241MOL0     H33203  10.179   6.523   7.010 -2.3195  0.1080  1.1526
  241MOL0     H33204  10.174   6.422   6.861 -0.7557 -1.1028  0.1891
  241MOL0     H33205  10.250   6.232   6.989 -0.9628  1.1231 -2.0020
  241MOL0     H33206  10.346   6.372   7.033  1.6186 -1.2916 -3.2235
  241MOL0     H33207  10.208   6.102   7.202 -2.7212  0.3646  1.0128
  241MOL0     H33208  10.329   6.137   7.543  1.4498  0.3224 -1.5101
  241MOL0     H33209  10.250   6.029   7.427  1.5844 -0.4817  1.6965
  241MOL0     H33210  10.147   6.078   7.668 -0.8982  3.0716  3.1628
  241MOL0     H33211  10.096   6.233   7.601 -3.5474 -1.1726  1.3715
  241MOL0     H33212   9.959   6.136   7.418  0.7323 -1.2238 -1.6946
  241MOL0     H33213  10.013   5.972   7.464 -0.0113  0.7209 -2.0528
  241MOL0     H33214   9.893   6.016   7.699  1.6224  1.2475 -0.5555
  241MOL0     H33215   9.827   6.159   7.622  2.2254  0.8526  0.8423
  241MOL0     H33216   9.662   6.210   7.506  0.9800 -0.6721  0.6915
  241MOL0     H33217   9.476   6.327   7.236  1.0423  3.6053  0.5314
  241MOL0     H33218   9.508   6.362   7.406 -2.2037  2.7460 -2.3104
  241MOL0     H33219   9.358   6.294   7.367 -0.3278 -1.6253 -2.7322
  241MOL0     H33220   9.074   5.987   7.176  0.2891 -1.6649  1.5068
  241MOL0     H33221   8.863   5.877   7.049 -0.7037  0.2588 -2.3902
  241MOL0     H33222   8.939   5.789   6.652 -0.8807  1.0751  1.9050
  241MOL0     H33223   8.878   5.627   6.691  0.9057 -0.8869 -0.4497
  241MOL0     H33224   8.650   5.721   6.682 -0.4116  0.9269  2.2207
  241MOL0     H33225   8.711   5.884   6.667  0.6702 -0.0920  1.2042
  241MOL0     H33226   8.812   5.693   6.453 -1.4216 -1.0881 -1.9838
  241MOL0     H33227   8.762   5.863   6.460 -0.2833 -0.3915 -0.8107
  241MOL0     H33228   8.520   5.806   6.481 -0.4749  0.2998 -1.1772
  241MOL0     H33229   8.555   5.641   6.462 -2.0262  1.8968  1.4556
  241MOL0     H33230   8.618   5.856   6.264  2.8318 -0.0798  1.5970
  241MOL0     H33231   8.648   5.675   6.240 -3.5320 -2.6545  0.4489
  241MOL0     H33232   8.378   5.807   6.235 -1.0532 -0.7788 -3.6542
  241MOL0     H33233   8.406   5.630   6.254  0.3335  0.3835  3.4665
  241MOL0     H33234   8.544   5.650   6.033  0.5163  1.3701 -2.8688
  241MOL0     H33235   8.505   5.830   6.044 -2.4421  0.4607  0.1143
  241MOL0     H33236   8.258   5.714   6.089  1.4820  2.3954  1.3744
  241MOL0     H33237   8.326   5.607   5.953 -1.6180  1.2934 -3.6687
  241MOL0     H33238   9.121   5.700   6.771 -2.2321  1.0738 -2.5785
  241MOL0     H33239   9.331   5.812   6.895  0.7030  0.4766  2.1636
  241MOL0     H33240   9.481   5.820   7.265  2.2621 -0.1065 -0.6066
  241MOL0     H33241   9.647   5.790   7.418  2.5287  0.3123 -1.0132
  241MOL0     H33242   9.714   6.819   7.665 -1.5933 -3.6246 -1.1065
  241MOL0     H33243   9.896   6.719   7.820 -0.6390 -0.6751 -0.2808
  241MOL0     H33244  10.337   6.920   7.990 -1.2627  0.4186 -1.5516
  241MOL0     H33245  10.497   6.862   8.154 -3.3622  1.2338  0.3983
  241MOL0     H33246  10.554   6.651   8.318  0.0024 -0.3698 -0.6074
  241MOL0     H33247  10.515   6.491   8.251 -1.3931  0.8403  0.0466
  241MOL0     H33248  10.678   6.484   8.443  2.3364 -1.6819  0.3953
  241MOL0     H33249  10.787   6.578   8.353  2.4006 -2.7104  0.3202
  241MOL0     H33250  10.685   6.298   8.283 -1.5226  1.3009 -2.5894
  241MOL0     H33251  10.788   6.388   8.174  0.7011  2.0081  1.1168
  241MOL0     H33252  10.915   6.232   8.289 -0.5136 -0.8442  1.3502
  241MOL0     H33253  10.877   6.291   8.449  2.2030  0.9431  1.2989
  241MOL0     H33254  11.195   6.524   8.417 -0.2013 -0.6639  2.7907
  241MOL0     H33255  10.568   6.490   7.934  1.9041  1.1330 -0.8490
  241MOL0     H33256  10.270   6.492   7.742 -0.1718  0.8237  1.3620
  241MOL0     H33257  10.439   6.525   7.667  0.4332 -0.1616  0.2680
  241MOL0     H33258  10.412   6.404   7.781 -0.5661  0.2336 -0.8247
  242MOL0     O33259   8.046   6.354  10.521 -0.2389  0.1329 -0.3946
  242MOL0     C33260   8.080   6.462  10.567 -0.3740 -0.3817  0.7093
  242MOL0     O33261   8.212   6.499  10.588 -0.1864  0.0431  0.4063
  242MOL0     C33262   8.320   6.417  10.552  0.0213  0.0356 -0.9083
  242MOL0     C33263   8.319   6.335  10.440 -0.2249  0.5983  0.6404
  242MOL0     C33264   8.424   6.250  10.413 -0.5721  0.0153  0.1326
  242MOL0     C33265   8.542   6.261  10.493 -0.1866  0.1043 -1.3187
  242MOL0     O33266   8.670   6.203  10.468 -0.7873 -0.3342  0.1835
  242MOL0     C33267   8.673   6.064  10.432 -0.0309 -1.0261 -0.2376
  242MOL0     C33268   8.667   5.976  10.561 -0.5087  0.0141 -0.9784
  242MOL0     C33269   8.770   6.015  10.668 -0.6634  0.1078 -0.2269
  242MOL0     C33270   8.916   6.026  10.612 -0.4218 -0.2963  0.0881
  242MOL0     C33271   9.017   6.074  10.711  0.0083 -0.4500  0.0824
  242MOL0     C33272   9.159   6.069  10.655  0.1934  0.1091 -0.5186
  242MOL0     C33273   9.186   6.178  10.547  0.8235 -0.6268 -0.1485
  242MOL0     C33274   9.180   6.317  10.604 -0.3245 -0.3702  0.5009
  242MOL0     N33275   9.272   6.408  10.530  0.7215  0.1374 -0.4502
  242MOL0     C33276   9.223   6.503  10.440 -0.0147  0.7429 -0.4559
  242MOL0     C33277   9.336   6.544  10.369  0.1028  0.2653 -0.2722
  242MOL0     C33278   9.334   6.634  10.258  0.0336 -0.5976  0.4105
  242MOL0     C33279   9.425   6.755  10.301  0.2470 -0.2348 -0.8842
  242MOL0     C33280   9.368   6.834  10.417 -0.2328  0.5931 -0.0394
  242MOL0     C33281   9.439   6.971  10.415 -0.2344  0.6634  0.1158
  242MOL0     O33282   9.437   7.025  10.548 -0.0455  0.8215 -0.2049
  242MOL0     C33283   9.441   7.159  10.553  0.0696  0.5605  0.3747
  242MOL0     C33284   9.501   7.240  10.461  0.3296 -0.0704  0.7031
  242MOL0     C33285   9.510   7.376  10.481  0.4599 -0.9365  1.3625
  242MOL0     C33286   9.548   7.446  10.360 -0.6491 -0.3275 -0.6044
  242MOL0     C33287   9.460   7.432  10.608 -0.2153 -0.5731  0.1934
  242MOL0     C33288   9.447   7.581  10.631 -0.2337 -1.0890  0.8058
  242MOL0     O33289   9.493   7.669  10.536  0.8242  0.1821 -0.1734
  242MOL0     C33290   9.508   7.795  10.584 -0.4592 -0.1634 -0.1141
  242MOL0     C33291   9.603   7.821  10.684 -0.4552 -0.1939 -0.4025
  242MOL0     C33292   9.631   7.949  10.724  0.0007  0.6814 -0.2811
  242MOL0     C33293   9.558   8.062  10.674 -0.8752  0.7567  0.1035
  242MOL0     O33294   9.594   8.197  10.707  0.6507  0.3802  0.1283
  242MOL0     C33295   9.485   8.289  10.696 -0.1954 -0.3960  0.4584
  242MOL0     C33296   9.514   8.392  10.591 -0.2743 -0.7473  1.5957
  242MOL0     C33297   9.433   8.521  10.620  0.1741  0.5975 -0.5278
  242MOL0     C33298   9.367   8.592  10.494 -0.5501  0.7044 -0.8286
  242MOL0     C33299   9.292   8.713  10.552  0.4000 -0.0045 -0.6015
  242MOL0     C33300   9.266   8.820  10.444  0.8119 -0.2625 -0.1106
  242MOL0     C33301   9.174   8.768  10.334 -0.8267  0.3540  0.4222
  242MOL0     C33302   9.143   8.881  10.233  0.9870  0.8363 -0.3195
  242MOL0    Cl33303   9.056   9.021  10.299 -0.2336  0.0554  0.2679
  242MOL0     C33304   9.466   8.036  10.568  0.4287  0.2024  0.3678
  242MOL0     C33305   9.442   7.895  10.523 -1.1403 -1.4886  0.2679
  242MOL0     O33306   9.382   7.615  10.733 -0.5395  0.3338  0.0970
  242MOL0     C33307   9.402   7.349  10.695 -0.4950 -0.8215 -0.4808
  242MOL0     C33308   9.397   7.213  10.676  0.7871  0.3929  0.6770
  242MOL0     N33309   9.451   6.484  10.422 -0.2241 -0.3924  0.3246
  242MOL0     N33310   9.412   6.416  10.521  0.4117 -0.0322  0.2781
  242MOL0     C33311   8.544   6.349  10.602  0.1775 -0.7047 -0.0222
  242MOL0     C33312   8.433   6.428  10.636  0.1521  0.7910  0.0966
  242MOL0     C33313   7.981   6.560  10.608 -0.3567 -1.1297  0.1575
  242MOL0     C33314   7.997   6.630  10.727  0.3026  0.3078 -0.0607
  242MOL0     C33315   7.906   6.721  10.776  1.4930 -1.0049 -0.2548
  242MOL0     C33316   7.781   6.733  10.703  0.5561 -0.7087 -0.4064
  242MOL0     O33317   7.696   6.830  10.754  0.2983  0.1615 -0.1946
  242MOL0     C33318   7.570   6.877  10.695 -0.0082 -0.3548 -0.1586
  242MOL0     C33319   7.504   6.971  10.801 -0.5303 -0.7568 -1.1078
  242MOL0     C33320   7.356   7.001  10.764  0.1987 -0.1996 -0.1194
  242MOL0     C33321   7.288   7.110  10.829  0.9645  0.8059  0.4914
  242MOL0     C33322   7.164   7.156  10.771  0.5189  0.5727 -0.2126
  242MOL0     C33323   7.074   7.216  10.713 -0.0871 -1.0403 -0.2765
  242MOL0     C33324   7.761   6.678  10.578  0.4880  0.2162  0.0055
  242MOL0     C33325   7.859   6.591  10.533  0.7577 -0.3012 -0.4559
  242MOL0     C33326   7.833   6.516  10.404 -0.5214 -0.3758  0.0409
  242MOL0     H33327   8.236   6.335  10.371  1.2352 -3.0438 -1.3667
  242MOL0     H33328   8.426   6.182  10.328  0.0572  0.5991 -0.3365
  242MOL0     H33329   8.768   6.051  10.380  0.3164  0.1952  0.0590
  242MOL0     H33330   8.582   6.041  10.376 -1.8364  1.6699  1.3877
  242MOL0     H33331   8.568   5.990  10.606 -0.3785  1.8850 -1.1783
  242MOL0     H33332   8.684   5.870  10.540 -1.3635  0.2176 -2.8868
  242MOL0     H33333   8.739   6.110  10.712  1.5198  0.0205  1.6218
  242MOL0     H33334   8.771   5.948  10.754  1.1521  0.5781  0.1645
  242MOL0     H33335   8.941   5.935  10.557 -2.6837 -0.3163 -1.0083
  242MOL0     H33336   8.905   6.105  10.537 -0.0049 -0.4653 -0.1542
  242MOL0     H33337   9.017   6.012  10.801  0.9000  1.0093  1.1448
  242MOL0     H33338   8.992   6.175  10.745 -0.1780 -0.5115  0.1305
  242MOL0     H33339   9.219   6.091  10.744  0.1567 -0.4742 -0.3483
  242MOL0     H33340   9.184   5.972  10.612  2.3328 -1.0549  2.8791
  242MOL0     H33341   9.131   6.166  10.453 -0.4452  0.4790  0.4151
  242MOL0     H33342   9.290   6.154  10.522  1.0346  0.1652 -0.0666
  242MOL0     H33343   9.081   6.365  10.602 -0.3152 -0.1966  2.3849
  242MOL0     H33344   9.207   6.324  10.709  4.1372  0.7584 -0.5146
  242MOL0     H33345   9.121   6.519  10.407 -0.7846 -1.9831  0.2947
  242MOL0     H33346   9.232   6.666  10.234  0.5523  0.4830 -0.4845
  242MOL0     H33347   9.386   6.577  10.181  1.2714  1.2687 -0.2208
  242MOL0     H33348   9.531   6.736  10.322  1.6129  1.8837 -4.8240
  242MOL0     H33349   9.432   6.821  10.214  3.1033  2.4335  1.1115
  242MOL0     H33350   9.261   6.855  10.413  0.1991  3.0369  0.0120
  242MOL0     H33351   9.398   6.779  10.507  1.0615  1.6369  0.1966
  242MOL0     H33352   9.542   6.949  10.386 -0.9396  0.7342 -2.7380
  242MOL0     H33353   9.398   7.034  10.335  0.2955  2.2246  1.0438
  242MOL0     H33354   9.543   7.186  10.376  3.1446  1.1693  1.1926
  242MOL0     H33355   9.586   7.377  10.284  2.3907 -1.8447  2.0680
  242MOL0     H33356   9.629   7.519  10.374  1.1504 -2.0231 -1.6495
  242MOL0     H33357   9.458   7.495  10.321 -0.2068  2.3839  1.4366
  242MOL0     H33358   9.666   7.739  10.717 -3.2162 -2.7040 -0.9489
  242MOL0     H33359   9.727   7.965  10.771  0.7212  1.8126 -2.0114
  242MOL0     H33360   9.386   8.242  10.695  1.1851 -3.5386 -0.2030
  242MOL0     H33361   9.497   8.347  10.788 -0.4893  0.4703 -0.0447
  242MOL0     H33362   9.622   8.414  10.590 -0.9362  3.2533  1.3022
  242MOL0     H33363   9.483   8.347  10.496 -0.0713 -2.1727  2.1796
  242MOL0     H33364   9.502   8.590  10.669 -0.2787  0.2702  0.6048
  242MOL0     H33365   9.349   8.498  10.686  1.0480  1.7002  1.0339
  242MOL0     H33366   9.302   8.523  10.439  1.4011 -0.2151 -2.0752
  242MOL0     H33367   9.452   8.629  10.437 -0.4708  0.3034 -0.9752
  242MOL0     H33368   9.201   8.671  10.596  1.6736 -1.3334  0.9136
  242MOL0     H33369   9.358   8.754  10.629  2.8396  1.7292 -3.4158
  242MOL0     H33370   9.361   8.854  10.403  1.2913 -0.3790  0.8958
  242MOL0     H33371   9.219   8.909  10.487  1.4578  0.3490 -0.6509
  242MOL0     H33372   9.089   8.711  10.372  0.2388 -1.2293  0.5487
  242MOL0     H33373   9.244   8.702  10.280  1.4752  2.5766  0.5048
  242MOL0     H33374   9.087   8.828  10.156  0.0500 -2.3689  2.3332
  242MOL0     H33375   9.240   8.915  10.196  0.5076 -0.5281 -3.0375
  242MOL0     H33376   9.436   8.121  10.507  2.1447  1.5707  1.3245
  242MOL0     H33377   9.378   7.875  10.438  1.1951  1.5611 -2.4504
  242MOL0     H33378   9.376   7.391  10.792  0.7180 -1.6037  0.2177
  242MOL0     H33379   9.347   7.144  10.743  1.5077  0.2088  1.0359
  242MOL0     H33380   8.639   6.366  10.653  0.7092 -2.0751 -0.5037
  242MOL0     H33381   8.434   6.493  10.722  2.6196  2.3001 -0.9483
  242MOL0     H33382   8.089   6.625  10.784 -0.7214 -1.4631  1.5795
  242MOL0     H33383   7.921   6.768  10.872 -0.5555 -1.0699  0.1443
  242MOL0     H33384   7.596   6.926  10.601  0.0496 -0.2169 -0.0709
  242MOL0     H33385   7.504   6.794  10.671 -0.7531  0.1584  0.0746
  242MOL0     H33386   7.548   7.071  10.788  0.5933 -1.0071  0.4938
  242MOL0     H33387   7.511   6.933  10.903 -1.4235 -1.0470 -1.1520
  242MOL0     H33388   7.378   7.034  10.662  1.6296 -0.2958  0.1354
  242MOL0     H33389   7.299   6.908  10.759 -0.0636  0.0146 -2.9266
  242MOL0     H33390   7.350   7.200  10.826  3.4523 -0.8079 -0.3337
  242MOL0     H33391   7.268   7.080  10.933  3.3027 -0.1191  0.7296
  242MOL0     H33392   6.994   7.262  10.659 -1.5292  0.1048  2.6110
  242MOL0     H33393   7.679   6.703  10.512  1.2373  2.3392 -0.1897
  242MOL0     H33394   7.749   6.556  10.346  1.6830 -0.5342 -3.5782
  242MOL0     H33395   7.924   6.508  10.345 -0.3529  1.4420 -0.0187
  242MOL0     H33396   7.791   6.422  10.441  1.2451 -0.2266  2.7349
  243MOL0     O33397   7.346   1.834   7.131  0.2632  0.0844  0.5419
  243MOL0     C33398   7.348   1.750   7.038  0.4967  0.6659  0.0207
  243MOL0     O33399   7.416   1.763   6.922 -0.0386  0.0714 -0.3383
  243MOL0     C33400   7.508   1.864   6.908  0.7132  0.9216 -0.6395
  243MOL0     C33401   7.606   1.890   7.009 -0.1330  0.2672  0.0352
  243MOL0     C33402   7.696   1.988   6.975  0.1709  0.7223 -0.6853
  243MOL0     C33403   7.699   2.058   6.852 -0.6127  0.1849  0.0648
  243MOL0     O33404   7.791   2.163   6.841  0.1045 -0.1468  0.1742
  243MOL0     C33405   7.827   2.205   6.714  0.2131 -0.8865 -0.2022
  243MOL0     C33406   7.929   2.322   6.706  0.2873 -0.1183 -0.5856
  243MOL0     C33407   7.921   2.429   6.823 -0.7890 -0.5017  0.5231
  243MOL0     C33408   7.991   2.563   6.790  0.2015  0.0569  0.6219
  243MOL0     C33409   8.141   2.540   6.781  0.0324  0.7346 -0.3827
  243MOL0     C33410   8.205   2.678   6.763 -0.4120  0.6778  0.6202
  243MOL0     C33411   8.356   2.669   6.760  0.1011 -0.0527 -0.1853
  243MOL0     C33412   8.406   2.811   6.727  0.7012  0.9751 -0.1547
  243MOL0     N33413   8.555   2.821   6.721 -0.2863 -0.1587 -0.1083
  243MOL0     C33414   8.647   2.775   6.811 -0.2157 -0.9342 -0.0769
  243MOL0     C33415   8.762   2.837   6.774 -0.4606 -0.6078 -1.1950
  243MOL0     C33416   8.902   2.833   6.846 -0.7547  0.1065  0.0344
  243MOL0     C33417   9.001   2.946   6.823 -0.0401 -0.0521  0.1376
  243MOL0     C33418   8.951   3.085   6.877  0.9421 -0.4128 -0.7580
  243MOL0     C33419   9.048   3.200   6.837  0.2254  0.1044  0.0252
  243MOL0     O33420   9.021   3.326   6.897  0.0047  0.2470  0.6100
  243MOL0     C33421   8.911   3.387   6.848  0.1545  0.3302  0.0133
  243MOL0     C33422   8.782   3.375   6.902  0.1192  0.2452  0.3295
  243MOL0     C33423   8.661   3.428   6.839  0.5814 -0.4639 -0.4502
  243MOL0     C33424   8.523   3.396   6.904  0.1723  0.3426 -1.1262
  243MOL0     C33425   8.687   3.523   6.735  0.2787  0.4904 -0.4352
  243MOL0     C33426   8.577   3.593   6.667  0.0431  0.0373  0.2841
  243MOL0     O33427   8.610   3.717   6.620  0.1475  0.2036 -0.0137
  243MOL0     C33428   8.508   3.794   6.577 -0.1796  0.4148  0.0960
  243MOL0     C33429   8.406   3.832   6.663 -1.1626 -0.2860  0.6542
  243MOL0     C33430   8.294   3.909   6.623  0.4081  1.2470  1.0683
  243MOL0     C33431   8.293   3.954   6.494  1.2128 -0.2890 -0.0402
  243MOL0     O33432   8.196   4.042   6.450  0.0123 -0.2649  0.3051
  243MOL0     C33433   8.074   4.065   6.524 -0.0460  0.0306  0.1548
  243MOL0     C33434   8.085   4.195   6.611  0.7511 -0.2052  0.3350
  243MOL0     C33435   7.956   4.231   6.678  0.4610  0.8812  0.5336
  243MOL0     C33436   7.848   4.273   6.581  0.7092  0.0563  0.0485
  243MOL0     C33437   7.730   4.332   6.658 -0.6446 -0.3911 -0.0854
  243MOL0     C33438   7.622   4.370   6.556  0.1728  0.3502 -0.9183
  243MOL0     C33439   7.489   4.400   6.618  1.0479  1.2406 -0.9817
  243MOL0     C33440   7.491   4.517   6.727 -0.1005 -0.0357  0.8715
  243MOL0    Cl33441   7.321   4.530   6.774  0.3119  0.1107  0.0383
  243MOL0     C33442   8.409   3.937   6.412  0.0893  0.2974 -0.1845
  243MOL0     C33443   8.518   3.859   6.451 -0.1142  0.2998  0.2344
  243MOL0     O33444   8.471   3.536   6.651  0.2315  0.3305 -0.1508
  243MOL0     C33445   8.819   3.525   6.678 -0.4634 -0.0525 -0.0063
  243MOL0     C33446   8.926   3.453   6.730  0.3788  0.5375  0.1103
  243MOL0     N33447   8.746   2.913   6.663 -0.2989 -1.5643  0.9938
  243MOL0     N33448   8.616   2.910   6.650  0.5342  0.5879  0.4311
  243MOL0     C33449   7.605   2.023   6.754  0.4947  0.2090 -0.5233
  243MOL0     C33450   7.508   1.936   6.787 -0.0754  0.3161  0.1445
  243MOL0     C33451   7.257   1.633   7.055  0.5450  0.2601  0.4121
  243MOL0     C33452   7.133   1.647   7.116  0.3547 -0.7073 -0.5022
  243MOL0     C33453   7.040   1.542   7.133  0.3629  0.0681  0.3506
  243MOL0     C33454   7.077   1.408   7.092 -0.6367 -0.0565 -1.1770
  243MOL0     O33455   6.985   1.312   7.122  0.4260  0.1468 -0.4934
  243MOL0     C33456   6.977   1.189   7.041  0.0693  0.3652 -0.0012
  243MOL0     C33457   6.851   1.117   7.067  0.8530 -0.1053  0.2679
  243MOL0     C33458   6.834   0.992   6.976 -0.5661 -0.2688 -0.6385
  243MOL0     C33459   6.936   0.879   6.998  0.2936 -0.2345 -0.0155
  243MOL0     C33460   6.976   0.869   7.136  0.0831  0.7862 -0.3596
  243MOL0     C33461   6.975   0.873   7.260 -0.2489 -0.0135  0.2445
  243MOL0     C33462   7.203   1.390   7.035  0.0206 -0.3142  0.3816
  243MOL0     C33463   7.297   1.499   7.018 -0.3000 -0.5380  0.6816
  243MOL0     C33464   7.432   1.479   6.952 -0.4345  0.5426  0.6813
  243MOL0     H33465   7.607   1.854   7.111  2.6666  1.2289  0.4404
  243MOL0     H33466   7.777   2.012   7.043 -1.0834 -2.5511  2.3202
  243MOL0     H33467   7.741   2.249   6.662  0.0365 -0.3993  0.5002
  243MOL0     H33468   7.871   2.126   6.653  1.2972  1.5546 -2.8446
  243MOL0     H33469   8.026   2.273   6.698  1.0275  1.1388  0.2822
  243MOL0     H33470   7.898   2.370   6.612 -2.6003 -0.5944  0.0256
  243MOL0     H33471   7.813   2.445   6.830 -1.7232 -4.7378 -1.2911
  243MOL0     H33472   7.953   2.378   6.914 -0.2193 -0.1451  0.5309
  243MOL0     H33473   7.946   2.600   6.697  0.2869  2.4767  1.4967
  243MOL0     H33474   7.975   2.633   6.872 -0.9123 -0.4972  0.9010
  243MOL0     H33475   8.176   2.462   6.712 -0.2959 -2.4391  2.7755
  243MOL0     H33476   8.175   2.498   6.875 -0.5148 -0.6841 -0.7921
  243MOL0     H33477   8.169   2.723   6.670 -4.8299 -1.1862  1.1497
  243MOL0     H33478   8.175   2.743   6.846 -1.4890  1.2411 -0.1804
  243MOL0     H33479   8.395   2.597   6.687  2.1273  3.3010 -2.7062
  243MOL0     H33480   8.394   2.640   6.859  1.7977  1.6361 -0.2700
  243MOL0     H33481   8.361   2.851   6.635  0.6814  0.1091 -0.5357
  243MOL0     H33482   8.374   2.875   6.810 -2.4122  0.4345 -0.8151
  243MOL0     H33483   8.632   2.712   6.899 -0.6063 -1.2504 -0.3608
  243MOL0     H33484   8.950   2.742   6.809  2.4734  1.6183  0.1502
  243MOL0     H33485   8.875   2.816   6.950  1.3648 -1.1950  0.4380
  243MOL0     H33486   9.098   2.917   6.864 -0.2651 -0.6169  0.2847
  243MOL0     H33487   9.025   2.955   6.716  2.8014 -0.4564  0.6544
  243MOL0     H33488   8.846   3.103   6.851  1.4226 -1.0362 -3.4032
  243MOL0     H33489   8.951   3.087   6.986  3.0256 -3.9059 -0.5274
  243MOL0     H33490   9.150   3.169   6.862  1.3795  3.1926 -0.3776
  243MOL0     H33491   9.045   3.206   6.727  0.1492 -1.5339 -0.0833
  243MOL0     H33492   8.771   3.301   6.981 -3.3545 -1.2851 -1.3446
  243MOL0     H33493   8.462   3.487   6.899  1.6129  1.3523 -0.6983
  243MOL0     H33494   8.522   3.374   7.011 -1.7058  0.3900 -1.0878
  243MOL0     H33495   8.482   3.312   6.848 -1.3522 -0.5007  1.1164
  243MOL0     H33496   8.402   3.804   6.768 -0.1902  0.4166  0.8864
  243MOL0     H33497   8.214   3.939   6.691 -2.1838 -3.5249  0.5564
  243MOL0     H33498   7.988   4.077   6.458  0.1503 -0.3228 -0.1691
  243MOL0     H33499   8.045   3.977   6.584  3.1654 -1.4125 -0.2099
  243MOL0     H33500   8.167   4.180   6.682 -2.0391 -0.1380  3.8331
  243MOL0     H33501   8.117   4.279   6.549  0.2231  0.9691  1.5974
  243MOL0     H33502   7.982   4.307   6.753  2.9173 -0.2114  0.8889
  243MOL0     H33503   7.915   4.143   6.730 -0.4634  1.8230  1.4480
  243MOL0     H33504   7.808   4.188   6.525 -1.1360 -0.2217  1.6576
  243MOL0     H33505   7.891   4.349   6.515 -2.8949  1.5756 -0.7948
  243MOL0     H33506   7.687   4.265   6.733 -0.7896  0.7232  0.8550
  243MOL0     H33507   7.760   4.423   6.711 -0.9284 -1.7385  2.5990
  243MOL0     H33508   7.612   4.296   6.475 -1.8652  1.0213 -1.3352
  243MOL0     H33509   7.644   4.468   6.514  0.6694 -0.3952 -2.4696
  243MOL0     H33510   7.458   4.303   6.658  2.3036  0.8058 -1.0215
  243MOL0     H33511   7.431   4.417   6.527  0.6808 -1.2990 -1.2843
  243MOL0     H33512   7.529   4.614   6.696  0.0488 -0.1223  0.7812
  243MOL0     H33513   7.543   4.485   6.818 -0.0817 -2.4388  0.0987
  243MOL0     H33514   8.409   3.961   6.306 -0.1789 -0.6969 -0.4163
  243MOL0     H33515   8.593   3.824   6.381  0.5723  1.1349  0.5238
  243MOL0     H33516   8.835   3.572   6.581  0.0432  2.3697  1.1914
  243MOL0     H33517   9.021   3.436   6.680 -0.1050 -2.2375 -0.0493
  243MOL0     H33518   7.592   2.078   6.661 -2.3320  2.3558  0.9924
  243MOL0     H33519   7.424   1.926   6.718 -0.5009 -0.6611  0.7776
  243MOL0     H33520   7.097   1.747   7.139  0.9112 -0.1296 -2.0166
  243MOL0     H33521   6.939   1.558   7.172 -0.1872 -0.5581 -0.7845
  243MOL0     H33522   6.973   1.206   6.933 -2.1465  0.1537  0.0056
  243MOL0     H33523   7.064   1.125   7.058  0.4655  0.9919  0.4140
  243MOL0     H33524   6.782   1.191   7.025  2.4756  0.0186 -2.4785
  243MOL0     H33525   6.828   1.092   7.170 -1.9314 -0.9354 -0.4839
  243MOL0     H33526   6.733   0.955   6.991 -0.2440 -0.6266  0.7139
  243MOL0     H33527   6.826   1.025   6.871  0.1881  1.2359 -0.2556
  243MOL0     H33528   7.024   0.899   6.935 -0.0658 -0.0864 -0.4747
  243MOL0     H33529   6.903   0.780   6.967  1.0600  0.1067 -2.0502
  243MOL0     H33530   6.962   0.854   7.364  1.1936 -0.6762  0.3241
  243MOL0     H33531   7.241   1.292   7.010 -1.6550 -0.3111 -2.5286
  243MOL0     H33532   7.427   1.538   6.860 -1.3532  0.4801  0.6813
  243MOL0     H33533   7.518   1.506   7.014  1.0561 -0.4917 -0.8486
  243MOL0     H33534   7.456   1.381   6.910  2.2351  1.0276  0.9093
  244MOL0     O33535   8.622  10.410   4.476  0.3364  0.4116 -0.3566
  244MOL0     C33536   8.601  10.484   4.377  0.1184  0.7671 -0.3570
  244MOL0     O33537   8.555  10.607   4.382  0.0051  0.3459 -0.0179
  244MOL0     C33538   8.484  10.646   4.494  0.4747 -0.7312  0.1930
  244MOL0     C33539   8.546  10.655   4.622 -0.0149  0.6429  0.8897
  244MOL0     C33540   8.471  10.702   4.733  0.0149 -0.6412 -0.2044
  244MOL0     C33541   8.343  10.759   4.698 -0.7844  0.0087 -0.1889
  244MOL0     O33542   8.281  10.838   4.797 -0.7130 -0.5015 -0.6570
  244MOL0     C33543   8.220  10.957   4.765  0.0754  0.0118 -0.2582
  244MOL0     C33544   8.157  11.012   4.891  1.0160  0.6868 -0.1279
  244MOL0     C33545   8.081  11.142   4.857 -0.6443 -0.6964  0.5801
  244MOL0     C33546   8.020  11.220   4.970 -0.4706  0.5499  0.3304
  244MOL0     C33547   8.115  11.308   5.055 -0.1996  0.1915  0.6863
  244MOL0     C33548   8.056  11.362   5.181  0.1904  0.2575  0.5372
  244MOL0     C33549   8.141  11.453   5.247  0.0206 -0.8732 -0.6227
  244MOL0     C33550   8.080  11.510   5.380 -0.3017 -0.2255 -0.2594
  244MOL0     N33551   7.957  11.584   5.351 -0.2207 -0.5279 -0.6953
  244MOL0     C33552   7.959  11.690   5.262  0.2462 -0.4489  1.5801
  244MOL0     C33553   7.831  11.732   5.252 -0.4765  1.0396 -0.2763
  244MOL0     C33554   7.766  11.839   5.181 -0.7627 -0.4321  0.2666
  244MOL0     C33555   7.713  11.953   5.277 -0.3007 -0.9789 -0.9254
  244MOL0     C33556   7.807  12.011   5.387 -0.5357  0.2072  0.4869
  244MOL0     C33557   7.925  12.087   5.323  0.1704  0.0897 -0.5146
  244MOL0     O33558   7.878  12.211   5.274  0.1744 -0.0604 -0.1011
  244MOL0     C33559   7.913  12.317   5.359 -0.0025  0.2252  0.6689
  244MOL0     C33560   7.907  12.448   5.308 -0.5707  0.8806  0.5628
  244MOL0     C33561   7.932  12.560   5.389 -0.3080  1.3847 -0.2373
  244MOL0     C33562   7.901  12.691   5.321 -0.4376 -0.3527  0.5595
  244MOL0     C33563   7.964  12.543   5.522 -1.7705 -0.3213 -0.1626
  244MOL0     C33564   8.014  12.660   5.606  0.2775 -0.1717 -0.2393
  244MOL0     O33565   8.123  12.642   5.682  0.4038  0.1954  1.0114
  244MOL0     C33566   8.198  12.742   5.743  0.2818  0.1842  0.6306
  244MOL0     C33567   8.285  12.698   5.838  0.5764 -0.0672 -0.1595
  244MOL0     C33568   8.366  12.795   5.910 -1.0254 -0.8842  0.6637
  244MOL0     C33569   8.342  12.927   5.901  0.5117 -0.4249 -0.0983
  244MOL0     O33570   8.418  13.004   5.989 -0.0183 -0.0919  0.1679
  244MOL0     C33571   8.356  13.130   6.032 -0.5023  0.4263 -0.2938
  244MOL0     C33572   8.273  13.113   6.169  0.3417  0.1764  0.7526
  244MOL0     C33573   8.235  13.251   6.236 -0.2619  0.7959 -0.0149
  244MOL0     C33574   8.128  13.323   6.167  0.3296 -0.2909 -0.0459
  244MOL0     C33575   8.006  13.344   6.252  0.2966  0.4115 -0.6260
  244MOL0     C33576   7.881  13.388   6.185 -0.4781  0.0632 -1.0346
  244MOL0     C33577   7.747  13.368   6.257  0.4025  0.3519  0.2528
  244MOL0     C33578   7.733  13.438   6.388  0.7617 -0.6757  0.5642
  244MOL0    Cl33579   7.794  13.603   6.380 -0.0868 -0.0959 -0.0768
  244MOL0     C33580   8.255  12.965   5.799 -0.7720  0.5861  0.0398
  244MOL0     C33581   8.187  12.874   5.725  0.2415  0.4007 -0.6990
  244MOL0     O33582   7.955  12.768   5.608  0.1161  0.6527  0.1389
  244MOL0     C33583   7.973  12.419   5.580  0.1331  0.7443  1.0541
  244MOL0     C33584   7.942  12.307   5.497  0.3391  0.2530 -0.1743
  244MOL0     N33585   7.766  11.651   5.342  0.1471 -0.2580 -0.4443
  244MOL0     N33586   7.834  11.556   5.389 -0.2231  0.5492  0.7139
  244MOL0     C33587   8.275  10.732   4.580 -0.6149 -0.0219 -0.4519
  244MOL0     C33588   8.351  10.685   4.478  0.0062  0.8857  0.8930
  244MOL0     C33589   8.660  10.453   4.245  1.1572 -0.5969 -0.4717
  244MOL0     C33590   8.772  10.371   4.243 -0.2618  0.2779  0.0405
  244MOL0     C33591   8.840  10.348   4.122  0.1359  1.0265  0.5854
  244MOL0     C33592   8.794  10.409   4.001  0.1151  0.2508  0.5477
  244MOL0     O33593   8.856  10.397   3.880 -0.2560 -0.6453  0.3983
  244MOL0     C33594   8.969  10.313   3.869  0.9737  0.1738  0.7681
  244MOL0     C33595   8.978  10.270   3.720 -1.0855  1.0820 -0.3928
  244MOL0     C33596   9.035  10.383   3.630  0.4957 -0.3540 -0.2941
  244MOL0     C33597   9.093  10.346   3.495  0.0888  0.3740  0.5511
  244MOL0     C33598   9.089  10.451   3.396  0.1063  0.0902 -0.3844
  244MOL0     C33599   9.091  10.528   3.304  0.3563 -0.1727  0.1416
  244MOL0     C33600   8.675  10.482   4.000 -0.4256 -0.7704  0.4001
  244MOL0     C33601   8.611  10.501   4.119  0.3792  0.6581 -0.1424
  244MOL0     C33602   8.487  10.578   4.089  0.1617 -0.2176  0.2069
  244MOL0     H33603   8.647  10.622   4.644 -0.6688 -0.5198  2.3387
  244MOL0     H33604   8.524  10.706   4.828  1.0470  0.1544 -0.7960
  244MOL0     H33605   8.144  10.949   4.687  0.5393 -0.4917 -0.6654
  244MOL0     H33606   8.284  11.040   4.732 -1.6672  1.3495 -0.4248
  244MOL0     H33607   8.080  10.944   4.931 -0.3393  3.1224  1.6584
  244MOL0     H33608   8.237  11.020   4.965  0.6051 -1.1989  0.5864
  244MOL0     H33609   8.150  11.205   4.800 -2.7287  2.5789  1.3860
  244MOL0     H33610   7.995  11.120   4.793 -1.6299 -1.3602  2.0744
  244MOL0     H33611   7.942  11.278   4.920 -0.5441  1.1039  1.0646
  244MOL0     H33612   7.968  11.149   5.034 -3.9901  2.2357 -0.3943
  244MOL0     H33613   8.157  11.394   4.999 -0.1370  0.5366  1.2591
  244MOL0     H33614   8.207  11.255   5.080  2.8522  5.1050  1.3411
  244MOL0     H33615   7.965  11.417   5.155  1.4063  2.0096 -0.2591
  244MOL0     H33616   8.034  11.271   5.236 -2.0124 -0.2731 -1.0997
  244MOL0     H33617   8.154  11.540   5.182 -0.7321  1.6250  2.3145
  244MOL0     H33618   8.238  11.408   5.268 -0.4412 -0.7001  2.3801
  244MOL0     H33619   8.046  11.428   5.443 -3.5675  0.1522 -1.3367
  244MOL0     H33620   8.153  11.576   5.428  0.4720 -2.2540  1.4879
  244MOL0     H33621   8.042  11.741   5.213 -3.1335  0.9955 -3.3822
  244MOL0     H33622   7.686  11.800   5.118 -0.4473 -0.9883  0.1990
  244MOL0     H33623   7.843  11.887   5.119 -0.9888 -0.8631 -0.3557
  244MOL0     H33624   7.685  12.034   5.209 -1.1956 -1.4873 -1.1765
  244MOL0     H33625   7.622  11.929   5.333  0.8352  0.3442  1.6891
  244MOL0     H33626   7.751  12.079   5.451  0.0592  0.6748  0.5214
  244MOL0     H33627   7.841  11.927   5.448  1.6796 -0.0477 -0.9660
  244MOL0     H33628   8.010  12.094   5.391  0.6267 -0.7699 -0.9850
  244MOL0     H33629   7.964  12.034   5.235  0.7309 -1.9568  0.9087
  244MOL0     H33630   7.877  12.445   5.204 -1.6526 -0.3583  0.8818
  244MOL0     H33631   7.997  12.738   5.301  0.7367 -2.2531  1.4049
  244MOL0     H33632   7.849  12.757   5.391  0.1377 -0.0669  0.7259
  244MOL0     H33633   7.840  12.673   5.232 -2.4405  2.8820  1.1328
  244MOL0     H33634   8.288  12.589   5.843 -0.9132 -0.1193  0.0025
  244MOL0     H33635   8.451  12.770   5.973  1.0548  1.4185 -1.0249
  244MOL0     H33636   8.421  13.217   6.042 -0.8207  0.5555  0.9444
  244MOL0     H33637   8.287  13.165   5.955 -0.4268  0.1127 -0.5035
  244MOL0     H33638   8.184  13.053   6.147  1.1354 -0.2689 -1.5545
  244MOL0     H33639   8.333  13.054   6.239  1.2054 -2.9217 -2.3505
  244MOL0     H33640   8.326  13.311   6.235 -0.1418  0.6991  1.7925
  244MOL0     H33641   8.203  13.246   6.341 -0.6449 -0.0400 -0.1606
  244MOL0     H33642   8.084  13.275   6.079 -1.9165  0.2014  0.7267
  244MOL0     H33643   8.173  13.416   6.129 -3.3990  0.3880 -3.5639
  244MOL0     H33644   7.994  13.255   6.314 -2.3772  0.5854 -0.7784
  244MOL0     H33645   8.037  13.423   6.321 -2.4248 -1.2802  2.8573
  244MOL0     H33646   7.874  13.326   6.095 -0.5661 -0.7550 -0.4714
  244MOL0     H33647   7.894  13.492   6.153 -0.1254  0.1911 -0.4859
  244MOL0     H33648   7.737  13.271   6.306 -0.3102  1.0128  1.4612
  244MOL0     H33649   7.668  13.375   6.183  0.5263 -5.0187 -0.8093
  244MOL0     H33650   7.789  13.391   6.470  0.8966 -0.9826  0.2969
  244MOL0     H33651   7.631  13.440   6.428  0.7941 -0.1030  0.6255
  244MOL0     H33652   8.243  13.072   5.781 -2.3090  0.4775  0.3167
  244MOL0     H33653   8.130  12.918   5.644  1.2295 -1.2984 -2.4035
  244MOL0     H33654   8.009  12.402   5.681  1.4745 -0.2788  0.4361
  244MOL0     H33655   7.952  12.211   5.547  3.9618  0.8646  0.5949
  244MOL0     H33656   8.176  10.768   4.555  0.2082  0.1269 -3.9797
  244MOL0     H33657   8.302  10.671   4.382 -1.8042  1.5955  1.6781
  244MOL0     H33658   8.812  10.339   4.339 -0.9615 -1.1840 -0.1249
  244MOL0     H33659   8.930  10.286   4.126  1.1367  2.4456  0.5772
  244MOL0     H33660   9.052  10.365   3.917  1.7323 -1.2735  1.0661
  244MOL0     H33661   8.949  10.219   3.921  0.1164  1.5588  3.0908
  244MOL0     H33662   8.888  10.219   3.684 -1.2335 -0.4880  1.9240
  244MOL0     H33663   9.060  10.198   3.717  2.2543  4.6117 -0.9148
  244MOL0     H33664   8.955  10.456   3.615  0.6283 -0.2900 -0.7004
  244MOL0     H33665   9.114  10.431   3.689  0.3711 -2.6375  1.8928
  244MOL0     H33666   9.025  10.269   3.458  0.0714  0.0673  1.2116
  244MOL0     H33667   9.195  10.310   3.507 -0.6930 -1.7512  1.2682
  244MOL0     H33668   9.113  10.594   3.222  1.4220 -1.4374 -0.6228
  244MOL0     H33669   8.639  10.527   3.909 -0.0369 -0.2589  0.4949
  244MOL0     H33670   8.516  10.682   4.108  0.0962 -0.2753  0.6496
  244MOL0     H33671   8.445  10.567   3.989  1.4288  0.7774 -0.4572
  244MOL0     H33672   8.417  10.547   4.168  2.1590  0.0460  2.1919
  245MOL0     O33673   7.568  10.655   0.039 -0.5599  1.3289  0.3168
  245MOL0     C33674   7.515  10.747  -0.010 -1.2916 -0.0719 -0.2300
  245MOL0     O33675   7.534  10.787  -0.131 -0.5713 -0.3099 -0.2231
  245MOL0     C33676   7.641  10.738  -0.207  0.7051  0.8798 -0.3924
  245MOL0     C33677   7.776  10.719  -0.155 -0.0149  0.2235  0.1490
  245MOL0     C33678   7.884  10.683  -0.244  0.0086 -0.0375 -0.2079
  245MOL0     C33679   7.862  10.642  -0.370 -0.2995 -0.1065 -0.0921
  245MOL0     O33680   7.976  10.601  -0.451  0.5488  0.5359  0.3437
  245MOL0     C33681   7.956  10.475  -0.519 -0.5490  0.0409 -0.6260
  245MOL0     C33682   8.097  10.425  -0.554 -0.4036 -0.0166  0.1286
  245MOL0     C33683   8.079  10.276  -0.577 -0.6750 -0.2826 -0.5314
  245MOL0     C33684   8.214  10.208  -0.579 -0.6119 -0.0312 -0.3580
  245MOL0     C33685   8.201  10.059  -0.597 -0.1611  0.4731 -1.0895
  245MOL0     C33686   8.345  10.000  -0.622  0.1970  0.1661 -0.7858
  245MOL0     C33687   8.339   9.864  -0.700  0.3180 -1.0924 -0.3755
  245MOL0     C33688   8.460   9.778  -0.701 -0.0340  0.2286  0.8382
  245MOL0     N33689   8.524   9.783  -0.570 -0.8978  0.1995  0.0580
  245MOL0     C33690   8.468   9.726  -0.462 -0.5615 -0.0883 -0.1225
  245MOL0     C33691   8.567   9.718  -0.370 -0.3301 -0.0362  0.6600
  245MOL0     C33692   8.552   9.654  -0.229  0.4645 -0.3923  1.0160
  245MOL0     C33693   8.568   9.758  -0.125  0.1568  1.1894  0.3757
  245MOL0     C33694   8.470   9.877  -0.121 -0.0407 -0.2454 -0.1970
  245MOL0     C33695   8.332   9.838  -0.061 -0.4786  0.3917  0.4257
  245MOL0     O33696   8.273   9.732  -0.142 -0.1951 -0.5356 -0.5962
  245MOL0     C33697   8.199   9.630  -0.085 -0.7051 -0.3788 -0.9913
  245MOL0     C33698   8.211   9.498  -0.130 -0.4434  0.4548 -0.0873
  245MOL0     C33699   8.134   9.394  -0.078 -0.4164  0.1611 -0.6598
  245MOL0     C33700   8.148   9.261  -0.137 -0.1772 -0.6169 -0.2753
  245MOL0     C33701   8.039   9.425   0.023  0.2092  0.2116 -0.2362
  245MOL0     C33702   7.935   9.326   0.086 -0.7462 -0.2527  0.8225
  245MOL0     O33703   7.905   9.336   0.218 -0.3789 -0.1478  0.2925
  245MOL0     C33704   7.835   9.231   0.274  0.1495 -0.9593  0.0977
  245MOL0     C33705   7.889   9.102   0.264 -0.2233 -0.3233  0.0021
  245MOL0     C33706   7.819   8.992   0.322 -0.3713 -0.2471 -0.2803
  245MOL0     C33707   7.710   9.022   0.409 -0.0622 -0.3031 -0.3065
  245MOL0     O33708   7.648   8.918   0.471 -0.0954  0.7440 -0.3865
  245MOL0     C33709   7.703   8.889   0.601 -0.3836  0.4488  0.1359
  245MOL0     C33710   7.631   8.777   0.686  0.3058  0.1605 -0.9187
  245MOL0     C33711   7.653   8.802   0.836 -0.0358  0.5379 -0.2157
  245MOL0     C33712   7.752   8.696   0.897 -0.9830  0.1723 -0.4579
  245MOL0     C33713   7.736   8.685   1.053  0.0158 -0.4348  0.9790
  245MOL0     C33714   7.800   8.808   1.119 -0.4115  0.9973 -0.7128
  245MOL0     C33715   7.803   8.812   1.268  0.4482  0.6681  0.1162
  245MOL0     C33716   7.889   8.918   1.325  0.5263  0.4126  0.2131
  245MOL0    Cl33717   8.045   8.861   1.345  0.1116  0.2486  0.3911
  245MOL0     C33718   7.665   9.155   0.424  0.1812  0.2368 -0.4013
  245MOL0     C33719   7.733   9.259   0.363 -0.0616  0.1800  0.0848
  245MOL0     O33720   7.879   9.256   0.004 -0.9658 -0.8358  0.1213
  245MOL0     C33721   8.025   9.557   0.077 -0.4861  0.3889 -0.4259
  245MOL0     C33722   8.113   9.656   0.023  0.5654 -1.8315  0.1416
  245MOL0     N33723   8.674   9.770  -0.425 -0.2452 -0.5735 -0.3345
  245MOL0     N33724   8.654   9.807  -0.550 -0.0882  0.1954  0.9314
  245MOL0     C33725   7.725  10.634  -0.409  0.5867 -0.1209 -1.0951
  245MOL0     C33726   7.614  10.695  -0.338  0.0463  0.0585 -0.1228
  245MOL0     C33727   7.409  10.815   0.071 -1.2132 -0.1766 -0.3414
  245MOL0     C33728   7.352  10.943   0.009  0.3533  0.2744  0.1067
  245MOL0     C33729   7.257  11.021   0.067  0.5356 -0.2559 -0.9363
  245MOL0     C33730   7.225  11.001   0.202 -0.4382 -0.5215 -0.0879
  245MOL0     O33731   7.131  11.091   0.252 -0.3441 -0.0492  0.4812
  245MOL0     C33732   7.191  11.181   0.351  0.7202 -0.2623 -1.2928
  245MOL0     C33733   7.261  11.299   0.287 -0.1278  1.1948 -0.0940
  245MOL0     C33734   7.339  11.381   0.393 -0.7662  0.2682  0.5957
  245MOL0     C33735   7.443  11.469   0.320  0.8894 -0.9408 -0.2851
  245MOL0     C33736   7.509  11.579   0.392  0.2138  0.3413 -0.3932
  245MOL0     C33737   7.565  11.675   0.441  0.6467  0.9375  0.2581
  245MOL0     C33738   7.278  10.888   0.267  0.1004 -0.4708  0.1547
  245MOL0     C33739   7.373  10.798   0.207  0.7026  0.1721  0.5803
  245MOL0     C33740   7.414  10.688   0.287  0.5946  0.1916  0.4328
  245MOL0     H33741   7.794  10.761  -0.057  1.0604 -0.2838  0.1757
  245MOL0     H33742   7.986  10.682  -0.205  0.1052 -2.0231 -0.4183
  245MOL0     H33743   7.900  10.473  -0.612  0.2071 -1.9227 -1.0960
  245MOL0     H33744   7.909  10.409  -0.446 -1.6232  1.7116  0.2681
  245MOL0     H33745   8.133  10.470  -0.648  4.0344 -0.2590  1.4972
  245MOL0     H33746   8.165  10.436  -0.469  0.8434 -1.7529 -0.5913
  245MOL0     H33747   8.019  10.235  -0.495 -3.4541  4.7361  0.3646
  245MOL0     H33748   8.033  10.255  -0.673 -1.1726 -0.6070 -0.2289
  245MOL0     H33749   8.261  10.248  -0.669 -0.9374 -1.9900 -1.4636
  245MOL0     H33750   8.273  10.240  -0.493  0.5665 -0.0711 -1.1339
  245MOL0     H33751   8.140  10.027  -0.682 -1.6982 -0.6950  0.3954
  245MOL0     H33752   8.146  10.013  -0.515 -1.1755 -0.3276 -2.1832
  245MOL0     H33753   8.411  10.073  -0.671 -1.1310  2.1196  0.2253
  245MOL0     H33754   8.377   9.981  -0.519 -2.6846 -1.5647 -0.0940
  245MOL0     H33755   8.310   9.880  -0.804 -1.5179 -4.1656 -0.4532
  245MOL0     H33756   8.260   9.803  -0.656 -1.0359  0.8365  0.0011
  245MOL0     H33757   8.429   9.676  -0.724 -1.5482  0.8125  0.1660
  245MOL0     H33758   8.530   9.798  -0.783 -1.3564  1.0353 -0.1234
  245MOL0     H33759   8.373   9.677  -0.446 -0.9186  1.0834  1.6380
  245MOL0     H33760   8.643   9.594  -0.221  1.3103  0.8361  0.8704
  245MOL0     H33761   8.461   9.593  -0.230 -1.8463  2.6579 -2.5715
  245MOL0     H33762   8.558   9.715  -0.024 -1.4413 -0.0690 -0.2592
  245MOL0     H33763   8.660   9.813  -0.143  0.2756  0.9775  0.3366
  245MOL0     H33764   8.507   9.960  -0.059  0.1769 -1.0842  0.8431
  245MOL0     H33765   8.464   9.911  -0.225 -0.8821  0.5821  0.1018
  245MOL0     H33766   8.348   9.804   0.042  0.7581 -1.8632 -0.4484
  245MOL0     H33767   8.259   9.919  -0.059 -2.5775 -1.4050 -0.4066
  245MOL0     H33768   8.287   9.489  -0.207  2.2625  1.8534  2.1841
  245MOL0     H33769   8.240   9.252  -0.195  0.4755  0.3609  0.5777
  245MOL0     H33770   8.066   9.240  -0.207 -1.0955 -3.4087  1.4988
  245MOL0     H33771   8.133   9.190  -0.056 -0.4349  1.6592  1.7953
  245MOL0     H33772   7.974   9.080   0.200  1.0668 -1.2740  1.9222
  245MOL0     H33773   7.849   8.888   0.327 -4.2914 -1.4559  3.3928
  245MOL0     H33774   7.801   8.853   0.568 -2.1075 -2.3217 -2.5368
  245MOL0     H33775   7.696   8.986   0.652 -4.7234 -0.1679  1.1403
  245MOL0     H33776   7.522   8.780   0.685  0.2489 -0.5862  0.6500
  245MOL0     H33777   7.669   8.675   0.675  1.6090  0.0706  2.9348
  245MOL0     H33778   7.559   8.788   0.891 -0.6989  2.1389 -0.8854
  245MOL0     H33779   7.687   8.903   0.858  0.0302  0.7584 -1.2796
  245MOL0     H33780   7.851   8.735   0.872 -0.8820  0.9551  1.0220
  245MOL0     H33781   7.747   8.600   0.846  1.1687  0.2195 -0.8302
  245MOL0     H33782   7.629   8.674   1.072  0.1138 -1.8383  0.8066
  245MOL0     H33783   7.781   8.592   1.088  2.1363 -0.1121 -0.6743
  245MOL0     H33784   7.771   8.900   1.067 -0.8588  2.1311  1.4525
  245MOL0     H33785   7.906   8.807   1.091  0.6678 -1.2701  2.8439
  245MOL0     H33786   7.833   8.717   1.314  3.2564  1.4266  0.0700
  245MOL0     H33787   7.702   8.843   1.294  0.3736  1.9733 -1.5977
  245MOL0     H33788   7.848   8.952   1.420  0.6046  2.7239 -0.5172
  245MOL0     H33789   7.893   9.005   1.259 -0.2673  0.6851  0.5191
  245MOL0     H33790   7.583   9.161   0.495  2.3575 -3.1264  2.7961
  245MOL0     H33791   7.713   9.365   0.374  2.2089  0.7351 -0.6135
  245MOL0     H33792   7.962   9.586   0.160 -1.2003  1.4180 -1.2894
  245MOL0     H33793   8.111   9.753   0.070 -0.1798 -1.1837 -1.1868
  245MOL0     H33794   7.705  10.585  -0.504 -1.7351 -0.0930 -0.6826
  245MOL0     H33795   7.513  10.685  -0.374  0.3681  0.6932 -1.2339
  245MOL0     H33796   7.371  10.965  -0.096 -2.3622 -3.9367 -1.5846
  245MOL0     H33797   7.198  11.093   0.012 -0.7377 -1.9661 -1.9151
  245MOL0     H33798   7.114  11.205   0.425  4.3694 -0.3019  2.9427
  245MOL0     H33799   7.272  11.133   0.408 -1.6827 -1.6303  1.2269
  245MOL0     H33800   7.184  11.359   0.238  0.4682  0.9436 -1.3838
  245MOL0     H33801   7.329  11.267   0.208  1.3463 -1.0691  1.9413
  245MOL0     H33802   7.271  11.451   0.444  1.2488  3.1937 -0.4708
  245MOL0     H33803   7.391  11.319   0.466 -2.1868 -1.0344  0.5454
  245MOL0     H33804   7.392  11.522   0.239  0.0669 -1.3769 -0.0627
  245MOL0     H33805   7.520  11.412   0.268 -0.8645 -1.8323 -2.0426
  245MOL0     H33806   7.614  11.764   0.474 -0.2243  1.1958  0.8848
  245MOL0     H33807   7.251  10.893   0.372 -1.9764  1.9422 -0.3934
  245MOL0     H33808   7.359  10.603   0.245  0.3789 -0.9193  2.8210
  245MOL0     H33809   7.522  10.670   0.285  0.5376 -0.1220 -0.7087
  245MOL0     H33810   7.382  10.696   0.391 -2.7128  0.9075 -0.5018
  246MOL0     O33811   6.490   1.595   7.567 -0.6731  0.3228  0.2808
  246MOL0     C33812   6.447   1.490   7.518  0.2512 -0.0411 -0.2158
  246MOL0     O33813   6.365   1.403   7.587  0.0695  0.3352 -0.9007
  246MOL0     C33814   6.309   1.457   7.695 -0.6986  0.0989 -0.5760
  246MOL0     C33815   6.382   1.458   7.815  0.1035 -0.6420  0.8697
  246MOL0     C33816   6.334   1.496   7.940  0.7083 -0.8555 -0.0482
  246MOL0     C33817   6.202   1.541   7.952  0.0454 -0.5792 -0.6338
  246MOL0     O33818   6.147   1.581   8.076 -0.3745 -0.1961 -0.5979
  246MOL0     C33819   6.227   1.671   8.155 -0.2579 -0.1375  0.1783
  246MOL0     C33820   6.149   1.752   8.256 -0.3731  1.1181 -0.2147
  246MOL0     C33821   6.079   1.870   8.196 -0.5925  0.0782  0.1322
  246MOL0     C33822   5.987   1.929   8.283  0.6949  0.1371 -0.0732
  246MOL0     C33823   5.926   2.059   8.219  0.0916 -1.1100  0.3606
  246MOL0     C33824   5.849   2.149   8.322 -1.3987 -0.2373 -0.1764
  246MOL0     C33825   5.758   2.242   8.250 -0.7431 -0.6025 -0.6050
  246MOL0     C33826   5.698   2.324   8.370  0.3495 -0.5034 -0.2643
  246MOL0     N33827   5.578   2.262   8.430  0.2216 -0.4103  0.6734
  246MOL0     C33828   5.459   2.219   8.370  0.7753 -0.2482 -0.1328
  246MOL0     C33829   5.383   2.156   8.464 -0.1148  0.7139  0.0381
  246MOL0     C33830   5.234   2.111   8.448 -0.4099 -0.1662 -0.7104
  246MOL0     C33831   5.137   2.180   8.543  0.3807 -0.5676  0.4465
  246MOL0     C33832   5.170   2.328   8.534  0.2451  0.2140 -0.8598
  246MOL0     C33833   5.092   2.419   8.632 -0.2765  0.5291 -1.1155
  246MOL0     O33834   5.155   2.407   8.763  0.3289  0.4824  0.0922
  246MOL0     C33835   5.284   2.454   8.770 -0.3446 -0.2920  0.1076
  246MOL0     C33836   5.317   2.583   8.716 -0.4617  0.5985 -0.8617
  246MOL0     C33837   5.448   2.633   8.718  0.3387  0.3216  0.1424
  246MOL0     C33838   5.470   2.778   8.661  0.7396 -0.3517 -1.2038
  246MOL0     C33839   5.551   2.551   8.774  0.0794 -0.5864  0.7736
  246MOL0     C33840   5.693   2.604   8.779  0.1991 -0.2547  0.0592
  246MOL0     O33841   5.787   2.513   8.758 -1.2574 -0.2253  0.6065
  246MOL0     C33842   5.918   2.566   8.745  0.8396  0.2574 -0.9700
  246MOL0     C33843   5.971   2.565   8.619  0.5884  0.3591  0.3834
  246MOL0     C33844   6.097   2.611   8.593  0.2179 -0.8435  0.1667
  246MOL0     C33845   6.173   2.662   8.696 -1.0487 -0.2203  0.8291
  246MOL0     O33846   6.303   2.705   8.689 -0.4122 -0.2609 -0.0306
  246MOL0     C33847   6.363   2.709   8.556 -0.0002  0.2068 -0.1163
  246MOL0     C33848   6.503   2.750   8.576  1.1644 -0.0367 -0.4413
  246MOL0     C33849   6.571   2.782   8.439 -0.1892 -0.7590  0.8125
  246MOL0     C33850   6.724   2.798   8.448 -0.7045 -0.0016  0.1477
  246MOL0     C33851   6.778   2.851   8.309  0.8062  0.3993 -0.1088
  246MOL0     C33852   6.771   2.760   8.186 -0.0371 -0.3251 -1.3714
  246MOL0     C33853   6.801   2.863   8.078  0.5439  0.5909  0.4733
  246MOL0     C33854   6.838   2.786   7.947 -1.1422 -0.0940 -0.5461
  246MOL0    Cl33855   6.694   2.689   7.881 -0.1081  0.1917 -0.8281
  246MOL0     C33856   6.120   2.671   8.822  0.7496 -0.3400  0.4313
  246MOL0     C33857   5.991   2.620   8.852 -0.2861  0.4412 -0.0353
  246MOL0     O33858   5.716   2.719   8.815 -0.5737  0.0073 -0.2171
  246MOL0     C33859   5.512   2.429   8.834  0.3401  1.0258 -0.0054
  246MOL0     C33860   5.378   2.381   8.835  0.0092 -1.3582 -0.5559
  246MOL0     N33861   5.458   2.156   8.580 -0.0889  1.1361 -0.3062
  246MOL0     N33862   5.564   2.223   8.561  0.2555  0.4328 -0.3390
  246MOL0     C33863   6.124   1.545   7.836 -0.4387 -0.1312  0.1366
  246MOL0     C33864   6.174   1.496   7.708 -0.3959 -0.5278  0.5596
  246MOL0     C33865   6.473   1.459   7.373 -0.3690  1.5705  0.1955
  246MOL0     C33866   6.434   1.332   7.328 -0.0383 -0.3655 -0.1218
  246MOL0     C33867   6.452   1.300   7.192 -0.7955  0.2593 -0.5905
  246MOL0     C33868   6.492   1.386   7.097  0.6396 -0.4847 -0.5764
  246MOL0     O33869   6.489   1.356   6.967  0.8626  0.4991  0.2987
  246MOL0     C33870   6.546   1.440   6.866 -0.1488  1.0725 -0.9549
  246MOL0     C33871   6.575   1.364   6.742 -0.8067 -0.1929 -0.4446
  246MOL0     C33872   6.609   1.459   6.620 -0.0800 -0.3820  0.5010
  246MOL0     C33873   6.506   1.563   6.593 -0.4841  0.2527 -0.1066
  246MOL0     C33874   6.544   1.631   6.468  0.8043 -0.1224 -0.1791
  246MOL0     C33875   6.572   1.688   6.365 -0.1756 -0.0004 -0.2681
  246MOL0     C33876   6.529   1.514   7.140 -0.7551 -0.3527 -0.0769
  246MOL0     C33877   6.536   1.550   7.280 -0.3551  0.7317  0.9120
  246MOL0     C33878   6.601   1.681   7.322 -0.4857  0.4048 -1.1430
  246MOL0     H33879   6.483   1.419   7.801 -0.7200 -2.2255 -1.0547
  246MOL0     H33880   6.397   1.496   8.028  1.7341  3.8487 -0.5419
  246MOL0     H33881   6.289   1.733   8.089 -1.8036  0.2782 -0.9196
  246MOL0     H33882   6.306   1.618   8.210 -0.2721 -1.4307 -0.9922
  246MOL0     H33883   6.088   1.695   8.326  0.4043  0.3645 -0.1330
  246MOL0     H33884   6.221   1.794   8.327 -0.8933  1.3576  0.1712
  246MOL0     H33885   6.155   1.944   8.170 -0.5223  0.2269  0.7493
  246MOL0     H33886   6.036   1.857   8.096  0.7257 -0.5274 -0.3724
  246MOL0     H33887   5.910   1.852   8.293  2.0168 -1.0025  2.5779
  246MOL0     H33888   6.030   1.947   8.382  0.3691 -2.5406  0.6453
  246MOL0     H33889   5.860   2.026   8.138  1.8132  0.5646 -1.8447
  246MOL0     H33890   6.008   2.117   8.176 -1.1118 -0.9559 -1.8902
  246MOL0     H33891   5.811   2.090   8.406 -0.5736  0.3717  0.6344
  246MOL0     H33892   5.927   2.212   8.364 -2.1644  0.7611 -0.2232
  246MOL0     H33893   5.689   2.184   8.187  0.7698 -3.3159  0.0798
  246MOL0     H33894   5.797   2.309   8.173 -3.5548  1.4147 -0.4521
  246MOL0     H33895   5.767   2.342   8.453 -0.6273 -1.2621  0.7370
  246MOL0     H33896   5.665   2.421   8.331  0.9476 -0.2766 -0.2146
  246MOL0     H33897   5.424   2.240   8.270 -1.0975  0.4712  0.6316
  246MOL0     H33898   5.222   2.002   8.456  2.9018 -1.0680 -4.4807
  246MOL0     H33899   5.201   2.147   8.350 -1.0268 -0.5753 -0.6569
  246MOL0     H33900   5.034   2.155   8.514  0.0775 -0.1795  1.1616
  246MOL0     H33901   5.141   2.143   8.646 -2.0663  2.2188  1.6950
  246MOL0     H33902   5.277   2.351   8.546  0.7329 -2.6028  1.5015
  246MOL0     H33903   5.141   2.367   8.437  0.6629  0.7441 -0.7790
  246MOL0     H33904   5.091   2.520   8.589 -4.4248  1.5069  0.7906
  246MOL0     H33905   4.987   2.401   8.656  0.2700  0.1878  1.2280
  246MOL0     H33906   5.231   2.630   8.670 -1.9240  1.0199  2.0671
  246MOL0     H33907   5.526   2.752   8.570  2.5439 -1.1839  0.0797
  246MOL0     H33908   5.523   2.847   8.726  2.3648 -0.3013 -2.5191
  246MOL0     H33909   5.372   2.819   8.636  0.2560 -0.4907  0.3444
  246MOL0     H33910   5.910   2.526   8.538  3.6265  2.0112 -2.9816
  246MOL0     H33911   6.142   2.604   8.495  1.5325  0.7446  0.6101
  246MOL0     H33912   6.364   2.607   8.517 -1.6223  0.5521 -1.1789
  246MOL0     H33913   6.305   2.777   8.493 -1.3665 -0.7714  0.0285
  246MOL0     H33914   6.493   2.845   8.631 -0.8262 -0.6631  0.3893
  246MOL0     H33915   6.554   2.675   8.637  0.6559 -0.0770 -0.0496
  246MOL0     H33916   6.520   2.866   8.391 -1.7748 -2.2491 -0.2609
  246MOL0     H33917   6.557   2.697   8.372  1.6177 -0.9332  0.5868
  246MOL0     H33918   6.781   2.709   8.475  0.1537 -0.3200 -2.4436
  246MOL0     H33919   6.745   2.868   8.529  0.9497 -2.0118  1.5493
  246MOL0     H33920   6.736   2.952   8.302  0.7652  0.3855 -0.0633
  246MOL0     H33921   6.884   2.874   8.324  0.5546  1.5015  0.0824
  246MOL0     H33922   6.669   2.728   8.165 -0.7541  1.3015 -0.5569
  246MOL0     H33923   6.835   2.672   8.186 -4.0612 -3.5318 -0.1499
  246MOL0     H33924   6.883   2.929   8.106  2.1130 -1.2376  0.3908
  246MOL0     H33925   6.705   2.913   8.062  0.6846  0.4293 -1.0261
  246MOL0     H33926   6.926   2.722   7.963  0.9412  2.8573  0.7634
  246MOL0     H33927   6.863   2.861   7.871 -0.8387  1.2830  0.8542
  246MOL0     H33928   6.185   2.709   8.901  0.0996  0.6548  0.5070
  246MOL0     H33929   5.954   2.632   8.954  1.7210  0.6392  0.7263
  246MOL0     H33930   5.590   2.364   8.871  0.3538 -0.0118 -1.7399
  246MOL0     H33931   5.349   2.283   8.872  0.9998 -2.1919 -1.8818
  246MOL0     H33932   6.021   1.579   7.837 -0.9708 -1.5273 -1.5639
  246MOL0     H33933   6.131   1.488   7.609  1.7993  0.1987 -0.5102
  246MOL0     H33934   6.392   1.258   7.395 -2.1627  0.7645 -0.1534
  246MOL0     H33935   6.424   1.201   7.156  1.6187  0.6739 -4.0714
  246MOL0     H33936   6.488   1.531   6.849  3.9987  3.6181 -3.1305
  246MOL0     H33937   6.648   1.458   6.902  0.0114 -0.2649 -0.7103
  246MOL0     H33938   6.489   1.302   6.718 -1.1753 -0.7713  2.1592
  246MOL0     H33939   6.656   1.293   6.760  0.8621  1.5747 -0.5743
  246MOL0     H33940   6.704   1.512   6.631 -0.2937  0.3901 -1.1187
  246MOL0     H33941   6.615   1.397   6.531 -2.4891  1.1282 -0.7914
  246MOL0     H33942   6.501   1.639   6.671 -0.7522 -1.9237  2.1078
  246MOL0     H33943   6.404   1.522   6.591 -1.3695  2.1172  2.5907
  246MOL0     H33944   6.617   1.740   6.283  2.7125 -1.1920  0.4234
  246MOL0     H33945   6.556   1.594   7.071 -0.2709  0.8434  1.4251
  246MOL0     H33946   6.661   1.717   7.238  1.3696  0.9445  0.3506
  246MOL0     H33947   6.533   1.761   7.351  2.1186  1.7695  1.7298
  246MOL0     H33948   6.661   1.664   7.411 -1.5585 -3.1950 -0.9494
  247MOL0     O33949   8.612   7.183   2.908  0.0419  0.0081 -0.0928
  247MOL0     C33950   8.656   7.098   2.830 -0.2205  0.4532  0.6143
  247MOL0     O33951   8.602   7.071   2.709  0.0092 -0.7616 -0.1388
  247MOL0     C33952   8.497   7.151   2.662 -0.6196 -0.1002 -1.1453
  247MOL0     C33953   8.496   7.213   2.542 -0.6227  0.1008  0.6377
  247MOL0     C33954   8.390   7.280   2.486 -1.0003 -0.0172  0.9929
  247MOL0     C33955   8.281   7.311   2.565 -0.2194 -0.2544  0.4128
  247MOL0     O33956   8.166   7.369   2.511  0.3260 -0.5287 -0.3055
  247MOL0     C33957   8.114   7.319   2.388 -0.6562  0.2704 -1.5925
  247MOL0     C33958   8.072   7.168   2.402 -0.1360  1.2348 -0.3181
  247MOL0     C33959   7.964   7.136   2.507 -0.1331  1.5209 -0.2324
  247MOL0     C33960   7.966   6.978   2.552 -0.5761  0.1325 -0.2373
  247MOL0     C33961   7.859   6.941   2.646  0.2316  0.9225  1.1713
  247MOL0     C33962   7.903   6.803   2.710  0.2439 -0.1246 -0.5380
  247MOL0     C33963   7.796   6.767   2.811  0.3969  0.8411  0.3679
  247MOL0     C33964   7.820   6.640   2.881 -0.8100  0.2736 -0.7658
  247MOL0     N33965   7.715   6.601   2.984  0.4929  0.2756  0.5267
  247MOL0     C33966   7.626   6.676   3.052  0.3407 -0.0257  0.0435
  247MOL0     C33967   7.543   6.603   3.124  0.0396  0.9004  0.6927
  247MOL0     C33968   7.425   6.640   3.205  0.6111 -0.4084  0.0223
  247MOL0     C33969   7.301   6.691   3.127 -0.3040  0.8633  0.2316
  247MOL0     C33970   7.309   6.843   3.087 -0.4553  0.7968 -0.4516
  247MOL0     C33971   7.187   6.889   3.015  0.5835  0.0260  0.1415
  247MOL0     O33972   7.143   6.796   2.911 -0.1492 -0.0931 -0.3262
  247MOL0     C33973   7.016   6.776   2.863  0.2467  0.3351 -0.1375
  247MOL0     C33974   6.989   6.669   2.780 -0.1039 -0.6180 -0.3618
  247MOL0     C33975   6.856   6.646   2.731 -0.3776  0.3837 -0.3211
  247MOL0     C33976   6.853   6.539   2.620  0.2560 -0.3221 -0.4815
  247MOL0     C33977   6.747   6.731   2.778  0.2231  1.0548  0.0263
  247MOL0     C33978   6.610   6.722   2.726 -0.0797 -0.3543  0.3046
  247MOL0     O33979   6.525   6.834   2.759 -0.3870  0.0368  0.6597
  247MOL0     C33980   6.433   6.862   2.663 -0.2450  0.8792  0.6561
  247MOL0     C33981   6.331   6.771   2.621  0.4504 -1.2134 -0.3357
  247MOL0     C33982   6.240   6.818   2.527 -0.3856  1.0484 -0.5535
  247MOL0     C33983   6.243   6.939   2.465  0.2570 -0.5770 -0.3031
  247MOL0     O33984   6.168   6.982   2.357 -0.2731  0.2412  0.5512
  247MOL0     C33985   6.057   6.903   2.317 -0.4266 -0.2658 -0.2047
  247MOL0     C33986   5.993   6.976   2.197 -0.0222 -0.2099  0.2656
  247MOL0     C33987   5.938   7.111   2.244  1.3303 -0.5323  0.4778
  247MOL0     C33988   5.843   7.186   2.145 -0.5533 -0.2649 -0.2424
  247MOL0     C33989   5.921   7.241   2.023 -0.4941 -0.4227  0.1966
  247MOL0     C33990   5.990   7.381   2.060 -0.4739  0.8160 -0.0991
  247MOL0     C33991   5.899   7.497   2.108  0.1327  0.6195 -0.6693
  247MOL0     C33992   5.957   7.636   2.095 -1.2832  0.3612 -0.8834
  247MOL0    Cl33993   5.856   7.753   2.190 -0.2166  0.5974  0.1419
  247MOL0     C33994   6.323   7.036   2.532  1.3388  0.1035 -0.2861
  247MOL0     C33995   6.433   6.991   2.618  0.4773 -0.3693  0.7025
  247MOL0     O33996   6.566   6.617   2.669 -0.6986 -0.2229 -0.0293
  247MOL0     C33997   6.784   6.832   2.861  0.2595 -0.2336  0.0795
  247MOL0     C33998   6.912   6.860   2.900  0.2055  0.1388  0.8137
  247MOL0     N33999   7.581   6.472   3.099 -0.6287 -0.4572 -0.0075
  247MOL0     N34000   7.684   6.475   3.021 -0.0897  0.2972  0.1625
  247MOL0     C34001   8.282   7.260   2.693  0.7515 -0.0480 -0.0909
  247MOL0     C34002   8.385   7.180   2.741  0.1446  0.4648  0.5034
  247MOL0     C34003   8.772   7.004   2.875 -0.5528  1.5346  0.1275
  247MOL0     C34004   8.810   6.998   3.003  0.3503  0.3372 -0.6320
  247MOL0     C34005   8.918   6.928   3.057  0.0296 -0.8246  0.6779
  247MOL0     C34006   9.004   6.862   2.973 -0.4853  0.0263  0.0693
  247MOL0     O34007   9.110   6.792   3.031 -0.1524 -0.6826 -0.3333
  247MOL0     C34008   9.164   6.682   2.960  0.4853  0.0400  0.7002
  247MOL0     C34009   9.273   6.704   2.864 -0.0183 -0.4868 -0.2346
  247MOL0     C34010   9.390   6.785   2.931  0.3252  0.6853 -1.2204
  247MOL0     C34011   9.513   6.793   2.853  0.1503 -0.1854 -0.4592
  247MOL0     C34012   9.496   6.906   2.760 -0.1835  0.1379  0.7234
  247MOL0     C34013   9.481   6.985   2.662 -0.1583  1.1325  0.3304
  247MOL0     C34014   8.969   6.851   2.841  0.8663 -0.2753 -0.2183
  247MOL0     C34015   8.847   6.917   2.792 -0.2524  0.5431 -0.2118
  247MOL0     C34016   8.831   6.902   2.635  0.7876  0.5776 -1.5963
  247MOL0     H34017   8.578   7.202   2.472  1.1334 -0.4044  2.6726
  247MOL0     H34018   8.403   7.326   2.388 -1.6509 -3.2086 -0.7395
  247MOL0     H34019   8.195   7.324   2.315  1.1692 -0.8919  0.2404
  247MOL0     H34020   8.037   7.381   2.341  0.0464  1.6600 -0.9775
  247MOL0     H34021   8.040   7.136   2.303 -2.8253  2.2652  0.1194
  247MOL0     H34022   8.155   7.106   2.437 -2.2587 -1.2708  0.5742
  247MOL0     H34023   7.971   7.193   2.601 -4.3091  1.9568  0.0340
  247MOL0     H34024   7.870   7.165   2.459 -0.7072  0.1589  0.0357
  247MOL0     H34025   7.964   6.917   2.461 -0.5227 -1.3140  0.6934
  247MOL0     H34026   8.063   6.970   2.604  0.0122  2.4510 -0.8797
  247MOL0     H34027   7.767   6.935   2.588  1.8271  0.6083 -1.5075
  247MOL0     H34028   7.858   7.019   2.722 -0.1693  0.6853  1.4089
  247MOL0     H34029   7.907   6.734   2.626  0.6214  0.2707 -0.8530
  247MOL0     H34030   8.006   6.818   2.746  1.7472  1.4504 -4.8296
  247MOL0     H34031   7.700   6.759   2.758  0.4166  1.0690  0.3004
  247MOL0     H34032   7.788   6.854   2.876 -2.8694  1.8969 -1.2589
  247MOL0     H34033   7.840   6.558   2.811 -2.4994  0.1593 -1.1676
  247MOL0     H34034   7.918   6.665   2.923  0.7953 -0.4070 -3.8540
  247MOL0     H34035   7.631   6.784   3.050  0.6055 -0.0354  0.1827
  247MOL0     H34036   7.449   6.712   3.283 -1.7730 -1.0973  1.4967
  247MOL0     H34037   7.400   6.546   3.256  3.6040 -0.2078  2.1125
  247MOL0     H34038   7.297   6.636   3.032 -1.0257 -0.0083  0.7569
  247MOL0     H34039   7.209   6.690   3.185 -0.9861  2.1421 -0.7768
  247MOL0     H34040   7.325   6.896   3.181 -0.3586  0.5363 -0.3223
  247MOL0     H34041   7.392   6.855   3.017 -0.2778  1.8127 -0.0877
  247MOL0     H34042   7.096   6.902   3.075 -0.1472  1.8948 -1.2735
  247MOL0     H34043   7.198   6.988   2.971  0.6367  0.1532  0.4397
  247MOL0     H34044   7.078   6.612   2.753  2.2855  2.0500  1.2682
  247MOL0     H34045   6.955   6.506   2.599  0.3514 -1.0481  1.0234
  247MOL0     H34046   6.816   6.571   2.522  1.7032 -0.5706 -1.1393
  247MOL0     H34047   6.783   6.460   2.648 -0.0338  0.2263  0.4053
  247MOL0     H34048   6.332   6.673   2.668  0.2624 -0.7017  0.7647
  247MOL0     H34049   6.174   6.733   2.506  1.2213 -0.2682 -0.4931
  247MOL0     H34050   6.090   6.809   2.271  2.9660 -0.1636  1.7337
  247MOL0     H34051   5.993   6.886   2.404 -0.7074  2.4611  0.2116
  247MOL0     H34052   6.066   6.996   2.118 -1.0234  1.3045 -0.3253
  247MOL0     H34053   5.915   6.923   2.142  1.8151 -3.4484  0.5130
  247MOL0     H34054   6.018   7.183   2.260  0.4968  0.4971  0.1457
  247MOL0     H34055   5.881   7.096   2.336  2.4624  0.3447  1.3486
  247MOL0     H34056   5.797   7.264   2.205 -0.9268 -2.6755  2.8881
  247MOL0     H34057   5.764   7.116   2.113  0.7637 -1.3692 -1.2154
  247MOL0     H34058   5.988   7.161   1.990 -0.6279 -0.1897 -0.6732
  247MOL0     H34059   5.844   7.265   1.949 -1.2160 -0.7732  0.8212
  247MOL0     H34060   6.032   7.416   1.965  0.9755 -2.4971 -0.8352
  247MOL0     H34061   6.074   7.365   2.128  2.7828  2.6643 -3.3316
  247MOL0     H34062   5.861   7.481   2.209  2.0832 -0.4116 -0.0378
  247MOL0     H34063   5.818   7.506   2.035 -0.3093 -3.3927 -0.9071
  247MOL0     H34064   5.954   7.677   1.994 -0.0048  2.8761  0.0264
  247MOL0     H34065   6.060   7.623   2.130 -0.8645 -0.1560 -2.2309
  247MOL0     H34066   6.313   7.139   2.502  1.7970 -0.4497 -2.5556
  247MOL0     H34067   6.514   7.060   2.643  0.3414  0.8007 -1.8050
  247MOL0     H34068   6.706   6.895   2.902 -0.1464  0.5315 -1.7740
  247MOL0     H34069   6.926   6.954   2.952  1.5668 -0.2267  1.1526
  247MOL0     H34070   8.196   7.271   2.758  1.7829 -0.2963  1.3471
  247MOL0     H34071   8.395   7.138   2.841  3.7509  2.0143  0.9728
  247MOL0     H34072   8.744   7.036   3.080 -0.2751 -0.5105 -0.7409
  247MOL0     H34073   8.941   6.924   3.163  1.3367  0.7589  0.4813
  247MOL0     H34074   9.186   6.608   3.037  0.2853  1.0076  1.7025
  247MOL0     H34075   9.085   6.630   2.904  2.3860 -0.7357 -1.4265
  247MOL0     H34076   9.229   6.749   2.775  0.5772 -1.6838 -1.1630
  247MOL0     H34077   9.310   6.604   2.839  0.7615 -0.7697  1.8239
  247MOL0     H34078   9.355   6.885   2.959 -0.0993  0.5421 -1.2378
  247MOL0     H34079   9.425   6.731   3.020 -0.7000  1.2386 -0.4621
  247MOL0     H34080   9.529   6.693   2.813 -1.8721 -1.5092  1.8186
  247MOL0     H34081   9.591   6.812   2.928 -0.4533  2.8222 -0.4723
  247MOL0     H34082   9.466   7.064   2.590 -2.3237  1.8122  1.4086
  247MOL0     H34083   9.024   6.788   2.772 -0.2072 -1.3900 -0.0822
  247MOL0     H34084   8.918   6.846   2.600  0.8927  0.1401 -0.6470
  247MOL0     H34085   8.741   6.841   2.623 -0.7532  1.8892  1.8617
  247MOL0     H34086   8.823   6.999   2.583 -1.0120  0.5631 -1.4101
  248MOL0     O34087  10.653   8.041   5.524  0.8089  0.2096 -0.2690
  248MOL0     C34088  10.645   8.152   5.475  0.7031 -0.0490 -0.1037
  248MOL0     O34089  10.735   8.257   5.491 -0.1746  0.2997 -0.2654
  248MOL0     C34090  10.868   8.246   5.528 -0.0987  0.8952 -0.1176
  248MOL0     C34091  10.938   8.130   5.506 -0.1045 -0.3986 -0.9901
  248MOL0     C34092  11.066   8.110   5.555 -0.0059 -0.5482 -0.5963
  248MOL0     C34093  11.137   8.218   5.606  0.5982  0.0187 -0.1303
  248MOL0     O34094  11.271   8.186   5.638  0.4479 -0.6247 -0.4368
  248MOL0     C34095  11.352   8.295   5.672  1.1070 -0.5329  0.0688
  248MOL0     C34096  11.492   8.268   5.655 -0.7088 -0.0324 -0.3339
  248MOL0     C34097  11.529   8.257   5.500  0.0858 -0.7337 -0.2542
  248MOL0     C34098  11.672   8.214   5.493 -0.3542 -0.7776  0.8251
  248MOL0     C34099  11.744   8.279   5.375 -0.9422  0.6846 -0.2143
  248MOL0     C34100  11.712   8.218   5.243  0.3107  0.1573  0.6865
  248MOL0     C34101  11.786   8.271   5.118 -0.0458  0.7418  0.4612
  248MOL0     C34102  11.919   8.196   5.099  0.5253  0.1089  0.8990
  248MOL0     N34103  12.023   8.236   5.194 -0.1404 -0.2770  0.1150
  248MOL0     C34104  12.096   8.357   5.190  0.1773  0.1090  0.6995
  248MOL0     C34105  12.181   8.336   5.291 -1.1019 -0.6518  0.7253
  248MOL0     C34106  12.274   8.441   5.362  0.3099 -0.1142 -0.0381
  248MOL0     C34107  12.372   8.500   5.265 -0.3457  0.7487 -0.7813
  248MOL0     C34108  12.486   8.563   5.348 -0.3545  0.0650  0.4524
  248MOL0     C34109  12.592   8.600   5.254 -0.0865  0.5265 -0.0283
  248MOL0     O34110  12.548   8.718   5.190 -0.0301 -1.0048 -0.0115
  248MOL0     C34111  12.628   8.825   5.204 -0.0371 -0.4040 -0.4557
  248MOL0     C34112  12.563   8.937   5.268 -0.6393  0.7249  0.5414
  248MOL0     C34113  12.630   9.061   5.286 -0.6920  0.4555  0.6675
  248MOL0     C34114  12.547   9.175   5.343 -0.4608 -0.1752 -0.6998
  248MOL0     C34115  12.767   9.072   5.240 -0.8950  0.2339 -0.4546
  248MOL0     C34116  12.852   9.196   5.237 -0.9348  0.3766 -0.6694
  248MOL0     O34117  12.953   9.200   5.151 -0.4058 -0.0190 -0.8550
  248MOL0     C34118  13.021   9.321   5.139 -1.1103  0.3784 -0.4777
  248MOL0     C34119  13.163   9.315   5.137  0.8890 -0.5229 -0.2521
  248MOL0     C34120  13.233   9.426   5.144  0.7650 -0.4948  0.1387
  248MOL0     C34121  13.176   9.552   5.145  0.0511 -0.8305 -0.2999
  248MOL0     O34122  13.251   9.661   5.172 -0.0640 -0.4885 -0.0851
  248MOL0     C34123  13.248   9.776   5.086  0.4715 -0.7925  0.4054
  248MOL0     C34124  13.382   9.845   5.086 -0.1586 -0.9283 -0.4768
  248MOL0     C34125  13.421   9.904   5.225  0.6735  0.5849 -0.1731
  248MOL0     C34126  13.308   9.991   5.304 -0.5924 -0.2305 -0.1054
  248MOL0     C34127  13.270  10.107   5.213 -0.2091 -0.3902  1.6083
  248MOL0     C34128  13.196  10.222   5.292 -0.2356 -0.3774  0.7829
  248MOL0     C34129  13.297  10.301   5.370  0.4478  1.0395  0.5608
  248MOL0     C34130  13.234  10.414   5.441 -0.1847 -0.7293 -0.3924
  248MOL0    Cl34131  13.184  10.557   5.345 -0.3098 -0.0010  0.0475
  248MOL0     C34132  13.033   9.562   5.139  0.7123 -0.1301 -0.5000
  248MOL0     C34133  12.956   9.445   5.135  0.6589  0.0378 -0.2166
  248MOL0     O34134  12.834   9.282   5.322  0.4473  0.4785 -0.8088
  248MOL0     C34135  12.818   8.966   5.163  0.6487 -0.5635  0.3446
  248MOL0     C34136  12.748   8.845   5.142  0.4052  0.2514  0.1197
  248MOL0     N34137  12.168   8.211   5.350  0.1223 -0.0141 -0.5451
  248MOL0     N34138  12.074   8.152   5.289  0.0943  0.1403 -0.7759
  248MOL0     C34139  11.063   8.333   5.639 -0.7622 -0.0636 -0.3385
  248MOL0     C34140  10.925   8.339   5.610  0.1426 -0.0442  0.0310
  248MOL0     C34141  10.512   8.181   5.409 -0.3725 -0.7280 -0.8841
  248MOL0     C34142  10.483   8.316   5.379  0.5375 -0.5599 -0.1945
  248MOL0     C34143  10.369   8.350   5.309 -0.1171 -0.2376 -0.0978
  248MOL0     C34144  10.264   8.257   5.278 -0.5358 -1.2231  0.0489
  248MOL0     O34145  10.153   8.294   5.202  0.1472 -0.0522 -0.4036
  248MOL0     C34146  10.139   8.431   5.151  0.8183  1.1005  0.2400
  248MOL0     C34147  10.226   8.432   5.018 -0.2916 -0.3864  0.7215
  248MOL0     C34148  10.174   8.350   4.890  0.2609  0.1749 -0.6780
  248MOL0     C34149  10.212   8.433   4.765 -0.0309  0.0212  0.3719
  248MOL0     C34150  10.362   8.419   4.740  0.1827  0.4596 -0.2009
  248MOL0     C34151  10.482   8.400   4.727 -0.0480 -0.0789  0.2104
  248MOL0     C34152  10.291   8.124   5.310 -0.4272 -0.1819 -0.9615
  248MOL0     C34153  10.408   8.087   5.375  0.1168 -0.0655 -0.8812
  248MOL0     C34154  10.419   7.939   5.404  0.3525  0.0620 -0.2157
  248MOL0     H34155  10.879   8.062   5.445 -0.6589  0.4364 -1.4080
  248MOL0     H34156  11.124   8.018   5.549  3.0302  1.0740  1.4703
  248MOL0     H34157  11.320   8.324   5.773 -1.5107  1.8984 -1.2927
  248MOL0     H34158  11.328   8.384   5.612  0.6453  0.0924  1.1404
  248MOL0     H34159  11.556   8.346   5.698  3.0024 -3.3598  0.6958
  248MOL0     H34160  11.534   8.186   5.713  0.2292 -0.8295 -2.0798
  248MOL0     H34161  11.465   8.175   5.465 -0.1707 -0.4051 -0.5632
  248MOL0     H34162  11.513   8.347   5.441  1.4236  0.3024  0.9082
  248MOL0     H34163  11.725   8.251   5.581 -0.1979 -1.3683  0.9870
  248MOL0     H34164  11.676   8.105   5.501  1.7483 -0.6497  2.2679
  248MOL0     H34165  11.852   8.261   5.385 -0.8503  1.2005 -0.2447
  248MOL0     H34166  11.727   8.387   5.380  2.3554  1.4540 -2.5299
  248MOL0     H34167  11.725   8.110   5.246 -0.2656  0.0942  1.2470
  248MOL0     H34168  11.605   8.224   5.222  0.6532 -1.3481 -1.9050
  248MOL0     H34169  11.809   8.377   5.128  2.1063  0.6163 -2.1606
  248MOL0     H34170  11.731   8.251   5.025 -1.2904  0.3429  1.2561
  248MOL0     H34171  11.910   8.087   5.094  2.3533 -0.1221  1.9529
  248MOL0     H34172  11.946   8.218   4.995 -1.5240  3.0391  0.8709
  248MOL0     H34173  12.062   8.446   5.138 -1.7416  0.2836  2.1417
  248MOL0     H34174  12.342   8.387   5.428  0.7052 -1.2456 -1.3131
  248MOL0     H34175  12.221   8.525   5.407  0.8962  0.5220 -0.5192
  248MOL0     H34176  12.402   8.413   5.207 -0.0283  1.0150 -1.0197
  248MOL0     H34177  12.325   8.570   5.195 -1.5997 -1.0624 -1.8183
  248MOL0     H34178  12.451   8.652   5.400 -2.2657 -1.3405  1.7332
  248MOL0     H34179  12.520   8.487   5.419  0.4389  0.2116  0.2322
  248MOL0     H34180  12.681   8.607   5.317 -1.1153  3.5940  1.2618
  248MOL0     H34181  12.608   8.524   5.177  0.0511  0.0655  0.4423
  248MOL0     H34182  12.461   8.915   5.297 -0.4792 -0.0308  0.5493
  248MOL0     H34183  12.459   9.148   5.403  0.9269 -0.9468  1.0527
  248MOL0     H34184  12.519   9.240   5.259  0.8517 -0.5279 -1.4276
  248MOL0     H34185  12.607   9.223   5.420 -0.4175 -2.6695  0.9493
  248MOL0     H34186  13.212   9.219   5.143  2.1773  0.1196 -0.0509
  248MOL0     H34187  13.341   9.417   5.150  0.8788  0.5206 -0.1791
  248MOL0     H34188  13.237   9.750   4.980  0.9492 -0.5531  0.2926
  248MOL0     H34189  13.167   9.841   5.119 -0.2835 -1.2866 -0.4324
  248MOL0     H34190  13.456   9.774   5.048 -1.7934 -1.8438 -2.1119
  248MOL0     H34191  13.374   9.931   5.020 -1.4481 -1.6148 -1.2633
  248MOL0     H34192  13.508   9.968   5.209  0.2544  1.8751  2.1662
  248MOL0     H34193  13.451   9.817   5.285  1.0298 -0.6291 -2.0468
  248MOL0     H34194  13.350  10.036   5.395 -0.5438  2.2577 -1.2561
  248MOL0     H34195  13.227   9.928   5.341  0.8822 -0.9820  2.0469
  248MOL0     H34196  13.353  10.162   5.168 -0.9334 -1.5971 -1.4360
  248MOL0     H34197  13.211  10.071   5.129  0.0027  1.0603  0.8039
  248MOL0     H34198  13.119  10.185   5.361 -3.7944  2.3261 -1.3385
  248MOL0     H34199  13.146  10.294   5.226 -0.5286 -0.4041  0.9752
  248MOL0     H34200  13.374  10.337   5.301  0.4289  0.2689  0.1345
  248MOL0     H34201  13.355  10.249   5.447  1.8750  0.3343 -0.9134
  248MOL0     H34202  13.305  10.456   5.513  1.0721  0.0832 -2.0458
  248MOL0     H34203  13.153  10.376   5.504 -0.3926  0.0382 -0.1817
  248MOL0     H34204  12.966   9.647   5.145  1.1565  0.4093 -2.3612
  248MOL0     H34205  12.848   9.441   5.139  0.7225 -1.1832  1.3105
  248MOL0     H34206  12.908   8.968   5.103 -0.7104  0.7711 -1.7553
  248MOL0     H34207  12.787   8.763   5.083  2.3537  1.0413  0.2419
  248MOL0     H34208  11.118   8.418   5.679 -1.3556  0.4779 -0.6635
  248MOL0     H34209  10.881   8.436   5.633  1.5694  0.5346  0.4309
  248MOL0     H34210  10.556   8.390   5.411  2.0655 -0.7590 -2.8839
  248MOL0     H34211  10.352   8.455   5.287 -3.4500 -1.2321 -3.2328
  248MOL0     H34212  10.038   8.456   5.116  0.9239  0.5428 -0.4911
  248MOL0     H34213  10.167   8.503   5.228 -0.0208 -0.5174  2.1588
  248MOL0     H34214  10.325   8.391   5.040  0.9054 -0.4177 -3.7552
  248MOL0     H34215  10.250   8.533   4.983 -0.3590 -0.9235 -0.9493
  248MOL0     H34216  10.222   8.251   4.887  0.2237  0.1474 -0.4238
  248MOL0     H34217  10.070   8.319   4.898  1.4761 -4.4383  0.4701
  248MOL0     H34218  10.192   8.540   4.777 -1.2550  0.0498 -1.4944
  248MOL0     H34219  10.161   8.396   4.675  0.1439 -0.6773  0.5550
  248MOL0     H34220  10.588   8.407   4.741  0.1766  0.1827 -1.4254
  248MOL0     H34221  10.203   8.066   5.285 -0.1669 -0.4312 -1.2932
  248MOL0     H34222  10.410   7.920   5.512 -1.9899  2.2343  0.0502
  248MOL0     H34223  10.337   7.883   5.359 -1.9071  0.9644  2.5048
  248MOL0     H34224  10.503   7.882   5.364 -0.7934 -3.1639  1.6178
  249MOL0     O34225   9.600   5.982   7.906  0.7336 -0.3319 -0.0505
  249MOL0     C34226   9.575   5.911   7.807 -0.8786 -0.7489 -0.7368
  249MOL0     O34227   9.642   5.803   7.770  0.7377  0.3039 -0.4307
  249MOL0     C34228   9.747   5.746   7.847  0.1662 -0.0801 -0.5792
  249MOL0     C34229   9.774   5.613   7.830 -0.7464 -0.0142  0.0556
  249MOL0     C34230   9.866   5.540   7.912  0.7256  0.3001  0.6662
  249MOL0     C34231   9.941   5.607   8.010 -0.1421  0.6748 -0.2614
  249MOL0     O34232  10.039   5.559   8.093 -0.6590 -0.6370  0.4397
  249MOL0     C34233  10.083   5.431   8.055  0.3113  1.1593  0.1889
  249MOL0     C34234  10.165   5.377   8.172 -0.4212  0.0148  0.0520
  249MOL0     C34235  10.300   5.319   8.133  0.1998 -0.5226  0.7459
  249MOL0     C34236  10.362   5.257   8.261  0.8944 -0.8754  0.0375
  249MOL0     C34237  10.491   5.197   8.224 -0.0751  0.4343 -0.4427
  249MOL0     C34238  10.534   5.087   8.328 -0.7604 -0.1977  0.2255
  249MOL0     C34239  10.539   5.135   8.465 -0.1485  0.4657 -0.4047
  249MOL0     C34240  10.546   5.027   8.575  0.0249  0.5041  0.1255
  249MOL0     N34241  10.491   5.085   8.695 -0.1995  0.7649 -0.8494
  249MOL0     C34242  10.548   5.176   8.784  0.2515  0.5548  0.1691
  249MOL0     C34243  10.465   5.191   8.879  0.3351 -0.4659  0.1210
  249MOL0     C34244  10.469   5.295   8.995 -0.3983  0.1583 -0.2482
  249MOL0     C34245  10.501   5.232   9.128  0.2662 -0.1901  0.1671
  249MOL0     C34246  10.407   5.119   9.179  0.0273 -1.0466  0.3480
  249MOL0     C34247  10.259   5.164   9.172  0.4759 -0.5165  0.0411
  249MOL0     O34248  10.178   5.091   9.270  0.2908  0.9626  0.0614
  249MOL0     C34249  10.133   4.967   9.226 -0.3717  0.6343 -0.4441
  249MOL0     C34250  10.159   4.925   9.098  1.2489  0.3874  0.0362
  249MOL0     C34251  10.141   4.795   9.054 -0.4210  1.1230  0.0780
  249MOL0     C34252  10.152   4.778   8.909 -0.1626  0.8179 -0.9536
  249MOL0     C34253  10.105   4.695   9.158 -0.2832 -0.0056  1.0648
  249MOL0     C34254  10.098   4.547   9.128  0.1323  0.0653 -0.5554
  249MOL0     O34255  10.146   4.495   9.011  0.2442  0.2385 -0.1713
  249MOL0     C34256  10.158   4.357   8.998 -0.1643 -0.5218 -0.6865
  249MOL0     C34257  10.087   4.286   8.903 -0.5832 -0.0916  0.6278
  249MOL0     C34258  10.102   4.148   8.902 -0.6279 -0.1402  0.2287
  249MOL0     C34259  10.200   4.088   8.979 -0.5431 -0.1149  0.7027
  249MOL0     O34260  10.215   3.951   8.964  0.2017  0.3249  0.7301
  249MOL0     C34261  10.194   3.861   9.071  0.1968  0.0444 -0.3386
  249MOL0     C34262  10.198   3.713   9.034  0.8368  0.0684 -0.0116
  249MOL0     C34263  10.235   3.626   9.152  0.3472 -0.3881 -0.3927
  249MOL0     C34264  10.207   3.476   9.116 -0.9508  0.0310  0.3139
  249MOL0     C34265  10.214   3.374   9.226  0.9177 -0.1574 -0.8254
  249MOL0     C34266  10.106   3.393   9.330  0.6173 -0.2307  0.0073
  249MOL0     C34267  10.152   3.296   9.455  0.1864  0.2170 -0.6547
  249MOL0     C34268  10.047   3.286   9.562  1.5066 -0.5901 -0.5821
  249MOL0    Cl34269   9.884   3.233   9.503 -0.0711 -0.1533  0.0025
  249MOL0     C34270  10.276   4.155   9.072 -0.3152  0.0038  0.4805
  249MOL0     C34271  10.259   4.294   9.071  0.0072  0.8527 -0.6633
  249MOL0     O34272  10.059   4.474   9.226  0.0364 -0.2173  0.1089
  249MOL0     C34273  10.075   4.739   9.285  1.2407 -0.1755  0.1403
  249MOL0     C34274  10.090   4.873   9.321 -0.2989 -0.3025 -1.0697
  249MOL0     N34275  10.345   5.133   8.844  0.3326  0.7665 -0.2639
  249MOL0     N34276  10.363   5.065   8.735  0.3631  0.6262  0.1194
  249MOL0     C34277   9.928   5.742   8.014  1.1536 -0.5407 -0.2832
  249MOL0     C34278   9.834   5.818   7.944  0.0942 -0.4117  0.2976
  249MOL0     C34279   9.452   5.951   7.722  0.2813  0.4428 -0.7513
  249MOL0     C34280   9.400   5.843   7.635 -0.6944 -0.2642  0.2259
  249MOL0     C34281   9.283   5.861   7.563 -0.3930  0.6034  0.3379
  249MOL0     C34282   9.208   5.976   7.574 -0.2767  0.2439  0.3835
  249MOL0     O34283   9.094   5.973   7.499 -0.3862 -0.3609  0.7070
  249MOL0     C34284   8.980   6.043   7.547 -0.3282 -0.1192  0.5578
  249MOL0     C34285   8.861   6.009   7.455  1.1081  0.4474  0.0033
  249MOL0     C34286   8.787   5.882   7.483  0.4224  0.7142 -0.4409
  249MOL0     C34287   8.643   5.865   7.417 -0.6860  0.0479 -0.6602
  249MOL0     C34288   8.645   5.839   7.271  0.2374 -0.4499 -0.0944
  249MOL0     C34289   8.643   5.821   7.148  0.1189 -0.2355 -0.3145
  249MOL0     C34290   9.253   6.080   7.657  0.7163 -0.1373 -0.4791
  249MOL0     C34291   9.377   6.069   7.724 -0.2517 -0.9353 -1.2788
  249MOL0     C34292   9.434   6.197   7.796  0.1447  0.4534  0.0967
  249MOL0     H34293   9.724   5.546   7.761  0.0367 -2.5920  1.8366
  249MOL0     H34294   9.878   5.435   7.885  1.1412  0.7853 -1.2033
  249MOL0     H34295  10.150   5.433   7.969  1.6503 -0.3015  1.1390
  249MOL0     H34296  10.000   5.360   8.044  1.8212 -0.3410 -2.7160
  249MOL0     H34297  10.192   5.458   8.241 -0.0083 -0.0813  0.0064
  249MOL0     H34298  10.105   5.304   8.225  2.7952 -2.7958  0.1779
  249MOL0     H34299  10.288   5.245   8.054  0.7462 -0.1627  0.3187
  249MOL0     H34300  10.358   5.407   8.104  0.1573 -1.2766 -1.9020
  249MOL0     H34301  10.381   5.331   8.339 -2.3838  1.0468 -0.8030
  249MOL0     H34302  10.281   5.192   8.296  0.1334  0.3414  0.6042
  249MOL0     H34303  10.579   5.261   8.218  1.9380 -1.6219  3.1451
  249MOL0     H34304  10.475   5.142   8.131 -3.6510  0.6717 -0.1278
  249MOL0     H34305  10.456   5.011   8.317  1.0926 -2.1800 -0.0105
  249MOL0     H34306  10.632   5.051   8.296 -0.2870  0.5997  0.7355
  249MOL0     H34307  10.446   5.189   8.486 -0.1125 -0.1807  1.6672
  249MOL0     H34308  10.624   5.204   8.468  2.0415 -2.1019  2.3634
  249MOL0     H34309  10.491   4.937   8.544  0.2476  0.4977 -0.2598
  249MOL0     H34310  10.652   5.004   8.590  0.0319 -0.3731 -1.0745
  249MOL0     H34311  10.642   5.229   8.772 -0.9587  2.7042 -0.6074
  249MOL0     H34312  10.371   5.344   8.994  0.2232  1.4546 -0.0643
  249MOL0     H34313  10.547   5.369   8.974  0.1945 -1.2710 -3.6026
  249MOL0     H34314  10.598   5.181   9.120 -1.6397 -4.1203 -0.7860
  249MOL0     H34315  10.495   5.300   9.213  1.6976  1.0824 -0.6985
  249MOL0     H34316  10.425   5.024   9.129 -0.0511 -1.2436  0.6851
  249MOL0     H34317  10.424   5.104   9.286 -1.1364  0.5665  0.7893
  249MOL0     H34318  10.247   5.270   9.199  1.8520 -0.4775  0.5516
  249MOL0     H34319  10.226   5.165   9.068  1.2402 -2.8377 -0.2715
  249MOL0     H34320  10.192   4.994   9.022 -0.9445  0.1835 -1.1868
  249MOL0     H34321  10.130   4.867   8.849 -0.7483  0.4162 -1.3496
  249MOL0     H34322  10.095   4.689   8.880  3.8934 -1.8623 -1.3998
  249MOL0     H34323  10.252   4.737   8.895  0.1933  0.1364  2.6470
  249MOL0     H34324  10.018   4.324   8.829  0.9636 -2.1483 -2.0273
  249MOL0     H34325  10.035   4.090   8.840  0.0765 -0.8757  0.1362
  249MOL0     H34326  10.254   3.886   9.159  1.4764 -1.8171 -0.6383
  249MOL0     H34327  10.091   3.874   9.106  0.1398  0.1605 -0.5472
  249MOL0     H34328  10.099   3.707   8.989 -0.7418  0.6734  3.1396
  249MOL0     H34329  10.272   3.705   8.953  0.3600  1.9165 -0.6965
  249MOL0     H34330  10.173   3.650   9.239 -1.8488 -1.3380 -1.6152
  249MOL0     H34331  10.340   3.633   9.181  0.2141 -2.6228  0.7902
  249MOL0     H34332  10.271   3.451   9.031 -0.9955  0.6208  0.1027
  249MOL0     H34333  10.111   3.479   9.065 -0.3355 -0.1819 -0.8911
  249MOL0     H34334  10.197   3.270   9.195 -1.9722 -0.8336  2.4091
  249MOL0     H34335  10.311   3.393   9.273 -0.0720  3.0558  0.1218
  249MOL0     H34336  10.005   3.372   9.295 -0.9180  1.4703  2.9734
  249MOL0     H34337  10.107   3.495   9.370 -3.6559 -0.0772  0.1783
  249MOL0     H34338  10.238   3.340   9.506  0.1469 -0.1143 -0.2997
  249MOL0     H34339  10.184   3.197   9.422 -2.1728  0.2276 -3.3182
  249MOL0     H34340  10.038   3.383   9.611 -0.8749  0.1198 -2.2582
  249MOL0     H34341  10.068   3.207   9.635  1.0897 -1.3280 -1.2423
  249MOL0     H34342  10.346   4.104   9.137  0.2401  0.6946  0.4254
  249MOL0     H34343  10.316   4.342   9.150  3.1873  0.1410 -2.3538
  249MOL0     H34344  10.043   4.671   9.364 -1.6751 -0.0529 -0.8028
  249MOL0     H34345  10.076   4.897   9.426 -3.4639 -2.1451 -0.9429
  249MOL0     H34346  10.000   5.797   8.073 -0.4414 -0.5021  1.7199
  249MOL0     H34347   9.838   5.927   7.939  1.6869 -0.4955 -2.6286
  249MOL0     H34348   9.446   5.745   7.637 -1.4437 -0.6209  2.7228
  249MOL0     H34349   9.250   5.776   7.504  0.1845 -1.9437  3.4336
  249MOL0     H34350   8.950   6.013   7.648  0.2853  0.3589  0.8848
  249MOL0     H34351   8.988   6.152   7.544 -3.2520  0.1679 -0.9756
  249MOL0     H34352   8.892   6.012   7.350  1.1184 -1.8176 -0.1116
  249MOL0     H34353   8.798   6.094   7.480  4.3258  2.3917  2.2740
  249MOL0     H34354   8.852   5.796   7.464 -0.1332  0.4229 -1.0503
  249MOL0     H34355   8.768   5.889   7.591  1.0945 -0.1017 -0.2596
  249MOL0     H34356   8.581   5.951   7.441 -1.9756 -0.6212 -1.4934
  249MOL0     H34357   8.593   5.780   7.465  0.4511 -0.0658  0.3745
  249MOL0     H34358   8.640   5.797   7.044 -1.4172  2.1056 -0.8905
  249MOL0     H34359   9.180   6.156   7.680 -0.4206 -1.7582  1.6390
  249MOL0     H34360   9.437   6.190   7.905  3.5734  2.4965  0.3018
  249MOL0     H34361   9.541   6.201   7.774  0.1755 -1.4169 -0.2670
  249MOL0     H34362   9.384   6.287   7.761  1.3422  2.3616  2.9101
  250MOL0     O34363   9.891   2.911   2.989 -0.3602  0.5419  0.1296
  250MOL0     C34364   9.802   2.985   3.018  0.6826 -1.2012 -0.9232
  250MOL0     O34365   9.772   3.107   2.943 -0.3026  0.2559 -0.1051
  250MOL0     C34366   9.872   3.174   2.888 -0.1775  0.9306  0.6420
  250MOL0     C34367   9.997   3.207   2.946 -0.4093  0.6498 -0.2002
  250MOL0     C34368  10.091   3.277   2.873 -0.1253  0.3987  0.1477
  250MOL0     C34369  10.068   3.307   2.739 -0.4624 -0.0103  0.1000
  250MOL0     O34370  10.173   3.364   2.677  0.0578  0.8456  0.1261
  250MOL0     C34371  10.144   3.423   2.549  0.4994 -0.8272 -0.3797
  250MOL0     C34372  10.270   3.468   2.469 -0.0223  0.3169  0.0109
  250MOL0     C34373  10.236   3.549   2.353 -0.3449 -0.4233 -0.6619
  250MOL0     C34374  10.347   3.555   2.251  0.6556 -0.1795  0.0260
  250MOL0     C34375  10.307   3.624   2.120  0.8739  1.3264 -0.1451
  250MOL0     C34376  10.422   3.662   2.038 -1.1423 -0.2484 -0.0102
  250MOL0     C34377  10.399   3.698   1.892  0.4210 -0.3294  0.5435
  250MOL0     C34378  10.298   3.815   1.891 -0.4010  0.0496 -0.4813
  250MOL0     N34379  10.330   3.943   1.964  0.3828 -1.5647  0.3721
  250MOL0     C34380  10.422   4.043   1.918  0.5931  0.0108 -0.7269
  250MOL0     C34381  10.411   4.145   2.004  0.5829  0.0421  0.1745
  250MOL0     C34382  10.474   4.280   2.003 -0.1538 -0.4110 -0.5527
  250MOL0     C34383  10.431   4.365   1.884  0.3424 -1.0832 -0.8571
  250MOL0     C34384  10.510   4.503   1.882 -0.0934  0.6741  0.4429
  250MOL0     C34385  10.466   4.587   1.756 -0.1220  0.3178 -0.5717
  250MOL0     O34386  10.330   4.618   1.764 -0.2484 -0.2751  0.5771
  250MOL0     C34387  10.276   4.721   1.683 -0.0499  0.3593  0.5278
  250MOL0     C34388  10.142   4.746   1.692 -0.6957  0.1421  0.2322
  250MOL0     C34389  10.083   4.836   1.598 -0.2241  0.5501 -0.3541
  250MOL0     C34390   9.939   4.859   1.633 -0.4730  0.1160  1.1868
  250MOL0     C34391  10.159   4.910   1.505 -0.4184  0.3866  0.4024
  250MOL0     C34392  10.096   5.020   1.424  0.6649 -0.0670 -0.5588
  250MOL0     O34393   9.960   5.029   1.410  0.4070  0.3024 -0.4294
  250MOL0     C34394   9.901   5.150   1.382 -0.6595 -0.0215 -0.8293
  250MOL0     C34395   9.927   5.228   1.272 -0.7067 -0.1908 -0.6719
  250MOL0     C34396   9.877   5.360   1.258 -0.0570 -0.4506  0.2117
  250MOL0     C34397   9.780   5.405   1.353 -0.6318 -0.4061 -0.1211
  250MOL0     O34398   9.719   5.535   1.334  1.0486  0.9136 -0.5570
  250MOL0     C34399   9.651   5.592   1.449  0.7326  0.1195 -0.3482
  250MOL0     C34400   9.626   5.737   1.413  0.5538 -0.0268 -0.9064
  250MOL0     C34401   9.526   5.806   1.507 -1.1185 -0.6013 -0.5766
  250MOL0     C34402   9.601   5.879   1.607  0.2468 -0.2039  1.4347
  250MOL0     C34403   9.520   5.968   1.697 -0.2450  0.1355 -0.3387
  250MOL0     C34404   9.610   6.016   1.818  0.2489  0.9512 -0.5167
  250MOL0     C34405   9.510   6.093   1.909  0.4077  0.1746  0.8042
  250MOL0     C34406   9.537   6.107   2.049  0.5501  0.2014  0.0746
  250MOL0    Cl34407   9.522   5.945   2.129  0.0135  0.4626 -0.6085
  250MOL0     C34408   9.759   5.329   1.474 -1.4125  0.5941  0.6187
  250MOL0     C34409   9.819   5.201   1.484 -0.3337 -1.3193  0.4069
  250MOL0     O34410  10.172   5.104   1.378 -0.0507 -1.1134 -0.0467
  250MOL0     C34411  10.295   4.907   1.519 -0.6708 -0.5990  0.2405
  250MOL0     C34412  10.356   4.811   1.602  0.0504  0.1556  0.1689
  250MOL0     N34413  10.322   4.108   2.103 -0.1685  0.0405 -1.2040
  250MOL0     N34414  10.280   3.990   2.082  0.6245  0.0517 -0.9158
  250MOL0     C34415   9.950   3.269   2.675  0.6491  0.1339 -0.3186
  250MOL0     C34416   9.855   3.195   2.751  0.8101 -0.6266 -0.4671
  250MOL0     C34417   9.705   2.951   3.135 -1.0079  1.0318  0.4164
  250MOL0     C34418   9.597   3.036   3.173 -1.0996  0.5113  0.5050
  250MOL0     C34419   9.493   3.001   3.263 -0.4912 -0.1976  0.0940
  250MOL0     C34420   9.490   2.867   3.309 -0.0242  0.8424 -0.7421
  250MOL0     O34421   9.394   2.813   3.392  0.2420 -0.4505 -1.7511
  250MOL0     C34422   9.300   2.905   3.460 -0.5000  0.7096 -0.3740
  250MOL0     C34423   9.295   2.913   3.614 -0.6003 -0.0338 -0.1599
  250MOL0     C34424   9.224   2.781   3.671  0.6074 -1.3958  0.0185
  250MOL0     C34425   9.181   2.806   3.817 -0.3188  0.4633 -0.0901
  250MOL0     C34426   9.294   2.826   3.910  0.1974  0.0321 -0.4296
  250MOL0     C34427   9.379   2.864   3.987  0.3315  0.0233 -0.3426
  250MOL0     C34428   9.601   2.786   3.276 -0.9516  0.1712 -0.0890
  250MOL0     C34429   9.711   2.820   3.200  0.2885 -0.0145  0.5971
  250MOL0     C34430   9.814   2.713   3.183  0.1703  0.6051 -0.7154
  250MOL0     H34431  10.024   3.167   3.044 -0.5260 -1.2303 -0.8828
  250MOL0     H34432  10.187   3.308   2.912 -0.1285 -2.2531  2.5433
  250MOL0     H34433  10.072   3.506   2.553 -0.4012 -1.6277  1.9833
  250MOL0     H34434  10.094   3.349   2.485  0.2226 -1.2521  0.3156
  250MOL0     H34435  10.331   3.536   2.529  0.1592 -1.4261  1.9128
  250MOL0     H34436  10.335   3.384   2.444 -0.2637  0.8359 -2.6047
  250MOL0     H34437  10.158   3.505   2.291 -1.5367  1.7323 -0.7750
  250MOL0     H34438  10.217   3.652   2.384  0.4043  0.1838 -2.1053
  250MOL0     H34439  10.426   3.611   2.301 -0.1818 -0.7152  2.0244
  250MOL0     H34440  10.376   3.450   2.238 -1.8139 -0.8560 -0.5455
  250MOL0     H34441  10.252   3.714   2.146 -0.1718 -0.0976  3.0757
  250MOL0     H34442  10.228   3.564   2.073  0.6001  1.6177 -0.0559
  250MOL0     H34443  10.480   3.743   2.083 -0.9010 -1.7530  2.6015
  250MOL0     H34444  10.485   3.572   2.040  0.9996  1.1754  2.0994
  250MOL0     H34445  10.356   3.610   1.845 -2.4581  1.2517 -0.0201
  250MOL0     H34446  10.493   3.728   1.845 -0.6558 -2.2046 -3.1982
  250MOL0     H34447  10.274   3.824   1.784  1.6816 -1.2400 -1.1289
  250MOL0     H34448  10.197   3.786   1.920 -0.7966  0.8077 -1.0574
  250MOL0     H34449  10.494   4.034   1.838  4.1702 -0.3294  2.2620
  250MOL0     H34450  10.583   4.269   2.001 -0.0728 -0.5415  1.8403
  250MOL0     H34451  10.448   4.330   2.097  1.4033 -1.5471  0.5292
  250MOL0     H34452  10.440   4.306   1.793  1.4006 -1.1519 -0.7187
  250MOL0     H34453  10.323   4.383   1.886  0.3612 -0.9795 -0.5953
  250MOL0     H34454  10.472   4.546   1.975 -1.7549 -1.9225  1.0878
  250MOL0     H34455  10.618   4.481   1.885  0.0960  1.3883 -0.6539
  250MOL0     H34456  10.511   4.687   1.760  1.6833 -0.5024  1.5809
  250MOL0     H34457  10.501   4.536   1.666 -0.2274 -0.3151 -0.2625
  250MOL0     H34458  10.087   4.691   1.768 -0.7585  0.8374  0.7029
  250MOL0     H34459   9.934   4.955   1.685 -0.0249  1.0003 -0.3357
  250MOL0     H34460   9.901   4.783   1.701 -0.1876  0.2335  1.4794
  250MOL0     H34461   9.872   4.850   1.547 -0.0361  0.0041  0.8554
  250MOL0     H34462  10.001   5.195   1.200 -1.3671  1.6685 -2.3254
  250MOL0     H34463   9.903   5.423   1.173 -2.8825 -0.8202 -1.0640
  250MOL0     H34464   9.559   5.534   1.461 -0.9906  2.4481 -1.4676
  250MOL0     H34465   9.723   5.585   1.531  1.3408 -1.6602 -0.9742
  250MOL0     H34466   9.721   5.791   1.413  1.1446 -0.9890  0.8269
  250MOL0     H34467   9.585   5.739   1.311 -1.0626  0.6538 -0.2735
  250MOL0     H34468   9.455   5.739   1.557 -1.5055 -1.3263 -2.0395
  250MOL0     H34469   9.460   5.876   1.455 -1.3747 -0.1241  0.3628
  250MOL0     H34470   9.672   5.944   1.555 -2.7472  0.3954 -2.2899
  250MOL0     H34471   9.656   5.801   1.662  1.1725 -1.1088 -0.6416
  250MOL0     H34472   9.485   6.055   1.642 -1.2265 -0.0327  0.0074
  250MOL0     H34473   9.431   5.915   1.733 -0.0162 -0.1496 -0.1776
  250MOL0     H34474   9.684   6.088   1.782  2.3930 -1.6686 -1.6942
  250MOL0     H34475   9.662   5.932   1.866  0.3561 -0.3154 -2.6786
  250MOL0     H34476   9.413   6.045   1.902 -0.4106  1.8380 -0.0154
  250MOL0     H34477   9.521   6.194   1.868  0.1311  0.7398  2.0726
  250MOL0     H34478   9.463   6.173   2.095 -1.1339  0.6007 -2.9183
  250MOL0     H34479   9.635   6.154   2.054  0.9157 -0.3216 -1.5111
  250MOL0     H34480   9.696   5.363   1.555  0.4982 -0.1533  2.5077
  250MOL0     H34481   9.797   5.148   1.577  3.7435 -0.8915  1.8091
  250MOL0     H34482  10.351   4.977   1.457 -1.2706  0.2008  0.5922
  250MOL0     H34483  10.462   4.808   1.583 -0.3547 -0.0451 -2.4931
  250MOL0     H34484   9.933   3.279   2.569 -4.6706 -2.2059  0.0176
  250MOL0     H34485   9.769   3.152   2.701 -0.1521  0.7284 -0.0592
  250MOL0     H34486   9.597   3.135   3.128  0.6051 -0.2183 -1.2639
  250MOL0     H34487   9.440   3.092   3.292  1.7254  0.3894  2.7771
  250MOL0     H34488   9.321   3.008   3.431  0.3558  0.6419 -0.0160
  250MOL0     H34489   9.201   2.872   3.429  0.0287 -0.6786 -0.6797
  250MOL0     H34490   9.249   3.006   3.649 -1.0991 -0.2973 -0.1145
  250MOL0     H34491   9.399   2.926   3.646 -0.9035  3.4124 -0.1416
  250MOL0     H34492   9.138   2.762   3.605 -0.9185 -0.3029  1.5897
  250MOL0     H34493   9.297   2.700   3.674  0.2465 -1.7092  0.5571
  250MOL0     H34494   9.117   2.724   3.852 -1.1370 -0.4202 -3.2939
  250MOL0     H34495   9.116   2.894   3.820  2.2998  2.4960  1.3292
  250MOL0     H34496   9.445   2.909   4.059 -1.6917  1.4335  0.7330
  250MOL0     H34497   9.589   2.679   3.296 -2.2948  0.2636 -0.2699
  250MOL0     H34498   9.908   2.754   3.223  1.6709 -2.4760 -0.7046
  250MOL0     H34499   9.804   2.614   3.230  0.8407  0.7710 -0.1984
  250MOL0     H34500   9.829   2.683   3.079 -1.4454  0.0698 -0.8140
  251MOL0     O34501   0.760  11.262   1.238  0.3939  0.0053  0.1334
  251MOL0     C34502   0.703  11.181   1.308  0.2780 -0.3266  0.0997
  251MOL0     O34503   0.722  11.040   1.296 -0.3915 -0.4837  0.1076
  251MOL0     C34504   0.814  10.998   1.204 -0.7269  0.3938 -0.3597
  251MOL0     C34505   0.919  10.925   1.254 -0.4729 -1.1457 -0.3609
  251MOL0     C34506   1.019  10.885   1.164  0.0875  0.4071 -0.3004
  251MOL0     C34507   1.015  10.901   1.025  1.0941 -0.2085 -0.2414
  251MOL0     O34508   1.098  10.844   0.942 -0.6130 -0.3897 -0.6183
  251MOL0     C34509   1.071  10.699   0.919 -0.3669  0.5540  0.2980
  251MOL0     C34510   1.084  10.680   0.769 -0.5001  0.4889 -1.0216
  251MOL0     C34511   1.034  10.548   0.720  0.2879  0.0600 -0.1134
  251MOL0     C34512   1.055  10.507   0.576  0.2051  0.0602 -0.9706
  251MOL0     C34513   1.016  10.357   0.551 -0.5793 -0.2076 -0.0587
  251MOL0     C34514   1.124  10.252   0.597  1.0588  0.8302  0.3331
  251MOL0     C34515   1.237  10.246   0.496  0.6440 -0.0286  0.0569
  251MOL0     C34516   1.340  10.139   0.528 -0.2778  0.1367  1.2743
  251MOL0     N34517   1.265  10.008   0.527  0.5526 -0.1530 -0.4576
  251MOL0     C34518   1.271   9.931   0.636 -0.6673  0.6292 -0.0442
  251MOL0     C34519   1.205   9.817   0.608 -0.9441 -0.4200  0.5824
  251MOL0     C34520   1.181   9.687   0.689 -0.7662  0.6284  0.1396
  251MOL0     C34521   1.213   9.713   0.845 -0.5453  0.2219  0.4290
  251MOL0     C34522   1.186   9.598   0.948 -0.4014 -0.6821 -0.4223
  251MOL0     C34523   1.268   9.472   0.934  0.9466 -0.0223  0.0299
  251MOL0     O34524   1.222   9.404   1.053  0.0238 -0.2359 -0.2106
  251MOL0     C34525   1.273   9.288   1.102 -0.4367 -0.3270  0.4702
  251MOL0     C34526   1.263   9.248   1.234 -0.3244 -0.1265 -0.4561
  251MOL0     C34527   1.319   9.121   1.266 -0.3647 -0.0981  0.2853
  251MOL0     C34528   1.308   9.078   1.403  0.6038  0.0204 -0.2263
  251MOL0     C34529   1.388   9.043   1.169 -0.0522 -0.5293  0.5991
  251MOL0     C34530   1.456   8.911   1.195  0.3063  0.1834 -0.3131
  251MOL0     O34531   1.438   8.819   1.094  0.2847  0.5102 -0.3966
  251MOL0     C34532   1.480   8.692   1.109  0.6823 -0.3200 -0.0952
  251MOL0     C34533   1.437   8.605   1.207  0.8404  0.9365  0.6586
  251MOL0     C34534   1.469   8.467   1.211  0.7761 -0.6165 -0.7225
  251MOL0     C34535   1.553   8.415   1.114  0.0153  0.6110  0.6976
  251MOL0     O34536   1.594   8.287   1.138 -0.9202 -0.0316  0.0599
  251MOL0     C34537   1.722   8.252   1.073 -0.7885 -0.3136  0.1266
  251MOL0     C34538   1.816   8.179   1.165 -0.5645  0.5762 -1.2857
  251MOL0     C34539   1.766   8.040   1.198  1.0058 -0.0796 -0.1585
  251MOL0     C34540   1.762   7.950   1.077  0.3834  0.5968 -0.1372
  251MOL0     C34541   1.732   7.803   1.121 -0.2955 -0.4996 -0.9938
  251MOL0     C34542   1.704   7.715   0.995  0.1179 -0.6009 -0.2451
  251MOL0     C34543   1.626   7.582   1.019 -0.2681 -0.1415 -0.0857
  251MOL0     C34544   1.613   7.499   0.898 -0.8164  0.3308 -0.1113
  251MOL0    Cl34545   1.585   7.327   0.946  0.2052  0.2521 -0.0110
  251MOL0     C34546   1.587   8.502   1.007 -0.8946 -0.0532  0.4843
  251MOL0     C34547   1.557   8.637   1.004 -0.2315 -0.8498  0.4593
  251MOL0     O34548   1.519   8.882   1.298 -0.0787 -0.2113 -0.2485
  251MOL0     C34549   1.413   9.097   1.047  0.0585 -0.1748  0.0795
  251MOL0     C34550   1.357   9.222   1.018 -0.3423  0.1510  0.5037
  251MOL0     N34551   1.158   9.829   0.481  0.5123 -0.3529  0.0121
  251MOL0     N34552   1.201   9.947   0.429 -0.3127 -0.0758  0.3707
  251MOL0     C34553   0.916  10.985   0.979  0.4293  0.2628 -0.9570
  251MOL0     C34554   0.809  11.024   1.068 -0.1553 -0.9103 -0.1838
  251MOL0     C34555   0.602  11.230   1.403 -0.3537  0.3964  0.6466
  251MOL0     C34556   0.523  11.140   1.468  0.2789  0.4399  0.0700
  251MOL0     C34557   0.423  11.184   1.560  0.1286 -0.6168  0.5632
  251MOL0     C34558   0.394  11.317   1.575 -0.6507 -0.3121 -0.2135
  251MOL0     O34559   0.303  11.353   1.661  0.6616 -0.4060 -0.7178
  251MOL0     C34560   0.340  11.455   1.758 -0.2587 -0.0051  0.5819
  251MOL0     C34561   0.280  11.442   1.896  0.3592  0.6992 -0.2380
  251MOL0     C34562   0.335  11.551   1.984  0.4364 -0.2062 -0.4446
  251MOL0     C34563   0.300  11.519   2.130 -0.5026 -0.4501 -0.1370
  251MOL0     C34564   0.355  11.627   2.212 -0.5663  0.4628  0.4068
  251MOL0     C34565   0.364  11.727   2.275  0.1515 -0.1883  0.8310
  251MOL0     C34566   0.471  11.412   1.498 -0.3080 -0.1182  0.2513
  251MOL0     C34567   0.579  11.373   1.416 -0.9628  0.8954 -0.3586
  251MOL0     C34568   0.643  11.478   1.335  0.3684 -0.0751  0.4625
  251MOL0     H34569   0.937  10.921   1.361  0.5015  0.3504 -0.4366
  251MOL0     H34570   1.103  10.826   1.197 -0.4344  1.2730  2.8996
  251MOL0     H34571   0.978  10.662   0.965  1.3737 -2.0002  2.0500
  251MOL0     H34572   1.147  10.630   0.957  0.9602  0.2688 -2.6570
  251MOL0     H34573   1.040  10.765   0.715 -2.4103  0.6371  0.6611
  251MOL0     H34574   1.192  10.687   0.754 -0.3836 -0.3698 -0.6565
  251MOL0     H34575   1.087  10.475   0.782  0.9312  0.9879  0.4629
  251MOL0     H34576   0.934  10.531   0.760 -0.5987  2.0934 -1.3131
  251MOL0     H34577   0.997  10.578   0.515 -0.6457  1.5440  1.4217
  251MOL0     H34578   1.160  10.518   0.550  0.4088 -1.3043 -0.7939
  251MOL0     H34579   0.994  10.344   0.445 -0.0758 -0.0107 -0.1893
  251MOL0     H34580   0.918  10.340   0.595  0.3010  0.4633  2.3224
  251MOL0     H34581   1.168  10.265   0.697 -1.5128  3.0958  1.2841
  251MOL0     H34582   1.063  10.162   0.587  1.2421  0.5182  1.7418
  251MOL0     H34583   1.287  10.342   0.479  1.8920 -0.3265  1.7846
  251MOL0     H34584   1.190  10.223   0.400  3.9519  0.2214 -1.7805
  251MOL0     H34585   1.414  10.137   0.447 -0.5161  0.8030  1.0377
  251MOL0     H34586   1.393  10.158   0.622 -0.4046  1.7639  1.0466
  251MOL0     H34587   1.327   9.955   0.727  1.3972  0.7755 -1.2973
  251MOL0     H34588   1.246   9.609   0.646 -2.0099 -0.2552 -0.1759
  251MOL0     H34589   1.075   9.668   0.672  0.0101 -2.1895 -2.6397
  251MOL0     H34590   1.318   9.743   0.860 -0.2669 -0.8445  0.6707
  251MOL0     H34591   1.154   9.798   0.882 -1.2403  0.4777 -1.1979
  251MOL0     H34592   1.213   9.644   1.044 -1.5904  1.9299 -1.2285
  251MOL0     H34593   1.078   9.580   0.952 -0.6027  0.5790  1.5033
  251MOL0     H34594   1.242   9.407   0.851  0.9227 -3.0615  2.2512
  251MOL0     H34595   1.372   9.503   0.941 -0.1163  4.1085  0.0784
  251MOL0     H34596   1.207   9.316   1.298 -0.7339  1.9197 -2.8052
  251MOL0     H34597   1.403   9.104   1.450  0.2101  2.5321 -0.6975
  251MOL0     H34598   1.292   8.971   1.418 -0.5670  0.4650  2.1507
  251MOL0     H34599   1.235   9.138   1.458 -0.1618 -2.4394  1.6184
  251MOL0     H34600   1.361   8.645   1.274 -1.0114 -0.4477 -0.5272
  251MOL0     H34601   1.419   8.416   1.292 -2.3213  1.6140 -1.0516
  251MOL0     H34602   1.691   8.198   0.983 -2.6893  3.2822 -1.5845
  251MOL0     H34603   1.780   8.338   1.038 -0.3194 -0.6020  0.1933
  251MOL0     H34604   1.910   8.169   1.110 -0.7172 -0.2844 -1.4202
  251MOL0     H34605   1.829   8.236   1.257 -3.2534 -0.1003 -0.3730
  251MOL0     H34606   1.669   8.032   1.248  0.2175 -2.0055 -1.8322
  251MOL0     H34607   1.842   7.997   1.264  0.2137 -2.0775 -0.4515
  251MOL0     H34608   1.857   7.958   1.022  0.5969  1.6281  0.3469
  251MOL0     H34609   1.685   7.986   1.009  0.9854  1.0499 -0.6003
  251MOL0     H34610   1.822   7.762   1.167 -0.0744 -1.3066 -2.1171
  251MOL0     H34611   1.635   7.794   1.171 -0.4102 -1.1851 -1.3448
  251MOL0     H34612   1.796   7.704   0.937  0.2100  3.5367 -1.2234
  251MOL0     H34613   1.638   7.769   0.927  0.5606 -0.6851 -0.7439
  251MOL0     H34614   1.526   7.610   1.055 -1.4233 -1.8577 -1.7553
  251MOL0     H34615   1.688   7.533   1.094 -1.5081 -0.4159  0.8000
  251MOL0     H34616   1.699   7.496   0.831 -0.6964 -0.8995  0.0780
  251MOL0     H34617   1.529   7.537   0.838 -0.5313  1.6731  0.3170
  251MOL0     H34618   1.647   8.457   0.929 -0.5189  0.3529  0.5369
  251MOL0     H34619   1.584   8.690   0.913  1.2270 -2.0600  0.1385
  251MOL0     H34620   1.465   9.034   0.975  1.2290  2.8737 -1.9572
  251MOL0     H34621   1.374   9.264   0.919 -1.1393 -0.9440 -0.1216
  251MOL0     H34622   0.905  11.005   0.873  2.3173 -1.3449 -1.5050
  251MOL0     H34623   0.724  11.078   1.026  1.5772 -0.0155 -2.8035
  251MOL0     H34624   0.540  11.033   1.474  0.4306  0.3426 -1.6776
  251MOL0     H34625   0.366  11.118   1.625  0.1850 -2.4196 -1.1316
  251MOL0     H34626   0.445  11.447   1.786 -0.2011  1.8696  1.0047
  251MOL0     H34627   0.333  11.548   1.701  1.5425 -0.3286 -0.2372
  251MOL0     H34628   0.302  11.342   1.936 -0.1233  0.0149 -1.6123
  251MOL0     H34629   0.172  11.457   1.898  0.2728  0.4649 -1.7460
  251MOL0     H34630   0.443  11.556   1.966  0.0672 -0.1046 -3.0870
  251MOL0     H34631   0.285  11.643   1.952 -1.4603 -0.6075  1.1666
  251MOL0     H34632   0.324  11.418   2.162 -1.8433 -0.0109  2.4778
  251MOL0     H34633   0.191  11.524   2.134 -0.5384 -1.4056  0.1206
  251MOL0     H34634   0.372  11.813   2.338  0.5658  1.4605 -1.3776
  251MOL0     H34635   0.431  11.513   1.497  0.2319  0.0986 -0.6330
  251MOL0     H34636   0.604  11.464   1.233 -1.7587 -0.0084  1.2296
  251MOL0     H34637   0.600  11.574   1.364  1.2122  0.0889  1.2318
  251MOL0     H34638   0.750  11.482   1.356  0.6215  0.1911 -0.7664
  252MOL0     O34639   5.665   5.544   4.022 -0.0188  0.3353 -0.6262
  252MOL0     C34640   5.556   5.535   4.066  0.3015  0.3544 -0.9026
  252MOL0     O34641   5.535   5.501   4.200 -0.2090 -0.0166  0.7698
  252MOL0     C34642   5.616   5.408   4.260 -0.6914  0.1799 -0.5625
  252MOL0     C34643   5.555   5.287   4.307 -0.1363 -0.0132 -1.1717
  252MOL0     C34644   5.623   5.179   4.365 -0.3028 -0.3867 -0.4339
  252MOL0     C34645   5.763   5.204   4.400 -1.0811  0.7357 -0.3400
  252MOL0     O34646   5.828   5.111   4.484  0.6077  0.5632  0.5447
  252MOL0     C34647   5.968   5.102   4.474 -0.5889  0.0404  0.1199
  252MOL0     C34648   5.999   4.981   4.551  0.1595  0.3618 -0.3752
  252MOL0     C34649   5.997   5.003   4.701  0.0868 -0.7922  0.2275
  252MOL0     C34650   6.131   5.063   4.762  0.6549 -0.9741  0.1731
  252MOL0     C34651   6.111   5.091   4.909  0.7527 -0.0150  0.2823
  252MOL0     C34652   6.243   5.129   4.989  0.2356 -0.1247  0.1289
  252MOL0     C34653   6.311   5.263   4.958 -0.5943 -0.6358 -0.8397
  252MOL0     C34654   6.213   5.379   4.934  0.3995 -0.1456 -0.1276
  252MOL0     N34655   6.135   5.393   5.052  0.6309 -0.0350 -0.4406
  252MOL0     C34656   6.174   5.480   5.159  1.4152  0.4717 -0.3869
  252MOL0     C34657   6.052   5.488   5.233 -1.3992 -0.3810  0.7079
  252MOL0     C34658   6.028   5.593   5.344 -0.4165  0.1488 -0.1617
  252MOL0     C34659   6.097   5.735   5.328 -0.8208 -0.2010  0.7655
  252MOL0     C34660   6.056   5.830   5.439 -0.0375  0.8669 -0.0645
  252MOL0     C34661   6.139   5.812   5.562  0.3071  0.8456  0.0356
  252MOL0     O34662   6.114   5.694   5.640  0.1789  0.1211  0.5984
  252MOL0     C34663   6.159   5.672   5.772 -0.5436 -0.2987  0.6964
  252MOL0     C34664   6.274   5.739   5.825  0.3258 -0.1181  0.6702
  252MOL0     C34665   6.316   5.705   5.952 -0.4255  0.3798 -0.4406
  252MOL0     C34666   6.421   5.803   6.015  0.0773  0.6481 -0.1581
  252MOL0     C34667   6.257   5.611   6.032  1.0086  0.8159 -1.1855
  252MOL0     C34668   6.303   5.568   6.173  0.0596  0.1481 -0.2564
  252MOL0     O34669   6.208   5.525   6.261 -0.0573 -0.2057 -0.8752
  252MOL0     C34670   6.227   5.485   6.393 -0.3382 -0.1418 -0.1733
  252MOL0     C34671   6.327   5.534   6.480  0.2599 -0.0622 -0.4836
  252MOL0     C34672   6.333   5.490   6.610 -0.2377 -0.1767  0.5560
  252MOL0     C34673   6.225   5.415   6.666  0.5917 -1.3639 -0.2745
  252MOL0     O34674   6.225   5.389   6.792  0.6088 -0.4953  0.0275
  252MOL0     C34675   6.259   5.488   6.888 -0.6048 -0.0104  0.5711
  252MOL0     C34676   6.396   5.459   6.939  0.0417 -0.0105 -0.0442
  252MOL0     C34677   6.461   5.545   7.050  0.4981 -1.1320 -0.0801
  252MOL0     C34678   6.374   5.563   7.182 -0.2530 -0.6419 -0.1034
  252MOL0     C34679   6.466   5.613   7.295  0.1706  0.2527 -0.2153
  252MOL0     C34680   6.557   5.508   7.364  0.1342  0.5898  0.4055
  252MOL0     C34681   6.658   5.571   7.474 -0.3371 -0.0454 -0.0456
  252MOL0     C34682   6.590   5.617   7.596  0.3814 -1.0260  0.0657
  252MOL0    Cl34683   6.539   5.479   7.691  0.2254  0.1136 -0.0998
  252MOL0     C34684   6.127   5.369   6.577  0.0131  0.2899 -0.5019
  252MOL0     C34685   6.132   5.398   6.443 -0.7688  0.2742  1.2222
  252MOL0     O34686   6.414   5.581   6.209 -0.5316 -0.9439  0.2599
  252MOL0     C34687   6.132   5.557   5.985  0.5861 -0.6324 -0.2321
  252MOL0     C34688   6.088   5.576   5.854  0.0648 -0.9783  0.5428
  252MOL0     N34689   5.953   5.422   5.174 -0.0000  0.0568  0.0062
  252MOL0     N34690   6.003   5.361   5.076  0.3452 -0.0095 -0.1638
  252MOL0     C34691   5.825   5.330   4.360 -0.5087 -0.3721 -0.6834
  252MOL0     C34692   5.749   5.427   4.294 -0.5862 -0.5768 -0.3458
  252MOL0     C34693   5.434   5.549   3.981 -0.6776 -0.1266 -0.3437
  252MOL0     C34694   5.308   5.560   4.047  0.2433 -0.3648  0.9083
  252MOL0     C34695   5.191   5.594   3.962 -0.2980  0.1755 -0.2360
  252MOL0     C34696   5.206   5.595   3.829  1.3584  0.1714  0.1285
  252MOL0     O34697   5.099   5.610   3.736  0.2782 -0.2998 -0.2957
  252MOL0     C34698   5.011   5.716   3.775 -0.3997 -0.2273  0.1431
  252MOL0     C34699   4.946   5.758   3.644 -0.2850  0.8146  0.5121
  252MOL0     C34700   5.039   5.862   3.561  0.5764  1.0664  0.5061
  252MOL0     C34701   4.970   5.931   3.442  0.0160  0.3702 -0.6888
  252MOL0     C34702   4.954   5.834   3.327 -0.5025 -0.0014  0.2782
  252MOL0     C34703   4.954   5.747   3.239  0.4955 -0.0924  0.0473
  252MOL0     C34704   5.331   5.585   3.767 -0.1698 -0.4117  0.1035
  252MOL0     C34705   5.445   5.583   3.840 -0.1700 -0.3305  0.6342
  252MOL0     C34706   5.572   5.590   3.764  0.2040 -0.4769  0.4118
  252MOL0     H34707   5.446   5.281   4.302 -0.1926  0.1949 -0.4119
  252MOL0     H34708   5.570   5.091   4.400 -2.9087  1.5332  0.7042
  252MOL0     H34709   6.017   5.188   4.520  2.8535 -2.4016  1.4128
  252MOL0     H34710   6.004   5.090   4.372  1.6624  1.9390  0.6141
  252MOL0     H34711   5.921   4.912   4.517  0.4619 -0.0171 -0.3121
  252MOL0     H34712   6.092   4.935   4.517  0.2462 -0.0313  0.3716
  252MOL0     H34713   5.914   5.069   4.729  1.6157  1.2324  0.2730
  252MOL0     H34714   5.982   4.909   4.756  0.2759 -0.0313  1.6355
  252MOL0     H34715   6.212   4.993   4.745  0.2717 -0.7663 -3.2321
  252MOL0     H34716   6.165   5.157   4.716  3.2441 -1.9555 -0.0636
  252MOL0     H34717   6.069   5.000   4.953  2.0824 -0.6249  0.3312
  252MOL0     H34718   6.035   5.169   4.918  1.9497  0.9927  2.3541
  252MOL0     H34719   6.217   5.133   5.095 -3.2513  1.2911 -0.6323
  252MOL0     H34720   6.312   5.047   4.968 -1.1925 -1.4421  0.3773
  252MOL0     H34721   6.367   5.234   4.869  0.4825 -0.8171 -0.1350
  252MOL0     H34722   6.383   5.285   5.038 -3.7687  2.2076  1.5174
  252MOL0     H34723   6.259   5.475   4.909  0.7548 -0.3772 -0.3691
  252MOL0     H34724   6.143   5.358   4.853  0.3779  0.9305 -0.3971
  252MOL0     H34725   6.262   5.540   5.182  0.6057  1.1092  1.1912
  252MOL0     H34726   6.061   5.530   5.427 -1.4832 -2.0690 -1.3176
  252MOL0     H34727   5.919   5.591   5.352 -0.3294  0.3859  1.4347
  252MOL0     H34728   6.206   5.740   5.320 -0.5249 -0.4293  3.7029
  252MOL0     H34729   6.059   5.774   5.233  1.7286  2.3955  0.6638
  252MOL0     H34730   6.050   5.935   5.408 -3.0097  0.7349 -0.1599
  252MOL0     H34731   5.952   5.810   5.464 -0.1626  1.6100  0.0455
  252MOL0     H34732   6.242   5.826   5.528 -0.3311 -1.2154 -3.2561
  252MOL0     H34733   6.110   5.894   5.627 -0.5101  1.6157 -1.2507
  252MOL0     H34734   6.333   5.812   5.771  0.7152 -0.5652  0.4905
  252MOL0     H34735   6.518   5.752   6.008  0.5011  1.3350  0.4913
  252MOL0     H34736   6.400   5.836   6.117  0.7936  0.4009  0.0788
  252MOL0     H34737   6.440   5.891   5.953 -0.2249 -0.2365 -1.5572
  252MOL0     H34738   6.401   5.607   6.450 -0.7278  1.5450  0.7660
  252MOL0     H34739   6.419   5.520   6.669 -0.5778 -1.2629  1.6701
  252MOL0     H34740   6.254   5.592   6.855 -0.3206  1.0832  3.6457
  252MOL0     H34741   6.177   5.480   6.961 -3.6047  2.0901 -2.2708
  252MOL0     H34742   6.400   5.352   6.958  2.2760  0.4355  2.7462
  252MOL0     H34743   6.465   5.466   6.854 -0.2961 -0.0777 -0.3242
  252MOL0     H34744   6.475   5.649   7.018 -3.2978  0.0071  1.3202
  252MOL0     H34745   6.562   5.509   7.070  0.7481  0.8945  2.8633
  252MOL0     H34746   6.326   5.472   7.221  2.1207 -0.7379  2.9697
  252MOL0     H34747   6.290   5.631   7.164  1.4005  1.1864 -1.2547
  252MOL0     H34748   6.521   5.700   7.258 -2.9171  1.1674 -3.1066
  252MOL0     H34749   6.404   5.651   7.376 -0.1346 -1.4406  0.3797
  252MOL0     H34750   6.617   5.462   7.285 -2.9143 -0.3634 -1.5206
  252MOL0     H34751   6.491   5.431   7.404  0.2401  0.5045  0.4146
  252MOL0     H34752   6.711   5.652   7.425 -1.8156  1.0031  0.0265
  252MOL0     H34753   6.730   5.494   7.504  0.0350  0.4607  0.3624
  252MOL0     H34754   6.514   5.693   7.580  0.1203 -0.4254  3.4592
  252MOL0     H34755   6.656   5.668   7.667  2.3966  2.5161 -3.9653
  252MOL0     H34756   6.031   5.343   6.622  1.2754  0.1487  2.2846
  252MOL0     H34757   6.053   5.353   6.383  1.6362 -2.5285 -0.0922
  252MOL0     H34758   6.063   5.489   6.033 -0.3640  0.0401 -0.6020
  252MOL0     H34759   6.003   5.521   5.815 -3.1265  0.9857  4.0696
  252MOL0     H34760   5.927   5.357   4.387 -0.7789  0.8623 -0.8130
  252MOL0     H34761   5.808   5.515   4.270 -1.7721  1.1775  2.6201
  252MOL0     H34762   5.297   5.548   4.155 -0.4388 -1.5198  0.7180
  252MOL0     H34763   5.097   5.594   4.017  0.8596 -3.0145  2.1288
  252MOL0     H34764   4.928   5.676   3.834 -0.4477 -1.6171 -0.8135
  252MOL0     H34765   5.063   5.800   3.823 -0.6957  1.6742 -2.6699
  252MOL0     H34766   4.854   5.815   3.661  0.4941  1.8796  1.2673
  252MOL0     H34767   4.913   5.679   3.576 -3.0241  4.5782 -3.0556
  252MOL0     H34768   5.062   5.947   3.627  0.5057  0.4291  1.3605
  252MOL0     H34769   5.129   5.809   3.528  1.0699  1.2858  1.4579
  252MOL0     H34770   5.030   6.018   3.413  2.6366 -1.9415 -2.8294
  252MOL0     H34771   4.868   5.956   3.471 -0.8714 -1.0626 -2.3547
  252MOL0     H34772   4.949   5.673   3.161 -1.4289 -0.1153  0.1358
  252MOL0     H34773   5.337   5.600   3.659  0.6393 -1.8673 -0.0654
  252MOL0     H34774   5.622   5.683   3.792  4.0962 -2.2415  0.0399
  252MOL0     H34775   5.639   5.504   3.774 -0.4223 -0.8872  1.1625
  252MOL0     H34776   5.555   5.601   3.656 -0.7917  1.5581  0.7306
  253MOL0     O34777   4.356   2.121   5.394 -0.9933  0.2541  0.2553
  253MOL0     C34778   4.440   2.069   5.322 -0.2068  0.6157  0.7762
  253MOL0     O34779   4.534   2.130   5.242  0.1840  0.2558 -0.4098
  253MOL0     C34780   4.592   2.256   5.256  0.8341  0.5139  0.7436
  253MOL0     C34781   4.586   2.326   5.384 -0.3370  0.0430 -0.3463
  253MOL0     C34782   4.654   2.443   5.402 -0.6924  0.6405  0.6817
  253MOL0     C34783   4.723   2.502   5.295 -0.4909 -0.1563 -0.6075
  253MOL0     O34784   4.798   2.615   5.315  0.7158 -0.7300 -0.0717
  253MOL0     C34785   4.910   2.632   5.231  0.9128 -0.1240 -0.5094
  253MOL0     C34786   5.007   2.727   5.304  0.7546 -0.3632 -0.6273
  253MOL0     C34787   5.068   2.646   5.411 -0.1023  0.7811 -0.9216
  253MOL0     C34788   5.119   2.731   5.519  0.5641  0.7067 -0.7966
  253MOL0     C34789   5.022   2.729   5.638 -0.4153  0.2189 -0.1270
  253MOL0     C34790   4.890   2.800   5.607 -0.1382  0.2134 -0.2189
  253MOL0     C34791   4.803   2.772   5.725 -0.8014  0.1163  0.6324
  253MOL0     C34792   4.662   2.818   5.707  0.1297  0.3134  0.5298
  253MOL0     N34793   4.592   2.833   5.830 -0.1974 -0.0266 -0.4465
  253MOL0     C34794   4.631   2.913   5.943 -0.2462  0.7597  0.6694
  253MOL0     C34795   4.553   2.870   6.045  0.6139 -0.3308 -0.5732
  253MOL0     C34796   4.581   2.884   6.193 -0.9399  0.7982  0.5499
  253MOL0     C34797   4.467   2.959   6.266  0.5624 -0.4302 -0.0916
  253MOL0     C34798   4.520   3.012   6.401 -0.0298  0.7543 -0.5263
  253MOL0     C34799   4.411   3.088   6.490  0.4369 -0.3846  0.5756
  253MOL0     O34800   4.329   2.996   6.568 -0.0814 -0.2406  0.4795
  253MOL0     C34801   4.243   3.042   6.657 -0.3894  0.1387  0.3801
  253MOL0     C34802   4.163   2.947   6.722  0.4874  0.9926  0.4832
  253MOL0     C34803   4.061   2.971   6.813  0.7945 -1.0651 -0.0527
  253MOL0     C34804   3.991   2.862   6.891  0.0011 -0.2531 -0.0526
  253MOL0     C34805   4.037   3.111   6.841  1.3247  0.8497  0.9558
  253MOL0     C34806   3.934   3.158   6.934 -0.0994  0.2664  0.4157
  253MOL0     O34807   3.988   3.195   7.060 -0.2413 -0.0570  0.1510
  253MOL0     C34808   3.909   3.246   7.155  0.6047 -0.4940 -0.0970
  253MOL0     C34809   3.817   3.158   7.224  0.6233 -0.9367 -0.0504
  253MOL0     C34810   3.741   3.211   7.328  0.1926  0.0052  0.2482
  253MOL0     C34811   3.745   3.351   7.364 -0.2318  0.6579  0.3926
  253MOL0     O34812   3.675   3.425   7.453 -0.5326 -0.1117  0.0094
  253MOL0     C34813   3.576   3.365   7.541  0.0222 -0.3176 -0.7533
  253MOL0     C34814   3.488   3.483   7.599  0.5086 -0.2676  0.1637
  253MOL0     C34815   3.393   3.429   7.707  0.4838  0.2401 -0.1048
  253MOL0     C34816   3.301   3.317   7.655 -0.5638  0.1459 -1.0281
  253MOL0     C34817   3.185   3.290   7.759  0.9524 -0.8780  0.6479
  253MOL0     C34818   3.114   3.152   7.719 -0.3422  0.8775 -0.5605
  253MOL0     C34819   3.050   3.154   7.583  0.4506  0.6061 -0.1009
  253MOL0     C34820   2.931   3.052   7.576 -0.9673 -0.9262 -0.7609
  253MOL0    Cl34821   2.787   3.114   7.659 -0.1944 -0.4282  0.1177
  253MOL0     C34822   3.847   3.429   7.300  0.1985  0.3346  0.1217
  253MOL0     C34823   3.921   3.377   7.199 -0.2397 -0.2054  0.7509
  253MOL0     O34824   3.813   3.154   6.906 -1.1425  0.4398  0.0885
  253MOL0     C34825   4.119   3.211   6.777  0.0683 -0.0363 -0.3166
  253MOL0     C34826   4.218   3.183   6.679 -0.3338  0.4876 -0.1930
  253MOL0     N34827   4.467   2.781   5.985  1.0489  0.3209 -1.0089
  253MOL0     N34828   4.509   2.739   5.871 -0.6835  0.2612 -0.0511
  253MOL0     C34829   4.724   2.437   5.168 -0.1802  0.5740  0.2287
  253MOL0     C34830   4.662   2.310   5.147  0.1215 -0.7615  0.7131
  253MOL0     C34831   4.435   1.922   5.312 -0.4349  0.0780 -0.1202
  253MOL0     C34832   4.501   1.857   5.202 -0.4379 -0.7376  0.0791
  253MOL0     C34833   4.506   1.714   5.193 -0.8088 -0.0303  0.1600
  253MOL0     C34834   4.424   1.634   5.277 -0.2014 -0.1993 -0.0974
  253MOL0     O34835   4.406   1.498   5.273 -0.1015  0.4469  0.2329
  253MOL0     C34836   4.448   1.421   5.163 -0.4386  0.4644 -0.2533
  253MOL0     C34837   4.595   1.368   5.182  0.5259 -0.8974  0.4005
  253MOL0     C34838   4.630   1.320   5.330 -0.2046  0.4508  0.0455
  253MOL0     C34839   4.663   1.429   5.428  0.0074 -0.6308  0.3745
  253MOL0     C34840   4.686   1.361   5.549  0.2638  0.3689  0.0630
  253MOL0     C34841   4.711   1.290   5.642  0.1919 -0.3552 -0.9010
  253MOL0     C34842   4.353   1.703   5.386 -0.5394 -0.8867  0.0144
  253MOL0     C34843   4.362   1.842   5.402 -0.4546  0.0968  0.5085
  253MOL0     C34844   4.280   1.895   5.520 -0.1357 -0.1487 -0.0869
  253MOL0     H34845   4.535   2.287   5.472 -0.7104 -1.2851 -1.1309
  253MOL0     H34846   4.660   2.485   5.502 -2.1806 -0.2535  1.1882
  253MOL0     H34847   4.872   2.681   5.141  1.4957 -0.1770 -0.7878
  253MOL0     H34848   4.952   2.539   5.191 -1.3859 -1.4411  0.0095
  253MOL0     H34849   5.086   2.755   5.234 -0.5307 -0.0666 -2.0089
  253MOL0     H34850   4.957   2.819   5.336 -0.8895 -1.5190  0.2304
  253MOL0     H34851   5.013   2.559   5.447  0.8012 -0.2336 -1.9301
  253MOL0     H34852   5.160   2.603   5.370  1.8318  3.2525  0.4821
  253MOL0     H34853   5.223   2.701   5.540  0.2619  0.0477 -0.1935
  253MOL0     H34854   5.131   2.834   5.485 -1.4144  1.0789 -0.4469
  253MOL0     H34855   5.053   2.785   5.727 -1.2469  0.2634  0.1464
  253MOL0     H34856   5.014   2.624   5.670 -0.5956  0.6901  1.4770
  253MOL0     H34857   4.908   2.906   5.587 -3.4762  0.9895  0.3482
  253MOL0     H34858   4.849   2.754   5.517 -0.2512  1.6238 -0.9031
  253MOL0     H34859   4.861   2.813   5.808  2.2420  0.2092 -1.4148
  253MOL0     H34860   4.798   2.665   5.749 -2.6731  0.0622  0.1995
  253MOL0     H34861   4.664   2.916   5.659  0.3284  0.5383  0.9932
  253MOL0     H34862   4.607   2.750   5.641 -0.6324  1.1559  0.2691
  253MOL0     H34863   4.718   2.978   5.942 -1.1074  1.9577 -0.2554
  253MOL0     H34864   4.674   2.939   6.209 -0.3292  1.4523 -3.9560
  253MOL0     H34865   4.582   2.787   6.244 -3.8023  1.7800  2.7512
  253MOL0     H34866   4.447   3.052   6.213  0.0086 -1.4461 -1.7357
  253MOL0     H34867   4.374   2.902   6.266 -0.7280  1.5717 -0.3300
  253MOL0     H34868   4.566   2.936   6.465  0.2336  0.8785 -0.5648
  253MOL0     H34869   4.597   3.089   6.385 -1.4108  2.7168  1.6454
  253MOL0     H34870   4.471   3.142   6.564 -1.0215 -2.2566  3.2719
  253MOL0     H34871   4.358   3.160   6.427 -2.0323 -1.5099  1.2373
  253MOL0     H34872   4.193   2.847   6.694  0.8698  1.1683  0.2564
  253MOL0     H34873   4.025   2.860   6.996  1.1781 -0.1177 -0.4178
  253MOL0     H34874   4.007   2.769   6.835  1.8152  1.2606 -2.1809
  253MOL0     H34875   3.885   2.889   6.898  0.3435  1.1653 -0.0584
  253MOL0     H34876   3.812   3.056   7.188 -0.0059  0.7875 -5.9206
  253MOL0     H34877   3.663   3.149   7.371  1.6055 -0.1792  2.6923
  253MOL0     H34878   3.526   3.288   7.481  1.7066 -0.7363 -1.6947
  253MOL0     H34879   3.617   3.319   7.631 -3.9488  2.3320  2.7746
  253MOL0     H34880   3.547   3.560   7.649 -0.3301  0.2321  0.4160
  253MOL0     H34881   3.431   3.532   7.519 -1.4408 -0.3751  1.4106
  253MOL0     H34882   3.320   3.505   7.738 -0.2739 -0.5301  0.0363
  253MOL0     H34883   3.447   3.394   7.795  1.4043  1.9101  0.0174
  253MOL0     H34884   3.359   3.224   7.651 -1.0025 -0.4049  2.3623
  253MOL0     H34885   3.272   3.335   7.550 -1.0555 -0.4426 -1.0039
  253MOL0     H34886   3.214   3.290   7.864 -1.2305 -1.2821  1.2862
  253MOL0     H34887   3.106   3.366   7.764 -0.3660 -2.0856 -0.7486
  253MOL0     H34888   3.037   3.133   7.795  0.0384  2.4597  0.2536
  253MOL0     H34889   3.179   3.064   7.716 -0.6073  0.6989 -2.6873
  253MOL0     H34890   3.127   3.132   7.509 -0.1590 -1.4199 -0.1921
  253MOL0     H34891   3.013   3.256   7.567 -0.3980  0.1916 -0.8205
  253MOL0     H34892   2.961   2.952   7.608 -0.2509 -2.2679 -5.0214
  253MOL0     H34893   2.903   3.045   7.470  2.0653 -1.2191 -1.6225
  253MOL0     H34894   3.850   3.535   7.323  2.0909  0.2841  0.2641
  253MOL0     H34895   3.991   3.444   7.148 -0.1605 -1.0552 -0.3004
  253MOL0     H34896   4.098   3.310   6.816  1.9217 -0.0281  0.7833
  253MOL0     H34897   4.278   3.264   6.638 -1.1394  2.4262  2.1812
  253MOL0     H34898   4.776   2.470   5.079  1.4416 -2.1767  0.0353
  253MOL0     H34899   4.664   2.264   5.049 -2.3309 -0.3168  0.3882
  253MOL0     H34900   4.526   1.919   5.117  0.3280  2.8025  2.6923
  253MOL0     H34901   4.567   1.669   5.115  0.5738  0.5528  0.8782
  253MOL0     H34902   4.377   1.337   5.166  0.1695 -0.0259  1.6111
  253MOL0     H34903   4.433   1.486   5.077  0.4352  0.6749 -0.2583
  253MOL0     H34904   4.667   1.447   5.161 -1.6489  0.6189 -2.0060
  253MOL0     H34905   4.610   1.296   5.102 -1.8516  2.9057 -3.9440
  253MOL0     H34906   4.547   1.262   5.372  0.8859 -0.4946  0.9830
  253MOL0     H34907   4.709   1.245   5.318 -1.9076 -1.1622 -2.0401
  253MOL0     H34908   4.579   1.497   5.440  1.1494  0.5939  2.0208
  253MOL0     H34909   4.751   1.490   5.401 -0.5773  1.0259  1.9714
  253MOL0     H34910   4.734   1.229   5.727 -1.5549  0.5378  0.2809
  253MOL0     H34911   4.286   1.665   5.463 -1.7472 -3.2386 -2.0565
  253MOL0     H34912   4.242   1.813   5.581  0.8142 -2.2120 -2.1383
  253MOL0     H34913   4.339   1.961   5.585  0.4816  1.8329 -2.4839
  253MOL0     H34914   4.195   1.957   5.488  0.8885  0.8182 -1.0242
  254MOL0     O34915   8.828   8.118  11.395  0.1383 -0.0752  0.8714
  254MOL0     C34916   8.736   8.175  11.338 -0.5345  0.6887  0.0782
  254MOL0     O34917   8.674   8.143  11.213 -0.0239 -0.2483  0.5016
  254MOL0     C34918   8.609   8.023  11.197 -0.2690  0.1344  0.7201
  254MOL0     C34919   8.549   8.011  11.072  0.3633  0.2269 -0.0205
  254MOL0     C34920   8.484   7.895  11.033  0.0053  0.6279  0.3759
  254MOL0     C34921   8.478   7.781  11.118  0.2501  0.0690  0.3225
  254MOL0     O34922   8.418   7.679  11.051  0.1624 -0.1015 -0.1172
  254MOL0     C34923   8.361   7.583  11.139 -0.4456 -0.1896  0.5974
  254MOL0     C34924   8.228   7.512  11.100 -0.4900 -0.6948 -0.6117
  254MOL0     C34925   8.204   7.487  10.952 -0.2010  0.0217 -0.3587
  254MOL0     C34926   8.142   7.609  10.890  0.4049 -0.8333  0.2007
  254MOL0     C34927   8.029   7.565  10.806  0.4658 -0.1631  0.3924
  254MOL0     C34928   7.971   7.678  10.722 -0.6545  0.5047  0.7705
  254MOL0     C34929   7.827   7.651  10.676  0.7856  0.1135  0.0800
  254MOL0     C34930   7.805   7.569  10.547 -0.7310  0.8695  0.3433
  254MOL0     N34931   7.818   7.425  10.575  0.2030 -0.6611  0.4795
  254MOL0     C34932   7.883   7.331  10.501 -0.1105 -0.6163  0.5079
  254MOL0     C34933   7.850   7.220  10.557  0.1428  0.3591 -0.6867
  254MOL0     C34934   7.886   7.089  10.501 -1.0528 -0.0134  0.1838
  254MOL0     C34935   8.036   7.051  10.544 -0.0260 -0.4939  0.7285
  254MOL0     C34936   8.095   6.939  10.460 -0.3444  0.3639  0.3559
  254MOL0     C34937   8.236   6.916  10.505 -1.6003  0.0283  0.3945
  254MOL0     O34938   8.285   6.788  10.441  0.1839 -0.7258 -0.3216
  254MOL0     C34939   8.405   6.742  10.483  0.4935  0.1159  0.4140
  254MOL0     C34940   8.484   6.687  10.387  0.9863  0.1912 -0.6557
  254MOL0     C34941   8.612   6.636  10.415 -0.3143  0.3130  0.2860
  254MOL0     C34942   8.684   6.580  10.286  0.3714  0.0227 -0.3917
  254MOL0     C34943   8.670   6.650  10.538 -0.2900  0.0841  0.4191
  254MOL0     C34944   8.816   6.621  10.558 -0.3183  0.2440 -0.1320
  254MOL0     O34945   8.860   6.629  10.685  0.6388  0.5517 -0.9068
  254MOL0     C34946   8.992   6.636  10.731  0.3281 -0.0799 -0.0103
  254MOL0     C34947   9.021   6.575  10.851 -0.8538  0.0413 -0.7763
  254MOL0     C34948   9.135   6.596  10.930  0.3384 -0.7921  0.8541
  254MOL0     C34949   9.239   6.679  10.883 -0.0754  0.2719  0.2921
  254MOL0     O34950   9.357   6.698  10.939  0.5848 -0.4664  0.1496
  254MOL0     C34951   9.368   6.687  11.083 -0.1175 -0.9046 -0.0366
  254MOL0     C34952   9.455   6.563  11.131  0.2736  0.8801 -0.2881
  254MOL0     C34953   9.432   6.429  11.048  0.8263 -0.7269  0.1293
  254MOL0     C34954   9.519   6.321  11.115  0.7632  0.1885 -0.7031
  254MOL0     C34955   9.548   6.193  11.041 -1.0508 -0.4019 -0.0964
  254MOL0     C34956   9.423   6.130  10.979  0.3870 -1.1536  0.5505
  254MOL0     C34957   9.435   5.982  10.932 -0.5730  0.8671  0.0555
  254MOL0     C34958   9.508   5.983  10.790 -0.0210  0.7889 -0.1729
  254MOL0    Cl34959   9.578   5.820  10.760 -0.1505  0.1670  0.6427
  254MOL0     C34960   9.217   6.744  10.757 -0.2268  0.1635 -0.7070
  254MOL0     C34961   9.090   6.729  10.680 -0.4026  0.0323 -0.0915
  254MOL0     O34962   8.898   6.613  10.461 -0.2412 -0.1630 -0.1721
  254MOL0     C34963   8.594   6.709  10.640 -0.4495  0.7745  0.3760
  254MOL0     C34964   8.463   6.750  10.612 -1.2766  0.1599 -0.2320
  254MOL0     N34965   7.768   7.244  10.668  0.0456 -0.2573  0.6967
  254MOL0     N34966   7.750   7.369  10.682  0.1811  0.1625  0.4899
  254MOL0     C34967   8.553   7.795  11.237  0.1060 -1.1769  0.1953
  254MOL0     C34968   8.618   7.913  11.275 -0.5212  0.0132  0.2422
  254MOL0     C34969   8.668   8.296  11.405  1.2985  0.1362 -0.3626
  254MOL0     C34970   8.551   8.343  11.336 -0.6760 -0.7139 -0.1894
  254MOL0     C34971   8.474   8.448  11.391  0.2040 -0.5252 -0.4837
  254MOL0     C34972   8.522   8.514  11.508 -0.2882 -0.0131  0.4739
  254MOL0     O34973   8.456   8.622  11.574  0.2468  0.2813 -0.6161
  254MOL0     C34974   8.347   8.691  11.518  0.4766 -0.8385 -0.0516
  254MOL0     C34975   8.262   8.707  11.644 -0.5601 -0.5130 -0.8473
  254MOL0     C34976   8.148   8.812  11.630  0.5836  1.5187  0.3592
  254MOL0     C34977   8.067   8.804  11.501 -0.1483 -0.8921  0.8374
  254MOL0     C34978   8.110   8.888  11.386 -0.8685 -0.1557 -0.7032
  254MOL0     C34979   8.129   8.943  11.276 -0.6667 -0.1765  0.1124
  254MOL0     C34980   8.636   8.464  11.570 -0.2381  0.1782  0.7725
  254MOL0     C34981   8.708   8.360  11.527  0.4803 -0.4249 -0.2539
  254MOL0     C34982   8.842   8.318  11.592  0.7090  0.0024 -0.5794
  254MOL0     H34983   8.566   8.101  11.015  0.8163  0.5411  0.5973
  254MOL0     H34984   8.443   7.887  10.932 -0.2589 -2.6390  0.6119
  254MOL0     H34985   8.342   7.633  11.235  0.0231 -3.3232  2.4684
  254MOL0     H34986   8.442   7.515  11.167  1.4878  1.0111 -1.7054
  254MOL0     H34987   8.221   7.418  11.155 -1.3405  0.1212  0.7236
  254MOL0     H34988   8.148   7.576  11.139  1.7379  1.4715  0.6989
  254MOL0     H34989   8.292   7.464  10.891  1.4275 -1.3808  2.3166
  254MOL0     H34990   8.145   7.396  10.944  1.2974 -1.0913  0.6717
  254MOL0     H34991   8.117   7.687  10.962  0.5961 -0.8697  0.3071
  254MOL0     H34992   8.216   7.653  10.822 -0.7009  1.2169  0.2496
  254MOL0     H34993   7.951   7.538  10.878  0.4641  1.7107  1.1501
  254MOL0     H34994   8.057   7.487  10.734 -2.3965  0.2097 -1.2880
  254MOL0     H34995   7.981   7.775  10.770 -1.0531  1.0520 -0.2149
  254MOL0     H34996   8.039   7.677  10.636 -1.6955  0.9246 -0.0814
  254MOL0     H34997   7.769   7.743  10.660 -4.0956 -2.7273 -0.7748
  254MOL0     H34998   7.772   7.621  10.766 -0.1822  0.4682 -0.3686
  254MOL0     H34999   7.703   7.585  10.510 -0.9111 -1.7806 -0.5285
  254MOL0     H35000   7.878   7.606  10.474  1.4985 -0.7022  1.6596
  254MOL0     H35001   7.945   7.340  10.413 -0.3362 -2.0702  0.1782
  254MOL0     H35002   7.887   7.099  10.393  0.7123  2.0380  0.3124
  254MOL0     H35003   7.820   7.011  10.540 -0.0655 -0.7935  0.3545
  254MOL0     H35004   8.099   7.139  10.531 -1.7627  0.6395 -0.5045
  254MOL0     H35005   8.041   7.023  10.650 -0.3834 -0.2230  0.8185
  254MOL0     H35006   8.028   6.854  10.479 -1.7330  1.6156  1.2235
  254MOL0     H35007   8.096   6.965  10.354  2.3871  0.9363  0.4419
  254MOL0     H35008   8.294   7.005  10.483  0.1794 -0.6451  2.0864
  254MOL0     H35009   8.243   6.899  10.613  0.8673 -0.6439  0.1868
  254MOL0     H35010   8.446   6.670  10.287  0.7340 -2.0919 -0.2339
  254MOL0     H35011   8.751   6.653  10.241 -0.6935 -0.0424 -2.1991
  254MOL0     H35012   8.607   6.560  10.211  0.7618 -0.4511 -0.6715
  254MOL0     H35013   8.731   6.482  10.300  0.2678 -0.2996 -2.1395
  254MOL0     H35014   8.954   6.506  10.902 -3.2902  4.8027  3.2920
  254MOL0     H35015   9.152   6.547  11.025 -2.0842 -2.4584  0.5284
  254MOL0     H35016   9.417   6.782  11.106 -2.9958  0.3809  1.2210
  254MOL0     H35017   9.273   6.688  11.137 -0.3945 -0.3265 -0.5157
  254MOL0     H35018   9.559   6.594  11.113  0.8758  0.8473  2.6525
  254MOL0     H35019   9.444   6.541  11.237 -2.9643 -1.6441 -0.9867
  254MOL0     H35020   9.451   6.452  10.943 -1.0980 -1.9979 -0.5440
  254MOL0     H35021   9.328   6.398  11.062  0.6259  0.2169  0.8422
  254MOL0     H35022   9.477   6.300  11.214  0.8227 -1.5374 -1.0074
  254MOL0     H35023   9.618   6.363  11.135  1.5070 -1.0876 -1.5822
  254MOL0     H35024   9.625   6.208  10.965  1.6360 -4.0151  1.6228
  254MOL0     H35025   9.592   6.113  11.100  1.8141  1.5378  0.5543
  254MOL0     H35026   9.390   6.194  10.897  2.1277 -1.0433 -0.1104
  254MOL0     H35027   9.352   6.131  11.061  2.1776 -0.5019  2.1637
  254MOL0     H35028   9.342   5.928  10.913  0.0243 -0.1752 -0.0352
  254MOL0     H35029   9.503   5.918  10.989 -1.9410 -0.0952  0.6564
  254MOL0     H35030   9.579   6.060  10.759 -1.9619  1.0867 -4.5391
  254MOL0     H35031   9.433   6.003  10.713 -1.4886 -0.9523  0.7421
  254MOL0     H35032   9.296   6.812  10.726 -1.2340  2.0129  0.5818
  254MOL0     H35033   9.068   6.800  10.601 -2.3055  2.4059  2.3925
  254MOL0     H35034   8.634   6.729  10.738  2.2871 -0.1278 -0.4688
  254MOL0     H35035   8.403   6.782  10.696  0.0296  2.7930 -0.2211
  254MOL0     H35036   8.577   7.711  11.301 -0.5826  0.1364  2.2989
  254MOL0     H35037   8.680   7.904  11.364 -1.1976 -7.0361  0.6324
  254MOL0     H35038   8.502   8.302  11.249  0.6254  0.0889 -1.3303
  254MOL0     H35039   8.379   8.479  11.348 -1.9823 -1.9768  2.8797
  254MOL0     H35040   8.390   8.784  11.478 -0.0474 -0.6739 -0.2477
  254MOL0     H35041   8.288   8.646  11.437  1.2187  0.0797 -1.1411
  254MOL0     H35042   8.323   8.724  11.734 -1.1949  3.4509 -0.9585
  254MOL0     H35043   8.212   8.612  11.660 -1.9098  0.2576 -0.3336
  254MOL0     H35044   8.085   8.800  11.718  0.1937 -4.0044 -0.3280
  254MOL0     H35045   8.185   8.913  11.654  3.3816  0.7155 -0.2162
  254MOL0     H35046   7.968   8.841  11.530 -0.0548 -0.9386  1.2213
  254MOL0     H35047   8.053   8.700  11.468 -1.5034 -0.7210  0.7927
  254MOL0     H35048   8.128   8.980  11.175 -3.0406  1.1045  0.5124
  254MOL0     H35049   8.654   8.516  11.663 -1.5304  2.4413 -0.1364
  254MOL0     H35050   8.858   8.397  11.666 -2.6763 -0.4790  0.8712
  254MOL0     H35051   8.836   8.221  11.642 -0.5893 -0.0902 -0.8723
  254MOL0     H35052   8.926   8.324  11.522  2.1809  0.4106  1.1433
  255MOL0     O35053   2.914   1.103   7.642 -0.2596  0.6260 -0.2650
  255MOL0     C35054   2.904   1.018   7.559 -0.6483  0.6479  0.9053
  255MOL0     O35055   2.921   1.034   7.431 -0.7792 -0.0839  0.8367
  255MOL0     C35056   2.986   1.143   7.389  1.8112 -0.7514  0.5958
  255MOL0     C35057   3.127   1.132   7.365  0.2586 -0.1947  0.0843
  255MOL0     C35058   3.203   1.246   7.316  0.5154  0.0562  0.2698
  255MOL0     C35059   3.132   1.369   7.284  0.0561 -0.7431  0.6603
  255MOL0     O35060   3.190   1.484   7.234  0.3018  0.6078 -0.0375
  255MOL0     C35061   3.198   1.483   7.096  0.4921  0.1644 -0.2366
  255MOL0     C35062   3.164   1.620   7.038  0.1043 -0.1371  0.7064
  255MOL0     C35063   3.027   1.675   7.070  1.4343 -0.4331 -0.4206
  255MOL0     C35064   2.911   1.610   6.994 -0.4480 -0.2140 -1.0957
  255MOL0     C35065   2.778   1.655   7.059  0.0890 -0.7131  0.5192
  255MOL0     C35066   2.660   1.609   6.969  0.5487  0.5130 -0.5179
  255MOL0     C35067   2.643   1.455   6.946 -0.0912  0.0123  0.7015
  255MOL0     C35068   2.496   1.418   6.903 -0.3154 -0.3118  0.1492
  255MOL0     N35069   2.459   1.461   6.770 -0.0080  0.7544 -0.5501
  255MOL0     C35070   2.509   1.412   6.653 -1.1283  0.0066 -0.3976
  255MOL0     C35071   2.452   1.478   6.554  0.1407 -0.6127 -0.4454
  255MOL0     C35072   2.487   1.468   6.401  0.4246 -0.4407 -0.1681
  255MOL0     C35073   2.512   1.603   6.334 -1.1251 -0.6685  0.4635
  255MOL0     C35074   2.582   1.575   6.191 -0.3155  0.4443 -0.1543
  255MOL0     C35075   2.611   1.704   6.120 -0.3776 -0.1354 -0.4527
  255MOL0     O35076   2.492   1.774   6.086  1.0201  0.5272  0.4033
  255MOL0     C35077   2.490   1.896   6.039  0.6349 -0.6978 -0.1825
  255MOL0     C35078   2.383   1.985   6.052  0.2605 -1.3292  0.0893
  255MOL0     C35079   2.371   2.111   6.004 -0.7087 -0.0920 -0.1923
  255MOL0     C35080   2.249   2.188   6.037  0.6618 -0.3888 -0.2687
  255MOL0     C35081   2.477   2.164   5.929  0.5474 -0.4894  0.0235
  255MOL0     C35082   2.469   2.288   5.846  0.4046 -0.1235  1.3744
  255MOL0     O35083   2.578   2.364   5.841 -0.0875  0.6550 -0.1487
  255MOL0     C35084   2.571   2.496   5.812 -0.2196  0.6679 -0.0430
  255MOL0     C35085   2.550   2.590   5.918  0.1488  0.4902 -0.0450
  255MOL0     C35086   2.566   2.727   5.887  0.8214 -0.9225 -0.2051
  255MOL0     C35087   2.564   2.784   5.749  0.0919  0.4016 -0.6201
  255MOL0     O35088   2.560   2.921   5.727 -0.2915  0.0655  0.2316
  255MOL0     C35089   2.584   3.010   5.844 -0.3326 -0.5510  0.4626
  255MOL0     C35090   2.564   3.155   5.796 -0.5661  0.2415  0.4483
  255MOL0     C35091   2.415   3.185   5.784  0.1009 -0.3206 -1.1234
  255MOL0     C35092   2.394   3.337   5.754 -0.0394  0.6329  0.0442
  255MOL0     C35093   2.245   3.397   5.779  0.6087 -0.2692 -0.1564
  255MOL0     C35094   2.187   3.366   5.926 -0.3601  0.4762  0.8394
  255MOL0     C35095   2.257   3.425   6.053  0.2927 -0.7605 -0.6495
  255MOL0     C35096   2.238   3.579   6.060 -0.0980 -0.5618 -0.1501
  255MOL0    Cl35097   2.071   3.611   6.092 -0.0981 -0.2139 -0.2077
  255MOL0     C35098   2.584   2.685   5.652  0.9698 -0.6832  0.7033
  255MOL0     C35099   2.579   2.546   5.681  0.0927  0.1066  0.1786
  255MOL0     O35100   2.357   2.323   5.810 -0.0198  0.6344 -0.1844
  255MOL0     C35101   2.589   2.082   5.918 -0.1895 -0.3638 -0.5859
  255MOL0     C35102   2.596   1.957   5.979  0.0176  0.0738  0.8992
  255MOL0     N35103   2.360   1.561   6.604  0.1576  0.5564 -0.2366
  255MOL0     N35104   2.364   1.552   6.734 -0.6015  0.4919  0.4426
  255MOL0     C35105   2.994   1.370   7.297 -0.3409 -0.8270  0.7997
  255MOL0     C35106   2.923   1.258   7.341  0.1623 -0.8287  0.3996
  255MOL0     C35107   2.870   0.889   7.600  0.2303 -0.8967 -0.3102
  255MOL0     C35108   2.968   0.794   7.579  0.0662 -0.5174 -0.5186
  255MOL0     C35109   2.952   0.654   7.607 -0.0792 -0.0936 -0.0670
  255MOL0     C35110   2.834   0.610   7.670  0.2743 -0.2807 -0.4145
  255MOL0     O35111   2.824   0.481   7.698  0.1165  0.4356  0.4483
  255MOL0     C35112   2.704   0.422   7.760  0.1142 -0.2830  0.4461
  255MOL0     C35113   2.740   0.274   7.779  0.1975  0.4095  0.0260
  255MOL0     C35114   2.630   0.178   7.847  0.5978  0.5290 -0.6352
  255MOL0     C35115   2.670   0.034   7.858  0.3073 -0.4528 -0.4379
  255MOL0     C35116   2.736   0.009   7.985  0.9036  0.8577  0.4560
  255MOL0     C35117   2.797  -0.007   8.087  0.4255 -0.4224 -0.8860
  255MOL0     C35118   2.733   0.700   7.696  0.1974 -0.3569 -0.7468
  255MOL0     C35119   2.750   0.842   7.654 -0.5102  0.7868 -0.5300
  255MOL0     C35120   2.640   0.940   7.681 -0.3940 -0.1225  0.5848
  255MOL0     H35121   3.177   1.037   7.381  0.5210 -0.4712 -2.0538
  255MOL0     H35122   3.309   1.234   7.296  0.2014 -0.1571 -1.4714
  255MOL0     H35123   3.128   1.417   7.044 -0.9609  1.6921 -0.2991
  255MOL0     H35124   3.300   1.458   7.063  1.3748  0.7361  1.9130
  255MOL0     H35125   3.242   1.692   7.064 -2.3973  2.0474  2.6469
  255MOL0     H35126   3.170   1.606   6.929  0.9933  1.4392  0.5269
  255MOL0     H35127   3.015   1.663   7.178  1.0897  1.3175 -0.2462
  255MOL0     H35128   3.026   1.783   7.057  2.9624 -0.3192  0.2236
  255MOL0     H35129   2.916   1.631   6.886 -1.0288  2.4628 -0.6627
  255MOL0     H35130   2.907   1.501   7.002 -0.3902 -0.1495 -0.1479
  255MOL0     H35131   2.766   1.762   7.078 -1.9043 -0.1656 -3.0063
  255MOL0     H35132   2.762   1.602   7.153  1.6126  0.8938  1.7424
  255MOL0     H35133   2.573   1.652   7.018  1.2709  1.7593 -0.2736
  255MOL0     H35134   2.666   1.648   6.867 -2.7673  1.7782 -0.3422
  255MOL0     H35135   2.654   1.390   7.034 -1.2057  1.0336  1.6303
  255MOL0     H35136   2.717   1.418   6.874 -2.5289 -2.5227 -0.7216
  255MOL0     H35137   2.485   1.309   6.903  0.7840 -0.4446  1.1160
  255MOL0     H35138   2.420   1.443   6.978 -0.8107 -1.3808  0.0224
  255MOL0     H35139   2.593   1.344   6.642 -1.2922 -0.5378  1.4511
  255MOL0     H35140   2.395   1.432   6.354 -1.8323 -0.5286  3.8682
  255MOL0     H35141   2.569   1.398   6.382 -0.5916 -1.8788  0.5427
  255MOL0     H35142   2.421   1.663   6.327 -0.6458  0.1260  0.9411
  255MOL0     H35143   2.573   1.677   6.388 -1.5993  0.7876 -0.9310
  255MOL0     H35144   2.675   1.520   6.210 -0.7078 -0.0980  0.2614
  255MOL0     H35145   2.522   1.521   6.118  2.4137 -0.8487 -1.6212
  255MOL0     H35146   2.675   1.755   6.192 -2.2632  0.6216  0.7705
  255MOL0     H35147   2.673   1.670   6.037  1.2512 -1.3789  1.1718
  255MOL0     H35148   2.307   1.942   6.117 -1.0235 -0.7963 -1.0077
  255MOL0     H35149   2.162   2.148   5.984 -0.5746  1.9177 -0.1261
  255MOL0     H35150   2.254   2.297   6.036  2.5919 -0.3994  1.0108
  255MOL0     H35151   2.236   2.159   6.142  2.2205 -1.8815 -0.4516
  255MOL0     H35152   2.549   2.541   6.015  0.0804 -0.8941 -0.7173
  255MOL0     H35153   2.554   2.784   5.979  2.4283 -0.2846 -0.3555
  255MOL0     H35154   2.515   2.987   5.925 -1.0892  3.6187  1.2384
  255MOL0     H35155   2.686   2.994   5.880 -0.0717 -3.2335 -1.1556
  255MOL0     H35156   2.620   3.213   5.870 -0.8693  0.3627  0.5862
  255MOL0     H35157   2.611   3.175   5.699 -3.0678 -1.8985 -1.3537
  255MOL0     H35158   2.369   3.144   5.874 -0.9067 -1.7070 -2.2256
  255MOL0     H35159   2.373   3.122   5.706 -1.4837 -0.9887  0.2141
  255MOL0     H35160   2.430   3.356   5.653  2.4155 -2.1294  0.2817
  255MOL0     H35161   2.461   3.384   5.827  3.1650 -0.7672 -1.8116
  255MOL0     H35162   2.247   3.504   5.758  0.8316 -0.3760 -0.6827
  255MOL0     H35163   2.183   3.349   5.703  0.1583 -1.4753  0.9205
  255MOL0     H35164   2.186   3.257   5.935 -0.4963 -0.0387 -3.3639
  255MOL0     H35165   2.086   3.408   5.937  0.4096  1.8370  3.8390
  255MOL0     H35166   2.363   3.398   6.047  0.2858 -1.9648  2.6064
  255MOL0     H35167   2.222   3.365   6.138 -4.3442 -0.7097 -2.2236
  255MOL0     H35168   2.271   3.624   5.966 -3.7012 -0.2629 -1.4306
  255MOL0     H35169   2.312   3.606   6.136  0.9268  1.5778 -1.8319
  255MOL0     H35170   2.591   2.713   5.547  0.0255  0.2174  0.8727
  255MOL0     H35171   2.591   2.478   5.597 -0.7662  1.2931 -0.9679
  255MOL0     H35172   2.669   2.125   5.859 -0.9963  0.4877 -1.0920
  255MOL0     H35173   2.691   1.907   5.959 -0.4255 -1.3624  2.2402
  255MOL0     H35174   2.944   1.457   7.255  2.3628 -0.6502 -2.4226
  255MOL0     H35175   2.814   1.251   7.340  0.2682 -3.5260 -0.7968
  255MOL0     H35176   3.057   0.831   7.530 -0.4881  0.6961 -0.6185
  255MOL0     H35177   3.030   0.582   7.586  1.3301  1.4809 -0.5057
  255MOL0     H35178   2.672   0.476   7.850 -5.6700  3.6846 -3.3288
  255MOL0     H35179   2.618   0.443   7.696 -1.1364  2.1653  2.7152
  255MOL0     H35180   2.837   0.252   7.825 -0.5087 -0.6987  1.0821
  255MOL0     H35181   2.741   0.231   7.679 -0.5140 -0.7409  0.4867
  255MOL0     H35182   2.606   0.227   7.942  1.8019  1.2050 -0.6517
  255MOL0     H35183   2.544   0.170   7.781 -1.0994  1.8110  1.2906
  255MOL0     H35184   2.744  -0.007   7.790 -1.3709 -3.3506 -0.6740
  255MOL0     H35185   2.577  -0.023   7.845  0.4151 -0.4593 -1.2239
  255MOL0     H35186   2.841  -0.007   8.185 -1.8258  0.3983  0.2073
  255MOL0     H35187   2.639   0.654   7.726  0.8838 -1.8200 -0.7696
  255MOL0     H35188   2.686   1.024   7.734 -1.9110  0.2491  1.3842
  255MOL0     H35189   2.600   0.986   7.590 -2.2969 -1.4567  0.6815
  255MOL0     H35190   2.556   0.895   7.735 -1.5832  1.4482  0.1295
  256MOL0     O35191  11.388   1.454   1.510 -0.0010 -0.7284  0.7651
  256MOL0     C35192  11.340   1.438   1.627  0.0300  0.4546 -0.0150
  256MOL0     O35193  11.366   1.512   1.737 -0.4622 -0.1537 -0.0413
  256MOL0     C35194  11.422   1.630   1.724 -0.2396  0.1000 -0.8584
  256MOL0     C35195  11.529   1.673   1.806  0.8558  0.1627  0.0364
  256MOL0     C35196  11.594   1.798   1.793 -0.6018 -0.7443 -0.4616
  256MOL0     C35197  11.547   1.884   1.695 -0.1976  0.4273  0.4229
  256MOL0     O35198  11.618   1.995   1.664  0.3340 -0.1421  0.6153
  256MOL0     C35199  11.658   2.066   1.776 -0.2194 -0.1706  0.3429
  256MOL0     C35200  11.715   2.199   1.720  0.1272 -0.2219  1.2993
  256MOL0     C35201  11.708   2.310   1.817 -0.3547 -0.6372 -0.3447
  256MOL0     C35202  11.563   2.358   1.851 -0.2638  0.3873  1.0579
  256MOL0     C35203  11.558   2.505   1.893  0.3462 -1.0958  0.7306
  256MOL0     C35204  11.644   2.548   2.011  0.8711 -0.0041  0.0267
  256MOL0     C35205  11.642   2.456   2.136  0.1535 -0.0724 -0.0178
  256MOL0     C35206  11.719   2.513   2.251  0.0338  0.2781 -1.0835
  256MOL0     N35207  11.726   2.425   2.364  0.2818  0.1340 -0.0541
  256MOL0     C35208  11.612   2.405   2.449 -0.7978  0.5780  0.9266
  256MOL0     C35209  11.660   2.318   2.546 -0.3798  0.2256  0.3014
  256MOL0     C35210  11.587   2.267   2.671 -0.4974  0.2477  0.1920
  256MOL0     C35211  11.665   2.277   2.804 -0.0828  0.9753  0.6589
  256MOL0     C35212  11.700   2.418   2.828  0.3491 -0.6481 -0.3332
  256MOL0     C35213  11.751   2.430   2.978 -0.7041 -0.5156 -0.1323
  256MOL0     O35214  11.641   2.399   3.067 -0.2477 -0.2457  0.4411
  256MOL0     C35215  11.666   2.334   3.184  0.0789  0.3513  0.3547
  256MOL0     C35216  11.552   2.289   3.261  0.8034 -0.3407  0.2804
  256MOL0     C35217  11.572   2.212   3.382 -0.5854 -0.3247 -0.5416
  256MOL0     C35218  11.443   2.161   3.444  0.4405 -0.6931  0.2710
  256MOL0     C35219  11.704   2.198   3.433  0.2746  0.6093  0.4009
  256MOL0     C35220  11.733   2.125   3.558  0.7306  0.2021 -0.3924
  256MOL0     O35221  11.633   2.101   3.653 -0.5840  0.3076  0.3447
  256MOL0     C35222  11.677   2.042   3.771 -1.1573 -0.2920 -0.5794
  256MOL0     C35223  11.666   1.902   3.769  0.9387 -0.4314 -0.0641
  256MOL0     C35224  11.709   1.822   3.880 -0.1822  0.3454  0.2808
  256MOL0     C35225  11.748   1.886   4.002 -0.3941 -0.0330  1.2777
  256MOL0     O35226  11.783   1.803   4.100 -0.5928 -0.1899 -0.2239
  256MOL0     C35227  11.835   1.853   4.233  0.1118 -0.9403 -0.4015
  256MOL0     C35228  11.819   1.753   4.345  0.2696  0.8475 -0.8490
  256MOL0     C35229  11.706   1.798   4.457  0.2008  1.0270  0.1748
  256MOL0     C35230  11.753   1.902   4.554  0.3304 -0.7185  0.1055
  256MOL0     C35231  11.645   1.937   4.657  0.1245  0.2215  0.6100
  256MOL0     C35232  11.500   1.953   4.608 -0.0007  0.3148 -0.2353
  256MOL0     C35233  11.423   2.039   4.709 -0.0477 -0.4631  0.2683
  256MOL0     C35234  11.283   2.062   4.675 -0.4520  0.3379 -0.4360
  256MOL0    Cl35235  11.229   2.182   4.782  0.2103  0.1767  0.0504
  256MOL0     C35236  11.777   2.032   4.000  0.8579 -0.4058 -0.0837
  256MOL0     C35237  11.740   2.103   3.877 -0.0357 -0.1326 -0.7944
  256MOL0     O35238  11.847   2.093   3.580 -0.2704  0.0951  0.2535
  256MOL0     C35239  11.808   2.247   3.359 -0.2361 -0.9270  0.6776
  256MOL0     C35240  11.796   2.315   3.239 -0.4638 -0.5117  0.0095
  256MOL0     N35241  11.786   2.284   2.505  0.0545  0.3946  0.6071
  256MOL0     N35242  11.827   2.345   2.401 -0.4141 -0.2570  0.4377
  256MOL0     C35243  11.441   1.844   1.606  0.2290 -0.0585  0.0396
  256MOL0     C35244  11.369   1.722   1.633  0.4869 -0.4495  0.8044
  256MOL0     C35245  11.271   1.305   1.650  0.1501 -0.5084  0.4099
  256MOL0     C35246  11.263   1.238   1.782  0.8999 -0.1370  0.5037
  256MOL0     C35247  11.221   1.104   1.802 -0.4620 -0.0128  0.4976
  256MOL0     C35248  11.191   1.022   1.689  0.0101 -0.1918 -0.1435
  256MOL0     O35249  11.163   0.890   1.712 -0.0332 -0.5070 -0.4477
  256MOL0     C35250  11.022   0.856   1.709  0.2314  0.0262 -1.0695
  256MOL0     C35251  10.977   0.853   1.862  0.1551  0.1519  0.7200
  256MOL0     C35252  11.058   0.761   1.957 -0.6280 -0.3792 -1.1295
  256MOL0     C35253  11.013   0.759   2.113 -0.0290  0.3803 -0.3717
  256MOL0     C35254  11.014   0.896   2.160  0.2095  0.5353 -0.5382
  256MOL0     C35255  11.007   1.016   2.202 -0.1798  0.4153  0.0723
  256MOL0     C35256  11.174   1.087   1.564  1.2204 -0.9732 -0.7610
  256MOL0     C35257  11.210   1.219   1.546 -0.3972 -1.0990 -0.1764
  256MOL0     C35258  11.188   1.267   1.405  0.5401  0.1786  0.0420
  256MOL0     H35259  11.569   1.607   1.882 -0.0264  0.8822  1.1518
  256MOL0     H35260  11.675   1.805   1.865 -0.9608 -0.8465 -0.0402
  256MOL0     H35261  11.749   2.029   1.824  0.7346 -1.9039 -2.5142
  256MOL0     H35262  11.578   2.086   1.848  0.4779  2.6976  0.4249
  256MOL0     H35263  11.810   2.193   1.666  0.4806  1.1112  1.7215
  256MOL0     H35264  11.654   2.234   1.637  2.4280  1.1520  0.0801
  256MOL0     H35265  11.765   2.289   1.908  2.2664  1.6170 -1.3308
  256MOL0     H35266  11.759   2.390   1.763  1.9851 -1.9179 -0.1495
  256MOL0     H35267  11.496   2.336   1.767 -1.2325  2.7392  1.1257
  256MOL0     H35268  11.530   2.289   1.930  1.4538 -2.2758 -0.3982
  256MOL0     H35269  11.455   2.532   1.916  0.4451 -0.6109  0.6344
  256MOL0     H35270  11.598   2.569   1.814 -1.9412 -4.4217 -3.5440
  256MOL0     H35271  11.750   2.551   1.984  0.7905 -0.7598 -0.4192
  256MOL0     H35272  11.617   2.650   2.037  1.7377  0.9178 -2.4157
  256MOL0     H35273  11.686   2.358   2.114  0.1152 -0.2379  0.6025
  256MOL0     H35274  11.539   2.429   2.162  0.7872 -3.1303 -0.3218
  256MOL0     H35275  11.819   2.543   2.219 -0.0816  1.5075 -0.3601
  256MOL0     H35276  11.666   2.600   2.291 -3.6115 -3.2030  2.6907
  256MOL0     H35277  11.517   2.458   2.458 -1.8080 -0.9686 -0.0110
  256MOL0     H35278  11.575   2.159   2.657 -2.0363  0.5172 -0.9212
  256MOL0     H35279  11.494   2.325   2.663  1.0314  2.7237 -0.9466
  256MOL0     H35280  11.604   2.233   2.883  1.5639  0.0768  1.4718
  256MOL0     H35281  11.754   2.215   2.798 -0.2806  0.7540 -0.0931
  256MOL0     H35282  11.776   2.455   2.758  1.9573 -2.7129  0.2079
  256MOL0     H35283  11.611   2.481   2.819  0.6565 -0.2985 -1.0284
  256MOL0     H35284  11.838   2.364   2.988 -0.8129 -0.9740 -1.9924
  256MOL0     H35285  11.773   2.536   2.993 -0.6748 -0.5381 -0.0123
  256MOL0     H35286  11.450   2.301   3.224  0.6305 -0.0983  0.8213
  256MOL0     H35287  11.362   2.146   3.372 -1.4143 -0.8647  2.3276
  256MOL0     H35288  11.404   2.240   3.508  0.1130  0.5136 -1.3358
  256MOL0     H35289  11.460   2.069   3.500  4.2083 -0.2895  0.0894
  256MOL0     H35290  11.636   1.844   3.682  0.5736 -0.1515 -0.1295
  256MOL0     H35291  11.688   1.715   3.872 -3.2827  0.8677 -0.0512
  256MOL0     H35292  11.940   1.882   4.226 -0.2360  0.0474 -1.9995
  256MOL0     H35293  11.780   1.943   4.260 -1.9194 -2.0733 -0.5902
  256MOL0     H35294  11.788   1.654   4.309  0.3934  0.5347 -0.1096
  256MOL0     H35295  11.916   1.737   4.393  0.1483 -3.7650 -1.6652
  256MOL0     H35296  11.657   1.716   4.510 -3.2382  2.0511 -1.1410
  256MOL0     H35297  11.629   1.852   4.401 -0.6630  2.0454  2.2402
  256MOL0     H35298  11.764   1.991   4.490 -3.7507 -0.1640 -0.0987
  256MOL0     H35299  11.844   1.874   4.608  0.9521  0.4714 -0.2964
  256MOL0     H35300  11.645   1.871   4.745 -0.8548  1.0669  1.2628
  256MOL0     H35301  11.675   2.029   4.707  3.3010 -1.1968  1.5942
  256MOL0     H35302  11.448   1.857   4.612 -2.1567  1.4316  0.5998
  256MOL0     H35303  11.499   1.992   4.506  0.4591 -0.0573 -0.3811
  256MOL0     H35304  11.477   2.133   4.724 -0.3289 -0.0623 -1.0480
  256MOL0     H35305  11.430   1.981   4.801  4.2996  2.9310  2.4108
  256MOL0     H35306  11.219   1.974   4.691  0.6827 -0.5472 -0.6516
  256MOL0     H35307  11.276   2.092   4.570 -0.6859  0.6864 -0.3208
  256MOL0     H35308  11.831   2.090   4.073  0.3650 -1.4043  1.1138
  256MOL0     H35309  11.765   2.208   3.867  0.2965  0.2824  2.9467
  256MOL0     H35310  11.909   2.233   3.396 -1.2066 -2.6365  2.9405
  256MOL0     H35311  11.878   2.350   3.177 -1.3030 -1.2694 -1.6014
  256MOL0     H35312  11.427   1.914   1.524 -1.5193 -1.0427 -0.5596
  256MOL0     H35313  11.278   1.693   1.581  0.9457 -0.7498  0.1503
  256MOL0     H35314  11.313   1.282   1.868  1.7921 -0.7918  0.3335
  256MOL0     H35315  11.215   1.062   1.902 -1.0371 -0.8161  0.1355
  256MOL0     H35316  10.956   0.909   1.640 -0.8217 -0.2075 -0.2706
  256MOL0     H35317  11.014   0.750   1.685 -0.0594 -1.0893  3.1225
  256MOL0     H35318  10.872   0.826   1.876 -0.7667  2.7654 -0.5037
  256MOL0     H35319  10.979   0.957   1.897  0.0308 -0.9904  4.6491
  256MOL0     H35320  11.060   0.660   1.917  3.0326 -2.2521  2.9390
  256MOL0     H35321  11.164   0.791   1.955 -1.7077  4.2901 -0.7417
  256MOL0     H35322  11.072   0.697   2.181  0.5251 -1.6188 -2.5464
  256MOL0     H35323  10.909   0.725   2.113  0.3170 -0.7213 -0.2243
  256MOL0     H35324  10.997   1.118   2.234 -0.4167  0.3756  0.1316
  256MOL0     H35325  11.141   1.020   1.486  1.6240 -1.3634 -0.5987
  256MOL0     H35326  11.155   1.371   1.394 -1.3916 -0.6356 -3.0085
  256MOL0     H35327  11.276   1.248   1.344 -2.2094 -1.9404 -3.6774
  256MOL0     H35328  11.098   1.216   1.371  0.8710 -0.9683  0.8438
  257MOL0     O35329   2.514   9.446   3.956  0.4700  0.3320 -0.1527
  257MOL0     C35330   2.616   9.488   4.010 -0.2842  0.3167 -0.0078
  257MOL0     O35331   2.637   9.498   4.141  0.7275 -0.7919 -0.1831
  257MOL0     C35332   2.533   9.489   4.236 -0.8503 -0.3086  0.9854
  257MOL0     C35333   2.535   9.398   4.335 -0.1641 -0.1677 -0.5403
  257MOL0     C35334   2.436   9.402   4.434 -0.1125  0.3868  0.4408
  257MOL0     C35335   2.340   9.509   4.444  0.5214  0.1313  0.2397
  257MOL0     O35336   2.253   9.507   4.549  0.4131 -0.2632 -0.0176
  257MOL0     C35337   2.161   9.617   4.580 -0.6146 -0.1192  0.3062
  257MOL0     C35338   2.007   9.579   4.587 -0.0166  0.2090 -1.1920
  257MOL0     C35339   1.990   9.466   4.683  0.6130  0.0987 -0.7795
  257MOL0     C35340   1.843   9.408   4.694 -0.0245  0.4404 -0.1368
  257MOL0     C35341   1.735   9.511   4.713  0.4782  0.2953 -0.0474
  257MOL0     C35342   1.613   9.443   4.772 -0.2222 -0.1018 -0.6685
  257MOL0     C35343   1.523   9.367   4.670 -0.2314 -0.4220  0.8648
  257MOL0     C35344   1.399   9.303   4.736 -0.2534  0.6394 -0.0901
  257MOL0     N35345   1.302   9.228   4.648 -0.5888 -0.9796 -0.8798
  257MOL0     C35346   1.320   9.167   4.520  0.5499  0.5410 -1.2241
  257MOL0     C35347   1.217   9.089   4.499  0.6680 -0.9324  0.2245
  257MOL0     C35348   1.182   9.008   4.374 -0.2747 -0.0158 -0.8559
  257MOL0     C35349   1.139   9.110   4.261 -0.7805  0.2470  0.6563
  257MOL0     C35350   1.092   9.056   4.124  0.7333 -0.4470 -0.7788
  257MOL0     C35351   0.956   8.990   4.144 -0.5298  0.2021 -0.0836
  257MOL0     O35352   0.851   9.086   4.140  1.1060 -0.6615  0.6796
  257MOL0     C35353   0.720   9.045   4.148 -0.3980  0.6274  0.3275
  257MOL0     C35354   0.682   8.923   4.211  0.3229 -0.1022  0.4459
  257MOL0     C35355   0.551   8.885   4.220  0.1682  0.1590 -0.0860
  257MOL0     C35356   0.531   8.754   4.309 -0.7135  0.3785  0.3745
  257MOL0     C35357   0.446   8.962   4.168  0.9198  0.2299 -0.1175
  257MOL0     C35358   0.298   8.926   4.178  0.1400 -0.0763 -0.0669
  257MOL0     O35359   0.202   9.021   4.182  0.4709 -0.0511 -0.1192
  257MOL0     C35360   0.072   8.994   4.209  0.2681  0.4030 -0.6465
  257MOL0     C35361  -0.004   8.913   4.119 -0.0354 -0.0865  0.1476
  257MOL0     C35362  -0.131   8.872   4.152  0.2304  0.2056  0.0876
  257MOL0     C35363  -0.195   8.926   4.266 -0.6015  0.0272  0.2699
  257MOL0     O35364  -0.330   8.910   4.287 -0.9613  0.6586 -0.9502
  257MOL0     C35365  -0.403   8.818   4.211  1.0662 -0.8089  0.3936
  257MOL0     C35366  -0.541   8.811   4.291 -0.3299 -0.4747 -0.8241
  257MOL0     C35367  -0.628   8.685   4.234  1.0547  0.3882 -0.8903
  257MOL0     C35368  -0.768   8.677   4.310  0.5547 -0.5581  0.5609
  257MOL0     C35369  -0.825   8.533   4.301  0.3399 -0.3113 -0.3653
  257MOL0     C35370  -0.969   8.534   4.355 -0.5491 -0.5786  0.6374
  257MOL0     C35371  -1.019   8.390   4.351 -0.6469 -0.0383 -0.7708
  257MOL0     C35372  -1.173   8.406   4.354 -0.0998  0.0118 -0.0279
  257MOL0    Cl35373  -1.216   8.413   4.170  0.0920  0.0602 -0.2192
  257MOL0     C35374  -0.129   9.024   4.341  0.6131 -0.0932 -0.1807
  257MOL0     C35375   0.009   9.050   4.323  0.2186 -0.2138  0.0108
  257MOL0     O35376   0.277   8.807   4.195 -0.5144 -0.1178  0.6956
  257MOL0     C35377   0.482   9.080   4.112  0.6422  0.5726 -0.7241
  257MOL0     C35378   0.619   9.129   4.101 -0.0062 -0.1285 -0.2539
  257MOL0     N35379   1.125   9.126   4.596 -0.5681 -0.0839 -0.4209
  257MOL0     N35380   1.180   9.207   4.688 -0.7811 -0.4861 -0.1562
  257MOL0     C35381   2.342   9.598   4.337  0.0809  0.0647  0.2355
  257MOL0     C35382   2.430   9.586   4.234 -0.6882  0.1509  0.1764
  257MOL0     C35383   2.732   9.523   3.931  0.1555  0.1854  0.3712
  257MOL0     C35384   2.841   9.586   3.997  0.1082 -0.7826  0.2269
  257MOL0     C35385   2.957   9.621   3.928 -0.0336 -0.2643  0.0359
  257MOL0     C35386   2.984   9.582   3.801 -0.2060  0.8365 -0.4323
  257MOL0     O35387   3.105   9.626   3.757  0.1330 -0.1316 -0.1399
  257MOL0     C35388   3.136   9.571   3.628  0.5297 -0.6247  0.3286
  257MOL0     C35389   3.276   9.613   3.588 -0.2845  0.5535  0.1733
  257MOL0     C35390   3.303   9.764   3.602  0.2337  0.0664  0.0997
  257MOL0     C35391   3.445   9.791   3.653 -0.7077 -0.9190  0.2456
  257MOL0     C35392   3.535   9.756   3.540  1.0964  0.1891  0.2443
  257MOL0     C35393   3.611   9.723   3.448  0.0384 -0.3266  0.6209
  257MOL0     C35394   2.886   9.503   3.744  0.4962 -0.5812 -0.2616
  257MOL0     C35395   2.758   9.483   3.800 -0.1001  1.1922  0.4397
  257MOL0     C35396   2.661   9.394   3.721  0.0485  0.3546 -0.3297
  257MOL0     H35397   2.612   9.323   4.349  0.8461  1.0118  0.3947
  257MOL0     H35398   2.441   9.334   4.518  1.2890  2.0973  1.8383
  257MOL0     H35399   2.171   9.694   4.504  1.2905 -3.0277 -2.6568
  257MOL0     H35400   2.197   9.652   4.677 -0.6129  0.0658  0.2379
  257MOL0     H35401   1.959   9.672   4.620  0.0257  0.1636 -1.0055
  257MOL0     H35402   1.971   9.551   4.487  1.0639 -1.5038 -1.1297
  257MOL0     H35403   2.057   9.383   4.660 -0.5259 -2.4844  3.7873
  257MOL0     H35404   2.021   9.498   4.783 -1.4785 -0.2145  0.0213
  257MOL0     H35405   1.821   9.342   4.609 -1.4933  2.2747 -1.2580
  257MOL0     H35406   1.848   9.349   4.786  1.3650  1.8463  0.7513
  257MOL0     H35407   1.721   9.563   4.618  0.8719  0.3639 -0.0707
  257MOL0     H35408   1.774   9.585   4.783  1.8457 -1.7873  1.5074
  257MOL0     H35409   1.638   9.372   4.852  0.2118  1.1343  0.3249
  257MOL0     H35410   1.548   9.521   4.812 -0.4882  0.0779 -1.4369
  257MOL0     H35411   1.578   9.292   4.612 -1.0280  0.1579 -0.6985
  257MOL0     H35412   1.475   9.435   4.599  2.8385 -1.2620 -2.2675
  257MOL0     H35413   1.423   9.234   4.817 -2.8281 -0.3150 -0.0281
  257MOL0     H35414   1.349   9.387   4.786 -0.3373  0.5921 -0.0943
  257MOL0     H35415   1.402   9.176   4.449  0.9622  3.7462 -0.5186
  257MOL0     H35416   1.100   8.944   4.408  0.3162 -0.6746 -0.6455
  257MOL0     H35417   1.276   8.956   4.353  0.3124  0.3407  0.7331
  257MOL0     H35418   1.066   9.185   4.296  0.2077  1.0660  1.0368
  257MOL0     H35419   1.230   9.166   4.236  1.0628 -2.4576  0.9259
  257MOL0     H35420   1.065   9.141   4.060 -1.0407  0.2517  0.8172
  257MOL0     H35421   1.169   8.993   4.079  2.5237  1.5517 -0.6800
  257MOL0     H35422   0.936   8.918   4.064  0.6322 -0.0349 -0.1825
  257MOL0     H35423   0.957   8.930   4.235  0.8474  0.1022 -0.1370
  257MOL0     H35424   0.756   8.850   4.242  0.9815 -0.5665 -2.0159
  257MOL0     H35425   0.431   8.750   4.353 -0.1497  2.8309  2.1202
  257MOL0     H35426   0.603   8.747   4.390 -1.2669  1.4610  0.9852
  257MOL0     H35427   0.547   8.668   4.243  1.0417  0.7867  0.2225
  257MOL0     H35428   0.057   8.869   4.041 -0.6058  0.2259 -0.4784
  257MOL0     H35429  -0.188   8.797   4.099  0.6211  1.1971 -1.8704
  257MOL0     H35430  -0.413   8.860   4.111  0.6824 -1.4675  0.1480
  257MOL0     H35431  -0.350   8.723   4.194  1.3331 -0.4015 -1.1869
  257MOL0     H35432  -0.522   8.795   4.398 -1.3488 -0.5502 -0.6484
  257MOL0     H35433  -0.592   8.908   4.290 -1.6299 -0.7928  4.2860
  257MOL0     H35434  -0.572   8.595   4.260  0.4222  0.1902 -0.1583
  257MOL0     H35435  -0.649   8.689   4.127 -4.5077  2.3510 -0.0543
  257MOL0     H35436  -0.832   8.762   4.287  1.4740  0.6677  2.2454
  257MOL0     H35437  -0.742   8.696   4.415  1.7408 -1.7694  0.5278
  257MOL0     H35438  -0.818   8.514   4.193  4.4549 -0.0100 -0.3080
  257MOL0     H35439  -0.759   8.463   4.353  2.6335  0.5803 -1.9362
  257MOL0     H35440  -1.033   8.604   4.301  1.5283  1.6600  0.9388
  257MOL0     H35441  -0.960   8.562   4.460  2.8574 -0.9968  0.5721
  257MOL0     H35442  -0.985   8.335   4.440  1.4886 -0.4717 -1.7976
  257MOL0     H35443  -0.986   8.335   4.263  0.6025  0.3700 -0.5718
  257MOL0     H35444  -1.205   8.504   4.392 -3.7793 -0.0170 -2.5367
  257MOL0     H35445  -1.214   8.326   4.417  0.5559  0.4499  0.9855
  257MOL0     H35446  -0.179   9.067   4.427 -1.0805 -0.8452 -0.7522
  257MOL0     H35447   0.053   9.111   4.401 -0.0257 -1.1964  0.9404
  257MOL0     H35448   0.399   9.133   4.066 -1.6982 -0.9372  1.5037
  257MOL0     H35449   0.637   9.233   4.074 -0.9047  0.3581  0.9281
  257MOL0     H35450   2.276   9.683   4.331  1.8349  1.4214 -3.6021
  257MOL0     H35451   2.432   9.656   4.152  0.0966  2.9196  2.4071
  257MOL0     H35452   2.837   9.632   4.095  2.1321  3.6003 -1.4796
  257MOL0     H35453   3.043   9.674   3.968 -1.7150  3.3455 -0.7639
  257MOL0     H35454   3.126   9.462   3.619 -1.1302 -0.6910  2.1261
  257MOL0     H35455   3.066   9.621   3.560  0.8175  2.9944  2.4473
  257MOL0     H35456   3.296   9.580   3.486  1.1491  1.1526  0.2364
  257MOL0     H35457   3.339   9.556   3.657  1.9059  2.8087  0.1904
  257MOL0     H35458   3.266   9.806   3.508 -3.9534 -3.7126 -0.2965
  257MOL0     H35459   3.234   9.800   3.679 -0.9781 -0.2588 -0.8052
  257MOL0     H35460   3.473   9.738   3.744  2.0558  0.8948  0.5680
  257MOL0     H35461   3.458   9.898   3.670 -2.6394 -0.6473  0.2667
  257MOL0     H35462   3.692   9.703   3.381  0.3121 -0.6744  1.0520
  257MOL0     H35463   2.897   9.464   3.643 -0.3354  0.3347 -0.7345
  257MOL0     H35464   2.687   9.368   3.618 -3.7552  2.4649 -2.0318
  257MOL0     H35465   2.634   9.303   3.775  3.2501  0.3408  1.5286
  257MOL0     H35466   2.570   9.449   3.696 -0.1101 -0.5900 -1.9648
  258MOL0     O35467   5.742   2.905   8.049 -0.1041  0.1791  0.4182
  258MOL0     C35468   5.735   2.873   8.172 -0.9269 -0.0316 -0.3610
  258MOL0     O35469   5.662   2.774   8.223  0.3826 -0.2413 -0.6726
  258MOL0     C35470   5.615   2.676   8.144 -0.1689  0.8131  0.8133
  258MOL0     C35471   5.481   2.656   8.128  0.3261  0.4072  0.2775
  258MOL0     C35472   5.430   2.560   8.040 -0.8307  0.6831 -0.1888
  258MOL0     C35473   5.511   2.473   7.972 -0.0339 -0.1680 -0.1799
  258MOL0     O35474   5.463   2.358   7.902 -0.7803  0.2211  0.2791
  258MOL0     C35475   5.353   2.283   7.966 -0.7823 -0.2951  1.6544
  258MOL0     C35476   5.370   2.133   7.937  0.7022 -0.1097  0.0045
  258MOL0     C35477   5.495   2.080   7.997 -0.3978  0.6881 -0.0380
  258MOL0     C35478   5.477   1.928   8.040  0.5771 -0.1727 -0.2744
  258MOL0     C35479   5.614   1.873   8.083  0.5479 -0.2181  0.2120
  258MOL0     C35480   5.607   1.746   8.169 -0.1579  0.0355 -0.4407
  258MOL0     C35481   5.602   1.762   8.317  0.7241  0.5858 -0.4630
  258MOL0     C35482   5.475   1.704   8.375  0.2512  0.6923 -0.1316
  258MOL0     N35483   5.475   1.696   8.518  0.1035 -0.2655 -0.3096
  258MOL0     C35484   5.437   1.805   8.601 -0.7204 -0.2033  0.4649
  258MOL0     C35485   5.486   1.770   8.718  0.7788  0.2311 -0.0979
  258MOL0     C35486   5.495   1.869   8.837 -0.6048  0.5714 -0.2145
  258MOL0     C35487   5.634   1.947   8.833  0.4046  0.4724 -0.0018
  258MOL0     C35488   5.638   2.057   8.934 -0.5533  0.5097  0.4736
  258MOL0     C35489   5.787   2.107   8.951  0.0220 -0.4477  0.1082
  258MOL0     O35490   5.783   2.220   9.044 -0.1447  0.1444  0.5966
  258MOL0     C35491   5.893   2.298   9.077  0.8109 -0.6236  0.0842
  258MOL0     C35492   5.884   2.387   9.181 -0.0563 -0.1735 -1.0872
  258MOL0     C35493   5.991   2.467   9.220  0.1093  0.6619 -0.0223
  258MOL0     C35494   5.971   2.548   9.341  0.3615  0.2706 -0.0485
  258MOL0     C35495   6.121   2.463   9.150  0.1458  0.1371  0.1715
  258MOL0     C35496   6.242   2.553   9.169  0.1920 -0.9096 -0.4607
  258MOL0     O35497   6.350   2.524   9.100 -0.0253 -0.0851 -0.8113
  258MOL0     C35498   6.456   2.608   9.090  0.1215 -0.3193  0.8345
  258MOL0     C35499   6.493   2.654   8.962  0.3960  0.1178 -0.2156
  258MOL0     C35500   6.594   2.748   8.943  0.3738  0.7133 -0.4433
  258MOL0     C35501   6.647   2.814   9.054 -0.2926  0.0797 -0.8279
  258MOL0     O35502   6.747   2.907   9.047  0.3401  0.1017  0.2146
  258MOL0     C35503   6.715   3.033   9.113 -0.4896  0.9032  0.7199
  258MOL0     C35504   6.842   3.122   9.124  0.1631  0.1913 -0.0705
  258MOL0     C35505   6.813   3.264   9.175  0.1287  0.5832  0.1076
  258MOL0     C35506   6.783   3.271   9.329 -0.5310 -0.1356  0.1086
  258MOL0     C35507   6.774   3.422   9.379 -0.9300  0.0013 -0.0211
  258MOL0     C35508   6.790   3.436   9.528  0.3298  0.2724 -0.8118
  258MOL0     C35509   6.941   3.421   9.570 -0.0641  0.6906  0.7063
  258MOL0     C35510   6.974   3.410   9.716 -0.6955  0.4638 -1.2091
  258MOL0    Cl35511   6.933   3.251   9.781 -0.2680 -0.1800  0.2744
  258MOL0     C35512   6.605   2.772   9.182 -0.2944  0.3982 -0.0522
  258MOL0     C35513   6.509   2.673   9.203  0.4881 -0.1050  0.4824
  258MOL0     O35514   6.220   2.666   9.226  0.2640  0.2842  0.7801
  258MOL0     C35515   6.124   2.368   9.041  0.6715 -0.3758 -0.0153
  258MOL0     C35516   6.015   2.290   9.011  0.4085 -0.0952  0.2385
  258MOL0     N35517   5.546   1.640   8.719  0.6445 -0.1852  0.3421
  258MOL0     N35518   5.536   1.600   8.597 -0.5648  0.0507 -0.1494
  258MOL0     C35519   5.649   2.494   7.970 -0.5991  0.7020  0.3069
  258MOL0     C35520   5.698   2.589   8.066  0.1546 -0.2803  0.3920
  258MOL0     C35521   5.824   2.946   8.272 -0.1696 -0.5375 -0.1430
  258MOL0     C35522   5.802   2.916   8.405  0.4028 -1.2381  0.2733
  258MOL0     C35523   5.879   2.967   8.504  0.1190  0.1020  0.0629
  258MOL0     C35524   5.973   3.068   8.478 -0.6012 -0.2204  0.1454
  258MOL0     O35525   6.073   3.110   8.565  0.1596 -0.6650  0.3774
  258MOL0     C35526   6.083   3.042   8.684 -0.0514  1.0025  0.3448
  258MOL0     C35527   6.226   3.068   8.734  0.5864  0.5613 -0.3760
  258MOL0     C35528   6.240   3.039   8.882  0.3931  0.4080 -1.1253
  258MOL0     C35529   6.392   3.065   8.919  0.3335 -0.0173 -0.3523
  258MOL0     C35530   6.433   3.209   8.929  0.1668 -0.3996 -0.4673
  258MOL0     C35531   6.455   3.327   8.931 -0.1542  0.6573  0.0418
  258MOL0     C35532   5.989   3.110   8.348  0.8525  0.1672  0.3365
  258MOL0     C35533   5.914   3.049   8.239 -0.4233  1.2543  0.1640
  258MOL0     C35534   5.963   3.092   8.095  0.9598 -0.0281  0.6046
  258MOL0     H35535   5.414   2.721   8.183  0.1013  1.1502 -0.8331
  258MOL0     H35536   5.322   2.551   8.032 -0.9087  0.0993  1.2403
  258MOL0     H35537   5.258   2.314   7.920 -0.9902 -1.6406  1.1405
  258MOL0     H35538   5.353   2.295   8.074  1.2517  1.5361  1.5143
  258MOL0     H35539   5.280   2.084   7.975  0.8847 -3.3133 -3.1125
  258MOL0     H35540   5.368   2.126   7.827 -1.3772  2.2079 -0.1915
  258MOL0     H35541   5.577   2.082   7.926 -1.5859 -1.0760 -1.5487
  258MOL0     H35542   5.530   2.133   8.087  2.1510 -1.4760  0.3515
  258MOL0     H35543   5.396   1.916   8.113 -1.3675  0.7021 -2.1694
  258MOL0     H35544   5.444   1.868   7.954 -1.9207  0.1388  0.3805
  258MOL0     H35545   5.684   1.947   8.121  0.9730  1.8334 -4.0085
  258MOL0     H35546   5.675   1.843   7.997  1.0506  2.0622 -0.2976
  258MOL0     H35547   5.525   1.679   8.140 -0.6846  0.5984 -0.2769
  258MOL0     H35548   5.704   1.699   8.148  1.3008  1.5765  2.3388
  258MOL0     H35549   5.608   1.865   8.352  0.5575 -0.5348  3.2787
  258MOL0     H35550   5.695   1.715   8.353 -0.0685  0.4866  1.5817
  258MOL0     H35551   5.378   1.747   8.349 -1.8539 -3.4057  0.2139
  258MOL0     H35552   5.480   1.601   8.340  1.6102  1.0015 -0.8989
  258MOL0     H35553   5.384   1.895   8.573 -5.0966 -2.0847  1.8265
  258MOL0     H35554   5.493   1.794   8.917 -0.0855 -0.9934 -1.6114
  258MOL0     H35555   5.408   1.935   8.832 -1.7087 -0.8641 -0.7813
  258MOL0     H35556   5.708   1.870   8.854 -3.3840 -3.3222  0.8534
  258MOL0     H35557   5.639   1.979   8.729 -0.7768 -0.8942 -0.5090
  258MOL0     H35558   5.557   2.123   8.901 -0.1274  0.4326 -0.7982
  258MOL0     H35559   5.602   2.008   9.025  0.1563  2.3137  1.7832
  258MOL0     H35560   5.859   2.029   8.978  0.2924 -0.3063 -0.1952
  258MOL0     H35561   5.829   2.145   8.857  2.4605 -1.8589  0.5534
  258MOL0     H35562   5.790   2.383   9.235  1.5036 -1.2645  1.7832
  258MOL0     H35563   5.892   2.623   9.328  1.7218  2.1567  1.8116
  258MOL0     H35564   6.060   2.600   9.379  1.0085  1.3777 -2.7982
  258MOL0     H35565   5.932   2.477   9.414  0.8901 -1.9226 -1.8122
  258MOL0     H35566   6.448   2.612   8.873 -0.7960 -1.5191  1.1002
  258MOL0     H35567   6.628   2.781   8.846 -0.2870 -1.3601 -1.4253
  258MOL0     H35568   6.640   3.085   9.053 -2.0692 -2.0948 -0.0769
  258MOL0     H35569   6.666   3.021   9.210  0.4717 -3.2112  0.8831
  258MOL0     H35570   6.900   3.075   9.204  0.0588  0.7903  0.3717
  258MOL0     H35571   6.895   3.133   9.029 -0.9578 -0.1269 -0.7490
  258MOL0     H35572   6.727   3.305   9.121 -1.9627 -2.6956  0.6625
  258MOL0     H35573   6.902   3.328   9.173 -0.7569  1.8301 -0.6202
  258MOL0     H35574   6.858   3.222   9.391 -0.5818  1.7015  1.7207
  258MOL0     H35575   6.684   3.231   9.353 -0.9819  1.8871  1.9112
  258MOL0     H35576   6.847   3.485   9.327  1.3774 -2.2213  0.3173
  258MOL0     H35577   6.672   3.458   9.366 -1.5822 -0.9897  1.9009
  258MOL0     H35578   6.735   3.355   9.577  0.1771  0.3676 -0.8247
  258MOL0     H35579   6.756   3.535   9.561 -0.5947  0.2942 -1.7554
  258MOL0     H35580   6.993   3.509   9.532  1.0223  0.8638  2.4607
  258MOL0     H35581   6.982   3.340   9.510 -0.9568 -1.4713  2.8298
  258MOL0     H35582   6.916   3.490   9.763 -2.4639  0.3075 -2.9585
  258MOL0     H35583   7.079   3.439   9.718 -0.6532  0.3088 -1.2100
  258MOL0     H35584   6.666   2.805   9.265 -2.2006  1.2943  1.0413
  258MOL0     H35585   6.472   2.639   9.300 -4.0265  0.4424 -0.8095
  258MOL0     H35586   6.207   2.364   8.971  2.3324 -0.8654  1.8922
  258MOL0     H35587   6.025   2.235   8.918 -1.6593  1.4748 -0.9860
  258MOL0     H35588   5.725   2.439   7.915  3.0183  4.1470  1.3504
  258MOL0     H35589   5.805   2.597   8.078  0.8820 -3.1190 -2.6745
  258MOL0     H35590   5.727   2.844   8.436  0.4277 -1.3914 -0.0246
  258MOL0     H35591   5.866   2.932   8.606 -2.9090  2.1069  0.4917
  258MOL0     H35592   6.003   3.087   8.743 -1.4424  1.1090 -1.5269
  258MOL0     H35593   6.069   2.934   8.676  1.4125  0.9521 -3.3052
  258MOL0     H35594   6.252   3.173   8.716 -0.5927  0.6908 -1.5075
  258MOL0     H35595   6.284   3.004   8.668  1.5125  1.7238 -0.7281
  258MOL0     H35596   6.174   3.101   8.943  1.1248 -2.3314  2.8284
  258MOL0     H35597   6.217   2.935   8.907 -1.7718  1.1604  0.2958
  258MOL0     H35598   6.453   3.015   8.843  1.8716 -0.8877  1.3785
  258MOL0     H35599   6.408   3.014   9.014  0.6406  1.1098  0.2113
  258MOL0     H35600   6.449   3.434   8.935  0.3859  0.8144 -2.2308
  258MOL0     H35601   6.060   3.189   8.325 -0.7711  0.9897 -2.1843
  258MOL0     H35602   6.004   3.194   8.104 -2.7197  1.7338 -0.5973
  258MOL0     H35603   6.051   3.040   8.058  0.6615  0.7222 -1.2514
  258MOL0     H35604   5.892   3.087   8.012  0.1530  1.6321  1.1437
  259MOL0     O35605   1.454   7.007   2.448 -0.3816  0.0921 -0.1226
  259MOL0     C35606   1.376   7.080   2.496  0.2222 -0.7105  0.4230
  259MOL0     O35607   1.370   7.220   2.490 -0.3534  1.0487  0.4278
  259MOL0     C35608   1.485   7.281   2.439  0.1696 -0.5318  0.6837
  259MOL0     C35609   1.610   7.263   2.497  0.5667  0.1022  0.0817
  259MOL0     C35610   1.729   7.322   2.446 -0.6048  0.7081 -0.1045
  259MOL0     C35611   1.720   7.420   2.356  0.7327 -0.2919  0.3464
  259MOL0     O35612   1.830   7.490   2.334 -0.3100 -0.3611  0.2023
  259MOL0     C35613   1.824   7.626   2.370  0.1529 -0.4733 -0.6632
  259MOL0     C35614   1.959   7.662   2.314 -0.6049 -0.2207  0.0896
  259MOL0     C35615   2.066   7.644   2.421  0.2397  0.2580  0.1959
  259MOL0     C35616   2.136   7.513   2.441  0.2155  0.2799  0.4586
  259MOL0     C35617   2.260   7.533   2.522 -0.4250 -0.0146 -0.2418
  259MOL0     C35618   2.234   7.543   2.671  0.1507 -0.1922 -0.1000
  259MOL0     C35619   2.367   7.564   2.747  0.6054  0.4544 -0.2757
  259MOL0     C35620   2.461   7.442   2.749  0.1668 -0.9445 -0.0387
  259MOL0     N35621   2.590   7.458   2.816 -0.1919  0.4021 -1.0987
  259MOL0     C35622   2.701   7.371   2.828 -0.2707 -0.3220  0.1505
  259MOL0     C35623   2.762   7.404   2.954  1.2139  0.9272  1.0789
  259MOL0     C35624   2.870   7.327   3.026  0.4884 -0.4179  0.4933
  259MOL0     C35625   3.016   7.375   2.991  0.7447 -0.0233  0.0937
  259MOL0     C35626   3.123   7.269   2.964 -0.9248  0.5611 -0.1954
  259MOL0     C35627   3.106   7.200   2.829 -1.1528 -0.1110  0.0291
  259MOL0     O35628   3.011   7.100   2.846  0.3187 -0.3206  0.4302
  259MOL0     C35629   2.957   7.041   2.731 -0.1144  0.1758 -0.9251
  259MOL0     C35630   2.826   7.002   2.746 -0.2424  0.0315 -0.0911
  259MOL0     C35631   2.757   6.938   2.644 -0.9929 -0.0129  0.2099
  259MOL0     C35632   2.603   6.915   2.668  0.4928 -0.3608 -0.1504
  259MOL0     C35633   2.834   6.893   2.531 -0.1947 -0.3559  0.2774
  259MOL0     C35634   2.780   6.821   2.415  0.0981  0.1155  0.6041
  259MOL0     O35635   2.651   6.773   2.414  0.4924  0.1526 -0.1483
  259MOL0     C35636   2.581   6.706   2.312  0.3433  0.2050  0.1976
  259MOL0     C35637   2.450   6.749   2.298  0.2913 -0.0287  0.9323
  259MOL0     C35638   2.367   6.687   2.210  1.1202  0.0744  0.3772
  259MOL0     C35639   2.409   6.590   2.120 -0.2348  0.4442  0.3362
  259MOL0     O35640   2.323   6.534   2.034 -0.5769  0.1199  0.1634
  259MOL0     C35641   2.286   6.401   2.071  0.1348  0.5819  0.4236
  259MOL0     C35642   2.218   6.336   1.945  0.2696  0.5793  1.1176
  259MOL0     C35643   2.316   6.275   1.838  0.3894  0.0876  1.1093
  259MOL0     C35644   2.348   6.374   1.725 -0.0789  0.6383  0.0997
  259MOL0     C35645   2.453   6.324   1.631  0.0818 -0.2031  0.1000
  259MOL0     C35646   2.593   6.297   1.697  0.4550 -0.5237 -0.2977
  259MOL0     C35647   2.703   6.292   1.600 -0.1658 -0.3306  0.8027
  259MOL0     C35648   2.831   6.215   1.649 -0.3095  0.8271  0.1219
  259MOL0    Cl35649   2.776   6.041   1.670 -0.2661 -0.1637  0.0734
  259MOL0     C35650   2.540   6.554   2.132 -0.2013  0.0178 -1.0113
  259MOL0     C35651   2.626   6.609   2.224 -0.2678  0.8736 -0.1660
  259MOL0     O35652   2.852   6.799   2.319  0.0301 -0.5590  0.1991
  259MOL0     C35653   2.966   6.930   2.526 -1.6021 -0.1345  0.6063
  259MOL0     C35654   3.033   7.015   2.617  0.6413  0.8198  0.5138
  259MOL0     N35655   2.707   7.520   3.000  0.0792 -0.1012 -0.3972
  259MOL0     N35656   2.605   7.547   2.925 -0.4355 -0.4187 -0.1267
  259MOL0     C35657   1.588   7.453   2.304 -0.0032  0.2533  0.2279
  259MOL0     C35658   1.476   7.378   2.343 -0.1137  0.5415  0.4873
  259MOL0     C35659   1.266   7.016   2.552  0.0604 -0.8223  0.0619
  259MOL0     C35660   1.212   7.077   2.669  0.0963 -0.3496  0.2679
  259MOL0     C35661   1.104   7.014   2.738 -0.5332  0.3671  0.2246
  259MOL0     C35662   1.039   6.902   2.686  1.3221 -0.4056 -0.7439
  259MOL0     O35663   0.942   6.846   2.767 -0.9685 -0.6880 -0.1578
  259MOL0     C35664   0.867   6.730   2.724 -0.5531  0.0696 -0.1358
  259MOL0     C35665   0.746   6.784   2.640  0.2559  0.7289  0.0385
  259MOL0     C35666   0.621   6.716   2.676  0.5537  0.4057  0.9831
  259MOL0     C35667   0.511   6.758   2.588 -0.2365  0.4222  0.2602
  259MOL0     C35668   0.387   6.702   2.630 -0.1037 -0.4502 -0.5728
  259MOL0     C35669   0.288   6.656   2.677 -0.0896 -0.1987  0.3552
  259MOL0     C35670   1.099   6.842   2.572 -0.3370  0.2582  0.2349
  259MOL0     C35671   1.202   6.899   2.496  0.0835 -0.4550 -1.0602
  259MOL0     C35672   1.250   6.830   2.371 -0.4471 -0.1517  0.0310
  259MOL0     H35673   1.625   7.181   2.567  1.2120  0.5247  0.4518
  259MOL0     H35674   1.818   7.306   2.507 -1.7625  0.0127  1.4647
  259MOL0     H35675   1.814   7.635   2.478  0.9197 -3.5676 -0.2313
  259MOL0     H35676   1.739   7.680   2.326 -1.1284  0.6089  2.8498
  259MOL0     H35677   1.984   7.615   2.218 -2.4221  0.9333 -1.0117
  259MOL0     H35678   1.965   7.769   2.293  2.1342 -0.3348 -0.0269
  259MOL0     H35679   2.142   7.715   2.387 -2.2417  2.2231 -1.7831
  259MOL0     H35680   2.021   7.672   2.517  0.4628 -4.0720  1.7507
  259MOL0     H35681   2.068   7.442   2.490 -0.9094  0.6877 -0.4524
  259MOL0     H35682   2.153   7.472   2.341  1.3543  1.3032  0.2152
  259MOL0     H35683   2.313   7.622   2.486  0.9140 -0.5121  0.4182
  259MOL0     H35684   2.328   7.448   2.509  1.5956  1.5880 -0.6436
  259MOL0     H35685   2.176   7.634   2.689  1.2787  0.4614  0.3350
  259MOL0     H35686   2.176   7.456   2.704 -0.2100 -0.4025 -1.2622
  259MOL0     H35687   2.326   7.582   2.846  2.3457 -2.9128  1.2231
  259MOL0     H35688   2.429   7.649   2.715  2.4449 -0.2256  1.2704
  259MOL0     H35689   2.412   7.362   2.804 -0.4672 -2.4038 -2.5881
  259MOL0     H35690   2.493   7.407   2.650  1.6629  3.6940 -1.5034
  259MOL0     H35691   2.731   7.283   2.773  2.3152  1.0383 -0.7588
  259MOL0     H35692   2.853   7.220   3.014  0.2404 -0.3090 -0.1252
  259MOL0     H35693   2.849   7.337   3.134 -3.6542  0.7359 -0.2228
  259MOL0     H35694   3.019   7.440   2.902  0.7095 -2.8797 -2.1486
  259MOL0     H35695   3.047   7.425   3.083 -0.6878 -1.5368  1.4462
  259MOL0     H35696   3.222   7.315   2.961  1.0471 -3.3025 -3.8861
  259MOL0     H35697   3.112   7.194   3.043 -1.1561  1.0902  0.2798
  259MOL0     H35698   3.059   7.270   2.759  0.7311 -0.4425 -1.6827
  259MOL0     H35699   3.205   7.171   2.790 -1.9357 -0.6836 -1.6311
  259MOL0     H35700   2.769   7.012   2.837 -0.5864  0.8886 -0.3821
  259MOL0     H35701   2.576   6.809   2.664 -2.7387  0.3353  0.8073
  259MOL0     H35702   2.545   6.977   2.600 -2.0086 -0.6456  1.5836
  259MOL0     H35703   2.570   6.949   2.767 -1.9238  0.2153 -1.0972
  259MOL0     H35704   2.421   6.830   2.364  0.6857  2.3365 -1.6040
  259MOL0     H35705   2.261   6.707   2.218  1.4377  1.4781  1.8229
  259MOL0     H35706   2.377   6.349   2.102 -0.4876  0.5867  2.4103
  259MOL0     H35707   2.220   6.403   2.158 -0.2871 -0.7231  0.1507
  259MOL0     H35708   2.140   6.266   1.978 -0.9352  1.7293  0.8203
  259MOL0     H35709   2.159   6.415   1.899 -0.6682 -0.6060  0.2185
  259MOL0     H35710   2.271   6.183   1.800 -0.0666  0.7579 -0.0224
  259MOL0     H35711   2.410   6.242   1.883  1.9742  0.8143 -1.4103
  259MOL0     H35712   2.389   6.464   1.771  0.4436 -0.1343  1.1913
  259MOL0     H35713   2.253   6.397   1.676  0.4326  2.5573 -0.0569
  259MOL0     H35714   2.416   6.234   1.581 -0.1492  0.5950 -1.2234
  259MOL0     H35715   2.469   6.408   1.562  0.0553  1.8298  2.4312
  259MOL0     H35716   2.584   6.206   1.757 -0.4560  1.9086  3.6298
  259MOL0     H35717   2.618   6.371   1.773  3.3585 -1.7195  0.0208
  259MOL0     H35718   2.728   6.397   1.585 -1.1651 -0.2218 -0.1878
  259MOL0     H35719   2.663   6.255   1.506  1.7561  1.0614 -0.6300
  259MOL0     H35720   2.875   6.259   1.739 -0.1853 -0.6191  0.7952
  259MOL0     H35721   2.905   6.223   1.569  0.8992  0.0162  1.1220
  259MOL0     H35722   2.575   6.472   2.071 -1.9133  0.0851 -2.1486
  259MOL0     H35723   2.729   6.576   2.228  0.1424  2.0078 -0.7529
  259MOL0     H35724   3.028   6.914   2.439  0.0741 -0.3681  1.7995
  259MOL0     H35725   3.136   7.048   2.606  1.5746 -1.1810  2.4570
  259MOL0     H35726   1.563   7.538   2.241 -1.3342 -1.9899 -2.4625
  259MOL0     H35727   1.377   7.401   2.304 -0.9197  0.6003  2.4626
  259MOL0     H35728   1.254   7.164   2.719 -2.3702  0.2787  1.4270
  259MOL0     H35729   1.068   7.047   2.835 -0.2989  0.9431  0.1173
  259MOL0     H35730   0.931   6.664   2.664 -0.1804  1.6504 -1.5603
  259MOL0     H35731   0.837   6.686   2.819 -0.3948  1.5687  0.6410
  259MOL0     H35732   0.782   6.773   2.537 -0.6213 -2.3340 -0.0428
  259MOL0     H35733   0.729   6.890   2.661  0.7521  1.3367 -2.3376
  259MOL0     H35734   0.638   6.609   2.668 -0.1322  0.4084 -1.5189
  259MOL0     H35735   0.583   6.737   2.777 -3.7296 -1.0167 -0.0879
  259MOL0     H35736   0.529   6.715   2.489  1.0859 -0.1028  0.6993
  259MOL0     H35737   0.504   6.866   2.580 -0.3903  0.2543 -3.5845
  259MOL0     H35738   0.198   6.615   2.719 -1.2287  2.2807  0.4729
  259MOL0     H35739   1.060   6.748   2.534 -2.0248  2.2465 -3.4701
  259MOL0     H35740   1.339   6.770   2.391  0.1922  0.8677  0.3015
  259MOL0     H35741   1.175   6.772   2.316  0.3080 -3.2321  1.9809
  259MOL0     H35742   1.276   6.905   2.296  2.4961  0.3584  1.3977
  260MOL0     O35743   8.888  11.508  10.405 -0.1292  0.0235  0.3725
  260MOL0     C35744   8.844  11.494  10.288  0.3185  0.4712 -0.5582
  260MOL0     O35745   8.917  11.466  10.178  0.7815 -0.1028 -0.5101
  260MOL0     C35746   9.046  11.445  10.190  0.4754  0.6754  0.5504
  260MOL0     C35747   9.132  11.556  10.175  0.0906 -0.8589 -0.3537
  260MOL0     C35748   9.265  11.527  10.171 -1.1928 -0.0335  0.2615
  260MOL0     C35749   9.322  11.410  10.208  0.2165  0.7990  0.9081
  260MOL0     O35750   9.458  11.392  10.197  0.2872 -0.1403 -0.0507
  260MOL0     C35751   9.523  11.331  10.311 -0.0169  0.1131  1.0057
  260MOL0     C35752   9.671  11.355  10.312  0.0511  0.8087  0.5071
  260MOL0     C35753   9.705  11.507  10.289  0.0037 -0.0511 -0.0938
  260MOL0     C35754   9.839  11.524  10.347 -0.3184  0.3372  0.6414
  260MOL0     C35755   9.887  11.670  10.335  0.3956  0.9621  0.0996
  260MOL0     C35756   9.981  11.706  10.220  0.0023  0.0676 -0.8972
  260MOL0     C35757  10.022  11.849  10.214  0.6023 -0.0813 -0.2841
  260MOL0     C35758  10.087  11.870  10.085  1.3418 -0.0494 -0.2203
  260MOL0     N35759  10.117  12.015  10.068  0.4635 -0.4249 -1.3117
  260MOL0     C35760  10.031  12.105  10.014  0.2522  0.4740 -0.2737
  260MOL0     C35761  10.104  12.225  10.024 -0.7485 -0.7418 -0.1884
  260MOL0     C35762  10.059  12.366   9.991  0.3608 -0.4113 -0.4077
  260MOL0     C35763  10.173  12.466   9.955  0.5587  0.4271  0.1868
  260MOL0     C35764  10.258  12.405   9.839  0.2548 -0.2218 -0.3400
  260MOL0     C35765  10.365  12.489   9.776  0.8283  0.2574  0.1751
  260MOL0     O35766  10.454  12.520   9.882 -0.3775  0.3688 -0.2007
  260MOL0     C35767  10.565  12.592   9.856 -0.8668  0.5289  0.2033
  260MOL0     C35768  10.634  12.645   9.964  0.8117 -0.1450  0.3325
  260MOL0     C35769  10.756  12.718   9.946 -0.4949  0.0553 -0.0555
  260MOL0     C35770  10.811  12.758  10.078  0.0306  0.0299  0.1996
  260MOL0     C35771  10.798  12.747   9.816  0.6945  0.0554  0.3875
  260MOL0     C35772  10.931  12.816   9.793 -0.2209 -0.9976 -0.1451
  260MOL0     O35773  10.953  12.872   9.664 -0.0424  0.2094 -0.2281
  260MOL0     C35774  11.053  12.959   9.653 -0.1372 -0.1262 -0.2738
  260MOL0     C35775  11.164  12.901   9.588  0.5536 -0.2422 -0.2645
  260MOL0     C35776  11.275  12.983   9.577  0.1740 -0.5603 -1.0186
  260MOL0     C35777  11.279  13.107   9.636  0.2129 -0.0120 -0.3654
  260MOL0     O35778  11.386  13.193   9.620 -0.4474  0.2161 -0.0092
  260MOL0     C35779  11.389  13.313   9.701  0.1802  0.0802 -0.0245
  260MOL0     C35780  11.538  13.348   9.692  0.6470 -0.5717  0.5841
  260MOL0     C35781  11.614  13.246   9.776  0.4541  0.8049 -1.1234
  260MOL0     C35782  11.654  13.305   9.912  0.3974  0.9950  0.5628
  260MOL0     C35783  11.684  13.183  10.004  0.6773  0.1410  0.5411
  260MOL0     C35784  11.809  13.202  10.101 -0.3444 -0.9921 -0.3978
  260MOL0     C35785  11.943  13.212  10.029 -0.1932 -0.6935  0.5599
  260MOL0     C35786  12.057  13.158  10.119 -1.1442 -0.1906  0.1680
  260MOL0    Cl35787  12.068  13.264  10.273 -0.0212  0.1163  0.1616
  260MOL0     C35788  11.161  13.160   9.696  0.5465 -0.3752 -0.1949
  260MOL0     C35789  11.042  13.089   9.703 -0.4257  0.1747  0.4496
  260MOL0     O35790  11.018  12.818   9.889  0.3503 -0.3246  0.5360
  260MOL0     C35791  10.717  12.707   9.709  0.1678 -0.7177 -0.3024
  260MOL0     C35792  10.604  12.625   9.729 -1.0191 -0.3077  0.7266
  260MOL0     N35793  10.227  12.200  10.093  0.7448 -0.0021 -0.5895
  260MOL0     N35794  10.228  12.077  10.123  0.1117  0.1017 -0.0943
  260MOL0     C35795   9.236  11.303  10.220  0.4454 -0.4019  0.0779
  260MOL0     C35796   9.097  11.313  10.212 -0.1872 -0.1815 -0.5244
  260MOL0     C35797   8.697  11.499  10.276 -0.7910  0.2349  0.0429
  260MOL0     C35798   8.637  11.454  10.162 -0.0140  0.2019  0.5118
  260MOL0     C35799   8.504  11.469  10.138  0.6419  1.1943 -0.3076
  260MOL0     C35800   8.415  11.502  10.243 -0.5484 -0.4777 -0.1754
  260MOL0     O35801   8.279  11.505  10.208 -0.5853  0.0954 -0.2930
  260MOL0     C35802   8.177  11.520  10.309 -0.3311 -0.6326  0.0073
  260MOL0     C35803   8.049  11.463  10.261  0.0435  1.0665 -0.4215
  260MOL0     C35804   7.979  11.553  10.152 -0.5154 -0.7012 -0.4773
  260MOL0     C35805   7.853  11.494  10.084  0.5567  0.2902  0.1910
  260MOL0     C35806   7.799  11.604   9.995  0.6791  0.9294  0.2559
  260MOL0     C35807   7.744  11.692   9.926  0.2674  0.1571 -0.7426
  260MOL0     C35808   8.468  11.546  10.367 -1.7935 -0.6983 -0.5870
  260MOL0     C35809   8.607  11.541  10.382  0.3551 -0.9274 -0.0707
  260MOL0     C35810   8.647  11.619  10.503  0.2460  0.5831  0.3302
  260MOL0     H35811   9.091  11.652  10.147 -0.9162 -0.8651  0.9740
  260MOL0     H35812   9.332  11.610  10.151  0.7958 -1.7495 -0.4884
  260MOL0     H35813   9.490  11.227  10.313 -1.4090  0.4934 -0.3146
  260MOL0     H35814   9.477  11.362  10.405 -3.0526 -0.3534 -0.2184
  260MOL0     H35815   9.698  11.318  10.411 -1.6320 -0.9668  0.3579
  260MOL0     H35816   9.699  11.298  10.223 -1.0544  2.1147 -0.7365
  260MOL0     H35817   9.708  11.530  10.182 -1.1491  1.2561  0.1396
  260MOL0     H35818   9.625  11.564  10.337 -0.3571 -0.7597  0.1604
  260MOL0     H35819   9.835  11.496  10.453 -0.3736  2.8386  1.3562
  260MOL0     H35820   9.909  11.451  10.304 -0.8837 -1.6742  2.9284
  260MOL0     H35821   9.936  11.701  10.427 -1.9006  2.0782  1.0327
  260MOL0     H35822   9.796  11.730  10.327  0.2041  0.8424  1.1894
  260MOL0     H35823  10.074  11.650  10.231 -0.5732 -0.5869  0.7710
  260MOL0     H35824   9.935  11.663  10.130 -1.1039  2.1914 -1.4165
  260MOL0     H35825  10.090  11.867  10.297  3.2736  3.2563 -2.8942
  260MOL0     H35826   9.933  11.913  10.216  0.1795 -0.6514 -0.3412
  260MOL0     H35827  10.182  11.815  10.085  0.1598 -2.2348  0.1352
  260MOL0     H35828  10.025  11.838  10.001 -1.5561 -0.0213  1.7898
  260MOL0     H35829   9.936  12.082   9.966 -0.9585  0.0849  2.1649
  260MOL0     H35830  10.007  12.403  10.079 -0.3100  0.7232 -1.2544
  260MOL0     H35831   9.989  12.368   9.907 -1.3855  0.3539  1.0091
  260MOL0     H35832  10.128  12.563   9.932 -2.4099 -0.6414  1.1232
  260MOL0     H35833  10.246  12.478  10.036 -0.3253  1.6997  0.8337
  260MOL0     H35834  10.318  12.318   9.869  0.7108 -0.7749 -2.6763
  260MOL0     H35835  10.183  12.359   9.775 -1.9818 -0.9063  2.5492
  260MOL0     H35836  10.414  12.425   9.703  1.3795  1.4467 -0.5211
  260MOL0     H35837  10.320  12.579   9.733 -1.7713 -0.4837  1.1147
  260MOL0     H35838  10.588  12.627  10.061 -1.6447  1.9482 -0.3288
  260MOL0     H35839  10.869  12.679  10.125 -0.7688  0.5867  2.2385
  260MOL0     H35840  10.731  12.784  10.148 -0.7694 -1.6624 -0.0368
  260MOL0     H35841  10.872  12.849  10.078  0.9158 -0.5333  1.4240
  260MOL0     H35842  11.167  12.794   9.571  0.4883 -0.7190  2.2990
  260MOL0     H35843  11.363  12.945   9.526 -0.1211  0.5036 -2.3661
  260MOL0     H35844  11.326  13.400   9.682  0.2222  1.4293  4.7274
  260MOL0     H35845  11.371  13.292   9.807 -1.2714 -0.0382 -0.2793
  260MOL0     H35846  11.585  13.350   9.593  2.0860  2.3388  1.2019
  260MOL0     H35847  11.547  13.451   9.729 -1.2324  0.9395 -2.6909
  260MOL0     H35848  11.702  13.202   9.728  1.6321  1.0027  0.7580
  260MOL0     H35849  11.545  13.168   9.809 -1.9809  2.6953 -1.4335
  260MOL0     H35850  11.576  13.368   9.956 -0.6946  0.9685 -1.2359
  260MOL0     H35851  11.741  13.371   9.905  0.4418  0.8466 -0.4052
  260MOL0     H35852  11.603  13.147  10.068  2.5438 -2.4854  1.6345
  260MOL0     H35853  11.706  13.098   9.939 -1.1611  0.9969 -1.3229
  260MOL0     H35854  11.821  13.113  10.164  0.9506 -2.7094 -2.9030
  260MOL0     H35855  11.784  13.283  10.170 -1.6206 -2.7799  1.3795
  260MOL0     H35856  11.969  13.316  10.008  0.3340 -0.2689  2.9873
  260MOL0     H35857  11.947  13.150   9.939  2.0282  1.7641 -1.1952
  260MOL0     H35858  12.149  13.164  10.061 -0.4621  0.4813  1.2755
  260MOL0     H35859  12.033  13.055  10.145 -0.9726 -0.4973 -0.8578
  260MOL0     H35860  11.155  13.258   9.742 -2.7409 -0.6879  0.3180
  260MOL0     H35861  10.957  13.126   9.761  1.5931  0.8473  3.2193
  260MOL0     H35862  10.748  12.743   9.611  0.9857  2.7321  1.0630
  260MOL0     H35863  10.555  12.597   9.636  0.0889 -2.1570  0.6463
  260MOL0     H35864   9.276  11.204  10.241 -0.7134 -1.0590 -0.7306
  260MOL0     H35865   9.039  11.221  10.216 -1.4652  0.6080 -0.5006
  260MOL0     H35866   8.699  11.421  10.079 -0.2710 -1.3377  0.8999
  260MOL0     H35867   8.460  11.447  10.041  0.1870  3.2040 -0.6057
  260MOL0     H35868   8.214  11.488  10.407  2.2257  3.0942  0.4813
  260MOL0     H35869   8.168  11.628  10.329  0.3766 -0.9869  2.6586
  260MOL0     H35870   7.981  11.442  10.344 -0.2051 -1.6828 -1.2172
  260MOL0     H35871   8.057  11.362  10.221 -2.8144  1.3045 -1.8383
  260MOL0     H35872   7.961  11.652  10.196  0.8915 -1.6354  2.4809
  260MOL0     H35873   8.052  11.576  10.074 -0.0928  0.1910  0.1624
  260MOL0     H35874   7.774  11.464  10.154 -0.0872 -0.1678 -0.7058
  260MOL0     H35875   7.876  11.415  10.011 -2.6077 -0.1967 -0.4521
  260MOL0     H35876   7.684  11.766   9.877 -1.4830  0.5704  1.8716
  260MOL0     H35877   8.408  11.590  10.446  0.1982 -0.1775  0.6950
  260MOL0     H35878   8.728  11.691  10.485  0.1502  0.1431 -2.2506
  260MOL0     H35879   8.566  11.676  10.549  0.3863  0.1469  1.1499
  260MOL0     H35880   8.679  11.547  10.579 -2.6552 -0.0855  1.0114
  261MOL0     O35881   8.391   6.229  10.042  0.6889  1.4522  0.2597
  261MOL0     C35882   8.346   6.146   9.962  0.1337  0.0051  0.1335
  261MOL0     O35883   8.346   6.004   9.975 -0.9283  0.9878  0.0740
  261MOL0     C35884   8.369   5.938  10.095 -0.1963 -0.2594 -0.4116
  261MOL0     C35885   8.299   5.973  10.216  0.4992  0.3020  0.3350
  261MOL0     C35886   8.331   5.899  10.330 -1.8241  0.2587 -0.3433
  261MOL0     C35887   8.436   5.796  10.331  0.8909 -0.3627  0.9386
  261MOL0     O35888   8.466   5.719  10.440  0.4836 -0.9637  0.2653
  261MOL0     C35889   8.366   5.721  10.538  0.3901 -0.9722 -0.4114
  261MOL0     C35890   8.422   5.643  10.661 -0.2795 -0.2578 -0.0772
  261MOL0     C35891   8.548   5.680  10.729 -0.1568 -0.8775  0.8253
  261MOL0     C35892   8.566   5.638  10.874  0.3222  0.3367  0.0664
  261MOL0     C35893   8.598   5.491  10.886  0.0006  0.6804  0.3066
  261MOL0     C35894   8.604   5.444  11.032 -0.6705 -0.7192  0.1516
  261MOL0     C35895   8.644   5.306  11.034 -0.8233  0.9352 -0.4814
  261MOL0     C35896   8.802   5.282  11.010 -0.4145  0.2448 -0.3402
  261MOL0     N35897   8.884   5.308  11.127 -0.6051 -0.3076 -0.2999
  261MOL0     C35898   8.881   5.230  11.248  0.2104 -0.7582  0.0573
  261MOL0     C35899   8.994   5.268  11.307  0.1847  0.0275 -0.8231
  261MOL0     C35900   9.036   5.202  11.442  0.2084 -0.1318 -0.6726
  261MOL0     C35901   9.191   5.216  11.461 -0.3225  0.0621 -0.3933
  261MOL0     C35902   9.227   5.150  11.591 -1.1506 -0.5917 -0.4733
  261MOL0     C35903   9.369   5.191  11.638 -0.0332  0.3381  0.1970
  261MOL0     O35904   9.418   5.091  11.742 -0.4506 -0.5279  0.6543
  261MOL0     C35905   9.543   5.061  11.716  0.7384 -1.4192  0.2874
  261MOL0     C35906   9.578   4.937  11.671 -0.1740  0.1723  0.0430
  261MOL0     C35907   9.701   4.904  11.627  0.8980 -0.3184  0.2763
  261MOL0     C35908   9.726   4.771  11.552 -0.4654 -0.6864 -0.6714
  261MOL0     C35909   9.810   4.995  11.649  0.6149 -0.4142  0.3185
  261MOL0     C35910   9.947   4.961  11.609 -1.1257 -0.4031 -0.6933
  261MOL0     O35911  10.037   5.063  11.592 -0.0396 -0.5146  0.5791
  261MOL0     C35912  10.172   5.033  11.573 -0.5035 -0.4228  0.5895
  261MOL0     C35913  10.258   5.128  11.626 -0.2570  0.2717 -0.3040
  261MOL0     C35914  10.399   5.122  11.593  0.0165 -0.9073 -0.0074
  261MOL0     C35915  10.440   5.029  11.502 -1.2154  0.1833 -0.3066
  261MOL0     O35916  10.567   5.028  11.446  0.5365 -0.1446  0.1805
  261MOL0     C35917  10.678   5.042  11.534  0.1087  0.1112 -0.0976
  261MOL0     C35918  10.792   5.089  11.452  0.9273  0.2041  0.1908
  261MOL0     C35919  10.917   5.114  11.531 -0.0592  0.3687  0.8143
  261MOL0     C35920  10.918   5.241  11.604  0.0102  0.1975 -0.2691
  261MOL0     C35921  11.061   5.284  11.635 -0.3779  0.5652 -0.1507
  261MOL0     C35922  11.136   5.189  11.731 -0.6596  0.4342  0.8392
  261MOL0     C35923  11.085   5.169  11.875  0.6391 -0.7428 -0.0093
  261MOL0     C35924  11.177   5.073  11.956  0.1656 -0.3500 -0.4001
  261MOL0    Cl35925  11.114   5.052  12.127 -0.1082 -0.4448  0.1008
  261MOL0     C35926  10.349   4.943  11.438  0.8675 -0.2154  1.1809
  261MOL0     C35927  10.214   4.949  11.473 -0.3381 -0.5489 -0.1409
  261MOL0     O35928   9.982   4.846  11.631 -0.4309 -0.2378 -0.7606
  261MOL0     C35929   9.785   5.113  11.705 -0.1234 -0.3903  0.0169
  261MOL0     C35930   9.653   5.153  11.738 -0.7862 -0.0747 -0.3943
  261MOL0     N35931   9.066   5.361  11.232  0.0256 -0.5960 -0.2154
  261MOL0     N35932   8.995   5.389  11.132  0.2537 -0.4474  0.2131
  261MOL0     C35933   8.502   5.768  10.216  0.0929  1.4058 -0.0886
  261MOL0     C35934   8.462   5.836  10.100 -0.7374 -0.0677 -0.1197
  261MOL0     C35935   8.281   6.196   9.833 -0.9643 -0.0806 -0.4143
  261MOL0     C35936   8.272   6.100   9.738  1.1890 -0.3203  0.4940
  261MOL0     C35937   8.234   6.125   9.612  0.2733  0.1672  0.4478
  261MOL0     C35938   8.195   6.249   9.564 -0.2108 -0.4679  0.4488
  261MOL0     O35939   8.162   6.259   9.429  0.1657 -0.4730  0.0070
  261MOL0     C35940   8.108   6.382   9.389 -0.5105  0.2075  0.5346
  261MOL0     C35941   8.058   6.362   9.242  0.1294 -0.5155 -0.3211
  261MOL0     C35942   8.171   6.322   9.147 -0.7380  0.5647 -0.5054
  261MOL0     C35943   8.111   6.258   9.019  0.0446 -0.9537  0.1386
  261MOL0     C35944   8.058   6.357   8.932 -0.2078 -0.3704  0.2570
  261MOL0     C35945   7.996   6.444   8.875  0.1306 -0.0207  0.1804
  261MOL0     C35946   8.197   6.355   9.661 -0.1108  0.8517 -0.5262
  261MOL0     C35947   8.249   6.335   9.790 -0.5112  0.5334 -0.3502
  261MOL0     C35948   8.272   6.448   9.889 -0.0022  0.4324 -0.1011
  261MOL0     H35949   8.218   6.045  10.212  2.3201  2.4181 -1.9144
  261MOL0     H35950   8.283   5.935  10.420  0.3864  5.3519 -0.8758
  261MOL0     H35951   8.277   5.676  10.493 -0.8277 -0.0900  1.0387
  261MOL0     H35952   8.337   5.820  10.575 -0.0364  0.6911 -4.6762
  261MOL0     H35953   8.338   5.640  10.731 -1.7552  2.3495 -1.5853
  261MOL0     H35954   8.433   5.541  10.622 -1.5098  0.5116 -2.5882
  261MOL0     H35955   8.621   5.621  10.672  2.2668  1.7933  0.9076
  261MOL0     H35956   8.571   5.786  10.711 -2.7914 -0.7479 -2.8512
  261MOL0     H35957   8.643   5.700  10.922 -0.5714  1.1454  0.4803
  261MOL0     H35958   8.471   5.666  10.920 -0.2148  0.1015 -0.8633
  261MOL0     H35959   8.685   5.464  10.826 -0.7187  0.4056 -0.6455
  261MOL0     H35960   8.513   5.436  10.844 -0.9120  1.0902  1.5393
  261MOL0     H35961   8.686   5.503  11.074 -1.3950  0.5859 -0.2223
  261MOL0     H35962   8.508   5.468  11.077 -1.7717 -1.6598 -1.5673
  261MOL0     H35963   8.598   5.241  10.959 -1.2637 -2.6448  2.6149
  261MOL0     H35964   8.618   5.261  11.130 -0.8055 -1.8374 -1.6646
  261MOL0     H35965   8.812   5.179  10.975  0.6021  0.2737 -0.1834
  261MOL0     H35966   8.841   5.346  10.931 -1.8071  0.0522 -1.2141
  261MOL0     H35967   8.812   5.153  11.281 -0.5102 -1.1077 -2.0695
  261MOL0     H35968   9.007   5.098  11.455  1.1648 -0.3780 -0.4440
  261MOL0     H35969   8.983   5.263  11.516 -0.9159 -0.9272 -0.8076
  261MOL0     H35970   9.252   5.176  11.380  2.6002  1.3586  1.0394
  261MOL0     H35971   9.216   5.322  11.466  0.8753 -0.2046 -0.5868
  261MOL0     H35972   9.165   5.175  11.677 -0.3465  0.2026 -0.1123
  261MOL0     H35973   9.240   5.042  11.583  3.7442 -0.2601 -0.1450
  261MOL0     H35974   9.434   5.185  11.550 -0.3711  1.3090 -0.1323
  261MOL0     H35975   9.386   5.295  11.667  2.0323 -0.1660  0.9686
  261MOL0     H35976   9.502   4.865  11.643  0.7858 -0.8194 -0.0882
  261MOL0     H35977   9.744   4.690  11.623  3.2721  1.0187  0.6239
  261MOL0     H35978   9.809   4.775  11.481 -0.0843  0.3018 -0.1977
  261MOL0     H35979   9.636   4.744  11.497 -2.8089 -1.7013  3.2627
  261MOL0     H35980  10.218   5.192  11.704 -0.4413  0.8958 -0.9004
  261MOL0     H35981  10.470   5.196  11.628  1.2381 -2.1130  0.1797
  261MOL0     H35982  10.653   5.116  11.611 -1.0351  2.1873 -2.3374
  261MOL0     H35983  10.704   4.947  11.581  1.0104  0.8685  1.0002
  261MOL0     H35984  10.807   4.996  11.397 -1.6083 -1.0621  1.4313
  261MOL0     H35985  10.768   5.176  11.391 -0.0430  1.1229  1.8231
  261MOL0     H35986  11.001   5.112  11.461 -0.9538 -0.0022 -0.2674
  261MOL0     H35987  10.934   5.031  11.602  2.4124  0.7549  0.7604
  261MOL0     H35988  10.856   5.235  11.694 -0.2085 -2.8218 -0.5252
  261MOL0     H35989  10.875   5.316  11.536  0.8547 -1.0128 -2.2580
  261MOL0     H35990  11.123   5.297  11.546 -0.4578 -0.7107 -0.4076
  261MOL0     H35991  11.063   5.385  11.678  2.3961 -0.1499  1.6710
  261MOL0     H35992  11.237   5.228  11.745 -0.8397  0.6527  1.6192
  261MOL0     H35993  11.149   5.090  11.688  2.5154  1.1309 -0.0431
  261MOL0     H35994  10.988   5.119  11.877 -0.3887  0.6952 -4.0003
  261MOL0     H35995  11.066   5.263  11.928 -2.2005 -0.7494 -0.8476
  261MOL0     H35996  11.278   5.114  11.964  0.7979 -1.3132 -2.5138
  261MOL0     H35997  11.183   4.972  11.915 -0.8160 -0.4833 -0.2335
  261MOL0     H35998  10.379   4.875  11.358  0.1357 -1.4003  1.8857
  261MOL0     H35999  10.137   4.887  11.426 -1.5448  0.1014  0.9088
  261MOL0     H36000   9.866   5.185  11.719  1.0790 -1.4160 -1.2775
  261MOL0     H36001   9.648   5.254  11.777 -1.0135 -1.2196  2.9290
  261MOL0     H36002   8.578   5.691  10.216  0.7586  2.0374 -1.0888
  261MOL0     H36003   8.507   5.825  10.002 -1.0281  1.4734 -0.4516
  261MOL0     H36004   8.305   5.999   9.761  1.4463  0.0288  1.7357
  261MOL0     H36005   8.260   6.043   9.546  1.5370 -0.3939  1.5908
  261MOL0     H36006   8.026   6.415   9.453  1.1378 -0.9810  3.4163
  261MOL0     H36007   8.179   6.464   9.399  0.5859 -0.7569  0.9684
  261MOL0     H36008   8.029   6.465   9.218 -1.2090 -0.5634  0.9827
  261MOL0     H36009   7.967   6.302   9.234  0.4820 -1.0214 -0.6469
  261MOL0     H36010   8.233   6.410   9.126  1.1257 -1.4680 -4.6403
  261MOL0     H36011   8.237   6.240   9.176 -0.3794  0.5280 -1.4008
  261MOL0     H36012   8.024   6.193   9.031 -3.1122  2.8380 -0.1014
  261MOL0     H36013   8.196   6.209   8.971  0.2148  0.4253 -1.0497
  261MOL0     H36014   7.938   6.518   8.825 -0.6731  1.2306  2.8022
  261MOL0     H36015   8.166   6.458   9.647 -0.8904  0.9338  1.5561
  261MOL0     H36016   8.210   6.448   9.979 -1.5645 -3.8884 -0.9485
  261MOL0     H36017   8.375   6.436   9.921  1.1647  2.9327 -2.4799
  261MOL0     H36018   8.260   6.551   9.852  1.4068  1.0504  1.0811
  262MOL0     O36019   5.824  11.055   4.001 -0.1624  0.4922  0.7304
  262MOL0     C36020   5.860  11.095   3.892 -0.5495  0.4227 -0.0921
  262MOL0     O36021   5.854  11.017   3.775 -0.2100  0.2656 -0.2133
  262MOL0     C36022   5.840  10.877   3.792 -0.9045 -0.6085  0.4310
  262MOL0     C36023   5.743  10.816   3.721 -0.0810 -0.5716 -0.0564
  262MOL0     C36024   5.719  10.680   3.730  1.0405  0.2327  0.3111
  262MOL0     C36025   5.798  10.583   3.804  0.0976 -0.9333 -0.3974
  262MOL0     O36026   5.752  10.453   3.802 -0.0535 -0.2802 -0.1307
  262MOL0     C36027   5.799  10.369   3.914 -0.5383  0.5355  0.2680
  262MOL0     C36028   5.738  10.227   3.913  0.3200 -0.0003 -0.7357
  262MOL0     C36029   5.764  10.158   4.049  0.0494  0.3131 -0.2046
  262MOL0     C36030   5.702  10.018   4.036  0.1560  0.0647 -1.3382
  262MOL0     C36031   5.724   9.928   4.168  0.1034 -1.2918 -0.0380
  262MOL0     C36032   5.875   9.917   4.217 -0.2550  0.1662 -0.5905
  262MOL0     C36033   5.877   9.839   4.347  0.2704 -0.5833  0.3786
  262MOL0     C36034   6.012   9.780   4.388  0.4427 -1.1267  0.3090
  262MOL0     N36035   6.120   9.862   4.446  0.2622 -0.0614 -0.4510
  262MOL0     C36036   6.167   9.977   4.400  0.6959 -0.0511 -0.4448
  262MOL0     C36037   6.266  10.009   4.488 -0.2662  0.8279  0.4756
  262MOL0     C36038   6.375  10.111   4.490 -0.0920  0.7691  0.5141
  262MOL0     C36039   6.333  10.255   4.538  0.5150  0.3070  1.0030
  262MOL0     C36040   6.300  10.277   4.688  0.1307  0.2435 -0.4913
  262MOL0     C36041   6.165  10.230   4.746  0.2601  0.2581 -0.1823
  262MOL0     O36042   6.072  10.332   4.716 -0.2380 -0.2276  0.5398
  262MOL0     C36043   5.962  10.350   4.783  1.2853  0.7303  0.2301
  262MOL0     C36044   5.915  10.270   4.897 -0.2415 -0.5596  0.8364
  262MOL0     C36045   5.798  10.301   4.965  0.6936 -0.3739 -0.0782
  262MOL0     C36046   5.770  10.232   5.103 -0.0196  0.3781  0.4669
  262MOL0     C36047   5.707  10.398   4.908 -0.1068  0.4407  0.0431
  262MOL0     C36048   5.576  10.437   4.962 -0.1314  0.2112 -0.1940
  262MOL0     O36049   5.531  10.556   4.917 -0.4853  0.1951 -0.0220
  262MOL0     C36050   5.398  10.589   4.927  0.8082  0.7725 -0.6861
  262MOL0     C36051   5.283  10.517   4.891 -0.5817  0.1449 -0.2087
  262MOL0     C36052   5.154  10.577   4.924  0.5584 -0.0025 -0.4802
  262MOL0     C36053   5.138  10.699   4.994 -0.5140 -0.3003  0.2261
  262MOL0     O36054   5.025  10.766   5.028 -0.2678  1.0606  0.2509
  262MOL0     C36055   4.921  10.687   5.086  0.5664  0.1865 -0.6321
  262MOL0     C36056   4.878  10.741   5.221 -0.2679 -0.4946 -1.3482
  262MOL0     C36057   4.814  10.637   5.309 -0.1860  0.3473  0.4543
  262MOL0     C36058   4.781  10.694   5.453 -0.9446  0.6859  0.6394
  262MOL0     C36059   4.701  10.608   5.553  0.0170 -0.1443  0.5415
  262MOL0     C36060   4.722  10.457   5.536 -0.2599  0.3740 -0.1057
  262MOL0     C36061   4.643  10.393   5.646 -0.0845  0.8210 -0.7296
  262MOL0     C36062   4.645  10.240   5.618 -0.4732 -0.0540  0.6399
  262MOL0    Cl36063   4.815  10.165   5.655  0.3548 -0.1110 -0.1003
  262MOL0     C36064   5.256  10.772   5.022  0.5270 -0.0882  0.0517
  262MOL0     C36065   5.381  10.717   4.974  0.2165 -0.0665 -0.2673
  262MOL0     O36066   5.511  10.349   5.022  0.2747  0.3179 -0.2536
  262MOL0     C36067   5.748  10.473   4.793  1.1972  0.2084 -0.3869
  262MOL0     C36068   5.880  10.456   4.739 -0.2705 -0.7979 -0.1426
  262MOL0     N36069   6.271   9.914   4.583 -0.0790  0.5035  0.6867
  262MOL0     N36070   6.192   9.819   4.551  0.4377  0.2202 -0.6926
  262MOL0     C36071   5.909  10.643   3.870 -0.4152 -0.2326 -0.0594
  262MOL0     C36072   5.918  10.785   3.865 -0.0042 -0.1451  0.0583
  262MOL0     C36073   5.924  11.237   3.874  0.1233  0.3638 -0.6333
  262MOL0     C36074   5.926  11.319   3.992  0.8570 -0.1973  0.3798
  262MOL0     C36075   5.985  11.439   4.004  1.1834 -0.1089  0.8288
  262MOL0     C36076   6.028  11.501   3.881  1.0796  0.6564 -0.7652
  262MOL0     O36077   6.084  11.623   3.872 -0.1512 -0.3922 -0.3075
  262MOL0     C36078   5.999  11.724   3.923  0.3703 -0.2355  0.3572
  262MOL0     C36079   5.905  11.763   3.806 -0.2247  0.2000  0.4840
  262MOL0     C36080   5.828  11.894   3.833  0.6113 -0.0678 -0.1036
  262MOL0     C36081   5.795  11.955   3.697 -1.2418 -0.4393  1.0293
  262MOL0     C36082   5.708  11.874   3.616  0.0148 -0.2804  0.3627
  262MOL0     C36083   5.654  11.810   3.532  0.4048  1.1642 -0.5262
  262MOL0     C36084   6.018  11.435   3.757  0.2127  1.1691 -0.1778
  262MOL0     C36085   5.962  11.300   3.750  0.0200 -0.0915  0.5291
  262MOL0     C36086   5.945  11.244   3.609  0.3554  0.2097  0.0260
  262MOL0     H36087   5.682  10.883   3.661 -0.2344 -1.5818 -1.0668
  262MOL0     H36088   5.623  10.647   3.690 -0.1119  1.3552  2.0563
  262MOL0     H36089   5.763  10.425   4.001  1.3741  0.6251  1.0470
  262MOL0     H36090   5.908  10.376   3.907 -0.3615  5.3878  2.9759
  262MOL0     H36091   5.629  10.235   3.905  0.0700 -1.6964  0.4450
  262MOL0     H36092   5.769  10.158   3.835  1.9218  0.0669 -0.1990
  262MOL0     H36093   5.869  10.159   4.079  0.5159  1.6117 -1.7818
  262MOL0     H36094   5.707  10.219   4.121  1.3832  0.2280  0.9585
  262MOL0     H36095   5.596  10.036   4.016  0.2870 -0.4375 -2.5722
  262MOL0     H36096   5.744   9.961   3.953  0.9925 -1.9844  0.4183
  262MOL0     H36097   5.680   9.828   4.161  1.1653 -1.7696 -0.2511
  262MOL0     H36098   5.670   9.974   4.252 -1.7120 -2.1320 -0.6980
  262MOL0     H36099   5.941   9.868   4.145  0.1840 -1.7789  1.0468
  262MOL0     H36100   5.908  10.020   4.236 -1.4296  0.6630 -1.1493
  262MOL0     H36101   5.809   9.755   4.329 -0.5801  0.1918 -0.1192
  262MOL0     H36102   5.843   9.899   4.433  1.1830  0.5971 -0.0658
  262MOL0     H36103   5.987   9.697   4.455 -2.2585 -0.6230  0.0421
  262MOL0     H36104   6.048   9.729   4.299 -3.6448 -2.3140 -0.8859
  262MOL0     H36105   6.131  10.023   4.308 -0.1491 -1.4525 -0.8551
  262MOL0     H36106   6.421  10.115   4.391 -0.2178  1.1606  0.4706
  262MOL0     H36107   6.448  10.077   4.564  1.4466 -0.7314 -1.5869
  262MOL0     H36108   6.417  10.324   4.529 -0.4388  1.7185  2.4303
  262MOL0     H36109   6.249  10.289   4.477  1.0044 -1.1097 -0.5382
  262MOL0     H36110   6.383  10.220   4.731 -0.5019 -0.7480 -0.5602
  262MOL0     H36111   6.308  10.384   4.711 -1.1521 -0.2187  2.5014
  262MOL0     H36112   6.123  10.139   4.703 -0.5431  1.7421 -2.7463
  262MOL0     H36113   6.178  10.212   4.853  0.9238 -0.5897 -0.3925
  262MOL0     H36114   5.973  10.181   4.916  0.3407 -1.1490 -2.8946
  262MOL0     H36115   5.744  10.302   5.182  1.6451  0.4044  1.0304
  262MOL0     H36116   5.858  10.174   5.132  0.0498  0.4895  0.4773
  262MOL0     H36117   5.686  10.163   5.096  1.2536 -1.1770 -0.1769
  262MOL0     H36118   5.304  10.419   4.848  3.8144 -0.8870  3.5328
  262MOL0     H36119   5.056  10.540   4.895 -0.9817  1.6790  2.1365
  262MOL0     H36120   4.834  10.700   5.021  0.3524 -2.1950 -0.9013
  262MOL0     H36121   4.954  10.584   5.101  2.0897  0.7542  0.1342
  262MOL0     H36122   4.968  10.786   5.263  0.2151 -1.5689 -1.2124
  262MOL0     H36123   4.805  10.823   5.212  0.1687  0.3590  1.7184
  262MOL0     H36124   4.889  10.558   5.315  2.2241  2.0607 -3.4030
  262MOL0     H36125   4.725  10.596   5.259  0.9703 -1.3526 -0.3017
  262MOL0     H36126   4.726  10.787   5.441  0.8994  2.4797  4.3708
  262MOL0     H36127   4.871  10.727   5.506 -2.2748  1.2396  2.6410
  262MOL0     H36128   4.723  10.641   5.655  0.7562 -1.2226  0.7467
  262MOL0     H36129   4.595  10.637   5.552 -0.1523 -0.5643  2.2586
  262MOL0     H36130   4.827  10.429   5.546 -0.4508 -0.5911 -0.7554
  262MOL0     H36131   4.674  10.436   5.440  1.2482  2.7993 -1.5020
  262MOL0     H36132   4.540  10.430   5.654 -0.5990 -0.9954  3.9349
  262MOL0     H36133   4.690  10.416   5.741 -1.7051  0.5535  0.1695
  262MOL0     H36134   4.617  10.225   5.513 -0.2055  0.6430  0.4629
  262MOL0     H36135   4.574  10.187   5.681 -1.0233  1.6275  1.4970
  262MOL0     H36136   5.241  10.874   5.058 -2.0816  0.5261 -2.4271
  262MOL0     H36137   5.467  10.782   4.984  0.6781 -0.7176  0.0613
  262MOL0     H36138   5.683  10.549   4.749  2.3851 -0.4793 -3.5676
  262MOL0     H36139   5.917  10.516   4.657 -3.3185  2.7572  0.8182
  262MOL0     H36140   5.983  10.589   3.928  0.8676  0.6319 -0.8304
  262MOL0     H36141   5.991  10.819   3.938 -2.7339 -0.1886  3.0377
  262MOL0     H36142   5.898  11.277   4.088  0.5329  3.3047  1.9762
  262MOL0     H36143   6.007  11.479   4.102  3.2180 -3.7653  2.0882
  262MOL0     H36144   5.958  11.685   4.016  0.6465 -2.9539 -0.5617
  262MOL0     H36145   6.060  11.809   3.956  0.2991  0.7705 -1.8712
  262MOL0     H36146   5.836  11.681   3.787  0.0552 -0.9815  3.9024
  262MOL0     H36147   5.957  11.773   3.710 -1.9166 -0.3874 -0.5320
  262MOL0     H36148   5.735  11.864   3.881  1.4132 -0.8941  0.9850
  262MOL0     H36149   5.877  11.961   3.904 -1.0218  0.4946  0.5350
  262MOL0     H36150   5.892  11.971   3.650 -0.9028 -4.4168 -0.0340
  262MOL0     H36151   5.741  12.049   3.712 -0.5109  0.5244 -1.8219
  262MOL0     H36152   5.606  11.756   3.453  0.6559 -0.0915  0.1557
  262MOL0     H36153   6.030  11.487   3.663  1.9290  0.2357 -0.5158
  262MOL0     H36154   6.004  11.300   3.536  0.5641 -2.7925 -2.3426
  262MOL0     H36155   5.996  11.147   3.604  1.4213  0.7968 -1.0117
  262MOL0     H36156   5.840  11.234   3.581 -1.1159 -3.2256  5.2943
  263MOL0     O36157   3.925  11.307   5.056  0.1726  0.5486  0.5821
  263MOL0     C36158   3.853  11.282   4.959 -0.6719 -0.7987  0.2268
  263MOL0     O36159   3.887  11.217   4.847  0.7086 -1.2533  0.2532
  263MOL0     C36160   4.011  11.159   4.846  0.4167  0.1242  0.6222
  263MOL0     C36161   4.035  11.055   4.931  0.1144  0.5926 -0.4183
  263MOL0     C36162   4.155  10.991   4.947 -0.8551 -0.4850 -0.5227
  263MOL0     C36163   4.263  11.036   4.869 -0.2382  0.2284 -0.8225
  263MOL0     O36164   4.383  10.975   4.898 -0.3602  0.0279  0.4401
  263MOL0     C36165   4.504  11.052   4.876  0.4917 -0.0780 -0.0140
  263MOL0     C36166   4.573  11.074   5.010 -0.7204 -1.0708  0.4232
  263MOL0     C36167   4.721  11.119   5.003 -0.4348  0.1740  0.2073
  263MOL0     C36168   4.779  11.168   5.144 -0.2664  0.1204  0.0390
  263MOL0     C36169   4.922  11.236   5.140 -0.0607  0.1640 -0.1716
  263MOL0     C36170   5.023  11.128   5.089 -0.3751 -0.9642  0.2481
  263MOL0     C36171   5.164  11.175   5.102  0.0568 -0.2151 -0.0548
  263MOL0     C36172   5.197  11.275   4.987  0.1125  0.2824 -0.3381
  263MOL0     N36173   5.220  11.199   4.865  0.0130  0.2357  0.9233
  263MOL0     C36174   5.304  11.098   4.852 -0.5681  0.0463  0.1721
  263MOL0     C36175   5.279  11.043   4.734 -0.6784 -0.9629 -0.1726
  263MOL0     C36176   5.360  10.916   4.679 -0.7648 -0.0881 -0.6920
  263MOL0     C36177   5.286  10.815   4.602 -0.2712  0.9260 -0.4016
  263MOL0     C36178   5.386  10.770   4.496  0.1429  0.3078 -0.3390
  263MOL0     C36179   5.331  10.659   4.417  0.3189  0.2326  0.2369
  263MOL0     O36180   5.437  10.609   4.330 -0.0352  0.4144  0.0049
  263MOL0     C36181   5.392  10.555   4.211  0.2373 -0.0182 -0.6968
  263MOL0     C36182   5.298  10.454   4.207 -0.5030 -0.0092  0.0034
  263MOL0     C36183   5.291  10.385   4.085 -0.7239  0.6036  0.2460
  263MOL0     C36184   5.217  10.256   4.094 -0.5643  1.0006 -0.3990
  263MOL0     C36185   5.353  10.438   3.963 -0.5661  0.3920 -0.5957
  263MOL0     C36186   5.341  10.377   3.826  0.5656 -0.4219 -0.3956
  263MOL0     O36187   5.415  10.437   3.728 -0.4503  0.4909 -0.1957
  263MOL0     C36188   5.381  10.417   3.603 -0.4457  0.1104  0.5662
  263MOL0     C36189   5.351  10.529   3.536  0.1000  0.1861  0.5545
  263MOL0     C36190   5.316  10.515   3.401  0.5777  0.1952  0.1413
  263MOL0     C36191   5.316  10.388   3.337  0.2608  0.9965 -0.1267
  263MOL0     O36192   5.305  10.362   3.203  0.5238 -0.4686 -0.5674
  263MOL0     C36193   5.214  10.456   3.146 -0.3160 -0.2543 -0.4363
  263MOL0     C36194   5.144  10.408   3.016  1.0344 -0.4854  0.1328
  263MOL0     C36195   5.058  10.275   3.036  0.0548  0.1422  0.2179
  263MOL0     C36196   4.988  10.245   2.898  0.1329  0.7459  0.7235
  263MOL0     C36197   4.969  10.098   2.869  0.7768  0.0161  0.2268
  263MOL0     C36198   5.109  10.031   2.865 -0.7220 -0.0372 -0.2345
  263MOL0     C36199   5.094   9.886   2.813 -0.2501 -0.1129 -0.2157
  263MOL0     C36200   5.226   9.831   2.763 -0.1604  0.2942  0.1637
  263MOL0    Cl36201   5.191   9.659   2.711  0.0295 -0.8161  0.0648
  263MOL0     C36202   5.350  10.280   3.412 -0.2822 -0.6279 -0.4338
  263MOL0     C36203   5.384  10.292   3.548 -0.2542  0.2511 -0.5125
  263MOL0     O36204   5.243  10.302   3.809 -0.9686  0.1299 -0.1184
  263MOL0     C36205   5.439  10.543   3.975 -0.7682  1.2119  0.0357
  263MOL0     C36206   5.462  10.594   4.100 -0.2084  0.2448  0.2246
  263MOL0     N36207   5.169  11.101   4.673  0.5574 -0.2371 -0.4657
  263MOL0     N36208   5.143  11.202   4.756 -0.6341  0.0238 -0.4835
  263MOL0     C36209   4.242  11.141   4.777  0.4246  1.1378 -1.5754
  263MOL0     C36210   4.119  11.208   4.770  0.0936 -0.0477  0.6625
  263MOL0     C36211   3.710  11.330   4.964 -0.1040 -0.3835  0.7873
  263MOL0     C36212   3.662  11.392   4.848  0.2024  0.1791  0.4342
  263MOL0     C36213   3.525  11.444   4.845  0.9277 -0.1115 -0.3378
  263MOL0     C36214   3.439  11.426   4.953  0.7180 -0.7179  0.2256
  263MOL0     O36215   3.311  11.467   4.949  0.5068 -0.6169  0.1708
  263MOL0     C36216   3.203  11.377   4.993 -0.5436 -0.6536  0.1429
  263MOL0     C36217   3.077  11.419   4.898  1.3032 -0.3991 -0.0320
  263MOL0     C36218   3.108  11.450   4.752  0.5969  0.7357 -0.3824
  263MOL0     C36219   2.977  11.471   4.673 -0.4048 -0.0835  0.2540
  263MOL0     C36220   2.915  11.598   4.699 -0.2727  0.0341 -0.3791
  263MOL0     C36221   2.858  11.701   4.726  1.2325 -0.5681 -0.7950
  263MOL0     C36222   3.497  11.367   5.061 -0.0286  0.5299 -0.1893
  263MOL0     C36223   3.625  11.311   5.073 -0.9825  0.4824  0.1833
  263MOL0     C36224   3.664  11.241   5.210 -0.7464 -0.2809  1.3014
  263MOL0     H36225   3.962  11.018   5.001  1.6141 -0.7297  0.5076
  263MOL0     H36226   4.167  10.911   5.019  2.2693  1.1348  0.9811
  263MOL0     H36227   4.490  11.147   4.823 -2.4528 -1.0873 -1.2581
  263MOL0     H36228   4.567  10.999   4.804  1.4286  2.4052 -1.1115
  263MOL0     H36229   4.510  11.151   5.056 -1.7034 -1.0511 -0.8981
  263MOL0     H36230   4.564  10.985   5.073 -4.5636 -2.4551 -1.7542
  263MOL0     H36231   4.783  11.041   4.958 -4.2745 -2.4546 -1.1182
  263MOL0     H36232   4.731  11.202   4.933  0.8095 -0.2110 -0.0895
  263MOL0     H36233   4.705  11.233   5.191 -0.1016  1.9864 -2.1482
  263MOL0     H36234   4.793  11.092   5.222 -0.6689  0.5444  0.5321
  263MOL0     H36235   4.948  11.266   5.242  1.4858  1.5784 -0.9311
  263MOL0     H36236   4.914  11.322   5.073 -0.2601 -0.1593 -0.5664
  263MOL0     H36237   5.017  11.038   5.151 -4.0161  0.4412  2.2479
  263MOL0     H36238   4.995  11.104   4.986 -1.3451  2.6573 -0.4426
  263MOL0     H36239   5.231  11.089   5.109  1.6946  1.0610  0.4841
  263MOL0     H36240   5.178  11.230   5.196  2.0319  0.5359 -0.7582
  263MOL0     H36241   5.119  11.346   4.959  0.0480  0.8717  1.2345
  263MOL0     H36242   5.291  11.323   5.018  0.5703 -1.8259  1.8384
  263MOL0     H36243   5.378  11.076   4.928 -0.3092 -0.9142 -0.3414
  263MOL0     H36244   5.409  10.870   4.765  0.1726  1.1887 -0.5076
  263MOL0     H36245   5.442  10.966   4.626  1.8467 -0.4670  2.5998
  263MOL0     H36246   5.253  10.734   4.668 -0.8884  1.6810  0.2308
  263MOL0     H36247   5.199  10.865   4.560 -2.6128 -1.3015  1.4892
  263MOL0     H36248   5.408  10.856   4.433  1.3104  1.9218  2.1031
  263MOL0     H36249   5.485  10.731   4.523  0.4947 -1.2109 -3.3303
  263MOL0     H36250   5.304  10.580   4.488 -1.8357  2.7606  2.4850
  263MOL0     H36251   5.243  10.695   4.364 -0.8007 -0.9751  1.2245
  263MOL0     H36252   5.239  10.420   4.291 -0.7026  1.5182  0.5203
  263MOL0     H36253   5.204  10.208   4.192 -1.3733 -0.7201 -1.2973
  263MOL0     H36254   5.266  10.174   4.041 -1.0210  0.4955 -0.0518
  263MOL0     H36255   5.122  10.277   4.045 -0.1162 -0.1250 -1.8198
  263MOL0     H36256   5.349  10.628   3.581 -0.4118 -0.7653  2.7125
  263MOL0     H36257   5.289  10.609   3.353  0.5618 -0.6357 -1.5531
  263MOL0     H36258   5.139  10.493   3.217  1.3619  3.4454 -0.3606
  263MOL0     H36259   5.278  10.534   3.105  0.4775 -0.5403  0.2335
  263MOL0     H36260   5.075  10.483   2.975  1.5438 -0.2994 -0.3968
  263MOL0     H36261   5.237  10.391   2.961  0.3830 -2.6339 -0.4037
  263MOL0     H36262   4.982  10.277   3.114  0.9367  1.0367  1.0821
  263MOL0     H36263   5.130  10.198   3.066 -0.3863 -0.2729  0.2286
  263MOL0     H36264   5.044  10.278   2.810 -0.0642 -1.8880 -0.4711
  263MOL0     H36265   4.894  10.300   2.893  0.2916  1.2337  2.4601
  263MOL0     H36266   4.908  10.049   2.946 -1.2594 -0.3547 -1.5056
  263MOL0     H36267   4.914  10.094   2.774 -0.7121  2.6526  0.8691
  263MOL0     H36268   5.158  10.026   2.963  3.9947  0.8426 -2.2827
  263MOL0     H36269   5.168  10.084   2.791  2.4212 -1.7902  0.8303
  263MOL0     H36270   5.013   9.881   2.740  0.0415 -0.4832 -0.5150
  263MOL0     H36271   5.053   9.822   2.892 -0.4639  0.3214  0.0350
  263MOL0     H36272   5.298   9.823   2.845 -0.1567  1.4917  0.2904
  263MOL0     H36273   5.279   9.888   2.686  2.7837 -1.1401  0.9958
  263MOL0     H36274   5.352  10.183   3.363  0.0859 -0.6463 -0.3860
  263MOL0     H36275   5.425  10.212   3.609 -2.6607  0.1881  1.1811
  263MOL0     H36276   5.487  10.595   3.892 -1.3095 -1.5655 -2.1477
  263MOL0     H36277   5.541  10.665   4.124  2.6394 -3.0509  1.4475
  263MOL0     H36278   4.323  11.165   4.709 -0.1209 -0.9746 -3.0649
  263MOL0     H36279   4.109  11.299   4.712  1.2431 -0.2745  0.0801
  263MOL0     H36280   3.730  11.412   4.765 -0.2145 -1.0632 -0.2393
  263MOL0     H36281   3.486  11.496   4.757 -1.5427  0.5114  1.0346
  263MOL0     H36282   3.235  11.274   4.978  1.1073 -0.3120  1.0230
  263MOL0     H36283   3.189  11.389   5.101  2.7725  0.3500  0.5768
  263MOL0     H36284   3.024  11.496   4.954  1.5936  0.2254 -0.5928
  263MOL0     H36285   3.024  11.324   4.908  1.3210 -0.2119  2.6224
  263MOL0     H36286   3.177  11.533   4.737  0.0350  0.9016 -2.4345
  263MOL0     H36287   3.159  11.359   4.716  1.3964  0.0816  2.2223
  263MOL0     H36288   2.903  11.391   4.687 -4.0672  3.0507  0.4590
  263MOL0     H36289   3.005  11.471   4.568 -0.1740  2.4330  0.2608
  263MOL0     H36290   2.813  11.793   4.758  0.0967 -1.5209  0.5019
  263MOL0     H36291   3.429  11.364   5.145  0.0030  1.3170 -0.1268
  263MOL0     H36292   3.721  11.156   5.171 -1.9839 -0.9958  1.0158
  263MOL0     H36293   3.743  11.294   5.265  1.9191 -3.3058  0.7003
  263MOL0     H36294   3.582  11.208   5.275 -0.3093  1.4464  2.8286
  264MOL0     O36295   0.979   6.241   3.869  0.5130 -0.1186  0.3671
  264MOL0     C36296   1.039   6.321   3.942  0.1942 -0.3353  0.5545
  264MOL0     O36297   1.066   6.450   3.907  0.5287  0.6609 -0.3904
  264MOL0     C36298   1.005   6.493   3.789  0.6743 -0.2206  0.1599
  264MOL0     C36299   1.085   6.539   3.683  0.3322 -0.0527  0.5345
  264MOL0     C36300   1.032   6.604   3.569  0.2162  0.0618  0.1391
  264MOL0     C36301   0.891   6.625   3.569  0.1267 -0.5482  0.2676
  264MOL0     O36302   0.820   6.680   3.470 -0.5601  0.0205 -0.4947
  264MOL0     C36303   0.854   6.628   3.341  0.5219  0.8325 -0.1372
  264MOL0     C36304   0.725   6.609   3.259  0.0087  0.6955 -0.6150
  264MOL0     C36305   0.750   6.530   3.124 -0.0406  0.4178  0.5030
  264MOL0     C36306   0.612   6.485   3.083 -0.3946  0.4852 -0.5446
  264MOL0     C36307   0.614   6.406   2.951 -0.4663 -0.9808 -0.3326
  264MOL0     C36308   0.478   6.413   2.890  0.1459 -0.0379 -0.2273
  264MOL0     C36309   0.457   6.327   2.755 -0.7448  0.9992 -0.8141
  264MOL0     C36310   0.464   6.159   2.777  0.4550  0.3824  0.6335
  264MOL0     N36311   0.595   6.101   2.816  0.1137  0.0811  0.2986
  264MOL0     C36312   0.709   6.129   2.756 -0.5008  0.5566 -0.1560
  264MOL0     C36313   0.807   6.073   2.830  0.3394  0.2769  0.4944
  264MOL0     C36314   0.951   6.084   2.807 -0.3065 -0.1998  0.2422
  264MOL0     C36315   1.016   6.182   2.901  0.6155  0.2468 -0.5048
  264MOL0     C36316   1.028   6.315   2.847 -0.0348 -0.2063  0.4671
  264MOL0     C36317   1.066   6.433   2.936  0.9119 -0.6635 -0.1847
  264MOL0     O36318   1.196   6.405   2.981 -0.1286  0.0336 -0.6749
  264MOL0     C36319   1.229   6.488   3.083 -0.3391 -0.4583  0.8582
  264MOL0     C36320   1.261   6.627   3.066  0.6682 -0.1369 -0.1383
  264MOL0     C36321   1.307   6.716   3.172 -1.4426  0.4143  0.1736
  264MOL0     C36322   1.380   6.841   3.128 -0.4717  0.1241 -0.0559
  264MOL0     C36323   1.299   6.666   3.306  0.2853 -0.6383  0.6804
  264MOL0     C36324   1.353   6.746   3.416 -0.0345 -0.6538  0.1940
  264MOL0     O36325   1.385   6.679   3.529  0.0707 -0.4120 -0.1232
  264MOL0     C36326   1.443   6.749   3.629 -1.2738 -0.1365 -0.1107
  264MOL0     C36327   1.372   6.842   3.703  0.1348  0.2203 -0.7675
  264MOL0     C36328   1.444   6.930   3.782 -0.7032 -0.3999 -0.2692
  264MOL0     C36329   1.584   6.905   3.809 -0.1595  0.3414 -0.2706
  264MOL0     O36330   1.639   7.007   3.890 -0.5288 -0.0381  0.1466
  264MOL0     C36331   1.782   7.011   3.907 -0.0011  0.4492 -0.4523
  264MOL0     C36332   1.852   7.081   3.790  0.4286 -0.3180 -0.3638
  264MOL0     C36333   2.002   7.053   3.787  0.4205  0.0760  0.7856
  264MOL0     C36334   2.080   7.033   3.919  0.7944  0.2839 -0.3222
  264MOL0     C36335   2.232   7.033   3.908 -0.1910 -1.3453  0.4467
  264MOL0     C36336   2.307   6.941   3.806 -0.1334  0.5730 -0.4283
  264MOL0     C36337   2.301   6.784   3.841 -0.5773 -0.2598 -0.2078
  264MOL0     C36338   2.374   6.747   3.965 -0.1710  0.6423 -0.0147
  264MOL0    Cl36339   2.381   6.569   3.977  0.1305  0.1780  0.0476
  264MOL0     C36340   1.640   6.797   3.746 -1.0457 -0.3187  0.5036
  264MOL0     C36341   1.577   6.728   3.647  0.0067  0.0850 -0.2221
  264MOL0     O36342   1.359   6.873   3.411  0.2040  0.6108  0.1128
  264MOL0     C36343   1.259   6.533   3.325  0.8166 -0.1627 -0.6754
  264MOL0     C36344   1.228   6.440   3.219 -0.2543 -0.5223  0.1856
  264MOL0     N36345   0.738   5.997   2.929 -0.3784 -0.6005 -0.1386
  264MOL0     N36346   0.609   6.013   2.923 -0.0244 -0.3449 -0.0363
  264MOL0     C36347   0.812   6.578   3.670 -0.1309  0.9934  0.0303
  264MOL0     C36348   0.863   6.519   3.785  0.2659 -0.3121  0.2874
  264MOL0     C36349   1.093   6.281   4.075 -0.4975  0.1848 -0.6983
  264MOL0     C36350   1.099   6.380   4.179 -0.3465  0.1494 -0.3834
  264MOL0     C36351   1.124   6.338   4.310 -0.6030  0.2805  0.9311
  264MOL0     C36352   1.166   6.206   4.340 -1.3335  0.4548  0.0614
  264MOL0     O36353   1.210   6.176   4.469 -0.0330  0.3883  0.2752
  264MOL0     C36354   1.300   6.065   4.499 -0.6557  0.4886 -0.6101
  264MOL0     C36355   1.442   6.113   4.520  0.0646  0.2227  0.5137
  264MOL0     C36356   1.518   6.131   4.382  0.2729  0.3684 -0.9252
  264MOL0     C36357   1.514   6.264   4.316 -0.3817  0.1113 -0.0110
  264MOL0     C36358   1.562   6.371   4.400 -0.5429  0.0879  0.7088
  264MOL0     C36359   1.602   6.461   4.470 -0.3894 -1.3040  0.6658
  264MOL0     C36360   1.169   6.114   4.233  0.7350 -0.0039 -0.0662
  264MOL0     C36361   1.136   6.142   4.099  0.9787  0.0502  0.2503
  264MOL0     C36362   1.145   6.029   4.004  0.3552  0.0516  0.1547
  264MOL0     H36363   1.194   6.542   3.679  0.2754  1.2919 -2.2579
  264MOL0     H36364   1.087   6.651   3.488  0.4753 -0.9187 -0.2724
  264MOL0     H36365   0.892   6.527   3.362 -1.8269 -0.3753 -1.3685
  264MOL0     H36366   0.930   6.696   3.300  1.9240  1.7606  3.5673
  264MOL0     H36367   0.657   6.550   3.321  1.9615  0.7335  1.7084
  264MOL0     H36368   0.679   6.706   3.244  0.4619  1.4547  2.3109
  264MOL0     H36369   0.788   6.596   3.046  0.1687  0.8890  0.9961
  264MOL0     H36370   0.822   6.450   3.142 -2.0482 -1.9290 -1.2848
  264MOL0     H36371   0.554   6.429   3.156  0.0767  1.2723  0.4566
  264MOL0     H36372   0.554   6.574   3.055 -1.6944 -0.0805  0.3050
  264MOL0     H36373   0.632   6.301   2.977  0.9171 -1.3081 -2.4122
  264MOL0     H36374   0.696   6.443   2.889 -1.0107  4.1976  1.5838
  264MOL0     H36375   0.406   6.377   2.963  0.8625 -0.4907  0.2672
  264MOL0     H36376   0.447   6.517   2.873  2.4745  0.7399 -0.0512
  264MOL0     H36377   0.539   6.362   2.692  3.1040  0.3135  3.2926
  264MOL0     H36378   0.357   6.344   2.715 -1.7108 -1.9971  0.0210
  264MOL0     H36379   0.388   6.130   2.850  0.0030 -2.1297 -0.7347
  264MOL0     H36380   0.430   6.114   2.683 -1.3595 -0.6033  1.7033
  264MOL0     H36381   0.723   6.204   2.679  1.5689  1.0778  0.6738
  264MOL0     H36382   0.965   6.123   2.705 -0.9139  2.3997  1.0695
  264MOL0     H36383   1.008   5.991   2.809  1.2300  0.5128 -3.0240
  264MOL0     H36384   0.971   6.176   3.001 -1.6793 -1.5555 -1.5467
  264MOL0     H36385   1.117   6.142   2.913  0.6536  0.0250 -1.4838
  264MOL0     H36386   1.096   6.319   2.762 -0.5061  3.2715  0.1069
  264MOL0     H36387   0.932   6.347   2.805  0.7735 -0.0344 -1.3155
  264MOL0     H36388   1.058   6.530   2.886  2.3224 -0.0602  0.6990
  264MOL0     H36389   0.997   6.444   3.021  1.3625  1.2300 -0.0173
  264MOL0     H36390   1.244   6.664   2.966  4.9280  0.8056 -0.6849
  264MOL0     H36391   1.323   6.922   3.172 -2.9565  0.9651 -4.2375
  264MOL0     H36392   1.392   6.856   3.020  1.0223 -2.8178 -0.4053
  264MOL0     H36393   1.476   6.831   3.179 -2.4275 -1.8832  3.6166
  264MOL0     H36394   1.263   6.845   3.700  0.0342  0.9450  1.8663
  264MOL0     H36395   1.393   7.010   3.835  0.2458  0.4967 -0.6646
  264MOL0     H36396   1.795   7.081   3.990  1.6093  2.1748 -2.0593
  264MOL0     H36397   1.818   6.908   3.922 -0.7158  0.1466 -0.7504
  264MOL0     H36398   1.821   7.049   3.690  0.7161 -1.2346 -0.1697
  264MOL0     H36399   1.844   7.188   3.810  0.8738 -0.4706  0.6856
  264MOL0     H36400   2.052   7.130   3.728 -1.6641  0.2656 -0.8700
  264MOL0     H36401   2.019   6.954   3.743  0.2002  0.1473  0.5378
  264MOL0     H36402   2.054   6.934   3.955  1.2767 -0.5465 -2.1199
  264MOL0     H36403   2.061   7.116   3.988  0.2845 -0.2513  0.1862
  264MOL0     H36404   2.253   7.138   3.882 -0.4316 -0.8712  2.0608
  264MOL0     H36405   2.274   7.030   4.009  0.7381  0.4731  0.1530
  264MOL0     H36406   2.413   6.968   3.799  0.0302 -0.4004 -2.9464
  264MOL0     H36407   2.253   6.950   3.711  0.0563 -3.9870 -1.1985
  264MOL0     H36408   2.351   6.743   3.754  0.3493  1.4426 -0.5227
  264MOL0     H36409   2.198   6.752   3.860 -0.3796  0.2326  1.9410
  264MOL0     H36410   2.316   6.794   4.045  1.7289  1.1117  1.1415
  264MOL0     H36411   2.472   6.795   3.966  0.3835 -0.3999  1.8433
  264MOL0     H36412   1.746   6.775   3.748 -1.0635 -0.5147 -0.4107
  264MOL0     H36413   1.613   6.649   3.582  1.9017 -0.9638  1.9581
  264MOL0     H36414   1.252   6.488   3.423 -0.6937  0.2427 -0.5673
  264MOL0     H36415   1.205   6.336   3.239 -1.3115 -0.7545 -2.0193
  264MOL0     H36416   0.705   6.597   3.661 -0.4713 -1.3607 -1.8616
  264MOL0     H36417   0.812   6.466   3.864 -0.1369 -3.0321 -1.6442
  264MOL0     H36418   1.063   6.482   4.175  0.3011  0.6214  2.8464
  264MOL0     H36419   1.124   6.405   4.395  0.6726  0.1000  1.1023
  264MOL0     H36420   1.263   6.008   4.585 -3.0306 -0.5720 -2.2259
  264MOL0     H36421   1.312   5.987   4.424  1.7281  0.3406 -0.1452
  264MOL0     H36422   1.493   6.034   4.577  0.0531  1.6173  2.5813
  264MOL0     H36423   1.445   6.205   4.580 -2.7599  0.5405  0.2989
  264MOL0     H36424   1.613   6.077   4.386 -2.0456 -4.1673  1.2768
  264MOL0     H36425   1.461   6.076   4.306  1.5035 -1.1776 -0.7799
  264MOL0     H36426   1.414   6.283   4.277  0.7286 -0.6692 -3.6502
  264MOL0     H36427   1.570   6.262   4.223 -0.0419  0.2643  0.1879
  264MOL0     H36428   1.634   6.545   4.528  0.3157  0.0492 -1.5715
  264MOL0     H36429   1.195   6.011   4.257 -4.0247 -2.0189 -2.2406
  264MOL0     H36430   1.155   6.060   3.900  1.0611 -1.6630 -0.3077
  264MOL0     H36431   1.244   5.986   4.024 -0.7133 -1.6744  2.1224
  264MOL0     H36432   1.062   5.959   4.015  0.3364 -0.2775 -1.8093
  265MOL0     O36433   4.670   6.622   1.609  0.3098  0.4798 -0.1217
  265MOL0     C36434   4.593   6.615   1.510 -0.2150 -0.4844 -0.6089
  265MOL0     O36435   4.633   6.644   1.387  0.9026 -0.2416 -0.4972
  265MOL0     C36436   4.757   6.607   1.340  0.1809  0.2302  0.4105
  265MOL0     C36437   4.813   6.680   1.226  0.8095  0.0068  0.4926
  265MOL0     C36438   4.931   6.630   1.164  0.2908  0.3410 -0.5376
  265MOL0     C36439   5.010   6.525   1.220 -0.2063  0.0359  1.0733
  265MOL0     O36440   5.123   6.498   1.161  0.3890 -0.1162 -0.6494
  265MOL0     C36441   5.234   6.467   1.248 -0.0645  0.3317  0.2841
  265MOL0     C36442   5.344   6.419   1.155 -0.4020 -0.1762 -0.1362
  265MOL0     C36443   5.331   6.286   1.095 -0.2165  1.1837  0.1481
  265MOL0     C36444   5.382   6.170   1.189 -0.9095  0.2100  0.3709
  265MOL0     C36445   5.373   6.038   1.114  0.3301 -0.3237  0.0457
  265MOL0     C36446   5.421   5.919   1.199  0.6804 -0.7459  0.6514
  265MOL0     C36447   5.384   5.783   1.146  0.4187  1.1104  0.2217
  265MOL0     C36448   5.462   5.736   1.024  0.5383 -0.5113 -0.2186
  265MOL0     N36449   5.414   5.605   0.972  0.1760  0.3284  0.7438
  265MOL0     C36450   5.328   5.582   0.866 -0.7858 -0.0820  0.0275
  265MOL0     C36451   5.293   5.453   0.875  0.5044  0.4354  0.1288
  265MOL0     C36452   5.197   5.384   0.782 -0.3398  0.3707  0.2869
  265MOL0     C36453   5.067   5.449   0.761 -0.3947 -1.4355 -0.7464
  265MOL0     C36454   4.973   5.372   0.674  1.1099 -0.9342 -0.0098
  265MOL0     C36455   4.843   5.441   0.641  0.0309  0.5604 -0.3543
  265MOL0     O36456   4.856   5.586   0.640 -0.5408 -0.5299 -0.1789
  265MOL0     C36457   4.737   5.656   0.621  0.2308 -0.5554 -0.1505
  265MOL0     C36458   4.733   5.770   0.696  0.6618  0.2647 -0.1570
  265MOL0     C36459   4.612   5.840   0.711 -0.6055 -0.4207 -0.0866
  265MOL0     C36460   4.604   5.952   0.815  0.2963  1.1128 -0.2981
  265MOL0     C36461   4.499   5.790   0.640  0.3509 -0.8912  0.0418
  265MOL0     C36462   4.357   5.836   0.670 -0.9055  0.5138 -0.0646
  265MOL0     O36463   4.320   5.948   0.605  0.5980 -0.9251  0.6247
  265MOL0     C36464   4.200   5.995   0.649  0.8918 -0.8719 -0.7131
  265MOL0     C36465   4.185   6.059   0.779  0.0622  0.9187  0.0650
  265MOL0     C36466   4.063   6.121   0.820 -0.2136 -0.0424  0.2645
  265MOL0     C36467   3.955   6.127   0.730  0.3269  0.0311 -0.1474
  265MOL0     O36468   3.840   6.176   0.771  0.4907  1.1743 -0.7384
  265MOL0     C36469   3.792   6.284   0.692 -0.1794 -0.3986 -0.7853
  265MOL0     C36470   3.743   6.408   0.775 -0.4836 -0.1296 -0.7008
  265MOL0     C36471   3.835   6.469   0.888  0.0043 -0.9230 -0.5025
  265MOL0     C36472   3.945   6.567   0.847  0.1008 -0.0096  0.3512
  265MOL0     C36473   4.061   6.487   0.790 -0.3430 -0.3693  0.5542
  265MOL0     C36474   4.174   6.592   0.750  0.2345 -0.4782  0.7103
  265MOL0     C36475   4.290   6.493   0.713 -0.5267  0.0533 -0.5191
  265MOL0     C36476   4.395   6.573   0.633  0.0082  0.1566  0.2665
  265MOL0    Cl36477   4.556   6.519   0.675 -0.1327  0.0571 -0.0261
  265MOL0     C36478   3.969   6.053   0.606  0.0889 -0.2008 -0.0379
  265MOL0     C36479   4.088   6.005   0.571  0.6434 -0.0137  0.9345
  265MOL0     O36480   4.291   5.766   0.745  0.2839  0.0550 -0.2546
  265MOL0     C36481   4.511   5.685   0.552 -0.3168  0.9859  1.2419
  265MOL0     C36482   4.632   5.614   0.544 -0.2369  0.5498  0.3108
  265MOL0     N36483   5.347   5.400   0.990 -0.5010 -0.5829  0.8371
  265MOL0     N36484   5.424   5.493   1.040 -0.0740  0.0483  0.1434
  265MOL0     C36485   4.962   6.471   1.341  0.1006  0.2479  0.3975
  265MOL0     C36486   4.842   6.507   1.400  0.7352 -0.7789 -0.3485
  265MOL0     C36487   4.443   6.589   1.533  0.2548  0.6395 -0.2860
  265MOL0     C36488   4.364   6.610   1.426  0.7088 -0.8177  0.2997
  265MOL0     C36489   4.226   6.620   1.435  0.3277 -0.0491 -0.2897
  265MOL0     C36490   4.168   6.601   1.560 -0.2679 -0.0953  0.2837
  265MOL0     O36491   4.035   6.602   1.571 -0.5311 -0.4095  0.4276
  265MOL0     C36492   3.973   6.632   1.695  0.0757 -0.8863 -0.6298
  265MOL0     C36493   3.827   6.675   1.675 -0.1278 -0.0591 -0.1104
  265MOL0     C36494   3.749   6.665   1.805  0.4266 -1.1927  0.2116
  265MOL0     C36495   3.705   6.527   1.832 -0.0689  0.1462  0.2910
  265MOL0     C36496   3.578   6.490   1.771  0.0585 -0.0098 -0.9915
  265MOL0     C36497   3.479   6.470   1.716 -0.1235 -0.7415  0.8222
  265MOL0     C36498   4.247   6.565   1.673  0.3588 -0.1944  0.3045
  265MOL0     C36499   4.386   6.558   1.658 -0.5216 -0.0139 -0.0371
  265MOL0     C36500   4.459   6.519   1.781  0.3699 -0.3005  0.2748
  265MOL0     H36501   4.756   6.762   1.183 -0.0364 -1.2827 -0.9587
  265MOL0     H36502   4.970   6.665   1.069  0.3439 -2.7185 -1.7342
  265MOL0     H36503   5.204   6.383   1.311  0.0464 -1.1952 -1.5981
  265MOL0     H36504   5.266   6.553   1.307  2.2183 -0.9095  0.9760
  265MOL0     H36505   5.342   6.485   1.067 -3.8457 -0.2286 -0.2231
  265MOL0     H36506   5.436   6.435   1.211 -0.9814  0.1382  0.7470
  265MOL0     H36507   5.224   6.268   1.079 -0.7386  4.0871 -0.1470
  265MOL0     H36508   5.380   6.275   0.998 -0.3420 -1.3205  0.3125
  265MOL0     H36509   5.484   6.185   1.226 -1.0694 -1.4013  1.5936
  265MOL0     H36510   5.311   6.173   1.272 -3.6593  1.7992 -1.8503
  265MOL0     H36511   5.437   6.044   1.026  1.3527  1.0162  0.8302
  265MOL0     H36512   5.269   6.019   1.087  0.2127 -2.1705  1.6043
  265MOL0     H36513   5.530   5.912   1.203  0.7184 -0.8248 -0.2990
  265MOL0     H36514   5.372   5.937   1.295 -0.5229 -4.1303  0.7884
  265MOL0     H36515   5.277   5.795   1.124  0.3167  0.5430  0.3840
  265MOL0     H36516   5.394   5.710   1.227 -2.0240  0.4602  0.0294
  265MOL0     H36517   5.451   5.807   0.942  1.2181 -2.2708 -1.9261
  265MOL0     H36518   5.568   5.733   1.053  0.0163 -1.9738  1.7819
  265MOL0     H36519   5.288   5.659   0.801 -0.3080 -1.7906 -2.4391
  265MOL0     H36520   5.183   5.281   0.817 -1.7838  0.2870 -0.4794
  265MOL0     H36521   5.237   5.387   0.680 -5.0160  1.3512 -1.7503
  265MOL0     H36522   5.021   5.470   0.858  1.5193 -3.4486  0.6723
  265MOL0     H36523   5.081   5.552   0.725 -0.4785 -0.7122  1.1845
  265MOL0     H36524   5.022   5.356   0.578 -2.4379 -1.4054 -1.9331
  265MOL0     H36525   4.950   5.273   0.715 -2.1876  0.6030  2.3431
  265MOL0     H36526   4.792   5.395   0.556  1.1870 -2.0605  0.2787
  265MOL0     H36527   4.779   5.412   0.724 -0.7233 -2.9903 -1.9865
  265MOL0     H36528   4.818   5.794   0.759 -1.4540  0.5946  2.7906
  265MOL0     H36529   4.663   5.932   0.904 -0.7099 -1.4962 -0.1117
  265MOL0     H36530   4.506   5.969   0.859  0.5734  1.1994  0.2893
  265MOL0     H36531   4.635   6.041   0.759  0.7956 -0.2874 -2.3695
  265MOL0     H36532   4.273   6.052   0.842  0.1401  0.2362 -0.1122
  265MOL0     H36533   4.058   6.168   0.918 -0.8865  3.0813 -1.1499
  265MOL0     H36534   3.873   6.333   0.637  1.3554  0.8298  2.3155
  265MOL0     H36535   3.704   6.250   0.636 -0.8766  0.0084  0.0362
  265MOL0     H36536   3.712   6.491   0.710  0.4117  2.1584  1.5928
  265MOL0     H36537   3.656   6.379   0.835 -1.2598  1.3550 -1.0514
  265MOL0     H36538   3.882   6.390   0.949 -1.8619 -2.0779 -0.4907
  265MOL0     H36539   3.761   6.528   0.942 -0.6675  0.4964 -2.8540
  265MOL0     H36540   3.982   6.627   0.931 -0.5729  1.3237 -0.2740
  265MOL0     H36541   3.894   6.635   0.778  0.3736  1.1878  1.2929
  265MOL0     H36542   4.099   6.410   0.858 -0.1380 -0.2092  0.6234
  265MOL0     H36543   4.034   6.435   0.698 -3.0057 -0.0487  1.0627
  265MOL0     H36544   4.197   6.663   0.830 -2.8271  0.0363  1.2708
  265MOL0     H36545   4.149   6.661   0.669  3.8736  3.4090  2.5670
  265MOL0     H36546   4.256   6.400   0.666  0.2381 -1.8636  2.4371
  265MOL0     H36547   4.336   6.469   0.810  0.0773 -1.1092 -1.0710
  265MOL0     H36548   4.396   6.678   0.664  2.9329  0.2014  0.3265
  265MOL0     H36549   4.389   6.562   0.524  1.1736  0.9383  0.0982
  265MOL0     H36550   3.889   6.049   0.533  0.4492  2.9521 -0.7596
  265MOL0     H36551   4.103   5.958   0.474  1.6260  1.1905  0.4673
  265MOL0     H36552   4.428   5.647   0.494  2.0008 -1.8551 -0.4811
  265MOL0     H36553   4.645   5.533   0.473 -1.3231  0.7414 -0.1260
  265MOL0     H36554   5.006   6.387   1.393 -3.0960 -4.5880 -3.6826
  265MOL0     H36555   4.806   6.449   1.484 -0.0236 -1.9500 -1.4340
  265MOL0     H36556   4.404   6.631   1.327 -1.1489 -3.1677 -1.0517
  265MOL0     H36557   4.168   6.651   1.348 -0.0933 -0.5154 -0.1828
  265MOL0     H36558   3.974   6.537   1.749  3.3744  0.2406  1.6241
  265MOL0     H36559   4.038   6.703   1.748  3.6572 -1.4599 -3.8251
  265MOL0     H36560   3.767   6.614   1.607  0.8872  1.9156 -2.9721
  265MOL0     H36561   3.826   6.778   1.637  3.8812 -0.5533 -2.0120
  265MOL0     H36562   3.810   6.710   1.884 -2.0972  4.6136 -0.5916
  265MOL0     H36563   3.659   6.726   1.789  1.1527 -0.3967 -0.9704
  265MOL0     H36564   3.693   6.529   1.941  2.5101  1.1455  0.6185
  265MOL0     H36565   3.774   6.443   1.820  1.2949  1.1173  1.0219
  265MOL0     H36566   3.378   6.469   1.680  0.7641  0.2793 -1.9586
  265MOL0     H36567   4.192   6.549   1.765 -0.1736 -2.4064 -0.3330
  265MOL0     H36568   4.540   6.452   1.750  0.1274 -0.4158 -0.1084
  265MOL0     H36569   4.498   6.609   1.830 -0.4569 -1.3226  2.9584
  265MOL0     H36570   4.399   6.454   1.845 -0.5752  0.5585  0.2796
  266MOL0     O36571   0.940   4.088   5.758  0.0350 -0.1804  0.2396
  266MOL0     C36572   1.017   4.010   5.707 -0.4916 -1.0057  0.4097
  266MOL0     O36573   0.978   3.920   5.605 -0.6419  0.4840  0.2030
  266MOL0     C36574   0.858   3.934   5.546  0.5816  1.7913  0.0579
  266MOL0     C36575   0.749   3.872   5.604  0.0236 -0.2126  0.0796
  266MOL0     C36576   0.625   3.879   5.543 -0.1443 -0.2814 -0.7965
  266MOL0     C36577   0.613   3.947   5.421 -1.0885  0.1599  0.2753
  266MOL0     O36578   0.500   3.962   5.346  0.0592 -0.4821 -0.2077
  266MOL0     C36579   0.385   3.875   5.372 -0.5905  0.4990 -0.0278
  266MOL0     C36580   0.280   3.881   5.266  0.4972  1.0372 -0.0684
  266MOL0     C36581   0.154   3.792   5.292 -0.0802 -0.4034  0.6516
  266MOL0     C36582   0.054   3.881   5.364 -0.2021 -0.2989 -0.1964
  266MOL0     C36583  -0.080   3.814   5.397 -0.6498  0.0834  0.4153
  266MOL0     C36584  -0.149   3.739   5.284 -0.5532  0.7845  0.3666
  266MOL0     C36585  -0.274   3.682   5.328  0.3818 -0.9473 -0.4996
  266MOL0     C36586  -0.351   3.610   5.215 -0.0227 -0.7819 -0.1511
  266MOL0     N36587  -0.321   3.466   5.236  0.2839 -0.3610 -0.0603
  266MOL0     C36588  -0.379   3.399   5.347 -0.3965 -0.1889 -0.1413
  266MOL0     C36589  -0.348   3.271   5.325  0.5227 -0.0439 -1.0173
  266MOL0     C36590  -0.381   3.142   5.404  1.0362  0.1900  0.0109
  266MOL0     C36591  -0.335   3.160   5.544 -0.2147 -0.5604  0.7992
  266MOL0     C36592  -0.183   3.156   5.560 -0.4120 -0.0938  0.0870
  266MOL0     C36593  -0.110   3.053   5.477 -0.2000  0.3749  0.4308
  266MOL0     O36594   0.008   3.027   5.557 -0.1194  0.5699  0.6049
  266MOL0     C36595   0.065   2.899   5.545 -1.5065 -0.5996  0.7260
  266MOL0     C36596   0.042   2.813   5.435 -0.4464  0.9272 -0.3220
  266MOL0     C36597   0.098   2.680   5.445 -0.4596 -0.6451  0.3696
  266MOL0     C36598   0.093   2.592   5.320  0.2893 -0.6173 -0.1256
  266MOL0     C36599   0.174   2.639   5.561 -0.7946  0.2316  0.0682
  266MOL0     C36600   0.245   2.506   5.580  0.5382 -0.0635 -0.4654
  266MOL0     O36601   0.192   2.402   5.519 -0.3198 -0.4087 -0.7446
  266MOL0     C36602   0.252   2.279   5.536 -0.4299 -0.9812  0.4064
  266MOL0     C36603   0.194   2.180   5.605 -0.4550 -0.6077  0.3952
  266MOL0     C36604   0.254   2.055   5.610  0.5596  0.9712 -0.6938
  266MOL0     C36605   0.380   2.039   5.550 -0.0646 -0.1703 -0.2059
  266MOL0     O36606   0.463   1.929   5.553  0.0515 -0.1344  1.0047
  266MOL0     C36607   0.412   1.807   5.611  0.5251 -0.4868  1.1104
  266MOL0     C36608   0.507   1.697   5.569 -0.9211  0.3660  0.5155
  266MOL0     C36609   0.591   1.656   5.698  0.3175  0.0628  0.0902
  266MOL0     C36610   0.684   1.534   5.658  0.5940  0.2853  0.5691
  266MOL0     C36611   0.747   1.467   5.771  0.0584  0.3191 -0.6688
  266MOL0     C36612   0.828   1.347   5.723  0.4713  0.1370 -0.4707
  266MOL0     C36613   0.892   1.282   5.843  0.6709 -0.1732 -0.0809
  266MOL0     C36614   0.791   1.204   5.929 -0.2575 -0.1759 -0.2486
  266MOL0    Cl36615   0.859   1.102   6.070  0.2939  0.3872  0.2310
  266MOL0     C36616   0.434   2.144   5.473  0.3077  0.3147 -0.2987
  266MOL0     C36617   0.373   2.262   5.462  0.1171  0.0008 -0.1460
  266MOL0     O36618   0.345   2.512   5.653 -0.0023 -0.7961  0.7016
  266MOL0     C36619   0.198   2.729   5.658  0.4641 -0.2295  0.3999
  266MOL0     C36620   0.147   2.859   5.653  0.1097 -0.1400  0.3528
  266MOL0     N36621  -0.283   3.256   5.205 -0.0038  0.0682 -0.1461
  266MOL0     N36622  -0.275   3.372   5.149  0.3540  0.2855  0.6382
  266MOL0     C36623   0.728   4.008   5.363 -0.1065 -0.0416 -0.2724
  266MOL0     C36624   0.854   4.010   5.425  0.2066  0.1490 -0.2390
  266MOL0     C36625   1.150   3.998   5.757 -0.9604 -0.6066 -0.2603
  266MOL0     C36626   1.221   3.888   5.719 -0.0778 -0.0441 -0.5595
  266MOL0     C36627   1.349   3.861   5.754  0.2588 -0.6669  0.5695
  266MOL0     C36628   1.416   3.952   5.834 -0.4492  0.7412  0.5336
  266MOL0     O36629   1.548   3.924   5.877 -0.1303 -0.0898 -0.2583
  266MOL0     C36630   1.574   3.859   6.004  0.2602 -0.6850 -0.0503
  266MOL0     C36631   1.575   3.708   5.988  0.0019  0.5246 -0.5005
  266MOL0     C36632   1.699   3.661   5.907 -0.9297  0.2777  0.7595
  266MOL0     C36633   1.704   3.511   5.902 -0.2805 -0.3807  0.7452
  266MOL0     C36634   1.783   3.481   5.781  0.4549  0.0472  0.1008
  266MOL0     C36635   1.854   3.466   5.688  0.3163 -0.3674  0.8174
  266MOL0     C36636   1.356   4.077   5.865 -0.3027  0.5004  0.7089
  266MOL0     C36637   1.225   4.099   5.834 -0.1973 -0.1779 -0.5501
  266MOL0     C36638   1.164   4.237   5.875 -0.1938 -1.2856  0.0096
  266MOL0     H36639   0.765   3.802   5.686  0.9035  0.4370  0.4834
  266MOL0     H36640   0.545   3.826   5.593 -1.3034  0.3796 -1.8790
  266MOL0     H36641   0.348   3.899   5.472 -0.2002  1.8425 -0.1816
  266MOL0     H36642   0.419   3.771   5.363  0.9550  0.9323  0.3909
  266MOL0     H36643   0.255   3.987   5.254 -2.0731  0.9068  2.8593
  266MOL0     H36644   0.315   3.851   5.167  0.7622 -1.5596  0.7561
  266MOL0     H36645   0.114   3.758   5.196  0.0114 -0.3390  0.5909
  266MOL0     H36646   0.176   3.695   5.338 -0.9059 -1.9379 -1.9988
  266MOL0     H36647   0.095   3.896   5.465  1.1571 -2.1004 -0.4328
  266MOL0     H36648   0.044   3.980   5.318 -0.9013 -0.2304  0.0809
  266MOL0     H36649  -0.144   3.894   5.433  0.0953  0.6797  0.4449
  266MOL0     H36650  -0.054   3.750   5.481 -1.8547  2.3664  2.6528
  266MOL0     H36651  -0.147   3.806   5.198  0.6434  1.9273  1.2327
  266MOL0     H36652  -0.085   3.653   5.263  1.9418  2.6920 -0.3403
  266MOL0     H36653  -0.347   3.758   5.355 -0.1513 -2.0584  1.3800
  266MOL0     H36654  -0.265   3.615   5.415 -1.4511 -0.0629  0.4358
  266MOL0     H36655  -0.458   3.629   5.219  0.4390  2.8176 -0.9623
  266MOL0     H36656  -0.319   3.652   5.119 -5.0350  3.7728 -0.2931
  266MOL0     H36657  -0.433   3.436   5.434  0.4102  0.7886 -0.0409
  266MOL0     H36658  -0.346   3.053   5.350 -1.3612  1.0173 -3.1691
  266MOL0     H36659  -0.490   3.135   5.416  1.1880 -2.1485  0.5766
  266MOL0     H36660  -0.381   3.248   5.589 -2.0690 -2.3305  2.6037
  266MOL0     H36661  -0.373   3.084   5.613 -2.5765 -0.0867  0.1031
  266MOL0     H36662  -0.146   3.256   5.535  2.4721 -1.2845 -0.7692
  266MOL0     H36663  -0.162   3.129   5.664 -1.0545 -0.9634  0.0025
  266MOL0     H36664  -0.170   2.965   5.454  1.4292 -0.0035 -3.0489
  266MOL0     H36665  -0.074   3.092   5.381  0.3594 -0.1653  0.4148
  266MOL0     H36666  -0.006   2.844   5.343  1.0349 -0.2888 -1.5729
  266MOL0     H36667   0.190   2.561   5.281  0.9744  4.6979 -3.8426
  266MOL0     H36668   0.057   2.648   5.233  0.9846 -3.4454 -2.3936
  266MOL0     H36669   0.025   2.508   5.338 -0.9399  0.5489  0.8770
  266MOL0     H36670   0.101   2.191   5.659  0.0600  0.7703  1.0558
  266MOL0     H36671   0.207   1.976   5.668  2.3938  0.6368  0.4294
  266MOL0     H36672   0.397   1.811   5.719 -0.8411  0.1572  0.9169
  266MOL0     H36673   0.313   1.793   5.565  0.2756  1.9550  0.7906
  266MOL0     H36674   0.451   1.610   5.534  0.0518  1.0371 -3.0487
  266MOL0     H36675   0.574   1.719   5.486  2.1046  0.0638  2.7274
  266MOL0     H36676   0.533   1.625   5.785  2.6397 -3.4338  0.5579
  266MOL0     H36677   0.664   1.731   5.730  0.1493  0.4758 -0.4810
  266MOL0     H36678   0.759   1.572   5.588 -0.2396  1.8801  0.5102
  266MOL0     H36679   0.621   1.464   5.601  1.8888  0.4141 -1.1051
  266MOL0     H36680   0.817   1.536   5.819  0.6065  0.1608 -1.2152
  266MOL0     H36681   0.675   1.436   5.848  0.3978  1.0230 -0.0516
  266MOL0     H36682   0.905   1.384   5.654 -0.1009  0.3419 -1.0059
  266MOL0     H36683   0.767   1.269   5.677  1.7484 -1.5847  0.6070
  266MOL0     H36684   0.941   1.356   5.907  1.6246 -2.8435  2.5555
  266MOL0     H36685   0.976   1.220   5.810  0.9327 -0.7122  1.4924
  266MOL0     H36686   0.743   1.129   5.866 -1.5983 -1.3826  2.0892
  266MOL0     H36687   0.717   1.266   5.979  2.0885  1.7019  1.1498
  266MOL0     H36688   0.528   2.128   5.421 -1.9320  2.2990 -5.8018
  266MOL0     H36689   0.418   2.347   5.411 -2.0947  1.2615 -0.1383
  266MOL0     H36690   0.247   2.706   5.752 -1.5051  2.9687  2.4150
  266MOL0     H36691   0.156   2.929   5.736 -3.3121  3.2310 -1.7519
  266MOL0     H36692   0.723   4.055   5.266  1.7285 -1.9943 -1.4229
  266MOL0     H36693   0.941   4.065   5.393  0.8608 -0.4671  0.4435
  266MOL0     H36694   1.184   3.825   5.639 -3.1906  1.8413 -0.7513
  266MOL0     H36695   1.410   3.783   5.711  0.0566  0.1521 -1.3271
  266MOL0     H36696   1.659   3.899   6.061 -1.2508 -2.2966  3.6405
  266MOL0     H36697   1.497   3.886   6.077 -1.0783  1.1020 -2.0074
  266MOL0     H36698   1.480   3.670   5.950 -1.7573  1.6008  2.4295
  266MOL0     H36699   1.578   3.670   6.091 -1.0733  1.3988 -0.1182
  266MOL0     H36700   1.694   3.695   5.803 -3.4057  1.1633  1.1082
  266MOL0     H36701   1.792   3.694   5.954 -0.2294  0.0720 -0.4256
  266MOL0     H36702   1.604   3.471   5.881 -0.3852  1.4052 -2.9196
  266MOL0     H36703   1.748   3.467   5.992  0.3416 -2.4063 -0.4753
  266MOL0     H36704   1.920   3.475   5.604 -1.7762  2.5451 -0.6979
  266MOL0     H36705   1.415   4.148   5.922  3.1722 -2.3926  1.0316
  266MOL0     H36706   1.235   4.297   5.931  0.6449 -1.2053 -1.1086
  266MOL0     H36707   1.147   4.300   5.787  0.9811 -0.8991  0.0425
  266MOL0     H36708   1.078   4.213   5.939 -0.7331  0.0196 -0.1981
  267MOL0     O36709   5.407   6.157  11.076  0.1457 -0.4539  0.1317
  267MOL0     C36710   5.367   6.090  11.165  0.9382  0.2217  0.0027
  267MOL0     O36711   5.442   6.050  11.272 -0.2057 -0.8275  0.2537
  267MOL0     C36712   5.564   6.105  11.293 -0.9076  0.3539  0.3198
  267MOL0     C36713   5.577   6.215  11.379 -0.1139  0.5734 -0.1840
  267MOL0     C36714   5.694   6.284  11.403 -0.0624 -0.2507 -0.2335
  267MOL0     C36715   5.810   6.245  11.333  0.1405  0.0896 -0.0429
  267MOL0     O36716   5.924   6.316  11.359  0.2645 -1.3266 -0.7854
  267MOL0     C36717   6.019   6.251  11.439  0.1011  0.1199  0.0481
  267MOL0     C36718   6.118   6.349  11.508  0.0516  0.6668  0.0197
  267MOL0     C36719   6.190   6.455  11.420  0.4254  0.3252 -0.1866
  267MOL0     C36720   6.280   6.386  11.312  0.1845 -0.6906  1.1792
  267MOL0     C36721   6.342   6.486  11.214 -0.7400 -0.0042 -0.7761
  267MOL0     C36722   6.453   6.413  11.133 -0.5077  0.0240  0.9095
  267MOL0     C36723   6.516   6.522  11.046  0.8346  0.1465  0.8386
  267MOL0     C36724   6.657   6.483  10.986 -0.7203  0.5958 -0.3413
  267MOL0     N36725   6.656   6.349  10.928  0.0959  0.0884  0.6049
  267MOL0     C36726   6.622   6.330  10.798 -0.3974 -0.6824  0.1260
  267MOL0     C36727   6.638   6.199  10.781 -0.2362 -0.2187  0.5335
  267MOL0     C36728   6.611   6.125  10.652  0.1352  0.4455  0.0221
  267MOL0     C36729   6.723   6.035  10.593  0.0162  0.2753 -0.4270
  267MOL0     C36730   6.858   6.119  10.585  0.3265  0.3657 -0.5251
  267MOL0     C36731   6.963   6.064  10.675 -1.2316  0.3461  0.0481
  267MOL0     O36732   7.076   6.140  10.650 -0.1197 -0.3462  0.0660
  267MOL0     C36733   7.158   6.110  10.544 -0.0729 -0.6327 -0.0189
  267MOL0     C36734   7.274   6.193  10.522  0.5019 -0.3970  0.2627
  267MOL0     C36735   7.369   6.170  10.422 -0.6067  0.7487 -0.0243
  267MOL0     C36736   7.492   6.254  10.434  0.5206  0.1580  1.3181
  267MOL0     C36737   7.364   6.046  10.340  0.3518 -0.0678  0.7480
  267MOL0     C36738   7.455   5.995  10.235 -0.6956 -0.1952  0.3498
  267MOL0     O36739   7.429   5.874  10.169  0.4964 -0.7375 -0.0518
  267MOL0     C36740   7.547   5.819  10.120 -0.9588  0.1903  0.8994
  267MOL0     C36741   7.606   5.866  10.003  1.4881  0.0382  0.1398
  267MOL0     C36742   7.714   5.796   9.942 -0.1797 -0.4704 -0.0358
  267MOL0     C36743   7.774   5.690  10.002  0.3217  0.1903 -0.4338
  267MOL0     O36744   7.878   5.637   9.940  0.3573 -0.1931  0.0160
  267MOL0     C36745   7.994   5.615  10.027 -0.8472  0.2895 -0.0300
  267MOL0     C36746   8.135   5.607   9.968 -0.6698  0.7380  0.0482
  267MOL0     C36747   8.149   5.625   9.816 -0.0378 -0.2805 -0.3302
  267MOL0     C36748   8.299   5.620   9.767  0.2318  0.0463 -0.4830
  267MOL0     C36749   8.305   5.670   9.619  1.4242 -0.2213  0.3382
  267MOL0     C36750   8.295   5.552   9.514 -0.4258 -0.1404 -0.2411
  267MOL0     C36751   8.412   5.444   9.535 -0.7183 -0.5474  0.7912
  267MOL0     C36752   8.381   5.315   9.463 -0.4495 -0.2483  0.5946
  267MOL0    Cl36753   8.276   5.208   9.568  0.1224 -0.2918  0.1087
  267MOL0     C36754   7.723   5.644  10.130 -0.3501 -0.1498  0.5956
  267MOL0     C36755   7.615   5.706  10.182  0.1247 -0.3167 -0.1006
  267MOL0     O36756   7.551   6.073  10.213  0.6036  0.0969  0.1608
  267MOL0     C36757   7.253   5.973  10.357  1.3098 -0.6039  0.6370
  267MOL0     C36758   7.159   6.002  10.457 -1.1062  0.6466 -0.1010
  267MOL0     N36759   6.666   6.135  10.898  0.0098  0.1054 -0.1281
  267MOL0     N36760   6.675   6.231  10.983 -0.0252  0.6659 -0.6723
  267MOL0     C36761   5.803   6.129  11.252 -0.5675 -1.1715  0.7719
  267MOL0     C36762   5.684   6.066  11.226 -0.9438  0.8119  0.3109
  267MOL0     C36763   5.237   6.025  11.148 -0.1307  0.5249  0.4687
  267MOL0     C36764   5.191   5.955  11.266 -0.2439  0.5111  0.5301
  267MOL0     C36765   5.069   5.886  11.263  1.0893  0.9019 -0.3738
  267MOL0     C36766   4.993   5.869  11.139 -0.0989 -0.6435  0.1997
  267MOL0     O36767   4.874   5.798  11.146 -0.2098 -0.1655  0.3510
  267MOL0     C36768   4.780   5.805  11.049  0.3829 -0.2197 -0.4141
  267MOL0     C36769   4.648   5.735  11.089 -0.1133 -0.1671  0.2729
  267MOL0     C36770   4.651   5.582  11.069  0.7523 -0.0060  0.3663
  267MOL0     C36771   4.740   5.497  11.174 -0.8238  0.5282  0.1799
  267MOL0     C36772   4.697   5.353  11.169  0.5627 -1.1667 -0.1737
  267MOL0     C36773   4.653   5.245  11.170  0.7144  1.0425 -0.2447
  267MOL0     C36774   5.038   5.936  11.024 -0.5299  0.3725 -0.5741
  267MOL0     C36775   5.155   6.019  11.032 -0.1732  0.5694 -0.1486
  267MOL0     C36776   5.178   6.101  10.908 -0.2175  0.2905  0.4816
  267MOL0     H36777   5.488   6.245  11.432 -0.0768 -0.5465  0.5252
  267MOL0     H36778   5.694   6.367  11.472  1.1042 -1.5089  1.3853
  267MOL0     H36779   6.066   6.181  11.369 -1.1245  0.7139 -1.3914
  267MOL0     H36780   5.974   6.189  11.517  1.2743 -3.0389 -1.6097
  267MOL0     H36781   6.054   6.406  11.577 -1.5668  0.6913 -1.4432
  267MOL0     H36782   6.196   6.295  11.562  0.7030  0.0856 -1.4702
  267MOL0     H36783   6.111   6.516  11.374  0.2687  0.2672  0.0049
  267MOL0     H36784   6.244   6.522  11.488 -1.2819 -0.8624  2.5035
  267MOL0     H36785   6.362   6.331  11.360  1.4998 -0.3869 -0.6340
  267MOL0     H36786   6.214   6.319  11.257 -2.1374  2.4889 -0.2105
  267MOL0     H36787   6.384   6.564  11.278 -3.5419 -1.1062  2.7213
  267MOL0     H36788   6.269   6.543  11.154 -0.5971  1.9015  0.7630
  267MOL0     H36789   6.534   6.384  11.200  0.6039  0.7746 -0.0547
  267MOL0     H36790   6.411   6.335  11.068 -1.9906  0.9877  0.6757
  267MOL0     H36791   6.538   6.613  11.103 -0.1604  0.1597  1.2314
  267MOL0     H36792   6.456   6.539  10.956  0.7709 -1.2457  0.6079
  267MOL0     H36793   6.687   6.562  10.916  2.5079  0.7961  1.1088
  267MOL0     H36794   6.739   6.475  11.057 -1.5956 -2.1966  0.4857
  267MOL0     H36795   6.591   6.400  10.721  0.7971 -1.1337 -0.8020
  267MOL0     H36796   6.581   6.199  10.577 -0.0280 -0.6388 -1.0070
  267MOL0     H36797   6.513   6.077  10.665  0.9232 -2.1998 -2.7000
  267MOL0     H36798   6.732   5.954  10.666  1.9942  2.3694  1.8448
  267MOL0     H36799   6.700   5.998  10.493  2.6885  0.8130 -1.3278
  267MOL0     H36800   6.893   6.100  10.483  1.0262 -3.2711  0.2732
  267MOL0     H36801   6.844   6.226  10.603  0.0744  0.0683  1.3052
  267MOL0     H36802   6.935   6.087  10.778 -1.0312  2.9171 -0.4119
  267MOL0     H36803   6.989   5.958  10.662 -1.1829  0.4463 -0.7060
  267MOL0     H36804   7.285   6.277  10.590  1.9614  0.9630 -1.5663
  267MOL0     H36805   7.502   6.330  10.355  0.1864  1.5109  2.5226
  267MOL0     H36806   7.587   6.202  10.421  0.2160  0.2770 -2.6387
  267MOL0     H36807   7.491   6.317  10.523 -0.2772  2.1010  0.0104
  267MOL0     H36808   7.564   5.957   9.962 -4.5077 -0.9393  2.9998
  267MOL0     H36809   7.767   5.839   9.857  1.2915  0.8926  1.4981
  267MOL0     H36810   8.007   5.693  10.103  0.2396  0.3332 -0.2420
  267MOL0     H36811   7.972   5.526  10.086  1.6897 -1.9260 -2.1657
  267MOL0     H36812   8.187   5.690  10.016  1.9332 -2.6472  3.6977
  267MOL0     H36813   8.168   5.517  10.021  1.3894  4.2761  5.6311
  267MOL0     H36814   8.099   5.720   9.794  0.8271 -0.2262 -2.2327
  267MOL0     H36815   8.094   5.549   9.761  2.9615 -2.2971 -0.7631
  267MOL0     H36816   8.330   5.518   9.790 -0.5798  0.2215  1.5637
  267MOL0     H36817   8.357   5.693   9.824  0.3593 -0.9545  0.7254
  267MOL0     H36818   8.234   5.748   9.591 -0.8598 -2.9860 -2.4881
  267MOL0     H36819   8.411   5.695   9.608  1.5447 -1.2734 -1.1659
  267MOL0     H36820   8.318   5.592   9.415 -0.5313 -1.3082 -0.7584
  267MOL0     H36821   8.202   5.494   9.524  0.2442 -1.6177 -2.0442
  267MOL0     H36822   8.432   5.433   9.642  1.5550  4.1316  1.0930
  267MOL0     H36823   8.501   5.497   9.500 -0.5929 -0.9887  0.4469
  267MOL0     H36824   8.475   5.271   9.429 -0.0842  1.1877 -0.3656
  267MOL0     H36825   8.320   5.343   9.377 -1.7948  0.3084  1.6853
  267MOL0     H36826   7.771   5.566  10.190 -0.5419  0.0414  0.9957
  267MOL0     H36827   7.579   5.677  10.280  3.4676 -0.7513  1.1272
  267MOL0     H36828   7.234   5.885  10.297  0.2999  0.4612 -0.6487
  267MOL0     H36829   7.074   5.935  10.462 -1.4164  1.1141  1.4033
  267MOL0     H36830   5.891   6.086  11.205  1.8322  1.7979  2.1882
  267MOL0     H36831   5.678   5.971  11.176  0.8466 -0.5161  2.4469
  267MOL0     H36832   5.248   5.962  11.358  0.3618  1.3121  0.1138
  267MOL0     H36833   5.029   5.823  11.342 -0.3749 -1.9328 -3.1520
  267MOL0     H36834   4.765   5.911  11.027 -0.7175 -0.8247 -2.9830
  267MOL0     H36835   4.823   5.763  10.958  0.1979  1.0330 -1.1068
  267MOL0     H36836   4.565   5.783  11.037 -0.4598 -0.4704  0.5353
  267MOL0     H36837   4.634   5.759  11.195  1.7935 -2.0743  1.0424
  267MOL0     H36838   4.550   5.538  11.066  1.7795 -2.5095 -1.4721
  267MOL0     H36839   4.691   5.558  10.970 -2.9656  2.8327 -2.1249
  267MOL0     H36840   4.729   5.548  11.271 -1.1565  0.4838  0.1680
  267MOL0     H36841   4.845   5.512  11.147 -0.6508 -0.2590  0.4016
  267MOL0     H36842   4.606   5.149  11.178 -0.9083  1.4712 -2.9975
  267MOL0     H36843   4.987   5.922  10.929 -1.9082 -1.7917  0.4131
  267MOL0     H36844   5.121   6.070  10.820 -0.4183 -0.3586  0.8353
  267MOL0     H36845   5.166   6.210  10.916 -1.0793  0.3136 -0.7852
  267MOL0     H36846   5.281   6.079  10.879  0.1416  2.2762  0.0991
  268MOL0     O36847   1.194   5.378   0.901 -0.4051 -0.4406  0.2258
  268MOL0     C36848   1.287   5.420   0.968 -0.2598  0.0322 -0.3387
  268MOL0     O36849   1.307   5.549   1.000 -0.1571  1.0641  0.7888
  268MOL0     C36850   1.232   5.640   0.923 -0.4753 -0.5513 -0.5992
  268MOL0     C36851   1.246   5.645   0.782  0.7179 -0.1457  0.8540
  268MOL0     C36852   1.173   5.718   0.699  0.4365 -0.4739 -0.0803
  268MOL0     C36853   1.088   5.815   0.748 -0.2533  0.5208 -0.7761
  268MOL0     O36854   1.012   5.894   0.673 -0.3920 -0.2709  0.0674
  268MOL0     C36855   1.076   5.941   0.554  0.5561  0.8772 -0.2761
  268MOL0     C36856   0.968   6.016   0.477 -1.1521 -0.0077 -0.4905
  268MOL0     C36857   1.018   6.098   0.358 -0.1061  0.1886 -0.4565
  268MOL0     C36858   0.919   6.207   0.311  0.2934 -0.6454  0.0400
  268MOL0     C36859   0.987   6.292   0.202 -0.9821 -0.6971 -1.0371
  268MOL0     C36860   0.994   6.220   0.058  0.9537 -0.4603  0.1016
  268MOL0     C36861   1.049   6.316  -0.049  0.1591  0.2398 -0.1245
  268MOL0     C36862   1.108   6.233  -0.162  0.4144  0.2127  0.1213
  268MOL0     N36863   1.000   6.183  -0.251 -0.0556 -0.4338  0.6551
  268MOL0     C36864   0.939   6.249  -0.352 -0.1175  1.2527 -0.3364
  268MOL0     C36865   0.835   6.163  -0.391 -0.0118 -0.5038  0.3519
  268MOL0     C36866   0.741   6.188  -0.506 -0.3779 -0.2500 -0.5690
  268MOL0     C36867   0.794   6.133  -0.640 -0.1662 -0.0115  0.3682
  268MOL0     C36868   0.821   5.977  -0.647 -1.4299  0.2145 -0.0408
  268MOL0     C36869   0.826   5.931  -0.789  0.0739  0.5533 -0.6485
  268MOL0     O36870   0.701   5.952  -0.866  0.3546  0.0349 -0.2366
  268MOL0     C36871   0.597   5.859  -0.842 -0.1766  0.3041 -0.4010
  268MOL0     C36872   0.479   5.919  -0.842 -0.3267  0.6283  0.1120
  268MOL0     C36873   0.364   5.838  -0.845 -0.1476 -0.0265 -0.8837
  268MOL0     C36874   0.235   5.914  -0.838  0.1060 -0.3244  0.4693
  268MOL0     C36875   0.376   5.698  -0.817 -0.4252  0.1770  0.3398
  268MOL0     C36876   0.262   5.601  -0.814  0.2059 -0.2488  0.2070
  268MOL0     O36877   0.147   5.639  -0.880 -0.3374  1.0501 -0.9090
  268MOL0     C36878   0.037   5.560  -0.856  0.0425  0.1313  0.4598
  268MOL0     C36879   0.029   5.426  -0.902  0.2007 -0.3002 -0.1299
  268MOL0     C36880  -0.088   5.354  -0.862 -0.3394  0.8411  0.0169
  268MOL0     C36881  -0.192   5.410  -0.785  0.7655  0.1835 -0.4368
  268MOL0     O36882  -0.314   5.352  -0.769 -0.7725  0.1906 -0.3828
  268MOL0     C36883  -0.341   5.223  -0.823 -0.4509 -0.6851  0.3574
  268MOL0     C36884  -0.490   5.182  -0.828  0.1173  0.8303 -0.1113
  268MOL0     C36885  -0.580   5.292  -0.891  0.4836 -0.0593 -0.0723
  268MOL0     C36886  -0.732   5.257  -0.856  0.0975 -0.1585 -0.1879
  268MOL0     C36887  -0.792   5.154  -0.952 -0.5693 -0.0789 -0.1847
  268MOL0     C36888  -0.940   5.153  -0.923  0.0177 -0.3147 -0.3102
  268MOL0     C36889  -1.003   5.032  -0.987 -0.4454  0.1717  0.5025
  268MOL0     C36890  -1.151   5.023  -0.975  0.7364  0.3718  0.5460
  268MOL0    Cl36891  -1.255   5.145  -1.047  0.4308  0.2751  0.3970
  268MOL0     C36892  -0.184   5.550  -0.764  0.4651  0.3967  0.4519
  268MOL0     C36893  -0.072   5.626  -0.801 -0.1579 -0.1829 -0.4797
  268MOL0     O36894   0.279   5.490  -0.753  0.0844  0.7353  0.4449
  268MOL0     C36895   0.504   5.644  -0.806 -0.1331  0.5330  0.1388
  268MOL0     C36896   0.620   5.720  -0.820  0.6224  0.2667 -0.4003
  268MOL0     N36897   0.840   6.049  -0.311 -0.5283 -0.7444 -0.0711
  268MOL0     N36898   0.946   6.062  -0.233  0.5738 -0.2528 -0.1959
  268MOL0     C36899   1.080   5.828   0.896  0.0358 -0.5240  0.3060
  268MOL0     C36900   1.149   5.746   0.983 -0.4651  0.3681  0.8069
  268MOL0     C36901   1.368   5.321   1.030 -0.5367 -0.2035 -0.3119
  268MOL0     C36902   1.390   5.327   1.167 -0.3479 -0.5613 -0.4828
  268MOL0     C36903   1.469   5.234   1.233 -0.3550 -0.4358 -0.3495
  268MOL0     C36904   1.503   5.116   1.168  0.2700 -0.4032  0.8757
  268MOL0     O36905   1.572   5.015   1.228 -0.1905 -0.8616 -0.0607
  268MOL0     C36906   1.489   4.900   1.257  0.0111 -0.6638 -0.8680
  268MOL0     C36907   1.563   4.807   1.368 -0.2405 -0.5905  0.0111
  268MOL0     C36908   1.560   4.870   1.504  0.1766  0.6682 -0.1780
  268MOL0     C36909   1.670   4.810   1.598  0.6616 -0.8185 -0.2283
  268MOL0     C36910   1.801   4.820   1.536 -0.3840  0.4214 -0.1377
  268MOL0     C36911   1.909   4.814   1.491  0.2363 -0.2887 -0.6239
  268MOL0     C36912   1.483   5.108   1.028 -0.3172  0.3660 -0.6551
  268MOL0     C36913   1.415   5.209   0.956 -0.3924  0.2670  0.2982
  268MOL0     C36914   1.414   5.214   0.807 -0.5960  0.1027  1.4318
  268MOL0     H36915   1.320   5.583   0.732  0.7650 -0.3585  1.1784
  268MOL0     H36916   1.179   5.708   0.591  0.5558  0.9761 -0.2238
  268MOL0     H36917   1.094   5.852   0.493 -4.3852 -1.5537  1.2847
  268MOL0     H36918   1.167   6.001   0.570 -0.4877  2.3646  0.3062
  268MOL0     H36919   0.895   5.940   0.448  0.8559 -3.2082  2.2366
  268MOL0     H36920   0.913   6.079   0.548 -0.6571  0.3940 -0.4620
  268MOL0     H36921   1.117   6.141   0.375  1.1013 -2.5741  0.0181
  268MOL0     H36922   1.030   6.024   0.278 -3.2199 -2.3062  1.1422
  268MOL0     H36923   0.830   6.165   0.264 -0.3634  1.6702 -0.9482
  268MOL0     H36924   0.885   6.266   0.397 -0.1571 -2.4299  1.1458
  268MOL0     H36925   1.086   6.311   0.244 -0.0777 -5.9770 -0.0442
  268MOL0     H36926   0.924   6.378   0.179 -2.3076 -1.6672 -1.1787
  268MOL0     H36927   1.069   6.142   0.074  1.6172 -0.6124 -3.0783
  268MOL0     H36928   0.896   6.179   0.032 -0.3483  2.3395  0.2779
  268MOL0     H36929   1.127   6.381  -0.009  2.6207 -0.6372 -3.0988
  268MOL0     H36930   0.972   6.385  -0.084  2.4853  4.3638  2.1211
  268MOL0     H36931   1.186   6.295  -0.208  2.7334  1.2820  4.8523
  268MOL0     H36932   1.164   6.146  -0.125 -0.3968 -1.1799 -1.7699
  268MOL0     H36933   0.966   6.349  -0.384 -0.2621  1.5493  0.4430
  268MOL0     H36934   0.723   6.296  -0.506  0.3119 -0.0924  1.0346
  268MOL0     H36935   0.649   6.132  -0.486 -0.6754  0.4656  0.1162
  268MOL0     H36936   0.714   6.161  -0.709 -0.2616  0.3436  0.6234
  268MOL0     H36937   0.881   6.186  -0.680  2.3133 -3.7119  0.3782
  268MOL0     H36938   0.917   5.954  -0.601 -1.3858  1.8659  0.7553
  268MOL0     H36939   0.750   5.919  -0.587  0.9733 -1.9829  0.8539
  268MOL0     H36940   0.902   5.981  -0.850  0.3391 -0.8657 -1.5107
  268MOL0     H36941   0.854   5.826  -0.788 -0.4629  0.2418 -4.0195
  268MOL0     H36942   0.480   6.024  -0.870 -3.1370  1.0338  1.1555
  268MOL0     H36943   0.241   6.020  -0.815 -1.1254 -0.5934  2.2689
  268MOL0     H36944   0.158   5.889  -0.764 -2.1315 -0.1667 -1.6610
  268MOL0     H36945   0.184   5.902  -0.934 -2.8420 -5.3409  2.2421
  268MOL0     H36946   0.114   5.386  -0.956  1.6328  1.1094  0.9957
  268MOL0     H36947  -0.107   5.249  -0.884 -0.8495  0.8341  0.4785
  268MOL0     H36948  -0.296   5.217  -0.923  1.2739  0.1328  1.0274
  268MOL0     H36949  -0.280   5.145  -0.776  0.6821  0.5033  0.9794
  268MOL0     H36950  -0.501   5.087  -0.881  0.8680  0.0395  1.1127
  268MOL0     H36951  -0.527   5.162  -0.727  0.5193  1.2478  0.1207
  268MOL0     H36952  -0.566   5.296  -0.999 -2.1965 -1.7327 -0.5814
  268MOL0     H36953  -0.561   5.394  -0.855 -2.7445  0.0425  1.6522
  268MOL0     H36954  -0.782   5.353  -0.872  3.6920  1.9583  0.0751
  268MOL0     H36955  -0.746   5.210  -0.759 -0.6295 -1.5581 -0.9379
  268MOL0     H36956  -0.773   5.172  -1.059 -0.5905 -2.7855 -0.7141
  268MOL0     H36957  -0.748   5.058  -0.924  0.2137  1.0698  2.8495
  268MOL0     H36958  -0.990   5.238  -0.970  1.2728 -0.0264 -1.1832
  268MOL0     H36959  -0.959   5.145  -0.815  1.7933 -1.3415 -0.0412
  268MOL0     H36960  -0.964   4.940  -0.943  1.0767  1.7807  2.7316
  268MOL0     H36961  -0.969   5.034  -1.091  0.8555  0.8481  0.9120
  268MOL0     H36962  -1.172   5.030  -0.868  1.9258  4.1943  0.7072
  268MOL0     H36963  -1.182   4.927  -1.017 -0.7397  0.6388  0.9558
  268MOL0     H36964  -0.267   5.594  -0.710 -1.6188 -2.3845 -0.2215
  268MOL0     H36965  -0.064   5.732  -0.776  0.4138 -0.3765  0.1906
  268MOL0     H36966   0.519   5.538  -0.787 -3.4089 -0.5056 -2.1687
  268MOL0     H36967   0.723   5.686  -0.823  0.5596  0.0935 -0.6306
  268MOL0     H36968   1.020   5.905   0.944  0.6439  1.2169 -1.5890
  268MOL0     H36969   1.130   5.739   1.090 -0.1353 -0.4606  0.8211
  268MOL0     H36970   1.352   5.416   1.217  1.0373 -0.3303  0.2009
  268MOL0     H36971   1.509   5.236   1.334 -1.0831  0.3461 -0.0669
  268MOL0     H36972   1.398   4.945   1.298  1.2962  1.8237 -0.5406
  268MOL0     H36973   1.460   4.842   1.169 -0.6085 -0.9800 -0.4682
  268MOL0     H36974   1.664   4.792   1.326 -1.5244 -1.0389 -3.2128
  268MOL0     H36975   1.514   4.712   1.388  0.1209 -0.7283  0.2505
  268MOL0     H36976   1.553   4.979   1.503  1.4065  0.7706 -0.0839
  268MOL0     H36977   1.464   4.843   1.549  0.1829  0.1705 -0.4549
  268MOL0     H36978   1.637   4.707   1.614 -1.6261  0.1043  1.6418
  268MOL0     H36979   1.660   4.860   1.695 -1.3912  1.7640 -1.6040
  268MOL0     H36980   2.011   4.811   1.458  0.4419  0.8077 -0.1203
  268MOL0     H36981   1.535   5.028   0.976  2.1798  1.7373 -0.4515
  268MOL0     H36982   1.372   5.124   0.762  1.0159  0.0650 -0.0748
  268MOL0     H36983   1.373   5.300   0.754  1.2153 -0.0358 -0.2853
  268MOL0     H36984   1.520   5.223   0.785  0.0186  1.1681  4.3194
  269MOL0     O36985   4.766   7.576   4.087 -0.4423 -0.3867 -0.2848
  269MOL0     C36986   4.692   7.485   4.122 -0.7986  0.1611  0.2368
  269MOL0     O36987   4.722   7.354   4.112 -0.6757 -0.2615  0.0567
  269MOL0     C36988   4.843   7.314   4.054  0.1537  0.3490 -0.0014
  269MOL0     C36989   4.832   7.195   3.981 -0.6381 -0.3975 -0.5681
  269MOL0     C36990   4.953   7.156   3.928 -0.5806 -0.9258  0.1380
  269MOL0     C36991   5.081   7.220   3.946 -0.1905 -0.8994  0.5330
  269MOL0     O36992   5.205   7.204   3.885 -0.0154 -0.3201  0.0942
  269MOL0     C36993   5.239   7.068   3.851  0.7111 -0.2534 -0.2641
  269MOL0     C36994   5.316   7.072   3.714  0.4890  0.2250 -0.0256
  269MOL0     C36995   5.421   6.953   3.703  0.0051  0.1001 -0.6226
  269MOL0     C36996   5.537   6.942   3.814 -0.2471  0.1496 -0.1768
  269MOL0     C36997   5.641   6.830   3.800 -0.6036 -0.5606  0.7114
  269MOL0     C36998   5.734   6.867   3.688  0.4929  1.0880  0.2296
  269MOL0     C36999   5.839   6.756   3.672 -0.0348  0.4420 -0.1033
  269MOL0     C37000   5.925   6.774   3.540  0.4976 -0.4099  0.8393
  269MOL0     N37001   6.006   6.650   3.526  0.1626  0.2119 -0.2733
  269MOL0     C37002   5.991   6.558   3.425  0.3548  0.2268 -0.7654
  269MOL0     C37003   6.079   6.458   3.437  0.0682  0.7816 -0.0741
  269MOL0     C37004   6.081   6.337   3.342 -0.5928 -0.0776  0.4581
  269MOL0     C37005   6.176   6.218   3.382 -0.0928 -0.3277 -0.5663
  269MOL0     C37006   6.326   6.254   3.369 -0.1335 -0.1464 -0.9446
  269MOL0     C37007   6.421   6.148   3.313  0.3066 -0.2931  0.6967
  269MOL0     O37008   6.417   6.028   3.393 -0.0869  0.6856 -0.5822
  269MOL0     C37009   6.465   5.905   3.340 -0.4956  0.1040 -0.9313
  269MOL0     C37010   6.397   5.789   3.344 -0.0690 -0.0979  0.1241
  269MOL0     C37011   6.446   5.664   3.303 -0.1048  0.0617 -0.0812
  269MOL0     C37012   6.358   5.541   3.313 -1.0868 -0.1831  0.6367
  269MOL0     C37013   6.586   5.662   3.275  0.1446  1.0174  0.2206
  269MOL0     C37014   6.659   5.541   3.241  0.1214  0.2144  0.5861
  269MOL0     O37015   6.604   5.417   3.276  0.2744  0.7835 -0.0454
  269MOL0     C37016   6.663   5.294   3.234  0.4007 -0.1974 -0.1872
  269MOL0     C37017   6.791   5.257   3.281 -0.0547  0.6249 -0.1491
  269MOL0     C37018   6.851   5.138   3.243  0.5722  0.3147 -0.1088
  269MOL0     C37019   6.797   5.054   3.146  1.0692  0.0473 -0.0665
  269MOL0     O37020   6.868   4.941   3.117 -0.9765 -0.3846  0.1379
  269MOL0     C37021   6.831   4.874   2.996 -0.3552  0.2358  0.0320
  269MOL0     C37022   6.858   4.949   2.871 -0.0616 -0.3434 -0.5322
  269MOL0     C37023   6.997   5.004   2.870  0.2184 -0.0478  0.2767
  269MOL0     C37024   7.036   5.011   2.720 -0.0551 -0.4316 -0.5684
  269MOL0     C37025   7.181   5.038   2.697 -0.0724  0.0159  0.1292
  269MOL0     C37026   7.260   4.905   2.706  0.0127 -0.4257 -0.1626
  269MOL0     C37027   7.415   4.929   2.705 -0.6420  0.1412 -0.4225
  269MOL0     C37028   7.500   4.805   2.686 -0.2510 -1.0616  0.1289
  269MOL0    Cl37029   7.498   4.698   2.833  0.3803 -0.2117 -0.1043
  269MOL0     C37030   6.677   5.101   3.085 -0.7162  0.9180 -1.3971
  269MOL0     C37031   6.611   5.216   3.136 -0.6424  0.2739  0.2816
  269MOL0     O37032   6.772   5.556   3.192  0.5884 -0.0530 -0.5379
  269MOL0     C37033   6.654   5.785   3.268 -0.2813  0.9844 -0.4170
  269MOL0     C37034   6.598   5.908   3.291  0.3412  0.2478  1.3737
  269MOL0     N37035   6.157   6.494   3.551 -0.2165  0.5463 -0.3623
  269MOL0     N37036   6.126   6.613   3.583  0.2944  0.0602  0.1002
  269MOL0     C37037   5.082   7.331   4.037  0.3539 -0.2660 -0.5529
  269MOL0     C37038   4.963   7.383   4.080  0.2244  1.0040 -0.2578
  269MOL0     C37039   4.554   7.527   4.184 -0.0699 -0.1355  0.3595
  269MOL0     C37040   4.458   7.426   4.178 -0.2958  0.1200 -0.1941
  269MOL0     C37041   4.337   7.455   4.237  1.1193 -0.4724 -1.0146
  269MOL0     C37042   4.301   7.576   4.290  0.8647 -1.3686  0.2581
  269MOL0     O37043   4.189   7.612   4.352  0.0033  0.6630 -0.2605
  269MOL0     C37044   4.147   7.525   4.457 -0.2716  0.5103 -0.5956
  269MOL0     C37045   4.209   7.543   4.597  0.8453  0.0153 -0.3217
  269MOL0     C37046   4.135   7.453   4.697  0.3738 -0.5395 -0.5898
  269MOL0     C37047   4.211   7.347   4.777  0.8200 -0.4217  0.0837
  269MOL0     C37048   4.327   7.416   4.841  0.3058 -0.5797  0.1920
  269MOL0     C37049   4.417   7.475   4.910 -0.1060 -0.3697 -0.6786
  269MOL0     C37050   4.392   7.677   4.294 -0.1065 -0.9452 -0.7278
  269MOL0     C37051   4.521   7.655   4.247 -0.2237 -0.3416  0.5449
  269MOL0     C37052   4.619   7.768   4.275 -0.4173 -0.4025  0.1998
  269MOL0     H37053   4.738   7.148   3.956 -2.3553  2.4152  0.0692
  269MOL0     H37054   4.952   7.071   3.861 -1.9643 -1.2600  0.5655
  269MOL0     H37055   5.148   7.009   3.835  2.1586 -2.9877  0.8452
  269MOL0     H37056   5.303   7.029   3.932 -0.6582 -1.2770  0.3701
  269MOL0     H37057   5.252   7.065   3.626 -0.4162  2.0522  0.4427
  269MOL0     H37058   5.372   7.166   3.716 -0.9236  1.0859  0.3322
  269MOL0     H37059   5.359   6.863   3.701 -1.6554  1.1840 -0.0108
  269MOL0     H37060   5.472   6.958   3.607  1.1903  1.2899  0.0340
  269MOL0     H37061   5.591   7.037   3.821  0.5076 -0.2779 -0.0979
  269MOL0     H37062   5.486   6.935   3.911 -3.3187 -1.8783 -1.7960
  269MOL0     H37063   5.577   6.744   3.781 -0.8530 -0.2162 -0.0461
  269MOL0     H37064   5.700   6.806   3.889 -2.6072 -2.9941  1.4958
  269MOL0     H37065   5.671   6.858   3.599  1.1233 -3.0428 -0.0230
  269MOL0     H37066   5.785   6.962   3.708  4.7461 -0.8414 -0.3892
  269MOL0     H37067   5.783   6.662   3.676  0.4010  0.2256  1.6908
  269MOL0     H37068   5.907   6.768   3.757 -1.7100  1.5671  1.1197
  269MOL0     H37069   5.872   6.764   3.445  0.9322 -0.2953  0.5809
  269MOL0     H37070   5.977   6.870   3.542  1.8114 -0.9641 -1.9203
  269MOL0     H37071   5.913   6.568   3.350  0.0840  2.4616 -0.2607
  269MOL0     H37072   6.107   6.380   3.245 -2.3325 -1.1945 -0.5652
  269MOL0     H37073   5.974   6.314   3.337 -0.4331 -0.7540 -0.1422
  269MOL0     H37074   6.158   6.197   3.488  2.2823 -1.7753 -0.3740
  269MOL0     H37075   6.157   6.123   3.331  1.9321  0.8559 -3.8049
  269MOL0     H37076   6.327   6.340   3.301  1.0439 -1.5055 -2.7570
  269MOL0     H37077   6.368   6.284   3.465 -0.9315 -1.9959  0.0338
  269MOL0     H37078   6.399   6.115   3.211 -1.8757  1.4696  0.5393
  269MOL0     H37079   6.515   6.204   3.311 -0.4193  0.9741  0.9414
  269MOL0     H37080   6.296   5.805   3.380 -0.4209  1.7955 -1.5596
  269MOL0     H37081   6.370   5.485   3.220 -3.1349 -0.3399  0.4321
  269MOL0     H37082   6.253   5.568   3.322 -1.6307 -1.8902 -0.1626
  269MOL0     H37083   6.382   5.472   3.394 -0.2435 -1.9239 -1.0271
  269MOL0     H37084   6.831   5.322   3.358  1.4075 -0.0980 -0.2607
  269MOL0     H37085   6.944   5.101   3.285  0.5568  0.0134 -0.3386
  269MOL0     H37086   6.891   4.784   2.981  1.9185  1.8033 -0.7803
  269MOL0     H37087   6.726   4.842   2.992 -0.5954  0.9903  0.0084
  269MOL0     H37088   6.841   4.882   2.786 -3.0591  0.1437 -0.4452
  269MOL0     H37089   6.790   5.034   2.857  0.3105 -0.0788 -0.7647
  269MOL0     H37090   7.059   4.926   2.914 -3.2489 -3.3756 -0.2748
  269MOL0     H37091   6.997   5.095   2.932  1.0997 -1.9979  3.3652
  269MOL0     H37092   6.980   5.095   2.678 -1.1114 -1.4237 -1.1745
  269MOL0     H37093   7.006   4.924   2.662 -1.1244  1.8882 -3.7933
  269MOL0     H37094   7.196   5.081   2.597 -0.8793 -2.2291 -1.0478
  269MOL0     H37095   7.221   5.113   2.766 -0.8837  2.2938 -1.7069
  269MOL0     H37096   7.231   4.835   2.626  2.3719  0.8812 -2.3167
  269MOL0     H37097   7.240   4.860   2.804  0.0698 -0.6090 -0.2355
  269MOL0     H37098   7.441   4.966   2.804 -0.0233 -2.4455  0.4547
  269MOL0     H37099   7.439   5.008   2.634 -3.0427  2.3397  1.0158
  269MOL0     H37100   7.601   4.833   2.656 -0.4241 -0.1948  0.3304
  269MOL0     H37101   7.452   4.746   2.607  0.8832  1.0080 -2.2292
  269MOL0     H37102   6.625   5.051   3.004 -1.0918 -1.2556  0.0730
  269MOL0     H37103   6.518   5.250   3.091 -0.1029 -1.0020 -1.9235
  269MOL0     H37104   6.763   5.783   3.264  0.0172  3.7826  2.3666
  269MOL0     H37105   6.656   6.000   3.284  1.3626 -0.3742  1.3887
  269MOL0     H37106   5.178   7.380   4.050  0.3991 -0.4914 -0.0136
  269MOL0     H37107   4.966   7.475   4.137 -0.0329  2.4070 -2.3809
  269MOL0     H37108   4.485   7.325   4.150  3.3298  0.6932  0.7142
  269MOL0     H37109   4.262   7.378   4.222  1.4243 -1.1079  0.5151
  269MOL0     H37110   4.043   7.556   4.468  0.7341  3.7033  1.2739
  269MOL0     H37111   4.168   7.420   4.433  2.2866  1.3320 -2.3215
  269MOL0     H37112   4.217   7.646   4.633  3.4620 -1.4954  4.2889
  269MOL0     H37113   4.310   7.504   4.581  0.2079 -1.8887  0.0694
  269MOL0     H37114   4.085   7.512   4.774 -1.3570 -2.2521 -0.3067
  269MOL0     H37115   4.049   7.398   4.656  0.4186 -1.3759  0.3943
  269MOL0     H37116   4.238   7.264   4.711  2.3283  0.2103 -0.1362
  269MOL0     H37117   4.135   7.304   4.842 -1.6004  2.3996 -0.6520
  269MOL0     H37118   4.492   7.521   4.971 -1.1180 -2.0866  2.0420
  269MOL0     H37119   4.368   7.774   4.334  0.9750 -1.6965  1.9710
  269MOL0     H37120   4.570   7.853   4.322  0.6254  1.1796 -1.4769
  269MOL0     H37121   4.704   7.731   4.334 -0.8704 -1.7740  0.0430
  269MOL0     H37122   4.655   7.811   4.181  1.1648  1.3021  1.5155
  270MOL0     O37123   3.824   8.434   5.984 -0.0653  0.2765  0.6759
  270MOL0     C37124   3.831   8.389   5.872  0.3506 -0.2001  0.3153
  270MOL0     O37125   3.941   8.327   5.810  0.2429 -0.4536  0.4398
  270MOL0     C37126   4.058   8.296   5.879  0.5976 -1.5981 -0.5432
  270MOL0     C37127   4.140   8.402   5.928 -0.7356  0.1103 -0.1292
  270MOL0     C37128   4.269   8.368   5.981 -0.3038  0.0730  0.2959
  270MOL0     C37129   4.317   8.234   5.988  0.0600 -0.2029 -0.5649
  270MOL0     O37130   4.447   8.211   6.021 -0.5218 -0.6367 -0.2235
  270MOL0     C37131   4.480   8.251   6.153 -0.3375  0.2469 -0.2586
  270MOL0     C37132   4.628   8.199   6.185  0.0812 -0.4033  0.1760
  270MOL0     C37133   4.640   8.051   6.210  0.3394 -0.0366  0.5773
  270MOL0     C37134   4.541   8.008   6.318  1.0779  0.0800  0.2076
  270MOL0     C37135   4.580   7.884   6.396 -0.4260 -0.3812 -0.8688
  270MOL0     C37136   4.468   7.848   6.491 -0.5726 -1.2753 -0.8067
  270MOL0     C37137   4.497   7.715   6.563  0.4488  1.0759 -0.4776
  270MOL0     C37138   4.634   7.698   6.641  0.1929 -0.0061 -0.1514
  270MOL0     N37139   4.740   7.644   6.563  0.0867 -0.2884 -0.3379
  270MOL0     C37140   4.749   7.513   6.519  1.1658 -0.1827  0.0229
  270MOL0     C37141   4.844   7.520   6.421  0.7224  0.4947  0.7056
  270MOL0     C37142   4.869   7.402   6.319  0.2993 -0.7549  0.5396
  270MOL0     C37143   4.852   7.455   6.166 -1.0281 -0.2134 -1.1238
  270MOL0     C37144   4.792   7.352   6.074  1.4135  0.0450 -0.1594
  270MOL0     C37145   4.811   7.399   5.919 -1.5407 -0.0177 -0.9278
  270MOL0     O37146   4.731   7.513   5.886 -0.0730 -0.3255  0.3548
  270MOL0     C37147   4.798   7.603   5.800  0.4430  0.2174 -0.9471
  270MOL0     C37148   4.795   7.742   5.840 -0.7530  1.3163 -0.2364
  270MOL0     C37149   4.864   7.842   5.769  0.7393 -0.0542 -0.8089
  270MOL0     C37150   4.837   7.984   5.825  0.7896  0.0626 -0.4854
  270MOL0     C37151   4.922   7.810   5.650  0.2618 -0.5284  0.3972
  270MOL0     C37152   4.976   7.915   5.544 -1.5372 -0.3935 -0.0369
  270MOL0     O37153   5.077   7.865   5.465 -0.3219 -0.4306  0.0600
  270MOL0     C37154   5.127   7.942   5.365 -0.2989  1.1751 -1.1261
  270MOL0     C37155   5.128   7.887   5.238 -0.2677  0.5942  0.1977
  270MOL0     C37156   5.175   7.953   5.126 -0.1389 -0.6270 -0.3338
  270MOL0     C37157   5.230   8.079   5.140 -0.3837  0.6848  0.1331
  270MOL0     O37158   5.283   8.152   5.036 -0.1579  0.4207  0.3502
  270MOL0     C37159   5.425   8.175   5.058  1.0561 -0.5318 -0.2262
  270MOL0     C37160   5.510   8.126   4.930  0.4246  0.1224  0.7273
  270MOL0     C37161   5.497   7.975   4.908  0.2056  0.7096  0.7727
  270MOL0     C37162   5.531   7.887   5.024  0.1570  0.5009  0.3908
  270MOL0     C37163   5.533   7.737   4.971  0.3108 -0.5988  0.6203
  270MOL0     C37164   5.554   7.640   5.079 -0.0776 -0.4476  0.3785
  270MOL0     C37165   5.611   7.499   5.035  0.6041 -0.7816  0.1511
  270MOL0     C37166   5.623   7.403   5.159 -0.2698  0.4666  0.5750
  270MOL0    Cl37167   5.622   7.228   5.112 -0.2050 -0.1120  0.3866
  270MOL0     C37168   5.230   8.135   5.263 -1.2663 -0.5589 -1.0899
  270MOL0     C37169   5.184   8.073   5.383  0.3596  0.8760  0.5692
  270MOL0     O37170   4.917   8.018   5.518 -0.7654  0.0662  0.2689
  270MOL0     C37171   4.934   7.674   5.619 -0.1054 -0.2363  0.1739
  270MOL0     C37172   4.880   7.564   5.698  1.0081 -0.2939  0.7799
  270MOL0     N37173   4.911   7.643   6.429  0.3866  0.1799 -0.4737
  270MOL0     N37174   4.847   7.718   6.510 -0.6464  0.1650  0.1333
  270MOL0     C37175   4.240   8.135   5.926  0.1923  0.2375 -0.2127
  270MOL0     C37176   4.105   8.166   5.878  0.1648  0.5477 -0.2872
  270MOL0     C37177   3.733   8.442   5.772  0.0784 -0.1220  0.8596
  270MOL0     C37178   3.764   8.439   5.633 -1.0715  0.0878  0.0543
  270MOL0     C37179   3.686   8.484   5.536  0.4431  0.4711 -0.3452
  270MOL0     C37180   3.563   8.539   5.561  1.2739 -0.8158  0.0243
  270MOL0     O37181   3.488   8.584   5.454  0.2958 -0.6310 -0.1384
  270MOL0     C37182   3.544   8.696   5.389  0.1424  0.4601 -0.3668
  270MOL0     C37183   3.434   8.804   5.398  0.1441 -1.1772  0.1238
  270MOL0     C37184   3.294   8.770   5.358 -0.1013 -0.0007  0.9525
  270MOL0     C37185   3.212   8.891   5.330  0.4163 -0.2216 -0.0405
  270MOL0     C37186   3.066   8.866   5.307 -0.3207 -0.4776  0.5990
  270MOL0     C37187   2.945   8.841   5.294 -0.7498 -0.9529  0.3653
  270MOL0     C37188   3.522   8.548   5.695 -0.8489  0.3219  0.0078
  270MOL0     C37189   3.601   8.496   5.795  0.2303 -0.5061  0.1012
  270MOL0     C37190   3.550   8.506   5.940 -0.2675 -0.0553  0.9813
  270MOL0     H37191   4.095   8.497   5.954 -0.6201  0.1781 -0.1781
  270MOL0     H37192   4.326   8.456   6.010 -1.3985  0.7970  0.3534
  270MOL0     H37193   4.403   8.218   6.224 -2.6480  1.1097 -2.2073
  270MOL0     H37194   4.481   8.361   6.153 -1.4119  0.2826 -1.2565
  270MOL0     H37195   4.691   8.235   6.103  0.5222 -4.4021 -1.4467
  270MOL0     H37196   4.669   8.250   6.272  3.5228 -0.4390 -1.2818
  270MOL0     H37197   4.607   8.000   6.119  0.7477  2.7400 -1.2621
  270MOL0     H37198   4.745   8.031   6.233 -0.3357 -1.4621  2.7305
  270MOL0     H37199   4.535   8.090   6.390 -1.7773 -0.0743  0.2538
  270MOL0     H37200   4.443   7.995   6.271  0.2156  2.1006  1.2931
  270MOL0     H37201   4.667   7.919   6.453 -2.6118  1.8404  1.3343
  270MOL0     H37202   4.619   7.807   6.329 -0.7726 -0.9868 -0.3792
  270MOL0     H37203   4.449   7.929   6.562  0.4371 -2.5579  1.0119
  270MOL0     H37204   4.377   7.854   6.430 -2.2574  0.1541  1.6547
  270MOL0     H37205   4.484   7.623   6.504  0.8335  1.7576 -1.6595
  270MOL0     H37206   4.415   7.702   6.634  0.6746  1.8064 -0.0825
  270MOL0     H37207   4.668   7.794   6.679  1.0547  0.2348 -1.5058
  270MOL0     H37208   4.611   7.622   6.717 -2.1275  0.6596 -0.1094
  270MOL0     H37209   4.687   7.429   6.549  2.7891 -1.2868  0.4635
  270MOL0     H37210   4.784   7.336   6.334 -0.8058 -0.2185 -2.6211
  270MOL0     H37211   4.964   7.355   6.346  2.0128  0.7394 -2.4269
  270MOL0     H37212   4.790   7.545   6.166 -1.4542 -0.5038 -1.0485
  270MOL0     H37213   4.957   7.474   6.145  0.2492 -2.0543  2.6771
  270MOL0     H37214   4.824   7.248   6.085 -0.6908 -0.9103 -2.0828
  270MOL0     H37215   4.685   7.343   6.097  0.6026 -1.4568 -3.7153
  270MOL0     H37216   4.916   7.425   5.911 -1.2543 -0.1315  1.6399
  270MOL0     H37217   4.792   7.309   5.860  1.2356 -2.5196  1.6575
  270MOL0     H37218   4.732   7.763   5.926 -1.3023 -3.5153  0.8426
  270MOL0     H37219   4.930   8.040   5.836  0.6722  0.6514 -2.2809
  270MOL0     H37220   4.792   7.969   5.924 -2.4678  1.4171 -1.6045
  270MOL0     H37221   4.758   8.030   5.765 -0.6729 -1.1787  0.3965
  270MOL0     H37222   5.097   7.786   5.215 -1.3100  1.1120 -0.7598
  270MOL0     H37223   5.176   7.906   5.028  0.9704 -2.1147  0.3555
  270MOL0     H37224   5.441   8.282   5.077 -0.3933 -0.6306  1.8753
  270MOL0     H37225   5.467   8.117   5.141 -0.6393 -1.3209  0.1060
  270MOL0     H37226   5.480   8.178   4.839  0.2768  0.7351  1.1210
  270MOL0     H37227   5.613   8.161   4.930  0.1477  1.2530 -2.7586
  270MOL0     H37228   5.566   7.947   4.827  0.1827 -1.2659  1.3799
  270MOL0     H37229   5.397   7.954   4.867  1.6473 -0.2486 -2.6456
  270MOL0     H37230   5.454   7.887   5.102 -1.0098  0.9387 -0.7348
  270MOL0     H37231   5.624   7.908   5.078 -0.4071 -1.7112  2.3900
  270MOL0     H37232   5.437   7.710   4.928 -0.4606 -0.1240  1.9845
  270MOL0     H37233   5.612   7.720   4.896  1.2497  0.2629  1.3775
  270MOL0     H37234   5.467   7.637   5.144 -1.1206  0.6994 -0.9133
  270MOL0     H37235   5.643   7.682   5.129 -0.5625 -0.3603  1.1882
  270MOL0     H37236   5.712   7.506   4.995  1.3710 -1.6861  1.8302
  270MOL0     H37237   5.541   7.453   4.964  0.2377 -1.4693  0.9500
  270MOL0     H37238   5.531   7.415   5.218 -1.1637  1.6934 -0.9847
  270MOL0     H37239   5.708   7.428   5.222 -0.5177 -0.3167  1.2460
  270MOL0     H37240   5.262   8.238   5.276 -2.8171 -0.3492  2.1814
  270MOL0     H37241   5.186   8.112   5.484  0.6437 -1.4713  1.5187
  270MOL0     H37242   4.992   7.636   5.535 -3.1507 -2.8976 -0.9399
  270MOL0     H37243   4.894   7.460   5.673  1.1980 -0.0004 -0.3974
  270MOL0     H37244   4.300   8.045   5.912 -0.9318 -0.1851 -3.1461
  270MOL0     H37245   4.052   8.091   5.820  1.7113  0.4693 -1.6925
  270MOL0     H37246   3.862   8.405   5.601 -0.1971  2.9568 -0.6334
  270MOL0     H37247   3.717   8.476   5.433 -0.8047 -2.6266 -0.5878
  270MOL0     H37248   3.637   8.734   5.433  2.0749 -1.3227 -2.6418
  270MOL0     H37249   3.553   8.675   5.282 -0.4061 -0.8984 -0.1658
  270MOL0     H37250   3.454   8.897   5.346 -3.9752  0.8631  1.6728
  270MOL0     H37251   3.429   8.830   5.504  4.4807 -1.6805  0.6123
  270MOL0     H37252   3.310   8.721   5.261 -0.8902  3.7807 -1.2899
  270MOL0     H37253   3.240   8.704   5.427 -1.1487 -0.2260 -0.0501
  270MOL0     H37254   3.254   8.949   5.247  0.2487  0.1686  0.1420
  270MOL0     H37255   3.207   8.959   5.416 -4.1915 -0.2333 -0.0190
  270MOL0     H37256   2.842   8.815   5.299 -1.1543  0.5822  0.5521
  270MOL0     H37257   3.429   8.605   5.699 -0.2157  1.8148 -3.0193
  270MOL0     H37258   3.574   8.413   5.993  0.2483 -0.2895  0.3470
  270MOL0     H37259   3.592   8.590   5.995  1.5664  1.1863 -2.0930
  270MOL0     H37260   3.441   8.518   5.932  0.0461  1.9960 -4.3268
  271MOL0     O37261   3.275   0.099   2.382  0.1947  0.6286 -0.4599
  271MOL0     C37262   3.244   0.127   2.265 -0.4345 -1.1873 -1.0771
  271MOL0     O37263   3.123   0.173   2.225  1.1159 -0.9612  0.6709
  271MOL0     C37264   3.039   0.198   2.331 -0.6769  0.4661  1.4046
  271MOL0     C37265   2.955   0.100   2.385 -0.7600 -0.4579 -0.4856
  271MOL0     C37266   2.859   0.126   2.488  0.9383 -0.5254 -0.3330
  271MOL0     C37267   2.840   0.258   2.519  0.6262  0.0654  0.1747
  271MOL0     O37268   2.732   0.291   2.606  0.2612  0.1558  0.2061
  271MOL0     C37269   2.694   0.426   2.636  0.1032 -0.9238  0.4476
  271MOL0     C37270   2.551   0.418   2.703 -0.4386 -0.6347  1.2071
  271MOL0     C37271   2.519   0.530   2.803 -0.4293  0.2700 -0.6029
  271MOL0     C37272   2.612   0.546   2.931  0.1727 -0.1714  1.4859
  271MOL0     C37273   2.562   0.641   3.039  0.1614  0.1346 -0.4332
  271MOL0     C37274   2.515   0.780   2.990  0.1420  0.0928  0.3565
  271MOL0     C37275   2.469   0.880   3.096  0.1102  0.4307  0.2466
  271MOL0     C37276   2.326   0.833   3.141 -0.2383 -0.5619  1.2931
  271MOL0     N37277   2.309   0.823   3.279  0.4210  0.4017  0.2758
  271MOL0     C37278   2.288   0.932   3.359  0.3174 -0.5392 -1.0183
  271MOL0     C37279   2.295   0.888   3.482  0.6049  0.4302 -0.9266
  271MOL0     C37280   2.277   0.977   3.610  0.6616  0.0668 -0.0792
  271MOL0     C37281   2.395   1.082   3.630 -0.2746 -0.2746  0.6704
  271MOL0     C37282   2.397   1.208   3.545  0.3790  0.0700 -0.1883
  271MOL0     C37283   2.457   1.327   3.608 -0.5465 -0.0943 -0.4515
  271MOL0     O37284   2.394   1.452   3.571  0.2057 -0.3998 -0.0232
  271MOL0     C37285   2.450   1.571   3.615 -0.2522 -0.6892  0.7430
  271MOL0     C37286   2.387   1.683   3.561  0.6913 -1.1739 -1.0767
  271MOL0     C37287   2.422   1.812   3.596 -0.1194 -0.5484  0.0238
  271MOL0     C37288   2.343   1.923   3.550  0.1196 -0.4551 -0.4554
  271MOL0     C37289   2.526   1.832   3.688 -0.4814 -0.4842  0.4169
  271MOL0     C37290   2.567   1.968   3.735 -0.0036 -0.1216 -0.3406
  271MOL0     O37291   2.526   2.081   3.673 -0.2198  0.6852 -0.3473
  271MOL0     C37292   2.533   2.205   3.713 -0.3135 -0.3134 -0.8732
  271MOL0     C37293   2.448   2.293   3.656  0.0679 -0.0433 -0.2429
  271MOL0     C37294   2.455   2.428   3.694  0.3344 -0.5940  0.0344
  271MOL0     C37295   2.551   2.482   3.782 -0.8691  0.0206 -0.4292
  271MOL0     O37296   2.556   2.613   3.796  0.2596  0.2619  0.5934
  271MOL0     C37297   2.603   2.669   3.919  0.1101  0.5995 -0.0312
  271MOL0     C37298   2.490   2.679   4.021  0.6564 -0.3137  0.3306
  271MOL0     C37299   2.373   2.766   3.972 -0.8097  1.1134 -0.2346
  271MOL0     C37300   2.241   2.762   4.061  0.0418 -0.2109 -0.6015
  271MOL0     C37301   2.111   2.771   3.981  0.0135 -0.0063 -0.6688
  271MOL0     C37302   2.005   2.857   4.057 -0.7212  0.0241  0.2004
  271MOL0     C37303   1.919   2.801   4.164  0.8079 -0.0704  0.0369
  271MOL0     C37304   1.892   2.894   4.281  0.0829  0.0964 -0.1809
  271MOL0    Cl37305   1.775   2.826   4.389  0.7963  0.1934  0.0150
  271MOL0     C37306   2.630   2.383   3.856 -0.7335  0.4237 -0.4419
  271MOL0     C37307   2.624   2.249   3.811  0.5938  0.0826 -0.5976
  271MOL0     O37308   2.618   1.963   3.844 -0.5990  0.1955 -0.4803
  271MOL0     C37309   2.597   1.718   3.724 -0.4196 -1.5280 -0.0077
  271MOL0     C37310   2.565   1.588   3.693  0.2874  0.5771  0.0419
  271MOL0     N37311   2.352   0.764   3.483 -0.0485  0.2543  0.4148
  271MOL0     N37312   2.360   0.730   3.362 -0.1686  0.5127  0.2333
  271MOL0     C37313   2.909   0.362   2.445  0.2988  0.2924  0.8115
  271MOL0     C37314   3.017   0.327   2.357 -0.3639 -0.0019 -0.7942
  271MOL0     C37315   3.339   0.115   2.159  0.8003  0.3030 -0.1454
  271MOL0     C37316   3.373  -0.009   2.115  0.3729 -0.1631 -0.1435
  271MOL0     C37317   3.447  -0.030   1.997  0.3488 -0.5759 -0.9396
  271MOL0     C37318   3.490   0.071   1.920  0.4958  0.5063  0.8193
  271MOL0     O37319   3.545   0.033   1.804  0.1670  0.1407  0.1326
  271MOL0     C37320   3.685   0.085   1.801 -0.0206 -0.1873  0.1643
  271MOL0     C37321   3.760   0.004   1.682 -0.8528  0.6861  0.2714
  271MOL0     C37322   3.765  -0.135   1.722  0.1647  1.2789  0.5542
  271MOL0     C37323   3.787  -0.223   1.603  0.4966 -0.0757  0.0634
  271MOL0     C37324   3.936  -0.252   1.584  0.3827 -0.3742  0.3691
  271MOL0     C37325   4.049  -0.289   1.570 -0.7239 -0.2079 -0.5928
  271MOL0     C37326   3.463   0.202   1.961 -0.0065 -0.5291 -0.3102
  271MOL0     C37327   3.397   0.222   2.090  0.4862 -0.2776 -0.0617
  271MOL0     C37328   3.380   0.361   2.139  0.3987 -0.0823 -0.2707
  271MOL0     H37329   2.976   0.003   2.342 -1.4697 -0.8418  0.0194
  271MOL0     H37330   2.804   0.047   2.537 -2.8547  0.8296 -1.9431
  271MOL0     H37331   2.693   0.486   2.545  0.2702 -2.3015 -0.4818
  271MOL0     H37332   2.765   0.464   2.710 -0.5597  0.7133  0.2721
  271MOL0     H37333   2.469   0.411   2.631 -1.4853 -0.1444  2.3136
  271MOL0     H37334   2.549   0.321   2.754  1.3875 -0.8068  1.0083
  271MOL0     H37335   2.517   0.627   2.753 -1.3197  1.3793  1.4780
  271MOL0     H37336   2.418   0.518   2.844  0.0625 -0.7930  0.3717
  271MOL0     H37337   2.612   0.449   2.979 -3.6062 -0.7367  0.6604
  271MOL0     H37338   2.716   0.569   2.902 -0.9935  3.9440 -0.2571
  271MOL0     H37339   2.639   0.659   3.115  0.0678 -2.5405  0.3906
  271MOL0     H37340   2.481   0.589   3.091  1.1393  2.6865  4.1840
  271MOL0     H37341   2.601   0.819   2.935  1.0819 -0.6510  1.2526
  271MOL0     H37342   2.435   0.756   2.921  0.6749  0.3132 -0.3502
  271MOL0     H37343   2.469   0.982   3.058  2.5608  0.8627  1.2130
  271MOL0     H37344   2.536   0.879   3.182  0.5931 -0.0314 -0.1308
  271MOL0     H37345   2.251   0.900   3.097  0.9732 -0.1890 -0.3076
  271MOL0     H37346   2.298   0.737   3.097  2.2654 -0.5685 -0.4946
  271MOL0     H37347   2.269   1.037   3.341  4.0782  1.3349  3.6211
  271MOL0     H37348   2.273   0.914   3.700 -2.4047 -0.6692 -0.6397
  271MOL0     H37349   2.177   1.020   3.613  0.1780 -0.6746 -3.0111
  271MOL0     H37350   2.384   1.125   3.730  3.3518  1.7736  0.3707
  271MOL0     H37351   2.495   1.039   3.621  0.4230  1.6021 -1.4996
  271MOL0     H37352   2.434   1.181   3.446 -0.6785 -0.1762 -0.5373
  271MOL0     H37353   2.289   1.226   3.534  0.0989 -1.8254 -0.8425
  271MOL0     H37354   2.465   1.315   3.716 -1.1197  2.3202 -0.0891
  271MOL0     H37355   2.555   1.330   3.560  0.3185  1.1272  1.3056
  271MOL0     H37356   2.298   1.652   3.506 -0.6629 -2.1313  1.5028
  271MOL0     H37357   2.277   1.877   3.475  0.2413  0.0854 -0.9017
  271MOL0     H37358   2.403   1.998   3.498  1.3943  0.2142  1.8473
  271MOL0     H37359   2.289   1.978   3.628  1.2980  0.8087 -0.4933
  271MOL0     H37360   2.385   2.279   3.568  2.1856 -0.4487 -1.7823
  271MOL0     H37361   2.384   2.498   3.652 -2.4209 -2.0553  1.8734
  271MOL0     H37362   2.688   2.614   3.960  1.1927  2.6971  0.6565
  271MOL0     H37363   2.656   2.763   3.899  0.3485  0.0490 -2.3857
  271MOL0     H37364   2.465   2.577   4.054  0.4893 -0.6428 -0.7920
  271MOL0     H37365   2.532   2.736   4.105  0.5373 -1.1237  0.9632
  271MOL0     H37366   2.346   2.728   3.873  2.6487 -0.2411 -0.8030
  271MOL0     H37367   2.408   2.867   3.947 -0.8148  0.4643 -3.2545
  271MOL0     H37368   2.248   2.844   4.133  3.0613 -2.6017  2.1364
  271MOL0     H37369   2.238   2.670   4.120 -1.2157  0.1646 -0.0441
  271MOL0     H37370   2.123   2.834   3.891 -1.4536 -2.7052 -2.9078
  271MOL0     H37371   2.070   2.684   3.930  0.7802  0.4384 -2.1300
  271MOL0     H37372   1.930   2.901   3.991  0.0704  1.4270  0.2066
  271MOL0     H37373   2.064   2.940   4.097 -0.0203 -0.5649  0.4188
  271MOL0     H37374   1.973   2.715   4.205  2.2362  0.7717 -0.0091
  271MOL0     H37375   1.824   2.772   4.117  1.4012 -1.7295 -0.2189
  271MOL0     H37376   1.858   2.994   4.253  1.2120  0.5556  0.0318
  271MOL0     H37377   1.977   2.933   4.338 -0.2830  0.0968  0.3788
  271MOL0     H37378   2.711   2.411   3.923 -0.4151  4.0897 -2.1231
  271MOL0     H37379   2.699   2.186   3.858  0.3650  1.0739  1.1687
  271MOL0     H37380   2.684   1.732   3.787 -0.9375 -1.6086  0.7268
  271MOL0     H37381   2.604   1.492   3.723 -1.7318 -1.1685 -2.4384
  271MOL0     H37382   2.888   0.464   2.473 -2.9302  0.0557 -0.3056
  271MOL0     H37383   3.087   0.404   2.327 -2.5444  1.8720 -1.2969
  271MOL0     H37384   3.340  -0.095   2.173  1.4735 -0.9376 -0.6155
  271MOL0     H37385   3.491  -0.126   1.975  2.3250  0.0732 -0.0784
  271MOL0     H37386   3.683   0.191   1.774 -0.2552 -0.8064 -2.5557
  271MOL0     H37387   3.731   0.061   1.897 -0.0359  0.6354  0.3826
  271MOL0     H37388   3.861   0.039   1.660 -0.8765  0.4007 -0.3104
  271MOL0     H37389   3.709   0.012   1.586 -0.0163  3.2832 -0.0203
  271MOL0     H37390   3.845  -0.137   1.798 -1.2792  2.0438  2.1667
  271MOL0     H37391   3.674  -0.171   1.770 -1.7931  2.0834 -2.3359
  271MOL0     H37392   3.750  -0.173   1.514 -2.6508 -3.8617 -1.0298
  271MOL0     H37393   3.737  -0.320   1.614  2.6039 -1.5205 -1.9030
  271MOL0     H37394   4.142  -0.336   1.546  0.3352  2.4824 -2.2280
  271MOL0     H37395   3.505   0.287   1.909  1.2852  0.3960  2.1106
  271MOL0     H37396   3.435   0.442   2.089 -0.4503 -0.1039 -1.2795
  271MOL0     H37397   3.275   0.388   2.154  0.2303  0.2965 -1.9257
  271MOL0     H37398   3.434   0.356   2.234  0.5259  1.1845 -0.2646
  272MOL0     O37399  10.178   4.257  11.175 -0.2941  0.0148  0.8161
  272MOL0     C37400  10.208   4.363  11.224  0.8604 -0.3492 -0.2012
  272MOL0     O37401  10.257   4.468  11.149  0.2372 -0.0601 -0.3756
  272MOL0     C37402  10.381   4.499  11.182  0.0508 -0.0424 -1.3244
  272MOL0     C37403  10.397   4.629  11.211 -0.2252 -1.1892 -0.7961
  272MOL0     C37404  10.529   4.675  11.230 -0.3357 -0.3041  0.2623
  272MOL0     C37405  10.639   4.590  11.232 -0.6657 -0.0557  0.0672
  272MOL0     O37406  10.768   4.644  11.242  0.3293  0.0983 -0.1408
  272MOL0     C37407  10.876   4.555  11.283 -0.5407 -0.2782 -0.0955
  272MOL0     C37408  11.011   4.620  11.281  0.3856 -0.1868  0.1692
  272MOL0     C37409  11.036   4.694  11.414 -0.7072  0.7663 -0.0600
  272MOL0     C37410  11.079   4.609  11.536 -0.5754 -1.3298 -0.8363
  272MOL0     C37411  11.075   4.700  11.665  0.0674 -0.0144 -0.5954
  272MOL0     C37412  11.117   4.607  11.786  0.1359  0.2004  0.4964
  272MOL0     C37413  11.084   4.661  11.919 -0.2137  0.3092  0.3222
  272MOL0     C37414  11.110   4.552  12.021 -0.3689 -0.5803  0.8356
  272MOL0     N37415  11.018   4.560  12.129  0.5524 -0.1725  0.6283
  272MOL0     C37416  11.012   4.656  12.228 -0.0274  0.8371  0.0626
  272MOL0     C37417  10.890   4.635  12.287 -0.0637 -0.2602  0.1079
  272MOL0     C37418  10.842   4.708  12.415 -0.0955  0.4054 -0.2490
  272MOL0     C37419  10.930   4.677  12.545 -0.4232  0.6315 -1.0741
  272MOL0     C37420  10.974   4.526  12.567 -0.8318 -0.6396  0.3051
  272MOL0     C37421  10.873   4.444  12.653 -0.0258 -0.1790  0.2566
  272MOL0     O37422  10.931   4.328  12.726 -0.0841 -0.2997  0.1125
  272MOL0     C37423  10.954   4.338  12.857  1.1274 -1.4976 -1.2629
  272MOL0     C37424  10.927   4.444  12.949 -0.0606 -0.5354  0.5997
  272MOL0     C37425  10.954   4.435  13.091 -0.4905 -0.2632  0.2468
  272MOL0     C37426  10.903   4.547  13.177  0.7889  0.0881 -0.2102
  272MOL0     C37427  11.022   4.318  13.136  1.0295 -0.7875  0.0126
  272MOL0     C37428  11.048   4.287  13.283 -0.6034 -0.4693  0.6214
  272MOL0     O37429  11.083   4.161  13.323  0.0836 -0.1890  0.3135
  272MOL0     C37430  11.127   4.128  13.447 -0.2194 -0.5269 -0.0834
  272MOL0     C37431  11.156   4.209  13.554 -0.4804  0.3704 -0.6931
  272MOL0     C37432  11.193   4.162  13.682  0.6365  0.3538  0.5712
  272MOL0     C37433  11.183   4.025  13.709  0.1513  0.2994  0.1405
  272MOL0     O37434  11.198   3.986  13.838 -0.3025  0.1218  0.4207
  272MOL0     C37435  11.102   4.014  13.935  0.0489  0.6138  0.7075
  272MOL0     C37436  11.169   4.080  14.057 -0.1911 -0.2924  0.4149
  272MOL0     C37437  11.064   4.136  14.157 -0.3400  0.0447 -0.4186
  272MOL0     C37438  10.926   4.058  14.164  0.0136 -0.1270 -0.1446
  272MOL0     C37439  10.841   4.104  14.286 -0.1704 -0.8043 -0.0038
  272MOL0     C37440  10.798   3.998  14.380 -0.1026 -0.2612  0.3945
  272MOL0     C37441  10.750   4.053  14.510 -0.3479 -0.6177 -0.1681
  272MOL0     C37442  10.740   3.937  14.606 -0.2398 -0.6167 -0.0282
  272MOL0    Cl37443  10.661   3.993  14.753 -0.0506 -0.0441  0.0531
  272MOL0     C37444  11.160   3.941  13.605  0.7011  0.3453  0.2702
  272MOL0     C37445  11.127   3.990  13.476  0.0565  0.2478  0.6364
  272MOL0     O37446  11.032   4.380  13.358 -0.8385 -0.4173 -0.1215
  272MOL0     C37447  11.048   4.226  13.045  0.0424  0.9065 -0.1654
  272MOL0     C37448  11.015   4.225  12.908 -0.5310 -0.3217 -0.1525
  272MOL0     N37449  10.826   4.534  12.229  0.1467  0.0659  0.1911
  272MOL0     N37450  10.906   4.488  12.138 -0.6942 -0.4928 -0.4674
  272MOL0     C37451  10.616   4.454  11.203  0.7880  0.6923 -0.1884
  272MOL0     C37452  10.485   4.413  11.174  0.2920  0.5658 -0.6214
  272MOL0     C37453  10.204   4.386  11.370 -0.3227  0.7372 -0.2947
  272MOL0     C37454  10.155   4.503  11.425 -0.0232  0.1587  0.2337
  272MOL0     C37455  10.136   4.528  11.562 -0.5769  0.3902  0.1768
  272MOL0     C37456  10.176   4.435  11.651  0.1948  0.6144  0.4358
  272MOL0     O37457  10.165   4.443  11.788 -0.0030 -0.2018  0.1943
  272MOL0     C37458  10.113   4.567  11.844  0.2894  0.1174 -0.2226
  272MOL0     C37459  10.114   4.548  11.999 -1.0808 -0.9877  1.1883
  272MOL0     C37460  10.255   4.549  12.053  0.6004  0.0180  0.3100
  272MOL0     C37461  10.313   4.407  12.053  0.3459  0.6165 -0.7028
  272MOL0     C37462  10.457   4.415  12.044  0.0078  0.5309 -0.0079
  272MOL0     C37463  10.579   4.432  12.022 -0.1349  0.4744 -0.2950
  272MOL0     C37464  10.222   4.311  11.603  0.0642  0.3389 -0.0937
  272MOL0     C37465  10.238   4.288  11.462 -0.0143 -0.1653  0.4938
  272MOL0     C37466  10.291   4.148  11.425 -0.0743  0.3202 -0.8478
  272MOL0     H37467  10.313   4.696  11.194  0.0877 -1.1102 -2.1507
  272MOL0     H37468  10.556   4.780  11.242 -3.0104  0.4763  0.1847
  272MOL0     H37469  10.874   4.475  11.210 -1.6635 -1.5594  1.2574
  272MOL0     H37470  10.866   4.508  11.382 -0.4103 -0.8442 -0.3507
  272MOL0     H37471  11.098   4.557  11.259  1.9942  1.6566  0.9573
  272MOL0     H37472  11.018   4.693  11.200 -1.3748 -1.6729 -1.4384
  272MOL0     H37473  11.108   4.771  11.385  0.0260  0.7371  1.5558
  272MOL0     H37474  10.949   4.750  11.449  0.4301  1.5585  1.6573
  272MOL0     H37475  11.002   4.533  11.551 -2.0826  0.5299  1.9424
  272MOL0     H37476  11.175   4.556  11.526  0.2462 -0.9248  3.0554
  272MOL0     H37477  10.980   4.752  11.677  1.1010  2.7329 -3.0706
  272MOL0     H37478  11.156   4.773  11.659  1.8016 -1.3994  3.0755
  272MOL0     H37479  11.059   4.516  11.766 -0.6020  0.1763  2.5489
  272MOL0     H37480  11.223   4.580  11.783 -0.0807 -0.6539 -2.1297
  272MOL0     H37481  10.977   4.680  11.913 -0.0715  0.5787 -1.8360
  272MOL0     H37482  11.142   4.750  11.944  0.1993  0.5493 -1.3800
  272MOL0     H37483  11.103   4.450  11.981 -0.8287 -0.8240  1.5066
  272MOL0     H37484  11.212   4.573  12.054  0.5817 -0.4473 -1.9669
  272MOL0     H37485  11.082   4.734  12.257 -0.3463  1.4497 -0.7986
  272MOL0     H37486  10.745   4.660  12.430  1.4107 -1.8750  4.5271
  272MOL0     H37487  10.844   4.817  12.410  5.6214  0.5936 -0.5638
  272MOL0     H37488  11.024   4.733  12.549  1.1560 -1.9505  0.8771
  272MOL0     H37489  10.877   4.720  12.630  0.5286  1.0020 -0.6616
  272MOL0     H37490  10.976   4.465  12.477 -2.8645 -1.7448  0.9328
  272MOL0     H37491  11.074   4.516  12.610 -0.2954 -2.9077 -1.2838
  272MOL0     H37492  10.813   4.509  12.717 -1.2858 -2.4208  1.4702
  272MOL0     H37493  10.797   4.400  12.588 -1.4304 -0.5587  2.1027
  272MOL0     H37494  10.880   4.537  12.919 -1.3262 -1.7628 -1.4358
  272MOL0     H37495  10.981   4.613  13.215  0.9472 -1.7648  3.0256
  272MOL0     H37496  10.836   4.508  13.255  2.3006  1.3952  1.8465
  272MOL0     H37497  10.840   4.604  13.108 -0.2934 -1.0349 -0.1947
  272MOL0     H37498  11.154   4.316  13.541 -0.6212  1.0072  3.2106
  272MOL0     H37499  11.210   4.241  13.755  0.6226  1.6506 -0.7816
  272MOL0     H37500  11.034   4.087  13.890 -1.5211 -2.6208 -2.7324
  272MOL0     H37501  11.043   3.926  13.962 -1.5736  1.7381  0.9910
  272MOL0     H37502  11.243   4.010  14.097 -1.7244 -1.8005  0.7769
  272MOL0     H37503  11.219   4.168  14.017  1.1315  0.9780  4.4319
  272MOL0     H37504  11.047   4.232  14.107 -1.2372 -1.0434 -2.2977
  272MOL0     H37505  11.111   4.155  14.254  0.2019  0.2767 -0.7239
  272MOL0     H37506  10.960   3.955  14.176  1.5442  0.2137 -1.3199
  272MOL0     H37507  10.872   4.069  14.069  0.4884 -1.1877 -0.5451
  272MOL0     H37508  10.901   4.173  14.347  1.5103 -1.2972 -1.0243
  272MOL0     H37509  10.751   4.164  14.269 -0.7137 -1.3684  0.7508
  272MOL0     H37510  10.880   3.927  14.395 -0.8517 -0.8414  1.9949
  272MOL0     H37511  10.716   3.954  14.323  2.4773  0.9611 -4.9041
  272MOL0     H37512  10.652   4.100  14.503 -0.7389 -0.5247  3.7067
  272MOL0     H37513  10.819   4.132  14.540 -1.7224  2.1320 -3.5885
  272MOL0     H37514  10.840   3.896  14.620  0.6849  0.8340 -2.0175
  272MOL0     H37515  10.673   3.863  14.562  1.2025 -1.3695 -1.0224
  272MOL0     H37516  11.167   3.834  13.624 -0.1545  0.4120  1.0367
  272MOL0     H37517  11.105   3.930  13.388 -1.1759  0.1548  0.9898
  272MOL0     H37518  11.087   4.132  13.081 -0.0748  0.8195 -0.2653
  272MOL0     H37519  11.021   4.129  12.859 -2.9072 -0.6576  0.1009
  272MOL0     H37520  10.694   4.379  11.192 -3.5627 -4.2854 -0.9687
  272MOL0     H37521  10.448   4.315  11.146 -1.2657  1.3795 -1.5256
  272MOL0     H37522  10.110   4.588  11.374  0.5792  0.4561  0.1864
  272MOL0     H37523  10.089   4.620  11.595  0.2874  1.0264 -0.3247
  272MOL0     H37524  10.175   4.656  11.832 -0.1840  0.4547 -0.1675
  272MOL0     H37525  10.010   4.588  11.816 -0.8181 -0.9977  2.7060
  272MOL0     H37526  10.050   4.473  12.047 -2.3574 -0.8218 -0.1812
  272MOL0     H37527  10.068   4.636  12.045 -0.2290  0.0108  0.1887
  272MOL0     H37528  10.316   4.613  11.989 -1.2343  0.4629 -1.1011
  272MOL0     H37529  10.255   4.589  12.154  0.2843  0.5503  0.1037
  272MOL0     H37530  10.278   4.343  11.972  2.0316  0.6151 -1.4683
  272MOL0     H37531  10.285   4.351  12.142  0.8516 -0.3923 -1.1688
  272MOL0     H37532  10.682   4.451  12.000  0.4741  1.6886  3.0815
  272MOL0     H37533  10.242   4.237  11.679 -0.5908 -1.8215 -1.9074
  272MOL0     H37534  10.220   4.082  11.375 -0.3140 -0.6860  0.7583
  272MOL0     H37535  10.389   4.149  11.377  0.1379  0.1702 -0.4280
  272MOL0     H37536  10.313   4.098  11.520  0.3825  0.3944 -0.9134
  273MOL0     O37537   4.485   7.420   8.254  0.3119  0.2578 -0.0053
  273MOL0     C37538   4.415   7.521   8.239 -0.7447 -0.5105 -0.3169
  273MOL0     O37539   4.355   7.554   8.120  0.4373 -0.2340 -0.1386
  273MOL0     C37540   4.313   7.465   8.023  0.1622 -1.3139  0.6683
  273MOL0     C37541   4.213   7.512   7.933  0.2220 -0.2661 -0.9796
  273MOL0     C37542   4.153   7.423   7.842 -0.6505 -0.3540 -0.0209
  273MOL0     C37543   4.196   7.293   7.831  0.9125  0.6944 -0.3026
  273MOL0     O37544   4.132   7.222   7.731 -0.1727  0.4629 -0.1215
  273MOL0     C37545   4.182   7.091   7.698 -1.3890 -0.2195  0.2710
  273MOL0     C37546   4.133   7.046   7.562 -0.0148 -0.2507  0.4832
  273MOL0     C37547   4.193   6.915   7.524 -0.0806  0.1711 -0.3264
  273MOL0     C37548   4.160   6.877   7.378 -0.0873 -0.1819  0.1226
  273MOL0     C37549   4.245   6.756   7.313 -0.6209  0.2571  0.1405
  273MOL0     C37550   4.172   6.618   7.349 -0.8870  0.1704  0.8697
  273MOL0     C37551   4.067   6.560   7.252  1.2407 -1.3468 -0.1233
  273MOL0     C37552   3.995   6.436   7.315  0.1269 -0.3254 -0.0794
  273MOL0     N37553   4.059   6.314   7.261 -1.1494 -0.3089  0.5687
  273MOL0     C37554   4.049   6.237   7.145 -0.0253  0.5216 -0.2402
  273MOL0     C37555   4.142   6.138   7.153 -0.2593  0.6499  0.0359
  273MOL0     C37556   4.181   6.048   7.048  0.4088  0.8650  0.3134
  273MOL0     C37557   4.183   6.102   6.901 -0.4883  0.8777 -0.3630
  273MOL0     C37558   4.212   5.981   6.805  0.8130 -0.0349  0.3778
  273MOL0     C37559   4.083   5.898   6.779  0.3165  0.7977 -0.6182
  273MOL0     O37560   3.970   5.989   6.756  0.6905 -0.2691  0.3299
  273MOL0     C37561   3.850   5.922   6.763 -0.6697 -0.0164  0.1056
  273MOL0     C37562   3.735   5.987   6.812  0.1841 -0.2561  0.1301
  273MOL0     C37563   3.604   5.937   6.790 -0.1068 -0.4936 -0.1426
  273MOL0     C37564   3.486   6.017   6.850  0.4249  0.0149 -0.2432
  273MOL0     C37565   3.590   5.800   6.752 -0.2915  0.6744 -0.1110
  273MOL0     C37566   3.458   5.733   6.731 -0.3630  0.2735 -0.5601
  273MOL0     O37567   3.443   5.608   6.803 -0.4636 -0.4092  0.1704
  273MOL0     C37568   3.318   5.547   6.796  0.6324  0.1434 -0.0133
  273MOL0     C37569   3.218   5.571   6.894  0.1112 -0.1087 -0.4958
  273MOL0     C37570   3.093   5.505   6.877 -0.1867  0.0512 -0.5684
  273MOL0     C37571   3.066   5.417   6.779 -0.1530 -0.2932 -1.2607
  273MOL0     O37572   2.943   5.355   6.775 -0.2637 -0.0739  0.2464
  273MOL0     C37573   2.896   5.294   6.650 -0.6975 -0.0324  0.2255
  273MOL0     C37574   2.755   5.238   6.670 -0.2364 -0.6857 -0.4019
  273MOL0     C37575   2.752   5.122   6.762 -0.2375 -0.3765  0.0869
  273MOL0     C37576   2.625   5.101   6.829 -0.2115  0.3840  0.8585
  273MOL0     C37577   2.616   4.968   6.903 -0.5629 -0.5108 -0.2877
  273MOL0     C37578   2.476   4.944   6.940  0.2336 -1.0074  0.1465
  273MOL0     C37579   2.457   4.834   7.051  0.2013  0.6219  0.5118
  273MOL0     C37580   2.316   4.774   7.044 -0.4455  0.1603  0.3584
  273MOL0    Cl37581   2.286   4.704   6.875 -0.2999 -0.1628 -0.3566
  273MOL0     C37582   3.168   5.398   6.682 -0.6781  0.3437 -0.3747
  273MOL0     C37583   3.287   5.469   6.684 -0.4393  0.7538 -0.4937
  273MOL0     O37584   3.371   5.790   6.661  0.0923 -0.7403 -0.2112
  273MOL0     C37585   3.702   5.736   6.706 -1.3268  0.1343  0.1988
  273MOL0     C37586   3.833   5.794   6.703  0.9487  0.2637 -0.8094
  273MOL0     N37587   4.196   6.150   7.280  0.0378  0.2231  0.3161
  273MOL0     N37588   4.143   6.251   7.347  0.1778  0.3285  0.7067
  273MOL0     C37589   4.297   7.240   7.918 -0.5416  0.7012 -0.2629
  273MOL0     C37590   4.353   7.330   8.011 -0.0148  0.0472  0.4502
  273MOL0     C37591   4.394   7.606   8.362 -0.0501  0.3644  0.0162
  273MOL0     C37592   4.453   7.555   8.480 -0.1796 -0.5211  1.1960
  273MOL0     C37593   4.452   7.631   8.591 -0.5569  0.1727  0.1849
  273MOL0     C37594   4.390   7.751   8.592 -0.8763 -0.3092  0.7452
  273MOL0     O37595   4.407   7.825   8.711  0.0074 -0.0602 -0.2380
  273MOL0     C37596   4.336   7.948   8.723  0.0718  0.2019 -0.2471
  273MOL0     C37597   4.377   8.008   8.859 -0.0517  1.0284 -0.3603
  273MOL0     C37598   4.333   7.909   8.973 -0.0774 -0.4215 -0.7855
  273MOL0     C37599   4.335   7.991   9.104  0.0192  0.1021  1.2338
  273MOL0     C37600   4.325   7.901   9.222  0.0095  0.0215 -0.7062
  273MOL0     C37601   4.290   7.837   9.320 -0.7828  0.1736 -0.2290
  273MOL0     C37602   4.331   7.800   8.479  0.3439 -1.0313 -0.3772
  273MOL0     C37603   4.334   7.735   8.357 -0.1055  0.9104 -0.6422
  273MOL0     C37604   4.291   7.805   8.230  0.3286 -0.1508 -0.4744
  273MOL0     H37605   4.173   7.610   7.956  3.2627  1.1372 -1.1184
  273MOL0     H37606   4.066   7.450   7.783  0.5015  0.2787 -1.4791
  273MOL0     H37607   4.147   7.011   7.765 -1.8358 -2.6599 -2.6550
  273MOL0     H37608   4.291   7.083   7.707 -0.9629  2.2482 -1.7637
  273MOL0     H37609   4.024   7.040   7.560 -0.0467 -1.2173  2.4727
  273MOL0     H37610   4.153   7.120   7.484 -2.0364 -0.2853 -0.1055
  273MOL0     H37611   4.301   6.932   7.519 -0.3594  1.5973 -3.0790
  273MOL0     H37612   4.170   6.840   7.600  0.6442 -0.7436 -1.0013
  273MOL0     H37613   4.054   6.854   7.370 -0.3096  0.6127  0.5693
  273MOL0     H37614   4.165   6.967   7.316 -3.1640 -0.9183 -1.3736
  273MOL0     H37615   4.346   6.742   7.352 -0.3777  3.4298  0.8759
  273MOL0     H37616   4.254   6.762   7.204 -1.4608 -1.2883 -0.0578
  273MOL0     H37617   4.248   6.540   7.353 -0.0271  1.0408  3.5658
  273MOL0     H37618   4.125   6.634   7.447  2.2469  0.4170  2.4410
  273MOL0     H37619   4.108   6.539   7.153  1.2741  0.2788 -0.4822
  273MOL0     H37620   3.997   6.639   7.225 -0.0714 -1.7170  1.9366
  273MOL0     H37621   3.987   6.439   7.424 -3.7108  3.4266 -0.2386
  273MOL0     H37622   3.892   6.425   7.279  1.1528 -0.7257 -3.1926
  273MOL0     H37623   3.985   6.263   7.061  1.0447  0.4284 -1.1067
  273MOL0     H37624   4.117   5.960   7.054  1.1810  0.3070  0.4405
  273MOL0     H37625   4.275   5.999   7.075 -0.5006  0.2221  2.5388
  273MOL0     H37626   4.088   6.152   6.881 -0.1540  0.7276 -2.5471
  273MOL0     H37627   4.263   6.175   6.883 -1.3176  1.8729 -0.1411
  273MOL0     H37628   4.260   6.008   6.711  0.0426 -0.7735 -0.2421
  273MOL0     H37629   4.291   5.916   6.843  1.5741  1.5245  1.5936
  273MOL0     H37630   4.105   5.827   6.699  0.2988  1.2511 -1.0363
  273MOL0     H37631   4.059   5.849   6.874  0.1735  1.6675 -0.1919
  273MOL0     H37632   3.763   6.086   6.848  2.8180 -1.0475  0.4601
  273MOL0     H37633   3.413   5.951   6.897 -1.4825  2.2453  0.1087
  273MOL0     H37634   3.422   6.068   6.776 -2.9506 -1.3075  1.5638
  273MOL0     H37635   3.505   6.102   6.916  0.3893 -0.9623  1.0538
  273MOL0     H37636   3.240   5.643   6.972 -0.0962 -4.7869  4.4084
  273MOL0     H37637   3.041   5.523   6.970  4.0605  2.5613  1.6523
  273MOL0     H37638   2.891   5.369   6.570  1.1782  0.8012  0.8256
  273MOL0     H37639   2.968   5.215   6.628  1.4217  1.2365  2.1397
  273MOL0     H37640   2.685   5.319   6.693  0.9450  0.7478 -1.6647
  273MOL0     H37641   2.729   5.205   6.568  0.1680 -1.1645 -0.3515
  273MOL0     H37642   2.837   5.134   6.829 -0.0305  2.2083 -0.5452
  273MOL0     H37643   2.778   5.032   6.705 -1.0684 -0.8586  0.4538
  273MOL0     H37644   2.543   5.094   6.758 -0.7951 -2.3283  1.6669
  273MOL0     H37645   2.608   5.187   6.895  0.4273  0.3078  1.1312
  273MOL0     H37646   2.645   4.881   6.843 -1.6397 -0.1162 -1.4410
  273MOL0     H37647   2.679   4.973   6.992 -1.0631  0.9347  0.0177
  273MOL0     H37648   2.432   4.916   6.845 -0.4197 -1.9344  0.7091
  273MOL0     H37649   2.423   5.034   6.974  0.0159 -0.7961 -0.7426
  273MOL0     H37650   2.473   4.867   7.154  0.3644 -0.5983  0.8922
  273MOL0     H37651   2.529   4.755   7.029 -0.8559  0.4060 -2.6853
  273MOL0     H37652   2.241   4.843   7.084 -1.8187 -2.1905  2.0726
  273MOL0     H37653   2.300   4.689   7.111 -1.0117 -2.4213 -2.7934
  273MOL0     H37654   3.157   5.338   6.592 -0.6014 -2.1239  1.1556
  273MOL0     H37655   3.363   5.445   6.611 -0.7373  1.1986 -0.9556
  273MOL0     H37656   3.682   5.644   6.653 -2.7851  0.1061  0.7495
  273MOL0     H37657   3.911   5.729   6.664  2.7760  0.1835  2.6452
  273MOL0     H37658   4.337   7.139   7.923  1.0652  1.3216 -0.2061
  273MOL0     H37659   4.422   7.276   8.075  0.6218 -1.4293 -1.3731
  273MOL0     H37660   4.508   7.461   8.487  0.9979 -0.1802 -1.7860
  273MOL0     H37661   4.505   7.600   8.680  0.2646  1.7855  0.2938
  273MOL0     H37662   4.361   8.024   8.648 -0.7934  0.6104 -0.1400
  273MOL0     H37663   4.227   7.940   8.716 -0.0421  1.9870 -1.1086
  273MOL0     H37664   4.338   8.110   8.870  0.0496  0.9618  0.7532
  273MOL0     H37665   4.486   8.018   8.864  0.0570 -0.4695  0.6269
  273MOL0     H37666   4.228   7.879   8.970 -0.3153  0.4499 -1.8793
  273MOL0     H37667   4.402   7.825   8.971 -0.4271 -0.7003 -1.2643
  273MOL0     H37668   4.244   8.051   9.116 -0.6671 -0.0706 -1.9921
  273MOL0     H37669   4.427   8.050   9.108  0.1266  0.4919 -2.5394
  273MOL0     H37670   4.274   7.763   9.396  1.0116 -0.8298 -0.7495
  273MOL0     H37671   4.289   7.900   8.479  2.7563  0.0497  0.5241
  273MOL0     H37672   4.374   7.803   8.158  1.5314  0.0273  0.8551
  273MOL0     H37673   4.202   7.752   8.196  1.0443 -2.2227  0.7464
  273MOL0     H37674   4.266   7.911   8.243 -0.4555 -0.6217  2.6102
  274MOL0     O37675   8.528   4.884   5.910 -0.1593 -0.2219  0.3872
  274MOL0     C37676   8.596   4.786   5.904 -0.3458  0.0962  0.0728
  274MOL0     O37677   8.534   4.664   5.879 -0.7629  0.0562 -1.0203
  274MOL0     C37678   8.420   4.652   5.809 -0.0652 -0.2772  0.4518
  274MOL0     C37679   8.417   4.529   5.747  1.1157 -0.2574  0.2469
  274MOL0     C37680   8.302   4.495   5.674 -0.0864 -0.4551 -0.4976
  274MOL0     C37681   8.200   4.590   5.658  0.1471 -0.2677  0.1429
  274MOL0     O37682   8.091   4.572   5.581  1.2155  0.3956  0.8191
  274MOL0     C37683   8.077   4.450   5.504 -0.1737 -0.0091 -0.1833
  274MOL0     C37684   7.954   4.476   5.422  0.0173  0.5508  0.3622
  274MOL0     C37685   7.943   4.372   5.300  0.0296 -0.1915  0.8380
  274MOL0     C37686   7.811   4.303   5.302  0.3329 -0.7225  0.0095
  274MOL0     C37687   7.808   4.201   5.188  0.0281  0.2193  0.0775
  274MOL0     C37688   7.776   4.254   5.043 -0.2742  0.4561 -0.2573
  274MOL0     C37689   7.794   4.140   4.944 -0.3642  0.7817  0.5266
  274MOL0     C37690   7.719   4.008   4.971  0.1316 -0.6728 -0.6925
  274MOL0     N37691   7.758   3.919   4.857  1.3454  0.5204 -1.0131
  274MOL0     C37692   7.835   3.808   4.860 -0.2558 -0.5621 -0.6109
  274MOL0     C37693   7.838   3.769   4.730 -0.6429  0.0807  0.3059
  274MOL0     C37694   7.891   3.631   4.700 -0.3623 -0.1596 -0.3852
  274MOL0     C37695   8.016   3.651   4.602  0.2394 -0.4670  0.9589
  274MOL0     C37696   8.142   3.633   4.686 -0.6868  0.6547  0.6734
  274MOL0     C37697   8.272   3.669   4.615 -0.6799 -0.8230  0.2324
  274MOL0     O37698   8.374   3.628   4.705 -0.5324  0.1887  0.2776
  274MOL0     C37699   8.508   3.662   4.685 -0.4448 -0.0343  0.8590
  274MOL0     C37700   8.542   3.747   4.573 -0.0870  0.2756 -0.7867
  274MOL0     C37701   8.675   3.769   4.531  0.4057 -0.3749 -0.2486
  274MOL0     C37702   8.702   3.881   4.434  0.2000  0.7320 -0.2959
  274MOL0     C37703   8.771   3.679   4.577  0.8003 -0.2667  0.4281
  274MOL0     C37704   8.915   3.662   4.523 -0.0704  0.6210 -0.1133
  274MOL0     O37705   8.984   3.556   4.568 -0.8618 -0.7553  0.1283
  274MOL0     C37706   9.111   3.548   4.522  0.2287  0.5810  0.1260
  274MOL0     C37707   9.219   3.607   4.595  0.4883 -0.0886 -0.3797
  274MOL0     C37708   9.351   3.594   4.536 -0.6066 -0.2445  0.5907
  274MOL0     C37709   9.372   3.545   4.415  0.1195  0.0157  0.6495
  274MOL0     O37710   9.507   3.540   4.365  0.4426  0.4727  1.0829
  274MOL0     C37711   9.534   3.506   4.232 -0.0686 -0.3905 -0.4402
  274MOL0     C37712   9.637   3.604   4.175 -0.1818 -0.2715 -0.0568
  274MOL0     C37713   9.674   3.581   4.021  0.0330  0.0506 -0.1801
  274MOL0     C37714   9.812   3.619   3.971  0.8261 -0.1148  0.0779
  274MOL0     C37715   9.816   3.605   3.819  0.6926  0.2794  0.1851
  274MOL0     C37716   9.929   3.693   3.768 -0.7068 -0.7297 -0.2351
  274MOL0     C37717   9.882   3.832   3.753 -0.0123 -0.2265  1.6145
  274MOL0     C37718   9.990   3.933   3.726 -0.0646 -0.0947 -0.2191
  274MOL0    Cl37719  10.005   3.916   3.554  0.5211  0.0574  0.2862
  274MOL0     C37720   9.267   3.484   4.347  0.6709 -0.0011 -0.4828
  274MOL0     C37721   9.134   3.484   4.392  0.0224  0.7242 -0.0093
  274MOL0     O37722   8.947   3.735   4.431 -0.1356 -0.1312  0.0780
  274MOL0     C37723   8.743   3.585   4.671  0.8471  0.7882 -0.2388
  274MOL0     C37724   8.611   3.577   4.732  0.4853  0.0184 -0.0811
  274MOL0     N37725   7.756   3.850   4.649  0.2096  0.0308 -0.5919
  274MOL0     N37726   7.722   3.939   4.728 -0.4849 -0.6326  0.2688
  274MOL0     C37727   8.202   4.708   5.719  0.0819 -0.0243  0.8017
  274MOL0     C37728   8.316   4.742   5.794 -0.2356  0.7353  0.0163
  274MOL0     C37729   8.737   4.771   5.947  0.3252 -0.1914  0.1186
  274MOL0     C37730   8.787   4.639   5.966 -0.9432  0.2407 -1.4793
  274MOL0     C37731   8.921   4.618   6.018 -0.2313  0.0908  0.3113
  274MOL0     C37732   9.003   4.725   6.044  0.3656 -0.1771  0.7391
  274MOL0     O37733   9.132   4.720   6.085  0.0594  0.0346  0.1437
  274MOL0     C37734   9.203   4.624   6.011 -0.1854 -0.1108  0.1284
  274MOL0     C37735   9.352   4.652   6.041 -0.6360  0.7405 -0.1573
  274MOL0     C37736   9.451   4.564   5.971 -0.3502  1.2962  0.1096
  274MOL0     C37737   9.597   4.587   6.038 -0.2770  0.6301 -0.1430
  274MOL0     C37738   9.705   4.493   5.987  0.6898 -0.4264 -0.3022
  274MOL0     C37739   9.788   4.416   5.950 -0.8878  0.4175 -0.5814
  274MOL0     C37740   8.955   4.858   6.017  0.0462  0.4471  0.5224
  274MOL0     C37741   8.822   4.877   5.967 -0.1185  0.4761 -0.1737
  274MOL0     C37742   8.797   5.025   5.945  0.0158  0.5235 -0.3929
  274MOL0     H37743   8.495   4.457   5.770  2.2567  1.0584  0.5479
  274MOL0     H37744   8.286   4.393   5.641  2.1152 -0.7008 -0.9815
  274MOL0     H37745   8.075   4.365   5.573 -1.8927 -0.1076 -0.3077
  274MOL0     H37746   8.163   4.440   5.438  0.3160 -0.5468  0.5200
  274MOL0     H37747   7.862   4.480   5.481 -1.7195  2.6749 -2.2222
  274MOL0     H37748   7.951   4.575   5.374 -1.4440 -0.6198 -2.1639
  274MOL0     H37749   7.961   4.433   5.211  1.3461  3.1533  3.1789
  274MOL0     H37750   8.017   4.292   5.315  1.4679  1.1122  0.9638
  274MOL0     H37751   7.797   4.248   5.395 -1.4477  1.0650  0.8742
  274MOL0     H37752   7.729   4.376   5.296  1.9164  1.0565 -3.3945
  274MOL0     H37753   7.734   4.130   5.226  1.0642 -0.6877  0.4572
  274MOL0     H37754   7.906   4.151   5.189  1.6046  3.0856 -0.4207
  274MOL0     H37755   7.671   4.286   5.039 -0.8134 -1.0722  0.4675
  274MOL0     H37756   7.849   4.332   5.022 -1.1893  2.4349  3.0940
  274MOL0     H37757   7.901   4.125   4.929 -0.6401 -0.6444 -0.1431
  274MOL0     H37758   7.756   4.184   4.851 -3.0717 -1.3426  0.5003
  274MOL0     H37759   7.739   3.956   5.065  0.9374  0.6938 -0.0723
  274MOL0     H37760   7.612   4.030   4.968  0.1661 -0.5419 -0.9475
  274MOL0     H37761   7.887   3.761   4.943 -1.5682 -0.4276  0.3089
  274MOL0     H37762   7.817   3.570   4.647  0.9804 -1.5901 -0.6846
  274MOL0     H37763   7.918   3.567   4.785 -0.9626 -2.0258 -1.5426
  274MOL0     H37764   8.024   3.576   4.523  2.3139  2.9489 -2.4835
  274MOL0     H37765   8.025   3.750   4.555 -0.0296  0.3618  2.5884
  274MOL0     H37766   8.134   3.692   4.778  1.9519  0.5637  1.0254
  274MOL0     H37767   8.148   3.527   4.709 -1.6948  0.4134 -0.0923
  274MOL0     H37768   8.265   3.630   4.513  0.2231  0.5501 -0.3849
  274MOL0     H37769   8.269   3.778   4.606 -0.8040 -0.4845  3.4342
  274MOL0     H37770   8.457   3.798   4.529 -1.0271  1.4935  2.2329
  274MOL0     H37771   8.686   3.849   4.331  0.3315  0.3236 -0.1910
  274MOL0     H37772   8.805   3.914   4.445  0.7780 -1.7832  4.8925
  274MOL0     H37773   8.630   3.961   4.458 -1.5626 -0.7774 -0.2953
  274MOL0     H37774   9.223   3.663   4.688  2.8979  3.8457 -2.6112
  274MOL0     H37775   9.434   3.634   4.593  1.2357  1.6790 -3.0665
  274MOL0     H37776   9.572   3.404   4.243  1.8280  0.2778 -0.4301
  274MOL0     H37777   9.444   3.510   4.169 -2.0003 -0.0842  2.1880
  274MOL0     H37778   9.608   3.709   4.178  1.6795  0.2887 -0.2025
  274MOL0     H37779   9.728   3.574   4.228 -2.1454 -0.3111  3.6560
  274MOL0     H37780   9.599   3.627   3.956 -0.2578 -3.6673 -2.8235
  274MOL0     H37781   9.662   3.473   4.009 -2.4172 -0.1541  2.9121
  274MOL0     H37782   9.884   3.560   4.029 -0.7892  0.7662  3.2251
  274MOL0     H37783   9.817   3.719   4.014 -1.9945 -2.0098  5.9963
  274MOL0     H37784   9.833   3.499   3.799  0.9802  0.1905  0.8635
  274MOL0     H37785   9.721   3.634   3.774 -1.2464 -2.8510  1.9343
  274MOL0     H37786   9.975   3.653   3.677 -0.8627  0.4648 -0.8696
  274MOL0     H37787  10.003   3.699   3.849 -0.7053  3.2629 -0.3275
  274MOL0     H37788   9.815   3.859   3.836 -2.5386 -0.9448 -0.1102
  274MOL0     H37789   9.812   3.824   3.670  0.8157  0.9908  0.7543
  274MOL0     H37790  10.085   3.912   3.774  0.1581 -0.1234 -0.6664
  274MOL0     H37791   9.960   4.033   3.758 -0.3992  0.1558 -1.2628
  274MOL0     H37792   9.279   3.432   4.253 -2.7484 -2.8423  0.4576
  274MOL0     H37793   9.053   3.434   4.341 -0.8715 -0.5499  2.4514
  274MOL0     H37794   8.803   3.499   4.702 -0.3713  0.3820  1.1619
  274MOL0     H37795   8.580   3.516   4.815 -1.5064  0.3861 -0.5074
  274MOL0     H37796   8.114   4.768   5.697  0.4482 -0.3103 -1.7886
  274MOL0     H37797   8.309   4.840   5.839  0.1124  0.7299  0.0795
  274MOL0     H37798   8.733   4.547   5.948  1.4026 -0.7723 -3.8738
  274MOL0     H37799   8.953   4.518   6.044 -0.0143 -0.0405 -0.4349
  274MOL0     H37800   9.172   4.520   6.025  0.2073 -0.6334 -2.3774
  274MOL0     H37801   9.190   4.634   5.903  0.3507 -2.3184 -0.1821
  274MOL0     H37802   9.365   4.645   6.150  1.5791 -2.1321 -0.4927
  274MOL0     H37803   9.371   4.758   6.022 -0.8138  0.8506  0.2652
  274MOL0     H37804   9.422   4.459   5.973 -1.8995  1.6828  1.8468
  274MOL0     H37805   9.443   4.589   5.865 -1.9779 -2.2069 -0.7375
  274MOL0     H37806   9.595   4.586   6.147 -2.7001  1.1193 -0.1431
  274MOL0     H37807   9.627   4.687   6.006  0.5907  0.8289  1.1902
  274MOL0     H37808   9.869   4.353   5.920 -2.2917 -1.5913 -0.4020
  274MOL0     H37809   9.024   4.940   6.035  2.2345 -0.5177 -2.5376
  274MOL0     H37810   8.804   5.088   6.034 -3.4244  1.1046 -0.4035
  274MOL0     H37811   8.883   5.055   5.884  1.5836 -2.2878  0.2623
  274MOL0     H37812   8.698   5.051   5.905  0.1349  4.7382  1.4782
  275MOL0     O37813   8.114   8.755   3.725 -0.1573  0.0134  0.0082
  275MOL0     C37814   8.115   8.747   3.601  0.3519 -0.2178 -0.4883
  275MOL0     O37815   8.182   8.832   3.511  0.1704  0.1898  0.1183
  275MOL0     C37816   8.259   8.936   3.562 -0.1602 -0.2840 -0.2461
  275MOL0     C37817   8.227   9.040   3.657  0.4887  0.1176  0.8028
  275MOL0     C37818   8.323   9.130   3.691 -0.6763  0.2939 -1.0586
  275MOL0     C37819   8.450   9.127   3.630  0.3589  0.0498 -1.8378
  275MOL0     O37820   8.555   9.213   3.663 -0.9216  0.8177  0.2855
  275MOL0     C37821   8.551   9.295   3.774  0.4159  0.0845 -0.2594
  275MOL0     C37822   8.488   9.427   3.756  0.2905  0.2589  0.2617
  275MOL0     C37823   8.448   9.509   3.888  0.0198  0.5077  0.0222
  275MOL0     C37824   8.409   9.654   3.839 -0.7125 -0.1129  0.2340
  275MOL0     C37825   8.374   9.742   3.959  0.0430  0.1532  0.9067
  275MOL0     C37826   8.390   9.889   3.913 -0.0202  0.5250 -0.4117
  275MOL0     C37827   8.367   9.979   4.038  0.1246  0.4602 -0.2848
  275MOL0     C37828   8.420  10.116   4.032  1.2519  0.0230  0.1942
  275MOL0     N37829   8.335  10.207   4.106  0.0102  0.2305 -0.2237
  275MOL0     C37830   8.263  10.179   4.217 -0.9766 -0.2817  0.4792
  275MOL0     C37831   8.185  10.289   4.240  0.3825 -0.6131 -0.0237
  275MOL0     C37832   8.091  10.292   4.364 -0.4268  0.2054  0.3631
  275MOL0     C37833   8.155  10.355   4.484 -0.9204 -0.5411  0.9423
  275MOL0     C37834   8.094  10.321   4.620  0.0795  0.2490 -0.7946
  275MOL0     C37835   7.959  10.387   4.640  0.5985 -1.4069 -0.0009
  275MOL0     O37836   7.985  10.529   4.663 -0.4462  0.0820 -0.0804
  275MOL0     C37837   7.870  10.605   4.685  0.7300 -0.0553  0.3128
  275MOL0     C37838   7.736  10.564   4.666  0.1142 -0.6735  0.0681
  275MOL0     C37839   7.624  10.649   4.685  0.1709 -0.5353  0.3817
  275MOL0     C37840   7.490  10.588   4.643 -0.8708 -0.3187 -0.7718
  275MOL0     C37841   7.639  10.779   4.721 -0.3570  0.2364  0.3798
  275MOL0     C37842   7.535  10.885   4.748  0.4442  0.4413 -0.1892
  275MOL0     O37843   7.576  10.999   4.804  0.1282  0.0821 -0.6143
  275MOL0     C37844   7.506  11.072   4.893  0.3077  1.1720  0.3994
  275MOL0     C37845   7.377  11.126   4.863  0.6298  0.4135  0.1192
  275MOL0     C37846   7.304  11.197   4.964 -0.1188 -0.3454 -0.0329
  275MOL0     C37847   7.366  11.231   5.088 -0.3036 -0.0117 -0.4586
  275MOL0     O37848   7.326  11.311   5.189  0.5412 -0.1529 -0.5125
  275MOL0     C37849   7.198  11.386   5.170  0.0773 -0.0778  0.2583
  275MOL0     C37850   7.225  11.524   5.108 -0.3154  0.3482  0.2926
  275MOL0     C37851   7.132  11.622   5.176  1.2047 -0.5991  0.0528
  275MOL0     C37852   7.154  11.764   5.116 -0.9817 -0.0107 -0.3942
  275MOL0     C37853   7.059  11.879   5.167 -0.1989 -0.2684 -0.1261
  275MOL0     C37854   7.122  11.966   5.271 -0.0379  0.7669 -0.4093
  275MOL0     C37855   7.025  12.005   5.380 -0.2867  0.0384  0.1879
  275MOL0     C37856   7.078  12.107   5.485 -0.6865  0.7935 -0.5546
  275MOL0    Cl37857   7.097  12.276   5.420  0.6101 -0.5762 -0.4190
  275MOL0     C37858   7.496  11.174   5.115  0.1228  0.4903 -0.1843
  275MOL0     C37859   7.557  11.090   5.018  0.0998 -0.2706 -0.2422
  275MOL0     O37860   7.412  10.863   4.745  0.3190  0.0834  0.3734
  275MOL0     C37861   7.774  10.823   4.729 -0.1781 -0.3514  0.1086
  275MOL0     C37862   7.890  10.739   4.719 -0.0583 -0.0075  0.4106
  275MOL0     N37863   8.213  10.384   4.144  0.3474  0.5738  0.8027
  275MOL0     N37864   8.299  10.335   4.065 -0.0348  0.8715 -0.1768
  275MOL0     C37865   8.487   9.023   3.545 -0.3038 -0.4025  0.1412
  275MOL0     C37866   8.390   8.931   3.504  0.3822  0.2311  0.5401
  275MOL0     C37867   8.050   8.632   3.543  0.2272  0.2625  0.6871
  275MOL0     C37868   7.935   8.574   3.608 -0.8120 -0.4529  0.1769
  275MOL0     C37869   7.861   8.466   3.549 -0.5035 -0.1493  0.2585
  275MOL0     C37870   7.916   8.410   3.437 -1.2451  0.0008  0.7738
  275MOL0     O37871   7.876   8.297   3.370 -0.1703  0.0829  0.8012
  275MOL0     C37872   7.733   8.303   3.336 -1.1997 -0.3364 -0.4651
  275MOL0     C37873   7.655   8.204   3.424  0.7851  0.8711 -0.1794
  275MOL0     C37874   7.504   8.192   3.404 -0.0784 -0.5308 -0.0005
  275MOL0     C37875   7.435   8.092   3.484  0.1569  0.7138  0.2804
  275MOL0     C37876   7.292   8.097   3.462 -0.2710 -0.2291  0.0330
  275MOL0     C37877   7.179   8.111   3.464  0.1583  0.5950 -0.7884
  275MOL0     C37878   8.021   8.474   3.368  0.1251  0.1542 -1.0381
  275MOL0     C37879   8.088   8.578   3.418  0.6564 -0.5926 -0.6561
  275MOL0     C37880   8.203   8.628   3.327 -0.3423 -0.1320 -0.2314
  275MOL0     H37881   8.128   9.047   3.701 -0.2958  0.8803 -0.9980
  275MOL0     H37882   8.297   9.202   3.768 -2.3255  0.9599 -2.1657
  275MOL0     H37883   8.655   9.311   3.803  0.1245  1.0526  0.3007
  275MOL0     H37884   8.500   9.246   3.858 -1.4268  0.3101 -1.1874
  275MOL0     H37885   8.556   9.493   3.703  1.9556 -2.1877 -0.8063
  275MOL0     H37886   8.392   9.410   3.706 -0.0919 -2.8960  1.7794
  275MOL0     H37887   8.364   9.462   3.941 -0.4050 -0.7669 -1.7148
  275MOL0     H37888   8.537   9.513   3.951 -0.6381  1.4541  0.9456
  275MOL0     H37889   8.492   9.690   3.777 -1.7932  1.5234 -0.3184
  275MOL0     H37890   8.325   9.652   3.769  1.3012 -0.8169 -2.3181
  275MOL0     H37891   8.447   9.716   4.037  1.4002 -1.5773 -0.8343
  275MOL0     H37892   8.272   9.727   3.994 -0.2883  4.5595  2.4453
  275MOL0     H37893   8.495   9.909   3.889 -0.3812  2.1610 -0.8022
  275MOL0     H37894   8.327   9.935   3.836  2.1447  4.9262  0.1101
  275MOL0     H37895   8.408   9.939   4.131  3.5959  1.5743 -1.1678
  275MOL0     H37896   8.258   9.978   4.050  0.2242 -4.4629  2.5248
  275MOL0     H37897   8.522  10.124   4.070  2.2056 -0.6045 -2.1037
  275MOL0     H37898   8.427  10.141   3.926  0.3177  1.6536  0.4911
  275MOL0     H37899   8.273  10.101   4.292  1.2673  0.6263  1.1800
  275MOL0     H37900   8.075  10.186   4.390 -2.3649  0.3166 -0.2066
  275MOL0     H37901   7.993  10.334   4.336 -1.4284 -0.3066  2.8589
  275MOL0     H37902   8.254  10.308   4.486 -1.5437 -2.0457 -0.8194
  275MOL0     H37903   8.180  10.462   4.475  1.9679 -1.2686 -1.4131
  275MOL0     H37904   8.081  10.214   4.637 -0.4093  0.5692  1.0707
  275MOL0     H37905   8.164  10.350   4.698  3.1836  0.4663 -3.4619
  275MOL0     H37906   7.901  10.376   4.549  0.0197  1.4678 -0.0814
  275MOL0     H37907   7.905  10.335   4.720  0.8683 -4.2830 -1.5575
  275MOL0     H37908   7.719  10.463   4.631  1.2902 -0.6706 -0.5800
  275MOL0     H37909   7.418  10.598   4.725 -1.8291  0.6376 -1.7129
  275MOL0     H37910   7.499  10.483   4.613  0.9678 -0.0500 -1.2819
  275MOL0     H37911   7.431  10.635   4.564  2.8966  1.5490 -2.7400
  275MOL0     H37912   7.335  11.104   4.765  0.4777  0.5738  0.1490
  275MOL0     H37913   7.206  11.235   4.936 -0.6837 -2.7805 -1.6082
  275MOL0     H37914   7.128  11.323   5.116  1.5903 -0.8334 -0.8964
  275MOL0     H37915   7.168  11.398   5.275  0.1540  0.7273  0.1970
  275MOL0     H37916   7.323  11.562   5.139 -1.0922  1.5671  1.3314
  275MOL0     H37917   7.216  11.520   4.999 -1.1728  0.2416  0.3599
  275MOL0     H37918   7.140  11.621   5.285 -3.0793 -0.3600  0.5431
  275MOL0     H37919   7.027  11.598   5.156  1.6393 -0.9729 -1.9525
  275MOL0     H37920   7.126  11.743   5.013 -0.3717 -3.1273 -0.0151
  275MOL0     H37921   7.255  11.806   5.113 -0.7994  0.0032  2.7438
  275MOL0     H37922   7.024  11.939   5.083  0.9660  1.7457  0.7727
  275MOL0     H37923   6.977  11.821   5.212 -2.7661  2.4027 -1.0139
  275MOL0     H37924   7.159  12.052   5.215  1.2494 -0.1863 -1.0714
  275MOL0     H37925   7.207  11.920   5.323 -0.3226  1.1072  0.3737
  275MOL0     H37926   7.019  11.914   5.442  2.3824 -0.7477 -0.5686
  275MOL0     H37927   6.931  12.033   5.331 -0.6263 -3.2162 -1.3148
  275MOL0     H37928   7.178  12.076   5.516 -0.9402  1.3861  0.8905
  275MOL0     H37929   7.004  12.110   5.565  0.2098 -1.9183  0.4731
  275MOL0     H37930   7.527  11.189   5.218 -2.4982 -0.5875  0.8697
  275MOL0     H37931   7.655  11.049   5.043  1.1827  1.2351 -1.7759
  275MOL0     H37932   7.805  10.924   4.753  2.8060 -1.4041  1.2043
  275MOL0     H37933   7.988  10.782   4.739  0.5938 -0.2941 -1.9124
  275MOL0     H37934   8.583   9.014   3.497  0.4529 -2.9831  1.9007
  275MOL0     H37935   8.425   8.855   3.435  4.5872  0.4826  2.1121
  275MOL0     H37936   7.891   8.624   3.694 -2.5943 -0.3636 -0.7483
  275MOL0     H37937   7.770   8.433   3.599 -0.4606  0.3523  0.6826
  275MOL0     H37938   7.694   8.405   3.342  1.7122  0.8130  1.5113
  275MOL0     H37939   7.716   8.279   3.230 -1.8239 -0.2933 -0.3748
  275MOL0     H37940   7.664   8.237   3.528  0.1686  3.6676 -0.9293
  275MOL0     H37941   7.690   8.103   3.403 -0.9459  0.0972  0.4559
  275MOL0     H37942   7.451   8.286   3.424  0.7838 -0.2374  1.0080
  275MOL0     H37943   7.487   8.164   3.300  1.3346 -3.7344  0.5007
  275MOL0     H37944   7.453   8.114   3.590  0.3853 -1.5554  0.7684
  275MOL0     H37945   7.484   7.996   3.464  3.7452  2.5908 -0.7736
  275MOL0     H37946   7.072   8.116   3.459 -0.0410 -0.8832  0.8328
  275MOL0     H37947   8.063   8.426   3.280  1.2584  0.0451 -0.4584
  275MOL0     H37948   8.294   8.654   3.381 -1.7198  0.0095  2.1869
  275MOL0     H37949   8.213   8.546   3.255 -1.8913  0.4819 -1.2115
  275MOL0     H37950   8.169   8.718   3.274  0.9281 -0.6817 -2.0516
  276MOL0     O37951   2.324   6.395   5.887 -0.1718 -0.0842 -1.1605
  276MOL0     C37952   2.419   6.327   5.930  0.1055 -0.9178  0.5256
  276MOL0     O37953   2.502   6.365   6.036  0.0700  0.4478 -0.6621
  276MOL0     C37954   2.465   6.474   6.107 -0.1862 -0.2555 -0.8531
  276MOL0     C37955   2.481   6.465   6.251 -0.6250  0.0594  1.3906
  276MOL0     C37956   2.465   6.577   6.340 -0.3396  0.1165  0.6177
  276MOL0     C37957   2.421   6.697   6.280  0.2302  0.6321  0.0045
  276MOL0     O37958   2.382   6.806   6.347 -0.3245 -0.2987 -0.4655
  276MOL0     C37959   2.464   6.851   6.462 -0.2867  0.0349  0.9538
  276MOL0     C37960   2.393   6.971   6.541 -0.0001 -0.7750  0.1049
  276MOL0     C37961   2.436   7.118   6.511 -0.4988  0.3090 -0.4083
  276MOL0     C37962   2.352   7.221   6.592 -0.6077  0.7279 -0.2159
  276MOL0     C37963   2.354   7.357   6.515  1.0823  0.4174  0.2363
  276MOL0     C37964   2.245   7.453   6.566  1.1965 -0.3157 -0.4177
  276MOL0     C37965   2.274   7.597   6.514  0.7391  0.2829 -0.5311
  276MOL0     C37966   2.166   7.691   6.554  0.0865 -0.3017 -0.7021
  276MOL0     N37967   2.216   7.746   6.687  0.2976 -0.2043 -0.1045
  276MOL0     C37968   2.169   7.707   6.812  0.4050 -0.6170  0.7686
  276MOL0     C37969   2.235   7.785   6.902  0.7765 -0.1209  1.0258
  276MOL0     C37970   2.222   7.768   7.050  0.6939 -0.1068 -0.5208
  276MOL0     C37971   2.107   7.853   7.117  0.0356  0.8272 -0.1396
  276MOL0     C37972   1.962   7.794   7.091  0.7438 -0.3016 -0.2559
  276MOL0     C37973   1.903   7.706   7.209 -0.8982  0.8708  0.3691
  276MOL0     O37974   1.888   7.786   7.330 -0.5795 -0.5203  0.0021
  276MOL0     C37975   1.777   7.868   7.346  0.3049 -0.0235 -0.2275
  276MOL0     C37976   1.663   7.819   7.405 -0.1455 -0.5829 -0.8685
  276MOL0     C37977   1.543   7.892   7.417  0.1037 -0.3241 -0.0409
  276MOL0     C37978   1.427   7.821   7.490 -0.3589  0.3195 -0.0305
  276MOL0     C37979   1.547   8.029   7.384 -0.9153 -0.4986 -0.2089
  276MOL0     C37980   1.427   8.120   7.389  0.0941 -0.2418  0.0427
  276MOL0     O37981   1.313   8.090   7.457  0.6832  1.0943  0.2554
  276MOL0     C37982   1.215   8.181   7.448  0.5065  0.0237  0.6246
  276MOL0     C37983   1.182   8.268   7.555  0.5285  0.7638 -0.1448
  276MOL0     C37984   1.072   8.361   7.556  0.6809  0.0653  0.4796
  276MOL0     C37985   0.979   8.360   7.445 -0.8408 -0.1824  0.2298
  276MOL0     O37986   0.866   8.423   7.458  0.3240 -0.0392  0.6179
  276MOL0     C37987   0.771   8.422   7.351  0.4660 -0.1861 -0.1044
  276MOL0     C37988   0.644   8.505   7.390  0.2413 -0.1656 -0.2011
  276MOL0     C37989   0.566   8.446   7.516  0.9162  0.4440  1.1695
  276MOL0     C37990   0.496   8.550   7.600  0.5439 -0.7463 -0.3175
  276MOL0     C37991   0.410   8.489   7.711  1.1024 -0.1622 -0.7275
  276MOL0     C37992   0.379   8.587   7.825  0.1675 -0.1064  0.3827
  276MOL0     C37993   0.317   8.516   7.939 -0.6745 -0.2906  0.1458
  276MOL0     C37994   0.209   8.601   8.004 -0.8545  0.0110 -0.0792
  276MOL0    Cl37995   0.118   8.531   8.139  0.4728  0.5715  0.1555
  276MOL0     C37996   1.008   8.272   7.341 -0.5485  0.2356 -0.7043
  276MOL0     C37997   1.124   8.188   7.337  0.0885 -0.2235 -0.7382
  276MOL0     O37998   1.440   8.230   7.337 -1.4131  0.5808  0.3411
  276MOL0     C37999   1.670   8.078   7.335  0.2646 -0.5028  0.5963
  276MOL0     C38000   1.788   8.003   7.312 -0.0531  0.2732 -0.3577
  276MOL0     N38001   2.310   7.878   6.822 -0.5779 -0.6257 -0.3331
  276MOL0     N38002   2.293   7.852   6.701  0.4375 -0.3226  0.4386
  276MOL0     C38003   2.404   6.708   6.144  0.5470  0.4139  0.4741
  276MOL0     C38004   2.426   6.599   6.057 -1.1104 -0.2644  0.4722
  276MOL0     C38005   2.421   6.190   5.863  0.6693  0.1781  0.0678
  276MOL0     C38006   2.306   6.125   5.848 -0.9065 -0.3237 -0.1802
  276MOL0     C38007   2.304   6.003   5.783  0.0945 -0.3510  0.1790
  276MOL0     C38008   2.416   5.940   5.737 -0.6814  0.3370  1.0607
  276MOL0     O38009   2.399   5.818   5.671 -0.2876  0.8526 -0.5825
  276MOL0     C38010   2.527   5.749   5.645  0.1766 -0.2210 -1.1867
  276MOL0     C38011   2.490   5.615   5.584  0.2885 -0.0926 -0.9651
  276MOL0     C38012   2.417   5.638   5.452  0.3751 -0.1459  0.0877
  276MOL0     C38013   2.346   5.508   5.408  0.2407  0.9975  0.0834
  276MOL0     C38014   2.280   5.523   5.283 -0.4013  0.3633  0.1846
  276MOL0     C38015   2.226   5.536   5.174  0.2158  0.9354  0.2861
  276MOL0     C38016   2.541   6.003   5.766 -0.1118 -0.3316 -0.0557
  276MOL0     C38017   2.540   6.127   5.827 -1.2851 -0.3014 -0.6032
  276MOL0     C38018   2.677   6.184   5.858  0.1102  0.0031  0.6005
  276MOL0     H38019   2.510   6.372   6.300  0.5212 -0.3317  0.0482
  276MOL0     H38020   2.492   6.572   6.445  1.5103 -1.2953  0.1248
  276MOL0     H38021   2.566   6.868   6.427  0.2350  0.0291  2.3906
  276MOL0     H38022   2.472   6.768   6.533  1.5539 -0.1366  0.5945
  276MOL0     H38023   2.286   6.960   6.526  0.2474 -1.5118 -1.3313
  276MOL0     H38024   2.416   6.943   6.645  1.2690 -3.2879 -0.7747
  276MOL0     H38025   2.540   7.133   6.544 -1.1334 -2.1366  3.1711
  276MOL0     H38026   2.422   7.136   6.404  0.1017  1.5107 -0.3072
  276MOL0     H38027   2.249   7.188   6.603 -1.1669  1.4051 -2.7599
  276MOL0     H38028   2.393   7.239   6.692 -3.9382 -5.7457  2.9488
  276MOL0     H38029   2.354   7.353   6.406 -1.1054  2.3282  0.1017
  276MOL0     H38030   2.447   7.409   6.539 -0.5201  2.2002  3.1531
  276MOL0     H38031   2.144   7.419   6.541  1.5154 -0.3797 -1.7340
  276MOL0     H38032   2.249   7.460   6.675  4.0818  1.2246 -0.5216
  276MOL0     H38033   2.286   7.597   6.405  2.4380 -1.0019 -0.3918
  276MOL0     H38034   2.368   7.640   6.550  0.2773  1.8944 -1.1591
  276MOL0     H38035   2.160   7.785   6.499  1.2616  1.6296  2.1738
  276MOL0     H38036   2.068   7.642   6.557  0.0807 -0.2610  0.2594
  276MOL0     H38037   2.112   7.620   6.841 -0.5653 -1.0816 -2.1685
  276MOL0     H38038   2.320   7.794   7.093  1.8991 -4.8429  0.1471
  276MOL0     H38039   2.195   7.665   7.076 -1.8892  1.0906  2.0084
  276MOL0     H38040   2.120   7.848   7.225  1.9679 -2.2270 -0.3945
  276MOL0     H38041   2.125   7.956   7.085  3.3831  0.4818  0.2472
  276MOL0     H38042   1.889   7.873   7.069  1.1532  0.3067  0.5375
  276MOL0     H38043   1.968   7.732   7.001 -0.0041 -1.5313  0.5143
  276MOL0     H38044   1.812   7.656   7.175  0.7630 -0.9667 -1.7729
  276MOL0     H38045   1.968   7.626   7.245  0.3482  1.4907 -0.4180
  276MOL0     H38046   1.667   7.711   7.419 -0.1235 -0.3290  1.5237
  276MOL0     H38047   1.331   7.852   7.451  1.3790  5.3786 -0.9613
  276MOL0     H38048   1.426   7.847   7.596  0.9834  1.3350 -0.2444
  276MOL0     H38049   1.440   7.712   7.496 -0.0905  0.4354  2.6815
  276MOL0     H38050   1.234   8.248   7.648 -2.9331 -2.9750  1.2793
  276MOL0     H38051   1.053   8.418   7.646 -0.4378  4.2479 -2.1245
  276MOL0     H38052   0.819   8.458   7.259  2.8356 -0.9807  0.7405
  276MOL0     H38053   0.742   8.318   7.333 -3.3224  0.3876  1.7546
  276MOL0     H38054   0.682   8.605   7.414 -3.1998  1.3325 -0.3344
  276MOL0     H38055   0.584   8.519   7.299  1.9763  0.2922 -1.3191
  276MOL0     H38056   0.642   8.389   7.571  0.6373 -2.5688 -1.2831
  276MOL0     H38057   0.491   8.371   7.491  3.1728 -1.8916  1.0172
  276MOL0     H38058   0.430   8.613   7.539  0.7540 -0.1914  0.0179
  276MOL0     H38059   0.571   8.620   7.637  1.2724 -0.3476 -2.4038
  276MOL0     H38060   0.324   8.461   7.650  2.2740  0.2619 -2.6736
  276MOL0     H38061   0.464   8.401   7.747 -2.1786 -2.9719 -2.1122
  276MOL0     H38062   0.304   8.658   7.790  2.7428  3.5634  1.6006
  276MOL0     H38063   0.466   8.642   7.862 -0.7265  0.2419  2.0493
  276MOL0     H38064   0.398   8.489   8.007 -1.8281 -0.4566  1.5214
  276MOL0     H38065   0.279   8.423   7.897 -0.1445  0.2651 -1.6712
  276MOL0     H38066   0.153   8.638   7.917  0.1838  1.6552 -0.0773
  276MOL0     H38067   0.261   8.688   8.046  1.6919 -1.3259 -0.2714
  276MOL0     H38068   0.930   8.256   7.267 -0.4638  3.7749 -1.7566
  276MOL0     H38069   1.130   8.107   7.265 -0.1225  0.8136 -1.9488
  276MOL0     H38070   1.679   8.183   7.310  0.1951 -0.1640  1.9168
  276MOL0     H38071   1.881   8.050   7.281  0.0149  0.1948 -0.2739
  276MOL0     H38072   2.385   6.805   6.098  0.0717  1.4413  2.6896
  276MOL0     H38073   2.426   6.623   5.952 -1.8488  0.5657  0.6470
  276MOL0     H38074   2.225   6.171   5.904 -1.1347 -0.0033 -0.7569
  276MOL0     H38075   2.203   5.965   5.780 -1.4789  3.2756  0.9760
  276MOL0     H38076   2.576   5.800   5.561  1.9174 -0.5746 -0.4475
  276MOL0     H38077   2.594   5.738   5.732 -4.2753  1.4215  2.9187
  276MOL0     H38078   2.424   5.564   5.655 -0.4654 -2.0955 -2.9604
  276MOL0     H38079   2.565   5.538   5.566 -1.4704 -1.4706 -3.0141
  276MOL0     H38080   2.340   5.716   5.453  1.2462  0.7887 -1.4650
  276MOL0     H38081   2.484   5.666   5.370 -1.0697  0.9281 -0.7824
  276MOL0     H38082   2.271   5.471   5.480  0.7049 -3.2085 -1.2953
  276MOL0     H38083   2.426   5.434   5.397 -1.7246 -1.2934  0.3397
  276MOL0     H38084   2.179   5.547   5.078 -0.8671 -0.9981  0.5390
  276MOL0     H38085   2.638   5.959   5.747  0.4905 -0.0066  1.9753
  276MOL0     H38086   2.719   6.162   5.956 -0.1427  0.5156  0.8308
  276MOL0     H38087   2.743   6.162   5.774  1.2442  1.0215  1.1856
  276MOL0     H38088   2.676   6.293   5.867 -3.1936  0.1255  0.1029
  277MOL0     O38089   8.245   1.354   9.829 -1.0891  0.3662  0.5202
  277MOL0     C38090   8.316   1.453   9.855  0.3832  0.5577  0.2670
  277MOL0     O38091   8.270   1.583   9.842 -0.6458  0.3857 -0.1704
  277MOL0     C38092   8.152   1.618   9.798 -0.1152  0.0882  0.0065
  277MOL0     C38093   8.087   1.547   9.696  0.3991 -0.0279  0.2435
  277MOL0     C38094   7.956   1.573   9.672  0.0803 -0.6335 -0.1802
  277MOL0     C38095   7.885   1.673   9.727  0.2188  0.1340 -0.7251
  277MOL0     O38096   7.759   1.699   9.687  0.4875 -0.4160 -0.1669
  277MOL0     C38097   7.700   1.829   9.714 -0.2704  0.0879 -0.4157
  277MOL0     C38098   7.576   1.842   9.629  0.1026 -0.4376 -0.1688
  277MOL0     C38099   7.603   1.858   9.479 -0.6292 -0.5772 -0.4863
  277MOL0     C38100   7.562   1.740   9.400 -0.0249 -0.0760 -1.5387
  277MOL0     C38101   7.621   1.739   9.262  0.0206 -0.4425 -0.2548
  277MOL0     C38102   7.536   1.825   9.161  0.1455  1.1352 -0.2345
  277MOL0     C38103   7.623   1.850   9.042 -0.2264 -0.5749 -0.9348
  277MOL0     C38104   7.618   1.991   8.999  0.6695 -1.4048 -0.1788
  277MOL0     N38105   7.626   2.094   9.108  0.1408 -0.4076 -0.3412
  277MOL0     C38106   7.739   2.111   9.189  0.8672  0.5780 -0.2150
  277MOL0     C38107   7.716   2.215   9.266  0.2226 -1.1037 -0.1632
  277MOL0     C38108   7.801   2.282   9.371 -0.3433 -0.8049  0.6018
  277MOL0     C38109   7.809   2.204   9.507  0.3072 -0.9338  0.6808
  277MOL0     C38110   7.924   2.246   9.602 -0.2498 -0.4368 -0.0468
  277MOL0     C38111   7.897   2.196   9.746 -0.0008 -0.2935  1.2790
  277MOL0     O38112   7.775   2.248   9.792 -0.1051 -0.3100 -0.4446
  277MOL0     C38113   7.709   2.171   9.874  0.5534 -0.8762 -0.4051
  277MOL0     C38114   7.770   2.094   9.974 -0.1594  0.0364 -0.3873
  277MOL0     C38115   7.709   1.996  10.054 -0.6421 -0.3773  0.0372
  277MOL0     C38116   7.799   1.917  10.151  0.4872 -0.3984  0.2747
  277MOL0     C38117   7.569   1.971  10.029 -0.3318 -0.3010  0.7590
  277MOL0     C38118   7.491   1.878  10.104 -0.8921  0.5473 -0.4533
  277MOL0     O38119   7.383   1.839  10.044 -0.1705  0.1625  0.5072
  277MOL0     C38120   7.279   1.775  10.101 -0.1635  0.3040 -1.4208
  277MOL0     C38121   7.169   1.759  10.023  0.3612 -0.0207  0.6066
  277MOL0     C38122   7.058   1.701  10.078  0.0452  0.1317 -0.8306
  277MOL0     C38123   7.057   1.641  10.205  0.0838  0.1529 -0.4045
  277MOL0     O38124   6.948   1.566  10.255  0.2631 -0.4182 -0.1490
  277MOL0     C38125   6.974   1.454  10.345 -1.4948 -0.2672  0.4756
  277MOL0     C38126   6.859   1.364  10.342 -0.1494 -0.1611  0.3611
  277MOL0     C38127   6.877   1.247  10.442  0.5314 -0.2307  0.6507
  277MOL0     C38128   6.866   1.299  10.585 -0.1623 -0.2513 -0.0032
  277MOL0     C38129   6.869   1.187  10.693 -0.2578 -0.0564 -0.5983
  277MOL0     C38130   7.009   1.176  10.752 -0.4698  0.2000 -0.9801
  277MOL0     C38131   6.993   1.090  10.885  1.6704 -0.2270 -0.2161
  277MOL0     C38132   7.115   1.055  10.957 -0.4674 -0.9455  0.4606
  277MOL0    Cl38133   7.180   1.200  11.036 -0.0529  0.3360 -0.0180
  277MOL0     C38134   7.168   1.663  10.281 -0.2093  0.7179  0.2543
  277MOL0     C38135   7.271   1.737  10.235  0.3405 -0.0337  0.1088
  277MOL0     O38136   7.537   1.843  10.212 -0.5571  0.6908  0.1061
  277MOL0     C38137   7.509   2.042   9.920 -0.2982  0.3360 -0.0153
  277MOL0     C38138   7.571   2.150   9.855  0.5240  0.3295 -0.2062
  277MOL0     N38139   7.588   2.255   9.239  0.7721 -0.1854 -0.1384
  277MOL0     N38140   7.534   2.193   9.139 -0.0706 -0.0675 -0.5305
  277MOL0     C38141   7.954   1.748   9.823 -1.1477  0.3731  0.0726
  277MOL0     C38142   8.082   1.719   9.866 -0.8676  0.2610 -0.4321
  277MOL0     C38143   8.465   1.437   9.868  0.5402 -0.2097  0.6081
  277MOL0     C38144   8.522   1.313   9.830 -0.6901  0.2234  0.6910
  277MOL0     C38145   8.657   1.286   9.855  0.5600  0.0049 -0.1484
  277MOL0     C38146   8.741   1.384   9.900 -0.7522  0.3703 -0.0311
  277MOL0     O38147   8.876   1.351   9.926  0.6311 -0.2234  0.0369
  277MOL0     C38148   8.965   1.358   9.812 -0.4769 -0.9910  0.0404
  277MOL0     C38149   9.102   1.340   9.866  0.5240 -0.3421 -0.5839
  277MOL0     C38150   9.217   1.384   9.764 -0.0327 -0.5633  0.1979
  277MOL0     C38151   9.364   1.378   9.811  0.0918  1.3105  0.7958
  277MOL0     C38152   9.445   1.351   9.689  0.4473 -0.9120  0.2825
  277MOL0     C38153   9.526   1.317   9.604  0.0190  0.0061  0.5254
  277MOL0     C38154   8.697   1.505   9.938  0.2690  0.4112  0.2172
  277MOL0     C38155   8.557   1.535   9.931 -0.6828 -0.5108 -0.6093
  277MOL0     C38156   8.511   1.670   9.988  0.3195  0.8094  0.7504
  277MOL0     H38157   8.132   1.471   9.632 -0.6260 -0.3110 -0.1638
  277MOL0     H38158   7.889   1.516   9.609 -2.7478  1.2632  0.9074
  277MOL0     H38159   7.770   1.913   9.710 -0.8981  1.0738  4.2247
  277MOL0     H38160   7.661   1.823   9.816  2.0822 -2.1858  0.4735
  277MOL0     H38161   7.509   1.762   9.659  2.3911 -1.8564  1.4835
  277MOL0     H38162   7.524   1.930   9.669  1.8148 -0.3655  2.1714
  277MOL0     H38163   7.532   1.932   9.439 -0.9241  0.2386  1.4282
  277MOL0     H38164   7.709   1.885   9.472 -0.3082 -0.3418  3.4323
  277MOL0     H38165   7.607   1.653   9.449  1.3531  0.0230 -2.5766
  277MOL0     H38166   7.453   1.731   9.409  0.1984 -1.6655  0.1513
  277MOL0     H38167   7.617   1.640   9.217 -4.6121 -0.2726 -0.7237
  277MOL0     H38168   7.721   1.783   9.265 -0.1946  0.0255  0.4663
  277MOL0     H38169   7.447   1.772   9.126  1.4440 -1.0886 -0.3352
  277MOL0     H38170   7.491   1.914   9.207  0.8218  2.7360 -2.4573
  277MOL0     H38171   7.571   1.788   8.968 -3.5896 -2.6444  2.7368
  277MOL0     H38172   7.726   1.813   9.051  0.5532  1.8758  1.1709
  277MOL0     H38173   7.706   2.012   8.938  2.6066  0.1860  2.8737
  277MOL0     H38174   7.530   2.020   8.941  1.1753  0.7325  0.0371
  277MOL0     H38175   7.819   2.039   9.176  0.8400  0.7414 -1.4009
  277MOL0     H38176   7.768   2.385   9.384  2.2999  0.5087 -2.0061
  277MOL0     H38177   7.897   2.300   9.321 -1.2779  0.6064 -0.7523
  277MOL0     H38178   7.710   2.225   9.547  0.7604 -0.0084  1.3363
  277MOL0     H38179   7.816   2.095   9.499 -1.2415 -1.2026  2.3262
  277MOL0     H38180   8.019   2.202   9.572 -1.2383 -1.0795 -2.5210
  277MOL0     H38181   7.932   2.355   9.596  0.2228 -0.4271  0.7131
  277MOL0     H38182   7.891   2.086   9.747 -0.1747 -0.3390 -0.7376
  277MOL0     H38183   7.978   2.223   9.815  2.7950  2.4617 -2.6252
  277MOL0     H38184   7.876   2.109   9.994  0.0880  0.1437 -1.7104
  277MOL0     H38185   7.792   1.959  10.251  0.5962 -2.7461  1.3166
  277MOL0     H38186   7.904   1.907  10.123  0.3507 -1.3283  0.0547
  277MOL0     H38187   7.779   1.809  10.153  0.7979 -0.4646  3.1739
  277MOL0     H38188   7.169   1.777   9.916  0.5204 -1.5871  0.3159
  277MOL0     H38189   6.972   1.686  10.014  1.2793  2.2406 -3.1416
  277MOL0     H38190   7.059   1.397  10.307 -1.4063 -0.9769  1.7026
  277MOL0     H38191   6.992   1.490  10.447 -3.4012  0.5960  0.5620
  277MOL0     H38192   6.770   1.423  10.367  0.6996  1.1891  0.2908
  277MOL0     H38193   6.840   1.321  10.244  1.6615  1.3500 -0.7337
  277MOL0     H38194   6.967   1.185  10.438  1.1294  0.7053 -1.4606
  277MOL0     H38195   6.793   1.184  10.409  0.4907  0.4609 -0.6216
  277MOL0     H38196   6.771   1.352  10.600  0.3339  0.0959  2.2894
  277MOL0     H38197   6.942   1.375  10.602  0.6357 -0.6080 -1.8029
  277MOL0     H38198   6.796   1.219  10.768 -0.6657  0.3430 -1.1618
  277MOL0     H38199   6.845   1.087  10.657 -2.1325  0.8668 -2.1249
  277MOL0     H38200   7.044   1.276  10.778 -1.4313  0.2962  0.0131
  277MOL0     H38201   7.077   1.116  10.690 -0.7297 -2.1526  0.8482
  277MOL0     H38202   6.939   1.002  10.850  3.6437 -2.3723  1.8098
  277MOL0     H38203   6.921   1.137  10.952  1.3284 -0.6481 -0.2861
  277MOL0     H38204   7.188   1.023  10.883  1.4898  0.4979  1.6827
  277MOL0     H38205   7.095   0.977  11.031 -1.5502  0.0149  1.2220
  277MOL0     H38206   7.173   1.651  10.389  0.9015  0.2578  0.1627
  277MOL0     H38207   7.340   1.763  10.315 -1.5201  1.4859  1.3082
  277MOL0     H38208   7.405   2.033   9.890 -0.4506  1.1167  0.2403
  277MOL0     H38209   7.521   2.215   9.784 -0.4095 -0.1379  0.0115
  277MOL0     H38210   7.900   1.833   9.863 -2.4368 -1.3747  2.3454
  277MOL0     H38211   8.120   1.774   9.951 -1.1624 -0.0301 -0.1147
  277MOL0     H38212   8.449   1.240   9.795  0.5700 -0.4482 -0.6386
  277MOL0     H38213   8.706   1.197   9.816 -1.0684 -0.7923 -0.4569
  277MOL0     H38214   8.928   1.282   9.743 -1.3768  0.8801 -1.6538
  277MOL0     H38215   8.952   1.453   9.760  1.4895 -0.4561  0.4371
  277MOL0     H38216   9.111   1.233   9.887  2.0439  0.1150  1.3857
  277MOL0     H38217   9.121   1.401   9.954  3.8821 -1.1080 -0.6412
  277MOL0     H38218   9.210   1.309   9.685  1.6622 -2.7608  2.0177
  277MOL0     H38219   9.190   1.478   9.715 -2.2582 -1.3515 -0.2188
  277MOL0     H38220   9.374   1.293   9.880  0.0424  1.7483  1.3474
  277MOL0     H38221   9.401   1.466   9.864 -1.3352  1.2209  2.0335
  277MOL0     H38222   9.589   1.289   9.523 -1.1322 -3.1434  0.5815
  277MOL0     H38223   8.759   1.581   9.984 -0.1295  1.2953 -0.6631
  277MOL0     H38224   8.595   1.723  10.036  1.5387  0.4774 -0.9303
  277MOL0     H38225   8.484   1.733   9.903  0.3561  0.5897  0.5774
  277MOL0     H38226   8.422   1.669  10.051 -1.0509  0.8217 -1.1294
  278MOL0     O38227   3.046   9.147  10.410  1.1540 -0.5990  0.6804
  278MOL0     C38228   2.964   9.117  10.499 -0.9087 -0.0290 -0.0144
  278MOL0     O38229   2.827   9.141  10.498  0.6078 -0.5045 -1.0287
  278MOL0     C38230   2.773   9.221  10.399 -0.5235  0.9768  0.6126
  278MOL0     C38231   2.700   9.335  10.427  0.4722 -0.0400  0.9364
  278MOL0     C38232   2.639   9.407  10.321 -0.2318  1.3890 -1.1403
  278MOL0     C38233   2.647   9.351  10.193  0.8561 -0.5169  0.2266
  278MOL0     O38234   2.587   9.432  10.094  0.1808  0.7600  0.3767
  278MOL0     C38235   2.625   9.409   9.958  0.1369  0.5989  0.2907
  278MOL0     C38236   2.765   9.451   9.917 -0.8662  0.0697  0.3187
  278MOL0     C38237   2.792   9.445   9.767  0.5505 -0.0385  0.3598
  278MOL0     C38238   2.695   9.543   9.690 -0.0557 -0.1202  0.1916
  278MOL0     C38239   2.762   9.595   9.557  0.0440 -0.2735  0.0820
  278MOL0     C38240   2.670   9.679   9.461 -0.2947  0.7564  0.3664
  278MOL0     C38241   2.636   9.816   9.515 -0.2297  0.4020 -0.3812
  278MOL0     C38242   2.623   9.911   9.400 -0.0578 -0.4218 -1.3896
  278MOL0     N38243   2.744   9.924   9.317  0.2692  0.3654 -0.0760
  278MOL0     C38244   2.870   9.968   9.347 -1.0122  0.1013  0.2881
  278MOL0     C38245   2.952   9.930   9.246  0.0237 -0.1808  0.2732
  278MOL0     C38246   3.101   9.945   9.229  0.3350 -0.7543 -0.1595
  278MOL0     C38247   3.180   9.819   9.232 -1.2812  0.7948 -0.7787
  278MOL0     C38248   3.341   9.840   9.204  0.7689 -0.2317 -0.9635
  278MOL0     C38249   3.406   9.701   9.189 -0.2550 -0.0195 -0.5231
  278MOL0     O38250   3.398   9.651   9.319  0.5926 -0.1668  0.0424
  278MOL0     C38251   3.483   9.550   9.353 -1.6332 -0.4533  0.1846
  278MOL0     C38252   3.607   9.531   9.294 -0.4767 -0.4329 -0.4792
  278MOL0     C38253   3.690   9.416   9.323  0.7478  0.0878 -0.1832
  278MOL0     C38254   3.823   9.399   9.248 -0.2766  0.3306 -0.2322
  278MOL0     C38255   3.628   9.315   9.408 -0.3170 -1.0097 -0.0594
  278MOL0     C38256   3.680   9.176   9.440  0.1112 -0.1653 -0.2671
  278MOL0     O38257   3.777   9.139   9.350 -0.0045  1.0254 -0.7205
  278MOL0     C38258   3.857   9.030   9.379  0.4474  0.4475  0.5849
  278MOL0     C38259   3.921   9.030   9.504  0.0853 -0.2550  0.2846
  278MOL0     C38260   4.007   8.927   9.555 -0.5621  0.4729 -0.5183
  278MOL0     C38261   4.022   8.807   9.480 -0.1866 -0.7792  0.5104
  278MOL0     O38262   4.084   8.691   9.525  0.1506  0.1716  0.0193
  278MOL0     C38263   4.107   8.684   9.666 -0.1442  0.2909  0.0700
  278MOL0     C38264   4.148   8.538   9.710 -0.5401 -0.4283  0.1067
  278MOL0     C38265   4.242   8.541   9.832 -0.0329 -0.3018 -0.7612
  278MOL0     C38266   4.159   8.574   9.962 -0.2483  1.1158  1.0912
  278MOL0     C38267   4.262   8.600  10.076 -0.4594  0.5504  1.2623
  278MOL0     C38268   4.202   8.633  10.212 -0.0015  0.6903 -0.1570
  278MOL0     C38269   4.329   8.643  10.302 -0.8266  0.4222 -0.6769
  278MOL0     C38270   4.300   8.697  10.439  1.0522 -0.6393  0.1684
  278MOL0    Cl38271   4.448   8.687  10.527 -0.0862 -0.0265 -0.2565
  278MOL0     C38272   3.952   8.802   9.351 -0.4548  0.2523 -1.1071
  278MOL0     C38273   3.876   8.909   9.300  0.6647 -0.1387 -0.1667
  278MOL0     O38274   3.641   9.115   9.540  0.6688  0.0308  0.0142
  278MOL0     C38275   3.498   9.338   9.469  0.3520  0.1881  0.0038
  278MOL0     C38276   3.440   9.464   9.450  0.0424  0.4847  0.2893
  278MOL0     N38277   2.870   9.870   9.153  0.6530  0.8639 -0.2745
  278MOL0     N38278   2.745   9.875   9.191  0.3159  0.5542 -0.0173
  278MOL0     C38279   2.717   9.237  10.170  0.8077  0.6611  0.0493
  278MOL0     C38280   2.774   9.166  10.270 -0.7652 -0.2724 -0.2683
  278MOL0     C38281   3.007   9.045  10.616 -0.0191 -0.6703 -0.3609
  278MOL0     C38282   2.911   8.971  10.678  0.4111  0.0618  0.0705
  278MOL0     C38283   2.943   8.890  10.789 -0.0623  0.0135 -0.4882
  278MOL0     C38284   3.066   8.897  10.854  0.0946  0.9645  0.0703
  278MOL0     O38285   3.090   8.827  10.971  0.0900  0.8287 -0.4534
  278MOL0     C38286   3.156   8.889  11.080  0.1311  1.2542  0.2223
  278MOL0     C38287   3.059   8.888  11.198  0.5981  0.9371 -0.0403
  278MOL0     C38288   3.010   8.755  11.251 -0.4373  0.5034 -0.8422
  278MOL0     C38289   3.117   8.650  11.288 -0.8577  0.6700 -0.4077
  278MOL0     C38290   3.201   8.705  11.389  0.0097 -0.0330  0.2088
  278MOL0     C38291   3.272   8.745  11.475 -0.6725 -0.4689  0.0034
  278MOL0     C38292   3.163   8.967  10.790 -0.2431  0.6398 -0.2163
  278MOL0     C38293   3.141   9.036  10.669  0.6018 -1.1081 -0.1917
  278MOL0     C38294   3.255   9.115  10.610 -0.0564  0.1169 -0.2118
  278MOL0     H38295   2.679   9.363  10.529 -0.7001  3.1162 -0.0673
  278MOL0     H38296   2.580   9.495  10.345 -0.8515  0.4318  1.0884
  278MOL0     H38297   2.558   9.473   9.900 -0.0270 -0.5640 -0.8524
  278MOL0     H38298   2.619   9.305   9.925  1.7953  0.8328 -0.8815
  278MOL0     H38299   2.799   9.551   9.947  1.0330  0.8910 -3.8293
  278MOL0     H38300   2.833   9.383   9.969 -0.8533 -1.1061 -1.1524
  278MOL0     H38301   2.896   9.468   9.743  0.1678  1.0737 -0.3015
  278MOL0     H38302   2.782   9.346   9.721 -2.8786 -0.0802  0.9603
  278MOL0     H38303   2.599   9.493   9.671 -0.7523  0.4784  1.9804
  278MOL0     H38304   2.659   9.628   9.748 -1.7036 -1.0434  0.5934
  278MOL0     H38305   2.804   9.514   9.497 -0.7598  1.4774 -3.1161
  278MOL0     H38306   2.852   9.652   9.582 -0.6170  0.2597  1.3428
  278MOL0     H38307   2.712   9.675   9.360 -1.1110 -1.1236  0.0588
  278MOL0     H38308   2.580   9.617   9.454  1.2124 -1.6994  1.5193
  278MOL0     H38309   2.699   9.853   9.596 -0.7541 -1.9528  1.1955
  278MOL0     H38310   2.534   9.802   9.550 -0.8833 -0.3216 -2.4482
  278MOL0     H38311   2.538   9.886   9.336 -1.8867  2.5486 -0.2722
  278MOL0     H38312   2.598  10.008   9.443  2.1361  0.2232 -1.4595
  278MOL0     H38313   2.886  10.026   9.437 -4.2774  0.7573  0.5655
  278MOL0     H38314   3.127  10.003   9.317 -3.4604  0.8472  0.1047
  278MOL0     H38315   3.118   9.999   9.135 -0.6754 -0.6118 -0.2763
  278MOL0     H38316   3.164   9.771   9.329 -3.2358  2.8640 -0.0066
  278MOL0     H38317   3.136   9.751   9.158  1.8315 -2.7484  0.3206
  278MOL0     H38318   3.338   9.899   9.112 -0.2795 -0.1585 -0.8962
  278MOL0     H38319   3.396   9.894   9.282  1.5998  1.0784 -2.4052
  278MOL0     H38320   3.348   9.645   9.115 -0.4037  0.8500 -1.0890
  278MOL0     H38321   3.508   9.721   9.154  0.3777 -2.0301  0.0684
  278MOL0     H38322   3.643   9.587   9.208 -1.0709 -0.2736 -0.6297
  278MOL0     H38323   3.878   9.489   9.220  1.4086 -0.9248 -1.1520
  278MOL0     H38324   3.793   9.346   9.157 -1.2883 -2.5675  1.6352
  278MOL0     H38325   3.896   9.342   9.307 -0.0049  0.2612 -0.6326
  278MOL0     H38326   3.912   9.106   9.581 -1.8770  0.5054 -0.6250
  278MOL0     H38327   4.055   8.938   9.652 -0.4475  1.6383 -0.6933
  278MOL0     H38328   4.185   8.757   9.689 -0.5094  0.9685 -0.7623
  278MOL0     H38329   4.021   8.712   9.728  0.3848  1.1755  0.4223
  278MOL0     H38330   4.059   8.476   9.723  0.6878 -1.8358  2.5176
  278MOL0     H38331   4.201   8.492   9.627 -1.7539  0.9106 -1.4813
  278MOL0     H38332   4.322   8.614   9.812 -1.2532  1.3118  0.0161
  278MOL0     H38333   4.296   8.451   9.863 -1.0774  0.4706  4.0636
  278MOL0     H38334   4.099   8.486   9.986 -1.5110  1.9807  1.1750
  278MOL0     H38335   4.105   8.666   9.938  3.2676  3.0782 -0.2126
  278MOL0     H38336   4.334   8.518  10.084 -0.5134  0.2669 -0.6471
  278MOL0     H38337   4.325   8.684  10.043  0.1839  0.5603  2.4462
  278MOL0     H38338   4.136   8.554  10.250  1.5295 -2.2002 -2.9262
  278MOL0     H38339   4.141   8.723  10.220 -0.1611  0.4406  1.8843
  278MOL0     H38340   4.416   8.698  10.267  0.5398 -1.2400 -0.0725
  278MOL0     H38341   4.369   8.544  10.327  0.3516  1.4021  1.6636
  278MOL0     H38342   4.242   8.616  10.483 -0.4155 -0.6438 -1.6641
  278MOL0     H38343   4.241   8.787  10.452  1.0919 -0.8621  2.1890
  278MOL0     H38344   3.952   8.711   9.291  2.4546 -0.8845  0.4340
  278MOL0     H38345   3.839   8.905   9.198  3.1801  1.7178 -1.2544
  278MOL0     H38346   3.451   9.272   9.541  1.3618  1.2616  1.7245
  278MOL0     H38347   3.347   9.475   9.504 -0.2347 -0.6295  0.0717
  278MOL0     H38348   2.726   9.196  10.070  0.6284 -2.8561  1.3214
  278MOL0     H38349   2.826   9.076  10.237 -0.1378 -0.1883  0.4660
  278MOL0     H38350   2.809   8.972  10.642  1.3604  2.6591 -3.0200
  278MOL0     H38351   2.869   8.823  10.832  0.2566  0.3464  0.6069
  278MOL0     H38352   3.242   8.827  11.106  0.3965  0.2519 -2.7321
  278MOL0     H38353   3.201   8.984  11.051  1.1776  0.5901 -0.3842
  278MOL0     H38354   2.968   8.944  11.174  0.0178  1.2671  2.5893
  278MOL0     H38355   3.110   8.941  11.279  0.2999 -0.7424  1.2949
  278MOL0     H38356   2.957   8.765  11.346  3.1401 -0.3261  1.4330
  278MOL0     H38357   2.944   8.726  11.169  1.6195  0.4029 -2.5604
  278MOL0     H38358   3.180   8.642  11.198 -2.1093  1.4362 -1.3905
  278MOL0     H38359   3.094   8.547  11.315 -0.8169  0.4129 -1.3076
  278MOL0     H38360   3.322   8.790  11.558 -2.3506  1.2645  0.1325
  278MOL0     H38361   3.263   8.976  10.830 -0.5824  0.2560  0.7500
  278MOL0     H38362   3.270   9.077  10.509 -2.0388 -1.5550  0.0599
  278MOL0     H38363   3.232   9.222  10.607  1.0899  0.3750 -0.3920
  278MOL0     H38364   3.347   9.105  10.669  0.4180  2.3376 -0.4665
  279MOL0     O38365  10.125  10.119   0.897 -0.3429 -0.0013 -0.4131
  279MOL0     C38366  10.169  10.178   0.796 -0.0481 -0.8596  0.1095
  279MOL0     O38367  10.139  10.315   0.770 -1.6399 -0.2388  0.3696
  279MOL0     C38368  10.038  10.373   0.837  0.2273 -0.5086 -0.0899
  279MOL0     C38369  10.044  10.420   0.971  0.1727  0.5196 -0.2281
  279MOL0     C38370   9.930  10.456   1.040  0.6522 -0.8169 -0.1755
  279MOL0     C38371   9.811  10.471   0.972  1.0435  0.0926 -0.3005
  279MOL0     O38372   9.698  10.507   1.045 -0.7636 -0.1873  0.4266
  279MOL0     C38373   9.571  10.468   0.989 -0.1450  0.7366 -0.0104
  279MOL0     C38374   9.475  10.445   1.104 -0.3303  0.7014  0.1799
  279MOL0     C38375   9.381  10.553   1.145  0.0229  0.5348  0.5857
  279MOL0     C38376   9.277  10.502   1.242  0.6133  0.4417 -0.2265
  279MOL0     C38377   9.226  10.601   1.349  0.1996  0.1550  0.6261
  279MOL0     C38378   9.126  10.527   1.449 -0.9194 -0.0892  0.1207
  279MOL0     C38379   9.077  10.628   1.553 -0.0788  0.5098 -0.4729
  279MOL0     C38380   8.996  10.537   1.651 -0.7997 -0.7512  0.4703
  279MOL0     N38381   8.982  10.625   1.767  0.4099  0.1222  0.0955
  279MOL0     C38382   9.062  10.619   1.878  0.6162  0.7122  0.3246
  279MOL0     C38383   9.010  10.713   1.962  0.6257  0.0969 -0.5959
  279MOL0     C38384   9.045  10.740   2.103 -0.2385  0.4166  0.1776
  279MOL0     C38385   8.929  10.758   2.205  0.4862  0.0085  0.1185
  279MOL0     C38386   8.989  10.825   2.332  0.5164 -0.1438 -0.2092
  279MOL0     C38387   8.893  10.836   2.448  0.1154 -0.6796  0.1140
  279MOL0     O38388   8.776  10.911   2.407  0.3499  0.3875  0.0994
  279MOL0     C38389   8.666  10.917   2.493  0.8696  0.8611  0.3970
  279MOL0     C38390   8.672  10.927   2.637  0.1464  0.3084 -0.7532
  279MOL0     C38391   8.559  10.942   2.707  0.8074  1.1087 -0.7029
  279MOL0     C38392   8.572  10.952   2.857  0.3793  0.0459 -1.0858
  279MOL0     C38393   8.421  10.941   2.649  0.3833  0.2424  0.1324
  279MOL0     C38394   8.289  10.933   2.720 -0.3986 -0.2914 -0.0280
  279MOL0     O38395   8.188  11.012   2.686  0.4094 -0.0176  0.8447
  279MOL0     C38396   8.063  10.997   2.742 -0.5367  0.1229  1.1741
  279MOL0     C38397   7.986  11.107   2.771  0.2646 -0.4276  0.2385
  279MOL0     C38398   7.852  11.081   2.823 -0.6320 -0.5957  0.7957
  279MOL0     C38399   7.807  10.954   2.839 -0.2978  0.2705  0.0517
  279MOL0     O38400   7.684  10.924   2.894 -0.5671  0.9760 -0.5287
  279MOL0     C38401   7.606  11.031   2.948 -0.1884  0.3996  1.7040
  279MOL0     C38402   7.482  10.967   3.022  0.0990 -0.2467 -0.0608
  279MOL0     C38403   7.374  11.076   3.039 -0.4225  0.4831  0.2250
  279MOL0     C38404   7.435  11.200   3.105 -0.0868  0.3856 -0.0350
  279MOL0     C38405   7.318  11.290   3.155 -0.8093 -0.1525 -0.8613
  279MOL0     C38406   7.258  11.377   3.036  0.2248  0.3140 -0.4241
  279MOL0     C38407   7.156  11.477   3.098 -0.6280 -0.2906 -0.5684
  279MOL0     C38408   7.105  11.560   2.975 -0.7005 -0.2966 -0.6360
  279MOL0    Cl38409   7.059  11.724   3.032 -0.2080  0.0317  0.2677
  279MOL0     C38410   7.895  10.846   2.805  0.4180 -0.2181 -0.0688
  279MOL0     C38411   8.019  10.866   2.752 -0.3254 -0.8128  0.4454
  279MOL0     O38412   8.294  10.859   2.822 -0.5787  0.0070  0.1597
  279MOL0     C38413   8.420  10.931   2.514  0.6355 -0.4478  0.8590
  279MOL0     C38414   8.541  10.926   2.436  0.6477  1.2104 -0.0281
  279MOL0     N38415   8.919  10.786   1.889 -0.9741 -0.2818  0.1581
  279MOL0     N38416   8.892  10.720   1.782 -0.4222 -0.2972  0.2604
  279MOL0     C38417   9.815  10.457   0.834 -0.0974  0.1448  0.7235
  279MOL0     C38418   9.923  10.399   0.766 -0.0132 -0.3197 -0.4895
  279MOL0     C38419  10.258  10.122   0.694 -0.5283  0.0954  0.0149
  279MOL0     C38420  10.336  10.212   0.625 -0.2506 -0.6452 -0.1745
  279MOL0     C38421  10.407  10.181   0.514 -0.0006  1.6090  0.5788
  279MOL0     C38422  10.401  10.048   0.468 -0.2092 -0.9728 -0.1274
  279MOL0     O38423  10.471  10.016   0.353 -0.5062  0.4047  0.0791
  279MOL0     C38424  10.521   9.884   0.349  0.0951 -0.0598  0.1518
  279MOL0     C38425  10.635   9.883   0.257 -0.5745  0.0787  0.0849
  279MOL0     C38426  10.736   9.992   0.268  0.3061  0.0945 -0.3099
  279MOL0     C38427  10.848   9.970   0.166  0.4897 -0.1772  0.5447
  279MOL0     C38428  10.955  10.067   0.203 -0.5071  0.0011 -0.3596
  279MOL0     C38429  11.044  10.144   0.230  0.8476 -0.4261 -0.0132
  279MOL0     C38430  10.325   9.957   0.546  0.4427 -0.4965  0.9786
  279MOL0     C38431  10.254   9.988   0.657  0.6508 -0.2838  0.0281
  279MOL0     C38432  10.183   9.876   0.723 -0.3067  1.1494  0.5354
  279MOL0     H38433  10.135  10.395   1.026  2.1087  2.8525 -2.1396
  279MOL0     H38434   9.934  10.476   1.146  0.9305  1.0495 -0.5138
  279MOL0     H38435   9.583  10.375   0.933  2.1305 -0.4283  2.2328
  279MOL0     H38436   9.525  10.535   0.916  1.0127  0.1871 -1.2683
  279MOL0     H38437   9.408  10.363   1.077 -0.0676  0.6392 -0.2981
  279MOL0     H38438   9.536  10.399   1.182 -1.5094 -2.1298 -0.4364
  279MOL0     H38439   9.442  10.625   1.201 -1.4983  1.7716  0.7312
  279MOL0     H38440   9.344  10.605   1.055 -0.2025 -0.6993 -0.0596
  279MOL0     H38441   9.185  10.469   1.192 -0.9498  0.0206  2.6683
  279MOL0     H38442   9.321  10.417   1.294 -0.6177  0.6003  1.1584
  279MOL0     H38443   9.185  10.687   1.295  3.3438  0.6271 -1.2399
  279MOL0     H38444   9.316  10.616   1.409  1.3122 -3.2897  0.0283
  279MOL0     H38445   9.035  10.485   1.406 -1.2332 -0.3012  0.9807
  279MOL0     H38446   9.185  10.447   1.495 -0.0650 -1.7384 -3.4845
  279MOL0     H38447   9.001  10.693   1.510 -2.3195 -0.6070  1.5335
  279MOL0     H38448   9.153  10.695   1.595 -0.8548  0.2879  1.3885
  279MOL0     H38449   8.900  10.513   1.604  0.1898  0.6227 -2.5017
  279MOL0     H38450   9.040  10.446   1.694  0.6502  0.8814  2.6795
  279MOL0     H38451   9.142  10.553   1.911  0.2705  0.0038 -0.2383
  279MOL0     H38452   9.109  10.828   2.107 -0.6858  0.8011 -0.7587
  279MOL0     H38453   9.102  10.659   2.149  0.7635  1.0872  0.1568
  279MOL0     H38454   8.852  10.821   2.158  1.4661  0.3715 -1.0314
  279MOL0     H38455   8.881  10.662   2.228  2.1207 -1.2665 -1.4714
  279MOL0     H38456   9.077  10.764   2.353  2.6585  1.5344 -3.4541
  279MOL0     H38457   9.020  10.928   2.313 -1.1052  0.6563  1.2398
  279MOL0     H38458   8.861  10.738   2.484 -0.5248 -0.1177  1.1201
  279MOL0     H38459   8.938  10.895   2.529 -0.6157  0.5785 -0.3735
  279MOL0     H38460   8.764  10.923   2.694 -0.2843  0.7999 -0.0215
  279MOL0     H38461   8.488  10.996   2.913  1.6561  0.6627  0.4216
  279MOL0     H38462   8.659  11.015   2.878  1.1558 -1.2557 -0.2556
  279MOL0     H38463   8.586  10.856   2.909 -2.9038  0.9209  1.8017
  279MOL0     H38464   8.017  11.210   2.760 -0.1168 -0.2713  0.6070
  279MOL0     H38465   7.797  11.171   2.848  4.2896  2.3435  2.5215
  279MOL0     H38466   7.672  11.074   3.024  0.6093  0.5073  0.9625
  279MOL0     H38467   7.595  11.112   2.875  1.8759  0.2221  1.1356
  279MOL0     H38468   7.439  10.896   2.950 -3.3822  1.5597  0.0003
  279MOL0     H38469   7.505  10.921   3.118 -0.2042 -0.4901 -0.1027
  279MOL0     H38470   7.291  11.036   3.099  0.5212 -0.9431  0.6276
  279MOL0     H38471   7.348  11.088   2.934 -1.9409 -0.7299  0.4263
  279MOL0     H38472   7.495  11.258   3.035  0.9098  1.3855  1.5747
  279MOL0     H38473   7.504  11.183   3.189 -1.9940  4.8618  2.8146
  279MOL0     H38474   7.233  11.240   3.202  0.2012  1.2176  2.8512
  279MOL0     H38475   7.355  11.364   3.227 -1.8779 -1.1737  0.8123
  279MOL0     H38476   7.202  11.325   2.958 -2.5988 -0.0295  1.6671
  279MOL0     H38477   7.339  11.433   2.988 -1.7335  3.9079  0.1708
  279MOL0     H38478   7.197  11.540   3.177 -1.8537  1.8694 -1.5225
  279MOL0     H38479   7.071  11.427   3.146 -0.2091  1.6924  2.5499
  279MOL0     H38480   7.010  11.523   2.935 -1.5206  2.4834 -1.4832
  279MOL0     H38481   7.188  11.578   2.906 -1.1465 -0.4734 -1.2225
  279MOL0     H38482   7.850  10.748   2.806  0.4839 -0.2848  2.1887
  279MOL0     H38483   8.089  10.789   2.722 -2.3628 -1.3028 -3.6892
  279MOL0     H38484   8.321  10.920   2.472  0.5853  1.6801  0.2863
  279MOL0     H38485   8.544  10.923   2.328  4.1365  1.1700 -0.0333
  279MOL0     H38486   9.724  10.475   0.777  2.4622  2.5021 -3.1360
  279MOL0     H38487   9.916  10.374   0.661 -0.9392 -0.9040 -0.3006
  279MOL0     H38488  10.330  10.317   0.654 -2.1784 -0.6937 -0.2975
  279MOL0     H38489  10.471  10.256   0.469  1.0899  0.2090 -0.2654
  279MOL0     H38490  10.569   9.861   0.444  4.3924 -0.1830 -1.8016
  279MOL0     H38491  10.459   9.808   0.301  1.3211  0.0089 -1.6599
  279MOL0     H38492  10.608   9.881   0.151  1.5934  1.2309 -0.5232
  279MOL0     H38493  10.684   9.786   0.266  1.0481  0.6452 -1.9592
  279MOL0     H38494  10.692  10.088   0.238  2.4647  1.0217 -0.7592
  279MOL0     H38495  10.766  10.006   0.372 -1.0457 -0.4737  0.1705
  279MOL0     H38496  10.812   9.986   0.064 -0.1427  0.1475  0.8121
  279MOL0     H38497  10.884   9.867   0.173  0.1235 -0.5238 -1.8821
  279MOL0     H38498  11.110  10.223   0.259 -1.2302  1.0739  0.8838
  279MOL0     H38499  10.317   9.854   0.511 -1.7969 -0.6122  1.6922
  279MOL0     H38500  10.195   9.890   0.831 -1.3575 -0.2091  0.8689
  279MOL0     H38501  10.077   9.871   0.694  0.7641 -0.3785 -4.0236
  279MOL0     H38502  10.233   9.783   0.695 -1.9194  0.9064 -1.9041
  280MOL0     O38503  10.944   2.988   0.186 -0.1330 -0.2142 -0.3243
  280MOL0     C38504  10.948   2.905   0.284 -0.8160 -0.2594 -0.0820
  280MOL0     O38505  11.055   2.833   0.311 -0.1858  0.7334  0.1038
  280MOL0     C38506  11.161   2.859   0.228 -0.1650 -0.6939 -0.5541
  280MOL0     C38507  11.176   2.798   0.097  0.6753 -0.6643 -0.0196
  280MOL0     C38508  11.295   2.820   0.018  0.4048  0.0090 -0.6943
  280MOL0     C38509  11.413   2.880   0.066  0.3358  1.0681  0.4780
  280MOL0     O38510  11.533   2.885   0.003 -0.7012 -0.0408 -0.7663
  280MOL0     C38511  11.541   2.807  -0.117 -0.2669 -0.5382  0.0532
  280MOL0     C38512  11.665   2.844  -0.190 -0.8027  0.3354 -0.4878
  280MOL0     C38513  11.793   2.767  -0.148  0.1694  0.1376  0.3723
  280MOL0     C38514  11.861   2.806  -0.006 -0.2901 -0.4249  1.5481
  280MOL0     C38515  12.004   2.749   0.003  0.3767 -0.2943 -0.0223
  280MOL0     C38516  12.067   2.724   0.146 -0.2247 -0.4658  0.5178
  280MOL0     C38517  12.218   2.693   0.145 -0.9014 -0.0810  0.2350
  280MOL0     C38518  12.257   2.553   0.090 -0.7528  0.6064  0.3183
  280MOL0     N38519  12.395   2.539   0.081 -0.3140 -0.5339 -0.8579
  280MOL0     C38520  12.474   2.519  -0.031 -0.8621 -0.2141 -0.6877
  280MOL0     C38521  12.599   2.486   0.012 -0.3609  0.4379  0.7662
  280MOL0     C38522  12.730   2.494  -0.070  0.1852  0.0734 -0.5230
  280MOL0     C38523  12.756   2.619  -0.150  0.1004 -0.1325  0.4216
  280MOL0     C38524  12.775   2.733  -0.046  1.2285 -0.9111 -0.6071
  280MOL0     C38525  12.912   2.724   0.037  0.5319 -0.3371  0.2168
  280MOL0     O38526  13.026   2.703  -0.050  0.1210  0.4582 -0.1435
  280MOL0     C38527  13.088   2.796  -0.126  0.0336  0.6444 -0.1399
  280MOL0     C38528  13.193   2.749  -0.199  0.7071  0.0175 -0.0881
  280MOL0     C38529  13.284   2.841  -0.257 -0.4443  0.2852  0.2767
  280MOL0     C38530  13.410   2.777  -0.317  0.6485 -0.0716  0.2268
  280MOL0     C38531  13.272   2.980  -0.253 -0.5494 -0.7904 -0.3055
  280MOL0     C38532  13.368   3.079  -0.306  0.6639  0.3422 -0.2236
  280MOL0     O38533  13.485   3.039  -0.359  0.4924  0.1725  0.2662
  280MOL0     C38534  13.577   3.115  -0.430 -0.8431  0.7749  0.2398
  280MOL0     C38535  13.675   3.040  -0.514  0.1956  0.2627 -0.1443
  280MOL0     C38536  13.772   3.096  -0.596  0.8929  0.0207 -0.5461
  280MOL0     C38537  13.777   3.235  -0.599 -0.4794 -0.4790  0.0561
  280MOL0     O38538  13.882   3.287  -0.670 -0.1567 -0.1395 -0.1103
  280MOL0     C38539  13.867   3.414  -0.742 -0.0268  1.2822  1.3283
  280MOL0     C38540  14.006   3.419  -0.819 -0.4323 -0.1039 -0.1797
  280MOL0     C38541  14.139   3.459  -0.752  0.6781 -0.3873 -0.1624
  280MOL0     C38542  14.213   3.580  -0.819 -0.3150 -0.1976 -0.4859
  280MOL0     C38543  14.352   3.533  -0.866  1.1850 -0.0484 -0.0938
  280MOL0     C38544  14.414   3.636  -0.951 -0.2471  0.3657  0.3351
  280MOL0     C38545  14.515   3.562  -1.046  0.5275 -0.2750 -0.3491
  280MOL0     C38546  14.596   3.675  -1.117  0.6382  0.7750  1.5083
  280MOL0    Cl38547  14.501   3.748  -1.258  0.0459 -0.0691 -0.2837
  280MOL0     C38548  13.696   3.316  -0.514 -0.2535  0.6103 -0.4740
  280MOL0     C38549  13.597   3.249  -0.435  0.1025 -0.1475  0.0484
  280MOL0     O38550  13.331   3.195  -0.294  0.2972  0.3175 -0.2379
  280MOL0     C38551  13.156   3.025  -0.185 -1.1319  0.6567  0.1068
  280MOL0     C38552  13.065   2.938  -0.122 -0.6144 -0.4827 -0.4920
  280MOL0     N38553  12.588   2.478   0.151  0.0012  0.3851 -0.2559
  280MOL0     N38554  12.467   2.497   0.192  0.0009  0.3281 -0.3592
  280MOL0     C38555  11.402   2.928   0.203  0.4489  0.0109 -0.5585
  280MOL0     C38556  11.281   2.923   0.280  0.7012  0.1990  1.1624
  280MOL0     C38557  10.834   2.881   0.370  0.7688  0.0181  1.0324
  280MOL0     C38558  10.853   2.918   0.502  0.0020  0.9985  0.4652
  280MOL0     C38559  10.751   2.943   0.597  0.1597 -0.0411 -0.1359
  280MOL0     C38560  10.617   2.914   0.550  0.1348  0.4262  0.3759
  280MOL0     O38561  10.504   2.957   0.612 -0.6852  0.2031 -0.8625
  280MOL0     C38562  10.503   3.040   0.734  0.3859 -0.3634 -0.8450
  280MOL0     C38563  10.399   3.153   0.718 -0.0316  0.2899  0.5002
  280MOL0     C38564  10.255   3.101   0.763  0.5437  0.3600 -0.0128
  280MOL0     C38565  10.143   3.190   0.722 -1.3460 -0.4239  0.3324
  280MOL0     C38566  10.138   3.211   0.574  0.0183  0.3285 -1.0812
  280MOL0     C38567  10.137   3.240   0.456  0.4921  0.7419 -0.2957
  280MOL0     C38568  10.596   2.878   0.411 -0.2200  0.0053 -0.4038
  280MOL0     C38569  10.702   2.861   0.321 -0.1194 -0.6199 -0.1099
  280MOL0     C38570  10.680   2.812   0.178  0.5079 -0.6616  0.3671
  280MOL0     H38571  11.084   2.746   0.073 -0.3125 -0.4688  2.9661
  280MOL0     H38572  11.291   2.770  -0.078  2.0872 -2.2418  0.3098
  280MOL0     H38573  11.459   2.835  -0.184  0.2858  0.9695 -0.0235
  280MOL0     H38574  11.543   2.700  -0.094 -0.0036 -0.6503 -0.4654
  280MOL0     H38575  11.652   2.836  -0.299 -1.4526 -1.6565 -0.2867
  280MOL0     H38576  11.686   2.951  -0.181  0.7063  0.0634 -0.6109
  280MOL0     H38577  11.773   2.659  -0.148  0.5536  0.0644  0.5311
  280MOL0     H38578  11.866   2.767  -0.229  0.0824  0.5381  0.2893
  280MOL0     H38579  11.882   2.912   0.007  0.7103 -0.1660 -1.4460
  280MOL0     H38580  11.802   2.758   0.073  1.3490 -2.7391  1.4802
  280MOL0     H38581  12.071   2.814  -0.055 -1.3345 -0.7092 -2.6316
  280MOL0     H38582  11.996   2.644  -0.029  0.3115 -1.4425  3.4055
  280MOL0     H38583  12.042   2.814   0.204 -0.2144 -1.4311  2.0758
  280MOL0     H38584  12.022   2.637   0.194 -0.7675 -1.5579 -1.8564
  280MOL0     H38585  12.254   2.694   0.248  1.3881 -0.2275 -0.5083
  280MOL0     H38586  12.269   2.776   0.095  1.0237 -1.8985 -0.9363
  280MOL0     H38587  12.212   2.481   0.159 -1.3693 -0.0869 -0.7814
  280MOL0     H38588  12.211   2.532  -0.007  1.8577 -2.1203 -0.4617
  280MOL0     H38589  12.442   2.539  -0.133 -1.9361  0.9282 -0.1538
  280MOL0     H38590  12.725   2.411  -0.141  2.0444  0.4694 -1.1708
  280MOL0     H38591  12.819   2.473  -0.009  1.1128  0.7908 -1.5856
  280MOL0     H38592  12.845   2.605  -0.213  0.3975  0.2126  0.7602
  280MOL0     H38593  12.678   2.637  -0.224  0.6442 -0.0646 -0.1408
  280MOL0     H38594  12.779   2.830  -0.098 -3.6818 -0.7521 -1.2031
  280MOL0     H38595  12.687   2.729   0.018 -0.5470 -1.5482 -2.9476
  280MOL0     H38596  12.910   2.817   0.094 -0.6026 -0.1981 -0.0294
  280MOL0     H38597  12.915   2.639   0.106  1.3467 -0.3960  0.1123
  280MOL0     H38598  13.213   2.642  -0.198 -0.8785 -0.3190 -0.7223
  280MOL0     H38599  13.414   2.807  -0.423  1.8122  6.7893  1.7320
  280MOL0     H38600  13.399   2.671  -0.293 -0.5501  0.3394  1.5791
  280MOL0     H38601  13.498   2.821  -0.269 -0.1162 -2.2520  4.0146
  280MOL0     H38602  13.678   2.934  -0.492 -1.9314  0.4900  1.5636
  280MOL0     H38603  13.837   3.028  -0.650  0.3194  0.4990 -1.8855
  280MOL0     H38604  13.781   3.395  -0.807  2.4968 -0.1477 -1.8121
  280MOL0     H38605  13.842   3.498  -0.675 -2.5520 -0.1460  2.3364
  280MOL0     H38606  14.026   3.318  -0.855 -0.1021 -0.0832 -0.0574
  280MOL0     H38607  13.989   3.482  -0.907 -2.3862 -0.7856 -0.3357
  280MOL0     H38608  14.210   3.377  -0.737  1.7990  0.1214 -2.2130
  280MOL0     H38609  14.112   3.500  -0.655  0.6679  3.2406 -1.5337
  280MOL0     H38610  14.230   3.654  -0.740 -3.9676 -1.0617  1.3560
  280MOL0     H38611  14.157   3.622  -0.903  0.6168 -0.3994 -1.2278
  280MOL0     H38612  14.413   3.509  -0.779  1.1041 -0.3053 -0.1077
  280MOL0     H38613  14.341   3.440  -0.923 -2.1837  0.1113  0.1183
  280MOL0     H38614  14.471   3.702  -0.886  0.6397 -0.1096  0.0458
  280MOL0     H38615  14.342   3.688  -1.014 -0.4586 -1.4788 -1.0490
  280MOL0     H38616  14.465   3.513  -1.130 -0.0313  0.8089 -0.6741
  280MOL0     H38617  14.587   3.498  -0.994  3.5980  1.8692 -1.6327
  280MOL0     H38618  14.680   3.630  -1.170 -2.0662 -0.4319 -2.2201
  280MOL0     H38619  14.628   3.753  -1.048 -0.0430  1.4742  1.0556
  280MOL0     H38620  13.708   3.424  -0.514  0.0430  0.6212  1.6280
  280MOL0     H38621  13.525   3.302  -0.372 -0.3237 -0.0244 -0.5336
  280MOL0     H38622  13.137   3.132  -0.181 -1.4624  0.7243 -2.0048
  280MOL0     H38623  12.986   2.982  -0.061 -2.8446  0.5172 -3.8132
  280MOL0     H38624  11.490   2.979   0.240  0.0751  0.0435  0.3076
  280MOL0     H38625  11.279   2.959   0.382 -0.8401  3.2083  0.1861
  280MOL0     H38626  10.957   2.933   0.531  0.9838 -0.7663 -1.8240
  280MOL0     H38627  10.774   2.970   0.700 -2.3817  1.2563  0.1901
  280MOL0     H38628  10.487   2.990   0.831  0.5157  1.4139  0.1369
  280MOL0     H38629  10.606   3.076   0.737  0.7994 -1.5325  0.7544
  280MOL0     H38630  10.390   3.196   0.618 -1.0260 -1.8743 -0.3950
  280MOL0     H38631  10.422   3.234   0.788 -1.2353 -1.1760  2.7208
  280MOL0     H38632  10.244   3.007   0.707  1.1766  0.1091  0.2778
  280MOL0     H38633  10.245   3.082   0.870  0.5120 -5.0283 -0.6964
  280MOL0     H38634  10.165   3.290   0.759  0.7146 -0.8879  0.5087
  280MOL0     H38635  10.045   3.161   0.761 -1.1357 -0.1253  1.0888
  280MOL0     H38636  10.133   3.259   0.350  1.9979  2.8764 -0.0317
  280MOL0     H38637  10.494   2.874   0.373  0.0245  0.2716 -1.0875
  280MOL0     H38638  10.630   2.888   0.117  0.7761 -1.5891 -1.0544
  280MOL0     H38639  10.774   2.793   0.127  0.6708  1.9058 -0.4208
  280MOL0     H38640  10.612   2.726   0.172  1.0512 -1.3018  2.4120
  281MOL0     O38641   2.176   0.109   2.694  0.0238 -0.6999  0.5164
  281MOL0     C38642   2.080   0.067   2.627  0.4482 -0.9001 -0.8083
  281MOL0     O38643   1.958   0.048   2.675  0.3612 -0.4805  0.6418
  281MOL0     C38644   1.921   0.090   2.800 -0.9033 -0.2485 -0.7834
  281MOL0     C38645   1.927   0.004   2.911  0.2762 -0.4773 -0.2435
  281MOL0     C38646   1.863   0.039   3.037  1.0187 -0.6722 -0.5293
  281MOL0     C38647   1.804   0.173   3.056 -0.1606  0.4165  0.1232
  281MOL0     O38648   1.735   0.209   3.163 -0.4533  0.5323  0.0207
  281MOL0     C38649   1.778   0.159   3.291  0.6752 -0.8342  0.0719
  281MOL0     C38650   1.768   0.261   3.408 -0.4703  0.7420  0.0494
  281MOL0     C38651   1.862   0.379   3.385  0.3446  0.1902 -0.6743
  281MOL0     C38652   1.859   0.462   3.513  0.7086  0.3628 -0.0056
  281MOL0     C38653   1.928   0.596   3.492  0.1550  0.3938  0.2486
  281MOL0     C38654   1.838   0.705   3.424  1.1173 -0.2635  0.6005
  281MOL0     C38655   1.928   0.838   3.400  0.6383 -0.0548  1.0687
  281MOL0     C38656   1.847   0.943   3.325 -0.3257 -0.1763 -0.1865
  281MOL0     N38657   1.929   1.054   3.284  1.1696 -0.6329  0.0957
  281MOL0     C38658   1.899   1.190   3.303 -0.1163 -0.8366  0.2373
  281MOL0     C38659   1.993   1.258   3.245 -0.3501 -0.4338  0.8396
  281MOL0     C38660   2.008   1.408   3.251  1.1563 -1.6628  0.6805
  281MOL0     C38661   2.073   1.471   3.376 -0.6389 -0.4747 -0.4998
  281MOL0     C38662   1.980   1.565   3.456 -0.3063 -0.0199  0.4225
  281MOL0     C38663   1.962   1.690   3.365 -0.5992  0.9436 -1.0497
  281MOL0     O38664   1.863   1.779   3.414  0.1201  0.0391  0.1453
  281MOL0     C38665   1.922   1.875   3.494  0.1935 -1.2837  1.1311
  281MOL0     C38666   1.982   1.986   3.437  0.5179  0.3964  0.0530
  281MOL0     C38667   2.018   2.086   3.521  0.9518 -0.4726 -0.4928
  281MOL0     C38668   2.079   2.205   3.462 -0.5056 -0.3658  0.2453
  281MOL0     C38669   2.021   2.061   3.660 -0.7506 -0.5816 -0.8938
  281MOL0     C38670   2.068   2.165   3.762  0.1947  0.6932 -0.3076
  281MOL0     O38671   2.139   2.112   3.868  1.0023  0.5141 -0.4891
  281MOL0     C38672   2.137   2.191   3.980  0.9196  0.0820  0.4897
  281MOL0     C38673   2.232   2.292   3.995  0.5421  0.0331 -0.4229
  281MOL0     C38674   2.220   2.376   4.107  0.0335 -0.8126  0.0191
  281MOL0     C38675   2.124   2.358   4.208  0.5469 -0.5365 -0.3052
  281MOL0     O38676   2.138   2.450   4.311  0.7659 -0.6816  0.4106
  281MOL0     C38677   2.106   2.387   4.439  0.2472 -0.2688 -0.2335
  281MOL0     C38678   2.166   2.475   4.552  0.2640  0.2025 -0.3937
  281MOL0     C38679   2.128   2.624   4.560  0.5306  0.7237 -0.1426
  281MOL0     C38680   2.159   2.691   4.693 -0.6792 -0.2885 -1.3992
  281MOL0     C38681   2.084   2.828   4.697 -0.1100  0.4145 -0.9630
  281MOL0     C38682   2.128   2.927   4.595  0.7295 -0.1913 -0.2110
  281MOL0     C38683   2.279   2.962   4.625  0.5051 -0.5142 -1.1416
  281MOL0     C38684   2.321   3.073   4.522 -0.1794 -0.3772 -0.0073
  281MOL0    Cl38685   2.348   3.003   4.363  0.6205  0.0485  0.0819
  281MOL0     C38686   2.027   2.254   4.191 -0.3070 -0.4948  0.2526
  281MOL0     C38687   2.035   2.174   4.076  0.8963  0.3721  0.7969
  281MOL0     O38688   2.025   2.276   3.762 -1.0270 -0.0171  0.4166
  281MOL0     C38689   1.972   1.949   3.719  0.1871 -0.0959  0.1571
  281MOL0     C38690   1.919   1.852   3.632 -0.1684  0.8364 -0.6981
  281MOL0     N38691   2.087   1.170   3.190  0.8308  0.4072  0.2478
  281MOL0     N38692   2.047   1.048   3.215 -0.6921  0.3397  0.4216
  281MOL0     C38693   1.805   0.258   2.949  0.2712 -0.2910  0.7401
  281MOL0     C38694   1.865   0.221   2.822 -1.0003 -0.2819  0.5653
  281MOL0     C38695   2.109   0.069   2.478 -0.5614  0.1780  0.8252
  281MOL0     C38696   2.014   0.003   2.394  0.2278  0.7665  0.7505
  281MOL0     C38697   2.033  -0.012   2.260  0.4777 -0.6407 -0.3254
  281MOL0     C38698   2.144   0.048   2.195 -0.3966 -0.6205 -0.3467
  281MOL0     O38699   2.169   0.036   2.061 -0.1652  0.0772  0.2707
  281MOL0     C38700   2.109  -0.080   1.997 -0.5488  0.2285  0.3621
  281MOL0     C38701   2.181  -0.121   1.869  0.5058 -0.1328  0.2595
  281MOL0     C38702   2.156  -0.007   1.769  0.2771  0.4563 -0.4059
  281MOL0     C38703   2.004   0.011   1.725  0.0492  0.1363 -0.5764
  281MOL0     C38704   1.952   0.129   1.792 -0.6956 -0.3868  0.4312
  281MOL0     C38705   1.900   0.215   1.853  0.4787 -0.2979  0.2258
  281MOL0     C38706   2.226   0.119   2.272  0.3505  0.4740  0.2178
  281MOL0     C38707   2.223   0.132   2.413 -1.0392  1.2352  1.0881
  281MOL0     C38708   2.329   0.215   2.475 -0.3555 -1.7608  0.6628
  281MOL0     H38709   1.964  -0.098   2.898  2.9862  0.1279  1.8619
  281MOL0     H38710   1.877  -0.020   3.126  4.4198 -0.5444 -0.8552
  281MOL0     H38711   1.884   0.135   3.273  0.6225 -1.0861  0.0921
  281MOL0     H38712   1.722   0.071   3.323 -0.1591 -0.3881 -0.1367
  281MOL0     H38713   1.672   0.306   3.432  1.4292  2.7234  5.5953
  281MOL0     H38714   1.806   0.214   3.500 -0.1134  0.5654 -0.1889
  281MOL0     H38715   1.962   0.334   3.380  0.9616  1.5223 -0.7915
  281MOL0     H38716   1.839   0.440   3.297 -0.1286 -1.3545 -1.6516
  281MOL0     H38717   1.756   0.476   3.545 -1.1056 -3.5570 -3.2419
  281MOL0     H38718   1.913   0.403   3.587  0.9085  2.0942  1.3094
  281MOL0     H38719   2.019   0.596   3.432 -1.3507  0.4562 -2.1438
  281MOL0     H38720   1.973   0.623   3.589 -0.5705  1.6673  0.2423
  281MOL0     H38721   1.782   0.665   3.339 -1.6666  0.1067  2.1476
  281MOL0     H38722   1.757   0.736   3.490 -1.5553 -1.8750 -1.7227
  281MOL0     H38723   2.012   0.817   3.333 -0.9107 -4.0162  0.1181
  281MOL0     H38724   1.960   0.879   3.496 -0.9925 -0.0445  1.6438
  281MOL0     H38725   1.793   0.891   3.245 -0.8302  1.3129 -0.8366
  281MOL0     H38726   1.773   0.978   3.398  0.2983 -1.7494  1.2629
  281MOL0     H38727   1.817   1.234   3.359  0.4354 -0.5153  0.8099
  281MOL0     H38728   1.908   1.450   3.240  0.3563 -2.9232  2.6293
  281MOL0     H38729   2.062   1.436   3.160 -2.4853 -0.1293 -1.2008
  281MOL0     H38730   2.120   1.396   3.439  1.4336  1.3203  0.2139
  281MOL0     H38731   2.153   1.534   3.336 -1.9418  2.4963  1.1949
  281MOL0     H38732   1.880   1.521   3.471 -0.5011 -0.0784 -0.9009
  281MOL0     H38733   2.021   1.582   3.555 -1.3795 -1.9290  1.2599
  281MOL0     H38734   2.054   1.750   3.357 -0.5774  0.7123 -3.4852
  281MOL0     H38735   1.927   1.668   3.263  0.9942 -2.4975 -0.9898
  281MOL0     H38736   1.981   2.001   3.329 -1.2627  1.1243  0.1371
  281MOL0     H38737   2.142   2.257   3.535  1.0104 -1.9222  0.1059
  281MOL0     H38738   1.993   2.271   3.443 -0.7756 -1.0462 -0.9605
  281MOL0     H38739   2.156   2.178   3.389 -0.8129 -0.5967  0.0037
  281MOL0     H38740   2.286   2.325   3.907 -1.4123  0.5057 -1.5137
  281MOL0     H38741   2.305   2.442   4.121  1.5747 -1.9618 -2.9459
  281MOL0     H38742   2.000   2.384   4.466  0.0798 -1.7012 -0.9614
  281MOL0     H38743   2.149   2.286   4.437 -0.3992 -0.7894  3.5247
  281MOL0     H38744   2.150   2.435   4.652 -3.5218  2.0741 -0.0656
  281MOL0     H38745   2.273   2.473   4.530  0.0172 -0.0590 -1.6260
  281MOL0     H38746   2.019   2.617   4.567  0.5651  1.1903  0.9700
  281MOL0     H38747   2.169   2.684   4.478 -0.9392  1.7639 -0.1592
  281MOL0     H38748   2.267   2.710   4.695 -0.6888 -0.1926 -1.7240
  281MOL0     H38749   2.141   2.626   4.779  4.0137  1.5775  1.3965
  281MOL0     H38750   1.977   2.814   4.684  0.0666 -1.2185 -0.8008
  281MOL0     H38751   2.097   2.873   4.797 -0.3355 -0.2922 -0.6122
  281MOL0     H38752   2.071   3.019   4.608 -0.5162 -1.0507  0.5873
  281MOL0     H38753   2.113   2.885   4.496 -0.8599 -0.6630  0.2035
  281MOL0     H38754   2.345   2.877   4.605  0.1644 -0.4730 -2.5535
  281MOL0     H38755   2.300   2.988   4.729  3.8046 -0.5195 -1.6960
  281MOL0     H38756   2.406   3.133   4.557  0.2729  0.6823 -2.7197
  281MOL0     H38757   2.245   3.150   4.504  1.2435  1.0891  0.0984
  281MOL0     H38758   1.948   2.239   4.264  1.4396 -1.0623  2.1400
  281MOL0     H38759   1.953   2.103   4.072  0.5957  0.6616  1.5343
  281MOL0     H38760   1.948   1.936   3.824 -2.5284  1.0322 -0.2214
  281MOL0     H38761   1.870   1.765   3.675 -2.6817  2.4671 -0.0798
  281MOL0     H38762   1.755   0.354   2.961  0.5605 -0.2553  1.7938
  281MOL0     H38763   1.860   0.304   2.752 -3.5496  2.8766  4.1233
  281MOL0     H38764   1.921  -0.039   2.431 -0.9930  2.9101  0.2968
  281MOL0     H38765   1.954  -0.064   2.207 -0.9295  1.7624 -0.7565
  281MOL0     H38766   2.115  -0.165   2.065 -0.6831  0.7752  1.0687
  281MOL0     H38767   2.005  -0.067   1.966  0.2084  3.5533 -1.2377
  281MOL0     H38768   2.157  -0.216   1.821  6.4278  0.2038 -4.6274
  281MOL0     H38769   2.288  -0.120   1.893  0.4348 -0.8984  0.6023
  281MOL0     H38770   2.196   0.086   1.810 -1.4182  0.7501  0.7198
  281MOL0     H38771   2.194  -0.033   1.670  0.6224  0.4398 -0.2706
  281MOL0     H38772   1.943  -0.073   1.760 -3.1494  1.7127 -1.9976
  281MOL0     H38773   1.996  -0.001   1.617  1.8680 -3.1322 -0.4754
  281MOL0     H38774   1.855   0.299   1.903  0.4265 -0.1083 -0.1366
  281MOL0     H38775   2.307   0.162   2.214 -0.7048 -0.0851 -1.7615
  281MOL0     H38776   2.399   0.252   2.400 -2.9345 -1.9152 -1.9824
  281MOL0     H38777   2.272   0.296   2.520  2.2037  0.9695 -0.6542
  281MOL0     H38778   2.384   0.160   2.552 -2.0816 -0.0983  3.2419
  282MOL0     O38779  11.472   1.355  11.295  0.9069 -0.2414 -0.2181
  282MOL0     C38780  11.508   1.280  11.389 -0.3995 -0.6777 -0.3083
  282MOL0     O38781  11.426   1.255  11.493 -0.2006  0.8043 -1.2802
  282MOL0     C38782  11.308   1.329  11.515 -0.3849 -0.4987  0.0404
  282MOL0     C38783  11.182   1.263  11.503  0.0228 -0.0725  0.4519
  282MOL0     C38784  11.066   1.348  11.518 -0.0245 -0.4166 -0.1120
  282MOL0     C38785  11.079   1.482  11.552 -0.1644  1.1421  0.1286
  282MOL0     O38786  10.975   1.565  11.584 -0.0194 -1.1399  0.3242
  282MOL0     C38787  10.849   1.531  11.628 -0.2839  0.4261 -0.4746
  282MOL0     C38788  10.776   1.666  11.645  0.7046 -0.3531  0.8902
  282MOL0     C38789  10.630   1.656  11.621  0.4899  0.6920  0.2538
  282MOL0     C38790  10.563   1.796  11.632  0.2374 -0.8816 -0.7719
  282MOL0     C38791  10.417   1.788  11.586  0.0691 -0.4000 -0.0369
  282MOL0     C38792  10.333   1.702  11.686 -0.4802  0.1021  0.1213
  282MOL0     C38793  10.342   1.733  11.831 -0.9392 -0.4325 -1.2704
  282MOL0     C38794  10.270   1.850  11.882 -0.6293  0.6627 -0.5335
  282MOL0     N38795  10.352   1.971  11.894  0.3876  0.7648  0.5139
  282MOL0     C38796  10.465   2.002  11.964  0.6610  1.0252 -0.5359
  282MOL0     C38797  10.511   2.125  11.926  0.6599  0.2194  0.8759
  282MOL0     C38798  10.630   2.183  11.992 -1.0541  0.6541  0.5596
  282MOL0     C38799  10.647   2.321  11.929 -0.6092  0.7800  0.4396
  282MOL0     C38800  10.737   2.409  12.015  0.2109  0.3137 -0.4133
  282MOL0     C38801  10.759   2.544  11.941 -0.1545  0.3625  0.9499
  282MOL0     O38802  10.792   2.542  11.801 -0.9007  0.2306 -0.4869
  282MOL0     C38803  10.917   2.511  11.758 -0.6836  0.0029  0.1501
  282MOL0     C38804  10.939   2.494  11.622  0.0752 -0.2416  0.5214
  282MOL0     C38805  11.072   2.474  11.571  0.5569  0.3303  0.0878
  282MOL0     C38806  11.085   2.451  11.420  0.1758  0.6826  0.2276
  282MOL0     C38807  11.181   2.474  11.663 -0.1324 -0.2139 -0.5370
  282MOL0     C38808  11.322   2.449  11.624 -0.0960  0.1769  0.2606
  282MOL0     O38809  11.407   2.399  11.720  0.2831 -0.2310 -0.0730
  282MOL0     C38810  11.533   2.369  11.679 -0.5400  0.6881  0.7588
  282MOL0     C38811  11.631   2.465  11.635  0.3264  0.3068 -0.1989
  282MOL0     C38812  11.764   2.422  11.617  0.1599  0.6010 -0.2108
  282MOL0     C38813  11.810   2.295  11.647  0.4619  0.9884 -0.0896
  282MOL0     O38814  11.949   2.289  11.659  0.2759 -0.2365  0.1756
  282MOL0     C38815  12.014   2.161  11.651 -0.1920  0.1332  0.0834
  282MOL0     C38816  12.170   2.203  11.654 -0.0091 -0.0850 -0.2012
  282MOL0     C38817  12.246   2.071  11.640 -0.1588 -0.0227 -0.1393
  282MOL0     C38818  12.394   2.104  11.607  0.2574  0.1817  0.0265
  282MOL0     C38819  12.480   1.970  11.600 -0.1454  0.2760  0.0448
  282MOL0     C38820  12.635   1.990  11.577  0.6665 -0.5874 -0.7227
  282MOL0     C38821  12.661   2.085  11.460 -0.0246 -0.3429 -0.6465
  282MOL0     C38822  12.802   2.062  11.419 -1.0442  0.5519  0.2833
  282MOL0    Cl38823  12.788   1.907  11.320  0.1993 -0.2361  0.3424
  282MOL0     C38824  11.720   2.200  11.686  0.1316 -0.0878 -0.4686
  282MOL0     C38825  11.575   2.234  11.695 -0.5087 -1.0109  0.0730
  282MOL0     O38826  11.361   2.493  11.511  0.3465 -0.1907  0.0551
  282MOL0     C38827  11.158   2.490  11.800  0.5682 -0.4549 -0.0715
  282MOL0     C38828  11.024   2.493  11.847 -0.0270 -0.6520 -0.0690
  282MOL0     N38829  10.422   2.156  11.816  0.2602 -0.0761 -0.2910
  282MOL0     N38830  10.329   2.069  11.800  0.0057  0.2022 -0.1158
  282MOL0     C38831  11.204   1.538  11.572 -0.6765  0.1350 -0.3691
  282MOL0     C38832  11.327   1.457  11.554  0.5926  0.1797 -0.0748
  282MOL0     C38833  11.640   1.229  11.394  0.7033 -0.2147 -0.1214
  282MOL0     C38834  11.682   1.174  11.267  0.0866  1.2747 -0.4619
  282MOL0     C38835  11.812   1.126  11.260  0.2037 -0.4961  0.5995
  282MOL0     C38836  11.894   1.122  11.377  0.5355 -0.4162  0.0211
  282MOL0     O38837  12.017   1.066  11.358 -0.4654 -0.3045  0.2332
  282MOL0     C38838  12.115   1.113  11.453 -0.7387 -0.1594 -0.3752
  282MOL0     C38839  12.256   1.096  11.402 -0.7563 -0.5880  0.5802
  282MOL0     C38840  12.272   1.113  11.250 -0.8229  0.0711 -0.0351
  282MOL0     C38841  12.411   1.141  11.184 -0.6300  0.0927 -0.0876
  282MOL0     C38842  12.484   1.256  11.240  0.4148  0.2071 -0.0991
  282MOL0     C38843  12.551   1.357  11.267  0.7790  0.4568 -0.0351
  282MOL0     C38844  11.849   1.170  11.500  1.2497  0.4392  0.2936
  282MOL0     C38845  11.726   1.228  11.507 -0.6002  0.6955 -0.5124
  282MOL0     C38846  11.684   1.289  11.637  0.2170 -1.0455  0.3799
  282MOL0     H38847  11.179   1.156  11.482  1.6275 -0.0950  0.2249
  282MOL0     H38848  10.965   1.307  11.515 -0.5972  0.1551  4.4170
  282MOL0     H38849  10.843   1.482  11.726 -1.6278  3.0476  0.8334
  282MOL0     H38850  10.803   1.470  11.549 -1.0313 -2.2427  1.8499
  282MOL0     H38851  10.797   1.713  11.742  0.1530  1.3087  0.2424
  282MOL0     H38852  10.814   1.731  11.565 -0.9309  0.1615  0.4825
  282MOL0     H38853  10.614   1.605  11.525 -2.2420  0.0376  0.9939
  282MOL0     H38854  10.591   1.593  11.701 -1.6777  2.1817  0.4210
  282MOL0     H38855  10.588   1.833  11.732  1.5283 -2.0087 -0.6500
  282MOL0     H38856  10.610   1.864  11.560  1.3439 -1.4283 -0.5963
  282MOL0     H38857  10.410   1.740  11.488 -1.6000 -3.6684  1.5177
  282MOL0     H38858  10.364   1.883  11.575 -0.8264 -0.9389 -0.4814
  282MOL0     H38859  10.227   1.695  11.659 -0.2605  0.4276 -0.8616
  282MOL0     H38860  10.363   1.601  11.658 -0.7229  0.3894 -1.2409
  282MOL0     H38861  10.446   1.733  11.867 -1.5326 -2.6073  0.6659
  282MOL0     H38862  10.299   1.651  11.889 -0.8336  1.7773  2.2270
  282MOL0     H38863  10.178   1.866  11.826 -2.2245 -2.1403  1.0694
  282MOL0     H38864  10.244   1.827  11.986  0.3342 -0.2950 -0.4799
  282MOL0     H38865  10.531   1.943  12.027  0.8719 -1.5968 -2.9654
  282MOL0     H38866  10.724   2.128  11.982 -1.1479  0.3308  1.3867
  282MOL0     H38867  10.605   2.196  12.098  0.0600  0.7487  0.8285
  282MOL0     H38868  10.700   2.300  11.836 -1.4475 -0.0158  0.1252
  282MOL0     H38869  10.559   2.376  11.895  0.0430  0.5590 -1.7500
  282MOL0     H38870  10.697   2.411  12.117  0.3597  0.5780 -0.3595
  282MOL0     H38871  10.835   2.361  12.012  0.9938  1.4897  2.7297
  282MOL0     H38872  10.667   2.601  11.955 -2.2307 -2.3331 -0.7583
  282MOL0     H38873  10.828   2.611  11.993 -0.2821  0.9550  0.3727
  282MOL0     H38874  10.854   2.510  11.555  0.9316  2.3994 -0.0649
  282MOL0     H38875  11.165   2.377  11.415 -1.0413 -0.8618  2.0157
  282MOL0     H38876  11.109   2.542  11.365 -3.0885  0.3521 -2.0039
  282MOL0     H38877  10.993   2.412  11.376  1.7814 -2.3939 -0.7156
  282MOL0     H38878  11.613   2.571  11.619 -0.2876  0.6116  2.1885
  282MOL0     H38879  11.843   2.494  11.596  0.2979  0.1848 -1.1669
  282MOL0     H38880  11.987   2.100  11.738 -0.1789  0.2832  0.1919
  282MOL0     H38881  11.986   2.115  11.555  2.8437  2.1952 -1.9855
  282MOL0     H38882  12.192   2.269  11.569 -2.7823 -1.2572 -1.9574
  282MOL0     H38883  12.189   2.255  11.748 -3.1630 -0.5100  0.7738
  282MOL0     H38884  12.200   2.000  11.571  0.9785  0.7864 -1.8094
  282MOL0     H38885  12.252   2.007  11.728 -0.6184 -0.7064 -0.5962
  282MOL0     H38886  12.435   2.177  11.678  2.2910 -0.5908 -0.2847
  282MOL0     H38887  12.393   2.153  11.510 -2.1924 -0.7512 -0.4800
  282MOL0     H38888  12.466   1.923  11.698  4.4389 -2.7465 -0.4107
  282MOL0     H38889  12.435   1.904  11.525 -0.9430 -0.6825  1.3069
  282MOL0     H38890  12.688   1.896  11.561 -1.6376 -2.1006 -0.0399
  282MOL0     H38891  12.674   2.022  11.674 -1.4390 -1.5949  0.5345
  282MOL0     H38892  12.649   2.189  11.494 -0.2701 -0.5137 -0.1981
  282MOL0     H38893  12.590   2.049  11.386  2.3606 -2.5058 -2.0358
  282MOL0     H38894  12.870   2.062  11.504 -1.7185 -1.6512  0.8955
  282MOL0     H38895  12.837   2.139  11.349  0.7127  0.1166  0.6251
  282MOL0     H38896  11.733   2.099  11.723 -1.9316 -1.2268 -2.6317
  282MOL0     H38897  11.499   2.168  11.735  0.3035  0.4220  4.5235
  282MOL0     H38898  11.238   2.510  11.871  1.2862  2.6370 -1.5908
  282MOL0     H38899  11.016   2.483  11.955  2.2307 -2.8757 -0.0296
  282MOL0     H38900  11.230   1.641  11.594  1.4755 -0.4598  0.0923
  282MOL0     H38901  11.422   1.503  11.575  1.1027  0.5947 -2.8798
  282MOL0     H38902  11.614   1.156  11.185 -2.1998  0.4947  1.4758
  282MOL0     H38903  11.849   1.101  11.161  0.7245  0.0587  0.6464
  282MOL0     H38904  12.093   1.214  11.490  2.3036  1.6445 -2.9810
  282MOL0     H38905  12.121   1.048  11.541 -1.8662 -0.1724 -0.2936
  282MOL0     H38906  12.293   0.995  11.423  0.7329  0.0285  1.1108
  282MOL0     H38907  12.327   1.164  11.451  0.8046  0.1740 -2.5012
  282MOL0     H38908  12.227   1.029  11.196 -2.4400  1.4268 -0.8860
  282MOL0     H38909  12.214   1.197  11.211  1.5215  0.4514 -3.0918
  282MOL0     H38910  12.404   1.173  11.080  2.1830 -1.9294 -1.0213
  282MOL0     H38911  12.460   1.044  11.186 -1.6888 -0.4612  0.2684
  282MOL0     H38912  12.587   1.447  11.313 -1.4532 -0.3386  3.7104
  282MOL0     H38913  11.911   1.177  11.590  1.3315  4.9310  0.1322
  282MOL0     H38914  11.586   1.255  11.672 -0.3465  0.8421  0.7131
  282MOL0     H38915  11.757   1.262  11.714  2.7556 -0.9233 -1.8440
  282MOL0     H38916  11.683   1.398  11.637  0.5861 -1.0297  1.0900
  283MOL0     O38917   9.519   6.992   4.963  0.1092  1.1763  0.1922
  283MOL0     C38918   9.607   7.036   5.027 -1.5265  0.3828  0.1897
  283MOL0     O38919   9.729   6.974   5.054 -0.3195 -0.0309 -0.0535
  283MOL0     C38920   9.798   6.890   4.965  0.9765 -0.3624  0.3722
  283MOL0     C38921   9.792   6.921   4.827 -0.7146 -1.0846 -0.3157
  283MOL0     C38922   9.847   6.840   4.739 -0.1578  0.4498  0.2476
  283MOL0     C38923   9.913   6.725   4.770 -0.2790 -0.2209 -0.7023
  283MOL0     O38924   9.947   6.649   4.666 -0.3302  0.1340  0.3145
  283MOL0     C38925  10.035   6.542   4.695  0.4231  0.3962  0.6929
  283MOL0     C38926  10.096   6.468   4.581 -0.0683 -0.0381  0.2327
  283MOL0     C38927   9.992   6.417   4.483 -0.0362  0.2324  0.0163
  283MOL0     C38928  10.059   6.366   4.353 -0.1269  0.1958 -0.4773
  283MOL0     C38929   9.971   6.312   4.229  0.3902 -0.1976  0.3998
  283MOL0     C38930  10.075   6.276   4.128  0.3648 -1.0669  0.5070
  283MOL0     C38931  10.004   6.229   3.998  0.6106  0.2237 -0.4340
  283MOL0     C38932  10.091   6.151   3.907 -1.7988  0.5652 -0.0971
  283MOL0     N38933  10.178   6.225   3.822  0.8406  0.2226  0.2471
  283MOL0     C38934  10.144   6.337   3.750 -0.5747 -0.3162 -0.0792
  283MOL0     C38935  10.260   6.388   3.698  0.0290 -0.3609 -0.2559
  283MOL0     C38936  10.263   6.509   3.601  0.1484 -0.0618 -0.9318
  283MOL0     C38937  10.380   6.596   3.630 -0.1554 -0.3033 -0.4605
  283MOL0     C38938  10.415   6.707   3.528 -1.0444 -0.8023  0.8730
  283MOL0     C38939  10.563   6.766   3.551 -0.0740  0.0950  1.2843
  283MOL0     O38940  10.581   6.834   3.679 -0.2868  0.4754 -0.6895
  283MOL0     C38941  10.700   6.875   3.715 -0.0043  0.3089  0.3149
  283MOL0     C38942  10.817   6.890   3.635 -0.0978  0.4236  0.5911
  283MOL0     C38943  10.940   6.935   3.687  0.0589  1.2910  0.7301
  283MOL0     C38944  11.057   6.962   3.593 -0.1109 -0.7227 -0.3691
  283MOL0     C38945  10.937   6.979   3.820 -0.4286 -1.4479 -0.4460
  283MOL0     C38946  11.067   7.016   3.897 -0.3974 -0.1086  0.0515
  283MOL0     O38947  11.051   7.099   4.004 -0.1549 -0.6091  0.4749
  283MOL0     C38948  11.144   7.097   4.098 -0.2767 -0.6162  0.1996
  283MOL0     C38949  11.159   7.014   4.211 -0.5900 -0.4000  0.1147
  283MOL0     C38950  11.281   7.015   4.287 -0.4937  0.0071  0.1451
  283MOL0     C38951  11.380   7.107   4.266  1.5091  0.2629 -0.3064
  283MOL0     O38952  11.496   7.098   4.337 -0.0145 -0.2237 -0.2767
  283MOL0     C38953  11.594   7.200   4.340  0.6017 -0.1313  0.5953
  283MOL0     C38954  11.668   7.213   4.476  0.0290  0.4092 -0.4006
  283MOL0     C38955  11.750   7.083   4.501  0.0399 -0.7910 -0.0647
  283MOL0     C38956  11.880   7.106   4.569 -0.3024 -0.1645 -0.0094
  283MOL0     C38957  11.971   6.986   4.566  0.0085 -0.0677 -0.4263
  283MOL0     C38958  12.100   7.009   4.655 -0.6167  0.2891  0.0053
  283MOL0     C38959  12.204   7.091   4.575  0.2556  0.1265  0.6212
  283MOL0     C38960  12.324   7.153   4.649  0.7831 -0.2821  0.5939
  283MOL0    Cl38961  12.419   7.274   4.544  0.5044 -0.5643 -0.0413
  283MOL0     C38962  11.361   7.201   4.165 -0.1128 -0.0315 -0.6570
  283MOL0     C38963  11.243   7.189   4.079 -0.2035 -0.1591 -0.7513
  283MOL0     O38964  11.168   6.954   3.874  0.0373  0.3038  0.0611
  283MOL0     C38965  10.823   6.965   3.894  0.4913  0.2569  0.3922
  283MOL0     C38966  10.713   6.910   3.852 -0.0048  0.1723  0.9946
  283MOL0     N38967  10.363   6.298   3.747 -0.3267  0.3033  0.0372
  283MOL0     N38968  10.311   6.197   3.812 -0.7434 -0.2441 -0.9251
  283MOL0     C38969   9.936   6.704   4.908  0.7512 -0.2047  0.7317
  283MOL0     C38970   9.880   6.784   5.004 -0.0008  0.1513 -0.3012
  283MOL0     C38971   9.587   7.174   5.083 -0.5699  0.9035  0.4343
  283MOL0     C38972   9.459   7.209   5.137  0.5340  0.8208  0.1330
  283MOL0     C38973   9.426   7.342   5.152 -0.1651  0.6204  0.7597
  283MOL0     C38974   9.525   7.443   5.128  0.4852  0.2709 -0.4716
  283MOL0     O38975   9.508   7.580   5.140 -0.1817  1.4659  0.1649
  283MOL0     C38976   9.382   7.634   5.174  0.8257  0.2290  0.0933
  283MOL0     C38977   9.273   7.641   5.072  0.0530  0.4830  0.3165
  283MOL0     C38978   9.295   7.747   4.970  0.1808 -0.2511 -0.2989
  283MOL0     C38979   9.414   7.719   4.881  0.2220  0.1147 -0.4925
  283MOL0     C38980   9.387   7.745   4.733 -0.2561  0.0453 -0.6822
  283MOL0     C38981   9.366   7.763   4.614  0.0501  0.7426 -0.3199
  283MOL0     C38982   9.647   7.409   5.074 -0.4377 -0.3287  0.5823
  283MOL0     C38983   9.685   7.281   5.054  1.1238 -0.2280  0.3530
  283MOL0     C38984   9.811   7.247   4.976  0.1148 -0.4813 -0.0357
  283MOL0     H38985   9.735   7.001   4.782 -1.1177 -0.9768  0.3769
  283MOL0     H38986   9.831   6.868   4.635 -1.0412  2.0229  0.7803
  283MOL0     H38987   9.977   6.473   4.756 -2.3272  1.2096 -0.8552
  283MOL0     H38988  10.117   6.593   4.747 -0.4043 -0.5590  3.0818
  283MOL0     H38989  10.180   6.520   4.534  2.2122 -3.3199  0.3550
  283MOL0     H38990  10.137   6.379   4.629  0.0046 -0.2175 -0.1573
  283MOL0     H38991   9.930   6.343   4.535 -1.0475  3.3082  3.7457
  283MOL0     H38992   9.927   6.503   4.465  0.2149  0.8514  1.8614
  283MOL0     H38993  10.106   6.459   4.319 -0.6145  0.5586 -0.1671
  283MOL0     H38994  10.139   6.301   4.389 -1.1844 -0.5547  0.5616
  283MOL0     H38995   9.911   6.395   4.190  1.0680  0.9886  1.7840
  283MOL0     H38996   9.908   6.231   4.267  0.4990  0.6488  2.5058
  283MOL0     H38997  10.132   6.366   4.101 -1.4316  0.0432  0.2042
  283MOL0     H38998  10.147   6.197   4.151  3.5689  1.4492 -0.0969
  283MOL0     H38999   9.952   6.309   3.944  1.9303  1.3060 -0.1297
  283MOL0     H39000   9.923   6.160   4.025 -0.6019  1.4716 -0.7481
  283MOL0     H39001  10.144   6.074   3.963 -0.2333  0.9733 -0.9823
  283MOL0     H39002  10.040   6.086   3.835 -0.6985  0.9820 -1.2832
  283MOL0     H39003  10.047   6.381   3.733 -2.1851 -3.6845 -0.3261
  283MOL0     H39004  10.179   6.577   3.618 -0.3035 -0.5577 -1.1407
  283MOL0     H39005  10.263   6.460   3.503 -0.1300 -0.3590 -0.7851
  283MOL0     H39006  10.351   6.640   3.726  0.2851 -0.5333 -0.2183
  283MOL0     H39007  10.465   6.528   3.642  0.8243  0.6339 -1.8008
  283MOL0     H39008  10.406   6.674   3.424  1.0202 -1.2052  0.7853
  283MOL0     H39009  10.341   6.787   3.535  0.5439  0.8017  0.0951
  283MOL0     H39010  10.640   6.688   3.543  1.9262  1.9591  1.2609
  283MOL0     H39011  10.590   6.838   3.472  0.9930  2.5651  3.7149
  283MOL0     H39012  10.800   6.871   3.529  0.1278  1.0111  0.4414
  283MOL0     H39013  11.103   7.057   3.621 -3.0700  0.7020  0.0571
  283MOL0     H39014  11.027   6.961   3.488  2.2422 -0.7581 -1.0935
  283MOL0     H39015  11.135   6.886   3.603  2.4266  1.9444  1.5244
  283MOL0     H39016  11.079   6.944   4.236 -1.0799  0.1434  0.1035
  283MOL0     H39017  11.300   6.943   4.366 -0.2859 -0.0001  0.0885
  283MOL0     H39018  11.659   7.165   4.260  1.6805 -3.8872  2.8348
  283MOL0     H39019  11.560   7.300   4.312 -0.5291 -0.7366 -0.2549
  283MOL0     H39020  11.727   7.305   4.479  2.3560 -1.0078 -0.4623
  283MOL0     H39021  11.599   7.228   4.559  0.4365  1.8687 -0.2911
  283MOL0     H39022  11.773   7.049   4.399  1.3908  0.3113 -0.1532
  283MOL0     H39023  11.686   7.003   4.541  0.1555 -0.7553  0.1874
  283MOL0     H39024  11.876   7.136   4.674  1.3479 -2.3538  0.7597
  283MOL0     H39025  11.928   7.181   4.505 -0.9235  1.8920  1.8382
  283MOL0     H39026  11.913   6.901   4.602  0.5971 -1.2715 -2.2113
  283MOL0     H39027  12.006   6.979   4.463  0.8223  2.2476 -0.3649
  283MOL0     H39028  12.136   6.908   4.680 -0.7960  0.2891  0.2671
  283MOL0     H39029  12.075   7.063   4.747  0.2849  1.7580 -0.5933
  283MOL0     H39030  12.150   7.180   4.538  1.8490  0.7727 -0.2348
  283MOL0     H39031  12.228   7.028   4.490  0.7803 -0.6036  1.2994
  283MOL0     H39032  12.402   7.085   4.686  1.0273 -0.4816 -0.2525
  283MOL0     H39033  12.290   7.212   4.734 -0.6546  0.8677 -0.7069
  283MOL0     H39034  11.442   7.268   4.139  2.4949 -2.9153 -0.5367
  283MOL0     H39035  11.243   7.267   4.004  2.2563  2.1217  1.3736
  283MOL0     H39036  10.820   6.988   4.000 -0.8532 -3.0493  1.2030
  283MOL0     H39037  10.635   6.899   3.926 -0.2380  2.3949  1.1463
  283MOL0     H39038   9.987   6.615   4.943  3.2624 -0.3752 -2.8661
  283MOL0     H39039   9.880   6.764   5.110  0.1161 -1.2644 -0.5523
  283MOL0     H39040   9.380   7.135   5.148 -2.8310  3.8391 -1.5046
  283MOL0     H39041   9.325   7.366   5.184 -0.0143 -0.3170  2.0014
  283MOL0     H39042   9.359   7.583   5.268  3.2672  0.2383  0.7661
  283MOL0     H39043   9.402   7.740   5.194 -0.2423  0.1146  2.0400
  283MOL0     H39044   9.181   7.671   5.123  1.1628  0.4089  2.4904
  283MOL0     H39045   9.259   7.543   5.026  0.7647  0.8390 -0.7102
  283MOL0     H39046   9.212   7.750   4.899 -2.3914  5.4963  2.2954
  283MOL0     H39047   9.290   7.842   5.025 -2.1412 -1.3609  1.5902
  283MOL0     H39048   9.458   7.620   4.899  1.5118  0.7094 -0.2171
  283MOL0     H39049   9.506   7.766   4.916 -0.0018 -0.4199  0.8548
  283MOL0     H39050   9.353   7.790   4.511 -1.0558  0.2670 -0.3177
  283MOL0     H39051   9.718   7.486   5.046  0.5533 -1.2805  0.4092
  283MOL0     H39052   9.871   7.191   5.048 -0.8809  1.2760  2.2990
  283MOL0     H39053   9.793   7.193   4.882  1.5125 -0.3734 -0.3921
  283MOL0     H39054   9.867   7.338   4.951 -0.4835 -0.7702 -2.6993
  284MOL0     O39055  10.915   7.105  11.286  0.1572 -0.2688 -0.2969
  284MOL0     C39056  10.853   7.038  11.202 -0.5547 -0.6034  0.4800
  284MOL0     O39057  10.881   6.907  11.163  0.3164 -0.3925  0.2647
  284MOL0     C39058  10.988   6.862  11.226  0.0364 -0.2243 -0.5423
  284MOL0     C39059  10.994   6.834  11.367  0.7742  0.4027  0.3694
  284MOL0     C39060  11.113   6.793  11.426 -1.0182  0.6300 -0.6425
  284MOL0     C39061  11.232   6.789  11.353  0.7240  0.0267 -0.2079
  284MOL0     O39062  11.360   6.755  11.412  0.4810 -0.5414  0.4770
  284MOL0     C39063  11.371   6.727  11.551 -0.8177 -1.2123 -1.0811
  284MOL0     C39064  11.519   6.748  11.598  0.6188 -0.8179  0.0143
  284MOL0     C39065  11.601   6.616  11.579 -0.6235  0.0835  0.6279
  284MOL0     C39066  11.750   6.633  11.612  1.1248 -0.4214 -0.4396
  284MOL0     C39067  11.764   6.676  11.760  0.4227 -0.3784  0.0453
  284MOL0     C39068  11.912   6.667  11.799 -0.9531  0.0451  1.0732
  284MOL0     C39069  11.927   6.512  11.842  0.6195 -0.2516 -0.3112
  284MOL0     C39070  12.074   6.454  11.858 -0.0470 -0.0020  0.4042
  284MOL0     N39071  12.126   6.484  11.994  0.7888  0.0229 -0.0354
  284MOL0     C39072  12.102   6.413  12.112 -0.2141  0.7856  0.4664
  284MOL0     C39073  12.186   6.466  12.209  0.2903 -0.3933  0.5313
  284MOL0     C39074  12.221   6.398  12.340  1.9853 -1.5882 -0.1096
  284MOL0     C39075  12.112   6.433  12.447 -0.1691  0.4854 -0.2120
  284MOL0     C39076  12.174   6.430  12.589  0.0572 -0.0345  0.9825
  284MOL0     C39077  12.245   6.305  12.644 -1.2556  0.0235 -0.1458
  284MOL0     O39078  12.260   6.325  12.788 -0.0774 -0.1373 -0.1181
  284MOL0     C39079  12.302   6.225  12.861 -0.3061  0.3089 -0.2393
  284MOL0     C39080  12.240   6.218  12.985 -0.2979 -0.9730  0.2621
  284MOL0     C39081  12.278   6.124  13.075 -0.3363 -0.0889 -0.1446
  284MOL0     C39082  12.208   6.141  13.209 -0.9300  0.1880  0.6047
  284MOL0     C39083  12.380   6.029  13.057 -0.2778 -0.3638 -0.1792
  284MOL0     C39084  12.431   5.949  13.166 -0.0307 -0.3703  0.0134
  284MOL0     O39085  12.338   5.884  13.240  0.4616  0.0551 -0.3606
  284MOL0     C39086  12.372   5.798  13.353  0.6176  0.4175 -0.2441
  284MOL0     C39087  12.288   5.800  13.459  0.3028 -0.3943 -0.3022
  284MOL0     C39088  12.319   5.726  13.576  0.2789  0.2681  0.0352
  284MOL0     C39089  12.405   5.621  13.574 -0.7643 -0.2362  0.7369
  284MOL0     O39090  12.407   5.534  13.673  1.0030 -0.7366 -0.6309
  284MOL0     C39091  12.516   5.462  13.708  0.2528 -0.0483  0.5441
  284MOL0     C39092  12.493   5.320  13.659 -0.3075 -0.0848 -0.4164
  284MOL0     C39093  12.387   5.246  13.737 -0.1468 -0.0801  0.2382
  284MOL0     C39094  12.383   5.099  13.698 -0.2464  0.1407  0.0947
  284MOL0     C39095  12.262   5.023  13.752 -0.1407  0.0719 -0.0680
  284MOL0     C39096  12.258   4.869  13.714 -0.2013  0.3078  0.2096
  284MOL0     C39097  12.389   4.800  13.763  0.6594  0.1663  0.4976
  284MOL0     C39098  12.383   4.648  13.743  0.2762 -0.6090  0.2235
  284MOL0    Cl39099  12.384   4.603  13.566  0.3999  0.1365  0.1619
  284MOL0     C39100  12.478   5.604  13.456 -0.0993  0.0191  0.8892
  284MOL0     C39101  12.463   5.695  13.350  0.3249 -0.7153 -0.1704
  284MOL0     O39102  12.550   5.931  13.182  0.3898  0.7022  0.2378
  284MOL0     C39103  12.452   6.046  12.937  0.4389 -0.1153 -0.2066
  284MOL0     C39104  12.411   6.134  12.832 -0.0331 -1.1082  0.0454
  284MOL0     N39105  12.245   6.576  12.154 -0.0959 -0.5227  0.4502
  284MOL0     N39106  12.202   6.593  12.034 -0.6217  0.1754  0.0007
  284MOL0     C39107  11.225   6.817  11.210 -0.1664 -0.2385 -0.3701
  284MOL0     C39108  11.107   6.849  11.151 -0.0594  0.3183  0.3680
  284MOL0     C39109  10.763   7.107  11.112  0.5335  0.3647 -0.7326
  284MOL0     C39110  10.766   7.249  11.108  0.6400  0.2929 -0.0159
  284MOL0     C39111  10.693   7.319  11.010  0.1074  0.2592 -0.6370
  284MOL0     C39112  10.602   7.265  10.927 -0.4059  1.2701 -0.0018
  284MOL0     O39113  10.542   7.332  10.828  0.1455 -0.6815  0.2859
  284MOL0     C39114  10.562   7.471  10.805  0.4541 -0.8368 -0.3319
  284MOL0     C39115  10.509   7.504  10.661  0.7286  0.1680  0.5784
  284MOL0     C39116  10.351   7.499  10.643 -0.0738 -0.7418  0.4054
  284MOL0     C39117  10.310   7.544  10.500  0.0904  0.4455 -0.8820
  284MOL0     C39118  10.164   7.522  10.484 -0.2839 -1.2017 -0.1387
  284MOL0     C39119  10.042   7.519  10.470 -0.5696 -0.7402  0.1756
  284MOL0     C39120  10.587   7.129  10.938 -0.0119  0.8696 -0.5082
  284MOL0     C39121  10.667   7.044  11.027 -0.2955  0.1230 -0.2539
  284MOL0     C39122  10.629   6.897  11.044 -0.6896 -0.1652 -0.4341
  284MOL0     H39123  10.893   6.828  11.406  1.1457 -2.2657  1.1217
  284MOL0     H39124  11.112   6.772  11.532  3.3803 -1.4867 -0.8086
  284MOL0     H39125  11.328   6.629  11.574  0.0328 -2.0149 -2.7006
  284MOL0     H39126  11.318   6.805  11.607 -0.3969  0.4936 -2.9273
  284MOL0     H39127  11.567   6.836  11.554  2.4484  0.1651  3.5569
  284MOL0     H39128  11.503   6.755  11.706 -1.3127  1.1941 -0.3204
  284MOL0     H39129  11.563   6.546  11.654 -1.0427  1.8387  2.1323
  284MOL0     H39130  11.584   6.566  11.484  0.4040 -2.7098  1.8186
  284MOL0     H39131  11.794   6.534  11.595  1.4233 -0.1061 -1.6205
  284MOL0     H39132  11.785   6.716  11.550 -1.2363 -1.1995 -3.0345
  284MOL0     H39133  11.690   6.627  11.824 -1.5169  2.8237  0.4726
  284MOL0     H39134  11.731   6.780  11.766  0.4017 -0.4382  1.0168
  284MOL0     H39135  11.982   6.689  11.718 -4.4283  0.6281 -2.0471
  284MOL0     H39136  11.941   6.726  11.886  0.6537  0.0202  0.5882
  284MOL0     H39137  11.874   6.446  11.773 -1.0253 -1.0329  1.5572
  284MOL0     H39138  11.863   6.508  11.931 -3.1114  1.9775 -2.5949
  284MOL0     H39139  12.065   6.347  11.837 -0.7314  0.2361 -0.6041
  284MOL0     H39140  12.128   6.494  11.771 -1.2143  0.9582  0.1002
  284MOL0     H39141  12.034   6.329  12.122  0.6911  0.2612  2.6861
  284MOL0     H39142  12.315   6.438  12.378  0.7323 -0.4955  2.0786
  284MOL0     H39143  12.244   6.292  12.332  0.2808 -2.2695  2.7453
  284MOL0     H39144  12.062   6.530  12.437  1.3582  1.1700 -1.8138
  284MOL0     H39145  12.034   6.358  12.433 -0.3549 -0.1172  3.3433
  284MOL0     H39146  12.235   6.521  12.592 -0.2839  0.4598 -2.5949
  284MOL0     H39147  12.093   6.452  12.659 -0.0919  1.2353  0.4397
  284MOL0     H39148  12.186   6.214  12.633 -2.0872  0.3910  1.1016
  284MOL0     H39149  12.337   6.296  12.586 -0.4636 -1.1244  1.2542
  284MOL0     H39150  12.158   6.286  13.005  0.4377  0.0963 -0.2455
  284MOL0     H39151  12.164   6.055  13.261 -3.0603  1.0064  0.2912
  284MOL0     H39152  12.127   6.215  13.215  1.3460  2.7454  2.7180
  284MOL0     H39153  12.290   6.176  13.273  0.0952  1.6618 -1.3958
  284MOL0     H39154  12.205   5.871  13.463  0.0161 -0.7745  1.1311
  284MOL0     H39155  12.258   5.750  13.663 -3.7923  1.5045 -2.8424
  284MOL0     H39156  12.599   5.504  13.652  0.3686  1.1118  1.5302
  284MOL0     H39157  12.527   5.465  13.817  0.7556  0.3658  0.4838
  284MOL0     H39158  12.466   5.323  13.553  0.6933 -1.1215 -0.7229
  284MOL0     H39159  12.590   5.270  13.672  0.3282  1.3289  0.5383
  284MOL0     H39160  12.293   5.298  13.716  0.5034  0.3418 -1.8254
  284MOL0     H39161  12.409   5.258  13.844 -1.5399 -2.8371  0.9127
  284MOL0     H39162  12.477   5.059  13.736  0.2613  0.7472 -0.5035
  284MOL0     H39163  12.386   5.089  13.589  0.3266  1.0385  0.0179
  284MOL0     H39164  12.263   5.031  13.861 -2.4799  0.7420 -0.0319
  284MOL0     H39165  12.160   5.059  13.735 -1.1695 -2.8176 -0.6608
  284MOL0     H39166  12.247   4.867  13.605  0.8224  0.0510  0.1027
  284MOL0     H39167  12.172   4.818  13.758  1.1391 -2.3442 -0.0078
  284MOL0     H39168  12.399   4.825  13.869  1.3284  2.8796 -0.1208
  284MOL0     H39169  12.478   4.832  13.709 -0.9092 -0.1296 -2.4733
  284MOL0     H39170  12.298   4.607  13.799 -0.9077 -0.9759 -1.7717
  284MOL0     H39171  12.475   4.612  13.790  0.5025  0.7622  0.8945
  284MOL0     H39172  12.529   5.508  13.447 -2.7970 -1.3108 -3.0845
  284MOL0     H39173  12.532   5.692  13.266  1.8829  0.0950  1.0270
  284MOL0     H39174  12.541   5.983  12.929  0.4716 -0.0993  0.0153
  284MOL0     H39175  12.479   6.154  12.750  0.8655 -0.8503  0.8447
  284MOL0     H39176  11.315   6.807  11.151 -0.1649 -1.9906 -0.1402
  284MOL0     H39177  11.097   6.853  11.043 -1.6528 -0.5237  0.4535
  284MOL0     H39178  10.839   7.304  11.166  3.0585 -3.9218  1.3453
  284MOL0     H39179  10.710   7.425  10.989  0.8205  0.2931  0.0836
  284MOL0     H39180  10.506   7.523  10.883  2.3967  3.2962 -1.3938
  284MOL0     H39181  10.666   7.506  10.802 -0.0880  0.8059 -3.3390
  284MOL0     H39182  10.551   7.429  10.592 -0.1591  1.1420 -1.0686
  284MOL0     H39183  10.553   7.595  10.620  2.2912 -1.6222 -2.0692
  284MOL0     H39184  10.320   7.395  10.656  2.2239 -1.5586 -0.1935
  284MOL0     H39185  10.310   7.570  10.715  0.3336 -2.2431  2.1653
  284MOL0     H39186  10.355   7.475  10.428 -2.2970 -3.4586  1.0697
  284MOL0     H39187  10.348   7.644  10.474  3.8300 -0.0382  1.7934
  284MOL0     H39188   9.938   7.510  10.447 -0.0429 -2.2921 -1.7999
  284MOL0     H39189  10.516   7.076  10.876 -0.4555  0.2183  0.5231
  284MOL0     H39190  10.526   6.884  11.009 -0.2820 -1.3145 -1.2837
  284MOL0     H39191  10.702   6.844  10.982  2.3155  3.2914 -0.1288
  284MOL0     H39192  10.640   6.855  11.145 -1.1788 -0.4906 -0.5078
  285MOL0     O39193   8.220   4.178   4.248  0.0410  0.1707  0.1374
  285MOL0     C39194   8.253   4.069   4.208 -0.4896 -0.0501 -0.1324
  285MOL0     O39195   8.170   3.965   4.200  1.0556  0.1574  0.1904
  285MOL0     C39196   8.032   3.965   4.220 -0.8284 -0.5682  0.3487
  285MOL0     C39197   7.949   4.072   4.195  0.1092 -0.8146 -1.0329
  285MOL0     C39198   7.809   4.082   4.221  0.4384 -0.5244 -0.0415
  285MOL0     C39199   7.748   3.971   4.274  0.4531 -0.2997 -0.1774
  285MOL0     O39200   7.610   3.979   4.301 -0.0105 -0.2573  1.0646
  285MOL0     C39201   7.549   3.864   4.355  0.2836 -0.0080  0.1205
  285MOL0     C39202   7.399   3.891   4.385  0.0898 -0.3975  0.1861
  285MOL0     C39203   7.330   3.936   4.253  0.5578 -0.1012  0.3160
  285MOL0     C39204   7.315   3.837   4.130 -0.2148 -0.1333 -0.3927
  285MOL0     C39205   7.241   3.707   4.169 -0.3395  0.2027 -0.9113
  285MOL0     C39206   7.217   3.627   4.043  0.8402 -0.6173  0.2823
  285MOL0     C39207   7.147   3.497   4.080  0.4001  0.3481 -0.0558
  285MOL0     C39208   6.998   3.523   4.114  0.0258 -0.1781  0.3189
  285MOL0     N39209   6.928   3.396   4.117 -0.1615  0.2091  0.1866
  285MOL0     C39210   6.977   3.277   4.151  0.3486  0.6752  0.2977
  285MOL0     C39211   6.861   3.202   4.154  0.2995 -0.4339  1.2331
  285MOL0     C39212   6.837   3.059   4.192 -1.1183 -0.6805 -0.6498
  285MOL0     C39213   6.919   3.025   4.322  0.1571 -0.6373  1.0777
  285MOL0     C39214   6.915   2.873   4.353  0.6296  0.2608  0.3839
  285MOL0     C39215   7.013   2.778   4.273  0.6077 -0.0021 -0.4990
  285MOL0     O39216   7.113   2.733   4.366  0.3290 -0.2952 -0.3468
  285MOL0     C39217   7.120   2.610   4.413 -0.1731  0.5216 -0.4187
  285MOL0     C39218   7.199   2.584   4.525 -1.2577 -0.8185 -1.1967
  285MOL0     C39219   7.208   2.462   4.591 -0.4794 -0.1349  0.3720
  285MOL0     C39220   7.313   2.459   4.710 -0.1069 -0.3571 -0.5633
  285MOL0     C39221   7.120   2.362   4.544  0.0842  0.0503 -0.8994
  285MOL0     C39222   7.116   2.231   4.615  0.3242 -0.1656  0.0707
  285MOL0     O39223   7.001   2.166   4.599  0.1620 -0.3401 -0.0447
  285MOL0     C39224   6.970   2.075   4.695 -0.5938 -0.0500  0.3175
  285MOL0     C39225   6.982   2.089   4.835 -0.7464  0.7618 -0.1270
  285MOL0     C39226   6.915   2.016   4.923 -0.0564  0.3520  0.5046
  285MOL0     C39227   6.827   1.912   4.879 -0.5479  0.4708 -0.0044
  285MOL0     O39228   6.763   1.846   4.978  0.3970  1.3244 -0.3704
  285MOL0     C39229   6.697   1.717   4.953 -0.2547 -0.1978  0.2216
  285MOL0     C39230   6.647   1.669   5.086  0.0272  0.4146 -0.4247
  285MOL0     C39231   6.756   1.645   5.199 -0.2226  0.2450  0.2744
  285MOL0     C39232   6.691   1.583   5.324  0.1974 -0.5145 -0.4926
  285MOL0     C39233   6.761   1.620   5.447 -0.3696 -0.4727  0.4215
  285MOL0     C39234   6.677   1.580   5.569  0.8070 -0.4861 -1.2837
  285MOL0     C39235   6.750   1.615   5.694 -0.5171  0.2354  0.2203
  285MOL0     C39236   6.649   1.614   5.807 -0.2041 -0.5560 -0.7314
  285MOL0    Cl39237   6.530   1.751   5.812 -0.4075  0.1101  1.1811
  285MOL0     C39238   6.825   1.883   4.749  0.4407 -0.6655 -0.3225
  285MOL0     C39239   6.896   1.960   4.653  0.0535 -0.2171  0.5236
  285MOL0     O39240   7.216   2.200   4.680 -0.7749  1.1125 -1.0716
  285MOL0     C39241   7.043   2.387   4.427 -0.6054  0.4981 -0.3413
  285MOL0     C39242   7.046   2.507   4.362 -0.3956 -0.5112 -0.1485
  285MOL0     N39243   6.748   3.273   4.129 -0.3240 -0.4665 -0.6921
  285MOL0     N39244   6.791   3.392   4.118  0.0984 -0.4511 -0.1425
  285MOL0     C39245   7.830   3.862   4.314 -0.4178  0.2288 -0.8657
  285MOL0     C39246   7.967   3.855   4.265  0.1896  0.0192  0.0563
  285MOL0     C39247   8.391   4.039   4.158  0.6019  0.2905 -0.1353
  285MOL0     C39248   8.415   3.924   4.074  0.2963 -0.0650 -0.3471
  285MOL0     C39249   8.539   3.911   4.010  0.9722  0.4693  0.8051
  285MOL0     C39250   8.645   3.997   4.036  0.1097  0.5501 -0.4613
  285MOL0     O39251   8.772   3.972   3.987  0.0573 -0.5017 -0.2069
  285MOL0     C39252   8.800   3.998   3.851 -0.0307  0.2007 -0.4389
  285MOL0     C39253   8.951   4.015   3.854  0.1536 -0.4774 -0.0496
  285MOL0     C39254   9.011   4.112   3.960  0.2354  0.2927 -0.0899
  285MOL0     C39255   9.140   4.057   4.021 -0.0221  0.2263  0.2958
  285MOL0     C39256   9.167   4.118   4.153  0.3336 -0.4283  0.5261
  285MOL0     C39257   9.167   4.197   4.248 -0.6691 -0.0853 -0.3220
  285MOL0     C39258   8.628   4.091   4.141 -0.0053  0.7278  0.3515
  285MOL0     C39259   8.503   4.118   4.193 -0.7505  0.2674  0.9205
  285MOL0     C39260   8.499   4.228   4.296  0.3587  0.3795  0.7019
  285MOL0     H39261   7.991   4.166   4.159  0.0324  0.2609  1.4804
  285MOL0     H39262   7.746   4.168   4.199  2.0613  1.1111  1.3980
  285MOL0     H39263   7.589   3.833   4.452  1.6563  3.6241  0.8687
  285MOL0     H39264   7.540   3.779   4.288 -2.0251 -1.8164  2.5083
  285MOL0     H39265   7.342   3.805   4.423  1.4663 -0.7904  1.4486
  285MOL0     H39266   7.393   3.964   4.466  1.8085 -1.0354  0.9336
  285MOL0     H39267   7.226   3.958   4.276 -0.5218 -3.7476 -0.2993
  285MOL0     H39268   7.380   4.027   4.218  0.0928  0.8912  2.1211
  285MOL0     H39269   7.253   3.904   4.069 -2.9888  0.6841  3.0005
  285MOL0     H39270   7.414   3.815   4.089 -0.0926 -0.9866  0.3295
  285MOL0     H39271   7.146   3.740   4.212 -0.4856  0.6599 -1.5703
  285MOL0     H39272   7.290   3.650   4.249  0.2489  0.3435 -1.1688
  285MOL0     H39273   7.144   3.688   3.991 -1.7835 -1.7990  2.3462
  285MOL0     H39274   7.311   3.609   3.989  0.6625  0.1079 -0.2676
  285MOL0     H39275   7.204   3.450   4.161 -0.1546 -1.3509 -0.5991
  285MOL0     H39276   7.145   3.422   4.000 -0.4115  0.8208 -0.4886
  285MOL0     H39277   6.997   3.576   4.210  2.2537 -2.0944  1.5079
  285MOL0     H39278   6.958   3.581   4.030 -2.7537 -1.1739  0.8659
  285MOL0     H39279   7.077   3.235   4.158  0.1336 -0.1514 -1.1061
  285MOL0     H39280   6.882   2.994   4.117  2.6615 -0.2585  1.0495
  285MOL0     H39281   6.730   3.044   4.209 -0.9448 -0.7541  0.4308
  285MOL0     H39282   7.021   3.048   4.288 -0.5534 -1.4098 -1.8985
  285MOL0     H39283   6.892   3.086   4.408  2.8405  1.7263  0.4340
  285MOL0     H39284   6.921   2.863   4.462 -2.4115 -1.0683  0.5308
  285MOL0     H39285   6.812   2.839   4.340  0.2706  0.6891  1.8975
  285MOL0     H39286   6.948   2.705   4.226 -0.2059 -0.3905  1.1543
  285MOL0     H39287   7.069   2.832   4.196  0.5349 -1.4264 -1.5744
  285MOL0     H39288   7.248   2.667   4.575 -1.8367 -0.5292 -1.1051
  285MOL0     H39289   7.365   2.553   4.728 -1.5648 -0.0015  2.6414
  285MOL0     H39290   7.387   2.381   4.690 -1.0184 -1.8447  1.4724
  285MOL0     H39291   7.258   2.434   4.802  0.9941  0.5865  0.3752
  285MOL0     H39292   7.024   2.178   4.881 -0.5480  0.2698  0.6695
  285MOL0     H39293   6.938   2.044   5.025 -0.0499  3.2738 -0.2242
  285MOL0     H39294   6.609   1.734   4.890  2.5146  1.0396 -3.7078
  285MOL0     H39295   6.768   1.650   4.906 -2.4218 -2.8287  0.4478
  285MOL0     H39296   6.576   1.742   5.126  0.8408  2.9096 -3.1700
  285MOL0     H39297   6.598   1.576   5.057 -0.1837  1.1665 -2.6375
  285MOL0     H39298   6.795   1.742   5.231  1.9815 -0.4263 -0.2185
  285MOL0     H39299   6.839   1.581   5.167  0.8572  0.5979  2.2271
  285MOL0     H39300   6.695   1.474   5.322  4.4347 -0.5661  0.6788
  285MOL0     H39301   6.590   1.623   5.325  1.5539  3.3477 -0.5586
  285MOL0     H39302   6.856   1.566   5.452 -1.0275 -1.7505 -0.3826
  285MOL0     H39303   6.769   1.729   5.446 -0.6641 -0.4450 -0.6590
  285MOL0     H39304   6.671   1.471   5.577 -2.0177 -0.5400 -3.0166
  285MOL0     H39305   6.575   1.617   5.558 -0.2296 -2.7744 -0.1903
  285MOL0     H39306   6.787   1.718   5.685 -2.6103  0.8407 -2.9373
  285MOL0     H39307   6.840   1.554   5.710  1.0286  2.1232 -0.7255
  285MOL0     H39308   6.702   1.628   5.901  1.1981  0.8582 -1.6877
  285MOL0     H39309   6.598   1.517   5.800  2.6166 -2.2809  0.6848
  285MOL0     H39310   6.752   1.807   4.724  0.5760 -1.9733  2.8139
  285MOL0     H39311   6.883   1.932   4.549  0.0983 -0.9489  0.7116
  285MOL0     H39312   6.987   2.303   4.387 -2.1124  1.6268 -0.7174
  285MOL0     H39313   6.999   2.510   4.264  0.2965  1.3471 -0.4714
  285MOL0     H39314   7.784   3.777   4.363 -0.5764  2.2400  2.7896
  285MOL0     H39315   8.017   3.759   4.279 -1.0582 -0.3727  2.2940
  285MOL0     H39316   8.329   3.861   4.052  1.0462 -1.7937  1.3468
  285MOL0     H39317   8.557   3.838   3.932 -1.4131 -0.3491  0.9332
  285MOL0     H39318   8.783   3.904   3.797 -0.8707 -1.7250  2.8726
  285MOL0     H39319   8.739   4.082   3.818  1.8050  1.1913 -1.4822
  285MOL0     H39320   8.977   4.060   3.757  1.3386 -2.0551 -0.5144
  285MOL0     H39321   8.997   3.916   3.864 -1.4143 -1.1515  0.9073
  285MOL0     H39322   9.030   4.213   3.925 -0.6720 -0.5850 -3.5513
  285MOL0     H39323   8.952   4.111   4.053  0.4835  1.2929  0.0861
  285MOL0     H39324   9.228   4.061   3.956 -0.6621 -2.1334 -0.8195
  285MOL0     H39325   9.130   3.948   4.014 -0.6655  0.3902 -2.6245
  285MOL0     H39326   9.174   4.270   4.326  0.2884  0.6290 -1.0556
  285MOL0     H39327   8.721   4.144   4.158  1.0538  0.7020 -4.2327
  285MOL0     H39328   8.433   4.200   4.378 -3.7643  0.3322 -2.3155
  285MOL0     H39329   8.601   4.250   4.330  1.0490  1.2039 -1.6649
  285MOL0     H39330   8.450   4.316   4.254 -1.9937 -0.2998  1.8640
  286MOL0     O39331  10.909   6.322   0.299 -0.4723 -0.1758 -0.4555
  286MOL0     C39332  10.909   6.213   0.353  0.6848 -0.4330  0.1387
  286MOL0     O39333  10.813   6.118   0.322  0.2249 -0.1430 -0.2008
  286MOL0     C39334  10.690   6.169   0.278  0.7865 -0.0638 -0.4378
  286MOL0     C39335  10.664   6.189   0.142 -0.4910  0.7115 -0.1580
  286MOL0     C39336  10.540   6.217   0.088  0.3425  0.5884 -0.8150
  286MOL0     C39337  10.424   6.226   0.177 -0.2159 -0.2357  0.0530
  286MOL0     O39338  10.300   6.244   0.124 -0.9273 -0.1416  0.7748
  286MOL0     C39339  10.182   6.262   0.209 -0.1050 -0.2387 -0.5019
  286MOL0     C39340  10.079   6.309   0.104 -0.2420  0.7571 -0.0375
  286MOL0     C39341   9.949   6.359   0.172 -0.1576 -0.1144  0.2614
  286MOL0     C39342   9.835   6.410   0.073 -0.0002  0.6848  0.0846
  286MOL0     C39343   9.701   6.389   0.143  0.5126  0.1448 -0.2425
  286MOL0     C39344   9.594   6.420   0.039  0.2303 -0.3577  0.2484
  286MOL0     C39345   9.446   6.380   0.093 -0.4203  0.2239  0.6137
  286MOL0     C39346   9.415   6.232   0.066  0.5999 -0.2851 -0.0433
  286MOL0     N39347   9.306   6.184   0.149  0.5242 -0.5746  0.5481
  286MOL0     C39348   9.325   6.121   0.266  0.0950 -0.1501  0.2520
  286MOL0     C39349   9.208   6.124   0.317 -0.0205  0.0141 -0.6388
  286MOL0     C39350   9.166   6.048   0.442  0.8369 -0.6504 -0.2941
  286MOL0     C39351   9.283   6.001   0.530 -0.1067 -0.1501  0.8062
  286MOL0     C39352   9.364   6.113   0.580  0.5698 -0.2837 -0.7093
  286MOL0     C39353   9.289   6.233   0.636  0.9147 -0.6094  0.4763
  286MOL0     O39354   9.193   6.189   0.731 -0.9458  0.4682 -0.5700
  286MOL0     C39355   9.121   6.282   0.806 -0.2405 -1.1756 -0.4512
  286MOL0     C39356   9.124   6.419   0.790 -0.1707  0.1757 -0.0909
  286MOL0     C39357   9.029   6.508   0.853 -0.8722  0.6147 -0.8994
  286MOL0     C39358   9.046   6.657   0.821  0.3540  0.9351  0.6160
  286MOL0     C39359   8.940   6.458   0.956 -0.5795  0.4428  1.0060
  286MOL0     C39360   8.846   6.541   1.032  0.1334 -0.2675 -0.0287
  286MOL0     O39361   8.809   6.491   1.162 -0.4866 -0.4466 -0.1048
  286MOL0     C39362   8.694   6.542   1.220 -0.5571  0.2262  0.3496
  286MOL0     C39363   8.570   6.463   1.214 -0.7050 -0.1678  0.2897
  286MOL0     C39364   8.460   6.509   1.296  0.3098 -0.5199 -0.8203
  286MOL0     C39365   8.466   6.640   1.349  0.0742  0.3471 -0.4889
  286MOL0     O39366   8.345   6.695   1.387  0.2276  0.1211  0.3592
  286MOL0     C39367   8.297   6.765   1.270  0.2133 -0.2016 -0.0316
  286MOL0     C39368   8.174   6.850   1.307  0.3558 -0.3718 -0.2739
  286MOL0     C39369   8.099   6.901   1.184 -0.6937  0.0653  1.2361
  286MOL0     C39370   8.056   6.787   1.097  0.6164  0.0870 -0.0724
  286MOL0     C39371   7.977   6.840   0.973 -0.7728 -0.0555 -0.4043
  286MOL0     C39372   7.955   6.718   0.880  1.0437 -0.2951  0.0627
  286MOL0     C39373   7.860   6.768   0.764 -0.4130  0.2968  0.8338
  286MOL0     C39374   7.820   6.653   0.668 -0.9126 -0.2068  0.5825
  286MOL0    Cl39375   7.736   6.721   0.524 -0.3863  0.0818  0.3305
  286MOL0     C39376   8.582   6.719   1.346 -0.4591  0.1191  0.5533
  286MOL0     C39377   8.694   6.668   1.273 -0.5664 -0.4721 -0.2122
  286MOL0     O39378   8.796   6.637   0.967 -0.1119  0.2528 -0.0269
  286MOL0     C39379   8.945   6.315   0.978  0.0448  0.5691 -0.9803
  286MOL0     C39380   9.032   6.232   0.899 -0.2520  0.0243 -0.5489
  286MOL0     N39381   9.118   6.170   0.232  1.1543 -0.7580  0.5103
  286MOL0     N39382   9.174   6.219   0.130  0.1263  0.1327  0.2159
  286MOL0     C39383  10.453   6.218   0.315 -0.2983 -0.3492  0.1139
  286MOL0     C39384  10.583   6.190   0.367 -0.5099  0.5203 -0.3525
  286MOL0     C39385  11.020   6.163   0.431  0.8824  0.5580 -0.0841
  286MOL0     C39386  11.084   6.040   0.406 -0.2313 -0.4208  0.5718
  286MOL0     C39387  11.186   5.986   0.486 -0.6566  0.2928  1.0895
  286MOL0     C39388  11.243   6.062   0.594  0.5292 -0.1096  0.8808
  286MOL0     O39389  11.323   6.020   0.693 -0.6994  0.0023  0.1675
  286MOL0     C39390  11.407   5.905   0.682  0.3394 -0.5181 -0.2640
  286MOL0     C39391  11.497   5.895   0.810 -0.3631 -0.5737  0.3553
  286MOL0     C39392  11.530   5.753   0.852  0.1319  0.5636 -0.3147
  286MOL0     C39393  11.554   5.746   1.000  0.1252 -0.2918 -0.4028
  286MOL0     C39394  11.653   5.841   1.059 -0.3656 -0.1623 -0.3683
  286MOL0     C39395  11.731   5.910   1.123 -0.7720  0.0900  0.4321
  286MOL0     C39396  11.177   6.174   0.617 -0.4999 -1.1079 -0.2657
  286MOL0     C39397  11.065   6.230   0.545 -0.1022  0.8049  0.7270
  286MOL0     C39398  11.019   6.366   0.584 -0.2576  0.0873 -0.8784
  286MOL0     H39399  10.744   6.170   0.071  0.6652 -0.4662  1.3726
  286MOL0     H39400  10.529   6.217  -0.020  1.4782 -1.2815 -0.9780
  286MOL0     H39401  10.198   6.342   0.282  0.0796 -1.9231  1.3870
  286MOL0     H39402  10.147   6.168   0.254  1.3940 -0.7002 -0.2642
  286MOL0     H39403  10.122   6.387   0.041 -0.3768  0.5875 -0.3458
  286MOL0     H39404  10.053   6.222   0.043 -1.3994 -0.1550  1.6668
  286MOL0     H39405   9.902   6.283   0.235  0.1458  0.2224  0.9022
  286MOL0     H39406   9.972   6.442   0.238  0.0655 -2.3054  3.1466
  286MOL0     H39407   9.850   6.517   0.057  1.8363  0.4408 -0.0088
  286MOL0     H39408   9.834   6.365  -0.026  1.7388  2.8217 -0.9707
  286MOL0     H39409   9.695   6.454   0.230  0.3254 -0.2177  0.0170
  286MOL0     H39410   9.685   6.284   0.170  1.3260  0.4042  1.3391
  286MOL0     H39411   9.600   6.527   0.016  0.3184 -0.3790  0.1732
  286MOL0     H39412   9.607   6.362  -0.053  1.3772  2.2528 -1.3530
  286MOL0     H39413   9.379   6.446   0.037  3.3521  1.4437 -3.0610
  286MOL0     H39414   9.434   6.401   0.199 -3.1672  0.1562  0.3894
  286MOL0     H39415   9.387   6.205  -0.036  1.3680 -1.9994  0.1531
  286MOL0     H39416   9.506   6.175   0.090  0.2795 -1.6847 -1.8825
  286MOL0     H39417   9.416   6.066   0.287  1.6601  1.7603 -1.1618
  286MOL0     H39418   9.106   5.964   0.406 -2.9477  1.3064  0.8755
  286MOL0     H39419   9.081   6.096   0.492 -0.8318 -2.1608 -1.5169
  286MOL0     H39420   9.233   5.952   0.614 -1.3284 -0.1980  0.0807
  286MOL0     H39421   9.342   5.928   0.475 -0.3898  0.8171 -0.8440
  286MOL0     H39422   9.422   6.063   0.658 -0.1649 -3.0095 -1.8048
  286MOL0     H39423   9.434   6.147   0.503  2.0963  1.3867  1.3089
  286MOL0     H39424   9.349   6.312   0.683 -1.7218  1.4164  0.7289
  286MOL0     H39425   9.235   6.291   0.561 -0.6478  1.1633  2.8202
  286MOL0     H39426   9.176   6.456   0.702 -0.1453 -0.2419 -0.2500
  286MOL0     H39427   9.107   6.707   0.897  0.1479  0.2124  1.2700
  286MOL0     H39428   8.954   6.716   0.815  0.6869  1.4733  0.7229
  286MOL0     H39429   9.106   6.677   0.732 -0.8932  0.7905 -0.2743
  286MOL0     H39430   8.575   6.368   1.161  2.0834  0.4738 -0.8000
  286MOL0     H39431   8.372   6.445   1.302 -1.9592  2.0241 -3.5840
  286MOL0     H39432   8.373   6.828   1.222 -0.7315  0.5257 -0.6319
  286MOL0     H39433   8.270   6.679   1.209 -1.6896 -2.3440  3.4947
  286MOL0     H39434   8.106   6.786   1.364  2.6777 -1.4628  1.4191
  286MOL0     H39435   8.207   6.937   1.364 -2.6454  0.2294  0.7502
  286MOL0     H39436   8.174   6.963   1.134  3.1970 -1.2033  4.8758
  286MOL0     H39437   8.014   6.964   1.210 -1.2521 -0.4883  0.7770
  286MOL0     H39438   7.997   6.718   1.157  0.3156 -1.5484 -2.1149
  286MOL0     H39439   8.147   6.740   1.057  0.8772  1.4241 -1.1486
  286MOL0     H39440   7.879   6.881   1.002 -2.2411 -1.8139 -2.5289
  286MOL0     H39441   8.029   6.920   0.920 -0.1472  0.1041  0.4165
  286MOL0     H39442   7.904   6.635   0.929 -2.0913  1.6333  0.3404
  286MOL0     H39443   8.042   6.691   0.820 -0.5246 -2.7565 -1.2612
  286MOL0     H39444   7.914   6.845   0.708 -2.3363  0.6079 -0.7165
  286MOL0     H39445   7.768   6.811   0.806 -2.0991 -2.5254  0.3262
  286MOL0     H39446   7.740   6.595   0.714 -0.3647  0.9201  3.1461
  286MOL0     H39447   7.903   6.588   0.640 -0.1018  1.2628 -0.5930
  286MOL0     H39448   8.576   6.819   1.389  0.4314  0.7380 -0.7191
  286MOL0     H39449   8.789   6.721   1.272 -0.8473  0.6357  5.0095
  286MOL0     H39450   8.898   6.267   1.063  2.0590  1.2006  0.5691
  286MOL0     H39451   9.033   6.123   0.903 -2.4847 -0.0007  1.1390
  286MOL0     H39452  10.363   6.222   0.376  0.6155 -3.8597  1.9994
  286MOL0     H39453  10.596   6.183   0.475 -1.2333 -0.6291 -0.3254
  286MOL0     H39454  11.065   5.994   0.309  0.9537  0.8407 -0.3086
  286MOL0     H39455  11.228   5.888   0.469 -0.2296  0.6367  0.0972
  286MOL0     H39456  11.345   5.817   0.663 -0.5979 -0.3895  1.9003
  286MOL0     H39457  11.468   5.916   0.592  0.6994 -2.0541 -0.2363
  286MOL0     H39458  11.454   5.952   0.893  1.3528 -0.2813  1.1013
  286MOL0     H39459  11.591   5.946   0.788 -0.2450 -0.7578  0.4316
  286MOL0     H39460  11.454   5.684   0.816 -0.7272  2.3482 -2.1390
  286MOL0     H39461  11.625   5.723   0.808  0.4561 -1.5198  1.6409
  286MOL0     H39462  11.569   5.641   1.027 -2.0316 -0.4014  0.6633
  286MOL0     H39463  11.453   5.770   1.036 -0.5738 -2.5693 -0.6455
  286MOL0     H39464  11.804   5.958   1.185 -0.3836  1.5000 -1.0677
  286MOL0     H39465  11.237   6.221   0.694  0.6290 -2.1912 -0.4427
  286MOL0     H39466  11.061   6.435   0.511 -2.7422  1.1357 -1.4400
  286MOL0     H39467  10.911   6.386   0.587  0.0590  2.2432 -1.8952
  286MOL0     H39468  11.054   6.403   0.681 -0.5630  0.6583 -0.9778
  287MOL0     O39469   4.981   8.459   1.250 -0.5084 -0.7305 -0.9041
  287MOL0     C39470   5.095   8.431   1.282  0.0702  0.2369  0.1748
  287MOL0     O39471   5.195   8.511   1.281  0.2540  0.0369  0.1111
  287MOL0     C39472   5.190   8.644   1.238  0.2131 -0.4476 -0.6153
  287MOL0     C39473   5.079   8.715   1.188 -1.1080 -0.0594 -0.0432
  287MOL0     C39474   5.095   8.842   1.133 -1.1175  1.2278  0.3825
  287MOL0     C39475   5.209   8.913   1.130 -0.8883 -0.2571  0.7459
  287MOL0     O39476   5.227   9.033   1.073 -0.7427 -0.7792  0.6225
  287MOL0     C39477   5.122   9.086   0.985  0.5239 -0.0460  0.2975
  287MOL0     C39478   5.166   9.184   0.881  0.8237 -0.0970  0.6337
  287MOL0     C39479   5.228   9.306   0.952  0.0123 -0.0968  0.1762
  287MOL0     C39480   5.313   9.388   0.856  0.3930  0.0382 -0.5040
  287MOL0     C39481   5.357   9.528   0.909 -0.1770 -0.4859 -0.1482
  287MOL0     C39482   5.471   9.594   0.835  0.9501  0.6813 -0.1640
  287MOL0     C39483   5.505   9.741   0.884 -0.0923  0.1925  0.0683
  287MOL0     C39484   5.401   9.857   0.854 -0.5837  0.8950  0.0629
  287MOL0     N39485   5.423   9.987   0.917  0.5543 -0.3703  1.3515
  287MOL0     C39486   5.357  10.104   0.868 -0.5362 -0.9626  0.3342
  287MOL0     C39487   5.386  10.198   0.961 -0.6000 -0.0333 -0.3459
  287MOL0     C39488   5.332  10.336   0.980  0.2906 -0.2409  0.1650
  287MOL0     C39489   5.193  10.329   1.046 -1.1272  0.0696 -0.5684
  287MOL0     C39490   5.184  10.341   1.198  0.4164 -0.0523  1.0007
  287MOL0     C39491   5.057  10.421   1.226 -0.2909 -0.7093 -0.0079
  287MOL0     O39492   5.050  10.435   1.375  0.1355 -1.0848  0.0157
  287MOL0     C39493   5.007  10.561   1.415 -0.5145  0.0853 -0.0902
  287MOL0     C39494   5.095  10.655   1.465  0.1737 -0.5381  1.2053
  287MOL0     C39495   5.054  10.785   1.491  0.1627 -0.4108 -0.3329
  287MOL0     C39496   5.160  10.884   1.550  0.0524  0.7083  0.6300
  287MOL0     C39497   4.916  10.823   1.470  0.2786 -0.0511 -0.4406
  287MOL0     C39498   4.853  10.959   1.499 -0.3357 -0.4851  0.4959
  287MOL0     O39499   4.729  10.986   1.440 -0.1702 -0.6229  0.5843
  287MOL0     C39500   4.659  11.094   1.478  0.0496 -0.8603  0.5987
  287MOL0     C39501   4.688  11.216   1.555 -0.5262  0.0376  0.3522
  287MOL0     C39502   4.600  11.319   1.574  0.4333 -0.8873  0.4799
  287MOL0     C39503   4.467  11.296   1.527  0.1966  0.3345 -0.4232
  287MOL0     O39504   4.367  11.379   1.556 -0.0078 -0.4554  0.5024
  287MOL0     C39505   4.391  11.513   1.603  0.2563 -0.3016 -0.2002
  287MOL0     C39506   4.254  11.590   1.599 -0.7431  0.4572  0.4477
  287MOL0     C39507   4.212  11.598   1.452  0.4777  0.3471 -0.3937
  287MOL0     C39508   4.077  11.660   1.444  0.7844  1.5181 -0.2388
  287MOL0     C39509   4.003  11.651   1.312 -0.2045 -0.5123 -0.1786
  287MOL0     C39510   3.870  11.722   1.327  0.0140 -0.0817 -0.4780
  287MOL0     C39511   3.795  11.730   1.192  0.5703 -0.7459  1.0309
  287MOL0     C39512   3.638  11.757   1.202 -0.7981  0.7248  0.5444
  287MOL0    Cl39513   3.587  11.911   1.276  0.5528  0.1859  0.0292
  287MOL0     C39514   4.437  11.187   1.455 -0.5596  0.2887  0.5482
  287MOL0     C39515   4.530  11.094   1.423  0.0127  0.6346 -0.3582
  287MOL0     O39516   4.908  11.034   1.581  0.0029 -0.1933 -0.2261
  287MOL0     C39517   4.830  10.719   1.419  1.2077  0.5109 -0.1503
  287MOL0     C39518   4.872  10.589   1.397  0.7543  0.4232  0.6509
  287MOL0     N39519   5.460  10.137   1.062  0.0132  0.0252  0.1397
  287MOL0     N39520   5.479  10.012   1.034  0.2278 -1.2237 -0.1063
  287MOL0     C39521   5.326   8.847   1.186  0.2862 -0.0859 -0.1251
  287MOL0     C39522   5.313   8.715   1.232  0.1341  0.2415  0.2454
  287MOL0     C39523   5.116   8.283   1.318  0.2729 -0.0231 -0.2355
  287MOL0     C39524   5.005   8.191   1.310 -0.1724 -0.1546 -0.0826
  287MOL0     C39525   5.023   8.062   1.356 -0.0442 -0.2218  0.6628
  287MOL0     C39526   5.143   8.018   1.420  0.6688  1.2388  0.5488
  287MOL0     O39527   5.160   7.890   1.463  0.6470 -0.3794 -0.0642
  287MOL0     C39528   5.047   7.799   1.482  0.3729 -0.7004 -0.2710
  287MOL0     C39529   4.985   7.818   1.623  0.6673  0.1085 -0.8795
  287MOL0     C39530   5.091   7.824   1.738  0.7881  0.2547  0.3368
  287MOL0     C39531   5.032   7.827   1.880 -0.5683  0.4963 -0.2389
  287MOL0     C39532   4.931   7.934   1.903 -1.1654  0.1646 -0.0161
  287MOL0     C39533   4.853   8.025   1.918 -0.6421  0.6732 -1.1283
  287MOL0     C39534   5.243   8.113   1.438 -0.3852  0.7090  0.3436
  287MOL0     C39535   5.237   8.246   1.382  0.4792  0.8458 -0.1739
  287MOL0     C39536   5.357   8.339   1.415  0.0529  0.6302  0.4262
  287MOL0     H39537   4.980   8.670   1.181 -0.2951 -1.9052 -0.1653
  287MOL0     H39538   5.006   8.884   1.088 -0.8587 -1.7377 -3.4160
  287MOL0     H39539   5.048   9.139   1.046 -1.1342  0.3473 -1.9324
  287MOL0     H39540   5.084   9.001   0.929 -1.4987  1.5635 -0.9345
  287MOL0     H39541   5.234   9.127   0.816 -0.5841  0.8280 -1.7898
  287MOL0     H39542   5.075   9.215   0.827  1.1322  1.8515  1.1727
  287MOL0     H39543   5.145   9.362   0.997 -3.3692 -2.3320 -2.6880
  287MOL0     H39544   5.297   9.286   1.034  0.1030  1.3911  0.4861
  287MOL0     H39545   5.402   9.326   0.840 -0.4312 -0.9467 -1.4114
  287MOL0     H39546   5.256   9.397   0.763  1.5431  1.8347 -1.0900
  287MOL0     H39547   5.387   9.509   1.013  0.5462 -4.0656 -0.8757
  287MOL0     H39548   5.269   9.593   0.908  1.5293  1.9541 -0.7112
  287MOL0     H39549   5.560   9.530   0.836  1.3226  1.1975  0.1492
  287MOL0     H39550   5.453   9.592   0.727  0.9244  1.8855 -0.1911
  287MOL0     H39551   5.592   9.782   0.832 -1.0929  0.3183 -1.5897
  287MOL0     H39552   5.530   9.726   0.990 -0.0359 -1.8274 -0.1952
  287MOL0     H39553   5.398   9.860   0.745 -0.2077  0.4090  0.0323
  287MOL0     H39554   5.302   9.820   0.880  0.3935 -1.2169  1.0078
  287MOL0     H39555   5.312  10.110   0.770  1.5672  0.2667 -0.6302
  287MOL0     H39556   5.344  10.388   0.885  4.0305 -0.2535  0.4649
  287MOL0     H39557   5.383  10.389   1.062 -1.2728 -1.8983  2.3351
  287MOL0     H39558   5.132  10.407   0.999 -0.4226  2.8106  2.7204
  287MOL0     H39559   5.145  10.235   1.015  2.1272 -1.7486 -0.5895
  287MOL0     H39560   5.178  10.237   1.230 -0.3378 -0.3780 -0.1410
  287MOL0     H39561   5.271  10.390   1.244 -0.9235  1.4809  2.0444
  287MOL0     H39562   5.070  10.521   1.185  0.2666  1.9601  5.6729
  287MOL0     H39563   4.965  10.374   1.190  0.8725 -3.4785  0.3315
  287MOL0     H39564   5.201  10.631   1.472  0.8025  0.9170 -1.7009
  287MOL0     H39565   5.259  10.838   1.547  1.0912  2.7923  1.1648
  287MOL0     H39566   5.146  10.908   1.656  3.1869  2.4455  0.7616
  287MOL0     H39567   5.171  10.968   1.482 -1.4161  0.5929  0.2219
  287MOL0     H39568   4.789  11.245   1.581 -0.3532 -0.0371 -0.2187
  287MOL0     H39569   4.633  11.414   1.615 -1.6325  0.0892 -0.0011
  287MOL0     H39570   4.425  11.518   1.706  0.3722 -1.1447 -0.1873
  287MOL0     H39571   4.454  11.572   1.535 -3.3393  0.8724 -2.8153
  287MOL0     H39572   4.180  11.537   1.660  0.4696 -1.5558  0.2652
  287MOL0     H39573   4.273  11.689   1.641  0.7900 -0.3245  1.7282
  287MOL0     H39574   4.212  11.496   1.412 -0.3048 -0.0533  0.6069
  287MOL0     H39575   4.278  11.655   1.385  0.8092  0.1450 -0.2403
  287MOL0     H39576   4.082  11.762   1.484  0.9366  0.5226  2.5162
  287MOL0     H39577   4.015  11.601   1.513  0.6784  0.5947 -1.1043
  287MOL0     H39578   4.063  11.713   1.244  0.0859  1.5115  1.8094
  287MOL0     H39579   4.001  11.547   1.280  1.9975 -0.9106  0.7731
  287MOL0     H39580   3.877  11.827   1.356 -2.0993  0.2388 -0.9932
  287MOL0     H39581   3.809  11.674   1.403 -1.2409  0.7537 -0.9261
  287MOL0     H39582   3.822  11.648   1.125  3.3457  2.7101 -2.6275
  287MOL0     H39583   3.844  11.805   1.129  4.5314 -2.9003  1.2357
  287MOL0     H39584   3.596  11.684   1.273  2.7431 -1.7425  0.4022
  287MOL0     H39585   3.594  11.738   1.104 -1.3643 -0.0208  0.9262
  287MOL0     H39586   4.334  11.172   1.423 -1.5416  5.3469  0.4699
  287MOL0     H39587   4.496  11.006   1.369  0.1004  1.2773 -1.4817
  287MOL0     H39588   4.725  10.733   1.396  1.5455 -0.0340 -2.1816
  287MOL0     H39589   4.798  10.512   1.377  2.2521 -0.9589  0.1619
  287MOL0     H39590   5.423   8.894   1.198  1.8569 -2.9511 -0.8783
  287MOL0     H39591   5.404   8.661   1.257 -0.2995 -1.3092 -1.3447
  287MOL0     H39592   4.912   8.219   1.262  0.3589 -0.4055 -1.3203
  287MOL0     H39593   4.942   7.989   1.346 -0.3917  0.0621  1.2946
  287MOL0     H39594   4.970   7.806   1.404 -0.8951  1.5859  1.0729
  287MOL0     H39595   5.084   7.696   1.485 -1.7745 -1.5338 -0.6058
  287MOL0     H39596   4.919   7.737   1.655  2.1154 -0.2460  1.5316
  287MOL0     H39597   4.923   7.908   1.629 -0.4253 -0.7227  1.2518
  287MOL0     H39598   5.155   7.736   1.731  0.6628  0.2912 -2.7553
  287MOL0     H39599   5.150   7.915   1.727  0.5133  0.3060 -0.8868
  287MOL0     H39600   5.110   7.847   1.954 -0.8128  0.8170 -0.0629
  287MOL0     H39601   4.985   7.732   1.908  1.1199  0.1155  1.5123
  287MOL0     H39602   4.806   8.119   1.938  1.5901  1.9819 -1.7493
  287MOL0     H39603   5.332   8.086   1.493 -1.0029  1.8723  1.9876
  287MOL0     H39604   5.321   8.427   1.469 -0.0656  1.4914 -1.0100
  287MOL0     H39605   5.428   8.285   1.478 -0.4681  0.7502  1.1236
  287MOL0     H39606   5.400   8.373   1.320  0.1101  0.7819  0.5069
  288MOL0     O39607   1.912   1.579   2.438 -0.5169 -0.4331 -0.0573
  288MOL0     C39608   1.927   1.631   2.330 -0.2772  1.1683  0.5086
  288MOL0     O39609   2.016   1.593   2.236  0.3593  1.0040 -0.1812
  288MOL0     C39610   2.058   1.467   2.230  0.0247  0.4702  0.9166
  288MOL0     C39611   2.190   1.441   2.221 -0.0312 -0.3095 -1.0886
  288MOL0     C39612   2.233   1.307   2.208  0.1149 -0.5577 -0.0747
  288MOL0     C39613   2.142   1.198   2.218  0.7472  0.3424  1.0916
  288MOL0     O39614   2.163   1.066   2.190  0.8391  0.2143 -0.2092
  288MOL0     C39615   2.282   0.993   2.249  0.2483 -0.7502  0.0643
  288MOL0     C39616   2.354   0.901   2.153  0.4084 -0.4426  0.2136
  288MOL0     C39617   2.466   0.963   2.056  0.9131  0.3068 -0.1242
  288MOL0     C39618   2.601   0.985   2.132 -0.6730 -0.0891  0.8713
  288MOL0     C39619   2.675   1.110   2.080 -0.1748 -0.0460  0.2496
  288MOL0     C39620   2.798   1.140   2.165 -0.7335  1.1411 -0.1981
  288MOL0     C39621   2.884   1.261   2.135  0.1331  0.1516 -0.9842
  288MOL0     C39622   3.022   1.244   2.209  1.0558 -0.0949  0.3491
  288MOL0     N39623   3.113   1.348   2.167 -0.6200  0.5491  0.3391
  288MOL0     C39624   3.096   1.487   2.170 -0.6367  0.1962 -0.9334
  288MOL0     C39625   3.220   1.543   2.149  0.1835 -0.2358 -0.5828
  288MOL0     C39626   3.248   1.689   2.155  0.5930  0.7337 -0.1084
  288MOL0     C39627   3.245   1.744   2.016 -0.4443 -0.3995  0.6385
  288MOL0     C39628   3.375   1.724   1.940  1.2383  0.9191  0.0770
  288MOL0     C39629   3.370   1.815   1.819 -0.3455  0.3435 -0.0277
  288MOL0     O39630   3.250   1.793   1.733 -0.2739 -0.0900 -0.4980
  288MOL0     C39631   3.156   1.889   1.705 -1.1499 -1.3052  0.5536
  288MOL0     C39632   3.076   1.877   1.588 -0.0944  0.6620 -0.5701
  288MOL0     C39633   2.973   1.962   1.555 -0.3861 -0.2942  0.9522
  288MOL0     C39634   2.889   1.928   1.429 -0.1748  0.3277 -0.1012
  288MOL0     C39635   2.944   2.069   1.641 -0.9251 -0.3517 -0.1165
  288MOL0     C39636   2.837   2.180   1.616  0.3118  0.5965  0.7086
  288MOL0     O39637   2.787   2.198   1.487  0.4255 -0.1216 -0.0191
  288MOL0     C39638   2.660   2.257   1.458  0.0743  1.0435  0.2141
  288MOL0     C39639   2.566   2.307   1.555  0.3198  0.5475 -0.5916
  288MOL0     C39640   2.439   2.361   1.512 -0.7909 -0.7180 -0.3866
  288MOL0     C39641   2.409   2.378   1.380 -0.2804 -0.1405  0.7001
  288MOL0     O39642   2.299   2.445   1.341  0.7091  0.2799  0.0402
  288MOL0     C39643   2.173   2.401   1.384  1.1129  0.0369  0.0733
  288MOL0     C39644   2.098   2.530   1.396  0.0046 -0.8969  0.4251
  288MOL0     C39645   1.947   2.518   1.420 -1.2764 -0.3640  0.6556
  288MOL0     C39646   1.881   2.654   1.453 -0.1990 -0.7381 -0.5590
  288MOL0     C39647   1.727   2.648   1.414  0.1706 -0.2252 -0.3528
  288MOL0     C39648   1.636   2.759   1.478 -0.2268 -0.0880  0.3542
  288MOL0     C39649   1.495   2.745   1.449  0.7721  0.8933 -0.1193
  288MOL0     C39650   1.425   2.629   1.530 -0.1748 -0.6984  0.2075
  288MOL0    Cl39651   1.365   2.698   1.690  0.2725 -0.1705  0.2344
  288MOL0     C39652   2.515   2.350   1.285 -0.6825 -0.2197  0.2104
  288MOL0     C39653   2.633   2.277   1.325  1.3937 -0.1503  0.2666
  288MOL0     O39654   2.788   2.225   1.717  0.4080  0.1388  0.1450
  288MOL0     C39655   3.021   2.085   1.754 -0.0186  0.5632 -0.3317
  288MOL0     C39656   3.124   1.994   1.791  0.2420 -0.5434 -0.4990
  288MOL0     N39657   3.305   1.440   2.136  1.6150 -0.3803  0.7334
  288MOL0     N39658   3.251   1.325   2.137  0.7138  0.7952 -0.3290
  288MOL0     C39659   2.010   1.230   2.240 -0.5229 -0.0883  0.6673
  288MOL0     C39660   1.966   1.358   2.236  0.0510 -0.3630  0.2194
  288MOL0     C39661   1.852   1.753   2.312 -0.3404  0.1586  0.3653
  288MOL0     C39662   1.741   1.785   2.389  0.0646 -0.0378  0.3995
  288MOL0     C39663   1.665   1.904   2.373  0.6455  1.6047  0.2105
  288MOL0     C39664   1.712   1.998   2.282 -0.1634 -0.2700  0.2667
  288MOL0     O39665   1.638   2.105   2.258 -0.0141  0.0254 -0.7314
  288MOL0     C39666   1.712   2.230   2.251  0.4031  0.5660 -0.0722
  288MOL0     C39667   1.622   2.347   2.285  0.1787  0.0812 -0.4987
  288MOL0     C39668   1.715   2.472   2.280 -0.6139  0.6183  0.6340
  288MOL0     C39669   1.644   2.594   2.352 -1.1402 -0.4847  0.6012
  288MOL0     C39670   1.575   2.575   2.473 -0.0930  0.4204 -0.8674
  288MOL0     C39671   1.503   2.566   2.575  0.4455  0.1808 -0.2771
  288MOL0     C39672   1.825   1.976   2.207  0.2026  0.8621 -0.1666
  288MOL0     C39673   1.894   1.854   2.226  0.3880 -0.5557  0.6656
  288MOL0     C39674   2.012   1.837   2.130 -0.5914  0.7000  0.7792
  288MOL0     H39675   2.268   1.513   2.198  3.8815 -2.7816  2.7972
  288MOL0     H39676   2.330   1.282   2.166  0.5890 -0.0703  0.7073
  288MOL0     H39677   2.239   0.937   2.333 -0.3871 -1.4980 -0.7310
  288MOL0     H39678   2.355   1.066   2.283  1.2881 -0.1158 -3.1774
  288MOL0     H39679   2.399   0.822   2.213  1.2388  0.2796  0.5668
  288MOL0     H39680   2.270   0.868   2.090  1.1821  2.6517 -2.7535
  288MOL0     H39681   2.469   0.893   1.972 -2.4325 -1.5059  1.0757
  288MOL0     H39682   2.428   1.060   2.022 -0.6443  0.3155  1.4599
  288MOL0     H39683   2.578   0.999   2.238  2.3703  3.3330  1.2483
  288MOL0     H39684   2.665   0.897   2.122 -1.9462 -0.7233 -3.7162
  288MOL0     H39685   2.609   1.196   2.094 -2.6326 -1.8878  0.5534
  288MOL0     H39686   2.712   1.098   1.978 -3.2377  0.7503 -1.0636
  288MOL0     H39687   2.760   1.157   2.266 -0.3947  1.3183 -0.0965
  288MOL0     H39688   2.860   1.050   2.155 -0.2755  1.6091 -1.7884
  288MOL0     H39689   2.826   1.350   2.163  0.1970 -0.3108  0.7733
  288MOL0     H39690   2.897   1.268   2.027  1.6483 -1.0475 -0.9073
  288MOL0     H39691   3.009   1.254   2.317 -0.5481  0.0722  0.1661
  288MOL0     H39692   3.065   1.146   2.186 -1.0697 -0.3187 -3.4717
  288MOL0     H39693   3.018   1.561   2.187 -0.4193  0.3749 -0.7019
  288MOL0     H39694   3.337   1.707   2.216 -1.0263  0.8146  2.3706
  288MOL0     H39695   3.171   1.740   2.213 -0.7328 -0.2242 -0.9837
  288MOL0     H39696   3.157   1.718   1.957  1.1599 -0.6369 -1.7849
  288MOL0     H39697   3.241   1.850   2.043  2.1460 -0.1606  0.3240
  288MOL0     H39698   3.464   1.760   1.992  2.4744 -1.3274 -0.3559
  288MOL0     H39699   3.395   1.621   1.908 -3.1737 -0.3326  0.5857
  288MOL0     H39700   3.380   1.915   1.862 -0.3316 -0.2574  1.4531
  288MOL0     H39701   3.457   1.795   1.756  1.6006  5.2453  0.6966
  288MOL0     H39702   3.112   1.798   1.524  1.3179  2.2226 -1.8115
  288MOL0     H39703   2.798   1.984   1.407  0.9266  1.8162 -1.0249
  288MOL0     H39704   2.853   1.827   1.453  2.2238 -0.5826 -0.0986
  288MOL0     H39705   2.954   1.927   1.342  0.8710 -0.8254  0.6565
  288MOL0     H39706   2.566   2.294   1.663 -3.6754 -2.2159 -0.7199
  288MOL0     H39707   2.357   2.389   1.577 -2.0486  1.4963 -2.7593
  288MOL0     H39708   2.123   2.345   1.304  0.3005  0.1100  0.5164
  288MOL0     H39709   2.157   2.346   1.477 -0.6338  1.0136  0.4025
  288MOL0     H39710   2.141   2.577   1.485  0.0854 -2.7348  1.4104
  288MOL0     H39711   2.115   2.595   1.310 -0.6528 -3.0514 -1.4430
  288MOL0     H39712   1.922   2.446   1.499  0.3891 -2.5137 -0.6777
  288MOL0     H39713   1.902   2.484   1.327 -1.8703 -1.0541  1.1773
  288MOL0     H39714   1.929   2.730   1.391  0.6004 -1.2750 -0.6166
  288MOL0     H39715   1.901   2.663   1.560 -1.7397 -2.1226 -0.1015
  288MOL0     H39716   1.700   2.651   1.308 -0.0179 -1.2717 -0.3460
  288MOL0     H39717   1.689   2.553   1.451 -1.0040  0.3462 -0.0371
  288MOL0     H39718   1.666   2.861   1.453 -4.8812  1.4409  0.0413
  288MOL0     H39719   1.643   2.742   1.585 -1.4301  0.7247  0.5851
  288MOL0     H39720   1.475   2.734   1.342 -2.5316  0.9051  0.3650
  288MOL0     H39721   1.454   2.843   1.474 -0.2879  1.3764 -3.2715
  288MOL0     H39722   1.491   2.544   1.546  0.3575 -0.7099 -1.7759
  288MOL0     H39723   1.332   2.592   1.488 -1.7901  1.8535  1.2864
  288MOL0     H39724   2.491   2.360   1.180  1.5894  0.7512 -0.2649
  288MOL0     H39725   2.687   2.225   1.247 -3.0765 -3.6507 -0.9236
  288MOL0     H39726   3.003   2.171   1.818 -0.4795  1.4010 -1.5560
  288MOL0     H39727   3.182   2.022   1.879 -2.2032  4.1062 -0.0174
  288MOL0     H39728   1.935   1.151   2.244 -0.3797 -0.2616  0.1004
  288MOL0     H39729   1.859   1.374   2.226  0.2523  1.0477  0.0824
  288MOL0     H39730   1.710   1.717   2.467 -2.5935  0.0025 -0.5244
  288MOL0     H39731   1.581   1.929   2.437  0.1551  0.3567  0.0630
  288MOL0     H39732   1.797   2.232   2.320 -1.3023  1.5022  2.1598
  288MOL0     H39733   1.753   2.244   2.151  1.0278  0.7307  0.1993
  288MOL0     H39734   1.562   2.339   2.377 -1.1097 -0.3254 -1.3391
  288MOL0     H39735   1.555   2.361   2.200 -0.1499  3.1862  0.1788
  288MOL0     H39736   1.809   2.459   2.335 -2.3444 -0.3133  3.6126
  288MOL0     H39737   1.733   2.497   2.175  0.6796 -0.1549  0.6557
  288MOL0     H39738   1.576   2.640   2.279 -1.6680  0.9330  1.9456
  288MOL0     H39739   1.721   2.670   2.372 -1.0575 -0.5871  0.6715
  288MOL0     H39740   1.462   2.547   2.672  0.3696 -0.1775 -0.3796
  288MOL0     H39741   1.854   2.041   2.125 -1.1881  1.5643 -0.1287
  288MOL0     H39742   2.097   1.816   2.196 -0.9687 -3.8875  0.0764
  288MOL0     H39743   1.992   1.753   2.064  0.2885 -1.0454  2.6213
  288MOL0     H39744   2.022   1.932   2.076 -3.5972  0.9921  0.5522
  289MOL0     O39745   0.252   9.839   4.917  0.0045  0.0269  0.4031
  289MOL0     C39746   0.261   9.941   4.846  0.6220  0.3480 -1.2291
  289MOL0     O39747   0.315  10.058   4.886  0.1200 -0.0940 -0.6963
  289MOL0     C39748   0.402  10.056   4.989  0.8075 -0.8518  0.7864
  289MOL0     C39749   0.393  10.156   5.082  1.3587  0.7802 -0.1990
  289MOL0     C39750   0.481  10.186   5.178 -0.2843  0.2512  0.9397
  289MOL0     C39751   0.596  10.107   5.194  0.3891 -0.0484 -0.3338
  289MOL0     O39752   0.675  10.142   5.304  0.1826  0.1689  0.3767
  289MOL0     C39753   0.799  10.068   5.319 -0.1049  0.1620 -0.6183
  289MOL0     C39754   0.840  10.093   5.466 -0.0049  0.5349  0.1447
  289MOL0     C39755   0.970  10.020   5.521 -0.2994  0.3551 -1.1297
  289MOL0     C39756   1.107  10.100   5.515  0.7357 -0.5565 -0.5942
  289MOL0     C39757   1.233  10.021   5.558 -0.5360  0.1884  0.1691
  289MOL0     C39758   1.361  10.094   5.575 -0.1352 -0.6158 -0.8078
  289MOL0     C39759   1.355  10.165   5.711 -1.0198  0.0351  0.1798
  289MOL0     C39760   1.480  10.260   5.733  1.4023  0.4369 -0.6826
  289MOL0     N39761   1.485  10.317   5.867 -0.0337  0.4990  0.4576
  289MOL0     C39762   1.406  10.420   5.911 -0.3695  0.1334 -0.4848
  289MOL0     C39763   1.439  10.424   6.042  0.6714 -0.0554  0.0595
  289MOL0     C39764   1.369  10.509   6.142 -0.6866 -0.4788 -0.4309
  289MOL0     C39765   1.427  10.489   6.288  0.2781 -0.2275  0.4262
  289MOL0     C39766   1.379  10.596   6.388 -0.3131 -0.7471  0.0203
  289MOL0     C39767   1.443  10.586   6.519 -0.4874 -0.2802 -0.1407
  289MOL0     O39768   1.579  10.643   6.504  0.0043 -0.0444 -0.1239
  289MOL0     C39769   1.635  10.699   6.620 -0.4659  0.6861  0.5559
  289MOL0     C39770   1.738  10.797   6.602  0.3640  0.4324  0.4728
  289MOL0     C39771   1.805  10.862   6.707 -0.0283 -0.1991 -0.9828
  289MOL0     C39772   1.914  10.954   6.670  0.2263 -0.4635 -0.1450
  289MOL0     C39773   1.776  10.821   6.839 -0.4386  0.0976 -0.9058
  289MOL0     C39774   1.846  10.865   6.965  0.7424 -0.7988  1.1610
  289MOL0     O39775   1.783  10.826   7.082  0.2643 -0.3295 -0.6299
  289MOL0     C39776   1.840  10.864   7.201  0.7287 -0.4543  0.5306
  289MOL0     C39777   1.769  10.951   7.279 -0.1789 -0.4852 -0.2322
  289MOL0     C39778   1.816  11.003   7.390 -0.8855  0.0437  0.0667
  289MOL0     C39779   1.945  10.967   7.433 -0.4842 -0.5439 -0.2789
  289MOL0     O39780   1.987  11.025   7.549 -0.5159 -0.7671 -0.2718
  289MOL0     C39781   2.038  10.934   7.646  0.8700 -0.2818 -0.0328
  289MOL0     C39782   1.979  10.992   7.775 -0.0413 -0.9647  0.9092
  289MOL0     C39783   2.041  10.923   7.898  0.1899 -0.0254 -0.2067
  289MOL0     C39784   1.922  10.855   7.973  0.1989  1.0206 -0.3681
  289MOL0     C39785   1.974  10.772   8.091 -0.3472  0.8112  0.1365
  289MOL0     C39786   2.030  10.631   8.058  0.9407  0.5395 -0.0671
  289MOL0     C39787   1.918  10.522   8.053  0.2635  0.7336  0.3188
  289MOL0     C39788   1.989  10.388   8.073  0.2150  0.0252 -0.1372
  289MOL0    Cl39789   1.879  10.280   8.146  0.2315  0.3028 -0.3665
  289MOL0     C39790   2.024  10.870   7.366 -0.6914  0.2958  1.0974
  289MOL0     C39791   1.970  10.819   7.244  0.8195  0.3755 -0.9782
  289MOL0     O39792   1.949  10.933   6.956 -0.9220 -0.6709  0.4455
  289MOL0     C39793   1.677  10.712   6.860  0.2179 -0.8044 -0.2244
  289MOL0     C39794   1.608  10.665   6.751  0.0978 -0.2580 -0.1308
  289MOL0     N39795   1.535  10.334   6.070 -0.3755 -0.6064 -0.1438
  289MOL0     N39796   1.563  10.269   5.967  0.5316  0.4971  0.6459
  289MOL0     C39797   0.605   9.990   5.112  0.6335 -0.9809  1.0799
  289MOL0     C39798   0.513   9.974   5.008  0.6380  0.1824  0.7069
  289MOL0     C39799   0.192   9.937   4.715  0.4827  0.0758 -0.0410
  289MOL0     C39800   0.050   9.934   4.703 -0.2542 -0.1526 -1.4937
  289MOL0     C39801  -0.016   9.918   4.588  0.7935 -0.7658  0.2037
  289MOL0     C39802   0.048   9.919   4.469 -0.5950  0.1685  0.8614
  289MOL0     O39803  -0.022   9.905   4.348  0.6002 -0.5346 -0.2423
  289MOL0     C39804   0.046   9.932   4.222 -0.1313 -0.3828  0.0233
  289MOL0     C39805  -0.030   9.909   4.096  0.5019 -0.0032  1.1681
  289MOL0     C39806   0.044   9.921   3.958  0.4823  0.6810 -0.1411
  289MOL0     C39807   0.149   9.812   3.930  0.2688 -0.1713 -0.4214
  289MOL0     C39808   0.261   9.811   4.018  0.1401  0.1836  0.4020
  289MOL0     C39809   0.362   9.827   4.082  0.5329 -0.4316 -0.6044
  289MOL0     C39810   0.190   9.911   4.476 -0.1067  0.8661  0.1328
  289MOL0     C39811   0.268   9.930   4.594 -0.2563  0.2080 -0.4315
  289MOL0     C39812   0.417   9.963   4.584  0.4384  0.0968  0.0400
  289MOL0     H39813   0.294  10.202   5.083  0.8649 -0.2171  1.6983
  289MOL0     H39814   0.465  10.258   5.257  1.4190 -0.4078  1.9449
  289MOL0     H39815   0.881  10.089   5.250 -0.6771 -0.2916 -1.4526
  289MOL0     H39816   0.779   9.961   5.308 -1.6275  0.3422  0.1424
  289MOL0     H39817   0.851  10.202   5.477 -0.7893  0.4898  1.7041
  289MOL0     H39818   0.760  10.054   5.530  1.3325  0.4471  1.8599
  289MOL0     H39819   0.950  10.012   5.628 -3.6525  0.5986 -1.6320
  289MOL0     H39820   0.975   9.920   5.478  0.8750 -0.3422  0.4834
  289MOL0     H39821   1.131  10.136   5.415  0.8220  2.7269  0.5103
  289MOL0     H39822   1.094  10.188   5.578  0.5356 -0.3472 -0.9237
  289MOL0     H39823   1.256   9.942   5.485  1.8689  2.3937 -1.6551
  289MOL0     H39824   1.208   9.969   5.651  2.5477 -1.7535  0.0803
  289MOL0     H39825   1.443  10.022   5.580  0.5242 -0.0138 -2.2445
  289MOL0     H39826   1.372  10.159   5.487  2.7378 -1.3963 -1.1365
  289MOL0     H39827   1.361  10.094   5.795 -0.2418 -1.3265 -0.9870
  289MOL0     H39828   1.266  10.227   5.725 -1.9671 -0.9203 -1.3700
  289MOL0     H39829   1.570  10.201   5.713  2.0884  0.3998  2.1882
  289MOL0     H39830   1.481  10.344   5.663 -0.0269  1.6445  0.6738
  289MOL0     H39831   1.334  10.481   5.857 -0.7172  1.9675  1.8921
  289MOL0     H39832   1.264  10.485   6.128 -0.4220 -0.0829 -3.8041
  289MOL0     H39833   1.381  10.617   6.128 -3.7876  1.0481  5.4070
  289MOL0     H39834   1.388  10.392   6.321 -0.0963 -1.2346 -2.6423
  289MOL0     H39835   1.537  10.491   6.295  0.2037  0.4121  1.7609
  289MOL0     H39836   1.392  10.702   6.363 -3.0799  0.5593  3.3596
  289MOL0     H39837   1.271  10.590   6.408 -0.0467 -1.4174  1.3587
  289MOL0     H39838   1.390  10.641   6.596 -0.6062  0.2749 -0.6147
  289MOL0     H39839   1.445  10.480   6.547 -3.3917 -0.1314  0.9861
  289MOL0     H39840   1.769  10.808   6.498  3.1558  0.3549  1.2159
  289MOL0     H39841   1.928  10.966   6.562  1.7338  1.6840  0.2123
  289MOL0     H39842   2.012  10.917   6.701  1.9038  1.5533 -2.5785
  289MOL0     H39843   1.880  11.050   6.711  0.7886 -1.2681  2.3773
  289MOL0     H39844   1.677  10.996   7.243 -0.0126 -1.1164 -1.4684
  289MOL0     H39845   1.752  11.068   7.449 -1.1578 -0.6172  0.5091
  289MOL0     H39846   2.011  10.833   7.614  0.0118 -0.2217  0.4689
  289MOL0     H39847   2.147  10.935   7.639  0.8672  1.7948 -0.5450
  289MOL0     H39848   2.013  11.096   7.771 -2.1413 -0.2584  0.2261
  289MOL0     H39849   1.870  10.988   7.764 -0.1547 -6.2721  1.5288
  289MOL0     H39850   2.087  10.994   7.968 -2.7913  2.1964 -0.3033
  289MOL0     H39851   2.114  10.851   7.860  0.0431 -0.3067  0.0373
  289MOL0     H39852   1.873  10.786   7.904  0.3700 -0.8607  1.2910
  289MOL0     H39853   1.851  10.931   8.007 -1.1670  0.5482 -1.9984
  289MOL0     H39854   2.041  10.844   8.139 -1.2230  2.2174 -0.6783
  289MOL0     H39855   1.895  10.751   8.164  0.8355 -0.6110  1.0627
  289MOL0     H39856   2.098  10.610   8.141  1.0766  2.8609  0.4688
  289MOL0     H39857   2.081  10.626   7.962 -0.9538 -0.1623 -1.0800
  289MOL0     H39858   1.868  10.522   7.956  1.9149  0.5800 -0.5759
  289MOL0     H39859   1.851  10.538   8.137  2.7443  0.3159  2.5091
  289MOL0     H39860   2.080  10.395   8.134 -0.0028  0.1563  0.1765
  289MOL0     H39861   2.021  10.361   7.972 -0.2680  1.8891 -0.8420
  289MOL0     H39862   2.127  10.845   7.391  0.6114  0.0191 -3.6895
  289MOL0     H39863   2.033  10.753   7.185  1.2701 -0.2886  0.1947
  289MOL0     H39864   1.655  10.668   6.956  1.4069  0.2109  0.5368
  289MOL0     H39865   1.546  10.581   6.783  3.9036 -1.9163  3.8519
  289MOL0     H39866   0.692   9.925   5.112  1.9097  0.5981 -1.1100
  289MOL0     H39867   0.538   9.897   4.935  0.0798 -1.1643  1.8897
  289MOL0     H39868  -0.012   9.947   4.791  1.4871  2.1056 -0.4992
  289MOL0     H39869  -0.124   9.931   4.585  0.9610  0.6638 -0.4466
  289MOL0     H39870   0.085  10.034   4.215  2.1393 -0.7403  4.0311
  289MOL0     H39871   0.127   9.859   4.213  1.7697  1.7077 -0.9150
  289MOL0     H39872  -0.107   9.986   4.087  0.8536  0.2317  0.0687
  289MOL0     H39873  -0.072   9.808   4.099  1.2711 -0.3175  2.6996
  289MOL0     H39874  -0.036   9.920   3.883  2.5180 -1.6347 -2.4698
  289MOL0     H39875   0.106  10.011   3.968  1.6968 -0.1150 -0.2959
  289MOL0     H39876   0.180   9.806   3.826  0.7124 -0.7779 -0.2628
  289MOL0     H39877   0.101   9.716   3.952  0.2648 -0.4702 -1.6540
  289MOL0     H39878   0.458   9.812   4.128  0.0651  1.5581  1.1650
  289MOL0     H39879   0.251   9.910   4.387  2.8024 -4.0895  1.8087
  289MOL0     H39880   0.444  10.051   4.643  1.9764  0.5606 -1.2742
  289MOL0     H39881   0.479   9.876   4.611 -1.9540 -1.9061 -0.5159
  289MOL0     H39882   0.444   9.984   4.480  0.0398  0.3482 -0.0125
  290MOL0     O39883  10.490   1.276  10.319  0.2422  0.3685  0.0602
  290MOL0     C39884  10.397   1.351  10.326 -0.3504 -0.5038  0.6037
  290MOL0     O39885  10.290   1.335  10.408  0.4035 -0.7582 -0.4789
  290MOL0     C39886  10.294   1.224  10.490 -0.2392  0.2349  0.5499
  290MOL0     C39887  10.277   1.241  10.629 -0.5388 -0.2438 -1.0163
  290MOL0     C39888  10.269   1.129  10.705 -0.5058  0.1758 -0.5566
  290MOL0     C39889  10.281   1.003  10.650 -0.3998  0.9216  0.9807
  290MOL0     O39890  10.261   0.900  10.736  0.9242  0.0342 -0.3438
  290MOL0     C39891  10.289   0.768  10.680  0.1016  0.4098 -1.2367
  290MOL0     C39892  10.294   0.673  10.797  0.1364  0.2163 -0.3108
  290MOL0     C39893  10.423   0.684  10.874 -0.6120  0.4857 -0.6119
  290MOL0     C39894  10.424   0.592  10.993  0.6479 -0.1825 -0.7940
  290MOL0     C39895  10.329   0.631  11.100 -0.1070 -0.0234  0.0547
  290MOL0     C39896  10.335   0.530  11.227 -0.5514  0.0528 -0.3117
  290MOL0     C39897  10.263   0.577  11.346 -0.0464 -0.1767 -0.4661
  290MOL0     C39898  10.302   0.723  11.388  0.1865  0.0619 -0.7738
  290MOL0     N39899  10.443   0.738  11.432 -0.3682  0.4803 -0.4821
  290MOL0     C39900  10.543   0.779  11.342 -0.4232  0.5756 -0.3940
  290MOL0     C39901  10.660   0.753  11.412  0.6388 -0.9468 -0.2228
  290MOL0     C39902  10.796   0.778  11.358 -0.0276  0.8217  0.1320
  290MOL0     C39903  10.906   0.768  11.461 -0.8618 -0.1231  0.2551
  290MOL0     C39904  11.045   0.817  11.398  0.1887 -0.6232  0.2068
  290MOL0     C39905  11.150   0.843  11.513  0.6102 -0.4647 -0.0806
  290MOL0     O39906  11.267   0.917  11.465 -0.1986  0.7420 -1.0309
  290MOL0     C39907  11.376   0.908  11.559  0.0713 -0.2687  0.0893
  290MOL0     C39908  11.369   0.885  11.694  0.7483 -0.6570 -0.0086
  290MOL0     C39909  11.488   0.877  11.773  0.8489  0.0438  0.4616
  290MOL0     C39910  11.473   0.848  11.912 -0.1037  0.2873 -1.1014
  290MOL0     C39911  11.615   0.898  11.711  0.4806 -0.0882  1.3685
  290MOL0     C39912  11.742   0.880  11.779 -0.3519 -0.0345 -1.3937
  290MOL0     O39913  11.841   0.942  11.714 -0.4307  0.0003 -0.9114
  290MOL0     C39914  11.969   0.912  11.752  0.0983 -1.0096 -0.6111
  290MOL0     C39915  12.038   0.824  11.674 -0.7340  0.1634 -0.2249
  290MOL0     C39916  12.179   0.797  11.707 -0.1334 -0.8110 -0.3229
  290MOL0     C39917  12.228   0.862  11.819 -0.4084  1.2710 -0.5581
  290MOL0     O39918  12.361   0.854  11.856 -0.1827 -0.4115  0.2869
  290MOL0     C39919  12.461   0.769  11.783 -0.4765  0.0763  0.0313
  290MOL0     C39920  12.597   0.767  11.853 -0.5218  0.3517 -0.6409
  290MOL0     C39921  12.704   0.712  11.766 -0.0632  0.6806 -0.0612
  290MOL0     C39922  12.842   0.738  11.816 -0.0044  0.6916  0.9427
  290MOL0     C39923  12.938   0.676  11.714 -0.3019  1.5853  0.1874
  290MOL0     C39924  13.073   0.717  11.759 -0.4635  0.0703  0.6229
  290MOL0     C39925  13.184   0.690  11.664  0.5136  0.9456 -0.7139
  290MOL0     C39926  13.315   0.754  11.708 -0.1779  0.2093  0.2421
  290MOL0    Cl39927  13.357   0.682  11.867  0.0605 -0.0439 -0.0800
  290MOL0     C39928  12.148   0.935  11.903  0.7746 -0.3450  0.5350
  290MOL0     C39929  12.017   0.956  11.871 -0.2678 -0.9151  0.1675
  290MOL0     O39930  11.760   0.786  11.861  0.5338 -0.1755  0.3441
  290MOL0     C39931  11.612   0.933  11.575 -0.9039 -0.4773  0.1916
  290MOL0     C39932  11.499   0.936  11.502  0.1765  0.1493  0.1104
  290MOL0     N39933  10.625   0.713  11.545 -0.2322 -0.4585 -0.3277
  290MOL0     N39934  10.494   0.701  11.553  0.1060 -0.9613  0.7368
  290MOL0     C39935  10.275   0.987  10.509  0.8950 -0.3834  0.5048
  290MOL0     C39936  10.288   1.099  10.429  0.6229  0.2189 -0.1172
  290MOL0     C39937  10.396   1.480  10.252 -0.9507 -0.2441 -0.4497
  290MOL0     C39938  10.484   1.587  10.268 -0.5405 -0.2891  0.9751
  290MOL0     C39939  10.463   1.706  10.204  0.6940 -0.7727 -0.0768
  290MOL0     C39940  10.358   1.717  10.112 -0.8577  1.2861 -0.7188
  290MOL0     O39941  10.354   1.828  10.039 -0.6174 -0.2566 -0.0679
  290MOL0     C39942  10.302   1.834   9.901  0.3383 -0.9694 -0.3114
  290MOL0     C39943  10.151   1.864   9.911  0.3589 -0.3323 -0.0236
  290MOL0     C39944  10.099   1.999   9.964  0.4569  0.3190 -0.0635
  290MOL0     C39945  10.130   2.112   9.858  0.2435  0.4568 -0.0447
  290MOL0     C39946  10.088   2.241   9.911  0.0495 -0.2912 -0.5994
  290MOL0     C39947  10.049   2.348   9.955  0.5759 -0.0493 -0.7023
  290MOL0     C39948  10.301   1.596  10.065  0.3570 -0.0316  0.8411
  290MOL0     C39949  10.314   1.478  10.137  0.2512 -0.3221  0.5516
  290MOL0     C39950  10.225   1.363  10.082 -0.2952  0.4959  0.0884
  290MOL0     H39951  10.277   1.343  10.667 -0.4670 -1.3412  2.2252
  290MOL0     H39952  10.255   1.144  10.812  0.3131  1.3374 -0.5953
  290MOL0     H39953  10.383   0.761  10.624  2.9883 -2.2049  3.3167
  290MOL0     H39954  10.210   0.735  10.612  0.8032  0.5331 -2.1310
  290MOL0     H39955  10.213   0.703  10.864  0.7484 -1.9459  1.5328
  290MOL0     H39956  10.292   0.570  10.760  2.8895  0.8477 -2.5502
  290MOL0     H39957  10.501   0.657  10.802  0.1821  2.1781 -0.4257
  290MOL0     H39958  10.442   0.786  10.907 -0.0853  1.1987 -2.9914
  290MOL0     H39959  10.393   0.499  10.945 -0.1589 -0.5527  0.3832
  290MOL0     H39960  10.527   0.590  11.031  0.3936 -0.3703 -0.0936
  290MOL0     H39961  10.225   0.631  11.068 -0.2055 -1.2822  0.3422
  290MOL0     H39962  10.355   0.733  11.132  0.9645  0.1506 -1.2822
  290MOL0     H39963  10.317   0.425  11.204  0.6214 -0.2555  0.0947
  290MOL0     H39964  10.440   0.532  11.261 -0.3163 -0.9407 -0.9516
  290MOL0     H39965  10.292   0.503  11.421 -3.0227 -0.8544  0.1496
  290MOL0     H39966  10.154   0.569  11.339 -0.2685  1.8349 -0.0540
  290MOL0     H39967  10.278   0.791  11.306  0.5860 -2.5470 -3.1896
  290MOL0     H39968  10.239   0.743  11.475  0.6832 -1.4619 -0.0396
  290MOL0     H39969  10.538   0.811  11.238  2.5925  1.6695 -0.2983
  290MOL0     H39970  10.778   0.874  11.309 -2.5053 -0.4551 -1.6383
  290MOL0     H39971  10.821   0.699  11.287 -1.7864  0.2654  0.0890
  290MOL0     H39972  10.889   0.836  11.545  0.7442  3.0354 -1.7677
  290MOL0     H39973  10.921   0.667  11.501  0.0261  0.2159  0.8198
  290MOL0     H39974  11.087   0.737  11.336 -0.7779  0.3608 -1.8122
  290MOL0     H39975  11.044   0.914  11.348  0.0101 -0.3733  0.6946
  290MOL0     H39976  11.101   0.913  11.582  0.8960  0.4745 -0.8028
  290MOL0     H39977  11.182   0.749  11.558  1.8809 -0.0952 -0.1785
  290MOL0     H39978  11.269   0.882  11.737  1.4501  0.8041  1.8445
  290MOL0     H39979  11.373   0.873  11.949  0.0055 -0.7843 -0.0023
  290MOL0     H39980  11.551   0.903  11.966 -0.1587 -0.8773  0.2277
  290MOL0     H39981  11.491   0.741  11.925 -2.0379  0.1182  0.6271
  290MOL0     H39982  11.998   0.776  11.585 -2.5462  1.1335  0.0178
  290MOL0     H39983  12.240   0.727  11.651 -1.3152 -1.1671 -1.1961
  290MOL0     H39984  12.418   0.671  11.761 -1.0311  0.2574  0.2970
  290MOL0     H39985  12.476   0.817  11.686 -0.3811 -2.3743 -1.2521
  290MOL0     H39986  12.620   0.867  11.892 -1.8927 -0.1066  1.5492
  290MOL0     H39987  12.573   0.702  11.938  0.3564  1.2805  0.3615
  290MOL0     H39988  12.683   0.771  11.677 -1.7616  1.1607  0.6130
  290MOL0     H39989  12.693   0.603  11.767  3.2125  0.1364  3.7374
  290MOL0     H39990  12.843   0.687  11.913 -0.0028 -2.7751 -0.7374
  290MOL0     H39991  12.869   0.843  11.831 -0.3804  0.5430  2.9545
  290MOL0     H39992  12.924   0.567  11.713  2.3534  1.1117 -2.8783
  290MOL0     H39993  12.917   0.703  11.611  3.2293 -2.8548 -2.0410
  290MOL0     H39994  13.095   0.695  11.864  0.3372  0.6896  0.5943
  290MOL0     H39995  13.068   0.826  11.756  2.5135  0.3595  2.1016
  290MOL0     H39996  13.161   0.734  11.566 -0.5530 -0.2387 -1.0183
  290MOL0     H39997  13.202   0.582  11.658  1.2592  0.9395  1.1105
  290MOL0     H39998  13.309   0.863  11.716 -0.2143  0.2639 -0.4737
  290MOL0     H39999  13.400   0.721  11.647  0.4994  1.0029  0.7405
  290MOL0     H40000  12.197   0.978  11.990  1.4108  0.5437 -0.2354
  290MOL0     H40001  11.961   1.022  11.936  1.7911 -0.4613  1.5718
  290MOL0     H40002  11.712   0.937  11.533  0.4894 -3.6529  2.7436
  290MOL0     H40003  11.507   0.967  11.398  0.4372  2.6683  0.8243
  290MOL0     H40004  10.271   0.890  10.461  3.1655 -0.0134 -0.5341
  290MOL0     H40005  10.307   1.082  10.324 -0.4912 -1.8113 -0.0391
  290MOL0     H40006  10.567   1.575  10.337 -0.0387  0.5376  0.5270
  290MOL0     H40007  10.544   1.778  10.213  0.4345 -0.7592  3.0891
  290MOL0     H40008  10.350   1.922   9.856 -1.9324 -0.1771 -1.3534
  290MOL0     H40009  10.321   1.738   9.853 -0.0782 -0.6962 -1.0559
  290MOL0     H40010  10.113   1.790   9.982  0.8561 -0.3678  0.2145
  290MOL0     H40011  10.111   1.849   9.811 -0.9232  0.1388  0.4010
  290MOL0     H40012   9.992   2.004   9.985  0.5950  0.8737  0.5418
  290MOL0     H40013  10.152   2.024  10.057  0.6495 -0.3036  0.0032
  290MOL0     H40014  10.064   2.106   9.770  0.2255  0.8575 -0.0590
  290MOL0     H40015  10.234   2.113   9.825 -0.2656  0.3784 -1.7866
  290MOL0     H40016  10.007   2.441   9.988  0.4163  0.0052 -1.0551
  290MOL0     H40017  10.248   1.593   9.971  3.2495 -4.5449 -0.9469
  290MOL0     H40018  10.157   1.314  10.152  0.0581  1.1115  0.8707
  290MOL0     H40019  10.166   1.404  10.000  1.4740 -0.1834 -1.6065
  290MOL0     H40020  10.290   1.283  10.045 -0.6776  0.1204  0.2131
  291MOL0     O40021   3.541   6.585   3.368 -0.4457  0.6895  0.7430
  291MOL0     C40022   3.625   6.673   3.363  0.6191  0.1777  0.9154
  291MOL0     O40023   3.610   6.785   3.287  0.1632  0.0834 -0.7136
  291MOL0     C40024   3.516   6.799   3.180 -0.4020  0.5123  0.6426
  291MOL0     C40025   3.447   6.923   3.158  0.0012  0.5282 -0.3421
  291MOL0     C40026   3.340   6.926   3.064  1.0001  0.5748 -0.8983
  291MOL0     C40027   3.310   6.812   2.986 -0.8089  0.2229  0.1451
  291MOL0     O40028   3.205   6.825   2.896 -0.5568  0.0283 -0.5997
  291MOL0     C40029   3.197   6.745   2.778 -0.4646  0.0933  0.3525
  291MOL0     C40030   3.053   6.684   2.773  0.2226  0.2140 -0.0631
  291MOL0     C40031   3.045   6.597   2.639  1.1469  0.5195 -0.4580
  291MOL0     C40032   2.890   6.553   2.632 -0.6350 -0.1005 -0.3276
  291MOL0     C40033   2.863   6.427   2.551 -0.0225 -0.3873 -0.5477
  291MOL0     C40034   2.921   6.436   2.417  0.0899  0.7430  0.4250
  291MOL0     C40035   2.889   6.322   2.313  0.3694 -0.3216 -0.3518
  291MOL0     C40036   2.975   6.330   2.184  0.4067 -0.5713 -0.7839
  291MOL0     N40037   3.123   6.323   2.214  0.1847 -0.2604  0.4540
  291MOL0     C40038   3.176   6.211   2.278 -0.2556  0.4657  0.4052
  291MOL0     C40039   3.300   6.252   2.308  0.2559 -0.0179 -0.3914
  291MOL0     C40040   3.393   6.170   2.393  1.0732  0.7534  0.1660
  291MOL0     C40041   3.349   6.187   2.538 -0.1143  0.9740  0.2109
  291MOL0     C40042   3.390   6.320   2.591 -0.1269 -0.4204 -0.1074
  291MOL0     C40043   3.514   6.322   2.681 -0.7287 -0.9377 -0.3124
  291MOL0     O40044   3.549   6.447   2.739  0.0775  0.1999  0.0073
  291MOL0     C40045   3.656   6.451   2.824  0.1655 -0.1734 -1.1083
  291MOL0     C40046   3.695   6.581   2.853  0.2624 -0.2718  0.0365
  291MOL0     C40047   3.788   6.613   2.953 -0.9127  0.3665  0.1375
  291MOL0     C40048   3.809   6.763   2.982 -0.1280 -0.0189 -0.8908
  291MOL0     C40049   3.866   6.507   3.006  0.0431 -0.0487  0.2730
  291MOL0     C40050   3.989   6.530   3.098  0.2274 -0.7469  1.4930
  291MOL0     O40051   4.094   6.449   3.076  0.3337 -0.4039  0.4235
  291MOL0     C40052   4.197   6.442   3.168 -0.0496  0.0191  1.0300
  291MOL0     C40053   4.323   6.485   3.121 -0.5953  0.7051 -0.0629
  291MOL0     C40054   4.435   6.498   3.205 -0.5169 -0.4879 -0.6896
  291MOL0     C40055   4.421   6.453   3.341 -0.3501 -0.1611  0.0710
  291MOL0     O40056   4.532   6.450   3.425  0.5612  0.5006  0.3490
  291MOL0     C40057   4.568   6.326   3.490 -0.7988  0.1982  0.4008
  291MOL0     C40058   4.694   6.270   3.416  0.2399 -0.1127  0.3735
  291MOL0     C40059   4.663   6.242   3.271 -0.6905  0.0442  0.4396
  291MOL0     C40060   4.766   6.144   3.205 -0.3353 -0.4110  0.3684
  291MOL0     C40061   4.732   6.131   3.053 -1.3315  0.6378  0.4585
  291MOL0     C40062   4.827   6.027   2.976  0.1613  0.2951 -0.2150
  291MOL0     C40063   4.975   6.061   2.989  0.4462 -0.1378  0.6205
  291MOL0     C40064   5.085   5.969   2.939  0.7898  0.1604 -0.5806
  291MOL0    Cl40065   5.054   5.933   2.761 -0.2094 -0.2824 -0.2170
  291MOL0     C40066   4.294   6.413   3.384  0.7782  0.5607 -0.3958
  291MOL0     C40067   4.183   6.412   3.301 -0.0169 -0.3811  0.2562
  291MOL0     O40068   3.966   6.612   3.188 -0.8856 -0.2059  1.0540
  291MOL0     C40069   3.833   6.375   2.970 -0.1208 -0.5888 -0.8586
  291MOL0     C40070   3.723   6.344   2.881 -0.7034  0.0349  0.0278
  291MOL0     N40071   3.318   6.379   2.264  0.6998 -0.4411  0.2013
  291MOL0     N40072   3.212   6.432   2.212  0.2491  0.7670 -0.8779
  291MOL0     C40073   3.386   6.692   3.004 -0.0508 -0.6635 -0.3909
  291MOL0     C40074   3.488   6.690   3.095  0.2525  0.3127  0.0130
  291MOL0     C40075   3.763   6.668   3.435 -0.1973  0.1975  0.0924
  291MOL0     C40076   3.848   6.777   3.408 -0.4813 -0.1034 -0.5347
  291MOL0     C40077   3.969   6.789   3.478 -0.8195 -0.5961  0.0581
  291MOL0     C40078   4.015   6.694   3.566  0.2267 -1.2443  1.1314
  291MOL0     O40079   4.133   6.724   3.628 -0.1429  0.0865  0.2336
  291MOL0     C40080   4.210   6.623   3.694 -0.5700 -0.3712 -0.1912
  291MOL0     C40081   4.345   6.677   3.736  0.5585 -0.0902 -0.3843
  291MOL0     C40082   4.359   6.634   3.884 -0.8838 -0.2302  0.4209
  291MOL0     C40083   4.489   6.651   3.954  0.1100 -0.4620 -0.4311
  291MOL0     C40084   4.576   6.564   3.886  0.6103 -0.2910 -0.1637
  291MOL0     C40085   4.650   6.497   3.819 -1.2826 -0.1548  0.3585
  291MOL0     C40086   3.927   6.585   3.589 -1.0770  0.2393  0.9571
  291MOL0     C40087   3.806   6.565   3.519 -0.4892  0.6060 -0.4927
  291MOL0     C40088   3.733   6.434   3.523  0.4501 -0.1988  0.8028
  291MOL0     H40089   3.468   7.008   3.222 -0.6130  0.2392  0.2521
  291MOL0     H40090   3.292   7.022   3.045 -1.3318 -0.5177 -0.7929
  291MOL0     H40091   3.269   6.663   2.779 -0.1795  0.3440  0.5877
  291MOL0     H40092   3.218   6.802   2.687  2.3052  2.4962  2.3366
  291MOL0     H40093   3.037   6.621   2.861  2.2019 -0.4444 -0.1323
  291MOL0     H40094   2.977   6.763   2.782  1.3253  1.3003 -0.0044
  291MOL0     H40095   3.076   6.653   2.550 -1.9425 -0.2681 -2.1796
  291MOL0     H40096   3.103   6.510   2.670 -0.4199 -0.3011  0.2862
  291MOL0     H40097   2.870   6.537   2.739  2.4923  4.5760  1.3051
  291MOL0     H40098   2.831   6.641   2.602  0.3658  0.8155  0.3090
  291MOL0     H40099   2.756   6.404   2.543  0.1698 -0.9620 -1.6890
  291MOL0     H40100   2.922   6.348   2.599  3.3804  2.3716  0.1936
  291MOL0     H40101   2.882   6.522   2.362  0.7660 -1.9922 -4.9441
  291MOL0     H40102   3.030   6.444   2.417  0.4508 -2.6976 -0.2851
  291MOL0     H40103   2.782   6.331   2.294 -0.6724 -4.4437  2.3019
  291MOL0     H40104   2.895   6.228   2.370  1.0698  0.2573  0.5715
  291MOL0     H40105   2.930   6.258   2.115  0.1670  1.4185 -2.8424
  291MOL0     H40106   2.959   6.431   2.143 -0.3021 -0.3026  0.1289
  291MOL0     H40107   3.127   6.116   2.301  0.7051 -0.0690  0.2699
  291MOL0     H40108   3.501   6.184   2.385  1.3400 -1.7182 -2.2056
  291MOL0     H40109   3.363   6.066   2.378 -0.3061  1.0844  0.4640
  291MOL0     H40110   3.242   6.175   2.554  0.2128  0.3709  2.3342
  291MOL0     H40111   3.394   6.106   2.597 -0.3052 -0.9491 -2.1111
  291MOL0     H40112   3.418   6.399   2.520  2.9854 -0.1573  1.2111
  291MOL0     H40113   3.310   6.360   2.654  0.0476 -0.4130  0.1146
  291MOL0     H40114   3.497   6.240   2.752  0.2862 -1.2571 -0.4168
  291MOL0     H40115   3.596   6.288   2.618  1.6333  2.6820  0.4963
  291MOL0     H40116   3.635   6.654   2.801  0.0761  0.1543  0.8325
  291MOL0     H40117   3.899   6.798   2.931 -0.0638  1.7221  0.3214
  291MOL0     H40118   3.817   6.772   3.090  0.1684 -3.6188 -0.4917
  291MOL0     H40119   3.719   6.818   2.955 -1.6296 -1.0548  1.6753
  291MOL0     H40120   4.344   6.507   3.017  3.6970  0.4993  0.5992
  291MOL0     H40121   4.527   6.538   3.163 -0.2261 -0.7134 -0.2818
  291MOL0     H40122   4.600   6.346   3.592  2.1367 -1.4694 -0.0622
  291MOL0     H40123   4.491   6.248   3.490  0.5362 -1.2279  2.6809
  291MOL0     H40124   4.777   6.341   3.422  0.6265 -0.6764  2.5178
  291MOL0     H40125   4.727   6.176   3.461 -3.3194 -2.0111 -0.5910
  291MOL0     H40126   4.673   6.336   3.216 -0.4493 -1.0431 -1.4587
  291MOL0     H40127   4.562   6.206   3.251 -0.3506 -0.9821  0.4977
  291MOL0     H40128   4.758   6.044   3.251  1.1564 -1.0227 -0.6097
  291MOL0     H40129   4.866   6.183   3.229 -1.0267  2.7111 -1.3433
  291MOL0     H40130   4.624   6.117   3.040 -1.3672 -1.0961  2.2298
  291MOL0     H40131   4.766   6.224   3.006  1.3072  0.2764  1.4985
  291MOL0     H40132   4.818   6.034   2.867  1.4108  2.3720 -0.2470
  291MOL0     H40133   4.812   5.924   3.008  4.5878 -0.8919 -1.3105
  291MOL0     H40134   4.984   6.062   3.098  3.7605 -1.4957  0.4847
  291MOL0     H40135   4.987   6.164   2.955 -2.3335  0.6704  1.7654
  291MOL0     H40136   5.077   5.872   2.990 -1.0609 -2.3623 -5.0680
  291MOL0     H40137   5.184   6.012   2.954  1.3133 -1.0339 -0.5086
  291MOL0     H40138   4.296   6.384   3.489  3.2207 -0.3834 -0.6453
  291MOL0     H40139   4.080   6.386   3.326  0.0957  0.3008  1.5331
  291MOL0     H40140   3.889   6.300   3.025  0.0363 -1.9548 -2.7707
  291MOL0     H40141   3.719   6.238   2.858  3.2195  0.0774 -1.7116
  291MOL0     H40142   3.365   6.601   2.950  0.6081 -1.3250  0.4487
  291MOL0     H40143   3.536   6.595   3.115  1.7916  1.2019  0.7108
  291MOL0     H40144   3.829   6.850   3.330  1.0838 -1.0232 -1.8469
  291MOL0     H40145   4.048   6.864   3.473  1.0465 -2.5221 -1.2641
  291MOL0     H40146   4.156   6.586   3.781  3.0533 -3.3984  1.0541
  291MOL0     H40147   4.226   6.538   3.628  0.6305 -3.1899  3.3977
  291MOL0     H40148   4.337   6.786   3.737  2.3204  0.3055  5.1791
  291MOL0     H40149   4.425   6.639   3.671 -1.5947 -2.3881 -1.8802
  291MOL0     H40150   4.280   6.697   3.924  0.3996  2.2638 -0.7659
  291MOL0     H40151   4.326   6.530   3.895 -3.6379  0.2961 -1.6508
  291MOL0     H40152   4.480   6.617   4.058 -1.9070 -2.6099 -1.1968
  291MOL0     H40153   4.535   6.750   3.950  1.1832 -0.7469  2.4296
  291MOL0     H40154   4.720   6.446   3.756 -0.6564  1.7032 -0.5104
  291MOL0     H40155   3.962   6.515   3.664 -1.3914 -2.3401 -1.1453
  291MOL0     H40156   3.790   6.358   3.577  0.3985 -0.2882  0.7281
  291MOL0     H40157   3.640   6.445   3.579  0.3895  0.9974  0.4959
  291MOL0     H40158   3.713   6.395   3.423 -0.9608 -1.6231  1.5945
  292MOL0     O40159   5.042   4.747   0.938 -0.2956 -0.5149  0.7785
  292MOL0     C40160   5.074   4.642   0.892 -1.0682  0.1945  0.3403
  292MOL0     O40161   5.168   4.630   0.805 -0.2901 -0.4279  0.6938
  292MOL0     C40162   5.203   4.731   0.713  0.6381 -0.4560 -0.2248
  292MOL0     C40163   5.110   4.813   0.646 -0.3030  0.3748  0.1689
  292MOL0     C40164   5.150   4.896   0.545 -0.3787 -0.0949  0.4308
  292MOL0     C40165   5.284   4.909   0.500 -0.4763  0.4059 -0.3152
  292MOL0     O40166   5.325   4.997   0.402  0.3090  0.1263 -0.3673
  292MOL0     C40167   5.262   4.972   0.269  0.3869  0.2398 -0.2367
  292MOL0     C40168   5.314   5.075   0.172 -0.1960  0.0958 -0.5706
  292MOL0     C40169   5.462   5.070   0.133  0.3050  0.7581 -0.2148
  292MOL0     C40170   5.496   5.168   0.019  0.3662 -0.0196 -0.4092
  292MOL0     C40171   5.645   5.150  -0.017  0.6463 -1.1513 -0.1320
  292MOL0     C40172   5.744   5.202   0.095  0.2107 -0.0396  0.6027
  292MOL0     C40173   5.875   5.119   0.089 -0.0259  0.0619 -0.0302
  292MOL0     C40174   5.871   4.979   0.152 -0.8186 -0.4754  0.4643
  292MOL0     N40175   5.856   4.973   0.297 -0.4028 -0.5908  0.4272
  292MOL0     C40176   5.927   5.047   0.388  0.5936  0.2822  0.8494
  292MOL0     C40177   5.905   4.986   0.514 -1.2108 -0.3830 -0.1143
  292MOL0     C40178   5.950   5.026   0.660 -0.1309  0.1205 -0.0863
  292MOL0     C40179   6.067   5.109   0.673 -0.4894 -0.3761 -0.6484
  292MOL0     C40180   6.115   5.116   0.816 -0.7140 -0.1359  0.3550
  292MOL0     C40181   6.242   5.198   0.822 -0.1368 -0.6984 -0.0066
  292MOL0     O40182   6.199   5.342   0.795 -0.1635 -0.4249  0.2552
  292MOL0     C40183   6.301   5.438   0.808  0.2418  0.1802 -0.0702
  292MOL0     C40184   6.436   5.423   0.847 -0.5440 -0.4320 -0.4141
  292MOL0     C40185   6.536   5.525   0.850 -0.0949 -0.3373 -0.1901
  292MOL0     C40186   6.680   5.491   0.888 -0.5053 -0.2642 -0.6008
  292MOL0     C40187   6.486   5.656   0.834 -0.1226  0.4003 -1.0732
  292MOL0     C40188   6.573   5.771   0.872  0.6189 -0.6924 -0.4832
  292MOL0     O40189   6.519   5.872   0.943 -0.5228 -0.2440 -1.0110
  292MOL0     C40190   6.576   5.995   0.969 -0.4588  0.7015 -0.0986
  292MOL0     C40191   6.679   5.997   1.052 -0.2988 -0.3663  0.0658
  292MOL0     C40192   6.739   6.121   1.089 -0.3699  0.1533  1.1528
  292MOL0     C40193   6.687   6.237   1.040 -0.4188  0.1361 -0.0651
  292MOL0     O40194   6.761   6.346   1.065 -0.6704  0.4936 -0.0170
  292MOL0     C40195   6.705   6.479   1.070  0.0870 -0.3660  0.1324
  292MOL0     C40196   6.810   6.595   1.106 -0.5721  0.3422 -0.3245
  292MOL0     C40197   6.945   6.564   1.048 -0.2415 -0.7771 -0.3075
  292MOL0     C40198   7.042   6.627   1.150  1.1626 -0.1407 -0.4622
  292MOL0     C40199   7.175   6.616   1.069  0.2199 -0.6181 -0.3885
  292MOL0     C40200   7.294   6.651   1.160 -0.2960 -0.8565 -0.4524
  292MOL0     C40201   7.431   6.629   1.087 -0.4088 -0.7254  0.2841
  292MOL0     C40202   7.557   6.640   1.175 -0.1821  0.5046  0.0298
  292MOL0    Cl40203   7.691   6.677   1.069  0.1837  0.3431 -0.2186
  292MOL0     C40204   6.571   6.227   0.968  0.2497  0.4283  0.3773
  292MOL0     C40205   6.506   6.114   0.932  0.5818 -0.4155  0.1881
  292MOL0     O40206   6.688   5.779   0.814 -0.1680  0.4107 -0.1683
  292MOL0     C40207   6.350   5.680   0.806 -0.7767  0.1363  0.7732
  292MOL0     C40208   6.258   5.575   0.783 -0.0455  0.6695 -0.1730
  292MOL0     N40209   5.806   4.891   0.494  0.0539 -0.4448 -0.8786
  292MOL0     N40210   5.790   4.880   0.365  0.6635  0.0122  1.1209
  292MOL0     C40211   5.372   4.823   0.558 -0.1449  0.2753 -0.1038
  292MOL0     C40212   5.339   4.730   0.663 -0.1339 -0.0927 -0.1314
  292MOL0     C40213   5.019   4.519   0.935  0.0998  0.7984  0.4786
  292MOL0     C40214   5.014   4.405   0.850 -0.7123  0.0355  0.4495
  292MOL0     C40215   4.970   4.281   0.893 -0.9197 -0.4499 -0.7365
  292MOL0     C40216   4.916   4.264   1.017  1.6673  1.0900 -0.2312
  292MOL0     O40217   4.856   4.148   1.060  0.0341  0.2423  0.1800
  292MOL0     C40218   4.707   4.151   1.052 -0.7753 -0.2004 -0.9615
  292MOL0     C40219   4.658   4.016   1.115 -0.3803 -0.1734 -0.4731
  292MOL0     C40220   4.720   3.888   1.054  0.2038  0.2735  0.5098
  292MOL0     C40221   4.773   3.790   1.160  0.5028  1.2417 -0.2799
  292MOL0     C40222   4.874   3.699   1.095  0.1163 -0.1719 -1.2731
  292MOL0     C40223   4.965   3.639   1.055 -0.5688  0.3357  0.0338
  292MOL0     C40224   4.928   4.367   1.103  0.1592  0.3261  0.1896
  292MOL0     C40225   4.959   4.497   1.064 -0.1634  0.2215 -0.1274
  292MOL0     C40226   4.948   4.600   1.164 -0.5600 -1.4122 -0.3041
  292MOL0     H40227   5.007   4.807   0.679  0.0157  2.3581  1.7988
  292MOL0     H40228   5.077   4.947   0.483  0.8209  0.8543 -0.2492
  292MOL0     H40229   5.152   4.971   0.266  0.3472  1.1856  0.5010
  292MOL0     H40230   5.295   4.872   0.238 -0.8645 -0.5016  0.6956
  292MOL0     H40231   5.248   5.057   0.086 -0.6985  1.0789 -0.3956
  292MOL0     H40232   5.282   5.172   0.208  0.1103 -0.1610  0.4193
  292MOL0     H40233   5.520   5.081   0.225 -0.0727 -0.9713  0.2664
  292MOL0     H40234   5.480   4.965   0.106 -0.2129  0.2235  1.4187
  292MOL0     H40235   5.420   5.170  -0.061 -0.1079  2.6001  0.0077
  292MOL0     H40236   5.485   5.263   0.072  0.7495 -0.6151  0.7575
  292MOL0     H40237   5.660   5.213  -0.105  0.1286  0.4875  0.8969
  292MOL0     H40238   5.668   5.045  -0.037  0.3039 -0.8947 -2.0231
  292MOL0     H40239   5.768   5.308   0.085 -1.1413  0.3927  1.6851
  292MOL0     H40240   5.708   5.183   0.196 -1.4036 -1.6028 -0.2218
  292MOL0     H40241   5.956   5.171   0.140 -1.4750  0.9515  1.4587
  292MOL0     H40242   5.901   5.106  -0.016 -2.5069 -1.3277 -0.5673
  292MOL0     H40243   5.798   4.909   0.109  1.5129 -2.1900 -0.9496
  292MOL0     H40244   5.965   4.927   0.129 -0.0110 -0.1783  2.7891
  292MOL0     H40245   5.989   5.136   0.384  0.7962  0.1775  1.5181
  292MOL0     H40246   5.983   4.931   0.703 -1.3170 -1.2244 -1.9898
  292MOL0     H40247   5.858   5.055   0.713 -1.8186 -5.4450  0.7037
  292MOL0     H40248   6.145   5.065   0.610 -1.9226 -0.0917 -2.7346
  292MOL0     H40249   6.051   5.213   0.644  1.6751  0.1600 -0.1057
  292MOL0     H40250   6.046   5.173   0.879  2.6297  2.6879  1.8655
  292MOL0     H40251   6.131   5.016   0.857 -0.0213 -0.7217 -1.2453
  292MOL0     H40252   6.271   5.197   0.927 -3.0971 -0.0269  0.8967
  292MOL0     H40253   6.316   5.148   0.758  3.0864 -0.0548  2.9557
  292MOL0     H40254   6.480   5.324   0.852  3.6841  1.1227 -2.0222
  292MOL0     H40255   6.705   5.535   0.984  0.0891  1.3537 -1.4571
  292MOL0     H40256   6.751   5.532   0.815  0.4221  2.3107  1.6007
  292MOL0     H40257   6.687   5.382   0.891 -0.6484 -0.2456  0.7994
  292MOL0     H40258   6.732   5.905   1.072  2.3116  1.1552  0.5849
  292MOL0     H40259   6.828   6.116   1.152 -0.5954 -2.8174  1.3652
  292MOL0     H40260   6.662   6.501   0.972 -1.9583  1.0028  1.2582
  292MOL0     H40261   6.623   6.481   1.142  0.2067 -0.2764  0.2679
  292MOL0     H40262   6.774   6.683   1.053 -1.4012  0.6460  0.7162
  292MOL0     H40263   6.808   6.602   1.215  0.8040 -1.5321 -0.1237
  292MOL0     H40264   6.945   6.619   0.954 -0.6217 -0.2415  0.0049
  292MOL0     H40265   6.975   6.461   1.029  2.3794 -0.5643  1.9263
  292MOL0     H40266   7.050   6.574   1.245  0.8101 -0.8766 -0.8278
  292MOL0     H40267   7.009   6.729   1.170 -0.9895 -0.6159 -1.2770
  292MOL0     H40268   7.198   6.515   1.033  1.4037 -0.4868 -0.0599
  292MOL0     H40269   7.174   6.673   0.975 -3.6536 -1.5046 -1.0307
  292MOL0     H40270   7.282   6.574   1.237  2.6212 -1.8090 -0.8336
  292MOL0     H40271   7.287   6.754   1.196  0.9869 -1.2548  1.0397
  292MOL0     H40272   7.441   6.708   1.012  0.5621 -1.2251 -0.1215
  292MOL0     H40273   7.429   6.535   1.031 -4.9581  0.2501 -1.6231
  292MOL0     H40274   7.563   6.545   1.229 -1.9320  0.5269  0.3285
  292MOL0     H40275   7.553   6.709   1.260  0.6729  0.1791  0.3390
  292MOL0     H40276   6.521   6.315   0.927  2.1778  1.5384  0.2859
  292MOL0     H40277   6.415   6.119   0.873  0.5293  0.0905  0.3087
  292MOL0     H40278   6.314   5.782   0.802  4.5645  2.2777 -0.9853
  292MOL0     H40279   6.155   5.596   0.754  0.1866 -1.7771 -3.4054
  292MOL0     H40280   5.474   4.834   0.523 -0.4592  1.3599 -0.7184
  292MOL0     H40281   5.416   4.675   0.717  0.8952  1.1519 -0.2762
  292MOL0     H40282   5.062   4.419   0.754 -0.8505 -3.0798 -0.1828
  292MOL0     H40283   4.974   4.212   0.810  1.0122  0.6790 -1.6421
  292MOL0     H40284   4.667   4.229   1.117 -1.2718 -1.7497  0.6538
  292MOL0     H40285   4.682   4.162   0.946  1.1113  1.3061 -1.3188
  292MOL0     H40286   4.549   4.023   1.109 -0.3340  0.8760 -0.2649
  292MOL0     H40287   4.694   4.029   1.218  0.3255  0.9435 -0.8417
  292MOL0     H40288   4.641   3.846   0.991 -0.4265  1.0939  0.7359
  292MOL0     H40289   4.806   3.919   0.993  0.4345  2.9103  2.0253
  292MOL0     H40290   4.690   3.730   1.198  0.4683  1.7977  0.5620
  292MOL0     H40291   4.832   3.831   1.243  3.2992 -3.0121  0.1692
  292MOL0     H40292   5.060   3.600   1.023 -0.8238 -1.3822  1.2743
  292MOL0     H40293   4.895   4.360   1.206 -1.6096 -0.8637 -0.4034
  292MOL0     H40294   5.046   4.630   1.202 -1.4244  2.9021 -1.0425
  292MOL0     H40295   4.880   4.680   1.135 -3.4464 -2.7722  2.0623
  292MOL0     H40296   4.909   4.549   1.253 -2.2739 -0.1280 -0.2636
  293MOL0     O40297   1.350   0.477  11.428  0.0196 -0.3232 -0.1498
  293MOL0     C40298   1.287   0.372  11.437  0.1177  0.1405  0.2016
  293MOL0     O40299   1.151   0.362  11.448 -0.1727  0.0560  0.1325
  293MOL0     C40300   1.065   0.462  11.434  0.1323  0.0185 -0.6332
  293MOL0     C40301   0.936   0.435  11.475  0.2608  0.4654  0.0293
  293MOL0     C40302   0.831   0.521  11.459 -0.1274 -0.3313  0.2218
  293MOL0     C40303   0.862   0.646  11.402  0.7088 -0.5824 -0.1436
  293MOL0     O40304   0.754   0.734  11.378  0.5588  0.2704 -0.0905
  293MOL0     C40305   0.643   0.686  11.302 -0.2553 -0.8339  0.0380
  293MOL0     C40306   0.700   0.622  11.161 -0.1049 -0.6009 -0.3551
  293MOL0     C40307   0.780   0.721  11.073  0.3886 -0.6409 -0.0008
  293MOL0     C40308   0.676   0.797  10.982 -0.4258  0.8692 -0.6613
  293MOL0     C40309   0.734   0.883  10.873 -0.4001  0.0582  0.0097
  293MOL0     C40310   0.632   0.985  10.809  0.1046 -0.9779  0.4631
  293MOL0     C40311   0.613   1.119  10.884  0.1959  0.2190 -0.5505
  293MOL0     C40312   0.521   1.203  10.790 -0.5612  0.3821  0.1734
  293MOL0     N40313   0.601   1.258  10.681  0.2252  0.7627 -0.7444
  293MOL0     C40314   0.603   1.211  10.557  0.1974  0.4671  0.2482
  293MOL0     C40315   0.692   1.278  10.486  0.5699  0.0503  0.0260
  293MOL0     C40316   0.744   1.257  10.351  1.5293  0.0379 -0.2389
  293MOL0     C40317   0.811   1.124  10.328 -0.1625 -0.6205  0.4110
  293MOL0     C40318   0.934   1.090  10.415  0.0290  0.1903 -0.3764
  293MOL0     C40319   1.053   1.162  10.359  0.3702 -0.5629  1.0328
  293MOL0     O40320   1.109   1.114  10.237  0.5044 -0.2083 -0.7096
  293MOL0     C40321   1.171   0.991  10.237  0.3183  0.1323  0.5087
  293MOL0     C40322   1.216   0.922  10.344 -0.2429 -0.0467  0.4581
  293MOL0     C40323   1.276   0.794  10.330 -0.6238  0.2787  0.3308
  293MOL0     C40324   1.324   0.722  10.453  0.1053  0.4739 -0.1212
  293MOL0     C40325   1.300   0.743  10.195  0.6635 -0.3134 -0.0610
  293MOL0     C40326   1.360   0.600  10.166  0.1182 -0.2834 -0.0391
  293MOL0     O40327   1.357   0.562  10.034  0.3970 -0.5250 -0.5102
  293MOL0     C40328   1.368   0.430  10.010 -0.1951 -0.4193  0.1845
  293MOL0     C40329   1.263   0.338   9.996 -1.3970  0.5840  0.9091
  293MOL0     C40330   1.283   0.211   9.944 -0.0660 -0.3914  0.4746
  293MOL0     C40331   1.409   0.161   9.917 -0.3194 -0.0451  0.3516
  293MOL0     O40332   1.423   0.027   9.905 -0.5702  0.5836  0.2003
  293MOL0     C40333   1.416  -0.023   9.768 -0.7729  1.0134  1.1081
  293MOL0     C40334   1.555  -0.071   9.712  0.6162  1.1815 -0.0891
  293MOL0     C40335   1.541  -0.160   9.579 -0.8325 -0.9365 -0.0480
  293MOL0     C40336   1.649  -0.273   9.587 -0.6171  0.2254  0.3265
  293MOL0     C40337   1.659  -0.339   9.456 -0.0231  1.2451  0.1631
  293MOL0     C40338   1.740  -0.464   9.473 -0.4590 -0.3564  0.2622
  293MOL0     C40339   1.888  -0.428   9.480  0.3855 -1.1267 -0.1793
  293MOL0     C40340   1.974  -0.562   9.503  0.5454  0.1683  1.0076
  293MOL0    Cl40341   1.972  -0.674   9.358  0.1480  0.8324  0.1349
  293MOL0     C40342   1.518   0.253   9.926 -0.7835 -0.4557  0.2800
  293MOL0     C40343   1.493   0.385   9.975 -0.6714 -0.8717  0.4493
  293MOL0     O40344   1.394   0.528  10.258 -0.4705  0.1539 -0.1065
  293MOL0     C40345   1.240   0.816  10.088 -0.1510  0.0711 -0.1449
  293MOL0     C40346   1.178   0.937  10.109  0.6226 -0.5454  0.6689
  293MOL0     N40347   0.751   1.366  10.572  0.2850 -0.0516 -0.3657
  293MOL0     N40348   0.686   1.356  10.683  0.0153 -0.1867 -0.5178
  293MOL0     C40349   0.989   0.680  11.361  0.7373 -0.4699 -0.5870
  293MOL0     C40350   1.089   0.588  11.375  0.2244 -0.2957  0.9911
  293MOL0     C40351   1.355   0.238  11.452 -0.3236  0.1565  1.0035
  293MOL0     C40352   1.279   0.121  11.486 -0.3582  0.3152 -0.0606
  293MOL0     C40353   1.339  -0.009  11.495 -0.2990 -0.3096 -0.4416
  293MOL0     C40354   1.472  -0.025  11.481 -0.3947 -0.5641 -0.8832
  293MOL0     O40355   1.539  -0.144  11.481  0.4817  0.2877  0.5046
  293MOL0     C40356   1.475  -0.270  11.519 -0.4300  0.0010  0.3274
  293MOL0     C40357   1.504  -0.321  11.657  0.8093 -0.4035  0.3647
  293MOL0     C40358   1.462  -0.220  11.764 -0.3622 -0.1217 -0.5439
  293MOL0     C40359   1.475  -0.282  11.901 -1.0182 -0.0827  0.8678
  293MOL0     C40360   1.441  -0.184  12.010  0.5140  0.0056 -0.1981
  293MOL0     C40361   1.408  -0.113  12.106  0.3700  0.1256  0.8783
  293MOL0     C40362   1.548   0.083  11.451  0.5798 -0.2990 -0.2342
  293MOL0     C40363   1.498   0.215  11.455 -0.1713 -0.0894  0.6095
  293MOL0     C40364   1.604   0.320  11.455 -0.7645 -0.1512  1.2761
  293MOL0     H40365   0.919   0.333  11.507 -1.3388  0.2528 -1.3350
  293MOL0     H40366   0.737   0.489  11.501 -0.4855  1.7199  1.1307
  293MOL0     H40367   0.562   0.751  11.269 -0.4627  0.0101  2.1080
  293MOL0     H40368   0.583   0.614  11.359  0.1632  0.3248  2.0140
  293MOL0     H40369   0.760   0.533  11.180  0.1048  0.2087  3.8574
  293MOL0     H40370   0.619   0.574  11.104  0.8500 -2.5238 -0.1657
  293MOL0     H40371   0.835   0.798  11.129  1.0844 -0.5383 -0.8068
  293MOL0     H40372   0.854   0.685  11.001  1.6010  4.9215 -2.0627
  293MOL0     H40373   0.605   0.723  10.943  0.7096  0.3525 -1.8346
  293MOL0     H40374   0.622   0.867  11.046 -2.1973  0.0448 -1.1970
  293MOL0     H40375   0.765   0.804  10.804 -0.9534 -0.9519  0.8969
  293MOL0     H40376   0.824   0.937  10.904 -0.1409  0.3871 -1.2416
  293MOL0     H40377   0.676   1.009  10.711  0.1905 -2.7798  0.0343
  293MOL0     H40378   0.538   0.932  10.791  1.3807 -3.8119  1.6799
  293MOL0     H40379   0.710   1.166  10.904  0.1074  1.5296 -2.9163
  293MOL0     H40380   0.555   1.094  10.973  1.3022 -0.8059 -0.0908
  293MOL0     H40381   0.442   1.145  10.741  2.0242 -0.6882 -3.0787
  293MOL0     H40382   0.476   1.287  10.844  0.5123  0.2274  1.3602
  293MOL0     H40383   0.544   1.133  10.508 -1.1615 -1.6186  4.6746
  293MOL0     H40384   0.825   1.326  10.329  0.1110  2.4318  1.5736
  293MOL0     H40385   0.664   1.269  10.277  0.1813 -1.6831  0.8429
  293MOL0     H40386   0.739   1.043  10.338  0.3469 -1.1848 -0.3004
  293MOL0     H40387   0.842   1.127  10.223 -1.5153 -1.7355 -0.0453
  293MOL0     H40388   0.930   1.128  10.518  1.6611  2.8104 -1.1645
  293MOL0     H40389   0.937   0.981  10.415 -0.2385  0.1073 -3.0849
  293MOL0     H40390   1.012   1.262  10.342  0.8150 -0.2350  1.8091
  293MOL0     H40391   1.132   1.169  10.434  1.6478 -2.4971 -0.0625
  293MOL0     H40392   1.180   0.942  10.444  0.8699 -0.7139  1.0139
  293MOL0     H40393   1.263   0.633  10.469 -0.8215  0.9530 -0.8990
  293MOL0     H40394   1.308   0.787  10.539 -0.9912 -0.3342  0.3033
  293MOL0     H40395   1.427   0.687  10.436 -0.1134 -0.8774  1.1191
  293MOL0     H40396   1.165   0.380  10.013 -2.5317 -1.2646 -0.5773
  293MOL0     H40397   1.196   0.154   9.912 -0.6506  0.4251  0.5874
  293MOL0     H40398   1.354  -0.112   9.767  0.4617  0.0256  3.4848
  293MOL0     H40399   1.388   0.068   9.714 -0.0113  0.3867 -0.3760
  293MOL0     H40400   1.618   0.017   9.693 -0.2395  1.8439  0.0443
  293MOL0     H40401   1.622  -0.118   9.784  0.8097  1.2348 -0.2341
  293MOL0     H40402   1.554  -0.092   9.495  0.3209  2.1985  2.4580
  293MOL0     H40403   1.444  -0.204   9.556 -1.4006  0.5500 -0.6498
  293MOL0     H40404   1.623  -0.340   9.670  0.3318  2.3331  2.4784
  293MOL0     H40405   1.745  -0.235   9.623 -0.2195  1.0264 -1.4685
  293MOL0     H40406   1.560  -0.369   9.420  1.6583 -1.1875 -3.0143
  293MOL0     H40407   1.699  -0.274   9.377 -2.2777  0.6143 -1.6034
  293MOL0     H40408   1.724  -0.531   9.387  0.2718 -0.7999  0.4557
  293MOL0     H40409   1.711  -0.514   9.566 -1.0007  0.9256  0.7900
  293MOL0     H40410   1.911  -0.355   9.558 -4.9884  2.1827 -1.1756
  293MOL0     H40411   1.927  -0.381   9.389  0.1779  1.3886  0.9512
  293MOL0     H40412   1.935  -0.608   9.594 -0.9071  1.1602  0.9250
  293MOL0     H40413   2.079  -0.540   9.524  0.4735  0.4838  1.0423
  293MOL0     H40414   1.624   0.230   9.916  0.0237  2.5405  0.9987
  293MOL0     H40415   1.579   0.451   9.967 -1.3359 -0.1929 -1.8071
  293MOL0     H40416   1.249   0.773   9.989  3.2612 -2.2966  1.0009
  293MOL0     H40417   1.141   0.996  10.026  0.4284  0.1279  1.2274
  293MOL0     H40418   1.027   0.778  11.333  3.5574 -0.8744  1.3603
  293MOL0     H40419   1.186   0.606  11.330  0.3200 -2.0040  0.4186
  293MOL0     H40420   1.173   0.129  11.506 -0.5521 -0.5661 -0.6240
  293MOL0     H40421   1.280  -0.094  11.530 -1.8013  1.3481  1.2572
  293MOL0     H40422   1.370  -0.280  11.491  0.4460 -0.2877 -3.4411
  293MOL0     H40423   1.520  -0.343  11.451  1.1902  0.4360  0.8701
  293MOL0     H40424   1.611  -0.337  11.677  0.5708 -0.3211  1.8142
  293MOL0     H40425   1.451  -0.416  11.668  0.0064 -0.1264 -0.8922
  293MOL0     H40426   1.529  -0.134  11.750  1.1877 -1.2922 -0.6169
  293MOL0     H40427   1.358  -0.190  11.748 -0.5526  1.1317  2.3154
  293MOL0     H40428   1.581  -0.301  11.921 -0.5471  3.6836  2.7982
  293MOL0     H40429   1.417  -0.374  11.913 -1.0666 -0.0518  0.8642
  293MOL0     H40430   1.380  -0.061  12.196 -0.6815 -1.4929  1.5353
  293MOL0     H40431   1.651   0.080  11.420  0.3697  1.3294 -1.2143
  293MOL0     H40432   1.593   0.385  11.368  0.7472  1.8532  2.4856
  293MOL0     H40433   1.602   0.382  11.545 -0.5870  1.4395  0.2338
  293MOL0     H40434   1.703   0.273  11.448 -0.9427 -0.4737  0.9229
  294MOL0     O40435   5.209   1.087  10.536  0.0336 -0.1641 -0.6645
  294MOL0     C40436   5.183   1.062  10.423 -0.5462 -0.4874  1.2190
  294MOL0     O40437   5.268   0.997  10.331  0.2951 -1.3352  0.3876
  294MOL0     C40438   5.402   0.994  10.356 -0.5603  0.3120 -0.3199
  294MOL0     C40439   5.464   0.881  10.308  0.3822 -1.1780  0.0111
  294MOL0     C40440   5.602   0.864  10.309 -0.0927 -0.3247 -0.2321
  294MOL0     C40441   5.685   0.960  10.377 -0.5824  0.1547 -0.7150
  294MOL0     O40442   5.821   0.959  10.405  0.0130 -0.1302 -0.3078
  294MOL0     C40443   5.913   0.888  10.319  0.4033 -0.9424 -0.4592
  294MOL0     C40444   6.056   0.944  10.323  0.8907  0.0311  0.1739
  294MOL0     C40445   6.121   0.929  10.465 -0.3148  0.4582 -0.0170
  294MOL0     C40446   6.099   0.793  10.535 -0.0962 -0.2811  0.2618
  294MOL0     C40447   6.154   0.681  10.448 -0.8137  0.0980  0.6498
  294MOL0     C40448   6.170   0.555  10.525  1.3403  0.7653  0.4501
  294MOL0     C40449   6.214   0.438  10.440 -0.3672  1.1023  0.6339
  294MOL0     C40450   6.257   0.310  10.534  0.0482  0.0557 -0.8291
  294MOL0     N40451   6.259   0.191  10.452  0.1669  0.4680  0.0068
  294MOL0     C40452   6.365   0.158  10.371  0.0411  0.1635 -0.0423
  294MOL0     C40453   6.341   0.027  10.344  0.0160 -0.1567 -0.3228
  294MOL0     C40454   6.423  -0.066  10.259 -0.5759  0.3366  0.6993
  294MOL0     C40455   6.364  -0.204  10.235  1.1323 -0.3238  0.5053
  294MOL0     C40456   6.256  -0.182  10.123 -0.3483 -0.2609 -0.4913
  294MOL0     C40457   6.137  -0.271  10.156  0.0321  0.3189  0.7900
  294MOL0     O40458   6.191  -0.402  10.111  0.0903 -0.4087 -0.3724
  294MOL0     C40459   6.096  -0.498  10.113  0.0399  0.4652 -0.0561
  294MOL0     C40460   6.146  -0.630  10.128 -0.1191  0.2035  0.1457
  294MOL0     C40461   6.059  -0.752  10.118 -0.0170 -1.1222  0.2372
  294MOL0     C40462   6.108  -0.883  10.179 -0.1151  0.2240 -0.0677
  294MOL0     C40463   5.917  -0.726  10.087 -0.7056 -0.1706 -0.2673
  294MOL0     C40464   5.820  -0.834  10.069  1.4030  0.3597  0.9313
  294MOL0     O40465   5.704  -0.794  10.009 -0.6695 -0.2511  0.4158
  294MOL0     C40466   5.592  -0.880  10.000 -0.3595 -0.0071 -0.4600
  294MOL0     C40467   5.466  -0.811   9.993  0.6036 -0.7842 -0.1135
  294MOL0     C40468   5.350  -0.882   9.961 -0.9642 -0.0854 -0.3542
  294MOL0     C40469   5.356  -1.018   9.927  0.5747 -0.6473 -0.1076
  294MOL0     O40470   5.230  -1.074   9.902 -0.1673  0.4990 -0.1413
  294MOL0     C40471   5.229  -1.168   9.803 -0.7294 -0.9380  0.2127
  294MOL0     C40472   5.083  -1.212   9.760 -0.4248 -0.0834 -0.2495
  294MOL0     C40473   4.992  -1.267   9.866  0.6855 -0.3747 -0.5443
  294MOL0     C40474   4.852  -1.309   9.803  1.0641  0.0082  1.2993
  294MOL0     C40475   4.764  -1.372   9.913 -0.4709 -0.0060 -0.7139
  294MOL0     C40476   4.625  -1.388   9.858 -0.9188  0.4344  0.5855
  294MOL0     C40477   4.513  -1.416   9.960  1.1594 -0.3300 -0.8418
  294MOL0     C40478   4.396  -1.470   9.883  0.4595 -0.7020  0.1036
  294MOL0    Cl40479   4.276  -1.515  10.002  0.3390  0.4910  0.2230
  294MOL0     C40480   5.477  -1.085   9.932  0.3068 -0.4105 -0.0150
  294MOL0     C40481   5.598  -1.017   9.960  0.4467 -0.0324 -0.9264
  294MOL0     O40482   5.844  -0.943  10.122 -0.4822  1.0642 -0.2992
  294MOL0     C40483   5.878  -0.598  10.059 -0.3699 -0.3577  0.3172
  294MOL0     C40484   5.966  -0.484  10.071  0.3941  1.2670 -0.2923
  294MOL0     N40485   6.229  -0.007  10.419  1.0286  0.1233  0.1541
  294MOL0     N40486   6.186   0.086  10.500 -0.7283  0.5421  0.3450
  294MOL0     C40487   5.621   1.077  10.428  0.1609 -0.4210 -0.3315
  294MOL0     C40488   5.482   1.097  10.418  0.9555 -0.1417  0.0461
  294MOL0     C40489   5.043   1.070  10.378  0.0367 -0.0399 -0.2465
  294MOL0     C40490   4.999   0.967  10.284 -0.0699 -0.3211 -0.0258
  294MOL0     C40491   4.861   0.967  10.240 -0.9090  0.7689  0.7060
  294MOL0     C40492   4.778   1.073  10.281 -1.0168 -0.3062 -0.1762
  294MOL0     O40493   4.659   1.092  10.226  0.3603 -1.4651  0.1898
  294MOL0     C40494   4.664   1.179  10.114 -0.2910  0.2705  0.1900
  294MOL0     C40495   4.537   1.167  10.012 -0.3299  0.3280 -0.4961
  294MOL0     C40496   4.539   1.043   9.910  0.1547  0.4412 -0.5113
  294MOL0     C40497   4.673   1.043   9.829  0.8201 -0.6069 -0.4809
  294MOL0     C40498   4.713   1.152   9.738  0.3404 -0.5060 -0.3848
  294MOL0     C40499   4.744   1.236   9.652 -0.0574  0.3355 -0.8868
  294MOL0     C40500   4.826   1.161  10.381  1.1695  0.2186  0.3476
  294MOL0     C40501   4.953   1.174  10.422  0.1125  0.0244 -0.0546
  294MOL0     C40502   4.984   1.291  10.520  0.0545 -0.6793 -1.3501
  294MOL0     H40503   5.400   0.799  10.279 -1.2630  0.7604 -2.2002
  294MOL0     H40504   5.647   0.777  10.262  2.3235  0.4425  0.4818
  294MOL0     H40505   5.876   0.898  10.217  0.0400 -0.9331 -0.3325
  294MOL0     H40506   5.903   0.781  10.344 -2.7040 -0.7916 -0.6503
  294MOL0     H40507   6.123   0.901  10.248 -1.0018  2.5614 -3.2316
  294MOL0     H40508   6.053   1.050  10.298 -0.7855  0.3260  1.4228
  294MOL0     H40509   6.228   0.950  10.468  0.5459 -3.2611  2.5886
  294MOL0     H40510   6.086   1.006  10.533  3.3171  0.8205  1.6893
  294MOL0     H40511   6.137   0.793  10.637  0.0578  0.4181  0.2144
  294MOL0     H40512   5.992   0.783  10.557 -0.0807  1.5681  1.3841
  294MOL0     H40513   6.251   0.718  10.412 -0.7207  1.4974  2.1905
  294MOL0     H40514   6.083   0.655  10.370 -0.0590 -1.4877  0.4549
  294MOL0     H40515   6.242   0.570  10.606  0.4422  0.2306  1.3734
  294MOL0     H40516   6.070   0.529  10.561  1.2321  1.8844  1.0187
  294MOL0     H40517   6.300   0.453  10.374 -0.0093  0.5281  0.9619
  294MOL0     H40518   6.139   0.409  10.365  0.5114 -0.1213  0.2029
  294MOL0     H40519   6.345   0.322  10.598 -0.7359  0.1428  0.2568
  294MOL0     H40520   6.181   0.293  10.611  1.5448 -0.3597  0.6273
  294MOL0     H40521   6.432   0.224  10.317  1.9403 -1.7939 -0.1836
  294MOL0     H40522   6.522  -0.083  10.302  1.6684 -0.9207 -4.2014
  294MOL0     H40523   6.446  -0.023  10.161 -0.7025 -3.6133 -1.3100
  294MOL0     H40524   6.438  -0.268  10.185 -0.0250 -1.1639 -0.1909
  294MOL0     H40525   6.326  -0.253  10.325  1.6276 -0.8936  0.4168
  294MOL0     H40526   6.211  -0.083  10.125 -2.1095 -1.0274  1.1969
  294MOL0     H40527   6.313  -0.195  10.030  4.1682  0.7362  1.8397
  294MOL0     H40528   6.098  -0.268  10.258  0.3386  2.3942  0.8763
  294MOL0     H40529   6.059  -0.237  10.087  1.8026  0.6408 -1.1295
  294MOL0     H40530   6.250  -0.637  10.159 -0.0619 -2.0792 -0.3500
  294MOL0     H40531   6.049  -0.928  10.259 -0.0930 -0.7596 -0.5957
  294MOL0     H40532   6.209  -0.877  10.220 -0.1085 -0.2528 -0.0056
  294MOL0     H40533   6.111  -0.965  10.107 -0.2718  0.1388  0.0232
  294MOL0     H40534   5.459  -0.705  10.015  0.6033 -0.1320 -2.8895
  294MOL0     H40535   5.262  -0.819   9.965  0.3706  1.8647 -0.4348
  294MOL0     H40536   5.277  -1.129   9.713 -2.8223 -1.2032 -1.0700
  294MOL0     H40537   5.287  -1.256   9.833  0.9387 -0.9141 -2.5395
  294MOL0     H40538   5.023  -1.126   9.731 -3.1064 -1.6959  0.1530
  294MOL0     H40539   5.091  -1.273   9.669  0.8974 -1.8131  0.9483
  294MOL0     H40540   4.967  -1.193   9.944  1.3403  0.7411 -1.3673
  294MOL0     H40541   5.040  -1.352   9.915  2.0841 -0.2871 -1.7014
  294MOL0     H40542   4.863  -1.392   9.732  1.5676  0.1811  1.1687
  294MOL0     H40543   4.807  -1.224   9.751  2.0637 -0.3325 -0.1731
  294MOL0     H40544   4.809  -1.461   9.958 -0.8331 -0.9809 -2.2097
  294MOL0     H40545   4.758  -1.298   9.993 -2.3247 -0.3506 -0.4876
  294MOL0     H40546   4.637  -1.476   9.794 -1.7100  0.4589  0.3872
  294MOL0     H40547   4.598  -1.302   9.795  3.2083 -0.4611 -2.9073
  294MOL0     H40548   4.478  -1.325  10.011  0.2929 -2.2956  2.3930
  294MOL0     H40549   4.544  -1.482  10.042 -2.5742  0.3793  1.4004
  294MOL0     H40550   4.418  -1.556   9.819 -0.7737  0.8860 -2.6696
  294MOL0     H40551   4.352  -1.400   9.811 -2.6409 -3.0078 -0.4167
  294MOL0     H40552   5.484  -1.193   9.920  1.6688 -0.7789  3.0359
  294MOL0     H40553   5.695  -1.065   9.962 -0.0230 -0.9631  0.6418
  294MOL0     H40554   5.781  -0.559  10.030  1.0041  1.1813 -2.8131
  294MOL0     H40555   5.922  -0.385  10.080  0.1573  0.9737  3.3901
  294MOL0     H40556   5.675   1.145  10.492 -2.1800  1.1436  0.1027
  294MOL0     H40557   5.441   1.186  10.465 -0.0502 -1.6161  2.1395
  294MOL0     H40558   5.075   0.899  10.245  3.0611  2.3720  0.9760
  294MOL0     H40559   4.817   0.899  10.168 -1.5061  0.6790  1.1511
  294MOL0     H40560   4.668   1.280  10.157 -1.1539 -0.6427  2.5394
  294MOL0     H40561   4.753   1.166  10.052 -1.9308  0.0808 -2.2728
  294MOL0     H40562   4.532   1.258   9.951 -4.7091 -0.7407 -2.0918
  294MOL0     H40563   4.445   1.152  10.068  0.6341 -2.8487  0.4161
  294MOL0     H40564   4.523   0.950   9.965  1.6638 -1.1167 -2.5895
  294MOL0     H40565   4.457   1.036   9.838  1.9015 -1.2311 -2.4643
  294MOL0     H40566   4.665   0.958   9.761  0.1107  0.4381 -1.7590
  294MOL0     H40567   4.758   1.017   9.892  0.8493 -1.6428 -0.9308
  294MOL0     H40568   4.770   1.311   9.581  0.6333  0.7419 -0.2153
  294MOL0     H40569   4.758   1.233  10.425  1.6907  1.0574 -0.2112
  294MOL0     H40570   4.892   1.348  10.538  1.2935  1.4872 -1.5661
  294MOL0     H40571   5.020   1.263  10.619 -3.7021  1.6430  0.9478
  294MOL0     H40572   5.054   1.358  10.470 -0.2422 -1.4584 -2.8800
  295MOL0     O40573   2.798   8.244  10.545  0.1260  0.1287 -0.5258
  295MOL0     C40574   2.684   8.223  10.501 -0.1516  0.2498 -0.4324
  295MOL0     O40575   2.647   8.192  10.371 -0.5101  0.0962  0.1121
  295MOL0     C40576   2.740   8.149  10.277  0.6220 -0.5619  0.0192
  295MOL0     C40577   2.878   8.118  10.291  0.3023  0.7345  0.8539
  295MOL0     C40578   2.949   8.111  10.172 -0.7117 -0.4237 -0.0043
  295MOL0     C40579   2.894   8.122  10.047  1.0324 -0.0976  0.2993
  295MOL0     O40580   2.965   8.101   9.936  0.1330 -0.2592 -0.0329
  295MOL0     C40581   2.934   8.185   9.820  0.2188 -0.1840 -0.1481
  295MOL0     C40582   3.051   8.202   9.729 -0.0454  0.3989  0.8049
  295MOL0     C40583   3.107   8.073   9.657  1.0388  0.8445  0.0823
  295MOL0     C40584   3.245   8.104   9.578  0.5611 -0.0501  1.3608
  295MOL0     C40585   3.274   7.965   9.513  0.3459  0.3051  0.2188
  295MOL0     C40586   3.409   7.978   9.438  0.5896 -0.1575 -0.7544
  295MOL0     C40587   3.401   7.986   9.284  0.0853  0.3051  0.1469
  295MOL0     C40588   3.323   7.871   9.220  0.1844 -0.2595 -0.9018
  295MOL0     N40589   3.392   7.823   9.097  0.7741  0.7299  0.2914
  295MOL0     C40590   3.331   7.827   8.973 -0.5745  0.4363  0.0295
  295MOL0     C40591   3.420   7.760   8.893 -0.7136  0.3536  0.7288
  295MOL0     C40592   3.427   7.737   8.744  0.3192 -0.3264 -0.0604
  295MOL0     C40593   3.339   7.837   8.660  0.1512  0.8305  0.1537
  295MOL0     C40594   3.210   7.776   8.603 -0.7079  0.0354 -0.6846
  295MOL0     C40595   3.084   7.793   8.689 -0.7928 -0.2913 -0.8666
  295MOL0     O40596   3.050   7.930   8.703 -0.3093 -0.1461  0.2849
  295MOL0     C40597   2.989   7.992   8.603  0.3451 -1.6017 -0.3543
  295MOL0     C40598   2.984   8.129   8.618 -0.1322  0.0870  0.7510
  295MOL0     C40599   2.923   8.216   8.529 -0.0864  0.1772 -0.2721
  295MOL0     C40600   2.917   8.365   8.561 -0.1193  0.2753  0.5171
  295MOL0     C40601   2.853   8.154   8.416 -0.0368 -0.4134  0.0450
  295MOL0     C40602   2.783   8.226   8.314  0.1042  0.0171  0.0786
  295MOL0     O40603   2.662   8.174   8.279  0.7162  0.0756  0.4841
  295MOL0     C40604   2.578   8.225   8.182 -0.4149  0.1968 -0.0493
  295MOL0     C40605   2.599   8.335   8.095 -0.3569  1.3928 -0.9619
  295MOL0     C40606   2.491   8.361   8.005 -0.4704  0.7221 -0.4391
  295MOL0     C40607   2.376   8.282   7.992 -0.3945 -0.3792 -0.0934
  295MOL0     O40608   2.267   8.303   7.915  0.5279 -0.2025 -0.6531
  295MOL0     C40609   2.267   8.402   7.818 -0.1094  0.1924 -0.5809
  295MOL0     C40610   2.139   8.409   7.735  0.3059  0.4043  0.6168
  295MOL0     C40611   2.012   8.448   7.813  0.6831 -0.2554  0.2955
  295MOL0     C40612   2.016   8.600   7.839 -0.1746 -0.1693  0.2652
  295MOL0     C40613   1.877   8.657   7.845 -0.2761  0.6049  0.3851
  295MOL0     C40614   1.843   8.809   7.864 -0.6255 -0.6729  0.6489
  295MOL0     C40615   1.908   8.866   7.993 -1.1375  0.3398 -0.1614
  295MOL0     C40616   1.850   8.999   8.034  0.2234 -0.3958  0.2151
  295MOL0    Cl40617   1.898   9.127   7.918  0.3215  0.1245 -0.0048
  295MOL0     C40618   2.364   8.177   8.070 -0.2746  0.1100 -0.2677
  295MOL0     C40619   2.466   8.143   8.160  0.6374 -0.3705 -0.4545
  295MOL0     O40620   2.851   8.311   8.260  0.1559 -0.2207  1.2565
  295MOL0     C40621   2.854   8.021   8.404 -1.3524  0.9437 -0.0636
  295MOL0     C40622   2.923   7.941   8.493 -0.2578  0.3856  0.7137
  295MOL0     N40623   3.521   7.710   8.973 -1.3008 -0.5435 -0.2533
  295MOL0     N40624   3.499   7.738   9.097 -0.3044  0.2389  0.1780
  295MOL0     C40625   2.755   8.153  10.033  0.5327  0.2712 -0.9725
  295MOL0     C40626   2.682   8.165  10.147  0.3788 -0.3902 -1.4462
  295MOL0     C40627   2.560   8.221  10.583  0.6472 -1.1421 -0.0591
  295MOL0     C40628   2.462   8.126  10.569 -0.2615  0.1183  0.0164
  295MOL0     C40629   2.379   8.105  10.672 -0.1353 -0.2840  0.1806
  295MOL0     C40630   2.348   8.203  10.764  1.2604  0.7700 -0.2867
  295MOL0     O40631   2.245   8.177  10.849  0.3086 -0.1287 -0.2397
  295MOL0     C40632   2.260   8.223  10.989  0.7642  0.1869 -0.1421
  295MOL0     C40633   2.273   8.105  11.091 -0.7269  0.3035 -0.5680
  295MOL0     C40634   2.134   8.039  11.107  1.0087 -0.2997  0.2538
  295MOL0     C40635   2.132   7.952  11.233  0.6312 -0.3628 -0.2289
  295MOL0     C40636   2.013   7.990  11.306 -0.5594 -0.1120  0.5872
  295MOL0     C40637   1.910   8.013  11.358  0.3751  0.6565 -0.4991
  295MOL0     C40638   2.423   8.312  10.762 -0.1379 -0.2784 -0.3697
  295MOL0     C40639   2.526   8.329  10.670 -0.1341 -0.7943  0.9229
  295MOL0     C40640   2.594   8.460  10.675 -0.3258 -0.7764  0.1578
  295MOL0     H40641   2.925   8.115  10.389  1.3161  2.9374  0.5060
  295MOL0     H40642   3.057   8.103  10.186 -0.9885  1.2168  4.7580
  295MOL0     H40643   2.898   8.284   9.850 -2.6193 -1.7955  2.4299
  295MOL0     H40644   2.849   8.139   9.767 -1.4732  0.0998  2.1314
  295MOL0     H40645   3.032   8.275   9.649 -3.3384 -0.4437  0.6709
  295MOL0     H40646   3.134   8.234   9.792  1.2702  0.9826 -1.1139
  295MOL0     H40647   3.120   7.987   9.723  0.6422  3.5461  4.0998
  295MOL0     H40648   3.033   8.026   9.592  0.4181  2.0721 -0.1323
  295MOL0     H40649   3.232   8.183   9.504  1.3425  1.1121  2.4259
  295MOL0     H40650   3.328   8.133   9.643  1.4475 -1.9190  1.1252
  295MOL0     H40651   3.195   7.922   9.450  0.1182  0.4742  0.3892
  295MOL0     H40652   3.283   7.902   9.601 -1.8239 -2.5263 -1.4088
  295MOL0     H40653   3.472   8.064   9.460  2.3175 -1.1502 -1.5967
  295MOL0     H40654   3.458   7.885   9.470  0.7295 -0.9575 -3.0684
  295MOL0     H40655   3.506   7.984   9.254 -0.2290 -1.0282 -0.9712
  295MOL0     H40656   3.352   8.077   9.248 -0.3391 -0.7450 -2.1161
  295MOL0     H40657   3.314   7.782   9.282 -0.1934  0.0969 -0.4297
  295MOL0     H40658   3.227   7.919   9.195  0.3546  4.1123  4.8515
  295MOL0     H40659   3.240   7.879   8.943  1.1572  2.1502 -2.7848
  295MOL0     H40660   3.400   7.633   8.726 -0.5565 -0.2868  0.9219
  295MOL0     H40661   3.526   7.764   8.707  0.7661 -0.8527  0.7493
  295MOL0     H40662   3.315   7.932   8.709 -1.4392 -0.3599  1.7874
  295MOL0     H40663   3.404   7.873   8.580  3.3986 -0.1752  2.1443
  295MOL0     H40664   3.196   7.835   8.512  0.6582 -0.8425 -1.4835
  295MOL0     H40665   3.232   7.672   8.577  0.9079 -0.1937  1.3630
  295MOL0     H40666   2.997   7.744   8.644 -2.7611  2.0383  0.1873
  295MOL0     H40667   3.092   7.748   8.788  1.0543 -0.4684 -1.0699
  295MOL0     H40668   3.033   8.177   8.702 -0.5841 -0.7380  1.5050
  295MOL0     H40669   2.822   8.397   8.605 -1.2370  2.3628 -2.9514
  295MOL0     H40670   2.932   8.421   8.468  0.6441  0.6144  0.8381
  295MOL0     H40671   2.998   8.394   8.629 -0.2115 -0.7548  1.0824
  295MOL0     H40672   2.692   8.390   8.099 -0.0395  1.3804 -4.6494
  295MOL0     H40673   2.498   8.452   7.946  2.1209  0.1274 -1.1662
  295MOL0     H40674   2.301   8.499   7.856  1.3286  0.1940 -1.7821
  295MOL0     H40675   2.351   8.383   7.751  0.4926 -2.3621  0.7899
  295MOL0     H40676   2.151   8.482   7.655 -1.0598  1.4133  1.2961
  295MOL0     H40677   2.107   8.323   7.676  1.1429  1.5738 -1.6614
  295MOL0     H40678   2.010   8.391   7.906 -0.1348 -2.6536 -1.0999
  295MOL0     H40679   1.918   8.419   7.766  0.2907 -3.1733  2.5703
  295MOL0     H40680   2.071   8.654   7.762 -1.7028 -1.3959 -1.7885
  295MOL0     H40681   2.071   8.613   7.933  0.0139 -2.7358  0.5978
  295MOL0     H40682   1.841   8.629   7.745  1.6713 -1.4673  0.1626
  295MOL0     H40683   1.826   8.599   7.922  0.5349  1.0234  1.2523
  295MOL0     H40684   1.737   8.835   7.868 -0.3570  0.2634  2.4080
  295MOL0     H40685   1.875   8.862   7.773 -1.6971  2.8387  2.1409
  295MOL0     H40686   2.015   8.870   7.971 -0.7448 -0.7782  1.3622
  295MOL0     H40687   1.902   8.799   8.079 -1.2739 -0.8506 -1.0676
  295MOL0     H40688   1.872   9.041   8.132  1.4071  3.0668 -1.3561
  295MOL0     H40689   1.743   8.977   8.033  0.1396 -0.1962 -2.3230
  295MOL0     H40690   2.284   8.103   8.069 -0.8068  0.6197  1.2654
  295MOL0     H40691   2.449   8.055   8.221 -1.1468  2.8225  4.1402
  295MOL0     H40692   2.802   7.970   8.323 -1.1304 -2.8607  1.9698
  295MOL0     H40693   2.909   7.834   8.478 -2.6096  0.8582 -1.0779
  295MOL0     H40694   2.716   8.170   9.933  3.4375  0.4326 -2.1872
  295MOL0     H40695   2.578   8.198  10.142  1.0654  1.8517 -2.1877
  295MOL0     H40696   2.459   8.060  10.483  0.3949 -2.9880  2.1948
  295MOL0     H40697   2.305   8.026  10.663 -0.1180 -0.1440 -1.3801
  295MOL0     H40698   2.334   8.303  11.000 -0.0692  0.9089  0.4046
  295MOL0     H40699   2.173   8.280  11.024  1.8828  1.1952  1.0914
  295MOL0     H40700   2.313   8.137  11.187 -0.9727  0.0755 -0.3885
  295MOL0     H40701   2.349   8.040  11.045  0.3886  1.2328 -0.1002
  295MOL0     H40702   2.062   8.122  11.112  0.8237  0.0540 -4.1587
  295MOL0     H40703   2.117   7.978  11.018  0.8792 -1.4463  1.0542
  295MOL0     H40704   2.220   7.970  11.296  1.6353 -0.7127 -1.5016
  295MOL0     H40705   2.126   7.846  11.209 -0.4504 -0.1595 -0.9229
  295MOL0     H40706   1.815   8.044  11.397  0.1495  1.0608 -1.3342
  295MOL0     H40707   2.407   8.398  10.826  3.4375 -0.9789  1.7779
  295MOL0     H40708   2.605   8.484  10.569 -0.2181 -2.3530 -0.2250
  295MOL0     H40709   2.526   8.534  10.718  1.7403  0.7695  0.8803
  295MOL0     H40710   2.688   8.456  10.730 -0.7880 -0.3116  1.0010
  296MOL0     O40711   9.394   4.955   9.938  0.6200  0.4861  0.4972
  296MOL0     C40712   9.371   4.915  10.056  0.0301  0.4016  0.5729
  296MOL0     O40713   9.446   4.955  10.165  0.6723 -0.0656 -0.5395
  296MOL0     C40714   9.538   5.060  10.158  0.6612  0.1243  0.1368
  296MOL0     C40715   9.669   5.026  10.134  0.5019  0.1122 -0.2886
  296MOL0     C40716   9.757   5.132  10.123  0.0891 -0.2015 -0.7251
  296MOL0     C40717   9.719   5.266  10.129  0.4159 -0.6873 -0.3804
  296MOL0     O40718   9.816   5.360  10.121  0.0291 -0.2009 -0.1991
  296MOL0     C40719   9.946   5.330  10.057 -0.3518  0.0743  0.3996
  296MOL0     C40720  10.007   5.474  10.039  0.2232  0.3689 -0.3881
  296MOL0     C40721  10.106   5.462   9.924 -0.2522  0.1264  0.5398
  296MOL0     C40722  10.198   5.589   9.908  0.8204 -0.5517  0.0432
  296MOL0     C40723  10.323   5.559   9.824 -0.7087 -0.8427  1.1298
  296MOL0     C40724  10.436   5.479   9.885  0.5916 -0.3743 -0.6436
  296MOL0     C40725  10.571   5.509   9.830 -0.2117 -0.3903  0.0817
  296MOL0     C40726  10.638   5.632   9.907  0.1368  0.0173 -0.8443
  296MOL0     N40727  10.776   5.642   9.864 -0.1239 -0.6661  0.2544
  296MOL0     C40728  10.830   5.697   9.750  0.6285 -0.0074 -0.5299
  296MOL0     C40729  10.969   5.686   9.765 -0.2020  0.6047  0.1220
  296MOL0     C40730  11.065   5.707   9.648 -0.3325  0.7415 -0.2741
  296MOL0     C40731  11.162   5.820   9.669  0.7421 -0.3724  0.5334
  296MOL0     C40732  11.275   5.804   9.768  0.1422 -0.7007 -0.0285
  296MOL0     C40733  11.327   5.939   9.815  0.8531  0.3279 -0.2012
  296MOL0     O40734  11.433   5.932   9.910  0.4603  0.9296 -0.1325
  296MOL0     C40735  11.565   5.906   9.868  0.7728  0.5312 -0.8171
  296MOL0     C40736  11.594   5.877   9.731 -0.1983 -0.6220 -0.1101
  296MOL0     C40737  11.733   5.856   9.694 -0.4687 -0.5806 -0.6817
  296MOL0     C40738  11.768   5.814   9.551  0.5061 -0.2598 -1.4038
  296MOL0     C40739  11.829   5.872   9.793 -0.5544 -1.2073  1.4380
  296MOL0     C40740  11.973   5.877   9.770 -0.1786 -0.4537 -0.1896
  296MOL0     O40741  12.060   5.805   9.845 -0.0970  0.0902 -0.1480
  296MOL0     C40742  12.195   5.816   9.821  0.2232 -0.9247 -0.4034
  296MOL0     C40743  12.273   5.712   9.786  0.0351  0.3163  0.0874
  296MOL0     C40744  12.409   5.724   9.771 -0.1536  0.3675  0.0650
  296MOL0     C40745  12.481   5.843   9.797  0.4810  0.3996  0.1326
  296MOL0     O40746  12.614   5.844   9.804  0.5230  0.2641 -0.1777
  296MOL0     C40747  12.691   5.908   9.706 -0.2499 -0.5707 -0.3763
  296MOL0     C40748  12.849   5.885   9.721 -0.1782  0.2632  0.1774
  296MOL0     C40749  12.925   5.995   9.641  0.1231 -0.5683  0.2018
  296MOL0     C40750  13.077   5.973   9.629  0.1721  0.5969  0.6217
  296MOL0     C40751  13.121   5.838   9.560  0.3452  0.0290 -0.1069
  296MOL0     C40752  13.262   5.787   9.581 -0.0595  0.2139 -0.8384
  296MOL0     C40753  13.376   5.884   9.603 -0.2807 -0.8239 -0.7536
  296MOL0     C40754  13.513   5.823   9.590  0.0363  0.0283  0.3319
  296MOL0    Cl40755  13.561   5.797   9.416  0.1930 -0.0479  0.0434
  296MOL0     C40756  12.402   5.955   9.825 -0.7934  0.4169 -0.9726
  296MOL0     C40757  12.263   5.943   9.834  0.0011  0.1476  0.4132
  296MOL0     O40758  11.999   5.954   9.680  0.0604  0.0229  0.0460
  296MOL0     C40759  11.793   5.873   9.924  0.5590 -0.9005  0.1867
  296MOL0     C40760  11.664   5.899   9.963  0.8468 -1.4116 -0.8786
  296MOL0     N40761  10.992   5.625   9.887 -0.0397 -0.3287  0.8835
  296MOL0     N40762  10.882   5.600   9.943 -0.3301 -0.3875  0.3002
  296MOL0     C40763   9.587   5.304  10.161  0.0166 -0.1874 -0.1726
  296MOL0     C40764   9.493   5.190  10.172 -1.1109  0.4386 -0.5155
  296MOL0     C40765   9.286   4.790  10.071 -0.5306 -0.8831 -0.4644
  296MOL0     C40766   9.302   4.725  10.194 -0.0901  0.7152  0.8293
  296MOL0     C40767   9.229   4.607  10.223  0.1500  0.7902 -0.1762
  296MOL0     C40768   9.139   4.559  10.127 -0.0273  0.2694  0.0691
  296MOL0     O40769   9.062   4.443  10.149 -0.9196  0.4058 -0.4507
  296MOL0     C40770   9.059   4.381  10.274 -0.4333  0.2141 -1.2049
  296MOL0     C40771   8.958   4.263  10.263 -1.1319 -0.1788  0.4861
  296MOL0     C40772   9.000   4.165  10.144 -0.4555  0.0202  0.1759
  296MOL0     C40773   8.991   4.216  10.000  0.0701 -0.2252 -0.4443
  296MOL0     C40774   8.855   4.258   9.981 -0.5607 -0.8472  0.5478
  296MOL0     C40775   8.762   4.325   9.953  0.7931  0.4299  0.6308
  296MOL0     C40776   9.119   4.624  10.005 -1.4998  0.5913  0.1827
  296MOL0     C40777   9.189   4.739   9.976  0.0189  1.0063  0.3190
  296MOL0     C40778   9.150   4.819   9.855 -0.3810 -0.3137 -0.1001
  296MOL0     H40779   9.703   4.924  10.152 -1.3683 -0.4150  0.4683
  296MOL0     H40780   9.862   5.105  10.118 -0.1283 -0.8851 -1.9579
  296MOL0     H40781   9.929   5.279   9.961 -0.3867  1.2831 -0.2493
  296MOL0     H40782  10.006   5.261  10.118 -3.1817 -1.7678  1.3059
  296MOL0     H40783   9.922   5.541  10.020  0.9311  2.0330  1.8656
  296MOL0     H40784  10.051   5.513  10.131  0.6782 -0.2138 -0.3531
  296MOL0     H40785  10.184   5.386   9.939  2.1540  1.9665 -1.7450
  296MOL0     H40786  10.060   5.443   9.827 -0.0378  5.5538 -0.9506
  296MOL0     H40787  10.130   5.656   9.854 -1.9414 -1.1365  2.4890
  296MOL0     H40788  10.219   5.634  10.005 -1.0238  1.0003 -0.2120
  296MOL0     H40789  10.358   5.659   9.795 -2.6354 -0.0669  1.3082
  296MOL0     H40790  10.295   5.502   9.735  0.5548 -0.9628  0.7891
  296MOL0     H40791  10.432   5.513   9.989  0.9878 -0.3048 -0.6488
  296MOL0     H40792  10.409   5.374   9.875 -0.3200 -0.2481  0.3038
  296MOL0     H40793  10.554   5.537   9.726 -0.0854  1.6821  0.5682
  296MOL0     H40794  10.635   5.423   9.850 -3.4890 -2.7592  1.1831
  296MOL0     H40795  10.578   5.719   9.878  0.1499 -0.2896 -1.8414
  296MOL0     H40796  10.635   5.625  10.016 -0.4284 -2.8517 -0.9563
  296MOL0     H40797  10.763   5.730   9.671 -0.8947  2.0552  1.4977
  296MOL0     H40798  11.009   5.722   9.555  1.4256  2.2208 -1.1484
  296MOL0     H40799  11.119   5.613   9.634  1.8875  1.7883  0.8706
  296MOL0     H40800  11.196   5.865   9.575 -3.1039  0.8826 -0.4281
  296MOL0     H40801  11.094   5.898   9.706  0.6440  0.3227 -1.0346
  296MOL0     H40802  11.237   5.754   9.858  0.4825 -2.9235 -1.0329
  296MOL0     H40803  11.357   5.733   9.749 -0.3489 -1.5930  1.0715
  296MOL0     H40804  11.343   6.002   9.727 -1.5334 -0.5067 -1.3413
  296MOL0     H40805  11.245   5.981   9.874 -0.6428 -1.8623 -0.5796
  296MOL0     H40806  11.521   5.862   9.651 -1.5700 -2.1949  1.3352
  296MOL0     H40807  11.832   5.891   9.507  0.6788 -1.5210 -3.5331
  296MOL0     H40808  11.691   5.804   9.474 -0.6972 -1.5343 -0.1014
  296MOL0     H40809  11.837   5.729   9.557  0.2693 -0.3601  0.3993
  296MOL0     H40810  12.217   5.620   9.772  3.7989 -2.8373  3.4027
  296MOL0     H40811  12.460   5.633   9.744  0.4279  1.0253 -1.1606
  296MOL0     H40812  12.660   5.868   9.609  0.8713 -0.3589 -0.8390
  296MOL0     H40813  12.672   6.015   9.721  0.2032 -0.4936 -0.3357
  296MOL0     H40814  12.873   5.873   9.827 -0.9416 -0.0609  0.3223
  296MOL0     H40815  12.864   5.791   9.666  0.6120  0.6032 -0.1982
  296MOL0     H40816  12.911   6.085   9.703 -0.3969 -1.8565  2.0527
  296MOL0     H40817  12.880   6.013   9.543 -2.2469  3.5704  1.7826
  296MOL0     H40818  13.121   5.983   9.729 -0.0012  1.2413  0.6422
  296MOL0     H40819  13.128   6.053   9.575  2.2523 -1.2034 -0.2034
  296MOL0     H40820  13.061   5.756   9.598 -0.4159 -0.3715 -2.0296
  296MOL0     H40821  13.095   5.842   9.454  1.4064  0.3408 -0.3682
  296MOL0     H40822  13.283   5.723   9.494 -0.6742  0.1256 -0.9302
  296MOL0     H40823  13.265   5.720   9.667  1.6163  0.5231 -0.6281
  296MOL0     H40824  13.367   5.925   9.704  0.3276 -0.3469 -0.8871
  296MOL0     H40825  13.371   5.963   9.527 -4.1626 -1.8717 -1.8160
  296MOL0     H40826  13.519   5.731   9.649 -2.0053  2.9390  5.8559
  296MOL0     H40827  13.591   5.888   9.632 -1.0609  0.1033  2.4016
  296MOL0     H40828  12.445   6.053   9.844 -0.8059  0.4266 -0.9950
  296MOL0     H40829  12.205   6.034   9.825 -2.4816 -1.5271 -2.4349
  296MOL0     H40830  11.864   5.871  10.005 -0.1440  0.6385  0.8774
  296MOL0     H40831  11.641   5.905  10.069  1.0233 -1.2976 -0.8464
  296MOL0     H40832   9.571   5.411  10.168  3.6608  0.7406 -2.7983
  296MOL0     H40833   9.387   5.207  10.192 -1.0220  0.8999 -0.4062
  296MOL0     H40834   9.385   4.744  10.261  0.3912  1.9824 -0.0918
  296MOL0     H40835   9.248   4.546  10.311  0.1583 -1.5066 -1.6768
  296MOL0     H40836   9.155   4.337  10.301 -1.5980 -0.8199  1.7080
  296MOL0     H40837   9.030   4.457  10.346 -0.7665 -0.1172 -0.9837
  296MOL0     H40838   8.860   4.308  10.244 -1.0656  1.5030  3.4430
  296MOL0     H40839   8.952   4.216  10.362  2.7884 -1.6640  0.1774
  296MOL0     H40840   9.107   4.146  10.158 -0.0320  0.1787 -2.3863
  296MOL0     H40841   8.954   4.067  10.160  1.8766 -0.7995  2.5753
  296MOL0     H40842   9.012   4.133   9.932  2.6871  0.5727 -0.7070
  296MOL0     H40843   9.060   4.297   9.974 -0.0793  0.4621  1.2017
  296MOL0     H40844   8.691   4.400   9.926 -0.4448 -1.3483 -1.3428
  296MOL0     H40845   9.042   4.584   9.940 -1.2396 -0.0667  0.2700
  296MOL0     H40846   9.055   4.774   9.826 -1.7742  2.8291 -0.8826
  296MOL0     H40847   9.134   4.925   9.877 -2.1232 -0.5800  0.0420
  296MOL0     H40848   9.221   4.806   9.773 -0.2418  1.3008 -0.2819
  297MOL0     O40849   0.747   4.875   2.606 -0.8732  0.3294 -0.5171
  297MOL0     C40850   0.779   4.964   2.687 -0.5363 -0.8017  0.2877
  297MOL0     O40851   0.903   5.023   2.696  0.4521 -0.6871 -0.7042
  297MOL0     C40852   1.011   4.973   2.631 -0.0402  0.5656 -0.2608
  297MOL0     C40853   1.055   4.843   2.649 -1.1104  0.0437 -0.2659
  297MOL0     C40854   1.159   4.789   2.565 -0.7401  0.0104 -0.6896
  297MOL0     C40855   1.212   4.865   2.466 -0.5634 -0.1306  0.0965
  297MOL0     O40856   1.288   4.824   2.356 -0.5067  0.2059 -0.6249
  297MOL0     C40857   1.284   4.681   2.318 -0.2704 -0.5105 -0.2252
  297MOL0     C40858   1.398   4.607   2.393 -0.6060 -0.5341  0.0171
  297MOL0     C40859   1.350   4.475   2.447  0.5398  0.8263 -0.1976
  297MOL0     C40860   1.333   4.364   2.350  0.3637 -0.1038 -0.4731
  297MOL0     C40861   1.301   4.236   2.421  0.7645 -0.6007  0.8621
  297MOL0     C40862   1.292   4.112   2.321 -0.0288  0.0628 -0.3585
  297MOL0     C40863   1.159   4.105   2.241  0.1703  0.3209  0.6703
  297MOL0     C40864   1.036   4.129   2.331  0.1597 -0.3442 -0.3741
  297MOL0     N40865   0.905   4.144   2.266 -0.3368  0.9152  0.0325
  297MOL0     C40866   0.875   4.252   2.190  1.1537  0.4447 -1.0328
  297MOL0     C40867   0.737   4.237   2.169 -0.1940  0.1788 -0.3250
  297MOL0     C40868   0.633   4.325   2.098 -0.3371 -0.4981  0.2129
  297MOL0     C40869   0.557   4.242   1.996  0.2459 -0.0678  0.0263
  297MOL0     C40870   0.640   4.204   1.875  0.0685  1.2567 -0.1021
  297MOL0     C40871   0.564   4.136   1.766  0.1402 -0.2501  0.0352
  297MOL0     O40872   0.640   4.137   1.646  0.1240 -0.7240 -0.5340
  297MOL0     C40873   0.735   4.039   1.640  0.5062 -0.4063  0.4172
  297MOL0     C40874   0.840   4.066   1.568 -0.1612  0.0619  0.7231
  297MOL0     C40875   0.945   3.983   1.529 -0.5310  0.2968 -0.0900
  297MOL0     C40876   1.045   4.046   1.441 -0.2219  0.5973 -0.2759
  297MOL0     C40877   0.940   3.849   1.578  0.2601  0.3505 -1.0327
  297MOL0     C40878   1.046   3.746   1.551  0.9604 -0.3069  0.4761
  297MOL0     O40879   1.004   3.616   1.536  0.4689  1.1501  0.4822
  297MOL0     C40880   1.103   3.513   1.535 -0.0170 -0.1092 -0.2162
  297MOL0     C40881   1.072   3.391   1.579 -0.2560  1.2926 -0.8300
  297MOL0     C40882   1.162   3.281   1.575  0.5610  1.0891  0.6036
  297MOL0     C40883   1.300   3.296   1.549  0.6428  0.4646 -0.2833
  297MOL0     O40884   1.392   3.192   1.555  0.3828  0.0870  0.1592
  297MOL0     C40885   1.369   3.105   1.663 -0.4587 -0.0750  0.2475
  297MOL0     C40886   1.505   3.079   1.728  0.5629 -0.4418  0.4071
  297MOL0     C40887   1.489   2.990   1.851  0.0461  0.2535 -0.5842
  297MOL0     C40888   1.625   2.946   1.901 -0.3714  0.5827 -1.3571
  297MOL0     C40889   1.613   2.843   2.021  0.8951  0.1630  0.3801
  297MOL0     C40890   1.596   2.704   1.971  0.0843 -0.1815 -0.0843
  297MOL0     C40891   1.714   2.639   1.900  0.5631  0.0112  0.2337
  297MOL0     C40892   1.682   2.502   1.849 -0.1437 -0.4828 -0.2504
  297MOL0    Cl40893   1.806   2.450   1.737  0.0618  0.1206  0.1117
  297MOL0     C40894   1.331   3.419   1.489  0.0169 -0.2623 -0.3863
  297MOL0     C40895   1.235   3.528   1.483  0.1200 -0.4755 -0.3536
  297MOL0     O40896   1.157   3.782   1.572  0.3459  0.5067 -0.3186
  297MOL0     C40897   0.822   3.813   1.654 -0.5426 -0.0947 -0.4426
  297MOL0     C40898   0.720   3.907   1.684  0.0029 -0.2049 -0.0467
  297MOL0     N40899   0.697   4.119   2.225 -0.3597  0.1989 -0.0093
  297MOL0     N40900   0.796   4.065   2.294 -0.8719 -0.7215  0.1487
  297MOL0     C40901   1.163   4.999   2.451 -0.5661 -0.0702  0.3041
  297MOL0     C40902   1.070   5.051   2.536  0.0687  0.2452 -0.1273
  297MOL0     C40903   0.669   5.028   2.758  0.3434 -0.0286  0.1175
  297MOL0     C40904   0.642   5.164   2.712 -0.5244 -0.4819 -0.3772
  297MOL0     C40905   0.544   5.237   2.774  0.5490 -0.0084  0.7889
  297MOL0     C40906   0.465   5.192   2.880 -0.2016  0.5085 -0.2142
  297MOL0     O40907   0.375   5.276   2.942 -0.4630 -0.1067 -0.4839
  297MOL0     C40908   0.237   5.234   2.933 -0.5687  0.0018 -0.0668
  297MOL0     C40909   0.181   5.238   2.789 -0.8629 -0.5958 -0.3739
  297MOL0     C40910   0.055   5.322   2.782  0.4062 -0.8175  0.6162
  297MOL0     C40911   0.004   5.307   2.631  0.1404  0.4364 -0.4464
  297MOL0     C40912  -0.127   5.371   2.612 -0.1770 -0.3949 -0.2734
  297MOL0     C40913  -0.233   5.433   2.600 -0.4087  0.0884  0.3278
  297MOL0     C40914   0.495   5.061   2.925  0.3227  0.4447 -0.7246
  297MOL0     C40915   0.602   4.985   2.873  1.6295 -0.9506  0.0460
  297MOL0     C40916   0.634   4.855   2.933 -0.3288 -1.1895 -0.6748
  297MOL0     H40917   0.999   4.787   2.722 -5.9114 -3.7962 -5.9203
  297MOL0     H40918   1.188   4.685   2.580 -1.4445 -0.0628  0.2677
  297MOL0     H40919   1.320   4.675   2.215  0.0674  2.5616 -0.3882
  297MOL0     H40920   1.186   4.644   2.349 -2.0048  3.8150  0.0965
  297MOL0     H40921   1.494   4.582   2.348  0.1561 -1.6537  2.1473
  297MOL0     H40922   1.415   4.670   2.481 -2.9967 -0.9673  0.8608
  297MOL0     H40923   1.436   4.454   2.511  0.8628  1.6552 -0.3490
  297MOL0     H40924   1.268   4.476   2.519  0.6377 -0.9912 -0.0103
  297MOL0     H40925   1.253   4.399   2.284 -0.0353 -0.6680 -0.2943
  297MOL0     H40926   1.425   4.355   2.291 -0.1747 -2.8810 -1.0179
  297MOL0     H40927   1.220   4.250   2.493 -0.9634 -1.7192 -0.7605
  297MOL0     H40928   1.385   4.224   2.490 -0.6675  1.0212  3.0053
  297MOL0     H40929   1.379   4.095   2.256 -0.5156 -1.0569 -0.7299
  297MOL0     H40930   1.293   4.023   2.384  0.8182  0.4933  0.2662
  297MOL0     H40931   1.151   4.005   2.198 -1.4768 -0.1605  1.9986
  297MOL0     H40932   1.168   4.172   2.155 -0.4650 -2.6566 -1.8903
  297MOL0     H40933   1.030   4.047   2.402 -0.3042  0.1103  0.1181
  297MOL0     H40934   1.039   4.217   2.395  1.1718 -1.9295  1.8829
  297MOL0     H40935   0.936   4.334   2.154  1.0703  0.0384 -2.1160
  297MOL0     H40936   0.696   4.401   2.050  3.5755 -2.7103  1.3459
  297MOL0     H40937   0.569   4.376   2.170  0.8461 -0.4315  1.2587
  297MOL0     H40938   0.521   4.150   2.043 -0.7239  0.0603 -0.4473
  297MOL0     H40939   0.470   4.294   1.955 -1.0920 -1.0157  1.5465
  297MOL0     H40940   0.689   4.290   1.830  0.3536  1.8294  1.2640
  297MOL0     H40941   0.714   4.134   1.915 -1.9899 -1.0432 -0.0679
  297MOL0     H40942   0.537   4.039   1.810 -2.9088  0.6775  0.4633
  297MOL0     H40943   0.473   4.195   1.750  1.4562  2.3383  1.5880
  297MOL0     H40944   0.854   4.169   1.535  3.0830 -0.9556 -1.6055
  297MOL0     H40945   1.007   4.130   1.382 -1.8034  1.4676  1.8288
  297MOL0     H40946   1.091   3.962   1.387 -1.3363 -0.0351 -0.2747
  297MOL0     H40947   1.117   4.095   1.508  0.1217 -2.4036  1.7684
  297MOL0     H40948   0.966   3.370   1.581 -0.0533  0.1000  1.8716
  297MOL0     H40949   1.129   3.180   1.598 -1.5884  1.5401 -0.3412
  297MOL0     H40950   1.308   3.149   1.743  2.7936  1.2996  2.1822
  297MOL0     H40951   1.306   3.022   1.632 -2.2462  1.4254 -0.3358
  297MOL0     H40952   1.573   3.028   1.660  1.7123  1.6005 -0.0691
  297MOL0     H40953   1.548   3.177   1.751 -0.1979 -0.1683  0.7128
  297MOL0     H40954   1.427   2.906   1.818 -1.3579  2.1161 -3.1243
  297MOL0     H40955   1.440   3.038   1.936  1.1527 -0.2161  0.3394
  297MOL0     H40956   1.687   3.034   1.923  0.3977 -0.4663  0.9230
  297MOL0     H40957   1.680   2.897   1.820  1.5975 -0.2957  0.4252
  297MOL0     H40958   1.708   2.856   2.075  2.4452 -2.3820 -1.4871
  297MOL0     H40959   1.535   2.878   2.089 -1.4195 -1.2494 -1.4119
  297MOL0     H40960   1.504   2.704   1.911 -2.0627  1.9151  2.8589
  297MOL0     H40961   1.575   2.651   2.064  0.4233  0.8000  0.5709
  297MOL0     H40962   1.798   2.641   1.970  0.6657  0.0322  0.1092
  297MOL0     H40963   1.737   2.696   1.809  2.4341  0.8643  1.1720
  297MOL0     H40964   1.582   2.509   1.806 -0.4346 -1.5565  0.2135
  297MOL0     H40965   1.662   2.433   1.931 -1.6752  0.4321  0.1832
  297MOL0     H40966   1.430   3.434   1.446 -0.0488  0.1694 -0.3944
  297MOL0     H40967   1.253   3.617   1.424 -1.7533  0.4817  0.4319
  297MOL0     H40968   0.797   3.711   1.680 -0.7709  0.2613  0.8063
  297MOL0     H40969   0.626   3.879   1.730  0.3960 -0.2092  0.7689
  297MOL0     H40970   1.205   5.055   2.369 -0.7821 -1.3420 -0.7082
  297MOL0     H40971   1.039   5.153   2.517 -0.5782  0.4044  1.6164
  297MOL0     H40972   0.702   5.208   2.633  0.2859 -1.7145 -0.4703
  297MOL0     H40973   0.524   5.341   2.754  1.4298 -0.0907 -0.6379
  297MOL0     H40974   0.213   5.133   2.966 -3.5481  1.0144  1.1323
  297MOL0     H40975   0.177   5.301   2.995 -3.9682  0.8679 -3.8850
  297MOL0     H40976   0.176   5.136   2.748  2.7253 -0.7331 -0.8152
  297MOL0     H40977   0.259   5.284   2.728 -0.8979  0.4666  0.3599
  297MOL0     H40978  -0.016   5.285   2.857 -2.5325 -1.2171 -2.1523
  297MOL0     H40979   0.082   5.428   2.789  2.2108 -1.2795  0.9573
  297MOL0     H40980  -0.004   5.206   2.591  2.7138  0.7154 -1.8805
  297MOL0     H40981   0.080   5.349   2.564 -2.5864  0.7036 -3.6314
  297MOL0     H40982  -0.321   5.492   2.584  0.5835  0.6624 -4.3426
  297MOL0     H40983   0.437   5.026   3.010 -0.8264 -0.6857 -1.9294
  297MOL0     H40984   0.669   4.863   3.036 -0.3763  1.2117 -0.7901
  297MOL0     H40985   0.548   4.788   2.928 -1.6522  0.2835  1.1555
  297MOL0     H40986   0.729   4.822   2.889  0.3045 -0.6984  0.2975
  298MOL0     O40987   7.821   9.020   9.088 -0.6330  0.4390  0.3073
  298MOL0     C40988   7.902   9.073   9.000  0.3307 -0.0668 -0.7296
  298MOL0     O40989   8.021   9.133   9.031  0.2791 -0.2629 -0.6889
  298MOL0     C40990   8.055   9.161   9.157  0.2802  0.7433 -0.2453
  298MOL0     C40991   8.028   9.290   9.201  0.0803 -0.2638  0.6363
  298MOL0     C40992   8.068   9.325   9.327  0.6986  0.3122  0.2275
  298MOL0     C40993   8.149   9.239   9.409 -0.5556  0.0358  0.4522
  298MOL0     O40994   8.196   9.280   9.532 -0.6930 -0.7829 -0.5585
  298MOL0     C40995   8.318   9.214   9.582  0.4937 -0.5812 -0.7938
  298MOL0     C40996   8.359   9.275   9.719  0.5114  0.7437  0.4884
  298MOL0     C40997   8.383   9.424   9.708 -0.3449 -0.3062  0.5246
  298MOL0     C40998   8.433   9.476   9.846 -0.2816 -0.9065 -0.0541
  298MOL0     C40999   8.509   9.610   9.860  0.3726 -1.1402  0.1413
  298MOL0     C41000   8.656   9.595   9.837  0.3801  0.2829 -0.2132
  298MOL0     C41001   8.757   9.715   9.882  0.1402  1.1727  0.1092
  298MOL0     C41002   8.899   9.656   9.895 -0.2067 -0.5215  0.0861
  298MOL0     N41003   8.997   9.754   9.938 -0.9434 -0.1005  0.1035
  298MOL0     C41004   9.134   9.745   9.942 -1.2653  0.0681 -0.8171
  298MOL0     C41005   9.180   9.852  10.010  1.1666 -0.2825  0.3082
  298MOL0     C41006   9.328   9.881  10.032 -0.6043  0.3957  0.4823
  298MOL0     C41007   9.339  10.010  10.113  0.5172 -0.4216  0.1176
  298MOL0     C41008   9.482  10.033  10.140 -1.8674 -0.1980 -0.8468
  298MOL0     C41009   9.501  10.154  10.244  0.2759  0.5362 -0.6147
  298MOL0     O41010   9.482  10.282  10.185  0.2109 -0.5923 -0.0996
  298MOL0     C41011   9.589  10.333  10.114 -0.0600  0.8830  0.9778
  298MOL0     C41012   9.600  10.334   9.978 -0.6138  0.3068 -0.2733
  298MOL0     C41013   9.709  10.389   9.906  0.7104 -0.0876 -0.6667
  298MOL0     C41014   9.700  10.374   9.764 -0.7634  0.2484 -0.3941
  298MOL0     C41015   9.813  10.444   9.978 -0.5350 -0.5066 -0.1064
  298MOL0     C41016   9.944  10.483   9.908  0.0994 -0.9306 -0.3818
  298MOL0     O41017   9.941  10.538   9.777  0.0891  1.0713  0.2743
  298MOL0     C41018  10.027  10.638   9.735 -0.2788  0.0903  0.0080
  298MOL0     C41019  10.096  10.723   9.820  0.8845  0.0811 -0.7686
  298MOL0     C41020  10.179  10.822   9.769 -0.6831  0.9301  0.2759
  298MOL0     C41021  10.191  10.844   9.630 -0.3372 -0.5091 -0.0222
  298MOL0     O41022  10.274  10.944   9.596 -0.3840 -0.3566 -0.2189
  298MOL0     C41023  10.199  11.062   9.570 -0.6296 -0.2688 -0.1689
  298MOL0     C41024  10.173  11.099   9.421  0.7441 -0.2166  0.0479
  298MOL0     C41025  10.307  11.112   9.342  0.3000 -0.6198 -0.6562
  298MOL0     C41026  10.394  11.241   9.358  0.7429 -0.7528 -0.1986
  298MOL0     C41027  10.517  11.244   9.266 -0.1241 -0.3608 -0.0962
  298MOL0     C41028  10.597  11.373   9.285  0.0426  0.4932  1.3095
  298MOL0     C41029  10.701  11.389   9.178 -0.8043 -0.3175  0.3787
  298MOL0     C41030  10.827  11.306   9.204 -0.5712 -0.0776  0.4762
  298MOL0    Cl41031  10.946  11.374   9.319  0.2892  0.0291  0.4649
  298MOL0     C41032  10.116  10.762   9.539 -0.7920 -0.0725  0.5974
  298MOL0     C41033  10.035  10.667   9.595  0.1053  0.2556  0.1961
  298MOL0     O41034  10.040  10.496   9.982  0.2668 -0.5965 -0.0900
  298MOL0     C41035   9.814  10.434  10.122  0.0767 -0.8701 -0.1134
  298MOL0     C41036   9.697  10.391  10.180  0.0275  0.4228 -0.3369
  298MOL0     N41037   9.068   9.917  10.061 -0.6239 -0.6346 -0.7693
  298MOL0     N41038   8.966   9.857  10.030 -0.1855  0.6227 -0.3050
  298MOL0     C41039   8.176   9.113   9.364  0.8576  0.1016 -0.1991
  298MOL0     C41040   8.123   9.073   9.240 -0.3017 -0.3039 -0.1479
  298MOL0     C41041   7.877   9.052   8.859  0.5834 -1.2948 -0.2734
  298MOL0     C41042   7.834   8.923   8.822 -0.6360  0.2466 -0.2342
  298MOL0     C41043   7.845   8.887   8.682 -0.1532 -0.6209 -0.2791
  298MOL0     C41044   7.881   8.979   8.580  0.2428 -0.4407 -0.0839
  298MOL0     O41045   7.873   8.942   8.454  0.6352  0.4531 -0.2320
  298MOL0     C41046   7.885   9.045   8.364 -0.2205  0.0101  0.6880
  298MOL0     C41047   7.841   8.981   8.227  0.4523  0.1210 -0.3157
  298MOL0     C41048   7.866   9.088   8.121 -0.2837 -0.1381 -0.2979
  298MOL0     C41049   7.875   9.041   7.978 -0.7572  0.4029 -0.3397
  298MOL0     C41050   7.857   9.152   7.878  0.5561 -0.4513 -0.3746
  298MOL0     C41051   7.834   9.258   7.814  0.3013 -0.0023 -0.3584
  298MOL0     C41052   7.916   9.110   8.629  0.2404  0.0725  0.0830
  298MOL0     C41053   7.917   9.142   8.760  0.7126 -0.1696 -1.4137
  298MOL0     C41054   7.959   9.282   8.795 -0.2355  0.5388  0.3263
  298MOL0     H41055   7.965   9.356   9.142 -1.5159  0.9281  3.4347
  298MOL0     H41056   8.042   9.428   9.348  0.1848  0.3179 -0.4343
  298MOL0     H41057   8.400   9.217   9.509  3.4261 -0.9860  2.2191
  298MOL0     H41058   8.295   9.112   9.615  1.8823 -0.9280 -0.8380
  298MOL0     H41059   8.273   9.265   9.785 -1.1538  0.4779 -1.6359
  298MOL0     H41060   8.453   9.228   9.749  0.9252  1.0936 -0.2177
  298MOL0     H41061   8.455   9.439   9.628 -0.3519 -0.9115  0.3982
  298MOL0     H41062   8.290   9.475   9.679 -0.5534 -2.3032 -2.7581
  298MOL0     H41063   8.340   9.497   9.900  0.4508  3.0101 -0.0289
  298MOL0     H41064   8.474   9.397   9.909  1.7067  0.3436  0.3165
  298MOL0     H41065   8.504   9.667   9.953  2.1630  2.3451 -1.6983
  298MOL0     H41066   8.480   9.681   9.782  1.2507 -2.2003 -1.1934
  298MOL0     H41067   8.682   9.507   9.897  1.5035 -0.5509 -1.8570
  298MOL0     H41068   8.664   9.564   9.732  1.4296 -1.1814  0.2589
  298MOL0     H41069   8.733   9.760   9.978 -0.0655  0.7401  0.2655
  298MOL0     H41070   8.769   9.788   9.801  0.7258 -0.1526 -1.0470
  298MOL0     H41071   8.902   9.575   9.968  2.7271 -0.5345  0.0584
  298MOL0     H41072   8.921   9.616   9.796  1.5866 -3.1643  1.4291
  298MOL0     H41073   9.204   9.677   9.896 -1.3151 -0.5345 -0.0343
  298MOL0     H41074   9.377   9.898   9.935 -0.9617  2.2495  0.5951
  298MOL0     H41075   9.371   9.791  10.076  0.8421  1.3312  1.0620
  298MOL0     H41076   9.294  10.087  10.051  1.0766 -1.2668 -1.3856
  298MOL0     H41077   9.286   9.982  10.205 -2.6138 -2.4637 -2.0899
  298MOL0     H41078   9.531   9.942  10.176  0.7676  1.4858  0.1197
  298MOL0     H41079   9.531  10.056  10.045 -1.7343 -2.6709 -1.4453
  298MOL0     H41080   9.423  10.134  10.318 -0.9721 -1.3058 -2.2942
  298MOL0     H41081   9.600  10.137  10.286 -0.0404  0.5949  0.1625
  298MOL0     H41082   9.514  10.291   9.927  0.8855 -0.3201 -2.4025
  298MOL0     H41083   9.728  10.465   9.709 -3.5983  1.5015  0.0548
  298MOL0     H41084   9.595  10.368   9.733 -0.9285  2.5025 -0.4643
  298MOL0     H41085   9.751  10.287   9.724  1.1586  1.4746 -0.7502
  298MOL0     H41086  10.097  10.715   9.928 -1.0833  0.4983 -0.6848
  298MOL0     H41087  10.234  10.892   9.830  2.1291  1.6230 -2.7667
  298MOL0     H41088  10.107  11.065   9.629  1.1712  0.7158  2.8534
  298MOL0     H41089  10.254  11.141   9.622  0.7652 -2.0527  1.2243
  298MOL0     H41090  10.114  11.015   9.383 -0.1914 -0.5299  2.0354
  298MOL0     H41091  10.122  11.194   9.405  1.1935  0.5441  2.7359
  298MOL0     H41092  10.275  11.101   9.238 -1.3427 -0.9458 -0.1457
  298MOL0     H41093  10.377  11.030   9.360  1.1709 -0.2742 -2.2271
  298MOL0     H41094  10.435  11.245   9.459  1.4648 -1.3916 -0.4594
  298MOL0     H41095  10.335  11.334   9.351  2.8995  0.5612 -3.5536
  298MOL0     H41096  10.580  11.155   9.276  2.3532  1.2425 -0.4831
  298MOL0     H41097  10.480  11.246   9.163  0.5481  0.6180 -0.3429
  298MOL0     H41098  10.653  11.376   9.379  1.4139  0.9201  0.5154
  298MOL0     H41099  10.525  11.453   9.268 -1.3359 -0.7828  0.9711
  298MOL0     H41100  10.716  11.493   9.145 -2.5482 -1.4301 -4.9322
  298MOL0     H41101  10.657  11.357   9.083 -2.9017  3.9981 -0.3784
  298MOL0     H41102  10.878  11.265   9.116  0.2812  1.2913  0.3071
  298MOL0     H41103  10.791  11.215   9.253 -2.7104  0.8121  0.6315
  298MOL0     H41104  10.120  10.764   9.431 -0.2253  1.2464  0.6242
  298MOL0     H41105   9.967  10.614   9.529  0.5861 -0.1522  0.0220
  298MOL0     H41106   9.897  10.467  10.183  0.3771 -0.1711 -0.8772
  298MOL0     H41107   9.702  10.390  10.288  0.8989  1.2895 -0.3528
  298MOL0     H41108   8.226   9.038   9.424 -2.4549  0.6296  3.6433
  298MOL0     H41109   8.142   8.975   9.198 -1.7098 -0.0771 -1.3830
  298MOL0     H41110   7.813   8.842   8.890  3.4206 -1.0274 -0.2154
  298MOL0     H41111   7.831   8.784   8.649  1.8717 -1.5386  1.4635
  298MOL0     H41112   7.822   9.129   8.395  0.4819 -0.1926  2.8641
  298MOL0     H41113   7.984   9.087   8.343  0.0481 -0.9019  0.0375
  298MOL0     H41114   7.736   8.949   8.230 -0.7090  3.5016  1.5086
  298MOL0     H41115   7.902   8.893   8.204 -0.1149 -0.0342 -1.2681
  298MOL0     H41116   7.782   9.158   8.114  1.6012  2.3138 -0.0955
  298MOL0     H41117   7.953   9.153   8.137 -1.3926  1.2735  0.3170
  298MOL0     H41118   7.795   8.968   7.968  0.9742 -1.5489 -0.5351
  298MOL0     H41119   7.964   8.984   7.951 -2.7493 -2.9706 -0.2648
  298MOL0     H41120   7.793   9.346   7.769 -3.2746  0.3215  2.9978
  298MOL0     H41121   7.940   9.186   8.555 -0.6155  0.4304  0.1604
  298MOL0     H41122   7.913   9.321   8.886  0.1254  2.4156 -0.2434
  298MOL0     H41123   8.069   9.280   8.797 -0.2444 -1.1123  2.8459
  298MOL0     H41124   7.928   9.356   8.720  0.0990  1.6938  1.2997
  299MOL0     O41125   4.292  10.382   1.382  0.3168 -0.2972 -0.7429
  299MOL0     C41126   4.283  10.339   1.499 -0.2008  0.5173  0.4796
  299MOL0     O41127   4.353  10.236   1.546 -0.1693  0.8248  0.1936
  299MOL0     C41128   4.458  10.193   1.461  0.4060 -0.6014  1.0072
  299MOL0     C41129   4.478  10.048   1.448  0.0886  0.0352  0.8769
  299MOL0     C41130   4.581   9.994   1.369 -0.9108  1.1278 -0.1038
  299MOL0     C41131   4.675  10.072   1.299  0.3133  0.0584  0.4824
  299MOL0     O41132   4.773  10.012   1.213  0.1626  0.4607 -0.3243
  299MOL0     C41133   4.900  10.064   1.200  0.0883 -0.1395 -0.8455
  299MOL0     C41134   4.970  10.063   1.339  0.4432  0.3237  0.0275
  299MOL0     C41135   4.933   9.948   1.444  0.7290 -0.3850  0.7519
  299MOL0     C41136   5.042   9.948   1.550  0.0064 -0.8811 -0.4725
  299MOL0     C41137   5.027   9.831   1.649 -0.4602  0.3143  0.2641
  299MOL0     C41138   5.106   9.707   1.600 -0.4320 -0.2279  0.3648
  299MOL0     C41139   5.055   9.590   1.691 -0.4303  0.4108 -0.3259
  299MOL0     C41140   5.117   9.448   1.674 -0.3719  0.1121  0.0009
  299MOL0     N41141   5.102   9.365   1.788 -0.5827  0.2593 -0.0787
  299MOL0     C41142   5.154   9.407   1.910  0.1706  0.0309  0.2724
  299MOL0     C41143   5.144   9.298   1.998 -0.0085  0.0556  0.3625
  299MOL0     C41144   5.166   9.291   2.154 -0.7828 -0.1906  0.6938
  299MOL0     C41145   5.070   9.391   2.220  0.3793  0.1317 -0.1448
  299MOL0     C41146   4.925   9.346   2.248  0.6594  0.3819 -0.8447
  299MOL0     C41147   4.843   9.378   2.126  0.5951 -0.5224  0.2713
  299MOL0     O41148   4.829   9.519   2.093 -0.0745  0.6766 -0.6924
  299MOL0     C41149   4.741   9.606   2.153 -0.1188 -0.7162  0.1168
  299MOL0     C41150   4.759   9.742   2.129 -0.6895  0.7632  0.8677
  299MOL0     C41151   4.670   9.830   2.193  0.8406  0.6777 -0.2395
  299MOL0     C41152   4.700   9.977   2.161 -0.3935 -0.0929 -0.3732
  299MOL0     C41153   4.568   9.787   2.276 -1.0577  0.3675 -1.1325
  299MOL0     C41154   4.486   9.877   2.361 -0.2654 -0.1666 -0.5111
  299MOL0     O41155   4.371   9.824   2.409  0.5502 -0.1834  0.5425
  299MOL0     C41156   4.313   9.891   2.514  0.9476 -0.3776 -0.1727
  299MOL0     C41157   4.374   9.931   2.638 -0.3407  0.1617 -0.1103
  299MOL0     C41158   4.316  10.008   2.740  0.2335  0.1283  0.9372
  299MOL0     C41159   4.183  10.053   2.726  1.0381 -0.4245 -0.4799
  299MOL0     O41160   4.103  10.124   2.819  0.0528  0.4376  0.0979
  299MOL0     C41161   4.143  10.172   2.949  0.4768 -0.4388  1.5663
  299MOL0     C41162   4.020  10.257   3.001 -0.2453  0.1592  1.0122
  299MOL0     C41163   3.895  10.177   3.024 -0.7021 -0.1699 -0.7161
  299MOL0     C41164   3.781  10.256   3.083  0.7307  0.6873  0.7281
  299MOL0     C41165   3.680  10.149   3.129 -0.1080 -0.2789 -0.4016
  299MOL0     C41166   3.546  10.230   3.162  0.5658  0.0846  0.8434
  299MOL0     C41167   3.422  10.137   3.193 -0.0494 -0.9134 -0.5490
  299MOL0     C41168   3.431  10.052   3.319  1.3718 -0.0590 -0.6813
  299MOL0    Cl41169   3.459  10.161   3.461  0.2817 -0.0589 -0.2674
  299MOL0     C41170   4.116  10.009   2.607 -0.4575 -0.6846 -0.0587
  299MOL0     C41171   4.178   9.935   2.513  0.3539  0.1574  0.8447
  299MOL0     O41172   4.536   9.987   2.397 -0.3730 -0.3446 -0.1244
  299MOL0     C41173   4.550   9.651   2.291  0.0311 -0.2902  0.1569
  299MOL0     C41174   4.635   9.564   2.235  0.0227  0.0491  0.4149
  299MOL0     N41175   5.108   9.186   1.914  0.6724  1.1157 -0.1387
  299MOL0     N41176   5.084   9.233   1.793 -0.3953  0.5842 -0.3444
  299MOL0     C41177   4.658  10.208   1.315  0.4062 -0.5344 -0.2186
  299MOL0     C41178   4.555  10.273   1.400 -0.7768 -0.6554 -0.4789
  299MOL0     C41179   4.162  10.378   1.576  0.3562  0.0547  0.0448
  299MOL0     C41180   4.043  10.411   1.510 -0.2955 -0.1590 -0.4111
  299MOL0     C41181   3.925  10.440   1.581 -0.9843 -0.2911  1.2484
  299MOL0     C41182   3.936  10.462   1.717  0.5583 -0.4585  0.4130
  299MOL0     O41183   3.822  10.495   1.783  0.1362 -0.7620 -0.2468
  299MOL0     C41184   3.829  10.561   1.913  0.6895 -0.0002 -0.6344
  299MOL0     C41185   3.681  10.591   1.951 -0.7325  0.4765 -0.4050
  299MOL0     C41186   3.597  10.464   1.961 -0.1973 -0.8053  0.3661
  299MOL0     C41187   3.447  10.494   1.967  1.3976  0.8848  0.6817
  299MOL0     C41188   3.398  10.573   1.859 -0.1789  0.1567  0.4283
  299MOL0     C41189   3.366  10.648   1.770 -0.1529 -0.0418 -0.2519
  299MOL0     C41190   4.060  10.447   1.773  0.0521 -0.4998  0.1420
  299MOL0     C41191   4.173  10.399   1.707 -0.2277 -0.1241  0.0133
  299MOL0     C41192   4.313  10.395   1.790  0.9001  0.3827  0.5100
  299MOL0     H41193   4.402   9.994   1.504 -3.3952  1.8477 -1.7042
  299MOL0     H41194   4.586   9.885   1.370 -1.0006  1.1232  0.8215
  299MOL0     H41195   4.884  10.164   1.156  0.8526  0.3625 -0.0077
  299MOL0     H41196   4.956  10.002   1.129  1.2980  0.4303 -0.4170
  299MOL0     H41197   5.074  10.080   1.309 -0.2534  2.5371 -1.3086
  299MOL0     H41198   4.928  10.153   1.384 -0.0689  0.1795 -0.1556
  299MOL0     H41199   4.836   9.976   1.487 -0.9083 -0.1608 -2.7766
  299MOL0     H41200   4.923   9.851   1.395 -0.8731 -0.2420  0.7264
  299MOL0     H41201   5.145   9.944   1.515  1.4683 -1.3740  3.3691
  299MOL0     H41202   5.031  10.039   1.610  0.4018 -1.7713  1.0059
  299MOL0     H41203   4.921   9.816   1.671 -0.1963  0.7008  2.0001
  299MOL0     H41204   5.072   9.859   1.745  3.6331  0.9512 -1.6264
  299MOL0     H41205   5.095   9.696   1.492  0.5234  0.2110  0.2065
  299MOL0     H41206   5.214   9.725   1.606 -0.1638 -0.8121 -1.8863
  299MOL0     H41207   4.949   9.578   1.669 -0.1789  0.3934 -1.6162
  299MOL0     H41208   5.069   9.622   1.795 -3.4484  2.0049 -0.3155
  299MOL0     H41209   5.079   9.395   1.587  0.2271 -0.6575  0.1992
  299MOL0     H41210   5.222   9.458   1.643 -0.4663  0.7942 -0.1277
  299MOL0     H41211   5.186   9.506   1.940 -1.3199  0.0305  2.0863
  299MOL0     H41212   5.270   9.319   2.177 -0.2221 -0.9935 -0.7807
  299MOL0     H41213   5.149   9.189   2.188  1.1376 -1.4435 -1.8025
  299MOL0     H41214   5.115   9.414   2.317  1.6720 -0.6658 -0.5249
  299MOL0     H41215   5.069   9.483   2.160  1.1817 -1.7473 -3.3311
  299MOL0     H41216   4.932   9.240   2.275  1.3298  0.7678  0.5919
  299MOL0     H41217   4.889   9.402   2.334  0.2808  0.5626 -1.1195
  299MOL0     H41218   4.899   9.334   2.043  3.0750 -1.5392  2.3588
  299MOL0     H41219   4.744   9.331   2.127 -0.1084  0.8993  1.2819
  299MOL0     H41220   4.840   9.766   2.061 -1.3328 -0.5015 -0.3959
  299MOL0     H41221   4.607  10.030   2.140 -0.5144  0.1210  0.6519
  299MOL0     H41222   4.760   9.984   2.069 -1.5356 -0.3013 -1.1515
  299MOL0     H41223   4.767  10.023   2.234  1.4640 -1.1727 -1.3285
  299MOL0     H41224   4.480   9.907   2.645 -0.1144  1.1852  0.0990
  299MOL0     H41225   4.369  10.039   2.829  1.2019 -1.4456  0.9373
  299MOL0     H41226   4.158  10.084   3.012 -0.9355  0.2576  2.9509
  299MOL0     H41227   4.237  10.228   2.955 -1.1868  2.4330  3.5005
  299MOL0     H41228   4.053  10.306   3.093  2.3246  5.8783 -2.3573
  299MOL0     H41229   4.001  10.334   2.925  0.9336 -0.0017  0.5305
  299MOL0     H41230   3.916  10.083   3.075  4.8700 -0.7857 -3.4229
  299MOL0     H41231   3.875  10.143   2.923 -0.8090  2.0651 -1.4947
  299MOL0     H41232   3.737  10.323   3.009  2.6136  0.4138 -0.7012
  299MOL0     H41233   3.803  10.315   3.173  0.0488  0.3697  1.1082
  299MOL0     H41234   3.664  10.069   3.056  0.4849  1.6190 -2.7409
  299MOL0     H41235   3.716  10.100   3.220 -2.0186 -0.0951  0.5008
  299MOL0     H41236   3.529  10.293   3.074  0.4648 -2.2093 -0.8761
  299MOL0     H41237   3.555  10.301   3.246 -1.2114 -0.4526  1.5382
  299MOL0     H41238   3.412  10.081   3.099 -1.0520 -0.5791 -0.6609
  299MOL0     H41239   3.342  10.212   3.204  1.0251  0.0614  0.8564
  299MOL0     H41240   3.515   9.982   3.323 -0.9311 -2.9581  0.1575
  299MOL0     H41241   3.330  10.011   3.329  1.2215  0.0973 -1.4590
  299MOL0     H41242   4.011  10.025   2.585 -0.6932 -2.0591 -0.0134
  299MOL0     H41243   4.123   9.918   2.421  1.2646 -0.5678  0.4215
  299MOL0     H41244   4.466   9.610   2.345  0.2732 -0.0416  0.7341
  299MOL0     H41245   4.619   9.461   2.266  1.4441  0.5303  2.9845
  299MOL0     H41246   4.727  10.270   1.259  2.9377 -3.4150 -0.5333
  299MOL0     H41247   4.553  10.381   1.400  0.9190 -0.5997 -0.9685
  299MOL0     H41248   4.045  10.409   1.401 -2.0290 -0.0894 -0.4720
  299MOL0     H41249   3.833  10.455   1.525  0.0543  0.8192 -0.2498
  299MOL0     H41250   3.887  10.495   1.978 -0.8682  0.9583  1.9257
  299MOL0     H41251   3.885  10.655   1.911  2.4314 -0.9902 -0.3005
  299MOL0     H41252   3.635  10.654   1.875  3.1103  2.3737 -1.4082
  299MOL0     H41253   3.668  10.631   2.052 -1.3280  0.1337 -0.3423
  299MOL0     H41254   3.612  10.395   1.876 -0.0613 -1.8674  1.2300
  299MOL0     H41255   3.640  10.404   2.042  4.8665  0.8868 -0.7079
  299MOL0     H41256   3.429  10.540   2.065 -0.9381 -5.3363  3.7844
  299MOL0     H41257   3.391  10.401   1.957 -0.9460  2.4977 -3.2183
  299MOL0     H41258   3.349  10.707   1.682  2.1232 -1.7560 -2.0025
  299MOL0     H41259   4.079  10.455   1.879  4.3619  0.2764 -0.5062
  299MOL0     H41260   4.316  10.460   1.878 -1.4608 -0.5656  1.3738
  299MOL0     H41261   4.323  10.294   1.829 -0.8325 -0.3869 -0.8813
  299MOL0     H41262   4.398  10.406   1.722  0.6788 -0.5113  0.0763
  300MOL0     O41263   6.303   0.372   4.860 -0.3554 -0.1459  0.5520
  300MOL0     C41264   6.387   0.377   4.768 -0.0360  1.0196 -0.8634
  300MOL0     O41265   6.447   0.490   4.735 -0.1333 -0.2670  0.4872
  300MOL0     C41266   6.399   0.599   4.798 -0.3080 -0.8454  0.0180
  300MOL0     C41267   6.474   0.641   4.910 -0.9266 -0.2607 -0.1347
  300MOL0     C41268   6.420   0.740   4.988  0.2723  0.0666  0.1457
  300MOL0     C41269   6.304   0.798   4.948 -1.3992 -0.3268  0.6236
  300MOL0     O41270   6.270   0.901   5.029  0.9166  0.4960 -0.2803
  300MOL0     C41271   6.152   0.980   5.008  0.6615  0.0151 -0.3084
  300MOL0     C41272   6.172   1.128   5.050 -0.1097  0.6169 -0.0757
  300MOL0     C41273   6.217   1.220   4.937 -0.8203  0.7110  0.7997
  300MOL0     C41274   6.295   1.338   4.983 -0.1406  0.1125  0.2818
  300MOL0     C41275   6.444   1.301   5.021 -0.5300 -0.0014 -0.1536
  300MOL0     C41276   6.545   1.277   4.909 -0.7759 -0.1526 -0.1705
  300MOL0     C41277   6.538   1.383   4.798 -0.3246  0.7781 -0.5392
  300MOL0     C41278   6.660   1.369   4.697  0.1472 -0.1224 -0.5526
  300MOL0     N41279   6.663   1.470   4.588  0.8270 -0.2462 -0.3536
  300MOL0     C41280   6.576   1.456   4.478 -0.8038 -0.4560  0.3719
  300MOL0     C41281   6.620   1.555   4.404 -0.3594 -0.4635 -0.6337
  300MOL0     C41282   6.565   1.563   4.263  1.0792  0.6544 -0.4897
  300MOL0     C41283   6.662   1.503   4.164  0.1529  0.5110  0.5397
  300MOL0     C41284   6.789   1.589   4.152 -0.5494 -0.6474  0.5355
  300MOL0     C41285   6.847   1.583   4.008 -0.1976  0.8115 -0.1770
  300MOL0     O41286   6.850   1.444   3.979  0.0014  0.9484  0.4803
  300MOL0     C41287   6.959   1.366   4.032 -0.0177  0.4782 -0.4162
  300MOL0     C41288   7.076   1.419   4.094  0.0273 -0.2613  0.5410
  300MOL0     C41289   7.185   1.327   4.133 -0.7442  0.0275 -0.6880
  300MOL0     C41290   7.301   1.388   4.201 -0.1551 -0.1321 -0.4175
  300MOL0     C41291   7.167   1.191   4.119 -0.1853  0.3151  0.5628
  300MOL0     C41292   7.275   1.094   4.139  0.3263  0.1778 -0.1940
  300MOL0     O41293   7.401   1.133   4.111  0.0123  0.0264 -0.5249
  300MOL0     C41294   7.511   1.060   4.133  0.2797  0.1567 -0.3748
  300MOL0     C41295   7.559   0.962   4.049  0.7598  0.1375 -0.0095
  300MOL0     C41296   7.677   0.883   4.078  1.1907 -0.0231 -0.5710
  300MOL0     C41297   7.738   0.916   4.205  0.2110 -0.1889  1.1019
  300MOL0     O41298   7.854   0.848   4.251 -0.2372 -0.0442 -1.1032
  300MOL0     C41299   7.867   0.711   4.215 -0.2574  0.6111  0.1850
  300MOL0     C41300   7.980   0.662   4.309 -0.0373  0.5287 -0.8831
  300MOL0     C41301   8.023   0.517   4.271  0.4283 -0.0502 -0.4825
  300MOL0     C41302   8.131   0.474   4.363  0.0695  0.2646  0.2660
  300MOL0     C41303   8.189   0.345   4.312 -0.4134  0.6420 -0.0121
  300MOL0     C41304   8.304   0.305   4.418  0.8935  0.1031  0.7134
  300MOL0     C41305   8.251   0.246   4.553 -0.0745 -0.4875  0.5771
  300MOL0     C41306   8.361   0.252   4.658 -0.0713 -0.0629 -0.1460
  300MOL0    Cl41307   8.331   0.159   4.813  0.3959  0.0604  0.4303
  300MOL0     C41308   7.686   1.008   4.297 -0.5053 -0.3338 -0.2726
  300MOL0     C41309   7.563   1.068   4.263  0.1697  0.0648 -1.0922
  300MOL0     O41310   7.243   0.978   4.158  0.2534  0.1758  0.6717
  300MOL0     C41311   7.045   1.141   4.065  0.0151  0.3119 -0.0046
  300MOL0     C41312   6.942   1.226   4.023 -0.7564 -0.4160 -0.3702
  300MOL0     N41313   6.730   1.621   4.453 -0.6161  0.0165 -0.3227
  300MOL0     N41314   6.759   1.568   4.569 -0.9229  0.7597 -0.8034
  300MOL0     C41315   6.240   0.775   4.825 -0.0216 -0.7565 -0.2072
  300MOL0     C41316   6.291   0.673   4.749 -0.3706 -0.4854  0.5212
  300MOL0     C41317   6.415   0.254   4.685  1.2019  0.7603 -0.0001
  300MOL0     C41318   6.427   0.269   4.547 -0.3391 -0.8011 -0.6211
  300MOL0     C41319   6.436   0.151   4.457  0.9881  0.2982 -0.2695
  300MOL0     C41320   6.451   0.026   4.515 -0.9046  0.4509  0.4849
  300MOL0     O41321   6.458  -0.088   4.432  0.3494 -0.7905 -0.3736
  300MOL0     C41322   6.514  -0.077   4.309  0.0328 -0.0021  0.1845
  300MOL0     C41323   6.394  -0.072   4.216  0.6855 -0.4181  0.0575
  300MOL0     C41324   6.308  -0.199   4.230 -0.6020 -0.6503  0.0703
  300MOL0     C41325   6.373  -0.317   4.163  0.1934 -0.2932  0.3423
  300MOL0     C41326   6.279  -0.419   4.119 -0.1837  0.7182  0.4574
  300MOL0     C41327   6.213  -0.513   4.094  0.4240 -0.3242 -0.1895
  300MOL0     C41328   6.442   0.010   4.653  0.3932  0.5536 -0.1183
  300MOL0     C41329   6.419   0.124   4.736 -1.1168  0.5152  0.1425
  300MOL0     C41330   6.403   0.099   4.885  0.3773  0.2860 -0.1206
  300MOL0     H41331   6.566   0.588   4.928  0.3164  2.5979  2.9731
  300MOL0     H41332   6.467   0.769   5.081  1.8231  0.3762 -0.7025
  300MOL0     H41333   6.073   0.931   5.065  0.8772  0.0631  0.0406
  300MOL0     H41334   6.126   0.982   4.902 -3.0375  2.4290  0.4705
  300MOL0     H41335   6.072   1.157   5.083 -0.1222 -0.7519  1.1871
  300MOL0     H41336   6.242   1.123   5.134 -1.5853 -3.1787  1.1759
  300MOL0     H41337   6.284   1.156   4.877  1.3366 -0.5124  4.2386
  300MOL0     H41338   6.128   1.259   4.886 -1.3220 -2.0128 -0.6616
  300MOL0     H41339   6.300   1.412   4.903  1.6506 -1.1862 -0.8941
  300MOL0     H41340   6.248   1.386   5.069 -0.6157 -0.0113  0.0941
  300MOL0     H41341   6.460   1.219   5.092  3.7602 -0.2645 -1.1497
  300MOL0     H41342   6.476   1.387   5.079 -0.3150 -0.5695  0.5799
  300MOL0     H41343   6.647   1.282   4.951  0.0994 -1.5596 -1.9965
  300MOL0     H41344   6.533   1.173   4.877  0.3187 -0.0233 -1.0916
  300MOL0     H41345   6.536   1.486   4.836  3.1139  0.3373  1.2133
  300MOL0     H41346   6.451   1.361   4.735 -1.2931 -1.6792  1.4862
  300MOL0     H41347   6.752   1.372   4.756  1.4719  0.1324 -2.5098
  300MOL0     H41348   6.660   1.273   4.646  0.2415 -0.8787  0.8329
  300MOL0     H41349   6.502   1.380   4.456 -0.8429 -0.4785  0.5767
  300MOL0     H41350   6.530   1.665   4.245 -2.7727 -0.5049 -0.6243
  300MOL0     H41351   6.468   1.514   4.252  1.0046 -0.0193  2.3778
  300MOL0     H41352   6.701   1.401   4.176  2.2183  1.0186 -1.2297
  300MOL0     H41353   6.619   1.506   4.063  1.0475  0.1031  0.1345
  300MOL0     H41354   6.765   1.694   4.167  0.5905 -0.0204 -1.6243
  300MOL0     H41355   6.861   1.551   4.225 -0.9236  1.7531  2.2444
  300MOL0     H41356   6.791   1.635   3.929  0.2239 -0.6853 -1.5155
  300MOL0     H41357   6.949   1.621   4.003 -1.1823  3.8813  0.4906
  300MOL0     H41358   7.091   1.526   4.105 -0.5427 -0.4160  4.2337
  300MOL0     H41359   7.310   1.497   4.212  3.2300 -0.4001  0.7946
  300MOL0     H41360   7.391   1.364   4.143  0.0777 -0.1235 -0.0611
  300MOL0     H41361   7.312   1.343   4.300  3.9456 -1.4893 -1.2879
  300MOL0     H41362   7.501   0.951   3.958 -0.0824 -0.5398  0.6034
  300MOL0     H41363   7.727   0.805   4.022 -2.9436 -1.3012 -2.9122
  300MOL0     H41364   7.766   0.672   4.231 -0.6228  1.3791 -0.1589
  300MOL0     H41365   7.898   0.696   4.111  1.7695  3.2260  0.3119
  300MOL0     H41366   8.071   0.722   4.302 -0.2038  0.9013  0.0579
  300MOL0     H41367   7.951   0.663   4.414 -1.3672 -1.3545 -1.1877
  300MOL0     H41368   8.056   0.526   4.167 -2.3666  0.1840 -1.4294
  300MOL0     H41369   7.943   0.445   4.287 -0.0133  1.0560  3.1256
  300MOL0     H41370   8.089   0.467   4.464  0.8059  1.0692  0.6462
  300MOL0     H41371   8.203   0.556   4.367  1.1091 -0.5255 -1.2024
  300MOL0     H41372   8.115   0.264   4.311 -0.0524  0.3089 -0.6916
  300MOL0     H41373   8.239   0.350   4.215 -1.3175 -3.3605 -0.9131
  300MOL0     H41374   8.367   0.392   4.440 -0.5652  1.6463 -0.8293
  300MOL0     H41375   8.363   0.228   4.368 -3.3806 -1.7851 -2.0626
  300MOL0     H41376   8.231   0.144   4.520 -1.7411  0.6225 -2.2926
  300MOL0     H41377   8.155   0.288   4.586 -1.1542 -2.4250  0.0430
  300MOL0     H41378   8.356   0.357   4.687 -0.1661 -0.6646  2.1486
  300MOL0     H41379   8.458   0.228   4.613 -1.3668 -0.2348 -3.1379
  300MOL0     H41380   7.739   1.017   4.392 -0.3299 -0.6225 -0.3407
  300MOL0     H41381   7.503   1.128   4.330  0.9358  2.7609 -2.6524
  300MOL0     H41382   7.030   1.034   4.057  2.7073 -0.0560 -1.3110
  300MOL0     H41383   6.851   1.181   3.985 -3.2749  1.7311  2.5893
  300MOL0     H41384   6.149   0.821   4.787 -1.0430 -1.2785  1.5111
  300MOL0     H41385   6.238   0.630   4.665 -1.4694  1.0762  0.3671
  300MOL0     H41386   6.430   0.370   4.509  1.8614 -0.0541  1.2488
  300MOL0     H41387   6.436   0.166   4.349  2.4879 -0.1875 -0.3624
  300MOL0     H41388   6.578   0.009   4.285  0.2363 -0.5381 -1.3593
  300MOL0     H41389   6.568  -0.169   4.283  0.3476  0.1264  0.3775
  300MOL0     H41390   6.430  -0.068   4.113  0.3095  0.2550 -0.0496
  300MOL0     H41391   6.331   0.014   4.237  0.5608 -0.8036  1.3454
  300MOL0     H41392   6.285  -0.219   4.335  0.6023 -0.4169  0.3864
  300MOL0     H41393   6.210  -0.173   4.187 -0.9506  0.2902  1.3665
  300MOL0     H41394   6.440  -0.364   4.235  1.1716 -2.7331 -2.0131
  300MOL0     H41395   6.426  -0.288   4.072 -0.6642  0.0188 -0.0728
  300MOL0     H41396   6.156  -0.602   4.079  1.6147 -0.9379 -1.2347
  300MOL0     H41397   6.445  -0.095   4.680 -1.8700  0.6930  0.8653
  300MOL0     H41398   6.296   0.101   4.910 -0.6245 -0.7359 -3.7593
  300MOL0     H41399   6.438  -0.000   4.914 -1.5764 -0.3999  0.0758
  300MOL0     H41400   6.460   0.170   4.946  1.3090 -1.2798  0.8799
  301MOL0     O41401  10.541   8.724   0.089 -0.5976  0.7485  0.2366
  301MOL0     C41402  10.599   8.792   0.007  0.4588 -0.0000 -0.7567
  301MOL0     O41403  10.687   8.890   0.040  0.7111 -0.0234  0.6151
  301MOL0     C41404  10.684   8.928   0.172 -0.3848  0.5096 -0.1928
  301MOL0     C41405  10.750   8.845   0.264  0.4556 -0.5265 -0.4016
  301MOL0     C41406  10.756   8.885   0.395  0.0508 -0.2991 -0.3005
  301MOL0     C41407  10.698   9.009   0.443 -0.2440 -0.2808 -0.1711
  301MOL0     O41408  10.701   9.059   0.571 -0.5710  0.9909 -0.3761
  301MOL0     C41409  10.695   8.969   0.686  0.2441 -0.5989 -0.4872
  301MOL0     C41410  10.721   9.063   0.807  0.3179  0.2466 -0.8167
  301MOL0     C41411  10.867   9.109   0.812  0.0039 -0.3739  0.6558
  301MOL0     C41412  10.887   9.231   0.909 -0.2495  0.0250  0.0096
  301MOL0     C41413  11.036   9.282   0.910 -0.1849 -0.0137  0.8631
  301MOL0     C41414  11.067   9.380   0.791 -0.2069 -0.5518  0.0875
  301MOL0     C41415  11.212   9.423   0.789 -0.0694  0.0850 -0.5925
  301MOL0     C41416  11.304   9.332   0.685  0.1973 -0.1081 -0.8354
  301MOL0     N41417  11.329   9.194   0.742  0.2789 -0.1344  0.1894
  301MOL0     C41418  11.247   9.082   0.732  0.6037 -0.1249 -0.4678
  301MOL0     C41419  11.301   8.988   0.817 -0.8459 -0.7641 -0.0244
  301MOL0     C41420  11.257   8.849   0.849  0.1427  0.0216 -0.6523
  301MOL0     C41421  11.208   8.775   0.723 -0.6434  0.6287  0.3314
  301MOL0     C41422  11.315   8.790   0.607  0.2481 -0.9565  0.3998
  301MOL0     C41423  11.288   8.699   0.497 -0.9611  0.3497  0.4095
  301MOL0     O41424  11.178   8.747   0.415  0.1852 -0.3863  0.0748
  301MOL0     C41425  11.211   8.842   0.322  0.4841  0.0307  0.6162
  301MOL0     C41426  11.121   8.947   0.306  0.3819 -0.4617  0.4310
  301MOL0     C41427  11.154   9.062   0.222  0.6856  0.2894  0.7848
  301MOL0     C41428  11.051   9.179   0.210  0.3942  0.5565 -0.0557
  301MOL0     C41429  11.273   9.055   0.142 -0.7211  0.3554 -0.6649
  301MOL0     C41430  11.315   9.168   0.064 -0.1294 -1.3626 -0.5927
  301MOL0     O41431  11.418   9.142  -0.034 -0.2597 -1.0079  0.1254
  301MOL0     C41432  11.497   9.251  -0.089 -0.0604 -0.6198  0.3495
  301MOL0     C41433  11.533   9.382  -0.039 -0.3254 -0.1599 -0.0058
  301MOL0     C41434  11.622   9.458  -0.115  0.1712 -0.3528 -0.1254
  301MOL0     C41435  11.697   9.409  -0.226  0.5199  0.0287 -0.7317
  301MOL0     O41436  11.797   9.467  -0.298 -0.2766 -0.1923 -0.3587
  301MOL0     C41437  11.900   9.531  -0.221 -0.4819  1.3255 -0.3039
  301MOL0     C41438  12.038   9.519  -0.296  0.0823  1.0207 -0.0607
  301MOL0     C41439  12.100   9.378  -0.316  0.1779  0.1619  1.0418
  301MOL0     C41440  12.233   9.387  -0.402  0.0289  0.0058  0.0295
  301MOL0     C41441  12.205   9.429  -0.545  0.2810 -0.1160 -0.9794
  301MOL0     C41442  12.335   9.411  -0.623  0.6739  0.3981 -0.0885
  301MOL0     C41443  12.314   9.457  -0.763 -0.4494 -0.1631 -0.2855
  301MOL0     C41444  12.237   9.351  -0.849  0.6338 -0.1968  0.6306
  301MOL0    Cl41445  12.216   9.426  -1.015 -0.5641  0.0653  0.2344
  301MOL0     C41446  11.668   9.275  -0.269  0.0013  1.0448 -0.0993
  301MOL0     C41447  11.565   9.208  -0.197 -0.2859  0.3745  0.3823
  301MOL0     O41448  11.283   9.285   0.093 -0.1680  0.0909 -0.1028
  301MOL0     C41449  11.347   8.934   0.142  0.7790  0.1216 -0.1176
  301MOL0     C41450  11.323   8.830   0.233 -0.8817 -0.5806 -0.6334
  301MOL0     N41451  11.416   9.042   0.873  0.1342 -0.4510  0.4665
  301MOL0     N41452  11.428   9.161   0.831 -0.1187  0.2538  0.0537
  301MOL0     C41453  10.646   9.094   0.344  0.7944  0.7738 -0.0105
  301MOL0     C41454  10.649   9.061   0.211 -0.3243  0.0560 -0.2749
  301MOL0     C41455  10.590   8.766  -0.133 -0.4024  0.1996 -0.1212
  301MOL0     C41456  10.656   8.860  -0.216 -0.3375 -0.3900  0.0386
  301MOL0     C41457  10.622   8.860  -0.352 -0.5842 -1.0238 -0.1367
  301MOL0     C41458  10.536   8.764  -0.410  0.7420  1.0916  0.2577
  301MOL0     O41459  10.515   8.775  -0.545 -0.0578 -0.5371  0.9110
  301MOL0     C41460  10.391   8.735  -0.612  0.2990  0.7120  0.2160
  301MOL0     C41461  10.388   8.791  -0.756  0.5302  0.5552  0.1480
  301MOL0     C41462  10.359   8.931  -0.781  1.0299 -0.0946  0.2439
  301MOL0     C41463  10.433   9.034  -0.693 -0.3225  0.6331  0.3786
  301MOL0     C41464  10.434   9.168  -0.755 -0.2405  0.0454  1.1928
  301MOL0     C41465  10.419   9.278  -0.805 -0.0456 -0.3857 -0.3408
  301MOL0     C41466  10.492   8.660  -0.330 -0.1892  0.0912  0.8303
  301MOL0     C41467  10.513   8.659  -0.192  0.2757  0.0765  0.2613
  301MOL0     C41468  10.462   8.541  -0.111 -0.1292  0.4106  0.5358
  301MOL0     H41469  10.789   8.745   0.244  0.8541 -0.4709  0.0770
  301MOL0     H41470  10.804   8.810   0.458 -0.0386 -0.6526 -0.6475
  301MOL0     H41471  10.771   8.892   0.677 -1.8388 -3.0619  1.5023
  301MOL0     H41472  10.592   8.931   0.682  0.7713 -2.0048 -1.1768
  301MOL0     H41473  10.653   9.147   0.792  0.4535  0.8409  1.5058
  301MOL0     H41474  10.696   9.025   0.906  2.6850 -0.4888 -0.4251
  301MOL0     H41475  10.933   9.028   0.844  0.7666 -0.3157 -0.6729
  301MOL0     H41476  10.896   9.136   0.710  0.5925  2.7076  1.5498
  301MOL0     H41477  10.816   9.311   0.887 -0.5079  0.4046  1.9961
  301MOL0     H41478  10.857   9.203   1.010 -2.8745  1.9714 -0.1337
  301MOL0     H41479  11.103   9.196   0.906 -0.8666 -0.5095 -0.7251
  301MOL0     H41480  11.053   9.335   1.004  0.0906 -1.7352  1.8208
  301MOL0     H41481  11.040   9.333   0.696  1.7720 -0.7671 -0.4154
  301MOL0     H41482  11.005   9.467   0.814 -0.3086 -0.2799 -1.1463
  301MOL0     H41483  11.261   9.416   0.887 -0.2702  1.2483 -0.3900
  301MOL0     H41484  11.216   9.529   0.761 -2.2608  0.5939  0.7704
  301MOL0     H41485  11.251   9.302   0.594  3.1863 -0.4424 -2.6071
  301MOL0     H41486  11.404   9.370   0.663  0.4535 -0.6221 -0.5784
  301MOL0     H41487  11.159   9.078   0.668  0.2768 -1.5327  0.0307
  301MOL0     H41488  11.186   8.845   0.931  2.4832 -1.9646  1.4367
  301MOL0     H41489  11.345   8.800   0.893 -0.7529 -0.0669  1.0930
  301MOL0     H41490  11.198   8.670   0.753 -3.5912  0.8192  0.2922
  301MOL0     H41491  11.110   8.815   0.695 -0.7822  0.8455  1.1292
  301MOL0     H41492  11.317   8.891   0.566  0.9608 -1.5639 -1.1146
  301MOL0     H41493  11.414   8.758   0.639  0.4114  0.9604  1.9565
  301MOL0     H41494  11.381   8.680   0.444 -1.2626 -0.8672  0.2819
  301MOL0     H41495  11.251   8.609   0.546 -0.5689 -0.0091  0.0486
  301MOL0     H41496  11.029   8.933   0.362  0.4394 -3.7152 -0.1332
  301MOL0     H41497  11.095   9.263   0.266  0.3403  0.6063 -0.0890
  301MOL0     H41498  10.957   9.154   0.260 -1.0328  0.3129 -2.6723
  301MOL0     H41499  11.029   9.209   0.107  3.3768 -0.8218 -1.2128
  301MOL0     H41500  11.488   9.407   0.057  0.3030 -1.1307  0.5571
  301MOL0     H41501  11.642   9.559  -0.078 -2.2431 -0.1881  0.9441
  301MOL0     H41502  11.868   9.636  -0.220 -2.0871  0.9300  2.2491
  301MOL0     H41503  11.904   9.502  -0.115 -1.6273  0.1965 -0.5385
  301MOL0     H41504  12.037   9.587  -0.381  1.3525 -0.4710 -1.3313
  301MOL0     H41505  12.105   9.560  -0.220 -0.0549 -3.7418  3.0527
  301MOL0     H41506  12.025   9.308  -0.354  2.2411 -1.7157  0.1714
  301MOL0     H41507  12.113   9.337  -0.215  0.2056 -0.4768  0.7857
  301MOL0     H41508  12.274   9.285  -0.401 -2.8429 -1.2539  0.1169
  301MOL0     H41509  12.306   9.451  -0.353  0.3471 -1.6955  1.9291
  301MOL0     H41510  12.121   9.367  -0.577  0.0045  0.2455 -0.9575
  301MOL0     H41511  12.162   9.530  -0.550 -2.1118 -1.0391 -0.5767
  301MOL0     H41512  12.370   9.307  -0.617 -2.3412 -0.6838  0.6183
  301MOL0     H41513  12.413   9.473  -0.578  2.1873 -1.4551 -0.0572
  301MOL0     H41514  12.414   9.469  -0.806  0.5005  0.7684  2.0187
  301MOL0     H41515  12.268   9.556  -0.757 -1.8879 -0.8078 -0.2887
  301MOL0     H41516  12.139   9.323  -0.810  1.4269 -0.1900  2.7667
  301MOL0     H41517  12.300   9.262  -0.857 -1.0430 -1.4021  0.2382
  301MOL0     H41518  11.722   9.224  -0.348 -0.5819  0.1936  0.0372
  301MOL0     H41519  11.550   9.109  -0.239 -1.6962  1.2657 -1.3610
  301MOL0     H41520  11.421   8.911   0.066 -1.3937 -0.3866 -2.2227
  301MOL0     H41521  11.379   8.737   0.227  0.2103  0.0616 -0.6611
  301MOL0     H41522  10.620   9.195   0.375 -1.6969 -0.1741  1.2331
  301MOL0     H41523  10.622   9.141   0.143 -3.1308  0.4654  1.1892
  301MOL0     H41524  10.711   8.945  -0.179  0.9125 -2.2050  2.6643
  301MOL0     H41525  10.644   8.940  -0.422  1.0686 -0.7948  0.6069
  301MOL0     H41526  10.394   8.626  -0.627  0.8204  0.2851  2.8425
  301MOL0     H41527  10.295   8.759  -0.566 -0.4203  1.7360 -1.7119
  301MOL0     H41528  10.308   8.738  -0.809  2.7329 -2.5745 -0.2862
  301MOL0     H41529  10.488   8.778  -0.798  1.0013 -5.0193  2.1449
  301MOL0     H41530  10.391   8.955  -0.883  2.0679  2.4709  1.0801
  301MOL0     H41531  10.254   8.962  -0.772  1.3963  0.8474  1.6900
  301MOL0     H41532  10.540   9.011  -0.686 -0.0636  1.6319 -0.0524
  301MOL0     H41533  10.387   9.033  -0.594 -1.8841 -1.1263 -0.3020
  301MOL0     H41534  10.426   9.379  -0.840  2.4257 -0.6902 -0.9070
  301MOL0     H41535  10.423   8.584  -0.365 -1.0404  1.5383 -0.8365
  301MOL0     H41536  10.417   8.466  -0.176  0.8952  0.0541  0.2253
  301MOL0     H41537  10.550   8.492  -0.069  0.5037  2.5595  1.9452
  301MOL0     H41538  10.399   8.573  -0.027 -0.8026  0.2125  0.1129
  302MOL0     O41539   9.878   7.165   2.956 -0.5946 -0.2916  0.5956
  302MOL0     C41540   9.924   7.273   2.995  0.1003 -1.2051 -0.2115
  302MOL0     O41541   9.910   7.388   2.928 -0.1105 -0.9442  0.9364
  302MOL0     C41542   9.850   7.385   2.808 -1.0927  0.1725 -0.1746
  302MOL0     C41543   9.711   7.400   2.796 -0.2576 -0.1326  0.6198
  302MOL0     C41544   9.647   7.400   2.670  0.2718 -0.1148  0.4273
  302MOL0     C41545   9.721   7.401   2.554 -0.0857 -0.6837  0.6541
  302MOL0     O41546   9.648   7.391   2.440 -0.4901  0.0492  0.8676
  302MOL0     C41547   9.717   7.355   2.315 -0.2289 -0.0067 -0.5102
  302MOL0     C41548   9.619   7.335   2.209  0.2621  0.6155  0.1942
  302MOL0     C41549   9.519   7.215   2.232  0.3098  0.0352 -0.4451
  302MOL0     C41550   9.426   7.183   2.104 -0.0417 -0.5546 -0.4313
  302MOL0     C41551   9.334   7.058   2.130  0.3484 -0.5291 -0.1940
  302MOL0     C41552   9.405   6.928   2.175 -0.4148 -0.4848 -0.1859
  302MOL0     C41553   9.303   6.835   2.230  0.4562 -0.6929 -0.0257
  302MOL0     C41554   9.192   6.782   2.134 -0.1335 -0.0470 -0.8033
  302MOL0     N41555   9.086   6.703   2.200  0.4283 -0.5127  0.2841
  302MOL0     C41556   9.036   6.582   2.170  0.0047  0.5827 -0.4890
  302MOL0     C41557   8.926   6.571   2.241  0.2550  0.0901  0.0308
  302MOL0     C41558   8.832   6.449   2.251 -0.7632 -0.8112  0.1619
  302MOL0     C41559   8.679   6.486   2.262  0.3312 -1.5671  0.1718
  302MOL0     C41560   8.582   6.374   2.240 -0.0767  0.1123 -0.1228
  302MOL0     C41561   8.444   6.432   2.211  0.6272 -0.9167 -0.7393
  302MOL0     O41562   8.422   6.464   2.076  0.2480  0.2592 -0.2898
  302MOL0     C41563   8.317   6.543   2.042  0.0636  0.0812 -0.7583
  302MOL0     C41564   8.305   6.589   1.905  0.4439  0.3492  0.3103
  302MOL0     C41565   8.192   6.661   1.853  0.1901  0.0129  0.2609
  302MOL0     C41566   8.189   6.665   1.699  0.3327  0.5289 -0.8735
  302MOL0     C41567   8.088   6.708   1.943 -0.5281 -0.3448 -0.1036
  302MOL0     C41568   7.972   6.789   1.901  0.1820  0.8862  0.0770
  302MOL0     O41569   8.000   6.876   1.804  0.3459 -0.6593 -0.6714
  302MOL0     C41570   7.905   6.948   1.751  0.7876  0.5758 -0.4653
  302MOL0     C41571   7.862   6.907   1.628 -0.2295  0.0074 -0.4229
  302MOL0     C41572   7.762   6.974   1.556  0.1075  1.2727 -0.0542
  302MOL0     C41573   7.703   7.089   1.608  0.0917 -0.0945 -0.6485
  302MOL0     O41574   7.622   7.175   1.543  0.4732 -0.6165 -0.0899
  302MOL0     C41575   7.606   7.136   1.406  0.3280  0.8134  0.5686
  302MOL0     C41576   7.520   7.236   1.339 -0.0764 -0.3095  0.2970
  302MOL0     C41577   7.488   7.207   1.191 -0.3752  0.6966  0.4543
  302MOL0     C41578   7.398   7.087   1.156 -0.6424  0.2177 -0.1946
  302MOL0     C41579   7.389   7.089   1.010  0.5963  0.4990 -0.3058
  302MOL0     C41580   7.248   7.108   0.949 -0.1149  1.3397 -0.1548
  302MOL0     C41581   7.264   7.136   0.799  0.1858 -0.8110 -0.0840
  302MOL0     C41582   7.131   7.132   0.723 -0.0413 -0.2430  0.6176
  302MOL0    Cl41583   7.163   7.097   0.545  0.0627  0.7147 -0.3007
  302MOL0     C41584   7.747   7.123   1.742 -0.8452 -0.6413 -0.5905
  302MOL0     C41585   7.844   7.055   1.808 -0.2436 -0.0006 -0.6563
  302MOL0     O41586   7.863   6.791   1.973  0.6105 -0.2181  0.3762
  302MOL0     C41587   8.099   6.663   2.072 -0.6279 -0.3203  0.2679
  302MOL0     C41588   8.205   6.586   2.126 -0.4831 -0.3068  0.2273
  302MOL0     N41589   8.914   6.686   2.317 -0.5714  0.0096 -0.0034
  302MOL0     N41590   9.016   6.763   2.292  1.4081 -0.1518 -0.1017
  302MOL0     C41591   9.864   7.402   2.564  0.5893  0.7157  0.8514
  302MOL0     C41592   9.925   7.396   2.692 -0.5839  0.0099 -0.4396
  302MOL0     C41593   9.993   7.288   3.128  0.3281 -0.2607  0.5458
  302MOL0     C41594  10.117   7.365   3.149  0.0874  0.8323 -0.3463
  302MOL0     C41595  10.179   7.355   3.271 -0.0111 -0.2124 -0.0915
  302MOL0     C41596  10.108   7.298   3.385 -0.5069 -0.4747  0.3670
  302MOL0     O41597  10.150   7.306   3.515  0.2682  0.1967 -0.7973
  302MOL0     C41598  10.287   7.347   3.541  0.3134  0.2056 -0.0902
  302MOL0     C41599  10.393   7.232   3.514  0.5813 -0.3556  0.1803
  302MOL0     C41600  10.351   7.102   3.574 -0.6885 -0.1298 -0.2120
  302MOL0     C41601  10.370   7.102   3.726 -0.5464 -0.0924  0.0353
  302MOL0     C41602  10.260   7.170   3.808 -0.2166  0.6105 -0.8420
  302MOL0     C41603  10.178   7.241   3.861  0.3318  0.4489 -0.2553
  302MOL0     C41604   9.993   7.231   3.362 -0.1663 -0.0354  0.9576
  302MOL0     C41605   9.935   7.230   3.236 -0.3675 -0.7728  0.7806
  302MOL0     C41606   9.788   7.170   3.238 -0.5871  0.9737  0.3700
  302MOL0     H41607   9.648   7.403   2.885  1.3572 -3.4178  2.0392
  302MOL0     H41608   9.539   7.397   2.658  0.3949 -1.4251 -0.5994
  302MOL0     H41609   9.772   7.262   2.323  1.4380  0.9220 -0.7329
  302MOL0     H41610   9.785   7.437   2.291 -0.8589  0.9925  0.9455
  302MOL0     H41611   9.576   7.434   2.192  2.5724  1.6621  0.0783
  302MOL0     H41612   9.663   7.313   2.111 -1.7721 -1.1629 -0.4027
  302MOL0     H41613   9.569   7.133   2.284 -0.0349  1.1890  1.8232
  302MOL0     H41614   9.446   7.242   2.310 -0.5622 -3.2797  0.0403
  302MOL0     H41615   9.364   7.269   2.078 -0.7327 -0.4359  1.4661
  302MOL0     H41616   9.502   7.160   2.029  2.4418 -0.0903  1.7950
  302MOL0     H41617   9.271   7.040   2.043 -0.2584  4.3013 -1.0818
  302MOL0     H41618   9.274   7.093   2.215  2.1844 -0.0180  0.9627
  302MOL0     H41619   9.464   6.876   2.099  3.1771 -1.6244  3.0593
  302MOL0     H41620   9.476   6.950   2.255 -0.4651  3.0417 -0.9299
  302MOL0     H41621   9.248   6.880   2.313 -0.5783 -4.3587  1.4829
  302MOL0     H41622   9.358   6.752   2.277 -2.8656 -2.1371  1.6346
  302MOL0     H41623   9.148   6.870   2.088  0.9820  2.0312  1.7881
  302MOL0     H41624   9.237   6.715   2.061  1.1581  1.5669 -1.5666
  302MOL0     H41625   9.080   6.501   2.113 -2.0635 -1.1715  0.2624
  302MOL0     H41626   8.867   6.399   2.342  1.6997  2.7980  1.4159
  302MOL0     H41627   8.844   6.380   2.167 -0.7977  0.2379 -0.7216
  302MOL0     H41628   8.659   6.530   2.360  0.9968 -0.4904 -0.1586
  302MOL0     H41629   8.653   6.553   2.179 -1.6887 -1.5902  0.7290
  302MOL0     H41630   8.620   6.311   2.160 -1.0417 -1.9626  0.9747
  302MOL0     H41631   8.579   6.314   2.331  0.5905 -0.3860 -0.4265
  302MOL0     H41632   8.372   6.351   2.225  0.8018 -0.8447  0.7953
  302MOL0     H41633   8.421   6.515   2.279 -0.3847 -1.9707  0.2532
  302MOL0     H41634   8.387   6.553   1.843  0.5893  1.0537  0.0855
  302MOL0     H41635   8.243   6.578   1.659 -1.2010 -1.2255  0.6412
  302MOL0     H41636   8.237   6.759   1.670 -1.7353  2.3237  1.1327
  302MOL0     H41637   8.089   6.661   1.656 -0.0954  0.2694  0.1128
  302MOL0     H41638   7.909   6.818   1.586  4.8913  1.5211  1.3551
  302MOL0     H41639   7.744   6.937   1.456  0.3409 -0.6690  0.5791
  302MOL0     H41640   7.703   7.140   1.357  2.4239 -2.6588  3.8675
  302MOL0     H41641   7.555   7.040   1.394 -0.0015  0.6085  3.0382
  302MOL0     H41642   7.425   7.248   1.392  1.1635 -2.2021  3.1911
  302MOL0     H41643   7.580   7.327   1.349 -1.4418  1.1996 -3.5085
  302MOL0     H41644   7.587   7.207   1.146  0.2952  1.9366  1.8259
  302MOL0     H41645   7.445   7.302   1.158  3.5992  1.6610 -2.6493
  302MOL0     H41646   7.300   7.115   1.198 -0.7732  2.0709 -1.6274
  302MOL0     H41647   7.440   6.992   1.191  0.3068  1.3849  2.1048
  302MOL0     H41648   7.458   7.163   0.968 -0.4909  3.2380  2.3489
  302MOL0     H41649   7.440   6.998   0.975  1.5157  1.0265 -0.3650
  302MOL0     H41650   7.201   7.200   0.985 -1.6057  0.3800  0.4457
  302MOL0     H41651   7.176   7.029   0.971  0.6404 -0.4085 -3.3470
  302MOL0     H41652   7.335   7.067   0.753  1.1374  0.5988 -0.7653
  302MOL0     H41653   7.295   7.239   0.784 -0.6322 -0.3862  1.0029
  302MOL0     H41654   7.075   7.225   0.739  1.0214  0.3785  0.8385
  302MOL0     H41655   7.055   7.062   0.761  1.4527 -2.5768 -0.4911
  302MOL0     H41656   7.688   7.198   1.794  0.4418  0.3598 -0.5370
  302MOL0     H41657   7.896   7.087   1.897  0.0493  0.8700 -1.1216
  302MOL0     H41658   8.029   6.698   2.147  0.0192 -0.3762  0.9098
  302MOL0     H41659   8.205   6.552   2.230  0.9486 -2.7588 -0.4864
  302MOL0     H41660   9.933   7.403   2.480 -1.9976  1.4690 -1.4164
  302MOL0     H41661  10.033   7.385   2.696 -0.7159 -1.0207  1.1597
  302MOL0     H41662  10.158   7.417   3.064  0.6634  1.7321  0.4636
  302MOL0     H41663  10.275   7.403   3.285 -0.7531  0.7745  1.9955
  302MOL0     H41664  10.300   7.442   3.487  0.5245  0.8284  1.0257
  302MOL0     H41665  10.299   7.377   3.645  0.5690  1.8094 -0.5479
  302MOL0     H41666  10.489   7.260   3.557  1.7800 -2.1354 -1.1809
  302MOL0     H41667  10.396   7.227   3.404 -1.7935  1.9112 -0.0981
  302MOL0     H41668  10.248   7.070   3.555 -0.7242  0.2539 -0.6704
  302MOL0     H41669  10.415   7.025   3.530 -1.4205  0.3761 -2.2660
  302MOL0     H41670  10.464   7.141   3.768 -2.0132  0.0211  3.6207
  302MOL0     H41671  10.359   6.998   3.758  2.2113 -1.0693 -1.8422
  302MOL0     H41672  10.098   7.299   3.901  0.1207  0.6912 -1.0069
  302MOL0     H41673   9.945   7.189   3.451 -0.0519 -1.5476  0.3372
  302MOL0     H41674   9.762   7.127   3.335 -0.1994 -1.4792 -0.5540
  302MOL0     H41675   9.715   7.239   3.196 -0.1010  1.3539  0.1292
  302MOL0     H41676   9.776   7.094   3.161 -2.5292  2.0230 -0.4275
  303MOL0     O41677   1.465   1.843   8.587 -0.0485 -0.1551 -0.2080
  303MOL0     C41678   1.576   1.804   8.630 -0.7066 -1.1565  0.4025
  303MOL0     O41679   1.681   1.887   8.642 -0.5981 -0.1921 -0.7454
  303MOL0     C41680   1.662   2.019   8.593 -0.8039  0.6613 -0.5923
  303MOL0     C41681   1.763   2.061   8.508 -0.2343 -0.1113  0.9771
  303MOL0     C41682   1.770   2.197   8.458  0.4848  0.4165 -1.2919
  303MOL0     C41683   1.682   2.293   8.516 -0.4771  0.2044  0.5371
  303MOL0     O41684   1.692   2.425   8.469 -0.5073  0.7779 -0.4397
  303MOL0     C41685   1.657   2.536   8.553 -0.4905 -0.6640  0.6895
  303MOL0     C41686   1.712   2.680   8.504  0.2684  0.2991  0.2439
  303MOL0     C41687   1.659   2.800   8.580  0.4782  0.3197 -0.3907
  303MOL0     C41688   1.690   2.938   8.509  0.8981 -0.4174 -0.6288
  303MOL0     C41689   1.835   2.965   8.496 -0.3495 -0.7444 -0.0091
  303MOL0     C41690   1.918   2.973   8.626  0.0344 -0.3041 -0.0204
  303MOL0     C41691   2.055   3.015   8.585  0.0209  0.5424  0.2534
  303MOL0     C41692   2.131   3.067   8.711  0.2239 -0.3311 -0.1005
  303MOL0     N41693   2.276   3.093   8.695 -0.0194 -0.1478  0.2836
  303MOL0     C41694   2.373   2.996   8.702  0.0801  0.7145  0.5283
  303MOL0     C41695   2.487   3.070   8.691 -0.5138 -0.3695  0.1474
  303MOL0     C41696   2.611   2.983   8.680 -0.8615  0.7142  0.2577
  303MOL0     C41697   2.718   3.065   8.609  0.2842 -1.4194  0.1622
  303MOL0     C41698   2.849   2.989   8.610  1.3372 -1.1893 -0.4898
  303MOL0     C41699   2.954   3.061   8.533  0.5639 -0.5458 -0.1042
  303MOL0     O41700   2.986   3.179   8.604  0.3033 -0.3904 -0.2102
  303MOL0     C41701   3.061   3.179   8.729 -1.2582  0.7027  0.6427
  303MOL0     C41702   3.178   3.097   8.753 -0.0842  0.1856 -1.1130
  303MOL0     C41703   3.234   3.092   8.880  0.1825  0.4143 -0.2018
  303MOL0     C41704   3.352   3.000   8.895 -0.1589  0.5501  0.3596
  303MOL0     C41705   3.200   3.186   8.988 -0.0033 -0.7057 -0.4664
  303MOL0     C41706   3.273   3.193   9.115  0.1145  0.8444 -0.2721
  303MOL0     O41707   3.257   3.295   9.196 -0.4214 -0.7435 -0.4643
  303MOL0     C41708   3.352   3.308   9.304  0.3054  0.6119 -0.1401
  303MOL0     C41709   3.490   3.281   9.292  0.2026 -0.0424  0.1999
  303MOL0     C41710   3.576   3.285   9.402  0.4159  0.3431  0.7377
  303MOL0     C41711   3.528   3.321   9.531  0.4949 -1.0704  0.2531
  303MOL0     O41712   3.620   3.349   9.629  0.3836 -0.8492  0.5172
  303MOL0     C41713   3.601   3.485   9.674 -0.5972  0.1446  0.4963
  303MOL0     C41714   3.729   3.543   9.738  0.1212 -0.6178  1.2411
  303MOL0     C41715   3.821   3.597   9.621 -0.9544 -0.1348  0.6090
  303MOL0     C41716   3.941   3.678   9.669  0.5705  0.1671  0.3018
  303MOL0     C41717   3.997   3.780   9.557  1.3150  0.4056  0.0570
  303MOL0     C41718   4.131   3.853   9.594 -0.6574 -1.3695  0.2275
  303MOL0     C41719   4.253   3.768   9.634 -0.1866 -0.0722 -0.3546
  303MOL0     C41720   4.363   3.855   9.699 -0.6246 -0.9203 -0.1087
  303MOL0    Cl41721   4.483   3.758   9.787  0.1174  0.3479 -0.2305
  303MOL0     C41722   3.394   3.334   9.552  0.1491 -0.5808  0.4023
  303MOL0     C41723   3.309   3.329   9.439  1.1858  0.4659 -0.3591
  303MOL0     O41724   3.330   3.089   9.154 -1.1098  0.1496  0.1950
  303MOL0     C41725   3.097   3.277   8.950 -0.6166 -0.2651 -0.1741
  303MOL0     C41726   3.032   3.276   8.823  0.2453  0.2990  0.4316
  303MOL0     N41727   2.468   3.209   8.701  0.7500  0.2676 -0.5839
  303MOL0     N41728   2.340   3.220   8.692 -0.9306 -0.8209  0.3485
  303MOL0     C41729   1.583   2.246   8.607  0.0965 -0.5749 -0.4718
  303MOL0     C41730   1.570   2.108   8.640  0.6336 -0.5977  0.0662
  303MOL0     C41731   1.604   1.667   8.687 -0.7123  0.5203  0.2762
  303MOL0     C41732   1.737   1.645   8.745 -0.3977  0.8186  0.6649
  303MOL0     C41733   1.771   1.522   8.790  0.1004 -0.6925  0.0994
  303MOL0     C41734   1.677   1.421   8.785  0.8767 -0.1113 -0.5465
  303MOL0     O41735   1.700   1.295   8.827  0.2519 -0.3544 -0.5433
  303MOL0     C41736   1.764   1.277   8.955 -0.5709 -0.0481 -0.0020
  303MOL0     C41737   1.679   1.317   9.071  0.7579  0.5169  1.4394
  303MOL0     C41738   1.543   1.246   9.092 -0.2489  0.6638  1.0203
  303MOL0     C41739   1.491   1.288   9.228 -0.1951 -0.0444 -1.3363
  303MOL0     C41740   1.354   1.248   9.243  0.9485  0.4576 -0.3028
  303MOL0     C41741   1.235   1.205   9.263  0.3348 -0.6828 -0.0927
  303MOL0     C41742   1.550   1.438   8.726 -1.0068  0.4750  0.3881
  303MOL0     C41743   1.516   1.562   8.677  0.8652  0.2608  0.2058
  303MOL0     C41744   1.382   1.566   8.594 -0.3454  0.0545 -0.0442
  303MOL0     H41745   1.843   1.989   8.496 -1.6501 -1.4590 -0.9228
  303MOL0     H41746   1.841   2.242   8.389  0.9826 -0.0842 -1.1176
  303MOL0     H41747   1.696   2.534   8.655  0.0811  1.7715  0.5647
  303MOL0     H41748   1.548   2.543   8.551 -0.5799 -1.7283  1.2422
  303MOL0     H41749   1.819   2.672   8.527 -0.3015 -4.3125  2.2935
  303MOL0     H41750   1.697   2.699   8.397  0.7245 -0.8851 -0.0477
  303MOL0     H41751   1.554   2.779   8.598  1.0829 -3.4208 -0.3876
  303MOL0     H41752   1.697   2.809   8.682 -2.5673  1.1617  0.7763
  303MOL0     H41753   1.643   2.935   8.410  2.4579 -2.2098 -1.3675
  303MOL0     H41754   1.642   3.013   8.572 -1.2351 -1.3192 -1.1001
  303MOL0     H41755   1.851   3.053   8.434  0.0252 -2.0858 -1.9159
  303MOL0     H41756   1.876   2.877   8.445 -1.0947 -0.1176 -1.7757
  303MOL0     H41757   1.876   3.048   8.693 -0.3547  1.3490 -2.0426
  303MOL0     H41758   1.923   2.881   8.685  3.5272  1.0141  2.0809
  303MOL0     H41759   2.062   3.096   8.511  3.1617  0.2023  0.0805
  303MOL0     H41760   2.109   2.934   8.537  0.0011  0.1389  0.8965
  303MOL0     H41761   2.089   3.159   8.751  3.1207  0.9564  0.2747
  303MOL0     H41762   2.127   2.998   8.796  0.6127 -1.0484 -0.6429
  303MOL0     H41763   2.361   2.890   8.679  0.7698  1.2115 -2.4619
  303MOL0     H41764   2.585   2.890   8.627  0.5377  0.7795 -0.5889
  303MOL0     H41765   2.638   2.953   8.781 -1.6607  1.3912  0.6890
  303MOL0     H41766   2.683   3.106   8.514 -2.4284 -0.9561  1.2549
  303MOL0     H41767   2.728   3.160   8.662 -0.0246 -0.7389 -0.9585
  303MOL0     H41768   2.868   2.988   8.717 -4.0346 -1.8527  0.7825
  303MOL0     H41769   2.841   2.883   8.583 -1.3788 -1.6030  1.5312
  303MOL0     H41770   3.037   2.990   8.527  1.1627  0.1767 -0.6288
  303MOL0     H41771   2.927   3.082   8.429 -0.2840 -2.8834 -0.4192
  303MOL0     H41772   3.204   3.037   8.667 -0.8090 -0.7839 -0.6821
  303MOL0     H41773   3.442   3.049   8.934  1.4363  0.0359 -2.4160
  303MOL0     H41774   3.387   2.945   8.807  2.6308  0.0733  1.6422
  303MOL0     H41775   3.330   2.923   8.970 -0.3372  0.3052  0.0588
  303MOL0     H41776   3.529   3.260   9.193  1.9439  2.7698  0.1693
  303MOL0     H41777   3.683   3.277   9.385  0.1250 -0.9879 -0.6547
  303MOL0     H41778   3.582   3.553   9.591  1.4154  1.6240  1.1568
  303MOL0     H41779   3.524   3.506   9.749  0.6640  2.7007  1.2195
  303MOL0     H41780   3.718   3.620   9.815  1.9875 -0.5897  1.5311
  303MOL0     H41781   3.782   3.460   9.784  0.5177 -2.1934 -1.7949
  303MOL0     H41782   3.772   3.671   9.557  2.4376  0.4985 -1.5519
  303MOL0     H41783   3.862   3.522   9.552 -1.3879  0.3818 -0.2256
  303MOL0     H41784   4.020   3.609   9.700  0.2067 -0.0780  0.7029
  303MOL0     H41785   3.912   3.727   9.763 -2.1632  0.7242 -0.7375
  303MOL0     H41786   4.012   3.718   9.468 -2.4809  0.9761 -1.1219
  303MOL0     H41787   3.921   3.857   9.549 -0.8604 -1.4213  1.8606
  303MOL0     H41788   4.110   3.924   9.675  1.1556  2.5075 -2.3528
  303MOL0     H41789   4.164   3.915   9.509  4.0880 -1.4481  1.7345
  303MOL0     H41790   4.281   3.707   9.548  2.3564  1.6962 -0.8987
  303MOL0     H41791   4.226   3.687   9.702  0.3980  0.5437  0.6433
  303MOL0     H41792   4.318   3.931   9.763 -1.8310  1.1027 -3.1247
  303MOL0     H41793   4.415   3.916   9.625 -0.1214 -0.5581  0.5326
  303MOL0     H41794   3.357   3.334   9.653  2.2841 -0.9752  1.2408
  303MOL0     H41795   3.203   3.350   9.455  1.3138  0.3670  0.6926
  303MOL0     H41796   3.069   3.344   9.030 -0.7647  1.3453 -1.5123
  303MOL0     H41797   2.953   3.344   8.797  2.4900  2.2688 -1.8037
  303MOL0     H41798   1.518   2.305   8.671  1.2222 -1.3903  1.5085
  303MOL0     H41799   1.505   2.076   8.721  1.1016  1.2762  1.2472
  303MOL0     H41800   1.793   1.737   8.756 -2.0084  1.9483 -0.2411
  303MOL0     H41801   1.858   1.507   8.854 -0.6840  0.5266  1.5082
  303MOL0     H41802   1.802   1.176   8.971  0.4573  0.4777  1.0544
  303MOL0     H41803   1.858   1.332   8.968 -2.2375  2.8267  0.9875
  303MOL0     H41804   1.661   1.425   9.070  1.9243  0.7456 -0.8059
  303MOL0     H41805   1.736   1.310   9.164 -0.6441  4.7440  2.8724
  303MOL0     H41806   1.473   1.258   9.010  0.1818  0.5271  0.6275
  303MOL0     H41807   1.548   1.136   9.091 -0.2621  0.6689  0.3049
  303MOL0     H41808   1.493   1.396   9.242  1.5016 -0.1905 -0.1798
  303MOL0     H41809   1.545   1.244   9.313 -2.6752 -0.8155 -0.0684
  303MOL0     H41810   1.144   1.159   9.294  0.5827 -0.5338  0.9278
  303MOL0     H41811   1.489   1.350   8.711  0.9972 -0.8244 -0.5425
  303MOL0     H41812   1.396   1.558   8.485 -0.1556  0.0293 -0.0197
  303MOL0     H41813   1.313   1.485   8.617 -1.1832 -0.3225 -3.3665
  303MOL0     H41814   1.316   1.652   8.607 -0.7444  0.7058 -4.5772
  304MOL0     O41815   8.722   6.485  11.273 -0.3650 -0.3371  0.3565
  304MOL0     C41816   8.787   6.443  11.370  0.0823  0.6508 -0.2076
  304MOL0     O41817   8.745   6.356  11.462  0.3613  0.0856 -0.8085
  304MOL0     C41818   8.618   6.302  11.455  0.1157  0.5820 -0.3383
  304MOL0     C41819   8.609   6.179  11.522 -0.8050 -0.8665  0.0820
  304MOL0     C41820   8.495   6.106  11.513  0.5578  0.3536  0.2324
  304MOL0     C41821   8.373   6.147  11.451  0.0551 -0.3206  0.5439
  304MOL0     O41822   8.258   6.070  11.466  0.1889 -0.0981  0.2103
  304MOL0     C41823   8.234   5.982  11.572 -0.6344 -0.0581  0.1359
  304MOL0     C41824   8.083   5.978  11.573 -0.2895  0.1012  0.6517
  304MOL0     C41825   8.023   5.878  11.679  0.7926 -0.1739  0.3480
  304MOL0     C41826   8.017   5.963  11.806  0.4602 -1.0302  0.8214
  304MOL0     C41827   7.956   5.896  11.919  1.1451  0.3954 -0.6369
  304MOL0     C41828   8.035   5.785  11.986  0.1472 -0.0063 -0.3504
  304MOL0     C41829   7.962   5.747  12.116  0.3605  0.5899 -0.1644
  304MOL0     C41830   8.007   5.612  12.179 -0.6591 -0.0205 -0.4598
  304MOL0     N41831   8.148   5.620  12.239  0.4452 -0.0569  0.3113
  304MOL0     C41832   8.242   5.524  12.223 -0.6652 -0.4677  0.6649
  304MOL0     C41833   8.348   5.565  12.291  0.3580 -0.8767  0.0426
  304MOL0     C41834   8.477   5.480  12.319 -0.0891 -0.7251 -0.3610
  304MOL0     C41835   8.480   5.408  12.459  0.5366  0.2150  0.8722
  304MOL0     C41836   8.470   5.508  12.573 -0.3377 -0.3445 -0.0133
  304MOL0     C41837   8.501   5.446  12.703  0.5883 -0.0443  0.2273
  304MOL0     O41838   8.392   5.367  12.762 -0.2812 -0.2846  0.4259
  304MOL0     C41839   8.422   5.244  12.817  0.0909  0.5598 -0.8088
  304MOL0     C41840   8.365   5.218  12.944  0.6754 -0.9198  0.3493
  304MOL0     C41841   8.384   5.100  13.009  0.0161 -0.0476  0.5899
  304MOL0     C41842   8.309   5.086  13.146 -0.1379 -0.0318 -0.0958
  304MOL0     C41843   8.474   5.004  12.948  0.5521  0.5422  0.0813
  304MOL0     C41844   8.503   4.867  13.020  1.0209  0.2966  0.1958
  304MOL0     O41845   8.601   4.791  12.974  1.0866 -0.7824  0.8361
  304MOL0     C41846   8.600   4.660  12.993 -0.8992  0.2185  0.2956
  304MOL0     C41847   8.645   4.614  13.121 -0.9797  0.2716  0.0005
  304MOL0     C41848   8.659   4.472  13.149 -0.0103 -0.3222  0.2838
  304MOL0     C41849   8.645   4.382  13.037  0.2481  0.6400  0.1719
  304MOL0     O41850   8.663   4.250  13.065 -0.0904  0.4294  0.3043
  304MOL0     C41851   8.657   4.151  12.963  0.0580  0.0405  0.1643
  304MOL0     C41852   8.639   4.022  13.036  0.7408  0.3724 -0.0994
  304MOL0     C41853   8.510   4.019  13.111 -0.3813 -0.8996  0.3250
  304MOL0     C41854   8.502   3.896  13.197 -0.0749  0.1039 -0.5787
  304MOL0     C41855   8.367   3.896  13.284 -0.1939 -0.3745 -0.8845
  304MOL0     C41856   8.365   3.773  13.379  0.1116  0.0426  0.2691
  304MOL0     C41857   8.227   3.761  13.456 -0.6387 -0.8076 -0.8721
  304MOL0     C41858   8.217   3.627  13.545  0.1778 -0.3954  0.0782
  304MOL0    Cl41859   8.253   3.488  13.439  0.0498 -0.1635  0.4244
  304MOL0     C41860   8.606   4.433  12.905 -0.9567 -0.4386 -0.2223
  304MOL0     C41861   8.592   4.571  12.888 -0.8798 -0.6762  0.7330
  304MOL0     O41862   8.427   4.827  13.108  0.2333 -0.4076 -0.3607
  304MOL0     C41863   8.542   5.032  12.818  0.3565  0.4185  0.1169
  304MOL0     C41864   8.516   5.152  12.766 -1.0628 -0.4391  0.9008
  304MOL0     N41865   8.315   5.691  12.348  0.4282  0.6112  0.3801
  304MOL0     N41866   8.203   5.730  12.298  0.4159 -0.2927 -1.2236
  304MOL0     C41867   8.377   6.277  11.401 -0.4886 -0.6540 -0.6269
  304MOL0     C41868   8.499   6.351  11.404 -0.5365 -0.4385  0.2908
  304MOL0     C41869   8.927   6.504  11.385  0.6099  0.6374 -0.1604
  304MOL0     C41870   8.938   6.639  11.407  0.7623  0.1199 -0.1506
  304MOL0     C41871   9.061   6.713  11.395 -0.5355 -0.1512  0.6085
  304MOL0     C41872   9.177   6.636  11.379 -0.2440 -0.0758 -0.6835
  304MOL0     O41873   9.291   6.707  11.370 -0.6281 -0.3555 -0.7416
  304MOL0     C41874   9.338   6.737  11.498 -0.0991  0.0479  0.1435
  304MOL0     C41875   9.447   6.841  11.462 -0.1937 -0.4901  0.8324
  304MOL0     C41876   9.505   6.912  11.589 -0.8272  0.2843  0.5741
  304MOL0     C41877   9.637   6.979  11.552  0.3187  0.0416  0.6368
  304MOL0     C41878   9.658   7.079  11.653 -0.0148 -0.6025 -0.3541
  304MOL0     C41879   9.690   7.159  11.741  1.0252  0.4669 -0.6725
  304MOL0     C41880   9.172   6.499  11.346 -0.5545  0.8220 -0.0391
  304MOL0     C41881   9.049   6.436  11.360  0.2442  1.1486 -0.9593
  304MOL0     C41882   9.044   6.291  11.322 -1.2241  0.5427 -0.4187
  304MOL0     H41883   8.694   6.154  11.585 -2.8048 -2.5753  2.2809
  304MOL0     H41884   8.477   6.016  11.571 -2.7545 -0.2909 -1.5613
  304MOL0     H41885   8.286   6.025  11.659 -0.4341 -0.0508  0.0136
  304MOL0     H41886   8.277   5.884  11.553 -0.1004  0.7537 -3.5944
  304MOL0     H41887   8.049   6.081  11.586  3.1760  1.5442 -0.5293
  304MOL0     H41888   8.053   5.944  11.473 -0.6997 -1.8904  1.4125
  304MOL0     H41889   7.926   5.837  11.653  1.0393 -2.2275  2.3597
  304MOL0     H41890   8.089   5.792  11.689  1.5787  0.1119 -1.8325
  304MOL0     H41891   8.121   5.983  11.835  0.6477 -2.6065  1.3272
  304MOL0     H41892   7.959   6.054  11.790  0.1035 -0.8358  2.9710
  304MOL0     H41893   7.863   5.846  11.889  2.1169 -1.3544 -0.9205
  304MOL0     H41894   7.937   5.969  11.998  1.9813 -1.3068  1.2326
  304MOL0     H41895   8.040   5.704  11.913  1.9479  0.4076 -0.7371
  304MOL0     H41896   8.138   5.818  12.005 -0.2723  1.8768 -1.0440
  304MOL0     H41897   7.853   5.744  12.105  0.3770  1.6706 -0.8028
  304MOL0     H41898   7.978   5.828  12.188 -1.5310  1.5283 -0.7350
  304MOL0     H41899   7.937   5.594  12.261  1.9150 -1.4584  1.5940
  304MOL0     H41900   8.003   5.521  12.118  1.5096 -0.4020 -0.1287
  304MOL0     H41901   8.234   5.426  12.177 -0.7475  0.0583 -0.4823
  304MOL0     H41902   8.568   5.539  12.306 -0.1490  0.0923  2.3758
  304MOL0     H41903   8.497   5.403  12.244  2.1843 -0.6952  0.1412
  304MOL0     H41904   8.386   5.353  12.457  0.0035  1.1137 -0.7467
  304MOL0     H41905   8.565   5.339  12.465 -0.9012 -1.7324 -0.0368
  304MOL0     H41906   8.524   5.597  12.538  1.8642 -0.9793  1.5313
  304MOL0     H41907   8.367   5.543  12.581 -0.3690 -0.3600 -0.3436
  304MOL0     H41908   8.596   5.394  12.689  1.2022  1.4889 -1.9364
  304MOL0     H41909   8.518   5.537  12.760 -1.9041 -0.3997  1.6609
  304MOL0     H41910   8.286   5.286  12.975  1.1434 -1.7128  3.6154
  304MOL0     H41911   8.264   5.183  13.164  0.6545  0.4302 -0.5484
  304MOL0     H41912   8.375   5.064  13.231  0.0271 -0.0110 -0.2200
  304MOL0     H41913   8.232   5.009  13.153 -0.3989  0.0018 -2.1588
  304MOL0     H41914   8.664   4.684  13.202 -3.2242  0.9585  0.0052
  304MOL0     H41915   8.695   4.433  13.243  3.8726  1.4543 -0.2912
  304MOL0     H41916   8.566   4.166  12.905 -0.4564 -1.5781  0.5152
  304MOL0     H41917   8.747   4.151  12.901 -0.4289 -0.5372 -0.5512
  304MOL0     H41918   8.637   3.941  12.962  1.5027  0.4226 -0.1834
  304MOL0     H41919   8.721   4.007  13.106 -0.3337 -0.6198  1.0011
  304MOL0     H41920   8.426   4.008  13.043 -0.5316 -1.2246  0.5621
  304MOL0     H41921   8.498   4.109  13.173  1.4666  0.6900 -1.4676
  304MOL0     H41922   8.582   3.882  13.271 -2.6553 -3.5487  1.8582
  304MOL0     H41923   8.504   3.809  13.131  2.2479 -0.9737  0.7588
  304MOL0     H41924   8.353   3.986  13.344 -3.6796 -1.0450 -0.4622
  304MOL0     H41925   8.281   3.895  13.216  0.2180  1.5019 -1.4832
  304MOL0     H41926   8.453   3.780  13.443  1.0398  0.7263 -1.0301
  304MOL0     H41927   8.382   3.687  13.314 -0.7064  0.4785 -0.5460
  304MOL0     H41928   8.142   3.766  13.388 -2.3626  1.8084  1.2903
  304MOL0     H41929   8.222   3.849  13.521 -0.2257 -1.6145  0.2831
  304MOL0     H41930   8.114   3.612  13.578 -0.2394 -0.6128 -1.2544
  304MOL0     H41931   8.272   3.642  13.638 -1.7891  0.9710  1.1181
  304MOL0     H41932   8.581   4.364  12.825 -3.8215 -0.5141  0.6335
  304MOL0     H41933   8.566   4.605  12.788 -1.6927 -1.0376  0.8126
  304MOL0     H41934   8.599   4.959  12.761  0.6877  0.6639  0.1289
  304MOL0     H41935   8.558   5.183  12.671 -2.1678  1.5044  0.9902
  304MOL0     H41936   8.289   6.329  11.363  1.3783  2.8764 -0.5207
  304MOL0     H41937   8.499   6.456  11.379  0.4453 -0.5464 -0.1967
  304MOL0     H41938   8.841   6.687  11.411  0.7557  0.1858 -0.9684
  304MOL0     H41939   9.058   6.818  11.421 -0.2850  0.4575 -1.6009
  304MOL0     H41940   9.260   6.798  11.545  0.8497  1.7931 -0.4681
  304MOL0     H41941   9.386   6.654  11.551  1.7015 -0.3577 -1.9725
  304MOL0     H41942   9.401   6.919  11.400  0.2238  1.1463  2.4961
  304MOL0     H41943   9.532   6.793  11.413  0.9841 -0.5999  2.8751
  304MOL0     H41944   9.437   6.996  11.606  0.0358  1.7753 -2.5526
  304MOL0     H41945   9.514   6.842  11.673  0.4602  0.2062  0.3931
  304MOL0     H41946   9.631   7.015  11.449 -1.9496  1.4248  1.1738
  304MOL0     H41947   9.716   6.906  11.533 -1.8325 -2.0537 -0.8099
  304MOL0     H41948   9.709   7.232  11.817 -2.2644  2.9515 -2.0375
  304MOL0     H41949   9.260   6.436  11.334  1.1662  2.7340  1.8694
  304MOL0     H41950   9.144   6.248  11.311 -1.4666 -0.6150  1.3689
  304MOL0     H41951   8.989   6.244  11.405 -0.0982  0.1253  0.1172
  304MOL0     H41952   8.995   6.271  11.226  1.5065 -0.7067 -1.6682
  305MOL0     O41953   3.360   9.638   8.822  0.0671  0.7734 -0.4245
  305MOL0     C41954   3.381   9.739   8.758 -0.4759  0.0797  0.0978
  305MOL0     O41955   3.290   9.811   8.685  0.3128 -0.5228  0.3984
  305MOL0     C41956   3.159   9.798   8.689 -0.3419  0.1104  0.1496
  305MOL0     C41957   3.087   9.844   8.578 -0.0151 -0.2120 -0.2748
  305MOL0     C41958   2.950   9.850   8.582  0.4464 -0.2369 -0.7035
  305MOL0     C41959   2.875   9.804   8.696 -0.1544 -0.8688  0.5254
  305MOL0     O41960   2.742   9.807   8.706 -0.1414 -0.0417 -0.3634
  305MOL0     C41961   2.674   9.703   8.631 -0.1116  0.3567  0.4375
  305MOL0     C41962   2.588   9.772   8.525 -0.3796  0.9231  0.3213
  305MOL0     C41963   2.531   9.672   8.425 -0.2692  0.9161 -1.3332
  305MOL0     C41964   2.411   9.602   8.479 -0.5359  0.6040  0.2003
  305MOL0     C41965   2.287   9.676   8.518 -0.0739 -0.5955  0.4852
  305MOL0     C41966   2.173   9.592   8.560  0.7023 -0.1886  0.6130
  305MOL0     C41967   2.186   9.548   8.711  1.0606 -0.5235  0.8423
  305MOL0     C41968   2.066   9.462   8.758  1.0632 -0.9245 -0.2448
  305MOL0     N41969   2.055   9.339   8.678 -0.3679  0.1074  0.8087
  305MOL0     C41970   2.168   9.274   8.638  0.4422  0.1885 -0.7653
  305MOL0     C41971   2.119   9.171   8.563 -0.3289  0.1247 -1.7199
  305MOL0     C41972   2.198   9.069   8.492  0.2264 -0.0672  0.6712
  305MOL0     C41973   2.270   9.144   8.372  0.3829  0.1893 -0.2192
  305MOL0     C41974   2.369   9.051   8.304  0.1215 -0.0629 -0.8273
  305MOL0     C41975   2.467   9.122   8.214  0.6270  1.1266 -0.9562
  305MOL0     O41976   2.511   9.235   8.284  0.1867  0.6503 -0.7971
  305MOL0     C41977   2.633   9.292   8.258  0.0431 -0.0879  0.1034
  305MOL0     C41978   2.692   9.283   8.135 -0.3413  0.6632 -0.0408
  305MOL0     C41979   2.824   9.335   8.108  0.3296  0.2698  0.0762
  305MOL0     C41980   2.865   9.317   7.967  0.4980 -0.0332  1.3439
  305MOL0     C41981   2.895   9.395   8.212 -0.0294  0.1197 -0.1693
  305MOL0     C41982   3.029   9.447   8.201 -0.5495  0.0657 -1.0384
  305MOL0     O41983   3.081   9.501   8.316 -0.8263  0.0864 -0.0491
  305MOL0     C41984   3.205   9.555   8.318  0.4181 -0.6810 -0.5057
  305MOL0     C41985   3.232   9.688   8.287  0.3490 -0.1860 -0.1633
  305MOL0     C41986   3.363   9.743   8.293  1.2857 -0.5260 -0.5398
  305MOL0     C41987   3.463   9.664   8.345 -0.1825  0.0258 -0.3291
  305MOL0     O41988   3.591   9.710   8.340  0.4495 -0.4808  0.3705
  305MOL0     C41989   3.700   9.655   8.406  0.3687 -0.3346  0.0245
  305MOL0     C41990   3.811   9.753   8.420 -0.3012  0.0905 -0.8799
  305MOL0     C41991   3.933   9.703   8.502  0.7520 -0.3662 -0.1992
  305MOL0     C41992   4.066   9.755   8.438  0.4229  0.3983 -0.5313
  305MOL0     C41993   4.190   9.706   8.504  0.3219  0.2568  0.0376
  305MOL0     C41994   4.194   9.751   8.653 -1.2387  0.4489 -0.1297
  305MOL0     C41995   4.334   9.707   8.710  1.1474  0.4589  0.9717
  305MOL0     C41996   4.375   9.776   8.848  0.6269 -0.8520  0.0776
  305MOL0    Cl41997   4.407   9.951   8.796  0.0159 -0.2158  0.1232
  305MOL0     C41998   3.440   9.528   8.376  0.3562  0.1349 -0.4745
  305MOL0     C41999   3.314   9.479   8.360  0.5903  0.3263  0.5615
  305MOL0     O42000   3.101   9.444   8.096 -0.0910  0.0153  0.0874
  305MOL0     C42001   2.827   9.412   8.338  0.2068 -0.8713 -0.4093
  305MOL0     C42002   2.700   9.367   8.354  1.0092  0.6627  0.1992
  305MOL0     N42003   1.978   9.168   8.573  0.2146  0.6783 -0.2504
  305MOL0     N42004   1.940   9.281   8.634 -0.3059 -0.0428  1.1752
  305MOL0     C42005   2.953   9.767   8.808 -0.0033 -0.7554 -0.0992
  305MOL0     C42006   3.089   9.758   8.810 -1.1490  0.1114  0.2774
  305MOL0     C42007   3.522   9.802   8.773  0.1048  0.4878  0.3008
  305MOL0     C42008   3.531   9.935   8.755  0.4422  0.2339 -0.7380
  305MOL0     C42009   3.647  10.005   8.745 -0.4161  0.6649  0.8053
  305MOL0     C42010   3.771   9.941   8.770  0.7724  0.4072 -0.6478
  305MOL0     O42011   3.885  10.006   8.778 -0.6077  0.3685 -0.2667
  305MOL0     C42012   3.881  10.129   8.856  0.5858  1.0586  0.5147
  305MOL0     C42013   4.021  10.158   8.915 -0.0094 -0.7824 -0.3811
  305MOL0     C42014   4.101  10.227   8.804  0.5694  0.4659  0.7948
  305MOL0     C42015   4.244  10.248   8.851  0.7794  0.0880 -0.3050
  305MOL0     C42016   4.326  10.311   8.741 -0.1406 -0.3403  0.1644
  305MOL0     C42017   4.407  10.352   8.662  0.1036 -0.9741  0.3730
  305MOL0     C42018   3.770   9.804   8.805 -0.3443 -0.5628  0.1865
  305MOL0     C42019   3.645   9.730   8.806 -0.5461 -0.9826  0.0474
  305MOL0     C42020   3.655   9.579   8.820 -0.5014 -0.2048 -0.7444
  305MOL0     H42021   3.148   9.878   8.494 -0.9367  1.0232 -0.4738
  305MOL0     H42022   2.901   9.886   8.492 -1.9175 -0.1964  0.5230
  305MOL0     H42023   2.616   9.651   8.708  0.2885  3.7560  3.2928
  305MOL0     H42024   2.757   9.650   8.584  1.6381  0.4550  3.1832
  305MOL0     H42025   2.520   9.842   8.575 -2.7780  0.0905 -1.5391
  305MOL0     H42026   2.648   9.835   8.459 -0.7613  0.2631 -0.6814
  305MOL0     H42027   2.485   9.724   8.340 -0.0802  0.0829 -1.9640
  305MOL0     H42028   2.607   9.606   8.381  0.2543 -1.2537  2.4197
  305MOL0     H42029   2.388   9.528   8.402 -0.6412 -0.2452  1.0383
  305MOL0     H42030   2.440   9.541   8.565  0.3570 -0.7594 -1.0177
  305MOL0     H42031   2.245   9.744   8.443  1.9994 -0.1892 -0.3847
  305MOL0     H42032   2.300   9.744   8.603 -0.7285 -0.3441  0.3929
  305MOL0     H42033   2.080   9.648   8.545  0.5613 -1.0893 -2.7169
  305MOL0     H42034   2.160   9.500   8.501  0.8314 -0.0189  0.3149
  305MOL0     H42035   2.180   9.640   8.769  2.4985  1.3245 -1.7065
  305MOL0     H42036   2.282   9.497   8.727 -0.1169 -3.2694 -0.2217
  305MOL0     H42037   2.082   9.437   8.864  2.1020  0.6353 -0.0134
  305MOL0     H42038   1.967   9.508   8.764  0.2163 -2.7138  4.4472
  305MOL0     H42039   2.274   9.294   8.648  0.5746 -0.9701  0.4917
  305MOL0     H42040   2.127   8.995   8.453  0.0789 -0.1445  1.0826
  305MOL0     H42041   2.274   9.028   8.559  3.5761  0.0773 -2.7365
  305MOL0     H42042   2.193   9.167   8.298  1.8186  0.1029 -1.8098
  305MOL0     H42043   2.316   9.237   8.409  2.1559 -1.7899  3.0176
  305MOL0     H42044   2.421   8.984   8.372 -3.1613  0.1343  2.1849
  305MOL0     H42045   2.306   8.991   8.237 -0.2351  1.2245 -1.7059
  305MOL0     H42046   2.554   9.060   8.193  1.1216  1.9409 -1.3676
  305MOL0     H42047   2.415   9.159   8.124 -2.1703 -0.6159 -0.1939
  305MOL0     H42048   2.649   9.228   8.051  0.4389  2.7242 -1.8853
  305MOL0     H42049   2.897   9.410   7.920 -0.7351  1.3886  3.1853
  305MOL0     H42050   2.783   9.279   7.906 -0.0975 -0.2949  2.2991
  305MOL0     H42051   2.958   9.259   7.962  2.8406  3.5152  0.0203
  305MOL0     H42052   3.153   9.760   8.264  0.7695  0.2934 -0.1139
  305MOL0     H42053   3.374   9.847   8.265 -3.9174  0.7017  0.9211
  305MOL0     H42054   3.660   9.625   8.503 -1.8195 -1.5724 -1.1781
  305MOL0     H42055   3.727   9.564   8.351 -1.1760 -1.3164  0.8005
  305MOL0     H42056   3.832   9.783   8.317 -4.1623 -1.2856 -2.2455
  305MOL0     H42057   3.766   9.843   8.465 -1.2352 -0.1447 -1.3081
  305MOL0     H42058   3.939   9.593   8.504  2.8468 -0.2934  0.4984
  305MOL0     H42059   3.921   9.727   8.608 -1.9014 -1.9387 -0.0723
  305MOL0     H42060   4.053   9.862   8.454  0.1215  0.3302 -0.3128
  305MOL0     H42061   4.060   9.723   8.333 -0.4419 -0.1863 -0.3130
  305MOL0     H42062   4.199   9.597   8.495 -0.6540  0.1278  0.4816
  305MOL0     H42063   4.275   9.749   8.451  2.2753 -0.7707  2.1298
  305MOL0     H42064   4.129   9.694   8.720  2.2966 -0.7515  2.5909
  305MOL0     H42065   4.181   9.859   8.661  3.3785  1.4398 -2.3717
  305MOL0     H42066   4.410   9.733   8.636  0.1161  2.0106  0.4170
  305MOL0     H42067   4.327   9.599   8.725  1.5121 -0.3362 -3.3189
  305MOL0     H42068   4.467   9.733   8.888  0.8611  1.4964  2.3086
  305MOL0     H42069   4.305   9.776   8.932  0.3842  2.7511  0.0432
  305MOL0     H42070   3.524   9.466   8.406 -1.3875 -2.6709 -0.9809
  305MOL0     H42071   3.293   9.373   8.369 -0.7189  0.1742 -2.7551
  305MOL0     H42072   2.879   9.448   8.426  0.8632 -2.1835 -0.2242
  305MOL0     H42073   2.656   9.380   8.452 -2.1122  2.8954 -1.3198
  305MOL0     H42074   2.898   9.730   8.894  1.9571 -1.7291  0.7863
  305MOL0     H42075   3.123   9.724   8.907 -0.8335 -2.7010 -0.7485
  305MOL0     H42076   3.441   9.993   8.736  1.1789  1.9380  0.6017
  305MOL0     H42077   3.655  10.112   8.729  0.3439  0.4531 -0.2755
  305MOL0     H42078   3.846  10.209   8.790 -2.5872 -0.0967  0.6270
  305MOL0     H42079   3.807  10.112   8.935 -0.3316 -2.9578 -0.9726
  305MOL0     H42080   4.067  10.064   8.948  1.2401 -0.0069  0.1421
  305MOL0     H42081   4.005  10.228   8.997  1.2355 -0.6349 -0.2512
  305MOL0     H42082   4.110  10.162   8.716 -1.5673 -2.1319  2.3195
  305MOL0     H42083   4.059  10.324   8.775  1.3184  0.6128  0.1968
  305MOL0     H42084   4.294  10.158   8.888  1.6456  0.9229  0.6516
  305MOL0     H42085   4.233  10.315   8.937 -1.0183  0.5677 -0.8667
  305MOL0     H42086   4.476  10.382   8.586  0.7472 -0.8446  0.9983
  305MOL0     H42087   3.862   9.753   8.832  0.1390  0.2450  0.0970
  305MOL0     H42088   3.633   9.562   8.926  0.3701  1.4951 -0.2636
  305MOL0     H42089   3.602   9.527   8.739  2.7417  0.7734 -3.7014
  305MOL0     H42090   3.757   9.553   8.794 -0.4271 -1.9432  1.0039
  306MOL0     O42091   0.332   8.105   1.051  0.2399 -0.3552 -0.8466
  306MOL0     C42092   0.341   8.029   0.958  0.1982 -0.6105  0.3796
  306MOL0     O42093   0.429   8.035   0.850 -0.4540  0.5710  0.3241
  306MOL0     C42094   0.541   8.117   0.870  0.5217  0.2980  0.5078
  306MOL0     C42095   0.647   8.082   0.950 -0.6588 -0.2774  0.4778
  306MOL0     C42096   0.745   8.181   0.979 -0.5833  0.5746  0.2056
  306MOL0     C42097   0.734   8.311   0.929  0.1864 -0.6357 -0.6288
  306MOL0     O42098   0.827   8.399   0.967 -0.0958 -0.9553 -0.3556
  306MOL0     C42099   0.784   8.528   1.011  0.1723 -0.0253 -0.1830
  306MOL0     C42100   0.898   8.620   1.064 -0.6803  0.0748  0.1318
  306MOL0     C42101   0.867   8.711   1.174  0.0947  0.6032  0.1346
  306MOL0     C42102   0.994   8.727   1.269 -0.2108  0.2375  0.3822
  306MOL0     C42103   0.956   8.776   1.404 -0.2983 -0.0893 -0.2836
  306MOL0     C42104   1.040   8.712   1.514 -0.2067 -0.2714  0.1656
  306MOL0     C42105   1.020   8.784   1.645 -0.4400  0.3236  0.1037
  306MOL0     C42106   1.061   8.695   1.754  1.2151  0.4207 -1.1937
  306MOL0     N42107   1.178   8.620   1.743  0.3319 -0.1594 -0.2639
  306MOL0     C42108   1.301   8.670   1.757 -1.2672 -1.1532 -0.5386
  306MOL0     C42109   1.384   8.568   1.736 -0.3865 -0.0231 -0.1979
  306MOL0     C42110   1.537   8.577   1.744  0.6788 -0.2130 -0.0283
  306MOL0     C42111   1.599   8.532   1.612  0.4168 -0.9422 -0.4228
  306MOL0     C42112   1.610   8.638   1.507 -0.1502 -0.9942 -0.3314
  306MOL0     C42113   1.724   8.606   1.406  1.6119  0.0296 -0.1146
  306MOL0     O42114   1.855   8.604   1.459  0.2063 -0.4027  0.2129
  306MOL0     C42115   1.955   8.552   1.387 -0.5616 -0.6209 -0.6439
  306MOL0     C42116   2.079   8.531   1.444  0.3962  0.4182 -1.0826
  306MOL0     C42117   2.182   8.475   1.371 -0.2711  0.8727 -0.8059
  306MOL0     C42118   2.320   8.455   1.429 -0.3258 -0.2195 -0.1326
  306MOL0     C42119   2.164   8.446   1.233  0.4181  0.1309 -0.1049
  306MOL0     C42120   2.256   8.368   1.144 -0.4078  0.0477 -0.3486
  306MOL0     O42121   2.261   8.394   1.012 -0.2121  0.0843 -0.0392
  306MOL0     C42122   2.315   8.302   0.926 -0.4328 -0.5134 -0.4681
  306MOL0     C42123   2.276   8.168   0.932  0.7433  1.2602  0.3769
  306MOL0     C42124   2.320   8.069   0.839  0.1271  0.4218  0.0224
  306MOL0     C42125   2.406   8.100   0.735 -0.5864  1.1326 -0.0346
  306MOL0     O42126   2.466   8.003   0.650 -0.1101  0.7528 -1.0222
  306MOL0     C42127   2.430   7.867   0.658  0.6459 -0.4261 -1.0625
  306MOL0     C42128   2.468   7.793   0.533  0.0799  0.1300  1.0980
  306MOL0     C42129   2.623   7.807   0.520  0.4283  0.4592 -0.5510
  306MOL0     C42130   2.671   7.730   0.391 -0.7940 -0.6156  0.6743
  306MOL0     C42131   2.814   7.760   0.376 -0.6355 -0.5163  0.5618
  306MOL0     C42132   2.878   7.674   0.262  0.0498 -0.0232  0.3039
  306MOL0     C42133   3.030   7.660   0.287 -0.2719 -0.1071  0.3327
  306MOL0     C42134   3.069   7.560   0.397  0.3024 -0.6170  0.0396
  306MOL0    Cl42135   3.073   7.383   0.324 -0.0348 -0.4351  0.5348
  306MOL0     C42136   2.430   8.237   0.715 -0.9926  0.2774 -0.2491
  306MOL0     C42137   2.392   8.325   0.816  0.6070 -0.5812  0.8228
  306MOL0     O42138   2.316   8.276   1.196 -0.5682  0.1478 -0.4740
  306MOL0     C42139   2.037   8.467   1.178 -0.2751  1.4449  0.2671
  306MOL0     C42140   1.940   8.531   1.254  1.0273 -0.3833 -0.9351
  306MOL0     N42141   1.319   8.454   1.705 -0.3958  0.6295 -0.3606
  306MOL0     N42142   1.193   8.490   1.706 -0.2152 -0.3320 -0.6277
  306MOL0     C42143   0.623   8.336   0.843 -0.6236 -0.5939  0.4945
  306MOL0     C42144   0.528   8.239   0.818 -0.2954 -1.4779 -0.2618
  306MOL0     C42145   0.251   7.912   0.949  0.4482  0.3883 -0.2058
  306MOL0     C42146   0.221   7.830   1.064  0.7143 -0.3911 -0.1052
  306MOL0     C42147   0.134   7.719   1.044 -0.3471  0.7926 -0.3645
  306MOL0     C42148   0.088   7.676   0.923  0.6563  0.8030  0.2134
  306MOL0     O42149   0.012   7.560   0.921 -0.4283 -0.5182 -0.5727
  306MOL0     C42150   0.024   7.473   0.809  0.7065 -0.5814  0.9075
  306MOL0     C42151  -0.047   7.342   0.850 -0.0153 -0.1837 -0.1060
  306MOL0     C42152  -0.040   7.242   0.737 -0.6115 -0.5078  0.7384
  306MOL0     C42153  -0.143   7.131   0.765 -0.1047 -0.3583 -1.3546
  306MOL0     C42154  -0.281   7.166   0.723  0.7370  0.0135 -0.0140
  306MOL0     C42155  -0.383   7.209   0.681  0.5194 -0.6701  0.6269
  306MOL0     C42156   0.126   7.751   0.814 -0.0489  0.4942 -0.0283
  306MOL0     C42157   0.195   7.871   0.827  0.0958  0.3285 -0.8589
  306MOL0     C42158   0.206   7.947   0.699  0.6050  0.3687  0.2202
  306MOL0     H42159   0.647   7.980   0.988  1.5215 -0.7010 -0.4908
  306MOL0     H42160   0.813   8.149   1.057 -2.3642 -0.7226  1.2841
  306MOL0     H42161   0.700   8.503   1.076 -0.9834 -0.8361 -1.8916
  306MOL0     H42162   0.745   8.586   0.927 -0.2850 -2.7858 -2.0324
  306MOL0     H42163   0.984   8.557   1.089 -0.8063 -0.7918 -1.5228
  306MOL0     H42164   0.942   8.680   0.984  0.8998 -0.1456  0.8102
  306MOL0     H42165   0.844   8.806   1.125  1.2680  0.8140 -0.0467
  306MOL0     H42166   0.782   8.677   1.233  2.5547 -1.8124  2.5899
  306MOL0     H42167   1.039   8.628   1.281 -0.4827  0.1601  0.7783
  306MOL0     H42168   1.076   8.780   1.219 -1.4148 -0.2186 -2.2815
  306MOL0     H42169   0.856   8.732   1.417  1.1679 -3.7413 -0.2806
  306MOL0     H42170   0.958   8.885   1.405 -0.0947  0.0463  3.8435
  306MOL0     H42171   1.014   8.607   1.528  1.3665 -0.7540 -0.3168
  306MOL0     H42172   1.145   8.724   1.484 -0.9715  0.5093 -2.4863
  306MOL0     H42173   0.911   8.784   1.638 -0.3898 -0.6156 -1.2194
  306MOL0     H42174   1.058   8.886   1.652 -1.5163  0.7497 -0.1055
  306MOL0     H42175   1.066   8.749   1.849 -1.5242 -1.6738  0.2839
  306MOL0     H42176   0.988   8.616   1.774  3.5493 -1.2991  1.3032
  306MOL0     H42177   1.332   8.772   1.777  0.5287 -2.1078  2.1157
  306MOL0     H42178   1.566   8.510   1.826 -0.3001  1.7044  1.9911
  306MOL0     H42179   1.579   8.676   1.760  2.7210 -1.1167  0.4969
  306MOL0     H42180   1.698   8.503   1.647 -0.7776 -1.5689  2.8966
  306MOL0     H42181   1.551   8.439   1.580 -1.9119 -0.9842  2.6226
  306MOL0     H42182   1.515   8.656   1.457  0.3275 -0.1986 -0.9844
  306MOL0     H42183   1.638   8.729   1.560  1.8141 -2.6917  1.7832
  306MOL0     H42184   1.698   8.508   1.364  0.9817  0.5955 -1.0774
  306MOL0     H42185   1.712   8.672   1.319 -1.4253  0.5407  0.5788
  306MOL0     H42186   2.084   8.569   1.545  0.8962  1.7571 -1.5892
  306MOL0     H42187   2.392   8.471   1.349 -0.7243 -0.9504 -0.6429
  306MOL0     H42188   2.338   8.364   1.487  3.2938  1.0523  0.9923
  306MOL0     H42189   2.348   8.534   1.499  0.6337 -0.1423 -0.5882
  306MOL0     H42190   2.218   8.129   1.015  1.2443 -0.3019  0.0298
  306MOL0     H42191   2.297   7.965   0.862 -0.5210  0.7344  0.8584
  306MOL0     H42192   2.473   7.812   0.742  0.3308  0.2428 -0.4496
  306MOL0     H42193   2.321   7.861   0.673  1.0206 -0.4160  2.3544
  306MOL0     H42194   2.445   7.686   0.541 -1.1956  0.3363  0.4005
  306MOL0     H42195   2.413   7.830   0.446  0.3061  0.9394  1.2936
  306MOL0     H42196   2.677   7.768   0.606  2.3133 -0.7847 -2.1973
  306MOL0     H42197   2.654   7.912   0.506  1.1260  0.5065  1.1304
  306MOL0     H42198   2.611   7.762   0.306  0.4376 -0.9537 -0.3627
  306MOL0     H42199   2.650   7.622   0.399 -2.2355 -0.4775 -0.7876
  306MOL0     H42200   2.825   7.859   0.331 -2.4679 -0.9402 -0.9658
  306MOL0     H42201   2.875   7.751   0.466 -0.0648 -0.9624  0.1349
  306MOL0     H42202   2.866   7.710   0.160 -1.3050 -1.0129  0.0971
  306MOL0     H42203   2.837   7.573   0.263 -1.7449  0.6341  2.3382
  306MOL0     H42204   3.069   7.753   0.329  2.5278 -2.2691  2.9726
  306MOL0     H42205   3.080   7.640   0.192 -0.0831  1.9516 -0.0366
  306MOL0     H42206   2.999   7.561   0.481  0.2436 -3.9586  0.2009
  306MOL0     H42207   3.165   7.598   0.434 -0.5799  2.4976 -0.5867
  306MOL0     H42208   2.476   8.258   0.619 -3.2962 -0.7369 -1.6647
  306MOL0     H42209   2.419   8.430   0.819  0.2997 -0.5059  0.9709
  306MOL0     H42210   2.018   8.437   1.076  0.9331  1.9312 -0.1132
  306MOL0     H42211   1.850   8.544   1.196  0.8651 -1.4770 -0.9453
  306MOL0     H42212   0.600   8.426   0.787 -1.0160  0.1472  1.8238
  306MOL0     H42213   0.443   8.264   0.755  0.4700 -1.3252 -1.2588
  306MOL0     H42214   0.272   7.859   1.155 -0.5066  2.0283 -0.1079
  306MOL0     H42215   0.121   7.655   1.130 -3.1024  2.1767  0.3669
  306MOL0     H42216  -0.021   7.511   0.717 -1.5689 -3.4545  0.6986
  306MOL0     H42217   0.125   7.439   0.785  0.2893 -0.3619 -1.3896
  306MOL0     H42218  -0.152   7.364   0.873  0.1017  2.1335 -1.4570
  306MOL0     H42219   0.004   7.303   0.938 -0.0391  3.6672  1.8469
  306MOL0     H42220  -0.058   7.288   0.639 -3.5042 -2.3147  0.3085
  306MOL0     H42221   0.060   7.201   0.726  1.2263  3.4683  0.9077
  306MOL0     H42222  -0.149   7.096   0.868 -2.8802 -1.5501 -1.8237
  306MOL0     H42223  -0.117   7.040   0.711  1.4152 -1.6211  1.3388
  306MOL0     H42224  -0.475   7.242   0.638  0.3382  1.7522  2.6014
  306MOL0     H42225   0.115   7.710   0.714  0.7868  1.8854 -0.7182
  306MOL0     H42226   0.129   7.909   0.632  2.0338 -0.8188 -0.8236
  306MOL0     H42227   0.176   8.052   0.703  3.4599  1.2696  0.2672
  306MOL0     H42228   0.302   7.928   0.650  0.1186 -0.9233 -0.2676
  307MOL0     O42229   5.668   8.830  10.770  0.5921  0.1776  0.6413
  307MOL0     C42230   5.559   8.835  10.709  0.0788  0.8431 -0.2536
  307MOL0     O42231   5.521   8.746  10.609 -0.0129  0.2889  0.8176
  307MOL0     C42232   5.599   8.630  10.588 -1.0505  0.7276 -0.2248
  307MOL0     C42233   5.605   8.580  10.462  0.7737 -0.8350 -0.2361
  307MOL0     C42234   5.659   8.457  10.436  0.3585 -0.2565 -0.7128
  307MOL0     C42235   5.715   8.391  10.541 -0.1839  0.7204 -0.3428
  307MOL0     O42236   5.775   8.267  10.530  0.1313  0.1591 -0.5570
  307MOL0     C42237   5.790   8.211  10.399  0.0514 -0.3996 -0.6002
  307MOL0     C42238   5.859   8.079  10.427  1.3039  0.2270 -1.0631
  307MOL0     C42239   5.755   7.980  10.503 -0.2068 -0.0152 -0.8405
  307MOL0     C42240   5.821   7.839  10.493 -0.3028 -0.1925 -0.0145
  307MOL0     C42241   5.740   7.738  10.572 -0.5584  0.5924 -0.1691
  307MOL0     C42242   5.790   7.588  10.556 -0.0544  0.1495 -0.4449
  307MOL0     C42243   5.693   7.498  10.643 -0.3478 -0.1639  0.9101
  307MOL0     C42244   5.734   7.491  10.791 -0.4680  0.1894 -0.7397
  307MOL0     N42245   5.689   7.374  10.868 -0.6896 -0.4297 -0.0286
  307MOL0     C42246   5.751   7.254  10.846  0.8794  0.6336 -0.5598
  307MOL0     C42247   5.705   7.172  10.950  0.8525  0.2891  0.0864
  307MOL0     C42248   5.756   7.031  10.982  0.1670 -0.0213  0.1665
  307MOL0     C42249   5.726   6.944  10.862 -0.5696  0.4657  0.3508
  307MOL0     C42250   5.589   6.955  10.799 -0.1481  1.1222 -0.0766
  307MOL0     C42251   5.479   6.939  10.891  0.3288  0.1101  0.3237
  307MOL0     O42252   5.352   6.909  10.833  0.8918 -0.5144  0.2881
  307MOL0     C42253   5.313   6.778  10.815  0.0733 -0.3626  0.3761
  307MOL0     C42254   5.395   6.664  10.815 -0.2088  0.0115 -0.0997
  307MOL0     C42255   5.346   6.539  10.794  0.1579  0.0539  1.2320
  307MOL0     C42256   5.441   6.419  10.777  0.2493 -0.7301 -1.1718
  307MOL0     C42257   5.207   6.528  10.749 -1.2676  0.0993  0.5113
  307MOL0     C42258   5.144   6.410  10.695 -0.5586  0.8291 -0.7125
  307MOL0     O42259   5.218   6.329  10.613  0.0194 -0.1445 -0.0045
  307MOL0     C42260   5.169   6.221  10.551  1.0753 -0.0813  0.5226
  307MOL0     C42261   5.262   6.117  10.528 -0.0688  0.4855  0.4557
  307MOL0     C42262   5.223   5.998  10.480  0.3514 -0.1572  1.1148
  307MOL0     C42263   5.082   5.975  10.456 -0.0088  0.1781 -0.1591
  307MOL0     O42264   5.040   5.858  10.398 -0.1627 -0.0146  0.6966
  307MOL0     C42265   5.002   5.880  10.257 -1.2572  0.5057 -0.2661
  307MOL0     C42266   4.965   5.752  10.192 -0.3716 -0.2679  0.2281
  307MOL0     C42267   4.885   5.764  10.061  0.8307 -0.1935  0.7294
  307MOL0     C42268   4.850   5.623  10.005 -0.8145  0.1789  0.0419
  307MOL0     C42269   4.750   5.619   9.884  0.3833 -0.3240 -0.0187
  307MOL0     C42270   4.813   5.689   9.758  0.4510  0.0746 -1.1052
  307MOL0     C42271   4.730   5.659   9.640 -0.1721  0.3430  0.5405
  307MOL0     C42272   4.771   5.748   9.519  0.1442  1.0243  1.3396
  307MOL0    Cl42273   4.951   5.733   9.483 -0.4304 -0.1013  0.2354
  307MOL0     C42274   4.990   6.082  10.482  0.4041  0.0067 -0.6587
  307MOL0     C42275   5.034   6.205  10.533  0.4549  0.0101  0.5781
  307MOL0     O42276   5.035   6.381  10.736  0.1377  0.3634  0.3727
  307MOL0     C42277   5.126   6.639  10.750 -0.8241 -0.3735  1.0048
  307MOL0     C42278   5.181   6.763  10.775  0.2308 -0.4370  0.0525
  307MOL0     N42279   5.638   7.249  11.040  0.6554  0.0716 -0.1995
  307MOL0     N42280   5.631   7.371  10.990  0.1040  0.2203  0.7523
  307MOL0     C42281   5.727   8.448  10.669 -0.3358 -0.8172  1.1666
  307MOL0     C42282   5.648   8.560  10.696 -0.1148 -0.0738 -0.0664
  307MOL0     C42283   5.467   8.947  10.733  0.0529  0.0930  0.8839
  307MOL0     C42284   5.339   8.938  10.674 -0.1390  0.6039  0.6192
  307MOL0     C42285   5.250   9.045  10.676 -0.5109  0.1979  0.4481
  307MOL0     C42286   5.282   9.165  10.740  0.3234  1.0822  0.2013
  307MOL0     O42287   5.193   9.275  10.743 -0.6867  0.5489 -0.5899
  307MOL0     C42288   5.139   9.321  10.611 -0.2467  0.2273 -0.1674
  307MOL0     C42289   5.164   9.473  10.596  0.8073 -0.9265 -0.8183
  307MOL0     C42290   5.125   9.526  10.459  0.1856 -0.9924  0.1934
  307MOL0     C42291   5.179   9.672  10.431  0.7592  0.4497  0.6735
  307MOL0     C42292   5.113   9.779  10.503  0.6442 -0.8008 -0.3496
  307MOL0     C42293   5.041   9.864  10.567  0.0435  0.4940 -0.7938
  307MOL0     C42294   5.402   9.176  10.802 -0.4561  0.3871  0.6992
  307MOL0     C42295   5.494   9.077  10.795  0.7931 -0.4123  0.3392
  307MOL0     C42296   5.629   9.107  10.854  0.3941 -0.0020  0.2594
  307MOL0     H42297   5.565   8.632  10.376 -1.1893  0.0569  1.1506
  307MOL0     H42298   5.651   8.406  10.341 -1.1271 -0.2152 -0.6365
  307MOL0     H42299   5.856   8.277  10.342 -1.2858  2.7188  1.1954
  307MOL0     H42300   5.693   8.200  10.348 -1.5782  7.1231 -0.3753
  307MOL0     H42301   5.887   8.041  10.329  2.0667 -0.1559 -0.7059
  307MOL0     H42302   5.953   8.091  10.482  2.1225 -1.7595 -1.9210
  307MOL0     H42303   5.749   8.012  10.608 -0.0211  1.0666 -1.1410
  307MOL0     H42304   5.653   7.991  10.466 -0.6941 -2.3507 -0.3177
  307MOL0     H42305   5.824   7.815  10.386  1.6359 -1.2074  0.2223
  307MOL0     H42306   5.920   7.843  10.539 -0.6264  1.9518  0.5713
  307MOL0     H42307   5.636   7.730  10.539 -0.7786 -2.1242  0.9100
  307MOL0     H42308   5.740   7.764  10.679 -1.2237 -1.6449  0.4236
  307MOL0     H42309   5.777   7.563  10.450  0.8373  1.3086 -0.8475
  307MOL0     H42310   5.894   7.582  10.588  0.1043  0.1632 -0.9532
  307MOL0     H42311   5.695   7.396  10.603  0.0974  0.2576 -0.1989
  307MOL0     H42312   5.589   7.532  10.642 -0.7289 -1.2305  2.1553
  307MOL0     H42313   5.843   7.504  10.798 -0.0699 -2.4181  6.4916
  307MOL0     H42314   5.694   7.580  10.842  0.3369  2.0229 -3.1260
  307MOL0     H42315   5.816   7.225  10.765 -0.7219 -1.0535 -1.3170
  307MOL0     H42316   5.727   6.991  11.079  2.3411 -3.1564 -0.3246
  307MOL0     H42317   5.865   7.031  10.990  0.3764 -2.2023 -1.5902
  307MOL0     H42318   5.788   6.980  10.780 -1.6529  1.5423 -0.0228
  307MOL0     H42319   5.743   6.840  10.893 -2.9479 -0.3674 -0.9301
  307MOL0     H42320   5.580   7.050  10.745 -1.0259  1.7628  1.1416
  307MOL0     H42321   5.581   6.874  10.726  0.2389  0.8986  0.1299
  307MOL0     H42322   5.498   6.867  10.971  2.3079  0.1865 -0.0258
  307MOL0     H42323   5.475   7.029  10.954  2.8598  1.0019 -0.7021
  307MOL0     H42324   5.501   6.681  10.824 -0.1712 -0.4245  0.3113
  307MOL0     H42325   5.399   6.321  10.799 -0.0987  0.0481  2.1765
  307MOL0     H42326   5.516   6.425  10.856 -0.1860 -0.9162 -0.7385
  307MOL0     H42327   5.492   6.426  10.680  1.3240  2.7034 -0.5053
  307MOL0     H42328   5.365   6.146  10.548  0.7674 -3.3270  2.6934
  307MOL0     H42329   5.284   5.910  10.463 -1.3858 -1.2466  0.2240
  307MOL0     H42330   4.913   5.944  10.252 -3.1412 -1.8328  0.9902
  307MOL0     H42331   5.089   5.926  10.210  1.5674 -1.0329  2.9471
  307MOL0     H42332   5.067   5.716  10.172 -0.2930  1.1554 -2.4476
  307MOL0     H42333   4.915   5.689  10.266  3.1145 -2.6134  0.8820
  307MOL0     H42334   4.944   5.818   9.987  1.8775 -0.3166  1.4543
  307MOL0     H42335   4.792   5.818  10.083 -0.4936 -1.1944 -1.9434
  307MOL0     H42336   4.803   5.569  10.088  2.1050 -0.9730  1.0573
  307MOL0     H42337   4.940   5.563   9.991 -0.1392  0.6465  2.0643
  307MOL0     H42338   4.717   5.517   9.865 -0.4488 -0.0059 -0.3776
  307MOL0     H42339   4.661   5.679   9.910 -0.8133 -2.1799  0.3240
  307MOL0     H42340   4.911   5.643   9.742  0.3530 -1.8418  2.7497
  307MOL0     H42341   4.822   5.796   9.779  1.5732  0.0448 -1.3737
  307MOL0     H42342   4.623   5.680   9.655 -0.2028  0.6538 -0.0530
  307MOL0     H42343   4.741   5.552   9.620  1.9494 -0.2792  4.2458
  307MOL0     H42344   4.750   5.855   9.531 -0.0438  1.1293  0.2252
  307MOL0     H42345   4.725   5.717   9.425  2.0509  0.2293  0.6170
  307MOL0     H42346   4.887   6.071  10.450  0.8414  0.5874 -2.3807
  307MOL0     H42347   4.959   6.281  10.550  1.5355  0.5956  3.3659
  307MOL0     H42348   5.025   6.637  10.708 -0.0867 -0.1632 -0.8922
  307MOL0     H42349   5.132   6.859  10.763  0.0075 -0.1631  2.7003
  307MOL0     H42350   5.771   8.399  10.756  1.1755 -1.1033  0.2746
  307MOL0     H42351   5.624   8.582  10.799 -0.6769 -2.0678  0.2585
  307MOL0     H42352   5.298   8.843  10.642 -2.2527  2.6820 -3.6136
  307MOL0     H42353   5.152   9.040  10.628 -0.1286  2.8719 -0.7941
  307MOL0     H42354   5.182   9.257  10.534 -0.2744 -1.8114  1.4337
  307MOL0     H42355   5.033   9.295  10.616 -0.1905 -0.0109 -0.2060
  307MOL0     H42356   5.269   9.478  10.626  0.6771  0.9253 -0.5770
  307MOL0     H42357   5.112   9.534  10.670  1.9096  1.0177 -1.5747
  307MOL0     H42358   5.149   9.453  10.381  1.9217  0.5422 -0.7728
  307MOL0     H42359   5.016   9.534  10.461  0.2643  0.0767  1.1564
  307MOL0     H42360   5.165   9.684  10.323 -2.8084  0.2667  0.9932
  307MOL0     H42361   5.287   9.679  10.447  0.8539  1.1534 -0.2160
  307MOL0     H42362   4.976   9.939  10.605  0.6116  0.0412  1.1760
  307MOL0     H42363   5.434   9.268  10.849 -1.6223  1.7255 -1.0022
  307MOL0     H42364   5.650   9.042  10.939  0.3074 -0.1429  0.1732
  307MOL0     H42365   5.711   9.097  10.783  0.4972 -1.3854  0.5435
  307MOL0     H42366   5.642   9.203  10.905  0.3284  1.9566 -3.1297
  308MOL0     O42367   4.559   2.920   5.046 -0.0276  0.0126  0.3156
  308MOL0     C42368   4.485   3.008   5.094  0.0875  0.3903  0.0531
  308MOL0     O42369   4.346   3.017   5.069 -0.3137  0.1400  0.1211
  308MOL0     C42370   4.280   2.947   4.968 -0.4867  0.3265  0.1082
  308MOL0     C42371   4.343   2.900   4.850  0.0094  0.4707 -0.1547
  308MOL0     C42372   4.264   2.822   4.763 -0.5734  0.1981 -0.5595
  308MOL0     C42373   4.125   2.794   4.796 -0.4454 -0.2275  0.1909
  308MOL0     O42374   4.048   2.726   4.702  0.8640  0.4588  0.0040
  308MOL0     C42375   4.064   2.584   4.697  0.8558  1.0275 -0.8807
  308MOL0     C42376   3.972   2.519   4.807 -0.1403 -0.3066 -0.1154
  308MOL0     C42377   3.950   2.366   4.781  0.3673 -0.5197 -0.4595
  308MOL0     C42378   3.812   2.316   4.738 -0.1445 -0.7453 -0.7053
  308MOL0     C42379   3.782   2.337   4.595 -0.5328  0.3919  0.6108
  308MOL0     C42380   3.637   2.341   4.574 -0.3176 -0.1507  0.5284
  308MOL0     C42381   3.612   2.376   4.425 -0.5241 -0.3460  0.7922
  308MOL0     C42382   3.465   2.346   4.390  0.4000 -0.5233  0.6758
  308MOL0     N42383   3.412   2.380   4.261 -0.2959 -0.2910  0.7897
  308MOL0     C42384   3.428   2.309   4.138 -0.2931  0.1509  0.1135
  308MOL0     C42385   3.351   2.380   4.050  0.7508  0.4952 -0.4490
  308MOL0     C42386   3.348   2.383   3.894  0.0964 -0.0535 -0.3041
  308MOL0     C42387   3.290   2.254   3.857  0.4112  0.4682  0.0950
  308MOL0     C42388   3.299   2.244   3.705  0.5494 -0.1099 -0.0333
  308MOL0     C42389   3.232   2.108   3.664 -0.3301 -1.2746  0.1796
  308MOL0     O42390   3.316   2.001   3.720  0.4718  0.2372  0.7077
  308MOL0     C42391   3.275   1.866   3.713  0.0963  1.0580  0.8457
  308MOL0     C42392   3.356   1.771   3.781 -0.7859  0.1563 -0.8428
  308MOL0     C42393   3.324   1.635   3.802  0.1949  0.2692  0.8638
  308MOL0     C42394   3.418   1.546   3.879  0.1805 -1.5956  0.0477
  308MOL0     C42395   3.208   1.591   3.729  0.1072 -0.5528 -0.5675
  308MOL0     C42396   3.158   1.454   3.724  0.1579  0.8077 -0.1921
  308MOL0     O42397   3.025   1.439   3.771 -0.3431  0.0320 -0.2334
  308MOL0     C42398   2.985   1.308   3.799 -0.2466  0.2420 -0.2875
  308MOL0     C42399   2.879   1.261   3.729 -0.5185 -0.5941  0.0087
  308MOL0     C42400   2.830   1.130   3.759 -0.1064 -1.0273 -0.0343
  308MOL0     C42401   2.875   1.057   3.871 -0.6457  0.2394  0.1109
  308MOL0     O42402   2.809   0.945   3.912  0.9908  0.0604 -0.4716
  308MOL0     C42403   2.861   0.882   4.033  0.3113  0.1596  0.6829
  308MOL0     C42404   2.778   0.766   4.075 -0.1983 -0.2681  0.0350
  308MOL0     C42405   2.631   0.807   4.081 -0.0364  0.2592  0.5106
  308MOL0     C42406   2.523   0.717   4.140  0.0733  0.3285 -0.1226
  308MOL0     C42407   2.517   0.720   4.293  0.5556 -1.0677  0.1514
  308MOL0     C42408   2.380   0.684   4.356  0.5087  0.0381 -0.3817
  308MOL0     C42409   2.339   0.544   4.340 -0.6163  0.9887 -0.1871
  308MOL0     C42410   2.223   0.528   4.251 -0.3666 -0.0333  0.5180
  308MOL0    Cl42411   2.194   0.353   4.216 -0.1286  0.0559 -0.4139
  308MOL0     C42412   2.983   1.115   3.940 -0.1872  0.1295 -0.4209
  308MOL0     C42413   3.034   1.233   3.903 -0.4092 -0.8201 -0.1082
  308MOL0     O42414   3.236   1.359   3.714 -0.1648 -0.6825 -0.1245
  308MOL0     C42415   3.121   1.678   3.659 -0.9610 -0.5048 -0.0303
  308MOL0     C42416   3.159   1.822   3.651 -0.5624  0.1992 -0.1414
  308MOL0     N42417   3.294   2.484   4.119 -0.6174 -0.3592  0.8466
  308MOL0     N42418   3.319   2.480   4.248 -0.1726 -1.3406  0.4066
  308MOL0     C42419   4.077   2.847   4.912  0.2118  0.9788  0.1938
  308MOL0     C42420   4.148   2.917   5.003 -0.2976 -0.3319  0.6548
  308MOL0     C42421   4.533   3.118   5.178  0.3295 -0.6418  0.2730
  308MOL0     C42422   4.475   3.249   5.174  0.7127  0.6690 -1.2136
  308MOL0     C42423   4.513   3.346   5.257 -0.8967 -0.3543 -0.7252
  308MOL0     C42424   4.620   3.328   5.356  0.6408  0.1131  1.0376
  308MOL0     O42425   4.649   3.416   5.452  0.4394  0.2063 -1.2248
  308MOL0     C42426   4.703   3.537   5.411  0.0583  0.3823 -0.6072
  308MOL0     C42427   4.851   3.551   5.465 -0.3130 -0.3648  0.2582
  308MOL0     C42428   4.921   3.686   5.436 -0.8040 -0.6672 -1.0928
  308MOL0     C42429   4.917   3.756   5.311 -0.1702  0.5492 -0.4613
  308MOL0     C42430   4.789   3.821   5.275  0.7220  0.8106 -0.7441
  308MOL0     C42431   4.683   3.870   5.234  0.2679 -0.9974  0.3944
  308MOL0     C42432   4.677   3.202   5.358  0.2070 -0.9433 -0.3992
  308MOL0     C42433   4.639   3.096   5.278  1.0553 -0.2772  0.0292
  308MOL0     C42434   4.702   2.961   5.311 -0.2953 -0.4758  0.5289
  308MOL0     H42435   4.444   2.926   4.822  0.4147 -1.3507 -0.4940
  308MOL0     H42436   4.304   2.785   4.669  0.7641 -1.9257  0.7645
  308MOL0     H42437   4.163   2.543   4.716 -1.1998 -4.0319  0.6676
  308MOL0     H42438   4.029   2.548   4.600  1.8625 -0.1807 -0.8199
  308MOL0     H42439   4.011   2.541   4.907 -0.6909 -0.2064  0.0821
  308MOL0     H42440   3.874   2.567   4.804 -0.3109 -0.3072  2.7196
  308MOL0     H42441   4.019   2.346   4.698  0.6796 -0.3748 -0.2399
  308MOL0     H42442   3.980   2.309   4.870 -1.6032 -1.0822 -0.1246
  308MOL0     H42443   3.813   2.209   4.761  0.3036 -0.7834 -0.8850
  308MOL0     H42444   3.733   2.347   4.807  0.4737 -1.1961  0.2316
  308MOL0     H42445   3.833   2.259   4.537 -1.1787  0.9097 -0.6886
  308MOL0     H42446   3.812   2.433   4.554 -0.7967  1.0333  1.8626
  308MOL0     H42447   3.608   2.238   4.593  2.2360 -1.1736 -0.6432
  308MOL0     H42448   3.583   2.413   4.636 -2.2758 -0.3078 -0.8888
  308MOL0     H42449   3.669   2.308   4.361 -3.4329 -1.0213 -1.3089
  308MOL0     H42450   3.638   2.481   4.409 -0.2078 -0.6858 -1.2736
  308MOL0     H42451   3.444   2.240   4.405 -0.9135 -0.4536 -0.4769
  308MOL0     H42452   3.406   2.387   4.472 -2.5698  2.7964 -2.7473
  308MOL0     H42453   3.499   2.229   4.122  0.4381  0.9293 -0.5819
  308MOL0     H42454   3.451   2.379   3.859  0.9227 -4.4047  2.0242
  308MOL0     H42455   3.293   2.468   3.851  0.2342  0.2843  0.1756
  308MOL0     H42456   3.363   2.184   3.897 -0.5673  0.4139  1.8502
  308MOL0     H42457   3.192   2.230   3.900  1.1848 -0.1593  1.5614
  308MOL0     H42458   3.224   2.314   3.669 -0.3188 -0.7079  0.5709
  308MOL0     H42459   3.402   2.248   3.667  0.6111 -0.8922  0.0228
  308MOL0     H42460   3.132   2.092   3.706 -1.4157 -0.5747 -2.0168
  308MOL0     H42461   3.226   2.101   3.555  1.8555 -1.0397 -0.0037
  308MOL0     H42462   3.449   1.802   3.828 -1.2277  1.0685 -0.5399
  308MOL0     H42463   3.445   1.591   3.974 -5.3712  1.3210  0.6597
  308MOL0     H42464   3.500   1.525   3.809  0.0814  0.7792 -0.8750
  308MOL0     H42465   3.370   1.454   3.915 -1.1082 -0.2729  1.8491
  308MOL0     H42466   2.830   1.317   3.649 -0.1311  1.1234  0.9178
  308MOL0     H42467   2.748   1.097   3.696 -0.9522  2.4096 -1.0044
  308MOL0     H42468   2.959   0.842   4.008  1.8435  4.1102 -0.3687
  308MOL0     H42469   2.872   0.954   4.115  2.2757 -1.9406  2.4055
  308MOL0     H42470   2.793   0.676   4.015 -0.5912  0.1402 -0.6752
  308MOL0     H42471   2.814   0.745   4.177  2.3973  1.8344 -0.3367
  308MOL0     H42472   2.594   0.820   3.979  0.3144  0.8276  0.4508
  308MOL0     H42473   2.625   0.898   4.142 -0.5077 -1.5782  3.4013
  308MOL0     H42474   2.542   0.616   4.104 -1.1136 -0.7221  1.9850
  308MOL0     H42475   2.430   0.751   4.093 -1.1640 -2.4050  0.1931
  308MOL0     H42476   2.589   0.645   4.329 -0.9545 -2.4953  0.3410
  308MOL0     H42477   2.537   0.817   4.340 -3.9022  0.5890 -0.9365
  308MOL0     H42478   2.304   0.749   4.312 -0.3262  0.4856  1.5710
  308MOL0     H42479   2.389   0.704   4.463 -1.3205  0.0083 -0.1825
  308MOL0     H42480   2.317   0.510   4.442 -1.8945  1.3256 -0.3377
  308MOL0     H42481   2.414   0.475   4.300 -1.3649  0.2773 -0.3878
  308MOL0     H42482   2.251   0.562   4.151  1.3545 -1.1079  0.5889
  308MOL0     H42483   2.141   0.585   4.296  1.2255  1.3523  1.7527
  308MOL0     H42484   3.033   1.065   4.022 -1.5553 -1.9300 -0.7807
  308MOL0     H42485   3.112   1.284   3.958 -0.6637  2.1943 -2.2512
  308MOL0     H42486   3.036   1.649   3.598 -1.7618  0.7258  0.4721
  308MOL0     H42487   3.102   1.891   3.589 -2.0701 -2.0707 -1.4487
  308MOL0     H42488   3.970   2.847   4.928  0.1565  0.3086 -0.1157
  308MOL0     H42489   4.108   2.950   5.099 -0.8872  2.7778 -0.5383
  308MOL0     H42490   4.391   3.264   5.107  0.4159 -0.4170 -1.0961
  308MOL0     H42491   4.460   3.439   5.275 -0.5253 -0.5827  2.0153
  308MOL0     H42492   4.712   3.537   5.302 -0.8589 -1.9739 -0.7343
  308MOL0     H42493   4.631   3.613   5.443 -0.0185  0.2207 -0.3918
  308MOL0     H42494   4.906   3.462   5.434  3.4273  1.7319  0.3396
  308MOL0     H42495   4.860   3.542   5.573 -1.2704  0.5625  0.4302
  308MOL0     H42496   4.873   3.755   5.507 -0.2899  0.5886 -1.9258
  308MOL0     H42497   5.024   3.675   5.472 -0.8961 -2.2552 -1.2677
  308MOL0     H42498   4.944   3.690   5.228  1.3529  3.1079 -2.1852
  308MOL0     H42499   4.987   3.840   5.319  1.5108 -0.7259 -1.2088
  308MOL0     H42500   4.589   3.908   5.197  2.3222  2.4705 -1.8504
  308MOL0     H42501   4.753   3.187   5.434  2.5867 -1.7779 -2.7820
  308MOL0     H42502   4.804   2.974   5.273 -0.8530 -1.8516 -1.5684
  308MOL0     H42503   4.692   2.942   5.418  2.1669 -0.2929  0.8543
  308MOL0     H42504   4.672   2.871   5.257  1.8267  0.0418 -1.7239
  309MOL0     O42505   5.268   6.077   5.357  0.2390  0.5334  0.6470
  309MOL0     C42506   5.375   6.078   5.297 -0.5298 -0.5054 -0.5737
  309MOL0     O42507   5.401   6.028   5.171  0.1137  0.0126  0.2265
  309MOL0     C42508   5.322   5.924   5.120  0.8507 -0.0570 -0.1863
  309MOL0     C42509   5.195   5.882   5.161 -0.2374 -0.0690  0.1892
  309MOL0     C42510   5.129   5.774   5.100 -0.8230 -0.5279 -0.0039
  309MOL0     C42511   5.179   5.719   4.986  0.4873  0.2505  0.3339
  309MOL0     O42512   5.095   5.636   4.918  0.2314  0.2710  0.2915
  309MOL0     C42513   5.153   5.539   4.838  0.1269 -0.2667 -0.2005
  309MOL0     C42514   5.046   5.439   4.794 -0.2220  0.1706  0.2418
  309MOL0     C42515   4.941   5.504   4.706 -0.5428 -0.6029 -0.2054
  309MOL0     C42516   4.816   5.425   4.709  0.6221  0.9456 -0.8896
  309MOL0     C42517   4.714   5.482   4.615 -0.0474  0.1705 -0.5057
  309MOL0     C42518   4.736   5.437   4.471  0.4098  0.1546  0.3115
  309MOL0     C42519   4.614   5.487   4.382 -0.2781  0.6896 -0.9655
  309MOL0     C42520   4.632   5.635   4.339  0.7025  0.7209 -0.6852
  309MOL0     N42521   4.542   5.687   4.241  0.0759 -1.0916 -0.3925
  309MOL0     C42522   4.469   5.616   4.145 -0.7454  0.0215  0.3652
  309MOL0     C42523   4.430   5.710   4.052 -0.0675 -0.0072 -0.8897
  309MOL0     C42524   4.385   5.693   3.909 -0.5352  0.6279 -0.1277
  309MOL0     C42525   4.314   5.568   3.855 -0.4720 -0.0441 -0.2807
  309MOL0     C42526   4.173   5.557   3.901  0.6239 -0.5519  0.0150
  309MOL0     C42527   4.099   5.428   3.846 -1.4005 -0.2290  0.0588
  309MOL0     O42528   4.110   5.418   3.706 -0.0258  0.0015 -0.6563
  309MOL0     C42529   4.025   5.332   3.648  0.5458  0.6282  0.9831
  309MOL0     C42530   4.058   5.207   3.592 -0.6144 -0.5536  0.0578
  309MOL0     C42531   3.975   5.117   3.530 -0.9833  0.4113 -0.2925
  309MOL0     C42532   4.045   4.994   3.472 -0.7896  0.4337 -0.5421
  309MOL0     C42533   3.840   5.147   3.525 -0.7652  1.0840  0.0242
  309MOL0     C42534   3.741   5.043   3.500  0.7334  0.0315 -0.0776
  309MOL0     O42535   3.614   5.087   3.476  0.0276 -0.2058  1.0428
  309MOL0     C42536   3.503   5.009   3.474  0.2529 -1.1645  0.3048
  309MOL0     C42537   3.468   4.924   3.374 -0.4241  0.3478 -0.0056
  309MOL0     C42538   3.347   4.847   3.376  0.1331 -0.9838 -0.5299
  309MOL0     C42539   3.253   4.889   3.471 -0.5943 -0.5550  0.4059
  309MOL0     O42540   3.127   4.842   3.480 -0.2479 -0.7602  0.5107
  309MOL0     C42541   3.088   4.743   3.388 -0.1492 -0.7092  0.5383
  309MOL0     C42542   2.933   4.737   3.389 -0.1646  0.5594 -0.6158
  309MOL0     C42543   2.879   4.695   3.257  0.2598 -1.0795  0.2955
  309MOL0     C42544   2.739   4.639   3.276 -0.7122  0.9796  0.8781
  309MOL0     C42545   2.685   4.570   3.151 -0.1660 -0.2196  0.7334
  309MOL0     C42546   2.727   4.422   3.143  0.9991  0.3963  0.5154
  309MOL0     C42547   2.749   4.384   2.990  0.3811  0.2051 -0.5613
  309MOL0     C42548   2.754   4.239   2.950 -0.0005  0.2167  0.2097
  309MOL0    Cl42549   2.835   4.126   3.064  0.1304 -0.0092  0.3126
  309MOL0     C42550   3.283   4.982   3.565 -0.1228  1.0922 -0.1164
  309MOL0     C42551   3.409   5.044   3.569 -0.0986 -0.0286 -0.0980
  309MOL0     O42552   3.772   4.924   3.502 -0.3186 -0.3441  0.6710
  309MOL0     C42553   3.801   5.278   3.565  0.6547 -0.4901  0.2326
  309MOL0     C42554   3.890   5.369   3.622 -0.1689  0.1593  0.1784
  309MOL0     N42555   4.465   5.832   4.116 -0.0673 -0.4274  0.2202
  309MOL0     N42556   4.534   5.820   4.223 -0.1738  0.0895 -1.3391
  309MOL0     C42557   5.304   5.763   4.940  0.1102  0.6849  1.0542
  309MOL0     C42558   5.373   5.858   5.006  0.7916  0.8548 -0.5205
  309MOL0     C42559   5.493   6.091   5.380  0.0558 -0.2325  0.1620
  309MOL0     C42560   5.610   6.033   5.330 -0.8067 -0.7599  0.0382
  309MOL0     C42561   5.725   6.063   5.396 -0.5525 -0.5486  0.2464
  309MOL0     C42562   5.733   6.140   5.519 -0.5068 -0.1970 -0.2423
  309MOL0     O42563   5.856   6.152   5.581  0.0343  0.2623 -0.2868
  309MOL0     C42564   5.858   6.259   5.671 -0.1413 -0.4417 -0.0495
  309MOL0     C42565   5.988   6.327   5.653  0.8459  0.4029  0.5687
  309MOL0     C42566   6.010   6.367   5.507  0.5304  0.3704  0.7584
  309MOL0     C42567   6.127   6.453   5.476 -0.2132 -0.0715 -0.5037
  309MOL0     C42568   6.166   6.449   5.335 -0.9389  0.6701 -0.3776
  309MOL0     C42569   6.208   6.445   5.215 -0.9658 -0.0071  0.0159
  309MOL0     C42570   5.608   6.171   5.569 -0.3776 -0.8342  0.8689
  309MOL0     C42571   5.493   6.168   5.503 -0.0877  1.0441  0.1259
  309MOL0     C42572   5.372   6.223   5.569  0.3439 -0.4921  0.5263
  309MOL0     H42573   5.141   5.914   5.249  2.8563  0.8942  1.8563
  309MOL0     H42574   5.037   5.731   5.137 -0.8589  0.4341  1.0374
  309MOL0     H42575   5.234   5.496   4.898  1.4880  2.7285  0.3235
  309MOL0     H42576   5.193   5.588   4.749 -1.7746 -3.1331 -2.7842
  309MOL0     H42577   5.094   5.352   4.746  3.3199  3.8613 -3.7944
  309MOL0     H42578   4.990   5.392   4.875  1.8741 -1.9610  0.5972
  309MOL0     H42579   4.909   5.595   4.757 -0.5460 -1.2223  0.9238
  309MOL0     H42580   4.980   5.536   4.609 -0.0521 -1.0758 -0.1709
  309MOL0     H42581   4.852   5.325   4.683  2.2839  1.3594 -0.3128
  309MOL0     H42582   4.777   5.429   4.811 -0.4318  0.6079 -1.2650
  309MOL0     H42583   4.726   5.590   4.608  1.8028  0.1715  1.6077
  309MOL0     H42584   4.610   5.455   4.638  0.7858 -1.5082  1.6643
  309MOL0     H42585   4.829   5.480   4.433  0.6846 -0.6821  0.0059
  309MOL0     H42586   4.740   5.327   4.472  0.6613  0.1400  2.4956
  309MOL0     H42587   4.517   5.470   4.431 -0.1090  4.1019  0.8811
  309MOL0     H42588   4.612   5.425   4.292  0.4357  0.0158 -0.5349
  309MOL0     H42589   4.621   5.703   4.424 -0.5710  0.4982 -0.6575
  309MOL0     H42590   4.734   5.648   4.300  1.5641  0.2527  1.2757
  309MOL0     H42591   4.426   5.517   4.136 -2.2585  0.6489  0.4043
  309MOL0     H42592   4.477   5.707   3.852  0.5355 -3.1735  0.3335
  309MOL0     H42593   4.309   5.765   3.881 -0.6777  1.0526  1.2531
  309MOL0     H42594   4.337   5.560   3.749  2.3721  1.8690  0.0747
  309MOL0     H42595   4.374   5.485   3.895 -0.4912  0.8682  1.7558
  309MOL0     H42596   4.171   5.555   4.010 -2.0282 -2.6412  0.0601
  309MOL0     H42597   4.111   5.639   3.864 -0.1036 -1.6713 -1.3936
  309MOL0     H42598   4.159   5.350   3.895 -0.1948 -0.9131 -2.3797
  309MOL0     H42599   3.997   5.423   3.884 -2.0976  1.8392 -1.3943
  309MOL0     H42600   4.164   5.184   3.582  0.1727  2.8212 -0.6046
  309MOL0     H42601   4.040   4.928   3.559  0.3714  1.2782  0.1759
  309MOL0     H42602   4.150   5.010   3.449 -0.3380 -0.3931  0.8732
  309MOL0     H42603   3.995   4.953   3.383  0.2856  0.3878 -1.1357
  309MOL0     H42604   3.545   4.899   3.301  1.9389 -0.9699  2.7254
  309MOL0     H42605   3.323   4.776   3.298 -1.7841 -1.9609  0.8636
  309MOL0     H42606   3.113   4.771   3.285 -0.9942  1.3024  0.8283
  309MOL0     H42607   3.125   4.648   3.426  1.3446  0.6439  2.6590
  309MOL0     H42608   2.899   4.669   3.467  3.2033  1.2788  1.6756
  309MOL0     H42609   2.894   4.836   3.413 -1.5356  0.2747 -1.5719
  309MOL0     H42610   2.940   4.621   3.204 -0.0741 -0.4727 -0.9574
  309MOL0     H42611   2.877   4.783   3.192 -3.9256 -0.0759  1.4572
  309MOL0     H42612   2.665   4.714   3.303 -3.1534 -0.9733  0.0224
  309MOL0     H42613   2.739   4.559   3.351 -1.7154 -0.6723 -0.7964
  309MOL0     H42614   2.576   4.582   3.148 -0.0495  0.8303  0.1325
  309MOL0     H42615   2.723   4.620   3.062  0.2542 -0.8715  0.5400
  309MOL0     H42616   2.656   4.355   3.191 -0.2243 -0.2884 -2.0419
  309MOL0     H42617   2.820   4.413   3.200  2.3175  4.4495 -0.5919
  309MOL0     H42618   2.850   4.419   2.969  1.1150 -1.6818 -0.3784
  309MOL0     H42619   2.674   4.438   2.932  1.0894  2.2161  0.3104
  309MOL0     H42620   2.814   4.222   2.860  1.1599 -0.5817  1.1085
  309MOL0     H42621   2.655   4.196   2.937  2.0322 -3.9048 -6.1658
  309MOL0     H42622   3.206   5.005   3.638 -1.5863 -2.3966 -0.3449
  309MOL0     H42623   3.431   5.111   3.652  0.6511 -0.0761 -0.2534
  309MOL0     H42624   3.699   5.313   3.551  0.1228 -1.2643  1.8993
  309MOL0     H42625   3.865   5.470   3.653  0.4034  0.2203  0.4459
  309MOL0     H42626   5.336   5.730   4.842  0.0123  3.2349  0.0984
  309MOL0     H42627   5.468   5.885   4.961  1.2739  3.4863  1.8059
  309MOL0     H42628   5.608   5.995   5.228 -2.3045  1.5062 -0.8676
  309MOL0     H42629   5.816   6.017   5.360 -1.1069 -0.6546 -1.0499
  309MOL0     H42630   5.787   6.341   5.663  0.6725  0.2333 -0.5187
  309MOL0     H42631   5.846   6.218   5.772 -1.6938  0.3866  0.1288
  309MOL0     H42632   6.070   6.269   5.697  0.4924  0.3952  1.2310
  309MOL0     H42633   5.995   6.419   5.712  0.6252  1.0577 -0.3961
  309MOL0     H42634   6.024   6.274   5.450  0.3966  1.2642 -0.7798
  309MOL0     H42635   5.924   6.420   5.466  0.2376 -1.1409 -0.7426
  309MOL0     H42636   6.218   6.423   5.529  1.0209 -0.0636 -2.5295
  309MOL0     H42637   6.127   6.558   5.508  1.9610 -0.5708  1.3936
  309MOL0     H42638   6.233   6.434   5.112  1.4201  0.7648  0.4340
  309MOL0     H42639   5.607   6.227   5.663  0.2016 -1.0363  0.9998
  309MOL0     H42640   5.303   6.149   5.610  0.3065  0.6382  2.6562
  309MOL0     H42641   5.401   6.288   5.652  3.7531  1.1227 -1.7116
  309MOL0     H42642   5.309   6.289   5.509 -0.2183  1.7547  3.3321
  310MOL0     O42643   4.114   0.039   2.206 -0.2955  0.2995 -0.7075
  310MOL0     C42644   4.113   0.119   2.117 -0.2878  0.0684  0.9753
  310MOL0     O42645   4.187   0.112   1.994  0.4814  0.1934 -0.5526
  310MOL0     C42646   4.244  -0.001   1.968 -0.1512  0.4737 -0.6722
  310MOL0     C42647   4.165  -0.098   1.917 -0.3848  0.2179 -0.6531
  310MOL0     C42648   4.214  -0.220   1.878 -0.2244 -0.9496  0.0378
  310MOL0     C42649   4.352  -0.249   1.890  0.0116 -0.0504 -0.2209
  310MOL0     O42650   4.394  -0.366   1.839  0.2961 -0.0015  0.1496
  310MOL0     C42651   4.527  -0.410   1.876 -0.2358  0.2027  0.1833
  310MOL0     C42652   4.541  -0.550   1.806  0.0400  0.2028  0.4542
  310MOL0     C42653   4.664  -0.623   1.846 -0.2129  0.5473  0.9703
  310MOL0     C42654   4.668  -0.754   1.768 -0.0934  0.7399  0.2170
  310MOL0     C42655   4.797  -0.832   1.812 -0.2621 -0.3519  0.4758
  310MOL0     C42656   4.794  -0.974   1.743  0.3493 -0.7200 -0.3383
  310MOL0     C42657   4.931  -1.024   1.767  0.0238  0.7069  0.0014
  310MOL0     C42658   4.957  -1.152   1.686 -0.2974  0.2437  0.1678
  310MOL0     N42659   4.902  -1.268   1.743 -0.7303 -0.0579  0.2561
  310MOL0     C42660   4.795  -1.332   1.696 -0.2860 -0.2072  0.0113
  310MOL0     C42661   4.776  -1.433   1.784  0.1867  0.7038  0.2995
  310MOL0     C42662   4.670  -1.538   1.779  0.6944 -1.0686  1.2234
  310MOL0     C42663   4.535  -1.476   1.815  0.2034 -0.5196 -0.3160
  310MOL0     C42664   4.439  -1.590   1.858 -0.5290 -0.5272 -1.3607
  310MOL0     C42665   4.313  -1.525   1.898  0.3601  0.9262 -0.3656
  310MOL0     O42666   4.315  -1.472   2.032 -0.0708 -1.2539  0.5701
  310MOL0     C42667   4.202  -1.421   2.094 -0.6613  0.3837  0.3815
  310MOL0     C42668   4.082  -1.407   2.030  0.0915  0.1325 -1.0617
  310MOL0     C42669   3.975  -1.354   2.095  0.4288  0.5204  0.4121
  310MOL0     C42670   3.853  -1.332   2.012 -0.6689  0.8575 -0.1920
  310MOL0     C42671   3.981  -1.329   2.233 -0.3648 -0.8186 -0.4585
  310MOL0     C42672   3.872  -1.297   2.323 -0.5888 -0.3534  0.8158
  310MOL0     O42673   3.913  -1.268   2.448  0.1202  0.5450  0.5533
  310MOL0     C42674   3.814  -1.230   2.539 -0.1243 -0.5404  0.4268
  310MOL0     C42675   3.762  -1.327   2.638  0.2712 -0.5037  0.0401
  310MOL0     C42676   3.660  -1.283   2.730  0.1690  0.9751  0.2641
  310MOL0     C42677   3.597  -1.156   2.700 -0.3474 -0.1368  0.3713
  310MOL0     O42678   3.484  -1.126   2.772  0.0327  1.0863 -0.3739
  310MOL0     C42679   3.388  -1.037   2.718  0.6330 -0.3316 -0.3226
  310MOL0     C42680   3.307  -1.001   2.843  0.1862 -0.2511 -1.6299
  310MOL0     C42681   3.223  -1.116   2.892 -0.2131  0.3822 -0.4386
  310MOL0     C42682   3.135  -1.077   3.011 -0.3825 -1.3978  0.4318
  310MOL0     C42683   3.079  -1.197   3.077 -0.4694  0.3022 -0.2824
  310MOL0     C42684   2.982  -1.171   3.194  0.5251  0.2998 -0.9815
  310MOL0     C42685   2.927  -1.294   3.264  0.0942 -0.5194 -0.0402
  310MOL0     C42686   2.813  -1.259   3.352  0.9812 -0.0179 -0.3399
  310MOL0    Cl42687   2.825  -1.094   3.432  0.1005 -0.2175 -0.1509
  310MOL0     C42688   3.658  -1.058   2.613 -0.5402  0.0900  0.0251
  310MOL0     C42689   3.763  -1.099   2.533 -0.5446 -0.3919  0.6106
  310MOL0     O42690   3.752  -1.311   2.296  0.2763  1.0069  0.7165
  310MOL0     C42691   4.106  -1.351   2.291  0.6152  0.6893 -0.2142
  310MOL0     C42692   4.213  -1.387   2.220  0.0985 -0.1701  0.2893
  310MOL0     N42693   4.866  -1.424   1.888 -0.6818  0.0368  0.0698
  310MOL0     N42694   4.941  -1.321   1.859  0.1050  0.6273  0.3573
  310MOL0     C42695   4.435  -0.153   1.942  0.0071  0.1386  0.1595
  310MOL0     C42696   4.385  -0.028   1.979  0.3022 -0.0457 -0.6430
  310MOL0     C42697   4.018   0.239   2.135  0.4825 -0.2515 -0.0546
  310MOL0     C42698   4.033   0.346   2.046 -0.0297  0.0958 -0.6919
  310MOL0     C42699   3.952   0.455   2.057 -0.0417 -0.1162 -0.8180
  310MOL0     C42700   3.853   0.475   2.160 -1.2055 -0.8606 -0.2658
  310MOL0     O42701   3.785   0.601   2.159  0.1457 -0.2024  0.7295
  310MOL0     C42702   3.719   0.632   2.284 -0.3784 -0.4496  1.1919
  310MOL0     C42703   3.703   0.783   2.293 -0.3586 -0.4087  0.1824
  310MOL0     C42704   3.828   0.872   2.320  0.2176 -0.5669 -0.9730
  310MOL0     C42705   3.798   1.018   2.352  0.0492  0.2166 -0.1230
  310MOL0     C42706   3.925   1.087   2.381 -0.2367 -0.0178 -0.1508
  310MOL0     C42707   4.027   1.148   2.403  0.1908 -0.2897  0.0487
  310MOL0     C42708   3.831   0.367   2.245  0.3081  0.3974  0.2489
  310MOL0     C42709   3.908   0.244   2.222  0.4611 -0.1043 -0.4265
  310MOL0     C42710   3.853   0.125   2.297  0.3802 -0.0269 -0.0807
  310MOL0     H42711   4.059  -0.086   1.897 -0.1893  4.3770 -0.1236
  310MOL0     H42712   4.145  -0.297   1.844 -1.0998  0.2795 -1.0274
  310MOL0     H42713   4.529  -0.435   1.983 -2.0266  1.0012  0.4373
  310MOL0     H42714   4.611  -0.343   1.856  2.0279 -1.7112  2.6811
  310MOL0     H42715   4.462  -0.618   1.838 -0.0145 -0.6356 -1.3551
  310MOL0     H42716   4.529  -0.538   1.698  0.0966 -0.7608  0.3344
  310MOL0     H42717   4.751  -0.560   1.825 -0.8820  1.1682  0.0262
  310MOL0     H42718   4.666  -0.648   1.953  0.1023 -1.0655  0.6198
  310MOL0     H42719   4.586  -0.823   1.791 -0.4437  0.6122 -1.3488
  310MOL0     H42720   4.669  -0.738   1.660  0.3386  0.3317  0.1546
  310MOL0     H42721   4.804  -0.836   1.921  0.4960  1.0881  0.5057
  310MOL0     H42722   4.883  -0.769   1.789 -2.0090  1.1354 -2.8570
  310MOL0     H42723   4.708  -1.031   1.781 -2.5190  2.0152 -2.2179
  310MOL0     H42724   4.786  -0.953   1.636 -0.6298 -0.6666 -0.2656
  310MOL0     H42725   4.947  -1.040   1.874 -1.7999 -3.7363 -0.1940
  310MOL0     H42726   5.000  -0.949   1.727  0.7407 -1.3261 -2.9106
  310MOL0     H42727   4.923  -1.142   1.582  1.9594  3.0977 -0.4137
  310MOL0     H42728   5.066  -1.164   1.677 -0.1664  1.5903 -0.1344
  310MOL0     H42729   4.748  -1.310   1.601  1.0630  0.5482 -0.5103
  310MOL0     H42730   4.690  -1.627   1.838 -3.2477 -0.8741  3.1831
  310MOL0     H42731   4.671  -1.566   1.673  0.5862 -1.5641  1.3507
  310MOL0     H42732   4.546  -1.419   1.909  2.1065 -3.2010  1.2345
  310MOL0     H42733   4.490  -1.422   1.731 -0.5990 -3.5336 -1.9626
  310MOL0     H42734   4.425  -1.666   1.781  1.3769 -2.3711 -0.0049
  310MOL0     H42735   4.472  -1.651   1.943 -3.2231 -4.0810 -2.6055
  310MOL0     H42736   4.284  -1.445   1.829 -1.7490  0.8771  0.3862
  310MOL0     H42737   4.239  -1.604   1.880  1.5557 -0.6693  1.2917
  310MOL0     H42738   4.069  -1.442   1.928 -1.9437 -1.1060 -0.4176
  310MOL0     H42739   3.877  -1.357   1.908 -0.1124 -1.5113  0.4347
  310MOL0     H42740   3.804  -1.237   2.034 -2.7087 -0.0543 -0.6082
  310MOL0     H42741   3.788  -1.414   2.044 -1.6459  2.2928  1.7123
  310MOL0     H42742   3.795  -1.430   2.633 -2.9365 -1.6772  0.1680
  310MOL0     H42743   3.609  -1.360   2.787  0.3990 -1.3416 -2.3957
  310MOL0     H42744   3.436  -0.946   2.680  1.7866  0.5559  2.9332
  310MOL0     H42745   3.325  -1.100   2.654 -2.7147  0.8611  1.5674
  310MOL0     H42746   3.374  -0.957   2.917 -3.0791  3.7888 -0.6872
  310MOL0     H42747   3.238  -0.921   2.814 -1.0311  0.5093  2.6977
  310MOL0     H42748   3.283  -1.201   2.926  0.3079  0.2566 -1.6118
  310MOL0     H42749   3.156  -1.150   2.813 -3.0725  0.8004  1.6349
  310MOL0     H42750   3.060  -1.007   2.973  1.6729  0.9292  0.3975
  310MOL0     H42751   3.195  -1.025   3.087 -0.6683 -2.9408  1.7746
  310MOL0     H42752   3.017  -1.234   2.995 -2.0391 -0.9670  1.3861
  310MOL0     H42753   3.162  -1.263   3.102  0.3355  1.0610 -0.8824
  310MOL0     H42754   2.905  -1.107   3.150  0.0394 -1.7046 -3.2253
  310MOL0     H42755   3.045  -1.121   3.269 -1.2613  0.9639  0.1504
  310MOL0     H42756   3.014  -1.341   3.310  0.4028 -1.3881 -1.4288
  310MOL0     H42757   2.903  -1.368   3.187  3.3196 -0.1684 -1.5585
  310MOL0     H42758   2.797  -1.339   3.425  2.0517 -0.5218 -0.6330
  310MOL0     H42759   2.723  -1.256   3.289 -0.2853 -0.0230  1.4080
  310MOL0     H42760   3.623  -0.957   2.594 -1.0485 -0.6196 -3.3758
  310MOL0     H42761   3.817  -1.032   2.467  2.3912 -0.4088  2.7773
  310MOL0     H42762   4.122  -1.333   2.397 -1.6608 -1.4761  0.6177
  310MOL0     H42763   4.306  -1.403   2.274  0.7114 -0.9405 -0.9487
  310MOL0     H42764   4.542  -0.168   1.947  0.1987  0.2470 -2.3790
  310MOL0     H42765   4.438   0.058   2.020  0.7940  0.1881 -1.7341
  310MOL0     H42766   4.110   0.349   1.970 -1.6587  1.6861 -2.3743
  310MOL0     H42767   3.969   0.537   1.988  3.2148  1.2616  1.3881
  310MOL0     H42768   3.625   0.577   2.290 -1.2096  0.6125 -0.8398
  310MOL0     H42769   3.789   0.599   2.360 -0.3436  1.1734  1.9173
  310MOL0     H42770   3.625   0.807   2.366 -0.5851 -1.5653  0.3380
  310MOL0     H42771   3.653   0.808   2.200 -1.5724 -0.6291  0.7516
  310MOL0     H42772   3.884   0.837   2.407 -1.3896 -0.3715  0.1701
  310MOL0     H42773   3.886   0.864   2.227  0.2723 -0.2519 -0.9670
  310MOL0     H42774   3.739   1.024   2.444 -0.8997 -0.9464 -0.6320
  310MOL0     H42775   3.760   1.072   2.265 -2.2353  1.8468  1.7638
  310MOL0     H42776   4.125   1.186   2.423  0.0592 -0.3422  0.8350
  310MOL0     H42777   3.759   0.367   2.326  1.9371  1.1783  1.7530
  310MOL0     H42778   3.751   0.121   2.338  0.6809 -1.6689  0.5571
  310MOL0     H42779   3.846   0.043   2.225  0.1982  0.3019 -0.4483
  310MOL0     H42780   3.919   0.099   2.380 -1.0946 -1.8749  0.5948
  311MOL0     O42781   1.459   6.453   4.869  0.4600 -0.3331  0.2935
  311MOL0     C42782   1.453   6.331   4.872  0.0888  1.4905 -0.2628
  311MOL0     O42783   1.565   6.248   4.864 -0.7609 -0.3668  0.1560
  311MOL0     C42784   1.694   6.292   4.851  0.2724 -0.3770 -1.0404
  311MOL0     C42785   1.756   6.367   4.956  0.2845 -0.2400 -0.0033
  311MOL0     C42786   1.891   6.404   4.946  0.5084 -0.9509 -0.0943
  311MOL0     C42787   1.962   6.383   4.835  0.1243  0.4258  0.0515
  311MOL0     O42788   2.095   6.431   4.836  0.8895  0.0522  0.0057
  311MOL0     C42789   2.168   6.411   4.954 -0.5201 -1.0690  0.5571
  311MOL0     C42790   2.313   6.379   4.912 -0.0997  0.4030 -0.6818
  311MOL0     C42791   2.397   6.338   5.046  0.6553  0.0532  0.4364
  311MOL0     C42792   2.524   6.256   5.021 -0.2216 -0.5452  0.2503
  311MOL0     C42793   2.612   6.321   4.913 -1.0792  1.1224 -1.1570
  311MOL0     C42794   2.658   6.467   4.947  0.0952 -0.5230 -0.6552
  311MOL0     C42795   2.641   6.572   4.825 -0.4710 -0.5683  0.4060
  311MOL0     C42796   2.738   6.695   4.850  0.3916  0.2932 -0.3049
  311MOL0     N42797   2.684   6.798   4.938  1.0833 -0.6590  0.2888
  311MOL0     C42798   2.565   6.868   4.900  0.1792  0.2127  0.3077
  311MOL0     C42799   2.535   6.942   5.013 -0.6997  0.6059  0.3260
  311MOL0     C42800   2.424   7.036   5.048  0.0900 -0.1202  0.0555
  311MOL0     C42801   2.282   6.964   5.046 -0.2351  0.4138  0.8331
  311MOL0     C42802   2.288   6.840   5.148 -0.4629 -0.6519 -0.3561
  311MOL0     C42803   2.158   6.772   5.174 -0.0788  0.1891 -0.5014
  311MOL0     O42804   2.064   6.853   5.243 -0.2730  0.4653 -0.3158
  311MOL0     C42805   1.934   6.814   5.264  0.1898 -0.7245  0.3152
  311MOL0     C42806   1.876   6.802   5.390  0.0804 -0.0268  0.3200
  311MOL0     C42807   1.748   6.759   5.420 -0.7175 -0.4182  0.0389
  311MOL0     C42808   1.718   6.734   5.567  0.8321 -0.2806  0.2147
  311MOL0     C42809   1.667   6.726   5.314 -0.0413 -0.2009  1.4594
  311MOL0     C42810   1.532   6.673   5.323 -0.0428  0.4957 -0.1682
  311MOL0     O42811   1.456   6.657   5.219 -0.0233 -0.1148 -0.0682
  311MOL0     C42812   1.350   6.576   5.228 -0.6063 -0.2565  0.1632
  311MOL0     C42813   1.368   6.440   5.186  0.4144 -0.5413  0.3742
  311MOL0     C42814   1.264   6.348   5.211 -1.0672  0.1445  0.3371
  311MOL0     C42815   1.140   6.389   5.261 -0.6981  0.7096  0.8111
  311MOL0     O42816   1.027   6.309   5.258  0.4636  0.2983 -0.2232
  311MOL0     C42817   1.030   6.171   5.231 -0.4981  1.0540  0.3579
  311MOL0     C42818   0.912   6.101   5.298 -0.3579 -0.3992 -0.0870
  311MOL0     C42819   0.870   5.973   5.223  0.1696 -0.2236  1.1384
  311MOL0     C42820   0.738   5.904   5.263  0.5881  0.6491 -0.3142
  311MOL0     C42821   0.721   5.769   5.187  0.0261  0.1801  0.1388
  311MOL0     C42822   0.617   5.774   5.081 -0.4500 -0.2867  0.2816
  311MOL0     C42823   0.564   5.639   5.023 -0.2336  0.5507 -0.0650
  311MOL0     C42824   0.682   5.552   4.976 -0.4449 -0.1369 -0.2585
  311MOL0    Cl42825   0.623   5.403   4.913 -0.1905  0.0208  0.2371
  311MOL0     C42826   1.123   6.522   5.299  0.7734 -0.7409  0.1712
  311MOL0     C42827   1.233   6.618   5.295 -0.2023 -0.4860  0.4953
  311MOL0     O42828   1.498   6.627   5.431 -0.0728  0.4846  0.1246
  311MOL0     C42829   1.722   6.733   5.184 -0.3107  0.0411 -0.9942
  311MOL0     C42830   1.857   6.777   5.151  1.2924  0.9069  0.4625
  311MOL0     N42831   2.650   6.931   5.095  0.5972 -0.0625  0.3471
  311MOL0     N42832   2.734   6.850   5.050 -0.3556  0.4400 -0.8259
  311MOL0     C42833   1.900   6.305   4.732 -0.2442 -0.1202 -0.0925
  311MOL0     C42834   1.773   6.260   4.751 -0.2109 -0.6403  0.3860
  311MOL0     C42835   1.322   6.263   4.864  0.0151 -0.0014 -0.4846
  311MOL0     C42836   1.217   6.343   4.807  0.2968 -0.3102  0.7718
  311MOL0     C42837   1.089   6.282   4.804 -0.1605  0.2607 -0.4596
  311MOL0     C42838   1.061   6.153   4.848 -0.1765 -0.4400 -0.5757
  311MOL0     O42839   0.932   6.114   4.822 -0.0461 -0.0964  0.1217
  311MOL0     C42840   0.913   5.966   4.816  0.5113 -1.0932  0.0008
  311MOL0     C42841   0.826   5.927   4.701 -0.1355  0.1039  0.1803
  311MOL0     C42842   0.784   5.786   4.718  1.1087 -0.4975  0.2115
  311MOL0     C42843   0.697   5.734   4.616 -0.6922  0.5053  0.3234
  311MOL0     C42844   0.577   5.823   4.605 -0.0589 -0.0105 -0.1079
  311MOL0     C42845   0.477   5.893   4.623  0.3023 -0.2278  0.0925
  311MOL0     C42846   1.171   6.084   4.907  0.6829 -0.1447  0.1233
  311MOL0     C42847   1.298   6.131   4.906  0.5450  0.4388  0.2228
  311MOL0     C42848   1.411   6.035   4.945  1.7271 -0.0199 -0.0146
  311MOL0     H42849   1.698   6.382   5.046  0.3694 -1.6625  0.3096
  311MOL0     H42850   1.926   6.462   5.031  0.5650 -1.9699  0.5999
  311MOL0     H42851   2.120   6.350   5.030 -1.1025 -3.0029 -1.2497
  311MOL0     H42852   2.182   6.513   4.991  0.4955  1.1000 -4.7528
  311MOL0     H42853   2.318   6.302   4.834  1.1817  0.3761 -0.6012
  311MOL0     H42854   2.368   6.468   4.879 -0.0923 -0.1514 -2.2421
  311MOL0     H42855   2.424   6.428   5.102  3.2347  0.4469 -1.2491
  311MOL0     H42856   2.327   6.282   5.108 -0.9286 -1.3886 -2.4227
  311MOL0     H42857   2.582   6.250   5.113 -0.7517 -1.1265  0.5542
  311MOL0     H42858   2.492   6.153   5.001 -0.1787 -0.7758  1.3173
  311MOL0     H42859   2.562   6.312   4.816 -0.2238 -1.0293 -1.4414
  311MOL0     H42860   2.698   6.253   4.917 -1.5180  0.6194  1.5551
  311MOL0     H42861   2.599   6.501   5.032  0.1500 -4.0054  0.9742
  311MOL0     H42862   2.762   6.467   4.983 -0.8083  1.4091  2.2956
  311MOL0     H42863   2.538   6.605   4.811 -0.9756 -2.9438 -2.5734
  311MOL0     H42864   2.684   6.531   4.733  1.1092 -0.2813  0.9916
  311MOL0     H42865   2.835   6.668   4.893  0.0207  1.9420  1.7241
  311MOL0     H42866   2.747   6.741   4.751 -0.0724  0.1518 -0.4133
  311MOL0     H42867   2.502   6.878   4.812 -2.9356  0.7554  2.4421
  311MOL0     H42868   2.422   7.129   4.990  2.1215  0.4838  0.8821
  311MOL0     H42869   2.457   7.072   5.145  2.9873 -2.1436 -0.0709
  311MOL0     H42870   2.211   7.039   5.080  1.0909  2.9927 -1.6777
  311MOL0     H42871   2.256   6.911   4.954  1.0216 -0.8897  1.1844
  311MOL0     H42872   2.371   6.771   5.129 -0.0723 -0.0463 -0.8883
  311MOL0     H42873   2.311   6.874   5.249 -3.6181 -2.0342  0.9796
  311MOL0     H42874   2.111   6.730   5.084  2.4362  0.4338 -2.0412
  311MOL0     H42875   2.186   6.682   5.230  3.3181 -0.6579 -3.1965
  311MOL0     H42876   1.951   6.820   5.466  1.8222  1.8916 -1.7448
  311MOL0     H42877   1.621   6.773   5.597  0.4545 -0.0347 -1.2289
  311MOL0     H42878   1.780   6.795   5.634 -0.6499  1.0045  0.4645
  311MOL0     H42879   1.733   6.629   5.594  2.3787 -0.4530 -1.1271
  311MOL0     H42880   1.466   6.412   5.149  0.8604  2.7911 -1.3285
  311MOL0     H42881   1.279   6.248   5.170 -0.0606  0.4458 -0.0527
  311MOL0     H42882   1.040   6.160   5.123  0.2065 -0.1922  0.5322
  311MOL0     H42883   1.119   6.114   5.260 -0.2855 -0.3994 -2.7787
  311MOL0     H42884   0.943   6.081   5.401  0.4624  1.4451  0.0539
  311MOL0     H42885   0.824   6.166   5.304 -0.8956 -1.1386  0.3085
  311MOL0     H42886   0.951   5.902   5.245  0.5816  0.4092  1.6788
  311MOL0     H42887   0.857   5.999   5.117  1.7028 -0.9309  0.7360
  311MOL0     H42888   0.650   5.968   5.250 -0.2051 -0.6477 -1.7340
  311MOL0     H42889   0.748   5.877   5.368 -0.9479  1.5262  0.0934
  311MOL0     H42890   0.816   5.732   5.146  1.6552  3.2174  0.9230
  311MOL0     H42891   0.678   5.696   5.256 -0.5489  0.4053  0.0243
  311MOL0     H42892   0.655   5.842   5.003  0.9041  1.7423  2.5758
  311MOL0     H42893   0.536   5.833   5.124  1.2340 -0.4113  3.9567
  311MOL0     H42894   0.504   5.658   4.933 -2.0258 -3.3055  0.1037
  311MOL0     H42895   0.524   5.571   5.100  0.7294  2.5854  2.3861
  311MOL0     H42896   0.750   5.526   5.058  0.8983 -0.5732 -1.4680
  311MOL0     H42897   0.739   5.608   4.901  2.6901 -4.0551 -1.1151
  311MOL0     H42898   1.039   6.568   5.350  2.6074  3.0440  0.0890
  311MOL0     H42899   1.223   6.720   5.329 -2.1195 -0.7148  0.7550
  311MOL0     H42900   1.663   6.708   5.097  1.0086 -1.2059 -1.5576
  311MOL0     H42901   1.885   6.790   5.047  1.0454 -4.3984 -0.5602
  311MOL0     H42902   1.954   6.273   4.644 -0.3531 -1.7812  0.4108
  311MOL0     H42903   1.723   6.204   4.673 -1.4246  0.8111  0.0646
  311MOL0     H42904   1.240   6.438   4.759 -2.6129  0.4833  0.7369
  311MOL0     H42905   1.003   6.337   4.769 -0.7053  0.7910  1.5682
  311MOL0     H42906   1.011   5.919   4.805  1.2437  0.2932  0.3898
  311MOL0     H42907   0.866   5.931   4.909 -0.0269 -2.6390 -0.8067
  311MOL0     H42908   0.876   5.951   4.607 -0.4984 -2.8734 -0.8474
  311MOL0     H42909   0.744   5.999   4.712 -0.6988 -0.7097  1.4338
  311MOL0     H42910   0.876   5.729   4.725  2.3198  0.8659 -2.8312
  311MOL0     H42911   0.717   5.787   4.804 -1.2602  2.4236 -1.4629
  311MOL0     H42912   0.674   5.631   4.647  1.5950 -0.3136 -0.5219
  311MOL0     H42913   0.747   5.720   4.520 -0.0518 -2.9596  1.0365
  311MOL0     H42914   0.399   5.956   4.659 -1.5351 -1.0629 -2.1353
  311MOL0     H42915   1.144   5.987   4.948  3.0695 -0.2508  1.6114
  311MOL0     H42916   1.372   5.934   4.964  0.2811  0.1025 -1.9943
  311MOL0     H42917   1.485   6.022   4.865  2.7995  1.2393  0.7363
  311MOL0     H42918   1.462   6.068   5.036  1.1955 -0.5949  0.5040
  312MOL0     O42919   3.803   7.672   6.325  0.0495 -0.2327  0.4433
  312MOL0     C42920   3.776   7.623   6.428  0.4902 -0.0457 -0.0526
  312MOL0     O42921   3.648   7.622   6.488  0.7256 -1.0692  0.3284
  312MOL0     C42922   3.547   7.674   6.409  0.4757  0.3850  0.0724
  312MOL0     C42923   3.536   7.804   6.385 -0.7401  0.3322  0.2513
  312MOL0     C42924   3.436   7.860   6.302  0.7091  0.8345  0.6039
  312MOL0     C42925   3.337   7.780   6.248  0.4033 -0.2360  0.4299
  312MOL0     O42926   3.221   7.841   6.196 -0.6040  0.6679 -0.3907
  312MOL0     C42927   3.096   7.779   6.196 -0.7218 -0.2221  0.4037
  312MOL0     C42928   3.062   7.741   6.050 -0.0276 -0.2616 -0.0624
  312MOL0     C42929   2.918   7.691   6.039 -0.9857  0.4001  0.4243
  312MOL0     C42930   2.871   7.612   6.164 -0.2530  0.1288  0.2463
  312MOL0     C42931   2.760   7.515   6.139  0.7356 -0.0250  0.4817
  312MOL0     C42932   2.675   7.472   6.256 -0.1138  0.0863 -0.0186
  312MOL0     C42933   2.750   7.374   6.359 -0.0369  0.0825  0.5585
  312MOL0     C42934   2.741   7.234   6.306 -1.6726 -0.0668  0.4359
  312MOL0     N42935   2.857   7.147   6.348 -0.4189  0.5454  0.9376
  312MOL0     C42936   2.979   7.140   6.280  0.2959  0.3834 -0.2131
  312MOL0     C42937   3.039   7.026   6.339  0.2380  0.0853  0.3699
  312MOL0     C42938   3.186   6.987   6.310 -1.2013  0.3290  0.0770
  312MOL0     C42939   3.250   6.914   6.426 -0.4212  0.2465  0.3439
  312MOL0     C42940   3.222   6.761   6.439  1.1774  0.8390  0.0540
  312MOL0     C42941   3.172   6.699   6.305 -1.0373 -0.0269 -0.0456
  312MOL0     O42942   3.144   6.560   6.330 -0.1549  0.2823  0.4720
  312MOL0     C42943   3.150   6.468   6.222  0.2230  0.3741 -0.3817
  312MOL0     C42944   3.153   6.496   6.083  0.0574 -1.0166 -0.3091
  312MOL0     C42945   3.136   6.396   5.985  0.7792 -0.3587  0.2512
  312MOL0     C42946   3.108   6.450   5.839 -0.4445 -0.4420 -0.3889
  312MOL0     C42947   3.129   6.261   6.026  0.1908  0.4134 -0.2894
  312MOL0     C42948   3.094   6.150   5.938  0.7541  0.8937 -0.7826
  312MOL0     O42949   3.130   6.156   5.805  0.3802  0.6624 -0.1900
  312MOL0     C42950   3.091   6.055   5.723 -0.7906  0.8659  0.2619
  312MOL0     C42951   3.131   5.924   5.746 -0.4432 -0.3910  0.9595
  312MOL0     C42952   3.083   5.815   5.675 -0.2531 -0.0917 -1.1989
  312MOL0     C42953   2.993   5.844   5.572 -1.0167 -0.2877 -0.4941
  312MOL0     O42954   2.946   5.753   5.495  0.6437 -0.3036 -0.1829
  312MOL0     C42955   3.023   5.637   5.457  0.3968 -0.1072 -0.1369
  312MOL0     C42956   2.926   5.529   5.420 -0.2234  0.5465 -0.5959
  312MOL0     C42957   2.842   5.552   5.294  0.2416  0.7795  0.0353
  312MOL0     C42958   2.745   5.430   5.269  0.0508  0.8995  0.1381
  312MOL0     C42959   2.653   5.475   5.160 -0.8221 -1.4121 -0.9099
  312MOL0     C42960   2.705   5.478   5.019  0.1848 -0.6280  0.7790
  312MOL0     C42961   2.589   5.486   4.916 -0.2329  0.1296  0.9565
  312MOL0     C42962   2.659   5.490   4.775 -0.0117 -0.0505 -0.5990
  312MOL0    Cl42963   2.785   5.619   4.769 -0.1391  0.1902  0.1592
  312MOL0     C42964   2.960   5.980   5.540  0.0701  0.2384 -0.1274
  312MOL0     C42965   2.999   6.082   5.625  0.3540 -0.0263  0.0846
  312MOL0     O42966   3.031   6.059   5.991  0.0448  0.3136  0.3991
  312MOL0     C42967   3.140   6.231   6.165 -0.3562  0.4979 -1.8520
  312MOL0     C42968   3.149   6.334   6.255  0.4781  0.6216 -0.2611
  312MOL0     N42969   2.957   6.970   6.430 -0.4072  0.3747 -0.1982
  312MOL0     N42970   2.858   7.043   6.440  1.7472  0.0981  0.5690
  312MOL0     C42971   3.342   7.638   6.274  0.5186  0.2385  0.6033
  312MOL0     C42972   3.444   7.593   6.357  0.6307  0.2079 -0.5406
  312MOL0     C42973   3.877   7.578   6.522 -0.4763  0.0523  0.2199
  312MOL0     C42974   3.851   7.447   6.578  0.0565 -0.5331 -1.2015
  312MOL0     C42975   3.943   7.386   6.663 -0.0677 -0.1722 -0.3346
  312MOL0     C42976   4.066   7.443   6.691  0.8746  0.5813 -0.2721
  312MOL0     O42977   4.169   7.387   6.760  0.7808  0.2293 -0.7950
  312MOL0     C42978   4.169   7.245   6.774  0.5014 -0.5591 -0.6594
  312MOL0     C42979   4.105   7.205   6.906  0.1364 -0.0404 -0.1538
  312MOL0     C42980   4.138   7.056   6.926 -0.4578  0.6008 -0.2797
  312MOL0     C42981   4.123   7.002   7.060 -0.0505  1.4015 -0.9845
  312MOL0     C42982   3.981   7.003   7.098 -0.0164  0.0098  0.5635
  312MOL0     C42983   3.868   7.016   7.132 -1.4918 -0.5037  0.2248
  312MOL0     C42984   4.092   7.566   6.632 -0.7496 -0.3756 -0.2906
  312MOL0     C42985   4.000   7.635   6.553  0.6852  0.7448  0.2606
  312MOL0     C42986   4.050   7.760   6.498 -0.4330 -0.3656  0.4506
  312MOL0     H42987   3.615   7.865   6.428 -1.2771  0.2654  1.3681
  312MOL0     H42988   3.424   7.968   6.292  4.3729  1.2017 -2.1051
  312MOL0     H42989   3.024   7.851   6.236 -3.2014 -1.9078 -0.7115
  312MOL0     H42990   3.093   7.690   6.260 -0.8432 -0.0219  0.6760
  312MOL0     H42991   3.073   7.834   5.993  2.6146 -1.5922 -1.9121
  312MOL0     H42992   3.135   7.677   6.000 -1.0012 -0.1564 -1.6748
  312MOL0     H42993   2.856   7.777   6.013  1.3236  2.1820  0.4872
  312MOL0     H42994   2.930   7.624   5.954  1.4244 -0.9484  1.6963
  312MOL0     H42995   2.952   7.543   6.190  0.7852  0.4176 -1.9544
  312MOL0     H42996   2.837   7.687   6.236 -2.1287  2.3234 -2.6765
  312MOL0     H42997   2.812   7.434   6.086  1.4090 -0.9440  2.4695
  312MOL0     H42998   2.697   7.565   6.065 -0.3418  2.2763  2.8064
  312MOL0     H42999   2.641   7.560   6.311  1.5175  0.6892  0.0916
  312MOL0     H43000   2.583   7.424   6.220 -0.5207  2.6429 -2.7916
  312MOL0     H43001   2.700   7.384   6.456 -0.1952  1.4266  0.3526
  312MOL0     H43002   2.855   7.400   6.377  0.0175  0.7475 -0.6004
  312MOL0     H43003   2.657   7.171   6.337  0.9202 -2.4750  3.2461
  312MOL0     H43004   2.757   7.235   6.198 -0.5965  0.4725  0.5837
  312MOL0     H43005   3.036   7.208   6.218  2.3736  1.2841  2.4874
  312MOL0     H43006   3.258   7.069   6.306 -1.5190  0.5720 -2.6394
  312MOL0     H43007   3.185   6.933   6.215  1.1171  0.9742 -0.3901
  312MOL0     H43008   3.357   6.921   6.406 -0.4074 -0.9628 -0.1004
  312MOL0     H43009   3.219   6.958   6.521 -3.8712  0.4407 -0.7473
  312MOL0     H43010   3.314   6.708   6.466  0.4380 -2.1948 -2.7223
  312MOL0     H43011   3.136   6.737   6.502  0.9438 -0.3846 -0.7113
  312MOL0     H43012   3.081   6.752   6.276 -1.2651  0.2649  1.1391
  312MOL0     H43013   3.241   6.714   6.221 -2.1007 -1.4664 -1.2261
  312MOL0     H43014   3.171   6.597   6.048 -1.2432  0.3844  2.6640
  312MOL0     H43015   3.066   6.377   5.768 -0.0968 -0.6445 -0.3862
  312MOL0     H43016   3.203   6.489   5.803 -0.5957  0.4511  0.1513
  312MOL0     H43017   3.043   6.538   5.851 -0.1984 -0.3574  0.3970
  312MOL0     H43018   3.208   5.912   5.822 -0.8308 -0.7429  1.3024
  312MOL0     H43019   3.120   5.716   5.699  1.2192  1.2382  2.7018
  312MOL0     H43020   3.071   5.671   5.365 -0.6024  1.0838 -0.2442
  312MOL0     H43021   3.098   5.601   5.529  1.9204  1.7683 -0.6835
  312MOL0     H43022   2.971   5.430   5.409 -1.8441 -0.2404 -0.5416
  312MOL0     H43023   2.855   5.521   5.503 -1.0881  1.1206 -1.2587
  312MOL0     H43024   2.905   5.563   5.206  2.7262  0.0262  1.6206
  312MOL0     H43025   2.786   5.645   5.313  0.3515  0.8058  0.2316
  312MOL0     H43026   2.676   5.399   5.348 -0.8435 -1.7003 -1.5368
  312MOL0     H43027   2.800   5.336   5.253 -0.4675  0.7649 -0.9986
  312MOL0     H43028   2.583   5.391   5.155 -4.4317  1.2918 -0.2044
  312MOL0     H43029   2.605   5.570   5.186  2.9349  0.6725 -0.9042
  312MOL0     H43030   2.759   5.384   5.006  1.7557  0.5497 -2.0964
  312MOL0     H43031   2.774   5.562   5.005 -2.2776  1.0860 -2.0675
  312MOL0     H43032   2.534   5.580   4.926 -2.3539 -0.8074 -1.0301
  312MOL0     H43033   2.516   5.404   4.917 -1.7234  1.3687  0.0372
  312MOL0     H43034   2.584   5.506   4.698  0.5590  2.1657 -0.7684
  312MOL0     H43035   2.700   5.390   4.761  2.9216  0.7411  1.3905
  312MOL0     H43036   2.885   6.000   5.464 -1.5674  2.9435  1.9627
  312MOL0     H43037   2.964   6.184   5.609 -1.6189 -0.4687  1.3081
  312MOL0     H43038   3.122   6.134   6.211  2.4327  0.8559  0.2473
  312MOL0     H43039   3.163   6.325   6.363  1.2641  3.9830  0.0107
  312MOL0     H43040   3.268   7.569   6.233  0.2899  0.7404  0.1496
  312MOL0     H43041   3.452   7.488   6.385  0.7738 -0.4646 -2.8650
  312MOL0     H43042   3.765   7.395   6.538  0.3919  0.0342 -2.7295
  312MOL0     H43043   3.923   7.292   6.713  0.4601 -0.9232 -1.4822
  312MOL0     H43044   4.117   7.201   6.688 -0.6941 -0.8739  0.1915
  312MOL0     H43045   4.272   7.209   6.770  0.5370 -0.4617 -0.6064
  312MOL0     H43046   3.999   7.231   6.910 -0.3403 -1.7273 -1.0610
  312MOL0     H43047   4.136   7.260   6.995  0.3790  1.0097 -0.8636
  312MOL0     H43048   4.075   6.999   6.858  2.4488 -1.6433 -1.3151
  312MOL0     H43049   4.241   7.038   6.893 -0.0548  1.8112  0.2554
  312MOL0     H43050   4.181   7.059   7.133 -1.7781  1.0790  0.7308
  312MOL0     H43051   4.159   6.899   7.063  1.1071  1.7663 -1.7601
  312MOL0     H43052   3.771   7.039   7.171 -1.2219 -1.2568  1.4054
  312MOL0     H43053   4.186   7.614   6.658 -0.6000  0.3308 -1.9447
  312MOL0     H43054   4.159   7.756   6.484 -0.2482  1.3992  1.1132
  312MOL0     H43055   4.012   7.783   6.398  0.3658 -3.6577 -0.7301
  312MOL0     H43056   4.027   7.845   6.563  0.6003  0.3422 -0.0674
  313MOL0     O43057   9.594   5.259   4.940 -0.0166 -0.2962  0.9452
  313MOL0     C43058   9.572   5.221   5.053 -0.4473 -0.6327 -0.2152
  313MOL0     O43059   9.441   5.195   5.100 -0.0409 -0.0647 -0.7148
  313MOL0     C43060   9.345   5.204   5.002 -1.2199 -1.1242  0.0667
  313MOL0     C43061   9.247   5.310   4.994 -0.3830  0.0441 -0.7548
  313MOL0     C43062   9.156   5.306   4.892  0.8376 -0.1362  0.8558
  313MOL0     C43063   9.160   5.216   4.788  0.1928 -0.4360  0.0109
  313MOL0     O43064   9.073   5.242   4.685 -0.2905  1.4273  1.2234
  313MOL0     C43065   9.078   5.150   4.565  0.0651 -1.1429  0.0968
  313MOL0     C43066   8.970   5.181   4.455 -0.7022 -0.7472 -0.7779
  313MOL0     C43067   8.979   5.323   4.392 -0.6072  0.0611 -0.3841
  313MOL0     C43068   9.061   5.335   4.270  0.3049 -0.2460  0.6206
  313MOL0     C43069   9.067   5.472   4.201 -0.2770  0.2872 -0.4589
  313MOL0     C43070   9.146   5.469   4.076  0.1402  0.4255  0.1027
  313MOL0     C43071   9.157   5.606   3.999 -0.1040 -0.3835  0.2641
  313MOL0     C43072   9.045   5.640   3.897  0.2824 -0.1171  1.1041
  313MOL0     N43073   9.032   5.557   3.779  0.1221 -0.1487  0.0702
  313MOL0     C43074   8.919   5.531   3.710  0.9221 -0.4635  0.3062
  313MOL0     C43075   8.956   5.431   3.618 -0.3987  0.3370  0.1961
  313MOL0     C43076   8.857   5.363   3.525  0.4725  0.6738  0.0143
  313MOL0     C43077   8.898   5.401   3.381 -0.5656 -0.3373 -0.0608
  313MOL0     C43078   8.878   5.545   3.355  0.3381 -0.1712 -0.5662
  313MOL0     C43079   8.872   5.578   3.207  0.1492 -0.2970 -0.3880
  313MOL0     O43080   8.865   5.722   3.177  0.1444 -0.7229  0.0586
  313MOL0     C43081   8.807   5.752   3.058  0.1723 -0.8993 -0.4568
  313MOL0     C43082   8.804   5.895   3.034 -0.0891  0.3199  0.4313
  313MOL0     C43083   8.767   5.950   2.910  0.7404 -0.4415 -0.8157
  313MOL0     C43084   8.768   6.098   2.897 -1.4274 -0.7685 -0.3088
  313MOL0     C43085   8.703   5.861   2.821  0.4306  0.3748 -0.1044
  313MOL0     C43086   8.637   5.918   2.703  0.9233 -0.2072  0.0157
  313MOL0     O43087   8.513   5.865   2.685 -0.6654 -0.2178 -0.0485
  313MOL0     C43088   8.447   5.913   2.572 -0.2669 -0.5987  0.1801
  313MOL0     C43089   8.336   6.003   2.580  0.1909 -0.5171  0.5160
  313MOL0     C43090   8.276   6.066   2.468 -0.5505 -0.9686 -0.4775
  313MOL0     C43091   8.315   6.031   2.338 -0.0030 -0.5905  0.5091
  313MOL0     O43092   8.264   6.063   2.218  0.3978  0.0301  0.5029
  313MOL0     C43093   8.156   6.148   2.207 -0.4639  0.3783  0.5438
  313MOL0     C43094   8.141   6.185   2.063  0.5934  0.0810 -0.5190
  313MOL0     C43095   8.012   6.271   2.041 -0.6933 -0.2457 -0.4571
  313MOL0     C43096   7.979   6.297   1.902 -0.1884  0.6513 -0.1328
  313MOL0     C43097   7.910   6.182   1.828  0.2964 -0.3028 -0.3310
  313MOL0     C43098   7.768   6.158   1.879  0.0212 -0.3038 -0.0544
  313MOL0     C43099   7.712   6.035   1.806 -0.0301 -0.3193  0.7471
  313MOL0     C43100   7.801   5.912   1.833  0.4098  0.4980 -0.0503
  313MOL0    Cl43101   7.702   5.772   1.778 -0.2470  0.1858  0.1832
  313MOL0     C43102   8.414   5.932   2.335  0.4015  0.3262  0.5519
  313MOL0     C43103   8.489   5.885   2.445 -0.0423 -0.3128 -0.0707
  313MOL0     O43104   8.692   6.005   2.630  0.0213 -0.2505 -0.0589
  313MOL0     C43105   8.714   5.724   2.834  0.1456  0.5708 -0.5380
  313MOL0     C43106   8.761   5.670   2.957  0.7335  0.6468 -0.3779
  313MOL0     N43107   9.088   5.399   3.636  0.3196  0.7896  0.1669
  313MOL0     N43108   9.137   5.484   3.720  0.5615  0.2396 -0.5470
  313MOL0     C43109   9.263   5.121   4.792 -0.5763 -0.2282 -0.0313
  313MOL0     C43110   9.355   5.110   4.900  0.0927  0.6128 -0.7352
  313MOL0     C43111   9.700   5.227   5.141  0.7176 -0.3984  0.9541
  313MOL0     C43112   9.822   5.232   5.080  0.6967  0.0944  0.3690
  313MOL0     C43113   9.938   5.261   5.141 -0.0122 -0.6745 -0.0936
  313MOL0     C43114   9.934   5.260   5.288 -0.4835 -0.4004 -0.6449
  313MOL0     O43115  10.048   5.279   5.365  0.2452  0.1643  0.2096
  313MOL0     C43116  10.175   5.319   5.310 -0.0206  0.0119  0.0256
  313MOL0     C43117  10.250   5.207   5.246 -0.5935  0.3989 -0.0912
  313MOL0     C43118  10.313   5.100   5.341  0.6466 -0.2010 -0.0099
  313MOL0     C43119  10.447   5.130   5.404  0.2321 -0.6049  0.3169
  313MOL0     C43120  10.551   5.169   5.309 -1.2235 -0.6558  0.2280
  313MOL0     C43121  10.656   5.187   5.245 -0.0872 -0.7102 -0.2181
  313MOL0     C43122   9.816   5.230   5.356 -0.2499 -0.0064 -0.4437
  313MOL0     C43123   9.697   5.217   5.287  0.9807  0.2475  0.4483
  313MOL0     C43124   9.573   5.170   5.356  1.0368  0.0124 -0.1027
  313MOL0     H43125   9.248   5.384   5.074  3.6201 -0.8198  0.1759
  313MOL0     H43126   9.071   5.374   4.885 -1.3757 -2.8130 -0.4574
  313MOL0     H43127   9.049   5.054   4.609 -0.9364 -0.3168  1.3141
  313MOL0     H43128   9.176   5.144   4.516  0.6249  1.4887  0.7850
  313MOL0     H43129   8.993   5.109   4.376  2.4634  1.1091 -1.7399
  313MOL0     H43130   8.873   5.154   4.497  1.0659 -3.6677  1.8728
  313MOL0     H43131   8.878   5.362   4.377 -0.6571 -0.5052 -1.6072
  313MOL0     H43132   9.029   5.385   4.467 -1.8619  1.5382 -0.7102
  313MOL0     H43133   9.166   5.311   4.285  0.1421 -0.2293  1.8696
  313MOL0     H43134   9.019   5.266   4.196  0.5474  0.6616 -0.3816
  313MOL0     H43135   9.120   5.544   4.264  1.4806 -0.1483 -1.3655
  313MOL0     H43136   8.968   5.511   4.178 -0.3912 -0.0444 -0.5448
  313MOL0     H43137   9.244   5.432   4.106  0.5460  2.4102  1.4460
  313MOL0     H43138   9.095   5.407   4.001 -0.1278  0.8672 -0.0854
  313MOL0     H43139   9.252   5.610   3.946 -0.5445  0.7442 -0.4783
  313MOL0     H43140   9.166   5.691   4.068 -3.8863  2.1048 -1.9062
  313MOL0     H43141   8.953   5.627   3.956 -0.2029 -2.2338 -0.0229
  313MOL0     H43142   9.062   5.741   3.861  3.0105 -1.1598 -0.8357
  313MOL0     H43143   8.818   5.567   3.724  1.4296  0.4906  1.7799
  313MOL0     H43144   8.753   5.391   3.545  0.2999  0.6456 -0.7795
  313MOL0     H43145   8.875   5.259   3.553  0.8131  1.3183  2.4167
  313MOL0     H43146   9.000   5.366   3.360 -1.2313 -1.8024 -1.0508
  313MOL0     H43147   8.837   5.347   3.308  0.4609 -0.0536 -1.1663
  313MOL0     H43148   8.778   5.573   3.391  0.2268 -2.2518  0.8836
  313MOL0     H43149   8.954   5.607   3.403  1.5248 -1.5649 -0.5987
  313MOL0     H43150   8.939   5.516   3.146 -3.3125 -1.0271 -3.8201
  313MOL0     H43151   8.778   5.531   3.179 -0.6271 -0.1394  1.8052
  313MOL0     H43152   8.844   5.953   3.115  0.3123  2.2955 -1.1108
  313MOL0     H43153   8.682   6.140   2.843  0.4135 -0.0369 -2.8168
  313MOL0     H43154   8.856   6.119   2.836 -0.4499  0.2627  1.3597
  313MOL0     H43155   8.795   6.153   2.988  3.3056 -1.1712 -1.2218
  313MOL0     H43156   8.301   6.041   2.675 -0.3575 -1.6761  0.7863
  313MOL0     H43157   8.204   6.145   2.484 -1.5934 -2.0522  0.3704
  313MOL0     H43158   8.062   6.110   2.247 -2.3833  1.2387 -2.7804
  313MOL0     H43159   8.168   6.242   2.262 -0.0391  1.6744 -1.6355
  313MOL0     H43160   8.226   6.246   2.030 -1.9286  3.4435 -1.2870
  313MOL0     H43161   8.122   6.098   1.999 -2.7658  1.3169 -1.4041
  313MOL0     H43162   8.023   6.363   2.099 -2.0150  0.7740 -1.7481
  313MOL0     H43163   7.927   6.225   2.092 -1.4137 -2.4532 -3.4097
  313MOL0     H43164   8.074   6.327   1.858  1.3261 -0.4418  2.2042
  313MOL0     H43165   7.907   6.380   1.905  1.4008  2.0992 -0.5835
  313MOL0     H43166   7.908   6.216   1.724  1.3333 -2.0014 -0.9516
  313MOL0     H43167   7.981   6.099   1.823  0.7241  0.1041 -1.2747
  313MOL0     H43168   7.708   6.248   1.860  1.9230  1.1695  0.5769
  313MOL0     H43169   7.773   6.139   1.986 -0.6157 -3.4376 -0.4941
  313MOL0     H43170   7.708   6.063   1.700 -0.6746 -0.4022  0.7463
  313MOL0     H43171   7.609   6.026   1.839 -0.6068  2.3910 -0.0750
  313MOL0     H43172   7.829   5.899   1.938  0.7598  1.0957 -0.0688
  313MOL0     H43173   7.891   5.910   1.772 -1.0414 -6.1575 -2.9085
  313MOL0     H43174   8.417   5.903   2.230 -0.6067 -2.6652  1.2369
  313MOL0     H43175   8.578   5.825   2.432  0.8662  0.9944 -0.1029
  313MOL0     H43176   8.681   5.660   2.753  3.1944 -0.1863 -1.3319
  313MOL0     H43177   8.782   5.564   2.973 -1.5457  0.1213 -0.5017
  313MOL0     H43178   9.278   5.060   4.704 -1.5521  4.0748 -3.5394
  313MOL0     H43179   9.433   5.035   4.905 -0.9617 -0.4597  2.7143
  313MOL0     H43180   9.826   5.231   4.971  2.3232  0.8854  0.4027
  313MOL0     H43181  10.017   5.281   5.069  1.6035  1.1923  2.0514
  313MOL0     H43182  10.162   5.396   5.233  0.3422  0.7815  0.7104
  313MOL0     H43183  10.240   5.344   5.395  0.9695 -3.0473  0.2721
  313MOL0     H43184  10.337   5.243   5.190  0.3315 -2.2937 -0.5419
  313MOL0     H43185  10.186   5.154   5.175  0.0992 -0.8583  0.1828
  313MOL0     H43186  10.239   5.070   5.416 -1.6387  0.3081 -1.9704
  313MOL0     H43187  10.320   5.008   5.282  0.8566 -0.9363  1.1162
  313MOL0     H43188  10.474   5.045   5.467 -0.4832 -3.2658 -2.6747
  313MOL0     H43189  10.418   5.209   5.473  0.3123  0.0446 -0.3818
  313MOL0     H43190  10.752   5.209   5.203  0.7352  3.5168  3.1308
  313MOL0     H43191   9.807   5.224   5.464 -1.5254 -0.7550 -0.5827
  313MOL0     H43192   9.536   5.089   5.293 -0.9243  0.7059  0.0857
  313MOL0     H43193   9.595   5.130   5.455 -0.1422  0.2199  0.2639
  313MOL0     H43194   9.497   5.249   5.368 -0.2324 -1.3428  1.1696
  314MOL0     O43195   9.039  10.290   5.585 -0.3495 -0.0190 -0.1259
  314MOL0     C43196   9.042  10.341   5.697  0.2890  0.9024  0.8247
  314MOL0     O43197   9.138  10.423   5.742  0.0017  0.1536  0.6332
  314MOL0     C43198   9.240  10.446   5.659  0.7324  0.2556 -0.0028
  314MOL0     C43199   9.231  10.522   5.530  0.2601  0.4421  0.2315
  314MOL0     C43200   9.352  10.552   5.466 -0.0578 -0.6706  1.0265
  314MOL0     C43201   9.473  10.511   5.524 -0.4820  0.5316 -0.5846
  314MOL0     O43202   9.591  10.538   5.465 -0.3786 -1.0768  0.2201
  314MOL0     C43203   9.599  10.614   5.346 -0.1604 -0.2407  0.0994
  314MOL0     C43204   9.736  10.605   5.297  0.2446 -0.8293 -0.0930
  314MOL0     C43205   9.825  10.704   5.363  0.4324  0.4833 -1.3462
  314MOL0     C43206   9.970  10.698   5.307  0.1126 -1.1875 -0.2198
  314MOL0     C43207  10.058  10.810   5.368 -0.7082 -0.6494 -0.0937
  314MOL0     C43208  10.088  10.796   5.523  0.8115 -0.0531 -0.0129
  314MOL0     C43209  10.215  10.742   5.568  0.6130 -0.1185 -0.2485
  314MOL0     C43210  10.262  10.606   5.497 -1.1607 -0.6664 -0.4844
  314MOL0     N43211  10.336  10.515   5.584 -1.2238 -0.6756 -0.4309
  314MOL0     C43212  10.296  10.440   5.698  0.5914  0.3514  1.2707
  314MOL0     C43213  10.405  10.379   5.736  0.2788  0.3324  0.2048
  314MOL0     C43214  10.422  10.273   5.852  0.8420  0.2814 -0.0837
  314MOL0     C43215  10.291  10.212   5.913 -0.3791 -0.8399  0.5979
  314MOL0     C43216  10.229  10.090   5.839 -0.5293 -0.7488  1.0034
  314MOL0     C43217  10.108  10.031   5.902  0.2434 -0.7573  0.6517
  314MOL0     O43218  10.018  10.134   5.933  0.7443 -0.5751  0.0678
  314MOL0     C43219   9.899  10.096   5.986  1.1322  0.5452  0.4217
  314MOL0     C43220   9.821  10.214   6.003 -0.6648 -0.2680  0.2210
  314MOL0     C43221   9.690  10.210   6.046  0.0908 -0.9949  0.6186
  314MOL0     C43222   9.603  10.334   6.030  1.1719  0.1737  0.1272
  314MOL0     C43223   9.643  10.084   6.099 -0.3704 -0.2056  0.0577
  314MOL0     C43224   9.519  10.070   6.173 -0.3241  0.2072  0.4231
  314MOL0     O43225   9.472   9.952   6.177  0.2701 -0.5262 -0.4488
  314MOL0     C43226   9.336   9.924   6.219 -0.6082  0.0671 -0.7491
  314MOL0     C43227   9.303   9.845   6.328 -0.1819 -0.1107  0.0279
  314MOL0     C43228   9.178   9.829   6.376  0.5495  0.4852 -0.2976
  314MOL0     C43229   9.072   9.903   6.314 -0.2569 -0.5328 -0.1951
  314MOL0     O43230   8.950   9.911   6.370  0.9428  0.2906  0.2060
  314MOL0     C43231   8.925   9.952   6.504 -0.9756  0.9335 -0.3134
  314MOL0     C43232   8.794   9.890   6.556 -0.0125  0.1741  0.6925
  314MOL0     C43233   8.770   9.919   6.702 -0.7516 -0.6113  0.0357
  314MOL0     C43234   8.658   9.836   6.765 -0.2780 -0.0611  0.3878
  314MOL0     C43235   8.517   9.893   6.732 -0.2604 -0.0280  0.4123
  314MOL0     C43236   8.451   9.829   6.601  0.4720 -0.8257 -0.3005
  314MOL0     C43237   8.334   9.922   6.548 -0.0188 -0.1595 -0.2415
  314MOL0     C43238   8.273   9.866   6.421 -0.1634  0.6593  0.0702
  314MOL0    Cl43239   8.405   9.842   6.283 -0.1117  0.3627  0.4427
  314MOL0     C43240   9.100   9.978   6.200  0.1970 -0.1743 -0.3241
  314MOL0     C43241   9.227   9.981   6.154  0.0340  0.4441 -0.3517
  314MOL0     O43242   9.452  10.167   6.207 -0.3200  0.8537  0.9676
  314MOL0     C43243   9.727   9.976   6.098  0.3158  0.8606 -0.5016
  314MOL0     C43244   9.854   9.975   6.037  0.6248  0.4839 -0.0658
  314MOL0     N43245  10.513  10.407   5.656 -0.0378  0.2662 -0.2395
  314MOL0     N43246  10.471  10.491   5.567  0.9336 -0.4519 -0.1757
  314MOL0     C43247   9.475  10.456   5.650  0.0976 -0.0451  0.1494
  314MOL0     C43248   9.356  10.430   5.719 -0.5314  1.0155  0.4508
  314MOL0     C43249   8.943  10.285   5.803 -0.4854 -0.7904 -0.1179
  314MOL0     C43250   8.970  10.306   5.943  0.2121 -0.2767 -0.5291
  314MOL0     C43251   8.898  10.243   6.048  0.0699  0.0629  0.2273
  314MOL0     C43252   8.780  10.175   6.024 -0.0680  0.5405 -0.0060
  314MOL0     O43253   8.694  10.132   6.121  0.4640 -0.3313 -0.2455
  314MOL0     C43254   8.741  10.129   6.259  0.6465  0.0583 -0.4851
  314MOL0     C43255   8.695  10.241   6.355  0.3216  0.4720  0.4302
  314MOL0     C43256   8.552  10.209   6.403  0.3425 -0.4637 -0.5597
  314MOL0     C43257   8.505  10.309   6.510 -0.0633 -0.1009 -0.5241
  314MOL0     C43258   8.578  10.288   6.632 -0.5833  0.3186 -0.4149
  314MOL0     C43259   8.648  10.252   6.731 -0.8953 -0.8670  0.6622
  314MOL0     C43260   8.743  10.162   5.889  0.3007 -0.1310  0.2738
  314MOL0     C43261   8.816  10.208   5.776 -0.8155 -0.5091  1.0482
  314MOL0     C43262   8.770  10.149   5.644 -0.5312  0.1763  0.4703
  314MOL0     H43263   9.131  10.539   5.490 -0.2812  3.1392  2.4865
  314MOL0     H43264   9.357  10.601   5.369 -1.5461  1.2761  1.8768
  314MOL0     H43265   9.561  10.716   5.356 -0.3091 -0.4136  1.4189
  314MOL0     H43266   9.546  10.561   5.266 -1.9090  0.2153  0.9030
  314MOL0     H43267   9.782  10.507   5.314  1.2063 -0.0228  2.4540
  314MOL0     H43268   9.735  10.616   5.188 -3.3097 -1.7409 -0.2651
  314MOL0     H43269   9.792  10.808   5.360  1.8389  1.0397  0.4853
  314MOL0     H43270   9.831  10.677   5.469  2.9269  2.6345 -0.8363
  314MOL0     H43271  10.016  10.599   5.309  0.7591 -0.9192 -1.2440
  314MOL0     H43272   9.959  10.722   5.201  4.8143  2.0653 -0.2722
  314MOL0     H43273  10.010  10.907   5.350  0.3253 -0.1140 -0.0128
  314MOL0     H43274  10.156  10.801   5.321  0.9294 -2.5644  3.3262
  314MOL0     H43275  10.085  10.898   5.561  1.1545  0.6229 -1.6690
  314MOL0     H43276  10.013  10.734   5.572 -0.5894  2.3693  1.0695
  314MOL0     H43277  10.219  10.733   5.677  0.4193  0.2754 -0.2060
  314MOL0     H43278  10.287  10.819   5.540  0.5675 -0.3107 -0.8968
  314MOL0     H43279  10.180  10.539   5.467 -0.2646 -1.9668 -0.1333
  314MOL0     H43280  10.328  10.633   5.414  1.9875  1.6654  2.5061
  314MOL0     H43281  10.200  10.428   5.747  0.8506 -0.0180  1.6864
  314MOL0     H43282  10.490  10.321   5.924  1.6084  1.5516 -1.5814
  314MOL0     H43283  10.481  10.187   5.819 -0.4725 -0.6022 -0.1768
  314MOL0     H43284  10.321  10.170   6.009  2.1894  0.0386  0.2523
  314MOL0     H43285  10.212  10.285   5.932 -0.8281 -0.7512 -1.3601
  314MOL0     H43286  10.191  10.127   5.743  1.8763 -2.7235 -0.8336
  314MOL0     H43287  10.308  10.017   5.820 -1.9599 -1.3346 -4.0765
  314MOL0     H43288  10.057   9.971   5.826  2.8454  1.3281 -3.0796
  314MOL0     H43289  10.123   9.962   5.986 -0.5639 -0.0010  1.4423
  314MOL0     H43290   9.852  10.314   5.973 -1.6761  0.7889  2.4587
  314MOL0     H43291   9.586  10.370   6.132 -0.6377 -2.4650  0.8540
  314MOL0     H43292   9.512  10.290   5.989  2.9304 -1.5521 -2.1592
  314MOL0     H43293   9.638  10.415   5.966  2.4812 -0.3276  0.1750
  314MOL0     H43294   9.384   9.793   6.380 -0.4217 -1.6549 -1.0677
  314MOL0     H43295   9.156   9.770   6.464 -0.8474  0.8739 -0.3523
  314MOL0     H43296   9.014   9.927   6.562 -1.2657  0.8220  0.0904
  314MOL0     H43297   8.934  10.060   6.521 -0.3320  0.9085 -0.4833
  314MOL0     H43298   8.713   9.932   6.496  1.6427  3.3631  0.4837
  314MOL0     H43299   8.799   9.781   6.565 -0.0556  0.2333  1.4619
  314MOL0     H43300   8.754  10.027   6.705 -1.2679 -0.6923  0.2018
  314MOL0     H43301   8.862   9.905   6.760 -0.5103  0.6246 -0.0157
  314MOL0     H43302   8.675   9.861   6.870 -1.9766  2.7042  0.1024
  314MOL0     H43303   8.669   9.727   6.760  4.9338  0.2484 -0.6776
  314MOL0     H43304   8.447   9.890   6.816 -1.4804 -2.0162 -0.6077
  314MOL0     H43305   8.533   9.998   6.707 -0.0180  0.2068  1.4948
  314MOL0     H43306   8.410   9.734   6.636 -0.1568  0.0668  1.5261
  314MOL0     H43307   8.530   9.825   6.525 -1.0443 -0.8249 -1.9348
  314MOL0     H43308   8.373  10.023   6.530 -0.3219 -0.0595 -0.3348
  314MOL0     H43309   8.262   9.925   6.630  1.9781  0.5118  1.5952
  314MOL0     H43310   8.194   9.927   6.376 -1.5216 -1.4338 -0.5809
  314MOL0     H43311   8.218   9.772   6.432  0.8804  0.2768  2.7503
  314MOL0     H43312   9.020  10.037   6.156 -1.1997  0.1633  2.4382
  314MOL0     H43313   9.251  10.039   6.066  0.5830  2.1000  0.8401
  314MOL0     H43314   9.691   9.883   6.139 -1.6467  1.8895  0.2540
  314MOL0     H43315   9.912   9.883   6.043  0.4135  0.2403 -1.3947
  314MOL0     H43316   9.565  10.424   5.702  0.4686  2.0632  0.9178
  314MOL0     H43317   9.354  10.379   5.815 -0.0923  0.9161  0.4074
  314MOL0     H43318   9.054  10.367   5.974  2.0056 -2.9399  0.2040
  314MOL0     H43319   8.942  10.249   6.147  0.5479  0.0051  0.0220
  314MOL0     H43320   8.704  10.035   6.299 -1.2083  0.7302 -0.5252
  314MOL0     H43321   8.849  10.112   6.266  0.1559 -3.1194  0.8975
  314MOL0     H43322   8.695  10.341   6.311 -2.6026  0.8060  0.9802
  314MOL0     H43323   8.764  10.235   6.439 -0.5028  0.6995  1.1456
  314MOL0     H43324   8.477  10.198   6.324  0.2547 -1.5215 -0.3399
  314MOL0     H43325   8.565  10.117   6.460  1.5955 -1.1670 -1.9048
  314MOL0     H43326   8.399  10.285   6.523 -0.1459  0.2887 -0.4827
  314MOL0     H43327   8.513  10.413   6.480 -0.1235 -0.4765 -1.9158
  314MOL0     H43328   8.715  10.202   6.799 -1.2630 -4.6935 -1.4583
  314MOL0     H43329   8.660  10.098   5.862  0.5255 -0.5039  0.4561
  314MOL0     H43330   8.831  10.062   5.617 -1.5126 -0.7138  1.0675
  314MOL0     H43331   8.671  10.104   5.650  0.2327 -1.6322  0.2765
  314MOL0     H43332   8.769  10.231   5.572 -0.8687 -1.3825 -1.3824
  315MOL0     O43333   4.418   4.025   5.349 -0.4981  0.4135 -0.0414
  315MOL0     C43334   4.317   4.097   5.322 -0.4887 -0.5843  0.3587
  315MOL0     O43335   4.243   4.153   5.410 -0.3701 -0.2794 -0.1679
  315MOL0     C43336   4.286   4.145   5.542 -0.6724 -0.5866  0.2897
  315MOL0     C43337   4.220   4.052   5.623 -0.0252 -0.8526 -0.3394
  315MOL0     C43338   4.237   4.065   5.763 -0.0525  0.1969 -0.2557
  315MOL0     C43339   4.339   4.147   5.820  0.4673  0.5848  0.1041
  315MOL0     O43340   4.372   4.126   5.952 -0.1932 -0.2408 -0.3506
  315MOL0     C43341   4.422   4.245   6.026 -0.4290 -0.2003 -0.3325
  315MOL0     C43342   4.410   4.230   6.174  0.4290  0.4669  0.3946
  315MOL0     C43343   4.494   4.104   6.232  0.3395  0.8355 -0.4115
  315MOL0     C43344   4.471   4.072   6.381 -0.5458  0.3241 -0.4092
  315MOL0     C43345   4.581   3.968   6.441 -0.1872  0.8152 -0.7813
  315MOL0     C43346   4.615   3.853   6.337 -0.4140  0.1267 -0.2868
  315MOL0     C43347   4.678   3.736   6.413 -0.0700 -0.8796 -0.0950
  315MOL0     C43348   4.823   3.769   6.456  0.3980 -0.1817  0.2059
  315MOL0     N43349   4.889   3.643   6.487 -1.0617 -0.5775  0.0712
  315MOL0     C43350   4.910   3.570   6.601  0.1630  0.4015 -0.6149
  315MOL0     C43351   5.019   3.490   6.573  1.0900  0.6240  0.1079
  315MOL0     C43352   5.099   3.384   6.656  0.5856 -0.4956  0.1880
  315MOL0     C43353   5.013   3.261   6.655  0.6113  1.0696 -0.1789
  315MOL0     C43354   5.058   3.162   6.770  0.3189 -0.5963 -0.1369
  315MOL0     C43355   5.014   3.015   6.744 -0.4763 -0.2546  0.5086
  315MOL0     O43356   5.094   2.967   6.638 -0.0035  0.1480  0.4223
  315MOL0     C43357   5.183   2.862   6.668 -0.1230 -0.1636 -0.3727
  315MOL0     C43358   5.318   2.886   6.669 -0.5995  0.1366  0.4367
  315MOL0     C43359   5.415   2.790   6.679 -0.0310  0.2273  0.4151
  315MOL0     C43360   5.555   2.841   6.672  0.5595 -0.2974 -0.4906
  315MOL0     C43361   5.377   2.654   6.708 -0.3885 -0.5104 -0.4751
  315MOL0     C43362   5.479   2.540   6.742  0.2249  0.8165  0.9283
  315MOL0     O43363   5.608   2.555   6.687 -0.5055  0.4496 -0.0331
  315MOL0     C43364   5.709   2.476   6.743  0.4881 -0.1593 -0.1029
  315MOL0     C43365   5.718   2.338   6.720  0.3736 -0.4138  0.0495
  315MOL0     C43366   5.829   2.260   6.766 -0.2404 -0.4068 -0.1899
  315MOL0     C43367   5.927   2.334   6.837  0.6917  0.2140 -0.8838
  315MOL0     O43368   6.031   2.276   6.905 -0.0843  0.6683  0.0786
  315MOL0     C43369   6.023   2.163   6.995  0.1173  0.6426  0.6098
  315MOL0     C43370   6.158   2.151   7.070  0.2453  0.4349  0.3338
  315MOL0     C43371   6.208   2.279   7.133 -0.2956 -1.0093 -0.3349
  315MOL0     C43372   6.336   2.251   7.212  0.5417 -0.3731 -0.0644
  315MOL0     C43373   6.454   2.210   7.130  0.1857 -0.3904 -0.2004
  315MOL0     C43374   6.582   2.257   7.203  0.3869  0.3852  0.2574
  315MOL0     C43375   6.708   2.221   7.123  0.1185 -0.2149 -0.6594
  315MOL0     C43376   6.837   2.275   7.176  0.6411  0.8305 -0.4438
  315MOL0    Cl43377   6.886   2.444   7.157  0.6747 -0.0484 -0.3227
  315MOL0     C43378   5.918   2.471   6.857 -0.4254  0.0068 -0.0344
  315MOL0     C43379   5.813   2.545   6.808  0.2887 -0.2139 -0.7758
  315MOL0     O43380   5.435   2.453   6.817 -0.1541  0.2178 -0.1433
  315MOL0     C43381   5.242   2.630   6.700  0.9754 -0.2175  0.9778
  315MOL0     C43382   5.146   2.731   6.676  1.0233 -0.0570 -0.2749
  315MOL0     N43383   5.071   3.532   6.452 -0.0382  0.0856 -0.1515
  315MOL0     N43384   4.991   3.612   6.400 -0.2596 -0.5841  0.0074
  315MOL0     C43385   4.421   4.223   5.731  0.0506  0.8808 -0.1244
  315MOL0     C43386   4.389   4.222   5.597  0.2034 -0.3889 -0.2811
  315MOL0     C43387   4.274   4.123   5.179 -0.4026  0.7932 -0.9862
  315MOL0     C43388   4.370   4.134   5.084  0.3907  0.2148  0.4619
  315MOL0     C43389   4.347   4.167   4.952  1.1601 -0.4421  0.2911
  315MOL0     C43390   4.216   4.198   4.921 -0.1664  0.5052 -1.0717
  315MOL0     O43391   4.186   4.254   4.803 -0.8890 -0.1497  0.4225
  315MOL0     C43392   4.278   4.350   4.739 -0.5449 -0.1790 -0.4570
  315MOL0     C43393   4.201   4.428   4.635 -0.2382  0.3575  0.1425
  315MOL0     C43394   4.299   4.540   4.578  0.5154  0.0997  0.4013
  315MOL0     C43395   4.211   4.653   4.520 -0.3715  0.4028  0.0339
  315MOL0     C43396   4.113   4.607   4.421  0.6740 -0.0130 -0.1232
  315MOL0     C43397   4.039   4.577   4.329  0.2199  1.1078 -0.3100
  315MOL0     C43398   4.107   4.173   5.013  0.0860 -0.5926 -0.3430
  315MOL0     C43399   4.141   4.122   5.139  0.4827  0.1487  0.8307
  315MOL0     C43400   4.019   4.074   5.215 -0.2231  0.4117  0.4317
  315MOL0     H43401   4.170   3.972   5.570 -2.1094  1.6183 -2.3822
  315MOL0     H43402   4.178   3.996   5.822  2.0791 -1.2349  0.3288
  315MOL0     H43403   4.373   4.334   5.986  1.4520 -0.0134 -2.3889
  315MOL0     H43404   4.526   4.254   5.996 -0.5075 -3.1358 -1.8252
  315MOL0     H43405   4.449   4.315   6.230 -1.1203  1.2781  0.2857
  315MOL0     H43406   4.304   4.212   6.193  0.0880  1.7165 -0.2058
  315MOL0     H43407   4.466   4.019   6.170  1.7220  0.6608 -0.8133
  315MOL0     H43408   4.598   4.106   6.201  0.5397 -4.3614 -0.8269
  315MOL0     H43409   4.475   4.153   6.453 -0.4672 -0.1345  0.1071
  315MOL0     H43410   4.369   4.031   6.380 -0.5669  0.3524 -1.6973
  315MOL0     H43411   4.554   3.932   6.540  1.0580 -0.9464 -1.0231
  315MOL0     H43412   4.672   4.026   6.460 -0.8581  1.0745  2.1078
  315MOL0     H43413   4.523   3.818   6.289 -1.8051  0.4768  1.9690
  315MOL0     H43414   4.684   3.884   6.259 -0.3604 -0.2430 -0.3871
  315MOL0     H43415   4.680   3.650   6.346 -3.1371  0.7044 -2.5062
  315MOL0     H43416   4.621   3.696   6.497 -1.4265  1.4033  0.1662
  315MOL0     H43417   4.866   3.823   6.372 -0.8570 -1.3221 -1.2549
  315MOL0     H43418   4.826   3.835   6.543  0.9183  1.1546 -0.7942
  315MOL0     H43419   4.859   3.559   6.695 -0.4008 -5.5092 -1.1937
  315MOL0     H43420   5.131   3.437   6.747  2.3179  1.2200 -1.3217
  315MOL0     H43421   5.194   3.361   6.607  0.8394 -0.0449  0.4576
  315MOL0     H43422   4.907   3.284   6.669  0.4300  0.1828 -0.0414
  315MOL0     H43423   5.017   3.200   6.565 -3.7987 -1.2294  0.9079
  315MOL0     H43424   5.158   3.171   6.813 -0.1481 -0.6057  0.9947
  315MOL0     H43425   5.003   3.197   6.858 -0.2185 -0.0635 -0.6783
  315MOL0     H43426   5.026   2.943   6.826  0.6107 -2.6298 -1.6059
  315MOL0     H43427   4.910   3.013   6.712 -0.3778 -2.6802  0.1692
  315MOL0     H43428   5.352   2.986   6.645  1.3131 -0.8287 -1.1796
  315MOL0     H43429   5.611   2.801   6.587  0.0494 -1.1017 -0.4599
  315MOL0     H43430   5.614   2.824   6.762 -0.5490 -2.0452 -0.0457
  315MOL0     H43431   5.557   2.950   6.661  2.2459 -0.4601 -2.3913
  315MOL0     H43432   5.643   2.293   6.656 -0.9411  3.5601 -1.4722
  315MOL0     H43433   5.851   2.156   6.742  0.6662  0.0813 -1.6217
  315MOL0     H43434   5.945   2.173   7.071 -1.5569 -0.5887 -0.8915
  315MOL0     H43435   6.003   2.073   6.937 -0.1041  0.5725  0.7965
  315MOL0     H43436   6.143   2.084   7.156 -0.7106  1.8124  1.2828
  315MOL0     H43437   6.232   2.108   7.003  1.6822 -0.8759  2.6072
  315MOL0     H43438   6.140   2.337   7.195  1.3107 -1.0783  1.6289
  315MOL0     H43439   6.226   2.347   7.050  0.1901 -1.1237 -0.3289
  315MOL0     H43440   6.313   2.175   7.287  0.3375  0.5501  0.8284
  315MOL0     H43441   6.366   2.343   7.264  1.2260 -1.6610  1.9160
  315MOL0     H43442   6.456   2.103   7.106  0.7049 -0.2316 -0.9105
  315MOL0     H43443   6.441   2.255   7.031 -0.3956 -0.2501 -0.0669
  315MOL0     H43444   6.588   2.221   7.306 -2.6113 -0.8244  0.1070
  315MOL0     H43445   6.581   2.366   7.212 -0.5518  0.3169  1.0978
  315MOL0     H43446   6.699   2.251   7.018  2.1927 -0.6782 -1.0187
  315MOL0     H43447   6.702   2.113   7.112 -3.4660 -0.1091 -0.6978
  315MOL0     H43448   6.912   2.216   7.123 -1.2448 -0.5438 -1.7053
  315MOL0     H43449   6.836   2.264   7.285 -3.6449  1.6604 -0.2028
  315MOL0     H43450   5.990   2.518   6.922 -0.9452 -2.3457  2.4362
  315MOL0     H43451   5.825   2.647   6.841  1.8548 -1.6045  3.7031
  315MOL0     H43452   5.194   2.534   6.715  2.7519 -1.5743 -1.2318
  315MOL0     H43453   5.042   2.705   6.663  0.9638 -0.6370  1.1989
  315MOL0     H43454   4.512   4.267   5.771 -0.7430 -0.2586  3.2006
  315MOL0     H43455   4.448   4.266   5.517 -2.2198  0.3080 -1.7724
  315MOL0     H43456   4.476   4.125   5.104  0.2119  0.6010  1.6762
  315MOL0     H43457   4.432   4.178   4.885  0.6169  0.2353 -0.3074
  315MOL0     H43458   4.325   4.413   4.815  2.6695 -4.6134  1.6828
  315MOL0     H43459   4.359   4.303   4.684 -2.7887 -2.7454 -1.8179
  315MOL0     H43460   4.117   4.480   4.681  1.0682  3.5649 -0.7998
  315MOL0     H43461   4.161   4.371   4.551  1.0161 -1.9561  1.0244
  315MOL0     H43462   4.360   4.585   4.657 -1.3685 -0.2427  2.1468
  315MOL0     H43463   4.357   4.488   4.502 -2.5930 -3.7925  0.3904
  315MOL0     H43464   4.274   4.726   4.470 -1.3762  2.0503  1.0816
  315MOL0     H43465   4.160   4.705   4.602 -1.0360 -1.5904  0.9520
  315MOL0     H43466   3.964   4.554   4.256  1.0609  0.4431 -0.9966
  315MOL0     H43467   4.007   4.183   4.970 -0.4422 -1.2705  0.6931
  315MOL0     H43468   3.948   4.039   5.141  0.7300  1.9262 -1.2852
  315MOL0     H43469   4.046   3.992   5.282 -1.2640  0.6093  1.1194
  315MOL0     H43470   3.974   4.156   5.272 -0.6650  1.8056 -1.7880
  316MOL0     O43471   7.768   9.196   1.472 -0.1475  0.1789  0.3898
  316MOL0     C43472   7.681   9.208   1.564 -0.6787  1.0364 -0.2290
  316MOL0     O43473   7.540   9.200   1.536 -0.4209 -0.4949 -0.0392
  316MOL0     C43474   7.507   9.178   1.402 -0.3378 -0.4964 -0.6439
  316MOL0     C43475   7.493   9.290   1.323  0.2482 -0.0687  0.7159
  316MOL0     C43476   7.462   9.279   1.187  0.6576  0.0192  0.2959
  316MOL0     C43477   7.446   9.152   1.125 -0.8758  0.1028  0.1998
  316MOL0     O43478   7.435   9.137   0.986 -0.3023  0.3055 -0.2134
  316MOL0     C43479   7.328   9.061   0.925  0.0149  0.0608  0.7350
  316MOL0     C43480   7.367   9.061   0.774  0.7446 -1.5981  0.6228
  316MOL0     C43481   7.249   9.000   0.693  0.2026  0.4594 -0.8188
  316MOL0     C43482   7.282   8.996   0.547 -0.6027 -0.3166 -0.1081
  316MOL0     C43483   7.162   8.940   0.465  0.3588 -1.1271  1.3436
  316MOL0     C43484   7.200   8.944   0.313  0.3418 -0.2672 -0.6903
  316MOL0     C43485   7.089   8.880   0.227 -0.0604 -0.2294  0.4844
  316MOL0     C43486   7.123   8.881   0.077  0.1613 -0.3028  0.1015
  316MOL0     N43487   7.021   8.795   0.005 -0.1198  0.4901 -0.1898
  316MOL0     C43488   7.027   8.663  -0.027 -0.6346 -0.9564 -0.3636
  316MOL0     C43489   6.924   8.638  -0.115 -0.4035  0.1263  0.1988
  316MOL0     C43490   6.866   8.515  -0.180  0.3338 -0.0117  0.9168
  316MOL0     C43491   6.864   8.392  -0.077 -0.3824  0.5653 -0.6475
  316MOL0     C43492   6.758   8.296  -0.123  0.7201 -0.5475 -1.0221
  316MOL0     C43493   6.724   8.192  -0.006 -0.0930  0.3803  0.4624
  316MOL0     O43494   6.593   8.208   0.040 -0.4714 -0.0191 -0.6666
  316MOL0     C43495   6.568   8.135   0.153 -0.1379 -0.2897  0.0193
  316MOL0     C43496   6.434   8.110   0.177 -0.1657  0.4122  0.1228
  316MOL0     C43497   6.398   8.021   0.288  0.4862 -1.0134  0.3301
  316MOL0     C43498   6.249   8.022   0.313 -0.5042  0.3938  0.0077
  316MOL0     C43499   6.499   7.968   0.371 -0.4665 -0.2816 -0.1096
  316MOL0     C43500   6.473   7.878   0.491 -0.6583  0.5254 -0.1416
  316MOL0     O43501   6.577   7.877   0.575 -0.3838 -0.3235  0.1235
  316MOL0     C43502   6.589   7.803   0.687 -0.8547 -0.1671 -0.7790
  316MOL0     C43503   6.549   7.660   0.679 -0.1134 -0.8061  0.6946
  316MOL0     C43504   6.574   7.568   0.777 -0.5553  0.2650 -0.5196
  316MOL0     C43505   6.619   7.623   0.902  0.2318 -0.2669 -0.5602
  316MOL0     O43506   6.647   7.561   1.022  0.2858  0.3756 -0.4448
  316MOL0     C43507   6.608   7.418   1.030 -0.4778 -0.1338 -0.1690
  316MOL0     C43508   6.710   7.313   0.978  0.0220 -0.6222  0.6797
  316MOL0     C43509   6.857   7.332   1.024  0.2020 -0.2803 -0.1182
  316MOL0     C43510   6.865   7.280   1.164 -0.4174  0.5665 -0.2094
  316MOL0     C43511   6.974   7.353   1.254  0.2674 -0.5141 -0.9670
  316MOL0     C43512   6.942   7.502   1.284  0.4880 -0.7403  0.7326
  316MOL0     C43513   6.991   7.564   1.417 -0.2444  0.3109 -0.3607
  316MOL0     C43514   6.963   7.716   1.423 -0.5140  0.3036 -0.1683
  316MOL0    Cl43515   6.797   7.773   1.434 -0.1742  0.2768  0.4960
  316MOL0     C43516   6.657   7.765   0.917 -0.3192  0.1624 -0.3794
  316MOL0     C43517   6.648   7.850   0.809  0.0224 -0.2545 -0.0558
  316MOL0     O43518   6.376   7.802   0.490  0.0353  0.2114  0.1789
  316MOL0     C43519   6.632   8.007   0.339 -0.3423  0.2055  0.3769
  316MOL0     C43520   6.674   8.096   0.240 -0.0940 -0.7036 -0.0171
  316MOL0     N43521   6.856   8.765  -0.128 -0.5123  0.3269 -0.2169
  316MOL0     N43522   6.914   8.856  -0.057 -0.4912 -0.2799  0.1789
  316MOL0     C43523   7.441   9.033   1.216  0.0631 -0.0264 -0.6833
  316MOL0     C43524   7.485   9.049   1.348  0.0590  0.5419 -0.5543
  316MOL0     C43525   7.713   9.228   1.703 -0.3067 -0.8657  0.7094
  316MOL0     C43526   7.624   9.292   1.790  0.5927  0.0738 -0.0984
  316MOL0     C43527   7.649   9.310   1.930 -0.0991  0.4823  0.5282
  316MOL0     C43528   7.779   9.284   1.978  1.2882 -0.1076  0.2690
  316MOL0     O43529   7.809   9.303   2.108  0.8348  0.8760 -0.3363
  316MOL0     C43530   7.784   9.422   2.186 -0.2846  0.2091 -0.8781
  316MOL0     C43531   7.884   9.529   2.139  0.1024  0.3949  0.3457
  316MOL0     C43532   8.031   9.504   2.196  0.9463 -0.8148 -0.1497
  316MOL0     C43533   8.125   9.616   2.137  0.5155  1.3013 -0.6148
  316MOL0     C43534   8.254   9.586   2.198  0.1159  0.5790 -1.3723
  316MOL0     C43535   8.356   9.546   2.250 -0.4513  0.1972 -0.3197
  316MOL0     C43536   7.875   9.232   1.894  0.2630  0.1730 -0.7509
  316MOL0     C43537   7.844   9.203   1.758 -0.7444  0.3244  0.1348
  316MOL0     C43538   7.962   9.148   1.670  0.3519  0.6954 -0.6711
  316MOL0     H43539   7.512   9.385   1.372  2.2814  0.0531 -0.2141
  316MOL0     H43540   7.442   9.373   1.135 -2.0007 -1.2905 -1.2701
  316MOL0     H43541   7.234   9.112   0.946  0.0102 -0.4785  2.1612
  316MOL0     H43542   7.315   8.961   0.967 -0.8172  0.6686  2.0027
  316MOL0     H43543   7.383   9.164   0.742 -0.0431 -1.9901 -1.1518
  316MOL0     H43544   7.461   9.004   0.772  0.1380 -2.7786 -3.9380
  316MOL0     H43545   7.236   8.902   0.741  0.2675  2.7413  4.5202
  316MOL0     H43546   7.159   9.060   0.699 -1.8088 -2.1857 -2.2459
  316MOL0     H43547   7.315   9.096   0.519  1.6308 -0.7519  0.7389
  316MOL0     H43548   7.372   8.936   0.528 -2.4829 -2.3756 -3.5194
  316MOL0     H43549   7.069   8.994   0.482 -0.0713 -2.7975  5.3843
  316MOL0     H43550   7.155   8.834   0.491 -3.2947 -1.3656 -0.0385
  316MOL0     H43551   7.209   9.049   0.281 -0.9160 -0.7413 -2.8407
  316MOL0     H43552   7.292   8.885   0.309  1.6947  1.5561  1.3028
  316MOL0     H43553   7.000   8.943   0.238 -1.0492 -1.4258 -0.3683
  316MOL0     H43554   7.063   8.779   0.262  0.4711 -1.3227 -2.0706
  316MOL0     H43555   7.136   8.977   0.027  2.1798 -2.1458 -3.3388
  316MOL0     H43556   7.219   8.829   0.073 -1.4813 -3.7206  1.1738
  316MOL0     H43557   7.097   8.589   0.009 -0.7003 -0.2781  1.2506
  316MOL0     H43558   6.902   8.492  -0.281 -2.7091 -0.2289 -0.2409
  316MOL0     H43559   6.764   8.554  -0.192  0.4277  0.0453  0.2902
  316MOL0     H43560   6.963   8.346  -0.067  0.2183  2.0166  0.4060
  316MOL0     H43561   6.835   8.414   0.026 -1.9776  0.2475 -0.9904
  316MOL0     H43562   6.665   8.344  -0.155  0.6470  2.9906  3.4033
  316MOL0     H43563   6.806   8.246  -0.207  0.1861 -2.0575 -0.4612
  316MOL0     H43564   6.733   8.096  -0.057  1.2501  1.2686 -1.0998
  316MOL0     H43565   6.813   8.205   0.057  1.5727  2.6581 -2.0966
  316MOL0     H43566   6.351   8.144   0.116 -2.8755 -0.1160  3.1768
  316MOL0     H43567   6.230   8.000   0.418 -0.9178 -3.9619 -0.8182
  316MOL0     H43568   6.212   7.936   0.258  1.0135 -0.1830 -0.1441
  316MOL0     H43569   6.188   8.104   0.273 -0.3541 -0.1529 -1.4070
  316MOL0     H43570   6.496   7.633   0.588 -1.1213  0.7332  0.7840
  316MOL0     H43571   6.556   7.464   0.752 -0.5344  0.9090 -3.5653
  316MOL0     H43572   6.583   7.393   1.134 -0.3533  4.0457  1.0561
  316MOL0     H43573   6.517   7.418   0.969 -0.2788  3.9841 -0.7448
  316MOL0     H43574   6.670   7.216   1.007 -1.4441 -0.4795 -0.7217
  316MOL0     H43575   6.701   7.328   0.870  2.6858  1.5926  0.6532
  316MOL0     H43576   6.895   7.435   1.017  1.4447 -0.8058 -1.7117
  316MOL0     H43577   6.935   7.277   0.971 -1.3108 -0.1717 -2.6063
  316MOL0     H43578   6.892   7.174   1.163 -3.9985 -0.5168  1.6858
  316MOL0     H43579   6.772   7.287   1.221 -0.5334 -0.4397 -0.2677
  316MOL0     H43580   6.983   7.299   1.349 -2.6051  0.4250 -0.0687
  316MOL0     H43581   7.075   7.344   1.213  1.8835 -0.2800  2.5625
  316MOL0     H43582   6.833   7.501   1.286  0.4931 -1.1693  1.5735
  316MOL0     H43583   6.976   7.557   1.196 -3.9135  1.3297  0.0773
  316MOL0     H43584   7.100   7.557   1.425 -0.1059  3.4770  3.4454
  316MOL0     H43585   6.962   7.513   1.509 -2.3780  2.7097  0.3947
  316MOL0     H43586   7.016   7.748   1.333  2.4097 -2.6258  0.3085
  316MOL0     H43587   7.008   7.763   1.511  0.6428 -0.1118 -0.5123
  316MOL0     H43588   6.704   7.796   1.010  1.2835 -0.9532 -0.7648
  316MOL0     H43589   6.678   7.954   0.819  1.5410 -0.6283 -0.4476
  316MOL0     H43590   6.708   7.958   0.399 -1.9616 -2.5086  0.3820
  316MOL0     H43591   6.778   8.128   0.233  1.0363 -2.8844  3.8431
  316MOL0     H43592   7.438   8.932   1.176  4.3643  0.1369 -1.8124
  316MOL0     H43593   7.493   8.965   1.416 -0.4671 -1.2301 -2.5696
  316MOL0     H43594   7.524   9.309   1.751  0.5702 -1.6899 -0.9073
  316MOL0     H43595   7.569   9.347   1.993  0.4489  2.3242  0.2201
  316MOL0     H43596   7.682   9.457   2.170  0.2562  2.7998  0.7838
  316MOL0     H43597   7.806   9.407   2.292  0.6561 -0.8560 -1.1953
  316MOL0     H43598   7.844   9.621   2.182 -1.0666 -2.0170  5.0339
  316MOL0     H43599   7.894   9.538   2.030  1.8390 -0.8658  0.3610
  316MOL0     H43600   8.041   9.523   2.304 -0.8737  2.0248 -0.3860
  316MOL0     H43601   8.066   9.403   2.171 -1.3121 -2.1298  1.5042
  316MOL0     H43602   8.089   9.715   2.167  2.0521  0.5455  4.9324
  316MOL0     H43603   8.126   9.606   2.028 -0.2531  1.3901 -0.6328
  316MOL0     H43604   8.448   9.511   2.292 -0.2548  1.2389  0.1373
  316MOL0     H43605   7.975   9.229   1.935 -1.1371  1.7077  3.2358
  316MOL0     H43606   7.991   9.231   1.604  3.9493  0.3704  0.3303
  316MOL0     H43607   8.043   9.137   1.742  0.3406  4.1966  0.0633
  316MOL0     H43608   7.940   9.058   1.612 -1.9254  0.6037  0.2347
  317MOL0     O43609  10.708   4.428   6.497  0.0965 -0.0150 -0.2226
  317MOL0     C43610  10.798   4.363   6.549 -0.2747 -0.2802 -0.7757
  317MOL0     O43611  10.768   4.264   6.640 -0.8103 -0.9546 -0.1157
  317MOL0     C43612  10.640   4.212   6.664  0.8656  0.7399  0.4072
  317MOL0     C43613  10.542   4.201   6.559 -1.2579  0.3448 -0.8056
  317MOL0     C43614  10.414   4.150   6.583  0.5407 -0.5015 -0.0361
  317MOL0     C43615  10.385   4.107   6.714  0.4759  0.8407  0.7946
  317MOL0     O43616  10.262   4.072   6.740  0.5138  1.4307 -0.7336
  317MOL0     C43617  10.203   4.077   6.877 -0.1841  0.0958  0.3819
  317MOL0     C43618  10.054   4.052   6.880  0.9695  0.3272  0.4953
  317MOL0     C43619   9.959   4.135   6.780 -0.2617  0.0486  0.1739
  317MOL0     C43620   9.977   4.296   6.803  0.5562  0.7693 -0.6513
  317MOL0     C43621   9.863   4.372   6.753 -0.1491 -0.1899  0.3079
  317MOL0     C43622   9.841   4.511   6.804 -0.7705  0.1420  1.1105
  317MOL0     C43623   9.940   4.610   6.734 -0.2562  0.4313 -0.3944
  317MOL0     C43624   9.897   4.748   6.785 -0.9767  0.3405 -0.7357
  317MOL0     N43625   9.986   4.859   6.741  0.5714 -1.1763 -0.4083
  317MOL0     C43626  10.112   4.876   6.803  0.2344  1.0851 -0.2619
  317MOL0     C43627  10.161   4.981   6.740 -0.2356  0.2353 -0.4635
  317MOL0     C43628  10.294   5.049   6.771  0.1577  0.3824 -0.2063
  317MOL0     C43629  10.367   5.094   6.651  0.5532  0.0938  0.7707
  317MOL0     C43630  10.507   5.144   6.662 -0.2800  0.6365 -1.1599
  317MOL0     C43631  10.531   5.273   6.751 -0.7005 -0.1098 -0.7117
  317MOL0     O43632  10.679   5.295   6.750 -0.0686 -0.8857 -1.2293
  317MOL0     C43633  10.740   5.378   6.653  0.1048  0.2604  0.7239
  317MOL0     C43634  10.866   5.423   6.665  0.4443 -0.1882 -0.5273
  317MOL0     C43635  10.937   5.504   6.574  0.9627 -0.1213 -0.5010
  317MOL0     C43636  11.094   5.506   6.591  0.7890 -0.0009  0.0717
  317MOL0     C43637  10.858   5.538   6.461 -0.4343  0.7186  0.8473
  317MOL0     C43638  10.927   5.619   6.355 -0.5874  0.6265  0.1110
  317MOL0     O43639  11.020   5.715   6.388  0.4126  0.5480 -0.4931
  317MOL0     C43640  11.104   5.777   6.294 -0.0435 -0.2192 -0.3682
  317MOL0     C43641  11.237   5.783   6.327 -0.2221  0.7497 -0.1727
  317MOL0     C43642  11.334   5.828   6.236 -0.8302 -0.8578 -0.8585
  317MOL0     C43643  11.291   5.891   6.120 -0.0596  0.6047  0.0087
  317MOL0     O43644  11.387   5.935   6.044  0.1190  0.3905  0.6378
  317MOL0     C43645  11.351   5.982   5.912  0.5906  0.9457  1.3572
  317MOL0     C43646  11.477   5.994   5.834 -0.0524 -0.6303 -0.7179
  317MOL0     C43647  11.461   6.090   5.716  0.1386  0.3439 -0.2373
  317MOL0     C43648  11.359   6.048   5.610  0.6746  0.8933  0.2839
  317MOL0     C43649  11.365   6.136   5.492  0.1866 -0.2077  0.8575
  317MOL0     C43650  11.277   6.084   5.373 -0.3988 -0.1912  0.3583
  317MOL0     C43651  11.124   6.103   5.398 -0.1487  0.4504  0.3757
  317MOL0     C43652  11.066   6.031   5.279 -0.0505 -0.1698 -0.2918
  317MOL0    Cl43653  11.066   5.853   5.322 -0.3097  0.1868 -0.3273
  317MOL0     C43654  11.154   5.899   6.092 -0.0517 -0.5847  0.3416
  317MOL0     C43655  11.058   5.841   6.177  0.7667  0.0595 -0.1684
  317MOL0     O43656  10.892   5.595   6.243  0.2275  0.1195  1.1727
  317MOL0     C43657  10.722   5.496   6.443  0.0820 -0.1329  0.8733
  317MOL0     C43658  10.665   5.418   6.540 -0.1262 -0.4101 -1.2788
  317MOL0     N43659  10.060   5.023   6.653  0.2349  0.0925  0.1730
  317MOL0     N43660   9.958   4.954   6.656  0.1475 -0.2940 -0.0790
  317MOL0     C43661  10.486   4.099   6.800 -0.6588 -0.5302 -0.4608
  317MOL0     C43662  10.618   4.143   6.778 -0.5401  1.0025  0.7792
  317MOL0     C43663  10.940   4.413   6.524  0.0575 -0.5375 -0.2878
  317MOL0     C43664  11.036   4.369   6.623  0.0013 -0.5327  0.0072
  317MOL0     C43665  11.169   4.389   6.600  0.0165 -0.5333 -0.2769
  317MOL0     C43666  11.212   4.470   6.499  0.8693  0.4298 -0.0709
  317MOL0     O43667  11.345   4.474   6.462  0.1111 -0.2251 -0.3656
  317MOL0     C43668  11.405   4.603   6.450 -0.4623  0.1407 -0.7315
  317MOL0     C43669  11.522   4.603   6.554  0.8836 -0.0716 -1.0096
  317MOL0     C43670  11.562   4.748   6.593  0.1018 -0.4591 -0.0537
  317MOL0     C43671  11.674   4.743   6.691 -0.1653 -0.3180 -0.2229
  317MOL0     C43672  11.799   4.709   6.635  0.0955 -0.2612  0.6532
  317MOL0     C43673  11.902   4.660   6.583 -0.2232 -0.3750  0.6018
  317MOL0     C43674  11.114   4.519   6.410  0.2347  0.7119  0.8858
  317MOL0     C43675  10.979   4.493   6.416  0.4909 -1.2171 -0.3088
  317MOL0     C43676  10.891   4.549   6.304  0.4391 -0.1303 -0.3783
  317MOL0     H43677  10.563   4.236   6.458  0.1657 -4.2344 -2.3341
  317MOL0     H43678  10.346   4.142   6.499  1.4627 -0.1120 -0.8291
  317MOL0     H43679  10.231   4.168   6.930  1.5391 -0.3676  0.3010
  317MOL0     H43680  10.241   3.993   6.935  1.2019  1.1894  1.1009
  317MOL0     H43681  10.041   3.945   6.860 -2.6845  0.3455  2.0158
  317MOL0     H43682  10.004   4.073   6.975 -4.0190 -1.6549 -1.3185
  317MOL0     H43683   9.988   4.108   6.678  0.5463  2.2136 -0.2160
  317MOL0     H43684   9.856   4.097   6.778  0.1399 -1.1116 -1.7600
  317MOL0     H43685   9.976   4.317   6.911  1.2573 -2.4449  0.0780
  317MOL0     H43686  10.072   4.336   6.768  1.8895 -1.5290  0.1124
  317MOL0     H43687   9.772   4.311   6.766  1.0557 -2.2686 -0.4514
  317MOL0     H43688   9.869   4.371   6.644 -0.3719 -2.8759  0.2488
  317MOL0     H43689   9.739   4.543   6.784 -1.1342  0.2952  3.0527
  317MOL0     H43690   9.846   4.503   6.913  0.8160 -1.4452  0.9656
  317MOL0     H43691   9.932   4.614   6.625 -1.6048  1.0681 -0.2866
  317MOL0     H43692  10.041   4.579   6.761 -0.2205  0.3785 -0.5908
  317MOL0     H43693   9.792   4.763   6.756 -0.8915  1.3211 -0.5680
  317MOL0     H43694   9.894   4.748   6.895  2.0722  0.4913 -0.5696
  317MOL0     H43695  10.154   4.816   6.883 -0.6908 -2.6931 -2.3747
  317MOL0     H43696  10.366   4.983   6.819 -0.0783 -0.6559 -1.2249
  317MOL0     H43697  10.275   5.128   6.844  1.3623 -0.7506  1.4108
  317MOL0     H43698  10.370   5.011   6.579 -0.5761  1.2257 -0.6585
  317MOL0     H43699  10.303   5.163   6.594 -0.2139 -0.2953  1.1427
  317MOL0     H43700  10.572   5.061   6.693  1.0900  1.2543 -2.2705
  317MOL0     H43701  10.537   5.167   6.559 -0.2958 -0.8978 -1.5425
  317MOL0     H43702  10.471   5.356   6.714 -1.0802 -0.8944 -1.9160
  317MOL0     H43703  10.499   5.247   6.852 -1.8853  2.8631 -0.2115
  317MOL0     H43704  10.918   5.383   6.751 -0.2162  1.5269  0.7403
  317MOL0     H43705  11.129   5.439   6.670  1.1828  2.1667  1.8362
  317MOL0     H43706  11.117   5.603   6.637  0.4275  1.7075 -3.0943
  317MOL0     H43707  11.152   5.508   6.499 -1.0167  3.1394 -1.1730
  317MOL0     H43708  11.277   5.740   6.418  2.9505  4.1768  0.3125
  317MOL0     H43709  11.442   5.830   6.250 -0.7810  2.7852 -0.9441
  317MOL0     H43710  11.279   5.917   5.861  2.4688 -1.9264  2.1183
  317MOL0     H43711  11.306   6.081   5.921  0.0216  0.8139  0.2045
  317MOL0     H43712  11.560   6.026   5.898  0.6546 -1.3213 -1.2709
  317MOL0     H43713  11.509   5.894   5.805  1.4295 -0.6012  0.6442
  317MOL0     H43714  11.558   6.090   5.664  1.0820 -1.8859  1.3728
  317MOL0     H43715  11.432   6.188   5.754 -1.7580 -0.4032  0.3502
  317MOL0     H43716  11.258   6.068   5.647  1.5912  1.3231  2.7180
  317MOL0     H43717  11.354   5.945   5.573  3.5523  2.2512 -4.8039
  317MOL0     H43718  11.330   6.237   5.517 -6.1448 -1.5073 -0.7171
  317MOL0     H43719  11.471   6.141   5.467 -0.1126  4.0191 -0.5439
  317MOL0     H43720  11.298   5.980   5.349 -0.0163 -0.1658  0.5683
  317MOL0     H43721  11.316   6.137   5.285  1.7027 -0.0070  1.3309
  317MOL0     H43722  11.095   6.208   5.410 -2.8435  0.6675 -4.8355
  317MOL0     H43723  11.093   6.041   5.482 -2.0649 -2.3439 -2.1423
  317MOL0     H43724  11.113   6.052   5.183 -0.5601  0.4349 -0.4187
  317MOL0     H43725  10.963   6.062   5.256 -0.8450 -2.1682  0.4023
  317MOL0     H43726  11.116   5.943   6.000  1.9831  1.4932  0.4141
  317MOL0     H43727  10.952   5.845   6.153  1.4926  3.8689 -4.0476
  317MOL0     H43728  10.667   5.530   6.356  0.7742 -0.7778  0.1590
  317MOL0     H43729  10.564   5.387   6.515  0.0637 -1.1469 -1.1485
  317MOL0     H43730  10.463   4.072   6.903  0.3690 -0.7643 -0.2778
  317MOL0     H43731  10.701   4.149   6.847 -0.1773 -0.2534  0.4839
  317MOL0     H43732  11.005   4.308   6.706 -3.5250 -0.8817 -1.3920
  317MOL0     H43733  11.241   4.338   6.661 -0.6118 -0.4863  0.5158
  317MOL0     H43734  11.444   4.609   6.348  4.0558 -3.1400  0.4786
  317MOL0     H43735  11.343   4.689   6.479  0.1423 -0.0316  1.2253
  317MOL0     H43736  11.598   4.537   6.511 -0.2910 -1.5709 -0.8672
  317MOL0     H43737  11.494   4.550   6.646  3.1379  0.8120  0.2721
  317MOL0     H43738  11.586   4.796   6.498 -1.4098  2.7608  1.0662
  317MOL0     H43739  11.485   4.810   6.639  0.1675  0.1745 -0.7811
  317MOL0     H43740  11.663   4.677   6.777 -0.0632  0.1468  0.1518
  317MOL0     H43741  11.670   4.840   6.742 -1.3397 -0.4320 -0.0490
  317MOL0     H43742  11.990   4.626   6.533 -0.2723  3.1024 -2.2336
  317MOL0     H43743  11.154   4.577   6.328 -0.5712  1.3615  0.9435
  317MOL0     H43744  10.815   4.619   6.339 -0.4788 -0.5125 -1.5381
  317MOL0     H43745  10.946   4.599   6.224  1.3880 -3.5386 -2.0735
  317MOL0     H43746  10.845   4.464   6.252  3.0767 -0.3062 -2.6379
  318MOL0     O43747   0.807   5.320   6.547  0.0788 -0.0770 -0.1307
  318MOL0     C43748   0.926   5.298   6.573 -0.2449 -0.2706  0.7692
  318MOL0     O43749   0.992   5.179   6.552 -0.7359 -0.1861 -0.7468
  318MOL0     C43750   0.907   5.074   6.520 -0.2996  1.2941  0.9688
  318MOL0     C43751   0.956   4.969   6.433  0.2381  0.3172 -0.7341
  318MOL0     C43752   0.874   4.856   6.409  0.3316 -0.5854  1.1126
  318MOL0     C43753   0.743   4.854   6.449  0.3368  0.2495  0.5835
  318MOL0     O43754   0.656   4.749   6.400  0.1756  0.3307 -0.4823
  318MOL0     C43755   0.698   4.662   6.290 -0.0172  0.2708  0.5792
  318MOL0     C43756   0.589   4.560   6.244  0.5537 -0.6337 -0.3622
  318MOL0     C43757   0.473   4.631   6.165 -0.0766  0.7070  0.2374
  318MOL0     C43758   0.368   4.535   6.111  0.1686  0.7369  0.4916
  318MOL0     C43759   0.370   4.533   5.957  0.5116  1.0181  0.8267
  318MOL0     C43760   0.276   4.437   5.890  0.7720 -0.1354  0.3568
  318MOL0     C43761   0.338   4.293   5.870  0.9179  0.3862 -0.4175
  318MOL0     C43762   0.229   4.194   5.822  0.6298 -0.6100  0.9116
  318MOL0     N43763   0.290   4.062   5.818  0.5572  0.3421  0.5077
  318MOL0     C43764   0.332   3.987   5.924 -0.6932  0.0095  0.3341
  318MOL0     C43765   0.370   3.868   5.874 -0.2065  0.1597  0.0826
  318MOL0     C43766   0.399   3.742   5.959 -0.9429 -0.2442  0.4906
  318MOL0     C43767   0.275   3.651   5.988 -0.4728 -0.2069  0.9814
  318MOL0     C43768   0.174   3.716   6.076 -0.3834  0.1987  0.5924
  318MOL0     C43769   0.221   3.759   6.217 -0.4650 -0.0130 -0.2359
  318MOL0     O43770   0.105   3.793   6.304 -0.4836 -0.0410 -0.1120
  318MOL0     C43771   0.005   3.697   6.329  0.3515  0.2090  0.6355
  318MOL0     C43772   0.013   3.560   6.323 -1.0914 -0.4061  0.2368
  318MOL0     C43773  -0.092   3.473   6.348 -0.9889  0.1168 -0.3549
  318MOL0     C43774  -0.057   3.328   6.339  1.3290  1.0768 -0.3338
  318MOL0     C43775  -0.212   3.521   6.387 -0.7255  0.0224 -0.3071
  318MOL0     C43776  -0.330   3.433   6.413  0.4039 -0.7145 -0.0995
  318MOL0     O43777  -0.429   3.483   6.492 -0.5153  0.8101 -0.3972
  318MOL0     C43778  -0.548   3.415   6.479  0.1343 -0.2849 -0.2907
  318MOL0     C43779  -0.615   3.380   6.596 -0.1228  0.1307  0.0156
  318MOL0     C43780  -0.746   3.331   6.599  0.0049 -0.2903  0.7986
  318MOL0     C43781  -0.818   3.327   6.480  0.3429 -0.6743 -0.3416
  318MOL0     O43782  -0.954   3.291   6.470  0.4699  0.5831 -0.1275
  318MOL0     C43783  -1.004   3.231   6.588  0.5762  0.0580 -0.5085
  318MOL0     C43784  -1.150   3.185   6.569 -0.4437  0.7065  0.5667
  318MOL0     C43785  -1.242   3.302   6.566  0.5298 -0.3053  0.0683
  318MOL0     C43786  -1.363   3.291   6.468  0.3341 -0.2150  0.4784
  318MOL0     C43787  -1.453   3.414   6.483  0.1283  0.1733  0.2099
  318MOL0     C43788  -1.585   3.404   6.391 -1.4050 -0.5913 -0.3829
  318MOL0     C43789  -1.678   3.300   6.446  0.0117  0.2539 -0.1292
  318MOL0     C43790  -1.754   3.221   6.341  0.4647  0.5221 -0.8480
  318MOL0    Cl43791  -1.894   3.319   6.279  0.3712 -0.2577  0.1030
  318MOL0     C43792  -0.756   3.358   6.362  0.1567 -0.1253  0.1759
  318MOL0     C43793  -0.619   3.418   6.358  0.3467 -0.2355 -1.2211
  318MOL0     O43794  -0.332   3.315   6.379  0.3339  0.4285 -0.0869
  318MOL0     C43795  -0.223   3.665   6.405 -0.1955 -0.0762  0.2457
  318MOL0     C43796  -0.116   3.748   6.366  0.6905 -0.1235 -0.5648
  318MOL0     N43797   0.364   3.880   5.734  0.3921  1.3057  0.3253
  318MOL0     N43798   0.318   4.001   5.698 -1.2346  0.3042 -0.8517
  318MOL0     C43799   0.701   4.932   6.556 -0.7206 -0.0418 -0.2505
  318MOL0     C43800   0.788   5.046   6.583 -0.3618 -0.0079 -0.2005
  318MOL0     C43801   1.011   5.416   6.610 -0.7231 -0.2686  0.4541
  318MOL0     C43802   1.152   5.384   6.620 -0.8927 -0.2526 -0.6803
  318MOL0     C43803   1.236   5.487   6.656  0.9209  0.0542 -0.4865
  318MOL0     C43804   1.190   5.620   6.673 -0.0803  0.2294  0.4790
  318MOL0     O43805   1.278   5.725   6.696  1.0708 -0.2098 -0.3811
  318MOL0     C43806   1.419   5.706   6.711 -0.3917 -0.2749  0.5774
  318MOL0     C43807   1.490   5.829   6.709 -0.7412 -0.9489  0.5648
  318MOL0     C43808   1.444   5.908   6.590 -0.0082  0.0856  0.6173
  318MOL0     C43809   1.522   6.040   6.589  0.7343  1.1402  0.2153
  318MOL0     C43810   1.486   6.121   6.472  0.0042 -0.0445 -0.0452
  318MOL0     C43811   1.459   6.186   6.374  0.3729 -1.1043 -0.6220
  318MOL0     C43812   1.049   5.645   6.661 -0.1248 -0.2103  0.4468
  318MOL0     C43813   0.959   5.549   6.629 -0.1569  0.6385 -0.8541
  318MOL0     C43814   0.819   5.590   6.618  0.8165 -0.0464 -0.5694
  318MOL0     H43815   1.051   4.981   6.383  0.1211  0.1250 -1.0017
  318MOL0     H43816   0.915   4.786   6.336 -1.8307 -0.7951  0.0254
  318MOL0     H43817   0.785   4.606   6.324  0.8041  1.7830  1.0720
  318MOL0     H43818   0.737   4.721   6.206  0.2273  1.2993  1.3900
  318MOL0     H43819   0.630   4.474   6.190  1.9338 -0.0159 -0.3391
  318MOL0     H43820   0.547   4.506   6.329  1.5643 -1.7493 -0.5450
  318MOL0     H43821   0.428   4.705   6.232 -2.7653  1.2373 -1.9818
  318MOL0     H43822   0.516   4.679   6.077  2.5477 -2.1489 -0.1864
  318MOL0     H43823   0.389   4.432   6.142  0.9591  0.6266 -0.3657
  318MOL0     H43824   0.266   4.561   6.140 -0.2151 -0.6867  0.4675
  318MOL0     H43825   0.469   4.498   5.926  0.9164  0.4040  2.6860
  318MOL0     H43826   0.364   4.631   5.909  1.3446  0.2844 -0.8924
  318MOL0     H43827   0.192   4.431   5.960 -1.2171 -0.0226 -1.9124
  318MOL0     H43828   0.232   4.475   5.797 -2.9372 -1.8790  1.2023
  318MOL0     H43829   0.383   4.252   5.961  0.3625 -1.1702 -0.8081
  318MOL0     H43830   0.411   4.305   5.789  1.9243  1.0381  0.5572
  318MOL0     H43831   0.147   4.186   5.894 -1.3545 -3.2391 -1.4334
  318MOL0     H43832   0.194   4.228   5.724  0.4842  1.1122  1.5104
  318MOL0     H43833   0.325   4.006   6.031  1.5668  0.6277  0.4298
  318MOL0     H43834   0.435   3.784   6.053  0.6150 -0.4745  0.0310
  318MOL0     H43835   0.487   3.684   5.931  0.8326  2.1819  0.7867
  318MOL0     H43836   0.221   3.638   5.894  1.2449  0.1256 -0.1004
  318MOL0     H43837   0.307   3.555   6.031 -0.4669 -1.1160 -0.9684
  318MOL0     H43838   0.149   3.805   6.018  2.2231 -1.2705 -3.1954
  318MOL0     H43839   0.088   3.649   6.080 -1.6667  1.8038  0.7807
  318MOL0     H43840   0.279   3.681   6.266 -2.3268 -1.2791  0.0515
  318MOL0     H43841   0.295   3.839   6.212  2.7867 -2.8511 -1.0359
  318MOL0     H43842   0.109   3.514   6.300 -0.8477  1.4355 -2.9483
  318MOL0     H43843   0.049   3.303   6.334  0.6661 -1.9200 -2.2280
  318MOL0     H43844  -0.101   3.271   6.256  3.1102 -1.8265  0.5720
  318MOL0     H43845  -0.089   3.276   6.429  0.0377 -2.1423 -2.4510
  318MOL0     H43846  -0.566   3.394   6.691  1.0758  2.2290 -0.8492
  318MOL0     H43847  -0.774   3.313   6.702 -2.1326  2.2434  0.7532
  318MOL0     H43848  -0.949   3.139   6.610  0.6461 -0.0587 -1.1448
  318MOL0     H43849  -0.999   3.301   6.671  2.0193  3.1343 -3.0061
  318MOL0     H43850  -1.147   3.133   6.473  0.6113  1.0855  0.3818
  318MOL0     H43851  -1.177   3.113   6.647 -0.8860 -1.5762 -1.5252
  318MOL0     H43852  -1.177   3.388   6.543 -1.3340  1.5978  1.5310
  318MOL0     H43853  -1.283   3.307   6.667  0.6191  2.3284  0.0435
  318MOL0     H43854  -1.419   3.198   6.483 -0.8902  0.3145 -0.6656
  318MOL0     H43855  -1.320   3.275   6.369  0.5196 -4.9226  1.0782
  318MOL0     H43856  -1.490   3.417   6.586 -0.0997  3.0703  0.1050
  318MOL0     H43857  -1.405   3.510   6.465 -2.5915  1.2487 -2.1043
  318MOL0     H43858  -1.561   3.391   6.285 -2.8807 -0.7747 -0.7108
  318MOL0     H43859  -1.638   3.499   6.396  0.7314  0.7126 -1.3630
  318MOL0     H43860  -1.760   3.336   6.508 -1.8598 -0.9537 -1.7852
  318MOL0     H43861  -1.627   3.225   6.507 -0.0855  0.6200  0.4087
  318MOL0     H43862  -1.797   3.127   6.378 -2.6201  2.5862  1.1908
  318MOL0     H43863  -1.685   3.195   6.260  3.7820 -0.5686  2.0677
  318MOL0     H43864  -0.811   3.346   6.269  1.2406 -0.6090 -0.4252
  318MOL0     H43865  -0.568   3.465   6.275  1.8281  0.8247  0.2377
  318MOL0     H43866  -0.308   3.714   6.450  1.4424  1.5895  1.6979
  318MOL0     H43867  -0.121   3.856   6.375  2.5311  0.0323 -0.9496
  318MOL0     H43868   0.619   4.916   6.624  0.7756  0.7665  1.8427
  318MOL0     H43869   0.764   5.110   6.667  1.3984  1.4920 -0.7715
  318MOL0     H43870   1.198   5.286   6.620 -1.7064 -0.6601  0.8436
  318MOL0     H43871   1.333   5.457   6.695 -0.1515 -2.0466  0.7444
  318MOL0     H43872   1.452   5.652   6.800 -0.8439  0.6838  1.3423
  318MOL0     H43873   1.454   5.639   6.632 -0.5632 -1.4578  1.4913
  318MOL0     H43874   1.599   5.829   6.721 -0.8229  0.3783  1.5637
  318MOL0     H43875   1.459   5.882   6.799  0.0331 -3.4793  2.4330
  318MOL0     H43876   1.456   5.867   6.489 -2.5524  2.3699 -0.7281
  318MOL0     H43877   1.336   5.924   6.598  0.0619 -0.0975  2.2083
  318MOL0     H43878   1.627   6.011   6.601  0.0607 -1.3404  0.4782
  318MOL0     H43879   1.491   6.096   6.678 -0.5520 -1.8090  1.7480
  318MOL0     H43880   1.433   6.264   6.305 -2.7631 -2.3512 -0.9823
  318MOL0     H43881   1.010   5.743   6.685  2.3085  0.3213  2.7381
  318MOL0     H43882   0.752   5.524   6.674 -0.9360 -0.5048 -3.0027
  318MOL0     H43883   0.801   5.681   6.675 -1.1417 -2.2835  2.6625
  318MOL0     H43884   0.784   5.584   6.514  0.4476  0.7101 -0.4964
  319MOL0     O43885   5.462  10.818   9.255  0.1174  0.0612 -0.2798
  319MOL0     C43886   5.556  10.882   9.230  0.2543 -0.8375 -0.2678
  319MOL0     O43887   5.574  10.938   9.109 -0.2889 -0.3944  0.8978
  319MOL0     C43888   5.464  10.942   9.018 -1.0683 -0.2054 -0.6322
  319MOL0     C43889   5.371  11.033   9.027  1.3501 -0.2950  0.1282
  319MOL0     C43890   5.254  11.043   8.951  0.0267 -0.3516  0.0952
  319MOL0     C43891   5.238  10.943   8.847 -0.3495 -0.1733 -0.4873
  319MOL0     O43892   5.127  10.951   8.772 -0.1092 -0.1979 -0.2132
  319MOL0     C43893   5.129  11.063   8.688 -0.5069 -0.2263  0.5256
  319MOL0     C43894   5.007  11.050   8.597  0.4483  0.1017  0.0462
  319MOL0     C43895   4.880  11.019   8.674 -0.5055  0.1189  0.2283
  319MOL0     C43896   4.757  10.991   8.590 -0.0828  0.0060 -0.6935
  319MOL0     C43897   4.641  10.942   8.676  0.2872 -0.2803 -0.4502
  319MOL0     C43898   4.649  10.808   8.744  0.1940 -0.0862 -0.1818
  319MOL0     C43899   4.511  10.773   8.823 -0.0143  0.2668 -0.5553
  319MOL0     C43900   4.527  10.662   8.915 -0.2622  1.2102  0.1994
  319MOL0     N43901   4.401  10.652   8.990 -0.5744 -0.5982  0.0353
  319MOL0     C43902   4.395  10.706   9.123 -0.1356  0.0012  0.3740
  319MOL0     C43903   4.267  10.667   9.161 -0.1571  1.1232 -0.0111
  319MOL0     C43904   4.199  10.678   9.306 -0.6007  0.4233  0.7100
  319MOL0     C43905   4.238  10.563   9.401  0.6377 -0.3210  0.0795
  319MOL0     C43906   4.193  10.426   9.346 -0.7385  0.3899  0.5726
  319MOL0     C43907   4.214  10.317   9.445  0.6038  0.4283 -0.8476
  319MOL0     O43908   4.142  10.200   9.393  0.1672 -0.0728 -1.0497
  319MOL0     C43909   4.193  10.086   9.445 -0.4746 -0.2088  0.2848
  319MOL0     C43910   4.125  10.022   9.539 -0.3542 -1.0245  0.1443
  319MOL0     C43911   4.175   9.906   9.600 -0.2311  0.5250  0.5544
  319MOL0     C43912   4.094   9.834   9.696 -0.2918  0.3899 -0.3848
  319MOL0     C43913   4.300   9.852   9.551 -0.1958  0.3079  0.9261
  319MOL0     C43914   4.366   9.726   9.597 -0.3034  0.2122 -0.2271
  319MOL0     O43915   4.491   9.699   9.555  0.2858  0.2062 -0.3265
  319MOL0     C43916   4.548   9.589   9.612 -0.0339 -0.0615  0.7957
  319MOL0     C43917   4.606   9.591   9.737  0.5335  0.7755 -0.0028
  319MOL0     C43918   4.667   9.484   9.783  0.1218  0.2433  0.4878
  319MOL0     C43919   4.686   9.364   9.717  0.4011 -0.1909 -0.4534
  319MOL0     O43920   4.730   9.259   9.789  0.3589 -0.1306  0.2275
  319MOL0     C43921   4.760   9.134   9.729 -0.1578 -0.4427  0.5629
  319MOL0     C43922   4.642   9.032   9.751  0.1182 -0.1831  0.5204
  319MOL0     C43923   4.652   8.935   9.634 -0.3402  0.2065 -0.3150
  319MOL0     C43924   4.553   8.820   9.640 -0.8062  0.0572 -0.0938
  319MOL0     C43925   4.563   8.719   9.528 -0.1064  0.7765  0.0594
  319MOL0     C43926   4.491   8.587   9.535 -0.2186 -0.8688 -0.6124
  319MOL0     C43927   4.514   8.512   9.397  0.0947  0.5585 -1.0601
  319MOL0     C43928   4.420   8.387   9.403  0.1577  1.1882 -0.3041
  319MOL0    Cl43929   4.474   8.280   9.267 -0.4586  0.0538  0.0121
  319MOL0     C43930   4.628   9.360   9.581 -0.4220 -1.2893 -0.2977
  319MOL0     C43931   4.552   9.468   9.533  0.2363 -0.8214  0.8180
  319MOL0     O43932   4.297   9.656   9.674 -0.0841  0.1387 -0.7183
  319MOL0     C43933   4.373   9.928   9.457 -0.0305  0.4237 -0.0063
  319MOL0     C43934   4.310  10.040   9.392  0.3301  0.3793 -0.7290
  319MOL0     N43935   4.213  10.590   9.053 -0.2972 -0.1244  0.3635
  319MOL0     N43936   4.286  10.601   8.941 -0.2329  0.6824 -0.4248
  319MOL0     C43937   5.323  10.834   8.849 -0.0691 -0.3874  0.0405
  319MOL0     C43938   5.430  10.833   8.935 -0.2905 -0.4533  0.1334
  319MOL0     C43939   5.661  10.896   9.335 -0.5630 -0.1806  0.2419
  319MOL0     C43940   5.768  10.975   9.304 -0.1154  1.0401 -0.0531
  319MOL0     C43941   5.880  10.994   9.389 -0.3507  1.1030  0.7064
  319MOL0     C43942   5.876  10.948   9.522  0.1066  0.2434  0.5716
  319MOL0     O43943   5.970  10.962   9.613 -0.4055 -0.5252 -0.7850
  319MOL0     C43944   6.061  11.075   9.607  0.0375 -1.5226 -0.8165
  319MOL0     C43945   6.096  11.117   9.752  0.3306 -0.5295  0.6462
  319MOL0     C43946   6.204  11.215   9.751 -0.0648 -0.1733  0.3435
  319MOL0     C43947   6.340  11.149   9.765 -0.0923  0.1988 -0.0198
  319MOL0     C43948   6.447  11.229   9.814  0.5205  0.0974 -0.0738
  319MOL0     C43949   6.523  11.307   9.870  1.4276  0.7033 -0.3591
  319MOL0     C43950   5.774  10.865   9.548  0.3733  0.1276 -0.2248
  319MOL0     C43951   5.663  10.839   9.465 -0.0572  0.5167 -0.0501
  319MOL0     C43952   5.563  10.743   9.525 -0.6003 -0.5638 -0.2371
  319MOL0     H43953   5.379  11.111   9.103 -2.5282 -1.2247  1.7180
  319MOL0     H43954   5.183  11.125   8.954  1.2374  0.7070  1.0566
  319MOL0     H43955   5.224  11.062   8.633 -0.5824  5.0271 -0.2904
  319MOL0     H43956   5.131  11.152   8.752  2.4005 -1.2579  2.0316
  319MOL0     H43957   4.994  11.147   8.549  3.3125  0.9214  0.7064
  319MOL0     H43958   5.020  10.970   8.524 -0.6484 -0.6142  0.6012
  319MOL0     H43959   4.894  10.926   8.730  0.4310 -0.0900 -0.3438
  319MOL0     H43960   4.859  11.107   8.737  2.7007  1.5627 -0.5367
  319MOL0     H43961   4.735  11.087   8.541  0.0143  1.9757  2.7908
  319MOL0     H43962   4.780  10.912   8.517 -0.1965 -1.1274  0.4718
  319MOL0     H43963   4.559  10.949   8.605  1.3008  3.7864 -1.4819
  319MOL0     H43964   4.612  11.019   8.749  0.8488 -0.1970 -0.3090
  319MOL0     H43965   4.671  10.726   8.675  0.9940 -1.7879  2.0166
  319MOL0     H43966   4.725  10.808   8.822 -1.3019 -0.9447  1.3234
  319MOL0     H43967   4.431  10.740   8.756 -2.6698 -1.8643  3.2755
  319MOL0     H43968   4.491  10.864   8.881  1.7302  2.1754 -2.7148
  319MOL0     H43969   4.541  10.566   8.864 -1.8049  1.1283 -0.1267
  319MOL0     H43970   4.617  10.676   8.975 -0.3090 -1.0454  0.8970
  319MOL0     H43971   4.469  10.752   9.188 -0.7064  0.9996  0.3320
  319MOL0     H43972   4.091  10.687   9.293 -0.1884  2.1351 -2.5760
  319MOL0     H43973   4.229  10.766   9.364 -0.1382  0.4639  0.4204
  319MOL0     H43974   4.348  10.565   9.404  0.6853 -0.3857 -0.9882
  319MOL0     H43975   4.196  10.573   9.501 -0.0458 -1.2399 -0.1014
  319MOL0     H43976   4.085  10.435   9.330 -0.9574  2.3997  2.7796
  319MOL0     H43977   4.242  10.403   9.251 -1.4512 -0.7143  0.4476
  319MOL0     H43978   4.320  10.291   9.460 -0.1579 -1.7451  1.6238
  319MOL0     H43979   4.167  10.337   9.541 -0.7933  1.7968 -1.7766
  319MOL0     H43980   4.027  10.053   9.574 -0.4496 -0.4302 -0.6104
  319MOL0     H43981   4.138   9.806   9.792 -0.6877  0.5036 -0.1655
  319MOL0     H43982   4.062   9.740   9.650 -1.6957  0.2893  0.7331
  319MOL0     H43983   4.010   9.900   9.721  0.1579  1.2746 -1.1292
  319MOL0     H43984   4.615   9.689   9.783  3.0498  1.9133 -2.6277
  319MOL0     H43985   4.715   9.484   9.881 -1.9221 -0.6840  1.5614
  319MOL0     H43986   4.784   9.150   9.623 -1.3986 -3.1603 -0.2271
  319MOL0     H43987   4.854   9.099   9.773  0.6374  1.0272  0.0934
  319MOL0     H43988   4.653   8.985   9.849  2.4344  1.5904  1.2108
  319MOL0     H43989   4.544   9.080   9.752  0.8965  1.6879 -2.0803
  319MOL0     H43990   4.749   8.884   9.640 -0.1582  0.5535 -0.2134
  319MOL0     H43991   4.650   8.978   9.533 -1.2719  0.8168 -0.0502
  319MOL0     H43992   4.452   8.860   9.650  0.0270  2.2471  0.1480
  319MOL0     H43993   4.566   8.775   9.739 -1.8573  0.4360  0.2284
  319MOL0     H43994   4.520   8.759   9.435  0.0843  2.8099  0.7858
  319MOL0     H43995   4.668   8.693   9.513 -0.4703 -0.1192 -1.0820
  319MOL0     H43996   4.384   8.606   9.547  0.0703  0.8542 -0.5550
  319MOL0     H43997   4.522   8.530   9.623 -1.3245  1.3157  1.2769
  319MOL0     H43998   4.616   8.475   9.388 -0.1973 -0.5593 -0.0502
  319MOL0     H43999   4.481   8.577   9.315 -0.1410  1.8793  0.0353
  319MOL0     H44000   4.318   8.426   9.400  0.4447  2.0406  0.5066
  319MOL0     H44001   4.421   8.338   9.501 -0.8911 -1.7339 -1.6459
  319MOL0     H44002   4.635   9.272   9.518  0.1893 -1.5458  0.1102
  319MOL0     H44003   4.519   9.469   9.429 -1.0380 -1.5813  1.1900
  319MOL0     H44004   4.465   9.901   9.406 -0.2625 -2.2824  0.8691
  319MOL0     H44005   4.363  10.097   9.315  2.2911  0.1766  0.4005
  319MOL0     H44006   5.303  10.750   8.784 -0.9555 -0.0498 -0.1409
  319MOL0     H44007   5.498  10.748   8.940  1.3645  0.9087  2.5199
  319MOL0     H44008   5.781  11.021   9.206  2.0048 -1.4534 -1.0455
  319MOL0     H44009   5.961  11.055   9.350 -1.0645  0.5878 -1.7686
  319MOL0     H44010   6.150  11.031   9.560  1.4991 -0.4544  0.8018
  319MOL0     H44011   6.016  11.163   9.561  0.5746  0.0951  1.6095
  319MOL0     H44012   6.137  11.038   9.816  0.6983 -0.0437  1.0201
  319MOL0     H44013   6.008  11.171   9.788 -0.6102 -1.8809  0.4598
  319MOL0     H44014   6.204  11.286   9.668  3.0911 -0.7270 -0.2796
  319MOL0     H44015   6.192  11.275   9.841 -1.7212  0.8205 -0.4932
  319MOL0     H44016   6.368  11.103   9.669  2.4931 -1.8414  1.5520
  319MOL0     H44017   6.323  11.064   9.832 -1.4366 -2.8237 -3.8243
  319MOL0     H44018   6.583  11.376   9.926  0.7490  0.7195  0.3717
  319MOL0     H44019   5.780  10.806   9.639 -0.8689 -1.3989 -1.0881
  319MOL0     H44020   5.543  10.661   9.455  1.2760  1.0951 -2.8935
  319MOL0     H44021   5.599  10.701   9.619  0.0365 -1.1571 -0.7351
  319MOL0     H44022   5.469  10.797   9.544 -1.2749 -2.5051  2.6555
  320MOL0     O44023   6.494   0.642   0.838  0.4941  0.1709  0.0660
  320MOL0     C44024   6.445   0.636   0.725  1.0894  0.2233 -0.3020
  320MOL0     O44025   6.460   0.532   0.637 -0.3742  0.7991 -0.8459
  320MOL0     C44026   6.531   0.418   0.692 -0.3944 -1.0163  0.0390
  320MOL0     C44027   6.666   0.401   0.667  0.1878  0.2438 -0.2240
  320MOL0     C44028   6.747   0.317   0.749 -0.3878 -0.3737 -0.1509
  320MOL0     C44029   6.691   0.238   0.851 -0.1250  0.9730  0.1964
  320MOL0     O44030   6.765   0.155   0.925  0.5070  0.8255  0.5743
  320MOL0     C44031   6.905   0.183   0.941 -0.3359  0.1868  0.1411
  320MOL0     C44032   6.943   0.094   1.059 -0.1495 -0.1666  0.2126
  320MOL0     C44033   7.097   0.084   1.091  0.0934 -0.1443 -0.6266
  320MOL0     C44034   7.122  -0.008   1.208  0.2635 -0.5390 -0.4524
  320MOL0     C44035   7.246   0.039   1.281 -0.8262  0.0129  0.8747
  320MOL0     C44036   7.281  -0.063   1.381  0.5868  0.0336 -0.6070
  320MOL0     C44037   7.332  -0.200   1.331  0.0924  0.2700  0.6587
  320MOL0     C44038   7.460  -0.178   1.246  0.2312  0.0626 -0.8579
  320MOL0     N44039   7.586  -0.199   1.324  0.0126  0.0525  0.3214
  320MOL0     C44040   7.709  -0.147   1.302  1.0189  1.1391 -0.0238
  320MOL0     C44041   7.787  -0.223   1.382  0.0834  0.0547  0.3403
  320MOL0     C44042   7.939  -0.216   1.400  0.5463 -0.0173  0.1903
  320MOL0     C44043   7.975  -0.157   1.538 -0.3755  0.5755  0.0985
  320MOL0     C44044   8.100  -0.066   1.535  0.3791  0.2889  0.5153
  320MOL0     C44045   8.232  -0.133   1.481  1.1039 -0.4421 -0.2001
  320MOL0     O44046   8.316  -0.029   1.426  0.6526 -0.2363  0.1850
  320MOL0     C44047   8.378   0.057   1.512 -0.4045 -0.9558 -0.0974
  320MOL0     C44048   8.340   0.186   1.497 -0.4729 -0.1784 -0.3143
  320MOL0     C44049   8.406   0.294   1.560  0.4828 -0.5588 -0.1282
  320MOL0     C44050   8.365   0.437   1.530  0.0020 -0.0630  0.2783
  320MOL0     C44051   8.511   0.255   1.649 -0.2323  0.7725  0.0177
  320MOL0     C44052   8.591   0.350   1.728 -1.6256  0.7140 -0.2991
  320MOL0     O44053   8.649   0.299   1.845 -0.1348  0.2582 -0.1810
  320MOL0     C44054   8.686   0.398   1.924 -0.1111 -0.1260  0.4303
  320MOL0     C44055   8.820   0.435   1.910 -0.6548 -0.5523 -0.2965
  320MOL0     C44056   8.870   0.535   1.996 -0.1482 -0.3389  0.9099
  320MOL0     C44057   8.792   0.597   2.091  0.8605  0.2253 -0.3809
  320MOL0     O44058   8.852   0.687   2.177 -0.2600 -0.6011  0.4469
  320MOL0     C44059   8.768   0.764   2.254 -0.5110  0.0882  0.1431
  320MOL0     C44060   8.862   0.872   2.313 -0.1215  0.6974 -0.6113
  320MOL0     C44061   8.788   0.966   2.407  0.1934 -0.1326 -0.2541
  320MOL0     C44062   8.884   1.075   2.465  0.0932 -0.5931 -0.4258
  320MOL0     C44063   8.808   1.193   2.525  0.5850  0.1643 -0.3713
  320MOL0     C44064   8.900   1.308   2.570 -1.2329  0.1874 -0.0054
  320MOL0     C44065   8.825   1.423   2.644 -0.0025 -0.3184  0.5479
  320MOL0     C44066   8.922   1.516   2.698 -0.1728 -0.7610 -0.4010
  320MOL0    Cl44067   8.944   1.636   2.558 -0.4142 -0.1805  0.2027
  320MOL0     C44068   8.655   0.551   2.108  0.7970  0.1765 -0.2779
  320MOL0     C44069   8.598   0.457   2.021 -0.7421 -0.0135  0.1857
  320MOL0     O44070   8.620   0.455   1.677  0.2648 -0.4495  0.3221
  320MOL0     C44071   8.553   0.121   1.657  0.1067 -0.8239  0.2189
  320MOL0     C44072   8.480   0.023   1.596  0.4571  0.7120 -0.6034
  320MOL0     N44073   7.718  -0.316   1.448  0.4633  0.2604 -0.6574
  320MOL0     N44074   7.594  -0.289   1.424 -0.0386  0.3381  0.4602
  320MOL0     C44075   6.552   0.234   0.857 -0.2468  0.1273  0.5251
  320MOL0     C44076   6.470   0.325   0.778 -0.2291  0.3725 -0.1133
  320MOL0     C44077   6.373   0.743   0.658  0.0082 -1.3465  0.2692
  320MOL0     C44078   6.308   0.715   0.534 -0.3028  0.0317  0.9600
  320MOL0     C44079   6.250   0.823   0.459  0.5683 -0.2138  0.3862
  320MOL0     C44080   6.240   0.948   0.521  0.0485 -0.5747 -0.2512
  320MOL0     O44081   6.178   1.045   0.457 -0.0291  0.1253  0.6808
  320MOL0     C44082   6.266   1.127   0.377  0.3958  0.2933  0.0578
  320MOL0     C44083   6.298   1.070   0.238 -0.0847  0.5619 -0.6660
  320MOL0     C44084   6.389   1.166   0.150  0.2802 -0.2613 -0.4536
  320MOL0     C44085   6.431   1.113   0.016 -0.1610  0.7909  0.6168
  320MOL0     C44086   6.331   1.088  -0.083 -0.8050  0.1076  0.3046
  320MOL0     C44087   6.255   1.079  -0.171 -0.4333 -0.6182  0.2051
  320MOL0     C44088   6.291   0.969   0.650  0.5252 -0.6315 -0.8235
  320MOL0     C44089   6.364   0.873   0.718  0.4868 -0.3161 -0.3642
  320MOL0     C44090   6.427   0.911   0.855  0.0334 -0.6451 -0.6051
  320MOL0     H44091   6.708   0.453   0.581  2.7349 -1.8554 -0.3768
  320MOL0     H44092   6.853   0.322   0.727 -0.1034  2.6121  1.3207
  320MOL0     H44093   6.910   0.287   0.975  0.3952  0.0427  0.5141
  320MOL0     H44094   6.963   0.167   0.850  0.5065 -0.0377  0.7023
  320MOL0     H44095   6.901   0.147   1.145  0.5906  0.8689 -0.0446
  320MOL0     H44096   6.904  -0.008   1.050  0.6994 -0.4166 -0.8976
  320MOL0     H44097   7.151   0.043   1.004  0.6101 -0.5663 -0.1126
  320MOL0     H44098   7.142   0.183   1.104 -0.5702  0.1972 -0.8926
  320MOL0     H44099   7.034   0.006   1.272 -0.4580 -3.1893 -0.7369
  320MOL0     H44100   7.121  -0.114   1.183 -2.4733 -0.3073 -1.7292
  320MOL0     H44101   7.237   0.137   1.330 -0.4636  0.7739 -0.5453
  320MOL0     H44102   7.313   0.054   1.196 -2.8184  1.3666 -0.5347
  320MOL0     H44103   7.360  -0.026   1.447 -0.6091 -1.0437  1.5243
  320MOL0     H44104   7.198  -0.084   1.448  1.3474  0.4861  0.5157
  320MOL0     H44105   7.262  -0.239   1.258  0.7054  4.5351 -2.6197
  320MOL0     H44106   7.352  -0.264   1.418 -0.5977  1.4579  1.7327
  320MOL0     H44107   7.450  -0.255   1.169 -0.7388  0.7554 -1.4467
  320MOL0     H44108   7.476  -0.077   1.206  0.4832  1.2902  2.0723
  320MOL0     H44109   7.735  -0.067   1.234  1.8261  2.3239  1.6080
  320MOL0     H44110   7.979  -0.155   1.318 -1.5410 -0.2650 -1.0898
  320MOL0     H44111   7.985  -0.315   1.398  0.1387 -0.2117 -2.0286
  320MOL0     H44112   7.903  -0.084   1.575  2.3429  4.8056 -2.1443
  320MOL0     H44113   7.999  -0.235   1.611  1.0792  0.0880 -0.8593
  320MOL0     H44114   8.083   0.026   1.479 -1.8414 -1.0542 -1.1651
  320MOL0     H44115   8.117  -0.045   1.641 -1.6910  0.4994  0.8408
  320MOL0     H44116   8.280  -0.185   1.564  0.7889  0.1972  0.3967
  320MOL0     H44117   8.216  -0.205   1.400 -1.6040  0.3920 -0.5313
  320MOL0     H44118   8.255   0.202   1.432  1.3564  1.4246 -2.4514
  320MOL0     H44119   8.359   0.479   1.631 -3.5644 -0.5917  0.3990
  320MOL0     H44120   8.265   0.450   1.489 -0.8118  2.7865  2.8193
  320MOL0     H44121   8.439   0.497   1.476 -0.0304 -0.1201  0.1717
  320MOL0     H44122   8.882   0.390   1.833 -0.7904  0.9610 -1.3292
  320MOL0     H44123   8.971   0.574   1.997  0.1293 -1.0407  1.4829
  320MOL0     H44124   8.708   0.827   2.189 -0.2345 -1.0304 -1.2567
  320MOL0     H44125   8.715   0.713   2.335  2.0477 -2.5730  0.3466
  320MOL0     H44126   8.944   0.820   2.362  0.6996  0.1440 -2.4957
  320MOL0     H44127   8.908   0.926   2.230  1.5379 -3.0961 -2.3752
  320MOL0     H44128   8.758   0.916   2.500  0.6119  0.9624  0.5085
  320MOL0     H44129   8.708   1.004   2.344  0.7296  0.8427 -0.3700
  320MOL0     H44130   8.935   1.124   2.381  2.7928  0.7758  1.8164
  320MOL0     H44131   8.964   1.036   2.528  1.8501  2.9839 -0.2080
  320MOL0     H44132   8.735   1.235   2.455  2.5325  1.7847 -1.5498
  320MOL0     H44133   8.751   1.158   2.611 -1.3271 -0.0974 -1.6738
  320MOL0     H44134   8.951   1.345   2.480  1.5238 -3.1922 -0.0686
  320MOL0     H44135   8.981   1.266   2.630 -0.8774  0.8341 -0.0238
  320MOL0     H44136   8.761   1.388   2.725 -2.3223  1.4215 -0.3916
  320MOL0     H44137   8.753   1.481   2.585  2.1918  1.8538 -0.1661
  320MOL0     H44138   9.020   1.476   2.723  0.4359  0.4136 -0.8252
  320MOL0     H44139   8.881   1.566   2.786  0.6440 -1.7484  0.5583
  320MOL0     H44140   8.588   0.601   2.177  1.0117  0.4272 -0.2495
  320MOL0     H44141   8.497   0.417   2.026 -0.6013 -0.4853 -0.5659
  320MOL0     H44142   8.633   0.080   1.718  0.4590  2.0465  1.8973
  320MOL0     H44143   8.513  -0.080   1.606 -1.6379  0.1480  1.5533
  320MOL0     H44144   6.500   0.182   0.937  0.4178  0.6338  1.3069
  320MOL0     H44145   6.362   0.329   0.791 -0.6393 -0.5219 -2.6645
  320MOL0     H44146   6.313   0.618   0.486  2.0600  1.2073 -1.4192
  320MOL0     H44147   6.205   0.793   0.365 -1.2053 -1.6787  1.6229
  320MOL0     H44148   6.219   1.226   0.376 -2.2456 -0.7901  2.8229
  320MOL0     H44149   6.364   1.137   0.424  1.2761 -1.5570 -1.2346
  320MOL0     H44150   6.201   1.049   0.193 -0.1171 -1.2974  0.1902
  320MOL0     H44151   6.352   0.976   0.254  2.5272  2.3464  2.2501
  320MOL0     H44152   6.352   1.268   0.145 -1.6814 -0.8481  0.9311
  320MOL0     H44153   6.479   1.177   0.210 -1.3676  3.4276  1.6727
  320MOL0     H44154   6.469   1.011   0.030 -3.4105 -1.1718 -2.8970
  320MOL0     H44155   6.510   1.180  -0.018 -2.1844  1.6070 -2.9591
  320MOL0     H44156   6.188   1.072  -0.255 -3.7531 -1.5087  2.7072
  320MOL0     H44157   6.274   1.069   0.687 -1.4857 -1.2929  0.1619
  320MOL0     H44158   6.533   0.885   0.858  0.0297 -1.3412 -3.3326
  320MOL0     H44159   6.410   1.016   0.878 -1.0800 -0.9107 -0.1367
  320MOL0     H44160   6.374   0.852   0.931 -3.3038  0.9286 -1.5306
  321MOL0     O44161   0.451   7.763   8.695  0.5247  0.5687 -0.3994
  321MOL0     C44162   0.558   7.823   8.710  1.1675 -0.1929  0.0888
  321MOL0     O44163   0.680   7.783   8.670  0.1586  0.5186 -0.1161
  321MOL0     C44164   0.692   7.707   8.555  0.6882  0.2458 -0.2037
  321MOL0     C44165   0.825   7.702   8.514 -0.4255  0.9165 -0.8239
  321MOL0     C44166   0.854   7.628   8.400 -0.4210 -0.1567 -0.5250
  321MOL0     C44167   0.756   7.554   8.333 -0.4097 -0.0315  0.6468
  321MOL0     O44168   0.784   7.486   8.213 -0.3073  0.9861 -0.3603
  321MOL0     C44169   0.725   7.355   8.193 -0.0992 -0.3191 -1.0143
  321MOL0     C44170   0.825   7.248   8.240 -0.3980 -0.4311  0.3883
  321MOL0     C44171   0.858   7.244   8.393 -0.4572  0.1702  0.0264
  321MOL0     C44172   0.971   7.146   8.426 -0.3086 -0.0577  0.6741
  321MOL0     C44173   1.021   7.133   8.570 -0.4320 -0.5142  0.4857
  321MOL0     C44174   0.928   7.071   8.675 -0.7683  0.1843 -0.6349
  321MOL0     C44175   1.007   7.050   8.812  0.5476  0.7185 -0.0161
  321MOL0     C44176   0.925   7.012   8.935  0.7706  0.6299  0.9007
  321MOL0     N44177   0.847   6.891   8.925 -0.1907  0.7378 -0.4586
  321MOL0     C44178   0.894   6.760   8.918  0.4178  0.4740  0.4292
  321MOL0     C44179   0.783   6.692   8.919 -0.0706 -0.0805 -0.6820
  321MOL0     C44180   0.777   6.548   8.910  1.0097 -0.7471 -0.2728
  321MOL0     C44181   0.761   6.481   9.052  0.2394  0.1968 -0.1806
  321MOL0     C44182   0.747   6.330   9.047 -0.2171 -0.8323  1.1886
  321MOL0     C44183   0.879   6.247   9.008  0.1223 -0.7408  0.1582
  321MOL0     O44184   0.979   6.273   9.094 -0.2761  0.4767 -0.5921
  321MOL0     C44185   1.101   6.205   9.084 -0.6823  0.2564  0.1002
  321MOL0     C44186   1.195   6.233   9.174 -0.0922  0.3245  0.1979
  321MOL0     C44187   1.322   6.169   9.188  0.1432 -0.9626 -0.0113
  321MOL0     C44188   1.411   6.232   9.291 -0.7402 -0.1660 -0.9275
  321MOL0     C44189   1.357   6.063   9.092 -0.9311  0.0768  0.1396
  321MOL0     C44190   1.485   5.994   9.096 -0.2918  0.2025 -0.2129
  321MOL0     O44191   1.501   5.903   8.997 -0.2057  0.0861 -0.3333
  321MOL0     C44192   1.600   5.807   9.016 -0.0818 -0.0212  0.2162
  321MOL0     C44193   1.592   5.712   9.117 -0.7308 -0.3134 -0.5406
  321MOL0     C44194   1.694   5.619   9.151 -0.1533  0.4430  0.2160
  321MOL0     C44195   1.807   5.604   9.061  0.5809 -0.0494 -0.6563
  321MOL0     O44196   1.912   5.522   9.079  0.1036 -0.3544 -0.3529
  321MOL0     C44197   1.892   5.411   9.172  0.0860 -0.0443 -0.8928
  321MOL0     C44198   2.024   5.316   9.157 -0.2023 -0.2381 -0.3377
  321MOL0     C44199   2.145   5.350   9.239  0.3358 -0.4390  0.1737
  321MOL0     C44200   2.190   5.500   9.204 -0.4587 -0.2690  0.7532
  321MOL0     C44201   2.330   5.531   9.264 -0.2372 -0.6794 -0.6795
  321MOL0     C44202   2.342   5.472   9.407  0.2752 -0.6946  0.3136
  321MOL0     C44203   2.427   5.567   9.491  0.5451  0.4625  0.4455
  321MOL0     C44204   2.448   5.529   9.634 -0.8711 -0.3478 -0.4977
  321MOL0    Cl44205   2.290   5.547   9.725 -0.2760  0.5100  0.0487
  321MOL0     C44206   1.810   5.694   8.955 -0.2670 -0.4100 -0.4390
  321MOL0     C44207   1.705   5.781   8.934 -0.9003 -0.4874  0.4096
  321MOL0     O44208   1.575   6.037   9.168 -0.2003 -0.0596 -0.7141
  321MOL0     C44209   1.245   6.026   9.007 -1.3368 -1.6274 -0.4218
  321MOL0     C44210   1.123   6.096   9.007  1.1699  0.1682 -0.4084
  321MOL0     N44211   0.671   6.771   8.939 -0.5289  0.0276 -0.0253
  321MOL0     N44212   0.709   6.893   8.939 -0.1989 -0.0893 -0.0035
  321MOL0     C44213   0.624   7.575   8.363 -0.2863 -0.3000 -0.1877
  321MOL0     C44214   0.583   7.645   8.477 -0.1072 -0.0919  0.6596
  321MOL0     C44215   0.553   7.932   8.805  0.4754 -0.1462 -1.2333
  321MOL0     C44216   0.439   7.949   8.891 -0.0720 -0.9393  0.1788
  321MOL0     C44217   0.421   8.069   8.968 -0.2112  1.4049  0.1974
  321MOL0     C44218   0.521   8.149   8.999  0.4291  0.8636 -1.1161
  321MOL0     O44219   0.496   8.240   9.097 -0.5101 -1.0734 -0.4392
  321MOL0     C44220   0.608   8.307   9.163  0.0162 -1.2647  0.9816
  321MOL0     C44221   0.686   8.210   9.240  0.4823  0.9276  0.5140
  321MOL0     C44222   0.590   8.143   9.343  0.0960 -0.1829  0.0601
  321MOL0     C44223   0.661   8.030   9.429  0.2351 -0.7520 -0.1995
  321MOL0     C44224   0.784   8.057   9.513 -0.0309  1.2461  0.0383
  321MOL0     C44225   0.898   8.069   9.559  1.0022 -0.4666 -0.5359
  321MOL0     C44226   0.640   8.119   8.934  0.2508  0.0789  1.0276
  321MOL0     C44227   0.662   8.019   8.836  0.4431 -0.1385  0.6090
  321MOL0     C44228   0.799   8.014   8.768  0.4185 -0.1597  0.3261
  321MOL0     H44229   0.909   7.755   8.559 -0.2750 -0.1511  0.1670
  321MOL0     H44230   0.957   7.612   8.370 -0.4707  0.2922 -0.9535
  321MOL0     H44231   0.695   7.327   8.091  0.6282 -0.6421 -1.1549
  321MOL0     H44232   0.640   7.342   8.260  1.7003  3.3481  2.4156
  321MOL0     H44233   0.780   7.154   8.207 -1.3847  0.6941 -1.6809
  321MOL0     H44234   0.912   7.269   8.177  0.6450  4.6240  3.0083
  321MOL0     H44235   0.901   7.342   8.415  2.2470 -1.0954  0.7494
  321MOL0     H44236   0.763   7.235   8.447 -2.0954 -0.4548 -2.7630
  321MOL0     H44237   0.941   7.044   8.401 -0.2976 -0.1107  0.8743
  321MOL0     H44238   1.053   7.167   8.357 -0.6285 -1.0491 -0.0227
  321MOL0     H44239   1.065   7.225   8.610  1.6463 -1.7678  1.3029
  321MOL0     H44240   1.115   7.076   8.573  0.8796  1.3256 -1.6560
  321MOL0     H44241   0.846   7.142   8.688 -2.6979 -1.9668 -0.3319
  321MOL0     H44242   0.880   6.976   8.651 -0.4005 -0.9744  2.6819
  321MOL0     H44243   1.063   7.143   8.829  2.5434 -0.3174 -0.6130
  321MOL0     H44244   1.079   6.970   8.794 -2.3579 -1.9094 -0.7791
  321MOL0     H44245   1.011   6.994   9.001  0.2350  1.8499  1.9864
  321MOL0     H44246   0.864   7.092   8.978  1.6655  0.3506  2.8209
  321MOL0     H44247   0.997   6.726   8.905  0.7706  2.0481 -1.2956
  321MOL0     H44248   0.869   6.514   8.862  3.1757  1.0406  2.3808
  321MOL0     H44249   0.693   6.517   8.846  0.6240 -1.4720  0.5550
  321MOL0     H44250   0.839   6.508   9.124  0.0622  1.3080 -0.3790
  321MOL0     H44251   0.665   6.512   9.095 -0.2053 -2.2407  0.7671
  321MOL0     H44252   0.704   6.299   9.143 -2.1022 -0.7138  0.4232
  321MOL0     H44253   0.672   6.291   8.979  1.3243 -0.3083 -0.9069
  321MOL0     H44254   0.848   6.142   9.001  0.8459 -1.0479  1.3531
  321MOL0     H44255   0.915   6.286   8.912 -0.5259  0.0098  0.2076
  321MOL0     H44256   1.172   6.323   9.231  1.7966  1.8835 -1.3765
  321MOL0     H44257   1.432   6.171   9.379 -0.3209 -2.0009 -2.2363
  321MOL0     H44258   1.369   6.320   9.340  0.0129 -1.2147  1.7327
  321MOL0     H44259   1.509   6.267   9.255 -2.3477  1.5498 -4.1079
  321MOL0     H44260   1.509   5.716   9.186 -0.3472 -1.3667  0.0122
  321MOL0     H44261   1.684   5.559   9.241 -1.4558 -0.6674 -0.6417
  321MOL0     H44262   1.887   5.444   9.276  0.7918 -0.4563 -0.7131
  321MOL0     H44263   1.807   5.350   9.140  0.9075 -1.4603 -0.5061
  321MOL0     H44264   1.985   5.219   9.189 -0.6034 -1.2942 -3.6044
  321MOL0     H44265   2.041   5.284   9.053  0.7184  0.8625 -0.5470
  321MOL0     H44266   2.223   5.274   9.225 -1.0727 -2.6109  3.0399
  321MOL0     H44267   2.126   5.335   9.346  2.2195 -1.6890  0.3920
  321MOL0     H44268   2.126   5.580   9.243  2.8718  2.3298  1.3606
  321MOL0     H44269   2.208   5.515   9.097  2.0817 -1.0167  1.0020
  321MOL0     H44270   2.413   5.491   9.205  0.4800  0.7233 -0.6678
  321MOL0     H44271   2.350   5.638   9.262 -0.4847 -0.6206 -3.1277
  321MOL0     H44272   2.385   5.372   9.395  0.3928 -0.7727  1.2755
  321MOL0     H44273   2.242   5.472   9.451 -0.8660  0.0846 -2.1100
  321MOL0     H44274   2.378   5.665   9.495 -2.3731 -0.9355  2.3234
  321MOL0     H44275   2.521   5.581   9.437  1.2675 -0.7870  1.3147
  321MOL0     H44276   2.512   5.601   9.685  1.4687 -0.9050 -2.4965
  321MOL0     H44277   2.486   5.427   9.638  0.7903  0.0723 -3.3605
  321MOL0     H44278   1.886   5.681   8.878  1.3512 -0.8807  1.1671
  321MOL0     H44279   1.706   5.850   8.850  2.7869  1.5585  1.8519
  321MOL0     H44280   1.258   5.933   8.952  0.9054 -1.2301 -0.6874
  321MOL0     H44281   1.044   6.056   8.945  0.0772 -0.8947  1.5782
  321MOL0     H44282   0.549   7.549   8.288 -0.6674  2.7613 -1.0085
  321MOL0     H44283   0.478   7.663   8.493 -0.1712 -1.4081  1.9493
  321MOL0     H44284   0.346   7.899   8.866 -1.6769  1.8976  0.0462
  321MOL0     H44285   0.333   8.076   9.032  0.4279  2.0200  1.0221
  321MOL0     H44286   0.674   8.350   9.088 -2.9251 -1.6487 -2.0858
  321MOL0     H44287   0.571   8.387   9.228  1.0555  0.9947 -1.0662
  321MOL0     H44288   0.760   8.257   9.305  1.1775 -0.7027  0.9620
  321MOL0     H44289   0.737   8.137   9.176 -3.6347 -0.7814 -1.1780
  321MOL0     H44290   0.555   8.208   9.424  1.8112  0.7736  0.0756
  321MOL0     H44291   0.508   8.103   9.283 -0.3167 -1.5505  1.4528
  321MOL0     H44292   0.689   7.953   9.356  0.0808 -0.5662 -0.4542
  321MOL0     H44293   0.580   8.003   9.496  0.4463  1.4888  1.0471
  321MOL0     H44294   0.994   8.089   9.601  0.8325 -0.3138 -0.2113
  321MOL0     H44295   0.730   8.174   8.957  1.1001 -0.4088 -0.8889
  321MOL0     H44296   0.853   8.105   8.793 -2.6533  0.6615  5.4715
  321MOL0     H44297   0.868   7.932   8.790  3.4081  1.7227 -1.2933
  321MOL0     H44298   0.795   8.008   8.658  1.3650 -0.1787  0.2857
  322MOL0     O44299   2.936   5.398   0.392  0.4432 -0.4545 -0.6056
  322MOL0     C44300   2.892   5.326   0.299 -0.4383  0.0516 -0.5003
  322MOL0     O44301   2.832   5.369   0.184 -0.0487  0.6774 -0.2567
  322MOL0     C44302   2.813   5.494   0.150  0.3005  0.2812  0.1158
  322MOL0     C44303   2.792   5.523   0.015  0.3601 -0.2848 -0.2921
  322MOL0     C44304   2.766   5.657  -0.024  0.4472  1.0579  0.3759
  322MOL0     C44305   2.748   5.755   0.070  0.1526  0.5939  0.0192
  322MOL0     O44306   2.695   5.870   0.029  0.3273  0.1876  0.4586
  322MOL0     C44307   2.725   5.991   0.100 -0.0685  0.2195  0.0373
  322MOL0     C44308   2.867   6.029   0.071 -1.0349 -0.4704  1.1909
  322MOL0     C44309   2.902   6.181   0.053  0.3230 -0.0006 -0.4975
  322MOL0     C44310   2.936   6.221  -0.094 -0.0825  0.2742 -0.2459
  322MOL0     C44311   2.808   6.223  -0.196  0.1144  0.1597 -0.8363
  322MOL0     C44312   2.851   6.233  -0.340  1.0696  0.6989  0.1929
  322MOL0     C44313   2.733   6.223  -0.438 -0.1044 -1.3775  0.5802
  322MOL0     C44314   2.700   6.077  -0.481 -0.9232 -0.5175  0.3595
  322MOL0     N44315   2.632   5.974  -0.399  0.7170 -0.1160 -0.0719
  322MOL0     C44316   2.521   5.985  -0.318 -0.6738 -0.1189 -0.4103
  322MOL0     C44317   2.504   5.848  -0.280 -1.2302 -0.6497 -0.7077
  322MOL0     C44318   2.402   5.803  -0.184  0.5226  0.1776  0.3427
  322MOL0     C44319   2.299   5.716  -0.253 -0.3186 -0.7808  0.8789
  322MOL0     C44320   2.196   5.665  -0.152  0.2713 -0.1359 -0.2979
  322MOL0     C44321   2.100   5.766  -0.085  0.1421  0.2872 -0.3649
  322MOL0     O44322   2.057   5.857  -0.189  0.7864  0.1578 -0.9591
  322MOL0     C44323   1.928   5.906  -0.187 -0.2953 -0.0407  0.4144
  322MOL0     C44324   1.834   5.893  -0.088 -0.1330  0.2349  0.3566
  322MOL0     C44325   1.705   5.945  -0.104  0.6677 -0.3294 -0.2895
  322MOL0     C44326   1.601   5.943   0.003 -0.4420 -1.0045 -0.5711
  322MOL0     C44327   1.662   5.978  -0.233 -0.3145  0.1417  0.9227
  322MOL0     C44328   1.523   6.021  -0.261 -1.0556  0.5967  1.2570
  322MOL0     O44329   1.465   6.137  -0.222 -0.2769  0.4700  0.5611
  322MOL0     C44330   1.536   6.251  -0.188  0.0179  0.4808 -0.6854
  322MOL0     C44331   1.658   6.298  -0.245  0.3027 -0.0725 -0.1045
  322MOL0     C44332   1.720   6.407  -0.183 -0.3787 -0.0814  0.0961
  322MOL0     C44333   1.674   6.477  -0.074  0.5368 -0.1837  0.6431
  322MOL0     O44334   1.747   6.579  -0.021 -0.3408 -0.6881  0.2533
  322MOL0     C44335   1.683   6.660   0.076 -0.4782 -0.1593 -0.7853
  322MOL0     C44336   1.767   6.780   0.112 -0.1173  0.4804  0.2262
  322MOL0     C44337   1.768   6.872  -0.005  0.2092 -0.0993  0.0059
  322MOL0     C44338   1.847   7.004   0.026 -0.3405  1.0202  0.2218
  322MOL0     C44339   1.811   7.125  -0.062  0.3295  0.1648 -0.8832
  322MOL0     C44340   1.882   7.249  -0.019 -0.0405  0.1611  0.1474
  322MOL0     C44341   1.846   7.376  -0.107  0.2317  0.4466 -1.2991
  322MOL0     C44342   1.926   7.502  -0.061 -0.5794  0.2786  0.6927
  322MOL0    Cl44343   1.861   7.649  -0.143 -0.0171 -0.0933 -0.2210
  322MOL0     C44344   1.554   6.422  -0.013 -0.3921 -0.5737 -0.3476
  322MOL0     C44345   1.486   6.314  -0.070  0.4208 -1.0227 -0.0132
  322MOL0     O44346   1.463   5.939  -0.331  0.0678 -0.4013  0.2467
  322MOL0     C44347   1.757   5.990  -0.335 -0.8263 -0.2556 -0.1903
  322MOL0     C44348   1.894   5.955  -0.311 -0.1426  0.3370 -0.8094
  322MOL0     N44349   2.602   5.766  -0.332  0.1180  0.0262  0.9498
  322MOL0     N44350   2.675   5.839  -0.406  0.3467  0.0305 -0.4351
  322MOL0     C44351   2.749   5.725   0.207 -0.3580  0.1984  0.5812
  322MOL0     C44352   2.791   5.593   0.247  1.0405 -0.3545  0.8757
  322MOL0     C44353   2.910   5.181   0.313 -0.5759 -0.0668  1.1860
  322MOL0     C44354   3.039   5.134   0.336  0.1448  0.1395 -0.2121
  322MOL0     C44355   3.072   5.002   0.350 -0.1210 -0.0868 -0.1847
  322MOL0     C44356   2.963   4.910   0.355  0.7268 -0.6494 -0.3390
  322MOL0     O44357   3.001   4.776   0.375 -0.2956  0.0095  0.4618
  322MOL0     C44358   2.895   4.680   0.381  0.1368  0.0408  0.1170
  322MOL0     C44359   2.922   4.558   0.463  0.3659  1.1039  0.3654
  322MOL0     C44360   3.055   4.494   0.425 -1.0797  0.0054 -0.0582
  322MOL0     C44361   3.071   4.454   0.279 -0.0346  1.2178 -0.5888
  322MOL0     C44362   2.980   4.347   0.246 -1.0569 -0.0280  0.2505
  322MOL0     C44363   2.933   4.246   0.213  1.5329  0.7290 -0.0752
  322MOL0     C44364   2.829   4.958   0.328  0.1054  0.0523  0.1025
  322MOL0     C44365   2.808   5.087   0.305 -0.0243  0.2893 -0.1145
  322MOL0     C44366   2.667   5.121   0.270 -0.3462 -0.4591  0.1896
  322MOL0     H44367   2.806   5.438  -0.050 -1.6188 -1.3624  0.6153
  322MOL0     H44368   2.740   5.684  -0.126  0.3731  1.1912  0.4293
  322MOL0     H44369   2.697   5.989   0.205 -3.6680  0.8514 -0.7784
  322MOL0     H44370   2.663   6.068   0.052 -2.5806  0.1023  2.8449
  322MOL0     H44371   2.944   5.990   0.139  2.3661 -1.1294 -2.6661
  322MOL0     H44372   2.904   5.993  -0.025 -1.5035 -0.7642  1.1208
  322MOL0     H44373   2.805   6.228   0.070 -0.9314 -2.0158 -1.5966
  322MOL0     H44374   2.990   6.217   0.106 -0.0058  1.5836 -0.9915
  322MOL0     H44375   2.989   6.317  -0.097 -0.1335  0.3323  0.4792
  322MOL0     H44376   3.004   6.143  -0.129 -0.9470 -1.9526  2.6355
  322MOL0     H44377   2.740   6.302  -0.163 -2.2070 -1.7643 -0.7308
  322MOL0     H44378   2.739   6.140  -0.180 -1.1498  1.2172 -0.6541
  322MOL0     H44379   2.906   6.320  -0.376 -0.1468  1.2431 -0.3851
  322MOL0     H44380   2.911   6.143  -0.358 -0.2542  0.1366 -1.6945
  322MOL0     H44381   2.765   6.286  -0.521  1.7893  1.8159  3.4916
  322MOL0     H44382   2.653   6.279  -0.390 -0.6730 -1.6956  0.0168
  322MOL0     H44383   2.629   6.091  -0.564  0.2098  1.5511 -0.3200
  322MOL0     H44384   2.792   6.036  -0.522 -0.9202 -1.2830  1.1196
  322MOL0     H44385   2.471   6.072  -0.274  0.9635  0.5292  0.2530
  322MOL0     H44386   2.353   5.894  -0.149 -0.4373  0.8346 -2.4222
  322MOL0     H44387   2.452   5.754  -0.100  1.3522  1.5075  0.6541
  322MOL0     H44388   2.256   5.778  -0.332  3.7140  0.1242 -0.8360
  322MOL0     H44389   2.347   5.623  -0.284 -1.9423 -1.6868  0.9763
  322MOL0     H44390   2.127   5.607  -0.214  0.6819 -0.8657 -0.0845
  322MOL0     H44391   2.244   5.601  -0.077  1.4335  2.4996  1.3333
  322MOL0     H44392   2.023   5.702  -0.043  1.8900 -2.6537 -1.3305
  322MOL0     H44393   2.146   5.828  -0.008  0.3109  1.3551 -1.2927
  322MOL0     H44394   1.839   5.840   0.007  0.4046 -1.5054 -0.5931
  322MOL0     H44395   1.519   5.885  -0.040 -0.3402  0.6470 -3.1538
  322MOL0     H44396   1.565   6.040   0.038  1.4428  0.5162 -2.6207
  322MOL0     H44397   1.624   5.887   0.094 -1.1935 -1.4679 -0.6600
  322MOL0     H44398   1.699   6.265  -0.340 -0.7666 -2.5644  0.2207
  322MOL0     H44399   1.814   6.453  -0.212 -1.0689  1.5013  0.2507
  322MOL0     H44400   1.589   6.700   0.038  0.3342 -0.1950 -2.9689
  322MOL0     H44401   1.657   6.612   0.171 -4.1530  1.4947 -0.8098
  322MOL0     H44402   1.730   6.823   0.206 -1.0034 -1.2862  0.7351
  322MOL0     H44403   1.872   6.755   0.133  0.3321  2.7545  0.9422
  322MOL0     H44404   1.665   6.900  -0.027  0.9066  0.6556 -2.8104
  322MOL0     H44405   1.807   6.831  -0.099  0.6063  0.7998 -0.2297
  322MOL0     H44406   1.953   6.977   0.024 -0.6754 -0.4002 -2.5220
  322MOL0     H44407   1.818   7.026   0.129  1.0065  1.7783  0.4723
  322MOL0     H44408   1.842   7.091  -0.161 -4.1045 -2.8525 -1.5473
  322MOL0     H44409   1.702   7.130  -0.070  0.2735  0.6006  0.0094
  322MOL0     H44410   1.986   7.229  -0.046 -0.7172 -0.9019 -1.8455
  322MOL0     H44411   1.875   7.275   0.087  0.7822 -0.5733  0.3987
  322MOL0     H44412   1.740   7.398  -0.098 -0.2837 -1.9692 -0.7116
  322MOL0     H44413   1.855   7.353  -0.214 -3.6396  1.4537 -1.9922
  322MOL0     H44414   2.033   7.490  -0.081 -0.9125  0.7176 -1.6228
  322MOL0     H44415   1.920   7.514   0.048  0.5302 -4.4085  1.4647
  322MOL0     H44416   1.504   6.452   0.078  1.1692  0.7996  0.1142
  322MOL0     H44417   1.399   6.273  -0.021 -0.4336 -0.9690 -1.4237
  322MOL0     H44418   1.731   6.017  -0.437  0.4896 -2.7338 -1.2534
  322MOL0     H44419   1.971   5.987  -0.381  1.3567  0.7676  0.9657
  322MOL0     H44420   2.709   5.790   0.284  0.6360 -2.1832  3.3100
  322MOL0     H44421   2.792   5.576   0.354 -2.0985 -0.9195  0.9183
  322MOL0     H44422   3.120   5.207   0.336  0.5319 -0.2704  0.8747
  322MOL0     H44423   3.170   4.958   0.362 -1.5191 -3.3813  0.2476
  322MOL0     H44424   2.806   4.726   0.426  1.0576  3.5983 -1.3363
  322MOL0     H44425   2.868   4.637   0.284 -4.8023  1.9182  0.3511
  322MOL0     H44426   2.834   4.494   0.455 -0.5580  2.4594 -0.9073
  322MOL0     H44427   2.935   4.595   0.565 -4.5307  1.5390  1.0768
  322MOL0     H44428   3.130   4.573   0.431 -0.0830 -0.6840 -2.3567
  322MOL0     H44429   3.071   4.409   0.491 -0.7214 -0.3888 -0.6449
  322MOL0     H44430   3.171   4.414   0.262 -0.6634 -0.5465 -0.3912
  322MOL0     H44431   3.059   4.534   0.206 -1.2758 -0.3119 -2.1480
  322MOL0     H44432   2.878   4.157   0.190  2.4155  0.2637 -0.4211
  322MOL0     H44433   2.749   4.886   0.316  0.1134 -0.1683  1.2255
  322MOL0     H44434   2.598   5.038   0.291  0.9271 -1.3915  0.8535
  322MOL0     H44435   2.631   5.202   0.334  0.3081 -0.5061  0.6337
  322MOL0     H44436   2.665   5.155   0.166  1.0640  1.2851  0.6871
  323MOL0     O44437   9.720   9.511   5.366  0.0014 -0.0679  0.4148
  323MOL0     C44438   9.708   9.454   5.255  0.0122  0.2283 -0.3265
  323MOL0     O44439   9.593   9.432   5.181  0.0768 -0.1325 -0.3012
  323MOL0     C44440   9.493   9.493   5.248  0.5703  0.0721  0.1990
  323MOL0     C44441   9.381   9.412   5.277  0.3044  0.8180 -0.7883
  323MOL0     C44442   9.272   9.457   5.341  0.2176 -0.2123 -0.0927
  323MOL0     C44443   9.247   9.589   5.369  0.2411 -0.0588  0.4687
  323MOL0     O44444   9.145   9.637   5.437  0.2260 -0.0865 -0.5345
  323MOL0     C44445   9.018   9.608   5.402 -0.6384  0.6011  0.9284
  323MOL0     C44446   8.931   9.733   5.397 -0.3873  0.6733  1.0049
  323MOL0     C44447   9.004   9.822   5.304 -0.4674 -0.0235 -0.0487
  323MOL0     C44448   8.938   9.966   5.301 -0.5314  0.7719  0.1383
  323MOL0     C44449   9.010  10.073   5.227  0.1354  0.4982 -0.1186
  323MOL0     C44450   9.150  10.124   5.284  0.0022 -0.7751 -0.0726
  323MOL0     C44451   9.240  10.167   5.169 -0.4465  0.2969  0.8752
  323MOL0     C44452   9.361  10.227   5.216 -0.8713  0.1891 -0.3690
  323MOL0     N44453   9.442  10.295   5.118 -0.8569  0.5842  0.0597
  323MOL0     C44454   9.583  10.301   5.113  0.1879  0.1045  0.1928
  323MOL0     C44455   9.607  10.395   5.017 -0.0040 -0.4836  0.6267
  323MOL0     C44456   9.745  10.423   4.962 -0.3632  0.1201  0.6987
  323MOL0     C44457   9.774  10.318   4.851 -0.4440 -0.6931  0.3906
  323MOL0     C44458   9.921  10.314   4.803 -0.4811  0.2136 -0.5464
  323MOL0     C44459   9.948  10.273   4.657 -0.2723  0.5488  0.4342
  323MOL0     O44460   9.923  10.136   4.620 -0.0682 -0.5268  0.4722
  323MOL0     C44461   9.965  10.094   4.498 -1.0584  0.1109  0.4709
  323MOL0     C44462   9.975   9.955   4.488  0.0138  0.2594 -0.0279
  323MOL0     C44463  10.020   9.885   4.369  0.0289  0.9288 -0.7664
  323MOL0     C44464  10.007   9.722   4.379  0.2208 -0.2006  0.7128
  323MOL0     C44465  10.043   9.959   4.254 -0.2973 -0.5150  0.1162
  323MOL0     C44466  10.077   9.900   4.130  1.2539  0.4805 -0.0644
  323MOL0     O44467  10.090   9.988   4.024 -0.5150  0.1576 -0.1352
  323MOL0     C44468  10.167   9.953   3.919  0.5293  0.8376 -0.1699
  323MOL0     C44469  10.109   9.867   3.828 -0.3971 -0.3082 -0.5889
  323MOL0     C44470  10.185   9.827   3.710 -0.1915  0.5427  0.4526
  323MOL0     C44471  10.313   9.872   3.683 -0.2514 -0.8611 -0.9559
  323MOL0     O44472  10.401   9.848   3.580  0.8842 -0.1825  0.7693
  323MOL0     C44473  10.331   9.819   3.465  0.1479 -1.0200  0.3742
  323MOL0     C44474  10.423   9.828   3.339  0.1760  0.4828 -0.8522
  323MOL0     C44475  10.344   9.811   3.207 -0.7166 -0.5645  0.3123
  323MOL0     C44476  10.436   9.782   3.084 -0.3782  0.1267 -0.3854
  323MOL0     C44477  10.356   9.734   2.958 -0.6369 -0.5617 -0.2967
  323MOL0     C44478  10.451   9.701   2.843  0.8545 -0.3596 -0.1037
  323MOL0     C44479  10.380   9.653   2.717 -0.5752 -0.3648 -0.3055
  323MOL0     C44480  10.481   9.616   2.616  0.2249  0.5028  0.5937
  323MOL0    Cl44481  10.402   9.601   2.451  0.6853  0.0998 -0.1895
  323MOL0     C44482  10.369   9.957   3.782 -0.3483 -0.8719  0.3275
  323MOL0     C44483  10.296  10.002   3.894  0.4410  0.2214 -0.0579
  323MOL0     O44484  10.104   9.781   4.126  0.2459 -0.5307 -0.2152
  323MOL0     C44485  10.034  10.105   4.261 -0.2749 -0.9604 -0.3918
  323MOL0     C44486   9.999  10.168   4.392 -0.1624 -0.0422 -0.2933
  323MOL0     N44487   9.492  10.453   4.974  0.4315 -0.1769 -0.2382
  323MOL0     N44488   9.396  10.387   5.031  0.3295 -0.2842  0.2279
  323MOL0     C44489   9.355   9.677   5.334  0.5914 -0.2519  0.6612
  323MOL0     C44490   9.469   9.627   5.277 -0.3010 -0.5018  0.7078
  323MOL0     C44491   9.838   9.398   5.208  0.6452  0.1035  1.0415
  323MOL0     C44492   9.958   9.474   5.220 -0.8497  0.2718  0.2450
  323MOL0     C44493  10.069   9.424   5.148  0.9088  0.4417 -1.1846
  323MOL0     C44494  10.065   9.308   5.072  0.2828 -0.0200  0.5763
  323MOL0     O44495  10.167   9.251   4.999  0.5545  0.6109 -0.2366
  323MOL0     C44496  10.299   9.304   5.011  0.6953 -0.7876 -0.0205
  323MOL0     C44497  10.320   9.416   4.908 -0.2759 -0.0290 -0.0031
  323MOL0     C44498  10.322   9.376   4.767 -0.7649 -1.0030 -0.3691
  323MOL0     C44499  10.277   9.488   4.665 -0.4071 -0.6283 -0.2096
  323MOL0     C44500  10.137   9.505   4.645 -0.1237  1.0683  1.1056
  323MOL0     C44501  10.015   9.500   4.639  0.0576  0.0986 -0.2356
  323MOL0     C44502   9.954   9.233   5.063  0.7415  0.4305 -1.1122
  323MOL0     C44503   9.837   9.276   5.130  0.3229  0.0537 -0.2762
  323MOL0     C44504   9.727   9.181   5.103 -0.1882  0.4998 -0.2511
  323MOL0     H44505   9.375   9.307   5.248  1.2955  0.5138  0.0273
  323MOL0     H44506   9.198   9.383   5.368 -2.3590  1.9891 -0.7147
  323MOL0     H44507   8.970   9.537   5.470 -2.1806 -1.4828 -2.0688
  323MOL0     H44508   9.017   9.571   5.299 -0.4525  2.6988  0.1259
  323MOL0     H44509   8.836   9.712   5.347 -0.0992 -0.5635  0.9417
  323MOL0     H44510   8.916   9.787   5.491 -1.9849  1.2568  0.4467
  323MOL0     H44511   9.104   9.843   5.344 -0.6745  0.2941  0.3106
  323MOL0     H44512   9.011   9.773   5.207 -0.4255 -0.2860  0.0877
  323MOL0     H44513   8.836   9.957   5.262  0.1566 -1.1442 -1.4229
  323MOL0     H44514   8.923  10.001   5.403  0.5959  1.9651 -0.0884
  323MOL0     H44515   8.947  10.162   5.227  0.8867  1.0750  2.1665
  323MOL0     H44516   9.014  10.041   5.122 -0.9821 -0.6959  0.1632
  323MOL0     H44517   9.133  10.218   5.338 -2.1266  0.1785 -2.2449
  323MOL0     H44518   9.188  10.050   5.355 -0.2557 -0.3714  0.4935
  323MOL0     H44519   9.188  10.248   5.116  0.1554  1.3876  1.9146
  323MOL0     H44520   9.262  10.085   5.099  1.3479 -0.2327  2.0215
  323MOL0     H44521   9.336  10.302   5.291 -0.2286 -0.3818  0.4452
  323MOL0     H44522   9.419  10.157   5.278  1.4155  3.2256  1.2316
  323MOL0     H44523   9.647  10.238   5.174 -0.7787  2.4577  3.9478
  323MOL0     H44524   9.817  10.428   5.044  1.4505  1.7306 -0.9002
  323MOL0     H44525   9.748  10.526   4.925  1.9450 -0.5258 -1.1042
  323MOL0     H44526   9.745  10.216   4.878 -1.2528 -0.2198  1.3782
  323MOL0     H44527   9.714  10.354   4.767  1.6755 -0.0391 -0.9292
  323MOL0     H44528   9.961  10.413   4.826  2.0461 -1.0133  0.8927
  323MOL0     H44529   9.975  10.254   4.877 -1.3851 -0.4886 -0.4445
  323MOL0     H44530   9.897  10.330   4.580 -1.1314 -1.8200 -0.8404
  323MOL0     H44531  10.057  10.277   4.647 -0.3017  2.1922  0.5007
  323MOL0     H44532   9.944   9.903   4.578 -2.3938  1.8235  0.1140
  323MOL0     H44533  10.109   9.681   4.376  0.5892  0.5312  2.3746
  323MOL0     H44534   9.945   9.680   4.300 -2.0817 -0.8417  2.7558
  323MOL0     H44535   9.952   9.701   4.471 -2.7168  1.7946 -0.4462
  323MOL0     H44536  10.010   9.830   3.848 -0.8534 -0.2119 -2.5277
  323MOL0     H44537  10.134   9.754   3.648 -0.6374 -1.1460  2.7146
  323MOL0     H44538  10.300   9.714   3.468  1.2811 -1.3489  3.1480
  323MOL0     H44539  10.245   9.883   3.445  1.1698 -0.2619 -1.9624
  323MOL0     H44540  10.480   9.921   3.340  0.6083  0.2325  0.3285
  323MOL0     H44541  10.492   9.743   3.346  0.7273  0.7198 -2.8589
  323MOL0     H44542  10.286   9.903   3.194  2.4539  1.4569 -0.8432
  323MOL0     H44543  10.272   9.729   3.216 -3.2733  1.7026  2.3611
  323MOL0     H44544  10.517   9.715   3.111  1.0732  2.5827  1.8024
  323MOL0     H44545  10.483   9.879   3.063  2.2449 -0.8493  0.6869
  323MOL0     H44546  10.294   9.647   2.978 -3.2967  1.1746 -0.5289
  323MOL0     H44547  10.290   9.815   2.925  0.7523  1.6833  2.1194
  323MOL0     H44548  10.516   9.622   2.884 -2.2595 -2.0278  2.0058
  323MOL0     H44549  10.502   9.791   2.806 -1.8795  1.3904  0.1410
  323MOL0     H44550  10.313   9.732   2.683 -1.0057 -0.5364  0.1256
  323MOL0     H44551  10.311   9.574   2.749 -1.5882  0.0263 -1.4850
  323MOL0     H44552  10.505   9.510   2.631 -1.1773  0.0972  0.1508
  323MOL0     H44553  10.576   9.670   2.625  1.4893 -1.6298  0.7627
  323MOL0     H44554  10.463  10.003   3.754 -1.3584  0.5224 -0.9111
  323MOL0     H44555  10.329  10.072   3.970 -0.2430  0.6834 -0.1887
  323MOL0     H44556  10.068  10.174   4.185 -1.3914  1.2020  0.9895
  323MOL0     H44557   9.999  10.276   4.404  0.6743 -0.1958  1.2323
  323MOL0     H44558   9.355   9.781   5.364  3.3364  0.4137 -1.2945
  323MOL0     H44559   9.555   9.687   5.249  0.7461 -1.5875  1.4985
  323MOL0     H44560   9.976   9.566   5.275  2.8330  0.9477 -1.7778
  323MOL0     H44561  10.162   9.480   5.151  1.6647 -0.7832  1.6094
  323MOL0     H44562  10.317   9.347   5.110  2.7697 -0.6879 -0.3915
  323MOL0     H44563  10.371   9.225   4.987 -0.0488 -1.3478 -0.4150
  323MOL0     H44564  10.412   9.467   4.939 -0.3878 -0.7672  1.6480
  323MOL0     H44565  10.234   9.482   4.923  0.2406  0.5126  0.6643
  323MOL0     H44566  10.421   9.336   4.743 -0.4707 -0.4984 -0.0260
  323MOL0     H44567  10.242   9.304   4.750 -0.8839 -0.5996 -1.6341
  323MOL0     H44568  10.332   9.460   4.575 -1.0141 -3.5339  0.2080
  323MOL0     H44569  10.329   9.579   4.695 -2.7737  0.7694 -0.1176
  323MOL0     H44570   9.910   9.482   4.634 -0.5696  3.2010 -0.8110
  323MOL0     H44571   9.948   9.151   4.991  1.1601  1.5976 -2.5142
  323MOL0     H44572   9.653   9.231   5.040 -0.8385  2.0185  1.6042
  323MOL0     H44573   9.748   9.086   5.054 -1.8120  0.8709 -1.7737
  323MOL0     H44574   9.682   9.160   5.200  1.6786  1.3542  0.8440
  324MOL0     O44575   8.524   4.508   7.898 -0.2867  0.5187 -1.2476
  324MOL0     C44576   8.500   4.543   7.782  0.4736  0.1509  0.0334
  324MOL0     O44577   8.570   4.633   7.709 -0.5188 -0.6215 -0.5556
  324MOL0     C44578   8.706   4.621   7.696  1.1013  0.2276 -0.5062
  324MOL0     C44579   8.795   4.615   7.791  0.0566 -0.5075 -0.1224
  324MOL0     C44580   8.935   4.618   7.776  0.1592  0.1657 -0.5906
  324MOL0     C44581   8.989   4.636   7.655  0.5209 -0.4523  0.0197
  324MOL0     O44582   9.128   4.652   7.639  0.1863 -0.0133  0.1624
  324MOL0     C44583   9.164   4.731   7.526  0.3697  0.2603 -0.6191
  324MOL0     C44584   9.301   4.790   7.547 -0.1064  1.1875 -0.4363
  324MOL0     C44585   9.414   4.682   7.535  0.8438 -0.9715  0.8903
  324MOL0     C44586   9.495   4.694   7.401  0.2620  0.6423 -0.0353
  324MOL0     C44587   9.536   4.565   7.333  0.3188  0.0193  0.4832
  324MOL0     C44588   9.650   4.492   7.405  0.5764 -0.0634 -0.2564
  324MOL0     C44589   9.783   4.543   7.352 -0.1335 -0.2065 -0.9837
  324MOL0     C44590   9.833   4.494   7.216  0.2978  0.6481  0.0399
  324MOL0     N44591   9.972   4.538   7.178 -0.1849  0.4376  0.0422
  324MOL0     C44592  10.063   4.454   7.129  0.7952  0.5127 -0.8086
  324MOL0     C44593  10.177   4.528   7.113  0.9558 -0.3259 -0.0173
  324MOL0     C44594  10.311   4.477   7.071 -0.0290  0.6488 -0.0623
  324MOL0     C44595  10.389   4.561   6.963  0.0731 -0.3182 -0.2321
  324MOL0     C44596  10.538   4.517   6.979 -0.1920  0.4789 -0.9435
  324MOL0     C44597  10.622   4.538   6.852 -0.2189 -1.0575 -0.0474
  324MOL0     O44598  10.598   4.669   6.807 -0.1101  0.3044  0.3910
  324MOL0     C44599  10.711   4.758   6.825  0.4723  0.1361  0.5885
  324MOL0     C44600  10.831   4.734   6.749  0.5423 -0.5275 -0.4768
  324MOL0     C44601  10.952   4.798   6.780  0.4496  0.4029 -0.5480
  324MOL0     C44602  11.068   4.759   6.694 -0.1403 -0.4053  1.1535
  324MOL0     C44603  10.948   4.905   6.870  0.0998  1.2974 -1.0413
  324MOL0     C44604  11.059   5.001   6.881  0.2386  0.4804  0.2455
  324MOL0     O44605  11.186   4.961   6.860 -0.8674 -0.4017  0.6490
  324MOL0     C44606  11.297   5.051   6.874  0.3230  0.3160 -0.3614
  324MOL0     C44607  11.365   5.093   6.763 -0.9926  0.2542  0.2193
  324MOL0     C44608  11.474   5.178   6.782  0.0032 -0.2410 -0.3611
  324MOL0     C44609  11.515   5.231   6.912  0.2265  0.6871  0.2894
  324MOL0     O44610  11.614   5.317   6.935 -1.1722 -0.5345 -0.5285
  324MOL0     C44611  11.702   5.340   6.831 -0.6568 -0.2780 -0.1677
  324MOL0     C44612  11.838   5.401   6.872 -0.7090  0.3141 -0.3981
  324MOL0     C44613  11.904   5.302   6.962 -0.4142  0.1359  0.6879
  324MOL0     C44614  11.958   5.179   6.897 -0.0525  0.0561  0.2830
  324MOL0     C44615  12.026   5.088   7.002 -0.0974  0.0898  0.0675
  324MOL0     C44616  12.176   5.129   7.021 -0.3711 -0.0937  0.0799
  324MOL0     C44617  12.230   5.067   7.145  0.4022  0.4923 -0.4809
  324MOL0     C44618  12.358   5.129   7.200  0.4780 -0.0298  0.4617
  324MOL0    Cl44619  12.392   5.026   7.342  0.0688  0.2597  0.0848
  324MOL0     C44620  11.437   5.185   7.018 -0.8662  0.6078  0.0185
  324MOL0     C44621  11.332   5.099   7.004 -0.5519  0.1248 -0.3226
  324MOL0     O44622  11.033   5.109   6.933  0.2581  0.6964  0.1984
  324MOL0     C44623  10.827   4.932   6.940 -0.1563 -0.1934  0.4923
  324MOL0     C44624  10.714   4.862   6.912  0.1652 -0.0164  0.0003
  324MOL0     N44625  10.145   4.656   7.139 -0.1065  0.2067 -0.2098
  324MOL0     N44626  10.020   4.668   7.166 -0.1083 -0.0391 -0.0536
  324MOL0     C44627   8.891   4.652   7.550 -0.9160  0.5744 -0.3284
  324MOL0     C44628   8.753   4.644   7.574 -0.6267  0.5609 -0.8192
  324MOL0     C44629   8.383   4.487   7.712  0.4853 -1.0985  0.6442
  324MOL0     C44630   8.386   4.507   7.566 -0.3921  0.5511  0.9422
  324MOL0     C44631   8.288   4.457   7.487  1.2177  0.5662  0.3560
  324MOL0     C44632   8.170   4.399   7.538  0.3236  0.0092 -0.0394
  324MOL0     O44633   8.075   4.354   7.445 -0.4801  0.4043  0.3789
  324MOL0     C44634   7.954   4.303   7.509  0.4969  0.3344  0.7559
  324MOL0     C44635   7.854   4.291   7.401 -0.0703 -0.3537 -0.5061
  324MOL0     C44636   7.895   4.188   7.297  0.4583  0.7127 -0.4657
  324MOL0     C44637   7.805   4.180   7.166 -0.1424  0.3153  1.1048
  324MOL0     C44638   7.843   4.051   7.090  0.6544 -0.5666 -0.4769
  324MOL0     C44639   7.879   3.952   7.027  0.2400 -0.3165  0.5984
  324MOL0     C44640   8.159   4.381   7.681 -0.1053 -1.0035  0.1430
  324MOL0     C44641   8.272   4.423   7.768  0.2909  0.7582 -0.7695
  324MOL0     C44642   8.255   4.403   7.920 -0.2334  0.1950  0.0383
  324MOL0     H44643   8.760   4.600   7.892 -1.3352 -3.2279 -0.9358
  324MOL0     H44644   9.001   4.623   7.862  0.9794  0.7265 -1.2283
  324MOL0     H44645   9.101   4.820   7.521  1.1724  0.7568 -2.9627
  324MOL0     H44646   9.150   4.674   7.434  4.3329 -1.0815 -0.5980
  324MOL0     H44647   9.315   4.880   7.486 -3.3236  1.5958 -0.7440
  324MOL0     H44648   9.310   4.836   7.646  1.4384  1.0467 -0.4931
  324MOL0     H44649   9.487   4.697   7.615  1.0077 -1.8599  0.9121
  324MOL0     H44650   9.370   4.587   7.565 -1.1386 -1.0010 -1.7097
  324MOL0     H44651   9.420   4.732   7.331 -0.6101  0.5710  0.8358
  324MOL0     H44652   9.580   4.762   7.404  1.1491 -0.2871 -1.8927
  324MOL0     H44653   9.560   4.581   7.227 -0.4779 -3.1521 -0.2894
  324MOL0     H44654   9.450   4.498   7.324 -1.2008  1.8151  1.0371
  324MOL0     H44655   9.637   4.501   7.513 -2.2117 -2.2654 -0.2715
  324MOL0     H44656   9.649   4.384   7.388  1.4962 -0.3704  1.4586
  324MOL0     H44657   9.859   4.529   7.429  0.1624  2.0900 -0.7856
  324MOL0     H44658   9.790   4.653   7.353  1.2235 -0.2734 -0.8966
  324MOL0     H44659   9.843   4.386   7.227  0.1133  0.4606 -1.4273
  324MOL0     H44660   9.762   4.516   7.135  0.2447 -0.2333 -0.1600
  324MOL0     H44661  10.044   4.347   7.127 -1.9134  0.6655  3.1196
  324MOL0     H44662  10.303   4.374   7.034  1.1988  1.2558 -2.2360
  324MOL0     H44663  10.369   4.476   7.163  0.1123  0.6540 -0.1515
  324MOL0     H44664  10.336   4.545   6.869 -0.7943  0.1337  0.1632
  324MOL0     H44665  10.385   4.669   6.982 -1.1739 -0.2114 -0.9715
  324MOL0     H44666  10.580   4.572   7.064 -0.6792 -0.2285 -0.2252
  324MOL0     H44667  10.547   4.410   7.001  1.4532  1.0509  1.6562
  324MOL0     H44668  10.728   4.531   6.878 -0.2657 -2.4236 -0.1736
  324MOL0     H44669  10.602   4.471   6.768 -0.5408 -0.4112 -0.4945
  324MOL0     H44670  10.819   4.644   6.689 -1.0284 -1.0473  0.5241
  324MOL0     H44671  11.047   4.662   6.649  2.1279 -0.5393  0.2669
  324MOL0     H44672  11.164   4.757   6.746  1.7111 -0.9979 -2.0880
  324MOL0     H44673  11.071   4.831   6.611  0.1999 -2.4991 -0.7327
  324MOL0     H44674  11.339   5.071   6.660 -0.7962  1.2855 -0.0665
  324MOL0     H44675  11.532   5.216   6.698  1.9221  0.9244  1.4023
  324MOL0     H44676  11.731   5.254   6.771  2.0368  0.8681 -0.6384
  324MOL0     H44677  11.652   5.409   6.761 -3.0316 -0.5243  1.1764
  324MOL0     H44678  11.897   5.422   6.782 -1.3858  1.3030 -0.6202
  324MOL0     H44679  11.816   5.492   6.928  0.2854 -0.2497  0.9760
  324MOL0     H44680  11.834   5.268   7.039 -0.0836 -0.2174  0.8350
  324MOL0     H44681  11.991   5.348   7.010  0.6410  0.7027 -1.6426
  324MOL0     H44682  12.023   5.199   6.812  0.1912  0.8944  0.6593
  324MOL0     H44683  11.880   5.116   6.852  0.8947 -0.6379 -0.4323
  324MOL0     H44684  11.976   5.104   7.098  2.5107  3.7697  1.0397
  324MOL0     H44685  12.029   4.980   6.983  3.5075  0.1510 -0.5083
  324MOL0     H44686  12.182   5.238   7.032 -0.9550 -0.0485 -0.0393
  324MOL0     H44687  12.223   5.095   6.928  0.6369  0.0367  0.5192
  324MOL0     H44688  12.236   4.964   7.110 -0.5826 -0.5425  2.1184
  324MOL0     H44689  12.152   5.080   7.221 -0.8366  1.6370 -1.8832
  324MOL0     H44690  12.348   5.232   7.235  0.2514  0.3300 -0.6151
  324MOL0     H44691  12.436   5.119   7.124 -0.9692 -0.7819 -0.9908
  324MOL0     H44692  11.443   5.227   7.118 -0.1289 -0.5945  0.4977
  324MOL0     H44693  11.273   5.068   7.090 -0.2869  1.6978  0.4606
  324MOL0     H44694  10.812   5.010   7.014 -1.8765  2.8284 -2.7555
  324MOL0     H44695  10.626   4.896   6.964 -2.0652 -1.1909 -2.7631
  324MOL0     H44696   8.924   4.651   7.447  1.6424 -0.8655  0.4321
  324MOL0     H44697   8.681   4.659   7.494  1.3213  2.4019 -2.3256
  324MOL0     H44698   8.454   4.569   7.508 -2.3393  1.2124 -0.7494
  324MOL0     H44699   8.288   4.459   7.378 -3.3869 -0.6033  0.1255
  324MOL0     H44700   7.991   4.213   7.558  5.7839  1.7658  0.0583
  324MOL0     H44701   7.919   4.377   7.582  0.2331  1.4157 -0.4401
  324MOL0     H44702   7.835   4.390   7.359 -0.3515 -0.1762  0.0251
  324MOL0     H44703   7.755   4.256   7.430 -0.6734 -0.4919 -2.6260
  324MOL0     H44704   7.998   4.203   7.265  2.1290 -0.5142  3.7093
  324MOL0     H44705   7.895   4.094   7.354  1.3291  1.2226  0.4046
  324MOL0     H44706   7.801   4.268   7.101 -0.3198 -1.5434 -1.5734
  324MOL0     H44707   7.702   4.159   7.194 -0.1326  0.2826  1.1143
  324MOL0     H44708   7.896   3.873   6.958 -3.9687 -1.7331  0.8949
  324MOL0     H44709   8.079   4.324   7.727  0.9832 -2.8156 -0.0954
  324MOL0     H44710   8.275   4.488   7.985 -1.5225  1.2508 -0.8933
  324MOL0     H44711   8.153   4.371   7.943  0.4117 -1.1793  1.1303
  324MOL0     H44712   8.325   4.325   7.952 -1.4476 -0.8081  0.3118
  325MOL0     O44713  11.105   5.327   3.121 -0.0692 -0.2903  0.4014
  325MOL0     C44714  11.071   5.393   3.219 -0.5198  0.7105 -0.4523
  325MOL0     O44715  10.950   5.400   3.284 -0.1830  0.1036  0.1047
  325MOL0     C44716  10.851   5.338   3.223 -0.3335  0.6254 -0.2084
  325MOL0     C44717  10.829   5.204   3.263 -0.6150  0.5529 -0.6716
  325MOL0     C44718  10.715   5.145   3.215  0.1176  0.6455  0.3857
  325MOL0     C44719  10.632   5.205   3.124  0.4991 -0.5046  0.3070
  325MOL0     O44720  10.513   5.138   3.088 -0.2871 -0.2517 -0.6547
  325MOL0     C44721  10.429   5.198   2.988  0.0876  0.7407  0.0175
  325MOL0     C44722  10.309   5.108   2.982 -0.1777 -0.3350 -0.2668
  325MOL0     C44723  10.203   5.128   2.885  0.0955 -0.4343 -0.4963
  325MOL0     C44724  10.138   5.259   2.898 -0.2741  0.7752  0.1194
  325MOL0     C44725  10.031   5.267   2.789  0.0137  0.5747  0.0825
  325MOL0     C44726   9.897   5.343   2.836 -0.2604 -0.0353 -0.8177
  325MOL0     C44727   9.795   5.260   2.920 -0.6896  0.3390 -0.0408
  325MOL0     C44728   9.695   5.179   2.852 -0.0310  0.0333  0.7537
  325MOL0     N44729   9.744   5.055   2.799  0.2030  1.0552  0.2466
  325MOL0     C44730   9.782   4.953   2.888 -0.7083 -0.4107  1.2921
  325MOL0     C44731   9.807   4.846   2.809  0.1545 -0.9410 -0.3766
  325MOL0     C44732   9.859   4.716   2.853  0.2917  1.4488  0.0915
  325MOL0     C44733   9.984   4.713   2.940 -0.2053  0.1494 -0.3358
  325MOL0     C44734  10.040   4.575   2.959 -0.2590 -0.4389  0.0035
  325MOL0     C44735  10.153   4.580   3.057 -0.3960  0.0298  0.3956
  325MOL0     O44736  10.207   4.449   3.080 -0.1975 -0.2834  0.0087
  325MOL0     C44737  10.352   4.441   3.075  0.0105  0.3304  0.3250
  325MOL0     C44738  10.428   4.441   3.198  1.2333 -0.7576  0.2923
  325MOL0     C44739  10.566   4.457   3.199  0.0086  0.4229 -0.7916
  325MOL0     C44740  10.639   4.476   3.327 -0.1124 -1.0734 -0.0058
  325MOL0     C44741  10.634   4.447   3.079  0.4369 -0.1113  0.7275
  325MOL0     C44742  10.783   4.457   3.052  0.6763 -0.0741  0.6398
  325MOL0     O44743  10.828   4.508   2.930  0.4006  0.2732  0.4393
  325MOL0     C44744  10.964   4.510   2.911 -0.2191 -0.5113  0.8883
  325MOL0     C44745  11.025   4.628   2.853  0.0946 -0.0567 -0.0661
  325MOL0     C44746  11.165   4.637   2.825 -0.5892  0.7112  0.8468
  325MOL0     C44747  11.245   4.525   2.853  0.7163  0.1213  0.2764
  325MOL0     O44748  11.377   4.539   2.840 -0.5584  0.2602 -0.6486
  325MOL0     C44749  11.414   4.584   2.705  0.6052  0.4856  0.2635
  325MOL0     C44750  11.575   4.582   2.706 -0.2572 -0.2148  0.9429
  325MOL0     C44751  11.634   4.446   2.676  0.6961  0.3777 -0.3926
  325MOL0     C44752  11.583   4.325   2.755  0.8410 -0.6542  0.0228
  325MOL0     C44753  11.627   4.184   2.716  0.3642  0.6789 -0.2856
  325MOL0     C44754  11.782   4.169   2.724 -0.2310  0.3695  0.3912
  325MOL0     C44755  11.841   4.032   2.705  0.7308 -0.2075  0.4528
  325MOL0     C44756  11.994   4.040   2.702 -1.0216  0.5629 -0.0895
  325MOL0    Cl44757  12.075   3.871   2.675 -0.3963 -0.4153 -0.0705
  325MOL0     C44758  11.186   4.412   2.901 -0.3290  0.0631 -1.1164
  325MOL0     C44759  11.049   4.404   2.921  0.4132 -0.0369  0.7954
  325MOL0     O44760  10.857   4.406   3.138  0.1282  0.7306  0.6033
  325MOL0     C44761  10.557   4.442   2.957  0.5716  0.8052  0.7625
  325MOL0     C44762  10.425   4.419   2.957 -0.1102  0.0426  0.0870
  325MOL0     N44763   9.773   4.881   2.682  0.0154 -0.6874 -0.3032
  325MOL0     N44764   9.725   5.002   2.672  0.5359  0.7719 -0.9287
  325MOL0     C44765  10.650   5.334   3.094 -0.3149  0.6402 -0.2522
  325MOL0     C44766  10.756   5.407   3.147  0.0368  0.2723 -0.7404
  325MOL0     C44767  11.174   5.487   3.265 -0.2720 -0.0937  0.0436
  325MOL0     C44768  11.127   5.604   3.332 -0.3444 -0.4552 -0.6368
  325MOL0     C44769  11.202   5.698   3.401  0.2213  0.2280  0.4969
  325MOL0     C44770  11.337   5.662   3.417  0.3308  0.9537  0.1081
  325MOL0     O44771  11.432   5.727   3.490  0.7534 -0.1596  0.1362
  325MOL0     C44772  11.374   5.814   3.589 -0.2948  1.0202 -0.4884
  325MOL0     C44773  11.483   5.847   3.697 -0.4764 -0.4040 -0.2658
  325MOL0     C44774  11.467   5.982   3.757 -0.2437 -0.0682 -0.5298
  325MOL0     C44775  11.533   6.070   3.645  0.1756  0.9156 -0.6642
  325MOL0     C44776  11.540   6.210   3.682 -0.7691  0.5087 -0.4313
  325MOL0     C44777  11.553   6.327   3.714 -0.1336  0.1848  0.1909
  325MOL0     C44778  11.390   5.555   3.345  0.2274  0.8701 -0.6914
  325MOL0     C44779  11.313   5.467   3.273  0.3135 -0.7083  0.3007
  325MOL0     C44780  11.390   5.368   3.188 -0.5296  0.2438  0.0345
  325MOL0     H44781  10.903   5.151   3.322  1.4287  1.0678 -2.6361
  325MOL0     H44782  10.688   5.043   3.239  0.3055  0.2790 -0.8529
  325MOL0     H44783  10.479   5.193   2.891 -2.6927 -2.7108 -1.4882
  325MOL0     H44784  10.409   5.304   3.007 -0.3863  1.0956 -2.1496
  325MOL0     H44785  10.355   5.009   2.969 -0.2650 -0.5238  0.7735
  325MOL0     H44786  10.267   5.110   3.083  2.4556  2.2677  0.9181
  325MOL0     H44787  10.252   5.123   2.787 -1.5859 -1.4858 -1.3470
  325MOL0     H44788  10.124   5.052   2.896  0.5624 -0.6947  1.4102
  325MOL0     H44789  10.086   5.263   2.994 -1.5983 -1.1637 -0.4682
  325MOL0     H44790  10.217   5.335   2.895  0.0415  0.4127 -1.4274
  325MOL0     H44791   9.988   5.166   2.783 -0.3191  0.4559  3.0595
  325MOL0     H44792  10.072   5.301   2.693 -0.0307  3.8164  1.0961
  325MOL0     H44793   9.930   5.422   2.903  2.5706 -1.3307 -0.5673
  325MOL0     H44794   9.846   5.390   2.751  1.5072 -0.9850 -2.4747
  325MOL0     H44795   9.742   5.332   2.983  0.5468  2.2064 -1.0286
  325MOL0     H44796   9.851   5.197   2.989 -3.1806 -1.0672  0.8212
  325MOL0     H44797   9.627   5.144   2.930  1.3988 -2.4268  0.9928
  325MOL0     H44798   9.643   5.236   2.774 -0.2290 -0.0907  0.7948
  325MOL0     H44799   9.771   4.948   2.996 -2.4676  1.6266  1.2684
  325MOL0     H44800   9.884   4.664   2.760 -4.2019 -0.1158 -0.4972
  325MOL0     H44801   9.781   4.652   2.896 -0.2606  2.1543  0.1584
  325MOL0     H44802  10.054   4.779   2.888 -0.8766  1.6256  0.5768
  325MOL0     H44803   9.955   4.758   3.035 -2.1566 -0.8976 -0.3795
  325MOL0     H44804   9.957   4.514   2.994 -0.1986  0.5404  1.9750
  325MOL0     H44805  10.073   4.550   2.857  0.0122  0.4654 -0.1439
  325MOL0     H44806  10.227   4.636   3.000  0.7817 -2.2321 -0.4351
  325MOL0     H44807  10.125   4.627   3.152 -3.3129 -1.0119  0.1465
  325MOL0     H44808  10.378   4.444   3.295 -0.8055 -2.8696 -0.5821
  325MOL0     H44809  10.728   4.539   3.313 -0.2276 -1.0309 -0.5890
  325MOL0     H44810  10.670   4.378   3.363  0.8845 -0.4044  1.0411
  325MOL0     H44811  10.575   4.515   3.406  1.0090 -1.5009  1.1579
  325MOL0     H44812  10.961   4.715   2.843 -1.3222 -0.9523  0.8781
  325MOL0     H44813  11.216   4.728   2.794  0.1023  0.7053  1.9439
  325MOL0     H44814  11.378   4.520   2.623  2.1925  0.6890 -0.6313
  325MOL0     H44815  11.392   4.690   2.696  0.5040  0.3341 -1.5258
  325MOL0     H44816  11.602   4.660   2.634 -2.1961 -1.3753 -1.1688
  325MOL0     H44817  11.620   4.622   2.798 -0.7329 -1.2250  1.6344
  325MOL0     H44818  11.742   4.455   2.690  0.6656  0.7146 -0.3787
  325MOL0     H44819  11.603   4.430   2.572 -4.2000  5.2093 -0.0895
  325MOL0     H44820  11.474   4.316   2.756  0.5722  1.7754  1.2020
  325MOL0     H44821  11.622   4.348   2.855  0.1360 -2.6885  0.8182
  325MOL0     H44822  11.593   4.120   2.798  0.7050 -1.2610 -1.5975
  325MOL0     H44823  11.586   4.145   2.623  1.5602  0.2035 -0.6351
  325MOL0     H44824  11.818   4.193   2.825  2.5181  0.7302 -0.5689
  325MOL0     H44825  11.823   4.243   2.654  1.4242 -0.7314  0.1298
  325MOL0     H44826  11.813   3.995   2.606 -1.1193 -0.1370  0.9153
  325MOL0     H44827  11.803   3.971   2.788 -3.0429 -0.3454 -1.1753
  325MOL0     H44828  12.038   4.093   2.787  0.7973 -1.9940  0.7174
  325MOL0     H44829  12.026   4.101   2.618  0.5200  1.6388  1.2001
  325MOL0     H44830  11.259   4.332   2.914 -0.5435 -0.1879 -1.4216
  325MOL0     H44831  11.002   4.319   2.969  2.7292 -1.2166  1.0884
  325MOL0     H44832  10.601   4.451   2.859  1.6814  1.2877  1.2860
  325MOL0     H44833  10.366   4.403   2.867 -5.2126 -0.8563  3.1921
  325MOL0     H44834  10.588   5.393   3.027 -2.3377  1.8279  2.4281
  325MOL0     H44835  10.775   5.506   3.106  1.5758 -0.0140 -0.7683
  325MOL0     H44836  11.023   5.634   3.333 -1.6760 -4.3208 -2.8237
  325MOL0     H44837  11.153   5.779   3.453  1.2722  0.7594  0.6931
  325MOL0     H44838  11.332   5.898   3.533 -0.8727  0.3190 -1.1368
  325MOL0     H44839  11.290   5.771   3.645 -0.1652  0.7935 -0.4658
  325MOL0     H44840  11.576   5.844   3.640 -0.2062  1.6161  0.0008
  325MOL0     H44841  11.475   5.772   3.775 -2.5433 -1.0682 -1.0379
  325MOL0     H44842  11.360   5.997   3.778  0.1110  0.9491  0.6359
  325MOL0     H44843  11.525   5.992   3.848  0.1412  0.2445 -0.8057
  325MOL0     H44844  11.483   6.057   3.549 -1.3962  0.2722  0.1982
  325MOL0     H44845  11.636   6.035   3.634  0.4738  1.1665  1.0248
  325MOL0     H44846  11.570   6.426   3.751  0.8747 -0.1665  0.7053
  325MOL0     H44847  11.495   5.532   3.365  0.2997  1.8853  0.2021
  325MOL0     H44848  11.392   5.263   3.218 -0.7646 -0.4735 -2.2537
  325MOL0     H44849  11.337   5.360   3.092 -1.5083 -4.4522  0.7182
  325MOL0     H44850  11.488   5.405   3.157  0.4018 -2.7695 -1.0234
  326MOL0     O44851   2.688   4.867  11.459  0.1547 -0.1684 -0.4781
  326MOL0     C44852   2.763   4.967  11.444 -0.1769  0.6730 -0.3342
  326MOL0     O44853   2.728   5.089  11.404 -0.2422  0.3171 -0.1757
  326MOL0     C44854   2.600   5.106  11.358  0.7616  0.6115  0.5620
  326MOL0     C44855   2.522   5.214  11.398 -0.5605  0.2025 -0.7468
  326MOL0     C44856   2.413   5.255  11.328 -0.0099  0.9496  0.0966
  326MOL0     C44857   2.357   5.164  11.232  0.3490  0.0442  0.9618
  326MOL0     O44858   2.252   5.188  11.148  0.0222 -0.0259  0.0661
  326MOL0     C44859   2.168   5.309  11.170 -0.0532  0.9886  0.1896
  326MOL0     C44860   2.067   5.294  11.290  0.8659 -0.4788 -0.1002
  326MOL0     C44861   1.939   5.373  11.257  0.8259 -0.9559 -0.3857
  326MOL0     C44862   1.851   5.390  11.385  0.9626 -0.4946  1.4650
  326MOL0     C44863   1.739   5.493  11.359 -0.4464  0.5249  0.4358
  326MOL0     C44864   1.653   5.518  11.475  0.1696 -0.2686  0.7710
  326MOL0     C44865   1.721   5.555  11.603 -0.3837  0.6814 -0.9188
  326MOL0     C44866   1.616   5.588  11.711  0.2738 -0.2178 -0.1857
  326MOL0     N44867   1.689   5.640  11.829 -0.4491 -0.2009 -0.1654
  326MOL0     C44868   1.745   5.554  11.925  0.7387 -1.1025  0.4107
  326MOL0     C44869   1.810   5.644  12.008 -0.3231 -0.3279 -0.1516
  326MOL0     C44870   1.877   5.596  12.137  0.0968 -0.1073  0.5052
  326MOL0     C44871   1.780   5.580  12.255 -0.4632 -0.1477  0.2660
  326MOL0     C44872   1.755   5.705  12.334  0.2339 -1.1036 -0.8784
  326MOL0     C44873   1.624   5.692  12.412 -0.6292  1.3014 -0.9363
  326MOL0     O44874   1.625   5.808  12.498 -0.3941  0.8575 -0.6136
  326MOL0     C44875   1.586   5.923  12.438 -0.0285  0.8095 -0.7028
  326MOL0     C44876   1.672   6.017  12.395 -0.1356 -0.1674  0.1006
  326MOL0     C44877   1.630   6.147  12.343 -0.5936  0.4417  0.3006
  326MOL0     C44878   1.729   6.258  12.305  0.5078 -0.0818 -0.0268
  326MOL0     C44879   1.494   6.178  12.330 -0.4522  0.2618  0.3588
  326MOL0     C44880   1.429   6.309  12.288 -0.3332  0.1583  0.7900
  326MOL0     O44881   1.304   6.297  12.246 -0.1753  0.2629  1.1369
  326MOL0     C44882   1.258   6.371  12.138 -0.8415 -0.3077  0.5101
  326MOL0     C44883   1.337   6.445  12.039  0.5442  0.6228  0.5388
  326MOL0     C44884   1.269   6.524  11.938  0.0859  0.5946  0.2816
  326MOL0     C44885   1.137   6.541  11.932 -0.0423  0.5526 -0.6679
  326MOL0     O44886   1.060   6.605  11.843  0.0829  0.4535 -0.3588
  326MOL0     C44887   1.129   6.699  11.766  1.6369 -0.9945 -0.6571
  326MOL0     C44888   1.033   6.759  11.652 -0.1392  0.1235 -0.4304
  326MOL0     C44889   1.103   6.843  11.543 -0.5434  0.0041  0.0103
  326MOL0     C44890   1.210   6.754  11.474  0.1502 -0.1816  0.3130
  326MOL0     C44891   1.249   6.803  11.334 -0.3607 -0.4577 -0.2798
  326MOL0     C44892   1.328   6.934  11.337  0.0535 -0.8494 -0.8851
  326MOL0     C44893   1.376   7.000  11.204 -0.7645 -1.1150 -0.2679
  326MOL0     C44894   1.501   7.083  11.224 -0.3988 -0.1252 -0.4271
  326MOL0    Cl44895   1.641   6.964  11.200  0.3788 -0.0572 -0.2322
  326MOL0     C44896   1.060   6.469  12.020 -0.9711 -0.1966  0.5474
  326MOL0     C44897   1.120   6.378  12.122  0.8111 -0.6799  0.6444
  326MOL0     O44898   1.488   6.415  12.280 -0.4980  0.2575 -0.0500
  326MOL0     C44899   1.406   6.071  12.372  0.3402  0.1985  0.6522
  326MOL0     C44900   1.451   5.952  12.438 -0.0992 -0.3808  0.9021
  326MOL0     N44901   1.814   5.770  11.940 -0.4506  0.9247  0.2618
  326MOL0     N44902   1.738   5.765  11.833  0.2260 -0.7805 -1.0581
  326MOL0     C44903   2.418   5.048  11.198  0.4578  0.6377 -0.0900
  326MOL0     C44904   2.541   5.019  11.263 -0.3014  0.4515 -0.4172
  326MOL0     C44905   2.912   4.956  11.472  0.2791  0.4427  0.3606
  326MOL0     C44906   2.988   5.076  11.495 -0.5168  0.1903  0.0477
  326MOL0     C44907   3.120   5.072  11.534  0.2919 -0.0911 -0.0235
  326MOL0     C44908   3.196   4.961  11.517  0.5592 -0.2801  0.8131
  326MOL0     O44909   3.331   4.967  11.538 -0.4263  0.6800  0.6189
  326MOL0     C44910   3.394   4.928  11.409  0.5418 -0.0593  0.7634
  326MOL0     C44911   3.397   5.046  11.303  0.3874 -0.0825  0.1104
  326MOL0     C44912   3.437   5.182  11.355 -0.0218  0.0930 -0.5241
  326MOL0     C44913   3.470   5.279  11.250 -0.8843  0.9300 -0.1632
  326MOL0     C44914   3.603   5.251  11.183  0.2720 -0.4475 -0.3889
  326MOL0     C44915   3.706   5.216  11.140  0.0254 -0.2437 -0.0355
  326MOL0     C44916   3.126   4.840  11.490  0.5391  0.4650 -0.5104
  326MOL0     C44917   2.987   4.837  11.473  0.9007 -0.1570  0.2242
  326MOL0     C44918   2.927   4.704  11.444  0.0156 -0.9629  0.5916
  326MOL0     H44919   2.576   5.264  11.478  1.7915 -2.6643 -0.3574
  326MOL0     H44920   2.377   5.356  11.345  1.3124  1.7892 -1.7478
  326MOL0     H44921   2.107   5.333  11.081 -0.1289 -0.2603 -0.1037
  326MOL0     H44922   2.241   5.389  11.183  2.4445 -0.9447 -1.1573
  326MOL0     H44923   2.042   5.188  11.305 -1.9882  0.4924  3.4862
  326MOL0     H44924   2.107   5.332  11.385 -0.0466  2.3602 -0.7602
  326MOL0     H44925   1.962   5.471  11.212  1.3377 -0.3038  1.2357
  326MOL0     H44926   1.889   5.315  11.179 -1.5330 -0.4507  0.6594
  326MOL0     H44927   1.814   5.294  11.423  0.2779 -0.4545  0.9027
  326MOL0     H44928   1.914   5.427  11.467  1.3727  1.2277  0.4155
  326MOL0     H44929   1.672   5.457  11.281  0.7761  1.6054 -1.1692
  326MOL0     H44930   1.783   5.585  11.318  1.2976 -0.9229 -1.1161
  326MOL0     H44931   1.575   5.594  11.460  2.6281  2.4272  0.8122
  326MOL0     H44932   1.598   5.424  11.484 -1.6858  0.7731  0.8314
  326MOL0     H44933   1.783   5.644  11.585  0.3374 -0.1783 -3.0419
  326MOL0     H44934   1.781   5.471  11.641 -1.1039  1.1270  1.3410
  326MOL0     H44935   1.550   5.669  11.678  1.1042  1.1396  1.2839
  326MOL0     H44936   1.551   5.507  11.745 -1.1484  0.2122 -1.7842
  326MOL0     H44937   1.725   5.450  11.952  0.9622 -1.1467  0.4066
  326MOL0     H44938   1.943   5.680  12.159  0.4989 -0.2536 -0.1317
  326MOL0     H44939   1.935   5.506  12.116 -1.8487 -1.0602 -1.1556
  326MOL0     H44940   1.682   5.544  12.222 -0.2600 -0.4835  0.0176
  326MOL0     H44941   1.814   5.499  12.320 -0.2886  1.2688  2.0094
  326MOL0     H44942   1.836   5.725  12.405  0.1970  0.6879 -1.2928
  326MOL0     H44943   1.747   5.792  12.268  0.5179 -1.0227 -0.8104
  326MOL0     H44944   1.530   5.679  12.357 -0.7018 -0.5461 -0.4721
  326MOL0     H44945   1.625   5.598  12.468 -0.1656  1.7148 -0.2416
  326MOL0     H44946   1.779   5.996  12.398  0.0156 -0.2904 -3.0380
  326MOL0     H44947   1.705   6.287  12.202  1.3097  0.8261  0.0236
  326MOL0     H44948   1.832   6.221  12.302 -0.0790 -1.7755 -1.8792
  326MOL0     H44949   1.722   6.347  12.367 -1.6534 -1.1416  1.3806
  326MOL0     H44950   1.443   6.467  12.045 -0.0033  3.4361  1.3400
  326MOL0     H44951   1.340   6.580  11.878  1.8513 -0.6275  1.1171
  326MOL0     H44952   1.158   6.775  11.839  0.2533 -2.0013  0.9988
  326MOL0     H44953   1.216   6.645  11.728  1.6065 -2.5627  1.3231
  326MOL0     H44954   0.983   6.671  11.612  1.0469 -0.9492  0.3759
  326MOL0     H44955   0.954   6.821  11.697 -0.8269 -0.7783 -0.3608
  326MOL0     H44956   1.158   6.927  11.587 -0.7126 -1.0643  2.4099
  326MOL0     H44957   1.029   6.884  11.473  0.3272  3.4770  0.9443
  326MOL0     H44958   1.163   6.656  11.463 -2.5903  1.2423 -2.2372
  326MOL0     H44959   1.298   6.755  11.538  0.1880  0.6219  0.2591
  326MOL0     H44960   1.312   6.736  11.275  0.0288  0.6879 -1.1920
  326MOL0     H44961   1.165   6.821  11.266  0.9138  1.4566 -1.4541
  326MOL0     H44962   1.420   6.924  11.396 -0.4520  0.9169  0.2510
  326MOL0     H44963   1.272   7.014  11.386  0.5331 -2.1224  1.8984
  326MOL0     H44964   1.293   7.065  11.175  0.3693  1.4135  1.7780
  326MOL0     H44965   1.404   6.917  11.139  1.1611  0.4120 -1.4881
  326MOL0     H44966   1.507   7.142  11.316  2.8638  2.0303 -1.8773
  326MOL0     H44967   1.500   7.151  11.139 -1.3383  0.0769 -0.2698
  326MOL0     H44968   0.952   6.475  12.005 -0.8293  0.3217 -0.3511
  326MOL0     H44969   1.048   6.326  12.185  0.6984  0.6758  1.6577
  326MOL0     H44970   1.298   6.078  12.364  0.2889  0.5074  1.5446
  326MOL0     H44971   1.393   5.871  12.480 -0.7587 -0.6953 -0.5511
  326MOL0     H44972   2.375   4.970  11.135  0.8801 -0.3773  0.8452
  326MOL0     H44973   2.597   4.934  11.227 -0.4525  0.6460 -1.1209
  326MOL0     H44974   2.944   5.175  11.493  4.3789  2.9283  4.2621
  326MOL0     H44975   3.177   5.162  11.553  0.0925 -0.4498  2.5923
  326MOL0     H44976   3.495   4.907  11.444  0.8318 -0.1853 -0.1277
  326MOL0     H44977   3.346   4.846  11.355  1.9009  0.3424 -1.1338
  326MOL0     H44978   3.295   5.051  11.266 -0.0647  2.2107  1.4670
  326MOL0     H44979   3.462   5.006  11.224 -0.0332  1.3781 -1.0147
  326MOL0     H44980   3.342   5.215  11.400 -0.4620  0.0197 -1.3694
  326MOL0     H44981   3.518   5.163  11.425 -1.3222 -2.3580  0.4365
  326MOL0     H44982   3.474   5.376  11.300 -2.8031  0.2404  1.4554
  326MOL0     H44983   3.393   5.289  11.173  0.3863  3.1622 -1.2393
  326MOL0     H44984   3.801   5.181  11.103  0.3345  0.2113  0.3095
  326MOL0     H44985   3.190   4.752  11.482  0.6834  0.5234 -0.0044
  326MOL0     H44986   2.865   4.690  11.533  1.4789  0.0687  1.8234
  326MOL0     H44987   2.885   4.700  11.343  0.9636 -0.7669  0.1765
  326MOL0     H44988   3.004   4.626  11.446 -0.9228 -1.9898 -0.7272
  327MOL0     O44989   3.021   1.255   5.926 -0.1379 -0.4838  0.1396
  327MOL0     C44990   3.066   1.229   5.813 -0.0342 -0.4932 -0.8645
  327MOL0     O44991   3.043   1.126   5.746  0.3391  0.3021 -0.0410
  327MOL0     C44992   2.961   1.035   5.806  0.2087  0.1791 -0.1843
  327MOL0     C44993   2.825   1.045   5.797 -0.1641 -0.1235 -0.1004
  327MOL0     C44994   2.737   0.937   5.838 -0.5097 -0.8862 -0.6233
  327MOL0     C44995   2.794   0.822   5.888 -0.0518  0.6266  0.0494
  327MOL0     O44996   2.723   0.726   5.944  0.1540  0.2156  0.2191
  327MOL0     C44997   2.633   0.657   5.855 -0.7981 -0.1500 -0.5380
  327MOL0     C44998   2.712   0.575   5.746  0.1340 -0.0958  0.3924
  327MOL0     C44999   2.782   0.459   5.821  0.1747  0.2575  0.5984
  327MOL0     C45000   2.874   0.383   5.730 -0.7949 -0.1215 -0.1815
  327MOL0     C45001   3.001   0.459   5.687  0.2189  0.4701  1.3820
  327MOL0     C45002   3.079   0.355   5.598  0.4065  0.6231  0.2315
  327MOL0     C45003   3.193   0.413   5.519  0.2101  0.5667 -0.8527
  327MOL0     C45004   3.304   0.457   5.612  0.3065 -0.1683  0.8344
  327MOL0     N45005   3.409   0.534   5.552 -0.4850  0.4983  0.5706
  327MOL0     C45006   3.423   0.670   5.541 -0.3973 -0.4649  0.5549
  327MOL0     C45007   3.547   0.683   5.483 -0.0343  0.3839 -0.1113
  327MOL0     C45008   3.592   0.809   5.438 -0.8675 -0.3760  0.1573
  327MOL0     C45009   3.646   0.904   5.555  1.4093  0.4456  0.0785
  327MOL0     C45010   3.693   1.025   5.478  0.0349  0.0379  1.7974
  327MOL0     C45011   3.755   1.141   5.555  0.1302 -0.4013  0.2349
  327MOL0     O45012   3.672   1.160   5.670  0.2754 -0.2642 -0.1554
  327MOL0     C45013   3.700   1.265   5.754 -0.7129  0.1304  0.2755
  327MOL0     C45014   3.591   1.337   5.813 -0.5973 -0.3016  0.4229
  327MOL0     C45015   3.623   1.449   5.899 -0.2969  0.0017 -0.2705
  327MOL0     C45016   3.508   1.514   5.966 -0.2353  0.7492 -0.8730
  327MOL0     C45017   3.757   1.482   5.937  0.0546  0.7739  0.2764
  327MOL0     C45018   3.796   1.585   6.039 -0.1221  0.4821  0.9051
  327MOL0     O45019   3.903   1.561   6.119 -0.2235 -0.6393  0.2278
  327MOL0     C45020   3.941   1.630   6.236  1.1170 -0.4764  0.2000
  327MOL0     C45021   3.848   1.708   6.311 -0.3182  0.6143 -0.3476
  327MOL0     C45022   3.896   1.763   6.433 -1.0575 -0.0134 -0.2232
  327MOL0     C45023   4.027   1.753   6.477  0.3541 -0.1897  0.0317
  327MOL0     O45024   4.059   1.812   6.604 -0.3077  0.0299 -0.0370
  327MOL0     C45025   3.974   1.914   6.652  0.3485  0.3240 -0.4293
  327MOL0     C45026   3.979   2.046   6.575 -0.1621  0.3678  0.5876
  327MOL0     C45027   3.921   2.168   6.632  0.2040  0.1719 -0.6304
  327MOL0     C45028   3.945   2.290   6.542 -0.7637  0.7485 -0.2674
  327MOL0     C45029   3.864   2.411   6.592 -0.3501  0.6248  1.0428
  327MOL0     C45030   3.891   2.535   6.518 -0.4542 -0.3537 -0.6275
  327MOL0     C45031   3.798   2.658   6.537 -0.4398  0.0823  0.5591
  327MOL0     C45032   3.853   2.791   6.471 -1.0279 -0.2712 -0.1146
  327MOL0    Cl45033   3.812   2.817   6.293  0.6075  0.1323 -0.4278
  327MOL0     C45034   4.120   1.678   6.394  0.4360  0.3975  0.8059
  327MOL0     C45035   4.070   1.620   6.280  0.4603 -0.4074  0.4871
  327MOL0     O45036   3.732   1.691   6.033  0.6812 -0.1454  0.2914
  327MOL0     C45037   3.863   1.402   5.875  0.3056 -1.1747 -0.2664
  327MOL0     C45038   3.834   1.299   5.787 -0.4919 -0.4562  0.1378
  327MOL0     N45039   3.594   0.560   5.450  0.0808  0.2756 -0.4516
  327MOL0     N45040   3.521   0.473   5.512  0.4795  0.0952  0.1009
  327MOL0     C45041   2.930   0.814   5.901 -0.2098  0.0987 -1.3807
  327MOL0     C45042   3.011   0.913   5.851  0.0059 -0.2858  0.2788
  327MOL0     C45043   3.152   1.327   5.742 -0.8017  0.5111 -0.6090
  327MOL0     C45044   3.237   1.279   5.636 -0.0197  0.3246 -1.1321
  327MOL0     C45045   3.329   1.366   5.574  0.5554 -0.3698  0.2051
  327MOL0     C45046   3.327   1.505   5.605  1.3069  0.0932  0.3459
  327MOL0     O45047   3.404   1.589   5.543 -0.3616  0.0408 -0.0685
  327MOL0     C45048   3.546   1.570   5.565  0.3742  0.1865 -0.5994
  327MOL0     C45049   3.642   1.681   5.514  0.7020  0.0164 -0.7961
  327MOL0     C45050   3.589   1.827   5.550  0.4648 -0.9477  0.5881
  327MOL0     C45051   3.657   1.941   5.465  0.1197  0.7059 -0.0466
  327MOL0     C45052   3.785   1.981   5.512 -0.3690 -0.3549  0.2283
  327MOL0     C45053   3.896   2.021   5.544 -0.0467 -0.0227  1.0856
  327MOL0     C45054   3.239   1.553   5.702 -0.3801 -0.1867 -0.9495
  327MOL0     C45055   3.149   1.469   5.767  0.0733  0.3441 -0.2120
  327MOL0     C45056   3.046   1.540   5.857  0.4399 -0.1364 -0.3854
  327MOL0     H45057   2.788   1.141   5.761  0.1051  0.4873  1.2053
  327MOL0     H45058   2.630   0.950   5.842 -0.4328 -0.3229 -0.3730
  327MOL0     H45059   2.559   0.726   5.812 -1.8410 -0.4755  0.6677
  327MOL0     H45060   2.570   0.595   5.919  0.4590  1.6242  2.6543
  327MOL0     H45061   2.639   0.531   5.678 -0.2338 -0.1688  0.8321
  327MOL0     H45062   2.780   0.643   5.694 -1.6336  2.9601  1.8103
  327MOL0     H45063   2.846   0.496   5.902  2.5265  0.6560 -1.3375
  327MOL0     H45064   2.707   0.385   5.853 -1.1075 -0.0924 -2.8674
  327MOL0     H45065   2.907   0.291   5.779  0.0257 -0.9274 -2.1174
  327MOL0     H45066   2.816   0.351   5.643 -2.9035 -1.5305  1.6220
  327MOL0     H45067   3.063   0.494   5.770  0.7318 -1.2653  1.7816
  327MOL0     H45068   2.976   0.551   5.634 -0.9399 -0.4257  0.3161
  327MOL0     H45069   3.119   0.272   5.658  2.3127  0.4829 -1.1096
  327MOL0     H45070   3.013   0.314   5.521  2.6028  1.5661 -2.3551
  327MOL0     H45071   3.155   0.501   5.465 -1.8494 -1.8216 -3.6662
  327MOL0     H45072   3.217   0.330   5.451 -0.5523 -0.2395 -0.1681
  327MOL0     H45073   3.262   0.518   5.692 -1.0274 -2.0829  1.6663
  327MOL0     H45074   3.344   0.370   5.664  0.5945  1.2706  3.1582
  327MOL0     H45075   3.358   0.750   5.572 -0.0205  0.5361 -1.1225
  327MOL0     H45076   3.507   0.849   5.383 -1.1750 -1.2530 -0.0147
  327MOL0     H45077   3.672   0.783   5.368 -1.0742 -0.2803 -0.1134
  327MOL0     H45078   3.557   0.932   5.612 -1.1617 -0.8876 -2.9550
  327MOL0     H45079   3.730   0.866   5.614  2.0802  0.3546 -0.8996
  327MOL0     H45080   3.771   1.000   5.406 -3.3381 -0.0395 -2.1894
  327MOL0     H45081   3.609   1.077   5.432  1.8683  4.1834  2.7269
  327MOL0     H45082   3.857   1.127   5.592  0.3922  3.6848  1.5546
  327MOL0     H45083   3.759   1.238   5.504  0.3246  0.6888  2.2061
  327MOL0     H45084   3.487   1.317   5.792 -0.6745 -0.2688  0.7615
  327MOL0     H45085   3.417   1.457   5.947  0.3381 -1.7120  2.6669
  327MOL0     H45086   3.502   1.616   5.929 -4.5265 -0.1330 -3.2396
  327MOL0     H45087   3.513   1.510   6.075 -0.8474 -2.8164 -0.8274
  327MOL0     H45088   3.746   1.715   6.276  0.6621  0.4435 -3.5709
  327MOL0     H45089   3.819   1.815   6.488  0.1689  0.1073  1.4426
  327MOL0     H45090   3.872   1.879   6.667  1.1314 -2.0169 -0.2183
  327MOL0     H45091   4.014   1.934   6.752  0.6085  0.4792 -0.5628
  327MOL0     H45092   4.082   2.062   6.544 -0.2863 -1.5451 -1.0164
  327MOL0     H45093   3.919   2.034   6.483  2.6976 -1.5123 -1.1827
  327MOL0     H45094   3.980   2.177   6.724 -1.6199  1.5012  0.4670
  327MOL0     H45095   3.818   2.146   6.662  1.0539 -1.4463  1.4419
  327MOL0     H45096   3.906   2.270   6.442  0.7102  0.3751 -0.7803
  327MOL0     H45097   4.051   2.314   6.553 -0.5971 -0.3386  0.6429
  327MOL0     H45098   3.757   2.387   6.585 -0.4285  1.4028 -1.4937
  327MOL0     H45099   3.894   2.428   6.696 -1.5586  1.1630  1.3286
  327MOL0     H45100   3.882   2.522   6.410  1.4426 -0.0472 -0.8612
  327MOL0     H45101   3.995   2.560   6.543  0.6627 -4.0954 -0.9981
  327MOL0     H45102   3.804   2.676   6.645  0.9186  2.8606  0.1093
  327MOL0     H45103   3.697   2.627   6.510  0.6287 -1.3846 -2.1232
  327MOL0     H45104   3.962   2.790   6.481 -0.9439  0.1972 -0.8956
  327MOL0     H45105   3.821   2.878   6.530  2.8836  0.4270  1.2760
  327MOL0     H45106   4.228   1.683   6.409  0.3321  2.9082  1.1727
  327MOL0     H45107   4.148   1.575   6.218  0.9448  1.6276 -0.4600
  327MOL0     H45108   3.971   1.412   5.881  0.1810  2.0872 -1.2714
  327MOL0     H45109   3.909   1.228   5.753  0.9408  1.2092 -0.3519
  327MOL0     H45110   2.983   0.729   5.942 -1.7035 -0.6510 -0.9173
  327MOL0     H45111   3.118   0.899   5.840  0.0095 -0.4076  0.4629
  327MOL0     H45112   3.251   1.174   5.611  1.9672 -0.1019  1.4357
  327MOL0     H45113   3.415   1.334   5.516  1.6940  0.6206  1.2639
  327MOL0     H45114   3.544   1.571   5.674 -0.1542  1.6077 -0.5951
  327MOL0     H45115   3.585   1.479   5.519  2.5808  1.6034 -1.7263
  327MOL0     H45116   3.640   1.664   5.406 -1.2478 -2.8616 -0.4363
  327MOL0     H45117   3.735   1.652   5.564  0.7736 -2.5300 -2.2338
  327MOL0     H45118   3.481   1.841   5.543  0.3580 -1.7059  0.6635
  327MOL0     H45119   3.621   1.843   5.653 -4.0824 -1.5034  2.3383
  327MOL0     H45120   3.596   2.032   5.465 -0.1138  0.5546 -0.4530
  327MOL0     H45121   3.664   1.912   5.359 -0.8046  2.3320 -0.6000
  327MOL0     H45122   3.993   2.056   5.572 -0.9462  1.2255  2.8177
  327MOL0     H45123   3.228   1.660   5.714  0.1755 -0.0154 -1.8488
  327MOL0     H45124   3.051   1.649   5.850  0.0644 -0.1935 -2.1388
  327MOL0     H45125   2.949   1.503   5.821  0.0119 -1.8081  2.2338
  327MOL0     H45126   3.065   1.502   5.957  3.5951  0.3745 -0.6805
  328MOL0     O45127   7.236   5.682   4.837 -0.0275  0.1730  0.6606
  328MOL0     C45128   7.157   5.592   4.855  1.0659 -1.0618 -0.4718
  328MOL0     O45129   7.174   5.470   4.906 -0.0402 -0.6976  0.2616
  328MOL0     C45130   7.307   5.421   4.931  0.4128 -0.1400  0.4163
  328MOL0     C45131   7.426   5.448   4.864 -0.1386 -0.3308 -0.3675
  328MOL0     C45132   7.550   5.395   4.920  0.2566 -1.0180 -0.2237
  328MOL0     C45133   7.558   5.321   5.035  0.3136  0.3460  0.1427
  328MOL0     O45134   7.677   5.268   5.082  0.4339  0.2365  0.2522
  328MOL0     C45135   7.706   5.300   5.216 -1.2297 -0.3685 -0.1453
  328MOL0     C45136   7.801   5.425   5.213 -0.7281  0.8736 -0.4075
  328MOL0     C45137   7.938   5.406   5.147 -0.4616 -0.0337  0.5523
  328MOL0     C45138   8.037   5.306   5.222 -0.0784 -0.3361 -0.2974
  328MOL0     C45139   8.187   5.320   5.185  0.4769 -0.2296  1.1130
  328MOL0     C45140   8.255   5.225   5.294 -0.4563 -0.7827 -0.2122
  328MOL0     C45141   8.406   5.181   5.256  0.0843  0.3243 -0.2635
  328MOL0     C45142   8.421   5.079   5.137  0.6986 -0.6069 -0.4442
  328MOL0     N45143   8.346   4.961   5.169 -0.0328  0.1566  0.8128
  328MOL0     C45144   8.271   4.890   5.074 -0.9517  0.4601 -0.8127
  328MOL0     C45145   8.234   4.770   5.145 -0.3486  0.0810 -0.1601
  328MOL0     C45146   8.189   4.639   5.082 -0.0277 -0.4979  0.3574
  328MOL0     C45147   8.301   4.577   5.005 -0.2403 -0.2162  0.3261
  328MOL0     C45148   8.413   4.531   5.095 -0.1712  0.8050  0.1385
  328MOL0     C45149   8.371   4.416   5.185  0.0998  0.5509 -0.4750
  328MOL0     O45150   8.332   4.305   5.107  0.4443  0.0048  0.1287
  328MOL0     C45151   8.282   4.203   5.186  0.0586 -0.4247  0.5147
  328MOL0     C45152   8.210   4.107   5.114 -0.8212 -0.7704  1.2519
  328MOL0     C45153   8.145   4.007   5.176  0.0102 -0.0728 -0.0533
  328MOL0     C45154   8.068   3.907   5.101  0.1448  0.7963 -0.9541
  328MOL0     C45155   8.149   4.001   5.315 -0.7257 -0.1964  0.2985
  328MOL0     C45156   8.078   3.893   5.392 -1.1475 -0.2943 -0.2007
  328MOL0     O45157   8.147   3.780   5.442 -0.1379  0.1207  0.4481
  328MOL0     C45158   8.086   3.661   5.457 -0.5269  0.9164 -0.0608
  328MOL0     C45159   8.144   3.586   5.553  0.5194  0.3808 -0.3841
  328MOL0     C45160   8.106   3.452   5.565  0.0319 -0.2424  1.1324
  328MOL0     C45161   8.010   3.392   5.478  0.9632 -0.0931 -0.7436
  328MOL0     O45162   7.982   3.257   5.498 -0.0362  0.6388  0.3289
  328MOL0     C45163   7.919   3.184   5.393  0.4465 -0.2620  0.8302
  328MOL0     C45164   7.929   3.035   5.418  1.0753 -0.7086  0.2255
  328MOL0     C45165   8.073   2.972   5.388 -0.6174 -0.0771 -1.2275
  328MOL0     C45166   8.120   2.885   5.507  0.6720 -0.0201  0.3822
  328MOL0     C45167   8.274   2.859   5.496 -0.2250 -0.6191 -0.0318
  328MOL0     C45168   8.311   2.725   5.574 -0.7405 -1.1433  0.5151
  328MOL0     C45169   8.465   2.720   5.556 -0.0414  0.4756  0.9417
  328MOL0     C45170   8.510   2.571   5.539 -0.1501 -0.0954 -0.0840
  328MOL0    Cl45171   8.476   2.476   5.681  0.1373  0.1042  0.2601
  328MOL0     C45172   7.931   3.472   5.396 -0.3840  0.1001 -0.1651
  328MOL0     C45173   7.984   3.603   5.379  0.1797  0.4654  0.4113
  328MOL0     O45174   7.955   3.907   5.406 -0.0939 -0.0416  0.5011
  328MOL0     C45175   8.217   4.097   5.392 -1.1416 -0.5206 -0.4502
  328MOL0     C45176   8.286   4.193   5.327  0.1866 -0.1828  0.2506
  328MOL0     N45177   8.275   4.785   5.275 -0.0908 -0.7316 -0.5748
  328MOL0     N45178   8.344   4.894   5.287 -0.8144 -0.5067  0.2646
  328MOL0     C45179   7.434   5.289   5.094  0.1460 -0.2530 -0.7602
  328MOL0     C45180   7.317   5.341   5.044 -0.2881  0.4840  0.1217
  328MOL0     C45181   7.021   5.647   4.817 -0.0556  0.0286  0.3695
  328MOL0     C45182   6.986   5.780   4.838 -0.5492 -0.6840 -0.5498
  328MOL0     C45183   6.864   5.831   4.809 -0.1405  0.2706  0.2914
  328MOL0     C45184   6.758   5.749   4.754 -0.2989 -0.4566  0.5037
  328MOL0     O45185   6.645   5.815   4.745 -0.1509 -0.5387 -0.0918
  328MOL0     C45186   6.539   5.787   4.834  0.7703  0.1382 -0.7861
  328MOL0     C45187   6.460   5.910   4.874  0.0767  0.0739  0.1406
  328MOL0     C45188   6.323   5.870   4.935 -0.4786  0.8015  0.7137
  328MOL0     C45189   6.240   5.995   4.977 -0.7163 -0.0080 -1.4133
  328MOL0     C45190   6.282   6.056   5.105  0.3270  0.1008  0.7738
  328MOL0     C45191   6.306   6.091   5.218  0.5894 -0.0032  0.3837
  328MOL0     C45192   6.792   5.611   4.732 -0.1243 -0.0774 -0.2096
  328MOL0     C45193   6.922   5.562   4.757  0.0335  0.2550 -1.1425
  328MOL0     C45194   6.960   5.433   4.682  0.3593  0.1524  0.0504
  328MOL0     H45195   7.418   5.515   4.778 -0.4305 -2.3523 -1.9934
  328MOL0     H45196   7.647   5.418   4.878  0.4644 -2.5109 -0.6137
  328MOL0     H45197   7.778   5.222   5.246  3.1321  3.1239 -0.5388
  328MOL0     H45198   7.622   5.325   5.281  0.0934  0.3197  1.3657
  328MOL0     H45199   7.749   5.507   5.164 -0.7624  0.2003 -1.5497
  328MOL0     H45200   7.827   5.451   5.316 -0.1812  0.6663 -0.4903
  328MOL0     H45201   7.928   5.382   5.041 -3.4476 -0.3654  0.8408
  328MOL0     H45202   7.984   5.505   5.145 -0.2695 -0.1311 -0.8709
  328MOL0     H45203   8.031   5.350   5.322  2.4116  1.6383 -0.9363
  328MOL0     H45204   7.996   5.205   5.234  2.2217 -1.0653  2.8283
  328MOL0     H45205   8.231   5.419   5.196  1.5895 -0.4328 -0.9922
  328MOL0     H45206   8.203   5.288   5.082  0.2631  0.6941  0.7838
  328MOL0     H45207   8.269   5.289   5.382  1.5129  0.4614 -1.3520
  328MOL0     H45208   8.194   5.136   5.314  2.0056 -2.3243  1.0286
  328MOL0     H45209   8.456   5.129   5.339  1.6544  1.9694 -0.1009
  328MOL0     H45210   8.466   5.272   5.249  0.7714  0.0555  1.5991
  328MOL0     H45211   8.371   5.114   5.047 -2.1251 -1.4471  0.6943
  328MOL0     H45212   8.526   5.050   5.127  1.0320 -0.6342  2.2989
  328MOL0     H45213   8.262   4.920   4.970 -1.6322 -0.3556 -1.0036
  328MOL0     H45214   8.098   4.649   5.022 -0.5848  0.6425  1.3476
  328MOL0     H45215   8.174   4.573   5.168  3.0286 -0.6778  0.8827
  328MOL0     H45216   8.272   4.494   4.940  2.2798 -1.3162  0.5008
  328MOL0     H45217   8.337   4.641   4.925 -0.7991 -1.2247 -0.7671
  328MOL0     H45218   8.504   4.512   5.036 -1.2828  2.0182 -2.1275
  328MOL0     H45219   8.445   4.613   5.160 -0.2379  0.5192  0.5361
  328MOL0     H45220   8.455   4.395   5.252 -1.0593 -0.4666  0.7023
  328MOL0     H45221   8.299   4.454   5.258 -0.1506 -2.1242  0.7753
  328MOL0     H45222   8.203   4.123   5.007 -2.2802 -0.5403  1.3613
  328MOL0     H45223   8.137   3.821   5.107  0.6733  1.2679  0.2260
  328MOL0     H45224   8.064   3.933   4.995  1.5388 -1.4311 -1.6211
  328MOL0     H45225   7.964   3.900   5.134 -0.0381  1.9204 -1.2675
  328MOL0     H45226   8.223   3.627   5.614  0.5115 -0.8301  0.4924
  328MOL0     H45227   8.165   3.377   5.616  1.6223  0.5461  0.5088
  328MOL0     H45228   7.818   3.227   5.400  0.3103 -0.2644 -0.7418
  328MOL0     H45229   7.953   3.204   5.291  2.2042 -3.0057  0.8034
  328MOL0     H45230   7.886   3.001   5.513  0.7606 -4.2403 -1.0259
  328MOL0     H45231   7.858   2.986   5.350  0.2988 -0.9980  1.2105
  328MOL0     H45232   8.149   3.050   5.382 -1.9061  1.2382 -1.2317
  328MOL0     H45233   8.092   2.904   5.304  3.5956 -3.3652  1.9407
  328MOL0     H45234   8.060   2.794   5.512 -2.8712  2.2504  3.0675
  328MOL0     H45235   8.101   2.934   5.602  0.6162 -0.0734  0.3987
  328MOL0     H45236   8.293   2.856   5.389  2.5011  2.3075  0.2117
  328MOL0     H45237   8.337   2.936   5.542 -0.1531 -1.0339  0.5867
  328MOL0     H45238   8.261   2.641   5.525  1.6263 -0.3194 -3.8601
  328MOL0     H45239   8.271   2.729   5.676  0.4854 -1.0230  1.0122
  328MOL0     H45240   8.512   2.749   5.650  1.5152 -1.1306  0.7182
  328MOL0     H45241   8.492   2.775   5.466 -4.4923 -1.6839 -2.1338
  328MOL0     H45242   8.619   2.583   5.531  0.1909 -1.1645  2.1097
  328MOL0     H45243   8.470   2.533   5.445 -0.9498  1.8515 -0.5760
  328MOL0     H45244   7.851   3.433   5.333  1.8669 -1.1884 -2.4581
  328MOL0     H45245   7.949   3.654   5.290 -1.8470  1.0745  1.4924
  328MOL0     H45246   8.210   4.094   5.500 -0.6362  0.3920 -0.3785
  328MOL0     H45247   8.345   4.259   5.389  2.5656 -2.5796  0.7033
  328MOL0     H45248   7.427   5.216   5.174  1.3602 -0.5378 -0.8856
  328MOL0     H45249   7.232   5.314   5.107  0.0961  1.1423  0.9399
  328MOL0     H45250   7.059   5.854   4.870 -0.9401  0.5243 -2.2978
  328MOL0     H45251   6.856   5.938   4.818  1.1548  0.3841  0.3384
  328MOL0     H45252   6.470   5.713   4.793 -1.9402  2.7233 -1.2309
  328MOL0     H45253   6.585   5.736   4.920 -1.0273  2.4572  1.6821
  328MOL0     H45254   6.474   5.973   4.786  1.4393 -3.9611 -2.8345
  328MOL0     H45255   6.509   5.951   4.964 -0.5411 -0.9631  0.9731
  328MOL0     H45256   6.263   5.812   4.864  1.2718 -1.7565  1.1446
  328MOL0     H45257   6.341   5.813   5.027 -0.3107 -1.2033 -0.4905
  328MOL0     H45258   6.138   5.962   5.001 -0.3639  0.0553  0.2947
  328MOL0     H45259   6.244   6.074   4.901  1.9740  0.2609 -1.0866
  328MOL0     H45260   6.330   6.133   5.314  0.2062  0.9357  0.0733
  328MOL0     H45261   6.727   5.540   4.682  2.9235 -3.7554  0.5429
  328MOL0     H45262   6.924   5.431   4.578 -1.3417 -4.3466  0.5050
  328MOL0     H45263   7.069   5.417   4.677  0.4606  0.9849 -0.6148
  328MOL0     H45264   6.915   5.350   4.736 -0.7206 -1.0787 -2.5307
  329MOL0     O45265  10.383   1.451   5.096 -0.2036  0.0370  1.1822
  329MOL0     C45266  10.462   1.361   5.090 -0.2012 -0.3352 -0.0534
  329MOL0     O45267  10.574   1.362   5.029 -0.1397  0.3268  0.3429
  329MOL0     C45268  10.597   1.476   4.962  0.4599 -1.4531  0.0418
  329MOL0     C45269  10.658   1.576   5.029 -1.1528 -0.6141 -0.1532
  329MOL0     C45270  10.690   1.691   4.956  0.1970 -0.7930 -0.8605
  329MOL0     C45271  10.632   1.709   4.830 -0.6702 -0.4795 -0.1720
  329MOL0     O45272  10.672   1.825   4.768 -0.2590  0.6559 -0.0071
  329MOL0     C45273  10.568   1.897   4.697 -1.0615 -1.0637 -1.0199
  329MOL0     C45274  10.604   2.047   4.694 -0.2422  0.5001  0.1437
  329MOL0     C45275  10.488   2.132   4.640 -0.3998  0.5334 -0.2160
  329MOL0     C45276  10.540   2.282   4.668 -0.1673  0.3485 -1.1392
  329MOL0     C45277  10.451   2.387   4.608  0.1132 -0.3696  0.1452
  329MOL0     C45278  10.505   2.529   4.606  0.0989  0.0388 -0.7079
  329MOL0     C45279  10.583   2.564   4.724 -0.7156 -0.4864  0.8037
  329MOL0     C45280  10.607   2.714   4.716 -0.0257  0.6390  0.1725
  329MOL0     N45281  10.493   2.796   4.766  0.5976 -0.1489 -0.3670
  329MOL0     C45282  10.416   2.895   4.701 -0.2718  0.5237 -0.3459
  329MOL0     C45283  10.302   2.921   4.768  0.1256  0.7868  0.4243
  329MOL0     C45284  10.200   3.020   4.739  0.1380  0.4379 -0.6877
  329MOL0     C45285  10.197   3.116   4.864 -0.0138 -0.4851 -0.2136
  329MOL0     C45286  10.092   3.227   4.853 -0.2345  0.4638  1.0103
  329MOL0     C45287  10.059   3.299   4.983  0.7867 -1.0274 -0.6290
  329MOL0     O45288   9.975   3.414   4.959 -0.9326 -0.0104 -0.6158
  329MOL0     C45289   9.839   3.399   4.934  0.1323  0.1113 -0.3827
  329MOL0     C45290   9.773   3.518   4.922  0.3166 -0.0626  0.5072
  329MOL0     C45291   9.642   3.528   4.910  0.5115  0.6594  0.8531
  329MOL0     C45292   9.579   3.664   4.895  0.0653  0.2940 -0.2721
  329MOL0     C45293   9.563   3.406   4.898 -0.2675 -1.8237 -0.2932
  329MOL0     C45294   9.408   3.402   4.874  0.5000  0.7645 -0.6421
  329MOL0     O45295   9.356   3.278   4.851 -1.1532 -0.0176  0.2468
  329MOL0     C45296   9.229   3.232   4.876 -0.7403  0.2151  0.0454
  329MOL0     C45297   9.222   3.092   4.869  0.5856 -0.0904 -0.0787
  329MOL0     C45298   9.100   3.022   4.885  0.3390 -0.5342  0.3924
  329MOL0     C45299   8.986   3.095   4.905  0.7335 -0.8851  0.1723
  329MOL0     O45300   8.859   3.048   4.908 -0.0710 -0.3639  0.1690
  329MOL0     C45301   8.842   2.937   4.990  1.4004 -0.8126  0.1650
  329MOL0     C45302   8.821   2.996   5.131 -0.1443 -0.3237 -0.3303
  329MOL0     C45303   8.688   3.072   5.145 -0.7699 -0.5867  0.2415
  329MOL0     C45304   8.670   3.139   5.281 -0.2682  0.4738 -0.1658
  329MOL0     C45305   8.543   3.223   5.287 -0.2356  0.7762 -0.4485
  329MOL0     C45306   8.490   3.247   5.423 -0.6039  1.2848 -0.0172
  329MOL0     C45307   8.578   3.346   5.512  0.0084  0.0975 -0.7886
  329MOL0     C45308   8.504   3.405   5.627 -0.4247  0.0287  0.2241
  329MOL0    Cl45309   8.453   3.296   5.747 -0.0361 -0.0272  0.4647
  329MOL0     C45310   8.991   3.232   4.905  0.1129  0.2959 -0.2413
  329MOL0     C45311   9.111   3.301   4.896 -0.9311 -0.0914  0.6784
  329MOL0     O45312   9.341   3.503   4.901 -0.0104 -0.5226  0.1239
  329MOL0     C45313   9.632   3.283   4.906 -0.7876 -0.2108  0.4266
  329MOL0     C45314   9.773   3.281   4.930  0.3648  0.8033 -0.2105
  329MOL0     N45315  10.310   2.831   4.882 -0.1047 -0.3183  0.5183
  329MOL0     N45316  10.417   2.764   4.869  0.0839 -0.3152 -0.4778
  329MOL0     C45317  10.558   1.610   4.770 -0.4634 -0.0924  0.0252
  329MOL0     C45318  10.539   1.490   4.836  0.8480  0.2338  0.7958
  329MOL0     C45319  10.442   1.239   5.174  0.9238 -0.0310  0.5358
  329MOL0     C45320  10.317   1.225   5.232  0.9574 -0.3681  0.3089
  329MOL0     C45321  10.278   1.112   5.306  0.7274  0.1941 -0.1773
  329MOL0     C45322  10.375   1.011   5.319  0.7000 -0.7578 -0.2700
  329MOL0     O45323  10.351   0.895   5.379  0.3592  0.5884  0.6004
  329MOL0     C45324  10.258   0.798   5.323  0.5260 -0.1109  0.4166
  329MOL0     C45325  10.242   0.674   5.409 -0.2086 -0.3540  0.1992
  329MOL0     C45326  10.371   0.601   5.439 -0.0069 -0.7349  0.2938
  329MOL0     C45327  10.347   0.475   5.524 -0.0133  0.5364 -0.3325
  329MOL0     C45328  10.474   0.412   5.550 -0.1422  0.2662 -0.6015
  329MOL0     C45329  10.575   0.347   5.577  0.3243 -0.3408  0.3308
  329MOL0     C45330  10.503   1.030   5.259 -0.0012 -0.4271 -0.0178
  329MOL0     C45331  10.545   1.141   5.192  0.1658  0.1787 -0.3000
  329MOL0     C45332  10.689   1.145   5.140 -0.0622 -1.2933 -0.0529
  329MOL0     H45333  10.689   1.563   5.133  1.3365  4.2050 -0.0074
  329MOL0     H45334  10.759   1.760   5.004 -0.8813  0.0603 -0.4706
  329MOL0     H45335  10.474   1.872   4.748  0.2036 -1.0780  1.4895
  329MOL0     H45336  10.557   1.858   4.595  2.1208 -3.2680 -0.6672
  329MOL0     H45337  10.621   2.085   4.796  1.2492 -1.9084  0.8750
  329MOL0     H45338  10.690   2.063   4.630 -0.7037  2.2795 -0.0908
  329MOL0     H45339  10.466   2.133   4.533 -1.7257  3.3478 -0.0275
  329MOL0     H45340  10.393   2.120   4.693  0.3613 -0.5485  0.9702
  329MOL0     H45341  10.541   2.306   4.775  0.3202  1.3500 -1.3558
  329MOL0     H45342  10.642   2.289   4.631  0.9666 -0.6742  1.5188
  329MOL0     H45343  10.354   2.387   4.658 -0.8920 -2.8809 -1.5943
  329MOL0     H45344  10.437   2.364   4.502 -0.8352 -2.0318  0.6009
  329MOL0     H45345  10.564   2.556   4.518  3.6234  1.9325  1.9716
  329MOL0     H45346  10.413   2.589   4.607  0.7509  1.0785  1.1816
  329MOL0     H45347  10.682   2.516   4.719  1.1409  3.1065 -0.9696
  329MOL0     H45348  10.531   2.529   4.813  0.1250 -2.9670  0.4062
  329MOL0     H45349  10.690   2.726   4.787  0.3995 -1.8479  0.1623
  329MOL0     H45350  10.628   2.730   4.610 -1.1701 -6.0858 -1.4708
  329MOL0     H45351  10.446   2.950   4.613  0.9852 -0.3975 -0.5275
  329MOL0     H45352  10.101   2.978   4.718  0.6802 -1.0020 -0.4724
  329MOL0     H45353  10.244   3.072   4.654 -0.9399  0.0099 -1.5305
  329MOL0     H45354  10.163   3.063   4.954  0.4883  0.7938  0.7640
  329MOL0     H45355  10.296   3.157   4.884 -0.3353  0.9583 -1.4329
  329MOL0     H45356  10.117   3.290   4.766 -0.6867 -0.6122  0.0753
  329MOL0     H45357  10.002   3.178   4.816  0.6280 -2.2112  2.2136
  329MOL0     H45358  10.017   3.240   5.065 -2.7452  0.5025 -1.1681
  329MOL0     H45359  10.149   3.347   5.024  0.4705  0.6489 -1.7853
  329MOL0     H45360   9.825   3.613   4.915 -0.0201  0.3169  2.5175
  329MOL0     H45361   9.519   3.670   4.987  0.7587 -3.6204  0.6087
  329MOL0     H45362   9.524   3.675   4.801  2.5409  0.5626 -1.7703
  329MOL0     H45363   9.655   3.742   4.890 -0.1450  0.4236 -3.5977
  329MOL0     H45364   9.314   3.038   4.850  1.6233  2.0097 -1.3928
  329MOL0     H45365   9.102   2.914   4.875 -0.1256 -0.4284 -1.0747
  329MOL0     H45366   8.744   2.893   4.965  1.0399  1.4606 -3.1098
  329MOL0     H45367   8.934   2.878   4.994  2.6818  1.1764  2.9278
  329MOL0     H45368   8.843   2.919   5.206  1.0798  0.2081 -0.1150
  329MOL0     H45369   8.901   3.067   5.153  4.3739 -3.5902 -4.1674
  329MOL0     H45370   8.599   3.011   5.126 -0.7386 -0.4247 -0.4761
  329MOL0     H45371   8.698   3.154   5.073  0.3723 -2.4064 -1.7925
  329MOL0     H45372   8.753   3.211   5.290 -3.5647  4.9162 -1.5170
  329MOL0     H45373   8.679   3.058   5.353  2.7073 -0.3719 -1.3580
  329MOL0     H45374   8.554   3.320   5.238  2.4150  0.9879  0.4060
  329MOL0     H45375   8.469   3.154   5.245 -2.8415  3.4658 -0.6251
  329MOL0     H45376   8.486   3.151   5.475  1.9394  1.5347  0.7396
  329MOL0     H45377   8.394   3.300   5.419 -0.8096  0.8415 -1.7415
  329MOL0     H45378   8.619   3.430   5.456 -0.8509  2.6045  2.0926
  329MOL0     H45379   8.661   3.294   5.562  0.7333  2.9770  1.2396
  329MOL0     H45380   8.418   3.463   5.591 -0.4268  0.2734  0.6192
  329MOL0     H45381   8.564   3.477   5.682  0.8000 -1.3714  0.7590
  329MOL0     H45382   8.900   3.291   4.917 -0.5247 -0.5666 -0.6737
  329MOL0     H45383   9.104   3.409   4.888 -1.9167 -0.2004 -0.2346
  329MOL0     H45384   9.591   3.183   4.895  1.4977 -1.2617  1.0333
  329MOL0     H45385   9.820   3.183   4.934 -1.8004 -0.3277 -0.9985
  329MOL0     H45386  10.523   1.628   4.669  0.2720 -0.7500 -0.3520
  329MOL0     H45387  10.477   1.414   4.790  2.8447 -1.2721  0.4436
  329MOL0     H45388  10.239   1.298   5.213  1.1836 -0.0955  0.4076
  329MOL0     H45389  10.177   1.100   5.344  1.4612 -0.1027  1.8508
  329MOL0     H45390  10.162   0.845   5.303  0.5994 -0.6841 -1.3888
  329MOL0     H45391  10.290   0.769   5.223 -0.6313  1.2807 -0.3844
  329MOL0     H45392  10.179   0.597   5.363 -0.0429 -0.7245  0.5815
  329MOL0     H45393  10.205   0.713   5.504  2.5983  3.1716  0.0607
  329MOL0     H45394  10.413   0.571   5.343  0.8427  0.7603  0.1704
  329MOL0     H45395  10.447   0.664   5.486  1.2740 -1.9283 -0.1130
  329MOL0     H45396  10.281   0.406   5.471  1.6258 -0.0933 -1.6610
  329MOL0     H45397  10.310   0.499   5.624 -0.8878  1.6222 -0.9023
  329MOL0     H45398  10.665   0.289   5.571  0.4085 -0.1112 -0.8714
  329MOL0     H45399  10.571   0.945   5.259  4.1057  2.4923 -2.4144
  329MOL0     H45400  10.740   1.239   5.163 -1.0837 -0.6599 -0.3212
  329MOL0     H45401  10.749   1.063   5.181  0.4207  0.1878  2.3822
  329MOL0     H45402  10.671   1.138   5.032 -1.1868  1.9434 -0.1798
  330MOL0     O45403   7.350   7.523   4.167 -0.4010  0.6993  0.8931
  330MOL0     C45404   7.247   7.481   4.107 -0.3107  0.4623 -0.4656
  330MOL0     O45405   7.253   7.406   4.000 -0.2129 -0.0420 -0.1148
  330MOL0     C45406   7.369   7.369   3.940 -0.1975  0.7771 -0.6527
  330MOL0     C45407   7.476   7.318   4.017  0.8375 -0.2605 -0.2796
  330MOL0     C45408   7.587   7.251   3.956 -0.1558 -0.7893 -0.9416
  330MOL0     C45409   7.602   7.238   3.812 -0.6124  0.0635 -0.1126
  330MOL0     O45410   7.713   7.178   3.754 -0.0220 -0.3063 -0.1225
  330MOL0     C45411   7.822   7.138   3.833  0.9151  0.0682 -0.3990
  330MOL0     C45412   7.912   7.058   3.740 -0.8822  0.5640  0.3982
  330MOL0     C45413   7.835   6.923   3.696 -0.5434 -0.2301 -0.8778
  330MOL0     C45414   7.924   6.847   3.594 -0.3042  0.0589 -0.0439
  330MOL0     C45415   7.865   6.712   3.561 -0.3567 -0.9719  0.0354
  330MOL0     C45416   7.910   6.650   3.431 -0.4354  0.3811 -0.1455
  330MOL0     C45417   7.869   6.494   3.421 -0.0747 -0.4146  0.2962
  330MOL0     C45418   7.947   6.429   3.301 -0.3077 -0.0765 -0.2847
  330MOL0     N45419   7.915   6.281   3.299 -0.5616  0.0224 -0.2455
  330MOL0     C45420   7.821   6.220   3.221  0.3905  0.0871  0.7113
  330MOL0     C45421   7.821   6.092   3.265  0.2190  0.8554  0.6169
  330MOL0     C45422   7.724   5.984   3.219  1.4578 -0.4019  0.0585
  330MOL0     C45423   7.605   5.942   3.320  0.2121 -0.3460  0.5153
  330MOL0     C45424   7.550   6.041   3.421 -0.9794 -0.3721  0.1097
  330MOL0     C45425   7.455   5.971   3.515 -0.1890 -0.0797  0.2639
  330MOL0     O45426   7.332   5.939   3.447 -0.5448  0.4714  0.0585
  330MOL0     C45427   7.227   5.873   3.504 -0.3061 -0.3554  0.0294
  330MOL0     C45428   7.236   5.792   3.614 -0.0041  0.3408 -0.4110
  330MOL0     C45429   7.128   5.722   3.674 -0.4638  0.3335  0.3929
  330MOL0     C45430   7.148   5.628   3.789 -0.8141 -0.6574  0.0571
  330MOL0     C45431   6.996   5.732   3.614 -1.0896  0.0049 -0.2941
  330MOL0     C45432   6.879   5.660   3.662  0.1469 -0.7036  0.1705
  330MOL0     O45433   6.759   5.719   3.648 -0.9123 -0.2234 -0.7463
  330MOL0     C45434   6.647   5.642   3.639  0.4391  0.1452  1.5992
  330MOL0     C45435   6.636   5.498   3.629  0.0190  0.4591  0.0106
  330MOL0     C45436   6.505   5.444   3.637  0.4549  0.7460 -0.1391
  330MOL0     C45437   6.386   5.515   3.672 -0.7815 -0.2755  0.2321
  330MOL0     O45438   6.259   5.465   3.682 -0.0170 -0.3373 -0.9164
  330MOL0     C45439   6.213   5.352   3.617 -0.1081 -0.2417  0.1906
  330MOL0     C45440   6.059   5.331   3.625 -0.2750 -0.8362 -0.3191
  330MOL0     C45441   5.986   5.429   3.530  0.1126 -0.0926 -0.6462
  330MOL0     C45442   5.835   5.399   3.516  0.0113 -0.7264  0.0530
  330MOL0     C45443   5.768   5.522   3.442 -0.4238  0.6514  0.0481
  330MOL0     C45444   5.613   5.498   3.404 -0.2373  0.7712  0.4698
  330MOL0     C45445   5.568   5.617   3.332  0.4744 -0.0599 -0.4605
  330MOL0     C45446   5.424   5.614   3.287  0.3320 -0.8986  0.4251
  330MOL0    Cl45447   5.374   5.771   3.203 -0.0088 -0.0373  0.6767
  330MOL0     C45448   6.395   5.650   3.678  0.2012 -0.0501 -0.3122
  330MOL0     C45449   6.523   5.708   3.655 -0.4489  0.3377 -0.4559
  330MOL0     O45450   6.899   5.550   3.715 -0.1646 -0.6321  0.5400
  330MOL0     C45451   6.984   5.821   3.499 -0.2354 -0.6414  0.0553
  330MOL0     C45452   7.093   5.893   3.449 -0.3924 -0.0896 -0.6317
  330MOL0     N45453   7.918   6.082   3.360 -0.0596  0.3951  0.0161
  330MOL0     N45454   7.978   6.192   3.381  0.6060  0.3016  0.0627
  330MOL0     C45455   7.482   7.278   3.741 -0.7741 -0.6353 -0.5930
  330MOL0     C45456   7.372   7.347   3.802  0.4640  0.2801 -0.0256
  330MOL0     C45457   7.113   7.531   4.152  0.4047  0.0436 -0.2841
  330MOL0     C45458   7.004   7.446   4.118  0.3275 -0.6829 -0.2673
  330MOL0     C45459   6.873   7.473   4.165 -0.6520  0.9598 -0.2201
  330MOL0     C45460   6.844   7.592   4.238 -0.1106  0.5590  0.0439
  330MOL0     O45461   6.716   7.625   4.278 -0.0632 -0.6643 -0.1731
  330MOL0     C45462   6.611   7.529   4.283  0.2447  0.7820 -0.0423
  330MOL0     C45463   6.585   7.460   4.419  0.1683  0.9548 -0.7196
  330MOL0     C45464   6.720   7.379   4.457  0.5073 -0.4648  0.7045
  330MOL0     C45465   6.694   7.287   4.575  0.0197 -0.1916 -0.3927
  330MOL0     C45466   6.663   7.358   4.696 -0.2119 -0.4438 -0.8391
  330MOL0     C45467   6.633   7.420   4.796  0.0138  0.8698  0.8119
  330MOL0     C45468   6.947   7.681   4.260 -0.3827  0.2806  0.5126
  330MOL0     C45469   7.080   7.654   4.216 -0.4835 -0.5533 -0.6809
  330MOL0     C45470   7.173   7.768   4.245  0.3056  0.0073  0.0130
  330MOL0     H45471   7.474   7.326   4.126 -0.7179  0.8839 -0.3508
  330MOL0     H45472   7.662   7.214   4.025 -0.8299  0.0418  0.2715
  330MOL0     H45473   7.788   7.078   3.918 -0.2738  0.7449 -0.3684
  330MOL0     H45474   7.866   7.233   3.864 -1.9450  1.9608 -1.6608
  330MOL0     H45475   7.935   7.115   3.650 -3.4401 -0.4056 -0.9674
  330MOL0     H45476   8.013   7.054   3.781 -0.8488  0.1548  0.2877
  330MOL0     H45477   7.824   6.868   3.790  0.9053  1.6415  0.4885
  330MOL0     H45478   7.736   6.943   3.655 -1.3400 -1.8813  0.1126
  330MOL0     H45479   7.923   6.913   3.507 -3.2346  0.6366  0.3205
  330MOL0     H45480   8.024   6.839   3.638  0.0750  1.0538 -0.6935
  330MOL0     H45481   7.757   6.723   3.548 -0.1460 -1.5764 -2.8412
  330MOL0     H45482   7.889   6.647   3.645 -1.3107 -0.9789  0.3148
  330MOL0     H45483   7.853   6.693   3.348  1.8550 -1.9090 -3.1350
  330MOL0     H45484   8.016   6.675   3.420 -0.4960  0.5455 -0.3741
  330MOL0     H45485   7.760   6.482   3.416  0.0341 -0.9436 -1.9072
  330MOL0     H45486   7.918   6.441   3.503  1.7343 -0.2305 -0.6184
  330MOL0     H45487   7.928   6.475   3.204 -0.1176 -2.9376 -1.8066
  330MOL0     H45488   8.056   6.436   3.307  0.3061 -4.5410 -2.1384
  330MOL0     H45489   7.756   6.259   3.144  1.5479  0.5327 -0.0680
  330MOL0     H45490   7.781   5.895   3.191 -2.5895 -2.6084 -2.1834
  330MOL0     H45491   7.672   6.018   3.128 -0.5760 -0.2874  1.2065
  330MOL0     H45492   7.518   5.913   3.260 -0.2080  1.7750  0.0369
  330MOL0     H45493   7.661   5.864   3.372 -0.1180 -1.4994 -0.7775
  330MOL0     H45494   7.636   6.081   3.475 -0.3122  2.8249 -3.0086
  330MOL0     H45495   7.500   6.120   3.365  3.4295  0.9978 -2.3563
  330MOL0     H45496   7.494   5.877   3.554 -3.9165 -2.0705 -0.3656
  330MOL0     H45497   7.430   6.033   3.602 -1.2595 -1.0201  0.6476
  330MOL0     H45498   7.338   5.789   3.651  0.2983  2.4242 -0.9570
  330MOL0     H45499   7.155   5.528   3.745  2.3611  0.1943 -1.7306
  330MOL0     H45500   7.060   5.627   3.855 -0.4659  0.5576  0.5739
  330MOL0     H45501   7.239   5.663   3.839 -0.8436  2.5063 -1.8352
  330MOL0     H45502   6.723   5.434   3.624 -2.3677 -3.3683  2.1952
  330MOL0     H45503   6.497   5.338   3.613  0.3077  0.8885 -0.7237
  330MOL0     H45504   6.247   5.364   3.514  0.9409  0.1091  0.5669
  330MOL0     H45505   6.253   5.261   3.663 -1.9416 -2.7245 -2.7128
  330MOL0     H45506   6.020   5.231   3.603  2.3158 -1.5851 -1.9767
  330MOL0     H45507   6.032   5.364   3.726  1.1308  0.7662 -0.4133
  330MOL0     H45508   6.028   5.424   3.429  0.1980  4.8157 -1.1059
  330MOL0     H45509   6.009   5.534   3.554 -0.4253  1.1124 -4.6879
  330MOL0     H45510   5.795   5.401   3.619  0.9596  3.1280  0.4988
  330MOL0     H45511   5.805   5.308   3.464 -0.2397  0.0727 -1.2323
  330MOL0     H45512   5.774   5.609   3.508 -1.0334  0.2022  0.7097
  330MOL0     H45513   5.825   5.545   3.351 -1.5753  0.5749 -0.7137
  330MOL0     H45514   5.542   5.476   3.484  1.9487  2.0326  2.9057
  330MOL0     H45515   5.618   5.433   3.316  1.3078  0.2478  0.9158
  330MOL0     H45516   5.627   5.652   3.247  2.3220  3.1601  1.9480
  330MOL0     H45517   5.575   5.699   3.403  0.4425  0.1603 -0.7114
  330MOL0     H45518   5.351   5.574   3.359  1.8524 -0.2847  2.3773
  330MOL0     H45519   5.413   5.537   3.210 -0.8744  0.5230 -0.8646
  330MOL0     H45520   6.308   5.713   3.691 -0.3907 -1.0092  0.5741
  330MOL0     H45521   6.536   5.816   3.657  1.9443  0.0856  1.2075
  330MOL0     H45522   6.894   5.837   3.441 -0.5930  1.8661  1.2044
  330MOL0     H45523   7.071   5.956   3.363 -1.0308 -1.8665 -1.8310
  330MOL0     H45524   7.479   7.263   3.634  1.6215  1.6962 -1.0926
  330MOL0     H45525   7.291   7.371   3.734  0.9749 -1.7676 -1.4442
  330MOL0     H45526   7.020   7.362   4.052  0.4026 -2.4799  1.9094
  330MOL0     H45527   6.797   7.400   4.141 -0.6703 -0.2771  3.1352
  330MOL0     H45528   6.514   7.572   4.257  0.4141  2.0026  1.2409
  330MOL0     H45529   6.622   7.446   4.212  1.1017  1.8586 -1.2066
  330MOL0     H45530   6.493   7.401   4.412  0.6434  0.1398 -0.1384
  330MOL0     H45531   6.563   7.534   4.497 -0.2913 -0.1773  0.2479
  330MOL0     H45532   6.753   7.307   4.381  0.8257  1.6257 -1.2730
  330MOL0     H45533   6.799   7.452   4.478  0.2571  0.7421 -2.0812
  330MOL0     H45534   6.786   7.233   4.599 -0.1570 -0.7024 -0.8519
  330MOL0     H45535   6.618   7.211   4.553 -1.1389  0.8984 -0.2714
  330MOL0     H45536   6.618   7.478   4.885 -1.2068 -0.0626  1.2334
  330MOL0     H45537   6.914   7.775   4.301 -1.4844  0.0979  0.0947
  330MOL0     H45538   7.221   7.804   4.154  1.0868  0.6783  0.6671
  330MOL0     H45539   7.122   7.853   4.292 -1.7762 -1.3697  0.3574
  330MOL0     H45540   7.246   7.727   4.315 -1.2466 -0.2281  1.5709
  331MOL0     O45541   8.294   2.355   2.142  0.4795 -1.1018  1.0682
  331MOL0     C45542   8.385   2.435   2.129  0.8098  0.4296  0.0697
  331MOL0     O45543   8.372   2.570   2.129  0.2364 -0.2148 -0.6872
  331MOL0     C45544   8.255   2.632   2.171  0.0130 -0.3461  0.0694
  331MOL0     C45545   8.125   2.621   2.120 -0.3191  0.0175  0.6337
  331MOL0     C45546   8.026   2.693   2.181 -1.1531 -0.2417  0.0194
  331MOL0     C45547   8.041   2.779   2.294 -0.1923 -0.1676  0.0587
  331MOL0     O45548   7.931   2.848   2.335  0.3421 -0.9587 -0.3512
  331MOL0     C45549   7.929   2.924   2.456 -0.0286 -0.4566 -0.6289
  331MOL0     C45550   7.802   3.005   2.465  0.0603 -1.2584  0.1474
  331MOL0     C45551   7.785   3.065   2.609 -0.1886  0.1342 -0.3886
  331MOL0     C45552   7.657   3.146   2.622 -0.9874 -0.1737 -0.4495
  331MOL0     C45553   7.665   3.262   2.517 -0.7212 -0.5275 -0.2704
  331MOL0     C45554   7.573   3.375   2.565 -0.0102  0.4999  0.1925
  331MOL0     C45555   7.588   3.507   2.491  0.4518  0.9338 -0.0488
  331MOL0     C45556   7.493   3.503   2.364  0.3973  0.6856 -1.0888
  331MOL0     N45557   7.501   3.610   2.264 -0.3755  0.9951 -0.0446
  331MOL0     C45558   7.593   3.609   2.176 -0.2249 -0.3995 -0.3223
  331MOL0     C45559   7.593   3.721   2.111 -0.7853 -0.2452 -0.3819
  331MOL0     C45560   7.694   3.763   2.007 -0.4543 -0.4772  0.3636
  331MOL0     C45561   7.673   3.910   1.981  0.1699 -0.3674 -0.6675
  331MOL0     C45562   7.792   3.968   1.904  0.3336  0.2266  0.7155
  331MOL0     C45563   7.895   4.033   2.002  0.3795 -0.0327 -0.5816
  331MOL0     O45564   8.015   4.067   1.934  0.1162 -0.7494 -0.4455
  331MOL0     C45565   8.089   4.185   1.964 -0.7085  0.4755 -0.2440
  331MOL0     C45566   8.181   4.235   1.864 -0.3711  0.5110 -0.3743
  331MOL0     C45567   8.258   4.357   1.868  0.2175  0.8776 -0.5314
  331MOL0     C45568   8.324   4.413   1.744  0.2398 -0.1751  0.8617
  331MOL0     C45569   8.235   4.434   1.989 -0.1225 -0.7055  0.4049
  331MOL0     C45570   8.290   4.570   2.020  0.2228  0.0259  0.8001
  331MOL0     O45571   8.413   4.601   1.961  0.0987  1.0137  0.0068
  331MOL0     C45572   8.472   4.710   2.005 -0.5107 -0.0442  0.0123
  331MOL0     C45573   8.569   4.710   2.101 -0.1886  1.1338  0.2786
  331MOL0     C45574   8.648   4.823   2.124 -0.1626 -0.4430 -0.0002
  331MOL0     C45575   8.622   4.938   2.043  0.4628 -0.7641 -0.4058
  331MOL0     O45576   8.694   5.057   2.059  0.2866  0.1969  0.6439
  331MOL0     C45577   8.829   5.055   2.119  1.0467 -0.1194  0.2315
  331MOL0     C45578   8.890   5.191   2.102 -0.1137 -0.3052 -0.6441
  331MOL0     C45579   9.014   5.197   2.193 -0.1074  0.2924  0.4299
  331MOL0     C45580   9.103   5.324   2.168  1.1508  0.4800  0.2778
  331MOL0     C45581   9.213   5.288   2.071 -0.5229 -0.0046  0.3716
  331MOL0     C45582   9.321   5.398   2.072 -0.2332 -0.4885  0.2964
  331MOL0     C45583   9.412   5.372   1.951 -0.8321 -0.4290 -0.6204
  331MOL0     C45584   9.529   5.475   1.953 -0.3075  0.7247 -0.1401
  331MOL0    Cl45585   9.484   5.649   1.944  0.5259  0.2938 -0.1282
  331MOL0     C45586   8.523   4.934   1.942  0.3051  0.6060 -0.3799
  331MOL0     C45587   8.450   4.817   1.923 -0.4778 -0.0151  0.0311
  331MOL0     O45588   8.234   4.647   2.101  0.3727 -0.1681 -0.6370
  331MOL0     C45589   8.151   4.380   2.092 -0.8183  0.7728  0.1350
  331MOL0     C45590   8.074   4.261   2.080 -0.6482 -0.7767  1.0006
  331MOL0     N45591   7.483   3.798   2.158 -0.2197 -0.7146  0.5072
  331MOL0     N45592   7.432   3.733   2.255 -0.4410  0.0064  0.4510
  331MOL0     C45593   8.164   2.785   2.353  0.5129 -1.0948  0.0609
  331MOL0     C45594   8.270   2.712   2.288 -0.1277  0.6064 -0.2593
  331MOL0     C45595   8.528   2.389   2.118  0.6914 -0.1066 -0.4875
  331MOL0     C45596   8.628   2.467   2.170  0.1278 -0.4460 -0.2332
  331MOL0     C45597   8.759   2.416   2.190 -0.4169  0.2405  0.8375
  331MOL0     C45598   8.798   2.298   2.133  0.6533 -0.0591 -0.2560
  331MOL0     O45599   8.919   2.233   2.160 -0.7099 -0.9296  0.1925
  331MOL0     C45600   9.036   2.315   2.123  1.2641 -0.3678 -0.5762
  331MOL0     C45601   9.163   2.236   2.134 -1.0585  0.6081  1.4610
  331MOL0     C45602   9.284   2.288   2.061  0.1177  0.7179  0.6201
  331MOL0     C45603   9.322   2.433   2.079  0.0098 -0.2611 -0.6126
  331MOL0     C45604   9.454   2.452   2.015  0.2388  0.5663  0.2272
  331MOL0     C45605   9.553   2.472   1.945 -0.6583  0.4128  0.0898
  331MOL0     C45606   8.700   2.225   2.067  0.2863 -0.0487  0.2185
  331MOL0     C45607   8.567   2.264   2.064  0.5078 -0.1014  0.8719
  331MOL0     C45608   8.477   2.169   1.989  0.2872  0.1620  0.2219
  331MOL0     H45609   8.112   2.556   2.034  1.9070 -2.1722  1.8141
  331MOL0     H45610   7.926   2.676   2.142 -0.1602 -1.2590 -2.2478
  331MOL0     H45611   8.017   2.989   2.459  0.4595 -1.0746  3.1890
  331MOL0     H45612   7.944   2.864   2.546  2.0740  0.1055 -0.5458
  331MOL0     H45613   7.803   3.084   2.389  1.7125 -1.2863  0.1091
  331MOL0     H45614   7.715   2.942   2.444  0.5416 -1.3742 -1.6298
  331MOL0     H45615   7.779   2.991   2.690 -1.2217  1.5846  0.9204
  331MOL0     H45616   7.872   3.126   2.635 -1.2037  2.2171 -1.6694
  331MOL0     H45617   7.573   3.076   2.614  0.7808 -2.4020 -0.8380
  331MOL0     H45618   7.668   3.175   2.727 -1.9265 -0.1463 -0.3534
  331MOL0     H45619   7.644   3.219   2.419  3.3739 -2.8282 -0.3781
  331MOL0     H45620   7.769   3.295   2.508 -0.1430 -0.8082  3.5031
  331MOL0     H45621   7.478   3.322   2.552  1.3565 -1.5326 -2.8134
  331MOL0     H45622   7.587   3.382   2.673 -1.5570 -3.9010  0.8619
  331MOL0     H45623   7.692   3.523   2.461  0.2442 -0.3021 -1.5202
  331MOL0     H45624   7.550   3.588   2.555 -0.1556  0.3590  0.3400
  331MOL0     H45625   7.499   3.407   2.313 -3.0848 -1.1187  1.5116
  331MOL0     H45626   7.398   3.511   2.416  1.9066  5.1948  1.6344
  331MOL0     H45627   7.664   3.527   2.168  1.1436  0.3450  2.7409
  331MOL0     H45628   7.682   3.698   1.919 -0.8334  0.0333  0.0320
  331MOL0     H45629   7.796   3.741   2.037 -0.9099 -3.1554  0.1875
  331MOL0     H45630   7.581   3.916   1.923  0.3570  1.0556 -0.8497
  331MOL0     H45631   7.666   3.964   2.076  1.1078 -0.6530 -0.4256
  331MOL0     H45632   7.842   3.885   1.853 -1.1664  0.0433 -0.5096
  331MOL0     H45633   7.759   4.038   1.827 -3.2866 -0.3787  1.5730
  331MOL0     H45634   7.849   4.120   2.050  0.6014 -0.4739  0.4550
  331MOL0     H45635   7.931   3.963   2.077  0.8071  1.6557  0.8700
  331MOL0     H45636   8.184   4.170   1.777  1.0127  1.7862 -1.3127
  331MOL0     H45637   8.325   4.522   1.740 -0.8698 -0.0612  2.5577
  331MOL0     H45638   8.277   4.386   1.649  0.4125  0.4982  0.5833
  331MOL0     H45639   8.429   4.383   1.748  0.4279  0.4412  0.6334
  331MOL0     H45640   8.600   4.621   2.154  3.3835  2.6581  1.0552
  331MOL0     H45641   8.719   4.832   2.206 -0.0790 -0.7211 -0.0409
  331MOL0     H45642   8.828   5.020   2.223 -1.5302 -2.3798 -0.4608
  331MOL0     H45643   8.888   4.983   2.062 -1.7563 -1.2155 -1.4673
  331MOL0     H45644   8.920   5.204   1.998  2.4353 -0.0062  0.0644
  331MOL0     H45645   8.829   5.277   2.130  0.9600  0.5066 -0.7201
  331MOL0     H45646   9.074   5.109   2.172  0.5901  0.4074  1.7791
  331MOL0     H45647   8.977   5.200   2.296 -0.4333 -0.5886  0.3465
  331MOL0     H45648   9.142   5.363   2.262 -2.1785  0.3501  1.8494
  331MOL0     H45649   9.044   5.404   2.122 -0.7167 -0.7337  0.4276
  331MOL0     H45650   9.260   5.199   2.113  1.1547  0.5762 -0.1756
  331MOL0     H45651   9.181   5.273   1.967  4.0417 -0.2449 -1.2272
  331MOL0     H45652   9.384   5.387   2.161  2.4643  0.2791 -1.4140
  331MOL0     H45653   9.275   5.497   2.059  0.0844 -0.3887 -0.1026
  331MOL0     H45654   9.364   5.396   1.855 -0.4326  1.1544 -0.4529
  331MOL0     H45655   9.437   5.265   1.951 -0.6592 -0.4555  2.5080
  331MOL0     H45656   9.596   5.451   1.870  0.1743  2.4419 -0.2787
  331MOL0     H45657   9.596   5.464   2.039  0.0544  2.5367 -0.1458
  331MOL0     H45658   8.485   5.017   1.884 -3.9428 -1.7082 -1.3004
  331MOL0     H45659   8.378   4.812   1.841  0.5600  0.5080 -0.9529
  331MOL0     H45660   8.150   4.438   2.184 -0.3473  0.4288  0.3555
  331MOL0     H45661   8.002   4.228   2.155 -0.9647  1.5564  1.8173
  331MOL0     H45662   8.169   2.845   2.443 -1.2189 -0.5988 -0.1350
  331MOL0     H45663   8.365   2.721   2.340 -0.0539  0.8000 -0.4283
  331MOL0     H45664   8.614   2.565   2.216  1.8670 -0.0061 -0.5766
  331MOL0     H45665   8.826   2.477   2.250  2.1096 -0.6829 -0.8924
  331MOL0     H45666   9.016   2.359   2.026  0.6438  1.8925  0.5202
  331MOL0     H45667   9.043   2.403   2.188 -0.0508 -0.5846 -0.1118
  331MOL0     H45668   9.142   2.131   2.113 -1.1222  0.9298 -0.2405
  331MOL0     H45669   9.191   2.226   2.240 -0.2656 -0.8589  1.1397
  331MOL0     H45670   9.370   2.232   2.097 -0.4344  0.4304  1.5285
  331MOL0     H45671   9.267   2.265   1.955  1.4798  0.6851  0.3963
  331MOL0     H45672   9.322   2.468   2.182 -2.5999  0.3818 -0.7616
  331MOL0     H45673   9.257   2.501   2.022 -0.9416 -0.8042 -0.1995
  331MOL0     H45674   9.636   2.486   1.879 -2.0426  0.0965 -1.8137
  331MOL0     H45675   8.736   2.128   2.036 -0.1931 -0.9085  2.1932
  331MOL0     H45676   8.522   2.089   1.930 -2.2630 -0.8381 -0.5184
  331MOL0     H45677   8.393   2.139   2.052  0.3295  0.7176  0.5505
  331MOL0     H45678   8.430   2.225   1.907 -0.1440  0.7998  0.8842
  332MOL0     O45679   4.478   7.929   4.582  0.3143  0.3449  0.1110
  332MOL0     C45680   4.428   7.875   4.683 -0.4355 -0.1887  0.0769
  332MOL0     O45681   4.493   7.783   4.762  0.3748  1.0903  0.5587
  332MOL0     C45682   4.624   7.749   4.743  0.1013 -0.2264  0.0962
  332MOL0     C45683   4.662   7.623   4.695 -0.5662  0.1842 -0.5566
  332MOL0     C45684   4.800   7.604   4.682  0.5421 -0.0004 -1.8267
  332MOL0     C45685   4.891   7.702   4.714 -0.4437 -0.6169  0.2486
  332MOL0     O45686   5.024   7.686   4.705  0.5468  0.2742  0.1794
  332MOL0     C45687   5.089   7.570   4.658 -0.8149  0.0380 -1.2075
  332MOL0     C45688   5.223   7.633   4.613  0.7647 -0.7122  0.0228
  332MOL0     C45689   5.326   7.531   4.557  0.3876 -0.3847  0.7977
  332MOL0     C45690   5.331   7.405   4.644 -0.7682  0.5627 -0.0439
  332MOL0     C45691   5.427   7.291   4.600  0.0036  0.0413 -0.0150
  332MOL0     C45692   5.460   7.175   4.694 -0.4093  0.2786 -0.0754
  332MOL0     C45693   5.337   7.089   4.748 -0.2731  0.1814 -0.0135
  332MOL0     C45694   5.380   6.978   4.843 -0.3239  0.2310 -0.1365
  332MOL0     N45695   5.372   6.842   4.789 -0.0167  0.6182 -0.4303
  332MOL0     C45696   5.263   6.774   4.738 -0.1639 -0.7826 -0.3414
  332MOL0     C45697   5.312   6.645   4.719 -0.4032  0.4550 -0.5316
  332MOL0     C45698   5.228   6.525   4.680 -0.6733 -0.3849  0.4141
  332MOL0     C45699   5.143   6.564   4.557 -0.6838  0.1219 -0.6179
  332MOL0     C45700   5.054   6.469   4.486 -0.1227 -0.4856 -1.2056
  332MOL0     C45701   5.123   6.371   4.383  0.3184 -0.0250  0.3805
  332MOL0     O45702   5.202   6.258   4.433 -0.1632  0.7291  0.3462
  332MOL0     C45703   5.331   6.272   4.475 -0.2055  0.3854  0.7364
  332MOL0     C45704   5.379   6.169   4.562  0.0289 -0.7256  0.1437
  332MOL0     C45705   5.502   6.180   4.623 -0.1957  1.4090 -0.3521
  332MOL0     C45706   5.532   6.074   4.730  0.0809  0.4132 -0.9815
  332MOL0     C45707   5.592   6.284   4.586  0.0023 -0.1349 -0.0586
  332MOL0     C45708   5.731   6.302   4.627 -0.0932  0.2998 -0.6421
  332MOL0     O45709   5.778   6.430   4.612 -0.0402  0.3315 -0.0917
  332MOL0     C45710   5.880   6.478   4.686 -0.0755 -0.4956  0.2372
  332MOL0     C45711   6.009   6.431   4.667 -0.9522  0.3266 -0.6581
  332MOL0     C45712   6.125   6.485   4.726  0.4751 -0.1390 -0.6783
  332MOL0     C45713   6.107   6.594   4.813 -0.0949  0.0136  0.4595
  332MOL0     O45714   6.225   6.640   4.867 -0.4507 -0.1555 -0.3717
  332MOL0     C45715   6.215   6.742   4.968  0.5226  0.0195  0.7640
  332MOL0     C45716   6.352   6.756   5.036  0.2853  0.0682  0.1782
  332MOL0     C45717   6.360   6.856   5.154 -0.3970  0.4155 -0.8935
  332MOL0     C45718   6.332   6.997   5.101 -0.1766 -0.0659 -0.1872
  332MOL0     C45719   6.374   7.099   5.214  0.4469  0.5551 -0.5442
  332MOL0     C45720   6.365   7.241   5.174  0.3384 -0.7632 -0.7400
  332MOL0     C45721   6.388   7.331   5.295  0.1305  0.1818 -0.7529
  332MOL0     C45722   6.426   7.473   5.254  0.0009  0.3102  0.0000
  332MOL0    Cl45723   6.559   7.482   5.137  0.3163  0.5345 -0.2557
  332MOL0     C45724   5.975   6.644   4.833  0.0792  0.2055 -0.0802
  332MOL0     C45725   5.860   6.591   4.767  0.0348 -0.1970 -0.7831
  332MOL0     O45726   5.790   6.203   4.671  0.1017  0.4252 -0.5091
  332MOL0     C45727   5.546   6.384   4.498  0.8435 -0.0929  0.7186
  332MOL0     C45728   5.417   6.381   4.443  0.3551  0.2266  0.7677
  332MOL0     N45729   5.443   6.640   4.764  1.1346 -0.1054 -0.4912
  332MOL0     N45730   5.477   6.758   4.812  0.3270 -0.0428  0.5535
  332MOL0     C45731   4.847   7.827   4.756 -0.3761 -0.2244  0.4458
  332MOL0     C45732   4.715   7.844   4.775 -0.3011 -0.1284 -0.3433
  332MOL0     C45733   4.291   7.917   4.726  0.2642 -0.2584 -0.0196
  332MOL0     C45734   4.226   7.860   4.844  0.3433  0.4300  0.3647
  332MOL0     C45735   4.097   7.891   4.890  0.3201 -0.5043 -0.7738
  332MOL0     C45736   4.028   7.986   4.822 -0.2911  0.2633 -0.4155
  332MOL0     O45737   3.899   8.009   4.877 -0.7942  0.0252 -0.2152
  332MOL0     C45738   3.807   8.080   4.802  0.1789 -0.5741  0.0446
  332MOL0     C45739   3.694   8.120   4.903 -0.8322  0.2186  0.1207
  332MOL0     C45740   3.614   7.997   4.941 -1.0744 -0.2252 -0.8370
  332MOL0     C45741   3.470   7.992   4.890  0.2362  0.3074  0.5836
  332MOL0     C45742   3.462   7.981   4.744  0.6640  1.0903 -0.7927
  332MOL0     C45743   3.454   7.996   4.625  0.6346  0.5579  0.3234
  332MOL0     C45744   4.076   8.052   4.708  0.2541 -0.1625  0.1127
  332MOL0     C45745   4.207   8.006   4.654  0.7653 -0.4057  0.2701
  332MOL0     C45746   4.252   8.072   4.521  0.5458  0.8086  1.0788
  332MOL0     H45747   4.589   7.547   4.670  0.4667 -1.6863  1.7227
  332MOL0     H45748   4.835   7.515   4.632 -0.7855 -1.2037 -0.6958
  332MOL0     H45749   5.039   7.530   4.570  0.1085  2.7072 -3.0706
  332MOL0     H45750   5.088   7.510   4.749 -1.2022  0.5140 -0.8889
  332MOL0     H45751   5.206   7.712   4.539  0.4792 -0.7556  0.0423
  332MOL0     H45752   5.273   7.678   4.699  0.7116 -0.3681 -0.1239
  332MOL0     H45753   5.303   7.506   4.453  1.0773 -1.3069  0.8633
  332MOL0     H45754   5.427   7.571   4.556 -1.1082  4.1432 -2.2631
  332MOL0     H45755   5.357   7.440   4.745  1.0008  0.3660 -0.3955
  332MOL0     H45756   5.238   7.349   4.657  0.2757 -1.1010  0.6821
  332MOL0     H45757   5.523   7.337   4.576 -1.1008  2.2563 -0.4296
  332MOL0     H45758   5.395   7.239   4.509  1.9105  0.3135 -0.8956
  332MOL0     H45759   5.522   7.105   4.638 -0.7134 -1.7313  1.9694
  332MOL0     H45760   5.523   7.212   4.776  1.8164 -1.8316 -0.7175
  332MOL0     H45761   5.291   7.043   4.660  1.4375  0.2787 -0.9784
  332MOL0     H45762   5.266   7.163   4.786 -0.0311  0.3811  0.0465
  332MOL0     H45763   5.480   6.994   4.884 -0.7084  0.0073  0.9263
  332MOL0     H45764   5.311   6.978   4.928 -2.0892 -2.2108 -1.4337
  332MOL0     H45765   5.165   6.815   4.715 -0.3553 -0.7608  0.4981
  332MOL0     H45766   5.169   6.503   4.769  0.1043  0.6739  1.2237
  332MOL0     H45767   5.294   6.442   4.656 -1.8792 -0.9063 -1.3374
  332MOL0     H45768   5.102   6.665   4.571  0.7565  1.0347 -2.5044
  332MOL0     H45769   5.222   6.590   4.486 -1.6608  0.2679 -1.6780
  332MOL0     H45770   5.009   6.414   4.569  1.5255 -2.4094 -1.5313
  332MOL0     H45771   4.970   6.523   4.441 -1.3936  0.1836  1.7180
  332MOL0     H45772   5.037   6.329   4.330  0.7874 -0.2169 -0.2320
  332MOL0     H45773   5.175   6.437   4.313  2.3425  1.1388  2.8434
  332MOL0     H45774   5.311   6.088   4.581 -1.7388  0.6632  0.0025
  332MOL0     H45775   5.580   6.116   4.818 -0.2734 -0.1102 -0.5329
  332MOL0     H45776   5.602   5.999   4.691  2.0719  2.5082 -1.6625
  332MOL0     H45777   5.439   6.027   4.762  0.4558  1.5749  2.0939
  332MOL0     H45778   6.028   6.352   4.595 -1.6281  0.1718 -0.6723
  332MOL0     H45779   6.222   6.437   4.716  2.9241  4.2052 -0.0487
  332MOL0     H45780   6.174   6.839   4.940  2.0552  0.4521 -0.1198
  332MOL0     H45781   6.140   6.708   5.039 -2.1597  0.7129 -1.5474
  332MOL0     H45782   6.370   6.658   5.081 -2.1605 -0.4505  0.1730
  332MOL0     H45783   6.435   6.779   4.968  0.1985 -0.8848 -0.2752
  332MOL0     H45784   6.455   6.857   5.208 -1.1096  0.2597  0.3912
  332MOL0     H45785   6.276   6.824   5.216  1.1595 -2.6703 -0.1853
  332MOL0     H45786   6.232   7.019   5.064 -0.7365  0.4982  1.5711
  332MOL0     H45787   6.404   7.001   5.019  0.9290 -0.4906  0.7122
  332MOL0     H45788   6.312   7.073   5.301  1.0092 -4.1754 -1.2936
  332MOL0     H45789   6.476   7.078   5.248  0.3311 -0.9135 -1.0248
  332MOL0     H45790   6.269   7.261   5.126  0.1086 -2.0453 -0.8365
  332MOL0     H45791   6.438   7.255   5.094  1.2331 -1.2513 -0.0345
  332MOL0     H45792   6.475   7.292   5.348 -0.2589  3.5108  2.7258
  332MOL0     H45793   6.303   7.343   5.363  0.4823 -0.5253 -0.1667
  332MOL0     H45794   6.451   7.528   5.345  0.2488  1.2404 -0.6170
  332MOL0     H45795   6.338   7.529   5.219  2.8777  3.8543 -2.2848
  332MOL0     H45796   5.966   6.735   4.892  0.2774  0.9908 -1.2416
  332MOL0     H45797   5.756   6.623   4.774 -0.4329 -1.8123  0.1193
  332MOL0     H45798   5.597   6.479   4.490 -1.0782  0.8585 -1.3877
  332MOL0     H45799   5.375   6.459   4.380 -2.3026 -3.0865 -1.9243
  332MOL0     H45800   4.922   7.904   4.774  0.7127 -1.6690  2.5393
  332MOL0     H45801   4.677   7.944   4.792 -1.8430 -0.9527  1.5079
  332MOL0     H45802   4.277   7.799   4.918  0.1711  0.6626  0.6767
  332MOL0     H45803   4.060   7.852   4.984 -0.1733  0.0705 -0.7207
  332MOL0     H45804   3.846   8.179   4.777  2.8142 -1.8538 -1.3175
  332MOL0     H45805   3.764   8.030   4.715  0.0370 -2.6086  1.1919
  332MOL0     H45806   3.631   8.203   4.870 -0.6858  0.5790  0.7246
  332MOL0     H45807   3.742   8.151   4.997 -0.3436  0.0047 -0.0538
  332MOL0     H45808   3.668   7.907   4.908  3.5018  0.5234  3.3814
  332MOL0     H45809   3.614   7.992   5.051 -0.0479  1.1315 -0.7527
  332MOL0     H45810   3.410   8.080   4.914 -1.9020 -1.0538  0.4876
  332MOL0     H45811   3.419   7.903   4.928  0.4808  1.0400  2.7429
  332MOL0     H45812   3.467   8.015   4.520  3.8247  0.8336  0.6879
  332MOL0     H45813   4.016   8.119   4.648  0.3194 -0.9786 -0.8905
  332MOL0     H45814   4.336   8.141   4.528  3.2227 -2.1720  0.9321
  332MOL0     H45815   4.283   8.002   4.442 -2.4502  1.7110 -1.0639
  332MOL0     H45816   4.171   8.129   4.475  0.1833  0.4713  1.2942
  333MOL0     O45817   5.533   0.853   5.152 -0.1104  0.3712  0.4548
  333MOL0     C45818   5.539   0.729   5.152 -0.0014 -0.9455 -0.0411
  333MOL0     O45819   5.429   0.647   5.160 -0.0611 -0.2633 -0.3103
  333MOL0     C45820   5.312   0.709   5.182  0.5123 -0.4190  0.5482
  333MOL0     C45821   5.293   0.800   5.284 -0.2130  0.2523 -0.3518
  333MOL0     C45822   5.168   0.857   5.320 -0.4176  0.0182 -0.2055
  333MOL0     C45823   5.058   0.828   5.230  0.0739  0.2403  0.7871
  333MOL0     O45824   4.937   0.874   5.233 -0.3971  0.0136 -0.0473
  333MOL0     C45825   4.916   0.989   5.312  0.6512 -0.8826 -1.3806
  333MOL0     C45826   4.806   0.957   5.417  0.5354 -0.5308  0.0120
  333MOL0     C45827   4.671   0.931   5.349  0.0779  0.0217  0.6191
  333MOL0     C45828   4.569   0.871   5.451 -0.9385  0.2495  0.6100
  333MOL0     C45829   4.428   0.870   5.394 -1.0958  0.7293  0.2638
  333MOL0     C45830   4.376   1.012   5.404  0.3979 -0.5246 -0.7271
  333MOL0     C45831   4.230   1.013   5.393  0.2348  0.5356  1.2141
  333MOL0     C45832   4.173   1.169   5.413  0.7214 -0.2129  0.6795
  333MOL0     N45833   4.195   1.228   5.545  0.1052 -0.6128  0.2646
  333MOL0     C45834   4.248   1.356   5.562 -0.4970 -0.7086  0.8870
  333MOL0     C45835   4.238   1.377   5.689  0.5249  0.0026 -0.2924
  333MOL0     C45836   4.275   1.504   5.762 -0.2624 -0.0913  0.0266
  333MOL0     C45837   4.421   1.500   5.789 -0.0650 -0.1703  0.3120
  333MOL0     C45838   4.471   1.583   5.915  0.3958  0.2916  0.7345
  333MOL0     C45839   4.422   1.729   5.907  0.1975  0.3060 -0.8068
  333MOL0     O45840   4.468   1.800   5.792  0.3186  0.3147 -0.8891
  333MOL0     C45841   4.605   1.809   5.783  0.0658  0.2546  0.2944
  333MOL0     C45842   4.668   1.770   5.660  1.0475  0.1238  0.1589
  333MOL0     C45843   4.801   1.798   5.631 -0.1393  0.1202  0.4297
  333MOL0     C45844   4.835   1.785   5.486  0.1148 -0.3878  0.2592
  333MOL0     C45845   4.885   1.852   5.730 -0.5147  0.1747 -0.2770
  333MOL0     C45846   5.029   1.867   5.724 -0.8553  1.4205  0.3938
  333MOL0     O45847   5.100   1.754   5.688  1.0267 -0.1973  0.0466
  333MOL0     C45848   5.233   1.772   5.653  0.7441 -0.0314 -0.3241
  333MOL0     C45849   5.338   1.774   5.748  0.2030  0.7347  0.6543
  333MOL0     C45850   5.469   1.809   5.703  0.3219  1.4004  0.3229
  333MOL0     C45851   5.501   1.834   5.572  1.3908  0.4329  0.1063
  333MOL0     O45852   5.625   1.889   5.544  0.2687  0.4129  0.2069
  333MOL0     C45853   5.645   1.955   5.416 -0.1328  0.3417 -0.3397
  333MOL0     C45854   5.782   2.019   5.432  0.3157  0.3875 -0.2834
  333MOL0     C45855   5.827   2.098   5.309 -0.8317 -0.2358 -0.0439
  333MOL0     C45856   5.961   2.160   5.345 -0.6721 -0.5701  0.2251
  333MOL0     C45857   6.038   2.222   5.228 -0.2923 -0.7172  0.3068
  333MOL0     C45858   6.175   2.289   5.263  0.9650 -0.6385  0.0145
  333MOL0     C45859   6.192   2.361   5.400  0.1452 -0.3340  0.2756
  333MOL0     C45860   6.333   2.415   5.404 -0.1419  0.4063  0.1486
  333MOL0    Cl45861   6.339   2.539   5.534 -0.1665  0.1259  0.1171
  333MOL0     C45862   5.397   1.820   5.474  0.3613  1.5180  0.6496
  333MOL0     C45863   5.261   1.793   5.521  0.1653  0.1593  0.5351
  333MOL0     O45864   5.061   1.980   5.716 -0.7479 -0.2033  0.6099
  333MOL0     C45865   4.824   1.879   5.850  0.7916 -0.6607 -0.2277
  333MOL0     C45866   4.687   1.870   5.874  0.1839 -0.0144 -0.4374
  333MOL0     N45867   4.188   1.267   5.749 -0.2174  0.4245 -0.1081
  333MOL0     N45868   4.156   1.174   5.664 -0.3714 -0.1249 -0.1022
  333MOL0     C45869   5.079   0.728   5.130 -0.2247 -0.5134  0.2838
  333MOL0     C45870   5.199   0.670   5.102 -0.5825  0.0315 -0.1761
  333MOL0     C45871   5.672   0.666   5.165  0.6490 -0.5425  0.2438
  333MOL0     C45872   5.688   0.530   5.116 -0.4781  0.3343  0.5292
  333MOL0     C45873   5.804   0.452   5.121 -0.8158 -0.1341 -0.0825
  333MOL0     C45874   5.919   0.510   5.179 -0.1969  1.7381  0.6114
  333MOL0     O45875   6.032   0.437   5.172  0.3644 -0.5922 -0.1759
  333MOL0     C45876   6.142   0.486   5.237 -0.0418  0.4671  0.2803
  333MOL0     C45877   6.271   0.412   5.193  0.5981  0.7070  0.0862
  333MOL0     C45878   6.390   0.433   5.273  0.2407 -0.2093  0.3064
  333MOL0     C45879   6.508   0.350   5.216 -0.3593 -0.0693  0.9093
  333MOL0     C45880   6.619   0.359   5.314  0.3089 -0.4614  0.4538
  333MOL0     C45881   6.709   0.357   5.399  0.2139 -0.9877  0.1940
  333MOL0     C45882   5.902   0.634   5.236  0.2397  0.0183  0.7481
  333MOL0     C45883   5.787   0.718   5.220  0.5449  0.6106 -0.3220
  333MOL0     C45884   5.792   0.856   5.283  0.0144  0.0484 -0.3652
  333MOL0     H45885   5.386   0.816   5.339 -0.3227 -2.9508  1.0148
  333MOL0     H45886   5.162   0.924   5.405 -1.7129 -1.0761  0.5917
  333MOL0     H45887   4.880   1.069   5.247  2.3572  2.4953  1.4531
  333MOL0     H45888   4.996   1.041   5.366 -1.9960  1.4398  0.6371
  333MOL0     H45889   4.824   0.871   5.482 -3.0344 -1.4409  0.0209
  333MOL0     H45890   4.787   1.051   5.471 -6.0358 -0.8337 -0.9474
  333MOL0     H45891   4.627   1.026   5.315  0.5982  0.5598  1.3979
  333MOL0     H45892   4.690   0.868   5.262  2.4241  0.6880  0.5716
  333MOL0     H45893   4.612   0.775   5.479  2.4735  1.4591  0.0914
  333MOL0     H45894   4.574   0.925   5.546  0.6490 -0.8266  1.1818
  333MOL0     H45895   4.370   0.805   5.460 -1.2044 -0.2684 -0.7820
  333MOL0     H45896   4.421   0.837   5.290 -2.8978 -3.3484  1.4928
  333MOL0     H45897   4.394   1.038   5.509 -1.7944 -1.2069 -0.1406
  333MOL0     H45898   4.420   1.084   5.334  0.4877 -0.8700 -1.0290
  333MOL0     H45899   4.185   0.941   5.462 -1.8183 -1.0275 -1.5576
  333MOL0     H45900   4.199   0.979   5.294 -1.5738 -1.2385  2.3048
  333MOL0     H45901   4.218   1.233   5.337  1.1271 -1.6580 -0.3181
  333MOL0     H45902   4.065   1.178   5.398  1.3480  4.3082 -3.4935
  333MOL0     H45903   4.291   1.414   5.481 -1.5466 -2.2029 -0.8454
  333MOL0     H45904   4.223   1.507   5.858  0.5970 -0.7508  0.5224
  333MOL0     H45905   4.247   1.584   5.693 -0.3339 -0.4286 -0.3370
  333MOL0     H45906   4.447   1.396   5.806  0.0151  0.2463  3.2300
  333MOL0     H45907   4.467   1.541   5.698  1.8663 -2.7299  0.0340
  333MOL0     H45908   4.438   1.541   6.010  1.0831  0.0397  0.8706
  333MOL0     H45909   4.580   1.587   5.926  0.8766 -5.0918  0.7247
  333MOL0     H45910   4.314   1.717   5.903  0.4388 -2.8703 -0.4272
  333MOL0     H45911   4.441   1.779   6.002 -1.5902  0.8453 -0.7091
  333MOL0     H45912   4.607   1.740   5.575  1.3215 -1.9407  0.6239
  333MOL0     H45913   4.871   1.685   5.460 -3.0509 -0.9095 -2.7102
  333MOL0     H45914   4.911   1.860   5.458 -0.0453 -0.2315  0.2437
  333MOL0     H45915   4.748   1.809   5.426 -0.1739 -0.6184  0.5807
  333MOL0     H45916   5.308   1.753   5.850  2.9355 -1.8001  1.0606
  333MOL0     H45917   5.545   1.828   5.779  1.8466  0.2658 -0.8427
  333MOL0     H45918   5.651   1.879   5.337  1.2352 -1.6021  1.5255
  333MOL0     H45919   5.577   2.037   5.390  2.0259  1.7388 -1.9330
  333MOL0     H45920   5.762   2.085   5.518  0.4797 -1.5829  1.3542
  333MOL0     H45921   5.858   1.945   5.460  1.6746  0.0066 -4.3504
  333MOL0     H45922   5.754   2.172   5.276 -1.1979 -1.0626 -1.1534
  333MOL0     H45923   5.837   2.041   5.217 -1.1301  1.5566 -1.2488
  333MOL0     H45924   6.026   2.091   5.399  0.0988 -0.0271  0.0166
  333MOL0     H45925   5.951   2.248   5.409  2.8635  0.8309 -0.9123
  333MOL0     H45926   6.069   2.144   5.157  0.0448 -0.7514  0.4881
  333MOL0     H45927   5.963   2.290   5.189 -0.1421  1.5267  3.5603
  333MOL0     H45928   6.182   2.343   5.168  1.4798 -2.5239 -1.0702
  333MOL0     H45929   6.249   2.208   5.265  1.6068 -0.0892 -0.7929
  333MOL0     H45930   6.156   2.308   5.489  0.5697  0.0209  0.6645
  333MOL0     H45931   6.124   2.445   5.410  0.9443  0.3180  0.3078
  333MOL0     H45932   6.362   2.466   5.311  1.8686  0.4457  0.7543
  333MOL0     H45933   6.404   2.339   5.439  0.7262  0.4846 -1.3542
  333MOL0     H45934   5.401   1.825   5.366 -2.4190  2.3449  0.4902
  333MOL0     H45935   5.192   1.783   5.438  1.4953 -1.0587 -0.4801
  333MOL0     H45936   4.888   1.922   5.926  1.2695  0.5465 -1.2698
  333MOL0     H45937   4.648   1.898   5.972 -1.4213 -1.6912 -0.5319
  333MOL0     H45938   4.994   0.699   5.071  0.0044 -0.7639  0.0733
  333MOL0     H45939   5.195   0.593   5.026  0.5479  1.3989 -1.6869
  333MOL0     H45940   5.599   0.486   5.071 -0.1579  2.1354 -2.0854
  333MOL0     H45941   5.825   0.355   5.079 -0.0324  0.4394 -1.0614
  333MOL0     H45942   6.167   0.592   5.219 -3.6329  1.6044  1.2276
  333MOL0     H45943   6.126   0.470   5.344 -3.8493 -0.8656 -0.3689
  333MOL0     H45944   6.298   0.447   5.093  0.8672  2.2539  0.6749
  333MOL0     H45945   6.251   0.305   5.204  0.9243  0.7497  1.2163
  333MOL0     H45946   6.412   0.538   5.254 -0.4499 -0.2680 -0.9589
  333MOL0     H45947   6.383   0.408   5.379 -0.7028 -0.4868  0.1873
  333MOL0     H45948   6.541   0.389   5.119  0.2972 -2.1156  0.2616
  333MOL0     H45949   6.479   0.245   5.207  1.0845 -0.3358 -1.9758
  333MOL0     H45950   6.795   0.368   5.463  0.7507  1.4163 -0.8394
  333MOL0     H45951   5.991   0.685   5.272 -0.0537  0.5567  0.7185
  333MOL0     H45952   5.803   0.917   5.194  3.2123  0.2519  0.0762
  333MOL0     H45953   5.704   0.882   5.342  1.0670  1.1438  0.7740
  333MOL0     H45954   5.888   0.871   5.333 -0.2892  1.1630 -0.0839
  334MOL0     O45955   9.536   9.596   9.988  0.0666  0.8546  0.1568
  334MOL0     C45956   9.589   9.680   9.916 -0.6664 -0.3367 -0.0433
  334MOL0     O45957   9.545   9.713   9.788 -0.1315  0.4854  0.1463
  334MOL0     C45958   9.461   9.633   9.707 -0.4915 -0.3929  0.0348
  334MOL0     C45959   9.431   9.690   9.587 -0.3075  0.2802 -0.4266
  334MOL0     C45960   9.340   9.618   9.509  0.2403 -0.4076  0.3569
  334MOL0     C45961   9.280   9.500   9.542  0.5326 -0.3955 -0.0413
  334MOL0     O45962   9.196   9.446   9.443  0.1025  0.4033 -0.0994
  334MOL0     C45963   9.098   9.341   9.492  0.5247 -0.0869 -1.6815
  334MOL0     C45964   9.037   9.253   9.385 -0.5468  0.7696  0.2248
  334MOL0     C45965   8.980   9.316   9.257  1.0315  0.2797 -0.1983
  334MOL0     C45966   9.082   9.355   9.150 -0.0308 -0.0830  0.1187
  334MOL0     C45967   9.011   9.385   9.014 -1.1217  0.7880 -0.4952
  334MOL0     C45968   9.048   9.526   8.957  0.0948  0.1267 -0.2508
  334MOL0     C45969   9.013   9.654   9.042  0.2319  0.8152 -0.1282
  334MOL0     C45970   8.866   9.654   9.081  0.9293 -0.4418 -0.1272
  334MOL0     N45971   8.843   9.786   9.157  0.4025  0.8218  0.0930
  334MOL0     C45972   8.838   9.805   9.291  1.4941  0.5627 -1.4657
  334MOL0     C45973   8.832   9.940   9.306  0.6014 -0.4021 -1.0148
  334MOL0     C45974   8.838  10.028   9.429 -1.1015 -0.3603 -0.1423
  334MOL0     C45975   8.962  10.002   9.511 -0.1615 -0.5328  0.1413
  334MOL0     C45976   8.991  10.096   9.641  0.6287 -0.8920 -0.6740
  334MOL0     C45977   9.101  10.037   9.734  0.6468  0.4871  0.7914
  334MOL0     O45978   9.239  10.047   9.686  0.2146 -0.3043  0.2503
  334MOL0     C45979   9.282  10.174   9.643  1.1412  0.5303 -0.1614
  334MOL0     C45980   9.241  10.296   9.698 -1.1914  0.5752 -0.6702
  334MOL0     C45981   9.283  10.422   9.659  0.4541  0.3416 -0.2129
  334MOL0     C45982   9.235  10.542   9.737 -0.6256  0.1802  0.4905
  334MOL0     C45983   9.371  10.423   9.545  0.1114 -0.6985  0.1961
  334MOL0     C45984   9.417  10.543   9.474 -0.2467  0.0455 -0.8026
  334MOL0     O45985   9.319  10.622   9.413  0.0189 -0.1004 -0.3790
  334MOL0     C45986   9.360  10.715   9.321 -0.5333 -0.5750 -0.2921
  334MOL0     C45987   9.298  10.836   9.316  0.3923  1.1004 -0.0343
  334MOL0     C45988   9.313  10.929   9.213  0.2990  0.3096  0.2585
  334MOL0     C45989   9.408  10.901   9.111 -0.4096 -1.3665 -0.6850
  334MOL0     O45990   9.407  10.998   9.012 -0.0638 -0.0170  0.1969
  334MOL0     C45991   9.474  10.978   8.891 -0.9017  0.5193  0.5269
  334MOL0     C45992   9.471  11.114   8.821  0.0384  0.0379  0.7420
  334MOL0     C45993   9.554  11.224   8.891 -0.2863 -0.6719 -1.2099
  334MOL0     C45994   9.540  11.353   8.790 -0.7768  0.5912 -0.1191
  334MOL0     C45995   9.626  11.468   8.837 -0.5668  0.1474 -0.3025
  334MOL0     C45996   9.621  11.566   8.733  0.5953  0.7907 -0.8683
  334MOL0     C45997   9.695  11.692   8.769 -0.1531 -0.1631  0.0048
  334MOL0     C45998   9.653  11.758   8.907 -0.8907  0.9084  0.7393
  334MOL0    Cl45999   9.497  11.832   8.924 -0.2534 -0.0993 -0.1681
  334MOL0     C46000   9.481  10.783   9.126  0.2852 -0.4368  1.2923
  334MOL0     C46001   9.464  10.687   9.222  0.5203  0.3019  0.3992
  334MOL0     O46002   9.535  10.574   9.476 -0.8237  0.3184 -0.2746
  334MOL0     C46003   9.418  10.307   9.495 -0.0538  0.5269  0.4525
  334MOL0     C46004   9.372  10.185   9.541  0.1086  0.2696  0.2209
  334MOL0     N46005   8.842  10.000   9.182 -0.6974  0.0455  0.4035
  334MOL0     N46006   8.852   9.906   9.095 -0.0617 -0.3947  0.3633
  334MOL0     C46007   9.314   9.440   9.664  0.1605 -0.4521 -1.0525
  334MOL0     C46008   9.409   9.509   9.741  0.2416  0.6064 -0.1834
  334MOL0     C46009   9.697   9.766   9.976  0.0098 -0.1337 -0.8964
  334MOL0     C46010   9.739   9.719  10.102  0.2067 -0.2704  0.2974
  334MOL0     C46011   9.821   9.799  10.180 -0.0270  0.6424 -0.4485
  334MOL0     C46012   9.874   9.912  10.138  0.0775 -1.0320  1.1280
  334MOL0     O46013   9.956   9.967  10.235 -0.5223 -0.0023  0.3556
  334MOL0     C46014   9.991  10.104  10.217 -0.2064  0.0252  0.9766
  334MOL0     C46015  10.038  10.145  10.363  0.3933  0.2252  0.1806
  334MOL0     C46016  10.077  10.298  10.365 -0.4655  0.6538  1.1557
  334MOL0     C46017  10.129  10.347  10.494 -0.4916  0.5059 -0.3394
  334MOL0     C46018  10.193  10.470  10.440 -0.3062 -0.4872  0.2224
  334MOL0     C46019  10.250  10.569  10.385 -0.8850  0.2158  0.0754
  334MOL0     C46020   9.827   9.971  10.012  0.2787 -0.2973 -0.2000
  334MOL0     C46021   9.738   9.891   9.932  0.2402  0.3734  0.1721
  334MOL0     C46022   9.700   9.951   9.791  0.6116  0.6071  0.2294
  334MOL0     H46023   9.487   9.778   9.555  1.0590  0.2482  1.6263
  334MOL0     H46024   9.315   9.666   9.415 -1.0164  0.3622  1.0662
  334MOL0     H46025   9.021   9.379   9.559  1.4872 -1.9285  0.6295
  334MOL0     H46026   9.159   9.270   9.549 -0.3497 -0.5768 -1.3307
  334MOL0     H46027   9.120   9.188   9.355  0.0514  1.1837  0.9319
  334MOL0     H46028   8.963   9.191   9.435  0.4048  0.6409  1.5380
  334MOL0     H46029   8.912   9.244   9.211  1.2867 -0.1059  0.0185
  334MOL0     H46030   8.918   9.398   9.293  3.5958  2.8939 -1.3992
  334MOL0     H46031   9.137   9.444   9.182 -0.3215 -0.4620  1.7393
  334MOL0     H46032   9.160   9.280   9.135  1.6371  1.7860 -1.1011
  334MOL0     H46033   8.905   9.393   9.036 -1.5597  0.5431 -2.3275
  334MOL0     H46034   9.014   9.303   8.941 -0.6718  0.2447  0.1245
  334MOL0     H46035   9.155   9.524   8.933 -0.2737 -1.6897 -1.9728
  334MOL0     H46036   9.002   9.536   8.858  3.2502  1.3946 -1.7306
  334MOL0     H46037   9.034   9.744   8.983  3.7473 -1.1458 -2.2587
  334MOL0     H46038   9.068   9.657   9.136 -3.1413 -2.2742  2.2232
  334MOL0     H46039   8.797   9.660   8.996 -2.2251  3.4415  2.3615
  334MOL0     H46040   8.838   9.568   9.142 -0.6918  0.2521  0.1748
  334MOL0     H46041   8.831   9.727   9.365 -1.7233 -0.2323 -2.4457
  334MOL0     H46042   8.751  10.026   9.495  0.6021  5.2191  2.8416
  334MOL0     H46043   8.851  10.131   9.395 -0.7752 -1.0921 -2.4093
  334MOL0     H46044   8.948   9.898   9.543 -3.0480 -0.6834 -1.3489
  334MOL0     H46045   9.054  10.018   9.453  0.2569 -0.1923  0.8719
  334MOL0     H46046   9.006  10.194   9.597 -4.1302  0.1016 -0.6898
  334MOL0     H46047   8.896  10.108   9.695  0.9242 -1.9499  0.1329
  334MOL0     H46048   9.096  10.081   9.833  4.0121  1.9389  0.4286
  334MOL0     H46049   9.079   9.931   9.750  2.2962 -0.3462 -1.7509
  334MOL0     H46050   9.167  10.298   9.778 -0.3408 -1.1480  0.2176
  334MOL0     H46051   9.305  10.625   9.727 -0.4601 -0.1665 -2.0840
  334MOL0     H46052   9.219  10.513   9.841 -0.8499 -0.2213  0.3475
  334MOL0     H46053   9.141  10.582   9.695  0.3312  1.0394 -0.9350
  334MOL0     H46054   9.214  10.857   9.382  0.7593  0.1965  0.7283
  334MOL0     H46055   9.251  11.018   9.220 -0.6282 -0.0955 -1.9966
  334MOL0     H46056   9.578  10.944   8.896 -0.7700  0.7001 -0.7736
  334MOL0     H46057   9.429  10.901   8.829  0.0375  1.0432 -0.8487
  334MOL0     H46058   9.499  11.098   8.717  0.1857  1.8878  0.4656
  334MOL0     H46059   9.365  11.139   8.821  0.1869  0.8339  2.3477
  334MOL0     H46060   9.657  11.198   8.915 -0.5703 -0.7722 -0.0166
  334MOL0     H46061   9.522  11.240   8.994 -0.9489 -1.2789 -1.3153
  334MOL0     H46062   9.433  11.376   8.792 -1.2007 -1.0808 -1.1997
  334MOL0     H46063   9.568  11.328   8.687 -0.2373  2.9587 -0.6162
  334MOL0     H46064   9.567  11.508   8.920 -0.1807  1.1495 -0.5057
  334MOL0     H46065   9.730  11.439   8.853  0.8344  3.0631 -3.0657
  334MOL0     H46066   9.518  11.593   8.708  0.8256  1.0413 -1.5683
  334MOL0     H46067   9.668  11.521   8.645  4.7038  2.1473  0.4155
  334MOL0     H46068   9.690  11.769   8.691 -1.8615 -1.7232 -1.5116
  334MOL0     H46069   9.804  11.682   8.779  0.0294  1.6850  0.2686
  334MOL0     H46070   9.726  11.834   8.939  0.4079 -0.9604  2.4727
  334MOL0     H46071   9.670  11.684   8.986 -0.8280 -1.4173 -1.3273
  334MOL0     H46072   9.547  10.766   9.042 -1.0178 -1.0533  0.3439
  334MOL0     H46073   9.517  10.594   9.204  1.5761  1.5529 -4.4885
  334MOL0     H46074   9.485  10.316   9.410 -0.2080  2.0657  0.4657
  334MOL0     H46075   9.406  10.090   9.500 -1.4600  0.1425 -0.8608
  334MOL0     H46076   9.291   9.341   9.703  2.4703 -0.7950 -0.3506
  334MOL0     H46077   9.437   9.453   9.830 -2.1797  1.1208  0.9716
  334MOL0     H46078   9.714   9.619  10.138  2.2292 -0.9755 -0.1243
  334MOL0     H46079   9.832   9.764  10.282 -0.9645 -1.2080 -0.9324
  334MOL0     H46080  10.061  10.135  10.139 -1.4684 -0.5495 -0.4398
  334MOL0     H46081   9.898  10.152  10.185 -2.5389 -2.9791  2.7530
  334MOL0     H46082  10.118  10.079  10.397 -1.8695 -2.5779  0.4934
  334MOL0     H46083   9.945  10.138  10.419 -0.1791  0.9403 -0.6439
  334MOL0     H46084  10.157  10.305  10.290 -0.5285  1.3943  1.1522
  334MOL0     H46085   9.987  10.354  10.340 -1.0111 -0.7002 -0.1162
  334MOL0     H46086  10.204  10.279  10.536 -1.4856  0.0610  0.7773
  334MOL0     H46087  10.046  10.361  10.564 -1.2642 -0.9665 -0.9043
  334MOL0     H46088  10.304  10.651  10.343  0.0204 -0.2662  0.2750
  334MOL0     H46089   9.842  10.077   9.997 -1.2056  1.2007  5.9388
  334MOL0     H46090   9.597   9.987   9.796 -0.4594 -2.1497 -0.3512
  334MOL0     H46091   9.768  10.035   9.777  1.6614 -0.5303 -2.0582
  334MOL0     H46092   9.727   9.882   9.711  2.3735  1.6602 -0.1377
  335MOL0     O46093   8.867   5.270   8.263 -0.1824  0.0057  0.2958
  335MOL0     C46094   8.824   5.153   8.264 -0.1500 -0.2539  0.7665
  335MOL0     O46095   8.871   5.049   8.346 -0.8116  0.2035  0.8507
  335MOL0     C46096   8.957   5.074   8.448  0.5532  0.5189 -0.5079
  335MOL0     C46097   9.093   5.074   8.446  0.1455  0.3113  0.8580
  335MOL0     C46098   9.170   5.102   8.562  0.2779  0.6654 -0.5113
  335MOL0     C46099   9.124   5.123   8.687 -0.3935  0.1167  0.3558
  335MOL0     O46100   9.208   5.131   8.790 -0.1608  0.1888  0.2228
  335MOL0     C46101   9.151   5.116   8.918  0.6525 -0.4612 -0.3196
  335MOL0     C46102   9.267   5.117   9.009  0.1886 -0.4871  0.2147
  335MOL0     C46103   9.216   5.085   9.151  0.1102  0.0588  0.0488
  335MOL0     C46104   9.342   5.105   9.242  1.0652  0.0999  0.9209
  335MOL0     C46105   9.315   5.049   9.383  0.1253 -0.3614 -1.7524
  335MOL0     C46106   9.221   5.146   9.460  0.2112  0.7034 -1.0142
  335MOL0     C46107   9.238   5.131   9.613 -0.5875  0.3814 -0.6148
  335MOL0     C46108   9.146   5.230   9.697  0.3720  0.0117  0.1070
  335MOL0     N46109   9.212   5.356   9.718  0.0110  0.7529  0.4419
  335MOL0     C46110   9.291   5.394   9.827  0.0053  0.6318 -0.1025
  335MOL0     C46111   9.318   5.528   9.806  0.4354  0.9413  0.6232
  335MOL0     C46112   9.395   5.601   9.912  0.1880  0.2732 -0.5570
  335MOL0     C46113   9.549   5.582   9.881 -1.5336  0.1931  0.2347
  335MOL0     C46114   9.587   5.677   9.757 -0.2451  0.5057 -0.3033
  335MOL0     C46115   9.734   5.699   9.756  0.4369  0.1435 -0.0561
  335MOL0     O46116   9.769   5.815   9.833 -0.5782 -0.8600  0.3495
  335MOL0     C46117   9.901   5.849   9.872 -0.2234 -0.0169  0.1688
  335MOL0     C46118   9.975   5.892   9.771 -0.1662  0.1722  0.0203
  335MOL0     C46119  10.109   5.924   9.793  0.2011 -0.5073 -0.3134
  335MOL0     C46120  10.190   5.951   9.666  0.2281 -0.1399  0.4000
  335MOL0     C46121  10.157   5.925   9.924 -0.2355 -0.4756  0.6485
  335MOL0     C46122  10.297   5.948   9.956  0.0535  0.6402 -1.3064
  335MOL0     O46123  10.373   6.032   9.885 -0.3963  0.0089  0.4738
  335MOL0     C46124  10.509   6.043   9.884 -0.8526 -0.4042  0.6055
  335MOL0     C46125  10.599   6.017   9.991  0.5227  0.7524 -0.3896
  335MOL0     C46126  10.725   6.066   9.993  0.5695 -0.9077  0.6160
  335MOL0     C46127  10.781   6.139   9.890 -0.3867  0.3681 -0.2620
  335MOL0     O46128  10.909   6.188   9.914 -0.0917 -0.0470  0.0096
  335MOL0     C46129  10.985   6.232   9.801  0.6355  1.1064 -0.3622
  335MOL0     C46130  11.122   6.270   9.832  0.3856  0.1657  0.1043
  335MOL0     C46131  11.203   6.275   9.701 -0.1029 -0.1473  0.0939
  335MOL0     C46132  11.357   6.297   9.725  0.8078  0.3597  0.2148
  335MOL0     C46133  11.426   6.267   9.592 -1.1972  0.2110  0.2039
  335MOL0     C46134  11.571   6.321   9.589 -0.6587  0.6994  0.1233
  335MOL0     C46135  11.659   6.214   9.655 -0.5777 -0.3276  0.1448
  335MOL0     C46136  11.804   6.254   9.606  0.8228 -0.4434 -0.4480
  335MOL0    Cl46137  11.861   6.413   9.672  0.2646 -0.1655  0.3619
  335MOL0     C46138  10.704   6.145   9.774 -0.4711  0.2542  0.4080
  335MOL0     C46139  10.569   6.108   9.775 -0.5055  0.3410 -0.6014
  335MOL0     O46140  10.339   5.878  10.050  0.0132  0.8226  0.1772
  335MOL0     C46141  10.066   5.890  10.023  0.5644 -0.0016  0.1477
  335MOL0     C46142   9.935   5.852  10.003 -0.5711 -0.4388 -0.2048
  335MOL0     N46143   9.246   5.566   9.692 -0.2837  0.1889 -0.5415
  335MOL0     N46144   9.180   5.462   9.640 -1.1564 -0.1596  0.6206
  335MOL0     C46145   8.984   5.131   8.692  0.5125  0.1819 -0.4845
  335MOL0     C46146   8.902   5.108   8.574 -0.1015  0.0479  0.6264
  335MOL0     C46147   8.700   5.115   8.178 -0.1437  0.4899 -0.2029
  335MOL0     C46148   8.610   5.213   8.150  1.2428  0.0161  1.0368
  335MOL0     C46149   8.488   5.184   8.075  1.1032 -0.3704  0.2420
  335MOL0     C46150   8.473   5.061   8.013 -0.1132  0.1180  0.2831
  335MOL0     O46151   8.363   5.009   7.935 -0.2849  0.1399 -0.8247
  335MOL0     C46152   8.251   5.091   7.926  0.2515  0.1979 -0.5642
  335MOL0     C46153   8.118   5.038   7.864 -0.9448 -0.6987 -0.7712
  335MOL0     C46154   8.068   4.910   7.928 -0.2391  0.0803 -0.6757
  335MOL0     C46155   8.142   4.782   7.876  0.3075 -0.8590  0.5516
  335MOL0     C46156   8.069   4.736   7.760 -0.9693  0.2060 -0.4281
  335MOL0     C46157   8.012   4.695   7.665 -0.5153  0.4571  0.5331
  335MOL0     C46158   8.570   4.966   8.031  0.1876  0.4678 -0.4647
  335MOL0     C46159   8.685   4.990   8.115  1.4847 -0.4753  0.4243
  335MOL0     C46160   8.781   4.873   8.133 -0.0676 -0.1052 -0.0878
  335MOL0     H46161   9.150   5.054   8.356 -0.2856  2.1620  0.1397
  335MOL0     H46162   9.277   5.083   8.554  0.2501 -1.2218  2.1794
  335MOL0     H46163   9.088   5.027   8.929 -0.3697  0.4592  1.8190
  335MOL0     H46164   9.084   5.196   8.951  1.8680 -0.3433  2.1329
  335MOL0     H46165   9.340   5.041   8.979  0.0354 -1.2329  1.6351
  335MOL0     H46166   9.322   5.211   9.003  0.9205 -0.7399  2.2852
  335MOL0     H46167   9.136   5.156   9.175  1.0564  0.2592  3.0223
  335MOL0     H46168   9.182   4.982   9.165 -0.2210  0.2181  0.4443
  335MOL0     H46169   9.432   5.055   9.204 -0.5180 -0.8260 -1.9518
  335MOL0     H46170   9.364   5.211   9.255  2.0927 -0.2951  2.7671
  335MOL0     H46171   9.414   5.033   9.427 -1.4291 -2.5103  1.2931
  335MOL0     H46172   9.268   4.951   9.371 -0.6065 -0.2845  0.1172
  335MOL0     H46173   9.262   5.240   9.422 -1.8546  2.3644  0.6737
  335MOL0     H46174   9.114   5.133   9.441  0.4217 -0.9673 -1.2176
  335MOL0     H46175   9.344   5.146   9.636 -0.9132  0.3983  0.9807
  335MOL0     H46176   9.221   5.027   9.643  0.5197 -0.1844 -1.8438
  335MOL0     H46177   9.049   5.254   9.652 -0.2448  2.0809  2.3530
  335MOL0     H46178   9.115   5.193   9.795 -0.1533  1.7521  0.6256
  335MOL0     H46179   9.316   5.337   9.916 -3.8333  1.0745  1.4081
  335MOL0     H46180   9.381   5.574  10.017  0.4074 -3.4920 -1.3336
  335MOL0     H46181   9.364   5.705   9.913  1.1036  0.5965  1.8875
  335MOL0     H46182   9.611   5.611   9.965 -2.1775  1.8600  0.1701
  335MOL0     H46183   9.587   5.485   9.847 -0.5509 -0.0268  1.8601
  335MOL0     H46184   9.566   5.628   9.661  1.3397 -1.4051  0.2747
  335MOL0     H46185   9.538   5.776   9.753  0.1733  1.0862  4.3317
  335MOL0     H46186   9.788   5.616   9.804 -1.7622 -0.8921  0.7726
  335MOL0     H46187   9.764   5.712   9.652  0.2993 -2.6695 -0.5065
  335MOL0     H46188   9.930   5.876   9.673  0.2483  2.5508 -0.6162
  335MOL0     H46189  10.239   6.048   9.676  0.8437 -0.2703 -1.1218
  335MOL0     H46190  10.126   5.966   9.578  1.6794  2.8355 -0.2583
  335MOL0     H46191  10.262   5.870   9.648  1.7319  1.2923 -0.2191
  335MOL0     H46192  10.549   5.972  10.077  0.6397 -0.5996 -1.0027
  335MOL0     H46193  10.783   6.040  10.081 -0.4872 -1.0756  1.2800
  335MOL0     H46194  10.990   6.156   9.723  0.8504  1.3971 -0.6372
  335MOL0     H46195  10.929   6.317   9.759 -1.8015 -0.0464  0.3937
  335MOL0     H46196  11.125   6.368   9.881  2.2009  0.3516 -0.2996
  335MOL0     H46197  11.165   6.203   9.908  0.6268 -1.7843 -1.6698
  335MOL0     H46198  11.168   6.357   9.638  1.3556 -0.6979 -1.5152
  335MOL0     H46199  11.191   6.180   9.648  0.9676  0.2905 -0.9884
  335MOL0     H46200  11.382   6.226   9.805 -1.4801  0.6202  1.2474
  335MOL0     H46201  11.375   6.399   9.760 -2.6345  1.4684 -0.8489
  335MOL0     H46202  11.435   6.160   9.573  1.7367  0.8189 -2.8804
  335MOL0     H46203  11.376   6.312   9.506 -1.9805 -0.7771  0.1288
  335MOL0     H46204  11.575   6.415   9.646 -1.4437  0.6940  0.2103
  335MOL0     H46205  11.596   6.347   9.486  0.1820  1.6550  0.5523
  335MOL0     H46206  11.631   6.117   9.613  2.3297 -2.4437  2.6874
  335MOL0     H46207  11.651   6.197   9.763  0.7201 -1.5642  0.0679
  335MOL0     H46208  11.802   6.274   9.499  1.6702 -0.4212 -0.4661
  335MOL0     H46209  11.870   6.169   9.625  0.2149 -0.8935 -0.2909
  335MOL0     H46210  10.746   6.211   9.699  1.0853 -0.4572  0.6223
  335MOL0     H46211  10.509   6.124   9.686 -0.6542 -4.2093 -1.5623
  335MOL0     H46212  10.101   5.869  10.123  2.6692 -1.5662 -0.8199
  335MOL0     H46213   9.876   5.814  10.086  1.6062  0.0837  1.6909
  335MOL0     H46214   8.944   5.170   8.785  3.7717 -1.7842  1.9881
  335MOL0     H46215   8.798   5.122   8.599  0.1754 -0.2735  2.0264
  335MOL0     H46216   8.613   5.305   8.207  1.3459  0.0849  0.9192
  335MOL0     H46217   8.425   5.269   8.052  0.6174 -1.4485 -2.9687
  335MOL0     H46218   8.240   5.126   8.029 -1.5429  1.6843 -1.2039
  335MOL0     H46219   8.291   5.177   7.871  2.3559 -1.9326 -2.6248
  335MOL0     H46220   8.148   5.019   7.761  1.7849  0.4105 -0.2498
  335MOL0     H46221   8.034   5.108   7.869 -2.7998 -2.8827  0.6877
  335MOL0     H46222   8.079   4.917   8.037  0.8182  0.4650 -0.7983
  335MOL0     H46223   7.960   4.898   7.922 -0.3252  0.0483  0.6989
  335MOL0     H46224   8.160   4.700   7.947 -0.1793 -0.3191  1.3202
  335MOL0     H46225   8.245   4.811   7.853  0.0588 -0.3974  0.0104
  335MOL0     H46226   7.966   4.653   7.579  2.8262  2.2336 -2.4185
  335MOL0     H46227   8.553   4.865   7.994 -1.6710  0.4826  0.2590
  335MOL0     H46228   8.881   4.891   8.092  1.2612 -1.1216  2.4603
  335MOL0     H46229   8.784   4.849   8.240  0.1872 -0.7853 -0.2419
  335MOL0     H46230   8.740   4.782   8.088  2.6981 -2.2440  1.3327
  336MOL0     O46231   7.236   0.558   7.457  0.6214  0.3616 -0.2376
  336MOL0     C46232   7.249   0.473   7.374  0.2970  0.5002 -0.2711
  336MOL0     O46233   7.357   0.392   7.371  0.1469 -0.0403  0.5808
  336MOL0     C46234   7.468   0.407   7.449  0.0359 -0.4486 -0.6770
  336MOL0     C46235   7.495   0.492   7.563 -0.0468 -1.7575  1.3041
  336MOL0     C46236   7.605   0.475   7.638 -0.4530 -0.1663  0.0930
  336MOL0     C46237   7.695   0.370   7.604  0.2736 -0.3511 -0.5831
  336MOL0     O46238   7.814   0.365   7.666  0.7636  0.2138 -0.2169
  336MOL0     C46239   7.806   0.281   7.785  0.1870 -0.6196  0.5658
  336MOL0     C46240   7.924   0.310   7.874 -0.0701 -0.3527  0.5640
  336MOL0     C46241   7.907   0.273   8.025  0.3532  0.1441  0.2295
  336MOL0     C46242   8.035   0.316   8.102 -0.0379 -0.0534  0.0684
  336MOL0     C46243   8.047   0.296   8.260  0.3638  0.2464  0.1325
  336MOL0     C46244   8.196   0.319   8.314  0.6568 -0.3465  1.7105
  336MOL0     C46245   8.206   0.283   8.458  0.0622  0.1893 -0.3798
  336MOL0     C46246   8.339   0.304   8.528  0.8161  0.1624  0.3237
  336MOL0     N46247   8.442   0.205   8.490 -0.5285  0.3510  0.8822
  336MOL0     C46248   8.497   0.126   8.582 -0.4511 -0.6162 -0.4271
  336MOL0     C46249   8.613   0.076   8.518  0.1647  0.0650  0.0292
  336MOL0     C46250   8.723  -0.013   8.554 -0.5416  0.3294 -0.1895
  336MOL0     C46251   8.857   0.058   8.557 -0.8555 -0.3433  0.2909
  336MOL0     C46252   8.899   0.145   8.679 -0.4855  0.0759 -0.2666
  336MOL0     C46253   8.987   0.268   8.654 -0.2411  0.1142  0.0062
  336MOL0     O46254   9.114   0.236   8.595 -0.4123  0.5974 -0.6740
  336MOL0     C46255   9.219   0.329   8.599  0.8782 -0.1458  0.2755
  336MOL0     C46256   9.224   0.451   8.665  0.0024 -0.6568 -0.0655
  336MOL0     C46257   9.343   0.528   8.663  0.0287 -0.1604  0.0792
  336MOL0     C46258   9.341   0.655   8.746 -0.9995  0.0185  0.3443
  336MOL0     C46259   9.461   0.487   8.583  1.0083 -0.0667  0.7022
  336MOL0     C46260   9.588   0.561   8.563 -0.9265 -0.1591 -0.9395
  336MOL0     O46261   9.679   0.514   8.459 -0.4288 -0.4642 -0.6609
  336MOL0     C46262   9.802   0.576   8.457 -0.1846 -0.6928  0.5893
  336MOL0     C46263   9.919   0.515   8.501  0.0067 -0.3543  0.2085
  336MOL0     C46264  10.042   0.575   8.492 -0.7152 -0.9686 -0.2112
  336MOL0     C46265  10.046   0.708   8.430  0.8505 -0.8584  1.0522
  336MOL0     O46266  10.154   0.793   8.427 -0.7676  0.0411 -0.0188
  336MOL0     C46267  10.285   0.749   8.446 -0.5653 -0.3108  0.1995
  336MOL0     C46268  10.376   0.862   8.464  0.5101 -0.8475  0.7691
  336MOL0     C46269  10.329   0.949   8.575 -0.1829  0.1737 -0.5045
  336MOL0     C46270  10.400   1.090   8.578 -0.3860 -0.2035  0.6850
  336MOL0     C46271  10.334   1.186   8.478  0.4661  0.4742 -0.2249
  336MOL0     C46272  10.390   1.325   8.470  0.1968 -0.3822 -0.0341
  336MOL0     C46273  10.539   1.321   8.433 -0.1451 -0.7805  0.0808
  336MOL0     C46274  10.619   1.454   8.428 -0.0966 -0.2843  0.2609
  336MOL0    Cl46275  10.529   1.570   8.310 -0.3495  0.3106  0.0171
  336MOL0     C46276   9.920   0.764   8.389 -0.3009 -0.2192  0.1280
  336MOL0     C46277   9.800   0.693   8.392  0.1970  0.5775  0.3764
  336MOL0     O46278   9.627   0.633   8.653  0.5939 -0.2850  0.4397
  336MOL0     C46279   9.457   0.360   8.530  0.0782  0.0601 -0.0776
  336MOL0     C46280   9.337   0.283   8.534  0.7313 -0.9843 -0.1623
  336MOL0     N46281   8.601   0.120   8.384 -0.2001  0.8099  0.0975
  336MOL0     N46282   8.502   0.196   8.366 -0.8893 -0.5177  0.0483
  336MOL0     C46283   7.663   0.286   7.493  0.3089 -0.9079 -0.5972
  336MOL0     C46284   7.559   0.306   7.413  0.4531  0.1053 -0.3617
  336MOL0     C46285   7.145   0.470   7.261 -1.4452 -0.3779 -0.6357
  336MOL0     C46286   7.182   0.416   7.138 -0.3136 -0.6763  0.6813
  336MOL0     C46287   7.109   0.424   7.020 -0.5855  0.2556 -0.4290
  336MOL0     C46288   6.979   0.478   7.027 -0.4902 -0.3132 -0.9755
  336MOL0     O46289   6.886   0.489   6.928  0.9103 -0.2991 -0.0860
  336MOL0     C46290   6.927   0.469   6.793 -1.3681  0.2184  0.8268
  336MOL0     C46291   6.821   0.511   6.698  0.1487 -0.2683  0.4096
  336MOL0     C46292   6.769   0.654   6.731  0.0620  0.7188 -0.0799
  336MOL0     C46293   6.657   0.710   6.637  0.4574 -0.2091  0.1244
  336MOL0     C46294   6.627   0.852   6.674  0.1545  0.1995  0.5399
  336MOL0     C46295   6.593   0.969   6.679 -0.0022  0.8008 -0.2637
  336MOL0     C46296   6.930   0.517   7.152  0.7062  0.2218 -0.5628
  336MOL0     C46297   7.011   0.522   7.264 -0.7215  0.2664  0.0636
  336MOL0     C46298   6.946   0.583   7.380 -0.0368  0.6988 -0.2324
  336MOL0     H46299   7.447   0.586   7.588  2.3143 -0.6186  1.9231
  336MOL0     H46300   7.637   0.537   7.721  1.4791 -1.9187  0.7475
  336MOL0     H46301   7.799   0.174   7.762  0.2891 -0.7004  0.9082
  336MOL0     H46302   7.720   0.304   7.849 -0.1801  1.5990 -0.6293
  336MOL0     H46303   8.011   0.255   7.837 -0.8067  0.1645 -2.1481
  336MOL0     H46304   7.931   0.419   7.874  0.4746 -0.3102 -2.3669
  336MOL0     H46305   7.816   0.315   8.069 -0.8696 -1.7627 -0.3741
  336MOL0     H46306   7.882   0.167   8.039  2.2145 -0.5887 -1.4959
  336MOL0     H46307   8.132   0.288   8.059  1.1721  1.9798  1.2759
  336MOL0     H46308   8.037   0.425   8.091 -2.0700 -0.1374 -1.6136
  336MOL0     H46309   8.020   0.192   8.278  2.5667  0.0662  2.8991
  336MOL0     H46310   7.983   0.365   8.316 -0.6859  0.7604 -1.6125
  336MOL0     H46311   8.251   0.259   8.242 -2.0685 -1.8374  0.7254
  336MOL0     H46312   8.224   0.423   8.293 -2.5737  0.2023 -0.6419
  336MOL0     H46313   8.168   0.181   8.464 -1.9123  0.9115  0.4298
  336MOL0     H46314   8.132   0.346   8.508  0.0492  1.1824 -1.6053
  336MOL0     H46315   8.366   0.407   8.505 -2.4930  1.2306  0.7119
  336MOL0     H46316   8.322   0.300   8.636 -0.2801 -3.2849  0.1424
  336MOL0     H46317   8.461   0.115   8.684  1.1810 -1.2768  0.1200
  336MOL0     H46318   8.723  -0.090   8.477  0.6690  0.2981 -0.1713
  336MOL0     H46319   8.699  -0.057   8.652 -2.1580  1.4027 -0.0691
  336MOL0     H46320   8.921  -0.031   8.556  0.6027  0.6239  2.0767
  336MOL0     H46321   8.876   0.115   8.465  0.7414  0.0087  0.8168
  336MOL0     H46322   8.806   0.170   8.730 -0.7645  0.5167 -0.9663
  336MOL0     H46323   8.958   0.088   8.751 -1.8586  1.2712  1.9080
  336MOL0     H46324   8.934   0.334   8.585 -0.7176 -1.1858 -0.9071
  336MOL0     H46325   8.997   0.317   8.751 -0.5067 -2.5670  1.4761
  336MOL0     H46326   9.144   0.478   8.734  0.5345 -0.5698  0.5316
  336MOL0     H46327   9.380   0.742   8.692  0.3643 -0.3547  0.6882
  336MOL0     H46328   9.402   0.647   8.836  0.7645  1.1468 -0.6786
  336MOL0     H46329   9.237   0.679   8.770 -1.4417 -0.9241 -0.5496
  336MOL0     H46330   9.902   0.421   8.553  3.2983  0.0415  2.2256
  336MOL0     H46331  10.138   0.526   8.507  0.3815  0.2650 -2.6282
  336MOL0     H46332  10.288   0.686   8.535  1.8509 -0.9326 -0.2645
  336MOL0     H46333  10.316   0.690   8.360 -1.0868  0.3284 -0.4445
  336MOL0     H46334  10.478   0.827   8.482  1.4558  1.5197  0.4082
  336MOL0     H46335  10.382   0.919   8.370 -0.2464  1.5878  2.1079
  336MOL0     H46336  10.355   0.908   8.673 -0.3511 -0.5679 -0.7680
  336MOL0     H46337  10.222   0.971   8.564 -0.0224  0.2187 -2.1208
  336MOL0     H46338  10.508   1.080   8.564 -0.2872  0.3033  1.0850
  336MOL0     H46339  10.387   1.128   8.679 -0.0348  0.6863  0.4051
  336MOL0     H46340  10.328   1.150   8.375 -2.9983 -0.6350  0.2579
  336MOL0     H46341  10.228   1.190   8.505  0.2663  0.1157 -0.9224
  336MOL0     H46342  10.364   1.368   8.567 -2.2841 -0.0423 -0.7849
  336MOL0     H46343  10.336   1.376   8.390  0.3168  0.3875  0.3707
  336MOL0     H46344  10.552   1.269   8.338 -0.2749 -1.1449  0.2605
  336MOL0     H46345  10.588   1.264   8.513  2.0207 -1.2049 -1.4481
  336MOL0     H46346  10.718   1.437   8.385  1.2050  0.1424  2.8854
  336MOL0     H46347  10.627   1.482   8.533 -0.1267 -2.7548  0.9908
  336MOL0     H46348   9.906   0.869   8.367  1.5336  0.2408  0.9464
  336MOL0     H46349   9.709   0.745   8.364 -0.3123 -0.4383  0.1053
  336MOL0     H46350   9.543   0.318   8.480  0.0569  2.8003 -2.7033
  336MOL0     H46351   9.318   0.197   8.471 -0.0419 -1.6635  0.9640
  336MOL0     H46352   7.729   0.203   7.473 -0.5568 -2.3282  2.0025
  336MOL0     H46353   7.557   0.246   7.322 -0.5987  0.3903 -0.5421
  336MOL0     H46354   7.276   0.361   7.143 -1.6068 -3.0546  0.1415
  336MOL0     H46355   7.135   0.381   6.924 -0.8918 -1.0208  0.0357
  336MOL0     H46356   7.021   0.518   6.765  0.7023 -2.6096  2.3528
  336MOL0     H46357   6.938   0.361   6.785  0.3355  0.3726  0.6600
  336MOL0     H46358   6.739   0.442   6.719 -1.2804  0.7799 -1.3999
  336MOL0     H46359   6.831   0.492   6.591 -3.6013 -2.5239  0.2852
  336MOL0     H46360   6.718   0.648   6.828 -0.6114 -1.0400 -0.5060
  336MOL0     H46361   6.861   0.715   6.733  0.3094  0.3311  0.8790
  336MOL0     H46362   6.561   0.657   6.641 -0.2646  1.1046  0.8286
  336MOL0     H46363   6.692   0.721   6.535 -1.5521 -3.2627 -1.0469
  336MOL0     H46364   6.579   1.075   6.675  1.4767  1.0281 -0.1196
  336MOL0     H46365   6.827   0.552   7.162  0.9167  0.3303  1.6668
  336MOL0     H46366   6.838   0.598   7.375 -0.1175  0.0795 -0.5119
  336MOL0     H46367   6.941   0.517   7.467 -0.5942  1.5063  0.3615
  336MOL0     H46368   6.998   0.671   7.416  1.5323 -0.4456  0.4201
  337MOL0     O46369   6.483   6.525   3.036 -0.3614 -0.2018  0.3214
  337MOL0     C46370   6.589   6.486   3.088  0.6910 -0.6342  0.0680
  337MOL0     O46371   6.641   6.363   3.071 -0.3782 -0.0842  0.7333
  337MOL0     C46372   6.603   6.284   2.958 -0.2960  0.2832 -0.0964
  337MOL0     C46373   6.554   6.324   2.838 -0.6444  0.0747  0.0613
  337MOL0     C46374   6.516   6.234   2.735 -0.4875 -0.0217  0.2788
  337MOL0     C46375   6.538   6.099   2.750  0.0888 -0.9719 -1.0414
  337MOL0     O46376   6.513   6.019   2.648 -0.1732 -0.4253  0.1139
  337MOL0     C46377   6.461   5.890   2.674 -0.3067 -1.2310 -0.5498
  337MOL0     C46378   6.401   5.828   2.550  0.6551  0.3626  0.5133
  337MOL0     C46379   6.262   5.883   2.512  0.1769 -0.1200  0.4267
  337MOL0     C46380   6.279   6.000   2.407  0.0884  0.5155  0.1032
  337MOL0     C46381   6.141   6.082   2.390  0.1505  0.0105 -0.7117
  337MOL0     C46382   6.048   5.997   2.293 -0.2140 -0.0016  0.7469
  337MOL0     C46383   5.901   6.041   2.304  0.6833 -1.0018 -0.2006
  337MOL0     C46384   5.886   6.185   2.269  0.1206 -0.4852 -0.2709
  337MOL0     N46385   5.740   6.231   2.255 -0.2570  0.6299  0.3827
  337MOL0     C46386   5.662   6.247   2.367  0.5542  0.3694  0.9433
  337MOL0     C46387   5.536   6.250   2.327  1.1470  0.0231  0.0877
  337MOL0     C46388   5.421   6.242   2.431 -0.3821  0.6610  0.6920
  337MOL0     C46389   5.372   6.092   2.451  0.1737  0.4321  0.9433
  337MOL0     C46390   5.322   6.047   2.579 -1.0358  0.5112 -0.2969
  337MOL0     C46391   5.430   6.007   2.690 -0.4700 -0.3586  0.1234
  337MOL0     O46392   5.488   6.124   2.746 -0.1329  0.3249  0.0412
  337MOL0     C46393   5.581   6.109   2.855  0.2306  0.0822  0.2763
  337MOL0     C46394   5.634   6.226   2.916  0.5029 -0.6097  0.3586
  337MOL0     C46395   5.703   6.221   3.038  0.2461 -0.3274 -0.2806
  337MOL0     C46396   5.752   6.353   3.096 -0.2561 -0.0832 -0.6559
  337MOL0     C46397   5.703   6.098   3.108 -0.3223  1.0649  0.3426
  337MOL0     C46398   5.753   6.080   3.249 -0.0802  0.7908  0.7855
  337MOL0     O46399   5.780   5.947   3.292  0.1686  0.3435 -0.3488
  337MOL0     C46400   5.827   5.926   3.419 -0.5174 -0.1513  0.3454
  337MOL0     C46401   5.962   5.880   3.423 -0.2420 -1.0676 -0.0250
  337MOL0     C46402   6.021   5.832   3.537  0.0262 -0.3463  0.6069
  337MOL0     C46403   5.957   5.836   3.662  0.1478 -0.4111  0.1593
  337MOL0     O46404   6.028   5.799   3.774  0.1262  0.2881  0.2958
  337MOL0     C46405   5.988   5.679   3.840 -0.2432 -0.4457  0.0139
  337MOL0     C46406   6.098   5.656   3.946 -0.7586 -0.2178 -0.2022
  337MOL0     C46407   6.118   5.518   3.996  0.4074  0.1345 -0.8358
  337MOL0     C46408   6.148   5.529   4.148  0.5809  0.0264 -0.3460
  337MOL0     C46409   6.207   5.408   4.223  0.5087  1.5587 -0.1212
  337MOL0     C46410   6.259   5.447   4.360  0.2879 -0.1827  0.4610
  337MOL0     C46411   6.293   5.331   4.441 -0.5051  0.7636  0.1062
  337MOL0     C46412   6.355   5.359   4.577 -1.0627  0.0311 -0.4398
  337MOL0    Cl46413   6.496   5.456   4.553 -0.0382  0.0168 -0.3688
  337MOL0     C46414   5.821   5.881   3.668 -0.0614 -0.4474  0.1361
  337MOL0     C46415   5.755   5.917   3.543  0.5122  0.0244  0.2652
  337MOL0     O46416   5.766   6.172   3.320  0.5935 -0.6165  0.3194
  337MOL0     C46417   5.652   5.980   3.044  0.4741  0.0921 -0.2421
  337MOL0     C46418   5.605   5.983   2.916  0.0835 -0.0871  0.3552
  337MOL0     N46419   5.529   6.242   2.186  0.2629  0.1792 -0.5536
  337MOL0     N46420   5.651   6.229   2.149 -0.0491 -0.6210 -0.5996
  337MOL0     C46421   6.575   6.050   2.877  0.0766 -1.1216  0.4812
  337MOL0     C46422   6.614   6.143   2.972 -0.6740  0.5128  0.1392
  337MOL0     C46423   6.639   6.566   3.208 -0.6359 -0.6010 -0.3652
  337MOL0     C46424   6.779   6.566   3.235 -0.7239  0.3894  0.0401
  337MOL0     C46425   6.834   6.633   3.346 -0.0185 -0.0014 -0.1437
  337MOL0     C46426   6.748   6.700   3.437 -0.1680 -0.6766 -0.1169
  337MOL0     O46427   6.791   6.777   3.543  0.3059  0.5959  0.2156
  337MOL0     C46428   6.919   6.760   3.591  0.0245  1.0293 -0.3709
  337MOL0     C46429   6.937   6.622   3.674 -0.1230  0.2029 -0.4882
  337MOL0     C46430   6.821   6.599   3.776 -0.0348  0.2781  0.3433
  337MOL0     C46431   6.844   6.463   3.839 -0.0901  0.4088  0.3005
  337MOL0     C46432   6.745   6.443   3.951  0.1925  0.4403  0.1549
  337MOL0     C46433   6.654   6.433   4.034 -1.0002 -0.7273  0.7277
  337MOL0     C46434   6.612   6.700   3.417  0.2737  0.5059 -0.2599
  337MOL0     C46435   6.555   6.638   3.305  0.0923  0.0382 -0.5428
  337MOL0     C46436   6.403   6.653   3.298 -0.9583 -0.0591 -0.5136
  337MOL0     H46437   6.532   6.431   2.834 -1.7955 -0.1061  1.1648
  337MOL0     H46438   6.498   6.268   2.634 -1.7917  0.4622  0.6545
  337MOL0     H46439   6.386   5.894   2.753 -0.2208  2.2142 -0.5037
  337MOL0     H46440   6.538   5.822   2.710  0.3875  0.1719  0.7323
  337MOL0     H46441   6.474   5.830   2.468  0.3849 -0.0798  0.2533
  337MOL0     H46442   6.393   5.719   2.561  0.4439  0.4918  1.8122
  337MOL0     H46443   6.201   5.805   2.465 -0.1878 -0.4501  1.4405
  337MOL0     H46444   6.210   5.915   2.603 -0.6130  0.4965 -0.2179
  337MOL0     H46445   6.346   6.077   2.446 -0.3308  1.1138 -0.3235
  337MOL0     H46446   6.311   5.957   2.311 -2.7603 -2.9827  0.4860
  337MOL0     H46447   6.144   6.187   2.360 -2.8008  1.4184  3.1687
  337MOL0     H46448   6.099   6.095   2.490  0.7548  0.7674 -0.5500
  337MOL0     H46449   6.078   6.003   2.188  4.0325 -1.5518  1.6627
  337MOL0     H46450   6.058   5.891   2.318 -0.7820 -0.4459 -0.7974
  337MOL0     H46451   5.879   6.020   2.409 -2.3684 -0.5534 -0.6651
  337MOL0     H46452   5.830   5.989   2.240 -3.7599  0.4598  3.0343
  337MOL0     H46453   5.929   6.248   2.347  1.2054 -0.7472 -0.6392
  337MOL0     H46454   5.936   6.200   2.173 -1.4364 -2.6763 -1.5203
  337MOL0     H46455   5.702   6.241   2.469  0.7976  0.3287  0.8476
  337MOL0     H46456   5.333   6.295   2.392 -1.0676 -0.0987  1.1574
  337MOL0     H46457   5.446   6.284   2.529 -1.2678 -0.3217  1.3755
  337MOL0     H46458   5.302   6.067   2.371 -0.4034  0.4986  1.4170
  337MOL0     H46459   5.464   6.035   2.440 -1.0098 -1.3701 -0.2508
  337MOL0     H46460   5.251   6.122   2.617 -1.7268  0.2848 -1.0965
  337MOL0     H46461   5.255   5.964   2.553 -3.1731  1.5022  1.6677
  337MOL0     H46462   5.371   5.957   2.766 -0.2760  0.8439  1.1026
  337MOL0     H46463   5.516   5.948   2.657  1.5645  1.5033  1.7643
  337MOL0     H46464   5.628   6.325   2.873 -0.6166  0.0462  1.8905
  337MOL0     H46465   5.845   6.336   3.151 -2.3399 -1.4240  2.7246
  337MOL0     H46466   5.673   6.396   3.159  1.3572  1.8994  0.1486
  337MOL0     H46467   5.775   6.426   3.018  0.8160  0.1887 -0.1060
  337MOL0     H46468   6.015   5.874   3.328  2.4792 -0.4324  1.3561
  337MOL0     H46469   6.121   5.797   3.513 -0.2575  0.3307 -1.7544
  337MOL0     H46470   5.892   5.676   3.893  0.3961  0.3280  1.2653
  337MOL0     H46471   5.988   5.594   3.771 -1.5483  0.5642 -1.2847
  337MOL0     H46472   6.199   5.681   3.913  0.7347 -3.2636  1.6193
  337MOL0     H46473   6.073   5.733   4.020  0.2944  0.5986 -0.6648
  337MOL0     H46474   6.206   5.481   3.942  0.6845 -0.1250 -0.2173
  337MOL0     H46475   6.030   5.454   3.986  1.0816 -0.9623  0.0885
  337MOL0     H46476   6.057   5.568   4.196  0.6703  2.1799 -1.7774
  337MOL0     H46477   6.218   5.613   4.154 -2.3328  2.5343  2.2008
  337MOL0     H46478   6.136   5.325   4.234  1.4419  0.9474  1.5795
  337MOL0     H46479   6.283   5.355   4.164  0.5105 -1.5838  2.4266
  337MOL0     H46480   6.190   5.519   4.406  2.9001 -0.5454  5.7195
  337MOL0     H46481   6.353   5.501   4.346 -0.1961  0.6448  0.3590
  337MOL0     H46482   6.360   5.278   4.373 -1.4829 -0.4582  0.0653
  337MOL0     H46483   6.207   5.266   4.456 -0.3155 -0.0698 -2.0921
  337MOL0     H46484   6.381   5.265   4.628  2.1179 -0.9775 -3.5308
  337MOL0     H46485   6.279   5.409   4.638 -3.0972 -1.7416 -1.3627
  337MOL0     H46486   5.779   5.871   3.768 -1.0594  3.5481  0.2661
  337MOL0     H46487   5.648   5.933   3.545 -0.0711 -3.3081  0.4722
  337MOL0     H46488   5.669   5.879   3.081  0.8818 -1.0733 -3.2969
  337MOL0     H46489   5.576   5.888   2.873 -0.6513 -0.4565  1.6399
  337MOL0     H46490   6.580   5.946   2.907 -0.6975 -0.7616  1.9370
  337MOL0     H46491   6.643   6.105   3.069 -2.0194  1.9444  1.1429
  337MOL0     H46492   6.854   6.515   3.174 -1.3929  2.3266 -2.6052
  337MOL0     H46493   6.942   6.641   3.349  0.2408 -0.8082 -3.5079
  337MOL0     H46494   6.982   6.766   3.502 -0.5853  2.0196 -0.7426
  337MOL0     H46495   6.944   6.846   3.653  1.8680 -0.5647  1.2128
  337MOL0     H46496   7.033   6.608   3.725  0.1094  0.4356 -0.8606
  337MOL0     H46497   6.932   6.544   3.598 -0.2746 -1.2870  0.9889
  337MOL0     H46498   6.828   6.680   3.849  2.2814  0.4606 -0.0100
  337MOL0     H46499   6.724   6.601   3.723 -0.8901  0.5239  1.8738
  337MOL0     H46500   6.948   6.475   3.871  0.0880  2.9002 -0.9141
  337MOL0     H46501   6.838   6.373   3.777  0.2566 -0.6701  1.7819
  337MOL0     H46502   6.570   6.428   4.100 -0.5703  1.0545  1.4649
  337MOL0     H46503   6.552   6.763   3.482  0.5929  0.3159  0.2297
  337MOL0     H46504   6.361   6.662   3.399 -2.1432 -0.0190 -1.0007
  337MOL0     H46505   6.370   6.744   3.247 -1.8299  0.3650  0.7455
  337MOL0     H46506   6.350   6.568   3.253  0.6558 -0.1681 -2.3173
  338MOL0     O46507   5.463   9.253   4.365  0.5097  0.1204  0.2952
  338MOL0     C46508   5.380   9.298   4.443 -0.7152 -0.2696 -0.1905
  338MOL0     O46509   5.250   9.311   4.418 -0.7229 -0.7943  0.0432
  338MOL0     C46510   5.213   9.325   4.287 -0.2437  0.9579 -0.3571
  338MOL0     C46511   5.236   9.435   4.196 -0.4529  0.1863 -0.1788
  338MOL0     C46512   5.180   9.425   4.067  0.8000  0.4686  0.0700
  338MOL0     C46513   5.107   9.310   4.020 -0.4352 -0.4899 -0.1543
  338MOL0     O46514   5.051   9.304   3.894 -0.4431 -0.4243  0.8119
  338MOL0     C46515   5.115   9.358   3.771  0.4955  0.7008 -0.9554
  338MOL0     C46516   5.035   9.302   3.653 -1.1483 -0.3754  0.1078
  338MOL0     C46517   4.933   9.404   3.602  0.1986 -0.9252 -0.1168
  338MOL0     C46518   4.851   9.478   3.708 -0.1298  0.3174  0.6328
  338MOL0     C46519   4.745   9.557   3.638  0.2856 -1.0594  0.0064
  338MOL0     C46520   4.628   9.494   3.554 -0.3210 -0.6547  0.5376
  338MOL0     C46521   4.520   9.599   3.518  0.2188  0.4177  0.0774
  338MOL0     C46522   4.436   9.541   3.408 -0.0125  0.0403 -0.1769
  338MOL0     N46523   4.344   9.654   3.361  0.3061  0.9599  0.3256
  338MOL0     C46524   4.237   9.711   3.438 -0.3721  0.1675 -0.1367
  338MOL0     C46525   4.217   9.828   3.371 -1.0385 -0.4487  0.1465
  338MOL0     C46526   4.141   9.953   3.412  0.2272 -0.3669 -0.0096
  338MOL0     C46527   4.230  10.049   3.489 -0.1532 -0.1670 -0.6932
  338MOL0     C46528   4.325   9.984   3.592  0.4660  0.5833  0.1473
  338MOL0     C46529   4.415  10.086   3.657  0.8898 -0.1780 -0.1502
  338MOL0     O46530   4.518  10.130   3.567  0.1681  0.3938 -0.8939
  338MOL0     C46531   4.645  10.081   3.579 -0.7156 -0.1462  1.3534
  338MOL0     C46532   4.739  10.170   3.528  0.3699 -0.4898 -0.6139
  338MOL0     C46533   4.874  10.138   3.542 -0.4044 -0.1683  0.2674
  338MOL0     C46534   4.983  10.234   3.483 -0.8572 -0.5609 -0.3485
  338MOL0     C46535   4.911  10.007   3.592 -0.4942  0.3238 -0.5448
  338MOL0     C46536   5.052   9.945   3.592 -0.5300  0.3565 -0.3184
  338MOL0     O46537   5.144   9.985   3.504 -0.4246 -0.1825  0.3601
  338MOL0     C46538   5.277   9.947   3.506  0.4825  0.4951  0.8104
  338MOL0     C46539   5.361   9.956   3.616  0.3355  0.0221 -0.3752
  338MOL0     C46540   5.495   9.921   3.604 -1.3816  0.0120  0.8157
  338MOL0     C46541   5.547   9.857   3.485  0.6777 -0.9569  1.0288
  338MOL0     O46542   5.678   9.810   3.474 -1.4036  0.2000 -0.1835
  338MOL0     C46543   5.756   9.805   3.593  0.4845 -0.0389 -0.2823
  338MOL0     C46544   5.904   9.745   3.583  0.5216  0.2887  0.3152
  338MOL0     C46545   5.912   9.625   3.482 -0.1753  0.0833 -0.4947
  338MOL0     C46546   6.065   9.564   3.457  0.1943 -1.2228  0.1624
  338MOL0     C46547   6.135   9.477   3.567  0.6921 -0.9578 -0.7811
  338MOL0     C46548   6.050   9.349   3.596 -0.3460 -0.7558 -0.9047
  338MOL0     C46549   6.042   9.246   3.485  0.7844 -0.1401  0.7972
  338MOL0     C46550   5.967   9.117   3.523 -1.2550 -0.6906  0.0227
  338MOL0    Cl46551   5.802   9.160   3.573  0.1645 -0.2372 -0.2216
  338MOL0     C46552   5.456   9.846   3.377  0.2409  0.5539 -0.3191
  338MOL0     C46553   5.331   9.902   3.382 -0.0576  0.2024  0.4865
  338MOL0     O46554   5.073   9.856   3.677 -0.1274  0.3241 -0.7561
  338MOL0     C46555   4.810   9.920   3.641  1.0870  0.0994 -0.6634
  338MOL0     C46556   4.677   9.954   3.633  0.2154 -0.6875 -0.3748
  338MOL0     N46557   4.299   9.826   3.254  0.0232  0.0919  0.0154
  338MOL0     N46558   4.378   9.719   3.244 -0.5350 -0.5481 -0.8541
  338MOL0     C46559   5.106   9.194   4.104  0.9532 -1.4005  1.2735
  338MOL0     C46560   5.162   9.207   4.229  0.1452 -0.5082  0.3667
  338MOL0     C46561   5.430   9.330   4.586  0.1770  0.9970  0.8501
  338MOL0     C46562   5.555   9.278   4.625  0.0478  0.5414  0.2501
  338MOL0     C46563   5.601   9.305   4.755 -0.7384  0.1843  0.5439
  338MOL0     C46564   5.534   9.386   4.853  0.3992 -0.1834  0.2761
  338MOL0     O46565   5.585   9.411   4.980  0.1779  0.9687  0.3531
  338MOL0     C46566   5.728   9.405   5.005 -0.1920  0.1891  0.1301
  338MOL0     C46567   5.766   9.436   5.146  0.3333 -0.0766  0.2967
  338MOL0     C46568   5.691   9.556   5.194 -0.3709 -0.3141 -0.2989
  338MOL0     C46569   5.737   9.573   5.350 -0.7611  0.7553  0.1335
  338MOL0     C46570   5.871   9.625   5.381 -0.5981 -0.2640 -1.1313
  338MOL0     C46571   5.979   9.670   5.406 -0.1948 -0.0741 -0.8584
  338MOL0     C46572   5.414   9.444   4.804  0.5939 -0.1408  0.3555
  338MOL0     C46573   5.361   9.403   4.681  0.5506 -0.2243 -0.1326
  338MOL0     C46574   5.219   9.468   4.651 -0.1510 -0.3133  0.5333
  338MOL0     H46575   5.282   9.528   4.229  2.5609 -1.4704  0.6455
  338MOL0     H46576   5.199   9.511   4.004 -3.0356  3.4850  2.5232
  338MOL0     H46577   5.213   9.312   3.756 -0.6949 -2.3626 -0.0054
  338MOL0     H46578   5.106   9.468   3.769 -2.0249  0.5505 -2.1151
  338MOL0     H46579   5.106   9.277   3.573 -3.3148 -0.9054 -1.7511
  338MOL0     H46580   4.986   9.212   3.691 -0.1374  0.8596  4.9816
  338MOL0     H46581   4.988   9.482   3.548  0.5588 -1.8198 -1.0807
  338MOL0     H46582   4.882   9.348   3.523 -0.9035  1.2934 -1.0753
  338MOL0     H46583   4.799   9.408   3.774  0.4612  0.4936  1.2878
  338MOL0     H46584   4.913   9.539   3.773  2.0191 -1.3424  0.2425
  338MOL0     H46585   4.785   9.634   3.572 -2.7970  0.3325 -0.4061
  338MOL0     H46586   4.702   9.616   3.719  0.3812  0.6879 -1.1602
  338MOL0     H46587   4.676   9.457   3.463 -0.1592  5.0233 -2.1477
  338MOL0     H46588   4.581   9.410   3.605 -1.0097 -0.3824  0.3545
  338MOL0     H46589   4.562   9.693   3.480 -1.1336  1.1570  0.3342
  338MOL0     H46590   4.454   9.623   3.602 -0.9565 -1.4466 -0.2589
  338MOL0     H46591   4.504   9.510   3.328  0.9826  2.4714 -0.3453
  338MOL0     H46592   4.385   9.450   3.441  1.4881  0.1592  2.7307
  338MOL0     H46593   4.190   9.670   3.527 -1.2329  0.7109 -0.3328
  338MOL0     H46594   4.050   9.925   3.466 -1.0768  0.0052 -1.9273
  338MOL0     H46595   4.104  10.004   3.323  1.3082 -3.1953 -2.2632
  338MOL0     H46596   4.290  10.104   3.415 -0.8031  3.9050  1.5499
  338MOL0     H46597   4.173  10.122   3.546 -0.5364  0.7370 -2.1668
  338MOL0     H46598   4.261   9.935   3.666 -0.6341 -0.0097 -1.1447
  338MOL0     H46599   4.384   9.905   3.543 -1.4477 -1.2026  0.5750
  338MOL0     H46600   4.360  10.175   3.690  3.8346  1.2385  1.3303
  338MOL0     H46601   4.459  10.050   3.750  1.5472  2.6074  0.7201
  338MOL0     H46602   4.697  10.259   3.481  1.0948  0.8135  1.1031
  338MOL0     H46603   5.053  10.261   3.563  1.0461  0.1637 -2.1595
  338MOL0     H46604   4.938  10.328   3.449 -0.3463 -0.8700 -1.9753
  338MOL0     H46605   5.029  10.185   3.397  0.2758 -0.1548  0.0097
  338MOL0     H46606   5.326  10.008   3.704  0.7573  1.0543 -0.8066
  338MOL0     H46607   5.574   9.924   3.679 -0.1708 -3.2896 -0.1564
  338MOL0     H46608   5.757   9.911   3.622 -0.1759 -0.1105  0.0112
  338MOL0     H46609   5.706   9.740   3.665  1.4589  0.6240  1.0388
  338MOL0     H46610   5.980   9.810   3.538  1.1576  0.3619  1.4812
  338MOL0     H46611   5.924   9.700   3.680 -0.5853 -0.5008  0.1975
  338MOL0     H46612   5.868   9.663   3.390 -0.8799  0.3482 -0.0560
  338MOL0     H46613   5.853   9.545   3.528 -0.3896  1.0611  1.0177
  338MOL0     H46614   6.127   9.652   3.436 -1.0350 -0.2040  0.6098
  338MOL0     H46615   6.069   9.513   3.361 -0.0091 -1.4444  0.2714
  338MOL0     H46616   6.233   9.445   3.530  0.9814 -0.1825 -0.7098
  338MOL0     H46617   6.151   9.539   3.655 -0.0002 -0.9376 -0.6601
  338MOL0     H46618   5.957   9.383   3.641  0.7131  0.4434  0.4738
  338MOL0     H46619   6.104   9.290   3.671 -1.1031 -3.0792 -2.0804
  338MOL0     H46620   6.141   9.227   3.443  1.5852 -0.3214  2.6645
  338MOL0     H46621   5.986   9.296   3.405  0.3689 -2.1244 -0.2223
  338MOL0     H46622   6.020   9.062   3.602  0.6167 -2.0224 -2.0569
  338MOL0     H46623   5.962   9.058   3.431 -1.1887 -0.2025 -0.2964
  338MOL0     H46624   5.494   9.813   3.280  0.1522 -0.9548  0.1402
  338MOL0     H46625   5.276   9.916   3.289  1.9230  0.8401 -0.6718
  338MOL0     H46626   4.833   9.819   3.675  0.9093  0.6315  1.1473
  338MOL0     H46627   4.609   9.873   3.660 -1.9272  1.0897 -0.0796
  338MOL0     H46628   5.059   9.105   4.065 -3.2606  0.5214  1.4026
  338MOL0     H46629   5.165   9.111   4.278 -1.8560 -0.9202 -0.2358
  338MOL0     H46630   5.619   9.223   4.556 -2.7299  0.7251 -2.6968
  338MOL0     H46631   5.697   9.261   4.779 -1.4721 -1.7071  0.1696
  338MOL0     H46632   5.777   9.318   4.961  0.1524  1.0745 -1.3057
  338MOL0     H46633   5.767   9.482   4.939  2.5888 -1.3472 -0.1942
  338MOL0     H46634   5.872   9.453   5.167 -0.2375  1.6469  2.0923
  338MOL0     H46635   5.728   9.353   5.207  0.0614 -0.3033 -0.1743
  338MOL0     H46636   5.706   9.643   5.131 -2.0065  1.7410  1.9543
  338MOL0     H46637   5.584   9.532   5.199 -0.7752  1.5300  1.9466
  338MOL0     H46638   5.735   9.471   5.391 -0.1564  0.2409 -1.0749
  338MOL0     H46639   5.666   9.638   5.402 -1.4611 -1.4459  2.1074
  338MOL0     H46640   6.077   9.703   5.436 -1.2240  1.9668  0.4959
  338MOL0     H46641   5.350   9.481   4.883  0.0432 -3.9592  1.9329
  338MOL0     H46642   5.195   9.549   4.721 -0.2124  0.1725 -0.0470
  338MOL0     H46643   5.223   9.502   4.547 -1.4680 -3.7182 -0.7959
  338MOL0     H46644   5.130   9.405   4.649 -0.8029  0.6091 -0.0523
  339MOL0     O46645   9.108   3.314   1.025  0.4089  0.3451 -0.4023
  339MOL0     C46646   8.997   3.261   1.035  0.1202 -1.6247 -0.1487
  339MOL0     O46647   8.973   3.128   1.006  0.5436  0.2861  0.1829
  339MOL0     C46648   9.071   3.063   0.938  0.9346 -0.4025 -0.4954
  339MOL0     C46649   9.098   3.087   0.801  0.0648  0.1481  0.0306
  339MOL0     C46650   9.193   3.006   0.730  0.5694  0.4165 -0.1269
  339MOL0     C46651   9.245   2.893   0.793 -0.4776  0.5774 -0.1833
  339MOL0     O46652   9.317   2.804   0.722  0.1096 -0.2555  0.6254
  339MOL0     C46653   9.324   2.664   0.771  0.3622 -0.3260 -0.2015
  339MOL0     C46654   9.377   2.577   0.659  1.2351  0.2994 -0.9569
  339MOL0     C46655   9.500   2.633   0.587 -1.0004 -0.8083  0.5498
  339MOL0     C46656   9.530   2.540   0.476  0.0753 -0.0474  0.2106
  339MOL0     C46657   9.629   2.603   0.378  0.1259 -0.4898 -0.0302
  339MOL0     C46658   9.655   2.512   0.256 -0.1348 -1.0785  0.1899
  339MOL0     C46659   9.751   2.587   0.164  0.0498  0.0190  0.0993
  339MOL0     C46660   9.711   2.540   0.021 -0.9312 -1.0989  0.1150
  339MOL0     N46661   9.845   2.550  -0.049  0.3334  0.5988  0.0579
  339MOL0     C46662   9.910   2.444  -0.120 -0.5800 -0.4851 -0.2410
  339MOL0     C46663  10.004   2.505  -0.197  0.4217 -0.3864  0.1284
  339MOL0     C46664  10.101   2.431  -0.298 -0.7388 -0.3413 -0.4653
  339MOL0     C46665  10.236   2.511  -0.314  0.3610  0.2173  0.1974
  339MOL0     C46666  10.339   2.428  -0.390 -0.1560 -0.6362  0.5855
  339MOL0     C46667  10.347   2.274  -0.358  0.1972 -0.6785  0.0681
  339MOL0     O46668  10.370   2.237  -0.224  0.0587  0.3723 -0.2136
  339MOL0     C46669  10.497   2.203  -0.176  0.6150  0.6694 -0.8180
  339MOL0     C46670  10.611   2.188  -0.257 -0.5719 -0.4418  0.1597
  339MOL0     C46671  10.730   2.134  -0.203 -0.6787 -1.0078  0.3604
  339MOL0     C46672  10.848   2.103  -0.297 -0.5814 -0.0782  0.2027
  339MOL0     C46673  10.744   2.104  -0.064  0.9402 -0.3939 -0.0660
  339MOL0     C46674  10.866   2.070   0.006  0.6965  0.3956 -0.4263
  339MOL0     O46675  10.858   2.008   0.129  0.3257  0.2704 -0.3050
  339MOL0     C46676  10.973   2.011   0.209 -0.4425  0.1623  0.0239
  339MOL0     C46677  11.020   2.132   0.258  0.2413 -0.1944  0.2321
  339MOL0     C46678  11.128   2.144   0.343 -0.0146 -0.0143  0.3766
  339MOL0     C46679  11.195   2.019   0.379 -0.3221 -0.5480  0.0331
  339MOL0     O46680  11.293   2.026   0.472 -1.0089 -0.3686 -0.7275
  339MOL0     C46681  11.398   1.929   0.500  0.3203 -0.8361  0.1287
  339MOL0     C46682  11.513   1.988   0.594  0.8178  0.8031 -0.8214
  339MOL0     C46683  11.614   2.062   0.517 -0.0260 -0.6786 -0.3191
  339MOL0     C46684  11.696   2.152   0.614  0.6475 -0.2143 -0.1680
  339MOL0     C46685  11.777   2.250   0.528 -0.4469 -0.6935  0.0458
  339MOL0     C46686  11.825   2.368   0.603  0.2871 -0.7090 -0.8151
  339MOL0     C46687  11.934   2.451   0.535  0.5075 -0.3370  0.0563
  339MOL0     C46688  12.054   2.359   0.492  0.0312  0.0170  0.4163
  339MOL0    Cl46689  12.105   2.264   0.635 -0.2981 -0.6611  0.4321
  339MOL0     C46690  11.159   1.893   0.322 -0.6529  0.3400 -0.2732
  339MOL0     C46691  11.038   1.894   0.245  0.0975  0.1331  0.6398
  339MOL0     O46692  10.965   2.123  -0.040 -0.4510  0.1726 -0.9123
  339MOL0     C46693  10.626   2.114   0.012 -0.4804  0.3352  0.1661
  339MOL0     C46694  10.505   2.161  -0.042 -0.0353 -0.8021 -0.5624
  339MOL0     N46695   9.987   2.648  -0.172  0.2194 -0.9258 -0.3669
  339MOL0     N46696   9.891   2.667  -0.086  0.5963  0.1320  0.5631
  339MOL0     C46697   9.212   2.873   0.925 -0.1113 -0.6720  0.7742
  339MOL0     C46698   9.126   2.957   0.999  0.2451 -0.3460 -0.4847
  339MOL0     C46699   8.886   3.345   1.096  0.2902  0.0520 -0.1114
  339MOL0     C46700   8.762   3.287   1.099  0.0384 -0.0743  0.0739
  339MOL0     C46701   8.646   3.360   1.143 -0.7414  0.4466  0.4392
  339MOL0     C46702   8.659   3.494   1.185  0.1626  0.1733 -0.0877
  339MOL0     O46703   8.541   3.551   1.224 -0.4284 -0.0096 -0.3185
  339MOL0     C46704   8.539   3.681   1.282 -0.3289 -0.1700  0.4471
  339MOL0     C46705   8.406   3.712   1.360 -0.2712  0.5172  0.3546
  339MOL0     C46706   8.280   3.723   1.274  0.1280 -0.2618 -0.8208
  339MOL0     C46707   8.159   3.782   1.340 -0.0950  0.4822 -0.1343
  339MOL0     C46708   8.124   3.695   1.461 -0.5435 -0.7464  0.9790
  339MOL0     C46709   8.110   3.628   1.560  0.4200  0.1039  0.7167
  339MOL0     C46710   8.784   3.544   1.194  0.3772  0.0062  0.0915
  339MOL0     C46711   8.899   3.469   1.156 -0.5876 -0.1078 -0.1604
  339MOL0     C46712   9.027   3.547   1.181  0.5405 -0.6091  0.5403
  339MOL0     H46713   9.038   3.171   0.769 -1.6137 -0.0402  2.4068
  339MOL0     H46714   9.226   3.032   0.630 -0.3538  0.2331 -0.4906
  339MOL0     H46715   9.227   2.629   0.809  0.7428 -2.0900 -0.7230
  339MOL0     H46716   9.402   2.662   0.847 -0.8658 -0.6990  1.0989
  339MOL0     H46717   9.397   2.481   0.707 -4.6993  0.3729  2.7516
  339MOL0     H46718   9.295   2.555   0.590 -1.1145 -1.9315  2.2625
  339MOL0     H46719   9.481   2.735   0.554  0.9126 -0.0158  1.7623
  339MOL0     H46720   9.583   2.624   0.658  0.1016 -2.3752 -0.8644
  339MOL0     H46721   9.570   2.454   0.531 -1.1315  0.5338  2.0734
  339MOL0     H46722   9.437   2.520   0.422 -1.9123  1.5620  2.8076
  339MOL0     H46723   9.724   2.616   0.430 -0.5482 -2.3637  1.7477
  339MOL0     H46724   9.585   2.702   0.361 -0.9513 -1.1691 -1.3488
  339MOL0     H46725   9.708   2.421   0.284  0.7516  0.0623  2.4757
  339MOL0     H46726   9.562   2.496   0.200 -0.8867  2.2250  0.3194
  339MOL0     H46727   9.854   2.566   0.195 -0.0974  1.6269  1.8644
  339MOL0     H46728   9.740   2.695   0.173 -3.3642 -0.2359  0.3256
  339MOL0     H46729   9.684   2.434   0.009  0.4634 -1.4553 -0.0106
  339MOL0     H46730   9.636   2.611  -0.014 -2.3596 -2.6622 -0.1847
  339MOL0     H46731   9.882   2.339  -0.111 -1.3845 -0.2777 -0.1830
  339MOL0     H46732  10.056   2.415  -0.396 -2.1753  1.4744 -0.1666
  339MOL0     H46733  10.122   2.334  -0.252 -1.8340 -1.2042 -1.7062
  339MOL0     H46734  10.204   2.606  -0.359 -3.2059  0.2729  2.3803
  339MOL0     H46735  10.281   2.530  -0.216 -0.6540 -2.2800  1.2336
  339MOL0     H46736  10.311   2.447  -0.494 -1.3172  2.7565  1.3805
  339MOL0     H46737  10.441   2.461  -0.368  1.7243 -4.8331 -0.7387
  339MOL0     H46738  10.244   2.241  -0.376 -1.2333  1.9453  2.6020
  339MOL0     H46739  10.410   2.226  -0.433  1.3298 -0.1460  0.6525
  339MOL0     H46740  10.610   2.239  -0.353  0.3049 -0.0233  0.3541
  339MOL0     H46741  10.835   2.047  -0.390  3.2732 -1.1861  0.1310
  339MOL0     H46742  10.929   2.040  -0.258  2.4772  2.2920 -1.8347
  339MOL0     H46743  10.901   2.197  -0.310 -4.2569  1.9654 -1.4090
  339MOL0     H46744  10.970   2.226   0.235 -1.5006 -1.6597 -2.4088
  339MOL0     H46745  11.153   2.246   0.369 -2.1161  0.7203 -0.2045
  339MOL0     H46746  11.345   1.850   0.554 -3.9841 -0.6231 -3.2674
  339MOL0     H46747  11.441   1.894   0.406  2.1384  1.3847  0.0583
  339MOL0     H46748  11.469   2.049   0.673  0.1188  0.3798 -0.8772
  339MOL0     H46749  11.566   1.903   0.638 -1.3785 -0.2428 -0.0331
  339MOL0     H46750  11.560   2.124   0.444  0.6729  1.0760  0.5816
  339MOL0     H46751  11.688   2.001   0.465  4.2605  1.5538  2.4764
  339MOL0     H46752  11.769   2.095   0.671  2.7897  2.5209  0.0241
  339MOL0     H46753  11.627   2.206   0.679 -1.1676  1.2783 -3.0873
  339MOL0     H46754  11.860   2.190   0.489 -0.3155 -0.2563 -0.3588
  339MOL0     H46755  11.731   2.292   0.438 -0.2906 -0.9678 -0.1644
  339MOL0     H46756  11.868   2.345   0.701  1.2379  1.2594 -0.7258
  339MOL0     H46757  11.754   2.449   0.621  2.5704  1.6548 -1.8402
  339MOL0     H46758  11.969   2.528   0.604 -1.2762  0.1053  0.5302
  339MOL0     H46759  11.903   2.510   0.449 -1.4206 -0.7307  0.4254
  339MOL0     H46760  12.130   2.425   0.450 -1.3178  0.3721 -1.5557
  339MOL0     H46761  12.024   2.291   0.413  0.1936  0.5116 -0.0765
  339MOL0     H46762  11.202   1.797   0.350 -1.5362 -0.0599 -0.2664
  339MOL0     H46763  11.011   1.795   0.209 -2.0721  0.5747  0.8959
  339MOL0     H46764  10.625   2.087   0.117 -4.4421  1.4405  0.5551
  339MOL0     H46765  10.415   2.165   0.018 -1.5031 -1.2039 -2.5944
  339MOL0     H46766   9.247   2.779   0.967  0.7008 -1.8623 -2.3420
  339MOL0     H46767   9.105   2.929   1.102 -1.3633 -0.3647 -0.7924
  339MOL0     H46768   8.748   3.186   1.062  1.1193 -0.3307  0.3263
  339MOL0     H46769   8.556   3.302   1.162  1.2206 -2.4444  1.5819
  339MOL0     H46770   8.621   3.685   1.354  0.6505  3.2244 -0.6770
  339MOL0     H46771   8.566   3.757   1.208  1.5999  1.6380  2.8432
  339MOL0     H46772   8.421   3.806   1.414  1.1251 -0.6693  2.1689
  339MOL0     H46773   8.385   3.631   1.431  2.2729  0.4048  1.0979
  339MOL0     H46774   8.306   3.793   1.194 -2.7387 -0.5557 -2.1484
  339MOL0     H46775   8.248   3.628   1.230 -3.0529 -1.2351  2.9176
  339MOL0     H46776   8.075   3.773   1.271  0.4541 -0.4669 -0.6911
  339MOL0     H46777   8.177   3.886   1.370 -1.3196  0.0304  2.4834
  339MOL0     H46778   8.090   3.579   1.653 -0.6128 -1.1725 -0.1444
  339MOL0     H46779   8.792   3.648   1.224  1.5890  0.4695 -1.6780
  339MOL0     H46780   9.012   3.617   1.264  1.4816 -1.9550  1.8921
  339MOL0     H46781   9.104   3.476   1.213  0.8350 -1.7248 -2.4174
  339MOL0     H46782   9.070   3.597   1.094  1.2249 -0.6993  0.8195
  340MOL0     O46783  11.166   4.186   5.652  0.1639 -0.2451  0.1913
  340MOL0     C46784  11.278   4.162   5.686 -1.0505 -0.4534 -0.8504
  340MOL0     O46785  11.373   4.259   5.703 -0.7613 -0.0834 -0.2989
  340MOL0     C46786  11.344   4.366   5.780  0.0264 -0.6699  0.0970
  340MOL0     C46787  11.234   4.388   5.862 -0.3330 -0.4873  0.1360
  340MOL0     C46788  11.217   4.490   5.953 -0.5920  0.0501  0.1518
  340MOL0     C46789  11.320   4.574   5.960  0.3680 -0.1841 -0.4934
  340MOL0     O46790  11.285   4.685   6.033 -0.8081  0.3807 -0.5520
  340MOL0     C46791  11.294   4.821   5.988 -0.4297  0.3432  0.6870
  340MOL0     C46792  11.369   4.915   6.079  0.2246  0.0200 -0.2424
  340MOL0     C46793  11.503   4.865   6.112  0.9733 -0.5990  0.3003
  340MOL0     C46794  11.559   4.939   6.232  0.0483 -0.3209  0.7688
  340MOL0     C46795  11.712   4.913   6.248  1.0218  0.4377  0.4413
  340MOL0     C46796  11.770   4.985   6.367 -0.3158 -1.0612  0.2065
  340MOL0     C46797  11.916   5.029   6.334 -0.5357  0.3874 -0.2590
  340MOL0     C46798  11.972   5.125   6.433 -0.0609 -0.0764 -0.1447
  340MOL0     N46799  11.908   5.259   6.434  0.5003 -0.0001  0.7704
  340MOL0     C46800  11.981   5.370   6.458 -0.3817  0.0364 -0.6050
  340MOL0     C46801  11.898   5.475   6.460  0.2567 -0.0564 -0.9332
  340MOL0     C46802  11.923   5.619   6.486 -1.4383 -0.2167 -0.7080
  340MOL0     C46803  11.947   5.701   6.358  0.7500  0.0359  0.7614
  340MOL0     C46804  11.988   5.836   6.406  0.5374 -0.7578  0.1803
  340MOL0     C46805  11.949   5.942   6.294 -0.5164  0.5061  0.0004
  340MOL0     O46806  12.027   5.920   6.174 -0.5843  0.7594 -0.0966
  340MOL0     C46807  11.991   5.992   6.060 -0.6826  0.5587 -0.1532
  340MOL0     C46808  12.074   5.966   5.949 -0.8285  0.5224 -0.7939
  340MOL0     C46809  12.051   6.033   5.825 -1.4590  0.2544 -0.2179
  340MOL0     C46810  12.163   6.016   5.724  0.3135 -0.0249 -0.2802
  340MOL0     C46811  11.944   6.112   5.805  0.1647  1.2989 -0.6072
  340MOL0     C46812  11.913   6.163   5.673 -0.4137 -0.8300  0.4900
  340MOL0     O46813  11.841   6.277   5.676  0.3784 -0.0475 -0.7478
  340MOL0     C46814  11.808   6.335   5.555  0.2352  0.2459 -0.4255
  340MOL0     C46815  11.684   6.340   5.514  0.3388 -0.1219 -0.4464
  340MOL0     C46816  11.653   6.409   5.393  0.4115 -0.0963  0.3547
  340MOL0     C46817  11.751   6.463   5.313  0.5908 -0.2779 -1.0481
  340MOL0     O46818  11.713   6.532   5.202  0.3143  0.7161  0.4843
  340MOL0     C46819  11.811   6.567   5.107 -0.4652 -0.7613 -0.0979
  340MOL0     C46820  11.749   6.632   4.981  0.2902 -0.1103  0.0875
  340MOL0     C46821  11.850   6.688   4.884 -0.8246 -0.5480 -0.6529
  340MOL0     C46822  11.920   6.819   4.931 -0.0691 -0.9723  0.8516
  340MOL0     C46823  11.833   6.919   5.001  0.2504  0.2154 -1.2891
  340MOL0     C46824  11.740   7.010   4.917 -0.4968  0.3442 -0.3832
  340MOL0     C46825  11.643   7.090   5.000 -0.5371  0.4469  0.4524
  340MOL0     C46826  11.575   7.176   4.889 -0.1222 -0.5280  0.3978
  340MOL0    Cl46827  11.467   7.295   4.961 -0.5310 -0.1358  0.1466
  340MOL0     C46828  11.883   6.472   5.367 -0.5441  0.5957 -0.0256
  340MOL0     C46829  11.908   6.404   5.486 -0.3670 -0.5956  1.2204
  340MOL0     O46830  11.941   6.102   5.567 -0.0471 -0.1177  1.1038
  340MOL0     C46831  11.861   6.138   5.920  0.0003  0.7613  0.6740
  340MOL0     C46832  11.889   6.075   6.040  1.0416 -0.0360 -0.4384
  340MOL0     N46833  11.766   5.422   6.457  1.4683 -0.8293  0.0299
  340MOL0     N46834  11.774   5.294   6.445 -0.6383  0.8174  0.3792
  340MOL0     C46835  11.413   4.585   5.860 -0.1723 -0.4330  0.3191
  340MOL0     C46836  11.434   4.472   5.779  0.6709  0.5165 -0.4642
  340MOL0     C46837  11.326   4.020   5.719  0.4096  0.0253 -0.3015
  340MOL0     C46838  11.453   3.986   5.748 -0.1886 -1.1048  0.1557
  340MOL0     C46839  11.497   3.858   5.788  0.5831  0.1316  0.1048
  340MOL0     C46840  11.408   3.741   5.781  0.0604 -0.1700 -0.5632
  340MOL0     O46841  11.451   3.613   5.824 -0.4422 -0.7308  0.6962
  340MOL0     C46842  11.364   3.493   5.840  0.7875  0.7362  0.6940
  340MOL0     C46843  11.449   3.373   5.846  0.0527  0.0499  0.6223
  340MOL0     C46844  11.487   3.348   5.988 -0.6014 -0.7691  0.8311
  340MOL0     C46845  11.578   3.224   6.013 -1.2149 -0.0777  0.0432
  340MOL0     C46846  11.704   3.230   5.944 -0.3592  0.5904  0.3758
  340MOL0     C46847  11.811   3.213   5.900  0.3006 -0.0015  0.1850
  340MOL0     C46848  11.270   3.773   5.761  0.1812 -0.7092 -1.1365
  340MOL0     C46849  11.231   3.905   5.738  0.3584  0.2300 -0.0234
  340MOL0     C46850  11.081   3.942   5.756 -0.7247 -1.0596 -0.0870
  340MOL0     H46851  11.161   4.308   5.854 -0.1951 -0.4987 -1.2742
  340MOL0     H46852  11.122   4.506   6.004 -0.4201 -0.7662  0.7435
  340MOL0     H46853  11.194   4.866   5.981  1.0109  3.5374 -2.1831
  340MOL0     H46854  11.333   4.829   5.886  0.2833  1.7188  1.0535
  340MOL0     H46855  11.377   5.015   6.036  1.7207  0.6221  1.3416
  340MOL0     H46856  11.309   4.916   6.171  4.0385 -1.0560  2.4992
  340MOL0     H46857  11.496   4.757   6.126 -2.8338 -0.9021 -2.4449
  340MOL0     H46858  11.566   4.884   6.025  0.1683 -1.8284 -0.5883
  340MOL0     H46859  11.538   5.043   6.207 -0.8138 -1.2903 -3.4207
  340MOL0     H46860  11.513   4.901   6.323 -1.4449 -1.9422 -0.5746
  340MOL0     H46861  11.759   4.925   6.150  0.8979 -5.2340 -0.6487
  340MOL0     H46862  11.720   4.805   6.266 -0.9713  0.2267  0.3422
  340MOL0     H46863  11.712   5.076   6.381  1.2832  0.2977 -1.5162
  340MOL0     H46864  11.766   4.924   6.458  1.5058 -1.3349  0.1359
  340MOL0     H46865  11.927   5.076   6.235  3.4416  0.7493  0.1998
  340MOL0     H46866  11.979   4.940   6.338  1.3664  1.7484  2.7256
  340MOL0     H46867  11.977   5.088   6.536  0.0040 -1.4847 -0.6347
  340MOL0     H46868  12.075   5.152   6.405  0.4074 -1.5147  0.1004
  340MOL0     H46869  12.086   5.381   6.486 -0.7092 -0.6570  1.0083
  340MOL0     H46870  12.015   5.621   6.546 -0.1832  2.8623 -2.5290
  340MOL0     H46871  11.835   5.653   6.541  0.6580  0.3997  2.5710
  340MOL0     H46872  12.022   5.663   6.288 -0.0951  1.1266 -0.7876
  340MOL0     H46873  11.855   5.715   6.300  0.9653  1.6734  0.7590
  340MOL0     H46874  11.929   5.856   6.496  0.5706  3.5365 -0.5372
  340MOL0     H46875  12.096   5.842   6.422  0.4515  1.5372  0.2140
  340MOL0     H46876  11.842   5.940   6.271 -0.3673  1.3924 -0.8401
  340MOL0     H46877  11.979   6.039   6.336  0.1347  0.4151 -0.2449
  340MOL0     H46878  12.150   5.889   5.943  0.8318  2.1418 -1.6573
  340MOL0     H46879  12.257   6.034   5.777 -0.2628  3.9404 -0.2921
  340MOL0     H46880  12.168   6.090   5.643 -1.4491 -3.0426 -3.4497
  340MOL0     H46881  12.159   5.922   5.667 -0.2781  1.6114 -3.1680
  340MOL0     H46882  11.613   6.292   5.581  1.2109  1.0933  1.4315
  340MOL0     H46883  11.552   6.395   5.355  0.9316 -0.0992 -1.0947
  340MOL0     H46884  11.884   6.640   5.142 -2.1951  2.3330 -2.4723
  340MOL0     H46885  11.863   6.475   5.076 -2.3293 -1.3934 -1.5465
  340MOL0     H46886  11.696   6.560   4.917 -1.1611  1.7258 -0.8832
  340MOL0     H46887  11.667   6.699   5.009  1.5224  1.1279  0.8071
  340MOL0     H46888  11.790   6.713   4.796  1.5786  0.3864 -2.1265
  340MOL0     H46889  11.921   6.606   4.866 -0.9542 -1.6129  2.9737
  340MOL0     H46890  11.955   6.866   4.838  0.8051  0.3495  1.8132
  340MOL0     H46891  11.998   6.801   5.005 -0.0236  0.2858  1.1385
  340MOL0     H46892  11.774   6.870   5.079  0.6384 -1.2395 -1.8874
  340MOL0     H46893  11.898   6.985   5.060  0.3807 -0.8581 -0.1900
  340MOL0     H46894  11.688   6.952   4.841 -2.7826 -1.1532  2.1718
  340MOL0     H46895  11.818   7.069   4.866  0.7727 -1.5926 -0.8104
  340MOL0     H46896  11.700   7.143   5.077  1.6982 -1.5834  0.3175
  340MOL0     H46897  11.575   7.018   5.046 -1.4926  0.2620 -1.1679
  340MOL0     H46898  11.514   7.113   4.823  2.6626 -0.5482 -2.4044
  340MOL0     H46899  11.656   7.218   4.829 -1.1549 -0.5518 -1.0814
  340MOL0     H46900  11.967   6.518   5.317  0.9836  2.2216  3.6463
  340MOL0     H46901  12.008   6.398   5.529 -0.0484 -0.1959  0.5500
  340MOL0     H46902  11.769   6.195   5.911 -1.1762 -1.2505 -0.8923
  340MOL0     H46903  11.823   6.085   6.126 -0.4060 -3.9356 -0.8648
  340MOL0     H46904  11.473   4.674   5.842  0.7670 -0.8646  1.1725
  340MOL0     H46905  11.509   4.478   5.701 -0.6310  1.0996 -1.7125
  340MOL0     H46906  11.528   4.066   5.747 -1.5737  0.3254 -2.8949
  340MOL0     H46907  11.603   3.853   5.810  1.4580 -3.4520 -3.7113
  340MOL0     H46908  11.297   3.504   5.926  0.7930  2.0406  0.5525
  340MOL0     H46909  11.303   3.485   5.750  1.1290  0.8284  0.4544
  340MOL0     H46910  11.536   3.392   5.783  0.0121 -0.5645  0.3649
  340MOL0     H46911  11.384   3.297   5.801  0.0628  0.4162 -0.0208
  340MOL0     H46912  11.534   3.436   6.033 -2.0419  0.0485  0.7841
  340MOL0     H46913  11.404   3.317   6.052  1.6422 -2.0602  3.3085
  340MOL0     H46914  11.530   3.129   5.989  0.0150 -0.9436  0.9223
  340MOL0     H46915  11.605   3.220   6.119  1.4417 -1.1324 -0.5968
  340MOL0     H46916  11.907   3.190   5.859 -0.1466 -1.1804 -0.2377
  340MOL0     H46917  11.200   3.691   5.772 -1.8465  1.1826  1.9640
  340MOL0     H46918  11.074   4.035   5.814 -3.2737 -0.9003 -0.5363
  340MOL0     H46919  11.027   3.956   5.662  1.8609  4.5571 -1.1642
  340MOL0     H46920  11.037   3.867   5.822 -0.5978 -1.0904 -0.0365
  341MOL0     O46921  10.596   5.499  11.152 -0.0469 -0.6453 -0.8553
  341MOL0     C46922  10.669   5.490  11.059 -0.5801  0.3555  0.2037
  341MOL0     O46923  10.640   5.494  10.924  0.4008  0.4893  1.2777
  341MOL0     C46924  10.524   5.531  10.870  0.1419  0.4405 -0.5850
  341MOL0     C46925  10.429   5.422  10.874  0.0115 -0.2516  0.6843
  341MOL0     C46926  10.308   5.449  10.815 -0.4099  0.0985  0.2023
  341MOL0     C46927  10.279   5.574  10.759  1.0097 -0.3893 -0.2130
  341MOL0     O46928  10.154   5.587  10.710 -0.0687 -0.0606 -0.3437
  341MOL0     C46929  10.132   5.640  10.580 -0.2177  0.0981 -0.5957
  341MOL0     C46930   9.996   5.595  10.532 -0.2382 -0.2452  0.1621
  341MOL0     C46931   9.987   5.435  10.513 -0.4696  0.0642 -0.5243
  341MOL0     C46932   9.852   5.377  10.539  0.7034 -0.8772  0.4847
  341MOL0     C46933   9.863   5.220  10.555 -0.3901 -0.4348 -1.0897
  341MOL0     C46934   9.725   5.150  10.567  1.5202 -0.1685  0.2072
  341MOL0     C46935   9.656   5.188  10.703 -0.0051  0.7373  0.1223
  341MOL0     C46936   9.735   5.146  10.836  0.1113  0.5504 -0.5333
  341MOL0     N46937   9.725   5.001  10.850  0.4792  0.2786  0.3313
  341MOL0     C46938   9.830   4.917  10.806  0.7260 -0.3662 -0.1770
  341MOL0     C46939   9.796   4.795  10.832  0.0415  0.5709 -0.5378
  341MOL0     C46940   9.874   4.669  10.804  0.0865 -0.3655 -0.8136
  341MOL0     C46941  10.011   4.675  10.872  0.2096  0.7782  0.4335
  341MOL0     C46942  10.109   4.556  10.871 -0.8148  0.4542 -0.4191
  341MOL0     C46943  10.258   4.598  10.857 -0.6514 -0.0406 -0.4650
  341MOL0     O46944  10.286   4.647  10.726  0.2492  0.6698  0.5043
  341MOL0     C46945  10.412   4.670  10.698  0.3526  0.7405  0.9897
  341MOL0     C46946  10.455   4.656  10.563 -0.3361 -0.4872 -0.0577
  341MOL0     C46947  10.588   4.676  10.532 -0.9571  0.0010  0.1878
  341MOL0     C46948  10.611   4.658  10.387 -0.4123  0.4376  0.6453
  341MOL0     C46949  10.683   4.704  10.631  0.3442 -0.4210 -0.0983
  341MOL0     C46950  10.822   4.734  10.599  0.3846 -0.2864 -0.3965
  341MOL0     O46951  10.877   4.652  10.500 -0.1980 -0.1099 -0.4907
  341MOL0     C46952  11.013   4.624  10.481 -0.0961  0.3071 -0.1229
  341MOL0     C46953  11.120   4.663  10.572  0.4037  0.0960 -0.3591
  341MOL0     C46954  11.255   4.630  10.537 -0.4546 -1.1340  0.3429
  341MOL0     C46955  11.290   4.540  10.433 -0.0129 -1.0348 -0.3349
  341MOL0     O46956  11.419   4.503  10.394 -0.6512 -0.3336 -0.8656
  341MOL0     C46957  11.537   4.556  10.465  0.5061 -0.5973  0.4049
  341MOL0     C46958  11.667   4.518  10.384  0.0914 -0.0644 -0.8737
  341MOL0     C46959  11.804   4.548  10.458  0.4223 -1.0223  0.3734
  341MOL0     C46960  11.916   4.584  10.353  0.3621 -0.4796 -1.4889
  341MOL0     C46961  12.048   4.637  10.412 -0.6256 -0.2553 -0.7269
  341MOL0     C46962  12.137   4.511  10.452  1.0346  0.3685 -0.2232
  341MOL0     C46963  12.253   4.542  10.554  0.2135  0.5835 -1.2932
  341MOL0     C46964  12.341   4.421  10.570 -0.4525  0.2365 -1.1867
  341MOL0    Cl46965  12.423   4.413  10.732  0.4848 -0.1399  0.3174
  341MOL0     C46966  11.185   4.499  10.355 -0.2331  0.0830  0.4326
  341MOL0     C46967  11.049   4.539  10.369 -0.0910 -0.3043 -0.1109
  341MOL0     O46968  10.879   4.821  10.658  0.7873  0.0046 -0.0663
  341MOL0     C46969  10.647   4.708  10.756 -0.2869 -0.7835 -0.3424
  341MOL0     C46970  10.513   4.700  10.796 -0.4133 -0.1559 -0.1883
  341MOL0     N46971   9.660   4.790  10.868 -0.7480  0.1914 -0.1396
  341MOL0     N46972   9.621   4.917  10.886  0.6186 -0.1548 -0.0865
  341MOL0     C46973  10.370   5.678  10.762 -0.2016  0.2995 -0.6123
  341MOL0     C46974  10.490   5.656  10.829 -0.6220 -0.6197  0.6546
  341MOL0     C46975  10.805   5.460  11.092 -0.9200  1.2359 -0.0208
  341MOL0     C46976  10.883   5.383  10.998 -0.5184 -0.8990 -0.4159
  341MOL0     C46977  11.016   5.353  11.024  0.5996  0.6034 -0.8564
  341MOL0     C46978  11.079   5.391  11.142 -0.4509 -0.2300 -0.3464
  341MOL0     O46979  11.203   5.346  11.185  0.6945 -0.7904 -0.7962
  341MOL0     C46980  11.301   5.320  11.078 -0.3051 -0.0367 -0.2023
  341MOL0     C46981  11.431   5.280  11.127 -0.0015 -0.1474 -0.6752
  341MOL0     C46982  11.526   5.259  11.008 -0.7834  0.3366 -0.8563
  341MOL0     C46983  11.669   5.243  11.069 -0.2596 -0.7782 -0.7529
  341MOL0     C46984  11.667   5.137  11.168  1.3514 -0.0850  0.3620
  341MOL0     C46985  11.698   5.072  11.264  0.5646  0.4306  0.1005
  341MOL0     C46986  11.010   5.470  11.226 -0.2319 -0.7022  0.7638
  341MOL0     C46987  10.872   5.503  11.203 -0.7038  0.1986 -0.2992
  341MOL0     C46988  10.817   5.590  11.311  1.1997  0.6922  0.5723
  341MOL0     H46989  10.451   5.324  10.913  3.9725  0.7192  1.3877
  341MOL0     H46990  10.235   5.369  10.827 -0.0750 -0.0751  1.1453
  341MOL0     H46991  10.218   5.607  10.521  2.3940  2.9905  1.2941
  341MOL0     H46992  10.133   5.748  10.592 -2.4790 -0.1125  2.4005
  341MOL0     H46993   9.920   5.636  10.598  0.8670 -0.6519  1.7339
  341MOL0     H46994   9.975   5.637  10.433 -0.2630  1.6878  0.9478
  341MOL0     H46995  10.025   5.398  10.417  1.0683  0.7688 -0.2271
  341MOL0     H46996  10.057   5.394  10.587 -0.8002  1.6775  0.7483
  341MOL0     H46997   9.810   5.415  10.633  2.5879  0.6390  0.7806
  341MOL0     H46998   9.793   5.402  10.451  0.2473 -2.3238  0.3642
  341MOL0     H46999   9.925   5.200  10.643 -2.1287  2.1475  0.8716
  341MOL0     H47000   9.919   5.184  10.468  1.4893  0.9679 -0.5311
  341MOL0     H47001   9.662   5.189  10.487  1.6988  0.5538  0.4099
  341MOL0     H47002   9.730   5.043  10.545 -1.1569  0.0127 -1.7026
  341MOL0     H47003   9.558   5.140  10.703  0.1470  0.4085 -0.9696
  341MOL0     H47004   9.644   5.297  10.697  2.2759  0.9924 -1.1572
  341MOL0     H47005   9.839   5.180  10.833  0.0505  0.7132 -0.9222
  341MOL0     H47006   9.686   5.194  10.921  1.4916  2.5576 -0.8022
  341MOL0     H47007   9.918   4.961  10.761  1.1109  0.6072  1.4225
  341MOL0     H47008   9.897   4.660  10.697  0.9769 -1.0764 -0.5683
  341MOL0     H47009   9.815   4.586  10.844  2.0746 -0.8875  1.2302
  341MOL0     H47010  10.070   4.757  10.829  3.4764 -0.3973  2.2755
  341MOL0     H47011   9.993   4.704  10.976 -3.4933 -0.1429  0.1851
  341MOL0     H47012  10.105   4.498  10.963 -0.8099 -0.9416 -1.2623
  341MOL0     H47013  10.085   4.490  10.786  0.2340  3.2496 -3.0934
  341MOL0     H47014  10.290   4.666  10.937  0.7358 -0.4560 -0.6444
  341MOL0     H47015  10.322   4.510  10.864  2.1526  1.6800 -2.3532
  341MOL0     H47016  10.381   4.634  10.487 -0.1769 -0.4165 -0.2331
  341MOL0     H47017  10.525   4.689  10.328  0.0647  1.1388  0.3069
  341MOL0     H47018  10.644   4.553  10.384 -0.4062  0.2957  3.1745
  341MOL0     H47019  10.694   4.720  10.353  0.3659  0.7155  2.8713
  341MOL0     H47020  11.105   4.725  10.660 -2.0817 -2.6866  1.3651
  341MOL0     H47021  11.333   4.675  10.599  1.0956 -0.9176 -1.6599
  341MOL0     H47022  11.529   4.665  10.476 -0.2199 -0.6788  0.7398
  341MOL0     H47023  11.534   4.513  10.565 -0.6768 -2.4273 -0.3885
  341MOL0     H47024  11.657   4.415  10.348 -0.9973  0.2945 -1.6598
  341MOL0     H47025  11.664   4.577  10.292 -0.1038  3.0995  1.0119
  341MOL0     H47026  11.849   4.456  10.498  0.4788 -1.3384 -0.4023
  341MOL0     H47027  11.794   4.629  10.530 -1.5136  0.2878 -1.2753
  341MOL0     H47028  11.892   4.676  10.300  2.0044 -0.2603 -1.9189
  341MOL0     H47029  11.936   4.504  10.280  1.0185  0.2833 -2.1691
  341MOL0     H47030  12.100   4.693  10.334 -1.8241  0.1183 -1.2806
  341MOL0     H47031  12.029   4.700  10.500  5.5771  2.0245 -0.4811
  341MOL0     H47032  12.170   4.478  10.353 -1.8560  0.7423 -1.4241
  341MOL0     H47033  12.076   4.438  10.505  1.6742  0.0895  0.1430
  341MOL0     H47034  12.202   4.559  10.650  0.8139 -0.0863 -0.8482
  341MOL0     H47035  12.304   4.635  10.527  0.7934  1.0332  1.0824
  341MOL0     H47036  12.416   4.431  10.491  1.5258 -1.0493  0.4263
  341MOL0     H47037  12.283   4.329  10.556  0.8469 -0.9261  0.6330
  341MOL0     H47038  11.202   4.436  10.268  0.1679 -1.1073  1.3558
  341MOL0     H47039  10.965   4.519  10.302  0.8768 -0.0036 -1.4515
  341MOL0     H47040  10.727   4.732  10.825  2.2061  1.2050 -3.6482
  341MOL0     H47041  10.499   4.714  10.902  0.3537 -0.1949 -0.0700
  341MOL0     H47042  10.342   5.773  10.718  0.6637  1.5889  1.4793
  341MOL0     H47043  10.566   5.730  10.851  0.7872 -2.3950  2.0816
  341MOL0     H47044  10.837   5.354  10.904 -2.8168  0.3616  0.2449
  341MOL0     H47045  11.068   5.299  10.946  3.0061 -0.6457  1.4773
  341MOL0     H47046  11.261   5.242  11.013 -0.8119 -3.7872  4.0764
  341MOL0     H47047  11.329   5.411  11.024  1.3794 -1.2725 -1.5090
  341MOL0     H47048  11.431   5.184  11.179  1.8309 -0.7663 -1.7295
  341MOL0     H47049  11.476   5.362  11.184  0.4564  0.6303 -2.1082
  341MOL0     H47050  11.495   5.169  10.953  0.6857  1.0502 -2.9808
  341MOL0     H47051  11.521   5.340  10.934 -2.6847 -0.2968 -1.4970
  341MOL0     H47052  11.703   5.341  11.104  1.6915 -2.2605  1.8976
  341MOL0     H47053  11.746   5.211  10.997 -1.1124 -0.9308 -1.6196
  341MOL0     H47054  11.732   5.002  11.337 -1.6308  0.0989  0.8819
  341MOL0     H47055  11.061   5.492  11.319  3.0797 -2.2112 -0.5668
  341MOL0     H47056  10.778   5.685  11.273  0.6701 -0.2642 -1.3810
  341MOL0     H47057  10.730   5.535  11.348  0.5035 -0.0993 -2.0423
  341MOL0     H47058  10.886   5.606  11.394 -1.1057 -0.2436  2.8151
  342MOL0     O47059   8.092  10.931   1.105 -0.1311  0.5962 -0.3577
  342MOL0     C47060   8.212  10.963   1.122  0.4969 -0.7092  0.3909
  342MOL0     O47061   8.311  10.884   1.158 -0.0761 -0.1201 -0.3545
  342MOL0     C47062   8.285  10.755   1.171 -0.2207 -0.9095 -0.2963
  342MOL0     C47063   8.234  10.678   1.062 -0.0783 -1.0830  0.0312
  342MOL0     C47064   8.208  10.539   1.076  0.5158 -0.2030 -0.3477
  342MOL0     C47065   8.236  10.479   1.200  0.3683 -0.1896 -0.9852
  342MOL0     O47066   8.221  10.353   1.239 -0.6645  0.1064  0.1526
  342MOL0     C47067   8.128  10.277   1.161 -0.3385 -0.1547  0.1395
  342MOL0     C47068   8.092  10.150   1.236  0.6920 -0.8046  0.2798
  342MOL0     C47069   8.217  10.064   1.245 -0.4558 -0.2389  0.1928
  342MOL0     C47070   8.196   9.936   1.308  0.0520  0.1776 -0.9453
  342MOL0     C47071   8.319   9.844   1.307 -0.2971 -0.4136  0.6609
  342MOL0     C47072   8.282   9.714   1.383 -0.8900  0.3427  0.6892
  342MOL0     C47073   8.383   9.605   1.355 -0.5416 -0.0858  0.5698
  342MOL0     C47074   8.326   9.466   1.387  0.1293 -0.5008  0.0039
  342MOL0     N47075   8.327   9.443   1.532  0.3354  0.0344 -0.2213
  342MOL0     C47076   8.438   9.410   1.608  0.0088  0.3001  0.1051
  342MOL0     C47077   8.384   9.391   1.731 -0.4767 -0.6937  0.1593
  342MOL0     C47078   8.465   9.362   1.851  0.5637  0.6550 -0.8319
  342MOL0     C47079   8.420   9.228   1.916  0.9288  0.4635  0.5210
  342MOL0     C47080   8.529   9.173   2.026  0.1204 -0.3152  0.4965
  342MOL0     C47081   8.548   9.251   2.152  0.5384  0.8081 -1.0377
  342MOL0     O47082   8.630   9.370   2.142 -0.9110 -0.3520  0.3930
  342MOL0     C47083   8.764   9.370   2.184 -0.9659  1.0972 -0.1015
  342MOL0     C47084   8.803   9.470   2.271  0.0035  0.8174 -0.0696
  342MOL0     C47085   8.942   9.470   2.310  0.6063 -0.3827  0.7784
  342MOL0     C47086   8.983   9.583   2.406 -0.3058 -0.0618  0.1579
  342MOL0     C47087   9.023   9.361   2.280 -0.9950  1.0642 -0.2585
  342MOL0     C47088   9.170   9.350   2.325  0.2481 -0.0840  0.3147
  342MOL0     O47089   9.232   9.228   2.321  0.0368  0.3172  0.8377
  342MOL0     C47090   9.373   9.232   2.332  0.6350  0.2090  0.8070
  342MOL0     C47091   9.450   9.208   2.214 -0.2010 -0.6503  0.2278
  342MOL0     C47092   9.594   9.225   2.215 -0.7513  0.2163  0.5088
  342MOL0     C47093   9.660   9.250   2.340  0.2888  0.1260  0.2510
  342MOL0     O47094   9.794   9.255   2.356  0.1097  0.0538  0.2216
  342MOL0     C47095   9.867   9.278   2.239 -0.1771 -0.0346 -0.8944
  342MOL0     C47096  10.012   9.303   2.296  0.4803  0.5874 -0.5265
  342MOL0     C47097  10.114   9.340   2.184  0.1607  0.0086  0.6237
  342MOL0     C47098  10.171   9.219   2.103  0.4251  0.1189 -0.3113
  342MOL0     C47099  10.245   9.262   1.976 -0.8803  0.2878 -0.0435
  342MOL0     C47100  10.381   9.315   2.023 -0.0865  0.3381  0.0170
  342MOL0     C47101  10.448   9.377   1.900 -0.0406  0.5978  0.3265
  342MOL0     C47102  10.587   9.422   1.953  0.8115 -0.3048  0.7460
  342MOL0    Cl47103  10.665   9.501   1.807  0.5887 -0.3899  0.4268
  342MOL0     C47104   9.583   9.271   2.458 -0.0294  0.3182  0.1167
  342MOL0     C47105   9.444   9.259   2.449  0.4579 -0.6620 -0.6874
  342MOL0     O47106   9.229   9.449   2.352  0.0731  0.0885 -0.8928
  342MOL0     C47107   8.981   9.261   2.195  0.4888  1.2331  0.1481
  342MOL0     C47108   8.855   9.273   2.135 -0.3481  1.0056 -0.6989
  342MOL0     N47109   8.248   9.423   1.730 -0.5581 -0.1536  0.6569
  342MOL0     N47110   8.209   9.442   1.606 -0.0582 -0.0041  0.5587
  342MOL0     C47111   8.294  10.558   1.304  0.1928  1.5383  0.1818
  342MOL0     C47112   8.317  10.690   1.285  0.2677  0.1531  0.4356
  342MOL0     C47113   8.253  11.110   1.099  1.4049  0.3133  0.1869
  342MOL0     C47114   8.188  11.175   0.992 -0.5173 -0.5515  0.0790
  342MOL0     C47115   8.211  11.316   0.965 -0.4615  0.3924  0.8718
  342MOL0     C47116   8.319  11.376   1.032  0.2502  0.0106  0.3576
  342MOL0     O47117   8.363  11.502   1.003 -0.0622 -0.4299  0.0756
  342MOL0     C47118   8.310  11.601   1.093  0.1893  0.7691 -0.1366
  342MOL0     C47119   8.398  11.723   1.101 -0.5867 -1.0846  0.7460
  342MOL0     C47120   8.536  11.688   1.166  0.1895 -0.4881  0.2395
  342MOL0     C47121   8.603  11.816   1.213  0.2192 -0.7294  0.1766
  342MOL0     C47122   8.710  11.806   1.315  1.5455 -0.0612  0.7959
  342MOL0     C47123   8.797  11.809   1.395 -0.8390 -0.4923 -0.1301
  342MOL0     C47124   8.382  11.303   1.134 -0.4561  0.6319 -1.1728
  342MOL0     C47125   8.346  11.176   1.171  0.2626 -0.1927 -1.2057
  342MOL0     C47126   8.410  11.122   1.294  0.7159 -0.3078 -1.0251
  342MOL0     H47127   8.216  10.727   0.967  0.9502 -4.3614 -2.0375
  342MOL0     H47128   8.164  10.484   0.993 -1.1460  0.3204  0.1425
  342MOL0     H47129   8.163  10.251   1.060 -1.3868 -0.4564 -0.1589
  342MOL0     H47130   8.032  10.329   1.149 -0.5790 -0.9837 -2.0603
  342MOL0     H47131   8.044  10.173   1.332 -1.6886 -3.0154 -0.2565
  342MOL0     H47132   8.018  10.099   1.175  1.1200 -0.6945 -0.3376
  342MOL0     H47133   8.235  10.052   1.138 -2.3804  3.1953 -0.6484
  342MOL0     H47134   8.304  10.108   1.294 -1.7723  4.1773 -0.9496
  342MOL0     H47135   8.161   9.951   1.410  1.8980  1.6486 -0.4840
  342MOL0     H47136   8.116   9.889   1.249  0.8525  2.0936 -3.7686
  342MOL0     H47137   8.396   9.900   1.361 -2.0815  0.4662  2.4182
  342MOL0     H47138   8.349   9.827   1.203  0.7612 -0.8722  1.0276
  342MOL0     H47139   8.263   9.729   1.490 -0.7443 -0.0964  0.7787
  342MOL0     H47140   8.184   9.692   1.341 -1.6700 -0.5648  2.8568
  342MOL0     H47141   8.468   9.618   1.422  0.3346 -0.8708 -0.3569
  342MOL0     H47142   8.404   9.610   1.248  1.9989 -1.9430  0.8980
  342MOL0     H47143   8.227   9.462   1.341 -0.2277  0.7909  0.6080
  342MOL0     H47144   8.399   9.396   1.345 -0.9934 -2.7647  1.5700
  342MOL0     H47145   8.540   9.417   1.572  1.0151  4.3696  2.9725
  342MOL0     H47146   8.453   9.448   1.918  0.6614  1.8716 -2.3165
  342MOL0     H47147   8.570   9.359   1.821  0.1626 -0.6211 -2.1927
  342MOL0     H47148   8.322   9.242   1.962 -0.3408 -2.0248 -1.1929
  342MOL0     H47149   8.411   9.148   1.842 -0.5569 -2.0954  3.2507
  342MOL0     H47150   8.521   9.068   2.055  0.5463  0.2136  2.6845
  342MOL0     H47151   8.624   9.176   1.972 -3.1479  4.7385 -6.6491
  342MOL0     H47152   8.453   9.276   2.199  1.9458  4.4976  0.1405
  342MOL0     H47153   8.597   9.175   2.214 -1.7350 -0.4021 -0.6291
  342MOL0     H47154   8.734   9.548   2.300  2.8262  2.7958  1.8112
  342MOL0     H47155   8.908   9.651   2.446  0.4030  0.3625  0.7850
  342MOL0     H47156   9.061   9.652   2.371  0.8188 -1.2821  0.1558
  342MOL0     H47157   9.024   9.540   2.498 -2.9036  1.4281  2.1380
  342MOL0     H47158   9.406   9.170   2.122 -1.5342 -1.9184  1.3373
  342MOL0     H47159   9.645   9.204   2.121 -0.2130  0.9425  0.6376
  342MOL0     H47160   9.863   9.199   2.163 -2.4212  0.9531 -1.9077
  342MOL0     H47161   9.827   9.368   2.192  0.1323  0.0986 -0.9074
  342MOL0     H47162   9.994   9.392   2.358 -2.1517  0.7902 -1.4352
  342MOL0     H47163  10.056   9.218   2.350 -0.0940  2.0730  2.5242
  342MOL0     H47164  10.197   9.392   2.232  2.4266 -2.3561 -0.4661
  342MOL0     H47165  10.067   9.407   2.112 -0.3961 -0.6360  0.3643
  342MOL0     H47166  10.097   9.145   2.073  1.3638 -1.0576  0.1809
  342MOL0     H47167  10.233   9.156   2.167 -1.6777 -1.1828  0.5495
  342MOL0     H47168  10.268   9.180   1.907 -1.1482  1.1409 -1.1854
  342MOL0     H47169  10.191   9.342   1.925  0.2028 -0.9733 -3.4824
  342MOL0     H47170  10.442   9.243   2.078  1.3764  0.7698 -0.9852
  342MOL0     H47171  10.350   9.396   2.090 -1.2542 -0.4709  0.4924
  342MOL0     H47172  10.392   9.463   1.861 -1.9239  0.0469  1.6453
  342MOL0     H47173  10.456   9.302   1.820  1.0105  3.4958 -2.5273
  342MOL0     H47174  10.651   9.341   1.991  1.0975  0.4826  2.0135
  342MOL0     H47175  10.563   9.490   2.035 -3.2639  0.3058 -0.7062
  342MOL0     H47176   9.637   9.302   2.546  1.3311 -2.7195  0.4711
  342MOL0     H47177   9.393   9.280   2.542  1.7536 -3.1121  0.6615
  342MOL0     H47178   9.044   9.174   2.177 -2.4972 -1.4781  1.6950
  342MOL0     H47179   8.812   9.196   2.072 -1.6029  0.4702  0.7539
  342MOL0     H47180   8.329  10.506   1.392  0.9737  2.2829  0.3254
  342MOL0     H47181   8.355  10.755   1.363 -0.3322  1.8771 -0.6364
  342MOL0     H47182   8.104  11.134   0.937 -2.2545  1.4605  1.0886
  342MOL0     H47183   8.160  11.371   0.887  1.9008  2.3387  0.5669
  342MOL0     H47184   8.210  11.623   1.055 -0.3047 -2.8269 -1.2871
  342MOL0     H47185   8.298  11.557   1.192  0.8998 -1.6797 -1.0743
  342MOL0     H47186   8.348  11.798   1.163 -0.4584 -1.8168  1.7436
  342MOL0     H47187   8.404  11.758   0.997 -1.8283 -0.2195  0.9463
  342MOL0     H47188   8.537  11.617   1.249  0.5776  1.6199  2.1287
  342MOL0     H47189   8.597  11.632   1.094 -0.3459 -0.4620 -0.2387
  342MOL0     H47190   8.524  11.875   1.259  1.0593  2.7304 -2.3235
  342MOL0     H47191   8.645  11.883   1.137 -1.8398 -1.5177 -1.7882
  342MOL0     H47192   8.880  11.826   1.461  1.8802  2.2580 -3.7854
  342MOL0     H47193   8.473  11.337   1.182 -0.9037 -0.1684  0.2916
  342MOL0     H47194   8.427  11.208   1.359  2.1814  0.4903 -2.4190
  342MOL0     H47195   8.345  11.049   1.343 -1.1827  2.7574  1.4173
  342MOL0     H47196   8.511  11.083   1.282  1.6662 -0.4574  4.7242
  343MOL0     O47197   9.633   4.078   2.905  0.6062  0.5152  0.4835
  343MOL0     C47198   9.732   4.078   2.977  0.3481 -0.7235 -0.4238
  343MOL0     O47199   9.854   4.118   2.933  0.5121 -0.0979 -0.7219
  343MOL0     C47200   9.866   4.210   2.834 -0.0161  0.0121 -0.5998
  343MOL0     C47201   9.989   4.234   2.787  0.0420  0.4422 -1.0283
  343MOL0     C47202  10.017   4.334   2.697 -1.0079  0.6341  0.3921
  343MOL0     C47203   9.927   4.421   2.649 -0.0599 -0.3914 -0.5245
  343MOL0     O47204   9.978   4.514   2.557  0.3918  0.6378 -0.7757
  343MOL0     C47205   9.888   4.594   2.476  0.0367  0.0554 -0.8757
  343MOL0     C47206   9.967   4.686   2.381  0.0837 -0.2561  0.5376
  343MOL0     C47207  10.028   4.813   2.438 -1.1980 -0.9526 -0.2290
  343MOL0     C47208  10.126   4.884   2.347  0.0220  1.2242 -0.3839
  343MOL0     C47209  10.217   4.980   2.423  0.0739 -0.7035  0.2180
  343MOL0     C47210  10.324   5.029   2.332 -0.3580  0.6715  0.2447
  343MOL0     C47211  10.400   5.149   2.386 -0.7633 -0.2895 -0.2607
  343MOL0     C47212  10.508   5.121   2.483 -0.5684  0.2939  0.2248
  343MOL0     N47213  10.553   5.241   2.553  0.1707  0.2650 -1.0311
  343MOL0     C47214  10.651   5.325   2.509  0.0547 -0.3248  0.6929
  343MOL0     C47215  10.658   5.429   2.595  0.6361 -0.1085 -1.1794
  343MOL0     C47216  10.753   5.541   2.593  1.1199  0.4234  0.0932
  343MOL0     C47217  10.830   5.552   2.722  0.6032 -0.1386  0.2091
  343MOL0     C47218  10.918   5.671   2.722  0.8526 -0.2210 -0.1770
  343MOL0     C47219  11.016   5.674   2.842 -0.4268 -0.3403 -0.0744
  343MOL0     O47220  11.035   5.814   2.874  0.5720  0.4515  0.1914
  343MOL0     C47221  11.133   5.853   2.962  0.9183 -0.1991  0.0997
  343MOL0     C47222  11.140   5.984   2.994 -0.3443 -0.3001 -0.9892
  343MOL0     C47223  11.242   6.036   3.085  0.8926  0.1637 -0.0588
  343MOL0     C47224  11.234   6.185   3.115  0.2262 -0.2306  0.3095
  343MOL0     C47225  11.345   5.952   3.126 -0.1135 -0.3323 -0.1682
  343MOL0     C47226  11.460   5.996   3.221 -0.5404  0.6792  0.4610
  343MOL0     O47227  11.567   5.916   3.213  0.5989 -0.8640  0.0006
  343MOL0     C47228  11.685   5.981   3.247  0.0391  0.1465 -0.3992
  343MOL0     C47229  11.731   5.949   3.376  0.1713 -0.2352  0.1158
  343MOL0     C47230  11.854   6.008   3.408 -0.5687 -0.7887 -0.5270
  343MOL0     C47231  11.924   6.105   3.327  0.0239 -0.7123 -0.2819
  343MOL0     O47232  12.041   6.171   3.366  0.1597 -0.0904 -0.3454
  343MOL0     C47233  12.091   6.156   3.506  0.2764 -0.1613 -0.1489
  343MOL0     C47234  12.178   6.274   3.554  0.9618  0.6824  0.3935
  343MOL0     C47235  12.312   6.272   3.491  0.1095 -0.8719 -0.4264
  343MOL0     C47236  12.404   6.164   3.553 -0.3346 -0.4957  0.1698
  343MOL0     C47237  12.542   6.165   3.488  0.0648 -0.3665  0.8800
  343MOL0     C47238  12.645   6.097   3.572  0.1503 -0.1815 -0.5933
  343MOL0     C47239  12.788   6.094   3.511 -0.1904 -0.3919 -0.0359
  343MOL0     C47240  12.895   6.108   3.625 -1.1515  0.2681 -0.3801
  343MOL0    Cl47241  12.901   6.276   3.709 -0.6269 -0.1071  0.1389
  343MOL0     C47242  11.865   6.127   3.206 -1.2011 -1.3327 -0.5757
  343MOL0     C47243  11.755   6.060   3.159  0.1033  0.7219 -0.3587
  343MOL0     O47244  11.443   6.089   3.303  0.6039 -0.3072  0.1128
  343MOL0     C47245  11.338   5.816   3.098 -0.5260  1.0009  1.5289
  343MOL0     C47246  11.230   5.768   3.019  0.0717 -0.4991  0.6249
  343MOL0     N47247  10.558   5.404   2.700  0.3159  0.2403 -0.1919
  343MOL0     N47248  10.494   5.297   2.665  0.4582 -0.0602 -0.6817
  343MOL0     C47249   9.794   4.404   2.697 -0.8460  0.6622  0.9250
  343MOL0     C47250   9.767   4.309   2.789  0.0930  0.1659 -0.3226
  343MOL0     C47251   9.719   4.016   3.113 -0.1262 -0.0570 -0.3598
  343MOL0     C47252   9.821   3.934   3.163  0.9194  0.1024  1.1847
  343MOL0     C47253   9.814   3.872   3.284 -0.0741  0.5638 -0.3292
  343MOL0     C47254   9.699   3.897   3.365 -0.3128  0.5007  0.3412
  343MOL0     O47255   9.692   3.820   3.478 -0.2307  0.7030 -0.5080
  343MOL0     C47256   9.568   3.816   3.550  1.2147 -0.2745 -0.6913
  343MOL0     C47257   9.549   3.927   3.648  0.2731 -0.7282 -0.6540
  343MOL0     C47258   9.398   3.969   3.660  1.0926 -0.6066 -0.6796
  343MOL0     C47259   9.304   3.869   3.735 -0.0959  0.5938 -0.4713
  343MOL0     C47260   9.353   3.831   3.868 -0.5501  0.4193  0.7805
  343MOL0     C47261   9.379   3.797   3.984  0.2571 -0.2878  0.6486
  343MOL0     C47262   9.599   3.991   3.314 -0.3415 -0.7836  0.3961
  343MOL0     C47263   9.617   4.059   3.197 -0.0734  0.3944  0.4188
  343MOL0     C47264   9.510   4.155   3.154 -0.2349  0.9085  0.0243
  343MOL0     H47265  10.071   4.176   2.828  0.3151  0.1258 -2.0015
  343MOL0     H47266  10.120   4.335   2.661 -1.3425  1.0731 -0.5866
  343MOL0     H47267   9.811   4.647   2.533 -2.1424 -3.8850  0.2545
  343MOL0     H47268   9.827   4.535   2.407 -1.3642  1.8070 -1.1917
  343MOL0     H47269  10.053   4.631   2.344 -1.0652 -1.9844  0.3398
  343MOL0     H47270   9.910   4.712   2.291  0.3526  2.7758  1.1349
  343MOL0     H47271   9.952   4.887   2.463 -0.6751  0.1051 -1.6061
  343MOL0     H47272  10.094   4.787   2.522 -0.8616  2.3380  0.6747
  343MOL0     H47273  10.196   4.818   2.295  0.6936 -0.0704  2.0006
  343MOL0     H47274  10.070   4.945   2.276  1.1682  0.5491 -1.9122
  343MOL0     H47275  10.240   4.937   2.521 -2.1124  1.0033  1.5621
  343MOL0     H47276  10.149   5.059   2.455 -0.3031 -1.1822  0.6242
  343MOL0     H47277  10.397   4.951   2.310 -1.3581 -1.2067  3.1067
  343MOL0     H47278  10.280   5.060   2.236 -0.3740  1.6793  0.5615
  343MOL0     H47279  10.339   5.234   2.417 -0.2581  0.7398 -1.9436
  343MOL0     H47280  10.448   5.196   2.299  0.1658 -0.6275  0.0512
  343MOL0     H47281  10.478   5.053   2.563  1.8102  0.8878  1.7089
  343MOL0     H47282  10.588   5.079   2.423 -4.0259 -3.1503 -2.4402
  343MOL0     H47283  10.707   5.316   2.417 -1.6878 -0.4772 -0.3911
  343MOL0     H47284  10.694   5.630   2.569 -1.4299 -0.8361  1.2546
  343MOL0     H47285  10.822   5.532   2.509 -0.1209  3.1446 -1.3285
  343MOL0     H47286  10.765   5.562   2.809 -0.5930 -0.7929 -0.5791
  343MOL0     H47287  10.898   5.468   2.735  2.9905  1.5077 -0.7919
  343MOL0     H47288  10.977   5.686   2.631 -0.9694  0.2087 -1.3468
  343MOL0     H47289  10.855   5.761   2.728  0.6927 -0.4078  1.4620
  343MOL0     H47290  10.978   5.636   2.937 -2.0863 -0.4801 -0.7472
  343MOL0     H47291  11.116   5.643   2.813  1.4193  2.5122  2.6801
  343MOL0     H47292  11.073   6.054   2.946 -0.7301 -0.8872 -1.3126
  343MOL0     H47293  11.228   6.210   3.221  1.0758 -0.5791  0.4420
  343MOL0     H47294  11.142   6.232   3.078 -0.0553 -0.2414  0.9763
  343MOL0     H47295  11.319   6.230   3.064  0.4600 -0.9775  0.0372
  343MOL0     H47296  11.661   5.914   3.451  1.5247  1.3356  2.2095
  343MOL0     H47297  11.902   5.989   3.503  3.2610 -0.9448 -2.3178
  343MOL0     H47298  12.002   6.153   3.569 -0.6915  1.3335 -1.3539
  343MOL0     H47299  12.152   6.065   3.508  1.5860  0.6913 -0.0109
  343MOL0     H47300  12.121   6.365   3.532 -0.3364 -0.0896  0.4412
  343MOL0     H47301  12.182   6.258   3.662  0.9624 -3.1877 -0.0402
  343MOL0     H47302  12.355   6.372   3.499 -1.0245 -0.1937 -2.2335
  343MOL0     H47303  12.313   6.264   3.382  2.2615 -1.4615 -0.4158
  343MOL0     H47304  12.366   6.069   3.517  0.7985 -0.5756 -0.9114
  343MOL0     H47305  12.408   6.158   3.662 -0.7717 -1.7339  0.1238
  343MOL0     H47306  12.532   6.137   3.383 -2.3983  0.5890  0.7922
  343MOL0     H47307  12.574   6.269   3.481 -0.4120 -0.2731 -0.0421
  343MOL0     H47308  12.618   5.992   3.587  3.5942 -1.0617  0.4731
  343MOL0     H47309  12.642   6.152   3.667 -0.8303 -0.8167 -0.2388
  343MOL0     H47310  12.804   6.168   3.432  0.2588 -0.7844 -0.3131
  343MOL0     H47311  12.810   6.002   3.457  0.4353  0.5262 -1.3912
  343MOL0     H47312  12.998   6.085   3.596 -1.1106  1.9727 -1.7568
  343MOL0     H47313  12.868   6.033   3.701 -0.6744  0.2465 -0.2267
  343MOL0     H47314  11.922   6.197   3.146  0.9749 -1.1975  1.4880
  343MOL0     H47315  11.706   6.088   3.067  0.8810 -0.4352 -1.1468
  343MOL0     H47316  11.411   5.745   3.136  0.8231  1.4505 -0.1101
  343MOL0     H47317  11.226   5.660   3.006  0.5193 -0.5799  1.1032
  343MOL0     H47318   9.717   4.472   2.660 -0.8488  1.5008  2.3831
  343MOL0     H47319   9.663   4.305   2.821  0.2435 -3.2806  0.1318
  343MOL0     H47320   9.903   3.909   3.095 -0.5891 -1.5755 -0.1261
  343MOL0     H47321   9.881   3.791   3.309  0.1643  0.7126 -0.4778
  343MOL0     H47322   9.496   3.816   3.468  0.6570  3.1571 -0.3474
  343MOL0     H47323   9.551   3.719   3.597 -0.5885 -0.1549 -1.0345
  343MOL0     H47324   9.599   4.020   3.619 -2.2211  0.6459 -0.9283
  343MOL0     H47325   9.590   3.906   3.747  0.2739 -2.2185 -0.9470
  343MOL0     H47326   9.388   4.068   3.707 -2.5633 -1.1894  0.0861
  343MOL0     H47327   9.351   3.975   3.562 -1.3008  2.0070  0.4791
  343MOL0     H47328   9.309   3.771   3.686  2.3020  0.8213 -0.8090
  343MOL0     H47329   9.201   3.903   3.730 -0.8890 -1.1062  2.3259
  343MOL0     H47330   9.404   3.767   4.084 -2.8997 -0.1398  1.6081
  343MOL0     H47331   9.512   4.019   3.373 -0.0018  1.4251 -0.0622
  343MOL0     H47332   9.452   4.203   3.234 -2.6849  1.0396 -1.7262
  343MOL0     H47333   9.565   4.234   3.101 -1.4336  1.0126 -1.1173
  343MOL0     H47334   9.450   4.103   3.079  1.7737 -1.2966 -0.1683
  344MOL0     O47335   0.158   2.802   6.761  0.2836  0.4485 -0.0079
  344MOL0     C47336   0.095   2.764   6.662  0.2629  0.7513 -0.2922
  344MOL0     O47337  -0.026   2.809   6.627 -0.1568 -0.0608 -0.6064
  344MOL0     C47338  -0.062   2.943   6.653  0.1218  0.1220  0.1219
  344MOL0     C47339   0.024   3.046   6.678  0.3785 -0.2215  0.0262
  344MOL0     C47340  -0.019   3.173   6.723 -0.6111  0.5793  0.3744
  344MOL0     C47341  -0.147   3.203   6.730 -0.2340 -0.0321  0.6208
  344MOL0     O47342  -0.200   3.325   6.767 -0.2718 -0.2549  0.6936
  344MOL0     C47343  -0.128   3.444   6.730 -0.1510  0.9071  0.2809
  344MOL0     C47344  -0.186   3.566   6.780  1.1074 -0.6866 -0.1887
  344MOL0     C47345  -0.184   3.571   6.934  0.3406  0.5284 -0.4742
  344MOL0     C47346  -0.311   3.520   7.005  0.7803 -0.4671 -0.6211
  344MOL0     C47347  -0.298   3.525   7.156 -0.1577  0.2279 -0.1522
  344MOL0     C47348  -0.277   3.394   7.228  0.3828  0.5882  0.3479
  344MOL0     C47349  -0.169   3.292   7.170 -0.0874  0.0652 -0.9949
  344MOL0     C47350  -0.194   3.148   7.216  0.5828 -0.4010  0.2968
  344MOL0     N47351  -0.314   3.094   7.150  0.5790 -0.1055 -0.4867
  344MOL0     C47352  -0.373   3.117   7.024 -0.0545 -0.5742 -0.0501
  344MOL0     C47353  -0.470   3.024   7.008 -0.1189 -0.3301 -1.1327
  344MOL0     C47354  -0.547   2.976   6.894 -0.2370  0.6478  0.3032
  344MOL0     C47355  -0.660   2.894   6.924 -0.1974  0.5011  0.3596
  344MOL0     C47356  -0.743   2.862   6.793  0.1194  0.4203  0.0657
  344MOL0     C47357  -0.827   2.733   6.805  0.6475 -0.0126  0.3699
  344MOL0     O47358  -0.940   2.763   6.892 -0.2033 -0.1728 -0.2980
  344MOL0     C47359  -1.035   2.666   6.923  0.0070 -1.2294  0.7920
  344MOL0     C47360  -1.158   2.720   6.974 -0.4173 -0.3403 -0.8279
  344MOL0     C47361  -1.273   2.641   6.995 -0.7519  0.0879 -0.3277
  344MOL0     C47362  -1.403   2.717   7.017  0.5307  0.0422  0.2059
  344MOL0     C47363  -1.263   2.502   6.976 -0.0630 -0.0169 -0.2346
  344MOL0     C47364  -1.378   2.398   6.991  0.1086  0.0243 -0.2170
  344MOL0     O47365  -1.351   2.267   6.950 -0.5909  0.7633  0.6753
  344MOL0     C47366  -1.461   2.181   6.953  0.3262 -0.2206  0.4088
  344MOL0     C47367  -1.514   2.114   7.068 -0.1277 -0.7557 -0.0907
  344MOL0     C47368  -1.638   2.047   7.058 -0.2167 -0.0200 -0.4873
  344MOL0     C47369  -1.710   2.043   6.937  0.3797  0.5526  0.7185
  344MOL0     O47370  -1.834   1.979   6.921  0.3859  1.2175 -0.1906
  344MOL0     C47371  -1.891   1.901   7.029  0.9361  0.1644  0.1178
  344MOL0     C47372  -2.009   1.830   6.981  0.4591  0.0337 -0.6444
  344MOL0     C47373  -2.123   1.935   6.955 -0.4474  0.0004  0.5331
  344MOL0     C47374  -2.177   1.939   6.805 -0.6261  0.2411 -0.1965
  344MOL0     C47375  -2.199   1.798   6.743  0.4583  0.1902  0.1262
  344MOL0     C47376  -2.311   1.710   6.798 -0.7035  0.1038  0.0603
  344MOL0     C47377  -2.445   1.778   6.801  0.0349 -0.2374 -0.1448
  344MOL0     C47378  -2.554   1.685   6.744  0.0234 -0.0701  1.1180
  344MOL0    Cl47379  -2.696   1.760   6.823 -0.0676 -0.1082  0.0942
  344MOL0     C47380  -1.654   2.102   6.827  0.1286  0.4445 -0.4865
  344MOL0     C47381  -1.534   2.166   6.833  0.2807 -0.0942  0.4234
  344MOL0     O47382  -1.487   2.436   7.026  0.7515 -0.3685 -0.5362
  344MOL0     C47383  -1.144   2.452   6.927 -0.8256  1.4701  0.3918
  344MOL0     C47384  -1.033   2.529   6.904 -0.3160  0.4281 -0.0598
  344MOL0     N47385  -0.478   2.949   7.122  0.1167  0.0800 -0.0254
  344MOL0     N47386  -0.379   2.983   7.200 -0.0899  0.8830 -0.1646
  344MOL0     C47387  -0.243   3.103   6.701  0.1186 -0.1499 -0.1488
  344MOL0     C47388  -0.192   2.975   6.659 -0.0258 -0.8594 -0.2496
  344MOL0     C47389   0.149   2.644   6.591  0.3228 -0.0956  0.7587
  344MOL0     C47390   0.149   2.649   6.449  0.6073  0.4120 -0.2378
  344MOL0     C47391   0.201   2.540   6.377  0.5916  0.5320 -0.0599
  344MOL0     C47392   0.245   2.421   6.429 -0.3528 -0.0491  0.5733
  344MOL0     O47393   0.284   2.323   6.342  0.2097  0.8645  0.0590
  344MOL0     C47394   0.329   2.184   6.394  0.0202  0.3604  1.1159
  344MOL0     C47395   0.471   2.184   6.453  0.5321 -0.5313 -0.2038
  344MOL0     C47396   0.499   2.055   6.546 -0.0449 -0.5444  0.0287
  344MOL0     C47397   0.512   1.927   6.459 -0.3076 -0.1101  0.0555
  344MOL0     C47398   0.575   1.820   6.543  0.7763 -0.1439  0.0149
  344MOL0     C47399   0.637   1.745   6.615 -0.2524 -0.8805  0.6309
  344MOL0     C47400   0.245   2.417   6.570  0.0651 -0.4296  0.6988
  344MOL0     C47401   0.206   2.527   6.648 -0.2100 -0.3868 -0.6676
  344MOL0     C47402   0.204   2.512   6.800  0.2594 -0.1662  0.5301
  344MOL0     H47403   0.131   3.025   6.674  0.4337 -0.5695  2.3423
  344MOL0     H47404   0.052   3.254   6.734 -1.1357  0.8747  1.8725
  344MOL0     H47405  -0.114   3.462   6.623 -3.9875  2.1934 -0.1581
  344MOL0     H47406  -0.032   3.433   6.781  0.8556 -2.4761 -2.0035
  344MOL0     H47407  -0.131   3.656   6.749  1.5385 -0.3111  1.5697
  344MOL0     H47408  -0.290   3.569   6.745  0.6039  0.8877  1.2820
  344MOL0     H47409  -0.103   3.515   6.982  0.1235  1.2834  0.8202
  344MOL0     H47410  -0.178   3.677   6.959  0.4728 -0.1900  3.1413
  344MOL0     H47411  -0.402   3.575   6.979  0.5070  0.1738  1.4878
  344MOL0     H47412  -0.324   3.414   6.979  6.3308 -1.9913  1.3732
  344MOL0     H47413  -0.381   3.583   7.199  1.3548  1.4726  1.1964
  344MOL0     H47414  -0.216   3.591   7.184 -0.2660  0.1388  0.4075
  344MOL0     H47415  -0.265   3.421   7.333  1.2104  3.0262 -0.2980
  344MOL0     H47416  -0.370   3.336   7.225  2.3505 -3.0941  2.5914
  344MOL0     H47417  -0.074   3.326   7.212 -0.1215  1.4714 -1.9708
  344MOL0     H47418  -0.162   3.308   7.062  2.3330  4.2049 -0.4581
  344MOL0     H47419  -0.106   3.096   7.177  1.0141  0.2438  0.3796
  344MOL0     H47420  -0.195   3.140   7.325  2.6357  0.3674  0.4332
  344MOL0     H47421  -0.332   3.187   6.952  3.5309  0.7698  2.9605
  344MOL0     H47422  -0.481   2.921   6.826 -0.6884  0.9593 -0.4070
  344MOL0     H47423  -0.587   3.067   6.848 -3.3326  1.2156  3.7080
  344MOL0     H47424  -0.625   2.795   6.954  1.8362  0.5435 -1.6356
  344MOL0     H47425  -0.733   2.943   6.989 -2.8738  1.2240 -2.9433
  344MOL0     H47426  -0.811   2.944   6.767 -0.0584 -0.5684 -2.8690
  344MOL0     H47427  -0.673   2.851   6.710 -2.8009  1.4040 -2.7336
  344MOL0     H47428  -0.868   2.697   6.710  1.1935 -0.5038  0.3198
  344MOL0     H47429  -0.772   2.651   6.852 -1.0075 -0.7691  1.0723
  344MOL0     H47430  -1.155   2.822   7.008  0.8922 -0.5065 -0.3780
  344MOL0     H47431  -1.472   2.666   7.085  1.2820 -1.2113  0.0689
  344MOL0     H47432  -1.442   2.736   6.916 -0.1546  0.0953  0.4803
  344MOL0     H47433  -1.385   2.811   7.069 -1.9173  0.7437 -0.0963
  344MOL0     H47434  -1.460   2.136   7.159 -0.2937  1.1412 -0.4098
  344MOL0     H47435  -1.688   2.010   7.146  1.0681  3.3060  1.8297
  344MOL0     H47436  -1.832   1.815   7.061 -2.1869 -1.4994  1.9250
  344MOL0     H47437  -1.905   1.963   7.118  1.7627 -4.2637  3.6487
  344MOL0     H47438  -1.982   1.778   6.888  1.6879 -1.0322  0.2741
  344MOL0     H47439  -2.048   1.765   7.060 -0.8429  2.5806  0.9341
  344MOL0     H47440  -2.086   2.033   6.988  5.2098 -1.6440  0.0456
  344MOL0     H47441  -2.208   1.919   7.022 -0.5853 -0.4171  0.2641
  344MOL0     H47442  -2.106   1.993   6.741 -0.0986 -1.8934 -1.5248
  344MOL0     H47443  -2.270   1.995   6.800 -2.5287 -2.6182  0.8568
  344MOL0     H47444  -2.211   1.816   6.636  0.4404  1.9149  0.4011
  344MOL0     H47445  -2.107   1.739   6.750  1.1255  1.3662  2.8780
  344MOL0     H47446  -2.289   1.673   6.899  1.0461  2.0034  0.4324
  344MOL0     H47447  -2.314   1.626   6.728  3.0739  0.7211 -1.0364
  344MOL0     H47448  -2.444   1.869   6.740 -0.5229  0.2638  0.5771
  344MOL0     H47449  -2.472   1.814   6.901  2.0303  0.0693  0.3296
  344MOL0     H47450  -2.555   1.585   6.788 -0.7977 -0.7375 -0.3812
  344MOL0     H47451  -2.557   1.679   6.635  2.5089 -1.0239  1.0323
  344MOL0     H47452  -1.715   2.101   6.737 -5.7831  0.7139  2.9452
  344MOL0     H47453  -1.505   2.218   6.742  1.8931  1.0355  1.5365
  344MOL0     H47454  -1.133   2.347   6.904 -1.1268  1.4547  0.3150
  344MOL0     H47455  -0.940   2.479   6.879 -0.4909 -1.3799  2.4852
  344MOL0     H47456  -0.348   3.130   6.711  0.8479  2.6419  0.7215
  344MOL0     H47457  -0.257   2.892   6.636 -0.0694 -0.9358  0.1299
  344MOL0     H47458   0.115   2.739   6.399 -5.4694 -0.2479  1.8845
  344MOL0     H47459   0.199   2.552   6.270  0.8856  1.7465  0.0526
  344MOL0     H47460   0.263   2.147   6.473  0.4348 -2.3319  0.3053
  344MOL0     H47461   0.321   2.107   6.317  0.5170 -0.3303  1.7475
  344MOL0     H47462   0.492   2.275   6.509 -3.7671  0.6492 -0.1108
  344MOL0     H47463   0.528   2.183   6.360 -0.7216 -0.1603 -1.0032
  344MOL0     H47464   0.598   2.081   6.584  0.8099  2.1928 -3.4964
  344MOL0     H47465   0.429   2.047   6.630 -1.2904  2.2177 -0.6354
  344MOL0     H47466   0.586   1.950   6.382  0.6427  4.0064  1.9147
  344MOL0     H47467   0.415   1.910   6.413  0.9354 -0.1352 -2.7581
  344MOL0     H47468   0.686   1.691   6.694 -2.2699 -3.3267  0.3394
  344MOL0     H47469   0.270   2.321   6.615  0.1162 -0.2521  1.0579
  344MOL0     H47470   0.098   2.515   6.826  0.3231  0.9899  0.6878
  344MOL0     H47471   0.255   2.418   6.823 -3.6254 -2.7587 -0.4503
  344MOL0     H47472   0.258   2.584   6.861 -2.4883  2.0688  0.4995
  345MOL0     O47473   8.808   7.168   2.407  0.4254  0.3326 -0.1884
  345MOL0     C47474   8.888   7.154   2.312 -0.4788 -0.9730 -0.8273
  345MOL0     O47475   9.022   7.143   2.329  0.1465  0.1706 -0.0370
  345MOL0     C47476   9.076   7.184   2.449  0.2336 -0.1664  0.4128
  345MOL0     C47477   9.102   7.088   2.548  0.4037  0.0126 -0.3588
  345MOL0     C47478   9.152   7.130   2.671 -0.5569 -1.0792  0.5463
  345MOL0     C47479   9.200   7.260   2.688 -0.3351  0.8586  0.1158
  345MOL0     O47480   9.270   7.298   2.798 -0.3378 -0.2432 -0.6187
  345MOL0     C47481   9.265   7.223   2.920 -0.4839 -0.6101 -0.9519
  345MOL0     C47482   9.312   7.320   3.025  0.6192 -0.1205  0.8604
  345MOL0     C47483   9.439   7.282   3.104 -0.5049  0.0658  0.5515
  345MOL0     C47484   9.393   7.212   3.238  0.2399 -0.5568 -0.1795
  345MOL0     C47485   9.391   7.051   3.229  0.1326 -0.6514 -0.1217
  345MOL0     C47486   9.346   6.998   3.373 -0.1186 -0.2665  0.5753
  345MOL0     C47487   9.347   6.848   3.373 -0.1940  0.6317  0.4130
  345MOL0     C47488   9.490   6.789   3.400 -0.2366  0.4119  1.0226
  345MOL0     N47489   9.538   6.846   3.536 -0.3627  0.5486  0.8705
  345MOL0     C47490   9.507   6.805   3.662 -0.1894 -0.2188 -0.2148
  345MOL0     C47491   9.577   6.892   3.746 -0.2552 -0.6161 -0.4581
  345MOL0     C47492   9.570   6.915   3.895 -0.8523 -0.3084  0.6354
  345MOL0     C47493   9.566   7.068   3.916  0.4007  0.0255  0.2650
  345MOL0     C47494   9.537   7.113   4.059 -0.6084  1.4107  1.2589
  345MOL0     C47495   9.640   7.074   4.170 -0.5233  1.1979 -0.6071
  345MOL0     O47496   9.771   7.107   4.122  0.2608  0.3185  0.3995
  345MOL0     C47497   9.855   7.005   4.089  0.2513  0.0860 -0.6589
  345MOL0     C47498   9.897   6.991   3.960  0.0739 -0.3085  0.0440
  345MOL0     C47499   9.990   6.889   3.929 -0.7311 -0.5579 -0.4502
  345MOL0     C47500  10.054   6.888   3.796  0.5213  1.1445  0.5097
  345MOL0     C47501  10.030   6.795   4.032 -0.3803 -0.4280  0.4734
  345MOL0     C47502  10.137   6.697   4.013  0.0517  0.0525 -0.7867
  345MOL0     O47503  10.231   6.705   4.107  0.5053 -0.1502 -0.1286
  345MOL0     C47504  10.355   6.651   4.088  0.5700 -0.6296 -0.5028
  345MOL0     C47505  10.457   6.718   4.161 -0.5141  0.2488 -0.0361
  345MOL0     C47506  10.590   6.677   4.153  0.9466  0.4843  0.4770
  345MOL0     C47507  10.626   6.568   4.075  0.0416 -0.3005 -0.1668
  345MOL0     O47508  10.756   6.547   4.069  0.0744 -0.3910 -0.0975
  345MOL0     C47509  10.808   6.429   4.014  1.2277  0.1942  0.1732
  345MOL0     C47510  10.803   6.308   4.105 -0.4332 -0.4844  0.5089
  345MOL0     C47511  10.826   6.167   4.044 -0.6684 -0.0822 -0.1149
  345MOL0     C47512  10.808   6.055   4.156 -0.3466 -0.3160  0.5581
  345MOL0     C47513  10.839   5.908   4.117  0.3487  0.1540  0.3810
  345MOL0     C47514  10.827   5.830   4.239  0.4087  0.6354 -0.6937
  345MOL0     C47515  10.822   5.677   4.207 -0.4465 -0.0020 -0.2115
  345MOL0     C47516  10.852   5.588   4.329  0.7976  0.5760  0.5300
  345MOL0    Cl47517  10.714   5.578   4.437  0.0338  0.2511 -0.4079
  345MOL0     C47518  10.525   6.492   4.018  0.4608  0.4671  0.5451
  345MOL0     C47519  10.397   6.531   4.027  0.5218  0.1956  0.4721
  345MOL0     O47520  10.139   6.620   3.912  1.0465 -0.6040 -0.5728
  345MOL0     C47521   9.972   6.804   4.156 -0.0199 -0.2409  0.1971
  345MOL0     C47522   9.885   6.904   4.191 -0.2295  0.5022 -0.5945
  345MOL0     N47523   9.667   6.972   3.664  0.8043  1.0865  0.2670
  345MOL0     N47524   9.636   6.951   3.539  0.1465 -0.5237  0.2496
  345MOL0     C47525   9.177   7.352   2.587 -0.6111  0.1188 -0.0018
  345MOL0     C47526   9.124   7.311   2.464  0.4145 -0.3326 -0.5370
  345MOL0     C47527   8.838   7.126   2.181 -0.6081  0.2950 -0.0125
  345MOL0     C47528   8.892   7.012   2.111  0.4227 -0.1605  0.1146
  345MOL0     C47529   8.842   6.985   1.978  0.0963  0.8920 -0.4646
  345MOL0     C47530   8.733   7.041   1.927  0.1561  0.9696  0.7200
  345MOL0     O47531   8.678   6.992   1.807 -0.7665  0.4453  0.1216
  345MOL0     C47532   8.574   7.061   1.754 -0.3242 -0.7623 -0.2544
  345MOL0     C47533   8.533   6.990   1.618  0.4731  0.2431  0.3380
  345MOL0     C47534   8.409   7.055   1.552 -0.6776  0.3995  1.1433
  345MOL0     C47535   8.452   7.191   1.495 -0.0712 -0.4209  0.6465
  345MOL0     C47536   8.358   7.258   1.403  0.4429 -0.3980  0.1959
  345MOL0     C47537   8.276   7.320   1.330  0.8296  0.5002 -0.2110
  345MOL0     C47538   8.680   7.142   2.003  0.6125  0.4242  1.0779
  345MOL0     C47539   8.724   7.186   2.124 -0.2286 -0.3254 -0.4595
  345MOL0     C47540   8.648   7.306   2.185 -0.3544  0.8548  0.4846
  345MOL0     H47541   9.067   6.988   2.523  1.8465 -0.5209 -0.3178
  345MOL0     H47542   9.169   7.054   2.747  1.6270 -0.4469  0.7641
  345MOL0     H47543   9.338   7.142   2.916 -0.8653 -0.9591 -0.7905
  345MOL0     H47544   9.164   7.192   2.945 -1.3544  2.8888  0.4302
  345MOL0     H47545   9.345   7.414   2.979  0.8868 -0.0683  1.1592
  345MOL0     H47546   9.231   7.341   3.095  0.1379  1.2988 -0.0607
  345MOL0     H47547   9.519   7.224   3.057  0.4631  1.5657  0.2676
  345MOL0     H47548   9.495   7.373   3.128  1.9652 -0.7128 -1.7499
  345MOL0     H47549   9.464   7.244   3.315  0.0794 -2.1433  0.6795
  345MOL0     H47550   9.302   7.262   3.271  0.6444 -0.3051  0.5759
  345MOL0     H47551   9.494   7.016   3.213  0.8289  0.2643  1.9846
  345MOL0     H47552   9.324   7.018   3.149  1.4913  0.8212 -1.9370
  345MOL0     H47553   9.397   7.038   3.462 -0.0892  2.4548 -0.5843
  345MOL0     H47554   9.246   7.040   3.378  0.8975  2.2293  1.5743
  345MOL0     H47555   9.303   6.816   3.278 -4.5428 -0.9903  2.6706
  345MOL0     H47556   9.274   6.818   3.449  1.6285 -0.7801  1.7013
  345MOL0     H47557   9.478   6.680   3.405  0.4853  0.2949  0.4302
  345MOL0     H47558   9.570   6.808   3.327 -0.3418  0.7360  0.9927
  345MOL0     H47559   9.434   6.732   3.698  0.1389  0.3464  1.7258
  345MOL0     H47560   9.658   6.873   3.945 -0.5285 -1.1751 -0.6162
  345MOL0     H47561   9.485   6.857   3.932 -0.7667 -0.2654  0.9070
  345MOL0     H47562   9.662   7.111   3.889  0.5282  0.4464  1.3515
  345MOL0     H47563   9.486   7.103   3.851  0.9401 -1.8470 -1.5156
  345MOL0     H47564   9.546   7.222   4.058  0.8849  1.3545 -1.0882
  345MOL0     H47565   9.434   7.080   4.077 -0.5940  1.1407  0.8714
  345MOL0     H47566   9.628   7.145   4.253  2.0420  0.0447  0.8605
  345MOL0     H47567   9.617   6.977   4.215 -2.9375  1.7383 -0.4919
  345MOL0     H47568   9.868   7.067   3.889 -4.7814  1.4741  3.4167
  345MOL0     H47569  10.036   6.991   3.762 -0.3735  2.0717  3.4389
  345MOL0     H47570  10.012   6.815   3.726  0.2420  2.1275 -0.3721
  345MOL0     H47571  10.161   6.866   3.797  0.6677  1.8284  0.5825
  345MOL0     H47572  10.440   6.799   4.232  2.0808  0.4994  0.3972
  345MOL0     H47573  10.669   6.736   4.199  1.1431 -0.3225  1.1846
  345MOL0     H47574  10.765   6.407   3.915 -0.1186 -0.8922  0.9534
  345MOL0     H47575  10.914   6.451   3.999  1.4016 -1.0258 -0.5773
  345MOL0     H47576  10.895   6.319   4.163 -0.5592  4.1114  0.1745
  345MOL0     H47577  10.714   6.328   4.165 -0.0440 -0.1359  0.9722
  345MOL0     H47578  10.930   6.163   4.011 -1.1103  0.5269 -1.6705
  345MOL0     H47579  10.759   6.155   3.959 -1.7088  0.9130  0.5391
  345MOL0     H47580  10.704   6.067   4.186 -0.6901  0.7355 -0.9251
  345MOL0     H47581  10.873   6.084   4.239 -0.3152 -1.6038  1.0038
  345MOL0     H47582  10.758   5.891   4.046 -1.2089  0.0354  2.1061
  345MOL0     H47583  10.934   5.897   4.063  0.6250 -2.3178  1.2264
  345MOL0     H47584  10.735   5.854   4.293  2.6776  3.0168  2.5168
  345MOL0     H47585  10.905   5.857   4.311  0.6853 -2.7703  0.5064
  345MOL0     H47586  10.888   5.651   4.123  0.0417 -2.1456  0.7591
  345MOL0     H47587  10.717   5.658   4.184 -1.1949 -0.7192  3.1827
  345MOL0     H47588  10.930   5.637   4.389  0.2309 -0.3185  2.0565
  345MOL0     H47589  10.879   5.487   4.297 -3.2913  0.0068 -1.8079
  345MOL0     H47590  10.538   6.402   3.958  2.2628  0.3432  1.0473
  345MOL0     H47591  10.320   6.479   3.972 -1.6921  1.3524  2.3097
  345MOL0     H47592  10.004   6.746   4.243 -0.5606  0.5061  0.9056
  345MOL0     H47593   9.843   6.902   4.291  1.1690  1.7983  0.0480
  345MOL0     H47594   9.216   7.452   2.605 -1.8214  0.1241  3.1223
  345MOL0     H47595   9.107   7.389   2.389  1.4951 -0.1595 -0.6165
  345MOL0     H47596   8.979   6.971   2.161 -0.6478  2.2977  4.5150
  345MOL0     H47597   8.882   6.894   1.934  1.2737  1.4911 -0.6660
  345MOL0     H47598   8.485   7.072   1.817 -0.0811  4.0549 -0.3615
  345MOL0     H47599   8.616   7.159   1.730 -1.0990 -0.2165  0.5566
  345MOL0     H47600   8.518   6.883   1.634 -1.5298  0.8784  3.6331
  345MOL0     H47601   8.611   7.009   1.544 -0.8805  1.9243 -0.7560
  345MOL0     H47602   8.388   6.986   1.470  2.0514 -0.8768  1.3979
  345MOL0     H47603   8.327   7.059   1.625 -1.8014 -0.6001 -0.0191
  345MOL0     H47604   8.550   7.195   1.447 -0.0694  0.6740  0.7149
  345MOL0     H47605   8.454   7.262   1.578 -2.6985 -0.4409  0.8095
  345MOL0     H47606   8.207   7.384   1.280  0.6012  0.9631  0.6754
  345MOL0     H47607   8.594   7.197   1.967 -0.4296 -0.6106  1.9004
  345MOL0     H47608   8.714   7.343   2.263  0.7870 -0.2871  0.0913
  345MOL0     H47609   8.639   7.392   2.118  0.0567 -0.3286 -1.1785
  345MOL0     H47610   8.543   7.290   2.213 -1.3194  3.5649 -1.1790
  346MOL0     O47611   3.674   4.057   0.632 -0.3324  0.2294 -0.3202
  346MOL0     C47612   3.653   3.959   0.560  0.2713 -0.6299  0.2637
  346MOL0     O47613   3.713   3.837   0.563 -0.3968 -0.3198  0.9030
  346MOL0     C47614   3.830   3.808   0.615 -0.8437  0.5419  0.5485
  346MOL0     C47615   3.930   3.734   0.548  1.3957 -0.2629  0.0084
  346MOL0     C47616   4.054   3.699   0.599 -0.2924 -0.0988  0.4948
  346MOL0     C47617   4.087   3.734   0.733 -0.0071  0.4069 -0.3513
  346MOL0     O47618   4.203   3.699   0.797  0.6443 -0.0048 -0.3050
  346MOL0     C47619   4.315   3.658   0.712  0.5619 -0.3027 -0.8687
  346MOL0     C47620   4.431   3.630   0.810 -0.2362  0.2708 -0.0893
  346MOL0     C47621   4.535   3.546   0.733 -0.2558 -0.1148 -0.0252
  346MOL0     C47622   4.611   3.457   0.827  0.1181 -1.5461  0.0380
  346MOL0     C47623   4.755   3.445   0.780 -0.1624 -0.6989 -0.0167
  346MOL0     C47624   4.819   3.340   0.882  0.4811 -0.4386  0.1036
  346MOL0     C47625   4.961   3.288   0.833  0.9433  0.2347 -0.0234
  346MOL0     C47626   5.003   3.188   0.940  0.2470 -0.2459 -0.5049
  346MOL0     N47627   5.102   3.097   0.891 -0.4594  0.6821  0.1523
  346MOL0     C47628   5.084   3.010   0.784 -0.4018  1.0065  0.0484
  346MOL0     C47629   5.186   2.921   0.804  0.6138 -0.1233 -0.1102
  346MOL0     C47630   5.204   2.793   0.728  0.1480 -0.2598 -0.2363
  346MOL0     C47631   5.088   2.773   0.622  0.0968 -0.5548  0.1350
  346MOL0     C47632   4.966   2.713   0.687 -0.3426  0.4011 -0.7019
  346MOL0     C47633   4.846   2.747   0.614  0.1406  0.0082 -0.5189
  346MOL0     O47634   4.810   2.887   0.645  0.0126 -0.7705  0.1576
  346MOL0     C47635   4.694   2.937   0.584 -0.3023 -0.3862  0.0548
  346MOL0     C47636   4.611   2.872   0.490  0.1949  0.6478 -0.1760
  346MOL0     C47637   4.491   2.934   0.447 -0.6232  0.1397 -0.1277
  346MOL0     C47638   4.425   2.873   0.329 -0.2375  0.3368  0.4721
  346MOL0     C47639   4.453   3.062   0.500  0.0910  0.4384  0.5674
  346MOL0     C47640   4.338   3.133   0.449  0.0687 -0.3679 -0.5220
  346MOL0     O47641   4.340   3.272   0.487 -0.0894  1.5001 -0.1360
  346MOL0     C47642   4.227   3.338   0.441 -0.0482 -0.3052 -0.4116
  346MOL0     C47643   4.116   3.357   0.524  0.0576 -0.3522 -0.6716
  346MOL0     C47644   3.992   3.399   0.480  0.6299  0.7619 -0.2007
  346MOL0     C47645   3.984   3.446   0.346 -0.6354  0.6340 -0.2222
  346MOL0     O47646   3.867   3.486   0.280 -0.4736 -0.8181  0.1451
  346MOL0     C47647   3.745   3.508   0.350 -0.4745  0.0216  0.3820
  346MOL0     C47648   3.626   3.486   0.254 -0.8575  0.0076 -0.0308
  346MOL0     C47649   3.505   3.446   0.323  0.0664 -0.0937  0.2624
  346MOL0     C47650   3.386   3.417   0.235  0.3630  0.1244  0.4208
  346MOL0     C47651   3.250   3.390   0.311 -0.2192  0.7036  0.5068
  346MOL0     C47652   3.128   3.403   0.210 -0.2029 -0.2620 -0.5643
  346MOL0     C47653   3.118   3.304   0.097 -0.2323  0.3200  0.9054
  346MOL0     C47654   2.972   3.300   0.039  0.0883  0.4277  0.2297
  346MOL0    Cl47655   2.961   3.157  -0.062 -0.1441  0.1405 -0.1414
  346MOL0     C47656   4.097   3.427   0.261  0.1214 -1.6221  0.3326
  346MOL0     C47657   4.219   3.373   0.304  0.6532 -0.4374 -0.3709
  346MOL0     O47658   4.253   3.078   0.383 -0.0482  0.6598  0.6104
  346MOL0     C47659   4.533   3.123   0.594 -0.1054  0.1492 -1.0759
  346MOL0     C47660   4.657   3.062   0.628  0.7437 -0.3837 -0.9306
  346MOL0     N47661   5.269   2.968   0.901 -0.2042 -0.9550  0.0508
  346MOL0     N47662   5.217   3.063   0.957 -0.5355  0.1439  0.1267
  346MOL0     C47663   3.981   3.794   0.805 -0.3909 -0.9430  1.1424
  346MOL0     C47664   3.855   3.830   0.750  0.0120  0.1969 -0.3988
  346MOL0     C47665   3.539   3.963   0.453  0.6678 -1.0085  0.0925
  346MOL0     C47666   3.531   3.853   0.373 -0.5048 -0.2225  0.6941
  346MOL0     C47667   3.430   3.835   0.281  0.3597 -1.0366  0.7514
  346MOL0     C47668   3.337   3.937   0.257  0.4451  0.0043  0.3912
  346MOL0     O47669   3.234   3.914   0.167 -0.4508  0.3078  0.0725
  346MOL0     C47670   3.103   3.895   0.226 -0.7808 -0.8662  0.4565
  346MOL0     C47671   3.056   3.764   0.174  0.5366 -0.1996  0.0600
  346MOL0     C47672   3.048   3.744   0.016 -0.4847  0.2261 -0.2123
  346MOL0     C47673   3.181   3.713  -0.060 -1.4831  0.3116  0.0416
  346MOL0     C47674   3.205   3.581  -0.119  0.4632 -0.5823 -0.2196
  346MOL0     C47675   3.214   3.480  -0.171 -0.7562 -0.1156  0.3777
  346MOL0     C47676   3.336   4.052   0.337  0.3089  0.2457  0.0865
  346MOL0     C47677   3.434   4.060   0.438 -0.8299  0.0909  0.2338
  346MOL0     C47678   3.455   4.179   0.522  0.0679 -0.3730  0.4181
  346MOL0     H47679   3.922   3.717   0.441  1.9385 -0.6280  0.0215
  346MOL0     H47680   4.121   3.645   0.534  1.3160  0.5277  1.5747
  346MOL0     H47681   4.352   3.736   0.645 -2.9148  2.4862  0.1637
  346MOL0     H47682   4.284   3.570   0.655 -0.1812 -0.5495 -0.0916
  346MOL0     H47683   4.471   3.719   0.857  2.1736 -1.4016  1.2212
  346MOL0     H47684   4.390   3.571   0.892  1.1451 -1.6290 -0.6709
  346MOL0     H47685   4.494   3.485   0.653  2.6525  1.1198 -2.6712
  346MOL0     H47686   4.613   3.596   0.675  1.9208 -5.6502 -2.5636
  346MOL0     H47687   4.621   3.511   0.921  1.5259 -1.7171  0.0073
  346MOL0     H47688   4.552   3.368   0.850 -2.1557  0.0350  0.6624
  346MOL0     H47689   4.807   3.540   0.773 -0.2822 -0.7151 -1.2846
  346MOL0     H47690   4.757   3.394   0.683  0.1382 -2.3343  0.8131
  346MOL0     H47691   4.831   3.358   0.989  0.7571 -2.2883  0.4262
  346MOL0     H47692   4.752   3.253   0.888  1.3210 -1.4582 -3.2506
  346MOL0     H47693   5.040   3.363   0.830  0.4327  0.7573 -0.8332
  346MOL0     H47694   4.954   3.235   0.737 -0.5824 -2.2125  1.3219
  346MOL0     H47695   5.047   3.246   1.021  0.6267 -1.3650  0.1180
  346MOL0     H47696   4.913   3.134   0.971  0.8784 -0.2989  1.3792
  346MOL0     H47697   5.012   3.000   0.703  1.0501 -5.0708 -1.0076
  346MOL0     H47698   5.215   2.719   0.808  0.3900  1.6478  1.5990
  346MOL0     H47699   5.296   2.813   0.673  0.6514  2.7066  1.4440
  346MOL0     H47700   5.061   2.865   0.569  0.2695 -0.5346  0.0826
  346MOL0     H47701   5.115   2.698   0.546 -0.0810 -1.3898  0.8785
  346MOL0     H47702   4.975   2.604   0.693 -0.1849  0.4618  0.2280
  346MOL0     H47703   4.955   2.733   0.794 -1.2569 -1.6023 -0.3873
  346MOL0     H47704   4.850   2.738   0.505 -0.4141 -0.3357 -0.5118
  346MOL0     H47705   4.758   2.699   0.658  0.1780  0.7145  0.3718
  346MOL0     H47706   4.644   2.777   0.451  1.9216  1.8117 -1.7225
  346MOL0     H47707   4.336   2.818   0.361 -0.1413 -0.3041 -0.3100
  346MOL0     H47708   4.483   2.792   0.283 -0.1924  1.6786 -2.0096
  346MOL0     H47709   4.399   2.948   0.253 -1.2657 -0.3670  0.1078
  346MOL0     H47710   4.120   3.328   0.628  0.5547 -1.0575 -0.8871
  346MOL0     H47711   3.913   3.399   0.555  1.4408 -1.1825  0.7304
  346MOL0     H47712   3.737   3.437   0.433 -2.0724 -0.4340 -0.1133
  346MOL0     H47713   3.738   3.601   0.407  0.3276 -1.4739  3.1093
  346MOL0     H47714   3.611   3.577   0.195 -1.4209 -0.7513 -1.0981
  346MOL0     H47715   3.649   3.402   0.188 -2.3106  1.3805 -2.4199
  346MOL0     H47716   3.481   3.535   0.382 -3.3180 -1.7566  1.6240
  346MOL0     H47717   3.524   3.362   0.389  1.7772  0.1540  0.1367
  346MOL0     H47718   3.408   3.330   0.173  2.0014 -0.0152  1.1569
  346MOL0     H47719   3.371   3.509   0.177  1.2277  1.8602  2.7778
  346MOL0     H47720   3.252   3.292   0.358 -0.7071  0.0089 -0.8622
  346MOL0     H47721   3.226   3.464   0.388 -0.4095 -0.0491  1.1731
  346MOL0     H47722   3.131   3.497   0.155 -0.9000  0.6331  0.8767
  346MOL0     H47723   3.033   3.391   0.262  0.3751 -3.2059 -0.0231
  346MOL0     H47724   3.143   3.212   0.151  1.4902  1.8736  2.8793
  346MOL0     H47725   3.193   3.302   0.017 -2.8396 -0.4270 -1.7164
  346MOL0     H47726   2.944   3.383  -0.027  3.4500  1.8198  0.3290
  346MOL0     H47727   2.901   3.304   0.122  1.0023 -1.9130  1.2278
  346MOL0     H47728   4.085   3.459   0.158  0.1143 -1.4491  0.3869
  346MOL0     H47729   4.302   3.371   0.234  0.2916  0.2379 -0.8340
  346MOL0     H47730   4.532   3.222   0.638  2.4421 -0.6421  1.0649
  346MOL0     H47731   4.713   3.112   0.707 -0.1511 -2.7375  1.3531
  346MOL0     H47732   4.015   3.821   0.905  0.6854  0.1464  0.5005
  346MOL0     H47733   3.777   3.869   0.815 -1.7814 -2.2484 -0.9348
  346MOL0     H47734   3.614   3.783   0.373  0.7182  1.1587  0.6847
  346MOL0     H47735   3.442   3.745   0.221  3.4916 -0.1718 -0.0950
  346MOL0     H47736   3.104   3.892   0.335 -2.1848 -1.9434  0.4615
  346MOL0     H47737   3.036   3.977   0.200 -0.6091  0.1218  2.8634
  346MOL0     H47738   2.954   3.750   0.209  1.3990 -0.3097  2.7239
  346MOL0     H47739   3.112   3.680   0.216 -2.3567 -2.1201  0.3380
  346MOL0     H47740   2.981   3.661  -0.008 -0.7167 -0.4584  2.5455
  346MOL0     H47741   3.016   3.836  -0.034  2.9226  1.8108  0.2138
  346MOL0     H47742   3.263   3.742   0.007 -1.4204  2.4510 -0.8843
  346MOL0     H47743   3.187   3.786  -0.141  3.9535 -0.1685 -0.3854
  346MOL0     H47744   3.219   3.384  -0.218  2.4498  0.2821 -0.3787
  346MOL0     H47745   3.251   4.120   0.333 -1.6512 -2.1222 -2.4525
  346MOL0     H47746   3.368   4.244   0.510 -0.7561 -1.3889  0.6834
  346MOL0     H47747   3.457   4.146   0.627 -0.7907 -0.0086  0.5611
  346MOL0     H47748   3.543   4.236   0.492 -0.1737 -0.9905 -1.6019
  347MOL0     O47749   4.143   5.577   1.193 -0.0918  1.0334 -0.5473
  347MOL0     C47750   4.060   5.511   1.143 -0.4230 -0.6295  0.2446
  347MOL0     O47751   4.008   5.396   1.206  0.5542 -0.2459  0.3603
  347MOL0     C47752   4.034   5.359   1.337  0.5834  0.1218 -0.2458
  347MOL0     C47753   3.923   5.304   1.398  0.1909  0.2631 -0.0177
  347MOL0     C47754   3.929   5.276   1.539  0.0473  0.3005  0.4823
  347MOL0     C47755   4.038   5.309   1.620 -0.3862  0.4186  0.2879
  347MOL0     O47756   4.048   5.266   1.752  0.0080  0.5369 -0.4841
  347MOL0     C47757   3.936   5.308   1.837 -0.0291  0.6187  0.8136
  347MOL0     C47758   3.835   5.191   1.870 -0.3965  0.1613 -0.1816
  347MOL0     C47759   3.728   5.244   1.970  0.6429  0.1484 -0.1053
  347MOL0     C47760   3.628   5.134   1.977 -0.0387  0.3876 -0.5123
  347MOL0     C47761   3.512   5.153   2.078 -0.3145 -0.5493  0.0393
  347MOL0     C47762   3.397   5.241   2.019 -0.4632  0.1632  0.0026
  347MOL0     C47763   3.287   5.272   2.118  0.2459  0.2661  0.3436
  347MOL0     C47764   3.209   5.401   2.081 -0.7733  0.5678  0.1095
  347MOL0     N47765   3.119   5.399   1.962 -0.0295 -0.0509  0.7792
  347MOL0     C47766   3.119   5.490   1.861 -1.1016  0.2947  0.7782
  347MOL0     C47767   3.004   5.462   1.795  0.7753 -0.3757  0.2979
  347MOL0     C47768   2.953   5.521   1.667 -0.7280 -0.3970  0.4300
  347MOL0     C47769   2.853   5.422   1.592  0.2391 -0.0081 -0.2330
  347MOL0     C47770   2.710   5.414   1.637  0.1702 -0.6434 -0.5916
  347MOL0     C47771   2.639   5.555   1.652  0.2749  0.6059 -0.2533
  347MOL0     O47772   2.500   5.543   1.613  0.1662 -0.3968 -0.0075
  347MOL0     C47773   2.426   5.655   1.591  0.6313  0.0044  0.4625
  347MOL0     C47774   2.293   5.634   1.555  0.2828  0.6570  0.7457
  347MOL0     C47775   2.204   5.740   1.526 -0.6355  0.2409  0.0957
  347MOL0     C47776   2.060   5.701   1.492  0.6450 -0.2740 -0.5895
  347MOL0     C47777   2.253   5.874   1.533  0.1386  0.2716  0.5284
  347MOL0     C47778   2.164   5.991   1.517 -1.0810  0.1448  0.2895
  347MOL0     O47779   2.024   5.981   1.508 -0.3609  0.7215 -0.2142
  347MOL0     C47780   1.928   6.079   1.526  0.0094  0.3605 -0.4765
  347MOL0     C47781   1.950   6.170   1.625  0.1512  0.1999  0.3706
  347MOL0     C47782   1.850   6.271   1.641  0.1706  0.1488 -0.0076
  347MOL0     C47783   1.724   6.268   1.578 -0.0851  0.2944 -0.3064
  347MOL0     O47784   1.627   6.365   1.610 -0.3811 -0.5568 -0.3157
  347MOL0     C47785   1.497   6.341   1.570  0.8733 -0.1634  0.1301
  347MOL0     C47786   1.401   6.454   1.625 -0.1736  0.7473  1.1006
  347MOL0     C47787   1.430   6.600   1.570  0.5263  0.2292  0.1244
  347MOL0     C47788   1.334   6.706   1.627  0.3391  0.5232 -0.1246
  347MOL0     C47789   1.207   6.699   1.548  0.2141  0.3297  0.5368
  347MOL0     C47790   1.138   6.834   1.554  0.8644  0.0202  0.5426
  347MOL0     C47791   1.008   6.839   1.461  0.1500  0.2518  1.0266
  347MOL0     C47792   0.909   6.960   1.496 -0.5245 -0.8037 -0.8527
  347MOL0    Cl47793   0.751   6.920   1.448 -0.0646 -0.3062  0.2109
  347MOL0     C47794   1.703   6.162   1.499  0.9807  0.1033 -0.2649
  347MOL0     C47795   1.809   6.070   1.473 -0.0985 -0.7455  0.0697
  347MOL0     O47796   2.221   6.100   1.506  0.5026 -0.0606 -0.2782
  347MOL0     C47797   2.392   5.891   1.570 -0.6029 -0.2253  0.5498
  347MOL0     C47798   2.477   5.788   1.594 -0.9871  0.4049 -0.4547
  347MOL0     N47799   2.937   5.359   1.859  0.6193 -0.2519  0.1829
  347MOL0     N47800   3.007   5.322   1.958 -0.9916  0.9551 -0.6044
  347MOL0     C47801   4.144   5.369   1.557  0.0733  0.2814  0.2091
  347MOL0     C47802   4.140   5.397   1.419 -0.6707  0.1818  0.5380
  347MOL0     C47803   4.024   5.536   0.999  0.3871 -0.3113 -0.4872
  347MOL0     C47804   3.961   5.425   0.932  0.2741  0.5305 -0.3173
  347MOL0     C47805   3.903   5.443   0.807  0.5061  0.0910  0.1113
  347MOL0     C47806   3.911   5.567   0.745 -0.8411  1.0211 -0.6468
  347MOL0     O47807   3.858   5.583   0.624 -0.1435  0.3654  0.5468
  347MOL0     C47808   3.755   5.681   0.600 -0.3142  0.5231  0.2674
  347MOL0     C47809   3.613   5.620   0.635 -0.2166  0.1207 -0.3288
  347MOL0     C47810   3.574   5.488   0.556 -0.8770 -1.0234 -0.0034
  347MOL0     C47811   3.504   5.393   0.656  0.6536  0.6425  0.8407
  347MOL0     C47812   3.439   5.290   0.571 -0.0059  0.2703 -0.2414
  347MOL0     C47813   3.388   5.201   0.508  0.8214 -0.5528  0.1602
  347MOL0     C47814   3.966   5.676   0.813 -1.2366  0.8441 -0.4855
  347MOL0     C47815   4.019   5.658   0.940  0.1066 -0.4452  0.1387
  347MOL0     C47816   4.081   5.777   0.998  0.0310  0.6481  0.1045
  347MOL0     H47817   3.834   5.275   1.343  2.2201 -0.8693 -2.9221
  347MOL0     H47818   3.845   5.226   1.586  2.1024 -2.7177  1.1907
  347MOL0     H47819   3.885   5.387   1.782 -1.7489 -2.2423 -2.0526
  347MOL0     H47820   3.970   5.340   1.936  0.4538  2.1600  0.1762
  347MOL0     H47821   3.784   5.142   1.787 -0.4337 -2.5491  1.3471
  347MOL0     H47822   3.904   5.114   1.907  1.9065  1.3381 -1.7448
  347MOL0     H47823   3.776   5.256   2.067  1.0233 -1.9141 -0.0066
  347MOL0     H47824   3.673   5.333   1.936 -2.3760 -2.2533 -2.0460
  347MOL0     H47825   3.585   5.125   1.877  1.8705  1.9475 -1.5488
  347MOL0     H47826   3.690   5.046   1.995  1.8465  1.0796 -3.0150
  347MOL0     H47827   3.542   5.199   2.172 -2.7267  1.2868  0.0192
  347MOL0     H47828   3.479   5.050   2.094  0.9395 -1.4964 -2.7820
  347MOL0     H47829   3.449   5.332   1.987  0.9922  0.1214  2.1059
  347MOL0     H47830   3.356   5.182   1.936  0.2589  1.9668 -1.7392
  347MOL0     H47831   3.334   5.286   2.216 -1.4677  2.0503  0.9745
  347MOL0     H47832   3.210   5.194   2.120  0.1123  0.3502  3.2057
  347MOL0     H47833   3.140   5.416   2.165  0.9225 -0.0995  1.6904
  347MOL0     H47834   3.274   5.488   2.071 -2.4429  1.8153 -0.3100
  347MOL0     H47835   3.191   5.568   1.837 -1.0300 -0.3995 -1.4664
  347MOL0     H47836   3.041   5.535   1.604 -0.7119 -0.2513  0.4843
  347MOL0     H47837   2.913   5.620   1.688  2.1454  0.6155  1.6977
  347MOL0     H47838   2.856   5.450   1.486  4.7205 -1.9890 -0.8769
  347MOL0     H47839   2.896   5.323   1.613  0.7221  0.3417  0.4523
  347MOL0     H47840   2.665   5.373   1.547  3.9127 -1.4198 -2.3035
  347MOL0     H47841   2.695   5.347   1.722  2.2707  0.1550  0.4770
  347MOL0     H47842   2.648   5.595   1.754 -1.2351  0.7127 -0.1269
  347MOL0     H47843   2.684   5.631   1.587 -1.2661  0.5828 -1.4049
  347MOL0     H47844   2.264   5.530   1.548 -1.4418  1.0956  0.9790
  347MOL0     H47845   1.987   5.753   1.555 -4.1382 -2.2685 -3.8680
  347MOL0     H47846   2.042   5.594   1.510 -0.7905  0.1075  0.4180
  347MOL0     H47847   2.019   5.729   1.395  1.3491 -0.2084 -0.8724
  347MOL0     H47848   2.039   6.177   1.688 -0.8643 -0.4617  1.9440
  347MOL0     H47849   1.858   6.357   1.707 -1.1020  0.3502 -0.0972
  347MOL0     H47850   1.490   6.341   1.461 -0.8448  0.0030  0.2054
  347MOL0     H47851   1.450   6.245   1.594  0.1306 -0.1395 -1.1253
  347MOL0     H47852   1.301   6.417   1.600  0.8074 -0.0667 -2.0169
  347MOL0     H47853   1.417   6.456   1.734  2.4982  1.1261  0.7787
  347MOL0     H47854   1.410   6.583   1.464  3.6958  3.4108 -1.1644
  347MOL0     H47855   1.536   6.626   1.576  0.8513 -0.8161 -0.7398
  347MOL0     H47856   1.384   6.801   1.609  0.3328  1.1212  2.5829
  347MOL0     H47857   1.320   6.702   1.735  1.0785  2.3900  0.0746
  347MOL0     H47858   1.227   6.685   1.441  1.6929  1.8532  0.5713
  347MOL0     H47859   1.129   6.626   1.573  0.0362  0.3879  0.1632
  347MOL0     H47860   1.199   6.916   1.516  2.1396  0.3312  3.0836
  347MOL0     H47861   1.115   6.852   1.659  2.9571 -1.6085  1.3333
  347MOL0     H47862   0.948   6.750   1.483 -1.5248  1.5475  1.9451
  347MOL0     H47863   1.042   6.832   1.357 -0.0642 -0.4881  0.9989
  347MOL0     H47864   0.937   7.054   1.448 -3.5734  1.5578  1.5841
  347MOL0     H47865   0.911   6.977   1.604  3.1190  0.3511 -0.9907
  347MOL0     H47866   1.609   6.140   1.449  1.2476  1.1026 -1.2473
  347MOL0     H47867   1.803   5.979   1.415 -0.1978 -1.1630  0.7192
  347MOL0     H47868   2.428   5.992   1.582  1.4668 -0.8424 -0.0598
  347MOL0     H47869   2.576   5.817   1.626 -1.2860  2.2874 -1.0681
  347MOL0     H47870   4.222   5.400   1.626  0.8556 -1.1093 -0.0294
  347MOL0     H47871   4.224   5.454   1.382  3.3290 -3.7249  2.6282
  347MOL0     H47872   3.959   5.322   0.966  0.6780  0.5087 -0.3627
  347MOL0     H47873   3.863   5.359   0.752  0.6083  1.7278 -2.6816
  347MOL0     H47874   3.779   5.772   0.656  2.4955  0.1432 -0.1640
  347MOL0     H47875   3.764   5.708   0.494  2.4968  0.5887  0.4304
  347MOL0     H47876   3.536   5.690   0.601  0.0066  2.5254  3.5208
  347MOL0     H47877   3.600   5.609   0.743 -1.9467 -1.3879 -0.6436
  347MOL0     H47878   3.517   5.526   0.471  0.0290  1.1417  0.2746
  347MOL0     H47879   3.659   5.430   0.520 -1.7131 -1.8813 -0.6541
  347MOL0     H47880   3.430   5.449   0.714  0.7960  1.8974 -0.1438
  347MOL0     H47881   3.569   5.334   0.721  2.3337 -1.3768 -2.3831
  347MOL0     H47882   3.337   5.116   0.467 -3.4614  0.8190  2.0230
  347MOL0     H47883   3.980   5.770   0.761 -1.8442 -0.0831 -2.4450
  347MOL0     H47884   4.045   5.870   0.951  0.0673  1.3784  1.4701
  347MOL0     H47885   4.051   5.783   1.103 -1.9655 -0.8702 -0.3124
  347MOL0     H47886   4.189   5.786   0.986  0.4785 -3.9768 -1.2607
  348MOL0     O47887   6.441  10.441   5.745  0.0192 -0.2823  0.1817
  348MOL0     C47888   6.388  10.330   5.751  0.0960 -0.0699  0.4171
  348MOL0     O47889   6.437  10.205   5.709  0.7756 -0.1959 -0.3987
  348MOL0     C47890   6.561  10.214   5.658 -0.7002 -0.2770  0.2553
  348MOL0     C47891   6.596  10.239   5.525  0.2508  0.8255  1.0959
  348MOL0     C47892   6.727  10.242   5.476  0.2264  0.1221  0.1578
  348MOL0     C47893   6.833  10.229   5.563 -0.0815 -0.1559  0.4517
  348MOL0     O47894   6.956  10.243   5.506 -0.4484  0.7729 -0.0959
  348MOL0     C47895   7.036  10.348   5.571 -0.0215 -0.2686 -0.1069
  348MOL0     C47896   7.075  10.461   5.488  0.0039  0.3154  1.2358
  348MOL0     C47897   7.139  10.562   5.568 -0.1468  0.0100  0.6216
  348MOL0     C47898   7.219  10.648   5.473  0.6122 -0.3874 -1.2894
  348MOL0     C47899   7.295  10.753   5.546  0.6832 -0.1800  0.5461
  348MOL0     C47900   7.394  10.826   5.452  0.1102 -0.2182  0.5261
  348MOL0     C47901   7.519  10.747   5.422  0.3759  0.1251  0.0873
  348MOL0     C47902   7.624  10.850   5.383 -0.0511 -0.2332 -0.2182
  348MOL0     N47903   7.742  10.813   5.299  0.4260  0.4818  0.2149
  348MOL0     C47904   7.780  10.683   5.288 -0.6878 -1.0238 -0.6265
  348MOL0     C47905   7.843  10.670   5.174  0.8256  0.1889  0.0254
  348MOL0     C47906   7.898  10.543   5.114  0.2569  1.3069  0.4198
  348MOL0     C47907   8.034  10.520   5.187  0.2709  0.4287 -0.3900
  348MOL0     C47908   8.154  10.601   5.125  0.2382  0.2331 -0.6562
  348MOL0     C47909   8.200  10.541   4.997  1.1521  0.8664  0.6084
  348MOL0     O47910   8.277  10.425   5.047 -0.2807  0.6442 -0.2306
  348MOL0     C47911   8.308  10.336   4.943  0.6879 -0.1619 -0.5530
  348MOL0     C47912   8.253  10.211   4.947  0.2835  0.3694  0.6173
  348MOL0     C47913   8.295  10.122   4.852 -1.0476  0.1135  0.0368
  348MOL0     C47914   8.230   9.986   4.842  0.5152 -0.3348 -0.2936
  348MOL0     C47915   8.388  10.156   4.748  0.1403 -0.4020  0.4186
  348MOL0     C47916   8.435  10.069   4.648 -0.6402 -0.4773  0.0783
  348MOL0     O47917   8.562  10.093   4.617 -0.3784 -0.1413  0.1095
  348MOL0     C47918   8.619  10.031   4.507 -0.5049 -0.5567  0.6597
  348MOL0     C47919   8.600  10.079   4.374 -0.8355 -0.8100 -0.0522
  348MOL0     C47920   8.669  10.021   4.266 -0.0272 -0.4478 -0.8819
  348MOL0     C47921   8.759   9.913   4.281 -0.0511 -0.2050  0.1189
  348MOL0     O47922   8.813   9.859   4.171  0.9699  0.1528  0.2955
  348MOL0     C47923   8.886   9.731   4.178  0.9234  0.1755 -0.6819
  348MOL0     C47924   8.930   9.712   4.034  0.6360  0.1877 -0.0917
  348MOL0     C47925   8.995   9.569   4.008  0.9724 -0.7395 -0.2446
  348MOL0     C47926   9.014   9.547   3.851  0.4447  0.2393  0.4834
  348MOL0     C47927   9.082   9.413   3.833  0.2099 -0.0015  0.3305
  348MOL0     C47928   9.118   9.381   3.688  0.3852 -0.5059  0.4642
  348MOL0     C47929   9.172   9.239   3.665 -0.0473  0.6238  0.3996
  348MOL0     C47930   9.160   9.185   3.522 -0.3524 -0.0472  0.5184
  348MOL0    Cl47931   9.209   9.018   3.520  0.4189 -0.1766 -0.1757
  348MOL0     C47932   8.767   9.852   4.409  0.0341 -0.0422 -0.2541
  348MOL0     C47933   8.703   9.920   4.518 -0.1295 -0.2322  0.1179
  348MOL0     O47934   8.368   9.975   4.609 -0.0894  0.3394 -0.3174
  348MOL0     C47935   8.452  10.283   4.754  1.7052 -0.3021  0.2276
  348MOL0     C47936   8.408  10.368   4.852 -0.0433  0.4502 -0.3178
  348MOL0     N47937   7.846  10.795   5.111 -0.7516  0.2257 -0.6470
  348MOL0     N47938   7.788  10.879   5.189 -0.5139 -0.3717 -0.1563
  348MOL0     C47939   6.802  10.218   5.700 -0.1986  0.4361 -0.1592
  348MOL0     C47940   6.673  10.204   5.749 -0.1784 -0.8797 -0.0188
  348MOL0     C47941   6.247  10.329   5.793 -0.9665 -0.0300  0.4324
  348MOL0     C47942   6.166  10.214   5.758  0.9834 -0.7559 -0.2706
  348MOL0     C47943   6.035  10.206   5.804  0.5084  0.0745  0.6314
  348MOL0     C47944   5.978  10.305   5.881 -0.0091  1.1530  0.7939
  348MOL0     O47945   5.857  10.296   5.946  0.0936  0.0628 -0.2521
  348MOL0     C47946   5.761  10.201   5.885 -1.2511 -0.3471 -1.3199
  348MOL0     C47947   5.625  10.215   5.957 -0.9403 -0.5743 -0.7350
  348MOL0     C47948   5.604  10.114   6.063  0.1965  0.6829  1.0443
  348MOL0     C47949   5.557   9.968   6.012  0.5628 -0.2133 -0.5580
  348MOL0     C47950   5.429   9.967   5.942  0.3859 -0.5039 -0.8118
  348MOL0     C47951   5.320   9.980   5.897 -0.3024 -0.3717 -0.3202
  348MOL0     C47952   6.051  10.421   5.906 -0.6995  0.1475 -0.3545
  348MOL0     C47953   6.185  10.436   5.862  0.3594 -0.0644 -0.0081
  348MOL0     C47954   6.253  10.563   5.914  0.1555 -0.6919 -0.5264
  348MOL0     H47955   6.510  10.244   5.459  0.1484  1.1563  1.2526
  348MOL0     H47956   6.740  10.252   5.368 -1.6948 -0.6955 -0.1986
  348MOL0     H47957   7.129  10.298   5.600  0.6077  1.3276  0.7237
  348MOL0     H47958   7.001  10.391   5.665  3.7809  0.9148  0.9501
  348MOL0     H47959   7.148  10.431   5.413 -0.9379  4.7630 -1.8578
  348MOL0     H47960   6.981  10.490   5.441  0.0529 -3.6573 -1.8744
  348MOL0     H47961   7.057  10.613   5.620 -0.3553 -0.0349  0.3379
  348MOL0     H47962   7.196  10.519   5.652 -0.8446 -0.9423  0.6334
  348MOL0     H47963   7.280  10.582   5.411 -1.2089 -1.9135 -1.5564
  348MOL0     H47964   7.145  10.700   5.412 -0.2519 -0.1913 -0.0921
  348MOL0     H47965   7.354  10.717   5.630  1.4501 -2.1334 -0.7727
  348MOL0     H47966   7.219  10.819   5.591 -0.5221 -0.7625 -0.5681
  348MOL0     H47967   7.349  10.858   5.358  1.5560  1.2058  0.2776
  348MOL0     H47968   7.427  10.921   5.494  0.4253  1.0744 -2.4392
  348MOL0     H47969   7.497  10.674   5.343  1.6388  0.5390 -0.6968
  348MOL0     H47970   7.554  10.688   5.507  0.1044 -0.3641 -0.1352
  348MOL0     H47971   7.580  10.930   5.324  3.5150 -0.6062 -3.8546
  348MOL0     H47972   7.664  10.895   5.474  0.0103 -0.9706  0.1237
  348MOL0     H47973   7.757  10.592   5.342 -1.2301 -0.5490 -0.0505
  348MOL0     H47974   7.915  10.546   5.006  1.4761  0.2963  0.5612
  348MOL0     H47975   7.821  10.467   5.128  0.3839  0.8280 -1.2775
  348MOL0     H47976   8.019  10.551   5.291  1.4101 -1.5815  0.4292
  348MOL0     H47977   8.061  10.414   5.186  0.6267  0.3905  2.5145
  348MOL0     H47978   8.122  10.704   5.111  0.4169  0.6358  1.6115
  348MOL0     H47979   8.234  10.599   5.199  1.1967 -1.9762 -1.6513
  348MOL0     H47980   8.109  10.529   4.936  0.7798  0.8907  1.1511
  348MOL0     H47981   8.276  10.605   4.952  2.3025  1.2329  2.9753
  348MOL0     H47982   8.174  10.197   5.020 -0.1705 -0.4380 -0.0028
  348MOL0     H47983   8.167   9.974   4.931  2.0202 -0.6587  0.7637
  348MOL0     H47984   8.305   9.907   4.844  0.1923 -0.6884  3.0137
  348MOL0     H47985   8.163   9.982   4.755  3.4002  3.7153 -3.0766
  348MOL0     H47986   8.530  10.161   4.363  2.1400  1.8207 -1.1807
  348MOL0     H47987   8.655  10.065   4.168 -1.6079 -0.1595 -0.5527
  348MOL0     H47988   8.962   9.746   4.255  1.0507  2.4624 -1.1709
  348MOL0     H47989   8.821   9.645   4.194  0.0049  1.0545  0.4399
  348MOL0     H47990   8.846   9.705   3.964 -0.6300 -0.7979  1.4562
  348MOL0     H47991   9.003   9.791   4.016  2.6351 -1.8102 -1.0935
  348MOL0     H47992   8.932   9.490   4.048  2.4121 -1.5202  0.5521
  348MOL0     H47993   9.098   9.562   4.045  0.3666 -0.6202  1.5860
  348MOL0     H47994   9.067   9.625   3.794 -0.2162  0.9962  0.8849
  348MOL0     H47995   8.909   9.549   3.820  0.4481 -2.6102 -0.0070
  348MOL0     H47996   9.177   9.414   3.887  0.2848 -1.3266  0.2455
  348MOL0     H47997   9.019   9.330   3.865 -0.5162 -0.5168 -2.1795
  348MOL0     H47998   9.190   9.456   3.652  1.1800  0.0483  2.9838
  348MOL0     H47999   9.027   9.399   3.631  2.6289 -1.1237 -3.6523
  348MOL0     H48000   9.112   9.169   3.723  1.6913 -1.2805 -0.0162
  348MOL0     H48001   9.276   9.220   3.689 -0.2638 -0.1449  0.7515
  348MOL0     H48002   9.223   9.236   3.449 -0.1647 -2.1348 -0.8886
  348MOL0     H48003   9.063   9.205   3.475 -1.2012  1.1753  2.6791
  348MOL0     H48004   8.824   9.760   4.416 -0.9914 -0.7433 -0.8794
  348MOL0     H48005   8.723   9.878   4.616  2.1096  2.0982  0.7428
  348MOL0     H48006   8.510  10.323   4.671  0.7201 -0.5891 -0.6182
  348MOL0     H48007   8.449  10.465   4.879  2.8432 -1.3865  2.6360
  348MOL0     H48008   6.881  10.223   5.774 -1.3019  3.0927  0.9718
  348MOL0     H48009   6.650  10.184   5.854 -1.4822  1.6702  0.2457
  348MOL0     H48010   6.196  10.126   5.703 -1.7613 -2.1498  0.2889
  348MOL0     H48011   5.975  10.117   5.785 -0.6303  0.7338  1.0804
  348MOL0     H48012   5.751  10.225   5.779 -0.4717 -0.2553 -1.3826
  348MOL0     H48013   5.815  10.106   5.888 -0.3789 -0.0363 -4.0782
  348MOL0     H48014   5.545  10.222   5.882 -0.2376  5.2757 -1.4021
  348MOL0     H48015   5.628  10.307   6.017  0.9852 -0.1052 -1.4616
  348MOL0     H48016   5.696  10.098   6.120  1.1146 -0.5802 -0.6877
  348MOL0     H48017   5.522  10.153   6.124 -1.4315  0.4893 -0.9154
  348MOL0     H48018   5.558   9.884   6.082  1.5132 -1.0075 -1.4849
  348MOL0     H48019   5.624   9.934   5.933  0.3570 -2.2754  0.0846
  348MOL0     H48020   5.219   9.979   5.861  0.5388 -0.8052 -2.8871
  348MOL0     H48021   6.012  10.491   5.979 -0.0745  1.2855 -1.0824
  348MOL0     H48022   6.295  10.626   5.836  1.2687 -2.6800 -1.6220
  348MOL0     H48023   6.184  10.614   5.982  0.5256 -0.5371 -0.2655
  348MOL0     H48024   6.335  10.532   5.979  0.0884 -0.1537 -0.1849
  349MOL0     O48025   8.216   2.125   9.878  0.3160  0.4105 -0.5848
  349MOL0     C48026   8.279   2.209   9.939 -0.5621  0.4291 -0.3966
  349MOL0     O48027   8.397   2.190   9.994  0.8510 -0.6526  0.1360
  349MOL0     C48028   8.481   2.297  10.026  0.2104  0.2722 -0.0622
  349MOL0     C48029   8.517   2.388   9.920 -0.6233  1.2069  0.3640
  349MOL0     C48030   8.589   2.502   9.965  0.0268  0.4535  0.8175
  349MOL0     C48031   8.637   2.517  10.097  0.0921 -0.1311  0.4321
  349MOL0     O48032   8.687   2.634  10.151  0.0898 -0.3202  0.3097
  349MOL0     C48033   8.762   2.721  10.068  0.2424  0.2219  0.7552
  349MOL0     C48034   8.901   2.674  10.046  0.2028 -0.3025  0.1873
  349MOL0     C48035   8.972   2.615  10.168  0.1673 -0.7706  0.9692
  349MOL0     C48036   9.128   2.628  10.146  0.0446  1.2794  0.2488
  349MOL0     C48037   9.169   2.615  10.293  1.5256  0.3680 -0.5658
  349MOL0     C48038   9.320   2.620  10.301  0.7099 -0.3307  0.8106
  349MOL0     C48039   9.380   2.568  10.432 -0.2292  0.4013 -0.3569
  349MOL0     C48040   9.532   2.570  10.453  0.6663  0.0654  0.8475
  349MOL0     N48041   9.575   2.710  10.453  0.2615  0.6346  0.3491
  349MOL0     C48042   9.548   2.808  10.545  0.8765  0.7872 -0.3137
  349MOL0     C48043   9.644   2.895  10.541 -0.1606 -0.0952 -0.5516
  349MOL0     C48044   9.664   3.021  10.622 -0.1072 -0.0407  0.3308
  349MOL0     C48045   9.772   3.115  10.569 -0.0458 -0.4829 -0.7701
  349MOL0     C48046   9.802   3.234  10.661 -0.0483  0.7970 -0.0617
  349MOL0     C48047   9.698   3.321  10.718  0.1718 -0.2983  0.6291
  349MOL0     O48048   9.599   3.377  10.628 -0.1977  0.3838 -0.1523
  349MOL0     C48049   9.627   3.503  10.598 -0.2713 -0.0693  0.5880
  349MOL0     C48050   9.705   3.535  10.489  0.4396 -0.0069 -0.3392
  349MOL0     C48051   9.731   3.664  10.453 -0.2499 -0.3507 -0.4559
  349MOL0     C48052   9.835   3.675  10.336  0.5837  0.7616  0.6765
  349MOL0     C48053   9.675   3.769  10.530 -0.6219 -0.1296 -0.7052
  349MOL0     C48054   9.694   3.916  10.496  0.9947  0.2113  0.1697
  349MOL0     O48055   9.643   4.014  10.579 -0.2773 -0.1357  0.4844
  349MOL0     C48056   9.651   4.151  10.538  0.4205  0.3790 -0.2431
  349MOL0     C48057   9.731   4.240  10.611  0.1769  0.4115 -0.9021
  349MOL0     C48058   9.741   4.378  10.573 -0.1120 -0.2141  0.8920
  349MOL0     C48059   9.662   4.423  10.470  0.3580 -0.7666  0.2053
  349MOL0     O48060   9.652   4.556  10.428  0.6164 -0.3340 -0.1923
  349MOL0     C48061   9.775   4.627  10.416  0.3741 -0.4984 -0.2822
  349MOL0     C48062   9.770   4.780  10.435  0.6498 -0.0967 -0.5471
  349MOL0     C48063   9.896   4.861  10.416 -0.7948 -0.8216 -0.6031
  349MOL0     C48064   9.979   4.816  10.300 -0.4540  0.5667  1.2040
  349MOL0     C48065  10.088   4.911  10.270  0.1137  0.6699  1.0155
  349MOL0     C48066  10.196   4.854  10.171 -0.0514  0.3718 -0.9054
  349MOL0     C48067  10.280   4.964  10.104  0.3270  0.2827 -1.1209
  349MOL0     C48068  10.378   4.924  10.002 -0.0754 -0.5629 -0.0951
  349MOL0    Cl48069  10.543   4.888  10.073  0.2448  0.4237  0.0434
  349MOL0     C48070   9.569   4.341  10.407  0.0529 -0.3105 -1.0786
  349MOL0     C48071   9.565   4.201  10.435  0.1515 -0.1902  0.3937
  349MOL0     O48072   9.733   3.930  10.380 -0.0717 -0.0991  0.3420
  349MOL0     C48073   9.597   3.733  10.648 -0.3404  0.4755 -0.7261
  349MOL0     C48074   9.569   3.599  10.675  0.4580  0.0627  0.6644
  349MOL0     N48075   9.734   2.857  10.444 -0.3812  0.5250  0.1375
  349MOL0     N48076   9.686   2.746  10.394 -0.1980 -0.5005  0.3784
  349MOL0     C48077   8.598   2.414  10.188 -0.6375 -0.0242 -0.7538
  349MOL0     C48078   8.523   2.304  10.152 -0.6912 -0.0296 -0.4646
  349MOL0     C48079   8.205   2.339   9.935 -0.1779  0.2385 -0.2753
  349MOL0     C48080   8.173   2.398   9.813 -0.0348 -0.1876  0.8093
  349MOL0     C48081   8.078   2.510   9.805 -0.6680  0.4400 -0.1322
  349MOL0     C48082   8.028   2.560   9.923  0.0233  0.8791  0.2911
  349MOL0     O48083   7.933   2.660   9.928 -0.5508 -0.2241 -0.2605
  349MOL0     C48084   7.994   2.788   9.939 -0.4147 -0.0593  0.5838
  349MOL0     C48085   7.896   2.889   9.883  0.4120 -1.0159 -0.2247
  349MOL0     C48086   7.823   2.848   9.754  1.1390  0.0037 -0.8837
  349MOL0     C48087   7.914   2.821   9.637  0.2779 -0.4573 -0.3720
  349MOL0     C48088   7.846   2.743   9.530 -0.0707 -0.4299  1.0441
  349MOL0     C48089   7.789   2.667   9.449  0.4691 -0.4478  0.5869
  349MOL0     C48090   8.054   2.501  10.047  0.5150 -0.8864  0.2770
  349MOL0     C48091   8.143   2.388  10.052 -0.6923 -0.5393  0.6268
  349MOL0     C48092   8.172   2.324  10.191  0.4187  1.0170  0.2299
  349MOL0     H48093   8.480   2.366   9.820  0.1135 -1.1271  0.5534
  349MOL0     H48094   8.605   2.580   9.891 -0.1882  0.9442  1.2745
  349MOL0     H48095   8.769   2.815  10.124  1.0804 -1.8904  4.5850
  349MOL0     H48096   8.707   2.744   9.977  0.0367 -0.9960  0.5524
  349MOL0     H48097   8.889   2.595   9.971 -2.9527 -1.6608  1.9444
  349MOL0     H48098   8.958   2.758  10.006  0.7411 -1.2786 -1.1979
  349MOL0     H48099   8.937   2.677  10.252  3.0906 -1.1158  2.6239
  349MOL0     H48100   8.937   2.516  10.196 -1.5363 -0.4612 -0.0064
  349MOL0     H48101   9.181   2.555  10.084  2.3707  2.8398  0.2463
  349MOL0     H48102   9.166   2.721  10.102 -0.9152  1.6168  0.1066
  349MOL0     H48103   9.127   2.521  10.330 -2.2289  1.5320 -1.4584
  349MOL0     H48104   9.134   2.694  10.360  2.9350 -1.9247  3.2677
  349MOL0     H48105   9.358   2.563  10.216 -1.9168  0.5216 -1.0437
  349MOL0     H48106   9.348   2.724  10.279 -0.5252 -0.3841 -1.1970
  349MOL0     H48107   9.339   2.468  10.449  1.1002  0.0503  1.0522
  349MOL0     H48108   9.338   2.632  10.510  0.4401  1.5988 -0.9693
  349MOL0     H48109   9.555   2.519  10.547 -1.1467 -0.6372  0.9450
  349MOL0     H48110   9.573   2.511  10.371 -1.2477  0.9847 -0.8532
  349MOL0     H48111   9.455   2.807  10.600  0.8744  1.4803 -0.2913
  349MOL0     H48112   9.677   2.983  10.724  0.7745 -1.0825 -0.1510
  349MOL0     H48113   9.571   3.078  10.617  0.4208  0.7679 -0.6175
  349MOL0     H48114   9.863   3.055  10.567  0.4358 -0.3232  4.3810
  349MOL0     H48115   9.744   3.157  10.472 -0.4453  2.8118  0.6681
  349MOL0     H48116   9.849   3.184  10.746 -1.0624  0.0158  0.0563
  349MOL0     H48117   9.871   3.295  10.602 -0.3178 -0.6667 -1.9865
  349MOL0     H48118   9.640   3.269  10.795 -0.6438  1.1053  1.0110
  349MOL0     H48119   9.740   3.406  10.773 -2.4418  1.0849  0.6470
  349MOL0     H48120   9.737   3.454  10.425  0.0616  2.2285 -3.5778
  349MOL0     H48121   9.904   3.746  10.383  2.1958 -0.1802 -0.1905
  349MOL0     H48122   9.798   3.727  10.247 -0.8963  2.2190  2.0704
  349MOL0     H48123   9.894   3.591  10.298 -0.4972  0.6359 -0.7734
  349MOL0     H48124   9.800   4.208  10.689  2.1834  0.9147 -2.3836
  349MOL0     H48125   9.805   4.445  10.629 -0.5067 -2.0150  3.6472
  349MOL0     H48126   9.849   4.594  10.491  2.0504  0.8251 -1.2889
  349MOL0     H48127   9.818   4.612  10.317  0.5521 -1.0059 -0.1364
  349MOL0     H48128   9.693   4.817  10.367 -1.0700 -1.2841  0.6636
  349MOL0     H48129   9.731   4.807  10.533 -1.2290 -1.1967 -0.9359
  349MOL0     H48130   9.957   4.856  10.507 -0.3137  1.6996 -0.7349
  349MOL0     H48131   9.882   4.969  10.410 -2.1746 -0.6845  2.8495
  349MOL0     H48132   9.922   4.801  10.208 -0.3845 -0.7475  1.3609
  349MOL0     H48133  10.028   4.722  10.326  1.0964  0.6352 -1.2122
  349MOL0     H48134  10.033   4.992  10.221 -0.8346 -1.8480 -2.4398
  349MOL0     H48135  10.146   4.937  10.359  1.2827 -0.3360  0.5708
  349MOL0     H48136  10.146   4.796  10.093  0.1861 -0.6634 -0.3050
  349MOL0     H48137  10.265   4.792  10.228 -1.5389 -1.2956 -0.8327
  349MOL0     H48138  10.343   5.002  10.185 -1.8073 -1.0877  1.2858
  349MOL0     H48139  10.215   5.034  10.049 -2.1993 -2.5470 -1.9781
  349MOL0     H48140  10.393   5.003   9.928  0.9620 -1.2956 -0.6998
  349MOL0     H48141  10.346   4.839   9.940 -1.5068 -0.2700  0.2123
  349MOL0     H48142   9.505   4.378  10.328  0.0453 -0.3734 -1.1029
  349MOL0     H48143   9.514   4.129  10.372 -0.5607 -1.1162  1.9722
  349MOL0     H48144   9.551   3.820  10.693 -2.2625  0.4331 -2.4568
  349MOL0     H48145   9.504   3.562  10.754  0.8855 -0.7617  0.6434
  349MOL0     H48146   8.628   2.423  10.291  1.9035 -0.4581 -1.4049
  349MOL0     H48147   8.504   2.219  10.217 -2.1656 -0.1130 -0.9620
  349MOL0     H48148   8.215   2.367   9.717  0.2007 -0.9674  1.1537
  349MOL0     H48149   8.045   2.565   9.717 -1.0070  1.3938  0.5747
  349MOL0     H48150   8.012   2.824  10.040 -3.4013  1.0176  0.8070
  349MOL0     H48151   8.079   2.800   9.870 -3.2717 -2.9926 -4.0143
  349MOL0     H48152   7.937   2.988   9.861  0.4516 -1.1873 -0.9429
  349MOL0     H48153   7.821   2.909   9.960 -0.0081  0.4442 -0.9720
  349MOL0     H48154   7.768   2.754   9.769  1.8582 -0.1834  0.7680
  349MOL0     H48155   7.751   2.926   9.727 -0.4780 -0.6035  1.4103
  349MOL0     H48156   8.007   2.773   9.668  2.4691  2.6282 -1.6043
  349MOL0     H48157   7.945   2.918   9.597 -1.6204  0.5871  0.5499
  349MOL0     H48158   7.738   2.602   9.381 -0.6310  0.2124  0.7514
  349MOL0     H48159   8.004   2.535  10.138  2.8997 -0.8033  1.6254
  349MOL0     H48160   8.237   2.237  10.177 -2.2051 -0.8328 -1.3358
  349MOL0     H48161   8.232   2.388  10.256  1.9313 -2.1507  2.2123
  349MOL0     H48162   8.084   2.282  10.242  2.8896 -2.0535  2.3493
  350MOL0     O48163   2.126   7.985   0.646  0.1996  0.0355  0.3566
  350MOL0     C48164   2.021   7.993   0.711  0.0198  0.2594  0.7456
  350MOL0     O48165   1.982   7.911   0.818  0.0176  0.0486  0.4232
  350MOL0     C48166   2.052   7.797   0.839 -0.3813  1.0577  0.6234
  350MOL0     C48167   2.125   7.785   0.954  0.7918 -0.6840 -0.0802
  350MOL0     C48168   2.195   7.672   0.999  0.2718  0.3466 -0.7948
  350MOL0     C48169   2.192   7.550   0.921  1.5789  0.0769  0.6166
  350MOL0     O48170   2.258   7.439   0.967  0.2445  0.7609 -0.0492
  350MOL0     C48171   2.234   7.307   0.926  0.3324  0.2492 -0.4029
  350MOL0     C48172   2.287   7.213   1.031  0.0331  0.2495  0.2084
  350MOL0     C48173   2.437   7.204   1.006 -0.2611  0.1079 -0.0887
  350MOL0     C48174   2.508   7.320   1.080 -0.7381  0.3164 -0.1553
  350MOL0     C48175   2.653   7.291   1.072 -0.8553 -0.4534 -0.0859
  350MOL0     C48176   2.731   7.410   1.127  1.0058 -0.5415  0.4572
  350MOL0     C48177   2.881   7.388   1.158  0.4144 -0.4903 -0.1899
  350MOL0     C48178   2.942   7.523   1.210 -0.6043 -0.7851  0.4308
  350MOL0     N48179   3.085   7.523   1.194 -0.2184 -0.8648  0.0566
  350MOL0     C48180   3.172   7.522   1.297 -0.3582 -0.7128  1.2100
  350MOL0     C48181   3.296   7.523   1.241  0.4818  1.1856 -0.6692
  350MOL0     C48182   3.411   7.555   1.334  0.2380 -0.7711 -0.0627
  350MOL0     C48183   3.532   7.469   1.336 -0.4964 -0.2304 -0.0854
  350MOL0     C48184   3.517   7.346   1.422  0.5710 -0.5267 -0.8018
  350MOL0     C48185   3.638   7.252   1.382  0.0196 -0.4381  1.4650
  350MOL0     O48186   3.643   7.169   1.502  1.0112 -0.3280  0.2928
  350MOL0     C48187   3.763   7.128   1.548 -0.0744  0.2401 -0.8915
  350MOL0     C48188   3.784   7.104   1.685  0.5311 -0.1039  0.0015
  350MOL0     C48189   3.899   7.047   1.736 -0.6013  0.1431  0.3854
  350MOL0     C48190   3.898   7.013   1.883 -0.6180 -0.5965 -0.3644
  350MOL0     C48191   4.009   7.017   1.648 -0.5834  0.8061  1.3389
  350MOL0     C48192   4.140   6.960   1.695  0.0933 -1.5002 -0.6741
  350MOL0     O48193   4.242   6.959   1.602 -0.5059 -0.1659  0.6259
  350MOL0     C48194   4.368   6.967   1.648 -0.5336 -0.1028  0.4169
  350MOL0     C48195   4.424   6.874   1.736  0.1359  0.6679 -0.3930
  350MOL0     C48196   4.558   6.889   1.785  0.3614 -0.7714  0.4584
  350MOL0     C48197   4.639   6.988   1.719  0.4942 -0.5029 -0.7966
  350MOL0     O48198   4.773   7.002   1.727  0.9430  0.0634 -0.0995
  350MOL0     C48199   4.859   6.886   1.720  0.2951  0.4643 -0.6039
  350MOL0     C48200   5.005   6.932   1.728 -0.4147  0.3566  0.1373
  350MOL0     C48201   5.113   6.816   1.718  0.5802 -0.2725 -0.5313
  350MOL0     C48202   5.091   6.716   1.606 -0.3215 -0.5560 -0.6455
  350MOL0     C48203   5.191   6.599   1.607 -0.7954  0.2508 -0.5921
  350MOL0     C48204   5.335   6.638   1.586  0.2424  0.0673  0.2828
  350MOL0     C48205   5.434   6.527   1.570  0.3350 -0.4654 -0.7544
  350MOL0     C48206   5.558   6.582   1.507 -0.0971 -0.0634  0.4698
  350MOL0    Cl48207   5.693   6.466   1.494  0.0104  0.5009 -0.0083
  350MOL0     C48208   4.581   7.083   1.627  1.1164  0.4948 -0.1701
  350MOL0     C48209   4.441   7.074   1.598 -0.3159  0.6398  0.7333
  350MOL0     O48210   4.145   6.913   1.810 -0.5283 -0.0205 -0.3218
  350MOL0     C48211   3.990   7.045   1.510  0.2013  0.3590  0.0913
  350MOL0     C48212   3.875   7.103   1.468  0.4558  0.1146  0.1242
  350MOL0     N48213   3.284   7.512   1.108 -0.0013  0.1723  0.1803
  350MOL0     N48214   3.157   7.504   1.078  0.2257  0.0214  0.3791
  350MOL0     C48215   2.117   7.558   0.802  0.1747  0.2929 -0.8419
  350MOL0     C48216   2.044   7.677   0.762  0.0123 -0.3319 -0.1604
  350MOL0     C48217   1.930   8.101   0.685  0.1151  0.7026 -0.2202
  350MOL0     C48218   1.986   8.232   0.701  0.4606  0.8459  0.5373
  350MOL0     C48219   1.920   8.355   0.671 -0.4030  0.3964  1.0405
  350MOL0     C48220   1.789   8.348   0.626  0.4442  0.5163 -0.8131
  350MOL0     O48221   1.719   8.459   0.568  0.2155 -0.0466 -0.0833
  350MOL0     C48222   1.781   8.588   0.564  0.6783 -0.4098 -0.8528
  350MOL0     C48223   1.672   8.688   0.497 -0.5111 -0.8479 -0.8796
  350MOL0     C48224   1.628   8.659   0.354 -0.0458 -0.9840 -0.0297
  350MOL0     C48225   1.745   8.642   0.264 -0.0653  1.0585 -0.5593
  350MOL0     C48226   1.832   8.767   0.250 -1.0150 -0.3728 -0.4160
  350MOL0     C48227   1.916   8.862   0.223  0.8617  0.5574 -1.0828
  350MOL0     C48228   1.727   8.214   0.627  0.5429  0.1645  0.5501
  350MOL0     C48229   1.801   8.100   0.642  0.1727  0.7343 -0.1091
  350MOL0     C48230   1.725   7.970   0.628  0.6822 -0.1954  0.1713
  350MOL0     H48231   2.135   7.872   1.019  0.9899  0.3049 -1.3707
  350MOL0     H48232   2.261   7.682   1.085 -2.2243 -1.0513  1.4596
  350MOL0     H48233   2.280   7.295   0.827 -0.2276 -0.6383 -0.5744
  350MOL0     H48234   2.126   7.287   0.925  0.3832 -0.4776  1.9862
  350MOL0     H48235   2.269   7.255   1.130 -0.6148  0.4749  0.0014
  350MOL0     H48236   2.244   7.113   1.016 -3.6528  2.0191 -2.7528
  350MOL0     H48237   2.471   7.112   1.054  0.7492  1.2728  1.5428
  350MOL0     H48238   2.470   7.210   0.902  3.7207  1.4285  1.0563
  350MOL0     H48239   2.486   7.422   1.046 -2.5522  0.0732  0.1637
  350MOL0     H48240   2.482   7.334   1.186  0.3710 -0.1072  0.1822
  350MOL0     H48241   2.695   7.275   0.972  0.6379 -1.2788  0.6258
  350MOL0     H48242   2.674   7.199   1.128  2.7470  0.8617  0.9922
  350MOL0     H48243   2.729   7.487   1.048  2.0401 -0.8098  0.1504
  350MOL0     H48244   2.683   7.445   1.218  0.8477 -0.3090  0.2879
  350MOL0     H48245   2.936   7.353   1.069  0.2917 -1.2594  0.0257
  350MOL0     H48246   2.892   7.305   1.228  0.8731 -0.1291  0.1685
  350MOL0     H48247   2.900   7.617   1.172  1.8339  0.6358  1.0778
  350MOL0     H48248   2.921   7.529   1.317 -0.2723 -0.7125  0.4907
  350MOL0     H48249   3.144   7.523   1.402 -3.6227  1.5334  0.4824
  350MOL0     H48250   3.377   7.566   1.438  2.2505 -1.4142  0.7170
  350MOL0     H48251   3.443   7.654   1.301  0.6831 -1.3100 -1.2968
  350MOL0     H48252   3.557   7.433   1.236 -2.2031 -0.1536 -0.5689
  350MOL0     H48253   3.614   7.528   1.379 -2.6116  1.2884  2.0978
  350MOL0     H48254   3.525   7.389   1.522  0.2910 -0.3860 -0.8396
  350MOL0     H48255   3.420   7.298   1.406 -1.4763  2.2643  2.0371
  350MOL0     H48256   3.615   7.212   1.283  0.9117  3.9244 -0.7495
  350MOL0     H48257   3.730   7.311   1.375  0.4006 -0.8694  2.5203
  350MOL0     H48258   3.701   7.122   1.752 -1.7681 -1.1985 -2.3916
  350MOL0     H48259   3.986   7.055   1.934 -1.9270  2.6898 -0.5986
  350MOL0     H48260   3.892   6.905   1.901  1.8330 -0.3068  3.6035
  350MOL0     H48261   3.807   7.054   1.927 -1.9798 -3.4412 -0.3511
  350MOL0     H48262   4.357   6.794   1.767 -0.7319  1.0087 -1.3131
  350MOL0     H48263   4.584   6.821   1.865  0.0572 -1.7827 -0.2790
  350MOL0     H48264   4.837   6.830   1.811 -0.9713 -1.1391 -1.8386
  350MOL0     H48265   4.827   6.811   1.647  0.3248  1.7203 -1.9504
  350MOL0     H48266   5.009   7.001   1.643  0.8525 -0.6517 -0.6723
  350MOL0     H48267   5.015   6.991   1.819 -2.1119  0.7463  0.0917
  350MOL0     H48268   5.114   6.754   1.808 -2.0506 -0.3078 -0.4512
  350MOL0     H48269   5.213   6.859   1.705 -0.0278  1.8291  1.1955
  350MOL0     H48270   5.088   6.786   1.522 -3.7454  1.8977  1.2552
  350MOL0     H48271   4.994   6.669   1.628 -1.3639  2.5739  2.3392
  350MOL0     H48272   5.183   6.524   1.686  3.8105 -2.9472 -2.6738
  350MOL0     H48273   5.157   6.543   1.519 -0.3302 -1.3455  0.2089
  350MOL0     H48274   5.371   6.688   1.676 -0.9119  0.4634  0.5470
  350MOL0     H48275   5.341   6.701   1.496  2.8555 -4.0759 -2.8495
  350MOL0     H48276   5.399   6.453   1.497 -0.7407  3.4569 -4.6404
  350MOL0     H48277   5.454   6.486   1.669 -0.9206  0.6404  0.0011
  350MOL0     H48278   5.600   6.675   1.548  3.4964 -0.7042 -1.3328
  350MOL0     H48279   5.528   6.608   1.405 -0.5046 -0.0940  0.5785
  350MOL0     H48280   4.645   7.161   1.587 -1.1428  1.7163 -1.6215
  350MOL0     H48281   4.406   7.152   1.531  0.4740  0.8036  0.4877
  350MOL0     H48282   4.066   7.014   1.439  0.5040  1.0352  0.1081
  350MOL0     H48283   3.872   7.117   1.361  2.5400  4.3271  0.4327
  350MOL0     H48284   2.107   7.469   0.740 -1.5066  0.4177 -0.7944
  350MOL0     H48285   1.973   7.675   0.679 -2.9014 -1.3652  2.1728
  350MOL0     H48286   2.086   8.247   0.742 -0.7347  2.8727  3.0343
  350MOL0     H48287   1.977   8.447   0.684  0.6350  0.1725 -1.4256
  350MOL0     H48288   1.806   8.623   0.665 -0.8176  1.6167 -1.1330
  350MOL0     H48289   1.874   8.585   0.507  1.0324  0.3648 -0.3255
  350MOL0     H48290   1.707   8.791   0.504 -0.1497 -1.0348  0.3026
  350MOL0     H48291   1.589   8.686   0.568  1.5633 -3.2951  1.7320
  350MOL0     H48292   1.561   8.572   0.353 -1.9577  0.3360 -3.2683
  350MOL0     H48293   1.565   8.742   0.320  2.0568  2.0452  2.8425
  350MOL0     H48294   1.703   8.628   0.164 -1.6806  3.8397 -0.3885
  350MOL0     H48295   1.807   8.555   0.286 -1.3333 -0.0835 -1.3461
  350MOL0     H48296   1.993   8.935   0.207  2.9087 -0.6299  2.2960
  350MOL0     H48297   1.620   8.213   0.612  0.6370  1.7151 -0.4069
  350MOL0     H48298   1.720   7.907   0.717 -1.1845 -0.9864 -0.4472
  350MOL0     H48299   1.620   7.984   0.601  0.8245  1.0695  0.2085
  350MOL0     H48300   1.770   7.913   0.546 -0.9502 -0.6757 -0.4292
  351MOL0     O48301   0.068   4.160   3.391  0.1076  0.1544  0.2498
  351MOL0     C48302   0.061   4.221   3.286 -0.4461 -0.0925 -1.2295
  351MOL0     O48303   0.076   4.168   3.160  0.4562  0.1629 -0.4855
  351MOL0     C48304   0.121   4.043   3.142 -0.1873  0.0055  0.0997
  351MOL0     C48305   0.234   4.002   3.220  1.3890 -0.3128 -0.4130
  351MOL0     C48306   0.282   3.877   3.198 -1.3263  0.4806  0.2942
  351MOL0     C48307   0.228   3.789   3.102 -0.3971  0.3446  0.3503
  351MOL0     O48308   0.267   3.665   3.086  0.2546 -0.6655  0.2371
  351MOL0     C48309   0.291   3.602   2.959  0.8960 -0.6158  0.2243
  351MOL0     C48310   0.322   3.457   2.975  0.6359  0.0264  0.2914
  351MOL0     C48311   0.232   3.378   3.065  0.0255 -0.1526 -0.4015
  351MOL0     C48312   0.233   3.227   3.021  0.7737 -0.3431  0.6966
  351MOL0     C48313   0.369   3.157   3.029  0.0388 -0.5135  0.2798
  351MOL0     C48314   0.412   3.144   3.177 -0.2188 -0.4259 -0.2776
  351MOL0     C48315   0.554   3.086   3.170  0.2211  0.3084  0.7196
  351MOL0     C48316   0.561   2.931   3.170  0.3942  0.0688 -0.1886
  351MOL0     N48317   0.697   2.891   3.134 -0.4517  0.3291 -0.4722
  351MOL0     C48318   0.809   2.895   3.220  0.5832 -0.3094  0.0374
  351MOL0     C48319   0.906   2.844   3.143 -0.6074  0.8047 -0.7684
  351MOL0     C48320   1.057   2.833   3.178 -0.4167  0.1282 -0.1529
  351MOL0     C48321   1.132   2.951   3.104 -0.7369 -0.1895 -0.2138
  351MOL0     C48322   1.079   3.096   3.139  0.4740  0.6337  0.3818
  351MOL0     C48323   1.161   3.210   3.086 -0.1630  1.0618 -0.1872
  351MOL0     O48324   1.171   3.199   2.938 -0.2780 -0.1738 -0.4931
  351MOL0     C48325   1.206   3.308   2.867  0.0462 -0.5891  0.3800
  351MOL0     C48326   1.235   3.442   2.914  0.2074  0.8576  0.6830
  351MOL0     C48327   1.260   3.549   2.822  0.2189  0.0122 -0.8825
  351MOL0     C48328   1.318   3.678   2.882 -0.2828  0.7266 -0.6572
  351MOL0     C48329   1.266   3.521   2.685  0.1973  0.3738  0.1570
  351MOL0     C48330   1.313   3.617   2.574 -0.3546 -0.1448  0.1933
  351MOL0     O48331   1.270   3.589   2.454 -0.1897  0.1097  0.3136
  351MOL0     C48332   1.339   3.638   2.342 -0.0688  0.5373 -0.9218
  351MOL0     C48333   1.479   3.645   2.323 -0.3565 -0.1121  0.4949
  351MOL0     C48334   1.527   3.708   2.208 -0.5212  0.6228  0.2052
  351MOL0     C48335   1.447   3.766   2.110 -1.1314  1.1180  0.9800
  351MOL0     O48336   1.504   3.828   2.000 -0.5510 -0.3318 -0.7895
  351MOL0     C48337   1.435   3.882   1.888 -1.0703 -0.5987  0.7377
  351MOL0     C48338   1.528   3.927   1.776  0.0486  1.2270 -0.0577
  351MOL0     C48339   1.459   3.987   1.649  0.3879 -0.1788  0.4593
  351MOL0     C48340   1.524   4.120   1.609 -0.1891 -0.2249  0.3405
  351MOL0     C48341   1.429   4.207   1.519 -0.6023 -0.5512 -0.6786
  351MOL0     C48342   1.405   4.134   1.384  0.1131 -0.4956 -1.0955
  351MOL0     C48343   1.327   4.226   1.290  0.1441 -0.0786 -0.5197
  351MOL0     C48344   1.273   4.154   1.167  0.3365 -0.2083  0.1643
  351MOL0    Cl48345   1.216   4.281   1.050 -0.0902 -0.2589  0.1764
  351MOL0     C48346   1.314   3.748   2.126 -0.0385  0.0284 -0.3263
  351MOL0     C48347   1.259   3.695   2.240  0.3875  0.3642  0.7000
  351MOL0     O48348   1.375   3.719   2.603  0.3276  0.3401 -0.4212
  351MOL0     C48349   1.230   3.387   2.638 -0.9089 -0.0064 -1.2597
  351MOL0     C48350   1.193   3.287   2.733  0.2695 -0.3028  0.2996
  351MOL0     N48351   0.856   2.792   3.025 -0.4247 -0.0726 -0.3372
  351MOL0     N48352   0.728   2.814   3.025 -0.3922 -1.0535 -0.0649
  351MOL0     C48353   0.118   3.835   3.023  0.1503 -0.4174 -0.1315
  351MOL0     C48354   0.067   3.957   3.044  0.0279 -0.0105  0.1452
  351MOL0     C48355   0.009   4.371   3.295  0.0368 -0.1074  0.0120
  351MOL0     C48356  -0.076   4.402   3.190  0.3787 -0.6248 -0.2275
  351MOL0     C48357  -0.160   4.522   3.185 -0.3139  0.0757 -0.3831
  351MOL0     C48358  -0.144   4.614   3.290  0.1207  0.1202 -0.6127
  351MOL0     O48359  -0.225   4.725   3.302 -0.0790  0.3333  0.4933
  351MOL0     C48360  -0.361   4.720   3.240  0.3798 -0.4965 -0.8722
  351MOL0     C48361  -0.428   4.831   3.308  0.2424  0.2084 -0.2818
  351MOL0     C48362  -0.579   4.838   3.289  0.2371 -0.4276  0.5533
  351MOL0     C48363  -0.617   4.841   3.136  0.2442  0.7105 -0.1543
  351MOL0     C48364  -0.765   4.823   3.112 -0.6738 -0.9039  0.2421
  351MOL0     C48365  -0.883   4.825   3.077 -0.2049 -0.4004 -0.1958
  351MOL0     C48366  -0.051   4.579   3.394  0.3905 -0.4950  1.0080
  351MOL0     C48367   0.034   4.469   3.397 -0.6717 -0.1897  0.8090
  351MOL0     C48368   0.132   4.440   3.510  0.1651  0.7454 -0.2863
  351MOL0     H48369   0.284   4.072   3.286 -1.8917  1.8585  0.0031
  351MOL0     H48370   0.368   3.834   3.249 -1.0339  0.2989 -0.3468
  351MOL0     H48371   0.378   3.647   2.910  0.9722 -0.1087  0.8192
  351MOL0     H48372   0.202   3.619   2.898  1.4312  0.1953 -0.3369
  351MOL0     H48373   0.323   3.431   2.869 -1.7412  1.2797 -0.1023
  351MOL0     H48374   0.427   3.461   3.007  0.7999  1.4710 -0.3484
  351MOL0     H48375   0.271   3.379   3.168 -0.1727 -2.5652 -0.2489
  351MOL0     H48376   0.136   3.431   3.067  0.6891  1.0955  1.2335
  351MOL0     H48377   0.159   3.169   3.078  1.2107  0.2237  1.8772
  351MOL0     H48378   0.199   3.234   2.917  2.0938  3.0624  0.3758
  351MOL0     H48379   0.448   3.211   2.976 -0.1974 -1.8855 -1.5586
  351MOL0     H48380   0.357   3.060   2.980  1.6437  0.0434 -1.3285
  351MOL0     H48381   0.404   3.239   3.232  0.1625  0.9963 -2.5716
  351MOL0     H48382   0.342   3.078   3.228 -2.0482 -0.3245 -2.5287
  351MOL0     H48383   0.599   3.110   3.266 -0.2096 -1.7981  1.5087
  351MOL0     H48384   0.601   3.134   3.084 -3.1596 -1.7993 -2.6729
  351MOL0     H48385   0.533   2.888   3.267  0.3457  1.7969  0.6135
  351MOL0     H48386   0.498   2.886   3.092  1.8390 -1.0293 -0.7517
  351MOL0     H48387   0.803   2.929   3.323  0.6825  0.8663 -0.3325
  351MOL0     H48388   1.112   2.746   3.140  2.2094  1.4934  0.2962
  351MOL0     H48389   1.068   2.835   3.287 -0.2739 -1.7631 -0.0972
  351MOL0     H48390   1.239   2.951   3.124 -0.9101  2.5063  1.2542
  351MOL0     H48391   1.127   2.932   2.997  2.6456 -0.5918 -0.3979
  351MOL0     H48392   0.977   3.108   3.102  1.2361 -1.9126 -3.0718
  351MOL0     H48393   1.068   3.100   3.248 -1.8265 -1.4473  0.3234
  351MOL0     H48394   1.129   3.306   3.126 -3.2321 -1.0237  2.9835
  351MOL0     H48395   1.255   3.186   3.136 -0.8406 -0.8512  0.2856
  351MOL0     H48396   1.242   3.466   3.020 -1.3517 -3.0930  1.8616
  351MOL0     H48397   1.273   3.702   2.979 -2.3986  1.0681 -1.6707
  351MOL0     H48398   1.289   3.766   2.824 -0.8303  1.2408  0.3642
  351MOL0     H48399   1.427   3.671   2.888 -0.3210  0.2070 -0.6017
  351MOL0     H48400   1.543   3.610   2.403  1.8770  0.4833 -0.9707
  351MOL0     H48401   1.632   3.708   2.183  0.4182 -3.5122  3.1572
  351MOL0     H48402   1.352   3.823   1.848 -2.7599  2.6091 -0.8809
  351MOL0     H48403   1.383   3.971   1.926  0.6127  0.6119  0.3207
  351MOL0     H48404   1.610   3.993   1.805  0.7731  1.2302 -1.9975
  351MOL0     H48405   1.572   3.832   1.745 -2.7271  0.1577 -1.0049
  351MOL0     H48406   1.351   3.992   1.664  0.3939 -1.0064  0.8640
  351MOL0     H48407   1.476   3.920   1.563  1.5228  1.2162 -0.4470
  351MOL0     H48408   1.617   4.110   1.551 -1.3435  2.4321 -2.2867
  351MOL0     H48409   1.540   4.181   1.699  0.1388 -2.7628  2.0807
  351MOL0     H48410   1.334   4.211   1.572  0.4176 -0.8509  1.2695
  351MOL0     H48411   1.452   4.313   1.509 -1.5887  0.5528  5.1598
  351MOL0     H48412   1.348   4.042   1.403  1.6391 -2.0343 -3.4926
  351MOL0     H48413   1.502   4.101   1.347  0.4141  0.7482 -1.4646
  351MOL0     H48414   1.395   4.310   1.277  2.8796 -2.0003  0.4044
  351MOL0     H48415   1.237   4.269   1.334  0.5400 -1.0332  1.3279
  351MOL0     H48416   1.208   4.071   1.197  0.0742 -0.4570 -1.0433
  351MOL0     H48417   1.359   4.109   1.116 -1.6757 -2.9841 -1.0051
  351MOL0     H48418   1.238   3.779   2.054  0.6663  2.5397 -0.0774
  351MOL0     H48419   1.153   3.673   2.235  0.6848 -1.1502  0.5780
  351MOL0     H48420   1.221   3.372   2.531 -3.4820  2.8651 -1.5995
  351MOL0     H48421   1.163   3.192   2.690 -1.8005 -0.8498  2.7656
  351MOL0     H48422   0.063   3.777   2.949 -4.1087  1.1965  1.4629
  351MOL0     H48423  -0.014   4.001   2.987 -0.7408  1.3682  2.2069
  351MOL0     H48424  -0.102   4.330   3.113  1.0976 -1.7034  0.5173
  351MOL0     H48425  -0.223   4.533   3.097 -1.3251 -0.8005  0.2087
  351MOL0     H48426  -0.359   4.736   3.132 -0.1418 -2.6126 -1.2410
  351MOL0     H48427  -0.424   4.632   3.255  0.3242 -1.0359 -3.7411
  351MOL0     H48428  -0.375   4.918   3.267  2.1999  0.1457  1.9034
  351MOL0     H48429  -0.401   4.830   3.414 -0.7365  0.8248 -0.0119
  351MOL0     H48430  -0.614   4.747   3.340 -0.0153 -0.7272 -0.1438
  351MOL0     H48431  -0.628   4.925   3.334 -1.6556 -1.2880  0.2521
  351MOL0     H48432  -0.561   4.762   3.086  1.2666  1.5160 -0.3041
  351MOL0     H48433  -0.600   4.935   3.084 -0.3862  0.2245 -1.2753
  351MOL0     H48434  -0.978   4.830   3.027  0.1321 -1.4498 -0.9672
  351MOL0     H48435  -0.051   4.636   3.486  3.9077  0.7001  0.4263
  351MOL0     H48436   0.085   4.365   3.575  1.9102 -0.6514 -0.5451
  351MOL0     H48437   0.227   4.396   3.479  1.6899  1.5700  2.7542
  351MOL0     H48438   0.156   4.533   3.562 -0.2206  2.2265 -2.6430
  352MOL0     O48439  10.714   0.753   1.570 -0.3411 -1.0926  0.7888
  352MOL0     C48440  10.629   0.756   1.482  0.4077  0.2362 -1.2100
  352MOL0     O48441  10.649   0.748   1.353 -0.8920 -0.0173 -0.0168
  352MOL0     C48442  10.786   0.738   1.310 -0.4098  0.0098 -0.2215
  352MOL0     C48443  10.843   0.854   1.243  0.6194  0.2277  1.4592
  352MOL0     C48444  10.974   0.856   1.213 -1.1708 -0.7772 -0.3113
  352MOL0     C48445  11.059   0.752   1.238  0.0764 -0.7488  0.5568
  352MOL0     O48446  11.189   0.769   1.214  0.5228 -0.0409 -0.6217
  352MOL0     C48447  11.286   0.706   1.301  0.7185 -0.2247 -0.1164
  352MOL0     C48448  11.414   0.773   1.274  0.3413 -0.2630  0.7368
  352MOL0     C48449  11.542   0.710   1.333  0.0952 -0.3383  1.7614
  352MOL0     C48450  11.669   0.798   1.342 -0.4806  0.1012 -0.0090
  352MOL0     C48451  11.777   0.720   1.405 -0.4981  0.3133  0.6347
  352MOL0     C48452  11.910   0.802   1.406  0.3225  0.9681  0.1011
  352MOL0     C48453  12.019   0.722   1.491 -0.2365  0.0359  0.4022
  352MOL0     C48454  12.143   0.802   1.534 -0.3550 -0.4106 -1.1584
  352MOL0     N48455  12.196   0.864   1.415  0.1385  0.4330 -0.2332
  352MOL0     C48456  12.297   0.802   1.335  0.1764 -1.2337 -1.0282
  352MOL0     C48457  12.319   0.896   1.237 -0.1613  0.1311  0.4423
  352MOL0     C48458  12.418   0.871   1.129 -0.6769 -0.9167 -0.4955
  352MOL0     C48459  12.542   0.806   1.181 -0.5074 -0.8321  0.5803
  352MOL0     C48460  12.646   0.825   1.071  0.2187  0.2679 -0.2636
  352MOL0     C48461  12.771   0.758   1.105  0.6766 -0.8615 -0.0349
  352MOL0     O48462  12.833   0.825   1.221  0.8324 -0.1383  1.6184
  352MOL0     C48463  12.969   0.818   1.216  0.6652 -0.7301 -0.9804
  352MOL0     C48464  13.036   0.931   1.162  0.0555  0.0098 -0.6519
  352MOL0     C48465  13.174   0.925   1.164  0.1812 -0.1284 -0.7026
  352MOL0     C48466  13.233   1.061   1.140 -0.4844 -0.2018  0.1552
  352MOL0     C48467  13.240   0.807   1.216  0.1618 -0.3710 -0.2082
  352MOL0     C48468  13.379   0.778   1.206  0.2523 -0.4122  0.6272
  352MOL0     O48469  13.451   0.859   1.124 -0.1346 -0.6503  0.4977
  352MOL0     C48470  13.587   0.843   1.107  0.4053 -0.0486  0.1351
  352MOL0     C48471  13.653   0.728   1.058 -0.3877  0.5898 -0.7669
  352MOL0     C48472  13.788   0.727   1.031 -0.6410  0.0565  0.0381
  352MOL0     C48473  13.860   0.849   1.027  0.7924 -0.5169  0.4798
  352MOL0     O48474  13.996   0.871   0.997  0.6888  0.9042 -0.2298
  352MOL0     C48475  14.092   0.792   1.064  0.2298  0.4583 -0.9549
  352MOL0     C48476  14.209   0.770   0.972  0.2845  0.5921  0.0135
  352MOL0     C48477  14.178   0.707   0.830  0.7277  0.4748 -0.4409
  352MOL0     C48478  14.295   0.687   0.740 -0.0307  0.4214 -0.0287
  352MOL0     C48479  14.253   0.641   0.597 -0.7678 -2.0009  0.0217
  352MOL0     C48480  14.199   0.762   0.517  0.5203 -0.4245 -0.0305
  352MOL0     C48481  14.185   0.729   0.369 -0.2204  0.1681  0.2921
  352MOL0     C48482  14.155   0.850   0.290  0.9734  0.5560  1.0059
  352MOL0    Cl48483  14.111   0.796   0.122 -0.3180  0.5988  0.5252
  352MOL0     C48484  13.788   0.966   1.054 -0.9615  0.0191  0.9091
  352MOL0     C48485  13.659   0.963   1.099  0.0562 -0.1304  0.3802
  352MOL0     O48486  13.427   0.688   1.264 -0.0659  0.1971 -0.1842
  352MOL0     C48487  13.165   0.700   1.269 -0.2573 -0.2667  1.0519
  352MOL0     C48488  13.030   0.708   1.265 -0.5168  0.3336 -0.0294
  352MOL0     N48489  12.247   1.011   1.260 -0.2073 -0.6696  0.0034
  352MOL0     N48490  12.169   0.993   1.368 -0.6876 -0.2687  0.2614
  352MOL0     C48491  10.997   0.635   1.284 -0.1357 -0.1470 -0.7088
  352MOL0     C48492  10.864   0.619   1.324 -0.1349 -0.2068 -0.1367
  352MOL0     C48493  10.482   0.774   1.531 -0.1029 -0.2321  0.3098
  352MOL0     C48494  10.462   0.805   1.668 -0.9157  0.6787  0.1677
  352MOL0     C48495  10.346   0.842   1.718 -0.1362  0.0363  0.3760
  352MOL0     C48496  10.237   0.850   1.641 -0.2603  0.2752  0.4546
  352MOL0     O48497  10.125   0.898   1.700 -0.2787  0.6084  0.1513
  352MOL0     C48498  10.116   1.034   1.722  0.1328  0.5913 -0.1150
  352MOL0     C48499   9.981   1.058   1.784 -0.3284 -0.2202  0.0601
  352MOL0     C48500   9.868   0.993   1.686 -0.7093 -0.0503  0.0444
  352MOL0     C48501   9.851   1.055   1.546  0.3383 -0.3646 -0.3219
  352MOL0     C48502   9.832   1.197   1.561 -0.1828  0.2432  0.0313
  352MOL0     C48503   9.812   1.317   1.572 -0.5983 -0.2739 -0.1573
  352MOL0     C48504  10.240   0.820   1.507 -0.1479  0.1244 -0.4684
  352MOL0     C48505  10.359   0.780   1.445  0.7657  0.5775  0.7157
  352MOL0     C48506  10.355   0.752   1.298  0.6163  0.1313  0.9733
  352MOL0     H48507  10.771   0.932   1.222  0.6727 -0.0433  0.1520
  352MOL0     H48508  11.019   0.946   1.173 -1.3493 -1.5131 -2.2857
  352MOL0     H48509  11.282   0.603   1.263 -2.5299  1.1655 -4.3547
  352MOL0     H48510  11.252   0.712   1.405 -0.8145  2.1919 -0.6865
  352MOL0     H48511  11.423   0.786   1.166  1.3921 -1.3986  0.6578
  352MOL0     H48512  11.405   0.874   1.314  2.4277  0.5148 -0.5689
  352MOL0     H48513  11.533   0.677   1.437  0.8207  1.5043  2.4461
  352MOL0     H48514  11.575   0.630   1.266 -0.0099  2.4817 -1.9577
  352MOL0     H48515  11.706   0.821   1.242 -1.5852 -3.0155 -1.2619
  352MOL0     H48516  11.664   0.891   1.400 -0.8803 -0.8313  1.4995
  352MOL0     H48517  11.793   0.635   1.339  0.6807  1.6342 -0.8655
  352MOL0     H48518  11.746   0.681   1.503 -2.9314 -0.4537 -0.3640
  352MOL0     H48519  11.950   0.810   1.304  0.3566 -0.1305  0.0153
  352MOL0     H48520  11.887   0.901   1.448 -1.3320  0.4530  0.4582
  352MOL0     H48521  12.060   0.648   1.422 -1.0063 -0.0342  0.0100
  352MOL0     H48522  11.968   0.681   1.579  0.7487  1.3622  1.6509
  352MOL0     H48523  12.111   0.887   1.594 -2.7408 -1.0650 -1.4152
  352MOL0     H48524  12.219   0.740   1.583  0.7857  1.3122 -0.6762
  352MOL0     H48525  12.357   0.712   1.350  0.6821 -0.6746  0.5100
  352MOL0     H48526  12.443   0.968   1.084  2.5020 -2.3734 -2.2116
  352MOL0     H48527  12.374   0.805   1.054 -2.0512  0.6863 -1.1704
  352MOL0     H48528  12.566   0.857   1.275 -1.2874  0.0400  0.3260
  352MOL0     H48529  12.528   0.698   1.191  1.0200 -1.3430 -2.0455
  352MOL0     H48530  12.615   0.771   0.981  0.3612  2.8600 -1.9666
  352MOL0     H48531  12.667   0.928   1.043  0.1489  0.2806 -0.2697
  352MOL0     H48532  12.748   0.654   1.126 -0.2660 -0.3185  1.8400
  352MOL0     H48533  12.846   0.765   1.025  0.5925 -2.2820 -0.2544
  352MOL0     H48534  12.976   1.012   1.122 -1.9727  0.2084  2.4056
  352MOL0     H48535  13.294   1.068   1.049  1.6480 -2.3146  1.2990
  352MOL0     H48536  13.291   1.085   1.230  2.0290 -0.1282 -1.3719
  352MOL0     H48537  13.153   1.135   1.135  1.2171  1.7489  0.1018
  352MOL0     H48538  13.601   0.633   1.048  1.3987 -0.1494 -5.1681
  352MOL0     H48539  13.850   0.644   0.997 -0.4550 -0.0963  0.7409
  352MOL0     H48540  14.123   0.856   1.147 -2.1438  2.3911 -1.4355
  352MOL0     H48541  14.038   0.704   1.100 -0.7463  1.8589  1.2395
  352MOL0     H48542  14.260   0.862   0.940  2.7820 -0.2665  1.2997
  352MOL0     H48543  14.283   0.708   1.023 -0.5916 -0.2544  0.2638
  352MOL0     H48544  14.102   0.766   0.778  0.1123  0.2479  0.1832
  352MOL0     H48545  14.123   0.612   0.839 -5.0371  3.5109  2.0490
  352MOL0     H48546  14.357   0.611   0.789 -1.4492 -1.6276 -1.2130
  352MOL0     H48547  14.351   0.780   0.725  0.0464  0.6028  1.3153
  352MOL0     H48548  14.347   0.605   0.554 -0.2555  1.5167 -2.2956
  352MOL0     H48549  14.180   0.560   0.603 -2.0144 -0.8424  1.6571
  352MOL0     H48550  14.265   0.848   0.530 -0.7449  1.0426 -2.4794
  352MOL0     H48551  14.094   0.788   0.536 -0.7883 -1.2413 -4.8101
  352MOL0     H48552  14.103   0.658   0.356  1.2748 -1.7373  0.8901
  352MOL0     H48553  14.282   0.692   0.336  0.5725  0.7742  1.8440
  352MOL0     H48554  14.244   0.914   0.294  1.6870 -0.4514  3.3226
  352MOL0     H48555  14.066   0.895   0.335 -0.5118 -1.8914  0.7393
  352MOL0     H48556  13.849   1.055   1.067  0.5547 -0.6580 -1.1010
  352MOL0     H48557  13.608   1.054   1.126  0.3731 -0.2305  1.3753
  352MOL0     H48558  13.202   0.608   1.313 -0.8076 -0.1793  1.7110
  352MOL0     H48559  12.965   0.629   1.301  0.8656 -0.4408  0.8866
  352MOL0     H48560  11.059   0.550   1.309 -1.9422 -1.5848 -0.9286
  352MOL0     H48561  10.824   0.525   1.364  0.8367 -1.4494 -1.9514
  352MOL0     H48562  10.549   0.795   1.732  1.2803  0.4275 -2.6471
  352MOL0     H48563  10.355   0.866   1.823  2.6581 -3.2120  1.0563
  352MOL0     H48564  10.186   1.071   1.798 -0.3122 -0.3414  0.7709
  352MOL0     H48565  10.131   1.094   1.632  0.7372  0.7779  0.1016
  352MOL0     H48566   9.977   1.166   1.803  1.1923  0.3239 -2.3438
  352MOL0     H48567   9.957   1.010   1.879 -3.1047  0.7605 -0.0310
  352MOL0     H48568   9.885   0.885   1.680  0.0847  0.0018  0.9945
  352MOL0     H48569   9.770   1.002   1.733 -0.4271 -0.9400  0.8456
  352MOL0     H48570   9.767   1.010   1.493 -2.0300  1.0211  1.9959
  352MOL0     H48571   9.939   1.050   1.482  0.9467  0.9508  0.3715
  352MOL0     H48572   9.793   1.423   1.568  4.5305  0.9188  0.6470
  352MOL0     H48573  10.143   0.834   1.460 -0.1372  3.5560  0.2063
  352MOL0     H48574  10.371   0.648   1.271 -0.2029 -0.5881  3.0482
  352MOL0     H48575  10.263   0.795   1.256  0.5417  0.8318  1.7995
  352MOL0     H48576  10.436   0.807   1.250  0.0915 -0.3583 -0.5074
  353MOL0     O48577   2.935   1.607   0.508 -0.0944 -0.4046  0.2014
  353MOL0     C48578   2.975   1.717   0.544  0.3277 -0.7526  0.9345
  353MOL0     O48579   3.070   1.745   0.643 -0.4131  0.0807  0.6148
  353MOL0     C48580   3.143   1.646   0.709 -0.2101 -0.1996 -0.0605
  353MOL0     C48581   3.179   1.670   0.842  0.4869  0.3113  0.8644
  353MOL0     C48582   3.262   1.579   0.910 -0.2507 -0.1807 -0.4698
  353MOL0     C48583   3.304   1.459   0.851 -0.1312  0.3286 -0.3566
  353MOL0     O48584   3.388   1.369   0.914 -0.2514 -0.3610 -0.4076
  353MOL0     C48585   3.415   1.386   1.051 -0.2331  0.5689 -0.4628
  353MOL0     C48586   3.535   1.474   1.084 -0.4441 -0.3289 -0.5841
  353MOL0     C48587   3.659   1.437   0.997  0.7443 -0.1171 -0.0876
  353MOL0     C48588   3.783   1.470   1.080  0.2639  0.6005  0.5455
  353MOL0     C48589   3.906   1.414   1.009  0.1497  0.0240 -0.5332
  353MOL0     C48590   4.045   1.441   1.077  0.5428 -0.6042 -0.1863
  353MOL0     C48591   4.079   1.590   1.101  0.5897  0.2528 -0.1122
  353MOL0     C48592   4.220   1.603   1.174 -0.0666 -0.4430  1.2689
  353MOL0     N48593   4.330   1.550   1.092 -0.3151  0.4427  0.2892
  353MOL0     C48594   4.422   1.618   1.018  1.1922  0.2746 -0.3291
  353MOL0     C48595   4.518   1.526   0.986  0.4534 -0.7082 -0.2127
  353MOL0     C48596   4.635   1.549   0.900 -0.2293  0.3955  0.5961
  353MOL0     C48597   4.765   1.466   0.935  0.2126 -0.2836  0.0210
  353MOL0     C48598   4.880   1.568   0.975 -0.5989 -0.1015 -0.1209
  353MOL0     C48599   5.000   1.503   1.047 -0.0477 -0.3557  0.9310
  353MOL0     O48600   5.051   1.407   0.953  0.3204  0.1543 -0.7055
  353MOL0     C48601   5.175   1.356   0.968  0.5120 -0.4786  0.9512
  353MOL0     C48602   5.238   1.310   0.859  0.2991  0.1820  0.6701
  353MOL0     C48603   5.369   1.263   0.861 -0.2043 -0.3031 -1.1278
  353MOL0     C48604   5.420   1.196   0.733 -1.1411  0.1420 -0.7652
  353MOL0     C48605   5.438   1.268   0.987 -0.7061 -0.0776 -0.8802
  353MOL0     C48606   5.583   1.233   1.000 -0.3875  0.1350 -0.1570
  353MOL0     O48607   5.639   1.223   1.128 -0.4838 -0.2832  0.3549
  353MOL0     C48608   5.769   1.186   1.146  0.0037 -0.1464  0.4434
  353MOL0     C48609   5.868   1.271   1.105 -0.0455 -0.4571  0.3952
  353MOL0     C48610   6.001   1.248   1.131  0.4460 -0.0944  1.1277
  353MOL0     C48611   6.041   1.124   1.186  0.5751  0.6444  0.2058
  353MOL0     O48612   6.173   1.120   1.204  0.2289  0.4171 -0.0738
  353MOL0     C48613   6.222   1.001   1.265 -0.1428  0.4034  0.3204
  353MOL0     C48614   6.222   0.989   1.419 -0.1986 -0.4407 -0.7676
  353MOL0     C48615   6.327   1.087   1.457 -0.0981 -0.0156 -0.4174
  353MOL0     C48616   6.330   1.122   1.613  0.0410  0.4380  0.3676
  353MOL0     C48617   6.450   1.211   1.630 -0.1934  0.0199 -0.1484
  353MOL0     C48618   6.501   1.210   1.772  0.1213 -0.0256 -0.1020
  353MOL0     C48619   6.404   1.256   1.879 -0.3063 -0.1505 -0.0667
  353MOL0     C48620   6.476   1.294   2.006 -0.1661 -0.6542  0.4796
  353MOL0    Cl48621   6.355   1.311   2.142 -0.0161 -0.0296 -0.0949
  353MOL0     C48622   5.938   1.037   1.231 -0.3308 -0.3860 -0.4320
  353MOL0     C48623   5.806   1.066   1.214  0.0762  0.0725  0.2067
  353MOL0     O48624   5.649   1.219   0.897 -0.3864 -0.3331  0.2048
  353MOL0     C48625   5.376   1.328   1.107 -0.6319  0.3090  0.2370
  353MOL0     C48626   5.246   1.375   1.086 -0.0255 -0.0796 -1.1787
  353MOL0     N48627   4.481   1.404   1.046  0.6150 -0.7580  0.9471
  353MOL0     N48628   4.366   1.424   1.112  0.1362 -0.0125 -0.0548
  353MOL0     C48629   3.275   1.445   0.722 -0.4515 -0.6613 -0.1041
  353MOL0     C48630   3.201   1.537   0.646  0.8270  0.8040 -0.0402
  353MOL0     C48631   2.924   1.845   0.475 -0.5136 -0.2582  0.1377
  353MOL0     C48632   2.979   1.969   0.506  0.2815  0.1443 -0.0938
  353MOL0     C48633   2.956   2.078   0.427 -0.1767 -0.2294 -0.1161
  353MOL0     C48634   2.853   2.082   0.336 -0.3503  0.7109  0.0129
  353MOL0     O48635   2.824   2.205   0.279 -0.5539  0.0521 -0.5918
  353MOL0     C48636   2.751   2.213   0.154 -0.3993  0.8299  0.0626
  353MOL0     C48637   2.772   2.342   0.088  0.4019  0.5314  0.6495
  353MOL0     C48638   2.711   2.338  -0.052 -0.1745 -0.1621 -0.5753
  353MOL0     C48639   2.698   2.475  -0.127 -0.0860  0.1783  0.1779
  353MOL0     C48640   2.636   2.464  -0.264 -0.5170  0.1760 -0.4832
  353MOL0     C48641   2.597   2.454  -0.376 -0.1843  0.2363  0.1890
  353MOL0     C48642   2.789   1.963   0.308 -1.3219  0.3962  0.8160
  353MOL0     C48643   2.833   1.845   0.366  1.0235  0.1366 -0.1256
  353MOL0     C48644   2.742   1.727   0.326 -0.1389  0.9746 -0.4148
  353MOL0     H48645   3.147   1.763   0.888 -1.4617 -0.1786  0.5980
  353MOL0     H48646   3.277   1.602   1.015  0.2416  1.9951 -0.9693
  353MOL0     H48647   3.456   1.289   1.081  1.1264  0.5197 -2.2987
  353MOL0     H48648   3.328   1.414   1.111 -0.4770 -3.0520  1.1621
  353MOL0     H48649   3.504   1.578   1.077 -0.8476 -0.4485 -0.5880
  353MOL0     H48650   3.544   1.449   1.190 -0.2418  0.8662 -0.3069
  353MOL0     H48651   3.653   1.330   0.975 -2.2640  0.2488 -1.4451
  353MOL0     H48652   3.656   1.492   0.902  0.9036 -0.7469 -0.4587
  353MOL0     H48653   3.792   1.579   1.081 -1.4884  0.7789  0.2372
  353MOL0     H48654   3.764   1.438   1.183 -1.8056  0.8599  0.2816
  353MOL0     H48655   3.912   1.435   0.902  0.1349 -0.8020 -0.7062
  353MOL0     H48656   3.897   1.305   1.005  0.1687  0.0382 -1.1286
  353MOL0     H48657   4.048   1.388   1.172 -0.0360 -1.0224 -0.3952
  353MOL0     H48658   4.112   1.391   1.007 -0.6685 -1.7179 -0.5998
  353MOL0     H48659   4.004   1.624   1.172  0.5348 -1.0381  0.4905
  353MOL0     H48660   4.075   1.647   1.008  1.5329 -3.2282 -2.5268
  353MOL0     H48661   4.251   1.705   1.196  1.6493 -1.3165  3.1928
  353MOL0     H48662   4.220   1.548   1.268  1.3858 -2.4080  0.2027
  353MOL0     H48663   4.437   1.724   0.997  2.0153  0.0464 -0.9525
  353MOL0     H48664   4.659   1.656   0.908 -1.7478  0.6555  2.1813
  353MOL0     H48665   4.623   1.533   0.793  0.4702  0.2960  0.5288
  353MOL0     H48666   4.753   1.401   1.022 -0.5761 -0.4086 -0.1819
  353MOL0     H48667   4.794   1.403   0.851 -3.5554 -1.3235 -0.6446
  353MOL0     H48668   4.913   1.611   0.880  0.6585 -3.4486 -1.3697
  353MOL0     H48669   4.838   1.647   1.037 -1.1310  0.4452 -1.1569
  353MOL0     H48670   5.070   1.583   1.071 -0.9267  0.5870  0.4703
  353MOL0     H48671   4.969   1.457   1.141  1.2392  0.5875  1.8314
  353MOL0     H48672   5.179   1.309   0.768  0.4649  0.5477  0.5566
  353MOL0     H48673   5.462   1.096   0.744 -0.7052  0.5627  2.0840
  353MOL0     H48674   5.475   1.258   0.662 -0.6337  0.1398 -0.3777
  353MOL0     H48675   5.333   1.176   0.670 -0.3337 -3.3291 -0.9561
  353MOL0     H48676   5.838   1.368   1.066 -0.4666 -0.5634  0.4530
  353MOL0     H48677   6.070   1.323   1.096  1.4512 -1.7822 -0.7051
  353MOL0     H48678   6.174   0.915   1.219 -0.0988  0.3126  0.4424
  353MOL0     H48679   6.328   0.992   1.242  0.7943  2.6691  3.1424
  353MOL0     H48680   6.134   1.025   1.472  0.1042 -1.4729  0.4743
  353MOL0     H48681   6.249   0.890   1.455 -0.0964 -0.0876  0.1600
  353MOL0     H48682   6.327   1.183   1.405  3.3775 -0.0836 -0.7473
  353MOL0     H48683   6.418   1.031   1.433 -1.3059 -3.2352  1.8232
  353MOL0     H48684   6.340   1.030   1.671 -2.9096 -1.6124 -2.0564
  353MOL0     H48685   6.239   1.173   1.646 -1.1642 -1.4368  0.0875
  353MOL0     H48686   6.536   1.183   1.568  1.1724 -0.2869  1.8003
  353MOL0     H48687   6.418   1.314   1.614 -1.6352 -0.0873  1.7136
  353MOL0     H48688   6.592   1.269   1.788  1.2969 -2.1438  1.6085
  353MOL0     H48689   6.529   1.107   1.795 -0.7002 -0.0371  0.9624
  353MOL0     H48690   6.329   1.178   1.896 -1.2373  1.3472  3.5551
  353MOL0     H48691   6.358   1.351   1.851 -2.1916 -1.3221 -1.1860
  353MOL0     H48692   6.531   1.386   1.987  1.6113 -1.3743  1.7821
  353MOL0     H48693   6.552   1.221   2.037  1.0120 -0.0176 -0.8069
  353MOL0     H48694   5.970   0.956   1.296  1.1962 -0.7031 -1.5066
  353MOL0     H48695   5.737   0.998   1.262  1.0581 -1.3816 -0.3643
  353MOL0     H48696   5.432   1.333   1.200  0.8816 -0.5251 -0.6017
  353MOL0     H48697   5.196   1.422   1.169 -0.4873 -0.6352 -1.1349
  353MOL0     H48698   3.313   1.352   0.681  1.8257  0.9298 -1.9016
  353MOL0     H48699   3.177   1.515   0.543 -1.6423  2.1417  0.1566
  353MOL0     H48700   3.048   1.970   0.590  0.6584 -0.1267 -0.3967
  353MOL0     H48701   3.018   2.166   0.444  0.2530 -0.1452 -1.8912
  353MOL0     H48702   2.789   2.138   0.084 -3.0193 -0.3611 -0.1930
  353MOL0     H48703   2.645   2.186   0.167  0.2040 -0.6015  2.7554
  353MOL0     H48704   2.878   2.368   0.085  0.9767 -1.4032  2.0508
  353MOL0     H48705   2.716   2.414   0.148  0.1810  0.6366  0.3201
  353MOL0     H48706   2.770   2.274  -0.118 -1.1570 -0.5763 -1.0815
  353MOL0     H48707   2.612   2.292  -0.055 -0.7973  1.0160  0.7128
  353MOL0     H48708   2.791   2.527  -0.149  1.4605 -2.2694  0.5906
  353MOL0     H48709   2.646   2.545  -0.061  0.8365  0.8918  0.1575
  353MOL0     H48710   2.557   2.453  -0.476  1.1550 -0.3933 -0.3843
  353MOL0     H48711   2.709   1.962   0.235  0.5443  2.5504 -1.4055
  353MOL0     H48712   2.653   1.738   0.263 -1.4478  0.5271  1.2709
  353MOL0     H48713   2.805   1.652   0.278 -1.9578 -1.6515  1.0038
  353MOL0     H48714   2.714   1.667   0.414 -0.4955 -0.8427 -1.7135
  354MOL0     O48715   7.158   5.123  10.180  0.8168 -0.3836 -0.5921
  354MOL0     C48716   7.142   5.137  10.057 -0.3067 -0.3682  0.3768
  354MOL0     O48717   7.026   5.118   9.985 -0.0051  0.2240 -0.4755
  354MOL0     C48718   6.926   5.047  10.050  0.0426 -0.0208 -0.3039
  354MOL0     C48719   6.938   4.914  10.077  0.0396  0.7172 -0.4201
  354MOL0     C48720   6.841   4.852  10.146  0.5761  0.9260  0.3547
  354MOL0     C48721   6.722   4.922  10.173 -0.1316  0.1301 -0.1283
  354MOL0     O48722   6.620   4.871  10.250 -0.0679  0.3187  0.3825
  354MOL0     C48723   6.638   4.738  10.299 -0.8924 -0.0293  0.0548
  354MOL0     C48724   6.524   4.715  10.394  0.3399 -0.6970  0.2027
  354MOL0     C48725   6.441   4.592  10.363 -0.3019  0.2632  0.0951
  354MOL0     C48726   6.528   4.458  10.386  0.1891 -0.2719  0.2526
  354MOL0     C48727   6.461   4.323  10.399 -0.4651  0.8484  0.2032
  354MOL0     C48728   6.339   4.332  10.497  0.3715 -0.0290  0.6521
  354MOL0     C48729   6.285   4.194  10.524  0.1602 -0.5587 -0.4325
  354MOL0     C48730   6.151   4.196  10.595  0.3304  0.1840  0.3578
  354MOL0     N48731   6.154   4.248  10.728 -0.5897 -0.6058 -0.4290
  354MOL0     C48732   6.219   4.184  10.830 -0.4837 -0.3111  0.1246
  354MOL0     C48733   6.200   4.268  10.942  0.1715  0.1813  1.0734
  354MOL0     C48734   6.260   4.231  11.074  0.3455 -0.4474  0.0159
  354MOL0     C48735   6.359   4.327  11.131 -0.3622  0.2274 -0.1214
  354MOL0     C48736   6.285   4.441  11.208 -0.0992 -0.2942  0.8802
  354MOL0     C48737   6.384   4.538  11.270 -0.2425 -0.3748 -0.6338
  354MOL0     O48738   6.432   4.617  11.168 -0.7575 -0.3228 -0.0120
  354MOL0     C48739   6.532   4.709  11.203 -0.7164 -0.0876 -0.2229
  354MOL0     C48740   6.623   4.760  11.107 -0.9744  0.1408  0.6965
  354MOL0     C48741   6.720   4.860  11.121  0.5988 -0.1595 -1.1961
  354MOL0     C48742   6.804   4.910  11.002 -0.3031 -0.7663  0.4221
  354MOL0     C48743   6.725   4.923  11.242  0.1125 -0.1604 -0.0406
  354MOL0     C48744   6.819   5.024  11.270  0.1093 -0.9874 -0.0467
  354MOL0     O48745   6.776   5.135  11.341 -0.0094 -0.4728 -0.2154
  354MOL0     C48746   6.864   5.233  11.387  0.3073  0.5758  0.0790
  354MOL0     C48747   6.983   5.281  11.322 -0.2727  0.4164 -0.1419
  354MOL0     C48748   7.052   5.382  11.384  0.1928 -0.0444  0.3176
  354MOL0     C48749   7.013   5.438  11.506  0.6394  0.1488  0.0724
  354MOL0     O48750   7.105   5.525  11.570  0.0691 -0.1392 -0.0818
  354MOL0     C48751   7.092   5.565  11.708 -0.6177 -0.0235 -0.2073
  354MOL0     C48752   7.213   5.652  11.745  0.2144 -0.0657 -0.1404
  354MOL0     C48753   7.165   5.736  11.874  0.1716  0.3020 -0.0401
  354MOL0     C48754   7.274   5.831  11.926 -0.7780 -0.0389 -0.6180
  354MOL0     C48755   7.204   5.931  12.018 -0.4676 -0.4255 -0.5891
  354MOL0     C48756   7.307   6.001  12.113 -0.3074 -0.3290  0.0947
  354MOL0     C48757   7.218   6.087  12.205  0.2960 -1.4843 -0.3548
  354MOL0     C48758   7.299   6.191  12.287  0.3089 -0.0770 -0.6950
  354MOL0    Cl48759   7.194   6.290  12.389  0.0237 -0.1754 -0.5585
  354MOL0     C48760   6.897   5.389  11.568 -0.7524 -0.8796  0.3164
  354MOL0     C48761   6.827   5.287  11.506  0.5838 -0.3799 -0.3789
  354MOL0     O48762   6.944   5.001  11.252  0.5980  0.5055  0.5152
  354MOL0     C48763   6.648   4.874  11.348 -0.7874 -0.2739 -0.9382
  354MOL0     C48764   6.557   4.774  11.331  0.8049 -0.0526  1.4074
  354MOL0     N48765   6.118   4.367  10.905  0.2777 -0.9492  0.4358
  354MOL0     N48766   6.089   4.363  10.772 -0.5191  0.7083  0.1694
  354MOL0     C48767   6.705   5.053  10.142  0.3508  0.4848  0.1867
  354MOL0     C48768   6.811   5.114  10.081  0.4030 -1.0691  0.1722
  354MOL0     C48769   7.253   5.193   9.969  0.2039  0.4303  0.2407
  354MOL0     C48770   7.226   5.216   9.832 -0.2442  0.2315  1.3903
  354MOL0     C48771   7.324   5.268   9.747  0.4392 -0.9570 -0.7241
  354MOL0     C48772   7.452   5.304   9.798 -0.2170  0.0101 -0.1110
  354MOL0     O48773   7.542   5.366   9.712  0.9740 -0.3041  0.2821
  354MOL0     C48774   7.653   5.450   9.764  0.8999  0.3301  0.1561
  354MOL0     C48775   7.709   5.541   9.643  0.3448  0.3897  1.6812
  354MOL0     C48776   7.624   5.658   9.601 -0.9461 -0.0372 -0.4226
  354MOL0     C48777   7.507   5.607   9.520 -0.1011 -0.3517 -0.1453
  354MOL0     C48778   7.444   5.711   9.430  0.3974  1.3295 -1.6063
  354MOL0     C48779   7.400   5.803   9.364 -0.5562 -0.0814  0.2442
  354MOL0     C48780   7.490   5.268   9.927  0.1707  0.3158  0.7121
  354MOL0     C48781   7.390   5.213  10.012 -0.0431 -0.1941 -0.4952
  354MOL0     C48782   7.441   5.185  10.153  0.4608  1.0811  1.6780
  354MOL0     H48783   7.031   4.863  10.052 -0.4199 -0.7471  0.6824
  354MOL0     H48784   6.845   4.747  10.175  2.2454  0.9531  0.3378
  354MOL0     H48785   6.732   4.724  10.353 -1.1407 -1.2521  0.1992
  354MOL0     H48786   6.633   4.657  10.226  0.7634  0.1479 -0.2954
  354MOL0     H48787   6.548   4.734  10.499  0.2859 -0.6990  0.2159
  354MOL0     H48788   6.458   4.801  10.379  4.4444  2.9054  0.8042
  354MOL0     H48789   6.353   4.597  10.428  0.0391  1.3791  0.4943
  354MOL0     H48790   6.394   4.593  10.264 -2.2991  0.1845  0.9883
  354MOL0     H48791   6.599   4.438  10.306  0.7215 -1.9983  1.1100
  354MOL0     H48792   6.603   4.487  10.460 -0.6477  4.5147 -0.3985
  354MOL0     H48793   6.527   4.248  10.444 -2.1848 -2.5742 -2.5089
  354MOL0     H48794   6.427   4.286  10.302 -0.1731  2.4980 -0.5661
  354MOL0     H48795   6.372   4.394  10.581  3.3277  1.9579 -1.7411
  354MOL0     H48796   6.260   4.386  10.444 -0.9655  0.4469  3.0057
  354MOL0     H48797   6.357   4.125  10.569  0.3316  0.6137  1.2029
  354MOL0     H48798   6.248   4.151  10.431 -0.2478 -0.3820 -0.3573
  354MOL0     H48799   6.087   4.264  10.538 -0.4234 -0.3892  0.5117
  354MOL0     H48800   6.111   4.095  10.586  2.2369 -0.4993 -1.2390
  354MOL0     H48801   6.282   4.096  10.828  1.1725  0.8164 -2.9001
  354MOL0     H48802   6.313   4.135  11.071  1.6613  0.2835 -1.9542
  354MOL0     H48803   6.172   4.223  11.139  0.3610  1.2277  0.2682
  354MOL0     H48804   6.432   4.271  11.190 -1.5705 -0.5439  0.7133
  354MOL0     H48805   6.417   4.365  11.047  0.5499 -1.0617 -0.0966
  354MOL0     H48806   6.217   4.492  11.139  0.1032 -1.4518 -0.1991
  354MOL0     H48807   6.223   4.394  11.286 -1.3967  1.5631  1.0378
  354MOL0     H48808   6.331   4.593  11.349 -0.9012 -3.8918  1.5942
  354MOL0     H48809   6.469   4.497  11.326 -0.2989 -0.3737 -0.5468
  354MOL0     H48810   6.604   4.715  11.010 -0.2120  2.8131 -0.8028
  354MOL0     H48811   6.786   4.840  10.920 -1.1538  0.5728 -0.5671
  354MOL0     H48812   6.907   4.895  11.035  1.0121  0.3001 -2.7324
  354MOL0     H48813   6.766   5.009  10.975 -0.7074 -1.7649 -3.1525
  354MOL0     H48814   7.042   5.232  11.245 -0.4892  1.2576 -0.8465
  354MOL0     H48815   7.146   5.428  11.355  0.4323  0.0727  1.2583
  354MOL0     H48816   7.001   5.626  11.715  0.5424  1.5795  4.1857
  354MOL0     H48817   7.081   5.478  11.773  2.2344 -0.6927 -0.4850
  354MOL0     H48818   7.296   5.593  11.784 -1.1297  0.3032  3.7175
  354MOL0     H48819   7.241   5.715  11.660  1.5292 -0.5459 -0.0786
  354MOL0     H48820   7.140   5.663  11.951 -1.6310  1.8058  0.8910
  354MOL0     H48821   7.076   5.796  11.850  0.2510  0.5526  0.2908
  354MOL0     H48822   7.322   5.884  11.843 -1.1714  4.0092  1.5369
  354MOL0     H48823   7.349   5.777  11.984 -1.6891  0.6742  1.2924
  354MOL0     H48824   7.151   6.010  11.965  0.7274  1.6892  1.2172
  354MOL0     H48825   7.132   5.876  12.080 -0.7981 -0.2489 -0.8140
  354MOL0     H48826   7.369   6.068  12.053 -0.1364 -2.9833 -2.9653
  354MOL0     H48827   7.359   5.939  12.187 -1.1462 -0.1913  0.8172
  354MOL0     H48828   7.163   6.016  12.268 -3.8144  0.5112 -1.3555
  354MOL0     H48829   7.154   6.152  12.145 -0.8877  0.1890  2.5045
  354MOL0     H48830   7.356   6.257  12.220 -1.2743  2.4140  0.3029
  354MOL0     H48831   7.370   6.154  12.361 -2.5795 -0.2768  2.1807
  354MOL0     H48832   6.858   5.409  11.667 -0.2455 -4.0544  1.2821
  354MOL0     H48833   6.746   5.239  11.558 -0.0208 -0.5137 -1.4188
  354MOL0     H48834   6.658   4.908  11.451  1.9535  1.6837 -1.7516
  354MOL0     H48835   6.488   4.748  11.411 -0.0050  0.9071  1.0428
  354MOL0     H48836   6.609   5.098  10.166  0.8972  0.9592  1.6276
  354MOL0     H48837   6.800   5.214  10.042  2.2410 -1.4763 -1.5231
  354MOL0     H48838   7.134   5.196   9.778  1.1404  0.1884 -1.1061
  354MOL0     H48839   7.295   5.287   9.644 -1.0293  4.7010  0.3415
  354MOL0     H48840   7.608   5.520   9.835 -1.7622 -1.7017  0.6397
  354MOL0     H48841   7.730   5.394   9.819 -0.5265 -1.0951  0.7834
  354MOL0     H48842   7.727   5.476   9.557  2.1300  0.1542  2.2023
  354MOL0     H48843   7.804   5.588   9.670  0.3034  0.8985  0.9904
  354MOL0     H48844   7.580   5.706   9.689 -2.3596 -1.6332 -0.2027
  354MOL0     H48845   7.693   5.721   9.544  0.2072 -0.5702  0.3541
  354MOL0     H48846   7.428   5.569   9.585 -0.2816 -1.0244 -0.7481
  354MOL0     H48847   7.528   5.525   9.450 -3.1449  1.1599 -3.0761
  354MOL0     H48848   7.368   5.884   9.302  0.3720  0.9256  1.0241
  354MOL0     H48849   7.587   5.288   9.970  0.5861  0.3312 -0.2222
  354MOL0     H48850   7.542   5.226  10.168  2.2152 -1.2938 -2.0066
  354MOL0     H48851   7.379   5.246  10.218 -0.4741  2.1283 -0.1213
  354MOL0     H48852   7.450   5.078  10.175  1.7203  0.8841  0.4291
  355MOL0     O48853  10.032   8.557   0.400 -0.2090  0.1945 -0.0303
  355MOL0     C48854  10.152   8.574   0.398 -0.7760 -0.1176 -0.7841
  355MOL0     O48855  10.229   8.598   0.287  0.1123  0.0180  0.7293
  355MOL0     C48856  10.177   8.579   0.161 -0.4885  0.5357  0.1028
  355MOL0     C48857  10.129   8.453   0.109  0.3241 -0.0617 -0.3207
  355MOL0     C48858  10.091   8.453  -0.028  0.3032  0.1003 -0.2098
  355MOL0     C48859  10.081   8.565  -0.107 -0.3616  0.4792 -0.6392
  355MOL0     O48860  10.037   8.544  -0.234 -0.3849 -0.1488 -0.4550
  355MOL0     C48861  10.044   8.657  -0.314  0.7599 -0.7344  1.4338
  355MOL0     C48862  10.010   8.627  -0.467  0.1602  0.0666  0.6157
  355MOL0     C48863   9.971   8.738  -0.573 -0.2845  0.0883 -0.0024
  355MOL0     C48864   9.989   8.667  -0.705  0.4199  0.3867  0.7195
  355MOL0     C48865   9.963   8.751  -0.833 -0.9159 -0.0348 -1.0156
  355MOL0     C48866   9.822   8.804  -0.856 -0.7817 -0.1086  0.0344
  355MOL0     C48867   9.806   8.865  -0.998  0.3627 -0.2786  0.2461
  355MOL0     C48868   9.655   8.906  -1.022 -0.0285 -0.2459 -0.1558
  355MOL0     N48869   9.631   8.986  -1.140  0.3838 -0.3949 -0.1262
  355MOL0     C48870   9.704   8.996  -1.247  0.0516 -0.8067  0.2010
  355MOL0     C48871   9.628   9.072  -1.329  0.5989  0.5590  0.7192
  355MOL0     C48872   9.679   9.100  -1.471  0.0203 -0.4256  0.3507
  355MOL0     C48873   9.655   9.249  -1.532  0.1840  0.1993 -0.5363
  355MOL0     C48874   9.726   9.272  -1.667 -0.1427 -0.5670 -0.7317
  355MOL0     C48875   9.666   9.174  -1.785  0.3971 -0.0041 -0.2169
  355MOL0     O48876   9.734   9.206  -1.904  0.7614  0.3725  0.3657
  355MOL0     C48877   9.677   9.162  -2.018  0.1056  0.0585  0.4013
  355MOL0     C48878   9.732   9.053  -2.084 -0.5551 -0.3703 -0.3167
  355MOL0     C48879   9.681   9.006  -2.206  0.3146 -0.8075 -0.4028
  355MOL0     C48880   9.763   8.892  -2.264 -0.0438 -0.6365  0.2121
  355MOL0     C48881   9.566   9.058  -2.258  0.3089  0.0981 -0.8504
  355MOL0     C48882   9.498   9.008  -2.381 -0.1848  0.2762  0.7518
  355MOL0     O48883   9.449   9.101  -2.465 -0.3450 -0.2493  0.6636
  355MOL0     C48884   9.408   9.083  -2.594 -0.0032 -0.2476 -0.1968
  355MOL0     C48885   9.450   8.986  -2.683  0.1906  1.2673  0.0807
  355MOL0     C48886   9.400   8.980  -2.814  0.0408 -0.2037  0.4506
  355MOL0     C48887   9.313   9.074  -2.862 -0.0056 -0.4284  0.2706
  355MOL0     O48888   9.267   9.053  -2.988  0.6371  0.7032 -0.2799
  355MOL0     C48889   9.185   9.154  -3.043 -1.2322  0.2036 -0.4190
  355MOL0     C48890   9.104   9.083  -3.157 -0.0736 -0.3059  0.6178
  355MOL0     C48891   9.197   9.086  -3.284  0.7981 -0.0184 -0.3496
  355MOL0     C48892   9.130   9.011  -3.397 -1.2120 -0.1171 -0.2635
  355MOL0     C48893   9.149   8.863  -3.390  0.2718  0.4591  0.8595
  355MOL0     C48894   9.053   8.782  -3.495 -0.1218 -0.0404 -0.2517
  355MOL0     C48895   9.089   8.642  -3.503 -0.8194 -0.5173 -0.6554
  355MOL0     C48896   9.035   8.584  -3.632  0.2800 -0.2902 -0.3583
  355MOL0    Cl48897   9.112   8.425  -3.651  0.1274 -0.1943  0.0553
  355MOL0     C48898   9.271   9.176  -2.770  0.7253  0.1948 -1.3107
  355MOL0     C48899   9.319   9.179  -2.644 -0.2348  0.4440 -0.2156
  355MOL0     O48900   9.473   8.891  -2.389 -0.7385  0.2913 -0.4063
  355MOL0     C48901   9.504   9.160  -2.189  0.6573 -0.3462 -0.0661
  355MOL0     C48902   9.560   9.214  -2.068 -0.1883  0.2456  0.7330
  355MOL0     N48903   9.514   9.110  -1.267  0.7041 -0.6222 -0.2875
  355MOL0     N48904   9.518   9.059  -1.149  0.7222 -0.2566 -1.0619
  355MOL0     C48905  10.109   8.691  -0.046 -0.3272  1.0721 -0.2276
  355MOL0     C48906  10.174   8.693   0.078 -0.5932  0.0228  0.9021
  355MOL0     C48907  10.208   8.568   0.538 -0.5157  0.1634 -0.0070
  355MOL0     C48908  10.146   8.489   0.631  0.0468 -0.2512 -0.0722
  355MOL0     C48909  10.184   8.488   0.766 -0.2033  0.6585 -1.1397
  355MOL0     C48910  10.291   8.555   0.812 -0.0437 -1.0547  0.3688
  355MOL0     O48911  10.332   8.554   0.938 -0.4853 -0.1458 -0.0578
  355MOL0     C48912  10.275   8.455   1.029 -0.2080 -0.0384  0.6453
  355MOL0     C48913  10.335   8.312   1.010  0.6250  0.2855  0.0289
  355MOL0     C48914  10.487   8.300   1.002 -0.8141  0.3311  0.3148
  355MOL0     C48915  10.539   8.164   1.038  0.1753 -0.4623  0.5252
  355MOL0     C48916  10.664   8.139   0.963 -0.7125 -0.0907 -0.2328
  355MOL0     C48917  10.774   8.115   0.929  0.5805 -0.3924  0.5566
  355MOL0     C48918  10.358   8.640   0.722 -0.7874 -0.1895  0.1286
  355MOL0     C48919  10.311   8.656   0.586  0.5891  0.9273  0.0662
  355MOL0     C48920  10.378   8.757   0.502 -1.2527 -0.5724 -0.4658
  355MOL0     H48921  10.134   8.368   0.176  2.2715  1.3479  1.4449
  355MOL0     H48922  10.059   8.352  -0.054  2.0178 -1.4395  3.0060
  355MOL0     H48923  10.142   8.705  -0.317 -0.3448  2.2912  5.2948
  355MOL0     H48924   9.965   8.725  -0.280 -0.8954 -1.9485  0.1943
  355MOL0     H48925  10.097   8.578  -0.511 -1.8239 -3.5716  0.3886
  355MOL0     H48926   9.929   8.554  -0.466 -1.6912  1.9610  3.1393
  355MOL0     H48927   9.866   8.767  -0.562 -0.8179 -2.3553  2.2784
  355MOL0     H48928  10.019   8.837  -0.565 -0.2393  0.2451 -1.7560
  355MOL0     H48929  10.094   8.640  -0.709 -0.3427 -2.8798 -0.8089
  355MOL0     H48930   9.926   8.577  -0.710 -0.4351  1.0513 -2.9054
  355MOL0     H48931  10.005   8.718  -0.928 -2.7361  1.8098 -2.5419
  355MOL0     H48932  10.023   8.840  -0.810 -0.5071 -0.6292  0.3667
  355MOL0     H48933   9.752   8.721  -0.841 -1.1983  0.0930 -0.7349
  355MOL0     H48934   9.815   8.881  -0.779  1.4727  1.2238 -1.0120
  355MOL0     H48935   9.841   8.801  -1.079  0.4193  2.0009 -1.6568
  355MOL0     H48936   9.863   8.958  -0.999 -2.3658  1.5676  1.8392
  355MOL0     H48937   9.588   8.820  -1.029 -1.4477  0.5949  2.0023
  355MOL0     H48938   9.611   8.963  -0.940  0.1202 -2.4802  1.5896
  355MOL0     H48939   9.788   8.933  -1.273 -0.2221 -0.6164 -1.2149
  355MOL0     H48940   9.637   9.031  -1.545 -1.4672 -0.1298  0.8982
  355MOL0     H48941   9.787   9.084  -1.480 -0.4152 -2.9225 -1.5611
  355MOL0     H48942   9.550   9.271  -1.553  1.0578  2.2578 -3.2916
  355MOL0     H48943   9.682   9.331  -1.465  1.8421 -1.4054  0.8918
  355MOL0     H48944   9.715   9.376  -1.698 -2.4264 -0.4940  0.1604
  355MOL0     H48945   9.832   9.258  -1.642 -0.0259  0.7390 -0.4397
  355MOL0     H48946   9.665   9.067  -1.763 -1.1091 -0.5269 -2.4768
  355MOL0     H48947   9.563   9.205  -1.805  0.8274  3.1900  1.7527
  355MOL0     H48948   9.829   9.017  -2.053 -0.9171 -0.2559  1.0170
  355MOL0     H48949   9.870   8.907  -2.247 -0.3319 -0.6989  2.3011
  355MOL0     H48950   9.745   8.885  -2.372 -0.3583  2.5621 -0.0359
  355MOL0     H48951   9.724   8.798  -2.222 -0.1533 -0.0392  1.5044
  355MOL0     H48952   9.511   8.904  -2.648 -0.6685  0.3635 -0.4741
  355MOL0     H48953   9.430   8.916  -2.897  0.4306  1.4691 -0.7583
  355MOL0     H48954   9.119   9.196  -2.968  1.3096  1.0601  1.4972
  355MOL0     H48955   9.240   9.243  -3.075  0.4646 -0.2265  1.0924
  355MOL0     H48956   9.083   8.979  -3.129  1.0276 -0.7007  0.0350
  355MOL0     H48957   9.025   9.150  -3.190  2.5821  2.8126  0.1280
  355MOL0     H48958   9.293   9.045  -3.251  1.3118  2.3390  1.3692
  355MOL0     H48959   9.212   9.192  -3.303  0.4062  0.5331  2.0208
  355MOL0     H48960   9.156   9.052  -3.495  1.6358  0.7619  0.7495
  355MOL0     H48961   9.026   9.043  -3.404 -0.4191  2.2705 -3.8688
  355MOL0     H48962   9.253   8.840  -3.414 -0.6606  0.3453 -4.3138
  355MOL0     H48963   9.113   8.824  -3.295 -2.2536  0.5625  0.0180
  355MOL0     H48964   9.068   8.834  -3.590  2.7569 -2.5196 -1.3190
  355MOL0     H48965   8.949   8.785  -3.461  0.2441 -0.1334  0.8881
  355MOL0     H48966   9.041   8.594  -3.417 -1.4762  1.9014  0.4157
  355MOL0     H48967   9.195   8.617  -3.505 -0.4089  1.1272 -1.2924
  355MOL0     H48968   9.055   8.648  -3.718  0.3030 -2.2164 -1.8568
  355MOL0     H48969   8.927   8.565  -3.633  0.0277  1.0576 -0.1992
  355MOL0     H48970   9.211   9.262  -2.799  0.2908  0.6851  0.8644
  355MOL0     H48971   9.278   9.260  -2.585  0.2414 -0.1762  1.0096
  355MOL0     H48972   9.409   9.202  -2.221 -0.4314 -1.7031  1.2352
  355MOL0     H48973   9.524   9.303  -2.018 -0.9593  2.2526 -2.9834
  355MOL0     H48974  10.096   8.784  -0.100 -0.7738 -0.0914 -2.2039
  355MOL0     H48975  10.194   8.793   0.115  0.3067 -0.0626  0.6666
  355MOL0     H48976  10.064   8.432   0.589  1.1514  0.6366 -3.8394
  355MOL0     H48977  10.129   8.428   0.837  0.2657  3.0386  1.4036
  355MOL0     H48978  10.295   8.482   1.134  1.2998  0.4514  0.2623
  355MOL0     H48979  10.166   8.467   1.030  0.0960  4.5810  0.0595
  355MOL0     H48980  10.300   8.283   0.910  2.4391  0.7722 -0.7880
  355MOL0     H48981  10.294   8.251   1.091  1.0281  2.4038  1.9081
  355MOL0     H48982  10.520   8.329   0.901  1.8128  0.2477  1.0871
  355MOL0     H48983  10.532   8.369   1.073  0.8643 -0.6232  0.2254
  355MOL0     H48984  10.457   8.100   1.004  1.3623 -0.5603 -2.5027
  355MOL0     H48985  10.538   8.148   1.146 -1.6120 -0.3321  0.5595
  355MOL0     H48986  10.862   8.070   0.886 -2.2445 -2.2055 -4.0732
  355MOL0     H48987  10.433   8.706   0.764 -0.6326  0.4143 -1.0560
  355MOL0     H48988  10.396   8.714   0.403  0.2498 -0.9946 -0.0372
  355MOL0     H48989  10.310   8.842   0.514  1.3934  1.3995  1.8418
  355MOL0     H48990  10.476   8.782   0.544 -2.6994  1.2029  2.1904
  356MOL0     O48991   8.406  11.028   6.679 -0.7109  0.4345  1.0620
  356MOL0     C48992   8.434  10.917   6.622 -0.5729 -0.2448  0.3058
  356MOL0     O48993   8.479  10.911   6.493 -0.0857  0.7914  0.6380
  356MOL0     C48994   8.498  11.032   6.432 -0.0176  0.1339  0.3110
  356MOL0     C48995   8.633  11.062   6.380  0.5194  0.0869  0.0793
  356MOL0     C48996   8.647  11.183   6.303 -0.4535 -0.7485  0.0488
  356MOL0     C48997   8.543  11.263   6.273 -0.4023  0.5993  0.3904
  356MOL0     O48998   8.573  11.388   6.214  0.1636 -0.3620  0.4259
  356MOL0     C48999   8.471  11.480   6.182 -0.8566  0.3209  0.3302
  356MOL0     C49000   8.533  11.599   6.102  0.7723 -0.1149 -0.0754
  356MOL0     C49001   8.555  11.560   5.954 -0.2557 -0.0220  0.6693
  356MOL0     C49002   8.611  11.676   5.868 -0.4483  0.0728  0.8172
  356MOL0     C49003   8.647  11.611   5.723  0.3946 -0.1384  0.7188
  356MOL0     C49004   8.718  11.723   5.639  0.5721  0.3783  0.0818
  356MOL0     C49005   8.632  11.834   5.588  0.1938  0.7761 -0.1392
  356MOL0     C49006   8.518  11.793   5.494  0.3232 -0.2854 -0.8407
  356MOL0     N49007   8.570  11.693   5.395  0.4147  0.1678  0.2721
  356MOL0     C49008   8.651  11.718   5.279 -0.0070 -0.2090 -0.4655
  356MOL0     C49009   8.669  11.594   5.228 -0.9127  0.0142 -0.7828
  356MOL0     C49010   8.719  11.576   5.086  0.7930  0.0768  0.7369
  356MOL0     C49011   8.605  11.548   4.983 -0.3308 -0.8736  0.3244
  356MOL0     C49012   8.587  11.397   4.960 -0.1306 -0.4472  0.0607
  356MOL0     C49013   8.519  11.365   4.828  0.3045  0.3680 -0.5506
  356MOL0     O49014   8.605  11.377   4.719  0.0155 -0.1891  0.0199
  356MOL0     C49015   8.685  11.277   4.668  0.9852 -0.1092  0.0388
  356MOL0     C49016   8.781  11.309   4.569  0.0426  0.8090  0.7035
  356MOL0     C49017   8.863  11.214   4.505  0.2579  0.4834  0.0437
  356MOL0     C49018   8.952  11.256   4.395 -0.6511  0.3542  0.0461
  356MOL0     C49019   8.861  11.084   4.558  0.1022 -0.4359 -0.0572
  356MOL0     C49020   8.950  10.988   4.514 -0.0869 -0.5637  0.2244
  356MOL0     O49021   8.907  10.863   4.534 -0.2294  0.9751  0.3815
  356MOL0     C49022   8.998  10.762   4.523  0.2839 -0.1200 -0.7338
  356MOL0     C49023   8.953  10.651   4.446  0.3724  0.2375 -1.1749
  356MOL0     C49024   9.022  10.532   4.451  0.0047 -0.8579  0.5135
  356MOL0     C49025   9.136  10.512   4.529 -0.0769  0.0045 -0.4326
  356MOL0     O49026   9.194  10.385   4.540  0.9236 -0.1816  0.1046
  356MOL0     C49027   9.294  10.363   4.643 -0.3061  0.4506 -0.2663
  356MOL0     C49028   9.328  10.213   4.661 -0.3837  0.7409  0.2241
  356MOL0     C49029   9.393  10.159   4.537 -0.5922 -0.1236 -0.1216
  356MOL0     C49030   9.483  10.042   4.584  0.4623  1.2569  0.6326
  356MOL0     C49031   9.538   9.962   4.461  0.4719  0.5299 -0.2513
  356MOL0     C49032   9.648   9.864   4.494  0.1071 -0.3871 -0.3421
  356MOL0     C49033   9.580   9.734   4.534 -0.3742 -0.7060 -0.4478
  356MOL0     C49034   9.683   9.618   4.563 -0.5461 -1.6458  1.0102
  356MOL0    Cl49035   9.603   9.486   4.634 -0.3643  0.2396 -0.1258
  356MOL0     C49036   9.188  10.627   4.587 -0.2395  0.3401  0.0058
  356MOL0     C49037   9.119  10.754   4.589 -0.5132 -0.8014 -0.0649
  356MOL0     O49038   9.065  11.015   4.479 -0.3888  0.3068 -0.2350
  356MOL0     C49039   8.771  11.050   4.660 -0.1652  0.3336 -0.4995
  356MOL0     C49040   8.680  11.140   4.712  0.2103 -0.2794 -0.4256
  356MOL0     N49041   8.608  11.499   5.302 -0.3526 -0.5485  0.5125
  356MOL0     N49042   8.545  11.557   5.396  0.3767 -0.3230 -0.3862
  356MOL0     C49043   8.414  11.221   6.312  0.3830 -0.3987  0.5760
  356MOL0     C49044   8.396  11.108   6.394  0.0048  0.8486 -0.4945
  356MOL0     C49045   8.398  10.789   6.695 -0.0614 -0.3067  0.1033
  356MOL0     C49046   8.379  10.802   6.836 -0.2960 -0.2165 -1.2370
  356MOL0     C49047   8.338  10.694   6.914  0.4957 -0.7100 -1.1600
  356MOL0     C49048   8.312  10.580   6.849  0.0578  0.6695  1.0531
  356MOL0     O49049   8.273  10.484   6.933 -0.4541  0.2839  0.6428
  356MOL0     C49050   8.339  10.358   6.910  0.6269 -0.2372  0.5447
  356MOL0     C49051   8.249  10.246   6.889 -0.9336 -0.3722  0.1829
  356MOL0     C49052   8.136  10.271   6.780  0.3735  0.1409 -0.2333
  356MOL0     C49053   8.014  10.346   6.836  0.0329  0.2797  0.1417
  356MOL0     C49054   7.900  10.339   6.741  0.6879  0.4916  0.4331
  356MOL0     C49055   7.808  10.313   6.668  0.2288 -0.3704  0.5609
  356MOL0     C49056   8.325  10.571   6.709 -0.2810 -0.3069  0.0661
  356MOL0     C49057   8.371  10.678   6.622  0.2033 -0.7538  0.0817
  356MOL0     C49058   8.361  10.656   6.470  0.0790 -0.1543 -0.6309
  356MOL0     H49059   8.713  10.995   6.410 -0.3393 -1.0021 -0.0074
  356MOL0     H49060   8.748  11.215   6.277 -0.4862 -1.8057 -1.4767
  356MOL0     H49061   8.423  11.512   6.275 -0.2018  0.3290  0.6734
  356MOL0     H49062   8.391  11.435   6.122  0.0476 -0.5096 -0.2835
  356MOL0     H49063   8.454  11.674   6.110  0.7240 -0.1149 -0.5398
  356MOL0     H49064   8.627  11.630   6.148  0.2347 -1.0885  1.7758
  356MOL0     H49065   8.630  11.480   5.948 -1.1978 -0.9119  0.4905
  356MOL0     H49066   8.460  11.516   5.923 -0.0862  0.8534 -1.2457
  356MOL0     H49067   8.549  11.766   5.870 -0.1797  0.2641  0.5790
  356MOL0     H49068   8.709  11.695   5.913 -0.5975 -0.8659  1.5767
  356MOL0     H49069   8.551  11.577   5.683 -0.1978 -2.6358  3.8567
  356MOL0     H49070   8.709  11.521   5.731  1.8948  0.6184 -1.4742
  356MOL0     H49071   8.793  11.770   5.703  0.0535 -0.7941  1.5894
  356MOL0     H49072   8.760  11.667   5.555 -0.6762  0.4304 -0.6011
  356MOL0     H49073   8.695  11.907   5.536 -0.8666  0.6424 -1.6853
  356MOL0     H49074   8.583  11.881   5.674 -0.5566  0.1338 -0.2002
  356MOL0     H49075   8.434  11.747   5.547  1.2901 -0.5135  0.5367
  356MOL0     H49076   8.484  11.887   5.448 -3.2163  0.1205  2.1414
  356MOL0     H49077   8.679  11.817   5.242  2.0204 -0.5537  0.0298
  356MOL0     H49078   8.788  11.492   5.081  3.1051  1.8022  1.6615
  356MOL0     H49079   8.767  11.669   5.055 -0.9191 -0.1446 -3.0576
  356MOL0     H49080   8.505  11.585   5.007  0.0945  0.5940 -0.0760
  356MOL0     H49081   8.646  11.600   4.896  2.6112 -1.1804  1.4062
  356MOL0     H49082   8.687  11.355   4.950  0.7421  0.1553  4.1550
  356MOL0     H49083   8.549  11.350   5.052  1.1834 -2.0003 -0.1500
  356MOL0     H49084   8.474  11.266   4.833  2.4512 -0.7873 -2.0833
  356MOL0     H49085   8.442  11.442   4.827  1.9459  2.1077 -0.2901
  356MOL0     H49086   8.792  11.414   4.547  3.2841  0.3332 -0.4664
  356MOL0     H49087   8.958  11.188   4.310  2.7428 -2.6770  2.3912
  356MOL0     H49088   9.054  11.265   4.434 -0.7593  1.7630  0.0518
  356MOL0     H49089   8.916  11.352   4.357 -2.3929 -0.4376 -0.4641
  356MOL0     H49090   8.856  10.662   4.398  0.4453 -0.2890 -1.4461
  356MOL0     H49091   8.980  10.444   4.404 -1.7513 -0.4436  1.2420
  356MOL0     H49092   9.384  10.417   4.611  0.6183 -2.0107 -2.1893
  356MOL0     H49093   9.253  10.409   4.733  3.2106  2.3709  0.5252
  356MOL0     H49094   9.404  10.194   4.736  0.2300 -3.0233 -1.1473
  356MOL0     H49095   9.242  10.167   4.710  0.4999  0.5055  1.5973
  356MOL0     H49096   9.465  10.229   4.494  0.5074 -0.9373  0.3310
  356MOL0     H49097   9.329  10.111   4.462 -0.7936 -2.8642  1.6209
  356MOL0     H49098   9.421   9.970   4.640 -0.5099  0.0561 -1.8433
  356MOL0     H49099   9.569  10.083   4.637  0.7912 -0.2643  1.3362
  356MOL0     H49100   9.458   9.910   4.407 -0.6029  3.1275 -1.3338
  356MOL0     H49101   9.577  10.037   4.391  0.4017  1.9430  1.1581
  356MOL0     H49102   9.717   9.906   4.568  1.2064 -0.4369 -1.3112
  356MOL0     H49103   9.706   9.845   4.404 -1.8928  0.3253 -1.8672
  356MOL0     H49104   9.507   9.699   4.461 -2.2883  2.1506 -0.0424
  356MOL0     H49105   9.527   9.758   4.627 -1.0222  0.2960 -1.0676
  356MOL0     H49106   9.756   9.652   4.637 -1.2225 -0.0162  0.9724
  356MOL0     H49107   9.737   9.593   4.471 -0.0505 -2.3035  1.4689
  356MOL0     H49108   9.287  10.630   4.632  0.5308  1.3097 -1.6498
  356MOL0     H49109   9.164  10.840   4.637 -3.3865  1.2086 -0.7458
  356MOL0     H49110   8.775  10.950   4.700  0.1075  0.2606 -0.7082
  356MOL0     H49111   8.616  11.105   4.793 -0.9124  2.6009  0.0371
  356MOL0     H49112   8.336  11.285   6.271  0.8412  1.1980  2.0569
  356MOL0     H49113   8.302  11.061   6.421  0.7139 -0.7524 -0.6886
  356MOL0     H49114   8.399  10.885   6.903  0.9817  0.4480 -2.3858
  356MOL0     H49115   8.320  10.686   7.020 -1.5933  2.6678 -1.1119
  356MOL0     H49116   8.408  10.365   6.825  1.4795  0.8191  1.2903
  356MOL0     H49117   8.395  10.336   7.000  1.4600  3.9412  1.2728
  356MOL0     H49118   8.195  10.246   6.985 -1.7877  4.9362  0.0224
  356MOL0     H49119   8.306  10.156   6.864 -0.1733  0.3593 -0.7740
  356MOL0     H49120   8.174  10.317   6.688  1.1583 -2.7861 -1.4917
  356MOL0     H49121   8.110  10.171   6.743  0.9286 -0.1708  0.2223
  356MOL0     H49122   8.035  10.453   6.847 -0.2672  0.3276  0.2681
  356MOL0     H49123   7.980  10.302   6.931  2.8579 -1.6809  0.3889
  356MOL0     H49124   7.732  10.285   6.598 -2.3220  3.3564  1.5632
  356MOL0     H49125   8.295  10.479   6.660 -5.8276 -0.4465  2.9585
  356MOL0     H49126   8.457  10.670   6.419 -1.1166  1.3101 -2.6441
  356MOL0     H49127   8.329  10.552   6.454  2.3697 -0.8497 -1.2405
  356MOL0     H49128   8.285  10.720   6.425  0.0727  0.4905  0.2819
  357MOL0     O49129   3.519   5.886   2.512 -0.0701 -0.2977  0.4670
  357MOL0     C49130   3.505   5.796   2.590  0.6128  0.6549 -0.2628
  357MOL0     O49131   3.396   5.716   2.587 -0.1628 -0.0726 -0.1814
  357MOL0     C49132   3.285   5.762   2.511 -0.9620 -0.0563 -0.0846
  357MOL0     C49133   3.208   5.862   2.562 -0.3730 -0.0005 -0.6909
  357MOL0     C49134   3.114   5.918   2.484 -0.0404 -0.3522 -0.0503
  357MOL0     C49135   3.078   5.863   2.359  0.9643  0.6070 -0.0997
  357MOL0     O49136   2.974   5.929   2.296  0.1691  0.2880 -0.4549
  357MOL0     C49137   2.913   5.838   2.202 -0.2267  0.1314 -0.0040
  357MOL0     C49138   2.793   5.904   2.143  1.1876  0.1908  0.2935
  357MOL0     C49139   2.689   5.817   2.069 -0.4729 -0.5320 -0.4129
  357MOL0     C49140   2.609   5.734   2.162 -0.3077  0.1605 -0.1148
  357MOL0     C49141   2.533   5.637   2.077 -0.1101 -0.4600 -1.1259
  357MOL0     C49142   2.438   5.550   2.150  0.6413  0.0586  0.6140
  357MOL0     C49143   2.373   5.442   2.061  0.6567  1.3137 -0.1675
  357MOL0     C49144   2.274   5.488   1.948 -0.2220  0.5595 -0.8020
  357MOL0     N49145   2.229   5.370   1.877  0.2630 -0.7558 -0.5708
  357MOL0     C49146   2.305   5.296   1.789 -0.4050  0.2866 -0.7326
  357MOL0     C49147   2.239   5.183   1.764  0.0424 -0.2593  0.6554
  357MOL0     C49148   2.276   5.049   1.700  0.3034  1.8487 -0.1424
  357MOL0     C49149   2.396   5.005   1.782  0.3196  0.6483  0.4919
  357MOL0     C49150   2.380   4.983   1.927  1.0238 -0.1644  0.4460
  357MOL0     C49151   2.517   4.991   1.999  0.7754  0.7271  0.0742
  357MOL0     O49152   2.579   5.123   1.989  0.0087  0.0271 -0.7718
  357MOL0     C49153   2.693   5.144   2.074  0.3505  0.3735 -0.3580
  357MOL0     C49154   2.735   5.273   2.120 -0.5917  0.1138 -0.1527
  357MOL0     C49155   2.839   5.310   2.216 -0.2343  0.9338  0.8158
  357MOL0     C49156   2.871   5.454   2.250  0.0363 -0.5851 -0.1231
  357MOL0     C49157   2.913   5.193   2.269  0.1829 -0.9198  0.1977
  357MOL0     C49158   3.018   5.209   2.368 -0.3751 -0.2661  0.0221
  357MOL0     O49159   3.109   5.103   2.358 -0.1040 -0.3176  0.2139
  357MOL0     C49160   3.223   5.103   2.438 -0.4611 -1.0490  0.0043
  357MOL0     C49161   3.217   5.117   2.581  0.0754  0.0126 -0.0007
  357MOL0     C49162   3.317   5.079   2.669 -0.3730 -1.2225 -0.2274
  357MOL0     C49163   3.442   5.037   2.626  0.7219  0.1555  0.5021
  357MOL0     O49164   3.539   5.003   2.712 -0.2083 -1.1534 -0.4522
  357MOL0     C49165   3.527   5.019   2.854  0.5454  0.0728 -0.4296
  357MOL0     C49166   3.638   4.929   2.915 -0.2997  0.4203 -0.7134
  357MOL0     C49167   3.624   4.770   2.910 -0.3560 -0.5436 -0.6604
  357MOL0     C49168   3.527   4.719   3.013  0.0522  0.1263 -0.8723
  357MOL0     C49169   3.493   4.573   2.981 -0.4195  0.5551 -0.0031
  357MOL0     C49170   3.351   4.534   3.037  0.1368 -0.3023  0.7683
  357MOL0     C49171   3.305   4.386   2.993  0.1424 -0.1225 -0.4406
  357MOL0     C49172   3.157   4.364   3.029 -0.3842 -0.5131 -0.3642
  357MOL0    Cl49173   3.069   4.438   2.896  0.0578  0.4068  0.2905
  357MOL0     C49174   3.459   5.024   2.491 -0.1451 -1.1039 -0.1170
  357MOL0     C49175   3.349   5.052   2.398  0.1461  0.0865 -0.5436
  357MOL0     O49176   3.021   5.300   2.452  0.5743  0.2177  0.4639
  357MOL0     C49177   2.868   5.068   2.230  0.1531 -0.7219  0.9498
  357MOL0     C49178   2.767   5.038   2.136  0.8307 -0.2663  0.2137
  357MOL0     N49179   2.113   5.202   1.811  0.0471 -0.5093 -0.2607
  357MOL0     N49180   2.102   5.306   1.885 -0.2248 -0.6818  1.2021
  357MOL0     C49181   3.158   5.753   2.309 -0.0287  0.1579  0.4490
  357MOL0     C49182   3.253   5.699   2.388 -1.4288  0.1456 -0.3187
  357MOL0     C49183   3.612   5.755   2.692  0.0516 -0.1431 -0.3980
  357MOL0     C49184   3.595   5.648   2.779 -0.1156  0.6117  0.0236
  357MOL0     C49185   3.694   5.605   2.872 -0.0646  0.5381  0.4810
  357MOL0     C49186   3.821   5.664   2.874 -0.0594 -0.0558 -1.0310
  357MOL0     O49187   3.923   5.622   2.948 -0.4617 -1.1481  0.9477
  357MOL0     C49188   3.910   5.495   3.012  0.0592 -0.2198 -0.3274
  357MOL0     C49189   4.031   5.473   3.102  0.2056 -1.3345 -0.8098
  357MOL0     C49190   4.020   5.341   3.172  0.0002  0.5840 -0.0970
  357MOL0     C49191   4.141   5.245   3.150 -0.6123 -0.0889 -0.1281
  357MOL0     C49192   4.155   5.207   3.009  0.4116  0.0211  0.4341
  357MOL0     C49193   4.181   5.175   2.893  0.6933  0.8194 -0.3202
  357MOL0     C49194   3.839   5.771   2.789  0.2013 -1.0987 -0.5477
  357MOL0     C49195   3.742   5.821   2.701  0.2482  0.0461  0.2981
  357MOL0     C49196   3.767   5.955   2.642 -0.0065  0.0625  0.4964
  357MOL0     H49197   3.232   5.914   2.654 -0.7471  0.5830 -0.9148
  357MOL0     H49198   3.065   6.009   2.517 -1.5114 -0.6754 -1.2257
  357MOL0     H49199   2.882   5.747   2.255  4.0107 -1.6161 -0.1717
  357MOL0     H49200   2.975   5.806   2.118 -0.5389 -1.6379  0.3998
  357MOL0     H49201   2.729   5.951   2.219  0.1891 -1.7171  0.7027
  357MOL0     H49202   2.834   5.977   2.072  0.1591  1.4733  0.9646
  357MOL0     H49203   2.632   5.886   2.005 -0.3149  0.0709  0.0885
  357MOL0     H49204   2.744   5.750   2.003 -1.6498 -2.2584  0.2970
  357MOL0     H49205   2.668   5.685   2.241 -1.8002 -0.2011  0.8207
  357MOL0     H49206   2.542   5.793   2.225  0.4186 -1.2417  2.1244
  357MOL0     H49207   2.603   5.578   2.017  2.7198  1.6534 -0.1122
  357MOL0     H49208   2.484   5.693   1.996 -2.8294 -0.6154  0.2961
  357MOL0     H49209   2.491   5.497   2.230  1.1864 -1.1244 -0.4986
  357MOL0     H49210   2.358   5.616   2.185  0.5157  0.0248  0.3924
  357MOL0     H49211   2.327   5.367   2.126  2.5324  0.3889  0.1531
  357MOL0     H49212   2.452   5.382   2.014  2.0276  1.5018  1.8043
  357MOL0     H49213   2.188   5.540   1.992 -0.4933 -0.1880 -0.4279
  357MOL0     H49214   2.328   5.561   1.886  4.3549  1.3357  3.4758
  357MOL0     H49215   2.410   5.318   1.772 -0.2625  1.4433  1.3279
  357MOL0     H49216   2.299   5.065   1.595  0.0840  1.9400 -0.1770
  357MOL0     H49217   2.196   4.974   1.710  0.0995  2.1702  0.7756
  357MOL0     H49218   2.420   4.901   1.760 -1.8991 -0.9516  4.5737
  357MOL0     H49219   2.479   5.066   1.745 -0.8770  0.5061 -2.7040
  357MOL0     H49220   2.323   5.059   1.982 -0.5387 -0.7088 -0.3822
  357MOL0     H49221   2.334   4.885   1.943 -1.2940  0.8249  0.2904
  357MOL0     H49222   2.518   4.966   2.106  3.1304  2.7117  0.6156
  357MOL0     H49223   2.579   4.907   1.965  1.2812  1.1416 -0.0360
  357MOL0     H49224   2.674   5.350   2.074 -0.3344 -0.1722 -1.0020
  357MOL0     H49225   2.841   5.505   2.158  3.4090  0.7964 -0.5700
  357MOL0     H49226   2.970   5.491   2.276  1.4314 -2.6048 -2.1759
  357MOL0     H49227   2.802   5.483   2.330 -2.0484 -1.4991 -1.4925
  357MOL0     H49228   3.131   5.162   2.628 -0.7078 -1.0979 -0.3406
  357MOL0     H49229   3.285   5.095   2.771 -0.6832  1.0154 -0.6230
  357MOL0     H49230   3.530   5.124   2.885 -1.4442 -1.2150  5.4317
  357MOL0     H49231   3.435   5.003   2.911  0.8409  0.6004  0.2149
  357MOL0     H49232   3.730   4.949   2.860 -1.4622 -1.1969 -3.4663
  357MOL0     H49233   3.636   4.955   3.022  0.2398  0.5557 -0.7347
  357MOL0     H49234   3.719   4.720   2.927  1.3549  2.1305 -1.6635
  357MOL0     H49235   3.596   4.733   2.811 -2.3970  1.0449 -0.7556
  357MOL0     H49236   3.444   4.789   2.995 -0.7540 -1.2237 -2.8069
  357MOL0     H49237   3.567   4.728   3.114 -0.6957 -3.3100 -0.1458
  357MOL0     H49238   3.485   4.563   2.872 -2.8440  0.6486  0.1118
  357MOL0     H49239   3.575   4.518   3.027  0.3213  1.7311  0.1338
  357MOL0     H49240   3.280   4.606   2.995 -0.1423 -0.2334  1.3573
  357MOL0     H49241   3.343   4.547   3.145  2.1601  3.3892  0.6289
  357MOL0     H49242   3.361   4.304   3.038 -1.3497 -2.4044 -2.4835
  357MOL0     H49243   3.316   4.378   2.885 -2.1808  0.6448 -0.7977
  357MOL0     H49244   3.148   4.421   3.121  3.5515  0.8144 -0.6153
  357MOL0     H49245   3.133   4.257   3.034 -1.7040 -0.4032 -2.9248
  357MOL0     H49246   3.557   4.990   2.457 -0.9953 -2.1979 -1.5632
  357MOL0     H49247   3.370   5.028   2.294  1.8357 -2.4847  0.2970
  357MOL0     H49248   2.907   4.977   2.274 -1.4224 -2.0859 -0.3635
  357MOL0     H49249   2.743   4.936   2.107 -2.5914  0.5824 -0.3768
  357MOL0     H49250   3.142   5.715   2.209  2.8882  2.8541 -1.2228
  357MOL0     H49251   3.321   5.621   2.356  1.1812  1.7241  1.0279
  357MOL0     H49252   3.512   5.578   2.776  0.5903 -0.1985 -1.4299
  357MOL0     H49253   3.671   5.517   2.930 -0.1300 -1.1088 -1.8941
  357MOL0     H49254   3.830   5.506   3.085  0.7430  1.1472  0.2395
  357MOL0     H49255   3.903   5.414   2.938  1.6720  1.5530 -2.5587
  357MOL0     H49256   4.043   5.548   3.180 -1.1521 -2.3527  0.4490
  357MOL0     H49257   4.116   5.472   3.034 -0.1389  0.8187 -1.3293
  357MOL0     H49258   4.006   5.349   3.281 -0.1563  0.5681 -0.1162
  357MOL0     H49259   3.942   5.281   3.125  0.0278 -0.5150  1.1919
  357MOL0     H49260   4.132   5.158   3.215  0.4391 -0.1687 -0.0741
  357MOL0     H49261   4.234   5.292   3.185 -1.7039  0.9029  1.6112
  357MOL0     H49262   4.194   5.151   2.790 -0.4709  2.2241 -0.8347
  357MOL0     H49263   3.939   5.814   2.790 -0.1166 -0.2764  1.9006
  357MOL0     H49264   3.704   6.030   2.689 -1.0162 -1.8880  2.4106
  357MOL0     H49265   3.867   5.987   2.674 -0.8394  2.7937  0.5943
  357MOL0     H49266   3.760   5.961   2.533 -3.0860 -0.8417  0.5517
  358MOL0     O49267   5.922   3.404   6.122 -0.2435  0.4758  0.3458
  358MOL0     C49268   5.831   3.456   6.055  1.1241 -0.2971  0.2258
  358MOL0     O49269   5.855   3.566   5.985 -0.1916 -0.6580  0.6123
  358MOL0     C49270   5.972   3.640   6.024  0.5579  0.4653  0.5785
  358MOL0     C49271   6.032   3.722   5.923  0.5380  0.0604 -0.4701
  358MOL0     C49272   6.146   3.803   5.949  0.0769  0.6885  0.7066
  358MOL0     C49273   6.198   3.803   6.086 -0.0402  0.6589 -0.3462
  358MOL0     O49274   6.316   3.865   6.121 -0.2154  0.2404  0.2821
  358MOL0     C49275   6.403   3.890   6.014 -0.5360  0.4429 -0.3181
  358MOL0     C49276   6.536   3.930   6.075 -0.3199  0.1939 -0.1849
  358MOL0     C49277   6.545   4.082   6.092  0.2337  0.3476 -0.2306
  358MOL0     C49278   6.662   4.137   6.182 -0.6987 -0.1866  0.0554
  358MOL0     C49279   6.802   4.096   6.137  0.4794 -0.3050  0.0375
  358MOL0     C49280   6.911   4.128   6.237 -0.3161 -0.5168  0.5615
  358MOL0     C49281   7.016   4.016   6.253 -0.1709 -0.0225  0.2000
  358MOL0     C49282   7.107   4.031   6.377  0.1988  0.4329  0.2925
  358MOL0     N49283   7.161   3.906   6.419 -0.0725  0.0600  0.2835
  358MOL0     C49284   7.094   3.817   6.495  0.1220 -0.1093 -0.1158
  358MOL0     C49285   7.186   3.718   6.504 -0.3604  1.0458  0.0207
  358MOL0     C49286   7.173   3.596   6.591  0.1723 -0.3263  0.8865
  358MOL0     C49287   7.090   3.487   6.534  0.1827 -0.3452  0.5254
  358MOL0     C49288   7.077   3.356   6.616  1.2089 -0.0468  0.0547
  358MOL0     C49289   7.009   3.245   6.547 -0.1332 -0.3440  0.5534
  358MOL0     O49290   6.871   3.284   6.542  0.6990  0.1028  0.4816
  358MOL0     C49291   6.775   3.210   6.477  0.2912 -0.0195  0.0151
  358MOL0     C49292   6.797   3.086   6.411  0.7542  0.6926  0.1065
  358MOL0     C49293   6.698   3.012   6.357  0.2938 -0.3751 -0.7677
  358MOL0     C49294   6.750   2.888   6.283 -0.1350 -0.6499  0.0026
  358MOL0     C49295   6.560   3.056   6.363  0.2067  0.3606  0.0087
  358MOL0     C49296   6.442   2.991   6.303  0.5701  0.6388 -1.3079
  358MOL0     O49297   6.320   3.060   6.318 -0.5312  0.5385 -0.2056
  358MOL0     C49298   6.199   2.997   6.287  0.5562  0.7085 -0.5869
  358MOL0     C49299   6.168   2.865   6.311 -0.2997  0.2678  0.0672
  358MOL0     C49300   6.037   2.822   6.284  0.2294  1.1434  0.4013
  358MOL0     C49301   5.942   2.902   6.214 -1.3533  0.2762 -0.4785
  358MOL0     O49302   5.823   2.855   6.172 -0.0137  0.3200  0.0249
  358MOL0     C49303   5.711   2.939   6.138 -0.7715 -0.7428  0.3421
  358MOL0     C49304   5.654   3.002   6.269  0.0623  0.0268  1.4041
  358MOL0     C49305   5.525   3.073   6.243  0.0688 -0.7205  0.4705
  358MOL0     C49306   5.448   3.083   6.373 -0.0947 -0.5828 -0.1570
  358MOL0     C49307   5.332   3.175   6.372  0.3204  0.4910 -0.2080
  358MOL0     C49308   5.229   3.131   6.265 -0.8693  0.5075  0.4762
  358MOL0     C49309   5.163   2.993   6.287 -0.4293 -0.2827  0.6979
  358MOL0     C49310   5.008   2.992   6.270  0.6821  0.5711 -0.3777
  358MOL0    Cl49311   4.958   2.982   6.104  0.0107 -0.1309 -0.4450
  358MOL0     C49312   5.989   3.026   6.176  0.6264  0.6642  0.3165
  358MOL0     C49313   6.108   3.080   6.224  0.2668  0.6530 -0.6526
  358MOL0     O49314   6.457   2.886   6.247 -0.0359  0.3588  1.3705
  358MOL0     C49315   6.544   3.183   6.429  0.4468  0.2470  0.0708
  358MOL0     C49316   6.645   3.257   6.486  0.3785 -0.4628 -0.9811
  358MOL0     N49317   7.303   3.744   6.436  0.2233  0.1066  0.3639
  358MOL0     N49318   7.278   3.856   6.379  0.2518  0.0501 -0.4128
  358MOL0     C49319   6.115   3.747   6.188 -0.2069 -0.3715  0.3982
  358MOL0     C49320   6.015   3.662   6.157 -0.0413 -0.3236  0.1140
  358MOL0     C49321   5.711   3.396   6.029  0.7524  0.6518 -0.0348
  358MOL0     C49322   5.707   3.276   5.954 -0.3327 -0.0950  0.2524
  358MOL0     C49323   5.590   3.208   5.908 -0.7558 -0.5844  0.5750
  358MOL0     C49324   5.467   3.256   5.946 -0.9654  0.2281 -0.1972
  358MOL0     O49325   5.346   3.197   5.919  0.9031  0.6480 -0.1362
  358MOL0     C49326   5.339   3.106   5.803  0.1794  0.3118 -0.1623
  358MOL0     C49327   5.204   3.032   5.789  0.2062 -0.2150  0.6252
  358MOL0     C49328   5.069   3.116   5.792 -0.3409 -0.1615  0.3740
  358MOL0     C49329   5.063   3.231   5.690 -0.7543  0.8554  0.6048
  358MOL0     C49330   5.061   3.162   5.554 -0.3553 -0.5584 -0.5538
  358MOL0     C49331   5.041   3.099   5.447  0.6654  0.6564 -0.9512
  358MOL0     C49332   5.466   3.370   6.026  0.1004 -0.4861 -0.5976
  358MOL0     C49333   5.585   3.441   6.072  0.1299  0.7518 -0.6197
  358MOL0     C49334   5.565   3.559   6.165  1.4273 -1.4152 -0.1316
  358MOL0     H49335   6.006   3.711   5.819 -0.7270 -0.3212 -0.1333
  358MOL0     H49336   6.191   3.857   5.866  2.5173 -0.0691  1.4350
  358MOL0     H49337   6.370   3.958   5.934  0.9852 -0.8697 -2.1606
  358MOL0     H49338   6.419   3.794   5.964 -0.3164 -0.6903  1.8026
  358MOL0     H49339   6.561   3.864   6.159  0.0859  0.6013  0.0153
  358MOL0     H49340   6.605   3.911   5.992  0.1042  1.9993 -0.2902
  358MOL0     H49341   6.557   4.131   5.995  1.1685  0.2226 -0.1926
  358MOL0     H49342   6.457   4.123   6.141 -1.8256 -2.6979 -1.1176
  358MOL0     H49343   6.657   4.246   6.173  2.3608  0.0073 -0.1072
  358MOL0     H49344   6.651   4.099   6.284  3.1703 -3.2277 -0.4403
  358MOL0     H49345   6.811   4.154   6.044 -1.6774 -0.4541 -0.3359
  358MOL0     H49346   6.803   3.989   6.117  0.4535 -0.1748 -0.7126
  358MOL0     H49347   6.967   4.213   6.199  1.8675 -0.7149  3.0459
  358MOL0     H49348   6.870   4.148   6.336 -3.1126  3.0545 -1.1096
  358MOL0     H49349   7.082   4.028   6.166 -0.3027  2.5639  0.3793
  358MOL0     H49350   6.966   3.920   6.238  0.3801  0.0857 -2.9752
  358MOL0     H49351   7.185   4.106   6.361 -0.6420  1.1965 -0.3341
  358MOL0     H49352   7.041   4.064   6.458 -2.0745 -0.9678 -0.8785
  358MOL0     H49353   6.999   3.821   6.547  0.3509 -0.8666  0.3752
  358MOL0     H49354   7.135   3.627   6.689 -0.8067 -2.0389  1.0840
  358MOL0     H49355   7.277   3.567   6.612  0.0098 -1.6044  0.0241
  358MOL0     H49356   6.990   3.520   6.504  1.0554 -0.2900 -2.6957
  358MOL0     H49357   7.134   3.460   6.437 -0.7892  0.2506 -0.0984
  358MOL0     H49358   7.171   3.313   6.650  1.9217  0.0141 -1.7064
  358MOL0     H49359   7.015   3.375   6.704 -0.0782 -2.1305 -0.3339
  358MOL0     H49360   7.053   3.229   6.448 -0.1872  2.5651 -0.0252
  358MOL0     H49361   7.010   3.146   6.592  1.5346  0.2630  1.9848
  358MOL0     H49362   6.904   3.065   6.409  0.7084  0.4927 -0.2080
  358MOL0     H49363   6.714   2.896   6.180 -1.4230  0.9051  0.5382
  358MOL0     H49364   6.704   2.802   6.333  0.4271 -2.0237 -1.7098
  358MOL0     H49365   6.853   2.852   6.291 -1.0382 -3.6631 -0.6640
  358MOL0     H49366   6.239   2.794   6.353 -2.8810 -2.6261 -0.0798
  358MOL0     H49367   6.011   2.722   6.319  0.6145  0.8968 -0.0094
  358MOL0     H49368   5.732   3.009   6.056  1.7475 -1.3162  0.3975
  358MOL0     H49369   5.636   2.870   6.097  1.1145 -2.1583 -0.9328
  358MOL0     H49370   5.645   2.912   6.332 -0.7836 -0.1731  1.0048
  358MOL0     H49371   5.723   3.077   6.309 -1.7058  2.9918 -0.7470
  358MOL0     H49372   5.466   3.030   6.161  0.8429 -4.4403  1.6718
  358MOL0     H49373   5.550   3.177   6.219  1.5662 -1.5172 -1.8569
  358MOL0     H49374   5.523   3.122   6.443  0.9391 -0.3903 -1.3329
  358MOL0     H49375   5.424   2.984   6.413 -0.5653 -0.1848  0.5591
  358MOL0     H49376   5.284   3.179   6.471  1.4286  1.2838  0.3212
  358MOL0     H49377   5.368   3.277   6.359 -0.0553  0.3814 -2.3816
  358MOL0     H49378   5.280   3.115   6.169  1.0510 -1.4242  1.7233
  358MOL0     H49379   5.160   3.215   6.253  1.5379  2.6922  1.0314
  358MOL0     H49380   5.167   2.965   6.393 -4.6478 -1.5558  0.6989
  358MOL0     H49381   5.207   2.919   6.220  1.9919  1.7449 -0.1343
  358MOL0     H49382   4.972   3.088   6.307 -0.4581  0.3635 -0.9169
  358MOL0     H49383   4.959   2.909   6.321 -0.3465  1.2658 -0.1999
  358MOL0     H49384   5.930   3.088   6.110 -2.3839 -2.7654 -0.5153
  358MOL0     H49385   6.129   3.186   6.218 -0.5329  0.9492  1.3012
  358MOL0     H49386   6.451   3.238   6.424  0.0571 -0.5157 -2.3224
  358MOL0     H49387   6.620   3.352   6.532 -0.7870 -1.7601  1.2657
  358MOL0     H49388   6.156   3.745   6.289 -0.0356 -2.4843  0.3250
  358MOL0     H49389   5.986   3.599   6.241 -1.8367  0.7478  0.3620
  358MOL0     H49390   5.804   3.252   5.912  0.4980  1.7013  1.0382
  358MOL0     H49391   5.616   3.135   5.832  1.4976  2.5113 -1.9353
  358MOL0     H49392   5.352   3.164   5.711 -1.9872 -0.9449 -1.3383
  358MOL0     H49393   5.426   3.041   5.818  1.4538  2.1406  0.8240
  358MOL0     H49394   5.208   2.952   5.864  2.5621 -0.8259 -0.0651
  358MOL0     H49395   5.216   2.980   5.694 -0.3070 -2.5458  1.7364
  358MOL0     H49396   4.985   3.051   5.767  0.1259  0.5720 -3.7747
  358MOL0     H49397   5.053   3.157   5.892  1.5674 -0.4157  0.8273
  358MOL0     H49398   5.149   3.297   5.703 -3.0675  4.3192 -0.5119
  358MOL0     H49399   4.974   3.292   5.703 -1.2847  0.5050 -1.1178
  358MOL0     H49400   5.030   3.031   5.365  1.0091 -1.1047  0.3952
  358MOL0     H49401   5.372   3.418   6.051  0.8061  1.4468 -1.4221
  358MOL0     H49402   5.577   3.650   6.106 -0.4067 -0.6449  0.6085
  358MOL0     H49403   5.467   3.569   6.212 -0.8900  2.5541 -4.8459
  358MOL0     H49404   5.639   3.555   6.246 -1.3665 -1.0880  2.6113
  359MOL0     O49405   7.765   5.238   9.067  0.0502 -0.4825  0.7165
  359MOL0     C49406   7.683   5.322   9.103 -0.1181 -0.6193 -0.9864
  359MOL0     O49407   7.642   5.341   9.236  0.4615  0.2161  0.2738
  359MOL0     C49408   7.693   5.264   9.339 -0.3308 -1.0368 -0.8915
  359MOL0     C49409   7.819   5.270   9.389 -0.9090  0.1071  0.2837
  359MOL0     C49410   7.861   5.198   9.503 -1.7044 -0.1970  0.5369
  359MOL0     C49411   7.769   5.125   9.576 -1.0204  0.0315 -0.1329
  359MOL0     O49412   7.805   5.046   9.681  0.8237 -0.1617  0.0515
  359MOL0     C49413   7.932   5.048   9.747  0.3903 -0.1674 -0.4396
  359MOL0     C49414   7.918   5.142   9.868  0.1147  1.3570  0.2057
  359MOL0     C49415   8.035   5.144   9.969  0.0137 -0.0739 -0.7180
  359MOL0     C49416   8.153   5.200   9.897 -0.0884  0.0957  0.9233
  359MOL0     C49417   8.282   5.204   9.983  0.3561 -0.0224  0.4135
  359MOL0     C49418   8.407   5.209   9.895  0.6418 -0.1688  0.0400
  359MOL0     C49419   8.532   5.242   9.987 -0.6430 -0.5197  0.4691
  359MOL0     C49420   8.651   5.151   9.971 -0.1053  0.3256  0.3547
  359MOL0     N49421   8.691   5.109   9.839 -0.2391  0.3703 -0.0989
  359MOL0     C49422   8.678   5.184   9.723  0.6182  0.3317  0.7983
  359MOL0     C49423   8.771   5.139   9.642  0.0103  0.4403 -0.1211
  359MOL0     C49424   8.766   5.183   9.496 -0.4570  0.2755  0.1928
  359MOL0     C49425   8.780   5.336   9.477  0.1354 -0.7195  0.6257
  359MOL0     C49426   8.808   5.394   9.335  0.3525 -1.0814  0.1090
  359MOL0     C49427   8.838   5.544   9.338  0.5713 -0.4769 -0.8017
  359MOL0     O49428   8.737   5.638   9.386  0.5100  0.2629  0.3237
  359MOL0     C49429   8.652   5.698   9.297 -0.7539  0.1285  0.2888
  359MOL0     C49430   8.559   5.802   9.346  0.0758 -0.6998  0.3279
  359MOL0     C49431   8.475   5.866   9.251  0.5936  0.0072  0.1529
  359MOL0     C49432   8.381   5.967   9.308  0.7025 -0.0479 -0.3451
  359MOL0     C49433   8.471   5.828   9.117 -0.3533  1.5818 -0.4261
  359MOL0     C49434   8.376   5.874   9.011  0.8129 -1.4085  0.4171
  359MOL0     O49435   8.429   5.873   8.888  0.3379  0.1114  0.2937
  359MOL0     C49436   8.337   5.908   8.790 -0.0934  0.5303 -0.1474
  359MOL0     C49437   8.297   5.808   8.700  0.8319  0.2434 -1.1477
  359MOL0     C49438   8.209   5.828   8.594 -0.5296 -1.0730  0.4653
  359MOL0     C49439   8.180   5.964   8.560 -0.4085 -1.0354  0.5859
  359MOL0     O49440   8.119   5.994   8.441  0.5916  0.8129 -0.0810
  359MOL0     C49441   8.130   5.907   8.332 -0.2858  0.7209 -0.9324
  359MOL0     C49442   8.074   5.979   8.204 -1.0867  0.5276 -1.0598
  359MOL0     C49443   7.929   5.954   8.185  0.1576  0.1255 -0.1259
  359MOL0     C49444   7.899   5.963   8.036 -1.8337  0.5349  0.5735
  359MOL0     C49445   7.757   5.959   8.002  0.6046 -0.0915  0.2934
  359MOL0     C49446   7.750   5.938   7.854  1.0522 -0.2128 -0.3983
  359MOL0     C49447   7.595   5.935   7.800  0.4815  0.7795 -0.5839
  359MOL0     C49448   7.559   5.802   7.731 -0.8974 -0.0114 -0.0697
  359MOL0    Cl49449   7.624   5.677   7.845 -0.0408  0.1233  0.2358
  359MOL0     C49450   8.231   6.066   8.644  1.3959 -0.1855 -0.2543
  359MOL0     C49451   8.302   6.036   8.762  0.0789 -0.7741  0.2012
  359MOL0     O49452   8.260   5.910   9.044 -0.3258 -0.1768  0.5737
  359MOL0     C49453   8.553   5.724   9.074 -0.4535  0.7667  0.5663
  359MOL0     C49454   8.629   5.653   9.164  0.1051 -1.1641 -0.4776
  359MOL0     N49455   8.839   5.032   9.708  0.3864  0.0936  0.5757
  359MOL0     N49456   8.793   5.019   9.827  0.3301  1.0675 -0.4750
  359MOL0     C49457   7.634   5.124   9.536  0.1007  0.0817 -0.2090
  359MOL0     C49458   7.596   5.195   9.418  0.3496 -0.2120 -0.5258
  359MOL0     C49459   7.629   5.412   9.003 -0.6990  0.3266 -0.0192
  359MOL0     C49460   7.558   5.526   9.059  0.1844  0.2886  0.6538
  359MOL0     C49461   7.506   5.618   8.972  0.5472 -0.0633  0.4362
  359MOL0     C49462   7.529   5.605   8.840 -0.3190  0.1646  0.8455
  359MOL0     O49463   7.491   5.701   8.739  0.4670  0.7190 -0.0419
  359MOL0     C49464   7.449   5.826   8.787 -0.5628  0.3991 -0.1851
  359MOL0     C49465   7.377   5.902   8.676 -0.3491  0.4402 -0.4364
  359MOL0     C49466   7.367   6.058   8.710  1.0304 -0.3287  0.3190
  359MOL0     C49467   7.312   6.141   8.592 -0.0480 -0.0186  0.5662
  359MOL0     C49468   7.165   6.132   8.597 -0.1704 -0.2641  0.0122
  359MOL0     C49469   7.055   6.125   8.634  0.1131  0.7561  0.0029
  359MOL0     C49470   7.589   5.493   8.783  0.0962  0.4049 -0.1666
  359MOL0     C49471   7.643   5.394   8.858 -0.1877  1.4227  0.0574
  359MOL0     C49472   7.717   5.287   8.793 -0.1703  0.2547  0.2091
  359MOL0     H49473   7.895   5.323   9.332  0.0462 -2.1438 -0.6435
  359MOL0     H49474   7.968   5.187   9.519 -1.1082  0.4388 -2.5350
  359MOL0     H49475   8.014   5.069   9.678 -0.0004 -0.7208 -1.0845
  359MOL0     H49476   7.940   4.947   9.788 -2.4411  0.4100  1.8736
  359MOL0     H49477   7.914   5.244   9.829 -0.6987  0.7805 -1.2578
  359MOL0     H49478   7.826   5.114   9.919 -0.5221  2.4398 -0.3240
  359MOL0     H49479   8.006   5.214  10.047  1.0849  0.3960 -0.7224
  359MOL0     H49480   8.062   5.046  10.008 -0.3064 -0.6222 -1.8211
  359MOL0     H49481   8.166   5.130   9.814 -4.9485 -1.6175  1.3273
  359MOL0     H49482   8.144   5.302   9.858  2.9512  0.3593  0.6223
  359MOL0     H49483   8.288   5.112  10.043 -2.1149 -0.5692 -0.0591
  359MOL0     H49484   8.283   5.296  10.041  1.4300  0.0893  0.2326
  359MOL0     H49485   8.429   5.119   9.836  0.6629 -0.0296 -0.1662
  359MOL0     H49486   8.393   5.302   9.839 -0.4371 -0.5032 -0.2734
  359MOL0     H49487   8.506   5.242  10.094 -0.0450  0.7604  0.6337
  359MOL0     H49488   8.557   5.347   9.970 -0.2539  0.0274  3.6895
  359MOL0     H49489   8.738   5.204  10.010 -0.5858  0.3147  1.4775
  359MOL0     H49490   8.641   5.067  10.039  1.4891  0.5771  0.9356
  359MOL0     H49491   8.596   5.247   9.693 -0.5201 -2.3995 -2.4300
  359MOL0     H49492   8.671   5.151   9.454  0.4355 -2.3213  0.0023
  359MOL0     H49493   8.845   5.127   9.445 -1.6653 -0.8797 -0.4866
  359MOL0     H49494   8.691   5.390   9.509 -0.0708  0.9512 -2.4489
  359MOL0     H49495   8.862   5.381   9.534  0.9653  2.0071 -2.4630
  359MOL0     H49496   8.888   5.340   9.283  0.6852  1.3255 -2.0561
  359MOL0     H49497   8.725   5.382   9.264  3.6050  2.4924 -5.0057
  359MOL0     H49498   8.928   5.561   9.398 -0.8820  1.3877  1.0558
  359MOL0     H49499   8.866   5.584   9.240  2.1167 -0.3488 -0.3296
  359MOL0     H49500   8.557   5.837   9.448  2.1181  0.3960  0.0369
  359MOL0     H49501   8.364   6.056   9.247 -1.9711 -0.4275 -0.2836
  359MOL0     H49502   8.407   6.005   9.407  1.0635 -0.6421 -0.2059
  359MOL0     H49503   8.285   5.919   9.332  0.1990  0.1409 -1.8890
  359MOL0     H49504   8.324   5.706   8.724  0.7293  0.0350 -1.8823
  359MOL0     H49505   8.162   5.739   8.553 -3.2405 -1.0545  3.1728
  359MOL0     H49506   8.237   5.898   8.307 -1.1567  0.5893 -5.4843
  359MOL0     H49507   8.084   5.810   8.351 -2.5963  1.8264 -0.6379
  359MOL0     H49508   8.093   6.087   8.200 -0.9215  0.5224 -0.4857
  359MOL0     H49509   8.129   5.932   8.122 -0.5026  0.1109 -0.4411
  359MOL0     H49510   7.878   6.028   8.247  2.3113  0.3821  1.4964
  359MOL0     H49511   7.888   5.856   8.212  0.3614  0.4038  1.3306
  359MOL0     H49512   7.949   5.882   7.982 -2.1127 -0.3230  1.5678
  359MOL0     H49513   7.955   6.049   7.998 -0.2798  0.4515  2.5115
  359MOL0     H49514   7.723   5.867   8.052 -4.5950 -0.5342 -3.1846
  359MOL0     H49515   7.693   6.040   8.037  0.7010  0.9942 -1.8692
  359MOL0     H49516   7.799   5.846   7.819  0.5617  0.4759 -3.1615
  359MOL0     H49517   7.809   6.016   7.805  0.5634  1.0152  0.8818
  359MOL0     H49518   7.564   6.021   7.741 -0.7155 -0.0746 -1.2289
  359MOL0     H49519   7.528   5.945   7.886 -0.5260 -0.1713 -1.2320
  359MOL0     H49520   7.615   5.796   7.637  2.3297 -2.6441  1.7998
  359MOL0     H49521   7.451   5.801   7.715 -1.0552  1.6323  0.6136
  359MOL0     H49522   8.208   6.170   8.623  4.1451  0.6694  0.6081
  359MOL0     H49523   8.326   6.115   8.831 -2.3102  0.0566  0.1952
  359MOL0     H49524   8.549   5.678   8.976  2.7065 -0.5904  0.9380
  359MOL0     H49525   8.685   5.568   9.126  1.7728 -0.4110  0.1898
  359MOL0     H49526   7.559   5.070   9.592 -1.0105  2.2051  0.4311
  359MOL0     H49527   7.499   5.210   9.371  0.8977  1.7731 -1.1455
  359MOL0     H49528   7.538   5.546   9.164 -1.1736  0.8930  0.2964
  359MOL0     H49529   7.461   5.706   9.015  0.1799  0.0731 -0.2082
  359MOL0     H49530   7.383   5.822   8.875  2.5584  0.9363  2.3654
  359MOL0     H49531   7.536   5.877   8.829  0.0260 -2.3633  2.2166
  359MOL0     H49532   7.273   5.868   8.676 -0.0281 -0.8300  2.4256
  359MOL0     H49533   7.431   5.885   8.582  1.6578  1.0266  0.5764
  359MOL0     H49534   7.304   6.075   8.798 -2.1418  1.3746 -2.0744
  359MOL0     H49535   7.471   6.085   8.733  0.5940  1.7847 -0.0178
  359MOL0     H49536   7.351   6.100   8.499 -0.6965  1.7124 -0.5143
  359MOL0     H49537   7.349   6.243   8.608  3.9761 -1.3896  1.0165
  359MOL0     H49538   6.955   6.133   8.672 -1.0177  2.4159 -2.9727
  359MOL0     H49539   7.580   5.484   8.675 -1.4684  0.6535 -0.0836
  359MOL0     H49540   7.806   5.254   8.848 -0.6814 -0.1870  0.7874
  359MOL0     H49541   7.652   5.199   8.791  0.2851 -0.2877  3.5153
  359MOL0     H49542   7.742   5.311   8.689 -0.6299  0.1754  0.0794
  360MOL0     O49543  10.686   1.515   0.586  0.2869 -0.4362 -0.4227
  360MOL0     C49544  10.769   1.447   0.646  0.1975  0.7177  0.1860
  360MOL0     O49545  10.758   1.319   0.676  0.1829  0.7151  0.5295
  360MOL0     C49546  10.652   1.247   0.651  0.3404 -0.4005  0.1505
  360MOL0     C49547  10.677   1.121   0.594 -0.2643 -0.0508 -0.7226
  360MOL0     C49548  10.581   1.024   0.587  0.5676 -0.5276  0.3116
  360MOL0     C49549  10.452   1.050   0.638  0.3925  0.1821 -0.3249
  360MOL0     O49550  10.360   0.949   0.621  0.3581 -0.0221 -0.3935
  360MOL0     C49551  10.220   0.990   0.625  0.5079 -0.3343 -0.2935
  360MOL0     C49552  10.141   0.851   0.614 -0.5741  0.5641  0.0192
  360MOL0     C49553  10.160   0.785   0.476  0.1745  0.3830 -0.2058
  360MOL0     C49554  10.079   0.653   0.469  0.8459 -0.4779 -1.2403
  360MOL0     C49555  10.099   0.577   0.337 -0.4411  0.6419  0.5029
  360MOL0     C49556  10.047   0.439   0.330  0.0244  0.5061  0.2214
  360MOL0     C49557  10.072   0.383   0.194 -0.4589 -0.2536  0.1076
  360MOL0     C49558   9.983   0.268   0.173 -0.3422  0.0164  1.2043
  360MOL0     N49559   9.841   0.297   0.150 -0.1038  0.0406  0.3390
  360MOL0     C49560   9.786   0.401   0.073 -0.9593  0.3498  0.0455
  360MOL0     C49561   9.651   0.395   0.105 -0.5558 -0.3049  0.3458
  360MOL0     C49562   9.552   0.484   0.043  0.1355  0.3566 -0.3998
  360MOL0     C49563   9.548   0.610   0.121  0.2537 -0.4744 -0.7455
  360MOL0     C49564   9.491   0.596   0.263  0.5017 -0.2617 -0.3203
  360MOL0     C49565   9.335   0.632   0.263 -0.4120  0.9686 -0.2095
  360MOL0     O49566   9.282   0.597   0.392  1.0876  0.4230 -0.0807
  360MOL0     C49567   9.153   0.638   0.434 -0.2923 -0.4081  0.3567
  360MOL0     C49568   9.056   0.687   0.342  0.9680 -0.2920  0.2341
  360MOL0     C49569   8.928   0.720   0.384  0.5511  0.3913  0.4921
  360MOL0     C49570   8.836   0.767   0.278  0.1767  0.5037  0.0693
  360MOL0     C49571   8.889   0.693   0.511  0.1807 -0.1055 -0.1996
  360MOL0     C49572   8.757   0.737   0.568  0.7095 -0.6302 -0.0976
  360MOL0     O49573   8.737   0.744   0.702 -0.2353 -0.0862 -0.7233
  360MOL0     C49574   8.606   0.741   0.752 -0.3220  0.1380  0.2311
  360MOL0     C49575   8.530   0.855   0.778  0.4123  0.2419 -0.2307
  360MOL0     C49576   8.412   0.841   0.841 -0.6722 -0.6050  0.2452
  360MOL0     C49577   8.354   0.724   0.891  1.3404 -0.2164  0.5322
  360MOL0     O49578   8.240   0.721   0.964 -0.7063  0.6289 -0.3663
  360MOL0     C49579   8.266   0.757   1.104 -0.2230  0.3887  0.2617
  360MOL0     C49580   8.153   0.734   1.211  0.3474 -0.0673  0.3613
  360MOL0     C49581   8.015   0.802   1.156  0.5638  0.9308  0.6302
  360MOL0     C49582   7.908   0.790   1.259  0.5244 -0.1265  0.1038
  360MOL0     C49583   7.779   0.864   1.214 -0.1728  0.9226 -0.9193
  360MOL0     C49584   7.671   0.841   1.316 -0.7896  0.0008  0.0721
  360MOL0     C49585   7.536   0.892   1.281 -1.2328 -0.7010  0.1350
  360MOL0     C49586   7.503   1.010   1.369 -0.9597 -0.2897 -0.4224
  360MOL0    Cl49587   7.340   1.069   1.307 -0.1373 -0.1483  0.5043
  360MOL0     C49588   8.416   0.607   0.848  0.6119 -0.6971  0.6705
  360MOL0     C49589   8.545   0.616   0.783 -0.0383 -0.5772  0.3956
  360MOL0     O49590   8.659   0.731   0.496 -0.2632  0.2756  0.3219
  360MOL0     C49591   8.979   0.651   0.606  0.7644  0.5496 -0.3931
  360MOL0     C49592   9.108   0.619   0.568  0.6722  0.5464 -0.4725
  360MOL0     N49593   9.632   0.297   0.201  0.4540 -0.0205 -0.0362
  360MOL0     N49594   9.746   0.240   0.235 -0.3919 -0.9559  0.1041
  360MOL0     C49595  10.422   1.178   0.685 -0.2183  0.2832  0.3662
  360MOL0     C49596  10.521   1.279   0.690  0.5344  0.3714 -0.4010
  360MOL0     C49597  10.890   1.508   0.692  0.1345 -1.0500  0.5079
  360MOL0     C49598  10.936   1.473   0.828 -0.4650 -0.0790 -0.4047
  360MOL0     C49599  11.062   1.512   0.869  0.0382 -0.5721 -0.5554
  360MOL0     C49600  11.135   1.605   0.798 -0.4141 -0.3694 -0.1007
  360MOL0     O49601  11.254   1.647   0.839 -0.3289  0.3750 -0.3462
  360MOL0     C49602  11.338   1.560   0.917  0.3302 -0.0183  0.1647
  360MOL0     C49603  11.476   1.583   0.861 -0.5062  0.2827 -0.2829
  360MOL0     C49604  11.489   1.561   0.702 -0.7237 -0.2138 -0.1743
  360MOL0     C49605  11.641   1.546   0.677 -1.8379  0.0458  0.5575
  360MOL0     C49606  11.728   1.658   0.720  0.4478 -0.2289  0.1990
  360MOL0     C49607  11.776   1.765   0.763 -0.9319  0.0218 -0.0964
  360MOL0     C49608  11.094   1.644   0.669  0.4215  0.5960 -0.2868
  360MOL0     C49609  10.966   1.596   0.613 -0.2373  0.6231 -0.5492
  360MOL0     C49610  10.930   1.630   0.470 -0.3001  1.0139  0.4874
  360MOL0     H49611  10.776   1.099   0.555  1.0645  2.6668  0.7443
  360MOL0     H49612  10.607   0.933   0.536 -0.0413 -0.8413  0.5492
  360MOL0     H49613  10.199   1.052   0.538 -0.4236  0.0122  0.1691
  360MOL0     H49614  10.190   1.045   0.715 -1.1364  2.0143 -2.1539
  360MOL0     H49615  10.177   0.788   0.696 -0.3806 -0.7649 -1.0351
  360MOL0     H49616  10.036   0.868   0.638 -0.8474 -2.8980  1.9562
  360MOL0     H49617  10.135   0.860   0.400 -0.0248  0.3818 -0.1408
  360MOL0     H49618  10.267   0.776   0.453 -0.5373 -1.5415 -3.3563
  360MOL0     H49619  10.124   0.591   0.548 -0.1903  0.1919 -0.0773
  360MOL0     H49620   9.975   0.671   0.498  1.8742  3.5361  0.7315
  360MOL0     H49621  10.201   0.591   0.301 -0.3366  0.0616  0.5661
  360MOL0     H49622  10.040   0.631   0.261 -1.0713  2.9827  2.5087
  360MOL0     H49623  10.092   0.366   0.397  0.9418  0.0461 -0.8678
  360MOL0     H49624   9.939   0.449   0.349 -0.4976  1.6817 -2.7728
  360MOL0     H49625  10.175   0.347   0.198 -0.7516 -0.9715  1.5190
  360MOL0     H49626  10.066   0.456   0.112  2.5018  3.3386  2.7543
  360MOL0     H49627  10.017   0.215   0.084 -0.0608  1.4303  0.4422
  360MOL0     H49628   9.993   0.195   0.254 -0.6483  1.4932  2.6157
  360MOL0     H49629   9.835   0.474   0.009 -0.8399  0.5045  0.3113
  360MOL0     H49630   9.460   0.431   0.066 -0.1375  0.2397 -1.7167
  360MOL0     H49631   9.558   0.513  -0.062  0.9990  0.4437 -0.3342
  360MOL0     H49632   9.647   0.655   0.127  1.0919 -2.3053  0.2527
  360MOL0     H49633   9.487   0.673   0.056  2.5862  3.7722  0.7786
  360MOL0     H49634   9.512   0.507   0.324 -2.1334 -0.6625  0.1531
  360MOL0     H49635   9.541   0.668   0.328 -1.8165 -1.9085  3.6762
  360MOL0     H49636   9.324   0.739   0.242  1.3282  0.9585 -1.3265
  360MOL0     H49637   9.271   0.583   0.190 -1.9456  2.7331 -0.1419
  360MOL0     H49638   9.086   0.717   0.243  0.4953 -0.4628  0.0354
  360MOL0     H49639   8.789   0.862   0.306  2.1784  1.2415  1.1228
  360MOL0     H49640   8.758   0.694   0.251  0.6523  0.5510 -1.5519
  360MOL0     H49641   8.888   0.768   0.182  0.0336 -3.2084 -0.1951
  360MOL0     H49642   8.562   0.952   0.741  4.5632 -0.4738  1.0061
  360MOL0     H49643   8.366   0.935   0.871 -1.0063 -0.4031 -0.8483
  360MOL0     H49644   8.351   0.698   1.141  1.1650  2.1431  0.0028
  360MOL0     H49645   8.289   0.863   1.110  0.1027  0.4727 -1.7251
  360MOL0     H49646   8.147   0.625   1.216  0.7791 -0.0317  2.1803
  360MOL0     H49647   8.172   0.772   1.311 -2.3383  1.5964  0.3455
  360MOL0     H49648   7.988   0.771   1.054 -1.2441  0.3446  1.2432
  360MOL0     H49649   8.032   0.907   1.135  2.5760 -0.1653 -4.6724
  360MOL0     H49650   7.945   0.831   1.353 -3.6254 -1.7293  2.6993
  360MOL0     H49651   7.880   0.687   1.283 -1.2669 -0.2310 -2.0726
  360MOL0     H49652   7.793   0.972   1.222 -1.6986  1.0058  2.1550
  360MOL0     H49653   7.753   0.827   1.114  0.9825 -1.2526 -0.4720
  360MOL0     H49654   7.710   0.876   1.412  1.2528  1.8728 -1.3792
  360MOL0     H49655   7.663   0.732   1.324 -0.9806  0.1012  1.5147
  360MOL0     H49656   7.450   0.826   1.297 -0.7335 -1.0366  1.5419
  360MOL0     H49657   7.534   0.922   1.176  0.7506 -1.3278 -0.1212
  360MOL0     H49658   7.589   1.077   1.358 -0.6418 -0.5436  0.5079
  360MOL0     H49659   7.501   0.974   1.472 -0.3081 -1.0531 -0.6632
  360MOL0     H49660   8.364   0.512   0.864  1.0459 -0.9460  0.6061
  360MOL0     H49661   8.594   0.525   0.749 -0.7930 -0.4148 -1.2098
  360MOL0     H49662   8.949   0.639   0.709  1.6748  1.4681  0.0022
  360MOL0     H49663   9.177   0.602   0.650  1.8660  0.2692 -1.5069
  360MOL0     H49664  10.330   1.203   0.737 -0.2247  2.7258 -0.6499
  360MOL0     H49665  10.505   1.376   0.737 -1.3116  0.0242 -0.2525
  360MOL0     H49666  10.873   1.404   0.884  0.4562  1.5708  2.9504
  360MOL0     H49667  11.092   1.479   0.968 -1.1326  0.2071  0.0788
  360MOL0     H49668  11.322   1.584   1.023  1.6231 -0.9468  0.5972
  360MOL0     H49669  11.316   1.453   0.919 -0.4859  0.1246 -0.6697
  360MOL0     H49670  11.554   1.531   0.917 -0.9867 -0.2012 -0.0617
  360MOL0     H49671  11.505   1.687   0.877  0.5189  0.2714 -1.8025
  360MOL0     H49672  11.445   1.464   0.678 -0.5186 -0.6171  1.0325
  360MOL0     H49673  11.431   1.638   0.649 -0.6225  2.1939  2.9548
  360MOL0     H49674  11.666   1.526   0.573  2.9643  1.5404  1.1539
  360MOL0     H49675  11.677   1.457   0.730 -0.2409 -0.3363 -1.0701
  360MOL0     H49676  11.828   1.852   0.796 -0.6205 -1.5829  4.5179
  360MOL0     H49677  11.147   1.722   0.615 -1.3007  1.7739 -0.3763
  360MOL0     H49678  10.866   1.718   0.456 -1.1562  0.3119 -0.0843
  360MOL0     H49679  11.023   1.656   0.419 -0.3410  0.4581  0.1222
  360MOL0     H49680  10.878   1.552   0.413  1.8925 -0.4336  0.3411
  361MOL0     O49681   6.031   0.946  11.155 -0.1240  0.2903 -0.4758
  361MOL0     C49682   5.974   0.927  11.043  0.4071 -0.1558 -0.7740
  361MOL0     O49683   5.977   0.817  10.962  0.0820 -0.5309  0.9705
  361MOL0     C49684   6.068   0.725  10.980 -0.4157  0.5528  0.9693
  361MOL0     C49685   6.187   0.731  11.044 -0.2502 -0.2826 -0.4504
  361MOL0     C49686   6.281   0.626  11.047  0.3261 -0.2532  0.2399
  361MOL0     C49687   6.248   0.503  10.988  0.1092  0.3471 -0.1697
  361MOL0     O49688   6.339   0.396  10.987  0.3961  0.3433 -0.9168
  361MOL0     C49689   6.457   0.402  11.072  0.7266  0.1431  0.4540
  361MOL0     C49690   6.512   0.256  11.069  0.4134 -0.1048  0.1651
  361MOL0     C49691   6.551   0.200  10.934  0.0618 -0.0714  0.6010
  361MOL0     C49692   6.574   0.050  10.943  0.5693  0.1604  0.7159
  361MOL0     C49693   6.585  -0.006  10.802  0.1948 -0.5471 -0.2130
  361MOL0     C49694   6.723   0.005  10.739 -0.0382  0.1766  0.0531
  361MOL0     C49695   6.735   0.062  10.597 -0.5398  0.8148 -0.0240
  361MOL0     C49696   6.698   0.214  10.587 -1.3749 -0.2058  0.1882
  361MOL0     N49697   6.711   0.268  10.452  0.5345  0.1710 -0.1266
  361MOL0     C49698   6.830   0.298  10.384 -0.1035 -0.3529  0.5267
  361MOL0     C49699   6.790   0.385  10.287 -0.1714 -0.9094 -0.6454
  361MOL0     C49700   6.894   0.469  10.223  0.3593 -0.4259  0.0257
  361MOL0     C49701   6.882   0.481  10.070 -0.6623  0.2797  0.3222
  361MOL0     C49702   6.899   0.344   9.996  0.3586 -0.0695 -0.0140
  361MOL0     C49703   7.037   0.281  10.027  0.1207 -0.7710  0.8072
  361MOL0     O49704   7.128   0.370   9.958  0.6786  0.8524  0.6249
  361MOL0     C49705   7.265   0.377   9.993  0.8196  0.3164  0.3528
  361MOL0     C49706   7.337   0.493   9.979 -0.5132  0.9547  0.0635
  361MOL0     C49707   7.460   0.515  10.037 -0.1225 -0.3390 -0.2625
  361MOL0     C49708   7.499   0.657  10.048  0.1708  0.0859 -0.2845
  361MOL0     C49709   7.519   0.414  10.118 -0.9292 -0.0191 -0.1443
  361MOL0     C49710   7.642   0.430  10.200  0.0910 -0.0155 -0.5717
  361MOL0     O49711   7.710   0.315  10.230  0.7108  0.2162  0.6479
  361MOL0     C49712   7.831   0.337  10.299 -1.1113 -0.0748  0.5013
  361MOL0     C49713   7.936   0.409  10.241 -0.3848  0.8205  0.1181
  361MOL0     C49714   8.057   0.426  10.308  1.3602  0.9996  1.0654
  361MOL0     C49715   8.081   0.357  10.428 -0.4662  0.2585  0.1132
  361MOL0     O49716   8.197   0.363  10.495 -0.2068  0.6815 -0.3544
  361MOL0     C49717   8.241   0.493  10.540  0.5979 -0.9190  0.1854
  361MOL0     C49718   8.379   0.501  10.608 -0.2982  0.2574 -0.0239
  361MOL0     C49719   8.376   0.451  10.759 -0.3074 -0.7444  0.5286
  361MOL0     C49720   8.325   0.304  10.762  0.2033 -0.4188  0.8992
  361MOL0     C49721   8.388   0.226  10.882  1.0111  0.3104  0.4741
  361MOL0     C49722   8.342   0.082  10.897 -0.0538  0.6824  0.5918
  361MOL0     C49723   8.205   0.062  10.963  0.3035  0.1929 -0.0820
  361MOL0     C49724   8.129  -0.058  10.914 -0.8204 -0.0660 -0.0296
  361MOL0    Cl49725   8.081  -0.061  10.743 -0.3007  0.1496 -0.3491
  361MOL0     C49726   7.985   0.268  10.473 -0.3647  0.9740  0.8658
  361MOL0     C49727   7.861   0.260  10.405  0.3817 -0.4390 -0.1230
  361MOL0     O49728   7.669   0.540  10.251  0.4017  0.5854  0.1468
  361MOL0     C49729   7.468   0.290  10.112  1.2776  0.1313  0.5880
  361MOL0     C49730   7.337   0.277  10.061 -0.7208  0.2748 -0.0716
  361MOL0     N49731   6.655   0.397  10.294  0.2029  0.2389  0.3346
  361MOL0     N49732   6.610   0.341  10.403  0.6148  0.0082 -0.3497
  361MOL0     C49733   6.125   0.490  10.918  0.0359  0.9833 -0.7810
  361MOL0     C49734   6.040   0.609  10.919 -0.4820  0.1065  0.2797
  361MOL0     C49735   5.878   1.035  11.006  0.9002  0.4763 -0.0807
  361MOL0     C49736   5.782   1.082  11.102  0.2552  0.0941 -0.1817
  361MOL0     C49737   5.706   1.194  11.067  0.2535 -0.1178 -0.0005
  361MOL0     C49738   5.705   1.264  10.952 -0.5747  0.0536 -0.2830
  361MOL0     O49739   5.626   1.367  10.920  0.0060  0.3952 -0.4506
  361MOL0     C49740   5.490   1.370  10.970 -0.0043 -0.0628  0.1261
  361MOL0     C49741   5.430   1.506  10.929 -0.7875 -0.3524  0.6717
  361MOL0     C49742   5.449   1.538  10.780 -0.6586 -0.8705  0.1616
  361MOL0     C49743   5.354   1.457  10.703 -0.0990  0.5104  0.5612
  361MOL0     C49744   5.386   1.473  10.562  0.4793  0.0932  0.2452
  361MOL0     C49745   5.405   1.493  10.444 -0.3727 -0.3251 -0.6304
  361MOL0     C49746   5.788   1.204  10.856  0.1482  0.7482  0.2442
  361MOL0     C49747   5.876   1.099  10.880  0.5039 -0.4373 -0.1848
  361MOL0     C49748   5.981   1.063  10.786 -0.7173 -0.3484  1.1444
  361MOL0     H49749   6.223   0.825  11.084  0.7102 -1.1456  0.7846
  361MOL0     H49750   6.373   0.641  11.102 -0.2117 -2.1309  1.7414
  361MOL0     H49751   6.444   0.435  11.175 -2.6011 -0.1343  0.2455
  361MOL0     H49752   6.534   0.467  11.030  0.1876 -0.8606 -2.3341
  361MOL0     H49753   6.593   0.245  11.142 -0.8606  0.6047  1.7553
  361MOL0     H49754   6.425   0.203  11.109  1.3770 -1.8967 -0.0010
  361MOL0     H49755   6.474   0.234  10.864 -0.9918  2.5701  2.8506
  361MOL0     H49756   6.644   0.245  10.900 -0.6376  1.0635  0.1181
  361MOL0     H49757   6.672   0.025  10.985  0.4924 -3.3496 -0.8611
  361MOL0     H49758   6.490   0.006  10.997 -2.0777  1.7197 -1.8065
  361MOL0     H49759   6.517   0.050  10.737  0.9785  0.7887  0.0809
  361MOL0     H49760   6.552  -0.110  10.813  2.5178 -1.5619 -1.9118
  361MOL0     H49761   6.783   0.065  10.808 -0.4948  0.7700 -0.0659
  361MOL0     H49762   6.751  -0.101  10.736 -2.4646 -0.5124 -1.6766
  361MOL0     H49763   6.665   0.008  10.532  0.5430 -2.4072  1.2929
  361MOL0     H49764   6.834   0.044  10.556 -0.5194 -1.0583  0.7822
  361MOL0     H49765   6.594   0.219  10.622 -1.6090  0.5532 -0.5828
  361MOL0     H49766   6.750   0.282  10.655 -0.5679  0.1841 -0.8012
  361MOL0     H49767   6.930   0.280  10.420  0.5955 -3.0187 -2.2952
  361MOL0     H49768   6.991   0.435  10.260  0.4523 -0.5835 -0.3663
  361MOL0     H49769   6.874   0.572  10.255 -0.0026 -0.9985  1.7579
  361MOL0     H49770   6.791   0.529  10.033 -1.2732 -0.5608  0.6973
  361MOL0     H49771   6.960   0.549  10.037 -0.7786 -0.9187 -2.7637
  361MOL0     H49772   6.827   0.278  10.044  0.2420  0.2713  0.2847
  361MOL0     H49773   6.875   0.352   9.889  3.7852  0.5514 -0.8660
  361MOL0     H49774   7.038   0.256  10.133 -2.8585  0.9196  1.3503
  361MOL0     H49775   7.048   0.185   9.976  2.5820  0.2001 -0.7022
  361MOL0     H49776   7.276   0.572   9.933 -0.7961  0.5068 -0.3407
  361MOL0     H49777   7.468   0.710   9.957  0.0739 -1.7969 -1.4091
  361MOL0     H49778   7.607   0.669  10.052  0.1212  2.0542 -2.5483
  361MOL0     H49779   7.458   0.692  10.143 -4.4446 -3.5875 -0.5531
  361MOL0     H49780   7.914   0.445  10.141  1.0639 -1.0125 -0.9299
  361MOL0     H49781   8.137   0.486  10.264  1.2431  0.9708  0.8103
  361MOL0     H49782   8.232   0.567  10.461 -0.8946 -0.3220  0.8837
  361MOL0     H49783   8.163   0.529  10.607 -0.4290 -0.6244 -1.1402
  361MOL0     H49784   8.449   0.438  10.552 -1.8012 -1.7406  0.2084
  361MOL0     H49785   8.419   0.602  10.598  1.5759 -0.4061  0.5376
  361MOL0     H49786   8.312   0.516  10.818 -0.9063  1.1188 -2.0272
  361MOL0     H49787   8.476   0.475  10.797  0.0467  4.9560 -2.9180
  361MOL0     H49788   8.337   0.251  10.667 -1.9876  2.7213 -1.3414
  361MOL0     H49789   8.216   0.310  10.772 -0.0281  4.2039 -1.6279
  361MOL0     H49790   8.496   0.217  10.867  1.0967 -1.0766  1.7049
  361MOL0     H49791   8.378   0.280  10.977 -0.6251  1.4244 -0.2859
  361MOL0     H49792   8.424   0.031  10.947 -0.3498 -0.3330  0.0624
  361MOL0     H49793   8.339   0.052  10.791  0.4802  1.3046  0.3928
  361MOL0     H49794   8.134   0.146  10.960 -0.8846 -0.6610  1.8457
  361MOL0     H49795   8.233   0.035  11.066 -0.9324 -1.7301 -0.1919
  361MOL0     H49796   8.039  -0.075  10.975  0.9793 -0.0820  2.8041
  361MOL0     H49797   8.184  -0.150  10.935 -0.9606  0.1977  1.6527
  361MOL0     H49798   8.008   0.202  10.556  3.3367  1.8402  0.6867
  361MOL0     H49799   7.785   0.191  10.440  0.6864 -0.8587 -0.2731
  361MOL0     H49800   7.521   0.201  10.145 -0.0641 -0.8681  0.1197
  361MOL0     H49801   7.290   0.179  10.060  0.2653 -0.2965 -3.2957
  361MOL0     H49802   6.075   0.397  10.890  0.1530  0.9162 -0.7653
  361MOL0     H49803   5.942   0.615  10.871 -0.2136 -0.9034 -0.4314
  361MOL0     H49804   5.770   1.039  11.201  1.4670  0.1714  0.0159
  361MOL0     H49805   5.634   1.226  11.142  1.5126 -0.7726  1.5564
  361MOL0     H49806   5.437   1.285  10.927 -1.1026  0.1817  0.9213
  361MOL0     H49807   5.490   1.366  11.079  0.9899 -0.9558  0.1014
  361MOL0     H49808   5.473   1.592  10.982  0.8777  0.2615 -1.5205
  361MOL0     H49809   5.323   1.517  10.947 -0.7831  1.4224 -0.1947
  361MOL0     H49810   5.418   1.639  10.753  2.1545 -0.3376 -1.3916
  361MOL0     H49811   5.552   1.524  10.748 -1.0466  0.3541 -1.7508
  361MOL0     H49812   5.249   1.487  10.714 -0.7264 -1.2386 -0.2513
  361MOL0     H49813   5.359   1.352  10.733 -1.1198  1.1324  3.1677
  361MOL0     H49814   5.416   1.518  10.340 -4.1904 -1.1789 -1.4186
  361MOL0     H49815   5.803   1.248  10.758 -0.1334  1.5232  0.5412
  361MOL0     H49816   5.958   0.958  10.763 -2.4356  0.7178 -2.8037
  361MOL0     H49817   5.990   1.116  10.691  1.8195 -1.7413  0.5291
  361MOL0     H49818   6.080   1.082  10.827 -0.5950  1.5110  0.0733
  362MOL0     O49819   4.523   3.120   2.217  0.0708 -0.3025 -0.0003
  362MOL0     C49820   4.450   3.210   2.172 -0.0085  0.0526  0.2276
  362MOL0     O49821   4.473   3.294   2.070 -0.7562 -0.0655  0.4006
  362MOL0     C49822   4.599   3.330   2.034 -0.5990 -0.6115 -0.4487
  362MOL0     C49823   4.600   3.374   1.907  0.0448 -0.9781 -0.1011
  362MOL0     C49824   4.711   3.425   1.850  0.7783  0.2356 -0.1291
  362MOL0     C49825   4.833   3.416   1.919  0.4546 -0.0338  1.2611
  362MOL0     O49826   4.954   3.454   1.857 -0.1548 -0.2786  0.3886
  362MOL0     C49827   4.954   3.515   1.724 -0.9841  0.1649 -0.0644
  362MOL0     C49828   5.083   3.583   1.704 -0.5023 -0.0766 -0.3124
  362MOL0     C49829   5.125   3.608   1.554 -0.3867 -0.6027  0.1315
  362MOL0     C49830   5.262   3.663   1.531 -0.6246 -0.5270 -0.3293
  362MOL0     C49831   5.275   3.687   1.375 -0.9951 -0.0143 -0.1358
  362MOL0     C49832   5.253   3.561   1.285 -0.2130 -0.7276 -0.3688
  362MOL0     C49833   5.376   3.464   1.295 -0.3717 -0.3299  0.4417
  362MOL0     C49834   5.371   3.343   1.205 -0.4892 -0.2410  0.0468
  362MOL0     N49835   5.320   3.222   1.272  0.1049 -0.5611  0.1210
  362MOL0     C49836   5.345   3.097   1.210 -0.0195  0.6193  0.1725
  362MOL0     C49837   5.291   2.998   1.282 -0.4174 -0.1803 -0.9725
  362MOL0     C49838   5.301   2.849   1.253  0.0161  0.2751 -0.6972
  362MOL0     C49839   5.401   2.786   1.349 -0.0742 -0.2821  0.8362
  362MOL0     C49840   5.452   2.638   1.308 -0.5922  0.2480  0.7572
  362MOL0     C49841   5.450   2.548   1.434  0.6664  0.1777  0.5496
  362MOL0     O49842   5.535   2.433   1.397  0.5738  0.4727 -0.0605
  362MOL0     C49843   5.555   2.329   1.493 -0.1864 -0.5223  0.6954
  362MOL0     C49844   5.664   2.243   1.491 -0.5290 -0.3137 -0.2476
  362MOL0     C49845   5.689   2.144   1.586 -0.5631 -0.0338  0.1887
  362MOL0     C49846   5.822   2.074   1.591 -0.3780 -0.3141 -0.2934
  362MOL0     C49847   5.589   2.106   1.681  0.6204 -1.3924 -0.0647
  362MOL0     C49848   5.608   2.005   1.783 -0.2571  1.4116 -0.8206
  362MOL0     O49849   5.583   2.051   1.909 -0.0299  0.8491 -0.3851
  362MOL0     C49850   5.599   1.961   2.018  0.2674  0.7657 -0.5075
  362MOL0     C49851   5.493   1.883   2.066 -0.9143 -0.9761  0.1426
  362MOL0     C49852   5.501   1.808   2.184 -0.3100 -0.6435 -0.7782
  362MOL0     C49853   5.630   1.794   2.240 -0.0693  0.3688  1.0561
  362MOL0     O49854   5.656   1.719   2.354 -0.3392 -0.0656 -0.1716
  362MOL0     C49855   5.549   1.645   2.411 -0.1593  0.1686 -0.5425
  362MOL0     C49856   5.590   1.591   2.550 -0.1573 -0.1705  0.1401
  362MOL0     C49857   5.592   1.695   2.651  0.5407  0.5199  0.7704
  362MOL0     C49858   5.448   1.731   2.706 -0.1220  0.1967 -0.5421
  362MOL0     C49859   5.456   1.829   2.824 -0.0042  0.5235 -0.2640
  362MOL0     C49860   5.362   1.940   2.794  0.3024 -0.6053 -0.4376
  362MOL0     C49861   5.205   1.906   2.798  0.6764 -0.6997  0.8036
  362MOL0     C49862   5.143   2.036   2.736  0.3412  0.9413 -0.8040
  362MOL0    Cl49863   4.965   2.021   2.725 -0.0294 -0.1480  0.0820
  362MOL0     C49864   5.733   1.861   2.184 -1.4262  0.2890 -0.6480
  362MOL0     C49865   5.720   1.950   2.075  0.4386  0.3672 -0.2734
  362MOL0     O49866   5.660   1.896   1.754  0.4956 -0.2108  0.2355
  362MOL0     C49867   5.470   2.181   1.673  0.5932  0.0471  0.4046
  362MOL0     C49868   5.454   2.288   1.582 -0.0646 -1.0554  0.2602
  362MOL0     N49869   5.256   3.057   1.401  0.2781 -0.6833 -0.4914
  362MOL0     N49870   5.266   3.192   1.387 -1.2352  0.1644  0.0468
  362MOL0     C49871   4.832   3.392   2.055  0.5752 -0.1949  1.0498
  362MOL0     C49872   4.718   3.339   2.115 -0.6099  1.7823 -0.5426
  362MOL0     C49873   4.303   3.209   2.228 -0.9031  0.2143  1.6747
  362MOL0     C49874   4.208   3.302   2.173  0.2282  0.3162 -0.5510
  362MOL0     C49875   4.082   3.314   2.228 -1.2846  0.0955 -0.5068
  362MOL0     C49876   4.031   3.221   2.311  0.7198 -0.0773 -0.5179
  362MOL0     O49877   3.898   3.248   2.334 -0.0019  0.3536  0.2997
  362MOL0     C49878   3.820   3.135   2.378  0.1975  0.7847 -0.1634
  362MOL0     C49879   3.672   3.153   2.342 -0.5651 -0.7155  0.1151
  362MOL0     C49880   3.634   3.098   2.200 -0.0013 -0.1292 -0.1859
  362MOL0     C49881   3.480   3.088   2.189 -0.8687 -0.3135 -0.1392
  362MOL0     C49882   3.437   3.024   2.060  0.1194  0.7407  0.4551
  362MOL0     C49883   3.410   2.974   1.950  0.8513 -0.8615  0.6412
  362MOL0     C49884   4.115   3.120   2.356  0.1935  0.0647  1.2441
  362MOL0     C49885   4.248   3.109   2.317 -0.1270  1.2148  0.0358
  362MOL0     C49886   4.328   3.005   2.386  0.4510 -0.1099 -0.5475
  362MOL0     H49887   4.508   3.365   1.851 -0.0561 -1.0040  0.0685
  362MOL0     H49888   4.703   3.455   1.746  0.0871  0.7564  0.0664
  362MOL0     H49889   4.864   3.576   1.710 -0.9419  0.0638 -0.8404
  362MOL0     H49890   4.947   3.444   1.641  0.2252  0.5547 -0.5236
  362MOL0     H49891   5.083   3.675   1.762  0.5576 -1.5399  2.1822
  362MOL0     H49892   5.158   3.519   1.751  0.0908  0.6832 -0.2265
  362MOL0     H49893   5.123   3.513   1.499  3.4041  0.2762 -1.8224
  362MOL0     H49894   5.058   3.683   1.512  0.7614  1.4454  1.8012
  362MOL0     H49895   5.272   3.763   1.574 -0.6048 -0.2727 -0.9185
  362MOL0     H49896   5.334   3.598   1.582  0.4292  2.8372  2.8070
  362MOL0     H49897   5.375   3.729   1.357 -1.1773  0.2609 -0.5033
  362MOL0     H49898   5.202   3.765   1.353 -0.0259  0.2513 -2.7267
  362MOL0     H49899   5.158   3.513   1.309 -0.1483 -0.6257  0.1080
  362MOL0     H49900   5.243   3.602   1.184  0.7032  0.9715  0.1898
  362MOL0     H49901   5.411   3.444   1.397 -1.3807 -0.2777  0.8051
  362MOL0     H49902   5.459   3.519   1.248  1.5241 -0.7997  3.0327
  362MOL0     H49903   5.313   3.365   1.115  2.9832 -0.5341 -2.4663
  362MOL0     H49904   5.473   3.312   1.179 -1.0265  1.0017 -4.1756
  362MOL0     H49905   5.399   3.071   1.120 -1.1951  0.9247 -0.6497
  362MOL0     H49906   5.345   2.829   1.155  1.2134 -0.4693 -0.0252
  362MOL0     H49907   5.204   2.799   1.256 -2.0452  3.8548 -1.4952
  362MOL0     H49908   5.486   2.855   1.354 -0.6227  0.6444 -1.3688
  362MOL0     H49909   5.357   2.781   1.449 -0.1637 -0.8132  0.7734
  362MOL0     H49910   5.381   2.606   1.231 -0.5075  2.7062 -0.4237
  362MOL0     H49911   5.555   2.642   1.272 -0.4364 -3.4075  0.3882
  362MOL0     H49912   5.491   2.588   1.527 -1.5326  0.3639  1.5143
  362MOL0     H49913   5.349   2.515   1.458  0.2409  0.5956 -0.5546
  362MOL0     H49914   5.736   2.268   1.414 -1.2913  4.6461  0.3178
  362MOL0     H49915   5.857   2.093   1.693 -1.5677  2.0165 -0.2562
  362MOL0     H49916   5.896   2.114   1.520  1.9123  0.1339  2.1997
  362MOL0     H49917   5.799   1.968   1.573 -1.8929  0.3251 -2.6000
  362MOL0     H49918   5.391   1.910   2.041 -1.7204 -0.8900  3.1012
  362MOL0     H49919   5.410   1.778   2.233  2.2590 -0.5632  4.8189
  362MOL0     H49920   5.459   1.704   2.429 -0.0910 -0.0113  0.4471
  362MOL0     H49921   5.528   1.562   2.342 -0.3619 -0.9176  0.7716
  362MOL0     H49922   5.528   1.508   2.585  1.7083 -2.1045 -0.8475
  362MOL0     H49923   5.687   1.540   2.538 -1.2625 -2.1374 -1.1330
  362MOL0     H49924   5.628   1.788   2.605 -2.0879  0.3987 -1.8550
  362MOL0     H49925   5.650   1.658   2.736 -0.4654  0.8470  1.6178
  362MOL0     H49926   5.404   1.636   2.737  1.9030 -0.3192  0.9757
  362MOL0     H49927   5.397   1.779   2.622  0.5918  2.0397  0.0347
  362MOL0     H49928   5.429   1.783   2.919 -0.0279 -1.8500 -1.3339
  362MOL0     H49929   5.560   1.865   2.828  0.8669 -1.7923 -0.2690
  362MOL0     H49930   5.377   1.973   2.691 -3.3779  0.9964 -0.5998
  362MOL0     H49931   5.387   2.018   2.866 -0.3468  0.0641 -0.9184
  362MOL0     H49932   5.161   1.887   2.897 -2.3554 -2.3909 -0.7344
  362MOL0     H49933   5.190   1.824   2.728  1.2876  0.1106 -0.3041
  362MOL0     H49934   5.168   2.038   2.630 -3.6732  0.9113 -1.9126
  362MOL0     H49935   5.172   2.129   2.786 -0.4248 -0.2682  2.1322
  362MOL0     H49936   5.824   1.858   2.243 -1.8178 -1.0957 -0.0688
  362MOL0     H49937   5.807   2.003   2.038  0.0073 -0.4284 -2.5817
  362MOL0     H49938   5.389   2.151   1.739  2.0482  0.7938  2.6970
  362MOL0     H49939   5.366   2.350   1.592  1.3109  1.8815 -3.2313
  362MOL0     H49940   4.914   3.413   2.122  0.0141  1.9034  1.1552
  362MOL0     H49941   4.711   3.312   2.220 -2.1674  1.4722 -0.7059
  362MOL0     H49942   4.242   3.376   2.101 -0.4264 -0.3916 -1.6189
  362MOL0     H49943   4.029   3.400   2.189  1.1872  2.2676  0.5313
  362MOL0     H49944   3.866   3.043   2.342  2.2210  1.6231  0.1589
  362MOL0     H49945   3.828   3.134   2.487  2.0399 -0.4100 -0.2681
  362MOL0     H49946   3.646   3.258   2.355  0.4497 -0.3583 -0.5882
  362MOL0     H49947   3.609   3.095   2.410  0.4636 -2.1255 -0.0823
  362MOL0     H49948   3.665   3.174   2.127  1.6428 -1.0848 -0.5517
  362MOL0     H49949   3.683   3.003   2.174  1.7796  0.9206 -0.8599
  362MOL0     H49950   3.431   3.185   2.206 -3.2027 -1.2167 -1.3430
  362MOL0     H49951   3.443   3.023   2.269  0.6398  2.2450  2.9011
  362MOL0     H49952   3.380   2.949   1.851 -1.6665 -0.6499  1.2671
  362MOL0     H49953   4.076   3.049   2.429 -1.0516 -0.9875 -0.3605
  362MOL0     H49954   4.392   2.944   2.321 -1.1071 -1.4109 -0.9128
  362MOL0     H49955   4.384   3.041   2.473  0.7515 -0.5334 -0.5628
  362MOL0     H49956   4.258   2.928   2.418  2.0746 -2.0868 -1.5236
  363MOL0     O49957   0.382   2.641   4.842 -0.2811  0.9301 -0.1439
  363MOL0     C49958   0.314   2.539   4.830 -0.5855 -0.7833  0.4211
  363MOL0     O49959   0.332   2.434   4.904  0.4823 -0.2835 -0.1739
  363MOL0     C49960   0.430   2.441   4.995  0.5055 -0.4682  0.2505
  363MOL0     C49961   0.507   2.323   5.002 -0.0614  0.7450 -0.1485
  363MOL0     C49962   0.586   2.302   5.112 -0.0392  0.0636  0.4014
  363MOL0     C49963   0.603   2.393   5.217  0.2488  0.1220 -0.6238
  363MOL0     O49964   0.699   2.374   5.315 -0.1338 -0.0523 -0.5732
  363MOL0     C49965   0.820   2.296   5.306 -0.7772  0.0675  0.9282
  363MOL0     C49966   0.877   2.286   5.446  0.2389 -0.0011 -0.7566
  363MOL0     C49967   1.016   2.222   5.447  0.1495  0.0244  0.4600
  363MOL0     C49968   1.057   2.186   5.588  0.3285  0.9289  0.5253
  363MOL0     C49969   1.206   2.136   5.580  0.3916 -0.0295 -0.5107
  363MOL0     C49970   1.240   2.052   5.705  0.0901  0.6811 -0.7485
  363MOL0     C49971   1.365   1.967   5.719  1.4146  0.6536  0.9243
  363MOL0     C49972   1.357   1.838   5.626 -0.3590 -0.4537 -0.3183
  363MOL0     N49973   1.489   1.766   5.633 -0.4576 -0.5234 -0.0921
  363MOL0     C49974   1.534   1.688   5.733  0.3342  0.1270 -0.1277
  363MOL0     C49975   1.659   1.655   5.703  1.0213  0.8879  1.0505
  363MOL0     C49976   1.758   1.571   5.772  0.7510 -0.2919 -1.1121
  363MOL0     C49977   1.701   1.444   5.817 -0.7975 -0.6812 -0.4857
  363MOL0     C49978   1.806   1.368   5.910 -0.4426 -0.1717 -0.2474
  363MOL0     C49979   1.720   1.243   5.952 -0.7857 -0.3336  0.3779
  363MOL0     O49980   1.806   1.149   6.022  0.0886 -0.7311 -0.6090
  363MOL0     C49981   1.905   1.068   5.960 -0.6225  0.4009 -0.7571
  363MOL0     C49982   1.996   0.989   6.034  0.4876  0.2182  0.5239
  363MOL0     C49983   2.098   0.919   5.982  0.3455  0.8128  0.2309
  363MOL0     C49984   2.182   0.831   6.075 -0.0374  0.4993  0.0666
  363MOL0     C49985   2.125   0.923   5.839  0.9147  0.2614 -0.2664
  363MOL0     C49986   2.224   0.842   5.770 -0.2087 -0.1135 -0.9432
  363MOL0     O49987   2.273   0.894   5.667 -0.2780  0.1469  0.5693
  363MOL0     C49988   2.369   0.823   5.590 -0.1253 -0.5241  0.7562
  363MOL0     C49989   2.480   0.893   5.545  0.2710  1.2267 -1.2984
  363MOL0     C49990   2.581   0.820   5.470 -0.8045 -0.4326  0.2888
  363MOL0     C49991   2.547   0.688   5.418  0.5613 -0.9770 -0.2390
  363MOL0     O49992   2.634   0.635   5.323 -0.1604  0.4280  0.2862
  363MOL0     C49993   2.682   0.722   5.214 -0.0015  0.1625  0.3115
  363MOL0     C49994   2.770   0.649   5.115 -0.7725  0.6291  0.6630
  363MOL0     C49995   2.905   0.604   5.171 -0.2006  0.4553  0.2632
  363MOL0     C49996   2.959   0.481   5.101 -0.2824  0.4624  0.8805
  363MOL0     C49997   3.010   0.510   4.954 -0.6585 -0.5234  0.2513
  363MOL0     C49998   3.106   0.397   4.904  0.4934  0.3988  1.0750
  363MOL0     C49999   3.137   0.427   4.758 -0.3106 -0.5650  0.6005
  363MOL0     C50000   3.242   0.330   4.704  0.5165  0.2894  0.6308
  363MOL0    Cl50001   3.237   0.305   4.516  0.1201 -0.1413 -0.0029
  363MOL0     C50002   2.434   0.627   5.468  0.8923  0.2452  0.2114
  363MOL0     C50003   2.337   0.696   5.550 -0.0031  0.1334  0.4962
  363MOL0     O50004   2.250   0.729   5.807 -0.3547 -0.4010  0.4272
  363MOL0     C50005   2.029   1.001   5.758  0.2993 -0.5707 -0.2381
  363MOL0     C50006   1.921   1.069   5.820  0.2717 -0.2683 -0.2215
  363MOL0     N50007   1.689   1.700   5.578  0.9117  0.2382  0.0218
  363MOL0     N50008   1.586   1.770   5.537  0.1973  0.8711  0.4587
  363MOL0     C50009   0.534   2.513   5.203  0.3634 -0.8363  0.2859
  363MOL0     C50010   0.442   2.535   5.095  0.1483  0.4758 -0.0043
  363MOL0     C50011   0.200   2.541   4.734 -1.3820 -0.0783 -0.5447
  363MOL0     C50012   0.110   2.433   4.730 -0.2096  1.1328  1.0233
  363MOL0     C50013  -0.005   2.436   4.652  0.4044  0.2924  0.2120
  363MOL0     C50014  -0.045   2.547   4.583  1.1043 -0.6150 -0.1324
  363MOL0     O50015  -0.168   2.563   4.524  0.2002 -0.3777  0.1553
  363MOL0     C50016  -0.274   2.477   4.561  0.8059  1.8868 -0.3685
  363MOL0     C50017  -0.408   2.512   4.503  0.5198 -0.3928  0.7917
  363MOL0     C50018  -0.398   2.514   4.350 -0.5387  0.0558  0.2168
  363MOL0     C50019  -0.538   2.509   4.265 -0.5655  0.4523 -0.0248
  363MOL0     C50020  -0.632   2.395   4.292  0.4681 -0.0356  0.1890
  363MOL0     C50021  -0.706   2.303   4.313  0.2198 -0.4246  0.1912
  363MOL0     C50022   0.049   2.655   4.579 -0.3583  0.1956  0.4308
  363MOL0     C50023   0.168   2.654   4.651 -0.7735  0.5805  0.5871
  363MOL0     C50024   0.271   2.769   4.622 -0.4587  0.4846  0.0456
  363MOL0     H50025   0.495   2.247   4.925 -3.9955  0.6028  0.3551
  363MOL0     H50026   0.640   2.208   5.102  1.7034  1.0806 -0.3337
  363MOL0     H50027   0.890   2.354   5.245 -0.5876 -0.3512  0.7512
  363MOL0     H50028   0.817   2.195   5.265 -0.6203  1.3545 -2.6423
  363MOL0     H50029   0.882   2.391   5.477  2.2436 -0.7646  1.7699
  363MOL0     H50030   0.811   2.228   5.510 -0.2972 -0.7083 -1.9046
  363MOL0     H50031   1.026   2.141   5.374  0.7006  2.7962 -2.8019
  363MOL0     H50032   1.085   2.291   5.397 -0.7180  1.2948  0.9616
  363MOL0     H50033   1.055   2.271   5.657  5.2383  2.7516 -1.1707
  363MOL0     H50034   0.988   2.108   5.621 -2.2570  2.1964 -1.4416
  363MOL0     H50035   1.274   2.222   5.579  0.8606 -0.3114  1.3791
  363MOL0     H50036   1.225   2.071   5.495 -0.4414  0.7938 -1.3442
  363MOL0     H50037   1.242   2.114   5.795 -2.0386 -0.6602  0.3043
  363MOL0     H50038   1.158   1.981   5.716  2.4597 -2.5078 -2.0670
  363MOL0     H50039   1.375   1.927   5.820  0.1572 -2.7441 -0.1562
  363MOL0     H50040   1.450   2.023   5.677 -0.6034  1.6944 -2.1383
  363MOL0     H50041   1.283   1.770   5.669 -1.1288  1.4878  1.6320
  363MOL0     H50042   1.319   1.859   5.525 -4.0843  0.3129  1.0532
  363MOL0     H50043   1.483   1.669   5.827  0.8841 -1.0329 -0.0411
  363MOL0     H50044   1.776   1.634   5.860  0.2738  0.4057 -1.5069
  363MOL0     H50045   1.850   1.553   5.716  0.8790  0.1376 -1.0486
  363MOL0     H50046   1.609   1.452   5.876 -0.9489 -1.1799 -0.6469
  363MOL0     H50047   1.685   1.378   5.731 -0.1587 -0.8100 -0.5134
  363MOL0     H50048   1.903   1.351   5.865  0.2096  1.3260  0.5043
  363MOL0     H50049   1.825   1.437   5.993 -0.4814 -2.9678  2.2413
  363MOL0     H50050   1.641   1.278   6.018 -0.8582  1.3757 -0.5568
  363MOL0     H50051   1.687   1.190   5.862  1.3008 -1.8328  0.3945
  363MOL0     H50052   1.991   0.995   6.142 -0.7960  3.5757  0.3724
  363MOL0     H50053   2.287   0.817   6.048  0.4464 -0.3773  2.2122
  363MOL0     H50054   2.141   0.730   6.075  2.7539 -0.7327  0.3923
  363MOL0     H50055   2.175   0.849   6.182 -2.9016 -0.3124  0.1027
  363MOL0     H50056   2.502   0.992   5.586  0.8536 -0.2479  2.3469
  363MOL0     H50057   2.674   0.866   5.439 -2.6656  1.7691 -2.5756
  363MOL0     H50058   2.593   0.769   5.170 -0.4025  1.7380  2.6170
  363MOL0     H50059   2.743   0.804   5.254 -0.0892  0.8319 -0.8838
  363MOL0     H50060   2.713   0.562   5.083  2.6257 -2.8847  3.2380
  363MOL0     H50061   2.795   0.707   5.025  1.8514 -2.1307 -0.5340
  363MOL0     H50062   2.887   0.583   5.277 -2.0797  0.9664  0.0801
  363MOL0     H50063   2.973   0.688   5.155 -2.7086  2.1531 -2.5687
  363MOL0     H50064   2.890   0.397   5.114  0.3857  0.0362  1.8757
  363MOL0     H50065   3.047   0.440   5.153 -1.3637 -0.9675  1.6739
  363MOL0     H50066   2.926   0.526   4.886 -1.3486 -0.6341  1.0717
  363MOL0     H50067   3.069   0.600   4.971 -1.2030 -0.2655  0.7817
  363MOL0     H50068   3.066   0.297   4.921  0.8709  0.1753  0.6710
  363MOL0     H50069   3.201   0.400   4.957  0.1575  0.4920  1.6791
  363MOL0     H50070   3.173   0.530   4.748 -1.2522 -0.1213  1.5483
  363MOL0     H50071   3.053   0.407   4.692  0.0857  2.8681 -1.2026
  363MOL0     H50072   3.258   0.230   4.745  0.5197 -1.2156 -2.6949
  363MOL0     H50073   3.335   0.381   4.727  0.8933  0.0554 -0.3154
  363MOL0     H50074   2.410   0.523   5.448 -2.9675  0.4668  2.6598
  363MOL0     H50075   2.246   0.649   5.586  1.5971 -3.3118  0.3851
  363MOL0     H50076   2.023   1.008   5.650 -1.1088 -0.8433 -0.1994
  363MOL0     H50077   1.857   1.130   5.756 -0.7338 -0.3424  0.6776
  363MOL0     H50078   0.561   2.594   5.270  1.2929 -1.7393  1.0574
  363MOL0     H50079   0.370   2.616   5.087 -1.2453 -0.7482 -0.3292
  363MOL0     H50080   0.117   2.349   4.798  4.3449  0.7967  0.4422
  363MOL0     H50081  -0.059   2.343   4.654  2.8469 -1.2432 -0.7391
  363MOL0     H50082  -0.250   2.385   4.507  0.2137  0.9692  0.8843
  363MOL0     H50083  -0.275   2.443   4.665 -1.3419  0.6076 -0.7632
  363MOL0     H50084  -0.440   2.608   4.544 -0.4231  0.4318 -1.6540
  363MOL0     H50085  -0.487   2.442   4.532  1.0430 -0.8852  1.0609
  363MOL0     H50086  -0.330   2.599   4.336  0.4560 -0.1794  3.0467
  363MOL0     H50087  -0.349   2.423   4.314 -2.4183 -0.7386 -0.4712
  363MOL0     H50088  -0.521   2.511   4.157 -0.3243 -1.6632 -0.0745
  363MOL0     H50089  -0.604   2.585   4.307 -3.8186 -1.6846 -0.9382
  363MOL0     H50090  -0.772   2.222   4.337 -1.2809  0.7394  0.1658
  363MOL0     H50091   0.005   2.739   4.527 -2.2694 -1.1437 -0.2164
  363MOL0     H50092   0.225   2.828   4.542  1.5256 -0.1648 -1.6454
  363MOL0     H50093   0.286   2.832   4.710 -0.2962 -3.1237  2.8827
  363MOL0     H50094   0.360   2.731   4.571 -1.4111 -1.0884 -0.5575
  364MOL0     O50095   2.915   3.983   4.976 -0.4099 -0.3514 -0.0933
  364MOL0     C50096   2.954   3.897   4.899 -0.5862 -0.1858  2.0818
  364MOL0     O50097   3.080   3.887   4.845  0.2304 -0.5084 -0.6698
  364MOL0     C50098   3.165   3.974   4.911 -0.3733 -0.1971  0.6869
  364MOL0     C50099   3.235   3.936   5.026  0.2390 -0.0379 -0.3906
  364MOL0     C50100   3.319   4.034   5.090 -0.2962  0.0244 -0.5329
  364MOL0     C50101   3.336   4.163   5.044 -0.7293 -0.4560  0.4008
  364MOL0     O50102   3.429   4.237   5.113  0.5495  0.3564 -0.0210
  364MOL0     C50103   3.480   4.351   5.052 -0.1372 -1.5063  0.0071
  364MOL0     C50104   3.375   4.463   5.081  0.2616  0.3551  0.3785
  364MOL0     C50105   3.369   4.474   5.232 -0.7708  0.0277 -0.1585
  364MOL0     C50106   3.329   4.609   5.293 -0.0274 -0.4081  0.2932
  364MOL0     C50107   3.432   4.715   5.345 -0.1924  0.0498 -0.0484
  364MOL0     C50108   3.370   4.852   5.385 -0.9124 -0.1406 -0.0620
  364MOL0     C50109   3.481   4.973   5.376 -0.5690  0.8111 -0.3127
  364MOL0     C50110   3.519   4.990   5.232 -0.1711 -0.0662  0.9151
  364MOL0     N50111   3.616   5.096   5.223 -0.5738  0.9971 -0.1291
  364MOL0     C50112   3.755   5.081   5.220 -0.8497  0.4081 -0.2531
  364MOL0     C50113   3.804   5.199   5.184  0.2479 -0.0405 -0.7059
  364MOL0     C50114   3.946   5.238   5.150 -0.4706 -0.5109  0.0702
  364MOL0     C50115   3.959   5.293   5.003  0.0951  0.2655 -0.1193
  364MOL0     C50116   4.091   5.356   4.975 -0.8966 -1.1874 -0.0211
  364MOL0     C50117   4.083   5.432   4.845 -0.5301  0.9212  0.5484
  364MOL0     O50118   4.217   5.480   4.815 -0.6029  0.1931 -0.1161
  364MOL0     C50119   4.271   5.592   4.868  0.4470 -0.6685 -0.7174
  364MOL0     C50120   4.194   5.686   4.939 -0.0194  0.6490  0.0063
  364MOL0     C50121   4.256   5.794   5.005 -0.1142 -1.1618 -0.3596
  364MOL0     C50122   4.159   5.879   5.085  0.0600  0.7095  0.4583
  364MOL0     C50123   4.395   5.820   4.996 -0.7716  0.6125 -0.1301
  364MOL0     C50124   4.465   5.936   5.059 -0.0085  0.1619  0.7462
  364MOL0     O50125   4.592   5.912   5.114 -0.3459 -0.0307 -0.2982
  364MOL0     C50126   4.686   6.016   5.125 -0.3234  0.0165 -0.1906
  364MOL0     C50127   4.675   6.138   5.059 -0.8626 -0.3573 -0.3142
  364MOL0     C50128   4.754   6.246   5.112 -0.2101  0.7784  0.3124
  364MOL0     C50129   4.850   6.229   5.209  0.5438 -0.1607  0.4326
  364MOL0     O50130   4.913   6.346   5.248 -0.5464  0.1346 -0.3218
  364MOL0     C50131   4.976   6.341   5.378 -0.1137  0.3697 -0.1786
  364MOL0     C50132   5.032   6.475   5.442 -0.8379 -0.4534  1.1917
  364MOL0     C50133   4.923   6.583   5.445  0.2400 -0.7168  0.0153
  364MOL0     C50134   4.985   6.721   5.487 -0.3067  0.4981  0.2379
  364MOL0     C50135   4.877   6.829   5.461 -0.2518  0.1197 -0.0976
  364MOL0     C50136   4.931   6.971   5.497 -0.2759 -0.4900  1.1894
  364MOL0     C50137   4.819   7.072   5.466  0.2197 -0.0369  0.4672
  364MOL0     C50138   4.860   7.214   5.518 -0.6126  0.1911  0.1352
  364MOL0    Cl50139   4.799   7.349   5.415 -0.2139 -0.3147 -0.7588
  364MOL0     C50140   4.884   6.093   5.254 -0.6188 -0.5319 -0.4044
  364MOL0     C50141   4.796   5.990   5.207 -0.1144  0.1866 -0.0723
  364MOL0     O50142   4.400   6.038   5.060  0.1015 -0.1033  0.0719
  364MOL0     C50143   4.467   5.719   4.927  0.1606 -0.6045  0.7573
  364MOL0     C50144   4.407   5.618   4.848 -0.0361  0.9252 -0.8300
  364MOL0     N50145   3.697   5.292   5.188  0.5701 -0.5212 -0.4635
  364MOL0     N50146   3.586   5.229   5.207 -0.3849 -0.3976  0.1711
  364MOL0     C50147   3.273   4.193   4.927  0.0738  0.1299  0.0122
  364MOL0     C50148   3.185   4.102   4.861  0.6482 -0.4211  0.7081
  364MOL0     C50149   2.855   3.796   4.837 -0.4482  0.4100 -0.1630
  364MOL0     C50150   2.918   3.681   4.794 -0.2912  0.0187  0.1676
  364MOL0     C50151   2.848   3.579   4.733 -0.7688  0.5418  0.4358
  364MOL0     C50152   2.716   3.588   4.702 -0.6043  0.0453 -0.6711
  364MOL0     O50153   2.643   3.509   4.629 -0.1206  0.0973 -0.8990
  364MOL0     C50154   2.605   3.382   4.687  0.0807  0.2997  0.2163
  364MOL0     C50155   2.475   3.396   4.773 -0.1490  0.3401 -1.1050
  364MOL0     C50156   2.413   3.261   4.812 -0.5842 -0.2052  0.6746
  364MOL0     C50157   2.387   3.249   4.959 -0.5477  0.6648  0.7790
  364MOL0     C50158   2.259   3.176   4.972  0.4254 -0.2007 -0.2566
  364MOL0     C50159   2.157   3.107   4.990 -0.3252  0.3372 -0.3144
  364MOL0     C50160   2.654   3.699   4.756 -0.6860 -0.6286 -0.0872
  364MOL0     C50161   2.717   3.805   4.826  0.2855  1.0848  0.2530
  364MOL0     C50162   2.629   3.908   4.884  0.1897  0.5015  0.2959
  364MOL0     H50163   3.205   3.846   5.079 -0.2162 -0.1526 -0.8378
  364MOL0     H50164   3.384   4.012   5.174 -0.0667  1.2283 -0.3801
  364MOL0     H50165   3.487   4.340   4.943 -2.5254  1.0745 -0.5308
  364MOL0     H50166   3.575   4.375   5.100 -1.5221 -2.6230  3.6679
  364MOL0     H50167   3.417   4.555   5.038  0.0337 -0.1604 -1.0038
  364MOL0     H50168   3.281   4.446   5.028  1.8923  0.6632 -2.8942
  364MOL0     H50169   3.301   4.400   5.276  0.9241 -1.8571 -0.5588
  364MOL0     H50170   3.464   4.457   5.282 -0.2604  1.1728 -0.6897
  364MOL0     H50171   3.263   4.650   5.216  0.3746 -1.9428 -0.9154
  364MOL0     H50172   3.264   4.595   5.380  0.2184 -3.0470  0.1107
  364MOL0     H50173   3.515   4.724   5.275  0.6746 -2.7294  0.4780
  364MOL0     H50174   3.480   4.670   5.433 -2.7209 -1.2592  0.7401
  364MOL0     H50175   3.284   4.878   5.323  0.3551  2.0598 -1.0255
  364MOL0     H50176   3.337   4.851   5.489 -1.6990 -0.8820 -0.3128
  364MOL0     H50177   3.571   4.965   5.437 -0.0099  1.1343 -1.0706
  364MOL0     H50178   3.434   5.067   5.407  1.1163  2.4555 -2.4124
  364MOL0     H50179   3.550   4.891   5.197  1.4718  0.8629 -0.4374
  364MOL0     H50180   3.435   5.027   5.173  1.7214 -1.3688 -2.9884
  364MOL0     H50181   3.810   4.988   5.229  0.3034  0.9719 -1.1716
  364MOL0     H50182   4.018   5.157   5.164  0.8697  0.7835  0.9987
  364MOL0     H50183   3.974   5.320   5.217  0.8720 -0.3819 -0.6132
  364MOL0     H50184   3.944   5.208   4.936 -1.2888 -1.3366  2.0711
  364MOL0     H50185   3.876   5.361   4.985 -1.1056 -1.1745 -0.2063
  364MOL0     H50186   4.119   5.429   5.051 -1.7980 -1.0976  0.2373
  364MOL0     H50187   4.170   5.280   4.965  0.6030  0.2694  0.2910
  364MOL0     H50188   4.056   5.362   4.765  0.5563 -0.3462  1.2547
  364MOL0     H50189   4.008   5.512   4.837 -1.2566  0.2840  0.8667
  364MOL0     H50190   4.087   5.671   4.949 -0.0074 -0.2024 -0.9228
  364MOL0     H50191   4.077   5.813   5.112 -0.8527  2.1717  1.3875
  364MOL0     H50192   4.133   5.970   5.029  0.7019  1.9581  2.1063
  364MOL0     H50193   4.209   5.893   5.181  0.5969 -3.7631  1.0280
  364MOL0     H50194   4.600   6.162   4.984 -0.4884 -2.7381 -1.5819
  364MOL0     H50195   4.739   6.345   5.070  0.3876 -0.2078 -2.3845
  364MOL0     H50196   4.914   6.297   5.456  0.6640  1.0564  0.8572
  364MOL0     H50197   5.067   6.284   5.357  0.5108  1.6782 -1.1517
  364MOL0     H50198   5.074   6.455   5.540 -0.2228 -0.9687  0.8286
  364MOL0     H50199   5.099   6.507   5.361 -4.7426 -2.3973 -3.3711
  364MOL0     H50200   4.852   6.559   5.524 -0.0496  4.0366  1.5054
  364MOL0     H50201   4.865   6.591   5.353 -0.8370  0.9716  0.7934
  364MOL0     H50202   5.062   6.744   5.414  1.2400 -2.2532  0.8443
  364MOL0     H50203   5.029   6.720   5.588  3.8925  3.2369 -1.3036
  364MOL0     H50204   4.845   6.828   5.356 -0.6876 -2.3550 -0.0004
  364MOL0     H50205   4.792   6.802   5.524 -3.0002 -0.4209 -3.7209
  364MOL0     H50206   5.019   6.998   5.438 -0.3894 -1.6759  0.4558
  364MOL0     H50207   4.978   6.955   5.595  2.5630 -2.3635 -0.3182
  364MOL0     H50208   4.724   7.037   5.510  0.7883 -0.1768  1.6281
  364MOL0     H50209   4.811   7.079   5.357 -1.6779  0.5568  0.6011
  364MOL0     H50210   4.969   7.209   5.524 -0.6220 -0.5669 -0.1760
  364MOL0     H50211   4.824   7.243   5.617 -2.4662 -1.3632 -0.0189
  364MOL0     H50212   4.954   6.074   5.334  0.5624  0.6270 -1.1134
  364MOL0     H50213   4.806   5.891   5.252  2.1748  0.7743  0.8319
  364MOL0     H50214   4.574   5.728   4.914  0.5576 -1.9440  2.5960
  364MOL0     H50215   4.473   5.546   4.802  2.2562  3.2808 -1.4286
  364MOL0     H50216   3.273   4.286   4.873  1.2054  0.2407  0.1751
  364MOL0     H50217   3.132   4.142   4.775  0.2016  1.3536  1.7731
  364MOL0     H50218   3.023   3.671   4.817 -0.7627 -0.9401  2.1030
  364MOL0     H50219   2.917   3.499   4.707  0.9319  2.3220 -0.8206
  364MOL0     H50220   2.589   3.313   4.604 -0.2546  0.9862 -0.3029
  364MOL0     H50221   2.691   3.340   4.739  0.2531 -0.7418 -0.8757
  364MOL0     H50222   2.411   3.449   4.701 -2.9421 -1.2212  0.1017
  364MOL0     H50223   2.493   3.443   4.870 -1.0102 -2.6142  0.5833
  364MOL0     H50224   2.323   3.253   4.751 -0.5300  0.3383  0.5173
  364MOL0     H50225   2.475   3.175   4.783 -0.2924  0.3460 -0.3857
  364MOL0     H50226   2.379   3.345   5.011 -1.8636  1.9228 -1.5856
  364MOL0     H50227   2.469   3.193   5.005 -1.4886 -2.1073 -0.7330
  364MOL0     H50228   2.068   3.048   4.999 -0.5125 -0.0493 -3.6736
  364MOL0     H50229   2.546   3.703   4.751 -0.7559  0.7008  1.5099
  364MOL0     H50230   2.535   3.856   4.906 -1.9024  2.7993 -2.3645
  364MOL0     H50231   2.676   3.953   4.971  3.8370 -2.2631 -0.0058
  364MOL0     H50232   2.608   3.985   4.809  3.8441  2.1859  0.7749
  365MOL0     O50233   6.538   0.747  10.497  0.1523 -0.1312 -0.2910
  365MOL0     C50234   6.655   0.720  10.471 -0.2489 -1.3690 -0.3340
  365MOL0     O50235   6.722   0.767  10.362  0.8128  0.4952  0.2512
  365MOL0     C50236   6.656   0.839  10.267 -0.1230  0.8131 -0.6091
  365MOL0     C50237   6.708   0.954  10.204  0.0381 -0.0368 -0.3821
  365MOL0     C50238   6.629   1.026  10.109 -0.7175 -0.4144 -0.1000
  365MOL0     C50239   6.503   0.988  10.070  0.4489 -0.4096  0.1087
  365MOL0     O50240   6.427   1.063   9.984 -0.0123 -0.1070  0.8938
  365MOL0     C50241   6.320   1.148  10.041  0.0296  0.7126  0.9669
  365MOL0     C50242   6.389   1.266  10.117  0.5775 -0.3184  0.6046
  365MOL0     C50243   6.430   1.375  10.017 -0.4942 -0.2242 -0.1626
  365MOL0     C50244   6.459   1.499  10.106 -0.1149 -0.6256 -0.6237
  365MOL0     C50245   6.528   1.608  10.020 -1.0352  0.1621 -0.2315
  365MOL0     C50246   6.546   1.752  10.078  0.0772 -0.5601 -1.4670
  365MOL0     C50247   6.625   1.742  10.217 -0.4442  0.1169 -0.3478
  365MOL0     C50248   6.626   1.882  10.277 -0.3965  0.1022  1.4398
  365MOL0     N50249   6.709   1.885  10.392 -0.2015  0.4013 -0.1955
  365MOL0     C50250   6.847   1.863  10.389  0.0798  0.1662  0.1647
  365MOL0     C50251   6.890   1.901  10.509  0.1276  0.3491 -0.0655
  365MOL0     C50252   7.025   1.887  10.572 -0.1861  0.1699  0.0430
  365MOL0     C50253   7.034   1.757  10.641 -0.1626  1.0019 -0.1137
  365MOL0     C50254   7.161   1.750  10.740 -0.3569 -0.2277 -0.7712
  365MOL0     C50255   7.297   1.747  10.655  0.0827  0.0815  0.4891
  365MOL0     O50256   7.317   1.611  10.605 -0.4803 -0.4982 -0.2558
  365MOL0     C50257   7.361   1.508  10.685 -0.0551  0.6049 -0.9657
  365MOL0     C50258   7.359   1.380  10.638 -0.5732  0.4529  0.0153
  365MOL0     C50259   7.405   1.262  10.712  0.2964  0.4530  0.1455
  365MOL0     C50260   7.383   1.129  10.636 -1.1191 -0.0972 -0.1402
  365MOL0     C50261   7.461   1.290  10.841 -0.5936  0.9565 -0.4557
  365MOL0     C50262   7.514   1.178  10.935  0.8196  0.6244 -0.7075
  365MOL0     O50263   7.495   1.036  10.907 -0.0540 -0.3398 -0.3633
  365MOL0     C50264   7.499   0.952  11.016 -0.4205  0.1221 -0.0703
  365MOL0     C50265   7.419   0.971  11.129  0.2710 -0.7638  0.2668
  365MOL0     C50266   7.415   0.891  11.243  0.1408  0.6012 -1.2604
  365MOL0     C50267   7.487   0.780  11.244  0.7263  0.3838  0.3167
  365MOL0     O50268   7.492   0.719  11.369  1.0030  0.7042  1.0738
  365MOL0     C50269   7.602   0.624  11.387 -0.7097  0.1976  0.5895
  365MOL0     C50270   7.561   0.529  11.506  0.1160 -0.2634  0.2607
  365MOL0     C50271   7.657   0.407  11.507  0.1146 -0.6948 -0.1403
  365MOL0     C50272   7.577   0.275  11.524 -0.4487 -0.3715 -0.8543
  365MOL0     C50273   7.660   0.159  11.586 -0.3059  0.0385 -0.1213
  365MOL0     C50274   7.793   0.119  11.521  0.8242  0.4559  0.5073
  365MOL0     C50275   7.845  -0.007  11.593  0.4409  0.0737  0.4130
  365MOL0     C50276   7.976  -0.062  11.546  0.6816 -0.2902 -0.8968
  365MOL0    Cl50277   8.115  -0.006  11.656 -0.0227  0.1172 -0.1042
  365MOL0     C50278   7.551   0.736  11.121 -0.4931 -0.0322  0.6646
  365MOL0     C50279   7.555   0.827  11.014 -0.8303 -0.3769  0.2068
  365MOL0     O50280   7.590   1.214  11.019  0.0965  0.3782 -0.5459
  365MOL0     C50281   7.468   1.422  10.890 -0.4791  0.6268 -0.2792
  365MOL0     C50282   7.410   1.525  10.822 -0.3121 -0.2888 -0.3465
  365MOL0     N50283   6.782   1.924  10.588  0.2537  0.1798 -0.3602
  365MOL0     N50284   6.682   1.921  10.514 -0.0971 -0.3317  0.5871
  365MOL0     C50285   6.458   0.865  10.124  0.3251 -0.2462  0.6136
  365MOL0     C50286   6.530   0.788  10.220  0.1100  0.3141  0.3071
  365MOL0     C50287   6.737   0.639  10.570  0.7546  0.1614  0.1857
  365MOL0     C50288   6.880   0.636  10.548 -0.7328  0.8818  1.0897
  365MOL0     C50289   6.957   0.558  10.627 -0.4477 -0.1340 -0.1184
  365MOL0     C50290   6.905   0.499  10.747 -0.8094  0.1493  0.7041
  365MOL0     O50291   6.967   0.423  10.842 -0.2678 -0.5553  0.8197
  365MOL0     C50292   7.109   0.394  10.833 -0.3783  1.0160  0.1803
  365MOL0     C50293   7.165   0.404  10.973 -0.8195  0.5174 -0.0839
  365MOL0     C50294   7.318   0.432  10.949  0.4150 -0.1947 -0.0835
  365MOL0     C50295   7.419   0.397  11.065  0.1342  0.0941  0.0688
  365MOL0     C50296   7.433   0.255  11.095  0.4166  0.6882 -0.4756
  365MOL0     C50297   7.419   0.135  11.106  0.3041  0.9012 -0.1406
  365MOL0     C50298   6.774   0.503  10.768  0.7118  1.1980  0.4145
  365MOL0     C50299   6.679   0.561  10.686 -0.6376 -0.5881  0.6273
  365MOL0     C50300   6.530   0.545  10.714  0.1644  0.2616  0.1272
  365MOL0     H50301   6.804   0.986  10.243  0.0468 -0.6676  0.1404
  365MOL0     H50302   6.675   1.119  10.078  1.3706 -1.4641 -0.3166
  365MOL0     H50303   6.257   1.090  10.110  1.3608  1.6630  3.0620
  365MOL0     H50304   6.260   1.198   9.964  2.2883  1.3365 -0.4598
  365MOL0     H50305   6.304   1.289  10.182 -0.1325  1.2365 -0.7872
  365MOL0     H50306   6.469   1.222  10.177  0.2146 -2.0309 -0.1027
  365MOL0     H50307   6.522   1.344   9.968  1.2013  0.6166  2.2712
  365MOL0     H50308   6.351   1.387   9.943 -1.7646  2.0423  1.4244
  365MOL0     H50309   6.368   1.548  10.141  1.5817  1.6886  0.8495
  365MOL0     H50310   6.519   1.458  10.188  0.0725  0.7423 -0.0573
  365MOL0     H50311   6.463   1.620   9.933 -0.9213 -0.5966 -0.4354
  365MOL0     H50312   6.622   1.563   9.985 -0.5790  1.5804 -0.8796
  365MOL0     H50313   6.580   1.820  10.000 -1.4927  1.6158 -0.3808
  365MOL0     H50314   6.450   1.788  10.117  1.1535 -1.2311  2.2021
  365MOL0     H50315   6.727   1.705  10.202 -0.3545 -0.4032  1.3672
  365MOL0     H50316   6.580   1.665  10.279 -0.3024 -1.6595 -2.3328
  365MOL0     H50317   6.656   1.960  10.207 -2.3389  1.4197  2.0106
  365MOL0     H50318   6.523   1.913  10.298 -0.4171 -0.3060  1.9508
  365MOL0     H50319   6.906   1.826  10.306 -0.7022  0.6247 -0.6115
  365MOL0     H50320   7.049   1.965  10.645  1.7848  1.4113 -1.7996
  365MOL0     H50321   7.102   1.906  10.496  1.7853  2.1159  2.3769
  365MOL0     H50322   6.943   1.735  10.699  0.8715  0.2095  1.2721
  365MOL0     H50323   7.040   1.676  10.567  0.1749  2.5010 -1.7892
  365MOL0     H50324   7.136   1.826  10.814 -1.5550 -0.9929 -0.3566
  365MOL0     H50325   7.174   1.660  10.801  3.2621  1.5110  1.3434
  365MOL0     H50326   7.292   1.809  10.565  2.4342  0.3755  0.4813
  365MOL0     H50327   7.384   1.783  10.711  2.0096  1.3138 -2.9655
  365MOL0     H50328   7.324   1.367  10.536 -1.7486 -1.5834  0.6349
  365MOL0     H50329   7.293   1.140  10.575  0.7187  1.9533 -2.7584
  365MOL0     H50330   7.411   1.041  10.694 -1.4664 -1.0168 -1.3326
  365MOL0     H50331   7.454   1.130  10.553 -1.7937 -2.2047 -0.7859
  365MOL0     H50332   7.356   1.060  11.130  2.3358  0.9670 -3.0531
  365MOL0     H50333   7.353   0.926  11.325  2.7692  0.3972  0.9262
  365MOL0     H50334   7.608   0.557  11.300 -0.8802  2.2638 -1.0852
  365MOL0     H50335   7.701   0.670  11.400 -0.5892 -0.0713  0.6242
  365MOL0     H50336   7.573   0.592  11.594  0.1961 -1.3482  1.0388
  365MOL0     H50337   7.461   0.486  11.514  0.9067 -2.3902 -0.4901
  365MOL0     H50338   7.722   0.419  11.593 -1.8165 -0.6976  1.3973
  365MOL0     H50339   7.716   0.402  11.415  0.4945  0.9882 -0.0283
  365MOL0     H50340   7.524   0.251  11.431  0.3822 -0.7383 -1.2448
  365MOL0     H50341   7.510   0.307  11.604  0.0377 -1.9074  0.2124
  365MOL0     H50342   7.659   0.171  11.694 -0.3477 -0.0671 -0.1100
  365MOL0     H50343   7.599   0.069  11.575 -0.8402  0.6762 -3.7634
  365MOL0     H50344   7.872   0.194  11.527  0.4061  0.8632  0.9951
  365MOL0     H50345   7.767   0.107  11.415 -0.2639  3.8289  0.2898
  365MOL0     H50346   7.776  -0.083  11.557  2.4078 -1.1123 -1.1131
  365MOL0     H50347   7.838   0.002  11.702 -1.7765  0.1122  0.3041
  365MOL0     H50348   7.992  -0.039  11.440  3.8018 -1.2491 -0.7640
  365MOL0     H50349   7.962  -0.171  11.550 -1.8156 -0.0818 -2.1488
  365MOL0     H50350   7.600   0.639  11.116  0.4145  0.2950  2.2859
  365MOL0     H50351   7.610   0.797  10.925 -1.1730 -0.8506  0.1511
  365MOL0     H50352   7.523   1.438  10.982 -0.3875  0.0314 -0.2232
  365MOL0     H50353   7.414   1.626  10.861 -0.3366 -0.2565 -0.4288
  365MOL0     H50354   6.356   0.842  10.095  0.4863 -1.2774  0.8162
  365MOL0     H50355   6.470   0.702  10.247 -1.5544  0.9539 -1.1233
  365MOL0     H50356   6.934   0.686  10.469  0.1450 -1.1467  0.3367
  365MOL0     H50357   7.058   0.534  10.597  0.1175 -0.2063  1.7859
  365MOL0     H50358   7.133   0.299  10.783  0.3234  1.8926 -1.2275
  365MOL0     H50359   7.154   0.454  10.753 -0.9056 -0.3730 -1.2341
  365MOL0     H50360   7.167   0.310  11.030  1.8025 -1.0275 -2.4442
  365MOL0     H50361   7.122   0.486  11.031 -3.5397  0.1425 -1.4257
  365MOL0     H50362   7.353   0.375  10.863  0.6550  1.7570 -1.3521
  365MOL0     H50363   7.320   0.537  10.917  0.0744  0.0442  0.6592
  365MOL0     H50364   7.384   0.454  11.152  2.3122  1.1869  0.3146
  365MOL0     H50365   7.517   0.437  11.035  0.1265  0.0234 -0.0482
  365MOL0     H50366   7.395   0.031  11.096  2.5003  0.5653 -2.9078
  365MOL0     H50367   6.744   0.447  10.856  0.4583 -2.0313 -1.5605
  365MOL0     H50368   6.518   0.597  10.809 -0.9001  0.9792 -0.3776
  365MOL0     H50369   6.465   0.593  10.641  1.2015  1.8370  0.1895
  365MOL0     H50370   6.489   0.446  10.736 -0.5970  0.9564  2.0743
  366MOL0     O50371   5.126   9.214   9.795  0.1834 -0.4776  0.6156
  366MOL0     C50372   5.242   9.182   9.828 -0.0684  0.1862  0.1216
  366MOL0     O50373   5.314   9.084   9.758  0.5172 -0.8247 -0.0751
  366MOL0     C50374   5.284   9.021   9.640 -0.0342 -0.5715 -0.1479
  366MOL0     C50375   5.171   9.031   9.562  0.1975  1.3418  0.0088
  366MOL0     C50376   5.137   8.946   9.455  0.2338 -0.3809  0.1465
  366MOL0     C50377   5.243   8.855   9.412 -0.3499 -0.7430 -0.3939
  366MOL0     O50378   5.224   8.778   9.302 -1.1342 -0.5395 -0.5156
  366MOL0     C50379   5.093   8.772   9.243 -0.1241 -1.5158 -0.3601
  366MOL0     C50380   5.107   8.673   9.131 -1.0324 -0.5847 -0.1075
  366MOL0     C50381   5.208   8.726   9.036 -0.2023  0.6115 -0.6106
  366MOL0     C50382   5.158   8.721   8.893  0.0721  0.0910 -0.9736
  366MOL0     C50383   5.065   8.839   8.858  0.5118  0.2981 -0.2794
  366MOL0     C50384   5.071   8.862   8.711  0.8479  0.1154 -0.1190
  366MOL0     C50385   4.932   8.928   8.667 -0.1870  0.1226 -0.0247
  366MOL0     C50386   4.935   8.980   8.527 -0.5749 -0.1566  0.2414
  366MOL0     N50387   4.796   8.990   8.475  0.0708 -0.6445  0.5015
  366MOL0     C50388   4.741   8.946   8.358  1.1285 -0.3130 -1.0944
  366MOL0     C50389   4.618   9.008   8.347 -0.2742 -0.3503 -0.0025
  366MOL0     C50390   4.522   8.972   8.241  0.5866 -0.5727 -0.0433
  366MOL0     C50391   4.581   9.043   8.107 -0.0818 -0.4446  0.0828
  366MOL0     C50392   4.544   8.958   7.990  0.1629 -0.1426 -1.0813
  366MOL0     C50393   4.592   9.016   7.857  0.0852  0.3589 -0.5602
  366MOL0     O50394   4.496   9.116   7.821 -0.7032 -0.5787 -0.0384
  366MOL0     C50395   4.519   9.219   7.738  0.0517  0.3569 -0.4068
  366MOL0     C50396   4.632   9.234   7.656  0.3136 -0.4801  0.3460
  366MOL0     C50397   4.657   9.350   7.579 -0.1306  0.4249  0.1989
  366MOL0     C50398   4.782   9.366   7.488 -0.6157  0.5311 -0.1557
  366MOL0     C50399   4.562   9.462   7.603 -0.1747  0.7507  0.4131
  366MOL0     C50400   4.566   9.600   7.550  0.2797  0.0072 -0.3148
  366MOL0     O50401   4.458   9.681   7.570  0.0467 -0.0997 -0.2779
  366MOL0     C50402   4.466   9.815   7.534 -0.7994 -0.0028  0.1078
  366MOL0     C50403   4.565   9.909   7.549  0.0150 -1.0478 -0.2192
  366MOL0     C50404   4.534  10.047   7.553 -0.8550  0.4838 -0.5640
  366MOL0     C50405   4.415  10.100   7.515  0.0404  0.4920 -0.4615
  366MOL0     O50406   4.403  10.235   7.511 -0.7573 -0.6363  0.3883
  366MOL0     C50407   4.280  10.294   7.484  0.9405 -0.5219 -0.5276
  366MOL0     C50408   4.298  10.448   7.483 -0.0238 -1.3821  0.0880
  366MOL0     C50409   4.171  10.539   7.480 -0.5078  0.2235  0.6646
  366MOL0     C50410   4.201  10.688   7.500  0.5449  0.4781 -0.5126
  366MOL0     C50411   4.074  10.775   7.492  0.8794 -0.3742  0.0046
  366MOL0     C50412   4.096  10.914   7.541 -0.3497  0.1627 -0.3095
  366MOL0     C50413   3.966  10.978   7.584 -0.8473  0.9957  0.1975
  366MOL0     C50414   3.996  11.095   7.674 -0.3422 -0.4910  0.6239
  366MOL0    Cl50415   4.110  11.209   7.606 -0.1062 -0.5209 -0.7911
  366MOL0     C50416   4.315  10.002   7.477 -0.3632  0.0925 -0.0814
  366MOL0     C50417   4.339   9.862   7.495 -0.3576  0.1839 -0.1253
  366MOL0     O50418   4.659   9.618   7.475 -0.2308  0.5865  0.2923
  366MOL0     C50419   4.437   9.422   7.662 -0.9343  0.2734  0.2227
  366MOL0     C50420   4.415   9.309   7.740  0.3862 -0.4627 -0.4453
  366MOL0     N50421   4.614   9.103   8.448  0.7679 -0.3338 -0.0179
  366MOL0     N50422   4.719   9.090   8.524 -0.4372 -0.0570 -0.2737
  366MOL0     C50423   5.363   8.849   9.486 -0.5990  0.1877  0.1944
  366MOL0     C50424   5.380   8.924   9.604 -0.1768 -0.5776  0.3514
  366MOL0     C50425   5.302   9.248   9.941 -0.8164  0.0314  0.4783
  366MOL0     C50426   5.441   9.223   9.961  0.2433  0.5416  0.3571
  366MOL0     C50427   5.518   9.270  10.060 -0.5457 -0.4099  0.5492
  366MOL0     C50428   5.462   9.356  10.145 -0.5259 -0.6039  0.3010
  366MOL0     O50429   5.523   9.403  10.257  0.0756 -0.1698  0.2169
  366MOL0     C50430   5.466   9.371  10.392  0.3270 -0.2326 -0.2870
  366MOL0     C50431   5.518   9.244  10.444  0.2251  0.7087 -1.0844
  366MOL0     C50432   5.669   9.240  10.458 -0.7657  0.2414 -0.2211
  366MOL0     C50433   5.751   9.357  10.520  0.4933 -0.7583 -0.1353
  366MOL0     C50434   5.689   9.425  10.638  0.5741  0.4216 -0.4589
  366MOL0     C50435   5.632   9.479  10.734  0.1442  0.3361  0.9583
  366MOL0     C50436   5.332   9.396  10.123 -0.1082 -0.3416  0.3236
  366MOL0     C50437   5.241   9.339  10.032 -0.0261  0.1059 -0.3684
  366MOL0     C50438   5.095   9.383  10.048  0.2433  0.0150 -0.3896
  366MOL0     H50439   5.084   9.095   9.581 -1.0361 -0.1652 -0.3645
  366MOL0     H50440   5.047   8.972   9.399  1.2251  0.7547 -0.9850
  366MOL0     H50441   5.070   8.873   9.207  1.4352 -0.6019  1.0993
  366MOL0     H50442   5.020   8.745   9.320  0.1098 -0.2395  0.3499
  366MOL0     H50443   5.131   8.571   9.162  1.7593  0.7409  2.6222
  366MOL0     H50444   5.015   8.660   9.074 -1.1527 -1.0081  0.1748
  366MOL0     H50445   5.250   8.825   9.057 -0.0331  0.7830 -1.6823
  366MOL0     H50446   5.290   8.654   9.041 -1.0651 -0.3644  0.1163
  366MOL0     H50447   5.252   8.718   8.836  1.5200  0.2684  1.2927
  366MOL0     H50448   5.113   8.626   8.862 -2.6708  0.5454  1.2129
  366MOL0     H50449   5.095   8.931   8.909  0.1337  1.2627 -1.7362
  366MOL0     H50450   4.969   8.807   8.901  2.7126 -2.3344  3.3128
  366MOL0     H50451   5.157   8.919   8.677  0.3538  0.2438 -1.2022
  366MOL0     H50452   5.091   8.761   8.672  2.6220  0.2834  0.2834
  366MOL0     H50453   4.927   9.018   8.729  1.9164  0.6711 -0.5711
  366MOL0     H50454   4.846   8.861   8.681  2.1983 -2.8672  1.7678
  366MOL0     H50455   4.991   9.074   8.517  0.5656 -0.5252  2.5251
  366MOL0     H50456   4.996   8.903   8.477 -1.5315 -1.7533  1.4484
  366MOL0     H50457   4.780   8.880   8.281  0.6024 -0.9714 -0.8071
  366MOL0     H50458   4.419   9.002   8.266  1.1474  0.5976  0.9883
  366MOL0     H50459   4.530   8.863   8.232  2.4446 -0.3811 -1.1940
  366MOL0     H50460   4.542   9.145   8.106 -1.2741 -0.7889  2.6112
  366MOL0     H50461   4.690   9.046   8.112 -0.0729  0.5886 -0.4671
  366MOL0     H50462   4.582   8.856   8.005 -1.2178 -0.4516  0.6311
  366MOL0     H50463   4.435   8.950   7.981  0.0105  2.3227 -2.2533
  366MOL0     H50464   4.692   9.051   7.886  0.6974 -1.9090  0.2157
  366MOL0     H50465   4.604   8.944   7.775 -1.2495  0.4452 -0.8383
  366MOL0     H50466   4.706   9.154   7.652  2.1320  1.0729  1.2622
  366MOL0     H50467   4.844   9.276   7.498 -0.7392  0.4632 -0.0031
  366MOL0     H50468   4.847   9.451   7.512  2.0984 -1.5020  0.2481
  366MOL0     H50469   4.756   9.384   7.383  0.0364  2.9001  0.0206
  366MOL0     H50470   4.655   9.875   7.597 -0.3483 -0.6182  0.7834
  366MOL0     H50471   4.610  10.115   7.589 -0.7995 -1.2270  2.9282
  366MOL0     H50472   4.240  10.267   7.387 -1.5335  0.7387  0.0627
  366MOL0     H50473   4.202  10.265   7.555 -1.2061  0.2796 -2.4277
  366MOL0     H50474   4.366  10.473   7.565 -0.4062  1.9593 -0.4457
  366MOL0     H50475   4.348  10.468   7.388  1.0178 -3.2681  0.1909
  366MOL0     H50476   4.112  10.510   7.567 -0.6449 -0.8247  0.2430
  366MOL0     H50477   4.113  10.526   7.389  1.3642  0.9579 -0.7121
  366MOL0     H50478   4.271  10.729   7.426  1.4087  1.2143  0.6793
  366MOL0     H50479   4.254  10.700   7.595  1.9044  0.1994 -1.2108
  366MOL0     H50480   4.041  10.789   7.389  0.8438  2.2412  0.2999
  366MOL0     H50481   3.998  10.728   7.554  1.9108 -1.4388  0.5093
  366MOL0     H50482   4.136  10.981   7.464 -0.5784  3.1910  2.0185
  366MOL0     H50483   4.172  10.921   7.620  0.2606  1.5032 -0.9852
  366MOL0     H50484   3.913  10.909   7.651 -1.7263  0.2354 -1.2232
  366MOL0     H50485   3.897  11.001   7.503 -0.1708  1.3316 -0.2879
  366MOL0     H50486   4.043  11.060   7.766  3.1003  0.5667 -0.5699
  366MOL0     H50487   3.904  11.147   7.705 -1.5772 -3.3850  2.1733
  366MOL0     H50488   4.211  10.018   7.450 -0.4621 -0.4273 -0.0282
  366MOL0     H50489   4.246   9.806   7.493 -0.0961 -0.7118  3.9559
  366MOL0     H50490   4.355   9.492   7.655 -3.1639 -2.1574  0.8171
  366MOL0     H50491   4.326   9.305   7.802 -2.0104  1.8023 -3.4209
  366MOL0     H50492   5.442   8.781   9.455 -0.6936  0.3040 -0.3179
  366MOL0     H50493   5.467   8.910   9.667 -1.2504  2.0762  2.6783
  366MOL0     H50494   5.490   9.157   9.889 -0.4608 -2.0213  2.0947
  366MOL0     H50495   5.622   9.239  10.067 -1.0268 -2.0098  1.0117
  366MOL0     H50496   5.472   9.452  10.466  1.7160 -0.6843  0.1346
  366MOL0     H50497   5.359   9.362  10.369 -0.5391  4.3345  0.9620
  366MOL0     H50498   5.486   9.155  10.388 -0.5129  1.0207 -1.1671
  366MOL0     H50499   5.479   9.235  10.546  3.2111 -1.2713  0.0162
  366MOL0     H50500   5.684   9.151  10.521 -0.5201  1.2406  1.1736
  366MOL0     H50501   5.705   9.220  10.357 -3.5545  0.0524 -1.2425
  366MOL0     H50502   5.747   9.436  10.444 -3.0665  0.8382  1.4967
  366MOL0     H50503   5.845   9.314  10.554  0.9865  1.3819  1.3920
  366MOL0     H50504   5.587   9.519  10.822  1.3937 -0.6134  2.0648
  366MOL0     H50505   5.287   9.479  10.176 -2.3309  1.5079 -3.9391
  366MOL0     H50506   5.077   9.446  10.136 -1.8014 -0.2894 -0.5425
  366MOL0     H50507   5.074   9.443   9.960 -4.3336  2.2098  1.8438
  366MOL0     H50508   5.029   9.295  10.057  0.2941  0.1123  1.5412
  367MOL0     O50509   3.420   5.057   9.357 -0.1731  0.4691 -0.7838
  367MOL0     C50510   3.515   5.133   9.371 -0.1537  0.3887  0.4900
  367MOL0     O50511   3.585   5.183   9.267  0.1445 -0.9653 -0.4150
  367MOL0     C50512   3.569   5.132   9.137 -0.1512 -0.0204 -0.8027
  367MOL0     C50513   3.547   4.998   9.103  0.3685 -0.0080 -0.3880
  367MOL0     C50514   3.554   4.968   8.965  0.4575 -0.6747 -0.7311
  367MOL0     C50515   3.598   5.063   8.870  0.7777 -0.8601 -0.3826
  367MOL0     O50516   3.616   5.021   8.740 -0.4357  0.2132 -1.4171
  367MOL0     C50517   3.528   4.917   8.695 -0.2848 -0.1460  0.8130
  367MOL0     C50518   3.497   4.963   8.549 -0.5093 -0.3384  0.9154
  367MOL0     C50519   3.411   4.851   8.482 -0.2672 -0.5949 -0.1706
  367MOL0     C50520   3.430   4.847   8.325 -0.0360 -0.1649 -0.8338
  367MOL0     C50521   3.327   4.743   8.272 -0.0704  0.1947  1.2423
  367MOL0     C50522   3.340   4.726   8.126  0.0226  1.1790  0.5765
  367MOL0     C50523   3.259   4.604   8.078  0.0693  0.3727  0.0605
  367MOL0     C50524   3.115   4.653   8.050 -0.3273  0.5293  0.1962
  367MOL0     N50525   3.037   4.580   7.948 -0.7590  1.1325  1.1540
  367MOL0     C50526   3.032   4.442   7.946 -0.4176  0.4761 -0.4568
  367MOL0     C50527   2.948   4.410   7.847  0.2329 -0.5362 -0.1073
  367MOL0     C50528   2.896   4.275   7.809 -0.1785 -1.4769 -0.1119
  367MOL0     C50529   2.800   4.294   7.694 -0.0015  0.0795  0.2370
  367MOL0     C50530   2.729   4.171   7.657  1.5871 -1.1395  0.1726
  367MOL0     C50531   2.810   4.042   7.620 -0.1597 -1.1368 -0.2183
  367MOL0     O50532   2.912   4.059   7.518 -0.0615  0.4178  0.5370
  367MOL0     C50533   2.982   3.951   7.491 -1.1132 -0.3135  0.1880
  367MOL0     C50534   2.993   3.836   7.555  0.0011  0.7622  0.0394
  367MOL0     C50535   3.070   3.729   7.504 -1.3036 -1.0022  0.1731
  367MOL0     C50536   3.061   3.599   7.591 -0.7621  0.0321  0.3627
  367MOL0     C50537   3.138   3.739   7.375  0.3209 -0.4373 -1.0981
  367MOL0     C50538   3.219   3.635   7.315 -0.0351  0.8372  0.1058
  367MOL0     O50539   3.187   3.508   7.346  0.0080  0.7632 -0.1247
  367MOL0     C50540   3.232   3.400   7.272  0.3431  0.3778 -1.8588
  367MOL0     C50541   3.153   3.288   7.245  0.2863  0.4727  0.4667
  367MOL0     C50542   3.197   3.174   7.177 -1.1217 -0.3152 -0.2335
  367MOL0     C50543   3.329   3.167   7.136 -0.9516 -0.6428  0.1008
  367MOL0     O50544   3.361   3.063   7.048 -0.4669  0.6155  0.4874
  367MOL0     C50545   3.469   3.076   6.962  0.2931 -0.8636  0.3442
  367MOL0     C50546   3.482   2.955   6.873 -1.3144  0.2970 -1.2952
  367MOL0     C50547   3.522   2.822   6.952 -0.3409 -0.7061 -0.2070
  367MOL0     C50548   3.506   2.702   6.860  0.0592  0.6020  0.4341
  367MOL0     C50549   3.577   2.584   6.925 -0.0757  0.5316 -0.6259
  367MOL0     C50550   3.477   2.514   7.033 -0.1097  0.4473 -0.6008
  367MOL0     C50551   3.553   2.401   7.115 -1.0047 -0.0453 -0.0455
  367MOL0     C50552   3.477   2.363   7.254 -0.1941 -0.3334  0.8070
  367MOL0    Cl50553   3.417   2.509   7.357  0.4788 -0.2033  0.1578
  367MOL0     C50554   3.415   3.274   7.158  0.1292 -0.5644  0.4420
  367MOL0     C50555   3.368   3.389   7.225  0.4750 -0.9572  0.4214
  367MOL0     O50556   3.288   3.670   7.223 -0.4527  0.0901  1.1274
  367MOL0     C50557   3.130   3.866   7.311  0.1130 -1.2503 -0.8309
  367MOL0     C50558   3.057   3.972   7.375  0.6029 -0.3601 -0.1489
  367MOL0     N50559   2.899   4.534   7.795 -0.5980  0.6067  0.4335
  367MOL0     N50560   2.948   4.629   7.866 -0.2468  0.3413 -0.9379
  367MOL0     C50561   3.621   5.189   8.909 -0.0206 -0.2893  1.1672
  367MOL0     C50562   3.601   5.224   9.040 -0.6210  0.3090 -0.3758
  367MOL0     C50563   3.569   5.166   9.511 -0.6134 -0.0685 -0.2040
  367MOL0     C50564   3.671   5.265   9.513 -0.3007 -0.5258 -0.4018
  367MOL0     C50565   3.718   5.315   9.634 -0.8518 -0.3556  0.0689
  367MOL0     C50566   3.660   5.282   9.756 -0.0014 -1.1661 -0.1268
  367MOL0     O50567   3.728   5.330   9.862  0.3143  0.3322  0.7264
  367MOL0     C50568   3.674   5.319   9.988 -0.2339  1.1984  0.6774
  367MOL0     C50569   3.546   5.399   9.997 -0.0042 -0.2195  0.3515
  367MOL0     C50570   3.559   5.536   9.940  0.5008  0.3788  0.1529
  367MOL0     C50571   3.429   5.615   9.953  1.7638  0.4760 -0.6565
  367MOL0     C50572   3.436   5.754   9.914 -0.5171 -0.6477 -0.2150
  367MOL0     C50573   3.447   5.877   9.895  0.4860  0.3542 -0.1173
  367MOL0     C50574   3.562   5.178   9.754  0.1133  0.1438 -0.4380
  367MOL0     C50575   3.518   5.117   9.634  0.1902  0.1887 -0.9945
  367MOL0     C50576   3.402   5.012   9.642 -0.0725  0.3980 -0.1716
  367MOL0     H50577   3.526   4.925   9.180  1.6396  0.6368  0.6091
  367MOL0     H50578   3.535   4.863   8.943 -0.4588 -0.5583 -0.5326
  367MOL0     H50579   3.439   4.896   8.755 -1.9991 -1.2046 -1.8791
  367MOL0     H50580   3.586   4.825   8.691 -0.9890 -0.5708 -0.3044
  367MOL0     H50581   3.448   5.061   8.549  0.1516 -0.0059  0.7282
  367MOL0     H50582   3.593   4.976   8.499 -0.6765 -1.0144  0.4075
  367MOL0     H50583   3.422   4.748   8.518  2.9875 -0.1833  0.3756
  367MOL0     H50584   3.310   4.880   8.510  1.3952  0.2888  6.9751
  367MOL0     H50585   3.402   4.942   8.280 -3.3505 -1.7303 -2.4624
  367MOL0     H50586   3.533   4.822   8.301  0.2412  0.3067 -0.1638
  367MOL0     H50587   3.221   4.762   8.289 -1.2040 -3.6748 -0.4425
  367MOL0     H50588   3.358   4.645   8.309  3.8543  0.1823 -1.4184
  367MOL0     H50589   3.317   4.811   8.061 -1.8896 -0.6556 -1.3267
  367MOL0     H50590   3.444   4.702   8.102 -0.8084 -0.8530 -1.3597
  367MOL0     H50591   3.259   4.518   8.146  2.4561  1.8800  2.1316
  367MOL0     H50592   3.305   4.591   7.979 -3.4027 -0.1214 -1.6568
  367MOL0     H50593   3.054   4.651   8.141 -0.7013  1.7251 -0.0126
  367MOL0     H50594   3.114   4.755   8.011  0.2555 -1.0274 -4.5157
  367MOL0     H50595   3.076   4.371   8.016 -0.0500 -0.6427 -1.7766
  367MOL0     H50596   2.838   4.240   7.895 -0.4929 -1.5621 -0.3531
  367MOL0     H50597   2.975   4.204   7.784  1.1304 -0.4189  0.9029
  367MOL0     H50598   2.718   4.364   7.714 -0.8515 -0.7576 -0.2388
  367MOL0     H50599   2.849   4.341   7.608  1.2061  1.6381  1.7348
  367MOL0     H50600   2.659   4.159   7.740  0.8609  2.9986  0.3627
  367MOL0     H50601   2.665   4.189   7.570  0.7730 -2.0042  0.5656
  367MOL0     H50602   2.860   4.007   7.711 -0.2043 -0.4125  0.0861
  367MOL0     H50603   2.740   3.966   7.583  2.1502 -2.7186 -1.6489
  367MOL0     H50604   2.933   3.807   7.641  0.6247  1.0502  0.5721
  367MOL0     H50605   3.152   3.538   7.582  0.2505  1.6761 -1.4907
  367MOL0     H50606   2.981   3.531   7.561  2.1264 -4.0147  0.9286
  367MOL0     H50607   3.051   3.618   7.698  3.5881 -0.9571  1.1401
  367MOL0     H50608   3.048   3.294   7.269 -0.6481 -1.6470 -2.4463
  367MOL0     H50609   3.124   3.097   7.157 -0.7051 -1.5896  2.6741
  367MOL0     H50610   3.461   3.164   6.898  1.5698  0.2831  1.6915
  367MOL0     H50611   3.561   3.090   7.020  2.3989  4.9175 -3.4968
  367MOL0     H50612   3.388   2.929   6.824 -1.6770 -2.5632  0.6127
  367MOL0     H50613   3.565   2.973   6.803 -0.7989 -0.6389 -0.9543
  367MOL0     H50614   3.459   2.802   7.039  1.5881 -1.9412  0.9671
  367MOL0     H50615   3.623   2.840   6.989 -0.7487  0.5184  0.3576
  367MOL0     H50616   3.551   2.720   6.763 -2.7428  0.2929 -1.0292
  367MOL0     H50617   3.399   2.687   6.844  0.4100  0.1417 -1.8199
  367MOL0     H50618   3.602   2.507   6.851  3.8116  1.5124 -0.5413
  367MOL0     H50619   3.675   2.599   6.970  0.6648 -4.1943 -0.0997
  367MOL0     H50620   3.382   2.480   6.989 -0.9197 -0.7307  1.8706
  367MOL0     H50621   3.454   2.587   7.111  2.9031  0.2641  0.5660
  367MOL0     H50622   3.651   2.438   7.147 -1.1222  0.5732 -0.4004
  367MOL0     H50623   3.574   2.316   7.049  2.1057 -1.2234  2.2273
  367MOL0     H50624   3.542   2.307   7.322  1.7495  1.3001  0.3789
  367MOL0     H50625   3.397   2.296   7.219  2.1150 -2.4721 -0.7490
  367MOL0     H50626   3.519   3.275   7.128  0.2862  1.4591  0.9446
  367MOL0     H50627   3.448   3.461   7.241 -0.6253  1.0024 -2.0905
  367MOL0     H50628   3.193   3.886   7.225 -2.2463 -2.3843 -2.9837
  367MOL0     H50629   3.062   4.068   7.325  1.0927  0.9889  2.3189
  367MOL0     H50630   3.646   5.262   8.833 -0.3683 -0.2324  1.1078
  367MOL0     H50631   3.605   5.329   9.069 -0.0760 -0.0283  0.8192
  367MOL0     H50632   3.721   5.308   9.427 -1.4423 -0.2169 -0.9361
  367MOL0     H50633   3.788   5.394   9.609 -2.7839  0.8053 -2.0984
  367MOL0     H50634   3.653   5.215  10.015 -0.8352  1.5243  1.5257
  367MOL0     H50635   3.751   5.353  10.058 -0.9626 -0.1199  2.1674
  367MOL0     H50636   3.517   5.398  10.103  2.2005 -2.3129  1.0177
  367MOL0     H50637   3.474   5.343   9.937 -0.0893 -1.8598  1.8917
  367MOL0     H50638   3.639   5.587   9.994 -0.4823  3.6960 -1.3002
  367MOL0     H50639   3.573   5.540   9.832  0.3366 -0.0089  0.1134
  367MOL0     H50640   3.385   5.614  10.054  0.2645 -2.5075 -1.2177
  367MOL0     H50641   3.354   5.568   9.889 -1.6389 -0.5197  3.5807
  367MOL0     H50642   3.465   5.981   9.876 -1.6293  0.9848  0.9170
  367MOL0     H50643   3.512   5.143   9.844  0.0550 -2.7819 -1.5069
  367MOL0     H50644   3.304   5.059   9.624  0.2481  0.6204 -1.4916
  367MOL0     H50645   3.413   4.931   9.569 -0.9459  0.0340  0.0892
  367MOL0     H50646   3.410   4.966   9.740  1.2662  3.4029  1.2644
  368MOL0     O50647   0.921   2.972  10.745  0.1759  0.2857 -0.1371
  368MOL0     C50648   0.910   3.004  10.625  0.4951 -0.5358 -0.1116
  368MOL0     O50649   0.882   2.912  10.524 -0.4614  0.0586  0.5031
  368MOL0     C50650   0.887   2.779  10.555 -0.0510  0.6502 -0.4621
  368MOL0     C50651   0.778   2.714  10.627 -0.4757  0.0021  0.2012
  368MOL0     C50652   0.785   2.573  10.653  0.2469  0.8020 -0.2388
  368MOL0     C50653   0.889   2.494  10.609  0.8596 -0.6253 -0.1888
  368MOL0     O50654   0.884   2.361  10.645 -1.2937 -0.6605 -0.1603
  368MOL0     C50655   0.896   2.264  10.542  0.0891  0.9022 -0.1719
  368MOL0     C50656   0.764   2.221  10.484 -0.3132  0.7841 -0.6887
  368MOL0     C50657   0.679   2.324  10.415 -0.0995 -0.6730  0.0778
  368MOL0     C50658   0.741   2.367  10.290 -0.2049  0.5153  0.2971
  368MOL0     C50659   0.687   2.503  10.247  0.0695  0.2734 -0.2331
  368MOL0     C50660   0.779   2.555  10.138 -0.1270  0.1623  0.2151
  368MOL0     C50661   0.771   2.703  10.125  1.0582  0.3797 -0.5962
  368MOL0     C50662   0.863   2.761  10.028 -0.6835 -0.0870 -0.1027
  368MOL0     N50663   0.996   2.788  10.086  0.1593  0.6020 -0.5979
  368MOL0     C50664   1.099   2.709  10.065 -0.3436  0.4374 -0.7583
  368MOL0     C50665   1.196   2.762  10.154 -0.0344  0.4735  0.0712
  368MOL0     C50666   1.338   2.713  10.177 -0.0397  0.4864  0.6075
  368MOL0     C50667   1.357   2.684  10.324  0.5377  0.5104 -1.1192
  368MOL0     C50668   1.499   2.640  10.369  0.3172 -0.1353  0.1434
  368MOL0     C50669   1.508   2.655  10.523  0.5958  0.5984  0.3685
  368MOL0     O50670   1.419   2.546  10.574 -0.1915  0.1934  0.4722
  368MOL0     C50671   1.436   2.513  10.705 -0.0715  0.0474  0.0680
  368MOL0     C50672   1.369   2.397  10.749 -1.0471 -0.5902  0.3158
  368MOL0     C50673   1.397   2.341  10.875 -0.3288  0.2395 -0.0718
  368MOL0     C50674   1.329   2.212  10.909  0.5829  0.3557  0.3221
  368MOL0     C50675   1.483   2.400  10.966 -1.1076 -0.2785  0.5713
  368MOL0     C50676   1.514   2.344  11.097 -0.4080 -0.2904 -0.3418
  368MOL0     O50677   1.620   2.395  11.163  0.5209 -0.4750  0.0283
  368MOL0     C50678   1.644   2.344  11.290 -0.3513 -0.1632  0.2924
  368MOL0     C50679   1.555   2.358  11.399  0.3508 -0.6648 -0.0759
  368MOL0     C50680   1.578   2.287  11.519  0.1340 -0.6781  0.5442
  368MOL0     C50681   1.704   2.216  11.530  0.0386  0.4597 -0.8084
  368MOL0     O50682   1.730   2.151  11.651 -0.6260  0.0328 -0.6594
  368MOL0     C50683   1.812   2.032  11.655  0.3842 -0.7839 -0.0603
  368MOL0     C50684   1.757   1.915  11.581  0.1882 -0.7819 -0.0384
  368MOL0     C50685   1.710   1.799  11.675  0.5764 -0.3049  0.0344
  368MOL0     C50686   1.829   1.728  11.746  0.3720 -0.5338  0.4926
  368MOL0     C50687   1.793   1.590  11.812  0.5740 -0.6553 -0.2031
  368MOL0     C50688   1.915   1.505  11.811  0.0043  0.2684  0.2875
  368MOL0     C50689   1.907   1.369  11.885 -0.2176 -0.0242 -0.2144
  368MOL0     C50690   1.815   1.270  11.809 -0.3196 -0.4513  0.4275
  368MOL0    Cl50691   1.819   1.109  11.892  0.2029  0.3316 -0.1361
  368MOL0     C50692   1.780   2.187  11.418 -0.3613 -0.0933  0.5890
  368MOL0     C50693   1.760   2.265  11.300 -0.1628  1.0699 -0.2322
  368MOL0     O50694   1.430   2.262  11.150 -0.1806  0.0504 -0.1333
  368MOL0     C50695   1.540   2.527  10.923 -0.5118 -0.1304 -0.5684
  368MOL0     C50696   1.518   2.581  10.791  0.4224  0.3837 -0.1106
  368MOL0     N50697   1.143   2.882  10.205 -0.3326  0.1024  0.3280
  368MOL0     N50698   1.020   2.894  10.161  0.1727  0.7278  0.4341
  368MOL0     C50699   0.991   2.549  10.535  0.2440  0.6595 -1.0158
  368MOL0     C50700   0.992   2.690  10.521  0.3910 -0.5064 -0.7377
  368MOL0     C50701   0.947   3.148  10.588 -0.1758  0.3625  0.6973
  368MOL0     C50702   0.958   3.171  10.447 -0.0408 -0.5689  0.5990
  368MOL0     C50703   0.971   3.303  10.406 -0.0186 -0.8433 -0.6327
  368MOL0     C50704   0.995   3.407  10.496  0.9687  0.3484  0.1154
  368MOL0     O50705   1.011   3.535  10.437  0.4635 -0.4157  0.9380
  368MOL0     C50706   1.110   3.625  10.484 -0.6075 -0.0143  0.0068
  368MOL0     C50707   1.258   3.586  10.456  0.2742 -0.6017  0.2015
  368MOL0     C50708   1.304   3.637  10.322  0.1967 -0.4656 -0.3120
  368MOL0     C50709   1.448   3.613  10.296  0.3160  0.0613  0.4560
  368MOL0     C50710   1.477   3.672  10.170  0.6135 -0.3084  0.4812
  368MOL0     C50711   1.501   3.704  10.054  0.5941  0.2545  0.2839
  368MOL0     C50712   1.009   3.378  10.631  1.1442  0.3583  0.0768
  368MOL0     C50713   0.977   3.250  10.685  0.0513  0.5906  0.0949
  368MOL0     C50714   0.984   3.227  10.830 -0.5610  0.0137 -0.2117
  368MOL0     H50715   0.691   2.770  10.662 -1.1469 -1.0607  0.2838
  368MOL0     H50716   0.713   2.527  10.719  1.0004  1.6536  1.2460
  368MOL0     H50717   0.942   2.173  10.582 -2.2488 -1.4469 -2.4637
  368MOL0     H50718   0.965   2.302  10.466  0.4841  0.1662 -0.1938
  368MOL0     H50719   0.793   2.149  10.408 -1.1366 -0.0747 -0.2106
  368MOL0     H50720   0.708   2.167  10.560  1.4089 -1.0819 -0.6653
  368MOL0     H50721   0.582   2.275  10.403 -0.3917 -0.0209 -0.2860
  368MOL0     H50722   0.656   2.410  10.480  2.2812 -0.9656  1.4139
  368MOL0     H50723   0.850   2.370  10.295 -0.2023  0.1516  0.5051
  368MOL0     H50724   0.715   2.290  10.217 -0.0913  0.2461  0.5355
  368MOL0     H50725   0.695   2.571  10.332  0.6430 -0.5369  0.3798
  368MOL0     H50726   0.583   2.489  10.216  0.2442 -1.6573 -0.1004
  368MOL0     H50727   0.884   2.541  10.165  0.1349 -1.8138 -1.6382
  368MOL0     H50728   0.760   2.501  10.045  0.7658 -2.0286  1.2483
  368MOL0     H50729   0.794   2.751  10.220 -1.6830  1.0300 -0.1806
  368MOL0     H50730   0.670   2.724  10.089  0.0940 -2.0930  0.4256
  368MOL0     H50731   0.892   2.700   9.941  3.0438  0.9005  0.3186
  368MOL0     H50732   0.819   2.855   9.994 -0.4566  0.3805  0.8880
  368MOL0     H50733   1.098   2.611  10.019  2.6420 -0.7057  1.2851
  368MOL0     H50734   1.402   2.796  10.145  1.0841  0.0563  1.6665
  368MOL0     H50735   1.355   2.634  10.103 -2.0027  1.4438 -0.9646
  368MOL0     H50736   1.312   2.761  10.386  1.6533  2.0667 -2.1626
  368MOL0     H50737   1.291   2.600  10.348  0.9411  0.9219  1.7289
  368MOL0     H50738   1.510   2.535  10.338 -0.1161 -0.0038 -0.4722
  368MOL0     H50739   1.572   2.707  10.323 -1.3888  1.4086 -0.4149
  368MOL0     H50740   1.614   2.652  10.549  0.2473 -0.8819  1.8408
  368MOL0     H50741   1.470   2.755  10.544  0.7724  0.3598  2.0379
  368MOL0     H50742   1.296   2.345  10.688 -2.2299  1.0754  0.2233
  368MOL0     H50743   1.265   2.188  10.824  1.1774  1.2671 -0.4122
  368MOL0     H50744   1.260   2.224  10.993 -0.9131  1.3260 -0.9874
  368MOL0     H50745   1.399   2.128  10.911 -0.0020 -0.1343  1.7725
  368MOL0     H50746   1.480   2.434  11.379  0.6703 -1.2613 -4.5130
  368MOL0     H50747   1.504   2.299  11.597 -3.3483  0.0651 -2.5922
  368MOL0     H50748   1.913   2.061  11.624 -0.6364 -0.2608 -3.2075
  368MOL0     H50749   1.821   2.019  11.763  0.3694 -2.1091 -0.2044
  368MOL0     H50750   1.685   1.942  11.502  0.1639  1.5248  0.7000
  368MOL0     H50751   1.847   1.879  11.530  0.0127 -1.7840  0.3310
  368MOL0     H50752   1.659   1.718  11.622 -2.6002  0.0056  2.3125
  368MOL0     H50753   1.632   1.834  11.742 -0.8047  0.7663 -2.0320
  368MOL0     H50754   1.878   1.805  11.806  1.8556  1.5042 -3.0393
  368MOL0     H50755   1.906   1.693  11.675  0.8861  0.1093  0.7267
  368MOL0     H50756   1.758   1.605  11.914  0.9944  0.4527 -0.2193
  368MOL0     H50757   1.709   1.548  11.754 -0.6638 -0.9868  1.7251
  368MOL0     H50758   2.000   1.558  11.855 -1.9481  1.3920  3.0042
  368MOL0     H50759   1.931   1.486  11.704 -1.7527  1.2978 -0.1914
  368MOL0     H50760   1.880   1.376  11.990 -3.4264 -0.6169 -0.9023
  368MOL0     H50761   2.007   1.326  11.883  0.1196  0.7470 -1.0204
  368MOL0     H50762   1.844   1.266  11.703  1.0667 -0.0607  0.7646
  368MOL0     H50763   1.716   1.313  11.824  0.1254 -0.2188  3.3269
  368MOL0     H50764   1.858   2.112  11.411  1.1925  1.5896 -4.0334
  368MOL0     H50765   1.822   2.261  11.211 -3.0046  1.9271 -2.4302
  368MOL0     H50766   1.608   2.580  10.989  1.0596 -1.0498 -1.3916
  368MOL0     H50767   1.575   2.667  10.757  3.5679 -1.1564  0.8905
  368MOL0     H50768   1.067   2.483  10.494 -2.3553 -3.0180 -0.4362
  368MOL0     H50769   1.072   2.736  10.464 -1.4802  0.7096 -2.5313
  368MOL0     H50770   0.941   3.099  10.368 -2.0355  1.7423 -1.2377
  368MOL0     H50771   0.945   3.342  10.308 -0.8678 -1.8330 -0.8161
  368MOL0     H50772   1.094   3.725  10.442  2.1803  0.6851  0.4012
  368MOL0     H50773   1.110   3.632  10.594  0.7373 -1.0840  0.1029
  368MOL0     H50774   1.279   3.478  10.452  2.3049 -0.2077 -2.4040
  368MOL0     H50775   1.324   3.636  10.528  1.3869 -2.4246  0.5147
  368MOL0     H50776   1.256   3.571  10.249  3.4394 -3.0504 -0.3642
  368MOL0     H50777   1.276   3.741  10.303 -1.7234 -0.8439  0.2773
  368MOL0     H50778   1.466   3.506  10.287  1.7015  0.2581  0.7124
  368MOL0     H50779   1.510   3.665  10.370  1.3237  2.2560 -1.7877
  368MOL0     H50780   1.498   3.745   9.956 -0.2256 -0.3919  0.0230
  368MOL0     H50781   1.024   3.455  10.706  1.8992 -1.2334  1.6565
  368MOL0     H50782   0.886   3.202  10.871 -1.8117  1.8992 -1.8725
  368MOL0     H50783   1.052   3.144  10.851  0.5816  1.2591  1.2147
  368MOL0     H50784   1.030   3.314  10.878  1.8948 -0.6520 -1.1852
  369MOL0     O50785   9.471   9.130   3.107 -0.1570  0.0418  0.6011
  369MOL0     C50786   9.447   9.069   3.008  0.3410  0.1583 -0.3921
  369MOL0     O50787   9.506   9.082   2.886 -0.7493  0.2354  0.0841
  369MOL0     C50788   9.589   9.190   2.861 -0.5143  0.7166  0.6010
  369MOL0     C50789   9.702   9.165   2.784 -0.4049 -0.0883 -0.5161
  369MOL0     C50790   9.802   9.260   2.786  0.3276 -0.5818  0.0756
  369MOL0     C50791   9.782   9.390   2.826  0.3224 -0.5975  0.2236
  369MOL0     O50792   9.882   9.483   2.823  0.1060 -0.7677 -0.6607
  369MOL0     C50793   9.898   9.544   2.695  0.0041 -0.5899 -0.8917
  369MOL0     C50794   9.783   9.640   2.677  0.1478 -0.7651 -0.0767
  369MOL0     C50795   9.784   9.741   2.800  0.5465  0.5940 -0.4521
  369MOL0     C50796   9.706   9.872   2.768  0.1376 -0.0860  0.4934
  369MOL0     C50797   9.662   9.945   2.894  1.0416  0.0518  0.1215
  369MOL0     C50798   9.529   9.890   2.952 -0.0238  1.1975 -0.0041
  369MOL0     C50799   9.409   9.928   2.867 -0.2384 -0.4483  0.8289
  369MOL0     C50800   9.297   9.996   2.944  0.6298 -0.2061 -0.1062
  369MOL0     N50801   9.315  10.137   2.992  0.2928 -0.4837 -0.0965
  369MOL0     C50802   9.410  10.180   3.081 -0.1751 -0.4860 -0.2203
  369MOL0     C50803   9.363  10.300   3.125 -0.6581 -0.5443  0.5890
  369MOL0     C50804   9.434  10.381   3.230  0.1990  0.1593 -0.5526
  369MOL0     C50805   9.561  10.455   3.181 -0.0275  0.3540  0.0422
  369MOL0     C50806   9.633  10.535   3.291  0.5483 -0.1843  0.7329
  369MOL0     C50807   9.562  10.654   3.344  0.5896  0.6804 -0.4401
  369MOL0     O50808   9.517  10.731   3.235  0.4034 -1.3908  0.2388
  369MOL0     C50809   9.544  10.863   3.222 -0.4107 -1.0789 -0.0989
  369MOL0     C50810   9.635  10.939   3.305 -0.1227  0.2034 -0.4401
  369MOL0     C50811   9.650  11.071   3.284 -0.5463 -0.6176 -0.3929
  369MOL0     C50812   9.753  11.145   3.370 -0.2848 -0.3560 -0.8062
  369MOL0     C50813   9.569  11.146   3.200 -0.7680  0.1890  0.1860
  369MOL0     C50814   9.590  11.290   3.154 -0.3680  0.0436 -0.0821
  369MOL0     O50815   9.482  11.358   3.103 -0.3776 -0.7058  0.4942
  369MOL0     C50816   9.512  11.492   3.084 -0.1763 -0.2187  0.2120
  369MOL0     C50817   9.436  11.579   3.159  0.1819 -1.2904 -0.0334
  369MOL0     C50818   9.447  11.713   3.143 -0.6606  0.4257  0.1583
  369MOL0     C50819   9.554  11.766   3.075 -0.0694  0.2246 -0.3200
  369MOL0     O50820   9.593  11.895   3.069 -0.3853 -0.2166 -0.1911
  369MOL0     C50821   9.557  11.976   3.192  0.2477  1.3571  0.9414
  369MOL0     C50822   9.655  12.088   3.210 -0.3063 -0.2569 -0.6182
  369MOL0     C50823   9.647  12.157   3.340 -0.1494  0.2362 -0.2912
  369MOL0     C50824   9.527  12.240   3.356  1.4446  0.5573  0.2334
  369MOL0     C50825   9.544  12.341   3.470  0.5761  0.2303  0.5142
  369MOL0     C50826   9.397  12.386   3.519 -0.1135  0.2649 -0.2131
  369MOL0     C50827   9.348  12.514   3.452 -0.3079 -0.1190 -0.3211
  369MOL0     C50828   9.208  12.579   3.496  0.2319  0.9464  1.0269
  369MOL0    Cl50829   9.079  12.484   3.413 -0.3048 -0.5462 -0.3974
  369MOL0     C50830   9.612  11.676   2.986  0.1781 -0.5803  1.0842
  369MOL0     C50831   9.592  11.542   2.985  0.1088  0.9667 -0.3035
  369MOL0     O50832   9.704  11.340   3.183  0.2190 -0.4659  0.4183
  369MOL0     C50833   9.469  11.075   3.128 -1.1100 -0.2773 -0.7883
  369MOL0     C50834   9.465  10.933   3.127  0.8417 -0.8493 -0.7130
  369MOL0     N50835   9.248  10.329   3.065  1.1158 -0.4267  1.2828
  369MOL0     N50836   9.213  10.232   2.983  0.0433 -0.3320 -0.4153
  369MOL0     C50837   9.658   9.417   2.887 -0.5205 -0.3839 -0.1465
  369MOL0     C50838   9.565   9.321   2.912  0.5519  0.8680  0.3522
  369MOL0     C50839   9.334   8.965   3.021  0.0362  0.4765 -0.4022
  369MOL0     C50840   9.335   8.869   2.915  0.0409  0.3085  0.3619
  369MOL0     C50841   9.232   8.774   2.904 -0.6542 -0.7942  0.9706
  369MOL0     C50842   9.124   8.778   2.992 -0.6489  0.1827  0.5359
  369MOL0     O50843   9.021   8.695   2.968  0.2719 -0.1597 -0.0618
  369MOL0     C50844   9.034   8.570   2.901  0.6506  0.2076  0.2948
  369MOL0     C50845   8.907   8.485   2.874  0.5809 -0.0596  0.5270
  369MOL0     C50846   8.843   8.557   2.752  0.6322 -0.0448  0.1058
  369MOL0     C50847   8.737   8.473   2.692  1.2741 -0.9154 -0.5023
  369MOL0     C50848   8.635   8.438   2.786  0.4436 -0.8953 -0.1247
  369MOL0     C50849   8.550   8.421   2.869  1.1779  0.4852 -0.2934
  369MOL0     C50850   9.129   8.876   3.093 -0.3495  0.4594 -0.3492
  369MOL0     C50851   9.224   8.980   3.107 -0.5439  0.5166 -0.3856
  369MOL0     C50852   9.204   9.094   3.205 -0.4790  0.3878 -0.0835
  369MOL0     H50853   9.727   9.066   2.748  1.0510 -0.2007  0.7135
  369MOL0     H50854   9.902   9.244   2.746  0.3508 -0.0857 -0.0736
  369MOL0     H50855   9.894   9.462   2.623  1.6994 -0.9695 -0.5742
  369MOL0     H50856  10.002   9.577   2.687  1.6729 -4.5750  1.4005
  369MOL0     H50857   9.792   9.703   2.588 -1.2882  0.8986  0.9186
  369MOL0     H50858   9.697   9.575   2.658  0.5163 -0.3397 -4.1546
  369MOL0     H50859   9.745   9.691   2.889  2.7465 -0.0754  0.1814
  369MOL0     H50860   9.885   9.768   2.832 -0.0265 -0.4763  2.6529
  369MOL0     H50861   9.782   9.944   2.737 -0.0837  0.0934  0.3658
  369MOL0     H50862   9.632   9.859   2.688  0.2500  3.2253 -0.2904
  369MOL0     H50863   9.662  10.054   2.887 -0.0203  0.1793  1.6272
  369MOL0     H50864   9.739   9.925   2.970 -0.2928  2.5041  2.2577
  369MOL0     H50865   9.539   9.781   2.958  3.6314  1.4975  2.6248
  369MOL0     H50866   9.522   9.921   3.057  0.6743 -1.8374  1.0311
  369MOL0     H50867   9.373   9.833   2.827  3.2716 -2.2296  1.4619
  369MOL0     H50868   9.440   9.984   2.779 -0.5465 -2.7805 -0.8774
  369MOL0     H50869   9.216   9.996   2.872  2.4366 -0.5561 -2.2577
  369MOL0     H50870   9.271   9.944   3.036  0.7818  2.1301  1.3474
  369MOL0     H50871   9.497  10.125   3.114 -1.0834 -3.0221 -1.7522
  369MOL0     H50872   9.474  10.319   3.311  2.3035  2.7922  0.6054
  369MOL0     H50873   9.353  10.442   3.272  0.4549 -0.3380  0.6956
  369MOL0     H50874   9.619  10.372   3.139 -0.5109 -1.2206  2.2407
  369MOL0     H50875   9.557  10.522   3.095  2.1854 -1.1613 -1.3370
  369MOL0     H50876   9.662  10.467   3.372 -0.7251  0.0602  1.4195
  369MOL0     H50877   9.728  10.561   3.243 -0.0815  1.0267  0.1032
  369MOL0     H50878   9.474  10.634   3.405  3.0766 -0.3277  3.1230
  369MOL0     H50879   9.639  10.703   3.404 -1.0145  1.5897  0.9442
  369MOL0     H50880   9.689  10.892   3.386 -0.5362 -1.7932 -1.2470
  369MOL0     H50881   9.772  11.088   3.461 -2.3462 -0.2427 -0.2495
  369MOL0     H50882   9.726  11.248   3.397  1.2574 -0.1672  0.1889
  369MOL0     H50883   9.854  11.143   3.327  0.7260 -1.8759  1.4327
  369MOL0     H50884   9.356  11.547   3.225 -1.7200 -1.7203 -2.3887
  369MOL0     H50885   9.376  11.782   3.185 -1.7168 -0.2212 -0.5187
  369MOL0     H50886   9.454  12.013   3.189 -0.7992 -1.3233 -1.4591
  369MOL0     H50887   9.585  11.911   3.275  0.1372 -2.8164 -1.9449
  369MOL0     H50888   9.753  12.041   3.190 -0.5728 -0.1075 -2.5010
  369MOL0     H50889   9.650  12.162   3.130  0.0140 -1.0090 -1.3629
  369MOL0     H50890   9.740  12.214   3.353  1.0913 -1.3300 -1.8516
  369MOL0     H50891   9.641  12.081   3.418  0.7207  0.8038  0.3538
  369MOL0     H50892   9.443  12.171   3.364  0.8813  1.3076  0.7852
  369MOL0     H50893   9.527  12.300   3.264 -2.1502  0.2772 -0.0932
  369MOL0     H50894   9.595  12.299   3.557  0.7717  0.0957  0.3396
  369MOL0     H50895   9.603  12.423   3.427 -0.1557 -0.3212 -1.7180
  369MOL0     H50896   9.409  12.418   3.623  2.6804  4.0728 -1.4548
  369MOL0     H50897   9.324  12.305   3.512  2.6045 -2.3324 -0.4335
  369MOL0     H50898   9.338  12.490   3.346 -0.0644 -5.8619  0.6825
  369MOL0     H50899   9.432  12.584   3.459  1.0869 -1.3899 -2.9326
  369MOL0     H50900   9.206  12.677   3.447  0.3205 -0.4949 -2.0974
  369MOL0     H50901   9.196  12.582   3.605  2.5380 -3.0481  1.5948
  369MOL0     H50902   9.695  11.709   2.925  0.8510 -3.9182  0.0063
  369MOL0     H50903   9.658  11.474   2.932 -0.1010  1.8154 -1.7008
  369MOL0     H50904   9.402  11.134   3.066 -1.6557  3.0290  2.5733
  369MOL0     H50905   9.398  10.877   3.062  0.2911 -1.7197  0.5796
  369MOL0     H50906   9.625   9.516   2.916  0.0294 -0.5381  1.0467
  369MOL0     H50907   9.486   9.336   2.985 -1.3606 -2.6737 -0.7694
  369MOL0     H50908   9.419   8.865   2.846  1.8604  0.5760  2.4651
  369MOL0     H50909   9.241   8.708   2.819  0.9026  2.3317 -1.4906
  369MOL0     H50910   9.073   8.595   2.803 -1.9928 -0.3885 -1.0000
  369MOL0     H50911   9.093   8.496   2.956  1.2617  1.0041  0.7320
  369MOL0     H50912   8.852   8.478   2.968  0.4332  0.0967  0.4546
  369MOL0     H50913   8.935   8.384   2.844 -3.3008 -0.5666 -2.2254
  369MOL0     H50914   8.793   8.649   2.784  0.8403 -0.4745  1.7544
  369MOL0     H50915   8.906   8.570   2.663  0.2493 -2.4542 -0.5722
  369MOL0     H50916   8.780   8.387   2.639 -0.1376 -2.1632  0.2679
  369MOL0     H50917   8.681   8.526   2.614  0.9860  0.7692  0.8021
  369MOL0     H50918   8.474   8.410   2.944  0.7844 -2.0039 -0.9725
  369MOL0     H50919   9.053   8.872   3.171  0.8324 -0.5034  0.7900
  369MOL0     H50920   9.115   9.075   3.266  2.0040 -3.4044  2.8379
  369MOL0     H50921   9.299   9.095   3.259 -0.9691  2.1563  0.8213
  369MOL0     H50922   9.202   9.188   3.148  1.0006  1.3373  1.3339
  370MOL0     O50923   3.523   7.885   0.531  0.0807 -0.3945 -0.5295
  370MOL0     C50924   3.494   7.781   0.589 -0.5685  0.3119  0.1633
  370MOL0     O50925   3.592   7.696   0.630  0.2871  0.0914 -0.3101
  370MOL0     C50926   3.729   7.700   0.601  0.2485  0.3995 -1.3885
  370MOL0     C50927   3.803   7.601   0.663 -0.2399 -0.1370 -0.7719
  370MOL0     C50928   3.943   7.600   0.656 -0.6370 -0.2650  0.0441
  370MOL0     C50929   4.012   7.676   0.562 -0.1482  0.3885  0.0397
  370MOL0     O50930   4.150   7.681   0.535  0.0506  0.0814 -0.3007
  370MOL0     C50931   4.227   7.567   0.559  0.0076  0.2179  0.0629
  370MOL0     C50932   4.376   7.602   0.548  1.0375 -0.1745 -0.1360
  370MOL0     C50933   4.471   7.477   0.568 -0.8640 -0.1665 -0.4426
  370MOL0     C50934   4.617   7.520   0.586 -0.3701 -1.1751 -0.5307
  370MOL0     C50935   4.726   7.418   0.599 -0.0588  0.1026 -0.2050
  370MOL0     C50936   4.826   7.448   0.711 -0.5499 -0.1612  0.9380
  370MOL0     C50937   4.940   7.349   0.726  0.2585  0.2911  0.6061
  370MOL0     C50938   5.058   7.357   0.622  0.4046 -0.0003 -0.7493
  370MOL0     N50939   5.009   7.298   0.494 -0.7386  0.0082 -0.1478
  370MOL0     C50940   5.004   7.356   0.375  0.1861 -0.1509  0.9439
  370MOL0     C50941   4.943   7.268   0.292  0.6252 -1.3147  0.7593
  370MOL0     C50942   4.902   7.273   0.136 -0.1263  0.7491 -0.4640
  370MOL0     C50943   4.843   7.408   0.101  0.0460  0.0949 -0.0154
  370MOL0     C50944   4.704   7.416   0.149 -0.2029 -0.1091 -0.8994
  370MOL0     C50945   4.650   7.554   0.106  0.0391 -0.4497  0.4247
  370MOL0     O50946   4.513   7.548   0.147 -0.0195  0.4983  0.0144
  370MOL0     C50947   4.436   7.671   0.151  0.2024  0.2755  0.8257
  370MOL0     C50948   4.491   7.794   0.117  0.2806 -0.3631 -0.5345
  370MOL0     C50949   4.418   7.913   0.141 -0.9091  0.1901  0.0243
  370MOL0     C50950   4.486   8.037   0.118 -0.0177 -0.5714 -0.2995
  370MOL0     C50951   4.283   7.911   0.189  0.5957 -1.0613  0.2949
  370MOL0     C50952   4.192   8.033   0.221  0.1411 -0.5568 -0.9209
  370MOL0     O50953   4.064   8.007   0.253  0.4131  0.1611  0.2088
  370MOL0     C50954   3.970   8.083   0.188  1.2714  0.1498  0.0379
  370MOL0     C50955   3.988   8.140   0.062  0.1169 -0.9282 -0.3100
  370MOL0     C50956   3.890   8.205  -0.013 -1.1661  0.4081 -0.0909
  370MOL0     C50957   3.757   8.210   0.037  0.0162 -0.0273 -0.2172
  370MOL0     O50958   3.659   8.258  -0.038 -0.3919 -0.2760  0.0336
  370MOL0     C50959   3.622   8.391   0.010 -0.8655 -0.2236  0.2072
  370MOL0     C50960   3.549   8.479  -0.087  0.0994  0.4359  0.0511
  370MOL0     C50961   3.442   8.399  -0.164  0.3738 -0.4062 -0.4341
  370MOL0     C50962   3.337   8.343  -0.070 -0.3253 -0.2573  0.1248
  370MOL0     C50963   3.261   8.227  -0.146  0.3706  0.2268 -1.3191
  370MOL0     C50964   3.171   8.166  -0.038  0.4154 -0.1477  0.7503
  370MOL0     C50965   3.109   8.032  -0.081 -0.5273  0.7296 -0.1590
  370MOL0     C50966   3.062   7.942   0.037  0.0675 -0.5141  0.6478
  370MOL0    Cl50967   2.935   8.034   0.120  0.2131  0.0784 -0.7683
  370MOL0     C50968   3.738   8.150   0.164  0.9172 -0.2469  0.5149
  370MOL0     C50969   3.840   8.096   0.245 -0.6482  0.6016  0.2897
  370MOL0     O50970   4.235   8.147   0.198 -0.6018  0.0643  0.0588
  370MOL0     C50971   4.228   7.784   0.227 -0.4642 -1.1236 -0.6653
  370MOL0     C50972   4.309   7.667   0.196 -0.7303 -0.4264 -0.1322
  370MOL0     N50973   4.913   7.152   0.362 -0.4008 -0.3630 -0.0630
  370MOL0     N50974   4.956   7.173   0.488  0.3440 -0.2291  0.1987
  370MOL0     C50975   3.932   7.768   0.490 -0.3539 -0.1809  0.0045
  370MOL0     C50976   3.792   7.782   0.504  0.2209  0.3600  0.0305
  370MOL0     C50977   3.356   7.749   0.642  0.8367  0.6143 -0.3447
  370MOL0     C50978   3.339   7.630   0.704 -0.5318  0.4696  0.4453
  370MOL0     C50979   3.219   7.593   0.743  0.1824  0.9602  0.0668
  370MOL0     C50980   3.103   7.671   0.730  0.3481  0.3869  0.1170
  370MOL0     O50981   2.975   7.624   0.755 -0.5124  0.5648 -0.0404
  370MOL0     C50982   2.946   7.482   0.768 -0.5711 -0.2780  0.1732
  370MOL0     C50983   2.808   7.456   0.747  0.7347  0.8796  0.5597
  370MOL0     C50984   2.762   7.460   0.593 -0.9291  0.3557 -1.4761
  370MOL0     C50985   2.621   7.411   0.574  0.7358 -0.0111 -0.9308
  370MOL0     C50986   2.618   7.262   0.580  0.4495 -0.1607  0.0077
  370MOL0     C50987   2.616   7.142   0.607  0.5261  0.2068  0.6604
  370MOL0     C50988   3.118   7.789   0.669 -0.3907 -0.0544  0.3780
  370MOL0     C50989   3.238   7.828   0.620  0.4841 -0.4540  0.7911
  370MOL0     C50990   3.238   7.964   0.548  0.1999 -0.0011 -0.6903
  370MOL0     H50991   3.775   7.519   0.728  1.9843 -1.0042 -0.8177
  370MOL0     H50992   4.012   7.533   0.706 -0.7016  1.6677  2.9705
  370MOL0     H50993   4.196   7.484   0.496 -0.3903  0.4869 -0.0999
  370MOL0     H50994   4.211   7.533   0.662 -0.6448 -0.1608 -0.1571
  370MOL0     H50995   4.399   7.636   0.446 -1.6848 -1.4139 -1.2691
  370MOL0     H50996   4.386   7.677   0.626  0.2019 -0.7573  0.5486
  370MOL0     H50997   4.448   7.417   0.657  1.5437  0.0807  0.4281
  370MOL0     H50998   4.463   7.409   0.482 -0.5047  0.5565 -1.0511
  370MOL0     H50999   4.644   7.567   0.491 -4.1733  1.4413 -0.5422
  370MOL0     H51000   4.620   7.589   0.671 -1.1911 -1.5872 -0.1602
  370MOL0     H51001   4.775   7.399   0.503 -2.5118 -0.1009 -1.5050
  370MOL0     H51002   4.680   7.322   0.627  0.3343  0.2965  1.1603
  370MOL0     H51003   4.874   7.546   0.706 -1.8230  0.4372 -0.3426
  370MOL0     H51004   4.777   7.462   0.808 -2.0161  2.4432 -0.0723
  370MOL0     H51005   4.893   7.251   0.736  0.5095  0.2967  2.0779
  370MOL0     H51006   4.984   7.356   0.826  0.2190 -0.8087  0.7063
  370MOL0     H51007   5.091   7.460   0.613 -0.7854  0.2860 -2.2443
  370MOL0     H51008   5.129   7.294   0.677  0.2388  2.0424  1.9837
  370MOL0     H51009   5.015   7.462   0.351  1.7540  0.1982  2.9620
  370MOL0     H51010   4.834   7.194   0.100  3.0315 -1.4710 -1.9915
  370MOL0     H51011   4.992   7.248   0.080  0.6918 -2.5587  1.9861
  370MOL0     H51012   4.910   7.482   0.146  1.7387 -1.6301  0.4737
  370MOL0     H51013   4.838   7.417  -0.008  0.7409  0.5137 -0.0206
  370MOL0     H51014   4.657   7.326   0.109  1.4899 -1.3234 -0.2594
  370MOL0     H51015   4.699   7.399   0.257 -1.9273 -1.4017 -1.1495
  370MOL0     H51016   4.718   7.626   0.153 -1.0704 -0.8603  2.7828
  370MOL0     H51017   4.655   7.567  -0.003  0.7207 -0.5327  0.4444
  370MOL0     H51018   4.594   7.794   0.085  1.4433 -0.9044  2.8280
  370MOL0     H51019   4.484   8.093   0.212 -0.7034 -1.2098  0.0815
  370MOL0     H51020   4.423   8.088   0.045  0.2427  1.9969  1.1433
  370MOL0     H51021   4.589   8.025   0.085 -0.2376 -0.3089 -1.0928
  370MOL0     H51022   4.083   8.137   0.009  0.8180 -0.9319  0.9045
  370MOL0     H51023   3.909   8.232  -0.117  0.8310  0.3491  0.2111
  370MOL0     H51024   3.568   8.376   0.104 -1.4136  1.5670  0.2190
  370MOL0     H51025   3.710   8.451   0.036 -0.8738 -0.4660  0.8181
  370MOL0     H51026   3.500   8.555  -0.025  0.1969  0.2790  0.3189
  370MOL0     H51027   3.627   8.519  -0.153  1.4146 -0.9237  0.7255
  370MOL0     H51028   3.499   8.319  -0.212  1.2043 -0.0035 -0.1473
  370MOL0     H51029   3.399   8.456  -0.246  1.5442 -0.3949 -1.0653
  370MOL0     H51030   3.270   8.423  -0.037  0.0865  0.4723 -0.7582
  370MOL0     H51031   3.392   8.307   0.017  2.5243  2.6729 -0.2351
  370MOL0     H51032   3.189   8.248  -0.225  2.0412 -2.2637 -3.6510
  370MOL0     H51033   3.328   8.149  -0.185  0.9339  0.7259 -1.3686
  370MOL0     H51034   3.094   8.240  -0.011 -0.9584 -2.1386  2.6717
  370MOL0     H51035   3.229   8.143   0.052  2.3879 -0.1976 -0.4848
  370MOL0     H51036   3.188   7.971  -0.127 -0.2045  0.8742  0.1939
  370MOL0     H51037   3.025   8.049  -0.148 -1.5221  0.9321  1.1039
  370MOL0     H51038   3.146   7.921   0.103 -2.3270  0.1994  4.2114
  370MOL0     H51039   3.007   7.849   0.015 -0.8670  0.0522  0.5319
  370MOL0     H51040   3.641   8.151   0.211  1.4708 -0.5609  1.7191
  370MOL0     H51041   3.828   8.043   0.339  1.2434  1.1896  0.8967
  370MOL0     H51042   4.131   7.775   0.275 -1.4697  2.7291 -1.6370
  370MOL0     H51043   4.274   7.567   0.219 -3.2492 -0.1633 -2.3775
  370MOL0     H51044   3.980   7.832   0.416 -0.6184 -1.3659 -1.2262
  370MOL0     H51045   3.736   7.855   0.446 -0.9457  0.4420  1.2148
  370MOL0     H51046   3.425   7.566   0.723  0.3823  0.8290 -2.1611
  370MOL0     H51047   3.212   7.497   0.793  0.8695 -0.6426 -2.6773
  370MOL0     H51048   3.014   7.422   0.707 -0.1438 -2.8115  2.9052
  370MOL0     H51049   2.981   7.463   0.870 -0.0802  0.9954  0.2574
  370MOL0     H51050   2.747   7.516   0.816  1.7532 -0.7306  3.0120
  370MOL0     H51051   2.787   7.358   0.791  2.9884 -0.2051 -0.6393
  370MOL0     H51052   2.753   7.567   0.572  0.2277  1.1327  1.4413
  370MOL0     H51053   2.839   7.420   0.527  1.2804  0.5409  0.8286
  370MOL0     H51054   2.574   7.428   0.476 -1.4217 -2.7480 -0.4794
  370MOL0     H51055   2.560   7.433   0.662  2.6216  0.3867  0.3210
  370MOL0     H51056   2.611   7.040   0.639 -1.3701 -0.1575 -0.6199
  370MOL0     H51057   3.027   7.847   0.658 -0.6424 -0.4090  0.5587
  370MOL0     H51058   3.135   8.000   0.537  0.5989  1.5018  0.1997
  370MOL0     H51059   3.284   8.037   0.614  0.1747 -0.3823 -0.2442
  370MOL0     H51060   3.287   7.964   0.450  1.8471 -1.4549  0.0801
  371MOL0     O51061   9.219   1.034   2.258 -0.1792  0.3250 -0.5408
  371MOL0     C51062   9.338   1.018   2.292 -0.7569 -0.2831  0.4534
  371MOL0     O51063   9.425   1.120   2.303 -1.1825 -0.5860 -0.2440
  371MOL0     C51064   9.384   1.253   2.303  0.3105 -0.0960 -0.6399
  371MOL0     C51065   9.261   1.301   2.345  0.7600 -0.9196 -0.1914
  371MOL0     C51066   9.240   1.434   2.345  0.1418  0.2016  0.3756
  371MOL0     C51067   9.332   1.522   2.318  0.4941 -0.0890 -0.0062
  371MOL0     O51068   9.301   1.652   2.339 -0.4547 -0.1787  0.7814
  371MOL0     C51069   9.376   1.704   2.444  0.3136 -0.5291 -0.3790
  371MOL0     C51070   9.333   1.843   2.462 -0.3200  0.0591  0.3593
  371MOL0     C51071   9.181   1.860   2.503 -0.3733 -0.2883  0.0996
  371MOL0     C51072   9.122   1.998   2.502 -0.7423 -0.2342  0.4020
  371MOL0     C51073   8.976   2.002   2.531 -0.5737  0.2162  0.2125
  371MOL0     C51074   8.918   2.142   2.552  0.2349 -0.0051  0.5998
  371MOL0     C51075   8.764   2.139   2.571 -0.0945  0.1949  0.4062
  371MOL0     C51076   8.700   2.276   2.571  0.6527 -0.4205  0.3501
  371MOL0     N51077   8.552   2.266   2.594 -0.6386  0.5589  0.0570
  371MOL0     C51078   8.460   2.278   2.502  0.6068 -0.0357  0.4608
  371MOL0     C51079   8.346   2.260   2.573  0.2873 -0.4037 -0.6453
  371MOL0     C51080   8.206   2.269   2.526  0.8507 -0.2759 -0.0275
  371MOL0     C51081   8.157   2.402   2.463  0.3506 -0.3707 -0.1432
  371MOL0     C51082   8.011   2.425   2.474  0.0263 -1.2531  0.9566
  371MOL0     C51083   7.973   2.463   2.616  0.6671 -0.1802 -0.1918
  371MOL0     O51084   7.831   2.469   2.617  0.5497  0.8303 -0.5397
  371MOL0     C51085   7.770   2.572   2.687  0.2071  0.4108 -0.1295
  371MOL0     C51086   7.763   2.563   2.826 -0.4491  0.1516  0.1909
  371MOL0     C51087   7.693   2.663   2.896 -0.5249  0.2637  0.2402
  371MOL0     C51088   7.665   2.624   3.037  0.5662 -0.6423 -0.4375
  371MOL0     C51089   7.627   2.770   2.831  0.4006 -0.3187  0.3663
  371MOL0     C51090   7.539   2.872   2.902  0.2581 -0.3199 -0.4515
  371MOL0     O51091   7.451   2.932   2.813 -0.5965 -1.2136 -0.1146
  371MOL0     C51092   7.368   3.030   2.859  0.3778 -0.0311  1.5204
  371MOL0     C51093   7.234   3.010   2.839 -0.2714 -0.9881 -0.2887
  371MOL0     C51094   7.150   3.118   2.876 -0.7554  0.3860 -0.1146
  371MOL0     C51095   7.203   3.232   2.934 -0.6042 -0.2580  1.5265
  371MOL0     O51096   7.131   3.348   2.954  0.0027  0.1626 -0.3781
  371MOL0     C51097   6.991   3.350   2.957  0.6349 -0.8136  0.0161
  371MOL0     C51098   6.947   3.496   2.948  0.3107 -0.6165 -0.6721
  371MOL0     C51099   6.930   3.563   3.079 -0.6328  0.4226  0.0673
  371MOL0     C51100   6.931   3.713   3.049 -0.1018  0.7522  0.7935
  371MOL0     C51101   6.877   3.808   3.161 -0.3364  0.2311 -0.5509
  371MOL0     C51102   6.922   3.953   3.142 -0.2363  0.0451  0.7066
  371MOL0     C51103   6.902   4.034   3.269 -0.9636 -0.6609  0.2629
  371MOL0     C51104   6.984   4.165   3.262 -0.4084  0.7791  0.0147
  371MOL0    Cl51105   7.137   4.144   3.350  0.5049  0.0985 -0.3826
  371MOL0     C51106   7.339   3.250   2.940 -0.0520 -0.2385 -0.3382
  371MOL0     C51107   7.416   3.149   2.895 -1.1910 -0.2431 -0.8467
  371MOL0     O51108   7.560   2.913   3.019  0.8266  0.0075 -0.6022
  371MOL0     C51109   7.639   2.775   2.691  0.0947 -0.4993 -0.8289
  371MOL0     C51110   7.706   2.673   2.618  1.2562 -0.0336 -0.0266
  371MOL0     N51111   8.374   2.212   2.705  0.1258  0.4965  0.6702
  371MOL0     N51112   8.500   2.218   2.716  0.4639  1.2286 -0.1152
  371MOL0     C51113   9.453   1.475   2.260 -0.4913 -0.7314  0.9649
  371MOL0     C51114   9.482   1.342   2.253 -0.0238  0.5330 -0.3012
  371MOL0     C51115   9.387   0.879   2.311  0.9478  0.5037 -0.1953
  371MOL0     C51116   9.458   0.843   2.428  0.4757 -0.4088 -0.6288
  371MOL0     C51117   9.502   0.709   2.459  0.8239 -0.9526 -0.6946
  371MOL0     C51118   9.484   0.610   2.363  0.0142  0.5741  0.4262
  371MOL0     O51119   9.551   0.489   2.367  0.6490 -0.0389 -0.3204
  371MOL0     C51120   9.493   0.401   2.469  0.2797 -0.4593 -0.8245
  371MOL0     C51121   9.531   0.255   2.441 -0.5091  0.1417  0.5277
  371MOL0     C51122   9.468   0.156   2.553  0.4511 -1.1336  0.6415
  371MOL0     C51123   9.367   0.060   2.485  1.0627 -0.5687 -0.8196
  371MOL0     C51124   9.423  -0.043   2.403 -0.5112 -0.5567 -0.8213
  371MOL0     C51125   9.482  -0.116   2.329  0.2206  0.4203 -0.2446
  371MOL0     C51126   9.399   0.637   2.258 -0.6007  0.2324  0.6317
  371MOL0     C51127   9.347   0.768   2.226 -0.0012  0.1298 -0.4394
  371MOL0     C51128   9.245   0.778   2.110  0.5882 -0.5049  0.3151
  371MOL0     H51129   9.191   1.227   2.383  3.3585 -4.4201 -1.5684
  371MOL0     H51130   9.145   1.473   2.379  0.2779  3.3894 -2.3360
  371MOL0     H51131   9.483   1.695   2.423  0.6903 -1.4705  1.6759
  371MOL0     H51132   9.353   1.645   2.532 -1.5843 -0.9126 -1.0953
  371MOL0     H51133   9.408   1.895   2.522  1.5705 -0.5851 -1.3296
  371MOL0     H51134   9.349   1.887   2.363 -1.7011 -1.4533 -0.5714
  371MOL0     H51135   9.126   1.804   2.427  0.1037 -0.5687 -0.0460
  371MOL0     H51136   9.173   1.803   2.596  3.1079  0.3373  0.9484
  371MOL0     H51137   9.188   2.046   2.575  3.3494  0.3439 -3.1953
  371MOL0     H51138   9.136   2.057   2.410  0.1586  0.9588  1.2743
  371MOL0     H51139   8.971   1.941   2.622  2.0900 -2.0881 -1.0388
  371MOL0     H51140   8.920   1.942   2.459  1.8622 -0.1944 -1.4490
  371MOL0     H51141   8.953   2.201   2.637 -1.7590  1.2214  0.6293
  371MOL0     H51142   8.934   2.213   2.470 -1.4767  0.7066  0.8506
  371MOL0     H51143   8.755   2.081   2.663  4.6707 -3.1343 -0.8315
  371MOL0     H51144   8.721   2.086   2.486  0.4781  0.7623 -0.2463
  371MOL0     H51145   8.742   2.325   2.660  0.6527  2.2062 -0.9997
  371MOL0     H51146   8.720   2.342   2.487 -0.6946 -0.9873 -0.4345
  371MOL0     H51147   8.460   2.298   2.395 -2.6845  0.6443  0.4628
  371MOL0     H51148   8.139   2.227   2.602  2.0414  0.3723  1.4449
  371MOL0     H51149   8.187   2.198   2.446 -1.2811  0.1279  0.0735
  371MOL0     H51150   8.208   2.483   2.517 -0.1624 -1.6660  2.4466
  371MOL0     H51151   8.183   2.405   2.357 -1.0964  2.1809 -0.5218
  371MOL0     H51152   7.968   2.509   2.418  2.1442 -1.4205 -1.0795
  371MOL0     H51153   7.963   2.339   2.425 -1.6156  1.5446 -2.8586
  371MOL0     H51154   7.997   2.390   2.694 -1.6321 -0.2277  0.5340
  371MOL0     H51155   8.027   2.554   2.646  1.4328 -1.1429  1.5196
  371MOL0     H51156   7.804   2.480   2.882  3.6011  2.4479  0.9797
  371MOL0     H51157   7.637   2.709   3.101  0.2076  0.0611 -1.4968
  371MOL0     H51158   7.752   2.579   3.083 -2.6387 -2.9190  4.1852
  371MOL0     H51159   7.582   2.553   3.029 -0.5128  0.4469  0.5986
  371MOL0     H51160   7.198   2.920   2.790  1.3791 -0.3176 -2.9569
  371MOL0     H51161   7.046   3.092   2.856 -1.4181  1.6350  1.4888
  371MOL0     H51162   6.953   3.291   2.873  2.8704  0.8105 -2.2846
  371MOL0     H51163   6.957   3.316   3.055 -0.7750  1.0806  0.2269
  371MOL0     H51164   7.007   3.542   2.869 -1.0693  1.7732 -0.4198
  371MOL0     H51165   6.842   3.488   2.916  0.1083 -0.0656 -0.1478
  371MOL0     H51166   7.029   3.539   3.120  0.6986  1.9616 -2.0594
  371MOL0     H51167   6.843   3.530   3.136 -0.4708  0.5524  0.3899
  371MOL0     H51168   6.876   3.731   2.956 -1.9181 -0.4190  1.5972
  371MOL0     H51169   7.036   3.742   3.035 -0.0444 -0.8787 -3.3659
  371MOL0     H51170   6.768   3.798   3.154 -0.2352 -0.7405 -0.8040
  371MOL0     H51171   6.921   3.779   3.257 -1.3709 -0.2073 -0.2025
  371MOL0     H51172   6.865   4.002   3.062 -1.1173 -1.9088  0.0821
  371MOL0     H51173   7.027   3.954   3.113  0.4373 -1.3476  2.9137
  371MOL0     H51174   6.911   3.980   3.364 -6.0493 -0.6462  1.0035
  371MOL0     H51175   6.797   4.062   3.276 -0.5307  0.6377  2.1060
  371MOL0     H51176   6.926   4.250   3.300  1.1644  2.7555 -1.7745
  371MOL0     H51177   7.012   4.185   3.158  2.5436 -2.0970  0.0803
  371MOL0     H51178   7.388   3.341   2.973 -1.1151  0.9978 -1.9632
  371MOL0     H51179   7.521   3.171   2.910 -1.0776 -1.4469  0.3452
  371MOL0     H51180   7.582   2.848   2.634 -1.4366 -2.7328 -2.2656
  371MOL0     H51181   7.690   2.667   2.511 -0.8513 -1.7114  0.3257
  371MOL0     H51182   9.534   1.546   2.244  0.3486 -2.0133 -0.7825
  371MOL0     H51183   9.573   1.297   2.214 -0.6555 -0.2694 -0.8916
  371MOL0     H51184   9.480   0.920   2.501 -1.3380  1.1558 -1.6282
  371MOL0     H51185   9.581   0.684   2.529  1.9714  0.7855 -1.2960
  371MOL0     H51186   9.539   0.437   2.561  0.3918 -1.6522 -0.3977
  371MOL0     H51187   9.384   0.404   2.472  0.3069  1.0379  1.3854
  371MOL0     H51188   9.640   0.258   2.456 -0.7020  1.8701  1.8473
  371MOL0     H51189   9.506   0.233   2.336  0.6276 -2.9287  0.7877
  371MOL0     H51190   9.548   0.097   2.599  0.0164 -2.5070 -0.3105
  371MOL0     H51191   9.412   0.206   2.633 -2.5930 -0.0706 -1.9417
  371MOL0     H51192   9.306   0.124   2.420  1.1354  0.0752 -0.2640
  371MOL0     H51193   9.299   0.006   2.551  1.5064  3.1509  3.0874
  371MOL0     H51194   9.548  -0.167   2.261  3.2692  0.7707  2.2415
  371MOL0     H51195   9.386   0.553   2.190 -0.9731 -0.3851  1.4503
  371MOL0     H51196   9.234   0.684   2.056  0.6416  0.0340 -0.6525
  371MOL0     H51197   9.146   0.796   2.152 -1.4430 -1.3970 -3.6234
  371MOL0     H51198   9.279   0.850   2.035 -2.8995  1.2461  0.2300
  372MOL0     O51199   9.421   2.178  11.095  0.7392 -0.7983  0.4058
  372MOL0     C51200   9.473   2.079  11.153  0.8338 -0.9663 -0.1386
  372MOL0     O51201   9.399   1.983  11.224 -0.5434  0.4128 -0.3105
  372MOL0     C51202   9.261   1.974  11.230 -0.1055 -0.0717 -0.2363
  372MOL0     C51203   9.168   2.002  11.117  0.2531 -0.3326 -0.3193
  372MOL0     C51204   9.029   1.982  11.135 -0.1679 -1.1725  0.6828
  372MOL0     C51205   8.977   1.950  11.261 -0.3293  0.6245 -0.4601
  372MOL0     O51206   8.844   1.922  11.274 -0.2964  0.4164  0.0900
  372MOL0     C51207   8.755   2.026  11.269  0.0348 -0.0427 -0.2093
  372MOL0     C51208   8.623   1.960  11.263  0.4500  0.5894 -0.6540
  372MOL0     C51209   8.516   2.041  11.342  0.4512  0.8534  0.6930
  372MOL0     C51210   8.364   2.013  11.296  0.0001 -0.0667  0.0288
  372MOL0     C51211   8.262   2.122  11.320  0.9000 -0.1484  0.2924
  372MOL0     C51212   8.227   2.143  11.466  0.3977 -0.6738  0.5235
  372MOL0     C51213   8.318   2.252  11.531  0.8638 -0.4017 -0.0750
  372MOL0     C51214   8.247   2.305  11.663  0.5615 -0.8315  1.1587
  372MOL0     N51215   8.345   2.406  11.734  0.3806  0.7851 -0.3197
  372MOL0     C51216   8.339   2.432  11.865  0.1034  0.5002  0.0590
  372MOL0     C51217   8.464   2.481  11.896 -0.6848 -0.7257 -0.5234
  372MOL0     C51218   8.516   2.496  12.038 -0.8316  0.0862  0.5401
  372MOL0     C51219   8.616   2.397  12.094  0.2431 -1.0351  0.8557
  372MOL0     C51220   8.549   2.268  12.136  0.3021 -0.3995 -0.7620
  372MOL0     C51221   8.641   2.146  12.127 -0.2361 -0.4244 -0.3267
  372MOL0     O51222   8.568   2.021  12.122  0.1492 -0.6419 -0.2968
  372MOL0     C51223   8.624   1.903  12.150  0.4253 -0.1275  0.1692
  372MOL0     C51224   8.572   1.796  12.081 -0.3245  0.7963  0.4073
  372MOL0     C51225   8.649   1.680  12.076 -0.5167  0.3820 -0.6917
  372MOL0     C51226   8.588   1.571  12.000  0.9591 -0.0047 -0.0691
  372MOL0     C51227   8.760   1.656  12.166  0.0939  0.6317  0.1110
  372MOL0     C51228   8.840   1.531  12.181  0.0398  0.5867  0.2016
  372MOL0     O51229   8.896   1.502  12.296  0.6826 -0.2125 -0.7437
  372MOL0     C51230   8.972   1.379  12.314  0.3122  0.8517 -0.8950
  372MOL0     C51231   8.981   1.262  12.234  0.3043 -1.0940 -0.8117
  372MOL0     C51232   9.045   1.148  12.265 -0.9011  0.3350  0.4032
  372MOL0     C51233   9.099   1.131  12.396  0.9840 -0.4908  0.0243
  372MOL0     O51234   9.165   1.011  12.418 -0.2323  0.1415  0.4884
  372MOL0     C51235   9.252   1.010  12.522  0.4384  0.1359 -0.0590
  372MOL0     C51236   9.326   0.878  12.531 -0.3055  0.3792 -0.1028
  372MOL0     C51237   9.419   0.868  12.407  0.8250  0.5621  0.1050
  372MOL0     C51238   9.455   0.717  12.397  0.4165  0.6543  0.8059
  372MOL0     C51239   9.548   0.701  12.279 -0.0947  0.5076 -1.1105
  372MOL0     C51240   9.630   0.570  12.304 -0.7019  0.1596 -0.0930
  372MOL0     C51241   9.737   0.559  12.194  1.3341 -0.0349  1.3170
  372MOL0     C51242   9.795   0.425  12.164  0.3291  0.5149 -0.3392
  372MOL0    Cl51243   9.980   0.420  12.218 -0.1058  0.5327  0.1677
  372MOL0     C51244   9.076   1.238  12.487 -0.5958 -0.5085  0.3059
  372MOL0     C51245   9.020   1.357  12.442  0.4179 -0.4488 -0.8531
  372MOL0     O51246   8.874   1.487  12.074 -0.1249  0.2480 -0.7169
  372MOL0     C51247   8.791   1.759  12.262  0.2258  0.2093  0.7710
  372MOL0     C51248   8.727   1.885  12.252 -0.3506 -0.0649 -0.7485
  372MOL0     N51249   8.537   2.478  11.775 -0.4447  0.1527 -0.5760
  372MOL0     N51250   8.466   2.434  11.683  0.3452  0.7826  0.2932
  372MOL0     C51251   9.059   1.946  11.375 -1.6746  0.7580 -0.3697
  372MOL0     C51252   9.199   1.958  11.359  1.0296  0.4156 -0.4748
  372MOL0     C51253   9.620   2.069  11.162 -1.1674  0.2080  0.5199
  372MOL0     C51254   9.681   1.940  11.193 -0.7269 -0.7316 -0.4581
  372MOL0     C51255   9.819   1.926  11.188  0.9591  0.1899 -0.4053
  372MOL0     C51256   9.907   2.031  11.170  0.2871 -0.4733  0.4807
  372MOL0     O51257  10.039   2.033  11.167  0.6393  0.6500 -0.6588
  372MOL0     C51258  10.107   1.917  11.205  0.4592  0.3572  0.5582
  372MOL0     C51259  10.233   1.910  11.117  0.1288 -0.1146 -0.2638
  372MOL0     C51260  10.314   1.802  11.182 -0.4688 -0.1346  0.7264
  372MOL0     C51261  10.437   1.770  11.093 -0.0881 -0.2419  0.4275
  372MOL0     C51262  10.546   1.756  11.189  0.6014 -0.0677 -0.5956
  372MOL0     C51263  10.640   1.737  11.260 -0.6848  0.3714 -0.1425
  372MOL0     C51264   9.846   2.155  11.145  0.2687 -0.5067 -0.1828
  372MOL0     C51265   9.709   2.179  11.136  0.6070 -0.2101 -0.0739
  372MOL0     C51266   9.664   2.319  11.113 -0.0168  0.5963  0.3884
  372MOL0     H51267   9.210   2.015  11.018  0.8552  0.0079 -0.0202
  372MOL0     H51268   8.958   2.010  11.057  0.3800 -1.7600 -0.0432
  372MOL0     H51269   8.752   2.086  11.178 -3.2621  1.3503  0.6389
  372MOL0     H51270   8.760   2.089  11.358 -2.1806  0.3348 -0.2826
  372MOL0     H51271   8.597   1.932  11.161  2.6754  1.1009 -1.4191
  372MOL0     H51272   8.616   1.866  11.320 -1.3915  1.2489  0.2814
  372MOL0     H51273   8.519   2.035  11.451 -0.2659  0.6079  0.7053
  372MOL0     H51274   8.536   2.145  11.316  2.1566  0.8792  2.0024
  372MOL0     H51275   8.373   1.976  11.193 -0.0388 -0.6856  0.2441
  372MOL0     H51276   8.325   1.925  11.348 -1.2441  0.5861  0.2409
  372MOL0     H51277   8.166   2.091  11.276 -0.8832  3.1070  1.4968
  372MOL0     H51278   8.303   2.210  11.270 -0.7060  0.1582 -0.5763
  372MOL0     H51279   8.121   2.171  11.467 -0.0543 -2.3176  0.6995
  372MOL0     H51280   8.239   2.047  11.516 -2.4930 -1.7947 -0.7134
  372MOL0     H51281   8.333   2.329  11.456  0.2775 -0.3533 -0.1453
  372MOL0     H51282   8.407   2.199  11.567 -1.6001 -2.9630  2.8435
  372MOL0     H51283   8.157   2.360  11.632  2.4180  1.1011 -1.1084
  372MOL0     H51284   8.224   2.223  11.732  0.8662 -0.0334  2.2259
  372MOL0     H51285   8.250   2.421  11.925 -0.1126  1.3157 -0.0985
  372MOL0     H51286   8.421   2.508  12.091 -1.8517  2.2973 -1.6168
  372MOL0     H51287   8.573   2.589  12.038  0.0957 -0.3868 -2.1785
  372MOL0     H51288   8.691   2.394  12.015 -1.5670  1.4425 -1.1236
  372MOL0     H51289   8.674   2.425  12.183 -1.7769  1.1931  1.5875
  372MOL0     H51290   8.504   2.279  12.236 -0.3487  0.0765 -1.0996
  372MOL0     H51291   8.462   2.248  12.073  1.0880 -0.3004 -1.9066
  372MOL0     H51292   8.705   2.155  12.038  1.4867  1.9035  1.0238
  372MOL0     H51293   8.704   2.142  12.216 -1.2422 -1.1596  0.3610
  372MOL0     H51294   8.483   1.817  12.023  0.2719 -0.4182 -1.0048
  372MOL0     H51295   8.592   1.581  11.891  0.9101  0.3212 -0.0439
  372MOL0     H51296   8.485   1.562  12.035  0.7058  0.8309 -0.5618
  372MOL0     H51297   8.629   1.471  12.017 -0.5961 -0.7265 -0.3918
  372MOL0     H51298   8.938   1.270  12.134 -1.2695 -1.8129 -0.2322
  372MOL0     H51299   9.061   1.070  12.191  0.7245  1.9893 -1.0635
  372MOL0     H51300   9.317   1.098  12.517  0.4945  0.0605 -0.7165
  372MOL0     H51301   9.194   1.020  12.614 -1.3993 -3.3323 -0.6456
  372MOL0     H51302   9.389   0.859  12.618  0.4072 -0.0878 -0.7129
  372MOL0     H51303   9.252   0.797  12.521 -0.7124  0.4789  1.7856
  372MOL0     H51304   9.511   0.926  12.415  2.7719 -1.7620 -3.0904
  372MOL0     H51305   9.361   0.905  12.322  0.0977  0.3128  0.4837
  372MOL0     H51306   9.371   0.647  12.386  0.7665 -0.3452  3.7430
  372MOL0     H51307   9.511   0.681  12.483  1.6247  0.4247 -0.0506
  372MOL0     H51308   9.486   0.687  12.189 -0.3041 -1.6115 -0.6905
  372MOL0     H51309   9.608   0.791  12.261 -2.0630  1.7600 -1.7600
  372MOL0     H51310   9.567   0.482  12.315 -0.8719  0.2050 -0.6638
  372MOL0     H51311   9.688   0.576  12.397 -2.9426 -0.0887  1.3769
  372MOL0     H51312   9.817   0.633  12.211  0.2905  1.5787 -0.3918
  372MOL0     H51313   9.685   0.586  12.102  1.2536  0.1135  1.4055
  372MOL0     H51314   9.792   0.415  12.055  1.1462 -0.7614 -0.2668
  372MOL0     H51315   9.740   0.342  12.209  1.0450  0.1406 -0.1463
  372MOL0     H51316   9.109   1.233  12.591  0.4014 -2.4462 -0.0550
  372MOL0     H51317   8.999   1.439  12.510 -4.0042 -0.7709 -1.5162
  372MOL0     H51318   8.877   1.760  12.328  1.2614  1.5217 -0.5379
  372MOL0     H51319   8.753   1.967  12.318  0.8106 -1.7410  0.9600
  372MOL0     H51320   9.028   1.918  11.475 -0.9873 -2.1483 -0.8656
  372MOL0     H51321   9.258   1.952  11.450  1.5011 -0.0319 -0.8115
  372MOL0     H51322   9.616   1.854  11.189 -1.0545 -0.4630 -1.0847
  372MOL0     H51323   9.851   1.822  11.181  0.3863 -0.0586  0.4994
  372MOL0     H51324  10.125   1.927  11.312 -2.8647  2.6699  1.0564
  372MOL0     H51325  10.056   1.821  11.192 -0.0487  0.4429  1.7874
  372MOL0     H51326  10.288   2.004  11.110  1.5261 -0.8837  0.1423
  372MOL0     H51327  10.192   1.880  11.020 -4.6681 -0.1210  1.4502
  372MOL0     H51328  10.336   1.834  11.284 -1.5306 -0.8494  1.2038
  372MOL0     H51329  10.249   1.715  11.193 -1.8336  0.8865  1.1458
  372MOL0     H51330  10.460   1.848  11.019  1.5248 -1.4845 -0.4447
  372MOL0     H51331  10.430   1.678  11.035  3.7323 -0.2849 -0.2145
  372MOL0     H51332  10.724   1.729  11.326  0.7140 -1.0778 -2.0162
  372MOL0     H51333   9.914   2.239  11.139  2.0484 -1.8632  0.2103
  372MOL0     H51334   9.622   2.323  11.012 -1.3037  2.5095  0.9504
  372MOL0     H51335   9.585   2.355  11.179 -0.9306 -0.0410 -0.3287
  372MOL0     H51336   9.752   2.382  11.126  2.0574 -1.7495 -1.1992
  373MOL0     O51337   1.860   2.015   1.810  0.0960  0.4792 -0.3060
  373MOL0     C51338   1.799   1.986   1.704  1.0839  0.7129  0.1358
  373MOL0     O51339   1.859   1.965   1.585  0.4938  0.0503 -0.4890
  373MOL0     C51340   1.994   1.959   1.570  1.3841 -0.4984 -0.0519
  373MOL0     C51341   2.048   1.823   1.564  0.0109  0.1923 -0.0079
  373MOL0     C51342   2.183   1.806   1.536 -0.1133  0.2088  0.1330
  373MOL0     C51343   2.264   1.912   1.510  0.0411 -0.4272 -0.4507
  373MOL0     O51344   2.398   1.872   1.490 -0.8136 -0.7414  0.1760
  373MOL0     C51345   2.502   1.945   1.556 -0.3577 -0.1496 -0.0001
  373MOL0     C51346   2.529   1.839   1.664  0.0785 -0.6020  0.7030
  373MOL0     C51347   2.645   1.889   1.746 -0.3550 -0.1955  0.1051
  373MOL0     C51348   2.683   1.786   1.849 -0.3894 -0.7735 -0.4299
  373MOL0     C51349   2.807   1.832   1.927  0.1805  0.3725 -0.8733
  373MOL0     C51350   2.757   1.887   2.066  0.8150 -0.2435  0.6365
  373MOL0     C51351   2.840   2.004   2.115  1.0286 -0.2001  0.0004
  373MOL0     C51352   2.818   2.040   2.259  0.1378 -0.4846  0.0112
  373MOL0     N51353   2.850   1.928   2.345 -0.1005  0.1447  0.4310
  373MOL0     C51354   2.979   1.888   2.382 -0.0478 -0.6934 -0.5772
  373MOL0     C51355   2.962   1.776   2.449  0.7832  0.1190 -0.3048
  373MOL0     C51356   3.074   1.683   2.494 -0.3349 -0.7658 -0.4940
  373MOL0     C51357   3.042   1.539   2.544  0.7423  0.1701 -0.3293
  373MOL0     C51358   3.168   1.478   2.609 -0.0220  1.1528 -0.2727
  373MOL0     C51359   3.148   1.328   2.620  0.0402  0.8005 -0.4870
  373MOL0     O51360   3.070   1.300   2.738  0.4143 -0.5431 -0.1357
  373MOL0     C51361   3.113   1.200   2.809  0.3996  0.1666 -0.8302
  373MOL0     C51362   3.137   1.223   2.946  0.3746 -0.3660 -0.5736
  373MOL0     C51363   3.163   1.127   3.036  0.4494  0.7662  0.6111
  373MOL0     C51364   3.194   1.165   3.183  0.3398 -0.3425 -0.3272
  373MOL0     C51365   3.152   0.996   2.984  0.3227  0.2152 -0.1950
  373MOL0     C51366   3.171   0.883   3.079 -0.6190 -0.1485 -0.8139
  373MOL0     O51367   3.239   0.905   3.194  0.5622  0.4538  0.0530
  373MOL0     C51368   3.272   0.803   3.282 -0.6939 -0.7176 -0.2266
  373MOL0     C51369   3.199   0.693   3.318 -0.1332  0.1706  0.9458
  373MOL0     C51370   3.244   0.603   3.406 -0.4401 -0.3031 -0.6555
  373MOL0     C51371   3.377   0.600   3.450 -0.7211 -0.0035  0.0995
  373MOL0     O51372   3.420   0.490   3.514  0.1321 -0.6207 -0.0718
  373MOL0     C51373   3.532   0.502   3.602  0.5706  0.5103  0.0363
  373MOL0     C51374   3.566   0.370   3.666 -0.4927  0.3306 -0.8134
  373MOL0     C51375   3.617   0.376   3.813 -0.5451  0.6546 -0.7665
  373MOL0     C51376   3.661   0.242   3.874 -0.2596 -0.1739 -0.0939
  373MOL0     C51377   3.748   0.266   4.007  0.4174  0.1186  0.4665
  373MOL0     C51378   3.769   0.122   4.065  0.2764 -0.2345  0.2360
  373MOL0     C51379   3.841   0.137   4.196  0.2453 -0.2400 -0.8918
  373MOL0     C51380   3.788   0.045   4.314  0.5382 -0.5560  0.7151
  373MOL0    Cl51381   3.612   0.071   4.350  0.1002 -0.5560 -0.3937
  373MOL0     C51382   3.456   0.717   3.422 -0.3411  0.7329 -0.1246
  373MOL0     C51383   3.408   0.820   3.344 -0.2642  0.6550 -0.2572
  373MOL0     O51384   3.142   0.766   3.043  0.2584  0.7115 -0.1644
  373MOL0     C51385   3.126   0.962   2.852  0.8077 -0.1965  0.8673
  373MOL0     C51386   3.100   1.068   2.758 -0.1947 -0.0094 -0.4312
  373MOL0     N51387   2.826   1.741   2.456  0.5169  0.6689  1.3733
  373MOL0     N51388   2.758   1.837   2.408 -0.2951 -0.0181 -0.4568
  373MOL0     C51389   2.213   2.046   1.510 -0.2698  1.1651 -0.2665
  373MOL0     C51390   2.073   2.073   1.541 -0.8063 -0.1328  0.5631
  373MOL0     C51391   1.654   1.957   1.697 -0.9147 -0.7080 -0.3116
  373MOL0     C51392   1.614   1.849   1.613 -0.2023 -0.5161 -0.4366
  373MOL0     C51393   1.487   1.817   1.600 -0.5392 -0.2015  0.4078
  373MOL0     C51394   1.389   1.877   1.679 -0.3314  0.7061  0.2191
  373MOL0     O51395   1.267   1.820   1.686 -0.4571  0.2232  0.4218
  373MOL0     C51396   1.261   1.675   1.693 -0.0840 -0.7444  1.1343
  373MOL0     C51397   1.118   1.631   1.668 -0.0339  0.3616  0.2769
  373MOL0     C51398   1.023   1.697   1.769 -0.8606 -0.9171  0.4229
  373MOL0     C51399   0.875   1.652   1.756  0.1621  1.6307  0.7077
  373MOL0     C51400   0.806   1.672   1.625 -0.3816  0.5284 -0.3067
  373MOL0     C51401   0.754   1.694   1.519  0.2778  0.7539 -0.2484
  373MOL0     C51402   1.417   1.984   1.766 -0.2971 -0.4629 -0.1823
  373MOL0     C51403   1.552   2.021   1.776 -0.0001 -0.7562  1.2186
  373MOL0     C51404   1.584   2.124   1.877  0.4682 -0.4754 -0.2541
  373MOL0     H51405   1.977   1.745   1.592  0.4834 -0.2724 -0.0987
  373MOL0     H51406   2.231   1.708   1.538  0.8368  0.6391 -0.5503
  373MOL0     H51407   2.465   2.038   1.598 -0.8647  0.1187 -1.0087
  373MOL0     H51408   2.591   1.972   1.498 -0.9459 -1.3404 -1.5553
  373MOL0     H51409   2.435   1.838   1.719  0.5248 -0.4898  1.4870
  373MOL0     H51410   2.536   1.739   1.620  0.8023 -0.4704  0.4979
  373MOL0     H51411   2.730   1.895   1.677 -0.2194 -0.7629  0.2142
  373MOL0     H51412   2.633   1.988   1.792 -4.0286  0.0383 -1.0921
  373MOL0     H51413   2.608   1.765   1.925  0.5514 -1.4429  0.3384
  373MOL0     H51414   2.716   1.693   1.800  0.6074 -1.1456  0.8826
  373MOL0     H51415   2.873   1.906   1.881  0.3202  1.2504  0.6688
  373MOL0     H51416   2.867   1.745   1.955 -0.4309  0.8972  2.3829
  373MOL0     H51417   2.661   1.935   2.047  2.5425  3.8640  1.2576
  373MOL0     H51418   2.748   1.802   2.134 -0.4819  1.0694  2.2028
  373MOL0     H51419   2.811   2.086   2.048 -0.1210 -2.1861 -2.0553
  373MOL0     H51420   2.945   1.993   2.087  1.0535  0.0223  0.0046
  373MOL0     H51421   2.887   2.121   2.284  0.1526 -0.5868  0.3027
  373MOL0     H51422   2.719   2.083   2.272  1.7960  3.5429  0.8405
  373MOL0     H51423   3.073   1.921   2.340  0.1333  0.1593  0.4630
  373MOL0     H51424   3.115   1.733   2.582  1.5180  0.5028 -1.9921
  373MOL0     H51425   3.146   1.671   2.413 -0.6631 -2.7338 -0.5588
  373MOL0     H51426   2.960   1.540   2.617  2.3073  1.3236  1.5048
  373MOL0     H51427   3.003   1.491   2.453 -1.0605  0.6485  0.1562
  373MOL0     H51428   3.258   1.497   2.549  1.3152  0.2516  1.3561
  373MOL0     H51429   3.191   1.522   2.707 -1.8147  0.0626  0.6911
  373MOL0     H51430   3.093   1.298   2.530  0.8085  0.2597 -0.7876
  373MOL0     H51431   3.244   1.276   2.613  0.7882  2.0066  0.5009
  373MOL0     H51432   3.143   1.327   2.977  2.5072 -0.1608 -1.5213
  373MOL0     H51433   3.123   1.131   3.258  1.7285 -1.1290  0.6722
  373MOL0     H51434   3.206   1.273   3.193  1.1589 -0.4092 -0.5088
  373MOL0     H51435   3.290   1.127   3.219  0.4067  0.3312  0.2163
  373MOL0     H51436   3.096   0.675   3.287 -0.1076  2.6338 -0.8034
  373MOL0     H51437   3.200   0.505   3.424  2.7231 -1.7755 -0.2020
  373MOL0     H51438   3.627   0.535   3.560  0.4651  2.8161  1.4563
  373MOL0     H51439   3.502   0.570   3.682 -0.5735 -2.1030  1.9650
  373MOL0     H51440   3.485   0.296   3.662 -1.9037  1.7801 -0.3548
  373MOL0     H51441   3.649   0.336   3.605  0.4071  1.4197 -0.2469
  373MOL0     H51442   3.537   0.423   3.871  0.3013  1.5231 -0.2556
  373MOL0     H51443   3.703   0.444   3.820  0.9097 -1.2282  3.8382
  373MOL0     H51444   3.712   0.184   3.796  0.7366 -1.0374  1.1563
  373MOL0     H51445   3.572   0.188   3.908  1.2193 -2.5086  0.3394
  373MOL0     H51446   3.848   0.302   3.979  0.2365  0.6146  0.4619
  373MOL0     H51447   3.712   0.345   4.074  1.0548  2.0698 -1.3667
  373MOL0     H51448   3.822   0.060   3.992 -1.1201 -0.6686 -0.4591
  373MOL0     H51449   3.668   0.082   4.077  0.4120 -0.0481  2.2190
  373MOL0     H51450   3.829   0.240   4.233  2.3556 -0.9699  2.2260
  373MOL0     H51451   3.945   0.110   4.178 -0.6445 -3.9727 -1.1921
  373MOL0     H51452   3.851   0.059   4.403 -0.1691  0.1561  1.1174
  373MOL0     H51453   3.799  -0.059   4.283  0.0908 -0.1689 -0.8144
  373MOL0     H51454   3.562   0.703   3.440 -0.4104 -1.3841 -1.0740
  373MOL0     H51455   3.463   0.913   3.339  1.9799 -0.4763  1.6232
  373MOL0     H51456   3.110   0.859   2.825 -2.9646  0.5216 -0.2166
  373MOL0     H51457   3.066   1.035   2.660 -0.1947 -0.3465 -0.3175
  373MOL0     H51458   2.278   2.133   1.503 -1.3152  1.8806 -1.7087
  373MOL0     H51459   2.027   2.170   1.557 -0.0525  0.1395  1.1160
  373MOL0     H51460   1.682   1.808   1.539 -1.6840 -2.1691 -0.9543
  373MOL0     H51461   1.461   1.743   1.525 -1.8375  0.4531  0.1817
  373MOL0     H51462   1.314   1.615   1.618 -1.9663  1.1941 -1.9627
  373MOL0     H51463   1.298   1.650   1.793  2.2457 -1.9680  0.0528
  373MOL0     H51464   1.110   1.522   1.665 -1.3049  0.3925  1.2184
  373MOL0     H51465   1.083   1.679   1.576 -1.0691  2.4032  1.6553
  373MOL0     H51466   1.060   1.681   1.871  2.3898  2.2633 -0.0772
  373MOL0     H51467   1.025   1.804   1.747 -0.8291 -0.5307  2.1153
  373MOL0     H51468   0.823   1.707   1.835 -3.0861 -0.0157 -0.1091
  373MOL0     H51469   0.877   1.548   1.789  0.8688  1.1921 -0.6412
  373MOL0     H51470   0.704   1.709   1.425  2.0558 -1.6453 -1.7042
  373MOL0     H51471   1.354   2.026   1.843  0.9028 -1.4916  1.4290
  373MOL0     H51472   1.674   2.106   1.936  0.7053 -1.5545 -0.9120
  373MOL0     H51473   1.582   2.219   1.823 -2.8525  0.0620  0.5618
  373MOL0     H51474   1.510   2.137   1.956  0.1282 -2.0673 -0.2769
  374MOL0     O51475   4.784   3.057   4.621  1.2330 -0.9954 -0.2041
  374MOL0     C51476   4.813   3.126   4.520  0.2897  0.3602 -0.5284
  374MOL0     O51477   4.895   3.086   4.414 -0.6762  0.1096  0.3175
  374MOL0     C51478   4.949   2.956   4.404 -0.0850  0.0790  0.6234
  374MOL0     C51479   5.011   2.941   4.277  0.1664  0.8440 -0.2318
  374MOL0     C51480   5.077   2.816   4.252  1.1936  0.0147  0.8207
  374MOL0     C51481   5.069   2.707   4.342 -0.9289  0.8349  0.5190
  374MOL0     O51482   5.138   2.594   4.297  0.3037 -0.1194  0.6395
  374MOL0     C51483   5.151   2.488   4.390 -0.3946 -0.0128  0.5444
  374MOL0     C51484   5.260   2.537   4.485 -0.0307 -0.6119  0.3685
  374MOL0     C51485   5.322   2.425   4.571  0.3184  0.6781 -0.9139
  374MOL0     C51486   5.444   2.351   4.508  0.3704 -0.3567 -0.0753
  374MOL0     C51487   5.506   2.228   4.599  0.4927 -0.6285  0.6320
  374MOL0     C51488   5.557   2.263   4.740 -0.4515  0.4755  0.0662
  374MOL0     C51489   5.692   2.343   4.735  0.2239  0.4107 -0.1186
  374MOL0     C51490   5.715   2.421   4.864  0.5619 -0.0238 -0.2126
  374MOL0     N51491   5.625   2.536   4.881  0.0683 -0.3559  0.6966
  374MOL0     C51492   5.640   2.649   4.809  0.6390  0.5537  0.9778
  374MOL0     C51493   5.533   2.727   4.850 -0.2926  0.3762  0.1274
  374MOL0     C51494   5.499   2.863   4.790 -0.1781 -0.6355  0.3731
  374MOL0     C51495   5.388   2.849   4.679  0.3142  0.0779  0.2199
  374MOL0     C51496   5.337   2.991   4.629  0.4352 -0.9325 -1.0369
  374MOL0     C51497   5.222   3.042   4.725 -0.3285  0.9924  0.4268
  374MOL0     O51498   5.147   3.168   4.697 -0.5628  0.9112  0.5141
  374MOL0     C51499   5.192   3.291   4.709 -0.2985  0.7385  0.5563
  374MOL0     C51500   5.113   3.401   4.676  0.6315  0.8657  0.6420
  374MOL0     C51501   5.148   3.525   4.696  0.5028 -0.3744 -0.3825
  374MOL0     C51502   5.035   3.622   4.658  0.2931 -0.3206 -0.2442
  374MOL0     C51503   5.281   3.564   4.722 -0.4349 -0.4680  0.7313
  374MOL0     C51504   5.326   3.693   4.712  0.2750 -0.7076  0.3063
  374MOL0     O51505   5.239   3.782   4.763  0.1118  0.1651  0.2568
  374MOL0     C51506   5.276   3.906   4.765 -0.5253  0.1090  0.5678
  374MOL0     C51507   5.206   3.992   4.685  0.6983  0.0164  0.1232
  374MOL0     C51508   5.240   4.126   4.679  0.3049  0.0691  0.2544
  374MOL0     C51509   5.354   4.182   4.746 -1.1117 -0.1688  0.6647
  374MOL0     O51510   5.392   4.309   4.720 -0.2042  0.4706  0.4610
  374MOL0     C51511   5.535   4.333   4.733  0.9401 -1.0364  0.4360
  374MOL0     C51512   5.579   4.481   4.677 -0.2981 -0.2395  0.0577
  374MOL0     C51513   5.508   4.597   4.747  0.1774  0.0312 -0.2504
  374MOL0     C51514   5.356   4.601   4.726  0.0365 -0.3681 -0.9530
  374MOL0     C51515   5.307   4.732   4.792 -0.3571  0.3733  0.0275
  374MOL0     C51516   5.169   4.786   4.754 -0.1115  0.2339  1.1606
  374MOL0     C51517   5.057   4.687   4.796 -0.2877 -0.2724  0.0255
  374MOL0     C51518   4.923   4.756   4.774 -0.2694  0.5335 -0.4343
  374MOL0    Cl51519   4.802   4.629   4.775 -0.5041 -0.3447  0.2689
  374MOL0     C51520   5.426   4.092   4.828  0.2975  0.3745 -1.0540
  374MOL0     C51521   5.385   3.957   4.843  1.2383  0.2521  0.7462
  374MOL0     O51522   5.437   3.721   4.675 -0.1755  0.2436  0.6869
  374MOL0     C51523   5.370   3.454   4.737 -0.0421 -0.4355  0.2160
  374MOL0     C51524   5.324   3.321   4.745  0.1032 -0.3252  0.5424
  374MOL0     N51525   5.467   2.664   4.955 -0.6175  0.1944  0.2424
  374MOL0     N51526   5.519   2.551   4.963  0.0599 -0.5294 -0.8922
  374MOL0     C51527   4.997   2.717   4.465  0.6101  0.0359 -0.4819
  374MOL0     C51528   4.958   2.847   4.501 -1.3234 -0.1317 -0.8262
  374MOL0     C51529   4.766   3.275   4.511  0.2576 -0.7805 -0.0131
  374MOL0     C51530   4.817   3.356   4.418  0.4011 -0.4227 -0.0360
  374MOL0     C51531   4.782   3.493   4.391 -0.2508 -0.0909 -0.1652
  374MOL0     C51532   4.678   3.544   4.472  0.2506 -0.3918  0.8625
  374MOL0     O51533   4.639   3.672   4.450 -0.4021  0.5855  0.2029
  374MOL0     C51534   4.509   3.695   4.401  0.1703  1.0180  0.4500
  374MOL0     C51535   4.513   3.781   4.275  0.0614  0.2887  0.3416
  374MOL0     C51536   4.622   3.736   4.168 -0.3391 -0.0370 -0.4071
  374MOL0     C51537   4.582   3.617   4.084  0.7144 -0.0117  0.3132
  374MOL0     C51538   4.576   3.658   3.942  0.4035 -0.1684 -0.9780
  374MOL0     C51539   4.572   3.692   3.826  0.7089 -0.2808  0.2221
  374MOL0     C51540   4.620   3.463   4.569  0.1562 -0.5466  0.9456
  374MOL0     C51541   4.657   3.332   4.599  0.8935 -0.7441  1.1003
  374MOL0     C51542   4.576   3.267   4.704  0.7280  0.3410 -0.0585
  374MOL0     H51543   4.998   3.021   4.205 -0.0771  1.4409  0.4607
  374MOL0     H51544   5.135   2.788   4.165  2.7098 -4.3539  3.0079
  374MOL0     H51545   5.187   2.392   4.352 -2.5642 -1.9019  2.9008
  374MOL0     H51546   5.063   2.450   4.442 -1.1255 -0.2466 -0.8201
  374MOL0     H51547   5.342   2.579   4.425 -0.2121 -1.1001 -0.2259
  374MOL0     H51548   5.225   2.620   4.547 -1.0698 -2.8337  2.9395
  374MOL0     H51549   5.361   2.470   4.662 -0.5790 -1.8875  0.8401
  374MOL0     H51550   5.263   2.336   4.593  0.8419  0.8471  1.4249
  374MOL0     H51551   5.406   2.315   4.412 -2.9708  0.2479  0.8734
  374MOL0     H51552   5.516   2.432   4.496  0.3587 -0.1318  1.2061
  374MOL0     H51553   5.586   2.181   4.541 -1.2719 -0.5586 -2.0407
  374MOL0     H51554   5.422   2.159   4.609  0.5326 -0.6229  1.0160
  374MOL0     H51555   5.476   2.321   4.784 -1.9339  0.1255 -2.0365
  374MOL0     H51556   5.572   2.173   4.801  2.2613  0.3289 -0.6767
  374MOL0     H51557   5.697   2.415   4.653  3.3447  0.3751 -0.0585
  374MOL0     H51558   5.773   2.270   4.728  0.0867  0.2985 -0.5556
  374MOL0     H51559   5.719   2.354   4.951 -0.4297  1.3982  0.9774
  374MOL0     H51560   5.818   2.458   4.874  1.3654 -2.1272 -0.1327
  374MOL0     H51561   5.709   2.678   4.731 -1.8642 -0.8980 -1.9963
  374MOL0     H51562   5.582   2.911   4.736 -0.4595 -1.5451 -0.9063
  374MOL0     H51563   5.447   2.917   4.870 -2.0774 -2.1712  0.2577
  374MOL0     H51564   5.430   2.791   4.597  1.2742 -1.8991  2.0197
  374MOL0     H51565   5.302   2.789   4.711 -0.9066  2.1868  1.0923
  374MOL0     H51566   5.426   3.053   4.615 -0.1908 -0.5604 -4.2779
  374MOL0     H51567   5.287   2.994   4.531 -0.3937 -0.6674 -0.6141
  374MOL0     H51568   5.151   2.960   4.712 -0.1150  0.7206  0.9434
  374MOL0     H51569   5.257   3.030   4.828 -1.4136  1.6863  0.9038
  374MOL0     H51570   5.011   3.375   4.651  1.1696 -1.6303  0.8394
  374MOL0     H51571   5.065   3.692   4.580 -0.9551 -0.1145 -0.5578
  374MOL0     H51572   5.001   3.676   4.747  1.2336  1.1658 -0.7551
  374MOL0     H51573   4.946   3.574   4.616  0.3434  1.1187 -2.1155
  374MOL0     H51574   5.130   3.954   4.617  2.0310  0.2558 -1.5799
  374MOL0     H51575   5.182   4.195   4.619 -0.7013 -1.3826 -0.5025
  374MOL0     H51576   5.558   4.330   4.839  2.4102  1.4363  0.2680
  374MOL0     H51577   5.594   4.263   4.673 -0.3934 -1.0849 -0.8854
  374MOL0     H51578   5.687   4.489   4.693 -0.3388  1.2896 -0.2985
  374MOL0     H51579   5.568   4.499   4.570  1.3853  1.2286  0.0985
  374MOL0     H51580   5.561   4.690   4.725  0.7987 -0.2173  0.1537
  374MOL0     H51581   5.529   4.575   4.853 -1.3707  1.3316  0.3616
  374MOL0     H51582   5.302   4.520   4.776  0.1277 -0.7784 -1.5132
  374MOL0     H51583   5.347   4.597   4.617  2.4295 -2.1396 -1.1547
  374MOL0     H51584   5.320   4.728   4.900 -1.8712  3.8366  0.4539
  374MOL0     H51585   5.369   4.817   4.763  0.4773 -0.4357 -0.6573
  374MOL0     H51586   5.161   4.804   4.647  0.3646 -0.2200  1.0443
  374MOL0     H51587   5.152   4.883   4.802 -1.0157  0.1783  0.9752
  374MOL0     H51588   5.078   4.670   4.902  1.0821  0.4786 -0.1135
  374MOL0     H51589   5.047   4.596   4.736 -1.1214  0.5609 -1.1549
  374MOL0     H51590   4.923   4.803   4.675  0.0536 -0.4508 -0.9128
  374MOL0     H51591   4.897   4.831   4.849 -1.0694 -0.3417  0.1869
  374MOL0     H51592   5.516   4.128   4.877  0.7545 -0.6042 -1.1337
  374MOL0     H51593   5.432   3.883   4.908  2.1898  0.3325  0.1677
  374MOL0     H51594   5.477   3.470   4.747 -0.2537  0.0442  2.0796
  374MOL0     H51595   5.396   3.242   4.765  0.6900  0.4693  1.6849
  374MOL0     H51596   4.980   2.636   4.536 -0.4823 -0.9251 -1.7746
  374MOL0     H51597   4.925   2.859   4.604 -0.9176 -1.5502 -0.5141
  374MOL0     H51598   4.881   3.307   4.345 -0.9117  0.3730 -1.7825
  374MOL0     H51599   4.837   3.531   4.306  0.6227 -2.3180 -0.6595
  374MOL0     H51600   4.452   3.603   4.388  2.1237 -0.1057 -0.5964
  374MOL0     H51601   4.449   3.746   4.477  0.3156  0.5164  0.9080
  374MOL0     H51602   4.546   3.882   4.302  0.3429 -0.3382  2.5246
  374MOL0     H51603   4.413   3.792   4.232 -0.3159  0.5152  1.2529
  374MOL0     H51604   4.659   3.816   4.103 -0.2680  0.0580 -0.2510
  374MOL0     H51605   4.706   3.696   4.226  0.3388  3.6450  1.4739
  374MOL0     H51606   4.489   3.571   4.118  1.0190  0.0093  1.1996
  374MOL0     H51607   4.669   3.551   4.091  0.8621  0.2675  1.2395
  374MOL0     H51608   4.570   3.702   3.719  1.4205  2.4196  0.3967
  374MOL0     H51609   4.538   3.509   4.623  0.5173  3.3293 -1.4667
  374MOL0     H51610   4.564   3.160   4.684  0.1320  0.6473 -1.4213
  374MOL0     H51611   4.616   3.296   4.802  0.6617  0.2253  0.0019
  374MOL0     H51612   4.471   3.292   4.687  0.9926  0.3979 -1.7405
  375MOL0     O51613   4.119   9.797   1.158  0.2282  0.8722  0.5459
  375MOL0     C51614   4.057   9.836   1.061  0.3840  0.0357 -0.1833
  375MOL0     O51615   3.993   9.756   0.971 -0.6341 -0.1308 -0.3168
  375MOL0     C51616   4.007   9.622   0.986 -0.2513 -0.8752  0.4509
  375MOL0     C51617   4.127   9.557   0.949 -0.0742  0.7014 -0.6540
  375MOL0     C51618   4.138   9.413   0.960  0.0084  0.7972  0.6647
  375MOL0     C51619   4.028   9.343   0.998  0.8072  0.1139 -0.3982
  375MOL0     O51620   4.022   9.206   1.010  0.8459 -0.1296  0.0518
  375MOL0     C51621   4.142   9.124   1.030  0.2261 -1.0021  0.2302
  375MOL0     C51622   4.107   8.975   1.004  0.6137  0.9474  0.0430
  375MOL0     C51623   4.093   8.935   0.857  1.1557  0.0151  0.6186
  375MOL0     C51624   3.971   9.005   0.796 -0.6578 -0.4684  0.2024
  375MOL0     C51625   3.834   8.942   0.843  0.3303 -0.3294 -0.1304
  375MOL0     C51626   3.725   9.001   0.760  0.6451 -1.1406  0.1120
  375MOL0     C51627   3.601   8.946   0.808  0.1451  0.4546  0.1189
  375MOL0     C51628   3.489   8.992   0.722 -1.2502  0.7265  0.2471
  375MOL0     N51629   3.366   8.928   0.762  0.8623  0.6435 -0.4643
  375MOL0     C51630   3.333   8.803   0.727  0.2506  0.2869  1.0788
  375MOL0     C51631   3.215   8.768   0.786 -1.0424  0.2117  1.0332
  375MOL0     C51632   3.142   8.637   0.777  0.6939 -1.1673  0.4525
  375MOL0     C51633   3.221   8.513   0.820 -1.4227 -1.0340  0.5935
  375MOL0     C51634   3.147   8.379   0.845 -0.0883 -0.2288 -0.1893
  375MOL0     C51635   3.101   8.307   0.713 -1.0856  0.0680  0.2108
  375MOL0     O51636   2.964   8.262   0.716 -0.6276  0.3303 -0.3949
  375MOL0     C51637   2.916   8.170   0.803 -0.3042  0.3026  0.3312
  375MOL0     C51638   3.006   8.094   0.887  0.6212  0.2682 -0.4535
  375MOL0     C51639   2.960   7.989   0.976  0.6360  0.9499  0.2024
  375MOL0     C51640   3.064   7.922   1.058 -0.4441  0.9702  0.4367
  375MOL0     C51641   2.816   7.970   0.974 -0.7968  0.3400 -0.3608
  375MOL0     C51642   2.747   7.880   1.071 -0.8724 -0.3777  0.1979
  375MOL0     O51643   2.611   7.879   1.052 -0.0932  0.0952 -0.0328
  375MOL0     C51644   2.536   7.861   1.167  0.0920  0.2713 -0.3030
  375MOL0     C51645   2.470   7.974   1.217  0.5548 -0.1420 -0.2894
  375MOL0     C51646   2.391   7.960   1.337 -0.1972 -0.0020  0.5544
  375MOL0     C51647   2.356   7.837   1.388  0.6238 -0.2205 -0.2914
  375MOL0     O51648   2.263   7.849   1.490  0.1125 -0.0343  0.3142
  375MOL0     C51649   2.233   7.730   1.570  0.3606  0.1344 -0.3100
  375MOL0     C51650   2.086   7.685   1.553 -0.3531 -0.5683 -0.9899
  375MOL0     C51651   2.055   7.601   1.436  0.1386 -0.1090  0.6427
  375MOL0     C51652   1.913   7.527   1.461 -0.2041  0.3643  0.3645
  375MOL0     C51653   1.879   7.421   1.346  0.1807 -0.4319 -0.0965
  375MOL0     C51654   1.969   7.290   1.363 -0.4378 -0.0778 -0.1342
  375MOL0     C51655   1.969   7.183   1.242 -0.9170 -0.7266 -0.1494
  375MOL0     C51656   2.049   7.056   1.276 -0.6564  0.0703 -0.4840
  375MOL0    Cl51657   1.962   6.995   1.418 -0.1494  0.0295  0.2826
  375MOL0     C51658   2.408   7.717   1.327  0.6392  0.0820  0.2153
  375MOL0     C51659   2.501   7.733   1.221 -0.1046 -1.0072 -0.2558
  375MOL0     O51660   2.806   7.824   1.157 -0.2710 -0.9798  0.8593
  375MOL0     C51661   2.737   8.043   0.884 -0.2026 -0.6057  0.4800
  375MOL0     C51662   2.782   8.137   0.800 -0.0133  0.3203 -0.3557
  375MOL0     N51663   3.179   8.884   0.849 -0.3740 -0.4040  0.0294
  375MOL0     N51664   3.264   8.980   0.835 -0.0959  0.4117 -0.3437
  375MOL0     C51665   3.907   9.409   1.023  0.2737  0.0427  1.2516
  375MOL0     C51666   3.896   9.539   1.022  0.1452 -0.6207  0.3886
  375MOL0     C51667   4.053   9.981   1.038  0.0107 -0.3412  0.8058
  375MOL0     C51668   3.966  10.036   0.931  0.5304 -0.6481  0.7421
  375MOL0     C51669   3.948  10.174   0.928  0.2608 -0.8532  0.0933
  375MOL0     C51670   4.001  10.266   1.018 -0.0231 -0.1373  0.3184
  375MOL0     O51671   3.947  10.386   1.010  0.4053 -0.3391 -0.0933
  375MOL0     C51672   3.970  10.478   1.114 -0.7334  0.7978  0.3366
  375MOL0     C51673   3.875  10.600   1.084  0.5063  0.2844 -0.6761
  375MOL0     C51674   3.861  10.712   1.180  0.4333  0.0123 -0.0377
  375MOL0     C51675   3.737  10.801   1.162  0.9108 -0.8556  0.4076
  375MOL0     C51676   3.712  10.827   1.020 -0.1728 -0.6410  0.3498
  375MOL0     C51677   3.692  10.823   0.900 -0.4536  0.2356  0.4175
  375MOL0     C51678   4.083  10.214   1.113 -0.0445  0.7871  0.6284
  375MOL0     C51679   4.127  10.084   1.112 -0.2092  0.6525 -0.5109
  375MOL0     C51680   4.248  10.046   1.199  0.0998 -0.2076  0.4925
  375MOL0     H51681   4.207   9.615   0.906 -0.0395 -1.7987 -4.3653
  375MOL0     H51682   4.223   9.355   0.928 -0.2963  1.1306 -0.8077
  375MOL0     H51683   4.176   9.128   1.134 -2.0254 -1.5272  1.0450
  375MOL0     H51684   4.228   9.151   0.968 -0.5791  1.5303  0.0666
  375MOL0     H51685   4.172   8.898   1.047  1.8063  1.4757 -0.7413
  375MOL0     H51686   4.008   8.957   1.047  0.3171  0.6541 -0.7562
  375MOL0     H51687   4.174   8.951   0.786 -0.8226  0.2880 -1.6776
  375MOL0     H51688   4.070   8.828   0.863 -0.6662  0.4251  2.8273
  375MOL0     H51689   3.976   9.113   0.807  3.0032 -0.6053  1.2323
  375MOL0     H51690   3.986   8.986   0.690 -2.1360 -2.0325  0.2279
  375MOL0     H51691   3.820   8.963   0.950  0.3238  1.2805 -0.4381
  375MOL0     H51692   3.831   8.833   0.827  0.3122 -0.4913  0.8925
  375MOL0     H51693   3.734   9.109   0.769  3.6518 -0.9326 -3.1450
  375MOL0     H51694   3.741   8.962   0.658  0.4507  0.6586 -0.6371
  375MOL0     H51695   3.570   8.981   0.907 -0.2446  1.1533 -0.2368
  375MOL0     H51696   3.606   8.838   0.818 -2.2053  0.3066  0.3776
  375MOL0     H51697   3.484   9.101   0.726  1.8008  0.9319  3.3907
  375MOL0     H51698   3.512   8.947   0.625  0.3943 -0.6095  1.2182
  375MOL0     H51699   3.395   8.737   0.666 -0.3910 -0.8351  1.6064
  375MOL0     H51700   3.108   8.621   0.675 -1.3554 -0.1609  0.9325
  375MOL0     H51701   3.049   8.645   0.834 -1.5085 -0.1843 -3.0299
  375MOL0     H51702   3.294   8.502   0.740 -2.8021 -1.8758 -0.5869
  375MOL0     H51703   3.283   8.546   0.905  1.3761  0.5470 -1.8805
  375MOL0     H51704   3.208   8.314   0.908  0.6857 -1.8777 -2.4827
  375MOL0     H51705   3.053   8.395   0.897 -1.8906  1.3548 -3.5623
  375MOL0     H51706   3.120   8.381   0.635 -0.7991 -0.4011 -0.1653
  375MOL0     H51707   3.169   8.223   0.696 -0.6693  0.3886  0.2849
  375MOL0     H51708   3.110   8.127   0.897 -0.4276  3.3492  2.1913
  375MOL0     H51709   3.058   7.818   1.026 -0.3130 -0.0092  3.2764
  375MOL0     H51710   3.029   7.925   1.162 -3.6263  0.6352 -0.5043
  375MOL0     H51711   3.162   7.970   1.054 -0.7444  1.5065 -1.3073
  375MOL0     H51712   2.491   8.076   1.185  0.0394  1.0232  2.7534
  375MOL0     H51713   2.362   8.053   1.386  1.1671  0.5944  0.2796
  375MOL0     H51714   2.289   7.638   1.552 -0.3289 -0.1203 -1.2911
  375MOL0     H51715   2.239   7.761   1.674  0.7749  0.2878 -0.3813
  375MOL0     H51716   2.070   7.634   1.648  0.5696 -1.2776 -1.1975
  375MOL0     H51717   2.017   7.769   1.547 -1.2651 -1.2449 -0.3194
  375MOL0     H51718   2.142   7.538   1.416  0.4281  0.4763  0.0275
  375MOL0     H51719   2.037   7.664   1.349 -1.0509 -0.1156  0.8678
  375MOL0     H51720   1.838   7.607   1.453 -2.1727 -1.4374 -0.1195
  375MOL0     H51721   1.901   7.490   1.563 -0.1751  3.1884  1.4845
  375MOL0     H51722   1.774   7.397   1.333  0.6090 -1.0859 -2.9630
  375MOL0     H51723   1.911   7.459   1.248 -0.7017  4.0902  1.1366
  375MOL0     H51724   1.937   7.244   1.457  1.6818 -2.3841 -0.4208
  375MOL0     H51725   2.070   7.333   1.363  0.1848 -1.3589 -2.6232
  375MOL0     H51726   2.023   7.233   1.161  1.3153  2.9215  3.2030
  375MOL0     H51727   1.864   7.166   1.215 -0.6160  0.8758 -2.6046
  375MOL0     H51728   2.146   7.104   1.293 -1.4107  1.3602  0.3955
  375MOL0     H51729   2.042   6.980   1.199  0.1771  0.2010 -0.6996
  375MOL0     H51730   2.386   7.620   1.369 -0.2810  0.4183  0.5447
  375MOL0     H51731   2.559   7.646   1.190  2.1384  0.8891 -1.7634
  375MOL0     H51732   2.630   8.029   0.871 -0.0217 -1.1889 -0.5640
  375MOL0     H51733   2.710   8.179   0.731  0.3763  1.8033  0.0909
  375MOL0     H51734   3.818   9.351   1.045 -0.4808 -0.8832 -3.2710
  375MOL0     H51735   3.801   9.587   1.046  0.7751  0.6355  0.4815
  375MOL0     H51736   3.911   9.969   0.865  2.7454 -1.5479 -0.2860
  375MOL0     H51737   3.878  10.221   0.859  0.4214 -5.0038 -3.2514
  375MOL0     H51738   3.938  10.429   1.206  1.6349  1.6738  1.7201
  375MOL0     H51739   4.077  10.499   1.130  0.0986 -1.8910 -1.0347
  375MOL0     H51740   3.780  10.548   1.071  1.1463 -1.0560 -0.1930
  375MOL0     H51741   3.901  10.641   0.986  0.0181  1.2558 -0.4027
  375MOL0     H51742   3.872  10.679   1.284  1.8496  0.2937 -0.0781
  375MOL0     H51743   3.943  10.782   1.164  0.3050  0.1833  0.0474
  375MOL0     H51744   3.743  10.893   1.221  0.7640 -1.9657  2.2092
  375MOL0     H51745   3.649  10.743   1.190  1.5686 -1.2230  1.8193
  375MOL0     H51746   3.671  10.849   0.798 -0.4213  1.9671  0.8232
  375MOL0     H51747   4.134  10.263   1.196 -1.0375 -1.0598  2.3931
  375MOL0     H51748   4.308   9.972   1.145 -1.4064  0.2851 -2.0540
  375MOL0     H51749   4.319  10.129   1.204  2.1081 -1.8092  0.0579
  375MOL0     H51750   4.217  10.011   1.298 -0.9742  3.5082  1.6240
  376MOL0     O51751   8.605   9.157   2.481  0.5862 -0.5200 -0.2068
  376MOL0     C51752   8.592   9.191   2.594  0.4212 -0.1618 -0.2140
  376MOL0     O51753   8.683   9.166   2.693 -0.5855 -0.8938  0.1650
  376MOL0     C51754   8.797   9.096   2.655  0.3297  0.2242 -0.1012
  376MOL0     C51755   8.830   8.975   2.724 -0.1918 -0.8749  0.4672
  376MOL0     C51756   8.952   8.914   2.695 -0.1781  0.7181 -0.0765
  376MOL0     C51757   9.046   8.970   2.619  1.3118  0.1464  0.3244
  376MOL0     O51758   9.165   8.907   2.627  0.0111 -0.0236 -0.6371
  376MOL0     C51759   9.274   8.964   2.550 -0.7680 -0.3242 -0.5779
  376MOL0     C51760   9.369   8.858   2.499 -0.6232 -0.1818  0.2100
  376MOL0     C51761   9.496   8.921   2.446  0.5103 -0.5918  0.5503
  376MOL0     C51762   9.573   8.824   2.360 -0.6023  0.4038 -0.0233
  376MOL0     C51763   9.708   8.888   2.321  0.0597 -0.5308  0.3467
  376MOL0     C51764   9.776   8.805   2.217 -1.0056 -0.6236  0.4384
  376MOL0     C51765   9.875   8.890   2.133 -0.4356  0.1297 -0.5323
  376MOL0     C51766   9.981   8.822   2.057  0.6727  0.0663  0.0351
  376MOL0     N51767   9.931   8.736   1.951  0.1555 -0.3207  0.0879
  376MOL0     C51768   9.899   8.778   1.825  0.0334  0.6707  0.0673
  376MOL0     C51769   9.845   8.662   1.770 -0.3847  1.0458  0.6551
  376MOL0     C51770   9.788   8.654   1.632 -0.4744 -0.7750 -0.9628
  376MOL0     C51771   9.643   8.594   1.642 -0.2512  0.5029 -0.0244
  376MOL0     C51772   9.550   8.627   1.520 -0.5646 -0.2637 -0.3499
  376MOL0     C51773   9.411   8.568   1.536  0.3574 -0.4465 -0.0077
  376MOL0     O51774   9.327   8.648   1.620  0.3713 -0.0246  0.5690
  376MOL0     C51775   9.200   8.601   1.656 -1.1837  0.6311 -0.4161
  376MOL0     C51776   9.161   8.465   1.673 -0.3730 -0.7698  0.2176
  376MOL0     C51777   9.034   8.412   1.712 -0.3691 -0.6698 -0.3542
  376MOL0     C51778   9.031   8.259   1.752  1.0425 -0.5413 -0.1653
  376MOL0     C51779   8.926   8.510   1.738  0.0425  0.1426  0.2539
  376MOL0     C51780   8.777   8.489   1.781 -0.0272 -0.6517 -0.0954
  376MOL0     O51781   8.691   8.587   1.818 -0.3036  0.8464 -0.3745
  376MOL0     C51782   8.583   8.536   1.889 -0.6026  0.0728  0.0754
  376MOL0     C51783   8.569   8.555   2.023 -0.3256  0.1329  0.3028
  376MOL0     C51784   8.454   8.516   2.101  0.7878 -0.5738  0.3014
  376MOL0     C51785   8.354   8.450   2.035 -0.3179  0.1768 -0.9606
  376MOL0     O51786   8.233   8.424   2.091 -0.6638 -0.3271 -0.6998
  376MOL0     C51787   8.214   8.402   2.231  0.1153 -0.3923  0.1060
  376MOL0     C51788   8.074   8.441   2.262 -0.7287 -0.3856 -0.0127
  376MOL0     C51789   8.035   8.385   2.398 -0.1160 -0.1101  0.0767
  376MOL0     C51790   7.887   8.391   2.421 -0.7035 -1.3564 -0.7518
  376MOL0     C51791   7.865   8.388   2.572  0.1910  0.6839 -0.5908
  376MOL0     C51792   7.713   8.413   2.592  0.7920 -0.2222  0.0898
  376MOL0     C51793   7.673   8.405   2.733  0.4060 -0.1598  0.0428
  376MOL0     C51794   7.712   8.264   2.787  0.0887 -0.8351  0.5122
  376MOL0    Cl51795   7.671   8.271   2.953 -0.1873  0.0781 -0.1503
  376MOL0     C51796   8.375   8.418   1.898  0.0102  0.5231  0.1439
  376MOL0     C51797   8.483   8.467   1.825 -0.5998  0.2537 -0.2831
  376MOL0     O51798   8.747   8.372   1.757  0.9018  0.4437 -0.0213
  376MOL0     C51799   8.971   8.644   1.728 -0.1426  0.1684  0.0520
  376MOL0     C51800   9.101   8.688   1.694  0.0407  0.0750  0.4701
  376MOL0     N51801   9.876   8.547   1.855 -0.1106 -0.2271  0.0411
  376MOL0     N51802   9.945   8.602   1.955 -0.1037  0.0835  0.5194
  376MOL0     C51803   9.010   9.087   2.552 -1.5397 -0.2963 -0.2708
  376MOL0     C51804   8.889   9.153   2.575  0.5790  0.3764 -0.8449
  376MOL0     C51805   8.477   9.280   2.639 -0.2188 -0.0682  0.1246
  376MOL0     C51806   8.357   9.271   2.555 -0.4785  0.7772  0.3644
  376MOL0     C51807   8.241   9.337   2.590 -0.0143 -0.1173  0.4328
  376MOL0     C51808   8.230   9.413   2.702  0.0121  1.1495  0.1842
  376MOL0     O51809   8.112   9.456   2.756  0.0644  0.0579  0.0391
  376MOL0     C51810   7.984   9.441   2.691  0.5801 -0.1453 -0.3191
  376MOL0     C51811   7.944   9.541   2.581  0.7118 -0.4620 -0.1356
  376MOL0     C51812   7.912   9.675   2.649  0.4531  0.7329 -0.1486
  376MOL0     C51813   7.936   9.784   2.545 -0.0537 -0.2139  0.3065
  376MOL0     C51814   7.839   9.785   2.436 -0.1513 -0.2112 -0.1552
  376MOL0     C51815   7.749   9.799   2.347  0.0924 -0.6078 -1.4298
  376MOL0     C51816   8.346   9.422   2.782 -0.6927  0.7172 -0.2697
  376MOL0     C51817   8.473   9.368   2.743  0.7637 -0.7109  0.8814
  376MOL0     C51818   8.595   9.407   2.827  0.9329 -0.2020 -0.1432
  376MOL0     H51819   8.769   8.919   2.794 -2.2837  1.1361  0.3630
  376MOL0     H51820   8.978   8.820   2.743  4.0070  0.1894 -2.7988
  376MOL0     H51821   9.334   9.030   2.614  0.6307 -3.0038  1.0500
  376MOL0     H51822   9.228   9.005   2.459 -2.3019 -1.4099 -0.3387
  376MOL0     H51823   9.379   8.794   2.587 -0.9275  1.0711  1.1701
  376MOL0     H51824   9.321   8.790   2.427 -2.8133  0.2329  1.1899
  376MOL0     H51825   9.467   9.006   2.382 -2.6843 -2.0301 -0.1039
  376MOL0     H51826   9.558   8.957   2.529 -1.1615 -0.7637  1.9165
  376MOL0     H51827   9.589   8.734   2.421 -0.5120  0.6759  0.3635
  376MOL0     H51828   9.513   8.797   2.273  1.4923 -0.1223 -1.3749
  376MOL0     H51829   9.769   8.908   2.410 -0.8546 -1.6990  1.2843
  376MOL0     H51830   9.675   8.982   2.276  1.8063 -0.7977 -1.6049
  376MOL0     H51831   9.831   8.725   2.268 -2.5941 -1.1700  1.3557
  376MOL0     H51832   9.698   8.765   2.152 -0.5688  1.2676 -1.3651
  376MOL0     H51833   9.939   8.941   2.205  0.9418 -2.1653 -0.0356
  376MOL0     H51834   9.821   8.967   2.077 -1.7022 -0.1908  0.2091
  376MOL0     H51835  10.056   8.887   2.012  1.4988 -1.7126 -1.2791
  376MOL0     H51836  10.048   8.763   2.120 -0.2021  0.8232  1.7495
  376MOL0     H51837   9.897   8.879   1.785 -0.4159  0.5624 -0.1846
  376MOL0     H51838   9.853   8.589   1.573  0.0747 -2.8238  1.7099
  376MOL0     H51839   9.776   8.753   1.587 -3.7741  0.3481  1.9208
  376MOL0     H51840   9.638   8.485   1.653 -2.9402  0.3445 -1.8869
  376MOL0     H51841   9.597   8.647   1.725 -1.4198 -0.3090 -0.1374
  376MOL0     H51842   9.550   8.735   1.508  0.5278 -0.2710 -0.5189
  376MOL0     H51843   9.607   8.576   1.441  1.6885 -0.1718  1.1314
  376MOL0     H51844   9.354   8.559   1.443  1.1677 -0.9400 -0.4723
  376MOL0     H51845   9.412   8.464   1.568  2.9056 -0.2967  0.6116
  376MOL0     H51846   9.250   8.404   1.665  0.0939 -0.1865  0.8565
  376MOL0     H51847   9.113   8.197   1.717  1.2033 -0.5342  0.1900
  376MOL0     H51848   8.933   8.223   1.719  0.9144  1.0091 -1.5831
  376MOL0     H51849   9.021   8.269   1.861 -4.0997 -1.9934 -0.2205
  376MOL0     H51850   8.637   8.622   2.075  1.4034 -0.3103 -1.2892
  376MOL0     H51851   8.458   8.553   2.203 -2.0838  0.2663  0.1930
  376MOL0     H51852   8.241   8.299   2.255  1.3411 -0.0311  0.3560
  376MOL0     H51853   8.277   8.464   2.295  0.3571 -0.9778  0.4391
  376MOL0     H51854   8.055   8.547   2.244  1.2642  0.0548  0.1917
  376MOL0     H51855   8.016   8.384   2.189  0.9435 -0.2245 -1.5375
  376MOL0     H51856   8.084   8.447   2.474 -0.4095  0.9891 -0.6087
  376MOL0     H51857   8.065   8.280   2.398 -0.1437 -0.1965 -2.7455
  376MOL0     H51858   7.831   8.315   2.365  0.2946 -2.4952 -0.2572
  376MOL0     H51859   7.853   8.491   2.395 -0.9112 -0.7503  1.5833
  376MOL0     H51860   7.887   8.286   2.604 -2.3844 -1.3954 -4.5872
  376MOL0     H51861   7.921   8.462   2.630  0.8352 -0.8289  0.7977
  376MOL0     H51862   7.657   8.332   2.543  1.1382  1.0418 -2.5607
  376MOL0     H51863   7.662   8.501   2.552 -1.5820 -0.7391  1.7305
  376MOL0     H51864   7.567   8.409   2.758  0.7547  0.2742  1.6020
  376MOL0     H51865   7.724   8.488   2.783 -1.5150  2.1331 -1.5997
  376MOL0     H51866   7.820   8.243   2.785  0.5374  1.2733  0.4567
  376MOL0     H51867   7.664   8.186   2.726 -0.9221  0.6074 -0.5978
  376MOL0     H51868   8.300   8.372   1.835  1.8019 -0.6688 -1.2073
  376MOL0     H51869   8.485   8.463   1.716  2.9290  4.6134 -0.6913
  376MOL0     H51870   8.896   8.717   1.755 -1.1271 -1.3994  1.7791
  376MOL0     H51871   9.134   8.791   1.687 -0.6234  0.2043 -1.0169
  376MOL0     H51872   9.073   9.149   2.491 -0.6825 -0.9562 -0.0792
  376MOL0     H51873   8.884   9.255   2.539  3.3100  0.6733 -0.6066
  376MOL0     H51874   8.357   9.216   2.462  0.4266 -1.6734  1.7194
  376MOL0     H51875   8.161   9.337   2.516  0.2988 -1.3538  0.0833
  376MOL0     H51876   7.977   9.338   2.655 -0.4498 -0.1092 -0.2491
  376MOL0     H51877   7.910   9.452   2.770 -0.0402  0.0263 -0.9194
  376MOL0     H51878   7.854   9.497   2.537 -0.6612  2.7624 -0.8946
  376MOL0     H51879   8.023   9.554   2.506 -0.1191  0.0522 -0.9412
  376MOL0     H51880   7.808   9.664   2.682  1.1136  0.4254  2.0023
  376MOL0     H51881   7.972   9.693   2.739 -0.6288  0.0435  0.7343
  376MOL0     H51882   8.035   9.777   2.499  0.4086  0.9362  1.0741
  376MOL0     H51883   7.933   9.882   2.593 -0.5093 -0.8994  1.7492
  376MOL0     H51884   7.669   9.807   2.278 -0.1904  1.1669 -0.9442
  376MOL0     H51885   8.330   9.484   2.870 -0.4305  1.2739 -0.6078
  376MOL0     H51886   8.680   9.453   2.774  4.6560 -1.6802  3.9597
  376MOL0     H51887   8.568   9.481   2.903 -1.3805 -2.5387  1.4663
  376MOL0     H51888   8.637   9.320   2.878 -2.2883 -1.4278  0.6178
  377MOL0     O51889   5.925   7.983   8.600 -0.1571  0.6974 -0.4624
  377MOL0     C51890   6.009   7.895   8.614 -0.3867  0.0071 -0.2218
  377MOL0     O51891   6.020   7.815   8.721  0.0107 -0.2281 -0.7523
  377MOL0     C51892   5.980   7.863   8.838  0.6992 -0.3731  0.2423
  377MOL0     C51893   5.851   7.898   8.873  0.1254 -0.1737  0.1275
  377MOL0     C51894   5.822   7.933   9.006  0.2687 -0.8533 -0.1714
  377MOL0     C51895   5.915   7.923   9.108 -0.4256 -0.0353 -0.0538
  377MOL0     O51896   5.867   7.941   9.236 -0.2605 -0.0807 -0.3664
  377MOL0     C51897   5.970   7.997   9.324  0.8412 -0.5390  0.3607
  377MOL0     C51898   5.912   8.019   9.462  0.6725 -0.9641  0.0880
  377MOL0     C51899   5.937   8.171   9.495  0.0135  0.0239  0.0587
  377MOL0     C51900   5.903   8.212   9.644  0.0488 -0.8712  0.8277
  377MOL0     C51901   5.854   8.360   9.669 -0.0425  0.7990 -0.0702
  377MOL0     C51902   5.709   8.374   9.619 -0.7791  0.1416 -0.0423
  377MOL0     C51903   5.634   8.500   9.671  0.2827 -0.2663 -0.4871
  377MOL0     C51904   5.488   8.498   9.632 -0.1257 -0.1935  0.3666
  377MOL0     N51905   5.430   8.361   9.622  0.6908  0.1447  0.2383
  377MOL0     C51906   5.338   8.307   9.717  0.0116 -0.2111  0.3645
  377MOL0     C51907   5.275   8.205   9.653  0.4122 -0.7175  0.6943
  377MOL0     C51908   5.165   8.111   9.706  0.5400  0.5296 -0.5087
  377MOL0     C51909   5.205   7.969   9.709  0.3006  0.5016 -0.2211
  377MOL0     C51910   5.108   7.902   9.799 -0.6388  0.0968 -0.5766
  377MOL0     C51911   5.081   7.761   9.752 -0.2747 -0.5270  0.4715
  377MOL0     O51912   5.193   7.681   9.796  0.8807  0.6661  0.4775
  377MOL0     C51913   5.237   7.576   9.715 -0.4116  0.0030 -0.1589
  377MOL0     C51914   5.160   7.519   9.609  0.2693 -0.9897  0.0947
  377MOL0     C51915   5.207   7.417   9.525 -0.4910  0.1250  1.0112
  377MOL0     C51916   5.117   7.353   9.430 -0.2770 -0.7503  0.1491
  377MOL0     C51917   5.341   7.369   9.550 -0.0708 -0.7499 -0.7344
  377MOL0     C51918   5.409   7.269   9.468 -0.1596  0.1424  0.2575
  377MOL0     O51919   5.542   7.283   9.447 -0.4460 -0.3820 -0.0266
  377MOL0     C51920   5.629   7.187   9.395  0.5206  0.0054 -0.1698
  377MOL0     C51921   5.597   7.052   9.406  0.3204  1.0468  0.5650
  377MOL0     C51922   5.684   6.953   9.350  0.3683  0.4901 -0.2134
  377MOL0     C51923   5.806   6.997   9.292 -0.0155 -0.0620 -0.7144
  377MOL0     O51924   5.890   6.901   9.244  0.3542 -0.8918  0.1378
  377MOL0     C51925   6.022   6.946   9.219 -0.9727  0.0385  0.1731
  377MOL0     C51926   6.111   6.822   9.197  0.3263  0.0992 -0.0352
  377MOL0     C51927   6.079   6.710   9.288  0.3474  0.4217 -0.3193
  377MOL0     C51928   6.147   6.583   9.235 -0.0757 -0.1037  0.6959
  377MOL0     C51929   6.113   6.462   9.323  0.6219 -0.2885  0.4023
  377MOL0     C51930   6.124   6.335   9.243  0.0979  1.2985  0.0915
  377MOL0     C51931   6.089   6.212   9.333  0.5276 -0.3470  0.2119
  377MOL0     C51932   6.072   6.079   9.260  0.3349 -0.6696  1.3029
  377MOL0    Cl51933   6.082   5.938   9.363 -0.0149  0.4565 -0.2694
  377MOL0     C51934   5.834   7.138   9.278 -0.5072 -0.1255  0.4656
  377MOL0     C51935   5.748   7.231   9.334 -0.4288  0.1051 -0.5765
  377MOL0     O51936   5.339   7.169   9.444 -0.6937  0.6932  0.4657
  377MOL0     C51937   5.421   7.426   9.648 -0.3791 -0.2441  0.6822
  377MOL0     C51938   5.366   7.523   9.745  0.4424  0.9026 -0.0292
  377MOL0     N51939   5.326   8.204   9.520 -0.0886  0.7085 -0.4567
  377MOL0     N51940   5.420   8.293   9.512  0.2509  1.1092  0.0715
  377MOL0     C51941   6.035   7.864   9.073  0.2906 -0.2362  0.3958
  377MOL0     C51942   6.069   7.846   8.943 -0.6279 -0.3682  0.3050
  377MOL0     C51943   6.107   7.880   8.507 -0.7564  0.2553 -0.4914
  377MOL0     C51944   6.238   7.852   8.541  0.5560  0.4982  0.4479
  377MOL0     C51945   6.339   7.837   8.440 -0.0481 -0.1478  0.0805
  377MOL0     C51946   6.314   7.849   8.300  0.1721 -0.4067 -0.3193
  377MOL0     O51947   6.398   7.846   8.186  0.7569  0.2838 -0.3107
  377MOL0     C51948   6.537   7.833   8.209  0.3514  0.5530 -0.5664
  377MOL0     C51949   6.568   7.688   8.257 -0.3318 -0.7089 -0.3009
  377MOL0     C51950   6.538   7.576   8.154 -0.7364 -0.4870  0.5874
  377MOL0     C51951   6.384   7.533   8.169  0.7737  1.3089 -0.1136
  377MOL0     C51952   6.369   7.388   8.136 -1.1984  0.3189 -0.7903
  377MOL0     C51953   6.365   7.276   8.107  0.5918  1.2314 -0.0135
  377MOL0     C51954   6.175   7.853   8.275  0.1850 -0.3782 -0.3164
  377MOL0     C51955   6.073   7.866   8.371 -0.1986  0.7594  1.1006
  377MOL0     C51956   5.926   7.852   8.329  0.7401 -0.6635  0.5860
  377MOL0     H51957   5.774   7.896   8.796  0.6774  0.2183 -0.4434
  377MOL0     H51958   5.717   7.954   9.025  0.1431  1.5693 -2.7733
  377MOL0     H51959   5.990   8.095   9.281  0.0958  0.8457  2.9096
  377MOL0     H51960   6.061   7.936   9.321  1.2267  0.0487  0.0953
  377MOL0     H51961   5.805   7.998   9.460  0.3657  0.4397 -2.3546
  377MOL0     H51962   5.964   7.957   9.536  1.2241 -0.2839  0.2802
  377MOL0     H51963   6.040   8.201   9.477  0.2397 -0.8679 -0.1907
  377MOL0     H51964   5.877   8.233   9.429  1.2287  2.8577  1.4567
  377MOL0     H51965   5.833   8.147   9.697 -0.6691 -0.8479 -0.0602
  377MOL0     H51966   5.996   8.193   9.698 -0.4874  1.6845  2.8538
  377MOL0     H51967   5.920   8.437   9.629  0.5507  1.5275  2.1498
  377MOL0     H51968   5.856   8.383   9.776 -1.9320 -0.0802  0.1941
  377MOL0     H51969   5.706   8.377   9.510  0.1849 -0.3675 -0.0907
  377MOL0     H51970   5.659   8.283   9.652  1.2889 -0.7857  0.6930
  377MOL0     H51971   5.687   8.586   9.627 -1.3562  0.8182 -0.4472
  377MOL0     H51972   5.648   8.518   9.778 -0.5146  0.2606 -0.4622
  377MOL0     H51973   5.430   8.554   9.706  2.2444  1.0954  1.3402
  377MOL0     H51974   5.476   8.552   9.538 -1.0571 -0.2483  0.4405
  377MOL0     H51975   5.331   8.340   9.820  0.3251 -1.2278  0.7298
  377MOL0     H51976   5.068   8.120   9.656 -1.0976  1.0595  2.5147
  377MOL0     H51977   5.144   8.153   9.804  1.6186  0.5771 -0.2833
  377MOL0     H51978   5.206   7.925   9.608 -2.3258  2.3250 -1.1579
  377MOL0     H51979   5.297   7.944   9.763 -0.3674 -0.2856  0.5901
  377MOL0     H51980   5.129   7.912   9.906  0.6010 -1.2126 -0.6660
  377MOL0     H51981   5.014   7.955   9.786 -0.0737  1.1348 -0.5644
  377MOL0     H51982   4.986   7.731   9.797  0.0703  0.3573  1.8617
  377MOL0     H51983   5.064   7.762   9.644 -0.8789 -1.6776  0.5381
  377MOL0     H51984   5.060   7.552   9.584  0.9144  1.6455  0.6308
  377MOL0     H51985   5.026   7.413   9.425 -0.1963 -0.5246  1.1222
  377MOL0     H51986   5.089   7.253   9.463  0.1652  0.1412  3.5689
  377MOL0     H51987   5.170   7.346   9.335  0.3038 -0.1664  0.4211
  377MOL0     H51988   5.513   7.014   9.464  2.1890 -1.1022  2.0468
  377MOL0     H51989   5.667   6.846   9.357  0.2003  0.5420  0.2686
  377MOL0     H51990   6.024   7.012   9.132 -0.8220  0.6531  0.6297
  377MOL0     H51991   6.068   7.002   9.301  0.0055  0.4902 -0.6642
  377MOL0     H51992   6.095   6.794   9.093 -3.1904 -0.0703  0.4197
  377MOL0     H51993   6.217   6.837   9.218  0.3467 -2.7898  2.5318
  377MOL0     H51994   5.973   6.688   9.277  0.4632 -0.3616  0.0297
  377MOL0     H51995   6.098   6.719   9.395  1.0070  0.4428 -0.4318
  377MOL0     H51996   6.255   6.595   9.241  0.2979 -2.9960  0.8947
  377MOL0     H51997   6.116   6.566   9.131  0.5216 -1.3053  0.6982
  377MOL0     H51998   6.164   6.475   9.419  0.9203  3.8220 -0.1425
  377MOL0     H51999   6.007   6.476   9.346  1.1316  1.0200  2.0549
  377MOL0     H52000   6.228   6.332   9.208  0.7188  0.0930  1.8967
  377MOL0     H52001   6.037   6.338   9.177 -2.1360  3.0584  2.9171
  377MOL0     H52002   5.998   6.243   9.385  2.2169  2.0527  1.9624
  377MOL0     H52003   6.174   6.207   9.400  1.2703 -1.0041 -0.7490
  377MOL0     H52004   6.149   6.076   9.182 -1.4231 -2.5066 -0.4899
  377MOL0     H52005   5.985   6.077   9.193  1.2155 -2.0912  0.1262
  377MOL0     H52006   5.927   7.168   9.231  3.6787 -2.2923  6.2938
  377MOL0     H52007   5.761   7.337   9.318 -3.6004  0.3447 -2.4852
  377MOL0     H52008   5.518   7.380   9.663 -0.7668 -1.5797 -0.6823
  377MOL0     H52009   5.421   7.562   9.829  0.5688 -0.9134  0.7670
  377MOL0     H52010   6.108   7.837   9.149 -1.7188 -1.4805  1.9536
  377MOL0     H52011   6.169   7.810   8.921 -0.6391  0.4963 -1.2686
  377MOL0     H52012   6.272   7.835   8.642 -0.6608 -0.2839  0.7502
  377MOL0     H52013   6.441   7.826   8.474  0.0898 -1.2987 -0.6581
  377MOL0     H52014   6.606   7.854   8.127  0.8716  1.7632  0.1552
  377MOL0     H52015   6.559   7.906   8.287 -1.4946  2.9024 -2.0928
  377MOL0     H52016   6.506   7.662   8.344  1.0344  1.6707  1.5264
  377MOL0     H52017   6.673   7.678   8.287  0.0103  1.4007 -0.6732
  377MOL0     H52018   6.570   7.585   8.049 -0.3187 -5.4939  0.0303
  377MOL0     H52019   6.602   7.494   8.189  0.3214 -0.0422 -0.2583
  377MOL0     H52020   6.307   7.596   8.123 -0.1494  2.0654  2.2875
  377MOL0     H52021   6.355   7.534   8.275  0.4161 -0.6663 -0.1553
  377MOL0     H52022   6.361   7.177   8.066  1.4492  0.8011  0.9002
  377MOL0     H52023   6.153   7.850   8.169 -1.8038 -0.0489  0.0609
  377MOL0     H52024   5.896   7.946   8.283 -0.3293 -0.4095  1.7367
  377MOL0     H52025   5.906   7.774   8.255 -2.5020  1.6592 -1.2411
  377MOL0     H52026   5.860   7.842   8.416 -2.5023  1.1685 -1.4999
  378MOL0     O52027   6.586   7.753   3.353 -0.0387 -0.1436  0.4484
  378MOL0     C52028   6.638   7.852   3.410 -0.8433  0.3794  0.3419
  378MOL0     O52029   6.726   7.840   3.515 -0.4382  0.7020  0.0116
  378MOL0     C52030   6.747   7.718   3.570  0.5874  0.2829  0.6608
  378MOL0     C52031   6.661   7.672   3.663  0.0592 -0.1812  0.9122
  378MOL0     C52032   6.695   7.566   3.743  1.1316  0.5094 -1.0613
  378MOL0     C52033   6.809   7.495   3.725 -0.7033 -0.5396 -0.2018
  378MOL0     O52034   6.829   7.388   3.804 -0.1240  0.2974  0.5370
  378MOL0     C52035   6.904   7.282   3.743 -0.7630  0.5464  0.6280
  378MOL0     C52036   6.846   7.144   3.775  0.4226  0.1498  0.5297
  378MOL0     C52037   6.697   7.133   3.736 -0.2021  0.4070  0.4003
  378MOL0     C52038   6.645   7.004   3.801  0.5480 -0.0693 -0.2128
  378MOL0     C52039   6.487   6.997   3.773  0.1749 -1.1216 -0.0333
  378MOL0     C52040   6.443   6.853   3.742  0.4294  0.2047 -0.9067
  378MOL0     C52041   6.346   6.788   3.840  1.0127  0.3235 -0.1808
  378MOL0     C52042   6.367   6.641   3.856 -0.2119  0.2888  0.9482
  378MOL0     N52043   6.286   6.580   3.954  0.6176  0.1172 -1.1427
  378MOL0     C52044   6.152   6.555   3.932  0.3613 -0.4375 -1.0347
  378MOL0     C52045   6.117   6.485   4.045  0.0926  0.0729  0.0330
  378MOL0     C52046   5.975   6.438   4.077 -0.1809 -0.5087  0.0268
  378MOL0     C52047   5.916   6.527   4.188  0.0440  0.0325 -0.3244
  378MOL0     C52048   5.773   6.473   4.228  1.0059 -0.1555  0.5404
  378MOL0     C52049   5.665   6.537   4.128 -0.4718 -0.0146  0.1757
  378MOL0     O52050   5.531   6.476   4.144  0.1655  1.1362 -0.5344
  378MOL0     C52051   5.418   6.516   4.074 -0.3373  0.0043  1.4668
  378MOL0     C52052   5.314   6.425   4.056  0.6360  0.9330  0.9570
  378MOL0     C52053   5.205   6.452   3.977 -0.5616  0.4726  0.2463
  378MOL0     C52054   5.111   6.338   3.970  0.7534 -0.0724  0.4015
  378MOL0     C52055   5.198   6.573   3.911 -1.2244  0.3461 -0.4730
  378MOL0     C52056   5.083   6.619   3.829 -0.1544  1.0483 -0.1283
  378MOL0     O52057   5.067   6.746   3.806  0.2591  0.8494 -0.0716
  378MOL0     C52058   4.966   6.783   3.721 -0.4363  0.3503 -0.3506
  378MOL0     C52059   5.001   6.849   3.608  1.2735 -0.4938  0.0291
  378MOL0     C52060   4.907   6.906   3.530 -0.1058  0.3098 -0.8100
  378MOL0     C52061   4.773   6.884   3.563  0.1097  0.0378  0.9798
  378MOL0     O52062   4.677   6.925   3.474  0.1786  0.1897 -0.6157
  378MOL0     C52063   4.537   6.896   3.477  0.1154  0.7328 -0.0290
  378MOL0     C52064   4.484   6.947   3.342  0.9321  0.6573  0.6952
  378MOL0     C52065   4.330   6.907   3.326 -0.3281 -0.5691  0.1632
  378MOL0     C52066   4.270   6.970   3.204  0.2893  0.2488 -1.1664
  378MOL0     C52067   4.120   6.962   3.205  0.8725 -0.8142 -0.5328
  378MOL0     C52068   4.061   7.001   3.065  0.6318  0.0202 -0.5665
  378MOL0     C52069   4.077   7.141   3.006  0.6743  0.8772 -0.8142
  378MOL0     C52070   3.965   7.143   2.893  0.1617 -0.5237  0.3460
  378MOL0    Cl52071   3.801   7.128   2.961  0.2879 -0.1236  0.0018
  378MOL0     C52072   4.736   6.819   3.681 -0.3269 -0.3697  1.1934
  378MOL0     C52073   4.834   6.780   3.773  0.1635 -0.2491  0.2015
  378MOL0     O52074   5.023   6.530   3.774  0.1456 -0.0498 -0.3637
  378MOL0     C52075   5.299   6.671   3.940  0.5150  0.8263  0.6433
  378MOL0     C52076   5.407   6.640   4.012 -0.6844 -0.2630  0.2188
  378MOL0     N52077   6.225   6.466   4.125  0.1585 -0.0651  0.2505
  378MOL0     N52078   6.325   6.529   4.073  0.5887  0.2394 -0.0481
  378MOL0     C52079   6.900   7.535   3.626 -0.3194 -0.3291  0.6987
  378MOL0     C52080   6.868   7.656   3.551 -0.5410  0.2541 -0.9900
  378MOL0     C52081   6.611   7.982   3.348  0.2857 -1.1328  0.0220
  378MOL0     C52082   6.537   7.992   3.225  0.6344  0.1455  0.1250
  378MOL0     C52083   6.524   8.115   3.157  0.0477  1.9345 -0.2340
  378MOL0     C52084   6.585   8.228   3.199 -0.2904  0.0339 -0.7922
  378MOL0     O52085   6.585   8.336   3.121  0.1417  0.7728  0.0415
  378MOL0     C52086   6.467   8.380   3.049 -0.1546  0.7479 -0.5067
  378MOL0     C52087   6.350   8.407   3.142 -0.3829  0.2578 -0.2214
  378MOL0     C52088   6.220   8.439   3.070 -0.3693  0.9431  0.2601
  378MOL0     C52089   6.151   8.521   3.173 -0.2160 -0.0614  0.1435
  378MOL0     C52090   6.005   8.541   3.127 -0.4441  0.7968 -0.5362
  378MOL0     C52091   5.890   8.532   3.097 -0.0958 -0.1680  0.1954
  378MOL0     C52092   6.652   8.217   3.322 -0.7370 -0.1033  0.2153
  378MOL0     C52093   6.665   8.105   3.398  0.6141  0.3545  0.1443
  378MOL0     C52094   6.726   8.133   3.539  0.3384  0.2095 -1.1263
  378MOL0     H52095   6.569   7.726   3.681 -0.8555 -0.5209 -2.1538
  378MOL0     H52096   6.626   7.540   3.823  0.6892  2.4713 -0.7435
  378MOL0     H52097   7.010   7.281   3.771 -0.6322 -2.3177  0.3131
  378MOL0     H52098   6.893   7.277   3.634 -1.3213 -0.2185  0.7136
  378MOL0     H52099   6.900   7.064   3.723 -1.9212  1.0005 -3.6506
  378MOL0     H52100   6.859   7.127   3.882 -1.1755  0.8288  0.8664
  378MOL0     H52101   6.633   7.216   3.767  1.0584  0.4135  3.2444
  378MOL0     H52102   6.690   7.126   3.627  0.3538 -0.8223  0.4271
  378MOL0     H52103   6.693   6.908   3.783 -0.3688 -0.3528 -1.2502
  378MOL0     H52104   6.670   7.007   3.908 -1.8334 -3.1697  0.5883
  378MOL0     H52105   6.463   7.068   3.693  1.7545 -1.4235 -0.8208
  378MOL0     H52106   6.437   7.025   3.866  2.7885  1.2079  0.7928
  378MOL0     H52107   6.396   6.855   3.643 -2.2496 -0.7110  0.2354
  378MOL0     H52108   6.532   6.791   3.734  0.2697 -0.0394 -0.8172
  378MOL0     H52109   6.243   6.802   3.807 -0.0509 -3.3163  1.0960
  378MOL0     H52110   6.361   6.833   3.938 -0.3940  2.8348 -1.0210
  378MOL0     H52111   6.343   6.588   3.763  1.0137  0.5879  0.4341
  378MOL0     H52112   6.471   6.625   3.886 -0.2719 -1.1019  0.5075
  378MOL0     H52113   6.095   6.579   3.843  1.1941  0.6367 -1.3005
  378MOL0     H52114   5.996   6.334   4.104  1.3127 -0.4809 -0.8811
  378MOL0     H52115   5.910   6.436   3.989 -0.0641  1.2907 -0.1391
  378MOL0     H52116   5.969   6.508   4.282 -3.2373  1.8113  2.1220
  378MOL0     H52117   5.918   6.635   4.168 -0.3310  0.1213  0.0938
  378MOL0     H52118   5.756   6.364   4.228 -1.4996  0.1666  1.9080
  378MOL0     H52119   5.752   6.512   4.328  2.0660  2.6279 -0.2570
  378MOL0     H52120   5.662   6.645   4.142 -0.1831  0.2750 -1.8122
  378MOL0     H52121   5.688   6.518   4.023 -2.7851 -0.5699 -0.3068
  378MOL0     H52122   5.328   6.330   4.107  1.8974 -0.1471 -1.2317
  378MOL0     H52123   5.138   6.256   4.037 -2.0032  0.0702  1.8293
  378MOL0     H52124   5.100   6.301   3.867 -0.5149  0.1305  0.4401
  378MOL0     H52125   5.014   6.379   4.000 -0.1373 -0.1283 -2.0979
  378MOL0     H52126   5.106   6.866   3.587  0.6466  1.9559 -1.5027
  378MOL0     H52127   4.930   6.960   3.438  1.5718 -0.4923 -0.8996
  378MOL0     H52128   4.504   6.792   3.494 -1.6006  1.0845 -0.9927
  378MOL0     H52129   4.508   6.964   3.557 -1.1646  0.8955 -0.6101
  378MOL0     H52130   4.481   7.055   3.331  0.7304  0.4085 -2.6731
  378MOL0     H52131   4.542   6.900   3.262 -2.2545  1.2507 -2.1561
  378MOL0     H52132   4.271   6.942   3.411 -2.3218 -1.3577 -0.8105
  378MOL0     H52133   4.317   6.799   3.322  0.9698 -0.7073 -1.6079
  378MOL0     H52134   4.309   6.901   3.128  2.9162 -1.9111  1.8451
  378MOL0     H52135   4.293   7.076   3.191 -4.7096  1.4848 -1.7232
  378MOL0     H52136   4.097   6.858   3.228  3.8998 -1.7810 -1.4807
  378MOL0     H52137   4.076   7.026   3.282  1.1521 -1.5183  0.2320
  378MOL0     H52138   3.956   6.971   3.071  0.6898  0.0535  1.2388
  378MOL0     H52139   4.097   6.930   2.990 -1.9056 -1.1598 -0.7714
  378MOL0     H52140   4.182   7.150   2.976  1.3598  1.5301  1.5881
  378MOL0     H52141   4.062   7.221   3.079 -0.5058  0.4176 -0.5355
  378MOL0     H52142   3.976   7.065   2.818 -2.5273  0.9202 -1.7755
  378MOL0     H52143   3.970   7.243   2.847  1.4178 -1.7333 -2.3413
  378MOL0     H52144   4.631   6.800   3.700 -0.4381  0.4146  1.3976
  378MOL0     H52145   4.818   6.744   3.874 -3.4646 -0.5094 -0.3271
  378MOL0     H52146   5.291   6.777   3.916 -2.0891  1.0038  1.9610
  378MOL0     H52147   5.493   6.705   4.021 -1.1861  0.4894 -0.2780
  378MOL0     H52148   6.994   7.480   3.624  0.6297  0.9583  4.0291
  378MOL0     H52149   6.945   7.694   3.485 -0.9374  0.7447 -1.1835
  378MOL0     H52150   6.469   7.919   3.182 -0.7414  1.8525 -0.7563
  378MOL0     H52151   6.468   8.115   3.064  1.2230 -2.2706 -1.1623
  378MOL0     H52152   6.491   8.473   2.997  0.7727  0.5192 -0.5018
  378MOL0     H52153   6.445   8.315   2.963 -1.0909  2.9728 -2.0438
  378MOL0     H52154   6.381   8.491   3.205 -1.2111 -0.3705  1.0616
  378MOL0     H52155   6.326   8.317   3.199 -2.3047  1.4270  0.8979
  378MOL0     H52156   6.227   8.492   2.975  1.0599 -3.7080 -2.5779
  378MOL0     H52157   6.165   8.353   3.031  1.8285  0.2050 -1.3832
  378MOL0     H52158   6.197   8.620   3.183  1.1681 -0.8612  2.3419
  378MOL0     H52159   6.156   8.477   3.273 -0.7157 -0.6604 -0.0905
  378MOL0     H52160   5.784   8.537   3.082 -0.2579 -1.3808  0.7395
  378MOL0     H52161   6.699   8.308   3.359 -0.2264  0.0740 -0.8266
  378MOL0     H52162   6.650   8.098   3.610  0.9846 -3.4487 -2.0128
  378MOL0     H52163   6.819   8.075   3.548 -0.2687 -0.4553  2.4363
  378MOL0     H52164   6.740   8.240   3.555 -1.9287  1.2078 -4.6683
  379MOL0     O52165   9.042  10.981  11.083  0.1059 -0.2556  0.5070
  379MOL0     C52166   9.055  10.925  11.194  0.8679  0.4307  0.8311
  379MOL0     O52167   9.048  10.794  11.207  0.0319 -0.5601 -0.3129
  379MOL0     C52168   9.049  10.714  11.095 -0.0134 -0.0963  0.0501
  379MOL0     C52169   9.151  10.733  11.003 -0.0836  0.4408  0.4986
  379MOL0     C52170   9.164  10.634  10.893  0.6841  0.2481 -0.5251
  379MOL0     C52171   9.096  10.514  10.887 -0.5134  1.1604  0.8775
  379MOL0     O52172   9.128  10.422  10.789  0.2038  0.2471  0.2500
  379MOL0     C52173   9.040  10.306  10.776 -0.6931 -0.5606 -1.0543
  379MOL0     C52174   9.096  10.216  10.671  0.3810  0.5288 -0.4531
  379MOL0     C52175   9.239  10.159  10.698 -0.0806 -0.8132 -0.0939
  379MOL0     C52176   9.273  10.064  10.589 -0.6914  0.7305  0.8827
  379MOL0     C52177   9.411  10.002  10.611 -0.8570 -0.1775 -0.3272
  379MOL0     C52178   9.510  10.112  10.618  0.0322 -0.8659  0.4388
  379MOL0     C52179   9.651  10.056  10.598  0.0816  0.5114 -0.4330
  379MOL0     C52180   9.731  10.043  10.735  0.8322  0.4396 -0.2854
  379MOL0     N52181   9.864   9.986  10.717 -0.6930  0.3398 -0.0368
  379MOL0     C52182   9.901   9.875  10.639 -0.4017 -0.5217  0.2425
  379MOL0     C52183  10.035   9.869  10.648 -1.1564  0.6028 -0.3661
  379MOL0     C52184  10.113   9.768  10.566  0.0235 -1.0685 -0.3046
  379MOL0     C52185  10.239   9.722  10.648 -0.3704 -0.3599 -0.1563
  379MOL0     C52186  10.357   9.820  10.652  0.1824  0.3580  0.8664
  379MOL0     C52187  10.478   9.739  10.704 -0.0865  0.4850  0.3101
  379MOL0     O52188  10.538   9.676  10.577  0.1372  0.2714 -0.3086
  379MOL0     C52189  10.650   9.609  10.583 -0.0060 -0.1885  0.1234
  379MOL0     C52190  10.728   9.590  10.703  0.1121  0.1667 -0.1573
  379MOL0     C52191  10.856   9.532  10.697 -0.4358 -0.1637  0.6636
  379MOL0     C52192  10.921   9.521  10.830 -0.5982  0.1953  0.4880
  379MOL0     C52193  10.912   9.477  10.575  0.3993  0.7475 -0.8317
  379MOL0     C52194  11.040   9.398  10.571 -0.5621  0.3810  0.1973
  379MOL0     O52195  11.103   9.368  10.683  0.6484  0.7487 -0.0608
  379MOL0     C52196  11.228   9.323  10.698 -0.0244  0.4641 -0.8256
  379MOL0     C52197  11.256   9.289  10.831 -0.2081  0.9679  0.9322
  379MOL0     C52198  11.377   9.232  10.873 -0.4921  0.1990 -0.5269
  379MOL0     C52199  11.471   9.212  10.780  0.8434 -0.2704  0.7593
  379MOL0     O52200  11.605   9.191  10.820  0.1251  0.2959 -0.3390
  379MOL0     C52201  11.671   9.088  10.756  0.1748 -0.1664  0.3200
  379MOL0     C52202  11.813   9.118  10.690  0.0944 -0.1429 -0.3838
  379MOL0     C52203  11.847   9.029  10.577 -0.7158  0.4119  0.2531
  379MOL0     C52204  11.894   8.887  10.618 -0.2403 -0.5240  0.3196
  379MOL0     C52205  11.984   8.835  10.516 -0.2353  0.3354 -0.7707
  379MOL0     C52206  12.032   8.697  10.566  0.0129  0.4039 -0.5831
  379MOL0     C52207  12.122   8.633  10.466  0.1062 -1.3982 -0.3597
  379MOL0     C52208  12.058   8.559  10.358  0.0469  0.4834 -1.0423
  379MOL0    Cl52209  12.178   8.462  10.287 -0.3474 -0.4306 -0.1644
  379MOL0     C52210  11.455   9.256  10.648  0.2323  0.9509  0.5961
  379MOL0     C52211  11.331   9.309  10.608  1.2378 -0.2728 -0.6185
  379MOL0     O52212  11.089   9.392  10.455 -0.2373  0.4935  0.2858
  379MOL0     C52213  10.831   9.494  10.459 -0.1521 -0.4353  0.6069
  379MOL0     C52214  10.703   9.562  10.463  0.0106  0.2936 -0.4209
  379MOL0     N52215  10.075   9.964  10.749  0.5912  0.5525  0.4519
  379MOL0     N52216   9.973  10.037  10.785 -0.2766  0.8326  0.1214
  379MOL0     C52217   8.995  10.495  10.991  0.0352 -0.0755 -0.0236
  379MOL0     C52218   8.973  10.598  11.089 -1.1327  0.1562 -0.1277
  379MOL0     C52219   9.047  11.009  11.324  1.1096 -0.4969  0.2070
  379MOL0     C52220   9.020  10.934  11.440 -0.4976  0.2808  0.4529
  379MOL0     C52221   9.002  10.992  11.561  0.9749  0.8783  0.7350
  379MOL0     C52222   9.004  11.131  11.574 -0.2322  0.3655  0.2733
  379MOL0     O52223   8.969  11.174  11.704 -0.3012 -0.2647 -0.3249
  379MOL0     C52224   8.938  11.316  11.710  0.2610 -0.5386 -0.4216
  379MOL0     C52225   8.860  11.347  11.838 -0.1524 -0.4379  1.2875
  379MOL0     C52226   8.952  11.299  11.966 -0.2704 -1.0852 -0.0237
  379MOL0     C52227   8.934  11.371  12.097  0.4992 -0.1595 -0.0189
  379MOL0     C52228   8.795  11.390  12.130 -0.4027 -0.7234  0.0375
  379MOL0     C52229   8.686  11.396  12.171 -0.0917  0.2868 -0.3611
  379MOL0     C52230   9.028  11.211  11.461  0.6692  0.6138  0.4069
  379MOL0     C52231   9.056  11.153  11.337  0.9694 -0.3015  0.0455
  379MOL0     C52232   9.069  11.238  11.215  0.1799  0.1011 -0.9211
  379MOL0     H52233   9.222  10.815  10.996  0.5408 -0.1896 -1.0872
  379MOL0     H52234   9.250  10.647  10.829  1.6192  0.7047  0.8017
  379MOL0     H52235   8.945  10.342  10.737 -1.9763  0.3240  2.4874
  379MOL0     H52236   9.044  10.253  10.872 -0.5478  2.4738  0.7586
  379MOL0     H52237   9.030  10.129  10.664  1.0631  0.0660 -1.3009
  379MOL0     H52238   9.093  10.276  10.580 -0.9003  0.3762 -0.5234
  379MOL0     H52239   9.304  10.247  10.692  0.1595 -1.0288 -0.7861
  379MOL0     H52240   9.244  10.098  10.788 -1.4556 -0.0517  0.5215
  379MOL0     H52241   9.214   9.973  10.598 -0.6289  0.3778 -1.6388
  379MOL0     H52242   9.257  10.106  10.490 -0.1991 -2.3798 -0.6303
  379MOL0     H52243   9.436   9.938  10.526 -2.2028 -0.1578 -0.7691
  379MOL0     H52244   9.421   9.950  10.706  0.3538  1.2772  0.3828
  379MOL0     H52245   9.497  10.186  10.539  2.0933 -0.0036  0.8502
  379MOL0     H52246   9.496  10.158  10.716 -1.2405  1.9288 -0.9645
  379MOL0     H52247   9.709  10.126  10.537 -0.3636  0.8983 -0.4223
  379MOL0     H52248   9.645   9.966  10.537 -2.8510  1.3437 -1.5855
  379MOL0     H52249   9.739  10.143  10.778 -0.6521  0.1045  0.8590
  379MOL0     H52250   9.675   9.988  10.811  0.1368  2.8542  1.0229
  379MOL0     H52251   9.850   9.796  10.585 -1.5004 -2.9503  4.4203
  379MOL0     H52252  10.148   9.812  10.473  0.5070  0.3829  0.5241
  379MOL0     H52253  10.048   9.688  10.530 -2.6207  1.3679 -1.4105
  379MOL0     H52254  10.221   9.696  10.752 -0.9602  1.4573  0.2349
  379MOL0     H52255  10.280   9.635  10.595  0.0696 -1.5572  2.0533
  379MOL0     H52256  10.385   9.859  10.553  1.6664 -2.0976  0.2377
  379MOL0     H52257  10.335   9.902  10.722  2.1849 -0.5307  2.6493
  379MOL0     H52258  10.549   9.803  10.757  0.3708  3.0927 -3.0980
  379MOL0     H52259  10.452   9.659  10.774  0.9827 -2.8616 -2.7822
  379MOL0     H52260  10.701   9.640  10.796 -0.7853 -2.5634  1.1569
  379MOL0     H52261  11.024   9.558  10.827 -0.5840  0.1547  0.4675
  379MOL0     H52262  10.925   9.421  10.875  2.0302  0.1551  0.3269
  379MOL0     H52263  10.864   9.595  10.888 -3.9070  0.7353 -3.0931
  379MOL0     H52264  11.192   9.301  10.918 -0.8054 -1.0853  0.8273
  379MOL0     H52265  11.397   9.202  10.976 -1.3943  1.1642 -0.0492
  379MOL0     H52266  11.691   9.014  10.834 -2.7062  1.3599  2.7337
  379MOL0     H52267  11.605   9.034  10.688 -0.0679 -0.6523  0.9363
  379MOL0     H52268  11.810   9.223  10.659  1.4068  0.0529  0.0815
  379MOL0     H52269  11.895   9.111  10.763 -0.3768  1.9020  0.4181
  379MOL0     H52270  11.927   9.076  10.518  1.3844  0.5498  2.9864
  379MOL0     H52271  11.766   9.023  10.503 -0.5154 -1.6658  0.1412
  379MOL0     H52272  11.803   8.828  10.633  0.4552 -1.8457 -0.4325
  379MOL0     H52273  11.945   8.884  10.715 -1.5272 -2.0839  0.9965
  379MOL0     H52274  11.924   8.827  10.425 -0.7778 -0.1883 -0.3731
  379MOL0     H52275  12.067   8.906  10.501 -0.6461  1.1506  0.5813
  379MOL0     H52276  11.941   8.638  10.580 -1.8701  3.6013  2.2864
  379MOL0     H52277  12.081   8.696  10.663 -2.9825  0.5833  1.0253
  379MOL0     H52278  12.190   8.569  10.524  2.8256  1.7668  0.2566
  379MOL0     H52279  12.184   8.699  10.405  1.0871 -2.0796 -0.1430
  379MOL0     H52280  12.006   8.620  10.284 -0.9578 -1.7014 -2.2498
  379MOL0     H52281  11.987   8.487  10.399  0.4759  0.1097 -0.9417
  379MOL0     H52282  11.541   9.269  10.583  1.3442  1.0223  2.0414
  379MOL0     H52283  11.324   9.336  10.503  2.3991  2.8451 -0.0007
  379MOL0     H52284  10.873   9.463  10.364  1.6111  2.2397  0.4063
  379MOL0     H52285  10.642   9.588  10.378  3.0518  0.2633 -2.7732
  379MOL0     H52286   8.925  10.413  10.990  0.7128 -0.7558 -3.1479
  379MOL0     H52287   8.894  10.593  11.163 -1.7562  1.5057 -0.6604
  379MOL0     H52288   9.023  10.826  11.429  1.2898  0.2839  0.6823
  379MOL0     H52289   8.972  10.935  11.648  2.8237  2.0234  2.1962
  379MOL0     H52290   9.038  11.359  11.695 -0.6432  1.5990 -0.6389
  379MOL0     H52291   8.877  11.345  11.624  1.8663  4.3110 -0.2429
  379MOL0     H52292   8.764  11.295  11.846  1.1636 -3.5755 -1.1054
  379MOL0     H52293   8.846  11.455  11.844 -0.2683 -0.1654 -2.2146
  379MOL0     H52294   8.955  11.191  11.979  1.9757 -1.3093 -1.7420
  379MOL0     H52295   9.055  11.318  11.935 -0.4514 -0.2948 -0.1816
  379MOL0     H52296   8.995  11.462  12.098  2.8558 -1.5944 -2.5354
  379MOL0     H52297   8.972  11.308  12.178  1.9306 -0.3177 -0.7910
  379MOL0     H52298   8.588  11.410  12.212  0.7470  2.2873  1.0839
  379MOL0     H52299   9.030  11.317  11.485  0.3057  0.0584  3.2501
  379MOL0     H52300   9.158  11.217  11.154  0.2323 -1.0121 -0.4844
  379MOL0     H52301   8.981  11.230  11.149  2.0406 -0.0990 -3.5573
  379MOL0     H52302   9.085  11.338  11.254  0.6031 -1.2375  2.7327
  380MOL0     O52303   6.631   6.785   5.761 -0.2570  0.4808 -0.2151
  380MOL0     C52304   6.537   6.819   5.695 -0.1589  0.3852  0.0241
  380MOL0     O52305   6.505   6.768   5.566 -0.0123  0.3418 -0.3107
  380MOL0     C52306   6.601   6.697   5.498  0.3414 -1.0974 -0.1643
  380MOL0     C52307   6.566   6.578   5.430  0.8697  0.2978 -0.2512
  380MOL0     C52308   6.660   6.505   5.353  0.7256 -0.0308  0.0966
  380MOL0     C52309   6.798   6.545   5.354 -0.4746  0.3545 -0.2662
  380MOL0     O52310   6.901   6.482   5.289 -0.3734  0.6812 -0.1399
  380MOL0     C52311   6.874   6.368   5.202  0.3512  0.4683  0.4511
  380MOL0     C52312   7.005   6.305   5.149  0.1300  0.1356  0.4781
  380MOL0     C52313   7.101   6.283   5.260  0.5798 -0.4865 -0.1703
  380MOL0     C52314   7.218   6.196   5.214 -0.1701 -0.0841  1.4594
  380MOL0     C52315   7.334   6.182   5.321  0.2028  0.2651  0.3379
  380MOL0     C52316   7.423   6.062   5.286 -0.1750  0.9909 -0.0388
  380MOL0     C52317   7.514   6.027   5.404 -0.8081 -0.1865  0.7388
  380MOL0     C52318   7.518   5.878   5.399  1.2170  0.0298 -0.7494
  380MOL0     N52319   7.628   5.812   5.472  0.6044 -1.1589  1.0353
  380MOL0     C52320   7.692   5.856   5.591 -0.3274  0.7940  0.0161
  380MOL0     C52321   7.802   5.775   5.596  0.2866  0.9214 -0.4577
  380MOL0     C52322   7.903   5.786   5.706 -0.7102  0.9319 -0.0962
  380MOL0     C52323   7.946   5.930   5.728  0.1386  0.7088 -0.0873
  380MOL0     C52324   8.058   5.986   5.627  0.4503  1.0141 -0.7300
  380MOL0     C52325   8.104   6.120   5.696 -0.5521  0.5685  0.1147
  380MOL0     O52326   8.207   6.183   5.620 -0.5633  0.1031 -0.5305
  380MOL0     C52327   8.318   6.110   5.586  0.4508  0.3912  0.4275
  380MOL0     C52328   8.402   6.050   5.684 -0.0114  0.2624  0.5697
  380MOL0     C52329   8.521   5.980   5.660 -0.1602 -0.5775  0.0383
  380MOL0     C52330   8.594   5.931   5.782  0.4524  0.8107  0.3895
  380MOL0     C52331   8.561   5.960   5.527  0.2941  0.1169  0.1955
  380MOL0     C52332   8.688   5.897   5.480  0.3905  0.0077 -1.1295
  380MOL0     O52333   8.731   5.923   5.355 -0.0376 -0.2798  0.2220
  380MOL0     C52334   8.853   5.887   5.301  0.3905  0.4954  0.4686
  380MOL0     C52335   8.962   5.826   5.358 -0.4089 -0.5637 -0.2340
  380MOL0     C52336   9.080   5.807   5.273  0.1425  0.2059 -0.6900
  380MOL0     C52337   9.088   5.859   5.143 -0.8325 -0.6092  0.3756
  380MOL0     O52338   9.203   5.844   5.067 -0.2562 -0.4103 -0.6173
  380MOL0     C52339   9.295   5.740   5.086 -0.0356 -0.3267  0.4694
  380MOL0     C52340   9.361   5.698   4.955  0.3218  0.2255  0.1434
  380MOL0     C52341   9.498   5.634   4.986 -0.4039 -0.3169 -0.0814
  380MOL0     C52342   9.565   5.617   4.852  1.1266  0.3589  0.3886
  380MOL0     C52343   9.714   5.608   4.866  0.0021  0.2843 -0.2401
  380MOL0     C52344   9.781   5.584   4.730  0.6411 -0.7006 -1.1191
  380MOL0     C52345   9.903   5.488   4.740  0.6547  0.6046  0.3885
  380MOL0     C52346  10.041   5.563   4.756 -0.2562 -1.0231 -0.7034
  380MOL0    Cl52347  10.174   5.444   4.792  0.3970 -0.1572  0.3871
  380MOL0     C52348   8.976   5.913   5.095  1.2045  0.8400  0.3865
  380MOL0     C52349   8.859   5.927   5.168  1.0402 -0.6286 -0.1232
  380MOL0     O52350   8.749   5.829   5.560  0.2385 -0.0019 -0.1047
  380MOL0     C52351   8.483   6.026   5.420  0.7557 -0.5281 -0.7143
  380MOL0     C52352   8.360   6.091   5.453  0.5462  0.6848 -0.2076
  380MOL0     N52353   7.796   5.673   5.496  0.3389 -0.0309  0.1782
  380MOL0     N52354   7.697   5.706   5.418  0.9193  0.3107  0.6098
  380MOL0     C52355   6.833   6.657   5.427 -0.1442 -0.9693 -0.1898
  380MOL0     C52356   6.738   6.741   5.494  0.2293 -0.1097 -0.1987
  380MOL0     C52357   6.437   6.900   5.771  0.5735  0.8986  0.6170
  380MOL0     C52358   6.472   6.952   5.895  0.2590  0.2339 -0.7353
  380MOL0     C52359   6.382   7.043   5.961 -0.3609 -0.4120 -1.0796
  380MOL0     C52360   6.254   7.045   5.920  0.1059  0.8290 -0.5481
  380MOL0     O52361   6.157   7.099   6.007  0.4582 -0.2232 -0.3276
  380MOL0     C52362   6.056   7.184   5.955 -0.0823  0.3796 -1.7457
  380MOL0     C52363   6.055   7.329   6.007  0.5125 -0.5052 -0.2994
  380MOL0     C52364   6.168   7.427   5.982  0.2661  0.1384  0.1004
  380MOL0     C52365   6.189   7.446   5.833  0.3438 -0.5912  0.9694
  380MOL0     C52366   6.097   7.541   5.776 -0.3033 -0.1882  0.4198
  380MOL0     C52367   6.011   7.619   5.741  0.7274  0.4187 -0.8314
  380MOL0     C52368   6.213   6.982   5.807  0.9192  0.7246  0.4938
  380MOL0     C52369   6.305   6.914   5.728  0.1364  0.0490  0.0669
  380MOL0     C52370   6.243   6.845   5.611 -0.4092 -1.0296  0.6233
  380MOL0     H52371   6.464   6.546   5.417  0.9703 -0.0939 -0.0912
  380MOL0     H52372   6.618   6.419   5.301 -0.8276  0.5421  0.3741
  380MOL0     H52373   6.815   6.400   5.116 -0.5414 -0.4918  0.6840
  380MOL0     H52374   6.812   6.293   5.252 -0.2238 -0.7336 -1.9129
  380MOL0     H52375   6.970   6.215   5.099 -2.2091  0.2656  1.6968
  380MOL0     H52376   7.059   6.376   5.086  1.1631  1.2669  2.5247
  380MOL0     H52377   7.135   6.375   5.308  1.2857 -0.6461 -0.3634
  380MOL0     H52378   7.043   6.222   5.331 -1.5226  0.5159 -0.9291
  380MOL0     H52379   7.183   6.098   5.180  2.1610 -0.7832  0.8662
  380MOL0     H52380   7.274   6.233   5.128  1.0901 -2.4791  1.1495
  380MOL0     H52381   7.299   6.160   5.423  0.4116 -1.2095  0.1179
  380MOL0     H52382   7.397   6.270   5.326  1.4467 -0.4031 -2.0372
  380MOL0     H52383   7.352   5.984   5.258 -3.0237  3.2416  0.3751
  380MOL0     H52384   7.488   6.076   5.199  0.8548  0.3171  0.6098
  380MOL0     H52385   7.469   6.063   5.496 -2.3417  2.9354 -1.0653
  380MOL0     H52386   7.615   6.068   5.399 -1.3024  0.9734 -0.3294
  380MOL0     H52387   7.418   5.841   5.425  0.3453  1.8743 -1.3013
  380MOL0     H52388   7.528   5.837   5.298  2.1657 -3.1625  0.5141
  380MOL0     H52389   7.661   5.923   5.670 -0.5713 -1.3258  1.8164
  380MOL0     H52390   7.999   5.736   5.697 -0.9519 -0.1004  2.2713
  380MOL0     H52391   7.852   5.748   5.796 -1.9194 -1.9753 -1.8751
  380MOL0     H52392   7.848   5.978   5.724 -0.8578 -1.2701 -3.1414
  380MOL0     H52393   7.989   5.928   5.828 -1.0074  1.0467  0.4276
  380MOL0     H52394   8.144   5.919   5.620  0.1963  0.7764 -1.6070
  380MOL0     H52395   8.013   5.999   5.528 -0.2076 -0.6754 -0.6744
  380MOL0     H52396   8.023   6.193   5.701 -1.6526 -0.5911 -0.0258
  380MOL0     H52397   8.144   6.105   5.796  0.3822 -0.9876 -0.4497
  380MOL0     H52398   8.385   6.059   5.791  0.3529 -3.4132  1.0681
  380MOL0     H52399   8.552   5.957   5.880  1.5347 -0.7014  1.2981
  380MOL0     H52400   8.700   5.955   5.771  0.4031 -0.2099 -4.2375
  380MOL0     H52401   8.593   5.821   5.784 -2.3247  0.7327 -0.3468
  380MOL0     H52402   8.980   5.799   5.461  0.9333  0.6456 -0.1158
  380MOL0     H52403   9.160   5.745   5.311 -0.6498 -1.2423 -1.3213
  380MOL0     H52404   9.365   5.774   5.163  2.4393 -0.7494 -1.4765
  380MOL0     H52405   9.241   5.650   5.115 -0.7910  0.1140  0.4625
  380MOL0     H52406   9.309   5.612   4.913  3.6003 -2.2466  0.7568
  380MOL0     H52407   9.366   5.782   4.885  0.8119 -0.6546 -0.9082
  380MOL0     H52408   9.486   5.545   5.048  1.7748 -0.1338  0.6835
  380MOL0     H52409   9.554   5.712   5.039 -2.3104  0.4211  0.9391
  380MOL0     H52410   9.541   5.692   4.776 -1.6014 -1.0318 -0.2747
  380MOL0     H52411   9.527   5.523   4.812  0.5007  0.2963  1.1177
  380MOL0     H52412   9.760   5.696   4.912  1.8173  0.1436 -1.7058
  380MOL0     H52413   9.733   5.525   4.934 -3.2847 -2.3222 -2.1968
  380MOL0     H52414   9.799   5.685   4.692  0.7108 -0.7273 -1.1552
  380MOL0     H52415   9.708   5.540   4.661 -2.7717  2.8300 -0.1666
  380MOL0     H52416   9.892   5.428   4.649 -5.1861  0.5357  0.7086
  380MOL0     H52417   9.895   5.418   4.823  0.4712  0.5929  0.3611
  380MOL0     H52418  10.028   5.638   4.834  0.2204 -0.5162 -1.1042
  380MOL0     H52419  10.070   5.613   4.663 -0.9322 -0.9300 -0.8735
  380MOL0     H52420   8.979   5.956   4.996  0.6842  0.8958  0.3924
  380MOL0     H52421   8.786   5.997   5.128  1.9837  0.2456 -0.3635
  380MOL0     H52422   8.517   6.027   5.317 -1.0075  0.0131 -1.3359
  380MOL0     H52423   8.306   6.139   5.372 -0.5275 -0.7481 -0.3739
  380MOL0     H52424   6.934   6.692   5.445  0.0497 -2.6189  2.4777
  380MOL0     H52425   6.766   6.839   5.531  2.8826 -0.1149 -1.9692
  380MOL0     H52426   6.575   6.940   5.928 -0.1240  0.4864  0.5842
  380MOL0     H52427   6.402   7.106   6.047  0.5895  0.3403 -1.8301
  380MOL0     H52428   6.050   7.191   5.846 -0.5499  0.2273 -1.7337
  380MOL0     H52429   5.966   7.131   5.987 -1.2967  2.6733 -1.1124
  380MOL0     H52430   6.057   7.320   6.116 -1.9610  3.3502  0.2344
  380MOL0     H52431   5.959   7.375   5.980  0.4452 -1.1439 -1.2177
  380MOL0     H52432   6.155   7.522   6.036  1.6098  0.0087  0.6842
  380MOL0     H52433   6.259   7.379   6.019 -0.4084 -1.3389 -0.0817
  380MOL0     H52434   6.191   7.350   5.782 -0.8216 -1.3991  2.3676
  380MOL0     H52435   6.286   7.495   5.818  0.9312 -2.5756 -2.6180
  380MOL0     H52436   5.941   7.699   5.730 -0.2687 -0.5674 -1.8037
  380MOL0     H52437   6.107   6.976   5.786  0.8500  1.6307  0.5721
  380MOL0     H52438   6.146   6.884   5.581  0.0844 -1.6711 -2.0077
  380MOL0     H52439   6.303   6.859   5.521 -2.5891 -2.2883 -1.1065
  380MOL0     H52440   6.222   6.739   5.628 -4.7032 -0.1901  1.7364
  381MOL0     O52441   3.550   0.656   4.037  0.0384  1.3553 -0.0881
  381MOL0     C52442   3.496   0.737   4.106 -0.4398 -0.7105 -0.5153
  381MOL0     O52443   3.556   0.852   4.147  0.5267 -0.1006  0.0023
  381MOL0     C52444   3.678   0.880   4.119 -1.8297  0.2048  0.5719
  381MOL0     C52445   3.724   0.901   3.990  0.0523  0.6837 -0.0136
  381MOL0     C52446   3.858   0.926   3.944  0.2899 -0.4587 -0.1738
  381MOL0     C52447   3.944   0.931   4.049 -0.1804 -0.3627  0.4957
  381MOL0     O52448   4.070   0.971   4.003  0.1547  0.5726  0.2036
  381MOL0     C52449   4.133   0.897   3.901 -0.0963 -0.3333  0.6900
  381MOL0     C52450   4.276   0.931   3.925  0.2463 -0.2302 -0.1376
  381MOL0     C52451   4.345   0.856   4.039 -0.3288 -0.2189  1.1484
  381MOL0     C52452   4.407   0.724   3.984 -0.2836 -0.4617  0.8963
  381MOL0     C52453   4.522   0.671   4.079  0.1107  0.0519  0.0107
  381MOL0     C52454   4.561   0.524   4.050  1.1587 -0.4043  0.5163
  381MOL0     C52455   4.709   0.502   4.069 -0.0056 -0.2869  0.6386
  381MOL0     C52456   4.764   0.528   4.201 -0.2353  0.0191  0.1785
  381MOL0     N52457   4.905   0.478   4.207  0.4420  0.4795 -0.5601
  381MOL0     C52458   5.005   0.549   4.263 -0.4322 -0.2024 -0.2437
  381MOL0     C52459   5.102   0.461   4.280  0.6369  0.3912 -0.2344
  381MOL0     C52460   5.229   0.485   4.339  0.7517  0.2060 -0.3063
  381MOL0     C52461   5.251   0.409   4.465 -0.7665 -0.0865 -0.9390
  381MOL0     C52462   5.327   0.493   4.562 -0.2260  0.2375 -0.0366
  381MOL0     C52463   5.346   0.409   4.692  0.1739 -1.0576 -0.1215
  381MOL0     O52464   5.476   0.416   4.724 -0.8676  0.2447 -0.7513
  381MOL0     C52465   5.543   0.538   4.750 -0.1473 -0.0649  1.0351
  381MOL0     C52466   5.680   0.538   4.740  0.3825 -1.1405  0.3048
  381MOL0     C52467   5.766   0.651   4.778  0.1500 -0.0654  1.2924
  381MOL0     C52468   5.915   0.604   4.797  0.7332  0.0963  0.1610
  381MOL0     C52469   5.701   0.776   4.812  0.1508 -0.4473 -0.4073
  381MOL0     C52470   5.781   0.904   4.829  0.4611  0.5999 -0.2889
  381MOL0     O52471   5.732   0.988   4.923  0.2580  0.2097 -0.7313
  381MOL0     C52472   5.781   1.117   4.939  0.9984  0.1796 -0.5311
  381MOL0     C52473   5.807   1.201   4.833 -0.3342  0.1694  0.9885
  381MOL0     C52474   5.816   1.338   4.863  0.3429 -0.5224  1.0172
  381MOL0     C52475   5.824   1.392   4.984 -0.6236 -0.3279 -0.3772
  381MOL0     O52476   5.844   1.529   5.009  0.0196  0.2267  0.5301
  381MOL0     C52477   5.892   1.568   5.132 -0.2292 -0.0318 -0.2131
  381MOL0     C52478   5.932   1.716   5.126 -0.5226 -0.3467 -0.8516
  381MOL0     C52479   6.057   1.730   5.033  0.2531  0.7532  0.0894
  381MOL0     C52480   6.099   1.880   5.019  1.0820 -0.2239 -0.4084
  381MOL0     C52481   6.232   1.887   4.941  0.9758 -0.3133  0.5422
  381MOL0     C52482   6.269   2.030   4.881 -0.4815  0.7574  0.5209
  381MOL0     C52483   6.172   2.101   4.785 -0.1999 -0.2392 -0.3096
  381MOL0     C52484   6.221   2.236   4.757 -0.1315  0.1255 -0.7430
  381MOL0    Cl52485   6.144   2.337   4.889 -0.3002 -0.4499 -0.3999
  381MOL0     C52486   5.819   1.303   5.088  1.0307  0.6072 -0.3722
  381MOL0     C52487   5.786   1.167   5.067  0.6079  0.0344  0.1110
  381MOL0     O52488   5.891   0.918   4.780 -1.1163 -0.1526  0.8406
  381MOL0     C52489   5.557   0.771   4.826 -0.1644 -0.1289  0.8848
  381MOL0     C52490   5.482   0.655   4.797  0.2672  0.5301  0.2157
  381MOL0     N52491   5.061   0.343   4.221 -0.7898  0.2430 -0.7542
  381MOL0     N52492   4.934   0.343   4.184 -0.4788 -0.6630 -0.1638
  381MOL0     C52493   3.906   0.924   4.190  0.3565 -0.7687  0.1673
  381MOL0     C52494   3.772   0.887   4.222  0.3665  0.0653 -0.4905
  381MOL0     C52495   3.362   0.697   4.150 -0.4015 -0.4288  0.5024
  381MOL0     C52496   3.318   0.571   4.185 -0.7668  0.5113  0.2876
  381MOL0     C52497   3.193   0.546   4.245 -1.1367 -0.6212  0.0479
  381MOL0     C52498   3.107   0.653   4.281 -1.3882 -0.3322  0.3005
  381MOL0     O52499   2.992   0.650   4.350  0.0496 -0.0119  0.3202
  381MOL0     C52500   2.960   0.529   4.434 -0.0485  0.0709  0.5613
  381MOL0     C52501   2.876   0.445   4.344 -0.4114  0.3266 -0.8542
  381MOL0     C52502   2.811   0.335   4.435  0.1692  1.2319  0.4897
  381MOL0     C52503   2.669   0.295   4.390  1.0237 -0.6591  0.1437
  381MOL0     C52504   2.590   0.200   4.460  0.3295 -0.2849 -0.9052
  381MOL0     C52505   2.535   0.117   4.537  1.0024 -0.0529  0.2646
  381MOL0     C52506   3.153   0.780   4.239  0.1161  0.4871 -0.2198
  381MOL0     C52507   3.266   0.802   4.165  0.5013  0.2696 -0.3773
  381MOL0     C52508   3.296   0.947   4.133 -0.7518 -0.4492 -0.0031
  381MOL0     H52509   3.640   0.890   3.922  0.8889 -0.8244 -0.8426
  381MOL0     H52510   3.881   0.939   3.839 -2.1548 -0.3932 -0.7607
  381MOL0     H52511   4.113   0.933   3.800  1.4276 -4.2826 -1.2513
  381MOL0     H52512   4.118   0.788   3.905  3.0101 -0.8131  1.2889
  381MOL0     H52513   4.314   0.901   3.827 -3.1305 -2.3532 -0.9676
  381MOL0     H52514   4.288   1.039   3.939  0.0458 -0.0468 -1.2812
  381MOL0     H52515   4.425   0.919   4.077 -0.0656  0.1949 -0.0373
  381MOL0     H52516   4.273   0.831   4.117 -0.6944 -2.9349  0.0850
  381MOL0     H52517   4.324   0.654   3.970 -1.5694  1.4213 -1.7270
  381MOL0     H52518   4.453   0.749   3.888  2.0673 -0.6741  1.9220
  381MOL0     H52519   4.477   0.685   4.178 -1.2202  1.6229 -0.7777
  381MOL0     H52520   4.612   0.732   4.095  0.6902 -1.4602  3.5867
  381MOL0     H52521   4.513   0.455   4.121  1.7301 -2.7003 -1.1944
  381MOL0     H52522   4.527   0.499   3.949  2.1402  2.8702 -0.7597
  381MOL0     H52523   4.757   0.580   4.010  0.8472 -0.1249  1.5240
  381MOL0     H52524   4.746   0.410   4.023 -1.0763  0.8325 -2.6961
  381MOL0     H52525   4.768   0.637   4.212  1.0505 -0.0142  0.1915
  381MOL0     H52526   4.712   0.482   4.285 -0.3680  1.3765  0.8728
  381MOL0     H52527   4.988   0.654   4.287 -2.7765 -0.4448 -0.6334
  381MOL0     H52528   5.239   0.594   4.346 -0.7601  0.8072 -4.4998
  381MOL0     H52529   5.298   0.449   4.263 -0.8741 -0.9157 -1.3144
  381MOL0     H52530   5.159   0.375   4.514 -1.6382  0.3302 -2.2248
  381MOL0     H52531   5.317   0.323   4.449  0.6054  0.7836 -0.1003
  381MOL0     H52532   5.425   0.519   4.519 -0.7857  1.5480 -0.5801
  381MOL0     H52533   5.287   0.591   4.590  1.8482  1.8741 -2.2974
  381MOL0     H52534   5.287   0.445   4.778  2.1600 -3.8463  2.6222
  381MOL0     H52535   5.319   0.303   4.685  1.4003 -1.3740 -0.1653
  381MOL0     H52536   5.705   0.440   4.701 -0.9135 -0.4779 -2.4159
  381MOL0     H52537   5.963   0.666   4.874  4.4547 -0.3075 -1.6422
  381MOL0     H52538   5.982   0.610   4.711  0.0375  1.2827 -0.3234
  381MOL0     H52539   5.904   0.500   4.827 -3.7818  0.1833 -0.4738
  381MOL0     H52540   5.807   1.165   4.730  1.3573  3.2633 -0.2269
  381MOL0     H52541   5.835   1.400   4.776  0.5390 -1.5680  0.2961
  381MOL0     H52542   5.809   1.570   5.203  0.3192  2.9239  0.4573
  381MOL0     H52543   5.983   1.517   5.165  1.4521  2.2322 -1.0591
  381MOL0     H52544   5.855   1.774   5.074 -0.1851 -0.0191 -0.9995
  381MOL0     H52545   5.946   1.752   5.228 -3.7578  1.0078 -0.7582
  381MOL0     H52546   6.036   1.684   4.936  2.6176 -1.6241  0.5901
  381MOL0     H52547   6.139   1.670   5.072  0.8195  1.0129 -0.6686
  381MOL0     H52548   6.113   1.927   5.116 -1.9659  2.5495 -1.1303
  381MOL0     H52549   6.014   1.922   4.964  0.3720 -0.0024  0.8171
  381MOL0     H52550   6.308   1.851   5.011  1.1665 -0.6708  0.1575
  381MOL0     H52551   6.235   1.812   4.861  1.3238 -2.5102  2.5207
  381MOL0     H52552   6.363   2.012   4.829 -1.1867  1.9448 -1.2325
  381MOL0     H52553   6.307   2.101   4.956  2.9632  0.6421 -0.9203
  381MOL0     H52554   6.070   2.100   4.826 -0.4948 -3.9832 -0.7346
  381MOL0     H52555   6.173   2.039   4.695 -0.7675  0.5235 -0.8445
  381MOL0     H52556   6.180   2.279   4.665 -0.3866 -0.8127 -1.0783
  381MOL0     H52557   6.330   2.239   4.753 -0.1040  2.8882 -0.2365
  381MOL0     H52558   5.811   1.326   5.194 -0.5915 -1.6858  0.0944
  381MOL0     H52559   5.750   1.114   5.155  0.8127 -2.6225 -1.3131
  381MOL0     H52560   5.495   0.859   4.840  2.4703  2.5007 -2.4031
  381MOL0     H52561   5.374   0.660   4.810 -0.1442 -2.1323 -1.3144
  381MOL0     H52562   3.985   0.948   4.261  0.2181 -1.0384  0.4148
  381MOL0     H52563   3.747   0.862   4.325  1.4210 -0.3881 -0.3211
  381MOL0     H52564   3.391   0.497   4.153 -0.6654  0.8940 -0.3892
  381MOL0     H52565   3.160   0.446   4.273 -3.1220  0.8194  3.3941
  381MOL0     H52566   3.051   0.484   4.475  1.9875  3.2687 -0.0480
  381MOL0     H52567   2.898   0.561   4.517  0.1411  1.0948  0.3168
  381MOL0     H52568   2.933   0.389   4.270  0.5352 -2.7353  1.9539
  381MOL0     H52569   2.797   0.511   4.307 -0.2337  1.0742  0.0572
  381MOL0     H52570   2.876   0.247   4.433 -0.7679  0.5361  0.0812
  381MOL0     H52571   2.790   0.368   4.537 -1.4888 -0.7620  0.8507
  381MOL0     H52572   2.670   0.254   4.289 -2.5386  2.1008 -1.2329
  381MOL0     H52573   2.612   0.388   4.382  0.5119 -1.0289 -0.6500
  381MOL0     H52574   2.494   0.041   4.599 -0.9300  2.0685  1.7445
  381MOL0     H52575   3.091   0.868   4.256  0.5894  0.9332 -0.7392
  381MOL0     H52576   3.362   0.967   4.048 -0.2754  0.4164  0.5566
  381MOL0     H52577   3.204   1.001   4.106 -1.2088 -1.2556 -0.0887
  381MOL0     H52578   3.331   1.005   4.218  1.5685  1.1388 -1.9110
  382MOL0     O52579   0.233   5.152   3.606 -0.1571 -0.8988 -0.3611
  382MOL0     C52580   0.179   5.094   3.513  0.6268 -0.7356 -0.6906
  382MOL0     O52581   0.236   5.067   3.392 -0.0840  0.3013  0.7575
  382MOL0     C52582   0.365   5.112   3.357  0.2265  0.2321 -0.0676
  382MOL0     C52583   0.481   5.043   3.402 -0.3769  0.3088 -0.0788
  382MOL0     C52584   0.606   5.083   3.371 -0.0836  0.2815  0.8683
  382MOL0     C52585   0.621   5.208   3.291 -0.4317  0.4333  0.4117
  382MOL0     O52586   0.744   5.264   3.263 -1.1160 -0.2729 -0.2211
  382MOL0     C52587   0.760   5.360   3.157  0.1383  0.0550 -0.7419
  382MOL0     C52588   0.782   5.287   3.023 -0.6759  0.1647 -0.1124
  382MOL0     C52589   0.910   5.202   3.026 -0.6314  0.8509 -0.3682
  382MOL0     C52590   1.019   5.261   2.926  0.0710 -0.8720  0.2128
  382MOL0     C52591   1.142   5.170   2.915 -0.7415  0.5712  0.3228
  382MOL0     C52592   1.240   5.227   2.800  0.4509  0.4143  0.4447
  382MOL0     C52593   1.352   5.116   2.778 -0.4892  1.1348  0.5366
  382MOL0     C52594   1.425   5.177   2.656 -0.3364  1.0145  0.1340
  382MOL0     N52595   1.549   5.114   2.613 -0.0046 -0.2263 -0.2934
  382MOL0     C52596   1.544   4.980   2.582  0.3160 -0.7314  0.2304
  382MOL0     C52597   1.668   4.933   2.595 -0.9853 -0.6738 -0.8266
  382MOL0     C52598   1.719   4.796   2.582  0.0541  0.8668  0.6391
  382MOL0     C52599   1.713   4.713   2.717  0.0732  0.3760 -1.2630
  382MOL0     C52600   1.805   4.769   2.827 -0.0323 -0.5641 -0.1011
  382MOL0     C52601   1.793   4.664   2.947  0.2304  0.6661  1.2010
  382MOL0     O52602   1.650   4.644   2.974  0.5512 -0.5842  0.0377
  382MOL0     C52603   1.608   4.519   3.012 -0.0165 -0.0462  0.3166
  382MOL0     C52604   1.646   4.474   3.137  0.1721 -0.1869  0.2282
  382MOL0     C52605   1.600   4.349   3.181  0.7451 -0.3854  0.1433
  382MOL0     C52606   1.638   4.294   3.310 -0.8520  0.3467 -0.1501
  382MOL0     C52607   1.519   4.277   3.102 -0.5350  0.0023 -0.4315
  382MOL0     C52608   1.480   4.137   3.128 -0.2713 -0.2494 -1.1549
  382MOL0     O52609   1.393   4.127   3.237  0.1017 -0.3687  0.3839
  382MOL0     C52610   1.335   4.012   3.280  0.0205  0.6321 -0.0300
  382MOL0     C52611   1.328   4.002   3.419 -0.0020  0.3346 -0.1310
  382MOL0     C52612   1.265   3.893   3.474 -0.2849 -0.1407 -0.0904
  382MOL0     C52613   1.217   3.788   3.399 -0.4186 -0.5728  0.2071
  382MOL0     O52614   1.149   3.695   3.464 -0.7615 -0.5666 -0.4673
  382MOL0     C52615   1.212   3.570   3.489  0.1648  0.7239  0.4677
  382MOL0     C52616   1.285   3.486   3.369  0.0830  0.5340 -0.0685
  382MOL0     C52617   1.305   3.330   3.395 -0.3499 -0.2416  0.0326
  382MOL0     C52618   1.366   3.286   3.528 -0.0921 -0.4164  0.1397
  382MOL0     C52619   1.388   3.134   3.549 -0.5547 -0.3594  0.0296
  382MOL0     C52620   1.453   3.130   3.686 -0.6551 -0.4444 -0.1297
  382MOL0     C52621   1.469   2.992   3.737  0.3477 -0.0327 -0.5377
  382MOL0     C52622   1.587   2.983   3.831  0.6459  0.3461  0.1808
  382MOL0    Cl52623   1.595   3.109   3.955  0.0946  0.2330  0.2449
  382MOL0     C52624   1.214   3.801   3.257  0.2752 -0.7499 -0.5158
  382MOL0     C52625   1.272   3.917   3.200 -0.5880 -0.4625  1.0704
  382MOL0     O52626   1.515   4.044   3.060 -0.5042 -0.6409 -0.8712
  382MOL0     C52627   1.475   4.328   2.986  0.2847 -0.1017  0.7463
  382MOL0     C52628   1.516   4.452   2.938 -0.6815  0.2208  0.3195
  382MOL0     N52629   1.742   5.047   2.636  0.9969  0.0523  0.1651
  382MOL0     N52630   1.674   5.160   2.644 -0.1473 -0.2735  0.0830
  382MOL0     C52631   0.501   5.271   3.240 -1.2988 -0.8359  0.3529
  382MOL0     C52632   0.376   5.227   3.276 -0.7987  1.3200 -0.6330
  382MOL0     C52633   0.034   5.063   3.530 -0.2523 -0.7872 -1.1113
  382MOL0     C52634  -0.056   5.099   3.425  0.8640  0.6387  0.6661
  382MOL0     C52635  -0.198   5.099   3.435  0.0112  0.5625  0.8255
  382MOL0     C52636  -0.252   5.041   3.549 -0.1421  0.5794  0.7680
  382MOL0     O52637  -0.394   5.052   3.556 -0.4261  0.1025 -0.2645
  382MOL0     C52638  -0.444   5.027   3.688  0.8243 -0.1569  0.4393
  382MOL0     C52639  -0.566   5.105   3.731  0.1610  0.2690 -1.0452
  382MOL0     C52640  -0.681   5.068   3.648 -0.1325 -0.1126 -0.5258
  382MOL0     C52641  -0.800   5.137   3.712  0.3426 -0.3212  0.1042
  382MOL0     C52642  -0.919   5.115   3.639  0.1925  0.8086  1.3180
  382MOL0     C52643  -0.993   5.070   3.553  0.1030 -0.3532 -0.8802
  382MOL0     C52644  -0.158   4.995   3.654 -0.0540  1.1162  0.4744
  382MOL0     C52645  -0.024   5.019   3.649  0.0905 -0.1673  0.5836
  382MOL0     C52646   0.050   4.972   3.770  0.0033 -0.0833 -0.1604
  382MOL0     H52647   0.467   4.965   3.476 -1.1976 -1.0830 -1.6284
  382MOL0     H52648   0.692   5.036   3.417  0.0356  0.6356  1.0132
  382MOL0     H52649   0.856   5.407   3.179  0.9065 -1.4375 -0.7466
  382MOL0     H52650   0.683   5.437   3.151  1.1628  1.0624 -1.2270
  382MOL0     H52651   0.694   5.231   2.991 -0.3604 -1.1628  1.2550
  382MOL0     H52652   0.785   5.366   2.946 -0.5985 -2.0023 -2.4682
  382MOL0     H52653   0.950   5.189   3.127 -0.6818 -0.9888 -0.5533
  382MOL0     H52654   0.886   5.103   2.986  0.2016  0.6466 -0.3785
  382MOL0     H52655   0.960   5.274   2.834 -1.7268 -1.4355  1.2280
  382MOL0     H52656   1.034   5.361   2.969 -2.5346 -1.8560  3.8854
  382MOL0     H52657   1.111   5.072   2.876 -2.2825  1.6891 -1.4464
  382MOL0     H52658   1.200   5.163   3.007  1.5625 -1.7899 -1.1403
  382MOL0     H52659   1.185   5.239   2.706 -1.6183  2.1942  1.7798
  382MOL0     H52660   1.274   5.329   2.820 -1.8108  1.8056 -2.0750
  382MOL0     H52661   1.310   5.017   2.756  1.8388  0.1345  0.3740
  382MOL0     H52662   1.416   5.108   2.866  2.1165  1.5190 -1.2306
  382MOL0     H52663   1.352   5.169   2.575 -0.1231  3.5576 -0.4019
  382MOL0     H52664   1.448   5.283   2.671 -0.4125  0.8263  1.8333
  382MOL0     H52665   1.453   4.929   2.550  0.5102  1.6861 -5.3386
  382MOL0     H52666   1.817   4.801   2.534  0.2473  2.5502  1.1424
  382MOL0     H52667   1.664   4.741   2.505  1.2377 -1.9823  1.7119
  382MOL0     H52668   1.608   4.724   2.747  0.7252  3.3918  0.2853
  382MOL0     H52669   1.738   4.608   2.699 -1.2004 -0.1145 -0.3683
  382MOL0     H52670   1.909   4.782   2.795 -0.6651  2.0373 -1.3839
  382MOL0     H52671   1.774   4.867   2.864 -0.0337  0.3292 -2.3427
  382MOL0     H52672   1.862   4.581   2.927  0.3192  0.9374  0.3393
  382MOL0     H52673   1.844   4.700   3.036  1.9647  0.3127  0.4040
  382MOL0     H52674   1.720   4.527   3.198 -0.3999  1.4946 -0.4705
  382MOL0     H52675   1.701   4.364   3.367  0.8009 -0.1868 -1.2533
  382MOL0     H52676   1.703   4.207   3.292 -3.6187 -1.7239 -0.8621
  382MOL0     H52677   1.556   4.256   3.372  1.2294 -0.1255  2.5164
  382MOL0     H52678   1.358   4.082   3.487 -2.9935  0.2214  1.4695
  382MOL0     H52679   1.256   3.888   3.582 -0.2874  0.8112 -0.0339
  382MOL0     H52680   1.272   3.574   3.580 -0.9161  1.4785  1.1652
  382MOL0     H52681   1.127   3.513   3.526 -1.6050  2.2435 -1.0644
  382MOL0     H52682   1.234   3.500   3.273  1.1110  0.1814 -0.6902
  382MOL0     H52683   1.383   3.535   3.368  1.2370 -1.3103  3.8632
  382MOL0     H52684   1.364   3.278   3.320  1.5465 -1.5795  2.3283
  382MOL0     H52685   1.211   3.274   3.399  0.0376 -0.8094  2.8118
  382MOL0     H52686   1.302   3.331   3.605 -0.6639 -0.1397 -0.4848
  382MOL0     H52687   1.459   3.343   3.522  0.2183 -1.0143 -4.8763
  382MOL0     H52688   1.287   3.090   3.550  0.6779 -3.4188  0.5808
  382MOL0     H52689   1.443   3.085   3.468 -0.1732  0.7915 -0.4362
  382MOL0     H52690   1.393   3.194   3.751 -2.8128  0.9660 -3.2075
  382MOL0     H52691   1.551   3.176   3.675 -0.3872 -0.5832  1.5291
  382MOL0     H52692   1.481   2.916   3.659  0.9966 -1.5316  0.9575
  382MOL0     H52693   1.379   2.969   3.795 -0.0197 -1.3462 -1.5838
  382MOL0     H52694   1.677   2.976   3.769 -0.7020  2.2877 -2.1687
  382MOL0     H52695   1.570   2.890   3.886 -2.4943  0.2877 -0.6991
  382MOL0     H52696   1.161   3.725   3.200 -0.0930  1.1966 -3.0037
  382MOL0     H52697   1.280   3.936   3.094  1.9729  2.5520  1.6520
  382MOL0     H52698   1.413   4.262   2.926  1.7903 -0.1362 -0.8567
  382MOL0     H52699   1.494   4.504   2.845  1.1536  2.5045  1.0475
  382MOL0     H52700   0.505   5.371   3.197  0.0188 -0.1470  1.9437
  382MOL0     H52701   0.282   5.278   3.255 -2.0552 -0.6076 -0.0032
  382MOL0     H52702  -0.013   5.111   3.326  1.6658 -3.6020  0.3306
  382MOL0     H52703  -0.266   5.128   3.355 -3.4410 -1.5698  2.7264
  382MOL0     H52704  -0.465   4.926   3.724  0.0876  0.8091  3.0213
  382MOL0     H52705  -0.377   5.059   3.769 -0.3290  1.1491  0.9265
  382MOL0     H52706  -0.532   5.209   3.738 -0.6393  0.8093 -4.0863
  382MOL0     H52707  -0.582   5.068   3.833  2.3923 -2.6254 -1.5894
  382MOL0     H52708  -0.659   5.087   3.543  0.7935 -2.7604 -0.8713
  382MOL0     H52709  -0.701   4.961   3.659  0.3687 -0.5617 -3.2578
  382MOL0     H52710  -0.785   5.244   3.698 -0.0424 -0.5273 -2.1140
  382MOL0     H52711  -0.818   5.100   3.814 -1.5309 -0.3308 -0.2059
  382MOL0     H52712  -1.052   5.029   3.473 -1.1384  2.0739 -1.3140
  382MOL0     H52713  -0.203   4.949   3.742 -3.1374  0.8844 -1.0991
  382MOL0     H52714   0.056   4.863   3.767  2.8997  0.0066 -2.1044
  382MOL0     H52715   0.154   5.008   3.775 -0.4419  2.3309 -4.0975
  382MOL0     H52716  -0.009   4.999   3.858  1.7857  2.2925  0.4413
  383MOL0     O52717   8.927   5.439   6.500  0.3240  1.1445 -0.7738
  383MOL0     C52718   8.875   5.334   6.470 -0.1591 -0.3649  0.2783
  383MOL0     O52719   8.925   5.205   6.502  0.5001  0.1836 -0.3992
  383MOL0     C52720   9.021   5.206   6.602 -0.8024  0.1629  0.4887
  383MOL0     C52721   9.159   5.229   6.562  1.1517  0.2670  0.3323
  383MOL0     C52722   9.263   5.216   6.657 -0.0926  0.5025  0.4886
  383MOL0     C52723   9.236   5.183   6.789  1.4246 -0.5745  0.2629
  383MOL0     O52724   9.337   5.176   6.879  0.4725  0.2904  0.0259
  383MOL0     C52725   9.319   5.130   7.012 -0.7511  0.4906  0.1347
  383MOL0     C52726   9.456   5.106   7.083  0.2727 -0.0612 -0.4446
  383MOL0     C52727   9.542   5.003   7.010  0.2271 -0.8548 -0.5099
  383MOL0     C52728   9.664   4.953   7.079 -0.7436  0.2171 -0.4882
  383MOL0     C52729   9.786   5.042   7.060  0.1530 -0.0913 -0.1701
  383MOL0     C52730   9.909   4.978   7.125 -0.3337 -0.7570  0.2558
  383MOL0     C52731  10.020   5.080   7.135 -1.0637  0.5474  0.5396
  383MOL0     C52732  10.143   4.999   7.177 -0.5390  0.4777  0.2251
  383MOL0     N52733  10.266   5.083   7.177  0.5453 -0.0914  0.3304
  383MOL0     C52734  10.309   5.175   7.270 -0.1810  0.2293 -0.4568
  383MOL0     C52735  10.429   5.211   7.232  0.9223 -0.4998 -0.2302
  383MOL0     C52736  10.500   5.310   7.317 -0.1779 -0.5089 -0.0174
  383MOL0     C52737  10.641   5.266   7.372 -0.0975 -0.0966  0.2897
  383MOL0     C52738  10.726   5.195   7.266 -0.8313  1.0629  0.6433
  383MOL0     C52739  10.884   5.216   7.304 -0.2766  0.2689 -0.0303
  383MOL0     O52740  10.907   5.134   7.416  0.1351  0.2469  0.1746
  383MOL0     C52741  11.041   5.136   7.450  0.4947  0.4748  0.1391
  383MOL0     C52742  11.064   5.088   7.583  0.2731 -0.0501 -0.9846
  383MOL0     C52743  11.192   5.078   7.640 -0.5027  0.5527 -0.0809
  383MOL0     C52744  11.209   5.044   7.787  0.2446  0.1831  0.6186
  383MOL0     C52745  11.294   5.130   7.552  0.2796  0.0454 -0.0282
  383MOL0     C52746  11.441   5.142   7.598 -0.1257 -0.9698  0.1496
  383MOL0     O52747  11.513   5.231   7.515 -0.1115  0.3662  0.5312
  383MOL0     C52748  11.646   5.250   7.530  0.5601  1.0100 -0.5907
  383MOL0     C52749  11.700   5.379   7.512  0.4708 -0.2265  0.1790
  383MOL0     C52750  11.837   5.410   7.523  0.7087 -0.7162  0.0273
  383MOL0     C52751  11.927   5.312   7.557 -0.2064 -0.0247 -0.0662
  383MOL0     O52752  12.062   5.320   7.588  0.0358  0.0022  0.7010
  383MOL0     C52753  12.126   5.444   7.568 -0.1656  1.1726  0.3944
  383MOL0     C52754  12.164   5.465   7.416  0.1378  1.2298 -0.0103
  383MOL0     C52755  12.199   5.609   7.381 -0.2322  0.4864 -0.6806
  383MOL0     C52756  12.311   5.664   7.473 -0.1248 -0.5192 -0.4721
  383MOL0     C52757  12.362   5.811   7.436 -0.2610 -0.6238  0.6684
  383MOL0     C52758  12.255   5.915   7.403 -0.5918  0.2806  0.0600
  383MOL0     C52759  12.307   6.046   7.345  1.2517 -0.9595 -0.0572
  383MOL0     C52760  12.196   6.154   7.323 -0.5692 -0.1628  0.6432
  383MOL0    Cl52761  12.063   6.099   7.206 -0.0182 -0.2417 -0.0063
  383MOL0     C52762  11.876   5.181   7.564  0.3958  0.2168 -0.7399
  383MOL0     C52763  11.743   5.153   7.561 -0.7533  0.5694 -0.0332
  383MOL0     O52764  11.486   5.073   7.685 -0.3147  0.5573 -0.7403
  383MOL0     C52765  11.265   5.177   7.422  0.5735  0.2986 -0.3129
  383MOL0     C52766  11.145   5.175   7.369  0.1285  0.2046 -1.0669
  383MOL0     N52767  10.461   5.151   7.109 -0.1947 -0.3312 -0.0980
  383MOL0     N52768  10.363   5.070   7.080  0.1169 -0.2800 -0.1973
  383MOL0     C52769   9.098   5.159   6.826  0.1931  0.1490 -0.3159
  383MOL0     C52770   8.988   5.175   6.733 -0.7969  0.9264  0.3315
  383MOL0     C52771   8.766   5.340   6.372 -0.1800  0.1200 -0.5631
  383MOL0     C52772   8.792   5.366   6.234 -0.5068 -0.0155 -0.4985
  383MOL0     C52773   8.684   5.373   6.150  0.3258  0.1856  0.4287
  383MOL0     C52774   8.550   5.368   6.194  0.1159 -0.1019 -0.2424
  383MOL0     O52775   8.444   5.388   6.100 -0.0342 -1.6715 -0.1321
  383MOL0     C52776   8.370   5.266   6.068  0.0378  0.7596  0.0296
  383MOL0     C52777   8.235   5.275   6.155  0.0120  0.4835  0.6516
  383MOL0     C52778   8.156   5.408   6.167  0.1307 -1.0391  0.5310
  383MOL0     C52779   8.069   5.408   6.288  0.5143  0.4936  0.9435
  383MOL0     C52780   8.147   5.429   6.411  0.5017 -0.6221  0.2655
  383MOL0     C52781   8.213   5.468   6.503  0.8634  0.8150 -0.9797
  383MOL0     C52782   8.529   5.341   6.329 -0.0427  0.6128  0.1205
  383MOL0     C52783   8.632   5.325   6.418 -0.2888 -0.1660  0.0155
  383MOL0     C52784   8.594   5.282   6.559  0.8747 -0.7337  0.1885
  383MOL0     H52785   9.172   5.226   6.455 -1.8730 -2.7955 -0.1219
  383MOL0     H52786   9.366   5.230   6.628 -0.0238  1.7176  1.2281
  383MOL0     H52787   9.258   5.039   7.006 -0.2564  0.0861  1.0666
  383MOL0     H52788   9.261   5.201   7.072  1.8704  2.9364 -0.0071
  383MOL0     H52789   9.505   5.203   7.092 -0.0432 -0.0110  1.1745
  383MOL0     H52790   9.435   5.075   7.186 -2.0367  1.5519 -0.3448
  383MOL0     H52791   9.472   4.921   6.992 -2.0308  0.9798 -0.6228
  383MOL0     H52792   9.559   5.034   6.907 -4.5248  1.2873 -0.9302
  383MOL0     H52793   9.637   4.931   7.183 -1.1515  2.7644  0.0117
  383MOL0     H52794   9.687   4.857   7.031 -0.9196  1.2981 -2.8798
  383MOL0     H52795   9.764   5.143   7.095  0.4648  0.3588 -1.2515
  383MOL0     H52796   9.806   5.053   6.953  2.3337  2.5682  0.3893
  383MOL0     H52797   9.884   4.948   7.227  2.5801  0.6887  1.5035
  383MOL0     H52798   9.940   4.904   7.051 -0.5220  0.5214 -1.1724
  383MOL0     H52799  10.007   5.146   7.222  0.1432 -0.7104  1.7410
  383MOL0     H52800  10.040   5.137   7.045 -0.0747  1.2505  1.1898
  383MOL0     H52801  10.135   4.966   7.281  1.2955  1.0039  0.5805
  383MOL0     H52802  10.170   4.911   7.117  2.3478  0.7068  1.0201
  383MOL0     H52803  10.261   5.203   7.363 -1.9581 -4.7141  0.4204
  383MOL0     H52804  10.440   5.330   7.407 -1.9022  1.2758 -1.4557
  383MOL0     H52805  10.501   5.403   7.259  2.0570 -1.2223 -1.1965
  383MOL0     H52806  10.692   5.355   7.410  2.6045 -0.6290 -1.7985
  383MOL0     H52807  10.627   5.204   7.461 -0.0974 -0.5153  0.0053
  383MOL0     H52808  10.704   5.088   7.262 -1.5523  1.1969  1.0126
  383MOL0     H52809  10.703   5.240   7.169  0.2752 -1.3130 -0.8137
  383MOL0     H52810  10.949   5.198   7.218  1.0581  1.9765  0.5709
  383MOL0     H52811  10.917   5.318   7.327  1.9914 -0.9204  2.4581
  383MOL0     H52812  10.979   5.054   7.642 -0.6754  4.2501  0.4576
  383MOL0     H52813  11.124   5.094   7.834 -1.2453 -0.0333 -1.6831
  383MOL0     H52814  11.307   5.078   7.822  0.7007 -1.6625  1.2791
  383MOL0     H52815  11.198   4.937   7.804  1.7223  0.0443  0.8633
  383MOL0     H52816  11.625   5.448   7.478 -1.6171 -2.6489 -0.4370
  383MOL0     H52817  11.875   5.511   7.529  1.4883 -1.1059  2.7479
  383MOL0     H52818  12.074   5.525   7.620 -0.6311 -0.1248  2.0023
  383MOL0     H52819  12.220   5.438   7.622  1.9688  0.2965 -3.0849
  383MOL0     H52820  12.252   5.405   7.392 -2.6954 -2.0649 -3.5103
  383MOL0     H52821  12.097   5.426   7.339  0.9346 -2.2011  0.8229
  383MOL0     H52822  12.105   5.663   7.401 -1.3868 -1.3752 -0.8597
  383MOL0     H52823  12.222   5.612   7.274 -0.0136  0.9341 -0.6248
  383MOL0     H52824  12.402   5.604   7.475  0.5413  0.3298 -2.5411
  383MOL0     H52825  12.280   5.658   7.578  0.8318 -1.5686 -0.2339
  383MOL0     H52826  12.421   5.852   7.519  0.1882  1.0742 -0.4325
  383MOL0     H52827  12.431   5.805   7.351 -3.2286  1.6316 -2.1278
  383MOL0     H52828  12.207   5.941   7.497 -1.9079  1.7062 -0.9525
  383MOL0     H52829  12.181   5.873   7.334 -0.2171 -2.1258  1.0373
  383MOL0     H52830  12.359   6.026   7.250  0.7630  1.3475 -0.8911
  383MOL0     H52831  12.386   6.084   7.411  1.9024  1.5080 -2.0889
  383MOL0     H52832  12.247   6.243   7.286  1.0748 -0.4243  2.1209
  383MOL0     H52833  12.146   6.179   7.417 -1.3534  3.8576 -0.6573
  383MOL0     H52834  11.946   5.100   7.579  0.4673  0.4486  0.2972
  383MOL0     H52835  11.709   5.054   7.587 -1.3255  0.5528 -0.8279
  383MOL0     H52836  11.343   5.211   7.354 -1.1671  2.1371 -1.4856
  383MOL0     H52837  11.146   5.208   7.266  2.1452  0.5292 -0.9783
  383MOL0     H52838   9.080   5.142   6.932  1.8405 -0.2016 -0.0610
  383MOL0     H52839   8.884   5.168   6.762 -0.3367 -1.1543  1.6466
  383MOL0     H52840   8.893   5.384   6.198 -0.4242 -1.3031 -0.9672
  383MOL0     H52841   8.697   5.394   6.044 -0.7055  1.0935  0.4640
  383MOL0     H52842   8.357   5.262   5.960  0.6096 -0.7062 -0.0049
  383MOL0     H52843   8.421   5.172   6.088 -0.3506 -0.1342 -2.7448
  383MOL0     H52844   8.262   5.251   6.258 -0.5314  1.2682  0.9828
  383MOL0     H52845   8.175   5.190   6.120  0.7807 -0.3851  1.3599
  383MOL0     H52846   8.232   5.487   6.177 -1.3103  0.5118 -0.1640
  383MOL0     H52847   8.109   5.422   6.069  1.6817 -2.7898 -0.5281
  383MOL0     H52848   8.015   5.314   6.304  0.1466 -0.2263 -3.3310
  383MOL0     H52849   8.001   5.491   6.264  1.7430  1.2357 -0.1089
  383MOL0     H52850   8.275   5.509   6.580  0.7508 -1.5166  0.4554
  383MOL0     H52851   8.430   5.323   6.371  0.7658 -1.0316  1.4271
  383MOL0     H52852   8.653   5.346   6.624  0.6617 -0.3140 -0.0291
  383MOL0     H52853   8.486   5.282   6.575  0.6747 -3.8217 -0.4077
  383MOL0     H52854   8.632   5.182   6.580  2.4182 -0.1275  0.3901
  384MOL0     O52855   3.175   1.011   2.402 -0.3920 -0.2607  0.2192
  384MOL0     C52856   3.237   0.909   2.426 -0.6915  0.7848  0.1941
  384MOL0     O52857   3.261   0.861   2.555 -1.0443  0.0872 -0.1523
  384MOL0     C52858   3.333   0.743   2.573  0.4635  0.3755 -0.5574
  384MOL0     C52859   3.266   0.622   2.589 -0.6322 -0.8229  0.3960
  384MOL0     C52860   3.341   0.508   2.626 -0.0016  0.2790 -0.1896
  384MOL0     C52861   3.479   0.514   2.630 -0.9347 -0.2745 -0.7909
  384MOL0     O52862   3.558   0.401   2.651  0.0985  0.4140 -0.2521
  384MOL0     C52863   3.497   0.284   2.599  0.1040 -0.1283 -0.2003
  384MOL0     C52864   3.566   0.150   2.627  0.6195 -0.0204  0.0745
  384MOL0     C52865   3.582   0.131   2.780  1.2638  0.2659 -0.0852
  384MOL0     C52866   3.663   0.010   2.813  1.5045  0.1397 -0.5164
  384MOL0     C52867   3.689  -0.013   2.957 -0.2831  0.6923 -0.3978
  384MOL0     C52868   3.811   0.072   3.002  1.3210 -0.2227  0.0865
  384MOL0     C52869   3.858   0.028   3.146  0.3573  0.8099  0.1796
  384MOL0     C52870   3.950   0.130   3.206  0.4517  0.5445  0.1691
  384MOL0     N52871   4.043   0.064   3.301 -0.6897 -0.0637  0.1552
  384MOL0     C52872   4.176   0.104   3.321  0.1534 -0.8882 -0.8318
  384MOL0     C52873   4.239   0.018   3.405 -0.0395  0.5535 -0.2949
  384MOL0     C52874   4.383   0.027   3.457  0.3767 -0.1813 -0.6289
  384MOL0     C52875   4.385   0.031   3.612 -0.1756 -1.3656  0.2485
  384MOL0     C52876   4.528   0.074   3.656 -0.0608 -0.0819  0.1028
  384MOL0     C52877   4.559   0.221   3.611  0.1292 -0.3487  0.6778
  384MOL0     O52878   4.686   0.257   3.667  0.4155  0.3764 -0.4012
  384MOL0     C52879   4.725   0.384   3.683  0.6450 -0.3768  0.7587
  384MOL0     C52880   4.850   0.389   3.737  0.0139  0.1898  0.3426
  384MOL0     C52881   4.903   0.512   3.760 -0.3855 -0.0569  0.6438
  384MOL0     C52882   5.049   0.518   3.786  0.0146 -1.3138  1.7454
  384MOL0     C52883   4.838   0.632   3.746  0.4671 -0.2271  0.1748
  384MOL0     C52884   4.891   0.765   3.788  0.1230  0.6063 -0.4683
  384MOL0     O52885   4.945   0.763   3.913 -0.1554  0.2270  0.0456
  384MOL0     C52886   4.984   0.881   3.975 -0.7093  0.0291  0.0088
  384MOL0     C52887   4.905   0.998   3.977 -0.3898 -0.1176 -0.0908
  384MOL0     C52888   4.946   1.099   4.052 -0.4391 -0.4403 -0.9512
  384MOL0     C52889   5.067   1.107   4.126  0.0643  0.7180 -0.3751
  384MOL0     O52890   5.105   1.210   4.208  0.9595 -1.0929 -0.7519
  384MOL0     C52891   4.997   1.271   4.285 -0.6164 -0.7179  0.1741
  384MOL0     C52892   4.960   1.407   4.209  1.0123  0.3366 -0.3922
  384MOL0     C52893   5.051   1.528   4.240 -0.1334 -0.3783 -0.5655
  384MOL0     C52894   4.996   1.657   4.181 -0.2131 -0.2715 -0.5337
  384MOL0     C52895   5.099   1.768   4.177 -0.6405 -0.4546  0.6095
  384MOL0     C52896   5.141   1.811   4.318  0.5064  0.4750  0.0273
  384MOL0     C52897   5.214   1.948   4.311  0.1352 -0.8263 -0.0526
  384MOL0     C52898   5.279   2.001   4.442  0.2956 -0.1051 -0.3676
  384MOL0    Cl52899   5.147   2.061   4.545 -0.3720 -0.1677 -0.0173
  384MOL0     C52900   5.144   0.992   4.130  0.5070  0.3856 -0.9996
  384MOL0     C52901   5.100   0.873   4.056 -1.2092 -0.5472 -0.6780
  384MOL0     O52902   4.875   0.865   3.720  0.7252  0.1232  0.0219
  384MOL0     C52903   4.704   0.628   3.708  0.1270 -0.4465  0.3579
  384MOL0     C52904   4.649   0.506   3.675 -0.1321  0.1708 -0.3537
  384MOL0     N52905   4.152  -0.084   3.428  0.5518  0.0667  0.2725
  384MOL0     N52906   4.037  -0.051   3.378 -0.9918 -0.0492 -0.5307
  384MOL0     C52907   3.547   0.638   2.609 -0.5112  0.4611 -0.9771
  384MOL0     C52908   3.473   0.751   2.583  0.4094  0.5054 -0.0161
  384MOL0     C52909   3.272   0.840   2.298 -0.0563  0.7718  0.1966
  384MOL0     C52910   3.201   0.728   2.273 -0.0966 -0.1095  0.5144
  384MOL0     C52911   3.199   0.649   2.151 -0.3546  1.1124 -0.7227
  384MOL0     C52912   3.278   0.687   2.047 -0.2085  0.8351  0.9130
  384MOL0     O52913   3.280   0.615   1.928  0.3127 -0.0287  0.2190
  384MOL0     C52914   3.390   0.624   1.835  0.2314  0.3488 -0.2620
  384MOL0     C52915   3.378   0.519   1.721  0.3831 -0.2976  0.9499
  384MOL0     C52916   3.234   0.516   1.656 -0.5139  0.2337 -0.0171
  384MOL0     C52917   3.227   0.450   1.520  0.4083 -0.0617 -1.6402
  384MOL0     C52918   3.293   0.313   1.532  0.9047  0.7348  0.3408
  384MOL0     C52919   3.353   0.210   1.513  0.0079 -0.6773 -0.5540
  384MOL0     C52920   3.347   0.807   2.066 -0.3700 -0.8536 -0.7441
  384MOL0     C52921   3.348   0.885   2.189  0.6460 -0.7027  0.6366
  384MOL0     C52922   3.417   1.026   2.193  0.4483  0.6046 -0.0662
  384MOL0     H52923   3.158   0.622   2.601 -0.9942  5.6768  0.9479
  384MOL0     H52924   3.269   0.429   2.644 -1.3788  0.7809 -2.9366
  384MOL0     H52925   3.508   0.294   2.491  1.0842  1.4956  0.0083
  384MOL0     H52926   3.395   0.271   2.636 -0.0049  0.0789 -0.4255
  384MOL0     H52927   3.493   0.077   2.590 -2.5282  1.9239  2.0048
  384MOL0     H52928   3.657   0.143   2.568 -1.6369  1.2333 -3.9370
  384MOL0     H52929   3.637   0.218   2.816  0.4964  0.3690  0.8596
  384MOL0     H52930   3.485   0.129   2.830  0.1507 -2.4817 -2.0942
  384MOL0     H52931   3.605  -0.080   2.787  1.3592 -0.0184  0.3433
  384MOL0     H52932   3.756   0.007   2.756  1.1531  0.0655 -1.1005
  384MOL0     H52933   3.698  -0.120   2.977  2.7578  1.0740  0.6870
  384MOL0     H52934   3.602   0.002   3.022  0.0157 -2.3916  0.8913
  384MOL0     H52935   3.891   0.071   2.928  0.0533  4.1038 -1.6617
  384MOL0     H52936   3.766   0.170   3.018  0.8379 -0.6658  1.6054
  384MOL0     H52937   3.909  -0.068   3.132 -0.5635  0.1114  1.4165
  384MOL0     H52938   3.767   0.018   3.206 -1.5450  1.7516 -2.3918
  384MOL0     H52939   4.010   0.175   3.126  3.0530 -0.8190  1.2560
  384MOL0     H52940   3.886   0.199   3.262  0.6674  0.8061  0.0934
  384MOL0     H52941   4.227   0.193   3.283 -0.6654  0.2077  0.5458
  384MOL0     H52942   4.437   0.112   3.414 -0.4285  2.1210  2.5057
  384MOL0     H52943   4.426  -0.064   3.415 -2.5815 -2.8804  1.6988
  384MOL0     H52944   4.314   0.110   3.638 -0.9647 -1.2784 -1.9313
  384MOL0     H52945   4.363  -0.066   3.656  0.9764 -0.9067  1.9148
  384MOL0     H52946   4.522   0.075   3.765 -0.8843  0.6101  0.0620
  384MOL0     H52947   4.601   0.002   3.618  0.1296 -0.2011  0.6816
  384MOL0     H52948   4.553   0.220   3.501 -1.8446 -0.3690  0.7459
  384MOL0     H52949   4.478   0.290   3.635  0.9191  2.8113 -4.1762
  384MOL0     H52950   4.914   0.303   3.747 -0.1631  0.2049  1.8331
  384MOL0     H52951   5.102   0.428   3.754 -1.3578 -0.2810 -4.6857
  384MOL0     H52952   5.074   0.545   3.889  0.1707 -2.2664  1.9661
  384MOL0     H52953   5.104   0.589   3.724  0.0145 -1.4040  1.6400
  384MOL0     H52954   4.809   1.002   3.927 -1.1114  1.5074  1.3374
  384MOL0     H52955   4.897   1.196   4.043  0.9688  0.5085  0.9070
  384MOL0     H52956   4.909   1.207   4.284 -1.0019 -0.2057 -1.0173
  384MOL0     H52957   5.026   1.278   4.390  1.3869 -0.8703 -0.3140
  384MOL0     H52958   4.955   1.389   4.102 -1.1383 -2.9208  0.1401
  384MOL0     H52959   4.857   1.436   4.228  0.4765 -1.0068 -1.1240
  384MOL0     H52960   5.151   1.503   4.202  0.0765 -0.4090 -0.0033
  384MOL0     H52961   5.050   1.538   4.348 -1.2380 -1.4892 -0.4469
  384MOL0     H52962   4.903   1.695   4.225 -0.6061 -0.1730 -1.4364
  384MOL0     H52963   4.972   1.631   4.078 -0.5840 -0.0805 -0.4975
  384MOL0     H52964   5.179   1.740   4.108 -1.9756 -0.2151 -1.1064
  384MOL0     H52965   5.047   1.847   4.122 -4.0055 -2.7588  0.1627
  384MOL0     H52966   5.210   1.739   4.364 -1.0134 -0.5129  0.8359
  384MOL0     H52967   5.056   1.820   4.386  0.1630 -0.6154 -0.2342
  384MOL0     H52968   5.145   2.029   4.284  0.0357 -0.0213  2.3197
  384MOL0     H52969   5.300   1.933   4.246 -0.1893 -0.8567 -0.4809
  384MOL0     H52970   5.349   2.084   4.435  0.9690 -0.1718  3.4548
  384MOL0     H52971   5.336   1.922   4.492  0.0354  0.8422  1.5378
  384MOL0     H52972   5.218   0.998   4.209  1.0404 -2.0097 -1.2619
  384MOL0     H52973   5.148   0.776   4.065 -1.2568 -0.4918  0.3564
  384MOL0     H52974   4.648   0.721   3.715 -1.4866 -1.2873 -0.9585
  384MOL0     H52975   4.545   0.517   3.644 -0.3400  0.7931  0.5266
  384MOL0     H52976   3.655   0.647   2.605  0.0351 -4.0749 -1.5353
  384MOL0     H52977   3.532   0.840   2.564 -0.5186  1.3880  1.0240
  384MOL0     H52978   3.132   0.689   2.347 -0.3482 -0.3698  0.1455
  384MOL0     H52979   3.133   0.562   2.159 -0.2219  0.8814 -1.9734
  384MOL0     H52980   3.385   0.726   1.796 -3.9002  0.1170 -0.8350
  384MOL0     H52981   3.486   0.601   1.881 -0.4513  1.4451  1.8885
  384MOL0     H52982   3.406   0.417   1.747 -2.7624 -1.2978  0.8612
  384MOL0     H52983   3.446   0.555   1.643 -0.0064  1.3449  1.3260
  384MOL0     H52984   3.168   0.464   1.726 -2.6197  1.3132 -1.1104
  384MOL0     H52985   3.207   0.621   1.646  0.7337  0.3521 -3.3445
  384MOL0     H52986   3.278   0.505   1.441 -1.5713 -0.8407 -3.5496
  384MOL0     H52987   3.127   0.422   1.488  0.7670 -1.3293 -1.7224
  384MOL0     H52988   3.420   0.129   1.490  0.4568 -0.3665 -0.3516
  384MOL0     H52989   3.419   0.844   1.994  0.0575 -2.5509 -1.2331
  384MOL0     H52990   3.512   1.020   2.247  1.0329 -2.1263 -1.2543
  384MOL0     H52991   3.444   1.069   2.096 -0.3954 -0.1886 -0.6579
  384MOL0     H52992   3.351   1.095   2.245  1.2957 -0.2912  2.3550
  385MOL0     O52993   5.243  10.034   9.462 -0.3072  0.3282  0.5698
  385MOL0     C52994   5.216   9.925   9.415  0.2018  0.0681 -0.2526
  385MOL0     O52995   5.296   9.813   9.410  0.2487  0.0199 -0.5292
  385MOL0     C52996   5.426   9.840   9.397 -0.0493  0.7063  0.8916
  385MOL0     C52997   5.483   9.883   9.279 -0.7415  0.1618  0.5736
  385MOL0     C52998   5.616   9.929   9.272  0.3504  0.6077  0.0731
  385MOL0     C52999   5.703   9.919   9.388 -0.5017 -0.1118  0.7343
  385MOL0     O53000   5.838   9.948   9.396  0.5050 -0.5027  0.1053
  385MOL0     C53001   5.898  10.005   9.281  1.0107 -0.1828  0.5803
  385MOL0     C53002   6.031  10.071   9.325  0.2433 -0.5917  0.4449
  385MOL0     C53003   6.105  10.112   9.198  0.6887  0.3407 -0.2715
  385MOL0     C53004   6.110  10.270   9.177  1.0925 -0.1568 -0.1377
  385MOL0     C53005   6.000  10.313   9.076  0.0540  0.4422 -1.0620
  385MOL0     C53006   5.945  10.455   9.100 -0.2376  0.4105 -0.1105
  385MOL0     C53007   5.838  10.504   8.997 -0.1222  0.6257  0.8606
  385MOL0     C53008   5.719  10.563   9.071  0.7874 -0.1781  0.2403
  385MOL0     N53009   5.631  10.455   9.122 -0.3636 -0.0392  1.0220
  385MOL0     C53010   5.550  10.471   9.235  0.0183 -1.6629 -0.1174
  385MOL0     C53011   5.506  10.346   9.251 -0.4161 -0.7270 -0.6268
  385MOL0     C53012   5.410  10.300   9.363  0.2325  0.5966 -0.0305
  385MOL0     C53013   5.488  10.229   9.482  1.0013 -0.8553  0.0411
  385MOL0     C53014   5.560  10.343   9.575 -0.3224  0.1839  1.3926
  385MOL0     C53015   5.706  10.372   9.541 -0.3578 -0.5960  0.9550
  385MOL0     O53016   5.759  10.458   9.644 -0.1577  0.0862 -0.2247
  385MOL0     C53017   5.895  10.478   9.653 -0.6309  0.2770 -0.1757
  385MOL0     C53018   5.993  10.392   9.606 -0.3940 -0.3308  0.2266
  385MOL0     C53019   6.133  10.415   9.637  0.3087 -0.8834 -0.3687
  385MOL0     C53020   6.224  10.313   9.577  0.2258  0.2465  0.6015
  385MOL0     C53021   6.165  10.526   9.723  0.3803  0.2997 -0.0228
  385MOL0     C53022   6.305  10.569   9.745 -0.0010  0.5351  0.5169
  385MOL0     O53023   6.322  10.672   9.833  0.0359 -0.1832  0.0159
  385MOL0     C53024   6.456  10.703   9.845  0.0382 -0.6503  0.1722
  385MOL0     C53025   6.520  10.778   9.745  0.5840  0.5565  0.4801
  385MOL0     C53026   6.656  10.810   9.747  0.4355  0.5040  0.2092
  385MOL0     C53027   6.734  10.766   9.855 -0.2109  0.0987 -0.0906
  385MOL0     O53028   6.873  10.799   9.862 -0.0768 -0.0974  0.6150
  385MOL0     C53029   6.967  10.695   9.886 -0.7552 -0.4517 -0.1466
  385MOL0     C53030   7.087  10.724   9.791 -0.4461  0.7389  0.6481
  385MOL0     C53031   7.207  10.797   9.852  0.4085 -0.7495  0.3564
  385MOL0     C53032   7.184  10.936   9.898 -0.8396 -0.0656  0.3810
  385MOL0     C53033   7.311  11.015   9.868 -0.1295  0.7154  0.4862
  385MOL0     C53034   7.314  11.161   9.918 -0.7337 -0.7508 -0.0270
  385MOL0     C53035   7.446  11.224   9.865 -0.2140 -1.0743  0.1024
  385MOL0     C53036   7.473  11.372   9.914  0.0452 -0.0627  0.1879
  385MOL0    Cl53037   7.334  11.464   9.853 -0.1147  0.0568  0.0060
  385MOL0     C53038   6.669  10.688   9.957  0.2892  0.5825 -0.7515
  385MOL0     C53039   6.538  10.656   9.950  0.6559  0.3616 -0.0406
  385MOL0     O53040   6.395  10.518   9.677 -0.0556  0.4261  0.0687
  385MOL0     C53041   6.064  10.601   9.779 -0.0336  0.7340  1.2479
  385MOL0     C53042   5.931  10.587   9.731  0.7646 -0.6769  0.0952
  385MOL0     N53043   5.558  10.251   9.163  0.0047  0.3784  0.4946
  385MOL0     N53044   5.630  10.322   9.082  0.0693 -0.4008  0.2686
  385MOL0     C53045   5.648   9.859   9.501  0.4307  0.2245 -0.4267
  385MOL0     C53046   5.513   9.812   9.503 -0.5806 -0.2544 -0.1596
  385MOL0     C53047   5.091   9.899   9.341 -0.0007 -0.0107  0.0514
  385MOL0     C53048   5.083   9.780   9.267 -0.0660  0.0350  0.6151
  385MOL0     C53049   4.980   9.753   9.173 -0.6377  0.3460 -0.2874
  385MOL0     C53050   4.868   9.842   9.170 -0.9233  0.1037 -0.5230
  385MOL0     O53051   4.750   9.822   9.089 -0.2980  0.1979 -0.8684
  385MOL0     C53052   4.747   9.700   9.012  0.4031 -0.1799  0.5432
  385MOL0     C53053   4.703   9.580   9.098  0.6959  0.4334  0.2658
  385MOL0     C53054   4.554   9.577   9.122 -0.5745  0.0762  0.1978
  385MOL0     C53055   4.508   9.685   9.219  0.1240 -1.5535  0.3049
  385MOL0     C53056   4.361   9.666   9.249 -0.0962  0.0843 -0.9043
  385MOL0     C53057   4.242   9.639   9.263  0.1358 -0.0065 -0.2172
  385MOL0     C53058   4.883   9.958   9.241  0.1407  0.0677  0.0953
  385MOL0     C53059   4.992   9.994   9.324  0.5110 -0.8455 -1.0888
  385MOL0     C53060   4.982  10.124   9.403 -0.4446 -0.4115 -0.3534
  385MOL0     H53061   5.419   9.872   9.192  1.0937 -2.3358 -0.6041
  385MOL0     H53062   5.651   9.972   9.179 -0.5818  0.8689 -0.1628
  385MOL0     H53063   5.837  10.088   9.243  1.6831  0.3457  0.6411
  385MOL0     H53064   5.908   9.936   9.197 -2.3638  1.9708 -1.8632
  385MOL0     H53065   6.001  10.154   9.390  0.7869 -0.0409  0.0044
  385MOL0     H53066   6.091  10.002   9.386 -0.5352 -0.9638  0.8074
  385MOL0     H53067   6.208  10.075   9.204  0.7919  0.4027 -1.3725
  385MOL0     H53068   6.070  10.053   9.112  0.5418 -0.8212  0.5669
  385MOL0     H53069   6.089  10.314   9.275  0.8656 -1.4053  0.3877
  385MOL0     H53070   6.202  10.310   9.134 -0.9162  0.3184 -4.6943
  385MOL0     H53071   5.912  10.248   9.091  0.7191 -0.3177 -0.3117
  385MOL0     H53072   6.033  10.291   8.974  0.4088  2.0215 -1.3048
  385MOL0     H53073   5.924  10.451   9.207  2.2481 -1.1021  0.4114
  385MOL0     H53074   6.021  10.534   9.096 -0.0166  0.2004 -0.1022
  385MOL0     H53075   5.810  10.423   8.930 -1.5414  1.6291  0.1938
  385MOL0     H53076   5.879  10.593   8.946 -2.6654  2.4169  1.7448
  385MOL0     H53077   5.747  10.622   9.158 -0.1205  0.9241 -0.1960
  385MOL0     H53078   5.656  10.628   9.010  0.0800 -0.9872  0.0921
  385MOL0     H53079   5.515  10.558   9.289  0.5219 -2.0696  0.9062
  385MOL0     H53080   5.354  10.219   9.315  1.9510  0.3327 -1.7357
  385MOL0     H53081   5.339  10.374   9.401 -1.4850 -0.8741 -0.2439
  385MOL0     H53082   5.419  10.175   9.548 -0.1102  2.8750  2.2169
  385MOL0     H53083   5.562  10.159   9.443  1.1674 -0.5725 -0.1548
  385MOL0     H53084   5.508  10.439   9.566  1.6733  1.3491  1.7417
  385MOL0     H53085   5.543  10.310   9.678 -1.9179  1.0452  1.4446
  385MOL0     H53086   5.751  10.272   9.537  2.0816  0.4535 -0.8877
  385MOL0     H53087   5.723  10.414   9.441  1.4018  1.3808  2.0062
  385MOL0     H53088   5.967  10.305   9.546 -1.7173 -0.3759  0.8359
  385MOL0     H53089   6.169  10.234   9.525  0.5159  1.8093 -2.3250
  385MOL0     H53090   6.282  10.264   9.656 -0.8424 -0.2041  1.1199
  385MOL0     H53091   6.289  10.353   9.498 -1.2264 -3.1609 -2.6356
  385MOL0     H53092   6.452  10.803   9.663  0.3194 -3.2845 -0.6688
  385MOL0     H53093   6.705  10.864   9.666  2.3712  1.2369  1.7805
  385MOL0     H53094   6.996  10.701   9.991 -0.1463 -1.0210 -0.2712
  385MOL0     H53095   6.920  10.599   9.865 -1.6831  0.4753 -2.7848
  385MOL0     H53096   7.119  10.625   9.757  0.1543  0.9294  0.6583
  385MOL0     H53097   7.047  10.777   9.704 -2.7833  0.4024  1.4240
  385MOL0     H53098   7.281  10.807   9.771  0.2447  4.1254  0.5096
  385MOL0     H53099   7.244  10.731   9.930  0.4531 -2.0625 -0.7462
  385MOL0     H53100   7.151  10.954  10.001  0.9227  2.6041  0.5759
  385MOL0     H53101   7.114  10.987   9.832 -1.8640 -1.0938  0.6242
  385MOL0     H53102   7.383  10.958   9.928 -2.5875 -2.6945  0.4865
  385MOL0     H53103   7.334  11.013   9.762 -0.1476  0.9219  0.4785
  385MOL0     H53104   7.307  11.167  10.027  1.0132 -0.2182  0.0941
  385MOL0     H53105   7.237  11.218   9.866 -0.3189 -0.1354  0.0142
  385MOL0     H53106   7.452  11.221   9.756 -0.4963  1.3339 -0.0390
  385MOL0     H53107   7.530  11.169   9.909  0.5548  1.5200  2.2012
  385MOL0     H53108   7.564  11.402   9.860 -0.2860 -0.9331 -0.8832
  385MOL0     H53109   7.486  11.384  10.022  1.1808 -1.3817  0.2280
  385MOL0     H53110   6.719  10.663  10.051  0.9937 -0.1557 -1.3157
  385MOL0     H53111   6.492  10.594  10.027 -0.1302 -1.0951 -1.6106
  385MOL0     H53112   6.082  10.688   9.842  0.7371  2.2555 -0.9498
  385MOL0     H53113   5.857  10.656   9.770 -0.1998  0.9508 -4.1240
  385MOL0     H53114   5.703   9.862   9.595  0.3860 -3.7310 -0.0710
  385MOL0     H53115   5.477   9.785   9.602 -0.3154  3.0256  0.9505
  385MOL0     H53116   5.161   9.706   9.283  0.2702  0.1682 -0.3405
  385MOL0     H53117   4.968   9.656   9.126 -0.4527 -1.6076  3.3686
  385MOL0     H53118   4.676   9.722   8.931  0.6903 -3.5190 -0.7705
  385MOL0     H53119   4.848   9.690   8.971 -0.0026 -0.4695 -0.4123
  385MOL0     H53120   4.773   9.571   9.181  0.6217  0.2437  0.3091
  385MOL0     H53121   4.722   9.488   9.043  1.6860  3.1027 -4.4327
  385MOL0     H53122   4.505   9.592   9.026  0.0556 -2.3540 -0.5685
  385MOL0     H53123   4.532   9.476   9.158  3.2481 -0.0059  3.0201
  385MOL0     H53124   4.522   9.785   9.179 -1.8749 -0.1020  2.8776
  385MOL0     H53125   4.573   9.685   9.307  0.6420 -0.6288 -0.0729
  385MOL0     H53126   4.135   9.638   9.268  0.1758  0.2921  1.0943
  385MOL0     H53127   4.807  10.034   9.226 -1.4242 -1.2849  0.7972
  385MOL0     H53128   4.899  10.189   9.375 -1.3457 -1.3215  0.1620
  385MOL0     H53129   4.981  10.097   9.509 -0.5969 -3.0458 -0.9558
  385MOL0     H53130   5.073  10.183   9.384  0.3462 -1.2422  0.6646
  386MOL0     O53131   9.637   5.976   9.159 -0.4983 -0.4570  0.1789
  386MOL0     C53132   9.755   6.007   9.152  0.4406  0.3765 -0.0178
  386MOL0     O53133   9.844   5.953   9.064 -0.8079  0.5219  0.2687
  386MOL0     C53134   9.806   5.858   8.975  0.6466 -0.4665 -0.4157
  386MOL0     C53135   9.726   5.906   8.861  0.5841  0.1686  0.0652
  386MOL0     C53136   9.668   5.806   8.777 -0.8979 -1.0529 -0.2663
  386MOL0     C53137   9.692   5.669   8.800  0.0501  0.3837  0.4648
  386MOL0     O53138   9.647   5.578   8.704  0.2831  0.4435 -0.3344
  386MOL0     C53139   9.675   5.433   8.717 -0.0382 -0.1203 -0.4630
  386MOL0     C53140   9.628   5.342   8.603  0.6913  0.4269 -0.0174
  386MOL0     C53141   9.661   5.385   8.456 -0.2697  0.3490  0.0893
  386MOL0     C53142   9.811   5.358   8.412  0.0812 -0.8346  0.1192
  386MOL0     C53143   9.911   5.466   8.462 -0.3537 -0.2774  0.2734
  386MOL0     C53144  10.020   5.410   8.547  0.6489  0.6455  0.7950
  386MOL0     C53145  10.110   5.524   8.589 -0.7971  0.1035  0.2949
  386MOL0     C53146  10.227   5.469   8.673 -0.3122  0.8003 -0.5851
  386MOL0     N53147  10.316   5.573   8.722 -0.0491 -0.5742  0.2919
  386MOL0     C53148  10.450   5.558   8.735  0.0734  0.6488  0.3569
  386MOL0     C53149  10.486   5.653   8.819 -0.0633  0.4373  1.2210
  386MOL0     C53150  10.624   5.699   8.864  0.0001 -0.0612 -0.4680
  386MOL0     C53151  10.638   5.847   8.823 -0.1257 -0.3375  0.1900
  386MOL0     C53152  10.567   5.964   8.896  0.0743  0.9852  0.0807
  386MOL0     C53153  10.583   6.090   8.820  0.1481  0.1930  0.0013
  386MOL0     O53154  10.510   6.085   8.697 -0.1151  0.4772  0.4157
  386MOL0     C53155  10.462   6.197   8.644  0.6081 -0.6441 -0.7839
  386MOL0     C53156  10.482   6.332   8.679  0.2038  0.1025 -0.4678
  386MOL0     C53157  10.431   6.444   8.610 -0.1936  0.7579 -0.4289
  386MOL0     C53158  10.453   6.576   8.673 -0.0679  0.2092  0.5801
  386MOL0     C53159  10.344   6.426   8.495 -0.1359 -0.8200  0.3003
  386MOL0     C53160  10.268   6.527   8.419  0.7699 -0.3024 -0.0440
  386MOL0     O53161  10.166   6.483   8.332  0.0008  0.5343  0.1661
  386MOL0     C53162  10.065   6.569   8.288 -0.0627  0.7055 -0.0921
  386MOL0     C53163  10.106   6.679   8.204  0.2941  0.3798  0.4838
  386MOL0     C53164  10.002   6.760   8.156  0.4372 -0.9846 -0.9927
  386MOL0     C53165   9.863   6.748   8.196  0.9964  0.0573  0.0622
  386MOL0     O53166   9.769   6.843   8.164  0.4075 -0.7641 -0.3045
  386MOL0     C53167   9.806   6.940   8.063  0.4041  0.0222  0.5237
  386MOL0     C53168   9.688   7.027   8.027  0.5524 -0.2716 -0.3404
  386MOL0     C53169   9.559   6.956   7.988  0.9419 -0.3083  0.1843
  386MOL0     C53170   9.439   7.053   7.985  0.1397  0.0446 -0.2126
  386MOL0     C53171   9.304   6.983   8.005  0.6516 -0.2350  0.1799
  386MOL0     C53172   9.168   7.076   8.021 -0.1007 -0.0747  0.3946
  386MOL0     C53173   9.193   7.216   7.974 -0.5861  0.2168  0.6899
  386MOL0     C53174   9.068   7.294   8.013  0.2461  1.0651  0.6009
  386MOL0    Cl53175   9.050   7.450   7.934  0.0557 -0.4847 -0.7505
  386MOL0     C53176   9.826   6.632   8.267 -0.8194 -0.2477 -0.1061
  386MOL0     C53177   9.930   6.549   8.313 -0.3171  0.1375 -0.1362
  386MOL0     O53178  10.290   6.649   8.441  0.1253 -0.3313 -0.4258
  386MOL0     C53179  10.340   6.289   8.451  0.1314  0.7950 -0.5174
  386MOL0     C53180  10.397   6.187   8.524  0.7579  0.6965  0.6408
  386MOL0     N53181  10.371   5.722   8.852 -1.5489 -0.2017  0.7061
  386MOL0     N53182  10.266   5.674   8.806 -0.4341 -0.3055 -0.4288
  386MOL0     C53183   9.774   5.629   8.911 -0.6318 -0.2132  1.4117
  386MOL0     C53184   9.815   5.727   8.998  0.4317  1.2020  0.6988
  386MOL0     C53185   9.823   6.097   9.247  0.5423 -1.5970 -0.9224
  386MOL0     C53186   9.939   6.181   9.216 -0.3948 -0.0901 -0.1874
  386MOL0     C53187   9.984   6.281   9.300  0.8344 -0.3924 -0.3272
  386MOL0     C53188   9.932   6.295   9.427 -0.7622  0.5903 -0.0671
  386MOL0     O53189   9.987   6.395   9.502  0.5880 -0.1546 -0.0491
  386MOL0     C53190   9.945   6.406   9.643 -0.3192 -0.0811 -0.3792
  386MOL0     C53191  10.003   6.290   9.721 -0.4974  0.3069  0.7669
  386MOL0     C53192   9.960   6.260   9.860  0.3480 -0.6019 -0.0410
  386MOL0     C53193   9.892   6.391   9.932  0.4794  0.1962 -0.2818
  386MOL0     C53194   9.846   6.358  10.072 -0.6344 -0.4743  0.4378
  386MOL0     C53195   9.800   6.340  10.185 -0.2616  0.1038  0.2166
  386MOL0     C53196   9.826   6.210   9.472 -0.5811 -0.5474  0.3958
  386MOL0     C53197   9.762   6.122   9.377 -0.5740  0.0502  0.2979
  386MOL0     C53198   9.643   6.057   9.430  0.2887 -0.0125 -0.1308
  386MOL0     H53199   9.709   6.013   8.849  2.4429  0.3155 -1.8366
  386MOL0     H53200   9.605   5.840   8.694 -0.8807 -1.1895 -0.3363
  386MOL0     H53201   9.626   5.392   8.806 -0.6526 -1.2135 -1.2868
  386MOL0     H53202   9.780   5.421   8.745 -0.3898  2.8312  2.8544
  386MOL0     H53203   9.663   5.240   8.621  0.3355  0.0619 -1.2707
  386MOL0     H53204   9.519   5.338   8.609  0.6090  2.2795  0.4500
  386MOL0     H53205   9.605   5.334   8.378 -0.1298  0.1763  0.1008
  386MOL0     H53206   9.642   5.492   8.449 -2.1035  0.0845  0.7308
  386MOL0     H53207   9.837   5.254   8.431 -2.7113 -1.7662 -0.5929
  386MOL0     H53208   9.815   5.374   8.304  1.5569  1.7724  0.4685
  386MOL0     H53209   9.852   5.548   8.505  0.1093  0.9552 -1.3394
  386MOL0     H53210   9.972   5.504   8.379  1.2485 -1.1529  1.0102
  386MOL0     H53211   9.979   5.367   8.639  1.2387  2.1378  1.7922
  386MOL0     H53212  10.080   5.340   8.488  0.7309  2.1911 -1.0392
  386MOL0     H53213  10.051   5.590   8.653 -0.0256  0.0264  1.1124
  386MOL0     H53214  10.146   5.584   8.505 -1.7358  2.6935  1.6400
  386MOL0     H53215  10.195   5.420   8.766 -0.7566  1.6669 -0.2687
  386MOL0     H53216  10.281   5.389   8.621 -1.3167 -1.9920  2.3106
  386MOL0     H53217  10.509   5.493   8.671 -0.9935  2.7659 -3.1178
  386MOL0     H53218  10.710   5.646   8.823  1.5334  3.7740 -2.7084
  386MOL0     H53219  10.617   5.677   8.971 -0.8260 -0.2254 -0.5451
  386MOL0     H53220  10.746   5.864   8.821 -0.3194  0.9538 -0.3484
  386MOL0     H53221  10.602   5.857   8.720 -0.8733 -0.7402  0.4051
  386MOL0     H53222  10.460   5.946   8.897  0.5673 -2.9394  0.3541
  386MOL0     H53223  10.597   5.971   9.001 -0.9397  0.5025  0.4158
  386MOL0     H53224  10.539   6.157   8.894 -1.5096 -1.0065  0.1525
  386MOL0     H53225  10.688   6.114   8.803  0.7272 -1.8026  0.5625
  386MOL0     H53226  10.546   6.343   8.766  3.6477 -2.0009 -2.5104
  386MOL0     H53227  10.535   6.599   8.741  1.5705 -0.3687 -1.1228
  386MOL0     H53228  10.355   6.603   8.713 -0.2616 -0.2713  0.4420
  386MOL0     H53229  10.470   6.641   8.586 -0.6380 -2.0682 -1.3580
  386MOL0     H53230  10.208   6.706   8.181 -0.5523  1.8152 -1.9984
  386MOL0     H53231  10.034   6.836   8.086  0.0086 -0.5946 -0.7660
  386MOL0     H53232   9.887   7.011   8.080 -1.0659  2.5474 -2.2364
  386MOL0     H53233   9.823   6.879   7.974 -0.7361  0.5710 -0.0969
  386MOL0     H53234   9.660   7.101   8.103 -2.2873  1.2535 -2.6905
  386MOL0     H53235   9.721   7.087   7.941 -2.6718  2.2049 -0.0548
  386MOL0     H53236   9.547   6.872   8.056  3.3920  0.1975  1.3334
  386MOL0     H53237   9.573   6.919   7.886  1.8915 -0.5780  0.4018
  386MOL0     H53238   9.448   7.109   7.891 -0.2622 -0.2496 -0.4273
  386MOL0     H53239   9.442   7.126   8.066 -0.4302 -1.1187  0.8836
  386MOL0     H53240   9.288   6.930   7.910 -4.7150 -0.1102  0.7127
  386MOL0     H53241   9.303   6.922   8.095 -5.1010  0.4820  0.9868
  386MOL0     H53242   9.135   7.067   8.125 -1.9436  4.0532  0.3667
  386MOL0     H53243   9.093   7.021   7.964  0.0688  0.4081 -0.3036
  386MOL0     H53244   9.208   7.215   7.866 -0.9323  0.6690  0.6338
  386MOL0     H53245   9.281   7.256   8.026 -1.1617 -0.6839  2.4312
  386MOL0     H53246   9.076   7.325   8.118  1.0518 -0.8821  1.1709
  386MOL0     H53247   8.984   7.225   7.999  2.8209 -2.0737 -0.9805
  386MOL0     H53248   9.720   6.612   8.283 -0.8470  1.0766  1.7159
  386MOL0     H53249   9.894   6.453   8.351 -2.7584  0.0160 -2.4857
  386MOL0     H53250  10.298   6.250   8.358 -0.7349 -0.7592  0.4661
  386MOL0     H53251  10.374   6.089   8.482 -1.3741  1.7271 -0.7627
  386MOL0     H53252   9.794   5.525   8.935 -0.6067 -0.2148  1.3841
  386MOL0     H53253   9.849   5.693   9.095  0.8028  0.5663  0.3469
  386MOL0     H53254   9.979   6.172   9.116 -0.7353  1.1087 -0.4509
  386MOL0     H53255  10.066   6.346   9.269  0.1791  1.8748  2.2544
  386MOL0     H53256   9.970   6.502   9.690 -0.5973  0.0402 -0.4813
  386MOL0     H53257   9.837   6.404   9.658  0.1543 -1.6489  4.4932
  386MOL0     H53258  10.112   6.303   9.723 -0.8498  4.9094 -0.1568
  386MOL0     H53259   9.993   6.194   9.669  0.6894  2.6926 -4.6048
  386MOL0     H53260   9.886   6.181   9.842 -0.6784  0.4995 -0.8367
  386MOL0     H53261  10.047   6.224   9.917 -0.7230  0.4342  2.4046
  386MOL0     H53262   9.803   6.404   9.870 -1.3427 -3.5270  1.1841
  386MOL0     H53263   9.943   6.487   9.935 -1.7547  1.4540 -0.5222
  386MOL0     H53264   9.749   6.317  10.277 -2.2141  2.2688 -0.2357
  386MOL0     H53265   9.782   6.204   9.571 -2.7252  1.2568 -0.3714
  386MOL0     H53266   9.637   5.953   9.397 -0.8806  0.0834 -0.2773
  386MOL0     H53267   9.643   6.058   9.540  1.4308 -0.1664 -0.1152
  386MOL0     H53268   9.562   6.113   9.382  0.3796  1.2017  1.0499
  387MOL0     O53269   6.334  10.590   7.793  0.1564 -0.2748  0.0264
  387MOL0     C53270   6.238  10.672   7.776  0.3749 -0.1049  0.0068
  387MOL0     O53271   6.137  10.656   7.682  0.0357  0.1163  0.0343
  387MOL0     C53272   6.131  10.547   7.595 -0.9968  0.3200  0.9412
  387MOL0     C53273   6.245  10.510   7.516 -0.3264  0.5981  0.0334
  387MOL0     C53274   6.240  10.414   7.420 -0.3739 -0.9706 -0.2252
  387MOL0     C53275   6.118  10.359   7.391  0.7896 -0.1321  0.3497
  387MOL0     O53276   6.085  10.269   7.289  0.3859 -0.7351 -0.5565
  387MOL0     C53277   6.186  10.225   7.201  0.5315 -0.3785  1.0011
  387MOL0     C53278   6.105  10.177   7.089 -0.1822 -0.3570 -0.8911
  387MOL0     C53279   6.187  10.129   6.969  0.1894 -0.2213 -0.4997
  387MOL0     C53280   6.118  10.110   6.835 -0.0975 -0.9659  0.3783
  387MOL0     C53281   6.219  10.045   6.734 -0.2305  0.4507  0.4082
  387MOL0     C53282   6.160   9.956   6.622 -0.7990 -0.2389 -0.4605
  387MOL0     C53283   6.277   9.900   6.536 -1.1027 -0.1241  0.5394
  387MOL0     C53284   6.335   9.765   6.583 -0.0002  0.3108 -0.2497
  387MOL0     N53285   6.257   9.646   6.574  0.6041  0.4689 -0.0069
  387MOL0     C53286   6.205   9.591   6.465  0.6133 -0.1882  0.0612
  387MOL0     C53287   6.140   9.476   6.507  0.5609 -0.2238 -0.4217
  387MOL0     C53288   6.070   9.378   6.415 -0.2875 -0.6013 -0.4672
  387MOL0     C53289   5.922   9.407   6.380 -0.7285  0.3160 -0.5009
  387MOL0     C53290   5.878   9.297   6.284  0.8583  0.0168 -0.3499
  387MOL0     C53291   5.745   9.331   6.225 -0.5460  0.4986 -0.5755
  387MOL0     O53292   5.748   9.454   6.152  0.6425  0.4533 -0.0592
  387MOL0     C53293   5.646   9.476   6.058  0.3951  0.2031  0.3458
  387MOL0     C53294   5.677   9.549   5.934  1.5711 -0.5459  0.2005
  387MOL0     C53295   5.566   9.591   5.854 -0.3422  1.0886 -0.1405
  387MOL0     C53296   5.594   9.694   5.745  0.7253  0.4155 -0.2291
  387MOL0     C53297   5.431   9.536   5.885 -0.1222  0.4454 -0.4223
  387MOL0     C53298   5.305   9.566   5.801  0.2932 -0.1043 -1.0013
  387MOL0     O53299   5.181   9.583   5.866  0.4598 -0.4368 -0.0648
  387MOL0     C53300   5.071   9.649   5.803 -0.6678  0.7745  0.0731
  387MOL0     C53301   4.936   9.601   5.829 -1.0527  0.3292 -0.0375
  387MOL0     C53302   4.822   9.656   5.776  0.4350 -1.0313 -0.0577
  387MOL0     C53303   4.841   9.752   5.677  0.9469  0.3105  1.2334
  387MOL0     O53304   4.733   9.795   5.590 -0.8877 -0.5038 -0.0183
  387MOL0     C53305   4.762   9.756   5.451 -0.0108  0.6527  0.1340
  387MOL0     C53306   4.760   9.605   5.415 -0.2223 -0.0809 -0.0935
  387MOL0     C53307   4.619   9.552   5.450 -0.2113 -0.0707  1.0878
  387MOL0     C53308   4.607   9.404   5.398 -0.0795 -0.5752 -0.0582
  387MOL0     C53309   4.466   9.350   5.441 -0.7853  0.3532  0.9536
  387MOL0     C53310   4.444   9.204   5.403  0.7278 -0.2659 -0.1015
  387MOL0     C53311   4.313   9.150   5.463  0.0775 -0.6656  1.1872
  387MOL0     C53312   4.293   9.004   5.436 -0.4764 -0.3978 -0.0138
  387MOL0    Cl53313   4.299   8.989   5.251 -0.2848  0.0123  0.2346
  387MOL0     C53314   4.976   9.792   5.641  0.7643 -0.2233  0.3765
  387MOL0     C53315   5.085   9.743   5.711  0.0044 -0.3507  0.5979
  387MOL0     O53316   5.328   9.585   5.682  1.0872  0.3043 -0.5690
  387MOL0     C53317   5.408   9.457   6.000  0.6956 -0.9805  0.0557
  387MOL0     C53318   5.521   9.430   6.075 -0.0768  0.7479 -0.8226
  387MOL0     N53319   6.142   9.465   6.651 -0.0336  0.0003  0.0993
  387MOL0     N53320   6.215   9.569   6.682 -0.1074  0.1027  0.0134
  387MOL0     C53321   5.998  10.407   7.458 -0.6429  0.5692  0.8560
  387MOL0     C53322   6.013  10.483   7.570 -0.0757 -0.0724 -0.5257
  387MOL0     C53323   6.235  10.803   7.857 -0.5201  0.5007 -0.1889
  387MOL0     C53324   6.153  10.901   7.812 -0.4863 -0.8080  0.1141
  387MOL0     C53325   6.137  11.022   7.874 -0.6319 -0.2411  0.3989
  387MOL0     C53326   6.200  11.050   7.995 -0.4651 -0.0812 -0.1131
  387MOL0     O53327   6.165  11.155   8.084 -0.0137  0.2957 -0.2731
  387MOL0     C53328   6.093  11.270   8.035  0.7093  0.0334  0.9834
  387MOL0     C53329   6.159  11.343   7.905  0.1345 -0.5510 -0.5741
  387MOL0     C53330   6.316  11.358   7.892 -0.1860  0.0101  0.5339
  387MOL0     C53331   6.370  11.388   7.753  0.2373  0.4853 -0.5273
  387MOL0     C53332   6.334  11.521   7.697  0.4534  0.6949 -1.3378
  387MOL0     C53333   6.320  11.628   7.636 -0.3872  0.4630 -1.1059
  387MOL0     C53334   6.295  10.949   8.046  0.6380  0.4800  0.1219
  387MOL0     C53335   6.308  10.828   7.972 -0.5634  0.6284 -0.4187
  387MOL0     C53336   6.392  10.727   8.038  0.9308  0.2106  0.0982
  387MOL0     H53337   6.344  10.548   7.538  0.2825 -0.2194 -1.2303
  387MOL0     H53338   6.338  10.399   7.374 -0.0711 -3.8408  1.1822
  387MOL0     H53339   6.236  10.136   7.240  0.8322 -0.5904  0.1590
  387MOL0     H53340   6.261  10.301   7.176 -0.9641  1.2540  1.2314
  387MOL0     H53341   6.034  10.103   7.128 -1.4927 -0.0710 -2.6159
  387MOL0     H53342   6.043  10.262   7.058 -1.4165 -0.5054  0.9658
  387MOL0     H53343   6.257  10.212   6.955 -0.5224  1.0925  2.9060
  387MOL0     H53344   6.238  10.041   7.008  0.0735 -0.2703 -0.4582
  387MOL0     H53345   6.038  10.037   6.852 -0.2181 -0.7342  0.8210
  387MOL0     H53346   6.071  10.199   6.794  1.7637 -1.4508 -3.1548
  387MOL0     H53347   6.292   9.983   6.788  2.5943  0.3362 -3.2107
  387MOL0     H53348   6.276  10.125   6.687 -2.4949  0.6222 -2.2461
  387MOL0     H53349   6.105   9.871   6.665 -1.9227 -0.2909 -1.9149
  387MOL0     H53350   6.089  10.015   6.564 -3.6400  0.1028  3.0549
  387MOL0     H53351   6.358   9.971   6.518 -1.5313  0.5802  1.3197
  387MOL0     H53352   6.234   9.872   6.440  1.7544 -3.3905  0.0065
  387MOL0     H53353   6.425   9.749   6.522 -1.6340 -0.7363 -2.5148
  387MOL0     H53354   6.360   9.777   6.689 -2.5970  1.9595  0.2691
  387MOL0     H53355   6.211   9.633   6.365  0.3840 -0.2982  0.0004
  387MOL0     H53356   6.077   9.282   6.468 -1.6136 -0.5743 -0.2189
  387MOL0     H53357   6.132   9.365   6.326 -0.7150 -2.7537 -0.5219
  387MOL0     H53358   5.858   9.391   6.468 -4.0217  1.6675 -2.4622
  387MOL0     H53359   5.919   9.510   6.343  1.3191  0.2305 -1.0181
  387MOL0     H53360   5.952   9.285   6.204 -0.5531 -1.1899 -1.5413
  387MOL0     H53361   5.882   9.200   6.334 -0.6165 -0.5297 -1.2171
  387MOL0     H53362   5.714   9.243   6.168  0.3522  1.4930 -2.6807
  387MOL0     H53363   5.684   9.337   6.316 -0.5903 -1.4429 -0.4248
  387MOL0     H53364   5.780   9.579   5.919  1.0915  0.4275 -1.3033
  387MOL0     H53365   5.533   9.783   5.763  1.2728  0.5984  0.8397
  387MOL0     H53366   5.550   9.655   5.653  2.2743 -1.0244 -0.4198
  387MOL0     H53367   5.696   9.734   5.735  0.5711  0.8374 -0.1290
  387MOL0     H53368   4.923   9.523   5.904  1.6999  0.3935  0.6200
  387MOL0     H53369   4.719   9.629   5.799 -0.0789  1.7877  1.3207
  387MOL0     H53370   4.679   9.799   5.395  0.7233  1.8622 -0.0411
  387MOL0     H53371   4.849   9.809   5.411  0.1332  0.6267  0.4150
  387MOL0     H53372   4.795   9.600   5.311  0.3750  2.4470 -0.0860
  387MOL0     H53373   4.827   9.551   5.482 -0.5565 -2.5472 -1.6151
  387MOL0     H53374   4.543   9.614   5.402 -1.8688 -1.1151  2.2382
  387MOL0     H53375   4.602   9.554   5.558 -3.6477 -0.3556  0.6591
  387MOL0     H53376   4.695   9.343   5.420 -0.8301 -1.8293 -0.4323
  387MOL0     H53377   4.612   9.399   5.288  1.4303 -2.3941  0.0345
  387MOL0     H53378   4.464   9.357   5.550 -0.3755 -2.6380  1.2396
  387MOL0     H53379   4.380   9.407   5.404 -2.9370 -1.0991  3.4022
  387MOL0     H53380   4.523   9.138   5.440 -0.1570 -1.7823 -0.8613
  387MOL0     H53381   4.437   9.198   5.294  1.5391 -0.3982 -0.1539
  387MOL0     H53382   4.231   9.190   5.402  0.1587 -1.4117  0.5774
  387MOL0     H53383   4.306   9.175   5.569  4.4167  0.0390  1.4596
  387MOL0     H53384   4.198   8.982   5.485 -0.9830 -2.0233 -1.5992
  387MOL0     H53385   4.377   8.953   5.485 -0.7673 -2.1780 -1.2579
  387MOL0     H53386   4.992   9.875   5.573  0.1564 -0.1647  0.2982
  387MOL0     H53387   5.186   9.780   5.699  0.1824 -1.3941 -1.5440
  387MOL0     H53388   5.307   9.436   6.032  0.7009  2.1296  2.6670
  387MOL0     H53389   5.503   9.377   6.168  0.0044  0.5881 -0.8973
  387MOL0     H53390   5.904  10.359   7.430 -0.8755  0.1012  2.3704
  387MOL0     H53391   5.929  10.495   7.638  2.6323 -0.7769  3.2434
  387MOL0     H53392   6.100  10.891   7.718  0.2905 -0.1678 -0.4095
  387MOL0     H53393   6.069  11.085   7.818  0.6982  0.3214 -0.6532
  387MOL0     H53394   5.991  11.246   8.003  1.3057  0.1668 -1.2156
  387MOL0     H53395   6.086  11.338   8.120  0.0569 -0.0134  0.9765
  387MOL0     H53396   6.113  11.441   7.894 -1.9892 -1.7849 -4.2459
  387MOL0     H53397   6.126  11.299   7.811 -2.9445  2.1135 -0.8961
  387MOL0     H53398   6.333  11.443   7.958 -2.2068  0.7244  0.2103
  387MOL0     H53399   6.365  11.270   7.936 -0.9682 -0.9981 -0.5534
  387MOL0     H53400   6.340  11.308   7.684  1.5616 -1.2642  0.8163
  387MOL0     H53401   6.479  11.377   7.756  0.2451  0.7262  0.2746
  387MOL0     H53402   6.311  11.722   7.587  3.8482  1.3130 -0.6056
  387MOL0     H53403   6.334  10.970   8.145  0.1726  1.5332  0.0933
  387MOL0     H53404   6.453  10.773   8.116 -1.1142 -0.7687  2.4245
  387MOL0     H53405   6.333  10.650   8.090 -1.6408  2.0016  0.0309
  387MOL0     H53406   6.464  10.687   7.966 -0.9163  1.2086 -2.4954
  388MOL0     O53407  11.489   2.660   6.170  0.0951 -0.0686  0.1921
  388MOL0     C53408  11.474   2.696   6.055  0.7583 -0.1501 -0.7353
  388MOL0     O53409  11.515   2.617   5.951 -0.0527 -0.4647 -0.3197
  388MOL0     C53410  11.581   2.499   5.968 -0.4625 -0.2568 -0.9450
  388MOL0     C53411  11.718   2.484   5.957 -0.0515 -0.7977 -0.3460
  388MOL0     C53412  11.782   2.362   5.967  0.7713 -0.2616 -0.2984
  388MOL0     C53413  11.697   2.242   5.981 -0.6013 -1.1193 -0.2310
  388MOL0     O53414  11.739   2.112   5.964 -0.2571  0.3997 -0.0743
  388MOL0     C53415  11.881   2.084   5.971 -0.3349  0.3833 -0.6650
  388MOL0     C53416  11.914   1.934   6.008  0.1869  0.1986 -0.1617
  388MOL0     C53417  12.055   1.900   6.045 -0.1187  0.2191  0.3852
  388MOL0     C53418  12.076   1.749   6.095  0.2320 -0.6359 -0.2370
  388MOL0     C53419  12.214   1.710   6.136 -0.0232 -0.6481 -0.2672
  388MOL0     C53420  12.204   1.558   6.169  0.0392  0.8835 -0.2008
  388MOL0     C53421  12.317   1.526   6.264  0.1733  0.3902  0.2441
  388MOL0     C53422  12.455   1.522   6.188  0.6813  0.4992 -0.0334
  388MOL0     N53423  12.555   1.498   6.294  1.2512 -0.5485  0.2596
  388MOL0     C53424  12.574   1.582   6.398  0.1225  0.3436  0.2787
  388MOL0     C53425  12.626   1.504   6.494 -0.9781 -0.6347  0.7326
  388MOL0     C53426  12.653   1.535   6.634  0.7981  0.4056 -0.4589
  388MOL0     C53427  12.800   1.524   6.680 -0.2019 -0.1084  0.5172
  388MOL0     C53428  12.813   1.562   6.826  0.0337 -0.1316 -0.8081
  388MOL0     C53429  12.946   1.602   6.879 -1.0760  0.4185  0.2614
  388MOL0     O53430  13.063   1.545   6.802 -0.4015  0.3529  1.3503
  388MOL0     C53431  13.183   1.582   6.851 -0.2888  0.4552 -0.4053
  388MOL0     C53432  13.292   1.581   6.761 -0.9162 -0.0132 -0.0640
  388MOL0     C53433  13.420   1.631   6.795  0.4593  0.3972  0.9176
  388MOL0     C53434  13.515   1.647   6.678 -0.7677 -0.0550 -0.8688
  388MOL0     C53435  13.440   1.682   6.921 -0.4291  0.0670 -0.4462
  388MOL0     C53436  13.571   1.748   6.956 -0.3260  1.5213  0.0847
  388MOL0     O53437  13.615   1.727   7.085 -0.5125 -0.5953 -0.1494
  388MOL0     C53438  13.692   1.829   7.142  0.7082  0.2243  0.3130
  388MOL0     C53439  13.632   1.950   7.177 -0.8008  0.3278  0.6317
  388MOL0     C53440  13.706   2.048   7.250  0.4277  0.6233 -0.0780
  388MOL0     C53441  13.844   2.022   7.278  0.7547 -0.7442 -0.8370
  388MOL0     O53442  13.922   2.109   7.354  0.3038  0.7180 -0.2809
  388MOL0     C53443  13.867   2.145   7.484 -0.6811  0.3320  0.3782
  388MOL0     C53444  13.960   2.247   7.545 -0.9575  0.6475  0.7615
  388MOL0     C53445  13.893   2.306   7.669 -0.0246 -0.9443 -0.1450
  388MOL0     C53446  14.004   2.399   7.733  1.1183 -0.4394  0.6739
  388MOL0     C53447  13.952   2.460   7.865 -1.0892  0.7095  0.0015
  388MOL0     C53448  14.038   2.575   7.917 -0.7694  0.0306  0.3676
  388MOL0     C53449  13.975   2.631   8.043 -0.0592 -0.2414  0.0097
  388MOL0     C53450  14.077   2.708   8.122 -0.1801  0.1603  1.7074
  388MOL0    Cl53451  14.211   2.611   8.196  0.2057  0.2632  0.1985
  388MOL0     C53452  13.907   1.905   7.239  0.4465 -0.0853  1.4369
  388MOL0     C53453  13.825   1.807   7.168  0.2196  0.7539  0.1918
  388MOL0     O53454  13.623   1.823   6.875  0.1881 -0.4106  0.1102
  388MOL0     C53455  13.346   1.668   7.020  0.7315 -0.5696 -0.6893
  388MOL0     C53456  13.214   1.628   6.977 -0.3158  0.5171 -0.6427
  388MOL0     N53457  12.631   1.370   6.449  0.0520  0.3023  0.1075
  388MOL0     N53458  12.586   1.369   6.329  0.1656 -0.3778  1.1122
  388MOL0     C53459  11.558   2.255   5.988  0.2590  0.2484 -0.0848
  388MOL0     C53460  11.504   2.382   5.981 -0.4204 -0.4263  0.3621
  388MOL0     C53461  11.391   2.817   6.015  0.1403  0.5725  0.3995
  388MOL0     C53462  11.359   2.831   5.878  0.1553 -0.6297 -0.5867
  388MOL0     C53463  11.275   2.928   5.830 -0.4155 -0.5364  0.7270
  388MOL0     C53464  11.226   3.026   5.910  0.0314  0.5821 -0.2011
  388MOL0     O53465  11.162   3.133   5.856 -0.0599  0.1014  0.4443
  388MOL0     C53466  11.107   3.226   5.954  0.3855  0.3185  0.0613
  388MOL0     C53467  11.023   3.324   5.885  0.0043 -0.0066  0.3072
  388MOL0     C53468  10.956   3.414   5.989 -0.0572 -0.4740 -0.0654
  388MOL0     C53469  10.877   3.529   5.926  0.9128 -0.3729  0.5346
  388MOL0     C53470  10.924   3.586   5.800  0.9608  0.0202  0.1976
  388MOL0     C53471  10.933   3.620   5.682 -0.7307 -1.3031  0.1842
  388MOL0     C53472  11.272   3.023   6.042  0.1472  0.3410  0.2413
  388MOL0     C53473  11.353   2.923   6.097 -0.1859 -0.1449 -0.4728
  388MOL0     C53474  11.403   2.939   6.240  0.3167 -0.2806  0.5212
  388MOL0     H53475  11.773   2.576   5.939 -1.6136 -0.0338 -1.4295
  388MOL0     H53476  11.888   2.360   5.946  0.7801  1.3737 -0.4943
  388MOL0     H53477  11.930   2.142   6.051 -0.9021  1.2803 -0.9553
  388MOL0     H53478  11.928   2.114   5.877  2.4147 -1.2060  0.0782
  388MOL0     H53479  11.856   1.908   6.096 -0.5905  2.4133  0.0377
  388MOL0     H53480  11.891   1.873   5.920 -1.7193 -0.3767  0.7014
  388MOL0     H53481  12.128   1.931   5.969  1.1604  1.3550  2.0061
  388MOL0     H53482  12.073   1.954   6.138 -3.4140  1.2065  0.5756
  388MOL0     H53483  12.007   1.731   6.178  3.1303 -1.1227  2.2508
  388MOL0     H53484  12.039   1.686   6.014  0.2538  0.6573 -1.2785
  388MOL0     H53485  12.235   1.768   6.227  0.2458  0.1484 -0.8247
  388MOL0     H53486  12.289   1.729   6.059 -0.9908 -1.3761 -1.4206
  388MOL0     H53487  12.111   1.535   6.221 -0.6554 -0.0773 -1.7944
  388MOL0     H53488  12.212   1.503   6.075  1.1264  1.7823 -0.6543
  388MOL0     H53489  12.302   1.427   6.308 -1.0669  0.6329  0.4133
  388MOL0     H53490  12.310   1.588   6.354  1.2613  0.9015 -0.0111
  388MOL0     H53491  12.464   1.438   6.117  0.4869 -0.2879  0.8513
  388MOL0     H53492  12.476   1.616   6.137 -1.9620  0.1696 -1.9499
  388MOL0     H53493  12.545   1.686   6.397 -0.5679  0.1524 -0.8338
  388MOL0     H53494  12.605   1.453   6.690 -1.0686  1.0347 -1.0605
  388MOL0     H53495  12.608   1.630   6.662 -2.9135 -1.9907  2.8874
  388MOL0     H53496  12.832   1.420   6.671  3.0783  0.6536  1.9016
  388MOL0     H53497  12.872   1.579   6.619  3.3906 -2.4036  2.3315
  388MOL0     H53498  12.732   1.631   6.851 -2.8739 -3.0483 -1.4201
  388MOL0     H53499  12.787   1.478   6.891  0.9221  1.2471  1.4566
  388MOL0     H53500  12.947   1.711   6.875  0.7928  0.4008 -0.8720
  388MOL0     H53501  12.949   1.570   6.983  1.6230  0.0235  0.1138
  388MOL0     H53502  13.270   1.559   6.657 -2.3745 -3.1339  0.7812
  388MOL0     H53503  13.491   1.567   6.606 -0.6392 -1.7205  0.8700
  388MOL0     H53504  13.617   1.644   6.715 -0.5084  0.8520 -1.4734
  388MOL0     H53505  13.495   1.742   6.628 -0.6769  0.8796  0.8079
  388MOL0     H53506  13.531   1.980   7.149 -0.3211  0.6873 -0.7896
  388MOL0     H53507  13.646   2.134   7.279  0.3947  1.0886 -1.4824
  388MOL0     H53508  13.773   2.201   7.478  0.5308  2.3430 -0.8002
  388MOL0     H53509  13.867   2.055   7.547 -2.0178  0.3415  0.4184
  388MOL0     H53510  14.055   2.198   7.564 -0.3580  0.3484 -2.3743
  388MOL0     H53511  13.986   2.327   7.476  2.3988 -1.3876 -0.5599
  388MOL0     H53512  13.864   2.231   7.744  0.4356  0.6136  1.6669
  388MOL0     H53513  13.811   2.372   7.641  2.3831  2.6786  0.7397
  388MOL0     H53514  14.022   2.475   7.657 -2.5998  0.2766  0.2810
  388MOL0     H53515  14.092   2.338   7.755  0.2791 -2.1259 -0.4078
  388MOL0     H53516  13.850   2.494   7.847 -1.6682 -0.6039  0.6410
  388MOL0     H53517  13.947   2.377   7.936  0.8117  1.1858  0.7397
  388MOL0     H53518  14.038   2.654   7.841 -0.2114  0.5839  0.9289
  388MOL0     H53519  14.141   2.541   7.934  0.1185  2.4853  0.2294
  388MOL0     H53520  13.946   2.549   8.109 -0.8834 -0.6999 -0.8824
  388MOL0     H53521  13.888   2.694   8.019  0.4555  1.8066  2.9878
  388MOL0     H53522  14.013   2.757   8.196 -1.0100  0.9483  0.4937
  388MOL0     H53523  14.124   2.782   8.056  2.9668 -3.3274 -0.3249
  388MOL0     H53524  14.012   1.889   7.264  0.6078 -0.4303  0.5963
  388MOL0     H53525  13.859   1.707   7.142 -0.7539  0.4181  0.1697
  388MOL0     H53526  13.369   1.694   7.123  0.2980  0.6259 -0.8812
  388MOL0     H53527  13.142   1.638   7.057  1.5502  1.7818  0.9621
  388MOL0     H53528  11.501   2.163   5.990 -1.4121  1.1737 -1.4248
  388MOL0     H53529  11.396   2.397   5.983 -0.6767 -2.0380  3.2336
  388MOL0     H53530  11.399   2.761   5.805  1.0544 -1.0026  0.2446
  388MOL0     H53531  11.245   2.905   5.728  0.4476 -0.4209  0.4373
  388MOL0     H53532  11.048   3.185   6.036  2.6349  1.1209  2.2203
  388MOL0     H53533  11.197   3.268   6.000 -1.1154 -0.7685  4.4616
  388MOL0     H53534  10.949   3.263   5.832 -0.2167 -0.5130  1.1697
  388MOL0     H53535  11.077   3.380   5.809 -0.9022 -2.4991 -2.3293
  388MOL0     H53536  10.894   3.354   6.057 -0.2525  1.3252  1.4176
  388MOL0     H53537  11.037   3.453   6.051  0.2677 -0.1969 -0.6610
  388MOL0     H53538  10.859   3.606   6.002  0.1632 -1.8686  1.9451
  388MOL0     H53539  10.787   3.478   5.890  1.1681 -1.5348  1.4663
  388MOL0     H53540  10.948   3.655   5.582  3.0850 -1.9273  0.4115
  388MOL0     H53541  11.250   3.102   6.113 -2.5061  0.3776 -0.5165
  388MOL0     H53542  11.367   2.859   6.306 -1.8439 -1.3050 -1.7681
  388MOL0     H53543  11.512   2.943   6.240  0.3152  1.8378  2.3036
  388MOL0     H53544  11.367   3.031   6.288 -3.8142 -1.1637 -0.5047
  389MOL0     O53545   2.535   2.510   2.738  0.1774 -0.1316 -0.1519
  389MOL0     C53546   2.493   2.397   2.747 -0.1695 -0.7116  0.1225
  389MOL0     O53547   2.362   2.364   2.735 -1.0686 -0.0882 -0.0585
  389MOL0     C53548   2.286   2.451   2.664  0.2523 -0.0813  0.5025
  389MOL0     C53549   2.289   2.447   2.524  0.8128  0.9654  0.2736
  389MOL0     C53550   2.196   2.532   2.451  0.1983  0.5965  0.1460
  389MOL0     C53551   2.100   2.614   2.519 -0.2592 -0.2221 -0.5609
  389MOL0     O53552   2.021   2.709   2.451 -0.3695  0.8204 -0.7485
  389MOL0     C53553   2.040   2.735   2.312 -0.0779  0.2013  0.1406
  389MOL0     C53554   1.969   2.870   2.273  0.0396  0.1169 -0.4404
  389MOL0     C53555   2.040   2.981   2.356  0.0333 -0.0122  0.1427
  389MOL0     C53556   2.013   3.115   2.287 -0.2141  0.0403  0.5020
  389MOL0     C53557   2.046   3.226   2.375  0.1850  0.1739  0.3557
  389MOL0     C53558   2.194   3.234   2.388  0.4116  0.6097 -0.4535
  389MOL0     C53559   2.236   3.354   2.471 -0.0689 -0.1582  0.2237
  389MOL0     C53560   2.385   3.355   2.468 -1.1294 -0.1723  0.2497
  389MOL0     N53561   2.457   3.371   2.340  0.8304 -0.0360 -0.2963
  389MOL0     C53562   2.469   3.484   2.268 -0.6267  0.2235 -0.5082
  389MOL0     C53563   2.572   3.469   2.179  0.2647  0.0534 -0.4220
  389MOL0     C53564   2.620   3.564   2.078  0.4167  0.8540  0.3028
  389MOL0     C53565   2.531   3.547   1.949  0.7067  0.4822 -0.4642
  389MOL0     C53566   2.545   3.656   1.847 -0.1735 -0.1962  0.2447
  389MOL0     C53567   2.459   3.641   1.717  0.3321  0.5174 -0.2986
  389MOL0     O53568   2.327   3.632   1.753  0.1992  0.6210  0.0896
  389MOL0     C53569   2.243   3.744   1.774  0.6718 -0.3141 -0.7306
  389MOL0     C53570   2.111   3.724   1.807 -0.1208 -0.7249  1.1269
  389MOL0     C53571   2.018   3.828   1.817  0.5156 -0.4004  0.9228
  389MOL0     C53572   1.870   3.791   1.830  0.6573 -0.4560 -0.1700
  389MOL0     C53573   2.065   3.957   1.825 -0.1664 -0.1208  0.7156
  389MOL0     C53574   1.984   4.066   1.883 -0.3347 -0.4323  0.3367
  389MOL0     O53575   1.870   4.090   1.805 -0.9539 -0.1326  0.2876
  389MOL0     C53576   1.794   4.199   1.838 -0.8314  0.0529 -1.0803
  389MOL0     C53577   1.817   4.305   1.743  0.6611  0.3856 -0.9019
  389MOL0     C53578   1.751   4.430   1.769 -0.3051  0.1362  0.1914
  389MOL0     C53579   1.683   4.448   1.887  0.0894 -0.2122  0.1231
  389MOL0     O53580   1.598   4.553   1.893 -0.0450 -0.3804 -0.8213
  389MOL0     C53581   1.590   4.609   2.029 -0.3129 -0.0754  0.3669
  389MOL0     C53582   1.527   4.750   2.001  0.2037  0.6071  0.6859
  389MOL0     C53583   1.406   4.728   1.909 -0.6145  0.4577 -0.1309
  389MOL0     C53584   1.299   4.840   1.891 -0.0982  0.3030  0.0346
  389MOL0     C53585   1.204   4.816   1.773  0.3999  0.8114  0.1655
  389MOL0     C53586   1.134   4.949   1.741  0.4091 -0.4212 -1.2001
  389MOL0     C53587   0.991   4.919   1.688 -0.2217 -0.6480 -0.5144
  389MOL0     C53588   0.900   5.044   1.706 -0.0144 -0.4023  0.5183
  389MOL0    Cl53589   0.958   5.188   1.608 -0.1176 -0.1872 -0.2295
  389MOL0     C53590   1.666   4.347   1.978 -0.2110 -0.0122 -0.3103
  389MOL0     C53591   1.727   4.220   1.961  0.3287 -0.1587  0.3268
  389MOL0     O53592   2.024   4.133   1.980 -0.0885 -0.4743 -0.2092
  389MOL0     C53593   2.197   3.989   1.792  0.2299 -0.3493 -0.1107
  389MOL0     C53594   2.288   3.890   1.764  0.3027  0.1980  0.5123
  389MOL0     N53595   2.611   3.340   2.198 -1.0614  0.0856 -0.4080
  389MOL0     N53596   2.543   3.281   2.295  0.3308 -0.6384 -0.3122
  389MOL0     C53597   2.103   2.615   2.661  0.6502 -0.0489  0.5203
  389MOL0     C53598   2.193   2.537   2.736 -0.3316  0.6798  0.0145
  389MOL0     C53599   2.583   2.283   2.790  0.3912 -0.0501 -0.4579
  389MOL0     C53600   2.546   2.147   2.743 -0.0121 -0.1956 -0.0000
  389MOL0     C53601   2.621   2.031   2.778 -0.8544  0.1593  0.5677
  389MOL0     C53602   2.729   2.047   2.866  0.9746 -0.6043  0.2320
  389MOL0     O53603   2.794   1.934   2.904  0.1698  0.9608 -0.5549
  389MOL0     C53604   2.900   1.878   2.816 -0.1410  0.1125 -0.2568
  389MOL0     C53605   3.007   1.807   2.888 -0.8203  0.0615 -0.5976
  389MOL0     C53606   2.947   1.733   3.015 -0.1117  0.5586  0.0706
  389MOL0     C53607   3.024   1.609   3.060 -0.5069 -0.1056 -0.0872
  389MOL0     C53608   2.964   1.547   3.170  0.6383  0.8439 -0.3353
  389MOL0     C53609   2.908   1.504   3.268  0.4358  0.4910  0.8666
  389MOL0     C53610   2.765   2.176   2.905 -0.5742 -0.9028 -0.1318
  389MOL0     C53611   2.694   2.292   2.874 -0.3036 -1.0431  0.7785
  389MOL0     C53612   2.745   2.420   2.938  0.3448 -0.4710 -0.4174
  389MOL0     H53613   2.343   2.364   2.480 -2.1046  0.6534 -3.2367
  389MOL0     H53614   2.195   2.507   2.346  2.7398 -0.6341  0.3362
  389MOL0     H53615   1.981   2.653   2.270  2.8068 -0.6897 -2.5954
  389MOL0     H53616   2.147   2.730   2.287  0.3424  1.1081  1.6236
  389MOL0     H53617   1.970   2.895   2.167  1.9141  0.8425 -0.2856
  389MOL0     H53618   1.864   2.856   2.300  0.1266  0.8916  0.3471
  389MOL0     H53619   1.987   2.988   2.452 -2.3422 -0.3887 -1.0583
  389MOL0     H53620   2.147   2.961   2.360  0.5578  1.8389 -2.4159
  389MOL0     H53621   2.076   3.130   2.199  3.0359 -1.4061  2.4151
  389MOL0     H53622   1.907   3.127   2.264 -0.2909  0.9410  1.2516
  389MOL0     H53623   2.022   3.222   2.482  4.1929 -2.4622  1.4030
  389MOL0     H53624   2.004   3.320   2.339 -0.4816 -0.0319  0.5773
  389MOL0     H53625   2.222   3.151   2.453 -0.5432  0.1180 -0.6556
  389MOL0     H53626   2.245   3.234   2.291  3.4159 -0.2952  0.9966
  389MOL0     H53627   2.205   3.337   2.575  2.8148  1.1503  1.4134
  389MOL0     H53628   2.186   3.447   2.445  2.5185  1.8945  2.0655
  389MOL0     H53629   2.421   3.429   2.540  2.6308 -0.6989 -0.8860
  389MOL0     H53630   2.416   3.258   2.510 -2.5873 -0.0927  1.6007
  389MOL0     H53631   2.403   3.569   2.280  1.1153  1.7628 -1.3416
  389MOL0     H53632   2.725   3.541   2.057 -0.0046 -0.5814 -0.3053
  389MOL0     H53633   2.604   3.664   2.121  0.5316  1.2133 -0.4866
  389MOL0     H53634   2.557   3.449   1.907  1.7220 -0.3288  1.8942
  389MOL0     H53635   2.428   3.542   1.985  0.0281 -0.0727 -2.3601
  389MOL0     H53636   2.513   3.745   1.902 -0.5412  0.1071 -0.4548
  389MOL0     H53637   2.651   3.670   1.823 -0.5944  3.8123 -0.0322
  389MOL0     H53638   2.472   3.720   1.642  1.2369 -2.7076 -3.8342
  389MOL0     H53639   2.479   3.546   1.668 -1.9580 -0.3995  0.3932
  389MOL0     H53640   2.077   3.622   1.824 -1.4261 -0.4727  0.2218
  389MOL0     H53641   1.870   3.685   1.856  1.0143 -0.0202  1.7257
  389MOL0     H53642   1.823   3.822   1.736 -1.6822 -0.6039  0.8721
  389MOL0     H53643   1.807   3.837   1.907 -0.9166  2.5922 -3.0248
  389MOL0     H53644   1.903   4.307   1.676  2.0347  1.4757  0.7950
  389MOL0     H53645   1.767   4.517   1.706  1.1519 -0.1380  0.1412
  389MOL0     H53646   1.513   4.559   2.088 -3.5137  0.7692 -2.7453
  389MOL0     H53647   1.691   4.622   2.069  0.3751 -0.7459 -1.0883
  389MOL0     H53648   1.494   4.793   2.096 -1.1062  1.7141 -0.2399
  389MOL0     H53649   1.595   4.817   1.949  0.1185  2.1542  2.4452
  389MOL0     H53650   1.352   4.637   1.938  0.2926 -0.9146 -2.4651
  389MOL0     H53651   1.438   4.717   1.805 -0.5189 -0.8979  0.0255
  389MOL0     H53652   1.347   4.938   1.892 -1.1150  0.8380 -1.3353
  389MOL0     H53653   1.231   4.841   1.977 -4.0268  3.1706 -2.7245
  389MOL0     H53654   1.270   4.781   1.692  2.4092 -2.6388  2.9784
  389MOL0     H53655   1.121   4.751   1.803  0.5731  0.9835  1.0539
  389MOL0     H53656   1.199   4.998   1.667 -1.4195  1.1041 -1.8611
  389MOL0     H53657   1.121   5.011   1.830 -0.5998 -0.3847 -1.3640
  389MOL0     H53658   0.940   4.835   1.736 -0.8512  2.5940  5.4862
  389MOL0     H53659   1.007   4.906   1.580  0.0789 -0.7426 -0.4588
  389MOL0     H53660   0.904   5.075   1.811  2.9278 -0.1275  0.4009
  389MOL0     H53661   0.795   5.019   1.688 -0.0912  1.4493 -2.4030
  389MOL0     H53662   1.595   4.352   2.060 -0.0080 -1.4733 -0.0209
  389MOL0     H53663   1.709   4.146   2.038 -3.4754 -2.4189 -2.3990
  389MOL0     H53664   2.230   4.092   1.801 -0.3749 -0.3407  3.4964
  389MOL0     H53665   2.392   3.912   1.739  0.2061 -2.1284 -2.3109
  389MOL0     H53666   2.018   2.668   2.702  1.0807  1.4590 -0.4511
  389MOL0     H53667   2.171   2.519   2.841  1.4040  2.1969  0.6897
  389MOL0     H53668   2.464   2.132   2.674  0.2436 -0.6198 -0.2140
  389MOL0     H53669   2.599   1.939   2.726  1.6586  0.0715 -0.4621
  389MOL0     H53670   2.844   1.813   2.748 -3.3319 -0.2692  2.4641
  389MOL0     H53671   2.941   1.960   2.755 -3.5593  2.0833 -0.1502
  389MOL0     H53672   3.087   1.877   2.912 -0.4225 -1.2515  2.3823
  389MOL0     H53673   3.049   1.734   2.819 -0.8298 -0.2859 -0.2428
  389MOL0     H53674   2.946   1.808   3.095  0.5786  0.2190  0.3998
  389MOL0     H53675   2.841   1.706   3.009 -1.5919  5.4521  0.1296
  389MOL0     H53676   3.132   1.626   3.066 -0.2870 -0.7011 -1.6369
  389MOL0     H53677   3.010   1.536   2.979 -1.2199 -0.4350  0.3216
  389MOL0     H53678   2.854   1.486   3.358 -2.4948  4.9871  0.3573
  389MOL0     H53679   2.847   2.189   2.974 -1.0135 -0.8206  0.3821
  389MOL0     H53680   2.756   2.491   2.855 -4.5199 -2.1855 -2.9394
  389MOL0     H53681   2.663   2.469   2.990  0.3461  0.5630 -1.3449
  389MOL0     H53682   2.831   2.405   3.004  1.8427 -2.2858 -2.5966
  390MOL0     O53683   2.052   4.330   8.759 -0.0875  0.1620  0.6682
  390MOL0     C53684   1.961   4.248   8.765 -0.0434 -0.0999 -0.3007
  390MOL0     O53685   1.980   4.127   8.829 -0.0003  0.6892 -0.7008
  390MOL0     C53686   2.109   4.078   8.866  0.0097  0.5325 -0.6517
  390MOL0     C53687   2.142   4.064   8.999 -0.1196  0.5839  0.0426
  390MOL0     C53688   2.255   4.012   9.052 -1.1027  0.5316 -0.0435
  390MOL0     C53689   2.352   3.972   8.953  0.2729  0.5503  0.9404
  390MOL0     O53690   2.461   3.908   9.010  0.0810 -0.5987  0.2698
  390MOL0     C53691   2.588   3.962   8.975  0.7137 -0.2097  0.1054
  390MOL0     C53692   2.627   4.049   9.089 -0.0710  0.4502  0.2418
  390MOL0     C53693   2.767   4.118   9.076  0.7461  0.0533  0.1187
  390MOL0     C53694   2.884   4.012   9.090  0.6365 -0.1024  0.2826
  390MOL0     C53695   3.025   4.064   9.059 -0.3058 -0.3126  0.0766
  390MOL0     C53696   3.053   4.104   8.914  0.5852  0.0023  0.1938
  390MOL0     C53697   3.040   3.980   8.823  0.4305 -0.3313  0.1845
  390MOL0     C53698   3.076   4.027   8.685  0.2358  1.0776  0.1194
  390MOL0     N53699   3.069   3.903   8.602 -1.0967  0.4095 -0.1090
  390MOL0     C53700   2.973   3.869   8.511 -0.1908  0.0995 -0.3643
  390MOL0     C53701   3.012   3.750   8.459 -0.6278  0.8213 -1.1451
  390MOL0     C53702   2.953   3.674   8.346  1.1761  0.3235  0.1983
  390MOL0     C53703   2.819   3.608   8.376 -0.1269 -0.8091  0.7645
  390MOL0     C53704   2.819   3.479   8.442 -0.4669  0.0613  0.4993
  390MOL0     C53705   2.685   3.413   8.436 -0.5704 -0.5183 -0.8803
  390MOL0     O53706   2.668   3.362   8.306 -0.2265  0.5444  0.7634
  390MOL0     C53707   2.568   3.276   8.285 -0.5981 -0.1815  1.3098
  390MOL0     C53708   2.560   3.219   8.155 -1.5397 -0.3802 -0.2536
  390MOL0     C53709   2.459   3.123   8.126 -0.8682 -0.1136  0.2505
  390MOL0     C53710   2.474   3.045   8.002 -0.6555 -0.7197  1.0596
  390MOL0     C53711   2.371   3.080   8.231  0.2924 -0.1502  0.1919
  390MOL0     C53712   2.280   2.970   8.225 -0.3654  0.4721 -0.7509
  390MOL0     O53713   2.165   2.990   8.149  0.5189  0.6517  0.1721
  390MOL0     C53714   2.074   2.885   8.131 -0.7979  0.7236 -0.0726
  390MOL0     C53715   2.040   2.803   8.234 -0.1078 -0.1517 -0.4155
  390MOL0     C53716   1.945   2.699   8.219  0.3970  0.2784  0.8858
  390MOL0     C53717   1.881   2.682   8.093 -0.1180  0.0309  0.6799
  390MOL0     O53718   1.793   2.584   8.058 -0.5111  0.3168  0.2463
  390MOL0     C53719   1.749   2.489   8.157  0.5240 -0.7628 -0.0926
  390MOL0     C53720   1.634   2.394   8.110 -0.4104 -0.1773 -0.3557
  390MOL0     C53721   1.507   2.460   8.076  0.2143 -0.9983  0.2897
  390MOL0     C53722   1.515   2.545   7.939  0.3638 -0.2177 -0.9380
  390MOL0     C53723   1.375   2.586   7.912 -1.1686 -0.0337  0.5474
  390MOL0     C53724   1.368   2.681   7.790 -0.4479 -0.4813 -0.8195
  390MOL0     C53725   1.394   2.825   7.835 -0.0533 -0.2213  0.3292
  390MOL0     C53726   1.414   2.915   7.707 -0.5933 -0.3389  0.0927
  390MOL0    Cl53727   1.573   2.869   7.632  0.0122  0.2523  0.0631
  390MOL0     C53728   1.912   2.773   7.992 -0.2708  0.3010  0.2291
  390MOL0     C53729   2.019   2.858   8.005  0.7662 -0.5039 -0.7480
  390MOL0     O53730   2.313   2.863   8.275  0.2016  0.0633  0.2797
  390MOL0     C53731   2.379   3.149   8.354 -0.1028  0.3671  0.7750
  390MOL0     C53732   2.474   3.247   8.379  0.2703  1.3099 -0.4596
  390MOL0     N53733   3.138   3.722   8.513  0.9648  0.6235 -0.6387
  390MOL0     N53734   3.166   3.809   8.604 -0.6795  0.2592  0.4174
  390MOL0     C53735   2.331   3.980   8.813  0.6570 -0.8996 -0.0648
  390MOL0     C53736   2.210   4.042   8.769 -0.1195  0.3316 -0.1574
  390MOL0     C53737   1.834   4.281   8.712 -0.1606  0.3781 -0.0641
  390MOL0     C53738   1.721   4.198   8.748  0.7789  0.8811  0.0439
  390MOL0     C53739   1.593   4.220   8.700 -0.5126  0.5648  0.7785
  390MOL0     C53740   1.558   4.331   8.629  0.5639  0.2307  0.2697
  390MOL0     O53741   1.432   4.354   8.583  0.2195  0.0535  0.2217
  390MOL0     C53742   1.340   4.379   8.688 -0.1653 -0.5033  0.4840
  390MOL0     C53743   1.198   4.376   8.639  0.2096  0.1009 -0.5709
  390MOL0     C53744   1.093   4.399   8.747  1.3828 -0.4235 -0.8755
  390MOL0     C53745   0.951   4.387   8.694  0.1732  0.3702  0.3056
  390MOL0     C53746   0.929   4.289   8.582  0.4298  0.1557 -0.2693
  390MOL0     C53747   0.907   4.208   8.493  0.4055  0.6985 -0.2939
  390MOL0     C53748   1.661   4.422   8.601 -0.7526  0.5066  0.9911
  390MOL0     C53749   1.795   4.394   8.636  0.2893 -0.3119 -0.9840
  390MOL0     C53750   1.886   4.496   8.584  0.1574 -0.7265 -0.4307
  390MOL0     H53751   2.070   4.098   9.073 -1.4205  1.2046 -1.4671
  390MOL0     H53752   2.295   4.001   9.153  1.1073 -1.5293 -1.0388
  390MOL0     H53753   2.589   4.031   8.891 -0.9199 -0.3322 -0.0426
  390MOL0     H53754   2.654   3.876   8.958  1.1343  0.4779 -2.0078
  390MOL0     H53755   2.556   4.132   9.099  1.9871  2.4318 -0.6111
  390MOL0     H53756   2.627   3.986   9.178  3.0758 -1.3141 -0.8471
  390MOL0     H53757   2.779   4.170   8.981  0.6911  1.0946  0.6690
  390MOL0     H53758   2.784   4.198   9.148 -0.3948  1.7589 -1.4122
  390MOL0     H53759   2.886   3.970   9.191  1.2259 -0.1629  0.2482
  390MOL0     H53760   2.868   3.935   9.014  0.6960 -0.9295  1.0811
  390MOL0     H53761   3.085   3.976   9.084 -1.5073 -0.6890  1.8442
  390MOL0     H53762   3.053   4.144   9.128  0.0830 -2.0502  2.0466
  390MOL0     H53763   2.976   4.181   8.897  2.3703  1.6909 -0.6208
  390MOL0     H53764   3.153   4.146   8.907  0.8389  0.0162  2.8974
  390MOL0     H53765   2.943   3.929   8.826  0.7713 -0.9431  1.5821
  390MOL0     H53766   3.113   3.904   8.853  0.4429 -1.1671 -1.8345
  390MOL0     H53767   3.009   4.102   8.642  2.0115  2.4500 -0.3643
  390MOL0     H53768   3.179   4.061   8.698  0.3748  1.6052 -1.9046
  390MOL0     H53769   2.876   3.914   8.494 -0.7146  1.0707  4.0542
  390MOL0     H53770   3.016   3.590   8.316  1.4896  0.3938  0.6455
  390MOL0     H53771   2.939   3.742   8.261  0.4022 -0.1830 -0.0875
  390MOL0     H53772   2.752   3.676   8.431  2.5765  5.1646 -2.3321
  390MOL0     H53773   2.773   3.602   8.277  0.5600 -0.1240  0.3907
  390MOL0     H53774   2.905   3.420   8.408 -0.3059  2.0536 -3.0556
  390MOL0     H53775   2.833   3.494   8.549  0.6788 -0.6940  0.4778
  390MOL0     H53776   2.683   3.327   8.503 -2.7518  0.7940  0.8621
  390MOL0     H53777   2.616   3.495   8.457  1.4689  1.1284 -0.2809
  390MOL0     H53778   2.628   3.247   8.075 -0.3290 -0.3197  0.7539
  390MOL0     H53779   2.461   3.101   7.909  1.9987  1.0241  1.6369
  390MOL0     H53780   2.403   2.961   8.002  0.0289 -1.3257  2.3621
  390MOL0     H53781   2.576   3.008   7.991 -0.9121 -0.9756 -0.7291
  390MOL0     H53782   2.074   2.831   8.333  2.4486 -1.0685 -0.9427
  390MOL0     H53783   1.929   2.636   8.306  3.1784 -2.7093 -0.5110
  390MOL0     H53784   1.830   2.431   8.204  0.3971 -0.5302  0.4245
  390MOL0     H53785   1.698   2.561   8.221  0.2402  1.2746 -2.4771
  390MOL0     H53786   1.660   2.327   8.028 -1.5116 -0.9735 -0.0771
  390MOL0     H53787   1.601   2.334   8.195 -0.5036 -0.2372 -0.4338
  390MOL0     H53788   1.469   2.521   8.158 -0.8886  1.1404 -1.6665
  390MOL0     H53789   1.430   2.383   8.062  0.2058 -1.1090  0.9372
  390MOL0     H53790   1.554   2.492   7.852  0.6827 -0.0165 -0.9206
  390MOL0     H53791   1.582   2.630   7.959  1.3119 -1.1464  0.0226
  390MOL0     H53792   1.330   2.489   7.887 -2.0286  0.0444  1.7606
  390MOL0     H53793   1.318   2.623   7.997  0.4986  2.6194  0.6085
  390MOL0     H53794   1.275   2.661   7.736 -0.5047 -0.5062 -0.7117
  390MOL0     H53795   1.442   2.662   7.712 -1.2270 -0.0648 -1.6826
  390MOL0     H53796   1.482   2.831   7.901  0.7599  2.1882 -0.8267
  390MOL0     H53797   1.305   2.865   7.884 -1.4709 -2.1572 -0.5789
  390MOL0     H53798   1.426   3.015   7.751  1.5887  0.0543 -1.2452
  390MOL0     H53799   1.341   2.923   7.625  0.3179 -2.2445 -0.9613
  390MOL0     H53800   1.865   2.788   7.896 -0.3575  4.5529  0.7239
  390MOL0     H53801   2.036   2.921   7.918  0.5337  0.2796 -0.2256
  390MOL0     H53802   2.303   3.117   8.425  0.4559 -2.0488  0.3446
  390MOL0     H53803   2.467   3.297   8.475 -1.0400  0.5023 -0.1133
  390MOL0     H53804   2.391   3.923   8.743  0.7094 -1.8801  0.7612
  390MOL0     H53805   2.184   4.032   8.664 -0.8024 -4.0623  0.2407
  390MOL0     H53806   1.738   4.111   8.810 -1.1045  0.2538 -0.2799
  390MOL0     H53807   1.517   4.150   8.732 -0.3365 -1.7237 -3.1435
  390MOL0     H53808   1.363   4.311   8.771  1.5146 -1.3600 -0.6139
  390MOL0     H53809   1.351   4.481   8.726 -2.4440  1.0678 -2.6603
  390MOL0     H53810   1.181   4.276   8.597  1.2177 -1.0772  1.5881
  390MOL0     H53811   1.181   4.450   8.561 -1.1511  0.2085 -0.2106
  390MOL0     H53812   1.096   4.325   8.828  0.7103 -0.1263 -0.5702
  390MOL0     H53813   1.110   4.491   8.803 -2.0966  1.6208 -2.8357
  390MOL0     H53814   0.922   4.481   8.645  0.2719 -0.1862 -0.8660
  390MOL0     H53815   0.881   4.364   8.774  0.2720 -2.8206 -0.4072
  390MOL0     H53816   0.875   4.142   8.415  1.3937  0.2803 -0.3505
  390MOL0     H53817   1.630   4.500   8.533 -0.6600 -0.6162 -0.3815
  390MOL0     H53818   1.946   4.554   8.655 -1.3081 -2.0745  2.0657
  390MOL0     H53819   1.961   4.448   8.520  0.4818  0.1203 -0.6965
  390MOL0     H53820   1.836   4.565   8.516  0.0516 -0.0756  0.2949
  391MOL0     O53821   5.135   1.669   0.230  0.1061  0.0786 -0.0636
  391MOL0     C53822   5.063   1.615   0.316 -0.2933 -1.2271 -0.0153
  391MOL0     O53823   5.102   1.524   0.403 -0.1580  0.2840  0.6366
  391MOL0     C53824   5.238   1.490   0.424  0.8303 -0.7555  0.1378
  391MOL0     C53825   5.303   1.521   0.537  0.3626 -0.2565 -0.3265
  391MOL0     C53826   5.442   1.504   0.557  0.1625 -0.2476 -0.7787
  391MOL0     C53827   5.517   1.447   0.451 -0.2765 -0.2317  1.0263
  391MOL0     O53828   5.642   1.415   0.480 -0.2085 -0.4266  0.2549
  391MOL0     C53829   5.728   1.348   0.385 -0.3238 -0.5304 -0.7917
  391MOL0     C53830   5.840   1.281   0.461  0.8186 -0.6730  0.7511
  391MOL0     C53831   5.899   1.383   0.553 -0.2577 -0.3846  0.1661
  391MOL0     C53832   6.054   1.348   0.582  0.6657 -0.4906  0.2527
  391MOL0     C53833   6.098   1.428   0.706 -1.3100 -0.1973 -0.8056
  391MOL0     C53834   6.249   1.436   0.718  0.4667 -0.4846 -0.8681
  391MOL0     C53835   6.290   1.512   0.840  0.2384 -0.1975  0.0480
  391MOL0     C53836   6.437   1.554   0.837 -0.0544  0.2802  0.7287
  391MOL0     N53837   6.527   1.438   0.863 -0.5165  0.3775  0.0124
  391MOL0     C53838   6.489   1.339   0.956  0.5705  0.1496  0.5044
  391MOL0     C53839   6.601   1.274   0.993 -0.6219 -0.5620 -0.1056
  391MOL0     C53840   6.635   1.158   1.082  0.6627  0.8636  0.8884
  391MOL0     C53841   6.614   1.178   1.235  0.3816  0.0510  0.9416
  391MOL0     C53842   6.667   1.315   1.292  0.3030  0.4687  1.0552
  391MOL0     C53843   6.820   1.316   1.279  0.9961  0.2699  0.7703
  391MOL0     O53844   6.891   1.221   1.368  0.6139 -0.7237  0.3316
  391MOL0     C53845   6.880   1.250   1.504 -0.9000 -0.0748  0.2011
  391MOL0     C53846   6.889   1.383   1.560  0.1584 -0.1330 -0.6833
  391MOL0     C53847   6.866   1.400   1.696  0.3269 -1.0765 -0.5218
  391MOL0     C53848   6.836   1.547   1.735 -0.4988 -0.9684 -0.0504
  391MOL0     C53849   6.853   1.292   1.785 -0.0492  0.6504 -0.3634
  391MOL0     C53850   6.858   1.298   1.937  0.2502  0.3586  0.2889
  391MOL0     O53851   6.860   1.181   2.018 -0.1472  0.5695 -0.1049
  391MOL0     C53852   6.875   1.194   2.156 -0.4832  0.1121 -1.0760
  391MOL0     C53853   6.787   1.285   2.235 -0.1747 -0.2386 -0.2992
  391MOL0     C53854   6.810   1.297   2.368  0.1316  0.2359  0.4773
  391MOL0     C53855   6.905   1.216   2.439 -0.0923 -0.5828  0.0275
  391MOL0     O53856   6.909   1.224   2.576 -0.1412  0.2851 -0.6677
  391MOL0     C53857   7.004   1.135   2.643 -1.1299 -0.2737  0.2275
  391MOL0     C53858   6.991   1.182   2.794 -0.6273  0.0774  0.0411
  391MOL0     C53859   7.025   1.075   2.900 -0.2514 -0.4777  0.0388
  391MOL0     C53860   7.097   1.147   3.029 -0.2606  0.0495 -0.9276
  391MOL0     C53861   7.116   1.038   3.138 -0.1567  0.6162  0.3156
  391MOL0     C53862   7.242   0.955   3.103 -0.5952  0.1977 -0.6050
  391MOL0     C53863   7.321   0.924   3.224  0.1145  0.6580 -0.0986
  391MOL0     C53864   7.444   1.020   3.232  0.2372  0.1444  0.5449
  391MOL0    Cl53865   7.545   0.978   3.388 -0.3730  0.1997  0.2774
  391MOL0     C53866   6.992   1.136   2.361  0.6223  0.2194  0.2192
  391MOL0     C53867   6.972   1.118   2.223 -0.5682  0.0712 -0.1808
  391MOL0     O53868   6.876   1.411   1.980  0.4796  0.0757  0.3684
  391MOL0     C53869   6.856   1.163   1.727 -0.2151 -0.2687 -0.4607
  391MOL0     C53870   6.858   1.145   1.595 -0.4991  0.3178  0.8098
  391MOL0     N53871   6.702   1.338   0.924 -0.0834 -0.2133  0.5951
  391MOL0     N53872   6.652   1.420   0.834  1.1225  0.2317  0.5760
  391MOL0     C53873   5.452   1.419   0.329 -0.5276  0.1518  0.3155
  391MOL0     C53874   5.314   1.437   0.316  0.5909 -0.4737  0.0730
  391MOL0     C53875   4.915   1.656   0.314 -0.6705  0.2550 -0.7869
  391MOL0     C53876   4.868   1.715   0.192  0.5161 -0.6677 -0.0364
  391MOL0     C53877   4.739   1.774   0.191 -0.0577  0.0755 -0.0319
  391MOL0     C53878   4.644   1.761   0.287  0.0229  0.2266 -0.6283
  391MOL0     O53879   4.508   1.812   0.267 -0.4832 -0.0403  0.2774
  391MOL0     C53880   4.443   1.860   0.379 -0.3203 -0.0915 -0.5398
  391MOL0     C53881   4.304   1.903   0.339 -0.2600 -0.0296  0.7174
  391MOL0     C53882   4.283   2.029   0.255  0.9187 -0.4346 -1.1695
  391MOL0     C53883   4.335   2.022   0.110  0.1475  0.7300 -0.1520
  391MOL0     C53884   4.290   2.141   0.040 -0.2187  0.4941 -0.8532
  391MOL0     C53885   4.267   2.237  -0.023 -0.1237  0.0079  1.1671
  391MOL0     C53886   4.692   1.708   0.412  0.3807  0.7428 -0.0714
  391MOL0     C53887   4.832   1.658   0.429  0.3332 -0.0812  0.5695
  391MOL0     C53888   4.875   1.602   0.561  0.5462 -0.0279 -0.2894
  391MOL0     H53889   5.249   1.577   0.613 -2.3503 -1.7029 -1.0529
  391MOL0     H53890   5.491   1.543   0.646 -1.3492 -2.3322  1.0855
  391MOL0     H53891   5.772   1.411   0.307  1.6920 -0.3272  0.4396
  391MOL0     H53892   5.678   1.269   0.328 -1.5330  0.8707 -1.7578
  391MOL0     H53893   5.808   1.191   0.515  2.9886 -1.4861  0.7701
  391MOL0     H53894   5.909   1.242   0.385  1.1320  0.7206  0.2890
  391MOL0     H53895   5.884   1.481   0.508  0.3668 -0.7490 -0.8648
  391MOL0     H53896   5.836   1.372   0.643 -3.5628 -1.2834 -2.0687
  391MOL0     H53897   6.056   1.242   0.609 -2.5722 -0.8867 -0.5970
  391MOL0     H53898   6.103   1.376   0.488 -3.3914 -1.7614 -2.5223
  391MOL0     H53899   6.062   1.372   0.792  0.2319 -0.4463 -0.2910
  391MOL0     H53900   6.063   1.532   0.704 -1.8672 -0.3597  0.0907
  391MOL0     H53901   6.296   1.337   0.724  2.3627  0.4183  0.1607
  391MOL0     H53902   6.298   1.480   0.631 -1.9451  0.7415 -1.6933
  391MOL0     H53903   6.264   1.461   0.934 -0.8859  0.1178 -0.0781
  391MOL0     H53904   6.238   1.606   0.858  0.1221 -0.2687  0.0890
  391MOL0     H53905   6.457   1.592   0.736 -1.3153  2.2140  1.1669
  391MOL0     H53906   6.471   1.628   0.909  0.7231  0.3028  0.3492
  391MOL0     H53907   6.392   1.317   0.999 -1.2728  0.8406 -2.9339
  391MOL0     H53908   6.735   1.116   1.070 -0.0120 -0.7446  0.6764
  391MOL0     H53909   6.572   1.077   1.046 -0.4338  2.7639 -1.8101
  391MOL0     H53910   6.507   1.160   1.242  0.4216 -0.5287  0.2092
  391MOL0     H53911   6.657   1.097   1.295  0.4300 -0.8879 -0.3153
  391MOL0     H53912   6.618   1.400   1.244 -2.5220 -0.3039  2.3368
  391MOL0     H53913   6.645   1.326   1.399  2.1269  2.3548  1.2917
  391MOL0     H53914   6.847   1.298   1.175  2.1457  1.6821  0.7792
  391MOL0     H53915   6.847   1.421   1.299 -0.8360  0.9095  0.0764
  391MOL0     H53916   6.899   1.458   1.482 -0.9897 -1.7992 -2.5374
  391MOL0     H53917   6.833   1.612   1.647 -1.5671  2.6615  2.4101
  391MOL0     H53918   6.910   1.580   1.810 -2.1503 -0.3814  1.3909
  391MOL0     H53919   6.733   1.549   1.772 -0.5453  0.8710 -0.1835
  391MOL0     H53920   6.713   1.347   2.186  1.3733  0.7032 -1.5090
  391MOL0     H53921   6.752   1.363   2.433  1.2796  1.7365  0.0422
  391MOL0     H53922   6.988   1.030   2.618  2.1438 -1.0304  0.8474
  391MOL0     H53923   7.108   1.144   2.611 -1.5764 -1.3329 -1.6360
  391MOL0     H53924   7.059   1.266   2.811  2.0956 -1.5595 -1.9661
  391MOL0     H53925   6.886   1.199   2.822 -0.8751 -1.1665 -0.0785
  391MOL0     H53926   7.090   0.996   2.861  0.2955  1.5687 -3.7001
  391MOL0     H53927   6.934   1.026   2.936  0.9652 -2.2396  0.8493
  391MOL0     H53928   7.021   1.214   3.071  2.7453  2.1370  1.6590
  391MOL0     H53929   7.191   1.193   2.999  0.5358 -0.9782 -0.1140
  391MOL0     H53930   7.119   1.091   3.233  1.6761  0.3546  0.4458
  391MOL0     H53931   7.034   0.966   3.134  2.6663 -2.8421 -1.8626
  391MOL0     H53932   7.311   1.009   3.037  0.0819 -0.1522 -0.2063
  391MOL0     H53933   7.220   0.855   3.065 -0.2169 -0.8349  1.7106
  391MOL0     H53934   7.353   0.820   3.220 -1.6657  0.0742 -0.1247
  391MOL0     H53935   7.266   0.937   3.317  2.2970 -1.2071  1.5509
  391MOL0     H53936   7.405   1.122   3.221 -0.9053 -0.3856 -0.7004
  391MOL0     H53937   7.512   1.009   3.147  0.5858  1.0488  0.6922
  391MOL0     H53938   7.068   1.069   2.400  0.5154 -1.9089 -2.8768
  391MOL0     H53939   7.017   1.047   2.155 -0.2245 -0.0008  0.1233
  391MOL0     H53940   6.836   1.078   1.791 -4.6400  1.4924  0.8971
  391MOL0     H53941   6.866   1.048   1.547 -0.6452  0.7566 -0.1182
  391MOL0     H53942   5.510   1.386   0.243 -0.6436 -1.8630  0.9735
  391MOL0     H53943   5.265   1.398   0.227  1.2918 -2.8598  0.6512
  391MOL0     H53944   4.928   1.725   0.102 -0.6084 -1.7094 -0.9655
  391MOL0     H53945   4.703   1.815   0.097 -1.8351 -3.2715 -0.9501
  391MOL0     H53946   4.435   1.785   0.459 -0.1012  0.3900 -0.0618
  391MOL0     H53947   4.506   1.943   0.413  2.4408 -1.9535 -0.8167
  391MOL0     H53948   4.246   1.906   0.432 -1.8320 -1.0485 -0.1808
  391MOL0     H53949   4.261   1.822   0.279 -0.7941  2.3704 -2.4025
  391MOL0     H53950   4.182   2.068   0.270  1.6766  1.0742  0.4497
  391MOL0     H53951   4.343   2.107   0.304  0.1172 -0.6533  0.2093
  391MOL0     H53952   4.288   1.936   0.062  0.5257 -1.9434  3.7985
  391MOL0     H53953   4.443   2.006   0.113 -0.1154 -1.5605 -1.0896
  391MOL0     H53954   4.223   2.312  -0.085 -2.1003 -0.3290  2.0704
  391MOL0     H53955   4.613   1.696   0.486 -1.0606 -0.3430 -1.7003
  391MOL0     H53956   4.870   1.493   0.553 -0.2337  0.0546 -1.1956
  391MOL0     H53957   4.961   1.654   0.604  0.4715  0.1459 -0.3482
  391MOL0     H53958   4.803   1.622   0.642 -0.2984 -1.8582 -0.5357
  392MOL0     O53959   2.647   1.375   8.489 -0.2481  0.6070  0.6685
  392MOL0     C53960   2.725   1.280   8.488 -0.5831  0.4330  0.6410
  392MOL0     O53961   2.862   1.292   8.480 -0.7045  0.3012  0.6864
  392MOL0     C53962   2.930   1.412   8.494 -0.5737 -0.0602  0.0558
  392MOL0     C53963   3.028   1.453   8.408  1.1288  0.6330 -0.1577
  392MOL0     C53964   3.102   1.570   8.433 -0.5307 -0.5966  0.1561
  392MOL0     C53965   3.088   1.639   8.557  0.6674 -1.7470 -0.4202
  392MOL0     O53966   3.165   1.747   8.594 -0.3755  0.2522 -0.2185
  392MOL0     C53967   3.309   1.736   8.578  1.2178 -0.0478 -0.3109
  392MOL0     C53968   3.379   1.852   8.654  0.0785 -0.5406  0.3699
  392MOL0     C53969   3.355   1.831   8.804 -0.4403 -0.2540  0.2948
  392MOL0     C53970   3.450   1.722   8.846 -0.1418  0.0880 -0.4547
  392MOL0     C53971   3.420   1.712   8.998  0.6143  0.1744  0.3105
  392MOL0     C53972   3.533   1.652   9.087  0.7191  0.5752 -0.3280
  392MOL0     C53973   3.536   1.497   9.084  0.7171 -0.9601 -0.3699
  392MOL0     C53974   3.619   1.450   8.969 -0.6182  0.6789 -0.4379
  392MOL0     N53975   3.565   1.336   8.902  0.4683 -0.3244 -0.3069
  392MOL0     C53976   3.537   1.211   8.952  0.1299  0.4297  0.1848
  392MOL0     C53977   3.481   1.140   8.850  0.9376 -0.0829 -0.1450
  392MOL0     C53978   3.436   0.992   8.861 -0.2458 -0.0488  0.7600
  392MOL0     C53979   3.398   0.954   9.002  0.2521 -0.1475 -0.0844
  392MOL0     C53980   3.288   0.841   9.003  0.5690 -0.4674  0.1643
  392MOL0     C53981   3.140   0.871   8.991 -0.4830  0.6410  0.1033
  392MOL0     O53982   3.089   0.952   9.096  0.9976 -0.2220 -0.4091
  392MOL0     C53983   3.099   1.088   9.103  0.3024  0.0624  0.2007
  392MOL0     C53984   3.142   1.166   8.998  0.3292 -0.0457  0.1917
  392MOL0     C53985   3.129   1.309   9.000 -0.1097 -0.1272 -0.5183
  392MOL0     C53986   3.215   1.378   8.893  0.3253  0.3035  0.6817
  392MOL0     C53987   3.074   1.367   9.111 -0.1565 -0.4868  0.4216
  392MOL0     C53988   3.071   1.512   9.141  0.5368  0.4051 -0.8143
  392MOL0     O53989   3.067   1.531   9.280  0.2749  0.1966 -0.8488
  392MOL0     C53990   3.044   1.649   9.335  0.1691  0.1163  0.2604
  392MOL0     C53991   3.144   1.748   9.317 -0.4893  0.2722 -0.6833
  392MOL0     C53992   3.134   1.879   9.369  0.5730  0.2144  0.0331
  392MOL0     C53993   3.024   1.918   9.442 -0.5740 -0.0397  0.4432
  392MOL0     O53994   3.024   2.051   9.478 -0.7830 -0.1519  0.3867
  392MOL0     C53995   2.908   2.101   9.542 -0.0009 -0.6677 -0.4411
  392MOL0     C53996   2.784   2.134   9.451 -0.4359 -0.2401 -0.8723
  392MOL0     C53997   2.668   2.205   9.531 -1.2438 -0.5567 -0.2148
  392MOL0     C53998   2.564   2.241   9.418  0.1491 -0.9051 -0.1524
  392MOL0     C53999   2.455   2.330   9.466  0.7943 -0.5621  0.0400
  392MOL0     C54000   2.344   2.348   9.366  0.4064 -0.1029 -0.2404
  392MOL0     C54001   2.393   2.425   9.233  0.2935 -0.6378 -0.6929
  392MOL0     C54002   2.278   2.493   9.151  0.2332  1.1519  0.3410
  392MOL0    Cl54003   2.150   2.372   9.132 -0.2881 -0.4365 -0.1098
  392MOL0     C54004   2.924   1.823   9.463  0.2234 -0.6703  0.7592
  392MOL0     C54005   2.931   1.691   9.410  0.4380  0.9103  0.1790
  392MOL0     O54006   3.056   1.593   9.053 -0.2736  0.2104  0.7125
  392MOL0     C54007   3.011   1.282   9.200 -0.1555  0.2082  0.3350
  392MOL0     C54008   3.025   1.146   9.204 -0.3702 -0.9104  0.1585
  392MOL0     N54009   3.479   1.225   8.743  0.2986 -1.0737 -0.2947
  392MOL0     N54010   3.535   1.340   8.773  0.5379 -0.5444  0.7624
  392MOL0     C54011   2.999   1.586   8.654 -0.8538 -0.1702  1.0038
  392MOL0     C54012   2.916   1.477   8.621  0.7059  0.4596  0.3249
  392MOL0     C54013   2.685   1.133   8.468  0.4210 -0.0213  0.2213
  392MOL0     C54014   2.781   1.030   8.435  0.8049  0.2979  0.8940
  392MOL0     C54015   2.736   0.900   8.405 -0.1053 -0.4690  0.3778
  392MOL0     C54016   2.601   0.858   8.423  0.2219  0.8616  0.0145
  392MOL0     O54017   2.542   0.734   8.391  0.1689  0.0448  0.4623
  392MOL0     C54018   2.632   0.626   8.357  0.3269  0.4934 -0.3037
  392MOL0     C54019   2.564   0.491   8.335  0.1374 -0.2033 -0.1210
  392MOL0     C54020   2.659   0.386   8.288 -0.4248  0.1640  0.0370
  392MOL0     C54021   2.602   0.248   8.262 -0.3815 -0.2562  0.3695
  392MOL0     C54022   2.526   0.197   8.381  0.0855  0.2456 -0.2900
  392MOL0     C54023   2.435   0.169   8.463 -0.6530  0.3877 -0.8186
  392MOL0     C54024   2.511   0.958   8.464  0.0662  0.0750 -0.2022
  392MOL0     C54025   2.547   1.093   8.477  0.7680  0.0217 -0.1062
  392MOL0     C54026   2.435   1.187   8.537  0.1993 -0.1560  0.5525
  392MOL0     H54027   3.035   1.399   8.314 -1.6140  1.1512 -0.7286
  392MOL0     H54028   3.183   1.598   8.367  4.6147 -2.4026  4.8844
  392MOL0     H54029   3.324   1.742   8.470  1.4983  0.4389 -0.2468
  392MOL0     H54030   3.335   1.641   8.626 -2.1899 -1.2132 -0.5113
  392MOL0     H54031   3.482   1.841   8.621 -0.6486 -3.8156 -1.2980
  392MOL0     H54032   3.345   1.955   8.637  1.1752 -0.4340 -1.4847
  392MOL0     H54033   3.380   1.924   8.856  0.4643 -0.4834  0.2872
  392MOL0     H54034   3.252   1.803   8.826 -0.7779 -0.6506 -1.6293
  392MOL0     H54035   3.436   1.622   8.804  2.8059 -0.6711  0.1457
  392MOL0     H54036   3.555   1.747   8.829  1.1817 -1.1319  4.3267
  392MOL0     H54037   3.324   1.664   9.019  1.3793 -1.6426 -0.1332
  392MOL0     H54038   3.413   1.813   9.039  2.6029 -0.1062  1.4670
  392MOL0     H54039   3.626   1.699   9.053  1.2541  0.6541  1.1952
  392MOL0     H54040   3.521   1.684   9.191 -1.4041 -3.1626  0.7516
  392MOL0     H54041   3.438   1.448   9.086 -0.2805  0.9825  1.4474
  392MOL0     H54042   3.577   1.468   9.181 -0.6583 -1.0744  0.1989
  392MOL0     H54043   3.645   1.531   8.901  0.9493 -0.5765 -1.4135
  392MOL0     H54044   3.714   1.413   9.008 -1.1735 -0.5481 -0.2003
  392MOL0     H54045   3.556   1.171   9.051  1.8114  0.8744  0.0700
  392MOL0     H54046   3.513   0.922   8.827  0.3050  0.5457  0.7592
  392MOL0     H54047   3.349   0.971   8.799  1.6552 -2.4201 -1.2779
  392MOL0     H54048   3.493   0.920   9.042  1.0499 -0.2418 -1.9676
  392MOL0     H54049   3.359   1.038   9.062  0.1935  0.2374 -0.6476
  392MOL0     H54050   3.304   0.785   8.911  0.7759  3.3597 -2.3638
  392MOL0     H54051   3.298   0.782   9.094 -0.2182 -1.2759 -0.2583
  392MOL0     H54052   3.125   0.920   8.894  1.7473 -2.1708 -1.8178
  392MOL0     H54053   3.089   0.775   8.992 -1.9816  1.3974 -0.7440
  392MOL0     H54054   3.198   1.131   8.912 -0.9066 -0.1940 -0.5774
  392MOL0     H54055   3.174   1.476   8.866 -2.9385 -0.7357  1.3463
  392MOL0     H54056   3.215   1.313   8.805 -2.4502  1.2343 -0.1163
  392MOL0     H54057   3.314   1.403   8.931  1.4315  2.9470 -3.3229
  392MOL0     H54058   3.227   1.740   9.248 -0.0088 -0.1748 -0.0526
  392MOL0     H54059   3.215   1.951   9.365  2.0505 -1.1532  2.5389
  392MOL0     H54060   2.889   2.044   9.634 -0.7982 -0.8938 -0.7350
  392MOL0     H54061   2.945   2.198   9.576  1.5779 -1.6527  0.8378
  392MOL0     H54062   2.825   2.188   9.365 -0.0932 -0.3678 -0.7900
  392MOL0     H54063   2.737   2.042   9.414 -2.1883  0.5788 -0.8077
  392MOL0     H54064   2.711   2.297   9.570  2.7603 -1.8300 -1.1392
  392MOL0     H54065   2.623   2.139   9.606 -2.1182  0.1301 -0.1173
  392MOL0     H54066   2.525   2.158   9.358 -1.3994 -0.3638  0.0521
  392MOL0     H54067   2.626   2.308   9.358  2.4574 -0.1261  2.8625
  392MOL0     H54068   2.411   2.297   9.561  0.5911  2.2319  1.0109
  392MOL0     H54069   2.492   2.430   9.490  2.4792 -1.2240  0.3357
  392MOL0     H54070   2.271   2.407   9.424 -1.7302 -2.8886  0.1256
  392MOL0     H54071   2.289   2.258   9.336 -1.3904  1.2028 -1.0522
  392MOL0     H54072   2.459   2.359   9.177  3.0985 -0.0542  1.6587
  392MOL0     H54073   2.459   2.498   9.281 -3.3118  2.6283 -0.2040
  392MOL0     H54074   2.310   2.508   9.047 -2.8900 -1.2407 -1.1709
  392MOL0     H54075   2.237   2.579   9.204 -0.6468  1.5406 -0.9139
  392MOL0     H54076   2.835   1.852   9.518  0.9823  2.1826  0.6380
  392MOL0     H54077   2.854   1.616   9.422  2.3686 -1.0157  1.0854
  392MOL0     H54078   2.959   1.328   9.284  2.5541 -4.6111  5.2777
  392MOL0     H54079   2.961   1.087   9.270 -0.3109 -2.3612 -1.0355
  392MOL0     H54080   3.005   1.634   8.751 -1.3085  1.1262  0.4060
  392MOL0     H54081   2.852   1.450   8.704  2.9262 -0.7015  1.7243
  392MOL0     H54082   2.880   1.070   8.413  0.7255 -0.6913 -1.6042
  392MOL0     H54083   2.810   0.822   8.387  0.4388  0.1245 -0.0016
  392MOL0     H54084   2.701   0.651   8.276 -0.4112 -0.5430 -1.2886
  392MOL0     H54085   2.688   0.610   8.450  0.1264  0.5722 -0.1705
  392MOL0     H54086   2.484   0.508   8.264  1.5352  4.8624 -0.8508
  392MOL0     H54087   2.532   0.460   8.435  0.6288 -1.9258 -0.4532
  392MOL0     H54088   2.705   0.433   8.200  0.9564  3.3930  2.2771
  392MOL0     H54089   2.742   0.375   8.359  0.5190 -1.2115 -1.1974
  392MOL0     H54090   2.683   0.179   8.239 -1.2397 -0.9588 -0.6592
  392MOL0     H54091   2.537   0.255   8.174 -2.1610  0.1445  1.6473
  392MOL0     H54092   2.357   0.143   8.532 -1.6055  0.8754 -1.6901
  392MOL0     H54093   2.405   0.937   8.478 -0.8773  2.9354 -2.0170
  392MOL0     H54094   2.479   1.257   8.609 -1.4818 -1.4669  2.9935
  392MOL0     H54095   2.409   1.258   8.458  1.9695  0.6305  0.6149
  392MOL0     H54096   2.352   1.127   8.575 -0.2416 -1.7392 -2.5763
  393MOL0     O54097   2.542   7.490   1.492  0.7485  0.2001  0.2710
  393MOL0     C54098   2.506   7.504   1.602  1.1204 -0.2250  0.5050
  393MOL0     O54099   2.538   7.606   1.693  0.7217  0.5058  0.2339
  393MOL0     C54100   2.649   7.678   1.672 -0.7184  0.0432 -0.5757
  393MOL0     C54101   2.764   7.636   1.743  0.7647  0.5441 -0.1746
  393MOL0     C54102   2.886   7.700   1.711 -0.5433  0.4043  0.5818
  393MOL0     C54103   2.888   7.809   1.623  0.4639  0.2416 -0.0399
  393MOL0     O54104   3.009   7.865   1.605  0.3456 -1.0359 -0.7400
  393MOL0     C54105   3.060   7.856   1.471  0.3717  0.9025  1.3065
  393MOL0     C54106   3.196   7.909   1.461 -0.1156 -0.3054 -0.0987
  393MOL0     C54107   3.281   7.830   1.556 -0.2767 -1.4300  0.1879
  393MOL0     C54108   3.410   7.900   1.590 -0.2831  0.3708  0.0204
  393MOL0     C54109   3.411   7.939   1.730 -0.0496 -0.0428  0.9752
  393MOL0     C54110   3.535   8.023   1.772 -0.5313  0.0945  0.3360
  393MOL0     C54111   3.638   7.963   1.868 -1.6337 -0.4335  0.7771
  393MOL0     C54112   3.698   7.835   1.831  0.1553  0.1288 -0.5483
  393MOL0     N54113   3.764   7.843   1.694  0.2402  0.6216 -0.0439
  393MOL0     C54114   3.870   7.924   1.663 -0.1986  0.0186 -0.9993
  393MOL0     C54115   3.900   7.890   1.531 -0.0203 -0.0865 -0.1897
  393MOL0     C54116   4.007   7.946   1.453  0.5491 -0.1542 -0.4732
  393MOL0     C54117   4.017   8.101   1.461 -1.1276  0.2775 -0.7994
  393MOL0     C54118   4.144   8.158   1.408 -0.5726 -1.2346  0.0784
  393MOL0     C54119   4.156   8.306   1.447  0.1056  0.2151 -0.1220
  393MOL0     O54120   4.045   8.377   1.388 -0.0905  0.0570 -0.1299
  393MOL0     C54121   4.027   8.513   1.412 -0.5946  0.4430  0.1553
  393MOL0     C54122   3.906   8.560   1.369  0.4057 -0.4496 -0.6201
  393MOL0     C54123   3.884   8.699   1.383 -0.1016 -1.2209 -0.2443
  393MOL0     C54124   3.740   8.745   1.354  0.6462 -1.1148 -0.6288
  393MOL0     C54125   3.988   8.789   1.413  0.8818  0.4502 -0.2606
  393MOL0     C54126   3.981   8.937   1.419  0.4080  0.0270  0.5874
  393MOL0     O54127   3.868   8.992   1.469  0.0841  0.0581 -0.0236
  393MOL0     C54128   3.873   9.122   1.510 -0.2981  0.2785 -0.8812
  393MOL0     C54129   3.873   9.129   1.651  0.5210 -0.2836  0.6746
  393MOL0     C54130   3.872   9.260   1.705 -0.4422  0.4001 -0.4195
  393MOL0     C54131   3.891   9.376   1.625  0.2529 -0.0925 -0.4597
  393MOL0     O54132   3.915   9.496   1.689  0.1315  0.9782  0.0908
  393MOL0     C54133   3.915   9.620   1.608  0.7044 -0.2765  0.0125
  393MOL0     C54134   3.974   9.744   1.674 -0.2152 -0.3769  0.0697
  393MOL0     C54135   4.014   9.852   1.559 -0.2523 -0.4082 -1.2555
  393MOL0     C54136   3.999   9.992   1.607 -1.5963  0.2122  0.0575
  393MOL0     C54137   3.854  10.030   1.628  0.1419 -0.5206  0.3995
  393MOL0     C54138   3.782  10.033   1.491 -0.5141 -0.1957 -1.4729
  393MOL0     C54139   3.642  10.074   1.527  0.4338  1.0312 -0.1175
  393MOL0     C54140   3.641  10.226   1.569 -0.3227  0.0549 -0.1280
  393MOL0    Cl54141   3.481  10.278   1.605 -0.2916 -0.0317 -0.2434
  393MOL0     C54142   3.877   9.358   1.489 -0.1741  0.4704  0.0821
  393MOL0     C54143   3.869   9.232   1.436  0.4065  0.1431  0.0092
  393MOL0     O54144   4.076   9.009   1.385 -0.3017 -0.1303  0.1782
  393MOL0     C54145   4.112   8.738   1.450  0.5046 -0.2713  0.0109
  393MOL0     C54146   4.131   8.605   1.440 -1.0397 -0.5338 -0.0454
  393MOL0     N54147   3.802   7.811   1.482  0.5386 -0.6285 -0.0714
  393MOL0     N54148   3.729   7.773   1.585 -0.5554 -0.3376  0.3826
  393MOL0     C54149   2.772   7.860   1.566 -1.0651  0.6622 -0.4419
  393MOL0     C54150   2.656   7.790   1.588 -0.1823  1.0289  0.1398
  393MOL0     C54151   2.395   7.405   1.652  0.3184  0.0941  0.6565
  393MOL0     C54152   2.363   7.405   1.787  0.9810  0.3655 -1.2740
  393MOL0     C54153   2.275   7.304   1.846 -0.4317 -1.1917  0.1727
  393MOL0     C54154   2.216   7.215   1.760  0.8481 -0.5046 -0.1675
  393MOL0     O54155   2.138   7.122   1.825 -0.0178  0.2594  0.4104
  393MOL0     C54156   2.016   7.077   1.758 -0.9197 -0.1768 -0.5678
  393MOL0     C54157   1.920   7.200   1.755  0.2574  0.1743 -0.6436
  393MOL0     C54158   1.866   7.229   1.893 -0.1383 -0.1250  1.4597
  393MOL0     C54159   1.807   7.364   1.915  0.4680 -0.0026  0.0858
  393MOL0     C54160   1.906   7.467   1.914  0.4595 -0.3823 -0.0841
  393MOL0     C54161   1.991   7.552   1.933 -0.2188 -1.6550 -0.0193
  393MOL0     C54162   2.236   7.222   1.621 -0.1538 -0.5203 -0.2692
  393MOL0     C54163   2.320   7.322   1.563 -0.6843  0.0735  0.3697
  393MOL0     C54164   2.356   7.297   1.417 -0.5104  0.7952 -0.1168
  393MOL0     H54165   2.739   7.548   1.801 -3.5102 -0.2128 -2.7108
  393MOL0     H54166   2.984   7.674   1.749 -0.0378  0.3068 -0.7315
  393MOL0     H54167   3.005   7.904   1.389 -0.5235 -0.2582  1.2049
  393MOL0     H54168   3.041   7.755   1.435 -0.4560  2.3382 -2.9043
  393MOL0     H54169   3.236   7.899   1.359  0.9501 -0.6488  0.3365
  393MOL0     H54170   3.197   8.010   1.502  2.8228 -0.6636  0.9505
  393MOL0     H54171   3.240   7.798   1.652 -0.4252 -0.8433  0.3251
  393MOL0     H54172   3.311   7.736   1.511 -3.3337 -2.4952  0.1669
  393MOL0     H54173   3.490   7.832   1.559 -1.0541  0.6730 -2.9287
  393MOL0     H54174   3.424   7.987   1.526 -1.0621  0.1371 -0.4860
  393MOL0     H54175   3.401   7.849   1.793  3.3444 -2.0715 -1.0440
  393MOL0     H54176   3.321   7.996   1.755  0.3728  1.6316 -1.1270
  393MOL0     H54177   3.592   8.057   1.686  4.2614  0.0802  3.1742
  393MOL0     H54178   3.502   8.117   1.816  0.5006 -0.0904  1.5659
  393MOL0     H54179   3.593   7.941   1.965  3.2462 -0.9072  3.2449
  393MOL0     H54180   3.719   8.036   1.882 -1.2385 -0.7695  0.2660
  393MOL0     H54181   3.768   7.798   1.906 -2.0275  1.3535  2.3002
  393MOL0     H54182   3.615   7.763   1.833 -0.7224  1.1215 -0.1315
  393MOL0     H54183   3.919   7.998   1.726 -2.1876  0.0443  0.6280
  393MOL0     H54184   3.997   7.926   1.346  0.0504  0.7489 -0.6014
  393MOL0     H54185   4.107   7.913   1.484 -0.1724 -0.3695  1.7725
  393MOL0     H54186   3.923   8.144   1.423 -2.8610 -2.3363  0.2639
  393MOL0     H54187   4.028   8.123   1.568 -2.8489 -0.3560 -0.4527
  393MOL0     H54188   4.244   8.115   1.421  0.3778  0.4237 -1.2712
  393MOL0     H54189   4.125   8.148   1.300 -3.3795  0.4065  0.3297
  393MOL0     H54190   4.157   8.313   1.556 -2.9384  2.1816 -0.1272
  393MOL0     H54191   4.249   8.338   1.400  1.0109 -1.1116  0.6871
  393MOL0     H54192   3.845   8.482   1.326  1.5320 -1.6606 -0.0974
  393MOL0     H54193   3.730   8.828   1.284  0.2277  1.3339  2.1716
  393MOL0     H54194   3.701   8.771   1.453  0.3335 -0.1775 -0.9877
  393MOL0     H54195   3.670   8.670   1.314 -1.2255  1.1477 -1.8749
  393MOL0     H54196   3.865   9.041   1.715 -1.5108 -0.6558 -0.0034
  393MOL0     H54197   3.864   9.277   1.812 -0.6650  2.5587 -0.7389
  393MOL0     H54198   3.972   9.599   1.516  0.0781 -0.0074 -0.4457
  393MOL0     H54199   3.810   9.638   1.583  0.0282 -0.8730  2.2250
  393MOL0     H54200   3.895   9.774   1.744 -1.5696 -0.2975 -1.4462
  393MOL0     H54201   4.060   9.705   1.731 -1.4091 -0.9714  1.5473
  393MOL0     H54202   3.951   9.841   1.471  0.0783  1.4478 -1.7724
  393MOL0     H54203   4.121   9.842   1.538  0.1070 -3.5007  1.2121
  393MOL0     H54204   4.044  10.059   1.533  1.8557  0.4349  2.1623
  393MOL0     H54205   4.055  10.012   1.698  3.0502 -0.2035 -2.4135
  393MOL0     H54206   3.794   9.963   1.691 -2.9524  1.0214 -0.6644
  393MOL0     H54207   3.857  10.131   1.671 -0.0037  0.1823 -1.1411
  393MOL0     H54208   3.782   9.935   1.442 -1.5833 -0.9296 -0.0697
  393MOL0     H54209   3.832  10.103   1.423 -1.0566  1.6297 -0.0574
  393MOL0     H54210   3.591  10.006   1.596  0.0843  0.7884 -0.6024
  393MOL0     H54211   3.582  10.068   1.436  1.4654  1.3477 -0.8304
  393MOL0     H54212   3.675  10.282   1.482  2.3157  1.3197  1.6038
  393MOL0     H54213   3.704  10.261   1.651  0.4783 -1.6562  0.0411
  393MOL0     H54214   3.869   9.439   1.416 -0.0888 -1.0791 -1.7203
  393MOL0     H54215   3.860   9.225   1.328  1.1082  0.8451 -0.0988
  393MOL0     H54216   4.188   8.805   1.488  1.9144 -0.3685 -2.4414
  393MOL0     H54217   4.232   8.577   1.467 -1.2036 -0.8469  0.2573
  393MOL0     H54218   2.789   7.947   1.503  0.0388 -0.4651 -1.7338
  393MOL0     H54219   2.569   7.834   1.539 -1.4329 -1.7251 -0.2917
  393MOL0     H54220   2.405   7.483   1.850  0.7994  2.4278 -3.5377
  393MOL0     H54221   2.275   7.289   1.954  0.1050 -0.8487  0.2225
  393MOL0     H54222   2.031   7.046   1.654  0.6538  0.8257 -0.6678
  393MOL0     H54223   1.974   6.996   1.818  1.2988  0.6936  2.4223
  393MOL0     H54224   1.833   7.168   1.696 -1.9503 -0.7886  2.8146
  393MOL0     H54225   1.970   7.285   1.708 -2.1870  1.3490 -1.2901
  393MOL0     H54226   1.790   7.155   1.923  0.6751 -1.8055 -0.3920
  393MOL0     H54227   1.954   7.215   1.956  2.4396 -0.7036 -1.9838
  393MOL0     H54228   1.758   7.369   2.013 -1.4544  1.1550 -0.8701
  393MOL0     H54229   1.729   7.378   1.840 -1.3191  0.0084  1.8783
  393MOL0     H54230   2.059   7.632   1.952 -0.9570 -1.6176  2.8641
  393MOL0     H54231   2.187   7.148   1.558 -1.8145  1.9206 -1.9952
  393MOL0     H54232   2.372   7.395   1.370 -0.9100  1.6178  1.4041
  393MOL0     H54233   2.451   7.243   1.424 -1.3138 -0.4040  4.5193
  393MOL0     H54234   2.287   7.227   1.371  1.0009 -0.4022 -0.6380
  394MOL0     O54235   0.687   0.553   8.162  0.1425  0.5536  0.1793
  394MOL0     C54236   0.786   0.491   8.197  0.0729 -0.0797  0.8759
  394MOL0     O54237   0.786   0.381   8.291  0.2642  0.3902  0.3369
  394MOL0     C54238   0.666   0.355   8.358 -0.0366  0.5605  0.3995
  394MOL0     C54239   0.632   0.418   8.482  0.2637 -0.8450 -0.9282
  394MOL0     C54240   0.494   0.408   8.523  0.6826 -0.2113  0.2194
  394MOL0     C54241   0.391   0.348   8.444  0.5378  0.2223 -0.3815
  394MOL0     O54242   0.269   0.334   8.505  0.3965  0.2344 -0.4594
  394MOL0     C54243   0.155   0.361   8.420  1.2193 -0.4596 -0.4619
  394MOL0     C54244   0.041   0.349   8.515  0.2496  0.4072 -0.0551
  394MOL0     C54245  -0.102   0.355   8.458 -0.4982  0.0774  0.2434
  394MOL0     C54246  -0.146   0.231   8.389 -0.5068 -0.0931  0.7428
  394MOL0     C54247  -0.296   0.219   8.344  0.7340  0.2949 -0.4643
  394MOL0     C54248  -0.339   0.090   8.265 -0.0348  0.2270 -0.0825
  394MOL0     C54249  -0.478   0.112   8.219 -0.1840  0.4106  0.2188
  394MOL0     C54250  -0.556  -0.005   8.273  0.0223 -0.5708 -0.9192
  394MOL0     N54251  -0.689   0.002   8.213 -0.2681  0.0428 -0.1748
  394MOL0     C54252  -0.720  -0.008   8.076 -0.3276  0.2841 -0.1775
  394MOL0     C54253  -0.841   0.047   8.061  0.2862  0.3828 -0.6945
  394MOL0     C54254  -0.911   0.058   7.929 -0.2277 -0.0056  0.2363
  394MOL0     C54255  -1.038  -0.016   7.934 -0.2540  1.0910 -0.7970
  394MOL0     C54256  -1.118  -0.015   7.806 -0.0636 -0.1419 -0.5443
  394MOL0     C54257  -1.245  -0.086   7.826  0.2034  0.1670 -0.0847
  394MOL0     O54258  -1.229  -0.224   7.862  0.7262 -0.3840 -0.1466
  394MOL0     C54259  -1.345  -0.297   7.868 -0.1856 -0.6724 -0.4933
  394MOL0     C54260  -1.353  -0.416   7.941 -0.2073  0.9347 -0.9997
  394MOL0     C54261  -1.468  -0.497   7.963 -0.4385 -0.5608  0.2427
  394MOL0     C54262  -1.468  -0.614   8.067 -0.2096 -0.8358  0.0358
  394MOL0     C54263  -1.588  -0.454   7.892 -0.8255  0.0862 -0.2303
  394MOL0     C54264  -1.710  -0.526   7.914  0.1893  0.7429  0.3672
  394MOL0     O54265  -1.788  -0.529   7.801  1.0727  0.8315 -0.6498
  394MOL0     C54266  -1.921  -0.568   7.822  1.3873 -0.0509 -0.5948
  394MOL0     C54267  -2.003  -0.508   7.925  0.2558 -0.7581  1.0450
  394MOL0     C54268  -2.140  -0.537   7.943  0.6213  0.1720  0.5320
  394MOL0     C54269  -2.201  -0.633   7.859  0.7250  0.1666 -0.0056
  394MOL0     O54270  -2.331  -0.660   7.892  0.2123 -0.0419  0.1825
  394MOL0     C54271  -2.372  -0.786   7.835 -1.0885  0.2729  0.0253
  394MOL0     C54272  -2.518  -0.822   7.865  1.2449 -0.0981 -0.2880
  394MOL0     C54273  -2.611  -0.732   7.794  0.6978 -0.5508 -0.1104
  394MOL0     C54274  -2.756  -0.797   7.785 -0.7017  0.5222  0.5741
  394MOL0     C54275  -2.866  -0.723   7.714 -0.0951  0.8032  0.1863
  394MOL0     C54276  -2.999  -0.795   7.730  0.5857  0.0607  1.0422
  394MOL0     C54277  -3.024  -0.920   7.644 -0.2255 -0.5637  0.4056
  394MOL0     C54278  -2.977  -0.909   7.498 -0.1323  0.0790  0.4400
  394MOL0    Cl54279  -3.035  -1.045   7.399 -0.4161 -0.0087 -0.2002
  394MOL0     C54280  -2.125  -0.690   7.748 -0.2934  0.3112  0.5295
  394MOL0     C54281  -1.984  -0.655   7.720  0.0667  0.0634 -0.3472
  394MOL0     O54282  -1.746  -0.566   8.028 -0.0221 -0.1624  0.3877
  394MOL0     C54283  -1.586  -0.334   7.813 -0.3924 -0.3752 -0.3946
  394MOL0     C54284  -1.467  -0.264   7.806 -0.2470  0.0091 -0.4741
  394MOL0     N54285  -0.880   0.103   8.189  0.2195 -0.4517 -0.1694
  394MOL0     N54286  -0.785   0.077   8.273 -0.1476  0.1050  0.7077
  394MOL0     C54287   0.432   0.273   8.331  0.4111  0.1295  0.0798
  394MOL0     C54288   0.565   0.286   8.284  0.0891  0.4155 -0.2679
  394MOL0     C54289   0.911   0.528   8.123  0.7731 -0.3217 -0.1146
  394MOL0     C54290   0.891   0.561   7.985  0.4415  0.5403 -0.2209
  394MOL0     C54291   1.003   0.605   7.909  0.2078 -0.1497 -1.0703
  394MOL0     C54292   1.133   0.597   7.957  1.0063  1.4000 -0.2912
  394MOL0     O54293   1.246   0.639   7.894  0.0483  0.9634  0.0371
  394MOL0     C54294   1.236   0.688   7.756  0.6891  0.9947 -0.7096
  394MOL0     C54295   1.368   0.721   7.705 -0.2607 -0.0683  1.7395
  394MOL0     C54296   1.434   0.595   7.643 -0.3834 -0.1804  0.5581
  394MOL0     C54297   1.575   0.634   7.607 -0.0488 -0.0020  0.5411
  394MOL0     C54298   1.626   0.540   7.506 -0.4577  0.0140 -0.4278
  394MOL0     C54299   1.645   0.461   7.417  0.5773  0.0591  0.6155
  394MOL0     C54300   1.151   0.547   8.085  1.1290 -0.5307  0.3280
  394MOL0     C54301   1.038   0.523   8.172  0.0490  0.0526 -0.6626
  394MOL0     C54302   1.065   0.487   8.322  0.6298 -0.2762 -0.7492
  394MOL0     H54303   0.694   0.467   8.557 -0.9784  0.6092 -0.8061
  394MOL0     H54304   0.476   0.450   8.621  2.3182  0.6435  0.1907
  394MOL0     H54305   0.143   0.291   8.336 -2.7702 -1.5597  0.7855
  394MOL0     H54306   0.166   0.459   8.373  0.5390  0.2366  0.8015
  394MOL0     H54307   0.050   0.251   8.563 -0.7568 -0.6979 -2.0315
  394MOL0     H54308   0.059   0.420   8.596 -1.8816  1.8503 -0.7751
  394MOL0     H54309  -0.170   0.386   8.537  0.5364  0.4438  1.0201
  394MOL0     H54310  -0.118   0.435   8.385 -1.3782  0.6705  1.0768
  394MOL0     H54311  -0.085   0.214   8.300 -0.6960  1.0890  0.3819
  394MOL0     H54312  -0.124   0.145   8.453 -2.6633 -0.4402  1.1177
  394MOL0     H54313  -0.314   0.305   8.279  0.0320  1.7501  1.5582
  394MOL0     H54314  -0.355   0.231   8.435  2.8343 -2.3567  1.4232
  394MOL0     H54315  -0.275   0.078   8.177 -0.8285  1.2036 -0.8226
  394MOL0     H54316  -0.316   0.002   8.326  0.7744 -0.6424 -1.5791
  394MOL0     H54317  -0.486   0.116   8.110 -3.3312 -5.5903 -0.1822
  394MOL0     H54318  -0.523   0.200   8.266 -1.7997  0.2942 -1.0197
  394MOL0     H54319  -0.495  -0.091   8.245  3.6465  1.9781 -1.6040
  394MOL0     H54320  -0.557  -0.004   8.382  1.4092  1.0860 -0.8720
  394MOL0     H54321  -0.654  -0.038   7.995  1.7878  2.9748  0.3864
  394MOL0     H54322  -0.849   0.010   7.853 -0.3921  0.8310 -0.4378
  394MOL0     H54323  -0.925   0.165   7.910  0.3375 -0.0402 -0.4177
  394MOL0     H54324  -1.031  -0.121   7.964 -3.1398  1.4680  1.7258
  394MOL0     H54325  -1.104   0.041   8.000 -0.1109  1.5366 -1.0389
  394MOL0     H54326  -1.129   0.089   7.775  0.0441 -0.3861 -1.4227
  394MOL0     H54327  -1.076  -0.073   7.723 -0.9603 -1.6160  0.0059
  394MOL0     H54328  -1.296  -0.033   7.907  0.4207 -0.8129  0.7059
  394MOL0     H54329  -1.305  -0.070   7.736  0.7017  1.2422 -0.2447
  394MOL0     H54330  -1.258  -0.450   7.982 -0.6573  0.9171  0.0859
  394MOL0     H54331  -1.523  -0.572   8.152 -0.6895  2.7178 -1.8617
  394MOL0     H54332  -1.366  -0.644   8.095  0.9900 -0.0618 -3.1535
  394MOL0     H54333  -1.520  -0.700   8.023 -1.5804 -0.4246  0.7705
  394MOL0     H54334  -1.955  -0.435   7.989 -0.6889 -0.3453  1.2985
  394MOL0     H54335  -2.199  -0.495   8.023 -0.5069 -2.0810  0.9634
  394MOL0     H54336  -2.367  -0.792   7.726  1.3088  0.0057  0.0961
  394MOL0     H54337  -2.302  -0.861   7.875 -1.2301  1.3444  2.4635
  394MOL0     H54338  -2.544  -0.918   7.819  0.2805  0.3766 -0.7631
  394MOL0     H54339  -2.528  -0.823   7.974 -4.8988  0.8663 -0.4538
  394MOL0     H54340  -2.574  -0.718   7.692  0.6271 -2.6524 -0.4725
  394MOL0     H54341  -2.612  -0.635   7.845 -0.8519  0.3361 -1.7141
  394MOL0     H54342  -2.788  -0.799   7.889 -0.8649 -0.4548  0.5157
  394MOL0     H54343  -2.753  -0.900   7.750  0.9804  1.1988 -1.5245
  394MOL0     H54344  -2.870  -0.619   7.749 -1.4873  0.3204  1.5793
  394MOL0     H54345  -2.830  -0.718   7.611  1.3384  1.2248  0.6833
  394MOL0     H54346  -3.072  -0.723   7.692 -1.6141 -0.6711  3.5561
  394MOL0     H54347  -3.035  -0.813   7.831 -0.5303  0.1644  0.6824
  394MOL0     H54348  -3.128  -0.956   7.640  0.4045 -2.3652 -1.2526
  394MOL0     H54349  -2.965  -1.001   7.688  2.7666  0.2409 -1.8266
  394MOL0     H54350  -2.868  -0.910   7.492 -0.1014 -2.2642  0.5481
  394MOL0     H54351  -3.023  -0.819   7.456 -2.3709 -0.3572  1.8213
  394MOL0     H54352  -2.168  -0.750   7.669  3.1031  0.8158 -1.9159
  394MOL0     H54353  -1.952  -0.681   7.620  0.3340 -0.2770 -0.1723
  394MOL0     H54354  -1.676  -0.299   7.764  0.8459  0.5011 -2.1147
  394MOL0     H54355  -1.476  -0.173   7.747 -0.7382  0.8047  0.7872
  394MOL0     H54356   0.347   0.245   8.269  0.9793 -0.6691 -0.3606
  394MOL0     H54357   0.595   0.230   8.197 -2.5717 -2.0506  0.2603
  394MOL0     H54358   0.789   0.583   7.955  1.1316  4.2857 -0.3881
  394MOL0     H54359   0.989   0.642   7.808 -1.8534 -0.4107 -0.9386
  394MOL0     H54360   1.187   0.623   7.683  1.0191 -0.0330 -0.0363
  394MOL0     H54361   1.178   0.778   7.774 -0.3122  0.0641  0.9677
  394MOL0     H54362   1.430   0.758   7.787 -0.9156  0.4326  2.0237
  394MOL0     H54363   1.353   0.798   7.629 -3.7612 -0.4733  1.8277
  394MOL0     H54364   1.430   0.513   7.715 -1.7949  0.8133  1.6947
  394MOL0     H54365   1.384   0.555   7.555 -1.2834  1.7839  0.1144
  394MOL0     H54366   1.640   0.627   7.694 -0.9612  1.6859  1.4125
  394MOL0     H54367   1.577   0.732   7.558 -2.1614 -0.9076 -1.5949
  394MOL0     H54368   1.656   0.395   7.334 -0.7829  2.5777 -1.7652
  394MOL0     H54369   1.247   0.523   8.129  1.0927  0.1498  0.8001
  394MOL0     H54370   1.165   0.519   8.354  0.1342 -0.5467  1.1528
  394MOL0     H54371   0.986   0.525   8.386  0.7099 -0.4439 -0.5506
  394MOL0     H54372   1.060   0.379   8.339 -0.5838  0.3566  4.2973
  395MOL0     O54373   7.219   2.130   0.888  0.5937 -0.2673 -0.2239
  395MOL0     C54374   7.301   2.038   0.875  0.4152  1.0114  0.4196
  395MOL0     O54375   7.402   2.034   0.785 -0.2194 -0.5974 -0.1131
  395MOL0     C54376   7.424   2.143   0.697 -0.7439  1.0749 -0.3771
  395MOL0     C54377   7.554   2.206   0.687 -0.7313  0.5024 -0.3785
  395MOL0     C54378   7.566   2.311   0.588  0.7948  0.2219 -0.9738
  395MOL0     C54379   7.451   2.352   0.513 -0.1382  0.1340 -0.3631
  395MOL0     O54380   7.470   2.434   0.408  0.8451 -0.3497  0.3960
  395MOL0     C54381   7.391   2.548   0.408 -0.0033 -1.1200 -0.0312
  395MOL0     C54382   7.413   2.641   0.292 -0.7857 -0.5961 -0.7011
  395MOL0     C54383   7.384   2.576   0.155 -0.4057  0.1761 -1.2019
  395MOL0     C54384   7.240   2.612   0.126 -0.0336  0.5085 -0.2754
  395MOL0     C54385   7.196   2.549  -0.003  0.8040  0.9148  0.8739
  395MOL0     C54386   7.043   2.544   0.015  0.7051 -0.8052  0.5158
  395MOL0     C54387   6.957   2.528  -0.109 -0.4698 -0.3002 -0.3440
  395MOL0     C54388   6.950   2.381  -0.152  0.0108 -0.1024  0.3365
  395MOL0     N54389   6.823   2.358  -0.225 -0.7458 -0.1842  0.0986
  395MOL0     C54390   6.760   2.239  -0.220 -0.6017 -0.0703  1.3329
  395MOL0     C54391   6.645   2.262  -0.293  0.3661 -0.8631  0.5112
  395MOL0     C54392   6.534   2.155  -0.329 -0.0460  0.0395 -0.0616
  395MOL0     C54393   6.398   2.211  -0.278  0.5015 -0.7320 -0.1951
  395MOL0     C54394   6.303   2.084  -0.281  0.5453  0.2312  0.3182
  395MOL0     C54395   6.270   2.025  -0.418  0.0841  0.5081 -0.0272
  395MOL0     O54396   6.133   1.989  -0.415  0.4695  0.1019 -0.2061
  395MOL0     C54397   6.041   2.058  -0.491  0.0816  0.7713  0.9785
  395MOL0     C54398   5.928   1.985  -0.534  1.5828  1.1619  1.0274
  395MOL0     C54399   5.834   2.041  -0.615  0.2654  0.1623  0.6992
  395MOL0     C54400   5.712   1.958  -0.645 -0.1871  0.3824 -0.4988
  395MOL0     C54401   5.851   2.167  -0.669 -0.2810  0.0480 -0.2472
  395MOL0     C54402   5.767   2.233  -0.768  0.4131 -0.5087  0.6182
  395MOL0     O54403   5.763   2.368  -0.764 -0.0389 -0.2554 -0.3130
  395MOL0     C54404   5.701   2.441  -0.872  0.5865 -0.1509 -0.3833
  395MOL0     C54405   5.614   2.547  -0.848  0.4442 -0.1471 -0.1220
  395MOL0     C54406   5.542   2.616  -0.952 -0.3381  0.3490 -0.5672
  395MOL0     C54407   5.553   2.566  -1.084  0.1884 -0.6767  0.1571
  395MOL0     O54408   5.462   2.619  -1.172 -0.0969 -0.5424  0.3593
  395MOL0     C54409   5.428   2.540  -1.280  0.5672  0.6410  0.2224
  395MOL0     C54410   5.323   2.442  -1.223  0.9456 -0.2187  0.6841
  395MOL0     C54411   5.290   2.339  -1.334 -0.7061 -0.0996  0.3607
  395MOL0     C54412   5.196   2.233  -1.295  0.2775  0.0330 -0.8629
  395MOL0     C54413   5.049   2.288  -1.298  0.4491  0.3951  0.6330
  395MOL0     C54414   4.975   2.166  -1.242  0.4950  0.3339 -0.2770
  395MOL0     C54415   4.832   2.164  -1.277 -0.1828 -0.7172 -0.7209
  395MOL0     C54416   4.760   2.026  -1.260  0.6847 -0.6774 -0.5854
  395MOL0    Cl54417   4.577   2.059  -1.250 -0.0518 -0.0474 -0.1733
  395MOL0     C54418   5.643   2.458  -1.110 -0.4442  0.6075  0.2003
  395MOL0     C54419   5.717   2.393  -1.003  0.0664  0.2157  0.5208
  395MOL0     O54420   5.713   2.159  -0.857 -0.1062 -0.3503  0.4113
  395MOL0     C54421   5.966   2.243  -0.619  0.6208 -0.7924 -0.1356
  395MOL0     C54422   6.060   2.188  -0.533  0.3397 -0.5296  0.4165
  395MOL0     N54423   6.634   2.396  -0.326 -0.2944  0.4944  0.2919
  395MOL0     N54424   6.745   2.454  -0.284 -0.2496  0.7027 -0.2158
  395MOL0     C54425   7.329   2.284   0.528  0.5806 -0.3614  0.6768
  395MOL0     C54426   7.313   2.193   0.628  0.4850 -0.2133  0.2953
  395MOL0     C54427   7.292   1.919   0.974 -0.7481  0.4467 -0.0931
  395MOL0     C54428   7.183   1.840   0.975  0.3150 -0.0105  0.9050
  395MOL0     C54429   7.179   1.738   1.072 -0.0666  0.9947  1.0326
  395MOL0     C54430   7.270   1.727   1.173 -0.7711 -0.1797 -0.1120
  395MOL0     O54431   7.247   1.637   1.282  0.1079  0.2150  0.0708
  395MOL0     C54432   7.223   1.493   1.261  0.1012 -0.7978  0.0345
  395MOL0     C54433   7.332   1.412   1.336 -0.8968  0.8573 -0.8594
  395MOL0     C54434   7.466   1.441   1.267 -0.2232 -0.7085 -0.1826
  395MOL0     C54435   7.551   1.514   1.375 -0.0554 -0.1400  0.2210
  395MOL0     C54436   7.613   1.420   1.467  0.1210  1.0684 -0.9169
  395MOL0     C54437   7.671   1.339   1.536 -0.2899 -0.7572  0.4354
  395MOL0     C54438   7.374   1.822   1.182  0.7988  0.9569 -0.9916
  395MOL0     C54439   7.395   1.910   1.070  0.6859 -0.1207  0.0569
  395MOL0     C54440   7.511   2.009   1.080 -0.7568  0.5842  0.1244
  395MOL0     H54441   7.642   2.179   0.745 -1.0895 -2.2666 -0.9469
  395MOL0     H54442   7.658   2.368   0.578  2.0979 -1.1859  1.9084
  395MOL0     H54443   7.424   2.600   0.498  0.0136  2.2827 -1.8133
  395MOL0     H54444   7.288   2.512   0.414 -0.2444 -0.1916  2.4268
  395MOL0     H54445   7.346   2.725   0.308  0.8784  1.4504 -3.5151
  395MOL0     H54446   7.519   2.666   0.291 -0.6932 -0.7520  1.4971
  395MOL0     H54447   7.461   2.616   0.088  2.5714  0.0576  1.8984
  395MOL0     H54448   7.401   2.468   0.152 -0.9846  0.0579 -0.4924
  395MOL0     H54449   7.186   2.583   0.216  0.3172 -2.3933 -0.8979
  395MOL0     H54450   7.218   2.719   0.130  0.5600  0.6302 -0.2165
  395MOL0     H54451   7.238   2.448  -0.009  0.2905  0.7735 -1.7456
  395MOL0     H54452   7.229   2.615  -0.084  3.8693  2.4527  3.1868
  395MOL0     H54453   7.009   2.470   0.088  0.9982 -0.3838  1.0827
  395MOL0     H54454   7.007   2.643   0.044  1.3468 -0.3715 -0.1355
  395MOL0     H54455   6.994   2.591  -0.191 -0.6220  1.4571  0.8673
  395MOL0     H54456   6.858   2.570  -0.089 -0.0940  0.8338 -0.7488
  395MOL0     H54457   7.024   2.368  -0.231  1.6544  0.3671  1.7236
  395MOL0     H54458   6.974   2.313  -0.070  2.1754 -0.3914 -0.4634
  395MOL0     H54459   6.791   2.143  -0.180 -2.3148 -2.0386 -1.6314
  395MOL0     H54460   6.560   2.055  -0.292  0.9056  0.9909  2.0673
  395MOL0     H54461   6.536   2.149  -0.438  0.8814  2.1530 -0.2096
  395MOL0     H54462   6.405   2.254  -0.178 -0.5514 -0.1039 -0.3813
  395MOL0     H54463   6.367   2.294  -0.342  0.9409  1.0868  1.8742
  395MOL0     H54464   6.347   2.011  -0.212 -1.5274 -1.0399  0.4087
  395MOL0     H54465   6.203   2.100  -0.239 -0.4473 -1.5036 -1.2126
  395MOL0     H54466   6.302   2.104  -0.486  1.4853 -0.3210 -0.3859
  395MOL0     H54467   6.329   1.935  -0.439 -1.5875 -0.6354 -0.0401
  395MOL0     H54468   5.905   1.890  -0.488 -0.0902  1.7408  1.4751
  395MOL0     H54469   5.629   2.017  -0.686 -2.0687 -1.6714  0.1543
  395MOL0     H54470   5.670   1.896  -0.565 -0.9561 -0.1012 -1.2663
  395MOL0     H54471   5.733   1.895  -0.732  2.7266  3.7800 -2.5632
  395MOL0     H54472   5.609   2.574  -0.743  2.2315  3.1384 -0.7540
  395MOL0     H54473   5.468   2.688  -0.921 -0.0919  0.0752  0.6945
  395MOL0     H54474   5.393   2.599  -1.365  0.6849  0.6073  0.1497
  395MOL0     H54475   5.506   2.480  -1.328  1.7506 -0.4825  3.2943
  395MOL0     H54476   5.352   2.389  -1.132 -1.8295 -2.2474  0.5368
  395MOL0     H54477   5.235   2.501  -1.196  1.7396  1.0060  0.6654
  395MOL0     H54478   5.377   2.286  -1.372 -0.2718  0.3896  0.6547
  395MOL0     H54479   5.237   2.394  -1.413 -1.5109 -2.9277 -1.1959
  395MOL0     H54480   5.228   2.205  -1.194  0.5849  2.3585 -0.2567
  395MOL0     H54481   5.200   2.150  -1.366 -1.0252  1.0689 -2.2025
  395MOL0     H54482   5.045   2.366  -1.222  1.7173 -2.4443  3.8683
  395MOL0     H54483   5.019   2.321  -1.398 -0.3061  0.7976  0.9885
  395MOL0     H54484   4.992   2.162  -1.134  1.0380 -2.8601 -0.3911
  395MOL0     H54485   5.007   2.066  -1.273 -0.0871  0.0959 -0.1324
  395MOL0     H54486   4.819   2.191  -1.382 -0.2378  2.5583  0.0208
  395MOL0     H54487   4.779   2.245  -1.225  2.5835  1.0596 -0.4584
  395MOL0     H54488   4.789   1.963  -1.175 -2.4236  0.4404  1.4839
  395MOL0     H54489   4.778   1.965  -1.350 -2.4014  0.7084 -2.3231
  395MOL0     H54490   5.655   2.421  -1.212 -1.6735 -0.2990  0.3614
  395MOL0     H54491   5.785   2.311  -1.025  0.0625  0.6471 -1.2587
  395MOL0     H54492   5.989   2.346  -0.644  1.2515  0.0982  3.4397
  395MOL0     H54493   6.141   2.252  -0.497  0.0638 -1.4231  2.8160
  395MOL0     H54494   7.240   2.301   0.468 -1.2067  0.3642  3.3492
  395MOL0     H54495   7.209   2.166   0.637 -0.4528  2.9166 -0.0459
  395MOL0     H54496   7.097   1.853   0.910 -0.0274  0.2548  1.4001
  395MOL0     H54497   7.088   1.679   1.074  0.2986  0.4103  0.9024
  395MOL0     H54498   7.128   1.473   1.312 -0.7886  4.3741  0.9805
  395MOL0     H54499   7.225   1.480   1.153  3.7680 -0.9491 -0.0108
  395MOL0     H54500   7.302   1.307   1.341 -0.4528  0.7291 -0.9108
  395MOL0     H54501   7.331   1.444   1.441 -2.6533  1.0579 -0.9020
  395MOL0     H54502   7.510   1.349   1.227 -1.3010 -0.6164 -1.6752
  395MOL0     H54503   7.451   1.520   1.193  0.8926 -1.5512 -1.3536
  395MOL0     H54504   7.505   1.591   1.437 -0.7995 -1.2838  1.1459
  395MOL0     H54505   7.628   1.569   1.320 -1.3028  0.1652 -1.2818
  395MOL0     H54506   7.725   1.268   1.595  2.0061  1.5531  1.3308
  395MOL0     H54507   7.444   1.824   1.265  0.2590  0.1201 -0.5066
  395MOL0     H54508   7.569   1.993   1.172  0.8947  0.4057 -0.9010
  395MOL0     H54509   7.586   1.990   1.003 -1.5866  0.6549 -0.7174
  395MOL0     H54510   7.486   2.115   1.079  2.1306  1.3516 -0.2087
  396MOL0     O54511   3.502   9.945   2.056  0.5659 -0.2677  0.0164
  396MOL0     C54512   3.443   9.967   1.954  0.2788  0.0473  0.2454
  396MOL0     O54513   3.350  10.061   1.940  0.6301  0.5893 -0.0406
  396MOL0     C54514   3.336  10.140   2.054  0.0749 -0.2358  0.0174
  396MOL0     C54515   3.205  10.144   2.101 -0.2326  0.6989  0.5346
  396MOL0     C54516   3.170  10.221   2.205  0.8262  0.3529  0.1299
  396MOL0     C54517   3.260  10.289   2.280 -0.5279  0.0513  0.0725
  396MOL0     O54518   3.225  10.392   2.372 -0.1308  0.2124  0.1681
  396MOL0     C54519   3.083  10.442   2.387 -0.3492 -0.3618  0.1711
  396MOL0     C54520   3.075  10.554   2.491  0.2756  0.2812 -0.0389
  396MOL0     C54521   2.929  10.584   2.537 -0.4753  0.4796  0.3609
  396MOL0     C54522   2.929  10.637   2.684 -0.2390 -0.3967  0.2432
  396MOL0     C54523   2.790  10.649   2.732  0.0220  0.2184  0.2732
  396MOL0     C54524   2.776  10.709   2.874 -0.2405 -0.7088 -0.8460
  396MOL0     C54525   2.629  10.693   2.920 -0.4443 -0.0652 -1.1531
  396MOL0     C54526   2.516  10.774   2.849  0.4385 -0.0775 -0.0119
  396MOL0     N54527   2.405  10.803   2.932 -0.6422 -0.2838 -1.0657
  396MOL0     C54528   2.430  10.889   3.037  0.3583  0.2275 -0.0649
  396MOL0     C54529   2.301  10.923   3.078 -0.8656  0.0021  0.3360
  396MOL0     C54530   2.275  11.026   3.198 -0.5280 -0.3240 -0.0220
  396MOL0     C54531   2.149  10.981   3.282 -0.5862 -0.6459  0.3111
  396MOL0     C54532   2.025  11.046   3.217 -0.4490  0.2179 -0.0689
  396MOL0     C54533   1.910  11.022   3.322 -0.2543 -0.0369  0.4917
  396MOL0     O54534   1.787  11.070   3.254  0.3593  0.4749  0.0078
  396MOL0     C54535   1.694  11.116   3.340 -0.4274  0.1797  0.3628
  396MOL0     C54536   1.634  11.024   3.428  0.3171 -0.2722  0.5544
  396MOL0     C54537   1.508  11.059   3.488 -0.6833  0.2884 -0.2337
  396MOL0     C54538   1.415  10.952   3.552 -0.2761 -0.6594 -0.0315
  396MOL0     C54539   1.461  11.196   3.482  0.2358 -0.2256 -0.1188
  396MOL0     C54540   1.340  11.244   3.553  0.4666  0.4225  0.9131
  396MOL0     O54541   1.352  11.346   3.641 -0.2124 -0.5480 -0.2572
  396MOL0     C54542   1.244  11.399   3.701  0.1088  0.1510  0.4781
  396MOL0     C54543   1.146  11.480   3.633 -0.3372 -0.8719 -0.4234
  396MOL0     C54544   1.026  11.514   3.689  0.7025  0.8384 -0.1939
  396MOL0     C54545   1.001  11.478   3.829 -0.9886 -0.1414  0.6168
  396MOL0     O54546   0.900  11.531   3.904  0.1666  0.5719 -1.0644
  396MOL0     C54547   0.811  11.629   3.851 -0.6000 -0.0189 -0.3591
  396MOL0     C54548   0.711  11.669   3.965  0.4541  0.4185  1.0266
  396MOL0     C54549   0.760  11.766   4.073 -0.0670 -0.6113 -0.4657
  396MOL0     C54550   0.682  11.755   4.205 -0.5310  0.8318  0.5509
  396MOL0     C54551   0.538  11.813   4.193 -0.2073  0.0641  0.0890
  396MOL0     C54552   0.462  11.791   4.325  0.7073  0.0135 -0.5732
  396MOL0     C54553   0.320  11.853   4.327 -0.6321  0.3106 -0.4172
  396MOL0     C54554   0.286  11.885   4.477 -0.4414 -0.0800 -0.5651
  396MOL0    Cl54555   0.298  11.735   4.591  0.2253  0.1562  0.1183
  396MOL0     C54556   1.094  11.399   3.894 -0.0880  0.5990  0.1162
  396MOL0     C54557   1.215  11.365   3.829  0.3628 -0.3453 -0.7919
  396MOL0     O54558   1.234  11.199   3.517 -0.7155  0.3322  0.0296
  396MOL0     C54559   1.528  11.281   3.390 -0.5489 -0.0841  0.2797
  396MOL0     C54560   1.645  11.238   3.316 -0.0275 -0.4138 -0.3197
  396MOL0     N54561   2.210  10.846   3.012  0.1934 -0.0227 -0.7823
  396MOL0     N54562   2.272  10.779   2.921 -0.3347 -0.0202  0.8230
  396MOL0     C54563   3.396  10.274   2.250  0.5335  0.3236  0.3632
  396MOL0     C54564   3.436  10.206   2.132 -0.3172 -0.5942  0.0500
  396MOL0     C54565   3.475   9.875   1.845 -1.1949 -0.3479 -0.2893
  396MOL0     C54566   3.399   9.901   1.733  0.0234  0.5368 -0.1135
  396MOL0     C54567   3.403   9.826   1.617 -0.8767  1.0263 -0.6482
  396MOL0     C54568   3.485   9.720   1.612  0.1127  0.3369  0.1412
  396MOL0     O54569   3.486   9.638   1.504  0.9777 -0.7941 -0.2260
  396MOL0     C54570   3.401   9.657   1.383 -0.7523 -0.8881  0.4185
  396MOL0     C54571   3.451   9.548   1.279 -0.1725 -0.5952 -0.8951
  396MOL0     C54572   3.386   9.410   1.305 -0.0553 -0.4048  0.2248
  396MOL0     C54573   3.467   9.289   1.254 -0.1375 -0.0500  0.6949
  396MOL0     C54574   3.488   9.303   1.109  0.4500 -0.4137 -0.0344
  396MOL0     C54575   3.497   9.298   0.987  0.7043  0.1240 -0.3728
  396MOL0     C54576   3.553   9.678   1.726  0.1681 -0.1425  0.0510
  396MOL0     C54577   3.563   9.763   1.848  0.0038  0.1519  1.1375
  396MOL0     C54578   3.655   9.719   1.968 -1.7433  0.0842  0.3043
  396MOL0     H54579   3.132  10.088   2.043 -1.0291  0.9054  1.3189
  396MOL0     H54580   3.067  10.197   2.232  0.7942  0.7718  0.3869
  396MOL0     H54581   3.014  10.360   2.411  0.9379 -1.5610 -0.0562
  396MOL0     H54582   3.037  10.473   2.293 -3.6010 -3.8604  0.3602
  396MOL0     H54583   3.133  10.524   2.578 -0.7991 -1.9559 -0.0138
  396MOL0     H54584   3.120  10.638   2.437  0.5460  0.5332  0.5788
  396MOL0     H54585   2.887  10.661   2.471 -0.6875  1.4057  1.5302
  396MOL0     H54586   2.871  10.492   2.542  0.1778  0.0605  0.3126
  396MOL0     H54587   2.983  10.565   2.747 -1.2571 -1.1499  0.2816
  396MOL0     H54588   2.969  10.738   2.689 -0.5749 -0.2845  0.7316
  396MOL0     H54589   2.754  10.547   2.731  1.1064 -0.1963 -1.5834
  396MOL0     H54590   2.733  10.705   2.657  1.7669 -1.1012 -2.1681
  396MOL0     H54591   2.834  10.656   2.951  0.3075 -0.4327 -1.0634
  396MOL0     H54592   2.796  10.817   2.880  0.1119 -0.8228  0.5488
  396MOL0     H54593   2.628  10.717   3.026  3.9714 -0.1896 -0.8813
  396MOL0     H54594   2.609  10.585   2.914 -3.4042  0.1913  1.4355
  396MOL0     H54595   2.553  10.864   2.800  1.0833 -0.6729 -0.6484
  396MOL0     H54596   2.465  10.719   2.768 -0.8097 -0.3982  0.9507
  396MOL0     H54597   2.523  10.931   3.074  0.0865  0.4610  0.3626
  396MOL0     H54598   2.255  11.120   3.146  0.9246 -0.1493 -0.2935
  396MOL0     H54599   2.363  11.023   3.263  0.6384 -1.4208 -1.5782
  396MOL0     H54600   2.142  10.872   3.295  1.5548 -0.5400  3.3125
  396MOL0     H54601   2.154  11.009   3.388 -4.5510 -2.8270  1.2932
  396MOL0     H54602   2.040  11.153   3.201  1.0369 -0.3291 -2.7365
  396MOL0     H54603   2.003  11.000   3.121  1.5478 -1.2216  0.0972
  396MOL0     H54604   1.907  10.920   3.361 -1.6644 -0.1873  0.0177
  396MOL0     H54605   1.924  11.092   3.405 -1.0091  2.0714 -1.0676
  396MOL0     H54606   1.657  10.918   3.436  0.1654 -0.2261  1.8753
  396MOL0     H54607   1.338  10.927   3.479 -2.4400  3.4005  0.5863
  396MOL0     H54608   1.373  10.979   3.649 -0.6235 -5.2910  1.3356
  396MOL0     H54609   1.480  10.866   3.568 -0.0087 -0.3116  0.7718
  396MOL0     H54610   1.160  11.525   3.535  0.7622  1.1937  0.6111
  396MOL0     H54611   0.954  11.566   3.627  0.5471  0.2551 -0.5136
  396MOL0     H54612   0.863  11.711   3.800 -2.8799  0.4190 -2.1339
  396MOL0     H54613   0.754  11.578   3.773 -1.3410 -0.2175  0.3055
  396MOL0     H54614   0.615  11.700   3.923  0.4760 -2.4764 -1.5299
  396MOL0     H54615   0.685  11.573   4.012 -5.0024  1.7951  1.4750
  396MOL0     H54616   0.744  11.869   4.039 -0.1346 -0.6539 -0.5630
  396MOL0     H54617   0.869  11.756   4.076  0.1627  1.4425 -0.2894
  396MOL0     H54618   0.736  11.806   4.285  1.2863 -2.1728  1.3917
  396MOL0     H54619   0.682  11.649   4.232  2.3097  0.0794 -1.9064
  396MOL0     H54620   0.546  11.922   4.181 -0.9556  0.4364  2.5507
  396MOL0     H54621   0.480  11.767   4.113 -0.7726  0.3147  0.3515
  396MOL0     H54622   0.517  11.824   4.413 -0.7686  1.8571 -0.2755
  396MOL0     H54623   0.450  11.683   4.329  4.9058 -0.5796  0.8903
  396MOL0     H54624   0.248  11.784   4.280  0.9725  0.4877 -3.3901
  396MOL0     H54625   0.308  11.940   4.262  3.6447 -1.4214 -4.0899
  396MOL0     H54626   0.185  11.926   4.481 -0.7384 -0.7306 -1.3546
  396MOL0     H54627   0.365  11.956   4.505  0.8293 -0.9309 -1.8305
  396MOL0     H54628   1.077  11.374   3.998 -1.9261  0.7999 -0.1043
  396MOL0     H54629   1.282  11.299   3.883 -1.0025  0.4323  2.0606
  396MOL0     H54630   1.495  11.382   3.369  3.8370  1.5517  0.1885
  396MOL0     H54631   1.691  11.295   3.236 -0.2673  0.7986  0.3907
  396MOL0     H54632   3.475  10.321   2.307  0.0621  1.5253  0.0490
  396MOL0     H54633   3.543  10.201   2.114  0.1620 -2.1658  2.8572
  396MOL0     H54634   3.338   9.990   1.729  2.1788  2.0598 -1.0278
  396MOL0     H54635   3.338   9.848   1.532 -3.1884  0.0269  0.7647
  396MOL0     H54636   3.295   9.640   1.404 -1.2282 -1.9475 -2.3562
  396MOL0     H54637   3.423   9.754   1.337  0.4990  0.2233  3.1344
  396MOL0     H54638   3.560   9.546   1.286 -0.1132 -1.7174 -1.8984
  396MOL0     H54639   3.423   9.580   1.178  2.3524  1.0344 -1.1629
  396MOL0     H54640   3.376   9.394   1.413 -0.6674 -1.9178 -0.0381
  396MOL0     H54641   3.288   9.412   1.257  1.1383 -0.9045 -2.4207
  396MOL0     H54642   3.404   9.204   1.282  1.5376 -0.9202  1.9877
  396MOL0     H54643   3.562   9.273   1.305  0.6327 -2.5755 -1.3226
  396MOL0     H54644   3.504   9.294   0.880  1.9814 -3.2881 -0.2938
  396MOL0     H54645   3.605   9.583   1.731  0.3854 -0.0290 -0.0219
  396MOL0     H54646   3.727   9.795   2.001 -1.3533  1.1673 -2.6868
  396MOL0     H54647   3.591   9.687   2.051 -1.5420 -0.5799  0.2089
  396MOL0     H54648   3.717   9.631   1.948 -0.8054  0.9690 -0.8860
  397MOL0     O54649   2.214   7.276   9.133 -0.3892 -0.2001  0.3960
  397MOL0     C54650   2.239   7.367   9.047 -0.0177  0.1947  0.1827
  397MOL0     O54651   2.349   7.435   9.041  0.6115 -0.1411  0.0625
  397MOL0     C54652   2.465   7.382   9.088 -0.0792 -1.0157 -0.0162
  397MOL0     C54653   2.538   7.476   9.168 -0.3266 -0.6032  0.7572
  397MOL0     C54654   2.673   7.440   9.203 -0.1706 -0.8946 -0.3626
  397MOL0     C54655   2.737   7.330   9.158  0.4794  0.5597  0.2926
  397MOL0     O54656   2.862   7.313   9.208  0.4903  0.3466 -0.2234
  397MOL0     C54657   2.944   7.230   9.129 -0.5304  0.4130 -0.5314
  397MOL0     C54658   3.069   7.193   9.198  0.3344  0.7315 -0.1008
  397MOL0     C54659   3.147   7.313   9.247 -1.0191 -0.3959 -0.8955
  397MOL0     C54660   3.295   7.267   9.270  0.2761 -0.2093  0.2399
  397MOL0     C54661   3.393   7.380   9.300  0.7540  0.2356 -0.0707
  397MOL0     C54662   3.530   7.319   9.301 -0.9661  0.5390  0.1166
  397MOL0     C54663   3.645   7.426   9.308  0.1899 -0.5407 -0.1217
  397MOL0     C54664   3.612   7.516   9.433 -0.1442  0.3070  0.1392
  397MOL0     N54665   3.703   7.627   9.467  0.4375  0.4933  0.0260
  397MOL0     C54666   3.800   7.608   9.561  0.1806 -0.4104 -0.6996
  397MOL0     C54667   3.865   7.722   9.576 -0.0916  0.1263  0.2821
  397MOL0     C54668   3.997   7.735   9.650  0.6418  1.1628  0.1171
  397MOL0     C54669   4.064   7.593   9.680  0.1839  0.0698 -0.2812
  397MOL0     C54670   4.190   7.635   9.740  0.1843 -0.1883 -0.3585
  397MOL0     C54671   4.271   7.522   9.808  0.2855 -0.4557  0.2891
  397MOL0     O54672   4.401   7.571   9.863  0.2173 -0.5929  0.1398
  397MOL0     C54673   4.491   7.493   9.940 -0.2644 -0.4803  1.2455
  397MOL0     C54674   4.577   7.562  10.035 -0.9118 -0.2060  0.4813
  397MOL0     C54675   4.651   7.483  10.132  0.2045 -0.7158 -0.2161
  397MOL0     C54676   4.714   7.568  10.237 -0.1381  0.3108 -0.6123
  397MOL0     C54677   4.663   7.350  10.107 -0.5425 -0.4588  0.0681
  397MOL0     C54678   4.774   7.274  10.171 -0.7320  0.4303  0.9304
  397MOL0     O54679   4.768   7.139  10.155  0.0363 -0.3763 -0.1746
  397MOL0     C54680   4.860   7.070  10.224  0.2007  0.9873 -0.8439
  397MOL0     C54681   4.848   7.047  10.362 -0.0836  1.3632  0.2348
  397MOL0     C54682   4.950   6.974  10.432  0.4910  0.5929 -0.2857
  397MOL0     C54683   5.053   6.919  10.367  0.0641  0.4052  0.6440
  397MOL0     O54684   5.152   6.854  10.437 -0.2721  0.3614 -0.5449
  397MOL0     C54685   5.249   6.774  10.361 -0.6230 -0.0845  0.3547
  397MOL0     C54686   5.186   6.659  10.289  0.0490 -0.4244 -0.0356
  397MOL0     C54687   5.288   6.547  10.257 -0.1576 -0.5763 -0.0240
  397MOL0     C54688   5.216   6.419  10.216  0.9003  0.8026  1.0407
  397MOL0     C54689   5.315   6.319  10.153  0.2869  0.1213 -1.1479
  397MOL0     C54690   5.328   6.361  10.004 -0.2696  0.0141 -0.4201
  397MOL0     C54691   5.364   6.226   9.916  0.8948 -0.7249 -0.3271
  397MOL0     C54692   5.505   6.183   9.934  0.7532  0.4433 -0.4260
  397MOL0    Cl54693   5.528   6.096  10.083 -0.1390 -0.3086 -0.5610
  397MOL0     C54694   5.067   6.954  10.231 -0.1547  0.2435 -0.3787
  397MOL0     C54695   4.972   7.022  10.156 -0.3051 -0.9128  0.3992
  397MOL0     O54696   4.862   7.328  10.235 -0.2352  0.8192 -0.6038
  397MOL0     C54697   4.583   7.282  10.017  0.5279  0.1713  0.9794
  397MOL0     C54698   4.491   7.359   9.941  0.1735 -0.4536 -0.3893
  397MOL0     N54699   3.805   7.818   9.497 -0.8362  0.5557 -0.1914
  397MOL0     N54700   3.716   7.758   9.427 -0.8997 -0.6942 -0.4858
  397MOL0     C54701   2.652   7.235   9.086  0.2389  0.7146  0.8770
  397MOL0     C54702   2.520   7.266   9.046  0.2644  0.5009 -0.5199
  397MOL0     C54703   2.116   7.418   8.976 -1.0310 -0.0047 -0.6324
  397MOL0     C54704   2.108   7.554   8.947 -0.8002 -0.2056 -0.3317
  397MOL0     C54705   2.000   7.622   8.902 -0.0294  1.4544  0.3411
  397MOL0     C54706   1.890   7.536   8.868 -1.1721 -0.5626  0.1891
  397MOL0     O54707   1.779   7.598   8.801  0.0165 -0.5998  0.7918
  397MOL0     C54708   1.637   7.555   8.822 -0.2983  0.0257  0.7289
  397MOL0     C54709   1.602   7.600   8.961 -0.4064  0.1925  0.2840
  397MOL0     C54710   1.457   7.580   9.008 -0.1687 -0.1510 -0.5764
  397MOL0     C54711   1.412   7.660   9.137 -0.4663  0.9652 -0.0218
  397MOL0     C54712   1.280   7.608   9.183 -0.4152  0.0608  0.2055
  397MOL0     C54713   1.168   7.592   9.225  0.0921 -1.5673 -0.4155
  397MOL0     C54714   1.908   7.399   8.871  0.5799 -0.9445 -1.0298
  397MOL0     C54715   2.020   7.337   8.924  0.0630  0.1755 -0.3361
  397MOL0     C54716   2.025   7.184   8.929 -0.4711 -0.3045  0.2874
  397MOL0     H54717   2.493   7.574   9.185  0.1753 -0.3310  0.5385
  397MOL0     H54718   2.722   7.505   9.274  0.8936  1.1488 -2.7893
  397MOL0     H54719   2.970   7.283   9.037  2.9223 -3.4879 -2.0809
  397MOL0     H54720   2.904   7.131   9.105  0.3328  0.0939 -0.6740
  397MOL0     H54721   3.028   7.133   9.279 -1.3793  1.2041 -0.5647
  397MOL0     H54722   3.124   7.117   9.142 -0.7101 -0.8225  0.9339
  397MOL0     H54723   3.144   7.392   9.172 -1.8014  0.1672 -0.2941
  397MOL0     H54724   3.109   7.353   9.341  0.9418 -1.0206  0.2186
  397MOL0     H54725   3.291   7.198   9.355 -0.7171 -0.6229 -0.1386
  397MOL0     H54726   3.338   7.213   9.186  3.8710 -0.2878  1.8940
  397MOL0     H54727   3.371   7.418   9.401 -3.5921 -2.0691  0.0663
  397MOL0     H54728   3.370   7.450   9.219 -3.5469 -2.7948 -1.7926
  397MOL0     H54729   3.541   7.255   9.388 -1.4416  0.4018  0.0797
  397MOL0     H54730   3.538   7.260   9.209 -2.5998 -0.7140  0.7207
  397MOL0     H54731   3.642   7.479   9.212  0.8323 -1.8092 -0.8725
  397MOL0     H54732   3.744   7.383   9.328  1.2184  2.0769  0.9113
  397MOL0     H54733   3.521   7.574   9.415  1.2534  2.6726  0.2520
  397MOL0     H54734   3.611   7.450   9.520  1.9614 -0.8891 -0.6745
  397MOL0     H54735   3.815   7.519   9.622  3.1886  0.1535 -0.4344
  397MOL0     H54736   3.961   7.771   9.747 -0.4726 -0.0231  0.1713
  397MOL0     H54737   4.068   7.793   9.590  2.5217 -2.6847 -1.7451
  397MOL0     H54738   4.006   7.527   9.745  0.8935 -1.9337 -1.5500
  397MOL0     H54739   4.080   7.541   9.584 -1.1658  0.8339 -0.9361
  397MOL0     H54740   4.248   7.681   9.659 -2.1290  1.7289 -1.0748
  397MOL0     H54741   4.164   7.705   9.820 -0.5528 -0.5621 -0.2649
  397MOL0     H54742   4.211   7.477   9.887 -0.0836  0.5847  0.6173
  397MOL0     H54743   4.282   7.440   9.736 -0.0685 -1.3227  1.1970
  397MOL0     H54744   4.577   7.670  10.029 -0.5586  0.0059  3.1285
  397MOL0     H54745   4.816   7.589  10.202  0.8490 -1.8046  0.7484
  397MOL0     H54746   4.730   7.510  10.328  0.7391  0.4973 -0.6425
  397MOL0     H54747   4.650   7.651  10.266 -1.5100 -0.2622 -1.8559
  397MOL0     H54748   4.768   7.092  10.420  0.2798 -0.1130  2.0092
  397MOL0     H54749   4.934   6.970  10.539  1.7990 -1.5186 -0.1162
  397MOL0     H54750   5.318   6.833  10.300  2.8028 -1.1533  2.8750
  397MOL0     H54751   5.311   6.733  10.442 -0.0423  3.4396  1.8674
  397MOL0     H54752   5.105   6.611  10.346  0.5999 -1.4402 -0.0708
  397MOL0     H54753   5.140   6.680  10.192  0.2469  0.3152  0.0268
  397MOL0     H54754   5.345   6.534  10.350 -0.2755 -0.7562  0.0236
  397MOL0     H54755   5.348   6.582  10.173 -0.2500  3.3567  1.3378
  397MOL0     H54756   5.129   6.439  10.152  1.0813 -4.1192 -1.2703
  397MOL0     H54757   5.182   6.372  10.308  1.1518 -0.3148  0.5838
  397MOL0     H54758   5.407   6.315  10.212  1.4723 -2.9868 -2.9332
  397MOL0     H54759   5.275   6.218  10.167  1.7107 -0.5651 -1.8575
  397MOL0     H54760   5.388   6.450   9.984  0.7777 -0.3937  0.7292
  397MOL0     H54761   5.230   6.391   9.966 -0.3170  0.5774  0.1437
  397MOL0     H54762   5.346   6.237   9.809 -0.3761 -2.8825 -0.3841
  397MOL0     H54763   5.293   6.151   9.952  0.1807  0.2603  0.3659
  397MOL0     H54764   5.568   6.273   9.936 -1.7541  2.2940 -0.1962
  397MOL0     H54765   5.533   6.122   9.848  1.1837  3.2584 -2.4295
  397MOL0     H54766   5.148   6.925  10.165 -2.8080  1.2639 -4.5360
  397MOL0     H54767   4.975   7.029  10.048  1.7091 -2.2723  0.3132
  397MOL0     H54768   4.595   7.176   9.999  1.5542  0.4150  0.1229
  397MOL0     H54769   4.432   7.299   9.871 -1.5627  0.7855 -0.0373
  397MOL0     H54770   2.688   7.138   9.053 -0.1493  0.5367  0.9716
  397MOL0     H54771   2.464   7.195   8.986 -0.7942  0.2201  0.7468
  397MOL0     H54772   2.179   7.629   8.982 -2.9797  0.9154  2.0483
  397MOL0     H54773   1.997   7.728   8.879  3.1995  1.3944 -0.8171
  397MOL0     H54774   1.577   7.609   8.748  1.0161  2.3451  1.2584
  397MOL0     H54775   1.613   7.449   8.815 -2.0877  0.0815  4.0296
  397MOL0     H54776   1.613   7.708   8.972  1.1506  0.1990 -0.9343
  397MOL0     H54777   1.661   7.552   9.039 -4.3647 -0.3467  3.2155
  397MOL0     H54778   1.402   7.626   8.925  2.7603  2.9761 -1.0328
  397MOL0     H54779   1.440   7.472   9.008 -0.9659 -0.0426 -1.3329
  397MOL0     H54780   1.397   7.760   9.095 -1.2789  1.0031  0.3261
  397MOL0     H54781   1.498   7.655   9.205  0.9786 -0.4860 -1.8524
  397MOL0     H54782   1.072   7.580   9.271 -0.5493  2.1905 -0.3862
  397MOL0     H54783   1.829   7.332   8.838  0.1016 -1.4343  0.9656
  397MOL0     H54784   2.124   7.141   8.912 -0.7432 -0.9828  0.3471
  397MOL0     H54785   1.995   7.147   9.028  1.7612  0.1030  1.1560
  397MOL0     H54786   1.962   7.146   8.848 -1.9343  2.2207  0.1442
  398MOL0     O54787   1.296   0.670  10.776 -0.1992 -0.0259  1.1406
  398MOL0     C54788   1.220   0.643  10.867  0.5484  1.3087  0.6538
  398MOL0     O54789   1.133   0.725  10.929 -0.2180  0.1831  0.0697
  398MOL0     C54790   1.142   0.859  10.911 -0.0635 -0.2856  0.3043
  398MOL0     C54791   1.201   0.942  10.998  0.2160 -0.2040 -0.5166
  398MOL0     C54792   1.184   1.080  10.986  0.3405  0.6118 -0.7027
  398MOL0     C54793   1.117   1.137  10.873  0.7653  0.5136  0.1351
  398MOL0     O54794   1.110   1.277  10.879 -0.3847  0.2001 -0.3488
  398MOL0     C54795   1.051   1.353  10.774 -0.3241 -0.2968  0.5242
  398MOL0     C54796   0.988   1.486  10.825 -0.7488  0.3182  0.1339
  398MOL0     C54797   1.068   1.571  10.923  0.4490 -0.5007  0.3270
  398MOL0     C54798   1.010   1.709  10.939 -0.7086 -0.3412  0.1697
  398MOL0     C54799   1.062   1.778  11.069 -0.2169  0.9486 -0.2435
  398MOL0     C54800   1.012   1.927  11.071  0.6251  0.2533 -0.5856
  398MOL0     C54801   0.854   1.944  11.093 -0.2336  0.7264 -0.5767
  398MOL0     C54802   0.812   1.935  11.240  0.0247  0.3814  0.4100
  398MOL0     N54803   0.668   1.940  11.242  0.8124 -0.0149  0.9807
  398MOL0     C54804   0.573   1.851  11.192 -0.5552  0.7409  0.0605
  398MOL0     C54805   0.448   1.901  11.193  0.3054 -1.1888  0.6261
  398MOL0     C54806   0.324   1.849  11.136 -0.1358  0.8425 -0.3153
  398MOL0     C54807   0.282   1.961  11.038 -1.1324 -0.2414 -1.3498
  398MOL0     C54808   0.175   1.904  10.950 -0.1546 -0.5989 -0.0254
  398MOL0     C54809   0.090   2.016  10.879 -0.6066  1.8249  0.1816
  398MOL0     O54810  -0.020   1.944  10.818  0.3600 -0.5050 -0.5833
  398MOL0     C54811  -0.098   2.008  10.729  0.3286  0.5549 -0.0383
  398MOL0     C54812  -0.077   2.143  10.691 -0.5221  0.5427  0.2960
  398MOL0     C54813  -0.163   2.207  10.615 -0.3955 -0.6301 -0.0075
  398MOL0     C54814  -0.145   2.356  10.578  0.0859  0.4141  0.4245
  398MOL0     C54815  -0.275   2.136  10.556 -0.3259 -0.0009 -0.0642
  398MOL0     C54816  -0.375   2.198  10.479  0.3638 -0.8104  0.3040
  398MOL0     O54817  -0.497   2.136  10.483  1.1803  0.0110 -0.1948
  398MOL0     C54818  -0.587   2.155  10.376 -0.2779  0.3054  0.1526
  398MOL0     C54819  -0.655   2.284  10.352  0.3457  1.1358  0.6660
  398MOL0     C54820  -0.755   2.289  10.252 -0.6067 -0.5057 -0.6781
  398MOL0     C54821  -0.799   2.176  10.176 -0.2813 -0.5596 -0.5530
  398MOL0     O54822  -0.892   2.172  10.077  1.0185  0.6172 -0.1830
  398MOL0     C54823  -1.017   2.229  10.104 -0.6586  0.0933 -0.5177
  398MOL0     C54824  -1.067   2.288   9.973 -1.2668 -0.3593  0.7801
  398MOL0     C54825  -0.999   2.419   9.922  0.1450  0.5349 -0.5823
  398MOL0     C54826  -1.009   2.433   9.769  1.1037 -0.6822 -0.2902
  398MOL0     C54827  -1.148   2.454   9.714 -0.5522 -0.3676 -0.0857
  398MOL0     C54828  -1.194   2.599   9.731 -0.7032 -0.1885 -0.2876
  398MOL0     C54829  -1.326   2.636   9.650  0.0975 -0.7675  0.7529
  398MOL0     C54830  -1.345   2.784   9.603 -0.9620  0.1354  0.2117
  398MOL0    Cl54831  -1.506   2.800   9.535 -0.0195 -0.1337  0.3338
  398MOL0     C54832  -0.736   2.056  10.206  0.1614 -1.3289  0.1799
  398MOL0     C54833  -0.640   2.038  10.309 -0.2158  0.4328 -0.8485
  398MOL0     O54834  -0.351   2.299  10.406 -0.1788 -0.4199  0.0579
  398MOL0     C54835  -0.302   2.005  10.598  0.3868  1.0990  0.0241
  398MOL0     C54836  -0.210   1.945  10.682  0.1519  0.6404  0.0257
  398MOL0     N54837   0.466   2.032  11.248  0.9233 -0.5185  0.2426
  398MOL0     N54838   0.592   2.046  11.272 -0.0151  0.3872 -0.0349
  398MOL0     C54839   1.069   1.048  10.781 -0.1397  0.3988  1.2728
  398MOL0     C54840   1.070   0.911  10.804  0.7794  0.2473  0.4123
  398MOL0     C54841   1.222   0.498  10.909  0.4165  0.9591 -0.1535
  398MOL0     C54842   1.175   0.469  11.034  0.9381  0.0170  0.2961
  398MOL0     C54843   1.188   0.353  11.099 -0.1816 -0.8939  0.3311
  398MOL0     C54844   1.244   0.246  11.037 -1.3680 -0.1594  0.3692
  398MOL0     O54845   1.255   0.120  11.084  0.8130  0.1477  0.3459
  398MOL0     C54846   1.384   0.069  11.096 -0.4126  0.3194 -0.0793
  398MOL0     C54847   1.377  -0.082  11.130  0.3085 -0.3187  0.6157
  398MOL0     C54848   1.354  -0.186  11.021  0.0060  0.4410  0.4133
  398MOL0     C54849   1.388  -0.330  11.060  0.1711 -0.0635 -0.0458
  398MOL0     C54850   1.306  -0.366  11.174 -0.2600 -0.6888 -0.1410
  398MOL0     C54851   1.250  -0.405  11.279 -0.6746 -0.0552  0.0738
  398MOL0     C54852   1.294   0.269  10.908 -0.8790  0.2855 -0.3588
  398MOL0     C54853   1.276   0.391  10.839 -0.0776  0.1356  1.1867
  398MOL0     C54854   1.332   0.389  10.693 -0.2747  0.0572 -0.1511
  398MOL0     H54855   1.254   0.899  11.083 -0.9021  0.6635  0.6620
  398MOL0     H54856   1.224   1.142  11.066 -1.6588 -0.4240  1.2166
  398MOL0     H54857   0.974   1.290  10.727  1.2830 -1.9042 -0.0728
  398MOL0     H54858   1.122   1.374  10.694 -0.3254 -0.3742  0.5024
  398MOL0     H54859   0.968   1.551  10.739  2.7036  2.1784  0.5178
  398MOL0     H54860   0.898   1.454  10.877  1.4513 -0.6598  3.6749
  398MOL0     H54861   1.075   1.519  11.019 -0.4561 -0.3108  0.4986
  398MOL0     H54862   1.168   1.572  10.877 -0.9605 -0.4015 -2.9924
  398MOL0     H54863   1.025   1.775  10.854 -0.7245 -0.5801 -0.0198
  398MOL0     H54864   0.902   1.692  10.944 -1.1127 -1.9627 -6.0008
  398MOL0     H54865   1.170   1.769  11.084 -0.4620 -1.5278  0.4786
  398MOL0     H54866   1.032   1.738  11.166  2.1070 -1.3001 -0.3415
  398MOL0     H54867   1.050   1.974  11.162  1.3819  2.2065 -1.8556
  398MOL0     H54868   1.050   1.992  10.992 -2.0974  2.9370  0.1358
  398MOL0     H54869   0.798   1.874  11.029  1.0573  0.2900 -1.2726
  398MOL0     H54870   0.819   2.043  11.062  0.1919  0.8946 -0.5302
  398MOL0     H54871   0.830   1.835  11.283 -2.6206 -0.3955 -0.1492
  398MOL0     H54872   0.872   2.009  11.295  2.1424  1.3751 -2.9652
  398MOL0     H54873   0.605   1.755  11.152  1.7481  0.8317  1.5023
  398MOL0     H54874   0.263   1.830  11.225  2.4133 -1.0035  1.1671
  398MOL0     H54875   0.337   1.747  11.099 -0.9307  0.4484  0.4592
  398MOL0     H54876   0.247   2.047  11.096  3.0929  2.8071 -2.7596
  398MOL0     H54877   0.360   2.000  10.971 -2.5163  0.2558 -2.7336
  398MOL0     H54878   0.215   1.841  10.870 -0.4371  0.5759 -1.1424
  398MOL0     H54879   0.106   1.838  11.003 -1.2703  1.2378  0.9117
  398MOL0     H54880   0.054   2.073  10.966  0.2518  2.0410  0.4090
  398MOL0     H54881   0.158   2.086  10.830  2.8139 -0.6732  0.9572
  398MOL0     H54882  -0.002   2.209  10.733  0.1373  1.1325 -1.6723
  398MOL0     H54883  -0.237   2.414  10.589 -1.1388 -0.5793 -3.2633
  398MOL0     H54884  -0.108   2.363  10.475 -0.7481 -1.9632 -0.0951
  398MOL0     H54885  -0.069   2.412  10.634  0.0179  0.9301  0.0156
  398MOL0     H54886  -0.614   2.372  10.402 -0.2078  1.5836  0.3546
  398MOL0     H54887  -0.804   2.383  10.229 -0.7340 -0.7922 -1.6253
  398MOL0     H54888  -1.088   2.150  10.129 -1.2450  1.2899  1.9652
  398MOL0     H54889  -1.015   2.308  10.179  0.6632 -0.8252  0.4503
  398MOL0     H54890  -1.064   2.210   9.897 -0.6701 -0.9614  1.4091
  398MOL0     H54891  -1.174   2.304   9.993 -1.6535  0.3121 -1.5856
  398MOL0     H54892  -0.894   2.408   9.950  0.1869  2.3456  0.1388
  398MOL0     H54893  -1.041   2.505   9.976 -0.3016 -0.7193  1.1499
  398MOL0     H54894  -0.984   2.332   9.735  0.0202 -0.9428 -0.3566
  398MOL0     H54895  -0.951   2.502   9.708 -0.9594 -0.3038 -1.9354
  398MOL0     H54896  -1.149   2.441   9.605 -1.0659  0.1596 -0.1526
  398MOL0     H54897  -1.215   2.375   9.750 -0.2466 -0.8117 -0.4841
  398MOL0     H54898  -1.118   2.670   9.696 -0.4643 -0.2852  0.0260
  398MOL0     H54899  -1.206   2.639   9.832 -3.1032  0.3341 -0.7362
  398MOL0     H54900  -1.414   2.612   9.711  0.5718 -1.6848  1.1041
  398MOL0     H54901  -1.340   2.575   9.560  2.0689 -1.1474  0.6661
  398MOL0     H54902  -1.259   2.822   9.546  0.2499 -2.0866  0.4799
  398MOL0     H54903  -1.341   2.840   9.697 -0.0586  0.9595 -0.2892
  398MOL0     H54904  -0.767   1.970  10.146  1.7456  0.0692 -2.8810
  398MOL0     H54905  -0.613   1.938  10.341 -0.4415  0.3716 -0.8415
  398MOL0     H54906  -0.385   1.948  10.560  2.1403 -0.9154 -0.9746
  398MOL0     H54907  -0.226   1.839  10.696 -1.0834  0.7437 -0.4398
  398MOL0     H54908   1.014   1.095  10.700  0.0304 -1.7924 -0.2341
  398MOL0     H54909   1.016   0.840  10.742  2.1075 -0.2980 -0.1753
  398MOL0     H54910   1.117   0.548  11.081 -1.6489  0.4866 -3.2255
  398MOL0     H54911   1.135   0.338  11.193  0.2162  0.7175  0.8516
  398MOL0     H54912   1.449   0.078  11.008  0.3391  1.2857  0.5494
  398MOL0     H54913   1.426   0.131  11.176 -1.4420  1.0966 -0.1158
  398MOL0     H54914   1.312  -0.099  11.217  0.6920 -0.9858  0.7761
  398MOL0     H54915   1.482  -0.099  11.156  0.5458 -0.1137 -0.1718
  398MOL0     H54916   1.246  -0.190  11.004  0.1083  1.0051 -0.3945
  398MOL0     H54917   1.406  -0.151  10.932  1.0582 -2.7459 -0.3611
  398MOL0     H54918   1.495  -0.333  11.083  1.0043  4.5574 -2.2751
  398MOL0     H54919   1.359  -0.392  10.974  2.9841  1.4299 -2.2424
  398MOL0     H54920   1.219  -0.431  11.379 -1.0292 -1.9248 -0.4840
  398MOL0     H54921   1.335   0.179  10.863  0.3896 -0.6009  2.3323
  398MOL0     H54922   1.298   0.296  10.646 -0.2395  0.7085 -1.5201
  398MOL0     H54923   1.282   0.471  10.640  0.2853  1.8474  1.9116
  398MOL0     H54924   1.441   0.400  10.695 -0.3377  0.6195  0.4270
  399MOL0     O54925   4.667   4.947  10.445  0.3562  0.3136 -0.0693
  399MOL0     C54926   4.620   5.044  10.497  0.5368 -0.9420  0.6793
  399MOL0     O54927   4.492   5.090  10.480  0.1489 -0.4651  0.1228
  399MOL0     C54928   4.401   5.008  10.418  0.6355  0.0330 -0.3549
  399MOL0     C54929   4.306   4.946  10.493  0.5906  0.1715 -0.3866
  399MOL0     C54930   4.210   4.859  10.430 -0.1446 -0.8259  0.6538
  399MOL0     C54931   4.210   4.846  10.284 -0.5978  0.0029  0.3515
  399MOL0     O54932   4.118   4.765  10.219 -0.1509  0.5582  0.2868
  399MOL0     C54933   4.087   4.639  10.277 -0.0193  0.1399  0.2802
  399MOL0     C54934   3.936   4.626  10.298 -0.0364 -0.0038  0.1952
  399MOL0     C54935   3.896   4.540  10.417 -0.3531  0.0872  0.2264
  399MOL0     C54936   3.833   4.631  10.532 -0.3473  0.6910 -0.6015
  399MOL0     C54937   3.685   4.658  10.519  0.2254 -0.2973 -0.3475
  399MOL0     C54938   3.630   4.755  10.624 -0.9706  0.4035  0.9251
  399MOL0     C54939   3.602   4.677  10.753 -0.0158 -0.3892 -0.2065
  399MOL0     C54940   3.528   4.769  10.853 -0.0551  0.6167  0.0205
  399MOL0     N54941   3.479   4.691  10.970 -0.0969 -0.5497  0.3358
  399MOL0     C54942   3.385   4.588  10.975  0.0746 -0.6427  0.0273
  399MOL0     C54943   3.357   4.572  11.106  0.2071  0.8348  0.7720
  399MOL0     C54944   3.267   4.480  11.178  0.0967  0.5898  0.2440
  399MOL0     C54945   3.360   4.361  11.247 -0.7444  0.4927 -0.7056
  399MOL0     C54946   3.285   4.295  11.362 -0.8388 -0.7144 -0.0710
  399MOL0     C54947   3.150   4.229  11.322 -0.1028  0.1693  1.0124
  399MOL0     O54948   3.179   4.115  11.238 -0.6047  0.3597  0.6657
  399MOL0     C54949   3.075   4.036  11.201 -0.0430 -0.7433  0.0203
  399MOL0     C54950   3.099   3.922  11.128  0.8349 -0.0925 -0.0158
  399MOL0     C54951   2.991   3.845  11.083 -0.5357 -0.3759 -0.0853
  399MOL0     C54952   3.040   3.739  10.990 -0.1680 -0.3825  0.1883
  399MOL0     C54953   2.855   3.879  11.110  0.2457  0.1739 -0.0806
  399MOL0     C54954   2.733   3.807  11.068  0.3448  0.1551  0.1332
  399MOL0     O54955   2.619   3.880  11.037  0.7866  0.8316 -0.6500
  399MOL0     C54956   2.494   3.826  11.052  0.8948 -0.7595 -0.2358
  399MOL0     C54957   2.457   3.727  11.135 -0.6031 -0.5782 -0.6537
  399MOL0     C54958   2.324   3.670  11.138 -0.3611  0.2619 -0.0919
  399MOL0     C54959   2.227   3.735  11.063 -0.0728  0.1144 -0.1915
  399MOL0     O54960   2.095   3.706  11.064  0.2263 -0.3372  0.8424
  399MOL0     C54961   2.012   3.677  11.181 -0.2370  0.5325  0.1651
  399MOL0     C54962   1.887   3.608  11.124 -0.2577  0.2588 -0.8055
  399MOL0     C54963   1.790   3.572  11.232  0.1328 -0.7868 -0.5172
  399MOL0     C54964   1.651   3.635  11.217  0.2799 -0.4561 -0.1825
  399MOL0     C54965   1.554   3.551  11.124 -0.6430 -0.4984 -0.6780
  399MOL0     C54966   1.456   3.646  11.055 -1.3627  0.0038 -0.1899
  399MOL0     C54967   1.337   3.575  11.000 -0.2688 -0.1141  0.2395
  399MOL0     C54968   1.235   3.675  10.950 -0.7789 -1.2181  0.6841
  399MOL0    Cl54969   1.291   3.780  10.824 -0.3234  0.2343 -0.4525
  399MOL0     C54970   2.259   3.849  10.993 -0.2609 -0.0140  0.3650
  399MOL0     C54971   2.392   3.889  10.987  0.0030 -0.6096 -0.6928
  399MOL0     O54972   2.739   3.682  11.058 -0.1762 -1.2832  0.5485
  399MOL0     C54973   2.834   3.999  11.176 -0.3269  0.3154  0.1582
  399MOL0     C54974   2.943   4.074  11.226  0.4424  0.6128  0.4374
  399MOL0     N54975   3.426   4.664  11.175 -0.1768 -0.7540  0.0214
  399MOL0     N54976   3.497   4.740  11.094  0.2322  0.2419  0.5168
  399MOL0     C54977   4.309   4.916  10.209  0.4978  0.9277  0.0159
  399MOL0     C54978   4.403   4.998  10.273  0.5288 -0.0212 -0.1081
  399MOL0     C54979   4.715   5.120  10.588 -0.6371  0.1453 -0.2800
  399MOL0     C54980   4.848   5.086  10.588 -0.5021  0.5881  1.0991
  399MOL0     C54981   4.944   5.143  10.674 -0.1128 -0.2659  1.1404
  399MOL0     C54982   4.904   5.251  10.751 -0.4190 -0.4650 -0.5034
  399MOL0     O54983   5.004   5.324  10.819 -0.2248  0.0941 -1.3064
  399MOL0     C54984   4.973   5.370  10.950 -0.5034  0.3645  0.2958
  399MOL0     C54985   5.104   5.411  11.017 -0.0159 -0.3323  0.2598
  399MOL0     C54986   5.161   5.294  11.094  0.0633 -1.1407 -1.5900
  399MOL0     C54987   5.274   5.231  11.019 -0.4118  0.1900  0.5424
  399MOL0     C54988   5.376   5.168  11.109  0.1782  0.6376  0.3521
  399MOL0     C54989   5.466   5.114  11.169  0.5849  0.9243 -0.1817
  399MOL0     C54990   4.767   5.287  10.747 -0.0051 -0.2056 -1.3083
  399MOL0     C54991   4.674   5.221  10.670 -0.3543 -0.4440 -0.2600
  399MOL0     C54992   4.530   5.270  10.678  0.0772 -0.2048 -0.3009
  399MOL0     H54993   4.301   4.962  10.600 -0.7035  0.1375 -0.4225
  399MOL0     H54994   4.138   4.809  10.493 -0.6362 -0.3825  0.4530
  399MOL0     H54995   4.148   4.633  10.368  2.8063  0.0525 -1.4678
  399MOL0     H54996   4.117   4.554  10.215 -0.0994  0.2161  0.1354
  399MOL0     H54997   3.875   4.716  10.285 -2.3109 -1.6818 -1.5359
  399MOL0     H54998   3.907   4.559  10.216  0.1224 -1.1365  1.0498
  399MOL0     H54999   3.821   4.465  10.391 -0.9331  0.1309  1.6505
  399MOL0     H55000   3.975   4.485  10.470 -1.1735  0.4168  1.8643
  399MOL0     H55001   3.850   4.582  10.628 -4.1369  0.7647  0.2666
  399MOL0     H55002   3.891   4.723  10.535 -3.4613  2.7697  0.2940
  399MOL0     H55003   3.632   4.562  10.521  1.7936 -1.1766  1.5027
  399MOL0     H55004   3.684   4.699  10.417 -1.1862 -2.0844 -1.1152
  399MOL0     H55005   3.701   4.838  10.635  2.7050 -2.5029  0.9763
  399MOL0     H55006   3.531   4.789  10.593 -0.5007  0.9815  0.0119
  399MOL0     H55007   3.695   4.640  10.797  0.0032  1.4169  1.4340
  399MOL0     H55008   3.537   4.592  10.731  1.2228 -1.6221  0.6994
  399MOL0     H55009   3.588   4.854  10.889  0.3552  0.2278  0.2653
  399MOL0     H55010   3.439   4.812  10.805  0.0935  2.1081  1.0010
  399MOL0     H55011   3.328   4.535  10.899 -0.7564 -3.6953  2.5500
  399MOL0     H55012   3.200   4.425  11.111  1.3631 -0.8368  0.0804
  399MOL0     H55013   3.205   4.533  11.251 -0.6649  2.4150 -1.6454
  399MOL0     H55014   3.399   4.287  11.177  1.2240  1.4121 -0.6450
  399MOL0     H55015   3.450   4.406  11.291  0.2306 -0.7458 -1.3792
  399MOL0     H55016   3.337   4.219  11.422 -3.1172 -0.6490  2.1305
  399MOL0     H55017   3.264   4.371  11.438 -1.2141 -1.9705  1.1336
  399MOL0     H55018   3.092   4.212  11.414 -3.8409  0.3107 -1.0969
  399MOL0     H55019   3.087   4.297  11.263  1.6952 -0.1381 -1.4222
  399MOL0     H55020   3.202   3.889  11.122  0.7122 -0.5186  0.1858
  399MOL0     H55021   3.094   3.656  11.036  1.5096  1.4600  1.7375
  399MOL0     H55022   3.111   3.797  10.930 -1.3677  2.7157  1.5374
  399MOL0     H55023   2.956   3.692  10.937 -1.2075  0.6875  0.8330
  399MOL0     H55024   2.541   3.680  11.185  0.6188 -1.4149 -3.3359
  399MOL0     H55025   2.302   3.587  11.203  2.7131 -2.0293 -1.6792
  399MOL0     H55026   2.075   3.611  11.241  0.0558  2.9296  2.7128
  399MOL0     H55027   1.983   3.771  11.230 -0.1644  0.5750  0.1248
  399MOL0     H55028   1.852   3.685  11.055  0.2868  1.5137  0.2686
  399MOL0     H55029   1.922   3.527  11.060  3.2027  2.6752 -2.2939
  399MOL0     H55030   1.828   3.605  11.329  0.2231  2.3976 -1.5363
  399MOL0     H55031   1.776   3.464  11.247  1.5816 -1.1027 -1.2426
  399MOL0     H55032   1.656   3.731  11.165  1.4433 -0.2494  0.2779
  399MOL0     H55033   1.615   3.653  11.318  0.4791 -0.9261 -0.0255
  399MOL0     H55034   1.616   3.513  11.042 -0.9796  0.8452 -1.5906
  399MOL0     H55035   1.493   3.474  11.173 -1.8196 -0.1282 -1.5174
  399MOL0     H55036   1.517   3.692  10.977  2.2763 -4.4001 -0.3457
  399MOL0     H55037   1.422   3.715  11.133  0.8865 -0.8056  1.6220
  399MOL0     H55038   1.299   3.505  11.075 -0.6786 -1.3050 -1.0417
  399MOL0     H55039   1.376   3.515  10.917  0.6449  1.2424 -0.3383
  399MOL0     H55040   1.201   3.739  11.033 -0.8620  0.6273 -0.6972
  399MOL0     H55041   1.146   3.629  10.906 -0.7005 -1.3092  0.6205
  399MOL0     H55042   2.176   3.905  10.949  1.3108  2.2741  0.1436
  399MOL0     H55043   2.427   3.979  10.937  0.5022  0.4071  1.3839
  399MOL0     H55044   2.731   4.031  11.189 -1.2588 -1.9221 -1.1580
  399MOL0     H55045   2.918   4.163  11.282 -0.7933  1.0959 -0.8362
  399MOL0     H55046   4.310   4.904  10.101 -0.6782  1.7490 -0.1089
  399MOL0     H55047   4.486   5.051  10.228 -0.8280  0.6740 -1.9204
  399MOL0     H55048   4.897   5.022  10.516 -3.0550 -0.1074 -0.1301
  399MOL0     H55049   5.051   5.122  10.665 -0.8079 -3.4511 -1.6079
  399MOL0     H55050   4.911   5.458  10.933  0.6983  1.1098 -0.3872
  399MOL0     H55051   4.919   5.297  11.011  1.5449 -2.0607 -0.5880
  399MOL0     H55052   5.084   5.490  11.090  1.3945  1.5632 -1.3072
  399MOL0     H55053   5.180   5.450  10.948  0.7587 -1.5919  0.3716
  399MOL0     H55054   5.206   5.340  11.183 -2.0480 -1.3213 -0.3466
  399MOL0     H55055   5.081   5.222  11.116 -1.0688 -0.1885 -2.4683
  399MOL0     H55056   5.333   5.316  10.985 -1.2491  1.5525  2.3172
  399MOL0     H55057   5.240   5.157  10.946 -0.4438  2.0249 -1.3756
  399MOL0     H55058   5.550   5.071  11.218  0.5338  1.9452  0.8372
  399MOL0     H55059   4.740   5.378  10.800 -2.0725 -0.8678 -1.0987
  399MOL0     H55060   4.458   5.196  10.713  0.9339 -0.9312 -0.0625
  399MOL0     H55061   4.514   5.345  10.756  0.8581 -1.1597  0.7897
  399MOL0     H55062   4.504   5.314  10.581  0.9755  3.9920  1.1312
  400MOL0     O55063   5.104   5.925   7.339  0.4451 -0.0164 -0.5062
  400MOL0     C55064   5.013   5.841   7.323 -0.1057  0.3796 -0.8731
  400MOL0     O55065   4.984   5.786   7.202 -0.1615 -0.1437  0.2781
  400MOL0     C55066   5.068   5.794   7.098  0.0933  0.2908  0.4858
  400MOL0     C55067   5.088   5.908   7.021  0.0657  0.3463  0.0617
  400MOL0     C55068   5.182   5.899   6.915 -0.5976  0.3823  0.0470
  400MOL0     C55069   5.251   5.779   6.883  0.3686  0.4918  0.0910
  400MOL0     O55070   5.321   5.786   6.758  0.0043  0.3663  0.3166
  400MOL0     C55071   5.464   5.812   6.780  0.9363  0.1504 -0.3914
  400MOL0     C55072   5.547   5.819   6.647 -0.2563  0.4682 -0.5186
  400MOL0     C55073   5.688   5.753   6.644 -0.8087 -0.9843 -1.0712
  400MOL0     C55074   5.777   5.789   6.775  0.3009  0.1812  0.0842
  400MOL0     C55075   5.922   5.713   6.784 -0.0263 -0.8393  0.8444
  400MOL0     C55076   6.006   5.714   6.659 -0.5971 -0.4979 -0.1952
  400MOL0     C55077   6.026   5.865   6.598 -0.2853 -0.4974 -1.1369
  400MOL0     C55078   6.100   5.960   6.697  0.0188 -0.5709 -0.1236
  400MOL0     N55079   6.238   5.935   6.672 -0.5112  0.3794 -0.5835
  400MOL0     C55080   6.318   5.991   6.576  0.6632  0.5265 -0.3004
  400MOL0     C55081   6.435   5.928   6.582  1.3919 -0.8839 -0.7368
  400MOL0     C55082   6.547   5.936   6.474  0.5856  0.2012 -0.4482
  400MOL0     C55083   6.666   6.018   6.531 -0.7858 -0.3380  0.1326
  400MOL0     C55084   6.714   5.961   6.657 -0.3555 -0.2818  1.1257
  400MOL0     C55085   6.855   5.999   6.684  0.3228  0.0106 -0.2663
  400MOL0     O55086   6.953   5.949   6.584  0.7249  0.1381 -0.0953
  400MOL0     C55087   7.076   5.914   6.627 -0.3511 -0.6831 -0.5585
  400MOL0     C55088   7.159   5.852   6.535  0.3352  0.7569 -1.1159
  400MOL0     C55089   7.295   5.821   6.571 -0.2443 -0.2149 -0.5166
  400MOL0     C55090   7.366   5.745   6.462 -0.7961 -0.3628 -0.4043
  400MOL0     C55091   7.352   5.864   6.694 -0.6352 -0.8474 -0.3338
  400MOL0     C55092   7.485   5.861   6.750  0.0312  0.3556  1.0077
  400MOL0     O55093   7.563   5.782   6.680  0.1356  0.1151 -0.2474
  400MOL0     C55094   7.686   5.742   6.710 -0.8115 -0.6946 -0.2803
  400MOL0     C55095   7.763   5.774   6.831  0.0650 -0.5973  0.6460
  400MOL0     C55096   7.886   5.707   6.859 -0.1829 -0.2693  0.9881
  400MOL0     C55097   7.934   5.612   6.769 -0.7310 -0.0648 -0.0691
  400MOL0     O55098   8.048   5.544   6.798 -1.1277 -0.5456 -0.1264
  400MOL0     C55099   8.048   5.449   6.910  0.1699 -0.2927  0.3593
  400MOL0     C55100   8.155   5.346   6.895 -0.2609 -0.2451 -0.5460
  400MOL0     C55101   8.287   5.421   6.899  0.9431  0.1987  0.1096
  400MOL0     C55102   8.405   5.355   6.965  0.5162 -0.2541 -0.8505
  400MOL0     C55103   8.529   5.450   6.934  0.1488 -0.1167  0.6769
  400MOL0     C55104   8.651   5.410   7.026  0.0202  0.7384  0.0172
  400MOL0     C55105   8.784   5.465   6.967  0.2339 -0.5989  1.3838
  400MOL0     C55106   8.903   5.466   7.072  0.1387  0.9118  0.9498
  400MOL0    Cl55107   8.936   5.296   7.099 -0.2949  0.1193 -0.4897
  400MOL0     C55108   7.865   5.584   6.648 -0.1572  0.1683  0.0141
  400MOL0     C55109   7.743   5.645   6.623 -0.0351  0.0240 -0.5500
  400MOL0     O55110   7.499   5.908   6.865 -0.0518 -0.5202 -0.0930
  400MOL0     C55111   7.257   5.933   6.780  0.2318  0.3185  0.9299
  400MOL0     C55112   7.128   5.954   6.750 -0.1341 -0.0271  0.3738
  400MOL0     N55113   6.432   5.866   6.707  0.0623  0.1379  0.1339
  400MOL0     N55114   6.316   5.860   6.749 -0.0960  0.5123 -0.1521
  400MOL0     C55115   5.234   5.668   6.958 -0.2177 -0.2724  0.4094
  400MOL0     C55116   5.140   5.672   7.066  0.6524 -0.3293 -0.3984
  400MOL0     C55117   4.939   5.797   7.440 -0.6114 -0.0144  0.0526
  400MOL0     C55118   4.890   5.665   7.447 -0.1759  0.8887  0.8316
  400MOL0     C55119   4.832   5.620   7.564  0.0980 -0.5110  0.2434
  400MOL0     C55120   4.821   5.692   7.678  0.7567  0.4309 -0.2881
  400MOL0     O55121   4.775   5.627   7.785  0.9607  0.0186  0.4418
  400MOL0     C55122   4.745   5.705   7.906 -0.8197  1.3916  0.3353
  400MOL0     C55123   4.733   5.608   8.024 -0.0419 -1.2439  0.3354
  400MOL0     C55124   4.716   5.686   8.156 -1.0564  0.3013 -0.4161
  400MOL0     C55125   4.632   5.585   8.245 -0.8204 -0.8885 -0.4247
  400MOL0     C55126   4.605   5.660   8.372  0.9054  0.0063 -0.1507
  400MOL0     C55127   4.571   5.709   8.483 -0.7851 -0.3119 -0.3447
  400MOL0     C55128   4.861   5.825   7.670 -0.7819  0.5212 -0.3240
  400MOL0     C55129   4.917   5.884   7.559  0.6057 -0.2992  0.3360
  400MOL0     C55130   4.955   6.030   7.563 -0.0685 -0.1574 -0.7277
  400MOL0     H55131   5.056   6.007   7.054  0.5127  0.2280  0.8692
  400MOL0     H55132   5.217   5.977   6.849 -0.7631 -0.7890 -1.4778
  400MOL0     H55133   5.495   5.719   6.829 -3.9848 -1.9126 -0.5916
  400MOL0     H55134   5.493   5.892   6.849  1.6102 -1.2115  0.9658
  400MOL0     H55135   5.490   5.765   6.571  0.8791 -1.0563 -0.3326
  400MOL0     H55136   5.562   5.923   6.618  1.8362 -0.3555 -2.7613
  400MOL0     H55137   5.682   5.644   6.658  3.6911 -1.5789 -2.3075
  400MOL0     H55138   5.743   5.781   6.554  1.3239  1.7433  0.8965
  400MOL0     H55139   5.795   5.897   6.778  1.5496  0.0386 -1.1591
  400MOL0     H55140   5.725   5.757   6.865 -1.5462  1.8926 -0.3139
  400MOL0     H55141   5.912   5.606   6.806 -0.9064 -0.7686  0.8332
  400MOL0     H55142   5.983   5.759   6.863  2.0570  1.6664 -2.0198
  400MOL0     H55143   6.099   5.659   6.679  0.9328  1.1403 -2.3938
  400MOL0     H55144   5.961   5.661   6.575 -1.0450  1.3770 -1.1930
  400MOL0     H55145   5.935   5.924   6.583  1.9129  4.0870  1.3953
  400MOL0     H55146   6.084   5.853   6.506  1.8930 -2.6361  0.3766
  400MOL0     H55147   6.095   6.067   6.672  3.2844 -0.5328 -1.1595
  400MOL0     H55148   6.057   5.951   6.797  0.8179  1.3015  0.4469
  400MOL0     H55149   6.288   6.067   6.505 -0.1133  1.6216  1.1310
  400MOL0     H55150   6.510   5.976   6.379  0.5138  0.8274 -0.1634
  400MOL0     H55151   6.583   5.840   6.436  0.6953  0.3630 -0.7567
  400MOL0     H55152   6.747   6.016   6.457  0.0367 -0.9116  1.0357
  400MOL0     H55153   6.644   6.124   6.546 -4.0720 -0.6866 -1.2381
  400MOL0     H55154   6.650   5.993   6.741 -1.3330  1.6497 -0.2556
  400MOL0     H55155   6.696   5.854   6.644 -0.8181 -0.1469  0.5770
  400MOL0     H55156   6.860   6.107   6.699  0.4090 -0.0490  0.1357
  400MOL0     H55157   6.873   5.954   6.782  3.5505  0.9548 -0.3021
  400MOL0     H55158   7.121   5.801   6.447  1.8233 -1.0475 -0.7761
  400MOL0     H55159   7.471   5.727   6.487 -0.9497  1.7781  2.1908
  400MOL0     H55160   7.379   5.797   6.366  2.7571  0.3115  0.2973
  400MOL0     H55161   7.308   5.655   6.440  1.0888 -2.5475  2.8593
  400MOL0     H55162   7.715   5.831   6.910  0.9166 -1.0109  1.4797
  400MOL0     H55163   7.930   5.721   6.957 -1.6717 -0.7843  1.7731
  400MOL0     H55164   8.059   5.506   7.002  1.5636  1.0731 -0.6120
  400MOL0     H55165   7.945   5.411   6.910 -2.6853  6.0903 -0.0565
  400MOL0     H55166   8.154   5.275   6.978  1.5213  0.9248  0.5536
  400MOL0     H55167   8.147   5.295   6.799 -0.0419 -1.5171  0.0899
  400MOL0     H55168   8.280   5.523   6.939 -1.5377 -1.1533  3.6375
  400MOL0     H55169   8.327   5.408   6.798  2.7490 -0.1352  0.8229
  400MOL0     H55170   8.413   5.255   6.922  0.8676  0.6417 -2.9974
  400MOL0     H55171   8.382   5.337   7.070 -1.2910  2.1419 -0.7344
  400MOL0     H55172   8.567   5.427   6.834 -0.5397 -1.0804  0.6188
  400MOL0     H55173   8.505   5.554   6.956 -0.7146 -0.2337  0.3175
  400MOL0     H55174   8.653   5.301   7.019  1.1824  0.6397  1.5103
  400MOL0     H55175   8.640   5.438   7.131  1.1246  0.3272  0.2569
  400MOL0     H55176   8.756   5.562   6.926 -0.4662 -1.6077 -0.6211
  400MOL0     H55177   8.816   5.399   6.887  1.0377  0.3534  0.8946
  400MOL0     H55178   8.884   5.523   7.164  1.5704  0.0438  1.8214
  400MOL0     H55179   8.996   5.507   7.032 -0.2568  0.7002 -0.2106
  400MOL0     H55180   7.909   5.510   6.581  0.6054 -1.0557  1.7793
  400MOL0     H55181   7.676   5.611   6.544  0.4502  2.0338 -1.8992
  400MOL0     H55182   7.280   5.978   6.876  2.3728 -0.1324  0.6606
  400MOL0     H55183   7.065   6.012   6.817  1.7571  1.4357  0.9784
  400MOL0     H55184   5.302   5.586   6.937  1.2263  0.8604  0.5405
  400MOL0     H55185   5.124   5.584   7.127  1.8382  0.5995  1.3359
  400MOL0     H55186   4.887   5.596   7.363  0.7810 -0.7131  2.0406
  400MOL0     H55187   4.810   5.513   7.564  3.2741 -1.3124 -2.2703
  400MOL0     H55188   4.833   5.768   7.926  1.0679 -0.6746 -0.9401
  400MOL0     H55189   4.650   5.757   7.892 -1.1373  0.4079 -1.4061
  400MOL0     H55190   4.807   5.528   8.021 -0.7255 -1.8579 -0.7829
  400MOL0     H55191   4.635   5.560   8.012 -0.5244 -1.0522  2.8075
  400MOL0     H55192   4.809   5.718   8.204  0.0783  1.5963 -3.2474
  400MOL0     H55193   4.662   5.779   8.137  0.7228  1.3480 -0.6110
  400MOL0     H55194   4.685   5.493   8.270 -1.7272 -1.1740  0.5127
  400MOL0     H55195   4.538   5.571   8.192 -0.4433  1.4191 -1.8547
  400MOL0     H55196   4.553   5.756   8.577  0.3138 -2.8604  1.2589
  400MOL0     H55197   4.859   5.886   7.759  0.4665  1.0171 -0.6128
  400MOL0     H55198   5.062   6.042   7.542 -0.3019  1.2385 -1.2469
  400MOL0     H55199   4.891   6.093   7.500  3.8732  2.6546 -2.3144
  400MOL0     H55200   4.940   6.058   7.667  0.4591 -1.0650 -0.3944
  401MOL0     O55201   7.116   0.048   3.593 -0.5829  0.1188  0.5309
  401MOL0     C55202   7.149   0.158   3.627 -0.6310 -0.8156 -0.1509
  401MOL0     O55203   7.273   0.199   3.661  0.1154 -0.1698  0.2062
  401MOL0     C55204   7.383   0.114   3.664 -0.3152 -0.3183 -0.4898
  401MOL0     C55205   7.383  -0.029   3.650  0.1310 -0.0854 -0.6019
  401MOL0     C55206   7.503  -0.105   3.646  0.7330 -0.2223  0.3784
  401MOL0     C55207   7.619  -0.032   3.654 -0.3827 -0.5765  0.2339
  401MOL0     O55208   7.739  -0.094   3.638  0.7571 -0.1728  0.8122
  401MOL0     C55209   7.754  -0.221   3.689  1.0772 -0.0554 -0.3550
  401MOL0     C55210   7.896  -0.280   3.680  0.6725  0.2546  0.1200
  401MOL0     C55211   7.994  -0.171   3.738  0.6820  0.4168  0.1373
  401MOL0     C55212   8.138  -0.180   3.689  0.1222  0.6271  0.2205
  401MOL0     C55213   8.203  -0.317   3.724 -0.9270  0.1858 -0.5626
  401MOL0     C55214   8.356  -0.305   3.706 -0.2701  0.0229 -0.4408
  401MOL0     C55215   8.405  -0.305   3.572  0.3553 -0.7130  1.0503
  401MOL0     C55216   8.558  -0.306   3.565  0.4189 -0.9275  0.1784
  401MOL0     N55217   8.634  -0.410   3.641 -0.5560 -0.4041  0.7669
  401MOL0     C55218   8.627  -0.546   3.610  0.1967  0.0413  0.5976
  401MOL0     C55219   8.687  -0.610   3.704  1.2795  0.5662 -0.5974
  401MOL0     C55220   8.714  -0.762   3.726 -0.6627  0.0823 -0.4479
  401MOL0     C55221   8.816  -0.811   3.624  0.6634  0.1116  0.5417
  401MOL0     C55222   8.752  -0.890   3.505 -0.0974  0.3754 -0.2618
  401MOL0     C55223   8.695  -1.021   3.547  0.2002 -0.9978  0.0450
  401MOL0     O55224   8.588  -1.051   3.456 -0.4370 -0.6748 -0.3364
  401MOL0     C55225   8.612  -1.098   3.330  0.4778  0.2379  0.2618
  401MOL0     C55226   8.736  -1.134   3.271  0.7755  0.3673 -0.5378
  401MOL0     C55227   8.747  -1.193   3.139  0.5879 -0.7404 -0.6190
  401MOL0     C55228   8.878  -1.240   3.099 -1.1121 -0.9437 -0.3773
  401MOL0     C55229   8.630  -1.206   3.060  0.6375 -0.0925 -0.4727
  401MOL0     C55230   8.629  -1.237   2.918  0.0963  0.7707  0.4199
  401MOL0     O55231   8.754  -1.241   2.852  0.1078  0.0199  0.0445
  401MOL0     C55232   8.768  -1.302   2.731 -0.5596 -0.5579  0.3831
  401MOL0     C55233   8.848  -1.411   2.725 -0.5609  0.0395  0.3285
  401MOL0     C55234   8.866  -1.481   2.604  0.1011  0.2058 -0.1791
  401MOL0     C55235   8.790  -1.451   2.492 -0.6132  0.4145 -0.2081
  401MOL0     O55236   8.810  -1.528   2.373 -0.1264 -0.4955  0.6939
  401MOL0     C55237   8.745  -1.507   2.251  0.0902  0.4056 -0.2457
  401MOL0     C55238   8.832  -1.565   2.142 -0.2442  0.3346  0.5028
  401MOL0     C55239   8.772  -1.692   2.088 -1.0177  0.2978 -0.4668
  401MOL0     C55240   8.876  -1.761   2.013 -0.4992  0.2209 -0.9472
  401MOL0     C55241   8.819  -1.863   1.918  1.2545  0.2502 -0.2306
  401MOL0     C55242   8.803  -1.799   1.777  0.0894  0.1824 -0.5677
  401MOL0     C55243   8.703  -1.862   1.677  0.2071 -0.9694 -0.4445
  401MOL0     C55244   8.747  -1.844   1.532 -0.5570 -0.4929  0.9850
  401MOL0    Cl55245   8.695  -1.684   1.489 -0.0839  0.3161 -0.1493
  401MOL0     C55246   8.725  -1.331   2.495 -0.9060 -0.5216 -0.5366
  401MOL0     C55247   8.702  -1.249   2.608 -0.1678  0.6012 -0.0992
  401MOL0     O55248   8.518  -1.259   2.862  0.5874 -0.3270 -0.7972
  401MOL0     C55249   8.504  -1.168   3.114 -0.1107  0.3728 -0.6138
  401MOL0     C55250   8.499  -1.120   3.241 -0.3372 -0.8465 -0.5251
  401MOL0     N55251   8.724  -0.512   3.796  0.0015  0.0634  0.1271
  401MOL0     N55252   8.693  -0.398   3.759  0.4913  0.8798 -0.8957
  401MOL0     C55253   7.622   0.103   3.668  0.4527  1.3027 -0.4487
  401MOL0     C55254   7.503   0.181   3.675  0.1481  0.7800 -0.1987
  401MOL0     C55255   7.051   0.266   3.627 -0.0836  0.6376  0.2315
  401MOL0     C55256   7.041   0.345   3.745 -0.4201  0.0706 -0.3334
  401MOL0     C55257   6.943   0.448   3.763 -0.0025  0.4237  0.2474
  401MOL0     C55258   6.853   0.469   3.657  1.1083 -0.3758  0.6295
  401MOL0     O55259   6.759   0.574   3.660  0.3702  0.3266  0.0155
  401MOL0     C55260   6.819   0.697   3.631 -0.3284 -1.2249  0.2352
  401MOL0     C55261   6.711   0.795   3.673 -0.5813 -0.5032  0.3540
  401MOL0     C55262   6.760   0.940   3.696 -0.7646  0.9717 -0.1587
  401MOL0     C55263   6.775   1.026   3.567  0.0065 -0.2099  0.0804
  401MOL0     C55264   6.826   1.156   3.608 -0.3056  0.0131 -0.4379
  401MOL0     C55265   6.860   1.266   3.648 -0.8207 -0.3181 -0.2782
  401MOL0     C55266   6.851   0.382   3.545 -0.2325  0.7803  0.0191
  401MOL0     C55267   6.950   0.279   3.523  0.0216  0.3525  0.1953
  401MOL0     C55268   6.936   0.206   3.388 -0.9856  0.2180  0.5653
  401MOL0     H55269   7.290  -0.086   3.653  0.6984 -0.9855  1.7914
  401MOL0     H55270   7.495  -0.210   3.624  0.5531  0.3779 -2.9073
  401MOL0     H55271   7.682  -0.286   3.638 -0.4185  1.4637 -0.2403
  401MOL0     H55272   7.726  -0.229   3.795  0.5507 -0.5935 -0.5284
  401MOL0     H55273   7.909  -0.375   3.733  0.2116 -1.0633 -1.9901
  401MOL0     H55274   7.916  -0.303   3.575 -0.7325 -0.7514  0.0408
  401MOL0     H55275   7.959  -0.070   3.712  1.2423  1.1122  1.8917
  401MOL0     H55276   7.996  -0.173   3.847  3.4172  1.4336  0.1802
  401MOL0     H55277   8.140  -0.163   3.581  4.5544 -1.6970 -0.2810
  401MOL0     H55278   8.197  -0.102   3.739 -1.0861  1.5853  0.2077
  401MOL0     H55279   8.158  -0.391   3.657 -0.6803  2.6038 -3.6467
  401MOL0     H55280   8.185  -0.345   3.828 -2.0559 -1.5935 -1.1968
  401MOL0     H55281   8.396  -0.216   3.754 -2.3481 -0.1815  1.9023
  401MOL0     H55282   8.394  -0.390   3.764  1.1297  0.2495 -1.0023
  401MOL0     H55283   8.385  -0.209   3.523 -1.3243 -0.7252  1.6542
  401MOL0     H55284   8.357  -0.385   3.515  0.9108  0.6362 -1.4362
  401MOL0     H55285   8.589  -0.308   3.461 -1.9115  4.4455 -0.9041
  401MOL0     H55286   8.590  -0.205   3.592 -0.5953 -0.4277 -0.4349
  401MOL0     H55287   8.589  -0.594   3.521  3.5884 -1.0925 -0.3876
  401MOL0     H55288   8.622  -0.812   3.694 -0.2196 -0.1929 -1.3334
  401MOL0     H55289   8.745  -0.775   3.830  1.9864  1.4119 -0.9703
  401MOL0     H55290   8.871  -0.724   3.589 -1.8520  1.8940  0.7415
  401MOL0     H55291   8.893  -0.867   3.677 -0.1545  0.4544  2.1526
  401MOL0     H55292   8.681  -0.826   3.452 -0.7547  1.5902  1.9594
  401MOL0     H55293   8.829  -0.928   3.437 -0.3291 -0.0246 -0.3048
  401MOL0     H55294   8.770  -1.101   3.550  1.2711  0.0156  1.4734
  401MOL0     H55295   8.657  -1.012   3.649  1.5691  0.4289  0.4720
  401MOL0     H55296   8.833  -1.123   3.319  1.0471 -0.7604 -0.7966
  401MOL0     H55297   8.880  -1.333   3.041  0.9542  0.9230 -3.6214
  401MOL0     H55298   8.938  -1.255   3.189 -0.2971 -0.9640 -0.9147
  401MOL0     H55299   8.924  -1.164   3.034  0.4011 -0.0476  1.6335
  401MOL0     H55300   8.911  -1.435   2.810 -4.1443 -1.8609  2.6939
  401MOL0     H55301   8.939  -1.561   2.592 -0.0775  0.0068  0.0578
  401MOL0     H55302   8.650  -1.561   2.258 -0.2657  1.0083 -0.3725
  401MOL0     H55303   8.733  -1.400   2.232  0.4319  0.9593  2.2160
  401MOL0     H55304   8.809  -1.495   2.061 -0.8693 -1.5016 -0.9770
  401MOL0     H55305   8.935  -1.550   2.176 -0.8508  1.4982  1.9418
  401MOL0     H55306   8.690  -1.665   2.020 -2.5124 -0.0636  1.1219
  401MOL0     H55307   8.742  -1.753   2.174 -0.7924 -0.7512 -1.1202
  401MOL0     H55308   8.928  -1.823   2.087  0.9998  1.5608 -0.8377
  401MOL0     H55309   8.935  -1.693   1.953  0.1767  0.2543 -0.2635
  401MOL0     H55310   8.898  -1.939   1.908  1.5316  0.4817  0.1939
  401MOL0     H55311   8.729  -1.907   1.960  1.0048  1.0765  0.1213
  401MOL0     H55312   8.903  -1.788   1.734 -1.2697  1.4443 -3.6689
  401MOL0     H55313   8.775  -1.694   1.792  1.5472  0.3014  1.9047
  401MOL0     H55314   8.607  -1.820   1.708  2.6084  1.0391  5.9059
  401MOL0     H55315   8.691  -1.969   1.698 -2.4677 -0.8434 -1.0463
  401MOL0     H55316   8.717  -1.922   1.462  3.2439 -0.3575 -1.1027
  401MOL0     H55317   8.857  -1.847   1.532 -0.4705  1.2937 -0.0531
  401MOL0     H55318   8.672  -1.287   2.410 -2.3003 -1.7976 -0.3720
  401MOL0     H55319   8.651  -1.152   2.609 -0.2427  0.6290 -1.8843
  401MOL0     H55320   8.408  -1.187   3.066 -1.3918  2.4333  0.9515
  401MOL0     H55321   8.407  -1.073   3.274  1.7371  2.2685  1.3663
  401MOL0     H55322   7.720   0.151   3.669  2.4547 -2.3558 -0.8275
  401MOL0     H55323   7.501   0.289   3.686  1.0915  0.8430 -0.5838
  401MOL0     H55324   7.110   0.331   3.827 -0.7432  2.0426  0.3345
  401MOL0     H55325   6.936   0.516   3.847 -1.6503  1.3002 -0.5310
  401MOL0     H55326   6.908   0.720   3.689 -0.0931 -0.5193 -0.3802
  401MOL0     H55327   6.844   0.711   3.525 -2.1357  3.2571  0.1673
  401MOL0     H55328   6.661   0.779   3.768 -1.2410  2.4353  0.5895
  401MOL0     H55329   6.635   0.803   3.594 -0.6843  2.9049  0.6595
  401MOL0     H55330   6.688   0.982   3.766  0.8422 -0.9551  2.9002
  401MOL0     H55331   6.849   0.931   3.759 -1.6663 -0.1466  0.9953
  401MOL0     H55332   6.682   1.020   3.510  0.4147  0.4676 -0.6715
  401MOL0     H55333   6.858   0.983   3.510  1.1983  0.3153  1.3667
  401MOL0     H55334   6.890   1.359   3.693 -0.5402 -1.0236  1.0439
  401MOL0     H55335   6.774   0.402   3.471 -0.1861  3.5507  0.5993
  401MOL0     H55336   7.010   0.254   3.323 -0.3368 -0.9311  0.4215
  401MOL0     H55337   6.957   0.099   3.396 -0.2897  0.3370  0.4157
  401MOL0     H55338   6.847   0.226   3.328  0.7420 -0.6688 -2.5302
  402MOL0     O55339  10.347   1.044   0.102 -0.3307  0.5361  0.1735
  402MOL0     C55340  10.427   1.106   0.027 -0.2273 -1.2179 -0.0495
  402MOL0     O55341  10.414   1.123  -0.103 -0.5779  0.5092 -0.3314
  402MOL0     C55342  10.297   1.091  -0.171 -0.0451  0.0461  0.7650
  402MOL0     C55343  10.162   1.118  -0.123  0.2593  0.0277 -0.5475
  402MOL0     C55344  10.050   1.099  -0.208 -0.2126  0.0997  0.9045
  402MOL0     C55345  10.068   1.052  -0.337  0.5020  0.0986  0.6882
  402MOL0     O55346   9.964   1.044  -0.423  0.9503  0.3632  0.4741
  402MOL0     C55347   9.950   0.920  -0.492  0.5314 -0.0527  0.0913
  402MOL0     C55348   9.953   0.797  -0.403 -0.1215 -0.1370 -0.7542
  402MOL0     C55349   9.818   0.789  -0.322 -0.1061 -0.4220  0.5472
  402MOL0     C55350   9.842   0.678  -0.221 -0.0795  0.5066  0.1883
  402MOL0     C55351   9.923   0.729  -0.105  0.3745  0.2734 -0.6082
  402MOL0     C55352   9.845   0.840  -0.024 -0.0869 -0.1463  0.7195
  402MOL0     C55353   9.904   0.857   0.111 -0.6186 -0.0353  0.0629
  402MOL0     C55354   9.851   0.977   0.189 -0.4085  0.4802  0.5634
  402MOL0     N55355   9.756   0.952   0.296  1.0658 -0.0811  1.2683
  402MOL0     C55356   9.616   0.973   0.277 -0.0833 -0.4606  1.5389
  402MOL0     C55357   9.561   0.939   0.395  0.1303  0.1301 -0.2117
  402MOL0     C55358   9.418   0.939   0.438  0.0531 -0.6441  0.3948
  402MOL0     C55359   9.372   1.073   0.487  0.3612  0.1346  0.0956
  402MOL0     C55360   9.463   1.147   0.586 -0.0142 -0.1878 -0.1597
  402MOL0     C55361   9.416   1.295   0.600 -0.7706  0.8424 -0.1730
  402MOL0     O55362   9.443   1.346   0.733  0.1258  0.0576 -0.1985
  402MOL0     C55363   9.390   1.464   0.781 -0.4926 -0.6693  0.3001
  402MOL0     C55364   9.461   1.539   0.869  0.4343  0.0541 -0.1454
  402MOL0     C55365   9.413   1.665   0.917  0.1477  0.8226  0.0450
  402MOL0     C55366   9.494   1.731   1.030  0.2749 -0.1314  0.3657
  402MOL0     C55367   9.290   1.712   0.875 -0.1412 -1.1214 -0.6767
  402MOL0     C55368   9.234   1.853   0.914  0.6219 -0.1032  0.2453
  402MOL0     O55369   9.100   1.865   0.908 -0.0186 -0.5700  1.2645
  402MOL0     C55370   9.034   1.979   0.926 -0.0699  0.0840 -0.4484
  402MOL0     C55371   8.993   1.996   1.052 -0.4115 -0.4256  0.1328
  402MOL0     C55372   8.936   2.113   1.099 -0.6699 -0.1839  0.1333
  402MOL0     C55373   8.913   2.220   1.008 -0.1528  0.1567 -0.2675
  402MOL0     O55374   8.821   2.318   1.020  0.0755  0.4604  0.0396
  402MOL0     C55375   8.761   2.351   1.154  0.2530  0.0194 -0.2678
  402MOL0     C55376   8.642   2.431   1.128 -0.2587  0.2746 -0.1086
  402MOL0     C55377   8.527   2.336   1.078  1.5821  0.8291  0.2325
  402MOL0     C55378   8.404   2.403   1.015 -0.9222 -0.7632 -0.0844
  402MOL0     C55379   8.284   2.330   1.000 -0.2998  1.0361  0.3158
  402MOL0     C55380   8.202   2.280   1.116  0.5935 -0.1694 -0.4148
  402MOL0     C55381   8.064   2.234   1.069  0.7053  0.0848  0.0327
  402MOL0     C55382   7.999   2.183   1.199 -0.0542 -1.0936  0.2686
  402MOL0    Cl55383   7.824   2.173   1.167  0.1129  0.0376 -0.0310
  402MOL0     C55384   8.959   2.202   0.875  0.8120  0.5437  0.5264
  402MOL0     C55385   9.016   2.079   0.835  0.3196 -0.1054 -0.1491
  402MOL0     O55386   9.311   1.940   0.956 -0.4580  0.3869  0.4306
  402MOL0     C55387   9.228   1.641   0.770  0.2888  0.0791 -0.5133
  402MOL0     C55388   9.270   1.511   0.734 -0.2277  1.0894 -0.4506
  402MOL0     N55389   9.662   0.907   0.484 -0.7001 -0.9198  0.5780
  402MOL0     N55390   9.775   0.933   0.433 -0.5289  0.9437  0.1124
  402MOL0     C55391  10.199   1.025  -0.383  0.6155  0.4453 -0.1004
  402MOL0     C55392  10.311   1.043  -0.296 -0.0169  0.2242 -0.1659
  402MOL0     C55393  10.558   1.131   0.092 -0.8080 -0.4404  0.3727
  402MOL0     C55394  10.674   1.089   0.028 -0.4939  0.1251  0.8094
  402MOL0     C55395  10.797   1.098   0.099 -0.3306 -0.0202  0.0001
  402MOL0     C55396  10.801   1.166   0.225  0.4494  0.2443  0.7819
  402MOL0     O55397  10.916   1.194   0.291  0.0902  0.3037 -0.3562
  402MOL0     C55398  10.999   1.082   0.328 -0.2984 -0.2029  0.2838
  402MOL0     C55399  11.135   1.147   0.376 -0.3101  0.5783 -0.4790
  402MOL0     C55400  11.120   1.243   0.497  0.6216 -0.2980  0.6505
  402MOL0     C55401  11.249   1.324   0.539  0.4856  0.5201  0.9918
  402MOL0     C55402  11.366   1.244   0.577 -0.6608  0.1300 -0.6740
  402MOL0     C55403  11.474   1.187   0.601 -0.4605  0.1070  0.4631
  402MOL0     C55404  10.682   1.212   0.282 -0.5371 -0.1213  1.0509
  402MOL0     C55405  10.560   1.197   0.213 -0.3616 -1.1212 -0.1093
  402MOL0     C55406  10.438   1.275   0.266  0.2247 -0.5004 -0.3379
  402MOL0     H55407  10.137   1.155  -0.024 -0.4790 -1.6635 -0.0664
  402MOL0     H55408   9.945   1.116  -0.185 -0.5194 -0.0551 -0.3385
  402MOL0     H55409  10.022   0.908  -0.573 -1.0270 -0.3364 -1.2922
  402MOL0     H55410   9.852   0.933  -0.538  1.0832  0.1368 -1.0627
  402MOL0     H55411   9.958   0.707  -0.465  0.2562 -0.8016  0.2364
  402MOL0     H55412  10.042   0.789  -0.341  0.2249  2.6762 -0.7614
  402MOL0     H55413   9.796   0.886  -0.275 -1.4048 -0.1995 -0.4608
  402MOL0     H55414   9.738   0.757  -0.389 -1.6104  0.9119  1.6063
  402MOL0     H55415   9.743   0.646  -0.184 -0.5352  2.8142  1.1372
  402MOL0     H55416   9.895   0.593  -0.266 -1.6568  0.0048 -0.8358
  402MOL0     H55417  10.017   0.779  -0.132  0.8584  0.1492  0.7685
  402MOL0     H55418   9.951   0.655  -0.030 -0.2486  1.1648  0.5411
  402MOL0     H55419   9.855   0.938  -0.073  0.7043 -0.8809 -0.6305
  402MOL0     H55420   9.740   0.812  -0.008 -0.5880  2.6639  3.3873
  402MOL0     H55421  10.012   0.869   0.099  0.0662  0.3549  4.7973
  402MOL0     H55422   9.891   0.765   0.169 -1.3358  0.1070  0.1370
  402MOL0     H55423   9.946   1.019   0.225  0.2251  0.2753 -0.8139
  402MOL0     H55424   9.811   1.060   0.130 -0.0888 -0.0242 -0.3773
  402MOL0     H55425   9.569   1.010   0.186  1.3992 -1.7531  0.1958
  402MOL0     H55426   9.391   0.866   0.515 -3.0130  0.1379  0.2249
  402MOL0     H55427   9.360   0.916   0.348 -0.4595  1.1481  0.2355
  402MOL0     H55428   9.350   1.139   0.403 -0.1475  2.1807  1.7497
  402MOL0     H55429   9.276   1.053   0.534  0.7372 -0.8616  0.4698
  402MOL0     H55430   9.460   1.093   0.681  1.0855 -2.5340 -1.3646
  402MOL0     H55431   9.569   1.148   0.560  0.2123  1.9048  0.6693
  402MOL0     H55432   9.467   1.357   0.526  0.0736 -0.7047 -0.9308
  402MOL0     H55433   9.307   1.298   0.589 -0.7119 -0.2859 -1.3530
  402MOL0     H55434   9.552   1.494   0.907  0.7817  1.6809  1.0769
  402MOL0     H55435   9.430   1.740   1.118 -0.1159 -1.5273  0.2587
  402MOL0     H55436   9.531   1.829   0.999 -0.1094  0.0863  0.5832
  402MOL0     H55437   9.580   1.669   1.058  0.5323  1.1703  2.6464
  402MOL0     H55438   9.005   1.909   1.116 -0.1476 -0.0432  0.6066
  402MOL0     H55439   8.901   2.112   1.202 -0.1477  0.2269  0.3205
  402MOL0     H55440   8.755   2.268   1.224  1.1166 -1.0067 -1.3815
  402MOL0     H55441   8.832   2.416   1.205 -0.7092  1.3991 -0.5978
  402MOL0     H55442   8.612   2.486   1.217 -1.4814 -0.0670 -0.2919
  402MOL0     H55443   8.667   2.505   1.051  0.1667  1.3944  1.0800
  402MOL0     H55444   8.499   2.271   1.161  1.0850 -0.0525 -0.5924
  402MOL0     H55445   8.559   2.276   0.992  1.4846 -0.3996  1.0269
  402MOL0     H55446   8.434   2.444   0.918  0.2978  3.5541  1.8640
  402MOL0     H55447   8.376   2.488   1.078  1.1910 -1.5163  2.0003
  402MOL0     H55448   8.216   2.396   0.945 -0.1137 -1.0753 -2.6603
  402MOL0     H55449   8.305   2.239   0.944 -0.7575  2.4461 -2.3532
  402MOL0     H55450   8.204   2.374   1.172  2.3821  1.5622 -3.1456
  402MOL0     H55451   8.260   2.205   1.171  2.7404  2.1978  0.7647
  402MOL0     H55452   8.065   2.162   0.987 -0.5410 -0.0591  0.1208
  402MOL0     H55453   8.000   2.314   1.031 -0.6969  0.1032  2.2513
  402MOL0     H55454   8.004   2.265   1.272 -1.6676  1.1802 -2.0036
  402MOL0     H55455   8.036   2.088   1.240 -0.0714 -1.5790 -0.8085
  402MOL0     H55456   8.942   2.280   0.802 -0.3949  0.1890  0.4066
  402MOL0     H55457   9.057   2.058   0.737  3.1807 -0.3587  1.0295
  402MOL0     H55458   9.134   1.680   0.733  0.2166  0.6521  0.2538
  402MOL0     H55459   9.200   1.450   0.678 -3.1526  3.0343  0.8465
  402MOL0     H55460  10.223   0.981  -0.479  0.9734  1.1227 -0.3282
  402MOL0     H55461  10.414   1.017  -0.316 -0.7189 -1.5941 -1.6624
  402MOL0     H55462  10.681   1.047  -0.072  1.2907 -0.5292  1.1771
  402MOL0     H55463  10.890   1.070   0.049 -0.6960 -0.5133 -0.4150
  402MOL0     H55464  10.946   1.027   0.405 -1.2327 -0.7317 -0.7160
  402MOL0     H55465  11.002   1.010   0.245 -1.4856  0.8903 -0.7599
  402MOL0     H55466  11.183   1.188   0.286  0.1557 -2.0877 -1.5460
  402MOL0     H55467  11.206   1.069   0.406  0.5130  1.3733 -0.3025
  402MOL0     H55468  11.045   1.319   0.473  1.4228 -0.0437 -1.2410
  402MOL0     H55469  11.086   1.183   0.581  1.2515 -1.6241 -0.0039
  402MOL0     H55470  11.224   1.396   0.617  0.1198  0.0724  1.2957
  402MOL0     H55471  11.290   1.367   0.447  0.3216  2.6279  1.8650
  402MOL0     H55472  11.575   1.157   0.622  0.6709  2.7169 -0.8099
  402MOL0     H55473  10.683   1.272   0.373 -0.2350  0.8683  0.4030
  402MOL0     H55474  10.371   1.299   0.182 -0.4789  0.6192  0.5192
  402MOL0     H55475  10.381   1.216   0.338 -0.7084 -1.2752 -1.6536
  402MOL0     H55476  10.469   1.370   0.310 -1.7139 -0.3724  0.8456
  403MOL0     O55477   7.599   3.315   1.508  0.1433  0.1480 -0.2201
  403MOL0     C55478   7.512   3.358   1.438 -0.5582 -0.3113 -0.3308
  403MOL0     O55479   7.486   3.489   1.423 -0.0906 -0.1810 -0.1122
  403MOL0     C55480   7.553   3.600   1.460 -0.2505 -0.0231  0.5886
  403MOL0     C55481   7.486   3.723   1.469  0.1675 -0.1150 -0.0426
  403MOL0     C55482   7.556   3.843   1.493  0.2286  0.8670  0.7732
  403MOL0     C55483   7.694   3.849   1.505  0.3454 -0.4294  0.0129
  403MOL0     O55484   7.758   3.972   1.520 -0.1977  0.8598 -0.4484
  403MOL0     C55485   7.898   3.975   1.536  0.4853 -0.3506  0.1247
  403MOL0     C55486   7.956   4.118   1.540 -0.9377 -0.5497 -0.4698
  403MOL0     C55487   8.105   4.113   1.517 -0.3100 -0.2354  0.5408
  403MOL0     C55488   8.129   4.141   1.363 -0.7080 -0.4362  0.2066
  403MOL0     C55489   8.268   4.182   1.342 -0.2439  0.8495  0.4987
  403MOL0     C55490   8.297   4.261   1.208  0.2952  0.3330 -0.5849
  403MOL0     C55491   8.302   4.175   1.082 -0.1341 -0.2448  0.0984
  403MOL0     C55492   8.413   4.069   1.084  0.2200  0.0684  0.8605
  403MOL0     N55493   8.545   4.128   1.072 -0.5747 -1.1189  0.1294
  403MOL0     C55494   8.592   4.228   0.987 -0.0609 -0.1634  0.8535
  403MOL0     C55495   8.719   4.266   1.025  0.2749 -0.3231  0.2088
  403MOL0     C55496   8.797   4.382   0.962 -0.3861  0.2053  0.4538
  403MOL0     C55497   8.848   4.349   0.817 -0.5288  0.3007 -0.9341
  403MOL0     C55498   8.999   4.400   0.805 -0.0375 -0.2911  0.0559
  403MOL0     C55499   9.037   4.416   0.658 -0.3566 -0.2781 -0.5061
  403MOL0     O55500   9.054   4.289   0.598  0.2341  0.3180 -0.1041
  403MOL0     C55501   9.179   4.225   0.597  0.2776 -0.2674 -0.0600
  403MOL0     C55502   9.165   4.090   0.576 -0.4616  0.1643  0.4152
  403MOL0     C55503   9.269   4.002   0.575  0.4023  0.0403 -0.1181
  403MOL0     C55504   9.236   3.856   0.582 -0.9381  0.4833 -0.7648
  403MOL0     C55505   9.400   4.052   0.565  0.3414 -0.3992 -0.2960
  403MOL0     C55506   9.516   3.967   0.531 -0.4904  0.4955  1.2863
  403MOL0     O55507   9.642   4.007   0.579 -0.1480  0.2258  0.2315
  403MOL0     C55508   9.760   3.936   0.579  1.4848  0.5066  0.3004
  403MOL0     C55509   9.779   3.798   0.551  1.0388 -0.0384  0.0669
  403MOL0     C55510   9.896   3.743   0.581 -0.3851 -0.2185  0.6825
  403MOL0     C55511  10.009   3.815   0.627 -0.2855  0.1736  0.9136
  403MOL0     O55512  10.126   3.748   0.668 -0.0826 -0.1737  0.0517
  403MOL0     C55513  10.193   3.677   0.559  0.6153 -0.5397 -1.0999
  403MOL0     C55514  10.311   3.610   0.623  0.1672 -0.0766  0.0522
  403MOL0     C55515  10.418   3.720   0.657  0.2790  0.1396 -0.0761
  403MOL0     C55516  10.550   3.650   0.703 -0.4490  0.4712  0.6964
  403MOL0     C55517  10.667   3.742   0.722  0.2625  0.3809 -0.8564
  403MOL0     C55518  10.783   3.656   0.776 -0.3210 -0.8238 -0.4189
  403MOL0     C55519  10.901   3.730   0.848  0.3916 -0.3136 -0.0050
  403MOL0     C55520  10.999   3.653   0.928 -0.8731 -0.2929 -0.6654
  403MOL0    Cl55521  10.924   3.593   1.082  0.0720  0.1494 -0.6527
  403MOL0     C55522   9.991   3.954   0.648 -0.8998  1.0193 -0.0837
  403MOL0     C55523   9.870   4.009   0.623 -0.6952  0.8669 -0.5048
  403MOL0     O55524   9.496   3.867   0.465  0.0531  0.5070  0.3062
  403MOL0     C55525   9.424   4.193   0.584  0.1730 -0.3106  0.2406
  403MOL0     C55526   9.311   4.277   0.605  0.8477 -0.0159  0.2094
  403MOL0     N55527   8.754   4.178   1.128 -0.3432 -0.7191  0.3636
  403MOL0     N55528   8.654   4.098   1.148  0.5877  0.1143  0.0149
  403MOL0     C55529   7.757   3.729   1.510 -0.2742  0.4906  0.3959
  403MOL0     C55530   7.694   3.611   1.489  0.3338 -0.3411  1.0386
  403MOL0     C55531   7.396   3.268   1.403  1.0204 -0.9798  0.0466
  403MOL0     C55532   7.290   3.321   1.331  0.0800 -0.4968 -0.0855
  403MOL0     C55533   7.169   3.258   1.313  0.3831  0.4065 -0.3361
  403MOL0     C55534   7.153   3.133   1.358 -0.4701  0.1116 -0.8366
  403MOL0     O55535   7.031   3.074   1.371  0.1374 -0.3563  0.3877
  403MOL0     C55536   6.908   3.150   1.340 -0.4775 -0.2181 -0.4187
  403MOL0     C55537   6.785   3.056   1.354  0.7301  0.2245  0.0419
  403MOL0     C55538   6.765   3.000   1.494 -0.3624  0.0416 -0.9267
  403MOL0     C55539   6.621   2.933   1.495 -0.6497 -0.1116 -0.6320
  403MOL0     C55540   6.624   2.799   1.437 -0.0096 -0.9269  0.3667
  403MOL0     C55541   6.630   2.682   1.415  0.2244  0.5398 -0.0791
  403MOL0     C55542   7.267   3.067   1.411 -0.2734  0.6468 -0.5005
  403MOL0     C55543   7.392   3.132   1.437 -0.4663  0.0838  0.4978
  403MOL0     C55544   7.502   3.044   1.507 -0.0262  1.1615 -0.1333
  403MOL0     H55545   7.379   3.734   1.460 -0.4852 -4.3082  0.2972
  403MOL0     H55546   7.502   3.937   1.488  0.4699  1.3735  4.5140
  403MOL0     H55547   7.952   3.919   1.459  0.6024 -1.8606  1.2537
  403MOL0     H55548   7.924   3.926   1.631  4.5548  1.1576 -0.0194
  403MOL0     H55549   7.900   4.190   1.480  2.6741  1.6051 -1.5518
  403MOL0     H55550   7.931   4.152   1.641 -3.4662  0.9711 -1.5045
  403MOL0     H55551   8.158   4.190   1.574 -0.0586 -0.4491  0.5968
  403MOL0     H55552   8.156   4.024   1.555 -0.8829 -0.3878  0.9682
  403MOL0     H55553   8.103   4.072   1.282  1.1032  1.9792 -2.6524
  403MOL0     H55554   8.066   4.225   1.332  3.3297  2.7227 -0.2796
  403MOL0     H55555   8.331   4.093   1.345  0.3114  1.2316  0.3458
  403MOL0     H55556   8.297   4.253   1.421  0.9883 -0.9024  1.6995
  403MOL0     H55557   8.224   4.342   1.198  2.1313  2.0599 -0.5728
  403MOL0     H55558   8.391   4.311   1.231 -0.6325  1.7429  0.3205
  403MOL0     H55559   8.324   4.239   0.996  1.8164  1.5710  1.8274
  403MOL0     H55560   8.201   4.138   1.065  0.0705 -0.6662 -0.2506
  403MOL0     H55561   8.402   4.009   1.175 -1.7441 -0.7688  0.1076
  403MOL0     H55562   8.398   3.993   1.008  2.1284  0.2941  0.1928
  403MOL0     H55563   8.547   4.249   0.891  2.0427 -2.0338 -0.6184
  403MOL0     H55564   8.887   4.406   1.018  0.5144  1.9656 -1.5944
  403MOL0     H55565   8.734   4.472   0.958 -0.9837 -0.2301 -2.0767
  403MOL0     H55566   8.842   4.244   0.787 -0.9281  1.0979 -3.9765
  403MOL0     H55567   8.772   4.397   0.755 -1.2868  0.9889  0.4720
  403MOL0     H55568   9.012   4.496   0.856 -0.0353  0.3244 -1.0684
  403MOL0     H55569   9.058   4.324   0.855 -1.6777 -1.0503  0.9378
  403MOL0     H55570   8.956   4.462   0.599  1.1174  1.1742 -1.4804
  403MOL0     H55571   9.124   4.481   0.645 -1.1474  0.7842 -0.6785
  403MOL0     H55572   9.061   4.057   0.576 -0.1039 -1.2125 -2.1601
  403MOL0     H55573   9.137   3.841   0.627 -0.5193  0.5614  0.2052
  403MOL0     H55574   9.310   3.796   0.635 -1.6887 -0.1432 -0.3983
  403MOL0     H55575   9.225   3.824   0.478  1.6385 -1.5849 -0.5101
  403MOL0     H55576   9.692   3.742   0.520  1.2031 -0.8907  1.1050
  403MOL0     H55577   9.907   3.636   0.570  0.5210 -0.0119 -0.6165
  403MOL0     H55578  10.127   3.604   0.511  2.6301 -3.6046  0.4798
  403MOL0     H55579  10.222   3.757   0.490 -0.6920  1.3529  0.4470
  403MOL0     H55580  10.296   3.567   0.722  1.5926  1.7427  1.1120
  403MOL0     H55581  10.354   3.542   0.549 -2.8626  0.2901 -2.2573
  403MOL0     H55582  10.374   3.781   0.736 -0.3322  0.9587 -1.0268
  403MOL0     H55583  10.442   3.773   0.564 -1.0826  1.2595  0.1802
  403MOL0     H55584  10.570   3.574   0.627  0.2718  0.4955  0.8563
  403MOL0     H55585  10.518   3.598   0.793 -2.8464 -1.2310 -0.9986
  403MOL0     H55586  10.694   3.781   0.623 -0.7630  5.0021  0.4140
  403MOL0     H55587  10.650   3.822   0.795  1.0551 -0.6125  0.4517
  403MOL0     H55588  10.821   3.594   0.695 -0.2146 -0.7739 -0.4072
  403MOL0     H55589  10.743   3.582   0.846  1.2091 -0.0211  1.3933
  403MOL0     H55590  10.854   3.811   0.905 -2.2238  0.5961 -3.1810
  403MOL0     H55591  10.957   3.774   0.765 -1.0697  1.0018 -0.3427
  403MOL0     H55592  11.088   3.713   0.949  1.1887 -2.6756 -2.0365
  403MOL0     H55593  11.040   3.565   0.877  1.2340 -0.3647  0.9956
  403MOL0     H55594  10.066   4.016   0.696 -1.9307  2.1991  0.0497
  403MOL0     H55595   9.857   4.115   0.642 -1.3495  0.4261  1.8168
  403MOL0     H55596   9.524   4.236   0.577  0.2993 -0.4381  1.0878
  403MOL0     H55597   9.307   4.384   0.623 -2.5989  0.0266 -0.1097
  403MOL0     H55598   7.864   3.710   1.514 -0.1385  1.0797 -0.2124
  403MOL0     H55599   7.743   3.517   1.468 -1.8270 -1.8659  2.3488
  403MOL0     H55600   7.300   3.422   1.292 -2.4118 -0.2063 -0.0923
  403MOL0     H55601   7.099   3.319   1.257  2.6131  1.4296 -2.1937
  403MOL0     H55602   6.902   3.228   1.416  1.8280 -0.2347 -0.1425
  403MOL0     H55603   6.907   3.192   1.239  0.6623  0.9167  0.0112
  403MOL0     H55604   6.809   2.981   1.278  0.2263 -0.3918  0.4699
  403MOL0     H55605   6.694   3.103   1.317  0.8116 -0.5760 -1.2323
  403MOL0     H55606   6.838   2.923   1.521 -4.2323 -3.3407  0.9697
  403MOL0     H55607   6.756   3.078   1.570 -1.0127  3.4002 -4.1638
  403MOL0     H55608   6.549   2.997   1.444 -0.6683  2.5690  2.5010
  403MOL0     H55609   6.584   2.929   1.597 -0.9531  0.7452 -0.7086
  403MOL0     H55610   6.628   2.576   1.402  3.3904  0.4686 -0.7913
  403MOL0     H55611   7.271   2.966   1.451  2.6199  1.4005  1.5002
  403MOL0     H55612   7.592   3.042   1.445 -0.3081  0.9266 -0.5436
  403MOL0     H55613   7.535   3.103   1.593  2.8914 -1.4427  0.6817
  403MOL0     H55614   7.478   2.943   1.541 -0.3424  0.8914 -1.1201
  404MOL0     O55615   6.947   0.349   1.928  0.2934  0.4768  0.1143
  404MOL0     C55616   6.944   0.230   1.915  0.2461 -0.1864  0.5905
  404MOL0     O55617   6.824   0.159   1.877 -0.1071  0.4589 -0.2993
  404MOL0     C55618   6.712   0.231   1.847 -0.2140 -0.0822 -0.4989
  404MOL0     C55619   6.615   0.265   1.946  0.6474  0.3551 -0.3322
  404MOL0     C55620   6.507   0.346   1.917 -0.1182  1.0103 -0.0570
  404MOL0     C55621   6.494   0.400   1.790  0.5458  0.4833  0.2211
  404MOL0     O55622   6.380   0.479   1.779  0.2577  0.6695  0.9227
  404MOL0     C55623   6.365   0.557   1.662 -1.5523 -1.0325 -0.1740
  404MOL0     C55624   6.225   0.624   1.681  0.2697  0.2585 -0.5231
  404MOL0     C55625   6.223   0.744   1.778 -0.5835  0.1603  0.9967
  404MOL0     C55626   6.086   0.800   1.797 -0.1932 -0.2045 -0.4306
  404MOL0     C55627   6.090   0.919   1.887 -0.2075  0.5065  0.4200
  404MOL0     C55628   6.006   1.026   1.843  0.5829 -0.4582  0.1910
  404MOL0     C55629   5.994   1.144   1.937  0.1947 -0.5631  0.5040
  404MOL0     C55630   5.924   1.110   2.071 -0.1490  0.2416 -0.3326
  404MOL0     N55631   5.906   1.220   2.160 -0.9894  0.0157  0.8761
  404MOL0     C55632   5.993   1.329   2.179  0.4223  0.3484  0.0271
  404MOL0     C55633   5.932   1.404   2.268 -0.4523  0.4667 -0.2351
  404MOL0     C55634   5.975   1.538   2.322 -0.2763  0.3893  0.4031
  404MOL0     C55635   6.041   1.518   2.460  1.1698  0.2256 -0.5953
  404MOL0     C55636   6.052   1.630   2.566 -0.8423  0.4510 -0.1204
  404MOL0     C55637   5.928   1.704   2.585  0.0998 -0.5036 -0.1693
  404MOL0     O55638   5.957   1.808   2.683 -0.3998 -0.1697  0.3526
  404MOL0     C55639   5.875   1.918   2.705 -0.4411  0.5822 -0.2270
  404MOL0     C55640   5.818   1.996   2.605 -0.1271 -0.2479 -0.4559
  404MOL0     C55641   5.736   2.108   2.639 -0.1847  0.5848  0.7106
  404MOL0     C55642   5.706   2.200   2.521 -0.0847  0.7159 -0.0688
  404MOL0     C55643   5.699   2.120   2.775  0.1539 -0.3513  0.2923
  404MOL0     C55644   5.601   2.226   2.822 -0.1376 -0.4795  1.2071
  404MOL0     O55645   5.548   2.311   2.718 -0.1628  0.5865 -0.7247
  404MOL0     C55646   5.434   2.392   2.735 -0.3862  0.4515 -0.5460
  404MOL0     C55647   5.416   2.483   2.628 -0.0546  0.3742 -0.8616
  404MOL0     C55648   5.299   2.556   2.615 -0.0851  0.4687  0.7451
  404MOL0     C55649   5.199   2.551   2.701  0.4607 -0.2032  0.0726
  404MOL0     O55650   5.079   2.623   2.697 -0.4407  0.1391  0.4188
  404MOL0     C55651   5.032   2.695   2.580 -0.6010  0.5583  0.3775
  404MOL0     C55652   4.977   2.598   2.474 -0.4048  0.1016 -0.5357
  404MOL0     C55653   4.827   2.569   2.505  0.1745  0.3394 -0.3562
  404MOL0     C55654   4.825   2.441   2.598  0.4723  0.6100  0.3908
  404MOL0     C55655   4.682   2.378   2.616  0.8805 -0.5818 -1.0984
  404MOL0     C55656   4.684   2.229   2.574 -0.1621  0.2663 -0.1360
  404MOL0     C55657   4.716   2.205   2.419  0.4536  1.0189 -0.8933
  404MOL0     C55658   4.678   2.049   2.380 -0.1436  0.9327 -0.1452
  404MOL0    Cl55659   4.755   1.989   2.230 -0.2062 -0.0893  0.3522
  404MOL0     C55660   5.206   2.455   2.806 -0.1596  0.0003  0.4306
  404MOL0     C55661   5.332   2.380   2.817  0.0163 -0.2788 -1.1447
  404MOL0     O55662   5.575   2.238   2.944  0.6309 -0.2858 -0.2955
  404MOL0     C55663   5.743   2.026   2.871  0.0587 -0.5010 -0.3662
  404MOL0     C55664   5.838   1.939   2.837  0.6322 -1.3872  0.2601
  404MOL0     N55665   5.820   1.337   2.315  0.1149  0.2897  0.7020
  404MOL0     N55666   5.798   1.229   2.245 -0.0924  0.1284  0.2387
  404MOL0     C55667   6.585   0.368   1.687  0.1736  0.1152  0.3748
  404MOL0     C55668   6.686   0.266   1.716 -0.4676 -0.0589 -0.5695
  404MOL0     C55669   7.073   0.163   1.952 -0.8331  0.6955  0.8483
  404MOL0     C55670   7.067   0.054   2.042 -0.0153  0.2011 -0.1292
  404MOL0     C55671   7.179   0.010   2.112 -0.1287 -0.7239 -0.1999
  404MOL0     C55672   7.306   0.079   2.083  0.1099  0.2208 -0.9921
  404MOL0     O55673   7.422   0.049   2.146 -0.3989  0.7577 -0.0272
  404MOL0     C55674   7.447  -0.087   2.191 -0.1302 -0.4447  0.1803
  404MOL0     C55675   7.585  -0.075   2.261  0.8523  0.6572  1.4311
  404MOL0     C55676   7.691  -0.035   2.162 -0.3132 -0.8300 -0.2984
  404MOL0     C55677   7.736   0.119   2.150 -0.0812 -0.4487 -0.5415
  404MOL0     C55678   7.780   0.158   2.011 -0.7003 -0.1621 -0.5657
  404MOL0     C55679   7.825   0.185   1.895 -0.1287 -1.0545 -0.4706
  404MOL0     C55680   7.315   0.185   1.988 -0.3300  0.3585 -0.2328
  404MOL0     C55681   7.195   0.227   1.920  0.1478  0.4478  0.3695
  404MOL0     C55682   7.202   0.353   1.828  0.2117 -0.6834  0.2803
  404MOL0     H55683   6.625   0.232   2.048  1.3389  1.1525 -0.1258
  404MOL0     H55684   6.433   0.362   1.995 -1.7001 -0.0035 -1.3024
  404MOL0     H55685   6.366   0.502   1.567 -0.5195 -0.2095 -0.6681
  404MOL0     H55686   6.442   0.634   1.654 -1.9722 -0.4948  0.8609
  404MOL0     H55687   6.188   0.668   1.588 -1.2639 -3.9795 -2.1766
  404MOL0     H55688   6.147   0.550   1.703 -1.9900  2.4594 -0.7431
  404MOL0     H55689   6.263   0.697   1.868  1.8953  2.0785  1.0064
  404MOL0     H55690   6.296   0.821   1.753 -0.3296 -0.4720 -0.2936
  404MOL0     H55691   6.048   0.829   1.699 -0.6991 -1.5292 -0.6485
  404MOL0     H55692   6.027   0.720   1.842 -0.5361  0.6028  0.5942
  404MOL0     H55693   6.188   0.968   1.887 -0.0741  0.2709  1.5430
  404MOL0     H55694   6.073   0.887   1.990  1.5489  0.8721  0.8600
  404MOL0     H55695   6.031   1.062   1.743  3.0270  0.8192  1.1617
  404MOL0     H55696   5.906   0.982   1.852  1.0660 -1.6716 -0.2569
  404MOL0     H55697   5.940   1.218   1.878  0.8525 -1.2690 -1.0453
  404MOL0     H55698   6.096   1.177   1.955  0.4347 -0.3840 -1.1043
  404MOL0     H55699   5.829   1.060   2.050  0.4911 -0.8424 -0.7013
  404MOL0     H55700   5.991   1.038   2.119  0.9803 -0.1468 -2.3932
  404MOL0     H55701   6.078   1.360   2.119  0.2865  0.8273  0.0747
  404MOL0     H55702   5.890   1.606   2.334  0.4722  1.2734  0.9038
  404MOL0     H55703   6.042   1.585   2.250 -1.6763  1.5192 -0.2049
  404MOL0     H55704   5.984   1.437   2.506 -1.0078  0.2923 -2.9314
  404MOL0     H55705   6.141   1.485   2.429  1.2040 -1.5224  1.1906
  404MOL0     H55706   6.086   1.581   2.657  0.7554  0.7702 -0.5171
  404MOL0     H55707   6.135   1.695   2.538  1.1425 -1.4713  1.0315
  404MOL0     H55708   5.892   1.756   2.496 -2.8176  0.2202  1.3109
  404MOL0     H55709   5.853   1.637   2.628  2.1024 -3.7947 -1.4051
  404MOL0     H55710   5.839   1.968   2.503 -1.1921 -3.1921  0.0450
  404MOL0     H55711   5.757   2.294   2.540  0.4344  0.3171  0.5535
  404MOL0     H55712   5.601   2.225   2.499  0.2504  0.6992 -1.8668
  404MOL0     H55713   5.744   2.154   2.429 -2.2986  1.5291 -1.4734
  404MOL0     H55714   5.500   2.497   2.560 -1.6585  0.4204 -2.9425
  404MOL0     H55715   5.305   2.639   2.545 -4.4541  1.0631  0.8042
  404MOL0     H55716   4.952   2.764   2.608 -2.8035 -0.9305 -1.8150
  404MOL0     H55717   5.112   2.751   2.531  0.8679 -1.5771  0.1878
  404MOL0     H55718   4.973   2.626   2.368 -1.8286  1.9434 -0.0681
  404MOL0     H55719   5.044   2.513   2.459  0.0969  0.4124 -0.0685
  404MOL0     H55720   4.772   2.547   2.412  1.0747 -2.9436 -0.2377
  404MOL0     H55721   4.772   2.649   2.556 -0.1275 -1.4965  2.3960
  404MOL0     H55722   4.871   2.455   2.696 -1.1274 -2.3301  1.7018
  404MOL0     H55723   4.889   2.371   2.543 -2.5124 -3.9111  2.0588
  404MOL0     H55724   4.637   2.414   2.709  0.5859 -0.8684 -1.1263
  404MOL0     H55725   4.621   2.428   2.539 -0.7563 -1.0713 -0.1837
  404MOL0     H55726   4.590   2.180   2.600 -0.0908  0.2803  0.1434
  404MOL0     H55727   4.754   2.178   2.641 -2.2635 -2.5096  0.1370
  404MOL0     H55728   4.823   2.213   2.393  0.9356 -0.7796  0.3472
  404MOL0     H55729   4.646   2.268   2.363 -2.6027 -0.5192  1.0021
  404MOL0     H55730   4.570   2.041   2.366 -0.2208  0.8002  0.4823
  404MOL0     H55731   4.712   1.980   2.458  0.3284 -1.0345 -2.0196
  404MOL0     H55732   5.118   2.436   2.866  1.7802  2.4582  4.4608
  404MOL0     H55733   5.341   2.322   2.908 -1.7219  2.3112  0.8504
  404MOL0     H55734   5.714   2.037   2.975  1.8291 -0.0562  0.1079
  404MOL0     H55735   5.881   1.878   2.915 -0.7055  0.6161  2.7144
  404MOL0     H55736   6.561   0.408   1.589 -5.3970  1.1657  1.8288
  404MOL0     H55737   6.755   0.223   1.644  0.6534  0.5736  0.1012
  404MOL0     H55738   6.978  -0.007   2.055  0.6106 -0.3890  1.7228
  404MOL0     H55739   7.179  -0.065   2.190 -0.5673 -0.0012  0.5216
  404MOL0     H55740   7.372  -0.144   2.247  2.4333 -1.8116  2.4633
  404MOL0     H55741   7.464  -0.150   2.104 -1.2514 -1.3455  0.5903
  404MOL0     H55742   7.604  -0.175   2.299 -0.9038 -0.7183 -0.9833
  404MOL0     H55743   7.576  -0.008   2.347  1.0014  0.3461  1.6916
  404MOL0     H55744   7.780  -0.093   2.191  0.7714  0.9152  0.0075
  404MOL0     H55745   7.673  -0.082   2.065 -0.0607 -2.2422  0.3010
  404MOL0     H55746   7.808   0.148   2.227  1.3170  3.4868 -2.9748
  404MOL0     H55747   7.655   0.188   2.175 -3.1635 -4.0745  0.1904
  404MOL0     H55748   7.858   0.206   1.795 -0.1500  1.5766  0.0151
  404MOL0     H55749   7.403   0.247   1.970  0.0823  0.5609  2.2412
  404MOL0     H55750   7.300   0.355   1.780  0.6704 -0.3760  1.2085
  404MOL0     H55751   7.128   0.341   1.748 -0.4482 -4.7745  1.2927
  404MOL0     H55752   7.183   0.447   1.881  4.4334 -0.9582  2.6723
  405MOL0     O55753   2.297   7.801   9.198 -0.1181  0.3235 -0.0619
  405MOL0     C55754   2.404   7.853   9.195  0.4070 -0.2004  0.3776
  405MOL0     O55755   2.457   7.900   9.073 -0.1897 -0.0430  0.0882
  405MOL0     C55756   2.380   7.881   8.962 -0.0697  0.1966  0.1959
  405MOL0     C55757   2.380   7.764   8.885  0.0286 -0.1170 -0.7976
  405MOL0     C55758   2.301   7.748   8.767  0.2622 -0.0870 -0.9345
  405MOL0     C55759   2.217   7.843   8.724 -0.6090 -0.4093 -0.3143
  405MOL0     O55760   2.148   7.813   8.610  0.2762 -0.2650  0.1397
  405MOL0     C55761   2.116   7.921   8.525  1.3609 -0.2190 -0.2520
  405MOL0     C55762   2.040   7.846   8.408  0.5619 -0.5826  0.9982
  405MOL0     C55763   2.007   7.938   8.295  0.4878 -0.2547  0.4328
  405MOL0     C55764   1.892   8.034   8.324  0.7893  0.0780 -0.3719
  405MOL0     C55765   1.888   8.144   8.216  0.5495 -0.4965 -0.5334
  405MOL0     C55766   1.818   8.276   8.262 -0.0115  0.1593  0.4787
  405MOL0     C55767   1.801   8.379   8.159 -0.3070 -0.4425  0.1628
  405MOL0     C55768   1.708   8.490   8.199  0.5699 -0.9847 -0.2470
  405MOL0     N55769   1.745   8.587   8.299 -0.3557  0.4171 -0.0362
  405MOL0     C55770   1.704   8.719   8.302 -0.1532  0.7301  0.0081
  405MOL0     C55771   1.777   8.774   8.402  1.2947 -0.0126  0.2310
  405MOL0     C55772   1.760   8.914   8.445 -0.0160  1.1319  0.2954
  405MOL0     C55773   1.625   8.956   8.500 -0.0260  0.1301 -0.1245
  405MOL0     C55774   1.618   9.076   8.596 -0.3658  0.4367 -0.6164
  405MOL0     C55775   1.482   9.092   8.662  0.7537 -0.1528 -0.6042
  405MOL0     O55776   1.381   9.119   8.558 -0.2039 -0.4513 -0.4685
  405MOL0     C55777   1.247   9.104   8.584 -0.1758  0.6899  0.7125
  405MOL0     C55778   1.192   9.129   8.705  0.5816  0.2163  0.1859
  405MOL0     C55779   1.064   9.085   8.746  0.0938 -0.5017  0.7985
  405MOL0     C55780   1.029   9.109   8.891  0.3537 -0.4367  0.3319
  405MOL0     C55781   0.978   9.027   8.650  0.1953 -0.5404  0.1133
  405MOL0     C55782   0.834   8.993   8.676  0.3000  1.4313  0.2341
  405MOL0     O55783   0.754   9.017   8.577  0.1471 -0.1601  0.1093
  405MOL0     C55784   0.623   8.979   8.578 -0.1455 -0.2688 -0.4475
  405MOL0     C55785   0.577   8.842   8.582  0.0905 -0.1029  0.7322
  405MOL0     C55786   0.440   8.815   8.587 -0.1937  0.3067 -0.0275
  405MOL0     C55787   0.350   8.923   8.593  0.6956 -0.0775  0.9049
  405MOL0     O55788   0.224   8.914   8.585  1.1343  0.1371  1.3149
  405MOL0     C55789   0.160   8.872   8.702  0.9867 -0.2604 -0.9173
  405MOL0     C55790   0.014   8.872   8.668  0.5829  0.4718  0.3098
  405MOL0     C55791  -0.009   8.809   8.528 -0.3384 -0.0656  0.4459
  405MOL0     C55792  -0.148   8.761   8.503 -0.7544 -0.1798 -0.9286
  405MOL0     C55793  -0.169   8.701   8.364 -0.4617  0.1069  0.6920
  405MOL0     C55794  -0.298   8.624   8.348  0.3290  0.3345  0.8303
  405MOL0     C55795  -0.427   8.697   8.354  0.2175 -0.8372 -0.5646
  405MOL0     C55796  -0.505   8.721   8.218  1.1583 -0.0321 -0.4415
  405MOL0    Cl55797  -0.455   8.863   8.134 -0.5997 -0.2657 -0.2350
  405MOL0     C55798   0.396   9.060   8.593 -0.0684  0.6639  0.2418
  405MOL0     C55799   0.529   9.082   8.595 -0.1124  0.3562  0.3235
  405MOL0     O55800   0.798   8.942   8.784  0.2012  0.1996  0.3018
  405MOL0     C55801   1.026   9.015   8.519  0.3890 -0.3879 -0.0742
  405MOL0     C55802   1.161   9.048   8.488 -1.2510  0.0891 -0.6527
  405MOL0     N55803   1.847   8.677   8.466  0.3014 -0.6723 -0.3541
  405MOL0     N55804   1.831   8.572   8.401 -0.8076 -0.0594  0.1273
  405MOL0     C55805   2.211   7.959   8.809 -0.0937  0.0433 -0.0829
  405MOL0     C55806   2.284   7.978   8.925 -0.4483 -0.1675 -0.2979
  405MOL0     C55807   2.477   7.864   9.320 -0.8718 -0.8588 -0.7338
  405MOL0     C55808   2.468   7.752   9.412  0.7270 -0.3237 -0.3708
  405MOL0     C55809   2.537   7.756   9.529 -0.4573 -0.2336 -1.0035
  405MOL0     C55810   2.612   7.865   9.573 -0.5378 -1.1513  0.1000
  405MOL0     O55811   2.677   7.896   9.690 -0.0396  1.1272 -0.1979
  405MOL0     C55812   2.726   7.779   9.761 -0.0311 -0.1266 -1.1641
  405MOL0     C55813   2.807   7.812   9.882 -0.5225 -0.1738 -0.4955
  405MOL0     C55814   2.843   7.681   9.955  0.4155 -0.0492  1.0408
  405MOL0     C55815   2.903   7.717  10.089 -0.6018  0.4252  0.0811
  405MOL0     C55816   2.915   7.611  10.190  0.5508 -0.4471 -0.1977
  405MOL0     C55817   2.903   7.516  10.267  0.1172  0.0720  1.2376
  405MOL0     C55818   2.627   7.972   9.481 -0.4658  0.1799 -0.3692
  405MOL0     C55819   2.565   7.967   9.356 -0.6156  0.5924 -1.1934
  405MOL0     C55820   2.584   8.096   9.266  0.4568 -0.0107  0.2856
  405MOL0     H55821   2.451   7.684   8.904  0.4245  0.4419  0.1412
  405MOL0     H55822   2.308   7.658   8.706  0.5194 -0.2750 -0.6306
  405MOL0     H55823   2.192   7.981   8.476  0.7317  0.6284 -0.2022
  405MOL0     H55824   2.039   7.975   8.581 -1.4803 -3.7169 -0.3465
  405MOL0     H55825   2.107   7.769   8.369  0.0722 -0.3659 -0.3369
  405MOL0     H55826   1.944   7.807   8.444 -0.1964  1.9494  1.8986
  405MOL0     H55827   2.099   7.996   8.285  0.5211  0.5672  4.0955
  405MOL0     H55828   1.985   7.882   8.203  0.4922  1.6696 -0.7995
  405MOL0     H55829   1.798   7.978   8.326  1.8947 -1.9002 -1.0257
  405MOL0     H55830   1.905   8.081   8.421  0.6203  2.6840 -1.5363
  405MOL0     H55831   1.855   8.109   8.118 -0.1205  0.3270 -0.6104
  405MOL0     H55832   1.993   8.174   8.215  0.2860  0.5313  0.7896
  405MOL0     H55833   1.720   8.254   8.305  0.7401 -1.9917  1.2289
  405MOL0     H55834   1.880   8.318   8.341 -1.5872 -0.2175  1.9601
  405MOL0     H55835   1.772   8.320   8.072 -1.9656  0.1792  0.2686
  405MOL0     H55836   1.899   8.423   8.138  0.7448 -1.6824  2.1520
  405MOL0     H55837   1.685   8.551   8.111  3.3070 -0.3718 -0.6177
  405MOL0     H55838   1.616   8.443   8.236  1.7971 -4.0431 -0.7268
  405MOL0     H55839   1.629   8.769   8.241  3.5271  4.2371 -2.1360
  405MOL0     H55840   1.788   8.993   8.374 -0.5038  2.8848  1.9660
  405MOL0     H55841   1.834   8.917   8.526  0.8947 -0.3105 -0.4316
  405MOL0     H55842   1.551   8.970   8.422  1.0678  2.1319 -0.8769
  405MOL0     H55843   1.606   8.865   8.558  1.9810 -0.4847 -0.3333
  405MOL0     H55844   1.693   9.049   8.672 -0.5160 -3.1168 -1.5442
  405MOL0     H55845   1.656   9.168   8.553  0.2397  1.2522  1.5311
  405MOL0     H55846   1.452   9.008   8.725 -3.2008  0.7940 -0.9478
  405MOL0     H55847   1.470   9.178   8.729  1.0355  0.7805 -1.7250
  405MOL0     H55848   1.255   9.172   8.783 -1.2133 -0.6767  2.2563
  405MOL0     H55849   0.925   9.097   8.924  0.1276 -2.3966 -0.8937
  405MOL0     H55850   1.064   9.212   8.898 -0.9275  0.3797 -3.0889
  405MOL0     H55851   1.094   9.037   8.941 -0.9280 -1.1067  1.0901
  405MOL0     H55852   0.651   8.763   8.578 -0.2650 -0.4044 -2.1313
  405MOL0     H55853   0.390   8.719   8.584 -2.8901  1.4607  2.6166
  405MOL0     H55854   0.199   8.771   8.720  1.2809  0.1830  1.1531
  405MOL0     H55855   0.178   8.944   8.782  1.7133  1.3402 -2.4702
  405MOL0     H55856  -0.027   8.806   8.745 -1.7499  0.1756 -1.0855
  405MOL0     H55857  -0.026   8.973   8.678  0.5739  0.4313  0.6929
  405MOL0     H55858   0.061   8.726   8.511 -2.0343 -1.9065  1.9881
  405MOL0     H55859   0.024   8.881   8.453 -0.6064 -2.4490 -2.1499
  405MOL0     H55860  -0.214   8.846   8.523  1.5301  1.7149 -0.9884
  405MOL0     H55861  -0.165   8.683   8.578  0.6905  1.3293  1.0709
  405MOL0     H55862  -0.151   8.774   8.284 -0.8556 -2.1070 -1.5486
  405MOL0     H55863  -0.088   8.629   8.348  0.2703  1.1658 -0.5340
  405MOL0     H55864  -0.309   8.545   8.424 -2.9453  2.7655  3.1674
  405MOL0     H55865  -0.302   8.570   8.253 -0.7354  2.9913 -0.7410
  405MOL0     H55866  -0.413   8.792   8.407 -0.5774 -1.0289  0.0160
  405MOL0     H55867  -0.490   8.631   8.414  0.0970  0.6503  1.0144
  405MOL0     H55868  -0.609   8.742   8.245  1.3195 -0.1633  0.2947
  405MOL0     H55869  -0.500   8.628   8.161  0.5010 -0.3348 -0.0154
  405MOL0     H55870   0.319   9.137   8.591 -1.3637 -0.5948 -1.5476
  405MOL0     H55871   0.570   9.182   8.577  2.7897 -0.3126  2.4225
  405MOL0     H55872   0.956   8.981   8.444  1.0738  1.2766 -1.5184
  405MOL0     H55873   1.190   9.034   8.384 -2.9487  1.5584 -1.3757
  405MOL0     H55874   2.151   8.048   8.790 -0.2769 -0.2607 -1.0048
  405MOL0     H55875   2.264   8.068   8.982 -0.9397 -0.4385 -0.0349
  405MOL0     H55876   2.415   7.665   9.375 -0.8829  1.5096 -2.7057
  405MOL0     H55877   2.521   7.669   9.592 -3.0803  0.7933 -0.1145
  405MOL0     H55878   2.634   7.725   9.784  0.4798 -0.9452 -0.9840
  405MOL0     H55879   2.789   7.709   9.705  1.8746 -0.8615  1.6734
  405MOL0     H55880   2.761   7.885   9.948  0.8598  1.8597 -1.6704
  405MOL0     H55881   2.903   7.851   9.848 -0.5735 -0.0062 -0.4466
  405MOL0     H55882   2.750   7.625   9.967 -0.9458  2.2902  2.3370
  405MOL0     H55883   2.912   7.621   9.895 -0.0224  1.0017 -0.5751
  405MOL0     H55884   2.840   7.793  10.137 -2.5675  1.2909 -3.5451
  405MOL0     H55885   2.999   7.765  10.070 -1.1737  2.0565  1.0940
  405MOL0     H55886   2.906   7.431  10.331  1.5171  1.3406  2.9811
  405MOL0     H55887   2.695   8.056   9.494  1.1181 -1.0968 -0.0681
  405MOL0     H55888   2.498   8.109   9.200 -0.6956 -0.4048  1.6657
  405MOL0     H55889   2.608   8.183   9.328  0.1215 -2.5418  4.3073
  405MOL0     H55890   2.660   8.076   9.190 -1.5885  0.6948 -2.0934
  406MOL0     O55891   1.175   2.309   4.679 -0.9438  0.0041 -0.0069
  406MOL0     C55892   1.074   2.374   4.677  1.0235 -0.7120 -0.4033
  406MOL0     O55893   1.028   2.445   4.788 -0.0351 -0.3015  0.8134
  406MOL0     C55894   1.101   2.425   4.904 -0.8748  0.5902 -0.1534
  406MOL0     C55895   1.204   2.510   4.942  0.1414  0.0693 -0.5491
  406MOL0     C55896   1.264   2.497   5.066 -0.7126 -1.0725 -1.3331
  406MOL0     C55897   1.232   2.380   5.150 -0.0103 -0.1528  0.1518
  406MOL0     O55898   1.286   2.333   5.260 -0.2340 -0.0434  0.2233
  406MOL0     C55899   1.426   2.361   5.261  0.2311 -0.0568 -0.3724
  406MOL0     C55900   1.495   2.246   5.340 -0.1926  0.4150  0.9676
  406MOL0     C55901   1.641   2.283   5.314  0.1760  0.4009 -0.0088
  406MOL0     C55902   1.731   2.212   5.423  0.3103  0.0150  0.3403
  406MOL0     C55903   1.862   2.299   5.436  0.6919  0.2513  0.5785
  406MOL0     C55904   1.954   2.257   5.309  0.0778 -0.8152 -0.7343
  406MOL0     C55905   2.086   2.329   5.326  0.6467  0.5476  0.4391
  406MOL0     C55906   2.204   2.304   5.222 -0.5747  0.7339 -0.6766
  406MOL0     N55907   2.142   2.321   5.086  0.3017  0.0725  0.8499
  406MOL0     C55908   2.090   2.213   5.012  0.1106  1.1176 -1.1340
  406MOL0     C55909   2.054   2.267   4.898 -0.4355  0.7458 -0.4893
  406MOL0     C55910   2.009   2.182   4.783  0.1554  0.7724 -0.4522
  406MOL0     C55911   2.117   2.110   4.706 -0.8417  0.3902 -0.0745
  406MOL0     C55912   2.063   2.016   4.598 -0.1520 -0.2662  0.4311
  406MOL0     C55913   1.980   1.904   4.652  0.5633  0.6315 -0.6680
  406MOL0     O55914   1.960   1.793   4.565 -0.0511  0.1780 -0.2991
  406MOL0     C55915   1.872   1.807   4.462  0.0270 -0.9530  0.7665
  406MOL0     C55916   1.796   1.918   4.439  0.2242 -0.2661 -0.7655
  406MOL0     C55917   1.709   1.931   4.327  0.4180  0.6059 -0.1043
  406MOL0     C55918   1.629   2.057   4.320 -0.3254  0.6061 -0.0050
  406MOL0     C55919   1.707   1.829   4.231  0.2269  0.0328 -0.7530
  406MOL0     C55920   1.629   1.854   4.102 -0.3085  0.3152  0.1011
  406MOL0     O55921   1.646   1.978   4.042 -0.3657  0.9487  0.2342
  406MOL0     C55922   1.619   1.998   3.905  0.5172 -0.2519 -0.9453
  406MOL0     C55923   1.658   2.126   3.865 -0.0548  0.3270  0.1682
  406MOL0     C55924   1.679   2.158   3.735  0.7844  0.9750 -0.5296
  406MOL0     C55925   1.637   2.064   3.632 -0.1909 -0.9002 -0.0839
  406MOL0     O55926   1.638   2.077   3.497 -0.0460 -0.2206 -0.1531
  406MOL0     C55927   1.682   2.206   3.454  1.0504 -0.1312  0.5163
  406MOL0     C55928   1.674   2.197   3.303  0.9517  0.6411 -0.0105
  406MOL0     C55929   1.693   2.335   3.230 -0.5767 -0.1873  0.4426
  406MOL0     C55930   1.727   2.300   3.084  0.1661 -1.3191  0.3053
  406MOL0     C55931   1.693   2.417   2.994 -0.5763 -0.6012  0.1976
  406MOL0     C55932   1.684   2.375   2.850  0.0707  0.4378  0.2213
  406MOL0     C55933   1.810   2.319   2.781 -0.3103 -0.4461  0.1169
  406MOL0     C55934   1.780   2.282   2.634  0.3829  0.7631  0.8410
  406MOL0    Cl55935   1.653   2.174   2.605 -0.4822 -0.2198 -0.0915
  406MOL0     C55936   1.572   1.944   3.672 -0.3374  1.1093  0.2938
  406MOL0     C55937   1.562   1.915   3.810 -0.0006 -0.1969 -0.7545
  406MOL0     O55938   1.558   1.764   4.060 -0.1936 -0.2394 -0.1117
  406MOL0     C55939   1.782   1.716   4.251 -0.0933  0.1973 -0.5770
  406MOL0     C55940   1.865   1.702   4.363  0.6004  1.3656 -0.8027
  406MOL0     N55941   2.099   2.399   4.892  0.7954 -0.4043 -0.2681
  406MOL0     N55942   2.144   2.433   5.010  0.2446  0.1733  0.5250
  406MOL0     C55943   1.124   2.299   5.106  0.1647  0.1897 -0.4071
  406MOL0     C55944   1.061   2.316   4.989 -0.1535  0.2538 -0.3818
  406MOL0     C55945   1.005   2.388   4.546 -0.2741 -0.0742 -0.0067
  406MOL0     C55946   0.886   2.462   4.538 -0.2049 -0.0088 -0.0963
  406MOL0     C55947   0.827   2.501   4.416 -0.1785  0.4608 -0.3716
  406MOL0     C55948   0.880   2.453   4.294  0.0449 -0.3293  0.2293
  406MOL0     O55949   0.822   2.477   4.171  0.1146 -0.6264  0.4609
  406MOL0     C55950   0.706   2.561   4.157  0.4230  0.7754  0.3550
  406MOL0     C55951   0.742   2.714   4.162 -0.4448 -0.0107  0.1122
  406MOL0     C55952   0.834   2.764   4.050 -0.5135 -0.9113 -0.7477
  406MOL0     C55953   0.939   2.672   4.002  0.1942 -0.8655  0.1786
  406MOL0     C55954   1.015   2.725   3.890  0.4092 -0.0292  0.2250
  406MOL0     C55955   1.077   2.786   3.809  0.3299  0.5902  0.4147
  406MOL0     C55956   0.998   2.383   4.301  0.3263 -0.2641 -0.0302
  406MOL0     C55957   1.068   2.348   4.417  0.6309 -0.4224  0.1161
  406MOL0     C55958   1.205   2.279   4.398 -0.2540  0.9535  0.2146
  406MOL0     H55959   1.241   2.577   4.865  0.1729 -2.2984 -2.7544
  406MOL0     H55960   1.341   2.559   5.110 -4.0177  1.6721  1.0978
  406MOL0     H55961   1.431   2.448   5.327 -0.1015 -1.2905  1.3313
  406MOL0     H55962   1.477   2.360   5.164  0.9272  0.6660 -0.0258
  406MOL0     H55963   1.472   2.247   5.447  0.8379  1.7216  1.2126
  406MOL0     H55964   1.466   2.149   5.299  0.1622 -0.4948  2.7616
  406MOL0     H55965   1.669   2.235   5.220 -0.5101  2.1243 -1.1578
  406MOL0     H55966   1.665   2.389   5.304  1.6394  0.2373  1.3287
  406MOL0     H55967   1.694   2.198   5.525  1.0283 -1.6930  0.4011
  406MOL0     H55968   1.757   2.109   5.398  0.9067  0.1194  0.5234
  406MOL0     H55969   1.914   2.265   5.526 -1.0875 -3.3160  0.4499
  406MOL0     H55970   1.852   2.407   5.448 -0.2983 -0.0775  3.5822
  406MOL0     H55971   1.969   2.149   5.308  1.6955 -0.6655  1.0079
  406MOL0     H55972   1.913   2.291   5.213 -0.6910  0.7350  0.1020
  406MOL0     H55973   2.132   2.303   5.422 -1.5002 -1.8288  0.9089
  406MOL0     H55974   2.057   2.435   5.326 -0.5873  0.2265  1.0515
  406MOL0     H55975   2.292   2.361   5.252  0.3773 -0.9880 -0.0430
  406MOL0     H55976   2.236   2.200   5.234  1.6239  1.6321  2.7404
  406MOL0     H55977   2.075   2.112   5.049  0.1217  1.6254  0.3365
  406MOL0     H55978   1.943   2.241   4.718 -1.4489 -1.2347 -0.7760
  406MOL0     H55979   1.935   2.115   4.827 -1.1412  0.7488 -2.4977
  406MOL0     H55980   2.185   2.181   4.658  2.6628 -2.4908  0.1455
  406MOL0     H55981   2.181   2.051   4.772 -1.6509  1.2502  1.5139
  406MOL0     H55982   2.016   2.072   4.517  1.1093  1.4386  0.8141
  406MOL0     H55983   2.151   1.970   4.552  0.0905  1.6369 -1.1488
  406MOL0     H55984   2.031   1.861   4.739 -0.4639 -0.7627 -0.7237
  406MOL0     H55985   1.888   1.952   4.688  1.6488  2.6153 -0.3490
  406MOL0     H55986   1.809   2.006   4.501  0.8454 -0.1766 -1.0167
  406MOL0     H55987   1.530   2.050   4.274 -1.0808  1.1105  1.4654
  406MOL0     H55988   1.690   2.127   4.263  0.5168 -1.6896 -2.0690
  406MOL0     H55989   1.613   2.099   4.420 -2.4385  0.7305 -0.3443
  406MOL0     H55990   1.681   2.205   3.936 -2.2792  0.6340  0.6095
  406MOL0     H55991   1.727   2.249   3.698  0.7382 -0.3299 -4.1687
  406MOL0     H55992   1.620   2.284   3.498  1.2211  0.5879 -0.4818
  406MOL0     H55993   1.784   2.230   3.484  1.4690  0.3202 -1.1516
  406MOL0     H55994   1.747   2.121   3.275  0.4506 -0.3644  1.3181
  406MOL0     H55995   1.575   2.153   3.294  1.0920 -0.0558  1.5004
  406MOL0     H55996   1.773   2.398   3.271 -1.6050  0.7148  1.1090
  406MOL0     H55997   1.600   2.392   3.236 -2.5054 -3.1818  1.3547
  406MOL0     H55998   1.649   2.226   3.060  0.2518 -0.7521 -1.8897
  406MOL0     H55999   1.829   2.264   3.076  0.5433 -0.7611  2.0464
  406MOL0     H56000   1.593   2.454   3.020 -0.3327  0.7686 -0.6922
  406MOL0     H56001   1.763   2.500   3.005 -1.1357 -0.2379  1.2029
  406MOL0     H56002   1.643   2.454   2.787 -0.8029 -2.4186 -3.1210
  406MOL0     H56003   1.604   2.300   2.843 -0.1932  0.8602 -1.8207
  406MOL0     H56004   1.852   2.238   2.840 -1.4184  1.4810  3.9109
  406MOL0     H56005   1.880   2.399   2.755 -0.0964 -0.6921 -0.0732
  406MOL0     H56006   1.865   2.237   2.582 -1.5291 -1.4742 -0.5721
  406MOL0     H56007   1.755   2.373   2.578 -1.3576  0.8616  1.6997
  406MOL0     H56008   1.529   1.867   3.609  0.0208 -0.3695  1.8048
  406MOL0     H56009   1.527   1.821   3.851  1.1862  0.3313  1.6617
  406MOL0     H56010   1.767   1.636   4.180  0.4143  0.9968 -1.6243
  406MOL0     H56011   1.930   1.614   4.370  0.5567  1.4358  2.8413
  406MOL0     H56012   1.090   2.214   5.163 -2.3735  0.2588 -1.6589
  406MOL0     H56013   0.984   2.250   4.950 -0.7728  0.2666  0.7927
  406MOL0     H56014   0.845   2.498   4.632  0.0620 -1.0335  0.4345
  406MOL0     H56015   0.735   2.559   4.426  1.1074  2.4877  0.2707
  406MOL0     H56016   0.653   2.550   4.062  1.9141  3.0124 -0.8059
  406MOL0     H56017   0.631   2.530   4.231 -0.0928 -1.7547 -1.0901
  406MOL0     H56018   0.776   2.741   4.262  3.7114 -0.6280 -0.9632
  406MOL0     H56019   0.653   2.775   4.147  2.4152  4.7246  0.4525
  406MOL0     H56020   0.775   2.780   3.959 -1.9957 -4.0170 -0.4923
  406MOL0     H56021   0.875   2.858   4.087  0.3451 -1.6109  0.1400
  406MOL0     H56022   0.878   2.599   3.948  0.7697 -0.5435 -0.9538
  406MOL0     H56023   0.999   2.636   4.086  0.8551  2.8074  1.4581
  406MOL0     H56024   1.130   2.846   3.737  0.4063  0.1523  0.1024
  406MOL0     H56025   1.029   2.340   4.206  0.1139 -0.4931  0.0002
  406MOL0     H56026   1.200   2.255   4.292 -3.1943 -0.2622  0.5308
  406MOL0     H56027   1.291   2.345   4.409  1.8330 -1.5673 -0.0215
  406MOL0     H56028   1.224   2.190   4.459 -0.4588  1.6531  1.3346
  407MOL0     O56029   6.590   9.963   2.826  0.4765 -0.2931 -0.6852
  407MOL0     C56030   6.672  10.052   2.852 -0.5291  0.6000  0.5481
  407MOL0     O56031   6.738  10.064   2.975 -0.4559 -0.5799  0.7793
  407MOL0     C56032   6.724   9.978   3.082 -0.1575 -0.6189  0.2434
  407MOL0     C56033   6.599   9.939   3.143 -0.7313 -0.3967  0.2783
  407MOL0     C56034   6.595   9.854   3.252 -0.1157 -0.6376  0.0343
  407MOL0     C56035   6.718   9.799   3.293  0.0136 -0.2569  0.3394
  407MOL0     O56036   6.700   9.701   3.379  0.1057 -0.3180 -0.3013
  407MOL0     C56037   6.798   9.678   3.481 -0.9348 -0.2868 -0.2407
  407MOL0     C56038   6.756   9.554   3.570  0.5979 -0.0990  0.4338
  407MOL0     C56039   6.609   9.563   3.611  0.1991 -0.0823 -0.0510
  407MOL0     C56040   6.580   9.658   3.725 -0.3079 -0.2912 -0.5501
  407MOL0     C56041   6.434   9.679   3.749  0.3565 -0.1387 -0.1472
  407MOL0     C56042   6.418   9.774   3.863 -0.9343 -0.6174  1.2127
  407MOL0     C56043   6.272   9.805   3.884  1.0883 -0.4525  0.2891
  407MOL0     C56044   6.246   9.894   4.006 -0.2493 -0.2777 -0.1376
  407MOL0     N56045   6.359   9.987   4.046  0.1620  0.4208 -0.6739
  407MOL0     C56046   6.381  10.111   3.991  0.2570  0.6872 -0.4403
  407MOL0     C56047   6.499  10.155   4.033  0.0018 -0.9646 -0.2396
  407MOL0     C56048   6.579  10.254   3.972 -0.0341  0.2878  0.4622
  407MOL0     C56049   6.646  10.222   3.842  0.5454  0.6906  0.0261
  407MOL0     C56050   6.744  10.116   3.852  0.4397 -0.0102 -0.0527
  407MOL0     C56051   6.819  10.094   3.715 -1.2330 -0.1629 -0.1829
  407MOL0     O56052   6.906   9.977   3.729 -0.5428  0.0024  0.3138
  407MOL0     C56053   7.005   9.956   3.643  0.3160  0.1450 -0.3910
  407MOL0     C56054   7.037  10.033   3.528  0.6359  0.2817  0.4112
  407MOL0     C56055   7.150  10.003   3.443 -0.3573 -0.2441 -0.5007
  407MOL0     C56056   7.172  10.098   3.327  0.6508 -0.9234 -0.1998
  407MOL0     C56057   7.238   9.899   3.476  0.4932 -0.2036  0.1004
  407MOL0     C56058   7.352   9.843   3.397  0.3976  0.0318 -0.8966
  407MOL0     O56059   7.400   9.715   3.415  0.1982  0.8924  0.1743
  407MOL0     C56060   7.515   9.684   3.363 -0.5520  1.2905  0.4967
  407MOL0     C56061   7.617   9.657   3.456 -0.0633 -0.3503  0.0038
  407MOL0     C56062   7.750   9.638   3.410  0.0603  0.1935 -0.1205
  407MOL0     C56063   7.778   9.623   3.273  1.7477 -0.4467  0.2505
  407MOL0     O56064   7.903   9.617   3.223 -0.2167 -0.0359 -0.6897
  407MOL0     C56065   7.925   9.512   3.134  0.1846  0.6091  0.2241
  407MOL0     C56066   8.068   9.497   3.101 -0.0071 -0.3704  0.1608
  407MOL0     C56067   8.132   9.453   3.234  1.1514  0.2544  0.6617
  407MOL0     C56068   8.288   9.472   3.239  0.2001 -0.9820 -0.3300
  407MOL0     C56069   8.347   9.461   3.381  1.0945 -0.7607  0.2233
  407MOL0     C56070   8.499   9.431   3.380 -0.5335  0.3627 -0.2575
  407MOL0     C56071   8.579   9.543   3.320  0.3086 -0.0807 -1.9142
  407MOL0     C56072   8.730   9.508   3.319  0.1798  0.1502 -0.1973
  407MOL0    Cl56073   8.742   9.375   3.205  0.6545  0.6008  0.2479
  407MOL0     C56074   7.664   9.638   3.190 -1.1276  0.1089 -0.5882
  407MOL0     C56075   7.537   9.658   3.233 -1.4684 -1.2414 -0.6864
  407MOL0     O56076   7.407   9.925   3.322 -0.4931 -0.5584 -0.0550
  407MOL0     C56077   7.207   9.837   3.601 -0.4286 -0.1929  0.7117
  407MOL0     C56078   7.092   9.859   3.675  0.3920  0.2502 -0.1511
  407MOL0     N56079   6.540  10.056   4.126 -0.2939 -0.9308 -0.0224
  407MOL0     N56080   6.453   9.963   4.139 -0.0403  0.2015 -0.1053
  407MOL0     C56081   6.844   9.834   3.235 -0.0881  0.1585  0.5660
  407MOL0     C56082   6.838   9.930   3.139 -0.3497 -0.6972  0.1786
  407MOL0     C56083   6.721  10.147   2.748 -0.2367  0.4343 -0.6334
  407MOL0     C56084   6.852  10.203   2.774  0.3598 -0.1973 -0.8581
  407MOL0     C56085   6.907  10.299   2.693  0.0644  0.3463  0.1334
  407MOL0     C56086   6.842  10.331   2.572 -0.3233  0.7591 -0.0821
  407MOL0     O56087   6.887  10.408   2.474 -1.1377  0.8477  0.1522
  407MOL0     C56088   7.034  10.428   2.469  0.3030 -0.7821  0.1413
  407MOL0     C56089   7.057  10.534   2.358 -0.2635  0.0610 -0.0904
  407MOL0     C56090   6.981  10.667   2.381 -0.2778 -0.4160 -0.1889
  407MOL0     C56091   6.990  10.755   2.260 -0.3780 -0.0610 -0.1202
  407MOL0     C56092   7.114  10.820   2.260 -0.4642 -0.4870 -0.7855
  407MOL0     C56093   7.221  10.880   2.257 -0.6191 -0.9025 -0.2329
  407MOL0     C56094   6.718  10.275   2.543 -0.3105  0.1568  0.8998
  407MOL0     C56095   6.662  10.184   2.629 -0.1788 -0.4456 -0.5069
  407MOL0     C56096   6.543  10.106   2.587 -0.1735 -0.4768  0.1362
  407MOL0     H56097   6.505   9.966   3.097 -0.5272 -1.0408 -0.5509
  407MOL0     H56098   6.501   9.821   3.294  1.4166 -1.3965  3.1593
  407MOL0     H56099   6.802   9.768   3.544 -2.5233 -0.3876  0.0492
  407MOL0     H56100   6.896   9.651   3.441 -0.7357 -1.1174  0.7783
  407MOL0     H56101   6.771   9.464   3.509  1.5900  1.3133 -1.5287
  407MOL0     H56102   6.816   9.541   3.660 -2.5322 -1.9337  2.4763
  407MOL0     H56103   6.550   9.586   3.522  0.0036  1.8406  0.5210
  407MOL0     H56104   6.576   9.469   3.657  0.2514 -0.1275 -0.1067
  407MOL0     H56105   6.637   9.622   3.811  1.6897  1.4324 -1.0530
  407MOL0     H56106   6.614   9.761   3.710 -1.2951  0.2890  0.9130
  407MOL0     H56107   6.384   9.587   3.782  0.8754 -0.0400  0.9614
  407MOL0     H56108   6.391   9.719   3.657 -1.0981 -0.7570  0.2282
  407MOL0     H56109   6.461   9.732   3.954 -1.6613 -1.1594  1.3181
  407MOL0     H56110   6.465   9.868   3.833 -1.6667 -0.6472 -0.1018
  407MOL0     H56111   6.223   9.708   3.886 -0.2845  0.0784 -2.4761
  407MOL0     H56112   6.245   9.859   3.793 -0.3129 -0.5626  0.6199
  407MOL0     H56113   6.157   9.954   3.986  1.5917  2.3433 -1.1292
  407MOL0     H56114   6.215   9.833   4.091 -0.9915 -0.0501 -0.2380
  407MOL0     H56115   6.319  10.166   3.921 -0.1612  1.8253  0.7782
  407MOL0     H56116   6.655  10.294   4.040 -0.8916 -0.1131  1.7084
  407MOL0     H56117   6.517  10.341   3.949  1.6391  1.2965 -0.4014
  407MOL0     H56118   6.562  10.194   3.777  2.5881 -0.8607 -2.1044
  407MOL0     H56119   6.685  10.312   3.794 -0.6679  0.2664 -1.8720
  407MOL0     H56120   6.820  10.139   3.928  0.6252 -2.1335  0.4716
  407MOL0     H56121   6.697  10.025   3.890  1.8557 -1.1234 -0.8706
  407MOL0     H56122   6.744  10.068   3.640  1.8732  1.2975 -4.1433
  407MOL0     H56123   6.869  10.187   3.684 -1.9380  0.3353  0.1594
  407MOL0     H56124   6.963  10.107   3.500 -1.1896 -1.7859 -0.5404
  407MOL0     H56125   7.216  10.192   3.364 -2.6472  0.1785  1.2992
  407MOL0     H56126   7.076  10.116   3.278  1.7150  0.6932 -1.8110
  407MOL0     H56127   7.236  10.059   3.248  1.1020  0.0428 -0.3333
  407MOL0     H56128   7.589   9.666   3.561  2.1338 -3.1242  0.9809
  407MOL0     H56129   7.844   9.641   3.464  0.9643  2.0071 -1.6995
  407MOL0     H56130   7.887   9.421   3.180 -0.3580  1.2671  1.1000
  407MOL0     H56131   7.872   9.542   3.043  1.3298  0.3449 -0.5571
  407MOL0     H56132   8.092   9.426   3.021  1.7390  1.0611 -0.6935
  407MOL0     H56133   8.116   9.591   3.070 -2.7598  1.0742 -0.0019
  407MOL0     H56134   8.098   9.352   3.261  0.7493 -0.1621 -1.2637
  407MOL0     H56135   8.094   9.514   3.316 -3.4577 -1.7450  0.2938
  407MOL0     H56136   8.318   9.565   3.189 -0.3934 -1.2250 -1.1626
  407MOL0     H56137   8.332   9.403   3.166  1.5319 -0.4167 -0.0902
  407MOL0     H56138   8.326   9.549   3.441  0.2382 -1.8048  1.5127
  407MOL0     H56139   8.300   9.377   3.433 -1.3884  0.4144  0.0062
  407MOL0     H56140   8.518   9.334   3.333 -1.6844 -0.1390  0.2741
  407MOL0     H56141   8.534   9.432   3.483  0.7727  0.8821 -0.6793
  407MOL0     H56142   8.562   9.624   3.392 -1.9283 -3.1488  1.3787
  407MOL0     H56143   8.544   9.575   3.222 -1.1685 -0.9269 -1.6972
  407MOL0     H56144   8.777   9.480   3.414 -0.1361 -0.1772 -0.1349
  407MOL0     H56145   8.789   9.592   3.281  1.3010  0.7918  2.7151
  407MOL0     H56146   7.685   9.640   3.084  1.7986  1.2740 -0.1051
  407MOL0     H56147   7.460   9.662   3.156 -1.6186  1.8509 -0.5344
  407MOL0     H56148   7.282   9.764   3.633  1.2099 -0.6338 -3.3935
  407MOL0     H56149   7.097   9.804   3.768 -1.0526  0.0726 -0.1562
  407MOL0     H56150   6.937   9.781   3.251  1.0359  1.8000 -0.3121
  407MOL0     H56151   6.927   9.947   3.079 -0.7443  0.7709 -0.0387
  407MOL0     H56152   6.925  10.186   2.852  0.2476  0.1104 -0.6856
  407MOL0     H56153   7.010  10.321   2.720  0.1904  0.3581 -0.3504
  407MOL0     H56154   7.055  10.471   2.567 -2.5187 -1.4795  1.1563
  407MOL0     H56155   7.092  10.338   2.450  1.0886 -0.0529 -1.0429
  407MOL0     H56156   7.019  10.481   2.271  2.0952  0.2897 -1.3349
  407MOL0     H56157   7.163  10.559   2.348 -0.0269 -0.2921  1.2304
  407MOL0     H56158   6.874  10.650   2.394 -0.4047  0.8327  0.5985
  407MOL0     H56159   7.027  10.716   2.468  1.0040 -2.1634  0.1811
  407MOL0     H56160   6.919  10.837   2.272  0.3982  0.8538 -1.5705
  407MOL0     H56161   6.984  10.696   2.168 -0.3154 -1.6958  0.8665
  407MOL0     H56162   7.315  10.930   2.267 -1.6809  0.8571  1.6467
  407MOL0     H56163   6.659  10.300   2.456  1.4941 -1.9886 -1.0713
  407MOL0     H56164   6.516  10.140   2.487  0.8467  3.3817  0.9890
  407MOL0     H56165   6.557   9.998   2.577 -1.4897 -0.5394 -1.3496
  407MOL0     H56166   6.455  10.128   2.648  0.3374  1.1730  0.3322
  408MOL0     O56167   4.078   9.914   5.156  0.0246 -0.5426  0.6994
  408MOL0     C56168   4.139  10.020   5.175 -0.2132  0.8355 -0.4885
  408MOL0     O56169   4.074  10.138   5.212 -0.2326  0.0836 -0.0316
  408MOL0     C56170   3.934  10.143   5.196  0.3201  0.6764 -0.1778
  408MOL0     C56171   3.870  10.145   5.069 -1.1993 -0.0836  0.1147
  408MOL0     C56172   3.740  10.159   5.044 -0.2458 -0.4569 -0.4085
  408MOL0     C56173   3.660  10.168   5.159 -0.0597 -0.5796 -0.0853
  408MOL0     O56174   3.520  10.164   5.163  0.0906 -0.2928 -0.6789
  408MOL0     C56175   3.465  10.050   5.098 -0.4884  0.2896  0.1590
  408MOL0     C56176   3.376  10.095   4.982 -0.5135 -0.4849  0.3517
  408MOL0     C56177   3.358   9.994   4.868  0.1682 -0.1805 -0.1556
  408MOL0     C56178   3.288   9.869   4.905 -0.0789 -0.3487  0.1540
  408MOL0     C56179   3.260   9.799   4.770 -0.0688 -0.2432  1.3383
  408MOL0     C56180   3.372   9.771   4.672 -0.6356  0.5835  1.5861
  408MOL0     C56181   3.316   9.695   4.541  0.0896  0.9773  0.7938
  408MOL0     C56182   3.303   9.545   4.583  0.4546 -0.1856  0.0365
  408MOL0     N56183   3.245   9.459   4.478 -0.1524  0.2934 -0.7221
  408MOL0     C56184   3.122   9.401   4.494 -0.3831 -0.3944  0.1024
  408MOL0     C56185   3.132   9.293   4.408 -0.1179 -0.0221 -0.1801
  408MOL0     C56186   3.021   9.187   4.391  0.5479 -0.2987 -0.3296
  408MOL0     C56187   2.894   9.230   4.328  0.1147 -0.4377 -0.4081
  408MOL0     C56188   2.910   9.254   4.177 -0.7956 -0.4982  0.8190
  408MOL0     C56189   2.946   9.133   4.095 -0.1511 -0.6171 -1.5879
  408MOL0     O56190   2.856   9.027   4.115 -0.6092  0.0278 -0.5864
  408MOL0     C56191   2.737   9.025   4.044  0.0846  0.1130 -0.5160
  408MOL0     C56192   2.624   9.089   4.097  0.3642  0.4787 -0.1524
  408MOL0     C56193   2.503   9.101   4.025  0.0247  0.2329  0.5699
  408MOL0     C56194   2.402   9.185   4.093  0.2947  0.6190 -0.6700
  408MOL0     C56195   2.499   9.035   3.896 -0.8954  0.2842 -0.5668
  408MOL0     C56196   2.392   9.053   3.801 -0.1080  0.1692 -0.2184
  408MOL0     O56197   2.427   9.058   3.662  0.0703  1.0890 -0.0559
  408MOL0     C56198   2.327   9.095   3.577  0.4649 -0.3544  0.0853
  408MOL0     C56199   2.293   9.228   3.558  0.4591 -0.0570 -0.2891
  408MOL0     C56200   2.219   9.265   3.449 -0.3840 -0.1454 -0.0233
  408MOL0     C56201   2.146   9.176   3.373  0.8698 -0.4015 -0.5182
  408MOL0     O56202   2.072   9.213   3.263 -0.3062 -0.3732 -0.0235
  408MOL0     C56203   1.930   9.195   3.268 -0.1185  0.5855 -0.0578
  408MOL0     C56204   1.879   9.315   3.350 -0.3379 -0.2057  0.1801
  408MOL0     C56205   1.724   9.313   3.379 -0.3443 -0.4330  0.0222
  408MOL0     C56206   1.648   9.308   3.248  0.5800 -0.3977 -0.1634
  408MOL0     C56207   1.497   9.295   3.257 -0.2159  0.8766 -0.3208
  408MOL0     C56208   1.445   9.195   3.360 -0.3198  0.6297  0.1610
  408MOL0     C56209   1.301   9.158   3.321  0.5308 -0.2350  0.5347
  408MOL0     C56210   1.245   9.060   3.422 -0.2846  0.2927 -0.4091
  408MOL0    Cl56211   1.062   9.065   3.401  0.1237 -0.1749 -0.0844
  408MOL0     C56212   2.173   9.036   3.405 -0.3331  0.9553  0.1161
  408MOL0     C56213   2.267   8.998   3.505 -0.1219  0.2271  0.1506
  408MOL0     O56214   2.272   9.065   3.841 -0.6060  0.5351  0.1127
  408MOL0     C56215   2.614   8.971   3.847 -0.4911  0.8241 -1.0047
  408MOL0     C56216   2.726   8.960   3.922 -1.2221 -0.2204 -0.2088
  408MOL0     N56217   3.255   9.293   4.338 -0.6235 -0.0000  0.0644
  408MOL0     N56218   3.324   9.381   4.386 -0.6442 -0.0213 -0.1500
  408MOL0     C56219   3.718  10.164   5.287 -0.3319 -0.3623 -0.2692
  408MOL0     C56220   3.860  10.158   5.310  0.3249 -0.0433 -0.1427
  408MOL0     C56221   4.285  10.005   5.181 -0.3788  0.7846 -0.0522
  408MOL0     C56222   4.353  10.121   5.215  0.0418 -0.0335 -0.1113
  408MOL0     C56223   4.496  10.130   5.205 -0.3904  0.5598  0.1436
  408MOL0     C56224   4.578  10.017   5.169 -0.2388 -0.2851 -0.3958
  408MOL0     O56225   4.717  10.000   5.180 -0.7837  0.1646 -0.6567
  408MOL0     C56226   4.793  10.117   5.232 -0.0040  0.1380  0.1725
  408MOL0     C56227   4.942  10.088   5.216 -0.2642  0.2755  0.2978
  408MOL0     C56228   5.025  10.146   5.340  0.2537  0.3634 -0.7264
  408MOL0     C56229   5.170  10.083   5.358  0.4812 -0.0955  0.0048
  408MOL0     C56230   5.245  10.114   5.233  0.2116  0.7099  0.1885
  408MOL0     C56231   5.300  10.146   5.128  0.4421  0.2790  0.7255
  408MOL0     C56232   4.509   9.902   5.149 -0.4372 -0.9672 -0.0278
  408MOL0     C56233   4.367   9.902   5.150 -0.2281  1.2536  0.5494
  408MOL0     C56234   4.310   9.761   5.150  0.0209 -0.7367 -0.1554
  408MOL0     H56235   3.938  10.135   4.985  0.2148  1.3614  1.0110
  408MOL0     H56236   3.708  10.151   4.940  1.9151 -1.5537 -1.0420
  408MOL0     H56237   3.411   9.995   5.176 -1.0303  2.3043  1.2690
  408MOL0     H56238   3.539   9.977   5.063 -1.5352 -1.1956  0.9484
  408MOL0     H56239   3.278  10.121   5.024  0.2356  1.1527  1.1429
  408MOL0     H56240   3.431  10.171   4.927 -0.9450 -3.8103 -5.5393
  408MOL0     H56241   3.294  10.049   4.799  2.4073  3.5303  0.4696
  408MOL0     H56242   3.455   9.976   4.820 -0.6101 -2.0984 -1.0964
  408MOL0     H56243   3.347   9.811   4.977 -0.8325 -0.7265  0.4799
  408MOL0     H56244   3.196   9.909   4.948  0.1166  0.6014 -0.2928
  408MOL0     H56245   3.185   9.856   4.714 -0.1860 -0.9975  0.6950
  408MOL0     H56246   3.204   9.705   4.784 -1.9794  0.3686 -1.2639
  408MOL0     H56247   3.415   9.862   4.629  1.6047 -0.7873  0.7615
  408MOL0     H56248   3.459   9.721   4.714 -0.2288 -0.2064 -0.0792
  408MOL0     H56249   3.377   9.699   4.450  0.0493  1.6617  0.7944
  408MOL0     H56250   3.220   9.741   4.518  0.4870  0.1424 -3.2581
  408MOL0     H56251   3.395   9.498   4.620  0.6672  1.5278  1.8838
  408MOL0     H56252   3.241   9.539   4.672 -0.1346 -1.9193 -0.4567
  408MOL0     H56253   3.049   9.427   4.570 -0.5229  0.5731 -0.3577
  408MOL0     H56254   2.988   9.162   4.492 -0.3021 -1.2295 -0.8197
  408MOL0     H56255   3.053   9.089   4.355  0.3979  0.3621 -2.4084
  408MOL0     H56256   2.811   9.159   4.341 -0.5883  0.3477 -0.5000
  408MOL0     H56257   2.852   9.321   4.372 -1.2718 -0.8472 -0.8210
  408MOL0     H56258   2.816   9.299   4.144  0.8664  1.3209 -1.8620
  408MOL0     H56259   3.000   9.317   4.169  0.1886 -1.7662  1.5228
  408MOL0     H56260   2.950   9.164   3.990 -1.6337 -0.8739 -1.7351
  408MOL0     H56261   3.051   9.117   4.123 -0.6328 -2.3530 -0.5958
  408MOL0     H56262   2.635   9.137   4.194 -1.6062  0.3357  0.1760
  408MOL0     H56263   2.434   9.218   4.193  1.6653 -0.4621 -0.7219
  408MOL0     H56264   2.304   9.138   4.101  0.1766  0.3066 -3.1943
  408MOL0     H56265   2.385   9.279   4.039 -0.9675  0.9221  0.2176
  408MOL0     H56266   2.352   9.300   3.614 -0.6669 -1.8060  3.4506
  408MOL0     H56267   2.211   9.371   3.433 -0.1757  0.0871  1.2600
  408MOL0     H56268   1.884   9.178   3.170 -0.1484 -0.7312  0.1649
  408MOL0     H56269   1.908   9.104   3.324 -1.3218  0.5094 -0.6196
  408MOL0     H56270   1.932   9.310   3.445 -1.6271 -2.4836  0.8351
  408MOL0     H56271   1.900   9.405   3.290 -1.3443  1.7707  2.6255
  408MOL0     H56272   1.701   9.397   3.446  0.6303 -0.4647  0.4184
  408MOL0     H56273   1.688   9.221   3.426 -1.3516  1.0062  2.2442
  408MOL0     H56274   1.670   9.230   3.174 -0.5555 -0.2761 -0.6590
  408MOL0     H56275   1.664   9.402   3.194  3.2718 -1.6097 -1.7040
  408MOL0     H56276   1.461   9.393   3.291 -1.9783  0.5002 -0.9996
  408MOL0     H56277   1.448   9.262   3.165 -1.9093  0.2098  0.7988
  408MOL0     H56278   1.451   9.236   3.461 -0.4127 -1.0875  0.8992
  408MOL0     H56279   1.512   9.108   3.360 -0.9695  0.1274 -0.3984
  408MOL0     H56280   1.307   9.119   3.219 -2.3628 -1.7787  0.8598
  408MOL0     H56281   1.241   9.250   3.325  2.7960  1.2919  2.0192
  408MOL0     H56282   1.261   9.085   3.528  1.1140 -2.3131  0.0728
  408MOL0     H56283   1.288   8.959   3.420 -1.3511 -0.3943  3.1612
  408MOL0     H56284   2.124   8.954   3.353  0.0951 -0.0486  1.2682
  408MOL0     H56285   2.293   8.896   3.532 -0.2706 -0.5662 -2.4575
  408MOL0     H56286   2.614   8.910   3.757 -1.7081 -4.0365  1.8761
  408MOL0     H56287   2.812   8.910   3.880 -0.6589  1.7323 -1.4930
  408MOL0     H56288   3.652  10.169   5.374 -0.3097  2.8932 -0.3241
  408MOL0     H56289   3.911  10.158   5.405  2.3238  1.2358 -1.1396
  408MOL0     H56290   4.303  10.208   5.257  0.8734  0.5997 -0.4079
  408MOL0     H56291   4.551  10.218   5.235  1.4993  0.1442 -1.9060
  408MOL0     H56292   4.768  10.211   5.181 -2.0657 -0.0166  0.7905
  408MOL0     H56293   4.764  10.116   5.337  0.9728 -3.0586  0.5168
  408MOL0     H56294   4.972  10.133   5.121 -1.4856 -0.2370 -0.3558
  408MOL0     H56295   4.946   9.980   5.196 -0.6823  0.3023  0.0383
  408MOL0     H56296   5.033  10.254   5.327 -1.7022  0.4012 -2.0494
  408MOL0     H56297   4.978  10.127   5.438 -2.5757  1.3310 -1.7881
  408MOL0     H56298   5.166   9.974   5.367 -0.3830 -0.1024 -0.3791
  408MOL0     H56299   5.205  10.130   5.450  0.1685  1.2021 -0.5232
  408MOL0     H56300   5.346  10.145   5.031  0.2156 -2.9021  0.5436
  408MOL0     H56301   4.560   9.808   5.130  0.5139  0.0960 -3.5736
  408MOL0     H56302   4.257   9.758   5.055  1.1717  0.8329 -0.8988
  408MOL0     H56303   4.380   9.676   5.148 -1.4336 -1.9576 -1.5232
  408MOL0     H56304   4.242   9.755   5.236 -2.9551  3.3449 -1.9014
  409MOL0     O56305   0.342   8.687   6.228  0.3311 -0.3446  0.5418
  409MOL0     C56306   0.389   8.584   6.185  1.5948 -0.1832 -1.2319
  409MOL0     O56307   0.338   8.456   6.228 -0.1788 -0.6020 -0.4325
  409MOL0     C56308   0.213   8.436   6.290 -0.0409 -0.1231 -0.1628
  409MOL0     C56309   0.100   8.509   6.264 -0.5368  0.6475 -0.2168
  409MOL0     C56310  -0.027   8.477   6.327 -0.7081  0.0180  0.9112
  409MOL0     C56311  -0.029   8.382   6.428  0.0642 -0.2408  0.4787
  409MOL0     O56312  -0.148   8.373   6.486  0.0738  0.5751  0.5528
  409MOL0     C56313  -0.146   8.321   6.624 -0.6173 -0.0009 -0.8706
  409MOL0     C56314  -0.280   8.323   6.690  0.3744  0.3629 -0.9266
  409MOL0     C56315  -0.334   8.460   6.724 -1.1369 -0.4081 -1.1035
  409MOL0     C56316  -0.486   8.445   6.769 -1.5218  0.3261 -0.3620
  409MOL0     C56317  -0.522   8.565   6.841 -0.1373 -0.0882  0.1542
  409MOL0     C56318  -0.474   8.701   6.778 -0.2030 -0.0531  0.7263
  409MOL0     C56319  -0.523   8.823   6.850  0.3702 -0.5236 -0.2501
  409MOL0     C56320  -0.448   8.844   6.981  0.4318 -0.2571  0.5824
  409MOL0     N56321  -0.460   8.982   7.031 -0.1568 -0.2679  0.3042
  409MOL0     C56322  -0.572   9.060   7.016  0.2385 -0.3726 -0.5800
  409MOL0     C56323  -0.528   9.185   7.039  0.2978 -0.3842 -0.0642
  409MOL0     C56324  -0.619   9.307   7.055 -0.5356 -0.4912  1.1401
  409MOL0     C56325  -0.541   9.426   6.979  0.0307  0.2220  0.4129
  409MOL0     C56326  -0.584   9.559   7.034  0.0028  0.9322  0.6910
  409MOL0     C56327  -0.506   9.669   6.957  0.8364  0.0009  0.0789
  409MOL0     O56328  -0.601   9.690   6.843  0.0744 -0.3545 -0.1704
  409MOL0     C56329  -0.608   9.813   6.786 -0.0133  0.8854  0.2721
  409MOL0     C56330  -0.741   9.846   6.754 -0.5690 -0.6165 -0.1557
  409MOL0     C56331  -0.776   9.979   6.718  0.5330  0.4368 -1.0526
  409MOL0     C56332  -0.925  10.007   6.692  0.5380 -0.2364  0.5732
  409MOL0     C56333  -0.669  10.073   6.698  0.4434  0.3099  0.0768
  409MOL0     C56334  -0.696  10.213   6.652  0.0618  0.5694  0.1319
  409MOL0     O56335  -0.821  10.257   6.657 -0.1056 -0.1355  0.2820
  409MOL0     C56336  -0.875  10.316   6.541  0.6496 -1.0523 -0.2198
  409MOL0     C56337  -1.009  10.366   6.553  0.6228  0.0227  0.4721
  409MOL0     C56338  -1.081  10.422   6.439 -0.4373  0.4062  0.2824
  409MOL0     C56339  -1.012  10.457   6.327  0.1861 -0.0364 -0.3305
  409MOL0     O56340  -1.092  10.529   6.233  0.0878  0.4367  0.7063
  409MOL0     C56341  -1.043  10.619   6.140  1.0861 -0.2249  0.5555
  409MOL0     C56342  -1.116  10.616   6.004  0.2434  0.7380  0.2264
  409MOL0     C56343  -1.268  10.638   6.021 -0.1901 -0.0301  0.4074
  409MOL0     C56344  -1.302  10.784   5.988 -0.5439  0.9301  0.6184
  409MOL0     C56345  -1.456  10.793   5.978 -0.0892 -0.5429 -0.2889
  409MOL0     C56346  -1.511  10.935   5.993 -0.2099 -0.3924 -0.0715
  409MOL0     C56347  -1.499  10.985   6.141  0.2143  0.4678 -0.1903
  409MOL0     C56348  -1.541  11.126   6.166 -0.2618 -1.8059  0.1612
  409MOL0    Cl56349  -1.713  11.143   6.139  0.1238 -0.1339  0.2288
  409MOL0     C56350  -0.874  10.422   6.322 -0.2086 -0.1854  0.6731
  409MOL0     C56351  -0.817  10.350   6.418 -0.0654  0.2787  0.5365
  409MOL0     O56352  -0.594  10.276   6.612  0.3353  0.2397  0.1367
  409MOL0     C56353  -0.534  10.031   6.724 -0.2077 -0.5475  0.4254
  409MOL0     C56354  -0.501   9.906   6.779 -0.2711  0.3170 -0.5581
  409MOL0     N56355  -0.387   9.184   7.048  0.1529  0.2323  0.1080
  409MOL0     N56356  -0.350   9.059   7.044  0.1062  0.2303 -0.2749
  409MOL0     C56357   0.085   8.303   6.447 -0.2977 -0.0953 -0.4581
  409MOL0     C56358   0.206   8.329   6.383 -0.5255 -0.1557  0.5268
  409MOL0     C56359   0.508   8.600   6.091 -0.5373  0.0431 -0.7737
  409MOL0     C56360   0.549   8.481   6.039 -0.8413 -0.5308 -0.4918
  409MOL0     C56361   0.655   8.487   5.960  0.4361  0.7267 -0.1328
  409MOL0     C56362   0.731   8.599   5.928  0.1558  0.1536 -0.4837
  409MOL0     O56363   0.819   8.584   5.825  0.2831  0.0531 -0.0037
  409MOL0     C56364   0.959   8.618   5.850  0.5905  0.0830  0.2985
  409MOL0     C56365   1.035   8.501   5.908 -0.5153  0.4397  0.3382
  409MOL0     C56366   1.087   8.383   5.812 -0.5166 -0.1981 -0.0432
  409MOL0     C56367   0.968   8.298   5.760  0.5330  0.3625 -0.0812
  409MOL0     C56368   0.896   8.219   5.871 -1.1645 -0.3720 -0.1548
  409MOL0     C56369   0.833   8.176   5.966  0.4258  0.3306  0.1008
  409MOL0     C56370   0.693   8.716   5.987  0.1942 -0.8688  0.6459
  409MOL0     C56371   0.579   8.719   6.066  0.5244 -0.2091  0.0541
  409MOL0     C56372   0.541   8.860   6.103  1.0688  0.8111 -0.0361
  409MOL0     H56373   0.106   8.584   6.186  0.1650 -0.1677 -0.9755
  409MOL0     H56374  -0.114   8.533   6.296 -0.3163  0.6436  0.9196
  409MOL0     H56375  -0.072   8.378   6.681  1.5664 -1.3610 -2.2005
  409MOL0     H56376  -0.119   8.215   6.621 -0.2677  0.0493  0.1336
  409MOL0     H56377  -0.343   8.280   6.612 -0.4095 -0.3129  0.0439
  409MOL0     H56378  -0.291   8.246   6.767 -0.0281 -0.7300 -2.0610
  409MOL0     H56379  -0.277   8.505   6.806 -0.8741  0.5954 -1.8068
  409MOL0     H56380  -0.321   8.522   6.635 -2.1887 -1.2536 -1.8801
  409MOL0     H56381  -0.545   8.429   6.679 -0.8895  0.1334 -0.7428
  409MOL0     H56382  -0.491   8.354   6.830  4.5256 -2.4450 -3.1505
  409MOL0     H56383  -0.491   8.555   6.945 -1.6113  1.1203  0.7331
  409MOL0     H56384  -0.631   8.557   6.841 -0.0093 -2.5568 -0.0138
  409MOL0     H56385  -0.366   8.720   6.772  0.5167 -3.0568  1.9800
  409MOL0     H56386  -0.515   8.715   6.678  0.3889  3.0788  0.8398
  409MOL0     H56387  -0.628   8.823   6.882  0.1965 -0.7851 -0.7975
  409MOL0     H56388  -0.514   8.919   6.798 -0.2475 -0.4408 -0.2068
  409MOL0     H56389  -0.484   8.777   7.060 -0.1885  1.2130  1.5820
  409MOL0     H56390  -0.342   8.825   6.960  0.1773  0.2499 -1.3960
  409MOL0     H56391  -0.674   9.027   6.998 -0.1652  1.0295 -1.0213
  409MOL0     H56392  -0.632   9.332   7.161  3.7135 -0.5718  1.8559
  409MOL0     H56393  -0.712   9.271   7.011  1.1899 -5.3853  0.9307
  409MOL0     H56394  -0.434   9.418   6.996  0.0297  1.2551  1.0054
  409MOL0     H56395  -0.561   9.436   6.872 -2.3762  4.2497  1.0011
  409MOL0     H56396  -0.693   9.568   7.033 -0.4736 -2.9796 -1.1503
  409MOL0     H56397  -0.562   9.572   7.140 -0.0750 -2.9054  1.3080
  409MOL0     H56398  -0.491   9.759   7.018  2.1182 -1.6720  2.3990
  409MOL0     H56399  -0.409   9.631   6.925  2.6350  2.1465  2.5232
  409MOL0     H56400  -0.821   9.775   6.771 -1.0653 -0.6563 -2.3527
  409MOL0     H56401  -0.984   9.916   6.677  0.0408  0.3334 -1.1094
  409MOL0     H56402  -0.934  10.059   6.597 -0.1364 -0.9832  0.2188
  409MOL0     H56403  -0.966  10.075   6.768  0.9051  0.8505 -0.1852
  409MOL0     H56404  -1.055  10.357   6.651 -2.0373 -1.6168 -0.8096
  409MOL0     H56405  -1.186  10.451   6.440 -1.3479 -2.5288 -0.9876
  409MOL0     H56406  -1.028  10.715   6.191  2.4423  0.1764 -0.5481
  409MOL0     H56407  -0.941  10.585   6.116  1.4521  1.1354  0.1220
  409MOL0     H56408  -1.074  10.694   5.939  1.2321 -0.3503 -0.4929
  409MOL0     H56409  -1.114  10.520   5.952 -3.3048  0.1726  0.8853
  409MOL0     H56410  -1.309  10.620   6.121  0.3929  2.5094  1.1865
  409MOL0     H56411  -1.332  10.577   5.956 -1.8833 -0.4702  2.3733
  409MOL0     H56412  -1.255  10.802   5.890 -1.7499 -1.2431 -0.4329
  409MOL0     H56413  -1.261  10.852   6.063  1.7493  0.2093  0.1182
  409MOL0     H56414  -1.492  10.756   5.881 -1.2086 -0.9862  0.2713
  409MOL0     H56415  -1.505  10.727   6.050  2.4679 -1.7754  0.4313
  409MOL0     H56416  -1.613  10.932   5.954 -0.1790  2.6017 -0.6576
  409MOL0     H56417  -1.470  11.014   5.930 -0.3553 -0.2112  0.0587
  409MOL0     H56418  -1.395  10.975   6.173 -0.6295  0.4926  2.8964
  409MOL0     H56419  -1.563  10.926   6.208  0.5254 -0.8164 -0.9913
  409MOL0     H56420  -1.477  11.182   6.098 -1.1681  0.1359  0.8468
  409MOL0     H56421  -1.511  11.156   6.267 -2.0081 -0.4499  0.3238
  409MOL0     H56422  -0.829  10.431   6.223 -0.2562 -0.5241  0.6201
  409MOL0     H56423  -0.722  10.302   6.397  1.4007  0.1317  5.9244
  409MOL0     H56424  -0.455  10.100   6.700  0.6667 -1.9531 -0.8829
  409MOL0     H56425  -0.399   9.876   6.799 -0.0044  2.6433  2.1423
  409MOL0     H56426   0.080   8.211   6.504 -0.7575 -0.2760 -0.7890
  409MOL0     H56427   0.288   8.258   6.392 -0.1441  0.5964  4.6079
  409MOL0     H56428   0.500   8.387   6.062 -0.9501 -1.0887 -2.7671
  409MOL0     H56429   0.678   8.389   5.920  1.9598  0.1380  2.0221
  409MOL0     H56430   1.005   8.648   5.755 -2.1670 -2.1755 -1.9334
  409MOL0     H56431   0.970   8.697   5.925 -1.3882  1.7691 -1.0487
  409MOL0     H56432   0.973   8.449   5.981  0.5036 -0.2922  0.7163
  409MOL0     H56433   1.116   8.549   5.963 -0.1892 -2.8288  3.0627
  409MOL0     H56434   1.145   8.414   5.725  1.0862 -0.8790  0.7571
  409MOL0     H56435   1.150   8.311   5.864 -1.7376 -2.0145 -0.9547
  409MOL0     H56436   1.020   8.230   5.692  2.0864 -0.7952  2.1440
  409MOL0     H56437   0.899   8.356   5.699  2.1756 -0.2081 -2.6083
  409MOL0     H56438   0.767   8.125   6.034  2.0911  0.8822  2.2313
  409MOL0     H56439   0.749   8.804   5.959 -4.4862  2.8521  1.6908
  409MOL0     H56440   0.446   8.880   6.052 -0.3894 -0.7824  1.9122
  409MOL0     H56441   0.515   8.858   6.209 -0.6323  2.0225 -0.3893
  409MOL0     H56442   0.620   8.930   6.076  2.6688 -0.4485  1.1917
  410MOL0     O56443  11.267   1.187   7.632  0.1867  0.1845  0.4349
  410MOL0     C56444  11.358   1.107   7.661  0.2940  0.0622 -0.3964
  410MOL0     O56445  11.452   1.129   7.758 -0.2827 -0.2573  0.0528
  410MOL0     C56446  11.468   1.262   7.793 -0.1968 -0.2773  0.2755
  410MOL0     C56447  11.598   1.304   7.792 -0.3954  0.2461  0.5740
  410MOL0     C56448  11.632   1.428   7.840 -0.8633  0.0594  1.0123
  410MOL0     C56449  11.539   1.506   7.899 -0.5627 -0.1589 -0.7196
  410MOL0     O56450  11.562   1.634   7.948 -0.2101  0.0422 -0.8000
  410MOL0     C56451  11.661   1.712   7.888 -0.9730 -0.4256  0.2056
  410MOL0     C56452  11.680   1.835   7.969  0.1380 -0.1921 -1.2009
  410MOL0     C56453  11.815   1.910   7.937 -0.0125  0.2090  0.2232
  410MOL0     C56454  11.817   1.968   7.793  0.4475  1.1442  0.1927
  410MOL0     C56455  11.955   2.040   7.785  1.0988 -1.1133  0.0778
  410MOL0     C56456  11.958   2.065   7.633  0.4189  0.0281 -0.3884
  410MOL0     C56457  12.056   2.169   7.592 -1.1829  0.3205 -0.5279
  410MOL0     C56458  12.045   2.234   7.449  0.4181  0.0861 -0.4513
  410MOL0     N56459  12.083   2.140   7.345  0.1696  0.7142 -0.3008
  410MOL0     C56460  12.213   2.082   7.335  0.6157  0.0650 -0.1405
  410MOL0     C56461  12.205   2.002   7.223  0.1056  0.4021 -0.3212
  410MOL0     C56462  12.306   1.924   7.139  0.1673  0.4285 -1.2164
  410MOL0     C56463  12.256   1.905   6.991 -0.1310  0.1849 -0.1529
  410MOL0     C56464  12.247   2.022   6.891  0.1543  0.1687  0.4951
  410MOL0     C56465  12.377   2.094   6.873  0.0965 -0.4123 -0.5071
  410MOL0     O56466  12.355   2.205   6.789  0.0940 -0.7501 -0.9449
  410MOL0     C56467  12.398   2.332   6.818 -0.3263 -0.8053 -0.5800
  410MOL0     C56468  12.315   2.445   6.812  0.0917  0.3800  0.2131
  410MOL0     C56469  12.357   2.574   6.834 -0.0238  0.2820  0.5240
  410MOL0     C56470  12.244   2.670   6.855  0.7068  0.3608  0.4261
  410MOL0     C56471  12.498   2.596   6.840  0.2035 -0.4703  0.6609
  410MOL0     C56472  12.552   2.739   6.867 -0.8191  0.5592  1.1955
  410MOL0     O56473  12.685   2.745   6.884 -0.4687  0.7008 -0.4122
  410MOL0     C56474  12.733   2.847   6.965  0.5740  0.1667  0.4597
  410MOL0     C56475  12.698   2.898   7.090 -0.0850  0.0983  0.6932
  410MOL0     C56476  12.771   2.994   7.158 -0.0179  0.2101  0.0633
  410MOL0     C56477  12.895   3.039   7.112 -0.7669 -0.5335  0.6546
  410MOL0     O56478  12.968   3.138   7.173 -0.0862  0.5471 -1.0758
  410MOL0     C56479  12.997   3.119   7.311 -0.2213 -0.5121  0.1876
  410MOL0     C56480  13.143   3.141   7.345  0.3370 -0.3892 -0.0184
  410MOL0     C56481  13.232   3.036   7.275 -0.0394  0.5284 -0.5075
  410MOL0     C56482  13.381   3.055   7.306  0.3808 -0.6602  1.0539
  410MOL0     C56483  13.412   3.033   7.449 -0.0094 -0.1348 -0.6849
  410MOL0     C56484  13.423   3.171   7.523  0.6112  0.8251 -0.0190
  410MOL0     C56485  13.511   3.158   7.650 -0.7443  0.5882  0.6188
  410MOL0     C56486  13.529   3.294   7.701 -1.0199  0.4654 -0.0350
  410MOL0    Cl56487  13.592   3.268   7.863  0.2594 -0.1431  0.0044
  410MOL0     C56488  12.929   2.994   6.986  0.5516  0.0506  0.1818
  410MOL0     C56489  12.850   2.900   6.913  0.0130 -0.6090 -0.7872
  410MOL0     O56490  12.474   2.822   6.895 -0.0021 -0.2345  0.5849
  410MOL0     C56491  12.586   2.486   6.830  0.5868 -1.1977 -0.7940
  410MOL0     C56492  12.538   2.361   6.823 -0.6185  0.2471  0.2532
  410MOL0     N56493  12.078   2.014   7.174 -0.7325  0.4373 -0.6965
  410MOL0     N56494  12.005   2.099   7.239 -0.3572 -0.7508  0.1944
  410MOL0     C56495  11.413   1.446   7.931 -0.2357 -1.2520 -0.3743
  410MOL0     C56496  11.375   1.333   7.879  0.2678 -0.1011 -0.2627
  410MOL0     C56497  11.355   0.968   7.613  0.8353 -0.0943 -0.4665
  410MOL0     C56498  11.316   0.862   7.700 -0.1296 -0.2961 -0.1902
  410MOL0     C56499  11.303   0.743   7.653  0.9549  0.3475 -0.0505
  410MOL0     C56500  11.328   0.714   7.516  0.0932 -0.0157  0.1814
  410MOL0     O56501  11.332   0.584   7.464 -0.1123 -0.1330  0.4213
  410MOL0     C56502  11.223   0.546   7.376  0.1728  1.1156  0.2554
  410MOL0     C56503  11.232   0.393   7.384 -0.6105 -0.2264 -0.2692
  410MOL0     C56504  11.171   0.346   7.516  0.8537 -0.4023  0.3131
  410MOL0     C56505  11.180   0.192   7.502 -0.9315 -0.4090 -0.6521
  410MOL0     C56506  11.128   0.121   7.617  0.0919 -1.3092 -0.3698
  410MOL0     C56507  11.074   0.081   7.711 -0.5991  0.1359  0.4721
  410MOL0     C56508  11.381   0.815   7.430  0.4523  1.1022 -0.1659
  410MOL0     C56509  11.394   0.947   7.479  0.0821  0.7755  0.6970
  410MOL0     C56510  11.452   1.057   7.389 -0.1167 -0.2374  0.5392
  410MOL0     H56511  11.673   1.236   7.753  1.0939  0.3459  3.0620
  410MOL0     H56512  11.730   1.474   7.833 -0.3633 -0.9447  1.1636
  410MOL0     H56513  11.638   1.725   7.781  1.2890 -2.3506 -0.5997
  410MOL0     H56514  11.764   1.676   7.889  0.2910  2.6837 -2.0356
  410MOL0     H56515  11.591   1.898   7.973  1.5392  1.7979  0.4421
  410MOL0     H56516  11.683   1.808   8.075  1.1567  3.8747 -0.0208
  410MOL0     H56517  11.815   2.000   7.998  2.8179  2.2008 -2.4003
  410MOL0     H56518  11.907   1.852   7.949  0.6364  0.5342 -2.5042
  410MOL0     H56519  11.819   1.883   7.724 -2.5210 -0.3600  1.7644
  410MOL0     H56520  11.729   2.032   7.779  0.3392  0.7735 -0.9252
  410MOL0     H56521  12.036   1.976   7.821  1.5431 -0.6283 -0.0471
  410MOL0     H56522  11.962   2.135   7.839  2.5072 -0.1640 -1.6750
  410MOL0     H56523  11.976   1.972   7.577 -0.1011  0.0972 -0.6717
  410MOL0     H56524  11.862   2.097   7.594  0.9143  1.5746 -0.3830
  410MOL0     H56525  12.159   2.134   7.608 -0.2475  3.3158  0.7489
  410MOL0     H56526  12.032   2.255   7.655  2.9424 -0.3833  2.4221
  410MOL0     H56527  11.940   2.263   7.440 -0.0161 -1.6138 -1.1523
  410MOL0     H56528  12.102   2.326   7.435 -0.7185  0.7501 -0.8110
  410MOL0     H56529  12.299   2.109   7.396 -0.4942  1.4021  0.9240
  410MOL0     H56530  12.315   1.825   7.184 -0.3385  0.6755 -0.5576
  410MOL0     H56531  12.397   1.984   7.151  0.3173 -0.1528  1.0455
  410MOL0     H56532  12.329   1.838   6.943 -1.4195 -0.5817 -1.1222
  410MOL0     H56533  12.167   1.842   6.998  0.4374 -0.5543  0.6095
  410MOL0     H56534  12.224   1.977   6.794  0.0944  0.1223  0.5301
  410MOL0     H56535  12.159   2.085   6.908  0.5509  0.9318 -0.2243
  410MOL0     H56536  12.422   2.124   6.969  1.3453 -2.7639 -0.2680
  410MOL0     H56537  12.453   2.036   6.819  1.2952  2.3933 -2.0327
  410MOL0     H56538  12.209   2.424   6.807  0.3593 -0.7090 -1.6413
  410MOL0     H56539  12.151   2.633   6.809  1.2581 -1.0829  0.4222
  410MOL0     H56540  12.267   2.773   6.828  0.8533  0.1845 -0.1284
  410MOL0     H56541  12.224   2.658   6.962 -2.5526 -2.3315 -0.3238
  410MOL0     H56542  12.614   2.860   7.147  0.9929 -0.4672  1.9554
  410MOL0     H56543  12.742   3.020   7.259  0.0082 -0.5525  0.2718
  410MOL0     H56544  12.931   3.189   7.365 -1.5266  1.1438 -3.2135
  410MOL0     H56545  12.980   3.016   7.343  0.1450  0.0934  2.5109
  410MOL0     H56546  13.174   3.243   7.319  1.2974  0.2597  3.2281
  410MOL0     H56547  13.151   3.136   7.454 -1.6300  5.3189  0.7775
  410MOL0     H56548  13.229   3.038   7.166  2.9543 -2.3733 -0.7845
  410MOL0     H56549  13.205   2.937   7.314  3.6522 -0.0795  0.9132
  410MOL0     H56550  13.421   3.152   7.274  1.3106 -1.2548  0.3680
  410MOL0     H56551  13.437   2.984   7.244 -0.8765 -0.5660 -0.2623
  410MOL0     H56552  13.330   2.982   7.500  1.2370 -0.8970  0.6698
  410MOL0     H56553  13.509   2.982   7.456 -0.7621 -1.3878  2.6980
  410MOL0     H56554  13.321   3.202   7.549  0.5558  2.7943 -2.2223
  410MOL0     H56555  13.465   3.248   7.457 -0.6976  0.7812 -0.9531
  410MOL0     H56556  13.609   3.117   7.624 -0.5521  0.2857  1.7628
  410MOL0     H56557  13.467   3.092   7.725  1.0379 -1.3885  0.0349
  410MOL0     H56558  13.436   3.352   7.695 -1.5316  0.0445  2.4342
  410MOL0     H56559  13.610   3.350   7.655 -0.9506 -0.7331 -1.4117
  410MOL0     H56560  13.019   3.032   6.939  0.0166  0.1001 -0.8206
  410MOL0     H56561  12.895   2.874   6.817  1.5522 -1.0959  0.0320
  410MOL0     H56562  12.694   2.498   6.839  0.2605  1.7040  0.5482
  410MOL0     H56563  12.610   2.279   6.820  0.3097  1.0519  0.3354
  410MOL0     H56564  11.343   1.510   7.983  1.1265 -0.3309  0.3716
  410MOL0     H56565  11.285   1.286   7.916  0.5062 -0.5745 -0.2715
  410MOL0     H56566  11.308   0.888   7.805  3.1661  2.4293 -0.4336
  410MOL0     H56567  11.270   0.677   7.732 -0.6305  2.2377  0.9654
  410MOL0     H56568  11.133   0.572   7.432 -0.4977  1.5951 -1.0069
  410MOL0     H56569  11.208   0.580   7.273 -0.4958  0.9353  0.2870
  410MOL0     H56570  11.335   0.357   7.380 -0.4265  0.1789  0.6384
  410MOL0     H56571  11.177   0.355   7.297 -0.7920  2.9557 -1.6838
  410MOL0     H56572  11.228   0.386   7.600 -1.5948  1.9226  1.0041
  410MOL0     H56573  11.067   0.377   7.528  1.2391  1.2543 -0.4513
  410MOL0     H56574  11.283   0.157   7.502 -1.7947 -3.2084 -0.7874
  410MOL0     H56575  11.134   0.147   7.413 -0.8803 -1.0188 -0.3694
  410MOL0     H56576  11.035   0.026   7.794  0.7177 -1.1720  0.2710
  410MOL0     H56577  11.393   0.808   7.322 -0.0119 -3.9983 -0.1223
  410MOL0     H56578  11.386   1.142   7.403 -3.8015 -2.8907  0.7573
  410MOL0     H56579  11.555   1.068   7.424  1.4773 -1.9186 -3.0773
  410MOL0     H56580  11.454   1.044   7.281 -1.1081  0.0821  0.4733
  411MOL0     O56581  10.242   5.199   4.369 -0.1460 -0.6686 -0.1572
  411MOL0     C56582  10.301   5.304   4.388  0.0107 -0.0308  0.1745
  411MOL0     O56583  10.433   5.312   4.422  0.1499  0.3466 -0.2086
  411MOL0     C56584  10.520   5.212   4.439  0.1106  0.2380  0.6352
  411MOL0     C56585  10.651   5.245   4.395  0.1501 -0.1636  0.1960
  411MOL0     C56586  10.762   5.159   4.429  0.1069 -0.6101  0.8797
  411MOL0     C56587  10.728   5.029   4.481  0.7995 -0.6653  0.3602
  411MOL0     O56588  10.825   4.934   4.491 -0.1137 -0.3624 -0.1411
  411MOL0     C56589  10.963   4.975   4.503 -0.2972 -0.0241 -0.4461
  411MOL0     C56590  11.043   4.866   4.576 -0.5493 -0.0126  0.3794
  411MOL0     C56591  11.040   4.870   4.727  0.5522  1.0020 -0.1661
  411MOL0     C56592  11.126   4.743   4.772  0.0536 -0.7045 -1.5346
  411MOL0     C56593  11.104   4.728   4.929 -0.0727 -0.1308  0.4928
  411MOL0     C56594  11.185   4.830   5.020 -0.5134 -0.0372  0.4183
  411MOL0     C56595  11.171   4.832   5.168  0.5311  1.1811  0.6899
  411MOL0     C56596  11.033   4.885   5.207 -0.2088  0.6532  0.1315
  411MOL0     N56597  11.019   4.931   5.352  0.0282  0.3286  0.3804
  411MOL0     C56598  11.092   5.039   5.408  1.3910  0.8754  0.1352
  411MOL0     C56599  11.071   5.033   5.541  0.5871  0.8477 -0.0749
  411MOL0     C56600  11.097   5.138   5.644  0.3392  0.0659  0.1416
  411MOL0     C56601  11.252   5.157   5.661 -0.3134 -0.3018 -0.0042
  411MOL0     C56602  11.293   5.181   5.801 -0.2179 -1.0649 -0.1857
  411MOL0     C56603  11.435   5.233   5.804 -0.1154 -0.6106  0.3279
  411MOL0     O56604  11.499   5.204   5.932 -0.6264  0.4288  0.0305
  411MOL0     C56605  11.626   5.250   5.942 -0.2131  0.1160  0.3207
  411MOL0     C56606  11.716   5.245   5.836  0.2599 -0.9696 -0.1948
  411MOL0     C56607  11.850   5.289   5.849  0.8010 -0.7546  0.6260
  411MOL0     C56608  11.926   5.307   5.721  1.3350  0.1933 -0.7324
  411MOL0     C56609  11.902   5.324   5.974 -0.4661  0.3756  0.8619
  411MOL0     C56610  12.040   5.374   5.992 -0.4249 -0.6491  0.4497
  411MOL0     O56611  12.069   5.420   6.118  0.1865  0.1902  0.1493
  411MOL0     C56612  12.190   5.487   6.133  0.1614 -0.1554  0.2888
  411MOL0     C56613  12.290   5.435   6.229 -0.2687 -0.4080  0.5940
  411MOL0     C56614  12.416   5.499   6.236  0.4488  0.5901  0.4392
  411MOL0     C56615  12.457   5.608   6.154  0.9723 -0.2068  0.0463
  411MOL0     O56616  12.564   5.686   6.175  0.0803 -0.3022 -0.1671
  411MOL0     C56617  12.670   5.647   6.265  0.0356 -0.0302 -0.4114
  411MOL0     C56618  12.742   5.761   6.316  0.8691 -0.5971  0.1092
  411MOL0     C56619  12.802   5.855   6.197 -0.1555  0.7339  0.0294
  411MOL0     C56620  12.944   5.793   6.155 -0.2436 -0.0455 -1.2572
  411MOL0     C56621  13.000   5.853   6.029  0.0264 -0.5737 -0.6481
  411MOL0     C56622  13.144   5.818   5.984 -0.5726  1.1434 -0.8649
  411MOL0     C56623  13.195   5.921   5.877  0.4848 -0.0655 -0.2923
  411MOL0     C56624  13.335   5.885   5.833  0.9704 -0.8499 -0.2874
  411MOL0    Cl56625  13.379   5.991   5.705 -0.0830  0.6480  0.4751
  411MOL0     C56626  12.367   5.644   6.050  0.5072  0.3880  0.8813
  411MOL0     C56627  12.240   5.591   6.047  0.9614 -0.1861  0.1286
  411MOL0     O56628  12.116   5.371   5.897 -0.7470  0.1985  0.2515
  411MOL0     C56629  11.817   5.312   6.087 -0.1208  0.6069 -0.0179
  411MOL0     C56630  11.679   5.281   6.069 -1.0723  0.2692 -0.6412
  411MOL0     N56631  11.009   4.916   5.565 -0.0429 -0.1525 -0.6812
  411MOL0     N56632  10.974   4.858   5.454 -1.2207  0.3567 -0.5909
  411MOL0     C56633  10.601   4.989   4.503 -0.1543  0.2273  0.3079
  411MOL0     C56634  10.494   5.080   4.489 -0.9559  0.1573  0.7185
  411MOL0     C56635  10.229   5.430   4.358 -0.5419 -0.4781 -0.8271
  411MOL0     C56636  10.298   5.554   4.344  0.9207 -0.0912 -0.1016
  411MOL0     C56637  10.229   5.674   4.331  0.3232 -0.0984 -0.7453
  411MOL0     C56638  10.097   5.676   4.285  0.2370  0.6001 -0.1413
  411MOL0     O56639  10.061   5.797   4.229 -0.3311 -0.3866 -0.0586
  411MOL0     C56640   9.921   5.820   4.214 -0.0660 -0.1837  0.3197
  411MOL0     C56641   9.853   5.852   4.349 -0.1187  0.2347 -0.2381
  411MOL0     C56642   9.702   5.866   4.343  0.3848  0.2318  0.8196
  411MOL0     C56643   9.638   5.887   4.478 -0.6021 -0.2625 -0.2762
  411MOL0     C56644   9.493   5.892   4.445  0.1445 -0.1115 -0.2516
  411MOL0     C56645   9.377   5.889   4.401  0.3517 -0.1724 -0.0213
  411MOL0     C56646  10.023   5.551   4.294  0.6124  0.7035 -0.6968
  411MOL0     C56647  10.090   5.434   4.336  0.8590  0.6483 -0.9078
  411MOL0     C56648   9.990   5.319   4.357 -0.1722 -0.0195  0.0712
  411MOL0     H56649  10.667   5.339   4.343  1.4320 -0.2737  0.3537
  411MOL0     H56650  10.865   5.184   4.410 -0.1124 -1.2497 -1.4214
  411MOL0     H56651  10.970   5.062   4.569 -1.0201 -2.0310  2.4679
  411MOL0     H56652  10.988   5.003   4.400 -3.5826  2.1187 -0.8176
  411MOL0     H56653  11.022   4.767   4.533 -0.0195 -1.0888  2.4850
  411MOL0     H56654  11.146   4.891   4.548 -1.1967  0.2640 -2.0586
  411MOL0     H56655  11.075   4.968   4.760  1.4470  1.1096 -1.4056
  411MOL0     H56656  10.939   4.861   4.769  1.3593 -1.4708  1.4843
  411MOL0     H56657  11.099   4.650   4.721  0.2604 -1.2677 -0.6446
  411MOL0     H56658  11.229   4.770   4.748 -0.6914  3.6017 -0.6806
  411MOL0     H56659  11.140   4.627   4.951  1.1601  0.3516  0.7605
  411MOL0     H56660  11.000   4.726   4.961  0.3150 -1.1797  1.8024
  411MOL0     H56661  11.293   4.822   5.003  0.3751  1.3162  4.4390
  411MOL0     H56662  11.163   4.931   4.984 -2.4460 -0.5801 -0.0740
  411MOL0     H56663  11.254   4.884   5.217  1.3883 -0.3356  0.9377
  411MOL0     H56664  11.180   4.725   5.192  2.4017  0.7383 -1.6643
  411MOL0     H56665  11.001   4.972   5.149 -1.7149  2.2411  3.1056
  411MOL0     H56666  10.967   4.799   5.195 -2.1446  2.2820 -1.6917
  411MOL0     H56667  11.141   5.123   5.359  0.5706  2.1799  1.4471
  411MOL0     H56668  11.061   5.112   5.744  2.0120  2.4588  1.4741
  411MOL0     H56669  11.033   5.226   5.632  2.3863  1.4733 -1.0673
  411MOL0     H56670  11.306   5.068   5.627 -0.5136 -0.0323 -1.0872
  411MOL0     H56671  11.283   5.244   5.602  0.5643  0.8968  2.1091
  411MOL0     H56672  11.239   5.268   5.840  0.9398  1.0472 -2.9787
  411MOL0     H56673  11.282   5.093   5.865  2.9101  0.6717  3.1472
  411MOL0     H56674  11.488   5.177   5.727  1.5413 -1.4222  1.9769
  411MOL0     H56675  11.444   5.337   5.771  1.7512 -1.8495 -3.6441
  411MOL0     H56676  11.682   5.220   5.735 -1.7911 -1.9792  0.6918
  411MOL0     H56677  12.005   5.231   5.714  0.6126 -0.5158 -1.4568
  411MOL0     H56678  11.971   5.406   5.715 -1.1199  1.3186 -1.9773
  411MOL0     H56679  11.871   5.317   5.627 -0.1031 -1.0425 -0.0532
  411MOL0     H56680  12.279   5.346   6.291 -3.8039 -0.8799 -0.4982
  411MOL0     H56681  12.473   5.470   6.324  2.4851 -1.0604 -1.3020
  411MOL0     H56682  12.640   5.594   6.356 -4.0041 -0.3498 -1.7101
  411MOL0     H56683  12.738   5.589   6.202 -1.7264 -1.5665 -1.0122
  411MOL0     H56684  12.674   5.814   6.384  1.5774 -2.4482  2.3988
  411MOL0     H56685  12.825   5.732   6.381  1.4117  0.0185 -0.2975
  411MOL0     H56686  12.822   5.952   6.245  1.7438 -0.2352  1.3648
  411MOL0     H56687  12.738   5.852   6.109 -0.6700 -0.0514  0.4212
  411MOL0     H56688  12.930   5.684   6.154  1.0425 -0.3271  1.9036
  411MOL0     H56689  13.020   5.813   6.230  1.1163 -1.2310 -2.2542
  411MOL0     H56690  12.939   5.839   5.939  0.5616 -0.9280 -0.9620
  411MOL0     H56691  12.988   5.961   6.034 -1.5914 -0.5430 -3.1247
  411MOL0     H56692  13.166   5.714   5.960 -2.0846  1.2695 -3.1100
  411MOL0     H56693  13.204   5.845   6.071 -2.0137 -0.8927  0.8519
  411MOL0     H56694  13.182   6.025   5.907 -1.3852 -0.5868  0.9482
  411MOL0     H56695  13.115   5.908   5.803 -1.1620  1.0472  1.1983
  411MOL0     H56696  13.321   5.778   5.812  2.1853 -1.6350  2.4844
  411MOL0     H56697  13.397   5.898   5.922  1.7137 -0.3816 -0.8656
  411MOL0     H56698  12.392   5.719   5.975 -1.0957 -0.3780 -0.4913
  411MOL0     H56699  12.162   5.623   5.978  1.4634  0.6839 -0.0586
  411MOL0     H56700  11.847   5.340   6.187 -0.4347 -3.3269  1.3310
  411MOL0     H56701  11.622   5.271   6.160 -2.6212  1.3711 -1.4438
  411MOL0     H56702  10.572   4.888   4.531 -1.1575  0.6954  1.0361
  411MOL0     H56703  10.393   5.049   4.512 -0.2533 -2.0285  1.1587
  411MOL0     H56704  10.405   5.569   4.358  1.3154 -2.3394 -0.2673
  411MOL0     H56705  10.268   5.775   4.333 -1.4703  0.6422 -1.2719
  411MOL0     H56706   9.908   5.903   4.144  2.6672  1.0697  1.1425
  411MOL0     H56707   9.871   5.730   4.177 -2.6983  0.0420  2.9954
  411MOL0     H56708   9.900   5.946   4.381  2.5186 -1.9081  2.8660
  411MOL0     H56709   9.879   5.775   4.422  1.6177 -0.0209 -1.0649
  411MOL0     H56710   9.683   5.951   4.276  0.0974 -0.9404 -0.6374
  411MOL0     H56711   9.662   5.779   4.289  1.1253  0.7758 -0.6732
  411MOL0     H56712   9.661   5.981   4.529 -2.4363 -0.3226  0.7274
  411MOL0     H56713   9.655   5.797   4.539 -1.2797 -1.7180 -2.1516
  411MOL0     H56714   9.273   5.891   4.375  0.4390  3.2990 -0.5986
  411MOL0     H56715   9.917   5.555   4.273  0.5592 -2.0975 -1.3693
  411MOL0     H56716  10.011   5.259   4.446  0.2804 -3.5464 -2.2043
  411MOL0     H56717   9.888   5.355   4.368  0.0557  0.5412  0.3838
  411MOL0     H56718   9.998   5.255   4.269 -1.5108  0.9801 -0.8119
  412MOL0     O56719   7.309   9.750  11.346  0.0891  0.0491  0.0166
  412MOL0     C56720   7.395   9.736  11.260 -0.4593  0.4152  0.5134
  412MOL0     O56721   7.528   9.743  11.282  0.3158 -0.4851 -0.4956
  412MOL0     C56722   7.576   9.764  11.415 -0.2998 -0.1094 -0.4027
  412MOL0     C56723   7.582   9.654  11.502 -0.0486 -0.2047 -0.0761
  412MOL0     C56724   7.625   9.669  11.635 -1.0019  0.5182  0.3020
  412MOL0     C56725   7.663   9.791  11.688 -0.4539 -0.0812 -0.7591
  412MOL0     O56726   7.700   9.796  11.818  0.3263 -0.4944  0.3907
  412MOL0     C56727   7.807   9.895  11.849  0.4273 -0.1876 -0.1564
  412MOL0     C56728   7.863   9.843  11.978 -0.7848  0.6775 -1.0117
  412MOL0     C56729   7.929   9.710  11.953 -0.8011  0.0875  1.4426
  412MOL0     C56730   8.009   9.677  12.077 -0.4303  0.3567  0.2584
  412MOL0     C56731   8.101   9.553  12.060 -0.1273 -0.0880 -0.9560
  412MOL0     C56732   8.053   9.429  11.988  0.3355 -0.8051  0.2253
  412MOL0     C56733   8.158   9.318  11.954  0.4303  0.1285 -0.6362
  412MOL0     C56734   8.230   9.309  11.821 -0.5250 -0.0025 -0.6924
  412MOL0     N56735   8.332   9.417  11.800  0.0143 -0.2321  0.2354
  412MOL0     C56736   8.421   9.467  11.891 -0.7897 -0.3163 -0.4343
  412MOL0     C56737   8.493   9.550  11.818  1.2758 -0.6308  1.1511
  412MOL0     C56738   8.623   9.627  11.857  0.6553  0.5951  0.2180
  412MOL0     C56739   8.605   9.733  11.966 -0.1955 -0.5423 -0.6975
  412MOL0     C56740   8.518   9.849  11.918 -0.1426 -0.9171 -0.1255
  412MOL0     C56741   8.528   9.965  12.022  0.3472  0.3728  0.3579
  412MOL0     O56742   8.643  10.053  12.020 -0.8911 -0.0972 -0.3671
  412MOL0     C56743   8.633  10.173  11.960  0.7121 -0.1695  0.4627
  412MOL0     C56744   8.700  10.273  12.027 -0.6408 -0.5920  0.3583
  412MOL0     C56745   8.721  10.401  11.966  0.5988  0.5730  0.5858
  412MOL0     C56746   8.811  10.488  12.043 -0.0444  0.1508  0.2887
  412MOL0     C56747   8.655  10.426  11.839  0.7945  0.6630 -0.5439
  412MOL0     C56748   8.680  10.545  11.756  0.2308 -0.1878  0.0532
  412MOL0     O56749   8.619  10.569  11.638 -0.4004  1.0937  0.6347
  412MOL0     C56750   8.634  10.679  11.558  0.5046  0.6138 -0.4442
  412MOL0     C56751   8.735  10.676  11.460 -0.3439 -0.0362  0.2133
  412MOL0     C56752   8.744  10.778  11.363 -0.9496  0.0311 -0.1568
  412MOL0     C56753   8.652  10.884  11.360  0.1742 -0.5397 -0.3655
  412MOL0     O56754   8.664  10.982  11.275  0.1837  0.4074  0.0045
  412MOL0     C56755   8.586  11.100  11.305 -0.4618  0.3203 -0.0379
  412MOL0     C56756   8.645  11.219  11.232 -0.0680 -0.0929  1.5206
  412MOL0     C56757   8.559  11.343  11.228  0.2801  0.5285 -0.0385
  412MOL0     C56758   8.625  11.477  11.194 -1.5325  0.4148  0.0187
  412MOL0     C56759   8.727  11.531  11.292 -0.7591  0.0351 -0.2241
  412MOL0     C56760   8.731  11.681  11.266  0.5800 -0.1132  0.7226
  412MOL0     C56761   8.813  11.747  11.374  0.2068  0.2232  1.0228
  412MOL0     C56762   8.829  11.898  11.369  0.2288 -0.1745  0.4366
  412MOL0    Cl56763   8.932  11.928  11.232 -0.1903 -0.1034  0.1889
  412MOL0     C56764   8.545  10.876  11.455 -0.2028 -0.1851 -0.0014
  412MOL0     C56765   8.531  10.771  11.548 -0.5743 -0.1490  0.8954
  412MOL0     O56766   8.768  10.622  11.796 -0.1715  0.1410  0.2302
  412MOL0     C56767   8.568  10.328  11.787 -0.3330  0.3314  0.1801
  412MOL0     C56768   8.549  10.206  11.852  0.2612 -0.4283 -0.8167
  412MOL0     N56769   8.433   9.567  11.689 -0.2596 -0.9179 -0.0632
  412MOL0     N56770   8.345   9.480  11.681  0.2203  0.3835 -0.2394
  412MOL0     C56771   7.643   9.903  11.600 -0.1046  0.1134 -0.6596
  412MOL0     C56772   7.604   9.893  11.465  0.0891  0.0306 -1.0232
  412MOL0     C56773   7.345   9.713  11.122 -0.4344  0.1768  0.5606
  412MOL0     C56774   7.428   9.636  11.040 -0.4056 -0.5760  0.0490
  412MOL0     C56775   7.389   9.601  10.909 -0.3288  0.5989 -0.3744
  412MOL0     C56776   7.270   9.649  10.851  0.6806 -1.2028 -0.4028
  412MOL0     O56777   7.241   9.633  10.720 -0.2030 -0.1357 -0.5314
  412MOL0     C56778   7.112   9.662  10.666 -0.8412 -0.0786 -0.0780
  412MOL0     C56779   7.100   9.808  10.617 -0.9046 -0.1692 -0.7346
  412MOL0     C56780   6.978   9.841  10.534  0.0295  0.3181  0.2740
  412MOL0     C56781   6.851   9.844  10.624 -0.1830  0.5657 -0.3990
  412MOL0     C56782   6.865   9.916  10.750  0.1766  0.2528 -0.5332
  412MOL0     C56783   6.884   9.988  10.845 -0.5103 -0.2700 -0.3692
  412MOL0     C56784   7.194   9.719  10.936  0.9463 -0.2648  0.1719
  412MOL0     C56785   7.221   9.753  11.073 -0.2480 -0.0377  1.2750
  412MOL0     C56786   7.116   9.830  11.142 -0.4017  0.6591 -0.3177
  412MOL0     H56787   7.563   9.550  11.478 -2.6795 -0.1779  1.5012
  412MOL0     H56788   7.602   9.580  11.693  0.0420  1.5169  2.3360
  412MOL0     H56789   7.772   9.998  11.862  3.0712  0.6249  1.0513
  412MOL0     H56790   7.881   9.893  11.769 -0.0039  0.5544 -0.5853
  412MOL0     H56791   7.941   9.915  12.004 -0.6441  0.3975 -0.6529
  412MOL0     H56792   7.796   9.829  12.063 -1.9020 -1.1875 -2.1114
  412MOL0     H56793   7.855   9.634  11.927  0.2207 -1.0911  1.8781
  412MOL0     H56794   7.995   9.733  11.869 -0.3150  2.8182  2.4833
  412MOL0     H56795   8.077   9.758  12.104  4.6563 -3.3523 -0.0246
  412MOL0     H56796   7.945   9.666  12.165 -0.4750 -0.5817  0.1196
  412MOL0     H56797   8.126   9.513  12.158  1.7270  0.7571 -1.0558
  412MOL0     H56798   8.185   9.571  11.993  1.1137 -2.2374 -0.0643
  412MOL0     H56799   7.964   9.396  12.042 -0.3846 -0.0166 -0.4477
  412MOL0     H56800   8.026   9.477  11.893  0.9093  1.4217  1.1206
  412MOL0     H56801   8.098   9.227  11.959 -0.6409  0.8122 -0.6860
  412MOL0     H56802   8.237   9.310  12.029 -0.2076  0.8546  0.1358
  412MOL0     H56803   8.284   9.215  11.809 -0.0922  0.4055 -2.2850
  412MOL0     H56804   8.155   9.309  11.741 -1.4098 -1.8384  0.0857
  412MOL0     H56805   8.453   9.433  11.989 -0.3164 -1.3480 -0.9298
  412MOL0     H56806   8.661   9.683  11.771  1.3770 -1.4558 -0.8645
  412MOL0     H56807   8.693   9.552  11.894  0.2731  0.7009  1.2155
  412MOL0     H56808   8.581   9.689  12.063  0.1938  0.6508 -0.0348
  412MOL0     H56809   8.709   9.767  11.976 -0.1963  0.5936 -3.6755
  412MOL0     H56810   8.553   9.894  11.825  0.5129 -3.2999 -1.0810
  412MOL0     H56811   8.419   9.803  11.910  0.0549 -1.6410  1.2873
  412MOL0     H56812   8.443  10.032  12.007  1.2979  1.0624 -2.6412
  412MOL0     H56813   8.513   9.927  12.123 -2.4032  1.9321  0.6443
  412MOL0     H56814   8.754  10.253  12.119  1.0018 -0.4436 -0.5385
  412MOL0     H56815   8.912  10.492  12.000  2.2145 -1.0653  4.8361
  412MOL0     H56816   8.823  10.456  12.147  1.7036 -5.2960 -1.2577
  412MOL0     H56817   8.777  10.590  12.062 -1.3618  0.4624 -3.0868
  412MOL0     H56818   8.811  10.599  11.464  1.6603  1.8152 -0.1798
  412MOL0     H56819   8.824  10.773  11.290 -0.8967  0.3931 -0.1257
  412MOL0     H56820   8.484  11.098  11.264 -0.5482  0.9307  0.1271
  412MOL0     H56821   8.572  11.129  11.409 -2.0745  0.3417 -0.2299
  412MOL0     H56822   8.736  11.255  11.281 -0.2131  0.0440  1.6923
  412MOL0     H56823   8.682  11.196  11.132 -0.9394 -2.0638  1.6112
  412MOL0     H56824   8.504  11.362  11.321  1.0050  0.8095  0.3407
  412MOL0     H56825   8.483  11.327  11.151  1.6938  0.2527 -1.4144
  412MOL0     H56826   8.541  11.546  11.177 -0.9554  0.7639 -1.5252
  412MOL0     H56827   8.668  11.462  11.095 -1.8329 -0.3506 -0.0035
  412MOL0     H56828   8.678  11.510  11.388 -0.6155 -0.5187 -0.2682
  412MOL0     H56829   8.821  11.476  11.278 -1.7933 -1.7988 -0.3278
  412MOL0     H56830   8.629  11.723  11.273  0.8468  0.2653  3.7768
  412MOL0     H56831   8.771  11.706  11.167  0.1426  1.3179  0.8769
  412MOL0     H56832   8.911  11.698  11.376 -0.0697 -0.3395  1.4087
  412MOL0     H56833   8.766  11.724  11.471 -2.6995  0.0327 -0.3166
  412MOL0     H56834   8.881  11.924  11.461  2.1840 -0.5869 -0.5115
  412MOL0     H56835   8.733  11.950  11.361  2.1354  3.6055  0.1789
  412MOL0     H56836   8.468  10.952  11.454  1.1698  1.3177  1.5895
  412MOL0     H56837   8.439  10.768  11.605 -0.3134  0.4844  1.3574
  412MOL0     H56838   8.497  10.357  11.709  0.5789  3.0718  0.2732
  412MOL0     H56839   8.488  10.131  11.801  1.9230 -2.1258 -0.4450
  412MOL0     H56840   7.658  10.008  11.625 -0.6466 -0.5383  2.9899
  412MOL0     H56841   7.615   9.985  11.409 -0.3619  0.5875 -0.2196
  412MOL0     H56842   7.522   9.594  11.075 -0.1030 -1.6345 -1.8808
  412MOL0     H56843   7.448   9.536  10.845 -0.2852 -1.2155  1.4414
  412MOL0     H56844   7.109   9.602  10.575  0.6694  1.8078 -1.4539
  412MOL0     H56845   7.040   9.619  10.736  4.0010 -0.9537  5.1020
  412MOL0     H56846   7.193   9.824  10.561 -0.5619 -0.4259 -0.2455
  412MOL0     H56847   7.113   9.876  10.701 -0.1932 -0.3335 -0.7063
  412MOL0     H56848   6.990   9.939  10.487  1.1106  0.7224  1.3523
  412MOL0     H56849   6.953   9.765  10.459  2.8411 -1.1083  0.6329
  412MOL0     H56850   6.824   9.742  10.654  1.0647  0.5817  0.9298
  412MOL0     H56851   6.770   9.891  10.567  0.0727  0.3798 -0.9205
  412MOL0     H56852   6.882  10.053  10.931 -0.1190  1.0841 -1.3520
  412MOL0     H56853   7.098   9.750  10.895  0.9264 -2.0457 -1.3028
  412MOL0     H56854   7.163   9.923  11.173 -0.7393  0.1269  1.9731
  412MOL0     H56855   7.038   9.856  11.070  0.7149  1.2131 -1.3662
  412MOL0     H56856   7.077   9.790  11.236  0.2484  2.2304  0.6520
  413MOL0     O56857   1.112  10.455   3.764  0.3843 -0.2059  0.1860
  413MOL0     C56858   1.084  10.360   3.838  0.6331  0.0850  0.0919
  413MOL0     O56859   1.148  10.238   3.843  0.6562  0.2125  0.2631
  413MOL0     C56860   1.249  10.212   3.757  0.7893  0.1527 -0.0192
  413MOL0     C56861   1.367  10.164   3.826 -0.1094  0.5017 -0.7227
  413MOL0     C56862   1.484  10.133   3.759 -0.6549 -0.6038  0.5326
  413MOL0     C56863   1.478  10.130   3.621  0.4904  0.2533 -0.6968
  413MOL0     O56864   1.572  10.065   3.545  0.1995  0.4515  0.3667
  413MOL0     C56865   1.698  10.031   3.610 -0.1363  0.0215 -0.8530
  413MOL0     C56866   1.778  10.165   3.634 -0.1616 -1.2235  0.4624
  413MOL0     C56867   1.922  10.137   3.687  0.4210 -0.2236 -0.6473
  413MOL0     C56868   2.001  10.268   3.706  0.2337  0.0020 -0.6390
  413MOL0     C56869   2.093  10.291   3.829  0.0782  0.5807 -0.9576
  413MOL0     C56870   2.204  10.187   3.833 -0.4564  0.3711  0.0137
  413MOL0     C56871   2.310  10.202   3.958  0.3578  0.5068  0.1872
  413MOL0     C56872   2.240  10.201   4.100  0.7845  0.9055  0.8394
  413MOL0     N56873   2.205  10.072   4.160 -0.7445  0.2602  0.3677
  413MOL0     C56874   2.112   9.995   4.099  0.0155  0.5877 -0.8440
  413MOL0     C56875   2.089   9.888   4.183  0.3773  0.3142  0.0620
  413MOL0     C56876   1.986   9.773   4.187  0.2830 -0.7959 -0.0396
  413MOL0     C56877   2.041   9.642   4.146  0.1405 -0.4562 -0.4217
  413MOL0     C56878   1.938   9.551   4.085  0.8052  0.2033 -0.2237
  413MOL0     C56879   1.967   9.399   4.084 -0.6164 -0.6758  0.0761
  413MOL0     O56880   1.973   9.351   4.220 -0.0426  0.0415 -0.5003
  413MOL0     C56881   2.000   9.216   4.239 -0.2769  0.6240  0.2243
  413MOL0     C56882   1.987   9.116   4.134 -0.3433  0.2206 -0.3505
  413MOL0     C56883   2.003   8.983   4.158 -0.9902  0.8995 -0.1641
  413MOL0     C56884   1.978   8.897   4.028  0.3591  1.1788 -0.2767
  413MOL0     C56885   2.048   8.940   4.288  0.1058 -0.6631 -0.3079
  413MOL0     C56886   2.062   8.795   4.320  0.3413 -0.3783 -1.0498
  413MOL0     O56887   2.074   8.703   4.221 -1.3930 -0.2539 -0.2844
  413MOL0     C56888   2.036   8.573   4.242 -0.0937  0.0209 -0.2366
  413MOL0     C56889   1.904   8.528   4.210 -0.3501  0.6103 -1.2220
  413MOL0     C56890   1.874   8.390   4.244 -0.1879  0.5987 -0.1478
  413MOL0     C56891   1.972   8.299   4.291 -0.2970 -0.4275  0.3275
  413MOL0     O56892   1.937   8.168   4.321 -0.4420 -0.3861  0.4883
  413MOL0     C56893   2.035   8.068   4.359  0.0230 -0.5992 -1.0822
  413MOL0     C56894   1.968   7.929   4.344 -0.4733 -0.4257  0.5948
  413MOL0     C56895   1.853   7.914   4.451  0.1047  0.0764 -0.0135
  413MOL0     C56896   1.886   7.923   4.596  0.1261 -0.5753  0.3369
  413MOL0     C56897   1.767   7.861   4.680  0.2629  0.3230  0.5103
  413MOL0     C56898   1.813   7.820   4.821  0.5469  0.3373  0.5243
  413MOL0     C56899   1.716   7.726   4.896 -0.0333 -0.5292 -0.4500
  413MOL0     C56900   1.786   7.692   5.028 -0.2527 -0.8110  0.7594
  413MOL0    Cl56901   1.742   7.513   5.055 -0.2704  0.3568 -0.0691
  413MOL0     C56902   2.095   8.350   4.313 -0.9584 -0.7278  0.3560
  413MOL0     C56903   2.135   8.486   4.292  0.3100 -0.2515 -0.2997
  413MOL0     O56904   2.056   8.767   4.443 -0.4063 -0.0205 -0.5086
  413MOL0     C56905   2.059   9.037   4.390  0.0801  0.0764 -1.2642
  413MOL0     C56906   2.024   9.168   4.370  0.3177 -0.4602 -0.0332
  413MOL0     N56907   2.193   9.903   4.283  0.2050 -0.9247  0.0555
  413MOL0     N56908   2.263  10.009   4.266  1.2605 -0.1078  0.1479
  413MOL0     C56909   1.361  10.166   3.555  0.8771 -0.6339 -1.0703
  413MOL0     C56910   1.250  10.213   3.625 -0.4866  0.5547  0.4423
  413MOL0     C56911   0.963  10.386   3.924  0.2267 -0.2968  0.0517
  413MOL0     C56912   0.899  10.514   3.927  0.0306  0.2914  0.2834
  413MOL0     C56913   0.777  10.535   3.990  0.5602 -1.0473  0.1663
  413MOL0     C56914   0.709  10.431   4.063  0.3082 -0.4709  0.8994
  413MOL0     O56915   0.581  10.453   4.115  0.0380 -0.1462 -0.3685
  413MOL0     C56916   0.556  10.387   4.237  0.4903  0.6140  0.5464
  413MOL0     C56917   0.442  10.443   4.327 -0.0567 -0.1252 -0.0431
  413MOL0     C56918   0.344  10.514   4.239  0.3996 -0.6472  0.2735
  413MOL0     C56919   0.234  10.594   4.312  0.0829 -0.4473  0.4333
  413MOL0     C56920   0.135  10.635   4.213  0.1463  0.2225  0.8805
  413MOL0     C56921   0.053  10.659   4.122  0.6016 -0.7544  0.0431
  413MOL0     C56922   0.774  10.309   4.058  0.4661 -0.4336  0.4475
  413MOL0     C56923   0.901  10.276   3.991  0.8437 -0.1603  0.5982
  413MOL0     C56924   0.935  10.136   4.000 -0.3548 -0.7437 -0.1333
  413MOL0     H56925   1.361  10.162   3.934 -0.0968  3.1438 -0.6009
  413MOL0     H56926   1.568  10.096   3.816 -1.1338 -1.0208  0.9830
  413MOL0     H56927   1.757   9.977   3.535 -0.2987 -1.4454  0.0410
  413MOL0     H56928   1.675   9.976   3.702 -3.8588 -0.4101 -1.8913
  413MOL0     H56929   1.794  10.206   3.534  0.1690 -3.9414 -0.7008
  413MOL0     H56930   1.735  10.238   3.703  0.8724  0.7459 -0.8848
  413MOL0     H56931   1.916  10.090   3.786 -0.9692  1.7647  0.3125
  413MOL0     H56932   1.971  10.066   3.621  1.9223 -4.4863  4.3477
  413MOL0     H56933   2.053  10.293   3.614 -3.2973  2.6782 -2.1551
  413MOL0     H56934   1.922  10.342   3.717 -1.6124 -1.8992 -0.3923
  413MOL0     H56935   2.025  10.283   3.915  0.2236 -1.0686 -0.9672
  413MOL0     H56936   2.129  10.393   3.815  2.3389 -0.4343 -3.2297
  413MOL0     H56937   2.164  10.086   3.835 -2.3733  1.0439 -1.4264
  413MOL0     H56938   2.267  10.196   3.744  1.8994  1.7999  1.6950
  413MOL0     H56939   2.360  10.299   3.945 -3.5438  2.2967 -4.0868
  413MOL0     H56940   2.377  10.116   3.960  1.3344  1.2369  2.4707
  413MOL0     H56941   2.314  10.245   4.167  1.0068  1.0500  0.5050
  413MOL0     H56942   2.152  10.265   4.110 -0.7736 -1.2019  1.3702
  413MOL0     H56943   2.081  10.012   3.997 -0.6530  1.2117 -0.5460
  413MOL0     H56944   1.905   9.797   4.119  0.3514  2.3328  0.8379
  413MOL0     H56945   1.932   9.767   4.282 -0.1345 -1.0574 -0.2949
  413MOL0     H56946   2.128   9.657   4.081  2.3008 -1.6429  2.0240
  413MOL0     H56947   2.080   9.590   4.234 -1.6977  0.2961  0.9033
  413MOL0     H56948   1.844   9.571   4.138  0.3527  1.9320 -1.5725
  413MOL0     H56949   1.922   9.583   3.982 -2.3089 -0.1896  0.0488
  413MOL0     H56950   1.887   9.351   4.027 -1.4017  0.3743  0.2776
  413MOL0     H56951   2.062   9.373   4.036  0.2551 -1.3179  2.0201
  413MOL0     H56952   1.961   9.132   4.030  2.0101 -0.1566 -1.0689
  413MOL0     H56953   2.077   8.892   3.982  2.0550  1.1818  3.0616
  413MOL0     H56954   1.898   8.939   3.965 -0.1844 -0.2405 -0.5598
  413MOL0     H56955   1.960   8.791   4.048  4.1477  0.4428 -0.1143
  413MOL0     H56956   1.825   8.585   4.162 -2.0709 -2.1186 -1.8084
  413MOL0     H56957   1.774   8.356   4.220 -0.7997  0.8445  1.9065
  413MOL0     H56958   2.128   8.070   4.302  1.1389 -1.3692  0.6494
  413MOL0     H56959   2.062   8.085   4.463  1.3269  0.4334 -1.5623
  413MOL0     H56960   1.929   7.909   4.244 -2.3523 -1.7980  1.5382
  413MOL0     H56961   2.037   7.849   4.370 -0.0257  0.0221  0.7909
  413MOL0     H56962   1.816   7.812   4.436  0.2179  0.2920 -2.0298
  413MOL0     H56963   1.768   7.972   4.413  0.3434 -1.1594 -2.6223
  413MOL0     H56964   1.900   8.028   4.626 -1.2083 -0.8303  2.0501
  413MOL0     H56965   1.985   7.877   4.609 -0.5815 -1.9659  1.0448
  413MOL0     H56966   1.690   7.937   4.694 -2.0291 -1.8791  0.6069
  413MOL0     H56967   1.722   7.777   4.626  1.3610  0.9380 -1.4986
  413MOL0     H56968   1.798   7.915   4.872 -1.3272 -0.1394  0.9723
  413MOL0     H56969   1.921   7.803   4.825  0.5041 -0.0253  0.2742
  413MOL0     H56970   1.698   7.634   4.840  0.1681 -1.9242  1.6757
  413MOL0     H56971   1.622   7.780   4.911  0.7257  0.3712  1.3746
  413MOL0     H56972   1.767   7.760   5.112  0.2188  0.7402 -0.3515
  413MOL0     H56973   1.892   7.689   5.001 -0.8208 -3.2291 -1.6416
  413MOL0     H56974   2.168   8.280   4.353 -0.6025  0.3962  1.7561
  413MOL0     H56975   2.237   8.519   4.309  0.1776 -0.2463  0.5180
  413MOL0     H56976   2.081   9.008   4.492 -2.1111 -1.3971 -1.1689
  413MOL0     H56977   2.006   9.223   4.462 -0.8655  0.3653 -0.7299
  413MOL0     H56978   1.345  10.143   3.450 -2.0125 -4.4958 -0.0358
  413MOL0     H56979   1.157  10.235   3.572  0.9406 -1.6414 -3.3592
  413MOL0     H56980   0.936  10.603   3.878  1.4351 -0.9205 -0.9708
  413MOL0     H56981   0.725  10.630   3.987 -0.1014 -1.4171 -0.4141
  413MOL0     H56982   0.524  10.286   4.211  2.2260  0.0786  0.3206
  413MOL0     H56983   0.643  10.374   4.302  1.7493 -1.4936 -1.4168
  413MOL0     H56984   0.485  10.505   4.407  0.2729 -0.2965 -0.0845
  413MOL0     H56985   0.399  10.354   4.374 -0.4351 -0.5624 -1.1953
  413MOL0     H56986   0.398  10.589   4.180  0.5063  0.1514  1.3718
  413MOL0     H56987   0.297  10.442   4.170 -1.0011 -0.5473  1.0899
  413MOL0     H56988   0.277  10.679   4.366  1.3049 -0.8204  0.0874
  413MOL0     H56989   0.176  10.550   4.393 -2.1328  2.9959  0.9148
  413MOL0     H56990  -0.008  10.676   4.035  2.0540 -0.8876 -1.0398
  413MOL0     H56991   0.711  10.234   4.105 -1.0438  0.2276 -0.4426
  413MOL0     H56992   1.029  10.129   4.055  0.2338 -0.5830 -1.1037
  413MOL0     H56993   0.862  10.071   4.049  0.0745 -1.9869 -1.0994
  413MOL0     H56994   0.930  10.100   3.897  0.4241  0.3849 -0.5789
  414MOL0     O56995   0.235  10.407   7.012 -0.7506  0.7664 -0.1664
  414MOL0     C56996   0.318  10.336   7.072 -0.0863  0.0274 -0.1687
  414MOL0     O56997   0.435  10.292   7.017  1.5036 -0.2883  0.6516
  414MOL0     C56998   0.472  10.357   6.900 -0.4315  0.5120 -0.0975
  414MOL0     C56999   0.595  10.423   6.898  0.2044  0.6041 -0.4107
  414MOL0     C57000   0.642  10.467   6.780 -0.2651 -0.7046  0.5680
  414MOL0     C57001   0.578  10.454   6.660  0.9256 -0.4675  0.9367
  414MOL0     O57002   0.638  10.485   6.538 -0.0768  0.6562  0.5185
  414MOL0     C57003   0.568  10.574   6.446  1.1292 -0.5795 -0.0129
  414MOL0     C57004   0.669  10.663   6.380 -0.6762 -0.2701  0.4666
  414MOL0     C57005   0.754  10.598   6.267  0.2849 -0.0719 -1.9907
  414MOL0     C57006   0.766  10.689   6.142  0.8909  0.6913 -0.4719
  414MOL0     C57007   0.902  10.651   6.084  0.2871  0.0472 -0.2221
  414MOL0     C57008   0.934  10.722   5.952 -0.5217 -0.2022 -0.4217
  414MOL0     C57009   1.088  10.723   5.926  0.5354 -0.3396  0.0222
  414MOL0     C57010   1.126  10.795   5.789 -0.0950  0.2726  0.7880
  414MOL0     N57011   1.056  10.746   5.670 -0.4090  0.7721 -0.1274
  414MOL0     C57012   1.114  10.673   5.562 -0.3034  0.1960  0.8460
  414MOL0     C57013   1.006  10.652   5.471  0.4574  0.3173 -0.4648
  414MOL0     C57014   1.010  10.584   5.338  0.4296  0.1583  0.0823
  414MOL0     C57015   0.869  10.554   5.285  0.5146  0.6256 -0.1065
  414MOL0     C57016   0.870  10.439   5.181 -0.0306  0.1429  0.4329
  414MOL0     C57017   0.740  10.416   5.114  0.0906  0.1423 -0.0410
  414MOL0     O57018   0.703  10.528   5.023 -0.2952  0.2715 -0.8745
  414MOL0     C57019   0.593  10.505   4.937 -0.0177  0.5177  0.4193
  414MOL0     C57020   0.531  10.617   4.887 -0.5777  0.7098 -0.6060
  414MOL0     C57021   0.421  10.605   4.797  0.9521 -0.2434 -0.0658
  414MOL0     C57022   0.361  10.738   4.751  0.1126  0.4053 -0.1806
  414MOL0     C57023   0.376  10.471   4.761  0.5848 -0.6453  0.6543
  414MOL0     C57024   0.244  10.437   4.702  0.0093 -0.2807  0.4202
  414MOL0     O57025   0.220  10.315   4.642 -0.3283  0.8128  0.1156
  414MOL0     C57026   0.093  10.285   4.605  0.0710 -0.5935 -0.1008
  414MOL0     C57027   0.054  10.254   4.477  0.2467  0.6765 -0.1387
  414MOL0     C57028  -0.083  10.251   4.449 -0.7791 -0.1350  0.2142
  414MOL0     C57029  -0.180  10.250   4.538  1.0079 -0.9936 -0.5012
  414MOL0     O57030  -0.309  10.252   4.496 -0.1816  0.6513  0.3920
  414MOL0     C57031  -0.371  10.128   4.484 -0.4762  0.9568  0.3840
  414MOL0     C57032  -0.490  10.133   4.387 -1.1545  0.6503 -0.2196
  414MOL0     C57033  -0.424  10.157   4.247 -0.4059  0.0090  1.0565
  414MOL0     C57034  -0.532  10.152   4.140  0.0917  0.1793 -0.6757
  414MOL0     C57035  -0.484  10.199   4.000  0.4117  0.4259  0.3018
  414MOL0     C57036  -0.480  10.346   3.997  0.5719 -0.3392 -1.1498
  414MOL0     C57037  -0.443  10.407   3.861 -0.7963 -0.1408  1.3536
  414MOL0     C57038  -0.297  10.363   3.820  0.1089 -0.7871 -0.1207
  414MOL0    Cl57039  -0.290  10.205   3.726  0.2642  0.0439  0.0265
  414MOL0     C57040  -0.147  10.258   4.668 -0.3072  0.2568 -0.3005
  414MOL0     C57041  -0.014  10.275   4.705  0.4075 -0.4761  0.1149
  414MOL0     O57042   0.158  10.529   4.704  0.7680  0.3101 -0.2363
  414MOL0     C57043   0.449  10.359   4.812  0.2683 -0.0244  0.4368
  414MOL0     C57044   0.554  10.380   4.897 -0.9897 -0.5249  0.6599
  414MOL0     N57045   0.901  10.717   5.532 -0.2842  0.4330 -0.8150
  414MOL0     N57046   0.921  10.763   5.648  0.2010  0.3908 -0.6900
  414MOL0     C57047   0.449  10.395   6.665 -0.1203 -0.4233  0.7106
  414MOL0     C57048   0.395  10.344   6.783 -0.5759 -0.4237  0.6819
  414MOL0     C57049   0.301  10.281   7.202  0.7533 -0.6418  0.1516
  414MOL0     C57050   0.414  10.242   7.272  0.5215  0.1528  0.4483
  414MOL0     C57051   0.413  10.201   7.408  0.7420 -0.3663 -0.6671
  414MOL0     C57052   0.292  10.194   7.481  0.6890  0.0889  0.7938
  414MOL0     O57053   0.271  10.148   7.611 -0.0311 -0.6640  0.4639
  414MOL0     C57054   0.377  10.085   7.675  0.3881  0.2505 -0.0394
  414MOL0     C57055   0.474  10.185   7.745 -0.2426 -1.0614  1.4141
  414MOL0     C57056   0.402  10.256   7.866  0.5669  0.2162 -0.5907
  414MOL0     C57057   0.504  10.325   7.959  0.6277 -1.0713 -0.1141
  414MOL0     C57058   0.447  10.398   8.075  0.1081  0.1626  0.5672
  414MOL0     C57059   0.406  10.458   8.167  1.6654 -0.4686  0.0837
  414MOL0     C57060   0.174  10.226   7.407  0.0290  0.6751 -0.3388
  414MOL0     C57061   0.172  10.262   7.271  0.2112 -0.3992 -0.1555
  414MOL0     C57062   0.047  10.288   7.195  0.1719  0.6056 -0.2236
  414MOL0     H57063   0.662  10.425   6.984  1.0251 -0.8974 -0.9798
  414MOL0     H57064   0.737  10.517   6.765 -0.0563 -0.8587  1.3360
  414MOL0     H57065   0.507  10.642   6.506  1.6026 -0.0985 -0.0707
  414MOL0     H57066   0.511  10.521   6.370  0.9841  1.1640 -1.1873
  414MOL0     H57067   0.611  10.745   6.338  0.7936  0.1417 -0.8386
  414MOL0     H57068   0.744  10.710   6.445  0.9303 -0.9094 -0.8227
  414MOL0     H57069   0.852  10.585   6.314 -1.2467  2.5191  2.5986
  414MOL0     H57070   0.714  10.497   6.253 -2.0400 -0.4953  4.4407
  414MOL0     H57071   0.692  10.655   6.068  0.7608 -0.0426 -0.0078
  414MOL0     H57072   0.761  10.798   6.148  2.0290  0.6632  1.5091
  414MOL0     H57073   0.901  10.542   6.076  0.0347 -0.2289  2.5772
  414MOL0     H57074   0.980  10.665   6.160 -0.0120  0.3993  0.0264
  414MOL0     H57075   0.880  10.677   5.868 -0.1135 -2.1739  0.3368
  414MOL0     H57076   0.904  10.826   5.970 -2.0252 -0.6423 -0.1949
  414MOL0     H57077   1.117  10.619   5.907 -0.8475 -0.3368 -2.5149
  414MOL0     H57078   1.137  10.769   6.013 -1.2048 -1.6892  1.8181
  414MOL0     H57079   1.110  10.901   5.809 -3.0563 -0.1176  0.9225
  414MOL0     H57080   1.232  10.773   5.770  0.0613  1.8642 -0.3024
  414MOL0     H57081   1.218  10.642   5.559 -0.9367 -2.0285 -1.1366
  414MOL0     H57082   1.057  10.490   5.367 -3.8075 -1.4487  2.7754
  414MOL0     H57083   1.079  10.636   5.271  2.5471 -0.5117  1.6437
  414MOL0     H57084   0.798  10.515   5.359  1.8297  0.8496  1.3245
  414MOL0     H57085   0.821  10.645   5.247  0.7170  0.7256 -0.1248
  414MOL0     H57086   0.947  10.462   5.106 -0.7212  3.0546  0.5092
  414MOL0     H57087   0.905  10.348   5.231 -0.8477  0.3075  1.3182
  414MOL0     H57088   0.739  10.322   5.057 -1.6205 -0.6441  1.1977
  414MOL0     H57089   0.660  10.403   5.187 -1.8637  3.0741 -1.4628
  414MOL0     H57090   0.563  10.713   4.925 -0.2598  0.9993 -1.5958
  414MOL0     H57091   0.302  10.722   4.660 -1.2283  0.3158  0.6795
  414MOL0     H57092   0.441  10.809   4.729  0.4223 -0.4183 -1.9652
  414MOL0     H57093   0.300  10.787   4.827 -2.2097  2.2397 -2.9795
  414MOL0     H57094   0.117  10.266   4.390  0.6344 -1.4109 -0.2045
  414MOL0     H57095  -0.093  10.249   4.341  1.7188 -2.4185 -0.0847
  414MOL0     H57096  -0.303  10.054   4.442 -1.9182  0.2058 -0.7109
  414MOL0     H57097  -0.415  10.100   4.581  1.9225  0.0390  1.2910
  414MOL0     H57098  -0.547  10.039   4.389 -0.8524  0.4210 -1.5867
  414MOL0     H57099  -0.553  10.219   4.412  0.0745  2.0378 -1.6646
  414MOL0     H57100  -0.341  10.089   4.223  0.5136  1.0292  1.2853
  414MOL0     H57101  -0.385  10.258   4.240 -2.3267  0.6824 -1.2218
  414MOL0     H57102  -0.619  10.210   4.173 -0.8253 -1.1802 -0.5874
  414MOL0     H57103  -0.554  10.045   4.146  1.3682 -0.0012  2.0777
  414MOL0     H57104  -0.388  10.151   3.982  0.4046 -0.7286  2.8793
  414MOL0     H57105  -0.557  10.176   3.921  1.0731  5.7280 -2.3326
  414MOL0     H57106  -0.416  10.374   4.081  1.4821 -3.8580 -0.4952
  414MOL0     H57107  -0.574  10.396   4.022  2.2187  3.3802 -1.7615
  414MOL0     H57108  -0.450  10.516   3.865  1.8206  0.6899 -5.0186
  414MOL0     H57109  -0.522  10.378   3.791 -0.2037  0.0995  0.5656
  414MOL0     H57110  -0.242  10.344   3.913 -2.4476 -1.4975  1.3214
  414MOL0     H57111  -0.249  10.440   3.759  0.5699  0.5909  1.8768
  414MOL0     H57112  -0.230  10.269   4.738 -0.0632  1.9106 -0.2332
  414MOL0     H57113   0.011  10.308   4.805  2.7409 -3.1733  0.5717
  414MOL0     H57114   0.417  10.257   4.797  1.7475 -0.2299 -1.9580
  414MOL0     H57115   0.611  10.293   4.928  1.0756  0.6159  0.2461
  414MOL0     H57116   0.388  10.388   6.576 -5.6121  2.4517  3.7115
  414MOL0     H57117   0.299  10.293   6.785  0.0963 -1.7210  1.0127
  414MOL0     H57118   0.515  10.266   7.242  0.0546 -1.0588 -2.3168
  414MOL0     H57119   0.511  10.181   7.450  0.0814  1.1835  1.8025
  414MOL0     H57120   0.334  10.017   7.749  1.3808  0.0962  0.3993
  414MOL0     H57121   0.433  10.028   7.601  0.6410  1.8954 -1.1710
  414MOL0     H57122   0.519  10.248   7.668  1.8222 -2.9379  0.9799
  414MOL0     H57123   0.553  10.125   7.792  1.1551  2.0042  3.3004
  414MOL0     H57124   0.326  10.329   7.840  0.2708  0.6968  1.4808
  414MOL0     H57125   0.349  10.186   7.931 -1.6550  1.5562 -0.8790
  414MOL0     H57126   0.558  10.393   7.893 -2.5823  0.9475 -0.8950
  414MOL0     H57127   0.574  10.250   7.998  1.4273 -0.9443 -1.2712
  414MOL0     H57128   0.371  10.520   8.248 -0.0170  3.6802 -3.4271
  414MOL0     H57129   0.077  10.199   7.449 -0.1881  1.4233 -0.3390
  414MOL0     H57130   0.047  10.389   7.153 -0.1126  1.1806  1.0973
  414MOL0     H57131   0.043  10.205   7.124  3.9295 -1.3727  1.5339
  414MOL0     H57132  -0.041  10.279   7.259 -0.2072 -1.4506 -0.9518
  415MOL0     O57133   7.761   5.001   8.068  1.1277  0.2583  0.2406
  415MOL0     C57134   7.661   4.949   8.009 -0.0923 -1.1080 -0.4103
  415MOL0     O57135   7.644   4.814   8.000 -0.5652 -0.0511  0.2747
  415MOL0     C57136   7.728   4.731   8.077  0.1585  0.7128 -0.4718
  415MOL0     C57137   7.834   4.657   8.024 -0.1146 -1.4989  0.8344
  415MOL0     C57138   7.908   4.569   8.103  0.5683  0.1484  0.1461
  415MOL0     C57139   7.871   4.555   8.244  0.4143 -0.6399 -1.0685
  415MOL0     O57140   7.929   4.465   8.334 -1.4715  0.0257  0.2545
  415MOL0     C57141   7.966   4.520   8.470  0.9776  0.5880  0.1097
  415MOL0     C57142   8.108   4.580   8.461  1.4226 -0.5891 -0.1611
  415MOL0     C57143   8.218   4.470   8.472 -0.6282 -0.3308 -0.5513
  415MOL0     C57144   8.360   4.514   8.531  0.0039 -0.2744  0.3500
  415MOL0     C57145   8.418   4.620   8.439 -0.0339 -0.1036  0.8526
  415MOL0     C57146   8.455   4.571   8.292  0.5004 -0.1589 -0.4844
  415MOL0     C57147   8.560   4.453   8.283 -0.5440 -0.6792 -0.4306
  415MOL0     C57148   8.693   4.507   8.324  0.4336  0.7487  0.6603
  415MOL0     N57149   8.806   4.429   8.271  0.5666  0.6728  0.6957
  415MOL0     C57150   8.831   4.404   8.137  0.3812 -0.6875  0.6445
  415MOL0     C57151   8.960   4.360   8.129  0.4552 -1.1069 -0.5443
  415MOL0     C57152   9.040   4.319   8.011 -0.1072 -0.5569  0.7975
  415MOL0     C57153   9.179   4.387   7.994  1.0219  0.2034  0.0307
  415MOL0     C57154   9.258   4.318   7.877  0.0453 -1.2204  0.1742
  415MOL0     C57155   9.375   4.417   7.832  1.2477  1.1665  0.1759
  415MOL0     O57156   9.465   4.421   7.936  0.6114  0.4384  0.0625
  415MOL0     C57157   9.578   4.479   7.891  0.0986  0.3058 -0.4176
  415MOL0     C57158   9.604   4.611   7.905  0.0729  0.0681 -0.3296
  415MOL0     C57159   9.718   4.668   7.844  0.7607 -0.1427 -0.1076
  415MOL0     C57160   9.750   4.817   7.863 -0.1738  0.0238 -0.7932
  415MOL0     C57161   9.807   4.585   7.779  0.3619 -0.4192  0.5072
  415MOL0     C57162   9.912   4.638   7.697  0.0311  0.7982  0.0064
  415MOL0     O57163  10.033   4.574   7.715 -0.2946  0.4620  0.3755
  415MOL0     C57164  10.148   4.605   7.644 -0.1065 -0.0407  0.9242
  415MOL0     C57165  10.275   4.592   7.711  0.1571  0.0351  0.7363
  415MOL0     C57166  10.398   4.621   7.638  0.2428 -0.2974 -0.0069
  415MOL0     C57167  10.395   4.676   7.507 -0.0265 -0.0134 -1.1981
  415MOL0     O57168  10.519   4.720   7.462  0.0453  0.2861 -0.4403
  415MOL0     C57169  10.550   4.697   7.325  0.4741  0.5181 -0.4401
  415MOL0     C57170  10.700   4.715   7.301  0.0774 -0.0731 -0.2103
  415MOL0     C57171  10.794   4.594   7.343 -0.6335 -0.5409  0.1265
  415MOL0     C57172  10.940   4.639   7.347  0.5282 -0.1154 -0.4391
  415MOL0     C57173  10.994   4.674   7.211  0.3498 -0.4281  0.7691
  415MOL0     C57174  11.144   4.693   7.213  0.2439 -0.2057 -0.0695
  415MOL0     C57175  11.205   4.690   7.071 -0.1105 -0.3986  0.7192
  415MOL0     C57176  11.238   4.545   7.025 -0.8018 -0.2567  0.4447
  415MOL0    Cl57177  11.366   4.556   6.895 -0.0624  0.1026  0.2843
  415MOL0     C57178  10.265   4.676   7.433  0.2616  0.1449  0.5949
  415MOL0     C57179  10.147   4.640   7.501 -0.1993  0.0869  0.3676
  415MOL0     O57180   9.893   4.731   7.619  0.6443  0.4897  0.0878
  415MOL0     C57181   9.778   4.451   7.767  0.3829  0.2123  0.4920
  415MOL0     C57182   9.666   4.398   7.827  0.6105  0.0522  0.2458
  415MOL0     N57183   8.993   4.337   8.263 -0.0524  1.2311 -0.5748
  415MOL0     N57184   8.900   4.381   8.343 -1.2496 -0.0015  0.3922
  415MOL0     C57185   7.767   4.635   8.294 -0.1715 -0.2150  0.9518
  415MOL0     C57186   7.693   4.717   8.214  0.8399  0.5753  0.5930
  415MOL0     C57187   7.564   5.048   7.939 -0.0709 -0.2573 -0.7802
  415MOL0     C57188   7.601   5.184   7.924  0.3738  0.4969 -0.3123
  415MOL0     C57189   7.512   5.280   7.886 -2.0519  0.1364  0.8054
  415MOL0     C57190   7.382   5.246   7.851 -0.0787  1.0514  0.1464
  415MOL0     O57191   7.298   5.337   7.799  0.1249 -0.1891  0.6460
  415MOL0     C57192   7.233   5.412   7.901 -0.0300  0.0444  0.5478
  415MOL0     C57193   7.167   5.532   7.836 -0.6523 -0.2754 -1.0313
  415MOL0     C57194   7.039   5.510   7.761 -0.4431  0.2686  0.4590
  415MOL0     C57195   6.983   5.645   7.697 -0.0864 -0.4345  0.3744
  415MOL0     C57196   6.900   5.722   7.794 -0.0937 -0.1545 -0.1869
  415MOL0     C57197   6.836   5.791   7.869  0.7417 -0.1555 -0.8481
  415MOL0     C57198   7.352   5.112   7.842 -0.0077  0.0414  0.0715
  415MOL0     C57199   7.434   5.011   7.898 -0.5911 -0.2172  0.3021
  415MOL0     C57200   7.375   4.886   7.918 -1.2340 -0.1655  0.5958
  415MOL0     H57201   7.842   4.663   7.915 -0.0578  0.6626  0.9128
  415MOL0     H57202   7.997   4.525   8.058 -0.0870 -0.4404 -0.5975
  415MOL0     H57203   7.959   4.435   8.539 -1.6196  0.8452  0.2588
  415MOL0     H57204   7.907   4.598   8.518  2.5037  1.6880  0.2586
  415MOL0     H57205   8.123   4.641   8.372 -2.5691  5.9253  2.8243
  415MOL0     H57206   8.122   4.650   8.544 -0.1555 -0.1411 -0.2310
  415MOL0     H57207   8.180   4.381   8.523 -0.6132  0.4039  0.7741
  415MOL0     H57208   8.225   4.439   8.367 -0.2841 -2.2489  0.0082
  415MOL0     H57209   8.348   4.571   8.623 -0.8136 -0.8427  0.6102
  415MOL0     H57210   8.433   4.433   8.542  1.3335  0.9248  0.6140
  415MOL0     H57211   8.511   4.657   8.483  0.7086 -0.4388 -0.3817
  415MOL0     H57212   8.350   4.704   8.423  1.6543  1.0022 -0.9055
  415MOL0     H57213   8.363   4.531   8.249  0.9243 -1.5833 -0.1256
  415MOL0     H57214   8.486   4.662   8.239  0.0595  0.0416 -0.3978
  415MOL0     H57215   8.567   4.417   8.180 -3.4274 -0.5643 -0.7303
  415MOL0     H57216   8.531   4.360   8.334 -0.1977 -0.5211  0.0654
  415MOL0     H57217   8.698   4.611   8.293  1.8870  0.7499  0.8190
  415MOL0     H57218   8.691   4.506   8.434 -3.2729  1.9473  0.7348
  415MOL0     H57219   8.764   4.426   8.055 -0.2266 -2.0708  0.7394
  415MOL0     H57220   8.990   4.329   7.913 -0.8118  1.3160  1.2919
  415MOL0     H57221   9.048   4.213   8.037 -0.0478 -1.0465 -1.0316
  415MOL0     H57222   9.174   4.494   7.973 -1.9201  0.1811  0.1670
  415MOL0     H57223   9.235   4.369   8.086 -1.6330 -1.6012  1.4232
  415MOL0     H57224   9.285   4.215   7.904 -0.5371 -2.1033 -2.3361
  415MOL0     H57225   9.192   4.305   7.791  1.0218 -2.7438 -0.3891
  415MOL0     H57226   9.419   4.390   7.735 -1.0843 -0.3280 -0.5533
  415MOL0     H57227   9.330   4.516   7.822 -0.1225  0.5072 -0.3690
  415MOL0     H57228   9.536   4.679   7.954 -2.2189 -3.5147  1.9538
  415MOL0     H57229   9.760   4.859   7.763  0.6014  0.3009 -0.6026
  415MOL0     H57230   9.849   4.815   7.909  0.0545  0.7578 -1.2357
  415MOL0     H57231   9.674   4.874   7.917 -0.7273 -0.7191 -0.7645
  415MOL0     H57232  10.269   4.550   7.811  2.7764 -0.7125  0.6563
  415MOL0     H57233  10.483   4.605   7.704  0.4026 -1.4885 -0.4774
  415MOL0     H57234  10.523   4.596   7.290 -0.0002  0.8818 -1.1723
  415MOL0     H57235  10.495   4.768   7.263 -0.9806 -1.3037 -1.3423
  415MOL0     H57236  10.714   4.736   7.195  0.8842  2.1107  0.2791
  415MOL0     H57237  10.735   4.807   7.348  0.5246  0.1910 -1.0446
  415MOL0     H57238  10.793   4.521   7.262  0.5892 -0.0964 -0.3105
  415MOL0     H57239  10.764   4.535   7.430  0.9265 -4.6938 -1.8691
  415MOL0     H57240  10.991   4.549   7.383 -0.4896 -0.6460 -0.2796
  415MOL0     H57241  10.951   4.723   7.416 -0.1685  1.3697 -2.0658
  415MOL0     H57242  10.962   4.591   7.148 -0.9170  1.2114 -0.8544
  415MOL0     H57243  10.958   4.770   7.173 -0.0005  0.2035  2.6033
  415MOL0     H57244  11.179   4.609   7.272 -2.2171 -0.7952  0.6882
  415MOL0     H57245  11.176   4.790   7.251  5.1748 -0.7347 -2.1991
  415MOL0     H57246  11.295   4.753   7.068 -1.7299  2.0646  1.2460
  415MOL0     H57247  11.132   4.735   7.003 -0.1912 -0.1884  0.9406
  415MOL0     H57248  11.154   4.485   6.990  0.3600 -2.2678  0.9369
  415MOL0     H57249  11.278   4.474   7.098 -0.2632  1.7518  2.2019
  415MOL0     H57250  10.261   4.710   7.330  1.2983  2.0238  1.1327
  415MOL0     H57251  10.052   4.637   7.448 -0.6942 -0.0405  1.2321
  415MOL0     H57252   9.847   4.383   7.718 -1.0000  0.4040 -1.8619
  415MOL0     H57253   9.653   4.290   7.828  4.0810 -0.4806 -0.0910
  415MOL0     H57254   7.740   4.625   8.399  2.1883 -3.9808  1.3814
  415MOL0     H57255   7.601   4.756   8.257 -1.4695 -1.0065 -2.5158
  415MOL0     H57256   7.704   5.214   7.936  0.6770  1.2803 -3.7797
  415MOL0     H57257   7.545   5.382   7.866  0.0207 -0.5569  0.4645
  415MOL0     H57258   7.157   5.347   7.945  0.2788 -2.5346 -2.3561
  415MOL0     H57259   7.303   5.448   7.977  0.8658 -0.8773  0.1874
  415MOL0     H57260   7.231   5.598   7.777 -0.2423  1.7865  1.5239
  415MOL0     H57261   7.151   5.605   7.916 -0.2755 -2.4498  1.1519
  415MOL0     H57262   7.060   5.436   7.683  0.1135 -0.9296  1.6939
  415MOL0     H57263   6.964   5.465   7.826  0.7058 -2.6529 -0.0911
  415MOL0     H57264   6.922   5.608   7.613 -0.1311 -1.7402  0.9571
  415MOL0     H57265   7.062   5.707   7.655 -1.2237 -0.5399 -2.1026
  415MOL0     H57266   6.784   5.852   7.940  3.7432  6.4811 -3.4982
  415MOL0     H57267   7.254   5.087   7.803 -0.0460  1.5275 -0.8676
  415MOL0     H57268   7.292   4.872   7.849 -0.1649 -3.4142 -0.1827
  415MOL0     H57269   7.430   4.800   7.881 -0.1873  0.9189 -0.4587
  415MOL0     H57270   7.346   4.864   8.021  2.8178  0.8861  2.1363
  416MOL0     O57271   1.447   9.479   6.734  0.5150  0.0575  0.1248
  416MOL0     C57272   1.370   9.483   6.833 -0.0650 -1.1351 -0.0294
  416MOL0     O57273   1.415   9.494   6.964  0.2285  0.1015 -0.3355
  416MOL0     C57274   1.551   9.493   6.999  0.4422  1.1645  0.2990
  416MOL0     C57275   1.600   9.389   7.076  0.1045 -0.9047  0.5062
  416MOL0     C57276   1.737   9.388   7.124  0.6099  0.0449 -0.1318
  416MOL0     C57277   1.822   9.483   7.086 -0.7417 -1.0360  0.5015
  416MOL0     O57278   1.960   9.464   7.106 -0.2941 -0.4984 -0.1979
  416MOL0     C57279   2.033   9.439   6.990 -1.2165  0.6687  0.2741
  416MOL0     C57280   2.173   9.381   7.033 -0.1101  0.9576  0.1623
  416MOL0     C57281   2.265   9.470   7.117  0.2186 -0.0005  0.8140
  416MOL0     C57282   2.288   9.609   7.049 -0.5693  0.0360 -0.0542
  416MOL0     C57283   2.415   9.672   7.106 -0.6474  0.4464  0.5267
  416MOL0     C57284   2.401   9.712   7.256 -0.5768 -1.1249  0.2271
  416MOL0     C57285   2.539   9.764   7.308  0.7659  0.0615 -0.4889
  416MOL0     C57286   2.522   9.884   7.394  0.1035 -0.4348 -1.1586
  416MOL0     N57287   2.458   9.843   7.525 -0.3335 -0.4556  0.5684
  416MOL0     C57288   2.338   9.868   7.568 -0.1372 -0.6379  0.8925
  416MOL0     C57289   2.337   9.797   7.684 -0.4076 -1.1656  0.7325
  416MOL0     C57290   2.217   9.789   7.773  0.2133  0.6728 -0.1757
  416MOL0     C57291   2.259   9.846   7.912 -0.2046  0.1234  0.7304
  416MOL0     C57292   2.147   9.872   8.005  1.5675 -0.5645 -0.2430
  416MOL0     C57293   2.123  10.033   8.012 -0.2151  0.0954  0.9768
  416MOL0     O57294   2.242  10.093   8.067 -0.1297 -0.6394  0.9123
  416MOL0     C57295   2.272  10.080   8.202  0.1148 -0.1890  0.3066
  416MOL0     C57296   2.396  10.140   8.241 -0.1246  0.2499  0.0730
  416MOL0     C57297   2.431  10.139   8.382  0.3643  1.1364 -1.0003
  416MOL0     C57298   2.558  10.201   8.421 -0.2002 -0.6875  0.0295
  416MOL0     C57299   2.346  10.079   8.482 -0.6176  0.5153 -0.5893
  416MOL0     C57300   2.379  10.064   8.632 -0.3918 -0.4828  0.1056
  416MOL0     O57301   2.285   9.990   8.704 -0.5705  0.6749 -0.0264
  416MOL0     C57302   2.297   9.970   8.843 -0.1739  0.0038 -0.0118
  416MOL0     C57303   2.178   9.982   8.913  0.3779  0.5251  0.2587
  416MOL0     C57304   2.173   9.955   9.059 -0.0971 -0.8582  0.9317
  416MOL0     C57305   2.296   9.925   9.130 -0.4540  0.2530  0.0191
  416MOL0     O57306   2.304   9.904   9.268 -0.4419  0.1996  0.0785
  416MOL0     C57307   2.212   9.999   9.339  0.0512 -0.1158 -0.0177
  416MOL0     C57308   2.217   9.947   9.482  0.1018  0.0148  0.8017
  416MOL0     C57309   2.087   9.999   9.558 -1.1877 -0.0891  0.4104
  416MOL0     C57310   2.087   9.959   9.702  0.6192  0.0284  0.1558
  416MOL0     C57311   2.010  10.059   9.782  0.0209 -0.1526 -0.4126
  416MOL0     C57312   1.999  10.028   9.936 -0.6273  0.9283  0.2325
  416MOL0     C57313   1.895   9.927   9.974 -1.0874  0.9467 -0.0915
  416MOL0     C57314   1.922   9.882  10.124  0.3115  0.2606  0.8047
  416MOL0    Cl57315   1.809   9.739  10.148 -0.3508  0.0828 -0.0411
  416MOL0     C57316   2.411   9.953   9.053  0.8707 -0.7969 -0.5736
  416MOL0     C57317   2.411   9.963   8.915  0.4908  0.3236  0.2495
  416MOL0     O57318   2.492  10.104   8.679  0.2335 -0.1204  0.4994
  416MOL0     C57319   2.224  10.036   8.432  0.0451 -0.2624  0.4774
  416MOL0     C57320   2.185  10.031   8.299  0.7691 -0.4721 -0.5792
  416MOL0     N57321   2.460   9.737   7.721  0.2013  0.0550  0.0010
  416MOL0     N57322   2.533   9.784   7.622 -0.1335 -0.5427  0.6135
  416MOL0     C57323   1.771   9.591   7.014 -0.0382 -0.2151  0.1906
  416MOL0     C57324   1.635   9.601   6.980 -1.2791 -0.1980  0.3628
  416MOL0     C57325   1.224   9.500   6.811 -1.1012 -0.8670 -0.0250
  416MOL0     C57326   1.140   9.465   6.910 -0.0511  0.3596  0.4531
  416MOL0     C57327   0.998   9.465   6.888 -0.2098 -0.2931  0.5208
  416MOL0     C57328   0.939   9.510   6.771  0.0783 -0.2048  0.3329
  416MOL0     O57329   0.805   9.509   6.754 -0.4947  0.0766 -1.1731
  416MOL0     C57330   0.738   9.542   6.633  0.2451 -0.4696  0.2943
  416MOL0     C57331   0.750   9.437   6.525  0.6734  0.2990  1.3524
  416MOL0     C57332   0.681   9.481   6.391  0.3140 -0.5312  0.2321
  416MOL0     C57333   0.753   9.605   6.328  0.3841  0.0091  0.5107
  416MOL0     C57334   0.896   9.584   6.307  0.1987 -0.3033  0.6899
  416MOL0     C57335   1.010   9.578   6.260  0.3486  0.1753  0.4530
  416MOL0     C57336   1.028   9.546   6.669  0.4643 -0.1991 -0.8161
  416MOL0     C57337   1.167   9.534   6.685  0.3208  0.2509  0.2360
  416MOL0     C57338   1.243   9.589   6.574  0.2459  0.3164  0.9499
  416MOL0     H57339   1.538   9.307   7.110 -5.3870  2.7671  0.4894
  416MOL0     H57340   1.773   9.299   7.175 -1.0343 -0.1374  0.7837
  416MOL0     H57341   2.056   9.531   6.935  1.6399  0.9202  1.7422
  416MOL0     H57342   1.988   9.363   6.925 -2.1700  3.3949 -2.5154
  416MOL0     H57343   2.148   9.292   7.092  0.0027  0.1385 -0.9959
  416MOL0     H57344   2.222   9.350   6.940 -2.6555  0.2314 -1.0202
  416MOL0     H57345   2.224   9.485   7.218  0.5336 -1.1152  1.1211
  416MOL0     H57346   2.362   9.423   7.136  0.2979 -0.8845 -1.5153
  416MOL0     H57347   2.301   9.596   6.941  1.1521  2.4520 -0.2066
  416MOL0     H57348   2.205   9.672   7.082 -1.6505 -2.0697  1.5120
  416MOL0     H57349   2.448   9.757   7.045  1.2731  0.1567  1.0941
  416MOL0     H57350   2.489   9.592   7.097 -2.3674 -1.4160  2.0778
  416MOL0     H57351   2.328   9.793   7.264  0.3800 -0.2479  0.1278
  416MOL0     H57352   2.372   9.639   7.333 -4.2647  1.2414  1.3273
  416MOL0     H57353   2.611   9.797   7.233  0.8724  0.2428 -0.3088
  416MOL0     H57354   2.579   9.695   7.383 -0.8915  2.3875  2.8000
  416MOL0     H57355   2.621   9.923   7.419 -0.3314 -0.2610  0.4136
  416MOL0     H57356   2.471   9.967   7.344  0.1695 -0.8860 -1.9898
  416MOL0     H57357   2.267   9.926   7.510  1.3106 -1.1314 -1.5004
  416MOL0     H57358   2.173   9.689   7.773  1.0279  0.2993  0.6131
  416MOL0     H57359   2.132   9.848   7.737 -0.6585 -0.6666 -0.3464
  416MOL0     H57360   2.329   9.773   7.955  0.8433  1.7976  1.9710
  416MOL0     H57361   2.310   9.941   7.896  1.9380 -1.3111 -1.7930
  416MOL0     H57362   2.056   9.829   7.963 -1.2440  3.5081  1.1328
  416MOL0     H57363   2.143   9.822   8.103  0.4883 -1.3351 -0.6646
  416MOL0     H57364   2.104  10.070   7.911 -0.6736 -1.1521  0.5815
  416MOL0     H57365   2.040  10.072   8.071 -0.3555  4.5455 -1.7187
  416MOL0     H57366   2.458  10.175   8.160  0.5891 -0.0847  0.4628
  416MOL0     H57367   2.553  10.289   8.487 -0.2150  0.5802 -1.5883
  416MOL0     H57368   2.620  10.224   8.334 -1.7338  0.5236 -0.8134
  416MOL0     H57369   2.624  10.132   8.474 -0.9582 -0.8505  0.7910
  416MOL0     H57370   2.079   9.988   8.869 -1.3038  0.5915  3.6848
  416MOL0     H57371   2.076   9.962   9.107 -0.6491  0.5176 -0.3049
  416MOL0     H57372   2.255  10.100   9.333  1.4776 -0.7198 -0.4476
  416MOL0     H57373   2.107   9.998   9.309  0.1247 -0.5503 -0.2605
  416MOL0     H57374   2.214   9.838   9.490  0.7035  0.0285  1.2750
  416MOL0     H57375   2.301   9.985   9.540 -2.0631  0.2338  4.0341
  416MOL0     H57376   1.993   9.962   9.514 -0.9332  1.0845 -1.1855
  416MOL0     H57377   2.093  10.108   9.553  2.0665 -0.2155 -0.2388
  416MOL0     H57378   2.192   9.952   9.730  0.9451 -1.2894 -1.2826
  416MOL0     H57379   2.043   9.859   9.713 -1.0281  0.8912  2.1588
  416MOL0     H57380   2.034  10.166   9.785 -1.2816  0.1358  0.7146
  416MOL0     H57381   1.910  10.060   9.738 -0.0540 -1.1277 -0.2816
  416MOL0     H57382   1.982  10.118   9.996 -0.8467  0.0962  1.4597
  416MOL0     H57383   2.096   9.985   9.963 -0.6305  1.3087  0.8511
  416MOL0     H57384   1.897   9.836   9.914  2.3405 -0.4748  1.8806
  416MOL0     H57385   1.801   9.983   9.971 -2.4920 -1.2001  0.9948
  416MOL0     H57386   1.898   9.965  10.191 -1.4701  1.2184 -0.9202
  416MOL0     H57387   2.025   9.849  10.145 -0.3171 -2.1893  0.3888
  416MOL0     H57388   2.503   9.932   9.107  0.2046 -0.2422  0.8268
  416MOL0     H57389   2.499   9.940   8.855 -1.6252 -2.6675 -1.9621
  416MOL0     H57390   2.156   9.999   8.508  1.6937  0.8173  2.5773
  416MOL0     H57391   2.093   9.976   8.284  0.0199  0.6559 -0.3072
  416MOL0     H57392   1.833   9.673   6.978  1.3379 -1.9102 -1.5398
  416MOL0     H57393   1.595   9.684   6.923 -0.0922 -1.0672 -1.8657
  416MOL0     H57394   1.178   9.442   7.009  3.1769  3.7189  0.2163
  416MOL0     H57395   0.931   9.432   6.966  0.7779 -0.1596  1.4388
  416MOL0     H57396   0.632   9.543   6.659  0.5856  0.5430  1.7883
  416MOL0     H57397   0.755   9.645   6.599 -2.3729  0.0055  0.2011
  416MOL0     H57398   0.700   9.344   6.551 -0.4263  0.7453  0.8892
  416MOL0     H57399   0.855   9.411   6.504 -0.7985 -3.5398 -2.8899
  416MOL0     H57400   0.664   9.403   6.318 -3.3836  0.4089 -0.1086
  416MOL0     H57401   0.580   9.503   6.426  0.3974 -1.4796  1.1134
  416MOL0     H57402   0.746   9.697   6.386 -0.1743  0.8079 -0.7769
  416MOL0     H57403   0.702   9.632   6.235  3.8261 -0.1480 -1.5959
  416MOL0     H57404   1.111   9.563   6.228 -0.3900 -1.8164 -1.1760
  416MOL0     H57405   0.982   9.585   6.578 -0.7647 -1.1906 -0.6396
  416MOL0     H57406   1.184   9.655   6.510  1.4465 -1.4528 -2.2065
  416MOL0     H57407   1.323   9.649   6.618 -0.0675  1.4209  0.0493
  416MOL0     H57408   1.279   9.505   6.515 -0.1253  1.8223 -1.5511
  417MOL0     O57409   0.291   0.507  10.479  0.6247  0.0713 -0.2224
  417MOL0     C57410   0.219   0.524  10.574 -0.1261  0.6748 -0.5572
  417MOL0     O57411   0.249   0.505  10.704 -0.5227  0.1190 -0.2085
  417MOL0     C57412   0.356   0.422  10.738 -0.8369 -0.2732 -0.0685
  417MOL0     C57413   0.426   0.325  10.661 -0.1991  0.6072  0.1451
  417MOL0     C57414   0.532   0.257  10.724 -0.4950 -0.0195  0.4656
  417MOL0     C57415   0.573   0.276  10.852  0.1363  0.3972 -0.3621
  417MOL0     O57416   0.690   0.219  10.902 -0.0557 -0.2578 -0.6114
  417MOL0     C57417   0.792   0.301  10.966  0.1447  0.9778  0.1155
  417MOL0     C57418   0.826   0.239  11.102 -0.7702  0.5972 -0.2239
  417MOL0     C57419   0.893   0.095  11.089 -0.2997 -0.6419  0.0938
  417MOL0     C57420   0.939   0.041  11.230  0.3545 -1.2108 -0.5218
  417MOL0     C57421   1.008  -0.093  11.222 -0.0237  0.1997  0.3615
  417MOL0     C57422   0.917  -0.205  11.184 -0.7643 -0.1291  0.0298
  417MOL0     C57423   0.793  -0.228  11.268 -0.0720 -1.0299 -0.6172
  417MOL0     C57424   0.685  -0.312  11.204  0.2414  0.3637 -0.4973
  417MOL0     N57425   0.749  -0.436  11.152  0.2027 -0.7079  1.0086
  417MOL0     C57426   0.843  -0.503  11.229  0.1218 -0.8466 -0.9056
  417MOL0     C57427   0.878  -0.613  11.157  0.3465  0.0813  0.3178
  417MOL0     C57428   0.989  -0.712  11.194  0.4942  0.1488  0.0626
  417MOL0     C57429   0.988  -0.759  11.333 -0.8337  0.5190  0.7413
  417MOL0     C57430   0.864  -0.843  11.361 -0.8541 -1.0426 -1.6938
  417MOL0     C57431   0.848  -0.884  11.514  0.5992 -0.4653 -0.5318
  417MOL0     O57432   0.848  -0.767  11.602  0.3303  0.4268 -0.4015
  417MOL0     C57433   0.791  -0.779  11.729  0.5579 -0.5024 -0.2991
  417MOL0     C57434   0.761  -0.895  11.801 -0.3771  0.8434 -0.2406
  417MOL0     C57435   0.719  -0.888  11.938  0.0966  0.2879  0.0839
  417MOL0     C57436   0.671  -1.007  12.017  0.7331  0.1995 -0.0683
  417MOL0     C57437   0.709  -0.755  11.989  0.6708 -0.3729  0.1846
  417MOL0     C57438   0.649  -0.724  12.122  0.5836 -0.1808 -0.0812
  417MOL0     O57439   0.533  -0.790  12.155 -0.2290 -0.7144 -0.3434
  417MOL0     C57440   0.526  -0.831  12.291 -0.0707  0.9933  0.6594
  417MOL0     C57441   0.618  -0.813  12.391  0.3227 -0.4882  0.5057
  417MOL0     C57442   0.589  -0.863  12.520  0.6331 -0.1725 -0.0103
  417MOL0     C57443   0.469  -0.913  12.558  0.4873  0.2742 -0.2429
  417MOL0     O57444   0.450  -0.962  12.684  0.1287  0.0811  0.8477
  417MOL0     C57445   0.333  -1.041  12.721 -0.4056 -0.1578  0.5255
  417MOL0     C57446   0.363  -1.106  12.856  0.1663 -1.6519  0.1604
  417MOL0     C57447   0.337  -1.006  12.967 -0.3297 -0.2158  0.2545
  417MOL0     C57448   0.353  -1.065  13.110  0.2080  0.4678 -0.6361
  417MOL0     C57449   0.243  -1.004  13.206  0.2099 -0.1860  0.0814
  417MOL0     C57450   0.262  -0.859  13.247 -0.1032  0.0452  0.1133
  417MOL0     C57451   0.162  -0.815  13.365 -1.2560  0.2949 -0.4251
  417MOL0     C57452   0.141  -0.663  13.379 -1.2876  0.1538  0.3250
  417MOL0    Cl57453   0.310  -0.597  13.433  0.3688 -0.2048 -0.0656
  417MOL0     C57454   0.378  -0.929  12.459  0.0333 -0.1754  0.4627
  417MOL0     C57455   0.409  -0.892  12.325 -0.1261  0.1867  0.3773
  417MOL0     O57456   0.697  -0.630  12.185 -0.0382  1.2704  0.2109
  417MOL0     C57457   0.736  -0.641  11.916  0.0193 -0.4641  0.0084
  417MOL0     C57458   0.781  -0.657  11.788  0.4680 -0.9543 -0.1774
  417MOL0     N57459   0.806  -0.608  11.037  1.2085 -0.2795  0.1705
  417MOL0     N57460   0.723  -0.499  11.032  0.0271 -0.3995 -0.3185
  417MOL0     C57461   0.499   0.358  10.931 -0.2244 -1.0070  1.1568
  417MOL0     C57462   0.393   0.437  10.874  0.7216  0.5450 -0.3814
  417MOL0     C57463   0.084   0.579  10.543 -0.1230 -0.6352  0.1991
  417MOL0     C57464   0.026   0.643  10.651 -0.5013  0.2475  0.6460
  417MOL0     C57465  -0.090   0.715  10.637  0.0551  0.3085  0.2384
  417MOL0     C57466  -0.148   0.731  10.511  0.2524  0.1016 -0.0094
  417MOL0     O57467  -0.258   0.819  10.499 -0.2328  0.3894 -0.2104
  417MOL0     C57468  -0.370   0.785  10.421  0.4388 -0.6036  0.1547
  417MOL0     C57469  -0.452   0.679  10.490 -1.3698  0.1903  0.4449
  417MOL0     C57470  -0.518   0.718  10.623 -0.0567  0.9360 -0.7901
  417MOL0     C57471  -0.583   0.595  10.690 -0.5061  0.2913  0.0283
  417MOL0     C57472  -0.647   0.630  10.819  0.2532 -0.4161 -0.9089
  417MOL0     C57473  -0.697   0.666  10.930 -0.8722  0.6090  0.3554
  417MOL0     C57474  -0.095   0.670  10.401 -0.4541 -0.0359  0.3357
  417MOL0     C57475   0.024   0.596  10.412 -0.4534  0.0561  0.4617
  417MOL0     C57476   0.068   0.514  10.291  0.3757 -0.4160 -0.4769
  417MOL0     H57477   0.397   0.305  10.558 -0.3218 -0.0593  0.3046
  417MOL0     H57478   0.588   0.181  10.671  0.7114  1.4483 -0.4453
  417MOL0     H57479   0.761   0.406  10.980  2.4419  2.2428 -3.0865
  417MOL0     H57480   0.878   0.295  10.900 -1.1663 -1.0373 -1.5444
  417MOL0     H57481   0.900   0.301  11.153  1.0824 -2.2924  0.8889
  417MOL0     H57482   0.735   0.232  11.163 -0.3717 -2.1044  0.2035
  417MOL0     H57483   0.807   0.039  11.051 -1.0796 -0.5002  1.5940
  417MOL0     H57484   0.972   0.106  11.013 -3.3425 -0.9653 -3.4038
  417MOL0     H57485   1.023   0.103  11.264  0.6127 -1.7975 -0.0898
  417MOL0     H57486   0.854   0.043  11.299  1.1025 -1.6763  0.4258
  417MOL0     H57487   1.045  -0.115  11.322  3.5404 -0.3757 -0.9630
  417MOL0     H57488   1.095  -0.083  11.157 -1.4172  0.5854 -1.5256
  417MOL0     H57489   0.891  -0.185  11.079  1.4721  1.2105 -0.3476
  417MOL0     H57490   0.978  -0.296  11.192  1.9113  1.5512  0.1092
  417MOL0     H57491   0.739  -0.136  11.293 -2.9659 -2.1096 -2.3121
  417MOL0     H57492   0.817  -0.282  11.359 -0.1013 -3.0249 -1.7428
  417MOL0     H57493   0.603  -0.347  11.267  0.3749 -3.2429 -2.0813
  417MOL0     H57494   0.634  -0.244  11.135 -1.7577  0.9915  1.4805
  417MOL0     H57495   0.886  -0.482  11.327 -2.1280  0.7078 -0.1812
  417MOL0     H57496   1.083  -0.663  11.169  1.1234 -0.3192  1.4447
  417MOL0     H57497   0.988  -0.795  11.122  3.2063  1.0129 -1.1210
  417MOL0     H57498   1.077  -0.821  11.351  0.0561  0.6270 -2.7009
  417MOL0     H57499   0.989  -0.666  11.391 -1.2267  1.8809 -1.3401
  417MOL0     H57500   0.779  -0.781  11.329 -1.3930 -0.3430  0.8884
  417MOL0     H57501   0.874  -0.935  11.302  0.6771 -0.8414 -1.7733
  417MOL0     H57502   0.757  -0.940  11.535  1.9376 -1.9548  1.8646
  417MOL0     H57503   0.930  -0.952  11.540 -0.1584 -1.1244  0.1514
  417MOL0     H57504   0.785  -0.991  11.757  2.0822 -0.6019  3.6490
  417MOL0     H57505   0.713  -0.999  12.117  2.6003  1.7350 -0.8938
  417MOL0     H57506   0.703  -1.104  11.978 -3.0969 -0.8945 -0.8803
  417MOL0     H57507   0.562  -1.007  12.009  0.8627  0.7631 -4.0915
  417MOL0     H57508   0.720  -0.778  12.381  0.2499 -0.9079 -2.8607
  417MOL0     H57509   0.663  -0.844  12.597 -0.0462  0.7745  0.4316
  417MOL0     H57510   0.241  -0.982  12.731  0.4878  1.3296  0.3159
  417MOL0     H57511   0.314  -1.126  12.656  1.3994 -1.0871  1.1610
  417MOL0     H57512   0.295  -1.192  12.858 -0.1811 -1.3816  0.0839
  417MOL0     H57513   0.464  -1.142  12.876  0.4626  0.3860  2.8572
  417MOL0     H57514   0.246  -0.947  12.952  1.2000  2.0616 -0.6129
  417MOL0     H57515   0.413  -0.929  12.951 -1.6300  0.6665 -2.2349
  417MOL0     H57516   0.453  -1.043  13.147  0.2157  0.2710 -0.5421
  417MOL0     H57517   0.349  -1.172  13.089  0.8492 -0.2431  2.3978
  417MOL0     H57518   0.143  -1.031  13.171  0.3650 -1.0648  0.2916
  417MOL0     H57519   0.249  -1.054  13.304  4.2084  0.2738  0.2509
  417MOL0     H57520   0.250  -0.789  13.164 -0.3980 -0.6119 -0.4096
  417MOL0     H57521   0.363  -0.838  13.283 -0.7151  2.0214  0.8240
  417MOL0     H57522   0.198  -0.853  13.461  2.0084  4.4413  0.3232
  417MOL0     H57523   0.067  -0.861  13.336 -1.4647  1.6924 -2.2172
  417MOL0     H57524   0.060  -0.637  13.447 -2.0020  2.2582 -1.1933
  417MOL0     H57525   0.114  -0.635  13.276 -2.2593 -5.9375 -1.4842
  417MOL0     H57526   0.277  -0.964  12.477 -0.9856  2.2383 -0.2042
  417MOL0     H57527   0.336  -0.906  12.246 -1.1345 -0.6241  1.4117
  417MOL0     H57528   0.726  -0.542  11.959  0.3745 -0.4947  0.1668
  417MOL0     H57529   0.804  -0.574  11.722  0.2890 -1.2299 -0.5850
  417MOL0     H57530   0.522   0.361  11.037  0.4037  1.4643  1.0157
  417MOL0     H57531   0.337   0.486  10.953  0.3310 -1.5571  0.7312
  417MOL0     H57532   0.063   0.652  10.752  2.4905  0.1130 -0.3340
  417MOL0     H57533  -0.123   0.773  10.723  0.8535  3.5338 -1.4735
  417MOL0     H57534  -0.433   0.874  10.409  0.6211 -0.4324  0.4424
  417MOL0     H57535  -0.331   0.761  10.322 -0.2349  0.5850 -0.4277
  417MOL0     H57536  -0.389   0.590  10.498 -1.1609  0.3938  1.1678
  417MOL0     H57537  -0.531   0.659  10.418  0.8885  1.3055 -2.5340
  417MOL0     H57538  -0.436   0.763  10.680 -0.4740  0.1460  0.4858
  417MOL0     H57539  -0.599   0.787  10.599 -1.0765 -0.3794 -1.2614
  417MOL0     H57540  -0.513   0.513  10.710 -0.6454  0.2485  0.3467
  417MOL0     H57541  -0.654   0.558  10.615  3.1742 -2.6098 -2.3716
  417MOL0     H57542  -0.732   0.689  11.028 -1.6777 -0.7425  0.4143
  417MOL0     H57543  -0.146   0.683  10.306 -1.7607  1.1596  1.1445
  417MOL0     H57544   0.166   0.556  10.267  0.3043  0.0921  0.0940
  417MOL0     H57545   0.073   0.405  10.300  1.9633 -0.2201  1.9654
  417MOL0     H57546  -0.000   0.529  10.207 -1.8328 -2.0771  0.8917
  418MOL0     O57547   5.542   4.056   5.916  0.0190 -0.2710  0.0276
  418MOL0     C57548   5.581   4.160   5.971  0.7221  0.6818 -0.6471
  418MOL0     O57549   5.516   4.273   5.969  0.4635 -1.1718 -0.1030
  418MOL0     C57550   5.419   4.290   5.875 -0.4017  0.0025  0.4340
  418MOL0     C57551   5.292   4.286   5.910  1.2484 -0.4784 -0.4217
  418MOL0     C57552   5.199   4.317   5.812  0.4103  0.0805 -0.7931
  418MOL0     C57553   5.230   4.359   5.686  0.1251 -0.0268  0.2489
  418MOL0     O57554   5.124   4.389   5.599 -0.3521  0.2657 -0.9565
  418MOL0     C57555   5.155   4.446   5.472 -0.0557 -0.2937  0.7112
  418MOL0     C57556   5.046   4.528   5.409 -0.2444 -0.0659 -0.1084
  418MOL0     C57557   5.063   4.550   5.259 -0.7023  0.0908 -0.0108
  418MOL0     C57558   4.937   4.584   5.184  0.2983  0.1469  0.2738
  418MOL0     C57559   4.871   4.712   5.249 -0.0044 -0.0003  0.9031
  418MOL0     C57560   4.745   4.760   5.176  0.4724 -0.2727  0.1751
  418MOL0     C57561   4.674   4.861   5.257  0.8086  0.2641 -0.1142
  418MOL0     C57562   4.728   5.004   5.241  0.4434 -0.5428 -0.8613
  418MOL0     N57563   4.718   5.059   5.101  0.1797  0.1264 -0.2376
  418MOL0     C57564   4.610   5.048   5.017 -0.2235  0.6115  0.2343
  418MOL0     C57565   4.641   5.125   4.913  0.6237  0.3414 -0.8794
  418MOL0     C57566   4.551   5.172   4.805 -0.5916 -0.6654  0.3531
  418MOL0     C57567   4.564   5.076   4.688 -0.0102 -0.3013 -0.5656
  418MOL0     C57568   4.468   5.109   4.580  0.6447  0.0385  0.6428
  418MOL0     C57569   4.506   5.032   4.451  0.6673 -0.7572  0.3811
  418MOL0     O57570   4.601   5.101   4.381 -0.7029 -0.1818  0.4108
  418MOL0     C57571   4.663   5.038   4.272 -0.0305  0.3913 -0.7859
  418MOL0     C57572   4.779   4.955   4.287 -0.5703 -0.1764  0.8206
  418MOL0     C57573   4.845   4.904   4.174 -0.0442  0.3375 -0.0976
  418MOL0     C57574   4.982   4.846   4.201 -0.4903 -0.0905 -0.7703
  418MOL0     C57575   4.801   4.929   4.043 -0.3707  0.2345  0.2282
  418MOL0     C57576   4.872   4.890   3.920  0.4322 -0.1479  0.3837
  418MOL0     O57577   4.819   4.934   3.806  0.0940 -0.0206 -0.1279
  418MOL0     C57578   4.886   4.896   3.690 -0.1354 -0.7668  0.3729
  418MOL0     C57579   4.932   5.007   3.611 -0.9048  0.7021 -0.3019
  418MOL0     C57580   4.987   4.983   3.486 -0.2530 -0.1219 -0.1641
  418MOL0     C57581   5.001   4.852   3.435 -0.2075 -1.3335 -1.0569
  418MOL0     O57582   5.063   4.824   3.311  0.5767  0.7232 -1.0459
  418MOL0     C57583   5.055   4.912   3.197 -0.0338  0.1557  0.0334
  418MOL0     C57584   5.096   4.816   3.084 -0.0024 -0.0313 -0.1735
  418MOL0     C57585   5.246   4.769   3.103  0.7258  0.0550 -0.2859
  418MOL0     C57586   5.254   4.627   3.163 -1.3214 -0.1881  0.1137
  418MOL0     C57587   5.398   4.576   3.152 -0.0648 -0.3098  0.6322
  418MOL0     C57588   5.428   4.465   3.247  0.6542 -0.4115  0.9477
  418MOL0     C57589   5.340   4.336   3.232 -0.6424 -0.0534  0.3737
  418MOL0     C57590   5.363   4.258   3.102  0.2833 -0.8170 -0.1682
  418MOL0    Cl57591   5.239   4.123   3.094 -0.0549  0.2865 -0.6296
  418MOL0     C57592   4.945   4.749   3.515  0.3998 -0.5900 -0.3803
  418MOL0     C57593   4.891   4.773   3.644  0.5109  0.0432  0.7503
  418MOL0     O57594   4.964   4.811   3.934  0.4207 -0.2165  0.2018
  418MOL0     C57595   4.683   5.009   4.038 -0.4344 -0.3045 -0.1546
  418MOL0     C57596   4.603   5.063   4.148 -0.0284  0.6737  0.0130
  418MOL0     N57597   4.765   5.178   4.933  0.2374 -0.1402 -0.1157
  418MOL0     N57598   4.817   5.130   5.037  0.6836 -0.3373  0.6762
  418MOL0     C57599   5.369   4.348   5.650 -0.2409 -0.4422  0.1582
  418MOL0     C57600   5.467   4.317   5.748 -0.1472  0.7582  0.4931
  418MOL0     C57601   5.713   4.157   6.031  0.7938 -1.2537 -0.2174
  418MOL0     C57602   5.776   4.291   6.053 -0.3463  0.9251 -0.1247
  418MOL0     C57603   5.899   4.292   6.120  0.3329  0.0208  0.8987
  418MOL0     C57604   5.959   4.175   6.162  0.3245 -0.3255  0.7084
  418MOL0     O57605   6.062   4.199   6.240 -0.4218  0.3653 -0.3496
  418MOL0     C57606   6.125   4.085   6.312  0.1366  0.8803 -0.0802
  418MOL0     C57607   6.256   4.121   6.376  0.6127  0.4919 -0.0648
  418MOL0     C57608   6.226   4.209   6.499  0.2231 -0.7855  0.5053
  418MOL0     C57609   6.354   4.239   6.568 -1.0090 -0.5724 -0.1076
  418MOL0     C57610   6.452   4.321   6.489  0.6986 -0.1370 -0.1995
  418MOL0     C57611   6.543   4.369   6.423  0.9915 -0.5649  0.0584
  418MOL0     C57612   5.906   4.051   6.143  0.2766  0.3522  0.1347
  418MOL0     C57613   5.785   4.041   6.073  0.4213 -0.2391  0.0320
  418MOL0     C57614   5.720   3.903   6.055 -0.2031 -0.1235 -0.2460
  418MOL0     H57615   5.264   4.281   6.014 -0.7856 -2.4192 -0.9729
  418MOL0     H57616   5.093   4.333   5.832  0.1386  0.2452 -2.2086
  418MOL0     H57617   5.170   4.359   5.407 -1.3663  0.4942 -0.6920
  418MOL0     H57618   5.237   4.517   5.466 -0.0621 -0.3439 -0.0116
  418MOL0     H57619   4.949   4.482   5.429 -0.2946 -0.3991 -1.0520
  418MOL0     H57620   5.042   4.631   5.446 -2.4026  0.0186 -0.4221
  418MOL0     H57621   5.136   4.628   5.237 -1.6492  0.4312 -2.2025
  418MOL0     H57622   5.097   4.460   5.207 -1.2335  0.0673 -0.3236
  418MOL0     H57623   4.961   4.589   5.078  2.3184 -0.8517  0.6227
  418MOL0     H57624   4.863   4.504   5.194 -2.6851  2.2365 -2.9269
  418MOL0     H57625   4.944   4.792   5.264 -0.6033  0.6210  0.5830
  418MOL0     H57626   4.840   4.680   5.349  1.2035  0.9068  1.5909
  418MOL0     H57627   4.772   4.794   5.075  1.5597  0.2903  0.6303
  418MOL0     H57628   4.675   4.676   5.170  0.1318  0.1042 -3.6407
  418MOL0     H57629   4.684   4.833   5.362  1.7007 -0.8405 -0.4743
  418MOL0     H57630   4.567   4.865   5.234  0.8249 -0.4958 -0.3330
  418MOL0     H57631   4.684   5.076   5.311  1.1389  0.3012 -1.2779
  418MOL0     H57632   4.833   4.999   5.270  0.8121 -4.5281 -2.2516
  418MOL0     H57633   4.514   4.998   5.022 -0.4453  1.0849  3.8774
  418MOL0     H57634   4.591   5.267   4.768  1.9922 -2.8947 -3.2751
  418MOL0     H57635   4.451   5.198   4.841 -0.6735  2.2342 -1.6176
  418MOL0     H57636   4.669   5.093   4.661 -0.5960 -0.0691 -2.9586
  418MOL0     H57637   4.558   4.971   4.717 -3.3883  0.4280  1.9658
  418MOL0     H57638   4.368   5.066   4.593 -0.4564  2.5383  0.8354
  418MOL0     H57639   4.467   5.218   4.579  0.6288  0.0466 -0.7357
  418MOL0     H57640   4.534   4.928   4.472  0.3549 -0.5514  1.9990
  418MOL0     H57641   4.419   5.032   4.385 -0.6435  2.0140  1.9236
  418MOL0     H57642   4.814   4.934   4.387 -1.3627 -3.5436  0.5026
  418MOL0     H57643   5.052   4.909   4.145 -0.9137 -0.3669 -1.6407
  418MOL0     H57644   5.005   4.743   4.173 -0.5788 -1.3219  3.1082
  418MOL0     H57645   5.012   4.846   4.306 -1.9347 -0.2179 -0.3272
  418MOL0     H57646   4.912   5.106   3.651 -0.9003  0.1743  1.0431
  418MOL0     H57647   5.031   5.061   3.425  0.2624 -0.5113 -0.3024
  418MOL0     H57648   4.951   4.940   3.179  0.5816  3.2602  0.6776
  418MOL0     H57649   5.118   5.002   3.197  0.8177 -0.4261  0.2156
  418MOL0     H57650   5.036   4.726   3.072  1.8383 -1.1458 -1.7209
  418MOL0     H57651   5.081   4.866   2.987 -1.7733 -3.8621 -2.0845
  418MOL0     H57652   5.297   4.840   3.168 -1.8739 -1.3323  3.6796
  418MOL0     H57653   5.293   4.764   3.005  1.9960 -0.1506  0.3096
  418MOL0     H57654   5.192   4.559   3.104  0.9359 -2.1383 -0.1803
  418MOL0     H57655   5.222   4.622   3.267 -0.2380  0.0405  0.4706
  418MOL0     H57656   5.422   4.539   3.052 -1.9420  2.0075 -0.7882
  418MOL0     H57657   5.459   4.662   3.180 -2.4087  2.4771 -2.0454
  418MOL0     H57658   5.416   4.496   3.351  3.8005 -0.3804  1.4050
  418MOL0     H57659   5.531   4.435   3.228  0.3567 -0.3608 -0.9399
  418MOL0     H57660   5.236   4.365   3.250 -1.1413 -2.1713  1.1708
  418MOL0     H57661   5.365   4.262   3.308  0.7908  0.1245  0.1131
  418MOL0     H57662   5.468   4.226   3.100  0.5453  0.0107 -0.0145
  418MOL0     H57663   5.343   4.321   3.014 -2.5299 -1.1411  0.1369
  418MOL0     H57664   4.950   4.649   3.474 -0.4168 -1.5718  1.7468
  418MOL0     H57665   4.863   4.692   3.710  0.1661 -2.3789 -2.1753
  418MOL0     H57666   4.642   5.034   3.941 -3.3814 -0.5586  0.9360
  418MOL0     H57667   4.521   5.125   4.115 -1.0782 -0.7211 -0.0980
  418MOL0     H57668   5.404   4.375   5.551 -0.5696 -0.3414  0.0682
  418MOL0     H57669   5.571   4.295   5.727 -0.3594  1.4744 -1.5052
  418MOL0     H57670   5.730   4.385   6.025 -0.6544  0.8116 -0.0054
  418MOL0     H57671   5.931   4.394   6.142 -4.1503  2.0345 -0.6494
  418MOL0     H57672   6.057   4.042   6.386  0.5181 -2.2664 -1.3988
  418MOL0     H57673   6.134   4.009   6.234  0.7945 -0.3978  1.1999
  418MOL0     H57674   6.319   4.170   6.302  2.0014 -2.6140 -1.0994
  418MOL0     H57675   6.300   4.024   6.402 -1.6350 -1.7987 -3.8825
  418MOL0     H57676   6.173   4.300   6.472  0.5569 -0.5992  0.4746
  418MOL0     H57677   6.165   4.143   6.561 -1.0405 -1.1846 -1.0869
  418MOL0     H57678   6.401   4.146   6.601 -2.1139 -1.7918 -1.7839
  418MOL0     H57679   6.343   4.294   6.662  0.0635 -2.6560  1.2992
  418MOL0     H57680   6.605   4.414   6.348 -0.0749  0.7270 -0.0934
  418MOL0     H57681   5.946   3.958   6.182 -1.7101 -0.3205  0.6898
  418MOL0     H57682   5.619   3.896   6.095 -1.3886 -2.8075 -3.2755
  418MOL0     H57683   5.706   3.883   5.949  0.8105 -1.5079 -0.1557
  418MOL0     H57684   5.779   3.822   6.099 -3.7416 -1.6778  2.0881
  419MOL0     O57685   4.399  10.987   3.916  0.3713  0.0002 -0.2671
  419MOL0     C57686   4.469  11.003   4.014  0.1772  0.7771  0.1814
  419MOL0     O57687   4.524  10.899   4.094 -0.4915  0.1138  0.2946
  419MOL0     C57688   4.506  10.765   4.073  0.6336  0.8620 -1.1458
  419MOL0     C57689   4.437  10.687   3.966 -1.0430 -0.8458 -0.2768
  419MOL0     C57690   4.442  10.554   3.963  0.2817  0.6985 -0.0043
  419MOL0     C57691   4.516  10.482   4.057 -1.0197  0.0943  1.1719
  419MOL0     O57692   4.543  10.350   4.051  0.6120 -0.1826 -0.1290
  419MOL0     C57693   4.641  10.312   3.951  0.8482  0.4092 -0.5155
  419MOL0     C57694   4.643  10.157   3.944 -0.0870 -0.6457 -0.4024
  419MOL0     C57695   4.780  10.107   3.986 -0.4161 -0.2109  0.0027
  419MOL0     C57696   4.776   9.959   4.012 -0.6160 -0.4966 -0.4131
  419MOL0     C57697   4.906   9.892   4.034  0.5891  0.0709 -0.4732
  419MOL0     C57698   4.902   9.751   4.085  0.2460 -0.0446  0.2875
  419MOL0     C57699   4.832   9.716   4.215  0.3763 -0.3336  0.4925
  419MOL0     C57700   4.835   9.571   4.247 -0.6736  0.1882  0.6173
  419MOL0     N57701   4.767   9.540   4.377 -0.2897  0.0930 -0.2005
  419MOL0     C57702   4.627   9.559   4.402  0.0752  0.3022  0.6432
  419MOL0     C57703   4.610   9.492   4.517  0.1564 -0.4972 -0.1474
  419MOL0     C57704   4.485   9.463   4.592  0.0970  0.3989  0.6239
  419MOL0     C57705   4.435   9.591   4.676 -0.0839 -0.8157  0.3150
  419MOL0     C57706   4.496   9.601   4.823 -0.0540 -1.3499  0.3096
  419MOL0     C57707   4.643   9.660   4.849  0.9176 -0.2237 -0.5176
  419MOL0     O57708   4.652   9.803   4.827 -0.5380 -0.9256  0.4430
  419MOL0     C57709   4.771   9.855   4.787 -0.6245 -0.4370 -1.7040
  419MOL0     C57710   4.847   9.813   4.682  0.4333 -0.5476 -0.3039
  419MOL0     C57711   4.959   9.881   4.635  0.1919  0.5446 -0.7657
  419MOL0     C57712   5.045   9.808   4.532  0.4859  0.5034  0.3304
  419MOL0     C57713   5.011   9.997   4.707  0.2498  0.8636  0.3395
  419MOL0     C57714   5.140  10.077   4.684  0.7922 -0.7434  0.0188
  419MOL0     O57715   5.210  10.038   4.575  0.5210 -0.4275  0.0386
  419MOL0     C57716   5.325  10.097   4.535 -0.1687 -0.1728  0.2259
  419MOL0     C57717   5.431  10.127   4.627  0.0160  0.4629  0.3400
  419MOL0     C57718   5.560  10.161   4.586 -0.3331 -0.5525 -0.5140
  419MOL0     C57719   5.592  10.161   4.450 -0.3109 -0.5949 -1.0083
  419MOL0     O57720   5.713  10.184   4.393  1.5522  0.4752  0.7801
  419MOL0     C57721   5.829  10.197   4.481  0.3348 -0.6070  0.1349
  419MOL0     C57722   5.942  10.260   4.403  0.5425 -0.1408 -0.0229
  419MOL0     C57723   5.903  10.404   4.349  0.5510  1.9898  0.3820
  419MOL0     C57724   6.013  10.469   4.265  0.3118 -0.2077  0.4660
  419MOL0     C57725   5.968  10.609   4.211 -0.8902 -0.5013 -0.0812
  419MOL0     C57726   5.922  10.708   4.319 -0.5346  0.4490  0.1642
  419MOL0     C57727   5.887  10.846   4.276 -0.2054 -0.1112  0.1005
  419MOL0     C57728   5.910  10.941   4.390 -0.3430 -1.1607  0.1025
  419MOL0    Cl57729   5.792  10.907   4.509  0.2481  0.0300 -0.1657
  419MOL0     C57730   5.492  10.135   4.359  0.0797  0.1736  0.0935
  419MOL0     C57731   5.361  10.101   4.400 -0.0364  0.9479  0.0856
  419MOL0     O57732   5.159  10.177   4.750 -0.7792 -0.4335 -0.1154
  419MOL0     C57733   4.921  10.041   4.810  0.0645  0.3033 -0.2621
  419MOL0     C57734   4.798   9.979   4.848  0.5590  0.7551  0.9389
  419MOL0     N57735   4.735   9.447   4.567  0.1401  0.4197  0.1918
  419MOL0     N57736   4.821   9.472   4.477  0.0738 -0.0124  0.4161
  419MOL0     C57737   4.571  10.553   4.173  0.9666 -0.3238  0.1477
  419MOL0     C57738   4.573  10.689   4.169  0.2238  0.0946 -0.0434
  419MOL0     C57739   4.511  11.137   4.057 -1.0406 -0.9611  0.3835
  419MOL0     C57740   4.428  11.237   4.011  0.5939 -0.8807  0.2765
  419MOL0     C57741   4.462  11.373   4.020  0.1213  0.4084  0.4938
  419MOL0     C57742   4.577  11.410   4.082  0.4175 -0.2668  0.3664
  419MOL0     O57743   4.601  11.545   4.084 -0.8359 -0.1362  0.0268
  419MOL0     C57744   4.734  11.599   4.108 -0.3267 -0.3832  0.2118
  419MOL0     C57745   4.811  11.574   3.975  0.4808 -0.0001 -0.8366
  419MOL0     C57746   4.961  11.546   3.999 -0.2924 -0.0300  0.4939
  419MOL0     C57747   5.022  11.458   3.883  0.6078 -1.2448  0.0180
  419MOL0     C57748   4.983  11.321   3.901  0.1098  0.5516  0.6284
  419MOL0     C57749   4.980  11.212   3.947  0.0735 -0.4839  0.0148
  419MOL0     C57750   4.655  11.310   4.154  0.2495 -0.3558 -0.5441
  419MOL0     C57751   4.624  11.178   4.136 -0.3685  0.1596  0.7974
  419MOL0     C57752   4.721  11.078   4.196  0.3606  0.1057  0.0489
  419MOL0     H57753   4.378  10.739   3.891  1.6646 -0.5410 -2.3333
  419MOL0     H57754   4.383  10.497   3.892 -3.6199  3.6115  0.6090
  419MOL0     H57755   4.738  10.361   3.967  0.8302  0.9681 -2.0097
  419MOL0     H57756   4.598  10.343   3.856  0.3372 -1.8332 -1.0906
  419MOL0     H57757   4.562  10.118   4.006  1.3111 -1.8742  0.7273
  419MOL0     H57758   4.637  10.126   3.839 -2.0759  0.3630 -0.6270
  419MOL0     H57759   4.850  10.138   3.907 -1.9119 -0.6998 -1.5695
  419MOL0     H57760   4.819  10.158   4.074  1.0047 -0.3208 -0.5249
  419MOL0     H57761   4.714   9.950   4.103  0.8335  1.0763  0.7979
  419MOL0     H57762   4.732   9.907   3.927  2.3020  2.0078 -3.7381
  419MOL0     H57763   4.965   9.949   4.107  0.4896 -0.0277 -0.3137
  419MOL0     H57764   4.972   9.899   3.947  0.9484 -0.6126 -0.2691
  419MOL0     H57765   4.851   9.691   4.009  1.7123  2.2792 -2.7437
  419MOL0     H57766   5.002   9.708   4.097  0.4543  0.7216  1.5377
  419MOL0     H57767   4.729   9.753   4.215  0.1887 -0.6231 -2.7338
  419MOL0     H57768   4.880   9.782   4.288 -1.1278  0.5900  0.6865
  419MOL0     H57769   4.782   9.514   4.170  0.3731 -0.9576  0.7080
  419MOL0     H57770   4.935   9.527   4.249 -0.9618 -0.5422 -0.1431
  419MOL0     H57771   4.554   9.601   4.334  0.7183 -0.7265 -0.7304
  419MOL0     H57772   4.505   9.377   4.658  0.4614 -0.5653 -0.6900
  419MOL0     H57773   4.410   9.433   4.518 -1.7576  0.8274  2.2557
  419MOL0     H57774   4.463   9.678   4.616 -1.2817 -1.4186 -1.1786
  419MOL0     H57775   4.326   9.590   4.678 -0.2128  0.6968 -1.8645
  419MOL0     H57776   4.429   9.658   4.887 -0.3255  0.8954 -1.8201
  419MOL0     H57777   4.503   9.497   4.857  0.9434 -1.1919  0.6367
  419MOL0     H57778   4.671   9.635   4.952 -1.1659 -2.1436 -0.3398
  419MOL0     H57779   4.704   9.605   4.776 -3.7908 -3.9849 -2.1935
  419MOL0     H57780   4.804   9.723   4.638 -0.8584 -0.4481  0.6851
  419MOL0     H57781   5.017   9.847   4.433 -0.9797 -2.3153 -0.4755
  419MOL0     H57782   5.036   9.699   4.536  0.4985  0.4102 -1.3431
  419MOL0     H57783   5.154   9.814   4.544  0.5110 -2.1574  2.2534
  419MOL0     H57784   5.413  10.127   4.734 -0.2678  1.4745  0.3006
  419MOL0     H57785   5.632  10.190   4.662 -1.8060 -1.0576  1.1434
  419MOL0     H57786   5.810  10.261   4.568 -4.5047 -1.8885  0.3356
  419MOL0     H57787   5.849  10.095   4.516  0.9197  0.1148  2.0740
  419MOL0     H57788   6.018  10.274   4.480 -0.1956  0.7054  0.5703
  419MOL0     H57789   5.984  10.192   4.328 -1.9478 -0.7015 -1.0076
  419MOL0     H57790   5.871  10.462   4.436  0.5749 -2.7156  3.9338
  419MOL0     H57791   5.818  10.396   4.281 -0.7099  0.2679  2.0808
  419MOL0     H57792   6.043  10.413   4.175 -0.8141  1.9886 -1.3823
  419MOL0     H57793   6.101  10.481   4.330  0.7030 -1.8068  0.2740
  419MOL0     H57794   6.055  10.645   4.155  0.7841 -2.2623  1.2271
  419MOL0     H57795   5.882  10.605   4.143 -0.4148  0.6452 -0.7886
  419MOL0     H57796   5.998  10.702   4.397  0.0324 -1.5496 -0.4763
  419MOL0     H57797   5.828  10.668   4.357 -0.5293 -0.4820 -0.7488
  419MOL0     H57798   5.784  10.858   4.243  0.2122 -0.8258 -1.6244
  419MOL0     H57799   5.951  10.875   4.192  5.5256 -1.4950  3.4060
  419MOL0     H57800   5.888  11.044   4.360 -3.2085 -0.7848  2.9426
  419MOL0     H57801   6.007  10.914   4.431 -1.7802 -2.5671  2.9088
  419MOL0     H57802   5.516  10.135   4.253 -1.8638 -1.5333 -0.4080
  419MOL0     H57803   5.295  10.057   4.325  2.6410 -2.1513 -0.6952
  419MOL0     H57804   4.948  10.127   4.871  0.1868 -0.6379  1.0390
  419MOL0     H57805   4.747  10.027   4.931 -0.3755 -0.5752  1.1532
  419MOL0     H57806   4.616  10.503   4.259 -2.8824  0.6763  3.0521
  419MOL0     H57807   4.618  10.736   4.256 -2.8373  2.6207  0.3782
  419MOL0     H57808   4.345  11.206   3.948  1.5813  1.1703 -2.2136
  419MOL0     H57809   4.398  11.452   3.982  0.5390  0.3575 -0.3116
  419MOL0     H57810   4.726  11.707   4.118 -0.7435 -0.3528 -0.3908
  419MOL0     H57811   4.776  11.558   4.201  3.0088  0.3582 -0.8294
  419MOL0     H57812   4.802  11.666   3.917 -0.5928  0.0371 -0.6334
  419MOL0     H57813   4.756  11.494   3.924 -1.9752  0.1238  1.4543
  419MOL0     H57814   5.017  11.639   4.014  3.2078 -1.9569  0.5386
  419MOL0     H57815   4.974  11.486   4.089  1.2719 -0.0453  0.2914
  419MOL0     H57816   5.129  11.476   3.882  0.3745  0.2898 -0.7944
  419MOL0     H57817   4.984  11.487   3.785  2.8797  0.7559 -0.3494
  419MOL0     H57818   4.995  11.116   3.992 -1.8947 -2.2381 -2.7024
  419MOL0     H57819   4.729  11.324   4.232  0.8584 -0.1048 -1.1587
  419MOL0     H57820   4.769  11.114   4.287 -1.5779 -3.4905  2.7529
  419MOL0     H57821   4.668  10.989   4.232  1.2603  0.3007  1.9882
  419MOL0     H57822   4.797  11.051   4.122  1.0818  1.6887  0.1667
  420MOL0     O57823   1.963  11.155   0.921 -0.4182  0.3172  0.5832
  420MOL0     C57824   2.006  11.231   1.009 -0.6073  0.1509 -0.1876
  420MOL0     O57825   2.106  11.320   0.992 -0.0980 -0.3525  0.9210
  420MOL0     C57826   2.191  11.329   0.888  0.5190 -0.6070  0.3780
  420MOL0     C57827   2.226  11.235   0.788 -0.0121  0.3799  0.2858
  420MOL0     C57828   2.301  11.268   0.676  0.2408  0.1499  1.0249
  420MOL0     C57829   2.349  11.399   0.661 -0.7618 -0.4302  0.2157
  420MOL0     O57830   2.425  11.437   0.548 -0.2328 -0.2966  0.2966
  420MOL0     C57831   2.391  11.390   0.418 -0.5009 -0.5541  0.4168
  420MOL0     C57832   2.508  11.408   0.318 -0.1283  0.0521 -0.1375
  420MOL0     C57833   2.624  11.326   0.377 -0.0186 -0.1820 -0.0210
  420MOL0     C57834   2.755  11.371   0.307 -0.8136 -0.9731 -0.8603
  420MOL0     C57835   2.779  11.309   0.172  0.4649  0.8115 -1.1921
  420MOL0     C57836   2.932  11.324   0.129  0.4596  0.3547 -0.6605
  420MOL0     C57837   2.939  11.286  -0.017 -0.5426  0.5650  1.3179
  420MOL0     C57838   2.961  11.132  -0.026 -0.4353  0.3198  0.3956
  420MOL0     N57839   3.008  11.095  -0.164  1.2209 -0.0202 -0.0696
  420MOL0     C57840   3.099  11.168  -0.244  0.1345  0.5841 -0.0906
  420MOL0     C57841   3.090  11.112  -0.365 -0.6550  0.1234 -1.1115
  420MOL0     C57842   3.163  11.159  -0.489  0.3868 -0.3088  0.4908
  420MOL0     C57843   3.080  11.170  -0.609  0.1438 -0.7627 -0.2517
  420MOL0     C57844   3.040  11.035  -0.672 -0.2434  0.4980  0.3154
  420MOL0     C57845   3.153  10.998  -0.778  0.4595 -0.2804  0.7995
  420MOL0     O57846   3.269  10.954  -0.711 -0.3583 -0.1553  0.0125
  420MOL0     C57847   3.378  10.896  -0.777  0.3907 -0.4762 -1.1272
  420MOL0     C57848   3.499  10.881  -0.715  0.7983  0.0108  0.3727
  420MOL0     C57849   3.612  10.821  -0.774  0.3230 -0.0163  0.0169
  420MOL0     C57850   3.735  10.804  -0.688  0.0418 -0.4203 -0.3671
  420MOL0     C57851   3.597  10.761  -0.906  0.5395  0.7827  0.8166
  420MOL0     C57852   3.705  10.694  -0.985 -0.0427  0.6478 -0.0610
  420MOL0     O57853   3.835  10.703  -0.952 -0.7178 -0.4736 -0.4509
  420MOL0     C57854   3.922  10.619  -1.019 -0.1283 -0.3415 -0.2643
  420MOL0     C57855   3.924  10.617  -1.162  0.1750  0.1717  0.4683
  420MOL0     C57856   4.015  10.534  -1.229  0.1560 -1.0472  0.2810
  420MOL0     C57857   4.095  10.446  -1.161  0.1262  0.6306  0.2384
  420MOL0     O57858   4.186  10.374  -1.225 -0.5344 -0.1094  0.1956
  420MOL0     C57859   4.310  10.350  -1.156 -0.6505 -0.1390  0.9397
  420MOL0     C57860   4.405  10.275  -1.250  0.0594 -0.4795 -0.4766
  420MOL0     C57861   4.523  10.209  -1.172 -0.4034 -0.2045 -0.1083
  420MOL0     C57862   4.630  10.314  -1.138 -0.4566 -0.1817 -0.1927
  420MOL0     C57863   4.738  10.257  -1.042 -0.2448  1.2479 -0.0625
  420MOL0     C57864   4.825  10.138  -1.111  0.6016 -0.5423  0.3065
  420MOL0     C57865   4.938  10.209  -1.183  0.3767  0.8390 -0.3438
  420MOL0     C57866   5.062  10.115  -1.192  0.9480 -0.3457 -0.5979
  420MOL0    Cl57867   5.179  10.204  -1.294  0.2002 -0.0555 -0.0746
  420MOL0     C57868   4.088  10.444  -1.020 -0.4101 -0.0528 -0.1711
  420MOL0     C57869   3.999  10.530  -0.948 -0.4623  0.5774  0.8018
  420MOL0     O57870   3.662  10.646  -1.090  1.2124  0.0384  0.0206
  420MOL0     C57871   3.476  10.785  -0.975 -1.0744 -0.1029 -0.0651
  420MOL0     C57872   3.379  10.865  -0.914  0.1825  0.2974 -0.8771
  420MOL0     N57873   3.016  10.995  -0.351  0.0380  0.0100 -0.3700
  420MOL0     N57874   2.979  10.982  -0.232 -0.5136 -0.0675 -0.6887
  420MOL0     C57875   2.322  11.495   0.760 -0.3596 -0.2022  0.2779
  420MOL0     C57876   2.237  11.467   0.872  0.2663  0.3976  0.0670
  420MOL0     C57877   1.950  11.221   1.157 -0.0851  0.5137  0.0981
  420MOL0     C57878   2.031  11.286   1.253  0.6063 -0.4283  0.2726
  420MOL0     C57879   1.990  11.303   1.383 -0.3074  0.5129 -0.1504
  420MOL0     C57880   1.870  11.241   1.433  0.2649  0.5035 -0.1792
  420MOL0     O57881   1.828  11.273   1.564  0.4354 -0.1640  0.7714
  420MOL0     C57882   1.730  11.187   1.619 -0.1440 -0.1649  0.2903
  420MOL0     C57883   1.740  11.198   1.767 -0.3940  0.5116  0.3439
  420MOL0     C57884   1.690  11.338   1.819 -0.2448 -0.3031  0.5317
  420MOL0     C57885   1.714  11.342   1.972 -0.0947  0.2772  0.4372
  420MOL0     C57886   1.679  11.466   2.043 -0.0144  0.4097 -0.0988
  420MOL0     C57887   1.633  11.562   2.095 -0.0864 -0.2332 -0.3377
  420MOL0     C57888   1.792  11.168   1.335  0.2150 -0.0883  0.3720
  420MOL0     C57889   1.832  11.155   1.192  0.8981  0.2775 -0.3447
  420MOL0     C57890   1.730  11.078   1.097  0.1527  0.0677 -1.0295
  420MOL0     H57891   2.188  11.133   0.791 -0.6428  0.6005 -0.1298
  420MOL0     H57892   2.331  11.198   0.599  1.0672  2.3861 -0.7961
  420MOL0     H57893   2.312  11.455   0.378  0.2538 -1.3425 -2.6158
  420MOL0     H57894   2.357  11.287   0.420 -1.5133 -0.2413  2.9355
  420MOL0     H57895   2.478  11.385   0.215 -1.3011 -1.5579  0.5193
  420MOL0     H57896   2.541  11.511   0.302 -2.9006  0.6621 -2.9069
  420MOL0     H57897   2.637  11.342   0.484 -2.5308 -6.2986  1.6467
  420MOL0     H57898   2.594  11.222   0.361 -2.0430  0.5204 -1.1362
  420MOL0     H57899   2.760  11.478   0.284 -1.7109 -0.3374  1.5918
  420MOL0     H57900   2.839  11.349   0.372 -1.8481 -2.9704 -0.1011
  420MOL0     H57901   2.713  11.345   0.092  2.5424  0.5409 -3.1458
  420MOL0     H57902   2.766  11.201   0.181  1.1921  0.7207 -1.1075
  420MOL0     H57903   2.974  11.425   0.133  1.0895  0.0697  0.0481
  420MOL0     H57904   2.998  11.258   0.186 -1.7743 -1.0333  0.4303
  420MOL0     H57905   3.025  11.336  -0.062 -2.9053  1.5126 -2.5380
  420MOL0     H57906   2.850  11.303  -0.078 -0.0593  1.2531  0.7868
  420MOL0     H57907   3.034  11.081   0.038 -0.4899 -0.3647 -0.0733
  420MOL0     H57908   2.863  11.086  -0.011 -1.3011  1.8731 -0.2831
  420MOL0     H57909   3.160  11.249  -0.204 -0.2064  0.3044  1.0397
  420MOL0     H57910   3.244  11.089  -0.511 -0.2273 -0.4359 -1.6396
  420MOL0     H57911   3.210  11.255  -0.466 -0.6292 -0.0316  1.4603
  420MOL0     H57912   2.992  11.230  -0.586  2.4260  2.1368  1.5600
  420MOL0     H57913   3.131  11.235  -0.681  3.2099 -1.8838  0.7735
  420MOL0     H57914   3.035  10.949  -0.605 -0.2130 -0.7193 -1.1880
  420MOL0     H57915   2.946  11.051  -0.726 -1.4270  0.3923  2.2536
  420MOL0     H57916   3.119  10.916  -0.842 -2.0096  0.6396  0.8258
  420MOL0     H57917   3.177  11.083  -0.843  2.4867  0.4206  2.3846
  420MOL0     H57918   3.501  10.907  -0.610 -0.0405 -1.6194  0.8112
  420MOL0     H57919   3.781  10.707  -0.711  0.7566 -0.3993  0.8880
  420MOL0     H57920   3.705  10.790  -0.583  1.2036  1.1789  0.2186
  420MOL0     H57921   3.801  10.891  -0.687 -0.0607 -0.3316  1.1845
  420MOL0     H57922   3.856  10.684  -1.213 -0.4055  0.2045  1.2613
  420MOL0     H57923   4.019  10.536  -1.338 -2.4253  1.3429  0.1186
  420MOL0     H57924   4.354  10.444  -1.123 -0.0241 -1.0112  2.7405
  420MOL0     H57925   4.289  10.280  -1.075  1.9315  1.1208  2.8332
  420MOL0     H57926   4.354  10.188  -1.291  0.4137  0.2343 -2.5441
  420MOL0     H57927   4.441  10.344  -1.327  0.8404  1.4994  1.5234
  420MOL0     H57928   4.573  10.140  -1.241 -0.5005  1.3188 -1.7434
  420MOL0     H57929   4.490  10.151  -1.085  0.1777 -0.6697 -0.1889
  420MOL0     H57930   4.580  10.399  -1.091 -3.7957  0.2651 -3.9994
  420MOL0     H57931   4.675  10.357  -1.228 -1.8415  0.4580 -0.6106
  420MOL0     H57932   4.802  10.342  -1.016 -2.0415  2.5961  0.1204
  420MOL0     H57933   4.684  10.204  -0.963  2.1813 -0.1434  0.7801
  420MOL0     H57934   4.767  10.091  -1.191  0.5892  0.3410 -0.2278
  420MOL0     H57935   4.876  10.064  -1.048 -0.1100 -0.5999  0.8203
  420MOL0     H57936   4.973  10.298  -1.132 -0.1540  2.3957 -2.5493
  420MOL0     H57937   4.891  10.225  -1.280 -2.0266 -2.7692  0.0209
  420MOL0     H57938   5.030  10.020  -1.237  0.4435 -1.3107  1.6394
  420MOL0     H57939   5.098  10.103  -1.090  3.1993 -3.7401 -1.5881
  420MOL0     H57940   4.136  10.359  -0.971 -3.1692 -1.1797  0.7914
  420MOL0     H57941   3.983  10.544  -0.842 -0.6890  1.5566  0.6460
  420MOL0     H57942   3.464  10.760  -1.080 -0.3085 -0.2584 -0.1198
  420MOL0     H57943   3.298  10.893  -0.981 -2.8341 -1.0498  1.9422
  420MOL0     H57944   2.360  11.595   0.747  2.8506 -1.3708 -0.1944
  420MOL0     H57945   2.205  11.534   0.952  1.6335 -0.7509  1.6394
  420MOL0     H57946   2.127  11.330   1.226  0.0338  0.7676  0.1463
  420MOL0     H57947   2.063  11.355   1.445 -0.8324  0.8238  0.2137
  420MOL0     H57948   1.633  11.234   1.600  0.9840  1.4739 -1.9213
  420MOL0     H57949   1.735  11.086   1.577  1.2444 -0.8115  1.9005
  420MOL0     H57950   1.842  11.171   1.796 -0.2055 -0.3997 -1.0723
  420MOL0     H57951   1.678  11.120   1.813  0.4351 -0.9326 -0.8729
  420MOL0     H57952   1.734  11.419   1.760 -2.2643  0.4142 -0.0716
  420MOL0     H57953   1.582  11.354   1.804 -0.2250 -1.5952 -1.3684
  420MOL0     H57954   1.822  11.339   1.990  0.5407  1.3727 -2.6288
  420MOL0     H57955   1.668  11.252   2.013 -0.3029  0.6315  0.9956
  420MOL0     H57956   1.593  11.646   2.148  0.9069  0.9314 -1.3919
  420MOL0     H57957   1.697  11.127   1.369  1.8788 -1.9464  3.2555
  420MOL0     H57958   1.671  11.150   1.039 -1.4275 -3.2570 -3.9315
  420MOL0     H57959   1.783  11.009   1.030 -0.6654 -1.0082 -0.5860
  420MOL0     H57960   1.664  11.019   1.161  1.5348  0.1935  0.5857
  421MOL0     O57961  10.564   4.063   9.861 -0.4465 -0.0266 -0.3604
  421MOL0     C57962  10.518   4.101   9.971 -1.0632  0.0872  0.8029
  421MOL0     O57963  10.596   4.155  10.069  0.4512  0.1277  0.3068
  421MOL0     C57964  10.711   4.218  10.026 -0.2375  0.5390 -1.0815
  421MOL0     C57965  10.823   4.139   9.995 -0.1508  0.2629 -1.0841
  421MOL0     C57966  10.925   4.187   9.924 -0.3361 -0.1182 -1.2768
  421MOL0     C57967  10.928   4.325   9.887 -0.9647  0.1127 -0.0317
  421MOL0     O57968  11.032   4.370   9.799 -0.0498  0.2608  0.1955
  421MOL0     C57969  11.000   4.467   9.693 -0.2072  0.4649 -0.3115
  421MOL0     C57970  11.059   4.596   9.714 -1.0552 -0.5180 -0.3127
  421MOL0     C57971  11.026   4.666   9.573 -0.3068  0.2391  0.3540
  421MOL0     C57972  11.041   4.820   9.592  0.4905  0.5196 -0.1134
  421MOL0     C57973  11.060   4.886   9.448  0.2150 -0.4064  0.5749
  421MOL0     C57974  10.931   4.902   9.375 -0.1644  0.1581  0.1151
  421MOL0     C57975  10.946   4.970   9.248  0.3841  0.3315  0.3320
  421MOL0     C57976  10.805   4.974   9.177 -0.7476  0.2420 -0.7677
  421MOL0     N57977  10.824   5.008   9.037  1.3836 -0.3553 -0.3253
  421MOL0     C57978  10.865   4.918   8.944  0.9227  0.2827 -0.4998
  421MOL0     C57979  10.887   4.990   8.836 -0.6962  0.6497  0.2606
  421MOL0     C57980  10.968   4.918   8.724  0.0071 -0.6389 -0.4456
  421MOL0     C57981  11.079   5.005   8.667 -0.5348 -0.4877 -0.7583
  421MOL0     C57982  11.033   5.065   8.535 -1.2253 -0.0965 -0.1480
  421MOL0     C57983  10.929   5.180   8.541 -0.3166 -0.2036  0.0380
  421MOL0     O57984  10.895   5.209   8.398  0.3327  0.0848 -0.3514
  421MOL0     C57985  10.977   5.283   8.320  0.6851 -0.0572  0.4359
  421MOL0     C57986  11.069   5.385   8.366  0.0616 -0.3910  0.0060
  421MOL0     C57987  11.147   5.457   8.280  0.1198  1.1347  0.3952
  421MOL0     C57988  11.239   5.562   8.345 -0.2454 -0.7930  0.7563
  421MOL0     C57989  11.133   5.434   8.138 -0.7675  0.6631 -1.3573
  421MOL0     C57990  11.213   5.515   8.042 -0.1152 -0.0892  0.3585
  421MOL0     O57991  11.240   5.453   7.917  0.0934 -0.5158  0.7115
  421MOL0     C57992  11.304   5.523   7.821 -0.3995 -0.2437 -0.8715
  421MOL0     C57993  11.372   5.648   7.830 -0.0731 -0.1913  0.2699
  421MOL0     C57994  11.424   5.718   7.717 -0.4362 -0.4169 -0.4980
  421MOL0     C57995  11.419   5.657   7.594 -1.0416  0.3253 -0.0032
  421MOL0     O57996  11.462   5.707   7.468  0.1729 -0.2376 -0.0852
  421MOL0     C57997  11.560   5.809   7.459 -0.3708  0.3351 -0.9562
  421MOL0     C57998  11.582   5.868   7.324 -0.5627 -0.7238  0.2351
  421MOL0     C57999  11.648   5.767   7.227  0.6177 -0.4953 -0.4478
  421MOL0     C58000  11.787   5.727   7.272 -0.2676 -0.0769 -0.9519
  421MOL0     C58001  11.883   5.663   7.168  0.2520 -0.5039 -1.3220
  421MOL0     C58002  11.931   5.757   7.066 -0.3268 -0.8534 -0.2001
  421MOL0     C58003  12.049   5.690   6.997  0.2103  0.7311  0.1422
  421MOL0     C58004  12.112   5.794   6.897 -0.2190  0.0928  0.3866
  421MOL0    Cl58005  12.003   5.850   6.758  0.4002  0.0512  0.0787
  421MOL0     C58006  11.360   5.531   7.585 -0.4218 -0.8831  0.3975
  421MOL0     C58007  11.298   5.469   7.694  0.2567  0.4633  0.7555
  421MOL0     O58008  11.215   5.632   8.070 -0.6816 -0.6834 -0.5592
  421MOL0     C58009  11.046   5.332   8.096  0.7085  0.5133 -0.0577
  421MOL0     C58010  10.969   5.260   8.190  0.5077  0.2141  0.0208
  421MOL0     N58011  10.859   5.130   8.864 -0.2938  0.1548 -0.9033
  421MOL0     N58012  10.824   5.135   8.984 -0.4388 -0.8669 -0.1439
  421MOL0     C58013  10.820   4.406   9.924 -0.0710 -0.7265  0.5609
  421MOL0     C58014  10.702   4.356   9.990 -0.4490  0.1554  0.1355
  421MOL0     C58015  10.380   4.055  10.002 -0.1056  1.4696  0.0586
  421MOL0     C58016  10.288   4.026   9.895 -0.2634 -0.0617  0.3673
  421MOL0     C58017  10.157   3.975   9.913 -0.2069  0.1357  0.4433
  421MOL0     C58018  10.121   3.942  10.046  1.2993 -0.2168 -0.0195
  421MOL0     O58019  10.002   3.886  10.079 -0.2992  0.1638 -0.4212
  421MOL0     C58020   9.886   3.962  10.071 -0.3074 -1.0497  0.4643
  421MOL0     C58021   9.854   4.031   9.940 -0.0107  0.5175 -0.7163
  421MOL0     C58022   9.707   4.097   9.944 -0.0036 -0.8135  0.2220
  421MOL0     C58023   9.682   4.200  10.062 -0.5587  1.0764 -0.4524
  421MOL0     C58024   9.570   4.288  10.040  0.0265  0.2304 -0.1749
  421MOL0     C58025   9.465   4.348  10.046  0.1773 -0.3422 -0.5189
  421MOL0     C58026  10.209   3.977  10.152 -1.1400  0.4704 -0.5534
  421MOL0     C58027  10.341   4.020  10.129 -0.3161 -0.9878 -0.0460
  421MOL0     C58028  10.427   4.012  10.251 -0.3816  0.3100  1.3846
  421MOL0     H58029  10.831   4.036  10.029 -2.9603  0.2595 -0.1693
  421MOL0     H58030  11.004   4.116   9.901 -2.0713 -2.4083 -0.5621
  421MOL0     H58031  10.892   4.477   9.691 -0.3367 -0.7703 -1.1373
  421MOL0     H58032  11.035   4.430   9.596  0.8403  0.6987 -0.0431
  421MOL0     H58033  11.023   4.656   9.798 -2.5475  0.7416 -1.7816
  421MOL0     H58034  11.166   4.585   9.731 -1.0141  1.3868  0.9281
  421MOL0     H58035  11.094   4.635   9.493 -0.5758 -3.7398  1.4567
  421MOL0     H58036  10.928   4.637   9.536  0.1985 -0.4624 -0.4590
  421MOL0     H58037  10.972   4.889   9.642  0.3790  0.7800 -0.6186
  421MOL0     H58038  11.126   4.823   9.661 -0.3006 -0.0921  0.9274
  421MOL0     H58039  11.133   4.836   9.383 -0.5666  0.9676 -1.4327
  421MOL0     H58040  11.099   4.987   9.462 -0.1511 -0.0360 -0.9698
  421MOL0     H58041  10.884   4.804   9.356 -1.5700  0.9446 -0.6211
  421MOL0     H58042  10.870   4.965   9.441  0.1316 -0.1137  0.6575
  421MOL0     H58043  11.003   4.906   9.180 -1.8760  1.2568 -2.6858
  421MOL0     H58044  10.999   5.065   9.258 -0.7163  0.9856  0.1729
  421MOL0     H58045  10.749   4.880   9.181 -4.2027  2.0963 -1.7744
  421MOL0     H58046  10.741   5.051   9.221  1.8234  1.1022  1.7441
  421MOL0     H58047  10.880   4.810   8.949  0.6814  0.2449 -0.6049
  421MOL0     H58048  10.901   4.900   8.640 -0.1946 -1.1395 -0.1771
  421MOL0     H58049  11.005   4.826   8.769  0.1711 -1.2293 -1.7640
  421MOL0     H58050  11.115   5.086   8.732  3.2455  1.3613 -4.6067
  421MOL0     H58051  11.169   4.948   8.644  0.7749  0.8574  0.7421
  421MOL0     H58052  11.122   5.093   8.480 -0.1542 -1.3996  0.8456
  421MOL0     H58053  11.002   4.981   8.472 -0.3285  1.2615 -2.5061
  421MOL0     H58054  10.840   5.154   8.599  0.9516 -0.5536  1.9062
  421MOL0     H58055  10.961   5.272   8.591  0.2462 -0.8986  0.9975
  421MOL0     H58056  11.068   5.406   8.473  1.9514 -1.3738  0.2682
  421MOL0     H58057  11.328   5.577   8.282 -0.9645  3.1057  0.4422
  421MOL0     H58058  11.269   5.535   8.446  2.0699  0.0817  0.3562
  421MOL0     H58059  11.174   5.650   8.340 -1.5014 -1.6337  1.7941
  421MOL0     H58060  11.382   5.702   7.924 -2.3662 -0.4358  0.7115
  421MOL0     H58061  11.458   5.821   7.714 -1.1705 -0.1974 -1.8909
  421MOL0     H58062  11.522   5.885   7.528 -0.6660  0.0275 -0.7742
  421MOL0     H58063  11.650   5.756   7.495 -1.9580 -0.3331  2.4051
  421MOL0     H58064  11.480   5.895   7.295 -0.9655 -3.5570 -1.3920
  421MOL0     H58065  11.650   5.953   7.335 -1.3504 -0.1699  0.9819
  421MOL0     H58066  11.655   5.817   7.130 -2.3870 -0.7213 -0.9000
  421MOL0     H58067  11.593   5.673   7.211 -0.1922  0.3652 -3.4678
  421MOL0     H58068  11.770   5.654   7.352  1.9131  0.0711 -0.2867
  421MOL0     H58069  11.847   5.810   7.311 -2.4124  1.2948 -0.3657
  421MOL0     H58070  11.970   5.621   7.218 -0.3994  0.8574  1.1290
  421MOL0     H58071  11.823   5.589   7.114  1.7947 -1.4789 -1.7523
  421MOL0     H58072  11.947   5.855   7.111 -2.4521 -0.5824  0.0627
  421MOL0     H58073  11.848   5.773   6.997  0.2623  2.0991 -0.3516
  421MOL0     H58074  12.019   5.603   6.938 -1.4785  1.2035  0.2496
  421MOL0     H58075  12.132   5.666   7.065 -0.8462 -0.8745  0.9268
  421MOL0     H58076  12.203   5.746   6.861  0.7720  2.1681 -0.0082
  421MOL0     H58077  12.157   5.877   6.952  2.1118 -1.5369  1.1283
  421MOL0     H58078  11.341   5.492   7.485  1.3784  1.0940 -0.7939
  421MOL0     H58079  11.256   5.374   7.665  1.4876 -0.1829  1.0500
  421MOL0     H58080  11.015   5.307   7.995 -3.9602 -1.4103  1.5948
  421MOL0     H58081  10.902   5.181   8.158 -1.1027  2.3260 -2.2129
  421MOL0     H58082  10.822   4.511   9.897 -1.0608 -1.1194 -1.1261
  421MOL0     H58083  10.609   4.411  10.002 -0.4567  0.2277 -0.2448
  421MOL0     H58084  10.322   4.034   9.792  1.3170 -1.3982  0.7370
  421MOL0     H58085  10.095   3.959   9.826  0.5203 -1.3552  0.1767
  421MOL0     H58086   9.802   3.898  10.099 -4.3464  1.8006 -3.6971
  421MOL0     H58087   9.901   4.043  10.144  2.5468 -0.2950 -0.7933
  421MOL0     H58088   9.853   3.960   9.857 -1.4213 -1.5464  0.9294
  421MOL0     H58089   9.930   4.108   9.927  2.5155 -1.7104 -0.0862
  421MOL0     H58090   9.683   4.138   9.846  1.3585 -2.3114 -0.7721
  421MOL0     H58091   9.636   4.015   9.960 -1.0217 -0.3902 -1.7702
  421MOL0     H58092   9.770   4.260  10.090  1.1272 -2.2383  2.0367
  421MOL0     H58093   9.660   4.136  10.147  1.3559  0.2841 -0.5051
  421MOL0     H58094   9.365   4.387  10.046  0.6622  1.1887 -3.2780
  421MOL0     H58095  10.188   3.928  10.246  1.2547  0.1689 -0.1181
  421MOL0     H58096  10.459   4.110  10.287  1.5470 -0.3051  1.4541
  421MOL0     H58097  10.377   3.962  10.335  1.2079  0.5837  2.5193
  421MOL0     H58098  10.513   3.945  10.241 -1.2163 -0.8381  1.6391
  422MOL0     O58099   5.764   5.781   6.138 -0.2897  0.4128  0.9398
  422MOL0     C58100   5.774   5.823   6.025 -0.0654  0.3327  0.6587
  422MOL0     O58101   5.847   5.942   5.991 -0.1261 -0.3868 -0.9546
  422MOL0     C58102   5.949   5.987   6.071  0.2365 -0.5310 -0.6128
  422MOL0     C58103   5.965   6.127   6.091 -0.1166  0.3006  0.6543
  422MOL0     C58104   6.077   6.178   6.163 -1.1962 -0.4500 -0.4260
  422MOL0     C58105   6.183   6.089   6.205  0.2618  0.6730 -0.5168
  422MOL0     O58106   6.285   6.139   6.274  0.6206 -0.5441 -0.3843
  422MOL0     C58107   6.358   6.245   6.205  0.0726 -0.8449 -0.9996
  422MOL0     C58108   6.456   6.308   6.305 -0.3405  0.1809 -0.3286
  422MOL0     C58109   6.561   6.411   6.251 -0.7101 -0.3213  0.4754
  422MOL0     C58110   6.671   6.343   6.175  0.0326  0.4084  0.6960
  422MOL0     C58111   6.739   6.452   6.096  0.2895 -0.9244  0.3346
  422MOL0     C58112   6.791   6.404   5.960 -0.4903  0.2147  1.1437
  422MOL0     C58113   6.860   6.526   5.898  0.3035 -0.6191  0.2546
  422MOL0     C58114   6.925   6.514   5.754  1.1983 -0.4045 -0.2412
  422MOL0     N58115   7.040   6.440   5.756  0.0659  0.6544  0.1249
  422MOL0     C58116   7.162   6.495   5.766 -0.2012  0.2872  0.1028
  422MOL0     C58117   7.243   6.383   5.766  0.4072 -0.3065  1.6038
  422MOL0     C58118   7.399   6.371   5.778 -0.3927 -0.3813  0.4608
  422MOL0     C58119   7.443   6.478   5.883 -0.1879 -0.6428 -0.1212
  422MOL0     C58120   7.421   6.436   6.027  0.1410  0.0112 -0.8749
  422MOL0     C58121   7.481   6.546   6.124 -0.7855 -0.0192  0.9861
  422MOL0     O58122   7.432   6.679   6.085  0.2618  0.0658 -0.9582
  422MOL0     C58123   7.298   6.714   6.126 -0.6098 -1.1055  0.8933
  422MOL0     C58124   7.219   6.641   6.212  0.6337 -0.1798  0.4688
  422MOL0     C58125   7.092   6.677   6.247 -0.0035 -0.3001 -0.5443
  422MOL0     C58126   7.023   6.615   6.366 -0.2229 -0.1734  0.5399
  422MOL0     C58127   7.021   6.777   6.169 -0.6691  0.6141 -0.7266
  422MOL0     C58128   6.876   6.810   6.180  0.1470 -0.1167  0.2059
  422MOL0     O58129   6.801   6.760   6.286  0.4274 -0.5896  0.0669
  422MOL0     C58130   6.664   6.785   6.293  0.4124 -0.0717 -0.6993
  422MOL0     C58131   6.570   6.784   6.191 -1.2138 -0.5624 -0.2520
  422MOL0     C58132   6.431   6.812   6.220 -0.5196  0.2890 -0.3321
  422MOL0     C58133   6.395   6.823   6.359 -0.6327  1.0545  0.6860
  422MOL0     O58134   6.269   6.847   6.398 -0.1236  0.4258 -0.3883
  422MOL0     C58135   6.198   6.958   6.344 -0.7621  0.2448  0.6594
  422MOL0     C58136   6.064   6.946   6.414 -1.6310  0.2947  0.0318
  422MOL0     C58137   5.952   7.037   6.347  0.3412  0.4952  0.5464
  422MOL0     C58138   5.812   6.995   6.387  0.3932  0.0491  0.5119
  422MOL0     C58139   5.696   7.078   6.318 -0.6859  0.8360  0.2185
  422MOL0     C58140   5.678   7.041   6.165 -0.2428 -0.3726 -0.5496
  422MOL0     C58141   5.589   7.144   6.088 -0.6523  0.2157 -0.8717
  422MOL0     C58142   5.586   7.107   5.940  0.3389  0.0957 -0.6458
  422MOL0    Cl58143   5.747   7.134   5.876  0.1458 -0.3479 -0.3577
  422MOL0     C58144   6.491   6.804   6.458 -0.9953 -0.9509 -0.6588
  422MOL0     C58145   6.625   6.784   6.427  1.0067  1.0571  1.1946
  422MOL0     O58146   6.825   6.893   6.099  0.1567 -0.4841 -0.2473
  422MOL0     C58147   7.096   6.851   6.077 -0.5101 -0.0088 -0.0988
  422MOL0     C58148   7.234   6.822   6.057 -0.4164  0.1613 -0.0122
  422MOL0     N58149   7.168   6.267   5.756  0.5805 -0.1647 -0.1014
  422MOL0     N58150   7.045   6.303   5.747  0.1067 -0.1034 -0.0708
  422MOL0     C58151   6.164   5.946   6.185 -0.4108  0.0120  0.0968
  422MOL0     C58152   6.051   5.898   6.115  0.4837 -0.5499  0.2782
  422MOL0     C58153   5.701   5.761   5.911  0.6605  0.1458  0.6652
  422MOL0     C58154   5.683   5.842   5.793  0.1927 -0.7974  0.1700
  422MOL0     C58155   5.650   5.783   5.672  0.5893  0.5608 -0.2230
  422MOL0     C58156   5.592   5.653   5.669 -0.7233  0.3960  0.2766
  422MOL0     O58157   5.527   5.608   5.559  0.4918  0.3599  0.0993
  422MOL0     C58158   5.488   5.695   5.457 -0.1732 -1.2199  0.4556
  422MOL0     C58159   5.381   5.635   5.365 -0.3223 -0.6223 -0.5009
  422MOL0     C58160   5.435   5.510   5.288 -0.1824  0.3706  1.2044
  422MOL0     C58161   5.548   5.562   5.194 -0.1225 -0.6574 -0.2897
  422MOL0     C58162   5.536   5.498   5.062 -0.4804 -0.6294  0.0764
  422MOL0     C58163   5.512   5.440   4.959 -0.1520 -0.5754  0.2961
  422MOL0     C58164   5.612   5.573   5.786  0.7442  1.0824 -0.7516
  422MOL0     C58165   5.662   5.624   5.903  0.2864 -0.5375 -0.0243
  422MOL0     C58166   5.657   5.528   6.025  0.4402 -0.5185 -1.3681
  422MOL0     H58167   5.890   6.198   6.055  0.7939 -0.1580 -2.4518
  422MOL0     H58168   6.085   6.283   6.192  0.2438 -0.7276  0.2753
  422MOL0     H58169   6.290   6.320   6.165  0.8399  0.1802 -0.4243
  422MOL0     H58170   6.407   6.213   6.113  0.1530  2.4374 -2.2152
  422MOL0     H58171   6.408   6.351   6.393 -0.8022 -0.1929 -0.3942
  422MOL0     H58172   6.521   6.227   6.339  0.6237  1.0789  0.0144
  422MOL0     H58173   6.502   6.482   6.191 -2.1622  0.5967  2.8344
  422MOL0     H58174   6.609   6.453   6.339 -1.3251  1.3931  0.0342
  422MOL0     H58175   6.741   6.304   6.249  0.8514  2.0867  0.8645
  422MOL0     H58176   6.626   6.266   6.112 -1.0827 -0.5880  2.6224
  422MOL0     H58177   6.816   6.506   6.152 -2.3586  2.8525  0.7407
  422MOL0     H58178   6.663   6.526   6.068  0.0705 -2.0947 -2.4631
  422MOL0     H58179   6.868   6.329   5.980 -0.6694 -0.0081  0.9969
  422MOL0     H58180   6.725   6.348   5.893 -1.2881 -3.0257  4.3319
  422MOL0     H58181   6.938   6.559   5.967  1.3497  0.9369 -1.5688
  422MOL0     H58182   6.790   6.609   5.889  1.6934  0.3498 -3.6103
  422MOL0     H58183   6.849   6.463   5.695 -1.5190  2.2961  0.6305
  422MOL0     H58184   6.945   6.610   5.705 -0.3754  0.0123 -0.1190
  422MOL0     H58185   7.178   6.602   5.771 -1.2835  0.4071  1.7773
  422MOL0     H58186   7.449   6.399   5.685  0.3937 -1.5621  0.5093
  422MOL0     H58187   7.424   6.268   5.806  1.1663 -0.1722 -0.0779
  422MOL0     H58188   7.551   6.491   5.872 -0.1786 -0.5422  0.0795
  422MOL0     H58189   7.407   6.579   5.863 -0.8255 -0.6248  1.0532
  422MOL0     H58190   7.313   6.426   6.046  0.2931  1.0050  0.7051
  422MOL0     H58191   7.477   6.345   6.049 -0.1218 -0.2954 -1.4570
  422MOL0     H58192   7.462   6.511   6.226  0.2251  0.6750  1.4342
  422MOL0     H58193   7.589   6.550   6.108 -1.2902  1.6959 -3.4027
  422MOL0     H58194   7.259   6.553   6.263  1.3160 -0.2253 -0.1319
  422MOL0     H58195   6.972   6.524   6.334  0.1410  0.8330 -3.3859
  422MOL0     H58196   6.955   6.676   6.426  0.6437 -1.4263  2.9182
  422MOL0     H58197   7.099   6.584   6.438  0.5843  2.1528  0.7511
  422MOL0     H58198   6.604   6.783   6.088 -0.2707  2.0049 -0.0309
  422MOL0     H58199   6.358   6.828   6.140 -1.0239  0.6292  0.1896
  422MOL0     H58200   6.256   7.050   6.343 -1.4730  0.6960  0.0745
  422MOL0     H58201   6.182   6.930   6.240 -3.5609 -0.2090  1.1270
  422MOL0     H58202   6.041   6.840   6.407 -0.0017 -0.1146  0.3224
  422MOL0     H58203   6.076   6.957   6.522 -0.2514 -1.2788  0.0724
  422MOL0     H58204   5.962   7.040   6.238  2.7194  0.8109  0.7251
  422MOL0     H58205   5.972   7.138   6.383 -1.2981  1.3829 -0.8900
  422MOL0     H58206   5.804   7.000   6.496 -0.9604 -1.4892  0.5261
  422MOL0     H58207   5.795   6.892   6.356 -3.3062  0.7415 -0.2724
  422MOL0     H58208   5.602   7.057   6.368 -1.4219  2.2737 -0.5034
  422MOL0     H58209   5.728   7.180   6.341  1.2052  1.2222 -3.3606
  422MOL0     H58210   5.627   6.945   6.173 -0.9127 -0.2469 -2.5680
  422MOL0     H58211   5.778   7.029   6.123  0.4641  1.3524  0.5300
  422MOL0     H58212   5.622   7.248   6.095 -0.4458  0.0681  1.0328
  422MOL0     H58213   5.484   7.132   6.115 -0.7021 -1.4366 -1.6719
  422MOL0     H58214   5.516   7.164   5.878  0.4443  0.6490 -0.2620
  422MOL0     H58215   5.556   7.002   5.941 -1.2569  0.4881  1.8556
  422MOL0     H58216   6.459   6.810   6.562 -1.4471  3.5125 -0.8639
  422MOL0     H58217   6.703   6.779   6.502  2.2779  1.5224 -0.0328
  422MOL0     H58218   7.051   6.931   6.020  1.4783  1.2774  0.0342
  422MOL0     H58219   7.285   6.876   5.978 -0.0954 -1.3255 -0.8625
  422MOL0     H58220   6.231   5.876   6.233 -0.7754 -1.0194 -0.8417
  422MOL0     H58221   6.029   5.794   6.096 -4.6745  0.2699  0.3922
  422MOL0     H58222   5.703   5.948   5.795 -0.4549 -0.6867  0.7817
  422MOL0     H58223   5.655   5.850   5.587 -1.8266  0.9008 -0.1616
  422MOL0     H58224   5.450   5.794   5.482 -0.0968 -0.3985 -2.2969
  422MOL0     H58225   5.581   5.702   5.400 -0.7259 -0.9074 -0.4359
  422MOL0     H58226   5.353   5.717   5.298  2.3221  0.4827 -0.3803
  422MOL0     H58227   5.287   5.607   5.414  0.2259 -2.4298 -0.4038
  422MOL0     H58228   5.480   5.440   5.359 -0.6213 -1.3917 -0.1696
  422MOL0     H58229   5.360   5.460   5.225  2.1148  0.1122 -1.5619
  422MOL0     H58230   5.643   5.539   5.243 -0.4354  1.6273  1.5563
  422MOL0     H58231   5.543   5.669   5.175  3.0235 -0.1753  0.9653
  422MOL0     H58232   5.481   5.393   4.868 -0.3892 -3.0052  1.5520
  422MOL0     H58233   5.579   5.469   5.782 -1.0518  1.5169  0.9349
  422MOL0     H58234   5.671   5.425   5.992  0.3141 -1.3106  0.8628
  422MOL0     H58235   5.745   5.550   6.086  1.7116  1.9291 -3.8499
  422MOL0     H58236   5.561   5.537   6.076  1.8771  1.5032  1.2266
  423MOL0     O58237   7.835  11.300   9.462  0.2099  0.7723  0.5408
  423MOL0     C58238   7.759  11.376   9.519  0.0608  0.6981 -0.5449
  423MOL0     O58239   7.796  11.468   9.610 -0.6588 -0.7806  0.1595
  423MOL0     C58240   7.926  11.502   9.647 -0.2811 -0.0977  0.4291
  423MOL0     C58241   7.987  11.623   9.598  0.1897  0.6096  0.4001
  423MOL0     C58242   8.096  11.684   9.661 -0.2219  1.0659 -0.6624
  423MOL0     C58243   8.163  11.614   9.756  0.0668 -0.8502  0.2624
  423MOL0     O58244   8.291  11.649   9.800 -0.2195  0.0055  0.0753
  423MOL0     C58245   8.353  11.775   9.766  0.3495 -1.0260  0.7010
  423MOL0     C58246   8.307  11.897   9.836  0.8639  0.3784 -0.3357
  423MOL0     C58247   8.298  11.861   9.992  0.3178  0.6972  0.2656
  423MOL0     C58248   8.422  11.791  10.062 -0.2205 -0.0803  0.5685
  423MOL0     C58249   8.532  11.898  10.054  0.0786 -0.0141 -0.4823
  423MOL0     C58250   8.652  11.852  10.111  0.4408  0.4423  0.0546
  423MOL0     C58251   8.767  11.941  10.068 -0.1405  0.6092  0.0549
  423MOL0     C58252   8.898  11.894  10.118 -1.0334  0.1610  0.1730
  423MOL0     N58253   9.002  11.967  10.043  0.4395 -0.0707 -0.8057
  423MOL0     C58254   9.048  11.934   9.922  0.5892  0.2338 -0.1341
  423MOL0     C58255   9.167  11.995   9.921  0.4844 -0.4457 -0.5956
  423MOL0     C58256   9.279  11.991   9.815  0.3129 -0.2866  0.9908
  423MOL0     C58257   9.247  12.105   9.713  0.3824  0.0015 -0.4415
  423MOL0     C58258   9.349  12.099   9.598  0.1600 -0.1562  0.4705
  423MOL0     C58259   9.335  11.959   9.534 -0.2369 -0.3315 -0.6247
  423MOL0     O58260   9.353  11.948   9.392  0.1073  0.1825  0.2282
  423MOL0     C58261   9.262  12.003   9.302  0.8027 -0.2394  0.3644
  423MOL0     C58262   9.138  12.062   9.349 -0.2536 -0.5833  0.4132
  423MOL0     C58263   9.039  12.089   9.259 -0.0796  0.5125  0.2032
  423MOL0     C58264   8.898  12.116   9.306 -0.6960 -0.6935  0.0606
  423MOL0     C58265   9.066  12.086   9.118  0.4912 -0.1446  0.6108
  423MOL0     C58266   8.969  12.126   9.009 -0.2431  0.0804  0.0865
  423MOL0     O58267   8.843  12.151   9.030  0.3909 -0.2381 -0.1806
  423MOL0     C58268   8.749  12.131   8.937  0.3242 -0.0791 -0.1632
  423MOL0     C58269   8.645  12.217   8.938 -0.3103 -0.4044 -0.9840
  423MOL0     C58270   8.545  12.215   8.848  0.8843 -0.4656  0.6505
  423MOL0     C58271   8.554  12.117   8.746 -0.1964  0.1172 -0.3625
  423MOL0     O58272   8.474  12.134   8.635  0.6113 -0.0343 -0.8782
  423MOL0     C58273   8.465  12.270   8.593 -0.6024 -0.4392 -0.2708
  423MOL0     C58274   8.409  12.280   8.452 -0.1245 -0.3972  0.1310
  423MOL0     C58275   8.260  12.235   8.448 -0.4438 -1.4216 -0.4655
  423MOL0     C58276   8.195  12.259   8.316  0.2240  0.3734 -0.2665
  423MOL0     C58277   8.044  12.254   8.303  0.1839  0.2708 -0.5658
  423MOL0     C58278   7.981  12.305   8.175  0.1972  0.1149 -0.3901
  423MOL0     C58279   7.843  12.236   8.169 -0.2223  0.1494 -0.2354
  423MOL0     C58280   7.804  12.242   8.014  0.4830 -0.8594  0.3537
  423MOL0    Cl58281   7.769  12.412   7.981 -0.3781  0.0439 -0.1865
  423MOL0     C58282   8.655  12.017   8.749 -0.0840 -0.4171  0.2450
  423MOL0     C58283   8.749  12.024   8.850 -1.4429  0.4111 -0.3029
  423MOL0     O58284   9.022  12.119   8.891  0.4409  1.4424  0.4020
  423MOL0     C58285   9.188  12.032   9.074 -0.7703 -0.9605 -1.0622
  423MOL0     C58286   9.280  11.990   9.166 -0.0090 -0.0212 -0.3938
  423MOL0     N58287   9.190  12.062  10.045 -0.7138 -0.1703  0.4452
  423MOL0     N58288   9.085  12.037  10.116  0.3033 -0.4806  0.1117
  423MOL0     C58289   8.114  11.493   9.806 -0.1805  0.1100  0.1833
  423MOL0     C58290   7.991  11.440   9.751 -0.6286  0.0818  0.7976
  423MOL0     C58291   7.614  11.344   9.485 -0.2118 -0.4345 -0.1536
  423MOL0     C58292   7.568  11.223   9.438  0.3638 -0.4236 -0.4767
  423MOL0     C58293   7.423  11.200   9.434  0.0576 -1.4667  0.1943
  423MOL0     C58294   7.331  11.299   9.444  0.7274  0.0976  0.8654
  423MOL0     O58295   7.196  11.279   9.419  0.7742 -0.6134 -0.1963
  423MOL0     C58296   7.127  11.227   9.530  0.5885 -0.1186 -0.2725
  423MOL0     C58297   7.040  11.115   9.481 -0.3978  0.7162  1.2025
  423MOL0     C58298   7.124  10.996   9.427 -0.4872  0.3812 -0.3283
  423MOL0     C58299   7.032  10.888   9.370  0.0468 -0.6883 -0.2587
  423MOL0     C58300   7.079  10.761   9.400 -0.7287  0.5164  0.2563
  423MOL0     C58301   7.123  10.657   9.442  0.5892 -0.6311  0.4512
  423MOL0     C58302   7.377  11.422   9.478 -0.0904 -0.2968  0.8509
  423MOL0     C58303   7.515  11.445   9.513 -0.1686 -1.1599 -0.6325
  423MOL0     C58304   7.551  11.589   9.556  1.0589  0.8594  0.2757
  423MOL0     H58305   7.940  11.668   9.511 -0.4431  0.1443  0.4948
  423MOL0     H58306   8.134  11.771   9.609  0.9276  0.3496 -1.0555
  423MOL0     H58307   8.335  11.797   9.660  3.3913  0.4288  0.3748
  423MOL0     H58308   8.461  11.764   9.778  0.4942 -1.0720 -0.5389
  423MOL0     H58309   8.374  11.982   9.821  3.0019 -1.7559 -4.3874
  423MOL0     H58310   8.208  11.912   9.792  1.3333  0.0896 -1.5157
  423MOL0     H58311   8.268  11.953  10.043 -2.5153 -1.8379  3.6805
  423MOL0     H58312   8.210  11.797  10.001  1.8633 -1.6891 -0.7956
  423MOL0     H58313   8.388  11.761  10.162 -0.8877 -2.0822 -0.2031
  423MOL0     H58314   8.447  11.696  10.013  2.9543 -0.1383  2.0855
  423MOL0     H58315   8.499  11.988  10.106 -0.8720 -1.4614  1.5775
  423MOL0     H58316   8.541  11.934   9.951  3.5812  0.4820 -0.1317
  423MOL0     H58317   8.644  11.840  10.219 -1.4676 -1.5864 -0.2363
  423MOL0     H58318   8.672  11.751  10.075  2.0958  0.6538  0.3227
  423MOL0     H58319   8.751  12.045  10.096 -2.1113  1.4085 -3.4770
  423MOL0     H58320   8.762  11.924   9.960 -3.4118 -0.2755  0.2335
  423MOL0     H58321   8.907  11.905  10.226 -1.7430  0.0677  0.2411
  423MOL0     H58322   8.905  11.791  10.082  0.3563  0.6291 -1.0488
  423MOL0     H58323   8.998  11.867   9.852  0.1706 -2.7319  2.7717
  423MOL0     H58324   9.284  11.894   9.765  2.3101 -0.0920  0.7361
  423MOL0     H58325   9.378  12.000   9.861  0.2574 -2.4822  1.6506
  423MOL0     H58326   9.149  12.087   9.666  0.6352  1.9509 -1.8357
  423MOL0     H58327   9.247  12.201   9.764 -3.9733 -1.2462  2.4619
  423MOL0     H58328   9.334  12.183   9.530  1.2657  0.3986  0.8874
  423MOL0     H58329   9.451  12.102   9.637 -0.1045 -1.2551  1.2969
  423MOL0     H58330   9.391  11.884   9.591 -0.8842 -2.1889 -2.3070
  423MOL0     H58331   9.236  11.917   9.557  0.5252 -2.1370 -0.4742
  423MOL0     H58332   9.120  12.080   9.455 -0.3109  0.9892  0.1681
  423MOL0     H58333   8.871  12.221   9.316  1.1208 -0.0575 -1.2425
  423MOL0     H58334   8.898  12.088   9.412 -1.0229  1.8162  0.7751
  423MOL0     H58335   8.826  12.046   9.263 -1.3987 -0.6428  1.1239
  423MOL0     H58336   8.635  12.304   9.001  0.6350 -0.5028 -0.6862
  423MOL0     H58337   8.475  12.298   8.854  1.0164 -0.3126  0.0701
  423MOL0     H58338   8.393  12.323   8.657 -1.6299  0.4190 -2.0631
  423MOL0     H58339   8.560  12.322   8.603  0.1424 -1.8533  0.2205
  423MOL0     H58340   8.425  12.378   8.405 -0.0379  0.4842  1.9024
  423MOL0     H58341   8.468  12.216   8.386  0.4270  2.0116 -1.8959
  423MOL0     H58342   8.204  12.302   8.513 -3.0015  0.4315 -4.2386
  423MOL0     H58343   8.267  12.135   8.492  2.3091 -0.6175  1.2102
  423MOL0     H58344   8.232  12.179   8.251 -0.2150 -0.9466  1.0319
  423MOL0     H58345   8.228  12.361   8.293 -0.0838  0.4228 -0.4992
  423MOL0     H58346   8.029  12.146   8.312  0.5505  0.1902 -0.9310
  423MOL0     H58347   7.995  12.303   8.388 -0.9932 -1.0369 -0.4580
  423MOL0     H58348   8.037  12.272   8.087 -0.9895 -0.6891 -0.8665
  423MOL0     H58349   7.983  12.413   8.161 -0.7701  0.0501 -1.1351
  423MOL0     H58350   7.768  12.291   8.228  0.4543  0.3173  0.4770
  423MOL0     H58351   7.842  12.132   8.203  0.9572  0.4192  0.6473
  423MOL0     H58352   7.720  12.175   7.995  0.2598 -0.8158  1.1469
  423MOL0     H58353   7.882  12.206   7.946  0.2541 -1.1238  0.2289
  423MOL0     H58354   8.647  11.939   8.673  0.9230  0.5558 -0.8973
  423MOL0     H58355   8.830  11.954   8.867  0.5268  3.0507  1.9202
  423MOL0     H58356   9.218  12.008   8.973  4.4985 -0.0491 -0.0323
  423MOL0     H58357   9.370  11.938   9.133  1.0571  1.1961  0.5108
  423MOL0     H58358   8.175  11.444   9.881  1.1995  0.6678 -0.5402
  423MOL0     H58359   7.943  11.349   9.786  0.9740 -2.7231 -3.4854
  423MOL0     H58360   7.637  11.140   9.427  1.2264 -0.5193  3.7117
  423MOL0     H58361   7.388  11.101   9.406 -1.3197 -0.4940 -1.8206
  423MOL0     H58362   7.196  11.190   9.606 -0.0336 -0.6416  0.0489
  423MOL0     H58363   7.060  11.304   9.569 -1.0515 -0.9054 -1.4090
  423MOL0     H58364   6.969  11.158   9.409  0.2304 -1.6634 -0.9953
  423MOL0     H58365   6.983  11.068   9.561 -0.4134 -0.4784  0.5047
  423MOL0     H58366   7.194  11.016   9.346 -2.1719 -0.6146 -2.1182
  423MOL0     H58367   7.187  10.966   9.511  1.2569  1.2188 -1.2736
  423MOL0     H58368   7.029  10.914   9.264  2.1608  1.2245  0.0673
  423MOL0     H58369   6.932  10.901   9.412 -0.2800 -2.3020 -0.5041
  423MOL0     H58370   7.166  10.568   9.484 -1.1895 -1.3345  0.8720
  423MOL0     H58371   7.297  11.496   9.482  0.8688  0.7349  2.8322
  423MOL0     H58372   7.636  11.641   9.511 -0.0977  2.0193 -0.6516
  423MOL0     H58373   7.463  11.655   9.549 -0.3271 -0.7140  1.7676
  423MOL0     H58374   7.577  11.584   9.662  2.6021  2.5719  0.0341
  424MOL0     O58375   3.636   3.057   2.701 -0.4545  0.0164  0.0031
  424MOL0     C58376   3.607   2.945   2.739  0.1109  0.8270 -0.8738
  424MOL0     O58377   3.638   2.830   2.678 -0.2391 -0.5113 -0.0702
  424MOL0     C58378   3.720   2.824   2.568  0.3682  0.3540 -0.1779
  424MOL0     C58379   3.659   2.792   2.446  0.0108  0.3432 -1.0580
  424MOL0     C58380   3.744   2.765   2.338  0.8094 -0.0003 -0.6328
  424MOL0     C58381   3.887   2.761   2.353 -0.0706  0.3934  0.4596
  424MOL0     O58382   3.975   2.717   2.262 -0.1277 -0.2073 -0.5082
  424MOL0     C58383   3.935   2.726   2.124  0.4431  0.3107 -0.5404
  424MOL0     C58384   3.974   2.860   2.067 -0.3839  0.4713 -0.3799
  424MOL0     C58385   4.125   2.886   2.061 -0.7030 -0.1716  0.4361
  424MOL0     C58386   4.184   2.790   1.949  0.2371  0.6339 -0.6702
  424MOL0     C58387   4.335   2.832   1.922 -0.2904 -0.7522  0.0788
  424MOL0     C58388   4.337   2.965   1.855  0.6044  0.5913  0.0462
  424MOL0     C58389   4.480   2.987   1.800  0.3863  0.1162 -0.2523
  424MOL0     C58390   4.494   3.107   1.698 -0.5808  0.6844 -0.7100
  424MOL0     N58391   4.428   3.088   1.572 -0.3499  0.5745 -0.4274
  424MOL0     C58392   4.457   2.996   1.471 -0.4340  0.1824 -0.3060
  424MOL0     C58393   4.363   3.019   1.366  0.3306  0.3357 -0.9499
  424MOL0     C58394   4.369   2.966   1.223  1.0798  0.8025  0.5035
  424MOL0     C58395   4.484   3.048   1.159 -0.4319  0.4720  0.4483
  424MOL0     C58396   4.542   2.967   1.045  0.5462 -0.6848  0.5215
  424MOL0     C58397   4.679   2.903   1.077 -0.0036  0.8536 -0.2555
  424MOL0     O58398   4.663   2.824   1.196  0.2486  0.5494 -0.6519
  424MOL0     C58399   4.726   2.701   1.200 -0.0984  0.0131 -0.9093
  424MOL0     C58400   4.865   2.710   1.179  0.2087 -0.0695 -1.7809
  424MOL0     C58401   4.936   2.585   1.168  0.1785  0.1436  0.3115
  424MOL0     C58402   5.078   2.583   1.117 -0.1845  0.2940 -0.4070
  424MOL0     C58403   4.864   2.457   1.198 -0.1231 -0.2482  0.7107
  424MOL0     C58404   4.923   2.327   1.223 -0.7702  0.2157 -0.8611
  424MOL0     O58405   5.043   2.294   1.176  0.3853  0.4397  0.0323
  424MOL0     C58406   5.094   2.177   1.212  0.5491  0.1279 -1.1926
  424MOL0     C58407   5.045   2.050   1.173  0.3403 -0.3844  0.3461
  424MOL0     C58408   5.103   1.936   1.222 -0.5383  0.1410  0.5145
  424MOL0     C58409   5.221   1.946   1.301 -0.1849 -0.2272 -0.3160
  424MOL0     O58410   5.289   1.832   1.341 -0.5080 -0.5130 -0.2844
  424MOL0     C58411   5.413   1.857   1.422  0.0089  0.1200  0.8227
  424MOL0     C58412   5.465   1.723   1.474  0.2073 -0.8132  0.4172
  424MOL0     C58413   5.491   1.617   1.363  0.4754 -0.2685 -0.7738
  424MOL0     C58414   5.612   1.518   1.390 -0.5499  0.1062  0.0995
  424MOL0     C58415   5.744   1.587   1.399 -0.1687  0.6504  0.2317
  424MOL0     C58416   5.861   1.480   1.395 -0.3848 -0.6679  1.0673
  424MOL0     C58417   5.850   1.362   1.497 -0.1761  0.0807 -0.4515
  424MOL0     C58418   5.977   1.298   1.559  0.6231 -0.5068  1.5517
  424MOL0    Cl58419   6.044   1.418   1.663  0.1271  0.2006 -0.6883
  424MOL0     C58420   5.266   2.073   1.331 -0.3189 -0.6776 -0.1149
  424MOL0     C58421   5.208   2.188   1.282  0.6632 -0.2803  0.4312
  424MOL0     O58422   4.850   2.241   1.277 -0.0930 -0.8105 -0.1985
  424MOL0     C58423   4.726   2.472   1.239 -0.3454 -0.4675 -0.3998
  424MOL0     C58424   4.662   2.590   1.228 -0.1813 -0.6290 -0.3660
  424MOL0     N58425   4.286   3.117   1.417 -0.2623 -0.0682  0.2822
  424MOL0     N58426   4.318   3.159   1.538  0.9725 -0.4536  0.8793
  424MOL0     C58427   3.938   2.802   2.467 -0.6248  0.5208 -0.5097
  424MOL0     C58428   3.862   2.835   2.577 -0.1300 -0.2005 -0.1746
  424MOL0     C58429   3.518   2.935   2.868  0.1535  0.6731  0.4740
  424MOL0     C58430   3.508   2.811   2.934  0.3301 -1.1125  0.4289
  424MOL0     C58431   3.429   2.805   3.039  0.4008 -0.3460  0.1306
  424MOL0     C58432   3.357   2.916   3.087 -0.2119  1.0323 -0.1102
  424MOL0     O58433   3.283   2.900   3.205 -0.1679  0.0210  0.1693
  424MOL0     C58434   3.213   3.008   3.272  0.6915 -0.1897  0.8352
  424MOL0     C58435   3.081   3.035   3.197  0.2626  0.6904  0.1442
  424MOL0     C58436   2.971   2.928   3.223 -0.6317  0.9295  0.2402
  424MOL0     C58437   2.839   2.984   3.206 -0.1014  0.6628  0.8434
  424MOL0     C58438   2.745   2.880   3.168 -0.2676 -0.4309  0.4275
  424MOL0     C58439   2.653   2.808   3.131 -0.1492  0.4662  0.0621
  424MOL0     C58440   3.362   3.040   3.022  0.7536 -0.0561  0.0848
  424MOL0     C58441   3.443   3.050   2.917  0.0628  1.3230 -0.3702
  424MOL0     C58442   3.443   3.189   2.849  0.8149  0.2173  0.0739
  424MOL0     H58443   3.552   2.799   2.434 -0.2289 -1.2084 -0.0533
  424MOL0     H58444   3.692   2.735   2.248 -0.2636  1.3910 -0.4970
  424MOL0     H58445   3.827   2.720   2.105  0.1482  3.5132 -0.4328
  424MOL0     H58446   3.985   2.642   2.075  0.1266 -1.1592  1.5195
  424MOL0     H58447   3.921   2.873   1.972 -1.4948 -3.1018 -0.3902
  424MOL0     H58448   3.938   2.943   2.128  2.5826  1.6989 -0.1504
  424MOL0     H58449   4.146   2.991   2.038 -0.2090 -0.0999  1.1712
  424MOL0     H58450   4.164   2.846   2.156  2.2904 -0.6973 -0.8882
  424MOL0     H58451   4.171   2.688   1.984 -1.0368  1.1037  0.3162
  424MOL0     H58452   4.122   2.802   1.859 -0.9101  5.2973  0.4697
  424MOL0     H58453   4.382   2.755   1.861 -1.6785 -0.4268 -1.4705
  424MOL0     H58454   4.387   2.844   2.018  1.2304 -0.5519 -0.7355
  424MOL0     H58455   4.267   2.959   1.771 -1.0467 -1.1671  1.4476
  424MOL0     H58456   4.318   3.040   1.932  0.4824 -1.2188  1.8743
  424MOL0     H58457   4.505   2.895   1.747  0.8709 -1.2454  2.1939
  424MOL0     H58458   4.549   3.001   1.883 -0.0703  2.6576 -0.2057
  424MOL0     H58459   4.472   3.201   1.749  2.1298 -0.6835  3.4712
  424MOL0     H58460   4.602   3.123   1.690 -0.7438  3.2990  0.9208
  424MOL0     H58461   4.544   2.930   1.471 -0.2737  0.3422 -2.3655
  424MOL0     H58462   4.277   2.985   1.166  0.2982  0.9513  1.7818
  424MOL0     H58463   4.391   2.858   1.225 -0.3734  0.4926  1.0461
  424MOL0     H58464   4.441   3.141   1.121  1.7453  2.1283  1.7991
  424MOL0     H58465   4.562   3.071   1.232  1.2224 -2.3587 -0.3077
  424MOL0     H58466   4.472   2.886   1.022  0.6722 -0.8008  0.5405
  424MOL0     H58467   4.543   3.026   0.953 -0.4098 -1.9737 -0.3516
  424MOL0     H58468   4.704   2.839   0.991 -0.4866  0.0092  0.2133
  424MOL0     H58469   4.759   2.976   1.090  1.2067  0.1237 -2.8589
  424MOL0     H58470   4.913   2.806   1.163  1.9807 -0.1351  2.1234
  424MOL0     H58471   5.105   2.683   1.083  1.5964  0.3430  1.0000
  424MOL0     H58472   5.103   2.509   1.040  1.2674  0.2692  0.0680
  424MOL0     H58473   5.144   2.574   1.203  1.1150  0.6106 -1.3449
  424MOL0     H58474   4.961   2.031   1.106  1.6207 -1.5702 -0.9808
  424MOL0     H58475   5.072   1.835   1.196 -0.3486  0.8732 -3.0944
  424MOL0     H58476   5.498   1.898   1.365  1.2564 -0.6091  2.0903
  424MOL0     H58477   5.395   1.922   1.508 -1.2229  2.2432 -0.9331
  424MOL0     H58478   5.555   1.756   1.527 -0.2770  3.4632 -1.0356
  424MOL0     H58479   5.390   1.687   1.544  0.6012 -0.6486  0.9280
  424MOL0     H58480   5.489   1.666   1.265  2.5909 -2.7241 -2.2138
  424MOL0     H58481   5.402   1.554   1.365  0.1072  0.2383 -1.0464
  424MOL0     H58482   5.599   1.451   1.304 -1.6803  1.9850 -1.3039
  424MOL0     H58483   5.586   1.470   1.485 -1.5164  1.0696  0.3508
  424MOL0     H58484   5.749   1.657   1.315  0.7618 -0.0713 -0.3243
  424MOL0     H58485   5.750   1.647   1.490  2.1576  0.6699  0.1031
  424MOL0     H58486   5.958   1.531   1.390 -2.2443  3.1743 -2.3269
  424MOL0     H58487   5.857   1.434   1.295 -0.2822  2.4715 -0.5104
  424MOL0     H58488   5.797   1.276   1.454  0.0917  0.8290 -2.3518
  424MOL0     H58489   5.790   1.407   1.576  0.4105 -0.4173  0.3041
  424MOL0     H58490   6.058   1.262   1.495  0.9780 -1.5035  2.5323
  424MOL0     H58491   5.951   1.204   1.609 -0.0951 -1.0118  0.2890
  424MOL0     H58492   5.349   2.094   1.398  0.8009  0.7054 -1.8392
  424MOL0     H58493   5.240   2.287   1.313 -2.6030  0.9332  0.3432
  424MOL0     H58494   4.665   2.390   1.275 -3.3844  1.3310 -1.0537
  424MOL0     H58495   4.558   2.582   1.258  0.3476 -0.4625  1.7046
  424MOL0     H58496   4.045   2.788   2.478 -0.8559  0.2967  2.0715
  424MOL0     H58497   3.905   2.866   2.672  2.1003 -2.1092 -0.4851
  424MOL0     H58498   3.544   2.720   2.888 -1.3525 -0.8059 -1.6844
  424MOL0     H58499   3.419   2.710   3.089 -1.2942 -1.2545 -1.7816
  424MOL0     H58500   3.198   2.998   3.380  0.1766  0.3710  0.8194
  424MOL0     H58501   3.267   3.103   3.265 -2.1310  1.4831  0.6407
  424MOL0     H58502   3.091   3.048   3.089  0.4518  3.0942  0.4054
  424MOL0     H58503   3.050   3.137   3.222 -0.2421  0.3148  1.0940
  424MOL0     H58504   2.975   2.856   3.140 -1.5501  1.2433 -0.0864
  424MOL0     H58505   2.991   2.873   3.315  2.1118 -0.6848 -1.1722
  424MOL0     H58506   2.836   3.070   3.138 -3.5352 -0.4775 -0.6363
  424MOL0     H58507   2.809   3.025   3.303  2.7957  0.4437  1.9260
  424MOL0     H58508   2.581   2.742   3.087 -0.1070 -0.8382  1.8872
  424MOL0     H58509   3.299   3.122   3.054 -0.2011  0.3589 -2.6019
  424MOL0     H58510   3.539   3.234   2.876  1.3647  0.2764 -1.8229
  424MOL0     H58511   3.436   3.165   2.742  1.2894  0.3101  0.0220
  424MOL0     H58512   3.364   3.254   2.889  2.2995  1.5249  0.9827
  425MOL0     O58513   4.300   8.007   1.637 -0.2929  0.3354  0.7223
  425MOL0     C58514   4.417   7.969   1.675  0.6676 -0.3108  0.7368
  425MOL0     O58515   4.537   8.013   1.624  0.3364  0.3118 -0.1920
  425MOL0     C58516   4.540   8.130   1.552  0.5780  0.1187 -0.7723
  425MOL0     C58517   4.579   8.126   1.424  0.9731 -0.2716 -0.1507
  425MOL0     C58518   4.579   8.240   1.350  0.6308  0.2163  0.6457
  425MOL0     C58519   4.538   8.362   1.411  0.3831 -0.0978 -0.1923
  425MOL0     O58520   4.536   8.476   1.342  0.0332  0.6918 -0.5282
  425MOL0     C58521   4.626   8.494   1.231 -0.0350 -0.0952  0.3011
  425MOL0     C58522   4.660   8.641   1.196  0.6451 -0.2906  0.7179
  425MOL0     C58523   4.542   8.739   1.168  0.8932  0.2510  0.1757
  425MOL0     C58524   4.590   8.883   1.150 -0.7444  0.6274  0.0801
  425MOL0     C58525   4.496   8.975   1.075 -0.2006 -0.1723 -0.6667
  425MOL0     C58526   4.452   8.920   0.937 -1.1228  0.3017  0.8579
  425MOL0     C58527   4.572   8.867   0.846  1.0280  0.3557  0.3779
  425MOL0     C58528   4.667   8.979   0.798 -0.1602 -0.4890  0.6678
  425MOL0     N58529   4.793   8.929   0.756  0.1139 -0.2271  0.0938
  425MOL0     C58530   4.883   9.000   0.679 -0.0945  0.3897 -0.6305
  425MOL0     C58531   4.998   8.932   0.676  0.7546  0.5271  0.2560
  425MOL0     C58532   5.110   8.950   0.576 -0.1472 -0.1546 -0.6043
  425MOL0     C58533   5.158   8.811   0.526 -0.4854  0.3671  0.4776
  425MOL0     C58534   5.036   8.724   0.473 -0.6350  0.4212  0.6655
  425MOL0     C58535   4.990   8.755   0.329 -0.2198  0.3467  0.2739
  425MOL0     O58536   4.940   8.892   0.314 -0.5182 -0.5530  0.2519
  425MOL0     C58537   4.817   8.932   0.364  0.2235 -0.0050  0.4081
  425MOL0     C58538   4.777   9.056   0.335  0.2027 -0.2875 -0.0265
  425MOL0     C58539   4.649   9.109   0.373 -0.8454 -0.8490 -0.3358
  425MOL0     C58540   4.608   9.251   0.347 -0.1402  0.5555  0.5517
  425MOL0     C58541   4.564   9.023   0.450  0.3399 -0.1258  0.5287
  425MOL0     C58542   4.423   9.060   0.484  0.5427  0.2499 -0.3818
  425MOL0     O58543   4.361   9.136   0.397 -0.7274  0.2690  0.2839
  425MOL0     C58544   4.230   9.161   0.420  0.5417  0.5625  0.1810
  425MOL0     C58545   4.125   9.120   0.338 -0.2447 -1.0649  0.3258
  425MOL0     C58546   3.988   9.159   0.370  0.0111 -0.0095 -0.3877
  425MOL0     C58547   3.955   9.239   0.489  0.6488 -0.0530 -0.3543
  425MOL0     O58548   3.825   9.270   0.517 -0.0855  0.1245 -0.5394
  425MOL0     C58549   3.808   9.384   0.607  0.0261  0.3070 -1.0128
  425MOL0     C58550   3.656   9.406   0.623 -0.0066 -0.4069  0.1436
  425MOL0     C58551   3.621   9.520   0.722 -0.7930 -0.8497  0.2650
  425MOL0     C58552   3.709   9.646   0.705  0.4123  0.2537  0.6897
  425MOL0     C58553   3.639   9.784   0.742  0.7536  0.3953  0.3234
  425MOL0     C58554   3.605   9.785   0.882  0.4066  0.0064 -0.7272
  425MOL0     C58555   3.569   9.929   0.934 -0.1913  0.0431  0.1251
  425MOL0     C58556   3.539   9.938   1.088 -0.2787  1.4275  0.3199
  425MOL0    Cl58557   3.705   9.925   1.164  0.2433 -0.2243  0.0602
  425MOL0     C58558   4.066   9.281   0.562  1.1581  0.1688 -0.4017
  425MOL0     C58559   4.193   9.240   0.530  0.2619  0.0239  0.6918
  425MOL0     O58560   4.375   9.018   0.593 -0.1193  0.1742 -0.1079
  425MOL0     C58561   4.605   8.896   0.480 -0.4052  0.0361  1.3364
  425MOL0     C58562   4.730   8.850   0.435  0.1269 -0.7166  0.0865
  425MOL0     N58563   4.980   8.832   0.777  0.1227 -1.2814  0.7502
  425MOL0     N58564   4.865   8.849   0.836  1.4043 -0.4914  0.7485
  425MOL0     C58565   4.488   8.369   1.548 -0.3369  0.0369 -0.8117
  425MOL0     C58566   4.497   8.248   1.614 -0.7352  0.3351 -0.5771
  425MOL0     C58567   4.436   7.867   1.777  0.8554 -0.0477 -1.2316
  425MOL0     C58568   4.570   7.829   1.810  0.0127  0.5631 -0.2322
  425MOL0     C58569   4.598   7.728   1.886  0.8273 -0.1700 -0.9592
  425MOL0     C58570   4.499   7.647   1.939  0.1323  0.7762 -0.3665
  425MOL0     O58571   4.532   7.545   2.031  0.0359 -0.2113  0.0523
  425MOL0     C58572   4.526   7.409   1.997  0.8146  0.5648  0.7746
  425MOL0     C58573   4.640   7.361   1.906  0.3695 -1.0410 -0.1410
  425MOL0     C58574   4.772   7.400   1.963 -0.4274  0.0839 -0.0598
  425MOL0     C58575   4.893   7.364   1.877  0.2764 -0.0355  0.3985
  425MOL0     C58576   5.018   7.377   1.955  0.7017 -0.0829 -0.0748
  425MOL0     C58577   5.117   7.394   2.013 -0.2115  0.3022  0.2447
  425MOL0     C58578   4.361   7.679   1.917 -0.6942 -0.6593 -0.1183
  425MOL0     C58579   4.332   7.791   1.831  0.3295 -0.5468  0.2265
  425MOL0     C58580   4.179   7.807   1.800  0.4631 -0.3915 -0.4147
  425MOL0     H58581   4.631   8.045   1.373  1.2580  1.6551 -3.1229
  425MOL0     H58582   4.615   8.235   1.248  0.8978  0.9633  0.6908
  425MOL0     H58583   4.579   8.443   1.146 -0.2690  3.1766 -1.7054
  425MOL0     H58584   4.724   8.453   1.255  1.1173  2.8333  1.0523
  425MOL0     H58585   4.706   8.690   1.282 -1.7207  2.7466  0.4054
  425MOL0     H58586   4.741   8.639   1.121  2.2340 -0.5496  2.3718
  425MOL0     H58587   4.499   8.706   1.073 -3.6230  0.2020  1.9833
  425MOL0     H58588   4.467   8.733   1.248  0.0224  2.3592 -0.4056
  425MOL0     H58589   4.619   8.916   1.250 -1.0096  0.6429  0.1552
  425MOL0     H58590   4.685   8.872   1.097 -1.1171  1.8340 -0.8822
  425MOL0     H58591   4.544   9.073   1.065 -1.3259  0.6988  1.6398
  425MOL0     H58592   4.404   8.988   1.133 -1.1738  3.8255 -2.7402
  425MOL0     H58593   4.384   8.836   0.955 -0.0767 -1.7766 -3.5048
  425MOL0     H58594   4.381   8.987   0.887 -1.3327 -2.5325 -3.1280
  425MOL0     H58595   4.528   8.819   0.759 -0.5689  1.1656  0.6958
  425MOL0     H58596   4.625   8.784   0.893 -0.2850 -1.6480 -1.5037
  425MOL0     H58597   4.621   9.039   0.719  1.4439 -0.7176 -0.5019
  425MOL0     H58598   4.677   9.061   0.869 -1.4202  2.5615 -2.4220
  425MOL0     H58599   4.865   9.082   0.611 -2.1650 -0.4474 -1.1652
  425MOL0     H58600   5.193   9.004   0.624  0.6366 -3.2056  1.7381
  425MOL0     H58601   5.080   9.007   0.488  2.3953  1.4285 -0.5727
  425MOL0     H58602   5.231   8.817   0.445  0.0143  3.0837  1.0016
  425MOL0     H58603   5.208   8.775   0.617  2.3780  2.4755 -0.0969
  425MOL0     H58604   5.074   8.621   0.470  4.0467  1.8870  1.2160
  425MOL0     H58605   4.951   8.728   0.542  0.5702 -1.2445  2.3493
  425MOL0     H58606   5.080   8.732   0.270 -1.3780 -1.2791 -0.9351
  425MOL0     H58607   4.916   8.683   0.294  1.2856  0.0164 -2.5480
  425MOL0     H58608   4.845   9.123   0.282  1.9154 -1.9409 -0.0167
  425MOL0     H58609   4.595   9.299   0.445  1.9707 -1.4849  1.9283
  425MOL0     H58610   4.516   9.253   0.288  0.7288 -0.4482 -0.9079
  425MOL0     H58611   4.691   9.302   0.296  0.1655 -1.6895 -1.3568
  425MOL0     H58612   4.133   9.053   0.253 -1.5072 -2.0005  0.9083
  425MOL0     H58613   3.902   9.121   0.314 -1.3882  2.9745 -0.4541
  425MOL0     H58614   3.848   9.362   0.706  1.3587  3.2523 -0.7981
  425MOL0     H58615   3.856   9.478   0.579  0.5097  0.1973 -0.5568
  425MOL0     H58616   3.610   9.436   0.528 -1.5604  0.0274  0.9951
  425MOL0     H58617   3.600   9.316   0.652 -1.8879  0.9896  1.1282
  425MOL0     H58618   3.646   9.483   0.822  0.6254  0.9420  0.6168
  425MOL0     H58619   3.515   9.546   0.727 -0.5135  0.1004  1.5470
  425MOL0     H58620   3.726   9.660   0.598 -2.3835  0.4971  0.2004
  425MOL0     H58621   3.805   9.643   0.757  0.5556 -1.5116  0.3845
  425MOL0     H58622   3.713   9.860   0.714  0.9774 -0.2090 -0.7963
  425MOL0     H58623   3.544   9.799   0.690  0.1248 -1.9017  0.7013
  425MOL0     H58624   3.682   9.740   0.945  0.8000  0.9929 -0.4901
  425MOL0     H58625   3.518   9.720   0.885 -0.8296  1.6384  0.3858
  425MOL0     H58626   3.477   9.962   0.885  0.7816  3.0299  0.1133
  425MOL0     H58627   3.653   9.995   0.910 -0.6033  0.1363 -1.1640
  425MOL0     H58628   3.475   9.853   1.111 -0.5040  2.2221  2.8838
  425MOL0     H58629   3.485  10.030   1.110  0.1906  1.9276 -0.5525
  425MOL0     H58630   4.048   9.349   0.644 -1.3263 -1.2922  0.3863
  425MOL0     H58631   4.270   9.284   0.592  0.1068 -1.7514  2.2571
  425MOL0     H58632   4.536   8.823   0.522 -4.2274 -1.1375 -5.5523
  425MOL0     H58633   4.761   8.748   0.457  2.7257  0.1740  0.9107
  425MOL0     H58634   4.455   8.464   1.591  0.6856 -0.1317  0.4158
  425MOL0     H58635   4.461   8.235   1.716  1.8706  0.3474  0.4041
  425MOL0     H58636   4.656   7.890   1.785  2.3000 -1.6841  1.6241
  425MOL0     H58637   4.702   7.701   1.903  0.1002 -3.0524 -0.6035
  425MOL0     H58638   4.528   7.355   2.092 -0.9602 -1.8149 -0.4520
  425MOL0     H58639   4.430   7.383   1.952 -1.0422  0.2467  4.5382
  425MOL0     H58640   4.626   7.407   1.807 -0.2481  4.3781  2.0995
  425MOL0     H58641   4.641   7.253   1.894 -0.1683 -1.0889  0.2004
  425MOL0     H58642   4.783   7.509   1.969  0.6045  0.1305 -2.1644
  425MOL0     H58643   4.777   7.351   2.061 -0.1451 -0.6720 -0.4486
  425MOL0     H58644   4.905   7.436   1.796  1.8914 -1.0396 -0.2972
  425MOL0     H58645   4.901   7.268   1.826 -0.1309  1.1506 -2.0189
  425MOL0     H58646   5.209   7.403   2.066 -0.1952 -0.5247  0.3744
  425MOL0     H58647   4.277   7.618   1.949 -0.0342 -0.6269  1.8008
  425MOL0     H58648   4.136   7.907   1.812 -0.4244 -0.6502 -1.3123
  425MOL0     H58649   4.159   7.766   1.701 -1.1219 -0.3244 -0.1390
  425MOL0     H58650   4.122   7.743   1.867 -0.4645  0.6168 -0.2140
  426MOL0     O58651   1.499   8.825   5.705  0.6447  0.7520 -0.3325
  426MOL0     C58652   1.378   8.800   5.720 -0.4325 -0.1336 -0.6805
  426MOL0     O58653   1.301   8.731   5.631  0.0027  0.7079  0.4706
  426MOL0     C58654   1.368   8.675   5.526 -0.5311  0.1396 -0.1934
  426MOL0     C58655   1.409   8.542   5.533  0.5404 -0.0362  0.0733
  426MOL0     C58656   1.487   8.486   5.440  0.6552 -0.0018  0.7070
  426MOL0     C58657   1.519   8.552   5.321 -0.6419 -0.1545  0.4706
  426MOL0     O58658   1.592   8.479   5.229 -0.0040 -0.7133 -0.2832
  426MOL0     C58659   1.524   8.470   5.092 -0.6191 -0.1261  0.3262
  426MOL0     C58660   1.599   8.561   4.989 -0.3468 -0.2654 -0.2791
  426MOL0     C58661   1.753   8.516   4.989  0.9865 -0.5311  0.3401
  426MOL0     C58662   1.830   8.582   4.874 -1.2975 -0.2414 -0.0693
  426MOL0     C58663   1.965   8.518   4.858  0.2005 -0.0504  0.2102
  426MOL0     C58664   1.962   8.365   4.819  0.0252  0.5448  0.4545
  426MOL0     C58665   2.107   8.305   4.810  0.9221  0.6556 -0.1967
  426MOL0     C58666   2.182   8.344   4.682 -0.7678 -0.2155 -0.7998
  426MOL0     N58667   2.322   8.295   4.673 -0.0322  0.9681 -0.4415
  426MOL0     C58668   2.422   8.323   4.771  0.0461  0.2362 -0.3298
  426MOL0     C58669   2.535   8.303   4.701 -0.3612  0.5036 -0.4653
  426MOL0     C58670   2.664   8.329   4.755 -0.3122 -0.3023  0.2915
  426MOL0     C58671   2.692   8.239   4.874  1.0961  0.5319 -0.3858
  426MOL0     C58672   2.675   8.087   4.836 -0.2129 -0.1509  0.2869
  426MOL0     C58673   2.716   7.990   4.955 -0.2077 -0.5128 -0.4609
  426MOL0     O58674   2.692   7.865   4.888  0.5345 -0.0485 -0.8310
  426MOL0     C58675   2.722   7.761   4.967 -0.3773  0.6308 -0.9951
  426MOL0     C58676   2.648   7.641   4.949  0.6417 -0.7363  0.4106
  426MOL0     C58677   2.647   7.526   5.035  0.0794 -0.0287  0.0072
  426MOL0     C58678   2.557   7.422   4.996  0.1646  0.7671  0.5763
  426MOL0     C58679   2.743   7.526   5.134 -0.3816 -0.4161 -0.4196
  426MOL0     C58680   2.765   7.411   5.222 -0.0733 -0.1801  0.2721
  426MOL0     O58681   2.886   7.357   5.230  0.3254  0.7243 -0.4751
  426MOL0     C58682   2.905   7.261   5.320 -0.3591  0.1553 -0.8363
  426MOL0     C58683   2.877   7.130   5.276  0.4082 -0.3592 -0.6128
  426MOL0     C58684   2.893   7.014   5.354  0.8451  0.1881  0.2424
  426MOL0     C58685   2.942   7.046   5.489 -0.2190  0.9786  0.3614
  426MOL0     O58686   2.962   6.958   5.589 -0.1193  1.0302 -0.3924
  426MOL0     C58687   2.936   6.809   5.579 -0.6365  0.3772  0.1557
  426MOL0     C58688   3.071   6.735   5.560 -0.1984 -0.6794 -0.6777
  426MOL0     C58689   3.172   6.775   5.676 -0.4600 -0.5040  0.3567
  426MOL0     C58690   3.316   6.735   5.640  0.5763 -0.9588  0.8781
  426MOL0     C58691   3.415   6.769   5.745  0.2678 -0.7295 -0.1602
  426MOL0     C58692   3.549   6.696   5.701  0.6229 -0.5332  0.1795
  426MOL0     C58693   3.565   6.558   5.764 -0.3748 -0.1606  0.4701
  426MOL0     C58694   3.686   6.493   5.702 -0.2815  0.8052 -0.2481
  426MOL0    Cl58695   3.769   6.364   5.801  0.1444  0.1838 -0.1776
  426MOL0     C58696   2.967   7.170   5.530 -0.3512 -0.7776 -1.5211
  426MOL0     C58697   2.954   7.281   5.449  0.0579 -0.2772  0.1040
  426MOL0     O58698   2.666   7.383   5.299 -0.5418  0.9680  0.3808
  426MOL0     C58699   2.816   7.642   5.152 -1.3794  0.5815 -0.9506
  426MOL0     C58700   2.812   7.751   5.069  0.3787 -0.0611 -1.0201
  426MOL0     N58701   2.506   8.265   4.573  0.2091 -0.1973 -0.4298
  426MOL0     N58702   2.383   8.258   4.560  0.2809  0.5259 -0.4206
  426MOL0     C58703   1.467   8.681   5.301  0.0226  0.3371 -0.1530
  426MOL0     C58704   1.396   8.747   5.409  0.1483 -0.0443  0.6817
  426MOL0     C58705   1.317   8.863   5.835  1.0530 -0.5274  0.1172
  426MOL0     C58706   1.185   8.898   5.814  0.1218 -0.6988  0.7996
  426MOL0     C58707   1.107   8.961   5.910 -0.7521 -0.2848 -0.3047
  426MOL0     C58708   1.169   8.998   6.033  0.0224  0.4447  0.0639
  426MOL0     O58709   1.102   9.062   6.138 -0.2621  0.3003 -0.7374
  426MOL0     C58710   0.959   9.052   6.163  0.0468 -0.5911 -0.6209
  426MOL0     C58711   0.921   8.943   6.268 -0.1483  0.6176 -0.6426
  426MOL0     C58712   0.979   8.980   6.402 -0.2488  0.4281  0.5903
  426MOL0     C58713   0.941   9.114   6.453 -0.4763  0.6653 -0.0475
  426MOL0     C58714   0.987   9.116   6.591  0.2058  0.1526 -0.0983
  426MOL0     C58715   1.007   9.130   6.705 -0.0104 -0.2589  0.4072
  426MOL0     C58716   1.304   8.974   6.057  0.3560  0.4345 -0.0669
  426MOL0     C58717   1.375   8.894   5.960  0.5635 -0.4458 -0.3222
  426MOL0     C58718   1.516   8.854   6.000  0.3173 -0.0384  0.5281
  426MOL0     H58719   1.373   8.476   5.612 -0.2984 -1.1162 -1.1721
  426MOL0     H58720   1.505   8.383   5.470  0.0244 -0.2696  0.1867
  426MOL0     H58721   1.417   8.488   5.098 -0.6346  0.2741 -0.9524
  426MOL0     H58722   1.534   8.366   5.060  0.9862 -0.7686  2.6319
  426MOL0     H58723   1.548   8.544   4.894 -0.0285  2.2772 -0.9964
  426MOL0     H58724   1.589   8.666   5.019  0.7423 -0.5337  1.1236
  426MOL0     H58725   1.800   8.528   5.087  1.6830  2.4393 -0.2686
  426MOL0     H58726   1.743   8.407   4.982 -3.1633 -0.3368  0.6136
  426MOL0     H58727   1.773   8.573   4.781  0.5864 -0.7435 -1.2478
  426MOL0     H58728   1.842   8.690   4.884  1.8909 -0.7444  4.9146
  426MOL0     H58729   2.030   8.543   4.942 -1.5610  0.7323  1.4065
  426MOL0     H58730   1.991   8.570   4.765 -0.7475 -0.1877 -0.1391
  426MOL0     H58731   1.909   8.319   4.903  0.5017 -1.3835 -0.2436
  426MOL0     H58732   1.909   8.341   4.727 -1.9206  1.3677  1.3066
  426MOL0     H58733   2.093   8.196   4.814 -1.6485  0.9052 -0.9447
  426MOL0     H58734   2.159   8.337   4.901 -0.2342  0.7773  0.4421
  426MOL0     H58735   2.121   8.329   4.592  0.5913  1.1052 -1.9948
  426MOL0     H58736   2.197   8.452   4.683 -2.1416  0.1265 -3.8720
  426MOL0     H58737   2.402   8.371   4.866 -1.0131 -0.1222 -0.3521
  426MOL0     H58738   2.664   8.434   4.784 -1.7455  0.5588 -2.4433
  426MOL0     H58739   2.736   8.308   4.676  1.0355  2.3632  0.7135
  426MOL0     H58740   2.790   8.260   4.917  0.8721  4.0911 -1.3461
  426MOL0     H58741   2.619   8.254   4.954 -1.1934 -2.3528 -1.7367
  426MOL0     H58742   2.569   8.072   4.814 -0.5079  0.3882  1.2667
  426MOL0     H58743   2.734   8.062   4.748  1.9956  0.6869  1.4453
  426MOL0     H58744   2.817   8.008   4.993 -0.9147 -0.6965  1.6190
  426MOL0     H58745   2.645   8.005   5.036 -0.5933  0.3941 -0.9441
  426MOL0     H58746   2.580   7.644   4.864  0.3023 -1.5957  0.6429
  426MOL0     H58747   2.453   7.448   5.020 -0.0260 -0.8662  1.6607
  426MOL0     H58748   2.589   7.326   5.037  1.2006  0.8888  0.0821
  426MOL0     H58749   2.557   7.408   4.887 -0.6583  2.5606  0.2992
  426MOL0     H58750   2.854   7.107   5.172  1.3846 -3.0345 -0.3214
  426MOL0     H58751   2.868   6.913   5.324  0.7057 -0.2749  1.8319
  426MOL0     H58752   2.889   6.772   5.671 -0.2882 -0.9035 -0.1650
  426MOL0     H58753   2.862   6.782   5.503  1.6068 -1.7481 -1.4327
  426MOL0     H58754   3.052   6.627   5.552 -3.5750 -0.3776  1.2363
  426MOL0     H58755   3.120   6.753   5.464  2.8030 -0.8759  0.7275
  426MOL0     H58756   3.143   6.736   5.774 -2.9273  0.2801  0.0267
  426MOL0     H58757   3.170   6.884   5.666  2.2759 -0.5665 -2.1164
  426MOL0     H58758   3.343   6.795   5.553 -1.4979 -0.9616  0.1802
  426MOL0     H58759   3.331   6.631   5.608  2.6527 -0.9058  1.5445
  426MOL0     H58760   3.437   6.876   5.740  1.2182 -0.9528 -1.0303
  426MOL0     H58761   3.377   6.738   5.842  0.7340 -1.8993 -0.3403
  426MOL0     H58762   3.628   6.765   5.732 -1.2894  1.6997  0.3804
  426MOL0     H58763   3.554   6.690   5.592 -0.4878 -1.2194  0.1424
  426MOL0     H58764   3.474   6.497   5.761 -0.3193 -0.2150 -0.1316
  426MOL0     H58765   3.595   6.572   5.869  1.5662  1.3074 -0.2198
  426MOL0     H58766   3.758   6.574   5.693 -0.1737  0.8251  0.6749
  426MOL0     H58767   3.659   6.448   5.606 -0.5646 -1.3680  0.7784
  426MOL0     H58768   2.986   7.183   5.636 -0.0536  0.6701 -1.7318
  426MOL0     H58769   2.991   7.374   5.491  2.6349 -0.2693 -1.9724
  426MOL0     H58770   2.890   7.645   5.231 -2.0914  0.9515 -0.2823
  426MOL0     H58771   2.871   7.835   5.105 -2.4888  1.1326  1.2603
  426MOL0     H58772   1.482   8.724   5.203  2.2076 -3.6848 -1.8411
  426MOL0     H58773   1.360   8.849   5.405 -2.1855 -0.7626  1.7739
  426MOL0     H58774   1.126   8.859   5.731 -2.6017  0.5241  2.0329
  426MOL0     H58775   1.001   8.970   5.888 -0.9329 -3.8648 -1.5903
  426MOL0     H58776   0.914   9.147   6.192  0.0001 -0.4477 -1.1439
  426MOL0     H58777   0.909   9.047   6.066  2.4803  3.0137 -2.2621
  426MOL0     H58778   0.980   8.856   6.236  3.5920  2.0683  1.6732
  426MOL0     H58779   0.815   8.916   6.269  0.6247 -2.9355  1.3896
  426MOL0     H58780   0.942   8.903   6.471  1.2320  1.0863  2.1900
  426MOL0     H58781   1.088   8.972   6.397 -0.1715  0.8759  1.4284
  426MOL0     H58782   0.832   9.125   6.458 -0.5693 -0.5719  1.5251
  426MOL0     H58783   0.989   9.192   6.394 -0.0755  0.3464 -0.1484
  426MOL0     H58784   1.012   9.137   6.812  0.8876 -0.0414  0.3572
  426MOL0     H58785   1.334   8.992   6.159  2.3424  0.2142 -0.5654
  426MOL0     H58786   1.583   8.939   5.984  0.6255 -0.1317  1.3017
  426MOL0     H58787   1.509   8.827   6.106 -0.1861  4.8525  1.9799
  426MOL0     H58788   1.557   8.775   5.937 -1.7359 -0.0746 -0.8679
  427MOL0     O58789  11.166   5.961   8.546 -0.1956  0.2935 -0.4924
  427MOL0     C58790  11.138   5.855   8.604  0.3713  0.9250 -0.5891
  427MOL0     O58791  11.231   5.791   8.688 -0.0922  0.4290  0.6195
  427MOL0     C58792  11.356   5.862   8.693 -0.1610  0.4962 -0.4727
  427MOL0     C58793  11.447   5.847   8.590  0.5414 -0.1856  0.4900
  427MOL0     C58794  11.569   5.902   8.601 -0.1171 -0.5508 -1.3453
  427MOL0     C58795  11.605   5.978   8.714 -0.2012 -0.6812 -0.5514
  427MOL0     O58796  11.738   6.012   8.731  0.0161 -0.3424 -0.1327
  427MOL0     C58797  11.793   5.984   8.858  0.0055 -0.7070  0.6484
  427MOL0     C58798  11.944   5.972   8.839 -0.1482  0.7350 -0.4423
  427MOL0     C58799  11.987   5.864   8.733 -0.5985 -0.2650  0.2790
  427MOL0     C58800  12.140   5.880   8.709  0.3607  0.8362 -0.8180
  427MOL0     C58801  12.201   5.787   8.597  0.0674  0.2019 -0.4551
  427MOL0     C58802  12.357   5.814   8.597  0.2439  0.7418 -0.5482
  427MOL0     C58803  12.422   5.694   8.520  0.1580  0.6980  0.2961
  427MOL0     C58804  12.569   5.715   8.511  0.4295  0.1292 -0.5843
  427MOL0     N58805  12.625   5.582   8.476  0.3211 -0.6248 -0.1547
  427MOL0     C58806  12.699   5.506   8.550  0.4196  1.2807 -0.1693
  427MOL0     C58807  12.729   5.400   8.467 -1.0469  0.2512 -0.3250
  427MOL0     C58808  12.800   5.266   8.499 -0.8814  0.0719  0.2701
  427MOL0     C58809  12.916   5.248   8.394  0.0816 -1.1351 -0.1284
  427MOL0     C58810  13.032   5.348   8.423  0.3302  0.3813  0.8404
  427MOL0     C58811  13.090   5.407   8.295  0.0704  0.1371  0.7600
  427MOL0     O58812  13.211   5.475   8.332  1.1697 -0.0320 -0.2799
  427MOL0     C58813  13.205   5.594   8.389 -0.1296 -0.2033 -0.5835
  427MOL0     C58814  13.319   5.655   8.434 -0.1096  0.6701  0.2448
  427MOL0     C58815  13.322   5.786   8.487 -0.2888 -0.2910 -0.4885
  427MOL0     C58816  13.461   5.826   8.526 -0.2934 -0.2855 -0.1520
  427MOL0     C58817  13.202   5.866   8.498 -0.0376  0.0016  0.2924
  427MOL0     C58818  13.189   5.985   8.567 -0.1777 -0.6247 -0.4556
  427MOL0     O58819  13.071   6.023   8.637 -0.2490  0.2985  0.4791
  427MOL0     C58820  13.071   6.108   8.744  0.5268 -0.0179 -0.5696
  427MOL0     C58821  12.955   6.187   8.773  0.4257  0.3870  0.8256
  427MOL0     C58822  12.942   6.280   8.866  0.7046  0.0562 -0.0368
  427MOL0     C58823  13.058   6.323   8.929 -0.7624 -0.2547 -0.1383
  427MOL0     O58824  13.062   6.426   9.030  0.0767 -0.4444 -0.8920
  427MOL0     C58825  12.959   6.534   9.040 -0.1698 -0.1914  0.6523
  427MOL0     C58826  12.976   6.608   9.173 -0.1111  0.1189 -0.7024
  427MOL0     C58827  13.109   6.668   9.198 -0.4919 -1.2358  0.1618
  427MOL0     C58828  13.220   6.579   9.266 -0.7439  0.5310 -0.3301
  427MOL0     C58829  13.228   6.585   9.426  0.2376  0.7112  0.7605
  427MOL0     C58830  13.103   6.515   9.485 -0.0339 -0.1611  0.0684
  427MOL0     C58831  13.111   6.490   9.637  0.0507  0.0288  0.6867
  427MOL0     C58832  12.963   6.469   9.695  0.4106  0.4559  0.4051
  427MOL0    Cl58833  12.859   6.346   9.622  0.1895  0.1342 -0.1072
  427MOL0     C58834  13.171   6.243   8.927 -0.0922 -0.0872  0.2413
  427MOL0     C58835  13.183   6.144   8.831  0.4653  0.4915  0.3268
  427MOL0     O58836  13.272   6.061   8.528  0.2337 -0.7157  0.8438
  427MOL0     C58837  13.088   5.799   8.450  0.5056  0.0388 -0.1079
  427MOL0     C58838  13.088   5.668   8.399  0.7502 -0.1680 -0.7324
  427MOL0     N58839  12.695   5.430   8.338  0.1670 -0.3132  0.4471
  427MOL0     N58840  12.627   5.541   8.346 -0.6416  0.2445 -0.1778
  427MOL0     C58841  11.504   6.010   8.811  0.7501  0.3440  0.0497
  427MOL0     C58842  11.382   5.943   8.805 -0.2490 -0.6566  0.3907
  427MOL0     C58843  11.011   5.778   8.577  0.3121 -0.4108  1.2470
  427MOL0     C58844  11.001   5.647   8.618  0.0276 -0.6952  0.7584
  427MOL0     C58845  10.887   5.572   8.600  0.5362  0.3047 -1.2030
  427MOL0     C58846  10.780   5.636   8.540  0.1272  0.1087 -0.6184
  427MOL0     O58847  10.664   5.570   8.509 -0.4048 -0.0796  0.0885
  427MOL0     C58848  10.654   5.525   8.372 -0.2099  0.5929  0.0285
  427MOL0     C58849  10.585   5.630   8.287  0.7004 -0.3554  0.6085
  427MOL0     C58850  10.441   5.656   8.331  0.4095 -0.5189  0.8743
  427MOL0     C58851  10.385   5.782   8.266  0.2284 -0.4553  0.3767
  427MOL0     C58852  10.361   5.753   8.121  0.5097 -0.0006  0.2891
  427MOL0     C58853  10.319   5.740   8.006  0.8840  0.8468  0.0704
  427MOL0     C58854  10.785   5.774   8.511 -0.3451 -0.8653 -0.1527
  427MOL0     C58855  10.899   5.851   8.537  0.5744  1.1553  0.5977
  427MOL0     C58856  10.879   5.997   8.514  0.2694 -0.4027 -0.8753
  427MOL0     H58857  11.431   5.779   8.507  1.6020  0.0123  0.1102
  427MOL0     H58858  11.640   5.892   8.520 -0.1277  1.0588 -1.5739
  427MOL0     H58859  11.764   5.884   8.889 -1.0133 -1.0711 -1.3710
  427MOL0     H58860  11.779   6.062   8.934  0.5179  0.6082 -0.5569
  427MOL0     H58861  11.984   6.068   8.804  0.6229  0.5454 -0.0976
  427MOL0     H58862  11.987   5.947   8.936  1.4161 -1.3161 -1.5823
  427MOL0     H58863  11.970   5.766   8.777  2.8617  0.1671  3.0305
  427MOL0     H58864  11.942   5.880   8.634  2.1522  0.5117 -0.9445
  427MOL0     H58865  12.151   5.986   8.683 -0.5740  0.9368 -0.8086
  427MOL0     H58866  12.202   5.864   8.798  1.0943 -2.2067 -1.7601
  427MOL0     H58867  12.144   5.800   8.505 -0.6616  2.8774  0.2885
  427MOL0     H58868  12.180   5.685   8.632 -1.9120  0.5648 -0.4572
  427MOL0     H58869  12.382   5.905   8.541  2.5147 -0.3171 -1.3866
  427MOL0     H58870  12.390   5.832   8.699 -0.0860  2.0437 -0.6467
  427MOL0     H58871  12.385   5.698   8.417 -0.2664  0.1589  0.4175
  427MOL0     H58872  12.401   5.595   8.563  0.2843  0.4266 -0.2461
  427MOL0     H58873  12.593   5.799   8.445 -2.9251  0.3225 -1.7387
  427MOL0     H58874  12.612   5.741   8.608  2.0951  0.0279 -1.2541
  427MOL0     H58875  12.708   5.502   8.658 -1.3923 -1.0394 -0.0105
  427MOL0     H58876  12.722   5.189   8.493  0.4925 -1.3474 -0.1001
  427MOL0     H58877  12.841   5.275   8.600  2.4608  1.0848 -1.0319
  427MOL0     H58878  12.978   5.158   8.395  2.9363  0.6383 -2.1782
  427MOL0     H58879  12.875   5.249   8.293 -1.1941 -0.1372  0.3720
  427MOL0     H58880  13.001   5.436   8.481  0.5028  0.4048  0.8955
  427MOL0     H58881  13.113   5.291   8.469  0.1268 -2.1010 -1.6138
  427MOL0     H58882  13.111   5.321   8.231 -1.8950  0.6334 -0.6303
  427MOL0     H58883  13.024   5.464   8.230  1.1627 -0.9582 -1.4076
  427MOL0     H58884  13.408   5.594   8.420  0.1394  0.5355  2.0846
  427MOL0     H58885  13.450   5.892   8.612 -2.1126 -0.7322  0.0013
  427MOL0     H58886  13.492   5.878   8.435 -0.2189  0.0075  0.0388
  427MOL0     H58887  13.523   5.740   8.553 -1.0224 -0.2391  1.8605
  427MOL0     H58888  12.871   6.162   8.709  0.8850 -0.6529  0.6013
  427MOL0     H58889  12.853   6.340   8.878 -0.2169 -1.1799 -0.4599
  427MOL0     H58890  12.963   6.604   8.956  1.8508 -0.3348  0.5830
  427MOL0     H58891  12.860   6.488   9.039 -0.1287 -0.3168 -0.8904
  427MOL0     H58892  12.908   6.693   9.164 -1.0886 -0.8032 -2.5129
  427MOL0     H58893  12.929   6.557   9.258 -0.2150  0.4234 -0.5758
  427MOL0     H58894  13.100   6.756   9.263  2.6975  0.1486 -1.0602
  427MOL0     H58895  13.141   6.689   9.096  1.0861 -6.5586 -0.7626
  427MOL0     H58896  13.316   6.610   9.223  0.1228  0.2760  1.3335
  427MOL0     H58897  13.210   6.476   9.229  2.5938  0.0815 -0.2995
  427MOL0     H58898  13.314   6.522   9.451 -1.3944 -1.6374  0.8587
  427MOL0     H58899  13.255   6.686   9.459  1.1479  0.1454  1.8067
  427MOL0     H58900  13.097   6.415   9.441  0.2060 -0.0708 -0.1737
  427MOL0     H58901  13.011   6.570   9.465 -1.4120 -2.7732 -1.2807
  427MOL0     H58902  13.170   6.570   9.683  1.2084  0.3988 -1.3233
  427MOL0     H58903  13.169   6.400   9.659  1.4457  0.9969  1.0785
  427MOL0     H58904  12.897   6.555   9.682 -0.7197 -0.5391 -0.7512
  427MOL0     H58905  12.966   6.449   9.803 -0.0879 -0.4312  0.2685
  427MOL0     H58906  13.256   6.276   8.985 -0.0660  1.7877 -0.7892
  427MOL0     H58907  13.274   6.089   8.810 -0.1808  0.1253 -1.8170
  427MOL0     H58908  12.992   5.849   8.440  0.9449  0.3826 -5.0013
  427MOL0     H58909  12.987   5.643   8.368  0.2387  2.8502 -1.8318
  427MOL0     H58910  11.524   6.079   8.892 -1.1687  1.5073 -0.4217
  427MOL0     H58911  11.315   5.950   8.890 -0.4324  0.1270  0.1852
  427MOL0     H58912  11.086   5.595   8.660 -0.2644 -1.6668  0.1678
  427MOL0     H58913  10.874   5.468   8.627 -0.9499  0.6522 -0.4812
  427MOL0     H58914  10.755   5.510   8.334  0.3478  1.2688  1.1943
  427MOL0     H58915  10.605   5.429   8.356  0.6297  0.3614 -1.2577
  427MOL0     H58916  10.581   5.582   8.189  0.5057 -0.0009  0.4407
  427MOL0     H58917  10.647   5.719   8.273  2.5553 -2.0584 -4.0049
  427MOL0     H58918  10.381   5.567   8.309  0.4059 -0.2048 -0.4118
  427MOL0     H58919  10.433   5.668   8.440  0.1591  1.3241  0.6879
  427MOL0     H58920  10.451   5.870   8.268  0.7575 -0.8441  0.3906
  427MOL0     H58921  10.289   5.809   8.309  0.3935  0.0223  0.4551
  427MOL0     H58922  10.277   5.728   7.909 -0.1269 -0.3858  0.6269
  427MOL0     H58923  10.685   5.812   8.491  0.4023  1.5838  0.4205
  427MOL0     H58924  10.779   6.012   8.474 -0.3703 -1.3429  0.2820
  427MOL0     H58925  10.892   6.043   8.613 -1.5124  0.0327 -0.8065
  427MOL0     H58926  10.963   6.038   8.457  4.1232  0.4232  4.5311
  428MOL0     O58927   9.945   1.888   0.663 -0.3582 -0.3480  0.8613
  428MOL0     C58928  10.035   1.823   0.708 -0.8907 -0.0659  1.0347
  428MOL0     O58929  10.137   1.869   0.784 -0.1042 -0.3997  0.3283
  428MOL0     C58930  10.179   2.002   0.777 -0.3823 -0.9079  0.0306
  428MOL0     C58931  10.231   2.051   0.898  0.2181 -0.6950  0.2482
  428MOL0     C58932  10.287   2.184   0.902  0.8026  0.6887 -1.0107
  428MOL0     C58933  10.286   2.264   0.787  0.0008 -0.7382  0.1620
  428MOL0     O58934  10.327   2.403   0.791  0.5381  0.6870 -0.8633
  428MOL0     C58935  10.361   2.469   0.670  0.7546  0.9589  0.2176
  428MOL0     C58936  10.414   2.610   0.700 -0.2948  0.4798 -0.1629
  428MOL0     C58937  10.484   2.636   0.834  0.8243  0.2426  0.7968
  428MOL0     C58938  10.615   2.560   0.839  0.6110 -0.6174 -1.4951
  428MOL0     C58939  10.712   2.618   0.949  0.2539 -0.7054  0.4573
  428MOL0     C58940  10.833   2.516   0.963 -0.4092  0.7496 -0.0290
  428MOL0     C58941  10.962   2.568   1.032 -0.0535 -0.2664 -0.4767
  428MOL0     C58942  10.919   2.632   1.172 -0.2872  0.0257 -0.3487
  428MOL0     N58943  11.019   2.730   1.222  0.4757  0.4149 -0.2121
  428MOL0     C58944  11.112   2.693   1.309  0.8464  0.0396  0.0030
  428MOL0     C58945  11.186   2.805   1.335  0.6178  0.7203 -0.1280
  428MOL0     C58946  11.296   2.812   1.439 -0.7751 -0.0161 -0.6404
  428MOL0     C58947  11.385   2.692   1.443 -0.7047  0.1602 -0.1290
  428MOL0     C58948  11.498   2.704   1.554 -0.6072 -0.1872  0.1830
  428MOL0     C58949  11.612   2.813   1.535 -0.5740 -0.6590  0.0264
  428MOL0     O58950  11.587   2.936   1.596  0.3003 -0.2750 -0.4698
  428MOL0     C58951  11.606   3.045   1.527  0.8039  0.1749 -1.0153
  428MOL0     C58952  11.634   3.061   1.393 -0.2090  0.2289  0.8721
  428MOL0     C58953  11.691   3.181   1.334  0.2924 -0.1182 -0.1155
  428MOL0     C58954  11.751   3.179   1.199 -0.5128 -0.2748 -0.1715
  428MOL0     C58955  11.683   3.298   1.418  0.3128 -0.0859  0.2251
  428MOL0     C58956  11.724   3.432   1.368 -1.2282 -0.1914 -0.7088
  428MOL0     O58957  11.720   3.532   1.461  0.4475 -0.1477  0.1679
  428MOL0     C58958  11.762   3.663   1.425 -0.1787  0.3877  0.9709
  428MOL0     C58959  11.888   3.710   1.469 -0.2392 -0.4395  0.0226
  428MOL0     C58960  11.919   3.845   1.448  0.0054 -0.1478 -0.0838
  428MOL0     C58961  11.846   3.922   1.358  0.4040 -0.3336 -0.3407
  428MOL0     O58962  11.865   4.051   1.325 -0.3996  0.2583  0.1988
  428MOL0     C58963  11.955   4.120   1.414 -0.4882  0.2379  0.3793
  428MOL0     C58964  11.914   4.266   1.419 -0.1740 -0.3949  0.6723
  428MOL0     C58965  11.777   4.281   1.492 -0.8237  0.5570 -0.4995
  428MOL0     C58966  11.716   4.417   1.477  0.0734 -0.5448  0.1452
  428MOL0     C58967  11.689   4.472   1.327  0.6971 -0.9825 -1.1368
  428MOL0     C58968  11.620   4.372   1.246  0.7373  0.3817  0.4337
  428MOL0     C58969  11.606   4.421   1.095  0.6335 -0.2866 -0.4739
  428MOL0     C58970  11.573   4.305   1.001 -0.7456  0.2754  0.2908
  428MOL0    Cl58971  11.724   4.207   0.960 -0.2574  0.7729 -0.1254
  428MOL0     C58972  11.724   3.866   1.309 -0.2004  0.1283  0.4915
  428MOL0     C58973  11.681   3.743   1.348  0.6301  0.5444 -0.0611
  428MOL0     O58974  11.765   3.447   1.257 -0.1393  0.3644  0.6311
  428MOL0     C58975  11.636   3.281   1.550 -0.0514 -0.5125  0.3565
  428MOL0     C58976  11.611   3.162   1.604 -0.6564  0.1213 -0.1188
  428MOL0     N58977  11.126   2.913   1.276  0.1355  0.6310 -0.1771
  428MOL0     N58978  11.028   2.865   1.205 -0.6591  0.4946  0.1742
  428MOL0     C58979  10.243   2.203   0.670 -0.6147 -0.4714  0.3220
  428MOL0     C58980  10.183   2.077   0.655 -0.7173  0.4258 -0.0885
  428MOL0     C58981  10.028   1.678   0.689  0.1458  1.0761  0.4578
  428MOL0     C58982  10.149   1.610   0.659 -0.1781  0.5156  0.1436
  428MOL0     C58983  10.157   1.471   0.641  0.4579 -0.5368  0.3349
  428MOL0     C58984  10.041   1.393   0.634 -0.2569 -0.6415 -0.4903
  428MOL0     O58985  10.057   1.263   0.599 -0.1215  0.0599  0.9993
  428MOL0     C58986   9.941   1.219   0.529  0.4962  0.6283 -0.9941
  428MOL0     C58987   9.902   1.285   0.395 -0.5172 -0.1162 -0.9669
  428MOL0     C58988  10.031   1.303   0.311 -0.0525  0.3318  0.2275
  428MOL0     C58989   9.987   1.375   0.186  0.6397  0.1932  0.4252
  428MOL0     C58990   9.958   1.517   0.208  0.4306  0.1897 -0.0041
  428MOL0     C58991   9.948   1.632   0.233  0.0242 -1.4160  0.0978
  428MOL0     C58992   9.929   1.461   0.673  0.2430  0.0211  0.0375
  428MOL0     C58993   9.914   1.596   0.700  0.6289  0.5968 -0.8795
  428MOL0     C58994   9.781   1.633   0.767 -0.2695  0.1850 -0.4722
  428MOL0     H58995  10.235   1.990   0.987 -1.9836 -1.0333  0.1585
  428MOL0     H58996  10.318   2.231   0.995  1.0325 -0.5393 -0.4577
  428MOL0     H58997  10.267   2.478   0.615 -0.5222  0.3348  2.2081
  428MOL0     H58998  10.437   2.413   0.616  1.0467  0.8659  0.7130
  428MOL0     H58999  10.476   2.642   0.615  1.7901 -1.1278  0.6495
  428MOL0     H59000  10.330   2.679   0.706 -1.5353 -0.5266 -3.5074
  428MOL0     H59001  10.505   2.743   0.826 -0.5009  0.4249 -0.8328
  428MOL0     H59002  10.428   2.614   0.925 -1.9083  2.2880 -0.2229
  428MOL0     H59003  10.596   2.456   0.867  2.3382 -0.2364  1.5341
  428MOL0     H59004  10.676   2.569   0.749  0.7400 -2.1277 -1.5782
  428MOL0     H59005  10.661   2.625   1.046 -0.4855  0.1127  0.0276
  428MOL0     H59006  10.746   2.712   0.905 -0.0284 -0.2655  1.1621
  428MOL0     H59007  10.789   2.433   1.019  3.3768 -0.5499  1.3312
  428MOL0     H59008  10.862   2.490   0.860 -1.6954  0.6675 -0.3906
  428MOL0     H59009  11.008   2.645   0.971 -0.2461 -1.6434 -2.4549
  428MOL0     H59010  11.033   2.485   1.039  1.4032  0.7501 -2.3587
  428MOL0     H59011  10.820   2.679   1.174 -0.0059  0.7650 -2.1627
  428MOL0     H59012  10.915   2.546   1.239  1.3190  0.7970  0.8085
  428MOL0     H59013  11.120   2.597   1.359 -0.2563  0.4025  0.9086
  428MOL0     H59014  11.240   2.823   1.532 -0.3826  1.3355 -0.5536
  428MOL0     H59015  11.364   2.897   1.427  0.9960 -1.2756  0.0835
  428MOL0     H59016  11.326   2.604   1.471  0.1007  0.2552  2.0672
  428MOL0     H59017  11.435   2.680   1.346  0.4895  0.7095  0.4011
  428MOL0     H59018  11.445   2.723   1.648  1.5021 -0.1437  1.4463
  428MOL0     H59019  11.546   2.606   1.555  0.9460  0.4997 -1.4618
  428MOL0     H59020  11.698   2.779   1.594  0.0662  0.0369 -0.4991
  428MOL0     H59021  11.640   2.807   1.429 -2.2290 -1.8071 -0.3793
  428MOL0     H59022  11.636   2.969   1.335  0.9502 -1.3514  3.2693
  428MOL0     H59023  11.848   3.228   1.203 -0.5482 -0.0797 -1.3064
  428MOL0     H59024  11.691   3.232   1.123 -0.1729 -3.0411 -2.5621
  428MOL0     H59025  11.774   3.077   1.167 -0.3118  0.4322 -2.4650
  428MOL0     H59026  11.945   3.654   1.543  3.1701  2.1375 -0.4132
  428MOL0     H59027  12.006   3.886   1.499 -0.5729  0.8823  0.0990
  428MOL0     H59028  11.947   4.081   1.516 -0.4973 -1.1778 -0.1508
  428MOL0     H59029  12.060   4.110   1.384 -0.2517 -3.1845  1.9413
  428MOL0     H59030  11.999   4.313   1.469 -1.9257  0.1581  3.3060
  428MOL0     H59031  11.913   4.308   1.318  0.3434 -1.8856  0.0166
  428MOL0     H59032  11.794   4.246   1.595  3.0160  1.6359 -0.6218
  428MOL0     H59033  11.719   4.201   1.445 -0.8808 -1.7455  3.0895
  428MOL0     H59034  11.780   4.486   1.533 -1.4808  2.5126 -1.5540
  428MOL0     H59035  11.619   4.405   1.526  1.1342 -0.2201  2.4490
  428MOL0     H59036  11.636   4.567   1.337  1.1654 -0.7107 -1.2523
  428MOL0     H59037  11.783   4.502   1.280 -0.1298  2.8273 -0.6535
  428MOL0     H59038  11.524   4.334   1.282  1.0740  0.2478  1.2030
  428MOL0     H59039  11.671   4.275   1.252  1.6161  0.8508  0.7226
  428MOL0     H59040  11.693   4.480   1.063  1.6014  0.9673  3.8145
  428MOL0     H59041  11.512   4.476   1.101 -0.0752 -1.0080 -3.2356
  428MOL0     H59042  11.543   4.347   0.905  0.0825 -1.5090 -0.8176
  428MOL0     H59043  11.500   4.246   1.058  0.1075  2.7544  4.3586
  428MOL0     H59044  11.671   3.924   1.233  1.3256 -0.8384 -1.4035
  428MOL0     H59045  11.590   3.709   1.299  1.4742 -2.0428  0.0588
  428MOL0     H59046  11.629   3.366   1.618 -0.1026 -2.0295  2.3372
  428MOL0     H59047  11.591   3.156   1.711 -2.7896 -4.5182 -0.5165
  428MOL0     H59048  10.250   2.252   0.573 -0.6636 -1.5450 -0.2398
  428MOL0     H59049  10.147   2.048   0.557  1.8564  0.7790 -1.2266
  428MOL0     H59050  10.247   1.655   0.649  0.8174 -1.2647  1.4139
  428MOL0     H59051  10.253   1.423   0.625  0.5347 -1.4002  2.9051
  428MOL0     H59052   9.957   1.111   0.517  2.3885  0.6681  0.5629
  428MOL0     H59053   9.849   1.215   0.587  1.5671 -4.8166  0.9744
  428MOL0     H59054   9.859   1.381   0.424 -0.5276  0.1324 -1.7874
  428MOL0     H59055   9.821   1.235   0.342 -1.9873  2.4798 -1.3075
  428MOL0     H59056  10.095   1.367   0.373 -0.3798  0.8254  0.0606
  428MOL0     H59057  10.085   1.213   0.282  3.3514  2.5897 -1.2062
  428MOL0     H59058   9.916   1.320   0.124  0.8722 -2.3677  2.2680
  428MOL0     H59059  10.072   1.367   0.117 -1.9341 -1.0680 -2.8972
  428MOL0     H59060   9.937   1.732   0.270 -1.7486 -1.6321  0.2488
  428MOL0     H59061   9.834   1.410   0.681 -0.1662  0.6875 -0.5025
  428MOL0     H59062   9.775   1.729   0.821 -1.2565 -1.0271  1.7341
  428MOL0     H59063   9.707   1.631   0.687 -0.8362 -3.6987 -0.0079
  428MOL0     H59064   9.749   1.562   0.844 -0.1194  0.9687  0.3466
  429MOL0     O59065   2.848   7.399   9.788  0.8146  0.5315  0.1048
  429MOL0     C59066   2.859   7.278   9.752 -0.7140 -0.1709  0.0979
  429MOL0     O59067   2.771   7.215   9.662  0.0252 -0.4913 -0.5895
  429MOL0     C59068   2.646   7.274   9.627 -0.6852 -0.6494  0.9777
  429MOL0     C59069   2.579   7.247   9.511  0.1670 -0.2241 -0.0788
  429MOL0     C59070   2.449   7.288   9.480  0.4287  0.0274 -0.1790
  429MOL0     C59071   2.379   7.359   9.572 -0.5586 -0.4057  0.9672
  429MOL0     O59072   2.250   7.404   9.553 -0.6196  0.0967 -0.7555
  429MOL0     C59073   2.169   7.376   9.435 -0.2554 -0.0928  0.2180
  429MOL0     C59074   2.038   7.463   9.429 -0.7602  1.2338  0.9861
  429MOL0     C59075   1.914   7.373   9.416  0.1235 -0.4570 -0.3276
  429MOL0     C59076   1.894   7.282   9.295  0.2452  0.3188 -0.2090
  429MOL0     C59077   1.770   7.187   9.318  0.3671  0.0652  0.3260
  429MOL0     C59078   1.738   7.121   9.184  0.3751 -0.6603  0.3304
  429MOL0     C59079   1.596   7.043   9.186  0.1664 -0.7519 -0.0889
  429MOL0     C59080   1.485   7.141   9.191 -0.0584  0.1894 -0.7532
  429MOL0     N59081   1.369   7.051   9.193 -0.1185  0.5063  0.5463
  429MOL0     C59082   1.320   7.001   9.312 -0.2629  0.6134  0.8968
  429MOL0     C59083   1.249   6.892   9.267  0.1331  0.0195 -0.8089
  429MOL0     C59084   1.184   6.788   9.371 -0.5674  0.2610 -0.6549
  429MOL0     C59085   1.101   6.684   9.298 -0.5744 -0.6317 -0.1460
  429MOL0     C59086   1.040   6.577   9.388  0.0438  0.3028 -0.9746
  429MOL0     C59087   0.908   6.636   9.452  0.3585 -1.4192 -0.0809
  429MOL0     O59088   0.925   6.732   9.555  0.4938 -0.4436 -0.2608
  429MOL0     C59089   0.824   6.815   9.599  0.0110  0.6266 -0.9342
  429MOL0     C59090   0.856   6.920   9.686 -0.1105 -1.1637 -0.7962
  429MOL0     C59091   0.757   7.006   9.734  0.9849  0.0957 -0.1234
  429MOL0     C59092   0.782   7.117   9.825 -0.3360  0.7285 -0.5084
  429MOL0     C59093   0.622   6.996   9.683 -0.2468  0.3755  0.6078
  429MOL0     C59094   0.514   7.070   9.746  0.3270 -0.0863 -0.4205
  429MOL0     O59095   0.475   7.192   9.687 -0.2054  0.2365  0.7038
  429MOL0     C59096   0.375   7.273   9.736  0.3566 -0.2897 -1.4100
  429MOL0     C59097   0.364   7.411   9.694  0.0031  0.2976 -0.2910
  429MOL0     C59098   0.283   7.494   9.762  0.3456 -0.3347  0.2855
  429MOL0     C59099   0.189   7.453   9.856 -0.1164  0.2591  0.1910
  429MOL0     O59100   0.107   7.545   9.919  0.0881  0.7220 -0.5396
  429MOL0     C59101   0.146   7.573  10.050 -1.1302 -0.0275 -0.7632
  429MOL0     C59102   0.057   7.678  10.105 -1.1087  0.5465 -0.2950
  429MOL0     C59103   0.098   7.715  10.250  0.2836 -0.3625  0.1917
  429MOL0     C59104   0.015   7.854  10.283  0.5808  1.0515 -0.7731
  429MOL0     C59105  -0.027   7.856  10.435 -0.5305 -0.7259 -0.0974
  429MOL0     C59106  -0.161   7.945  10.466 -0.3198  0.3056  0.5551
  429MOL0     C59107  -0.134   8.077  10.404  0.0382 -0.5957 -0.5468
  429MOL0     C59108  -0.252   8.173  10.406  0.3304 -0.1537 -0.1142
  429MOL0    Cl59109  -0.291   8.256  10.563 -0.1243 -0.0475 -0.1052
  429MOL0     C59110   0.185   7.319   9.891  0.1417  1.8368 -0.0659
  429MOL0     C59111   0.276   7.237   9.836 -0.1485  0.4433 -0.1101
  429MOL0     O59112   0.474   7.026   9.851  0.2283 -0.2659 -0.8589
  429MOL0     C59113   0.596   6.902   9.582 -0.6587  0.7124  0.0471
  429MOL0     C59114   0.688   6.808   9.550 -0.3483  0.3036  0.3512
  429MOL0     N59115   1.238   6.901   9.130 -0.0746  0.7410  0.1323
  429MOL0     N59116   1.313   6.992   9.088  0.3533 -0.3485 -0.5249
  429MOL0     C59117   2.439   7.384   9.691  0.1675 -0.3347 -0.8190
  429MOL0     C59118   2.567   7.348   9.719 -0.4285 -0.3105  0.1730
  429MOL0     C59119   2.992   7.217   9.764 -0.8378  1.0913  0.6955
  429MOL0     C59120   3.027   7.114   9.670  0.5565  0.1931  0.2609
  429MOL0     C59121   3.154   7.057   9.666 -0.1017 -1.4532  0.2937
  429MOL0     C59122   3.244   7.082   9.771  0.2354 -0.1373  0.9346
  429MOL0     O59123   3.377   7.044   9.768 -0.2004  0.1986  0.4134
  429MOL0     C59124   3.432   6.977   9.656  0.3468  1.1504  0.4076
  429MOL0     C59125   3.398   6.819   9.654  0.7126  0.3857  0.0404
  429MOL0     C59126   3.496   6.740   9.574  0.3804 -0.0571  0.3003
  429MOL0     C59127   3.479   6.588   9.597 -0.0559 -0.2971 -0.5710
  429MOL0     C59128   3.342   6.540   9.575 -0.1949 -0.5602  0.9184
  429MOL0     C59129   3.225   6.506   9.548 -0.0101  0.4970  0.7872
  429MOL0     C59130   3.205   7.168   9.866  0.9118 -0.1695  0.7348
  429MOL0     C59131   3.086   7.241   9.871  0.4338  0.7343  0.8493
  429MOL0     C59132   3.064   7.326   9.999  0.3272  0.3393  0.7250
  429MOL0     H59133   2.636   7.200   9.431  0.1075  1.5931 -1.2492
  429MOL0     H59134   2.405   7.270   9.382  1.4417  3.6100 -1.4609
  429MOL0     H59135   2.153   7.269   9.418  2.2254 -0.5929  0.6034
  429MOL0     H59136   2.225   7.406   9.346  0.8770 -2.7063 -0.0565
  429MOL0     H59137   2.027   7.535   9.511 -1.9533  0.6404  1.3794
  429MOL0     H59138   2.037   7.526   9.340 -1.4058 -1.0182 -0.6853
  429MOL0     H59139   1.907   7.305   9.501  0.9791  1.1406  1.0965
  429MOL0     H59140   1.834   7.447   9.426  0.5897 -0.0066  0.1903
  429MOL0     H59141   1.881   7.326   9.196  0.1231  1.3919  0.2704
  429MOL0     H59142   1.991   7.232   9.290  0.9290  1.7112 -1.4953
  429MOL0     H59143   1.687   7.249   9.352  0.1365 -0.3590  0.5438
  429MOL0     H59144   1.792   7.115   9.398  0.2460 -0.9866 -0.5578
  429MOL0     H59145   1.744   7.178   9.092  2.3932 -2.4892 -0.7760
  429MOL0     H59146   1.815   7.044   9.170  0.1412 -0.9966  0.8446
  429MOL0     H59147   1.595   6.977   9.273 -1.3785 -0.9485 -0.2400
  429MOL0     H59148   1.603   6.973   9.102 -0.5007  0.6133 -1.3152
  429MOL0     H59149   1.490   7.202   9.281 -3.3557 -1.3304  0.6351
  429MOL0     H59150   1.493   7.214   9.110 -1.0941  2.5091  1.1164
  429MOL0     H59151   1.348   7.024   9.414 -0.5696  0.0555  1.1127
  429MOL0     H59152   1.124   6.852   9.437  2.2247  0.0916  2.3188
  429MOL0     H59153   1.267   6.745   9.428  0.6481  1.8066 -1.1785
  429MOL0     H59154   1.031   6.738   9.234  0.6225  1.4095  0.1787
  429MOL0     H59155   1.170   6.628   9.234  3.3739  2.4164  1.0058
  429MOL0     H59156   1.030   6.479   9.340  1.4474  0.4334 -1.5988
  429MOL0     H59157   1.111   6.550   9.467  1.8627  1.8516 -1.9945
  429MOL0     H59158   0.855   6.703   9.383  3.8107  2.8705  0.9642
  429MOL0     H59159   0.846   6.558   9.497 -0.4127  2.0307  5.8933
  429MOL0     H59160   0.958   6.944   9.714 -1.1235  2.7927  0.0644
  429MOL0     H59161   0.877   7.086   9.870 -0.6526 -2.1238 -1.6205
  429MOL0     H59162   0.711   7.097   9.905 -0.7683 -4.1949 -1.7980
  429MOL0     H59163   0.790   7.218   9.782 -2.1751  1.0973 -0.0768
  429MOL0     H59164   0.442   7.442   9.625  2.0591 -0.8708  1.3930
  429MOL0     H59165   0.289   7.601   9.749 -0.4433 -0.4510 -1.2620
  429MOL0     H59166   0.140   7.482  10.111 -2.2925  2.5339  3.3122
  429MOL0     H59167   0.247   7.615  10.053 -0.9561 -0.4810  1.0948
  429MOL0     H59168   0.055   7.760  10.032  1.3219 -0.3636 -1.4933
  429MOL0     H59169  -0.043   7.637  10.117 -0.6190  0.0424  2.8750
  429MOL0     H59170   0.206   7.730  10.247  0.1084  1.0544  0.3351
  429MOL0     H59171   0.067   7.638  10.321 -0.1650 -0.2676  0.1029
  429MOL0     H59172  -0.067   7.854  10.211 -0.8976 -1.3856  0.7435
  429MOL0     H59173   0.073   7.942  10.255  0.0130  0.8849 -2.5916
  429MOL0     H59174  -0.044   7.753  10.467 -1.2568 -0.6365 -0.1769
  429MOL0     H59175   0.056   7.895  10.496 -1.2673 -3.5394  2.9816
  429MOL0     H59176  -0.179   7.963  10.572 -1.8518  2.7600 -0.0371
  429MOL0     H59177  -0.244   7.899  10.410 -1.2730  0.2633  1.9569
  429MOL0     H59178  -0.109   8.061  10.298 -1.0517  0.6720 -1.0300
  429MOL0     H59179  -0.049   8.117  10.459 -1.7600  1.0496  1.1869
  429MOL0     H59180  -0.343   8.123  10.370  0.9811  0.3014 -2.5677
  429MOL0     H59181  -0.233   8.246  10.327 -0.0994 -1.0334 -1.0511
  429MOL0     H59182   0.110   7.277   9.957 -0.5546  3.8579  0.4986
  429MOL0     H59183   0.278   7.131   9.857  1.6931  0.3280 -0.6705
  429MOL0     H59184   0.494   6.894   9.545 -1.8082  0.9119  2.9644
  429MOL0     H59185   0.656   6.730   9.481  0.2981 -0.1848  0.5900
  429MOL0     H59186   2.387   7.453   9.758  0.0928 -0.8670 -0.3236
  429MOL0     H59187   2.612   7.387   9.810 -0.5693  3.3236 -1.1566
  429MOL0     H59188   2.962   7.092   9.585 -0.1093 -0.7737  0.9889
  429MOL0     H59189   3.188   7.004   9.577  1.5688  0.0111  0.0166
  429MOL0     H59190   3.391   7.023   9.566 -2.7815  1.8103  2.0393
  429MOL0     H59191   3.541   6.977   9.665  0.4755  5.2163  0.2485
  429MOL0     H59192   3.300   6.810   9.608  2.7408  0.1881 -4.7754
  429MOL0     H59193   3.404   6.789   9.759  1.4837  3.2009  0.8968
  429MOL0     H59194   3.479   6.753   9.467 -0.4774  0.0896  0.4467
  429MOL0     H59195   3.599   6.762   9.604  0.1781  1.2067  0.1523
  429MOL0     H59196   3.513   6.563   9.698  0.8845  2.0216 -0.2508
  429MOL0     H59197   3.537   6.538   9.518  0.9042  1.6750 -1.1879
  429MOL0     H59198   3.129   6.461   9.537  0.5796 -0.2426 -2.1840
  429MOL0     H59199   3.283   7.165   9.942  1.1198  0.3397  0.5465
  429MOL0     H59200   2.963   7.307  10.037 -0.1674  0.0734 -0.6625
  429MOL0     H59201   3.140   7.302  10.074  0.4418 -1.4485  0.0820
  429MOL0     H59202   3.069   7.433   9.976  3.0746  0.8041  2.9164
  430MOL0     O59203   4.950  10.004   6.404 -0.6461 -0.0431 -0.7812
  430MOL0     C59204   4.947   9.988   6.284  0.6993 -0.2670  0.8556
  430MOL0     O59205   5.054   9.986   6.200  0.3511  0.4883 -0.2709
  430MOL0     C59206   5.175   9.923   6.240  0.0947 -0.0738 -0.5549
  430MOL0     C59207   5.273   9.993   6.311 -0.3169 -0.2489 -0.0771
  430MOL0     C59208   5.400   9.940   6.346 -0.1405 -1.1696  1.0093
  430MOL0     C59209   5.434   9.818   6.298  0.5497  0.4690 -0.1349
  430MOL0     O59210   5.558   9.759   6.311 -0.0881 -0.8904 -0.5157
  430MOL0     C59211   5.589   9.696   6.432  0.3799 -0.5778 -0.4851
  430MOL0     C59212   5.729   9.739   6.494  0.1235 -0.1497 -0.0898
  430MOL0     C59213   5.748   9.896   6.495  0.1219  0.4765 -0.2153
  430MOL0     C59214   5.688   9.943   6.630 -0.8415 -0.4065  0.8942
  430MOL0     C59215   5.755  10.067   6.667 -0.5493 -0.3198  0.3087
  430MOL0     C59216   5.702  10.121   6.800 -1.1369  0.4727  0.0244
  430MOL0     C59217   5.770  10.253   6.851 -0.0802  0.2620 -0.0324
  430MOL0     C59218   5.708  10.315   6.973 -0.9973  0.2059 -0.5829
  430MOL0     N59219   5.759  10.452   6.985 -1.1065  0.1687 -0.3024
  430MOL0     C59220   5.819  10.496   7.105  0.5811 -0.9143 -0.1421
  430MOL0     C59221   5.845  10.628   7.082 -0.0786 -0.3037  0.0840
  430MOL0     C59222   5.904  10.721   7.175  0.3167 -0.2196 -0.5266
  430MOL0     C59223   5.798  10.825   7.221  0.0142 -0.1782  0.5351
  430MOL0     C59224   5.857  10.906   7.342 -1.0579 -0.0694 -0.4156
  430MOL0     C59225   5.745  11.000   7.400  0.1531  0.0462  0.3528
  430MOL0     O59226   5.792  11.073   7.519 -0.3895 -0.5197 -0.2072
  430MOL0     C59227   5.739  11.032   7.638 -0.1727 -0.0839  1.3826
  430MOL0     C59228   5.647  11.113   7.699 -0.2717 -1.5280 -1.4839
  430MOL0     C59229   5.582  11.070   7.815  0.0623 -0.1892  0.2956
  430MOL0     C59230   5.478  11.166   7.874 -0.6796  0.0967  0.9550
  430MOL0     C59231   5.611  10.949   7.876 -0.1138  0.0537 -0.8269
  430MOL0     C59232   5.538  10.886   7.985 -0.0672  0.7217  0.0491
  430MOL0     O59233   5.468  10.956   8.072 -0.2253  0.0159 -0.4688
  430MOL0     C59234   5.382  10.899   8.163 -0.5559 -0.0159 -0.1832
  430MOL0     C59235   5.244  10.932   8.160 -0.6405 -0.4414  0.0389
  430MOL0     C59236   5.162  10.871   8.251  1.3345 -0.0183  0.0032
  430MOL0     C59237   5.203  10.789   8.350 -0.4168 -0.0993 -0.3771
  430MOL0     O59238   5.117  10.747   8.445  0.2989  0.2963  0.1665
  430MOL0     C59239   5.145  10.649   8.547  0.4655 -0.2983 -0.1461
  430MOL0     C59240   5.019  10.635   8.627  0.4697  0.5206  0.0504
  430MOL0     C59241   5.057  10.540   8.740 -0.3470  0.7315 -0.0314
  430MOL0     C59242   4.971  10.544   8.873 -0.4860 -0.0842 -0.4142
  430MOL0     C59243   5.025  10.635   8.991  0.5031 -0.0773 -0.3368
  430MOL0     C59244   5.105  10.553   9.099 -0.6525 -0.6218  1.1082
  430MOL0     C59245   5.185  10.646   9.202  1.1975 -0.1895 -0.2200
  430MOL0     C59246   5.096  10.713   9.306 -0.0919 -0.2329  0.3366
  430MOL0    Cl59247   4.971  10.608   9.373 -0.2925 -0.1424  0.6827
  430MOL0     C59248   5.340  10.754   8.350  0.0597 -0.5490  0.7093
  430MOL0     C59249   5.431  10.808   8.261 -0.2286  0.6361  0.0065
  430MOL0     O59250   5.537  10.765   7.991 -1.1065  0.6670  0.1022
  430MOL0     C59251   5.723  10.876   7.821 -0.4016  0.3915 -0.0408
  430MOL0     C59252   5.780  10.912   7.702  0.5137  0.2260 -0.1291
  430MOL0     N59253   5.784  10.662   6.961  0.4430 -1.1131 -0.7945
  430MOL0     N59254   5.735  10.553   6.905  0.5651 -1.0512 -0.5018
  430MOL0     C59255   5.337   9.745   6.221  0.4410 -0.9157 -0.6209
  430MOL0     C59256   5.204   9.796   6.206 -0.9479  1.8368  1.0205
  430MOL0     C59257   4.813   9.986   6.219 -0.8409  0.0899  0.8683
  430MOL0     C59258   4.811   9.973   6.080  0.2943  0.3291 -0.5267
  430MOL0     C59259   4.695   9.986   6.000  0.1117  0.0709 -0.3415
  430MOL0     C59260   4.568   9.999   6.066 -0.4162  0.7767 -0.1814
  430MOL0     O59261   4.443  10.020   6.006  0.0402 -0.2526  0.4116
  430MOL0     C59262   4.421   9.940   5.886 -0.2701  0.0555 -0.4143
  430MOL0     C59263   4.296  10.000   5.824  1.0415  0.0841  0.0491
  430MOL0     C59264   4.253   9.943   5.680 -0.3955 -0.1495  0.8407
  430MOL0     C59265   4.333  10.019   5.575 -0.0113 -1.0250  0.5123
  430MOL0     C59266   4.288  10.156   5.552 -0.0462 -0.6871 -0.5401
  430MOL0     C59267   4.259  10.279   5.543  0.1726  0.7251  1.1093
  430MOL0     C59268   4.571  10.001   6.217 -0.0739 -0.3107 -0.2944
  430MOL0     C59269   4.691   9.988   6.295 -0.3655  0.7570  0.7633
  430MOL0     C59270   4.688   9.979   6.445  0.9779  0.3243 -0.3883
  430MOL0     H59271   5.254  10.100   6.315 -5.1337 -0.6030 -4.0554
  430MOL0     H59272   5.469  10.011   6.389 -1.6184  0.5732  0.6235
  430MOL0     H59273   5.592   9.587   6.423 -2.5483 -0.7021 -1.0910
  430MOL0     H59274   5.511   9.712   6.507 -1.5104 -0.3109 -2.4119
  430MOL0     H59275   5.725   9.695   6.594 -0.9291 -1.2663 -0.5927
  430MOL0     H59276   5.808   9.691   6.435 -0.8857 -0.3083 -1.3764
  430MOL0     H59277   5.851   9.928   6.484  0.7119 -0.6460  1.6263
  430MOL0     H59278   5.697   9.938   6.408  0.3292 -0.2425 -0.6916
  430MOL0     H59279   5.579   9.953   6.631 -1.0083  1.0076 -4.3627
  430MOL0     H59280   5.714   9.872   6.709 -0.5616 -1.0808  0.1984
  430MOL0     H59281   5.738  10.136   6.584 -1.9800 -2.9405 -1.7334
  430MOL0     H59282   5.863  10.048   6.669 -0.4913 -0.0613 -0.2420
  430MOL0     H59283   5.597  10.152   6.798 -0.4171  3.2248  0.1585
  430MOL0     H59284   5.715  10.043   6.875 -2.9595 -1.0089 -1.1206
  430MOL0     H59285   5.778  10.319   6.764  0.0951 -2.5196 -2.2885
  430MOL0     H59286   5.872  10.221   6.876  0.2131  0.8554 -0.4573
  430MOL0     H59287   5.601  10.311   6.950 -0.4763  0.6380 -3.4664
  430MOL0     H59288   5.730  10.260   7.065 -0.7324  2.5814  0.8568
  430MOL0     H59289   5.852  10.441   7.193  0.2458 -1.6110 -0.4394
  430MOL0     H59290   5.995  10.756   7.126  1.3859  0.5126  1.8301
  430MOL0     H59291   5.943  10.661   7.258  0.7881 -1.3225 -1.5213
  430MOL0     H59292   5.782  10.893   7.137 -0.6249  0.0075  0.8067
  430MOL0     H59293   5.707  10.775   7.254 -0.2617 -0.5737 -0.7810
  430MOL0     H59294   5.884  10.840   7.425 -2.0823  1.3510  1.1083
  430MOL0     H59295   5.942  10.973   7.323 -0.3387 -0.9087 -0.1993
  430MOL0     H59296   5.713  11.079   7.332  0.4700  1.0884  1.3737
  430MOL0     H59297   5.650  10.951   7.421  0.1582 -0.2172 -0.2196
  430MOL0     H59298   5.628  11.209   7.652 -0.7498 -0.3437  0.9879
  430MOL0     H59299   5.381  11.119   7.892 -1.0681 -0.9614 -2.9419
  430MOL0     H59300   5.449  11.251   7.811  1.0872  0.7100  0.9093
  430MOL0     H59301   5.519  11.208   7.966  3.3405  2.6110 -1.6813
  430MOL0     H59302   5.223  11.000   8.078 -0.7268 -0.5825 -0.0558
  430MOL0     H59303   5.055  10.887   8.258  1.2444 -0.5783 -0.0236
  430MOL0     H59304   5.174  10.551   8.507  0.1991  0.0094 -1.1247
  430MOL0     H59305   5.223  10.692   8.610 -0.2871 -0.8154  1.2006
  430MOL0     H59306   4.998  10.729   8.678 -1.3809 -1.1246  2.5264
  430MOL0     H59307   4.935  10.583   8.581  0.0044 -0.8834  2.3123
  430MOL0     H59308   5.161  10.560   8.768 -0.3779  1.7108 -0.5779
  430MOL0     H59309   5.047  10.443   8.690  0.7297  1.4616 -1.7183
  430MOL0     H59310   4.955  10.444   8.912 -1.9670  0.8375  1.5085
  430MOL0     H59311   4.875  10.586   8.842 -1.6472  1.9566  4.9191
  430MOL0     H59312   5.064  10.731   8.954  1.0882  0.1894  0.9249
  430MOL0     H59313   4.944  10.672   9.054 -1.6954 -0.1497 -2.9245
  430MOL0     H59314   5.187  10.502   9.049 -0.4030  1.7904 -1.1627
  430MOL0     H59315   5.041  10.482   9.152  4.5176 -4.0089  3.5668
  430MOL0     H59316   5.217  10.725   9.133 -2.5739 -0.6532 -2.8076
  430MOL0     H59317   5.268  10.593   9.250  2.2652  0.6927 -1.0432
  430MOL0     H59318   5.039  10.799   9.267 -0.4564 -0.1689  0.9916
  430MOL0     H59319   5.169  10.751   9.379  0.0796 -2.6304  1.5174
  430MOL0     H59320   5.386  10.687   8.422 -1.8444  0.3344  2.8593
  430MOL0     H59321   5.535  10.780   8.267 -0.6345 -0.9475  0.0937
  430MOL0     H59322   5.757  10.787   7.873  2.8990  0.5640 -1.6136
  430MOL0     H59323   5.857  10.851   7.655  1.3926 -1.5380  3.2628
  430MOL0     H59324   5.373   9.645   6.197  3.1019 -0.1863  0.0065
  430MOL0     H59325   5.133   9.736   6.151  2.4641 -0.1420 -1.6179
  430MOL0     H59326   4.904   9.949   6.030  0.1670  0.0173 -0.6138
  430MOL0     H59327   4.714   9.988   5.893  0.0016 -1.6355 -0.4159
  430MOL0     H59328   4.503   9.956   5.816  2.1783 -4.5800  0.9114
  430MOL0     H59329   4.420   9.832   5.906  4.8476 -0.7076 -2.5474
  430MOL0     H59330   4.303  10.109   5.815  0.6158  0.2210  1.2233
  430MOL0     H59331   4.206   9.971   5.880 -0.9520  0.6585 -2.6632
  430MOL0     H59332   4.288   9.839   5.677  1.9337  0.6058 -1.1232
  430MOL0     H59333   4.149   9.968   5.660  0.3640  1.5001 -1.4043
  430MOL0     H59334   4.317   9.973   5.477 -0.2418  0.0671  0.0138
  430MOL0     H59335   4.438  10.027   5.605  0.2550  0.4013 -0.6577
  430MOL0     H59336   4.230  10.379   5.519  4.6989  1.7782 -0.9633
  430MOL0     H59337   4.474  10.017   6.262  0.2346  1.0292 -0.0679
  430MOL0     H59338   4.745   9.896   6.488  0.3012  0.5148  0.9431
  430MOL0     H59339   4.733  10.067   6.492  1.5454 -0.6399  0.9366
  430MOL0     H59340   4.586   9.975   6.484  1.9833  5.5616  3.9752
  431MOL0     O59341   2.378   1.690  11.420 -0.0255  0.1303  0.1364
  431MOL0     C59342   2.399   1.618  11.327  1.3488 -0.7501  0.1702
  431MOL0     O59343   2.318   1.599  11.224 -0.2671 -0.4457 -0.2886
  431MOL0     C59344   2.219   1.699  11.205 -0.1757  0.4938  0.7010
  431MOL0     C59345   2.098   1.666  11.276  0.7205 -0.6270  0.2612
  431MOL0     C59346   1.983   1.744  11.253 -0.5383  0.7010 -0.5580
  431MOL0     C59347   1.979   1.855  11.161 -0.0437  0.5878  0.5816
  431MOL0     O59348   1.873   1.939  11.148 -0.3664  0.0526  0.2783
  431MOL0     C59349   1.747   1.863  11.140 -0.8495 -0.1967 -0.1375
  431MOL0     C59350   1.652   1.940  11.055 -0.2081  0.1098  0.1803
  431MOL0     C59351   1.528   1.849  11.058  0.0563  0.5036  0.4238
  431MOL0     C59352   1.529   1.714  10.979  0.1356  0.1665 -0.3079
  431MOL0     C59353   1.526   1.729  10.825 -0.8493 -0.0947 -0.1515
  431MOL0     C59354   1.530   1.589  10.752  0.0182  0.1161 -0.0697
  431MOL0     C59355   1.547   1.606  10.603  0.1521 -0.0976  0.3938
  431MOL0     C59356   1.445   1.527  10.524  0.1267 -0.3267  0.3795
  431MOL0     N59357   1.449   1.379  10.536  0.1307  0.5137  0.5965
  431MOL0     C59358   1.408   1.302  10.640  0.7465 -0.4316  0.2294
  431MOL0     C59359   1.433   1.183  10.598 -0.3213  0.3199  0.2581
  431MOL0     C59360   1.411   1.065  10.685 -0.1517 -0.2308 -0.1361
  431MOL0     C59361   1.553   1.002  10.706 -0.6301 -0.0933 -0.0459
  431MOL0     C59362   1.655   1.092  10.782  0.1876  0.4352 -1.3138
  431MOL0     C59363   1.616   1.125  10.928 -0.1506 -0.2156  0.0960
  431MOL0     O59364   1.599   1.268  10.946  0.5250  0.7312  0.4468
  431MOL0     C59365   1.561   1.314  11.073  0.0784  0.2492  0.1046
  431MOL0     C59366   1.667   1.337  11.164 -0.2562  0.4380 -0.5445
  431MOL0     C59367   1.636   1.370  11.295  0.4120  0.1106  0.5150
  431MOL0     C59368   1.755   1.414  11.385  0.6621  1.0086 -0.6686
  431MOL0     C59369   1.510   1.375  11.339 -0.6886  1.2217  0.3707
  431MOL0     C59370   1.470   1.410  11.478 -0.7209  0.1561 -0.3990
  431MOL0     O59371   1.351   1.481  11.494  0.1227 -0.4935 -0.2019
  431MOL0     C59372   1.337   1.539  11.616 -0.3763 -1.2662  0.0359
  431MOL0     C59373   1.281   1.472  11.725 -0.2798  0.0805 -0.1929
  431MOL0     C59374   1.267   1.525  11.844  0.1622 -0.4651 -0.2789
  431MOL0     C59375   1.288   1.659  11.854 -0.1227 -0.3932 -0.3091
  431MOL0     O59376   1.248   1.721  11.967  0.3522  0.0131  0.0902
  431MOL0     C59377   1.352   1.791  12.035 -0.0218  0.0597 -0.1432
  431MOL0     C59378   1.481   1.718  12.062 -0.3615  0.7434 -0.3344
  431MOL0     C59379   1.449   1.592  12.143 -0.4124  0.0857 -0.1292
  431MOL0     C59380   1.585   1.553  12.214 -0.7306 -0.6017  0.3546
  431MOL0     C59381   1.582   1.425  12.298 -0.3422  0.4450 -0.1834
  431MOL0     C59382   1.566   1.299  12.205 -0.1291  0.7177  0.3258
  431MOL0     C59383   1.548   1.175  12.291 -0.1350  0.0957  0.1962
  431MOL0     C59384   1.526   1.048  12.218  0.9017  0.3255 -0.6516
  431MOL0    Cl59385   1.501   0.914  12.338 -0.1846 -0.8852  0.0773
  431MOL0     C59386   1.329   1.741  11.754  0.5400  0.5609  0.2853
  431MOL0     C59387   1.349   1.678  11.624 -0.3090 -0.8550 -0.7179
  431MOL0     O59388   1.528   1.359  11.574 -0.6185  0.4481  0.5100
  431MOL0     C59389   1.405   1.363  11.240 -0.5087  0.9980  0.0708
  431MOL0     C59390   1.430   1.338  11.111  0.1409  0.6741  0.5438
  431MOL0     N59391   1.481   1.177  10.468  0.2473  0.9544 -0.3434
  431MOL0     N59392   1.492   1.296  10.432 -0.1556 -0.3566  0.4548
  431MOL0     C59393   2.095   1.882  11.081 -0.7164 -0.1306 -0.2821
  431MOL0     C59394   2.213   1.802  11.103  0.6142  0.4371  0.1727
  431MOL0     C59395   2.538   1.564  11.311 -0.2384 -0.5950  0.7618
  431MOL0     C59396   2.633   1.614  11.403  0.5874  0.7250  0.1944
  431MOL0     C59397   2.769   1.585  11.391 -0.2203 -0.6042  1.0303
  431MOL0     C59398   2.812   1.501  11.287  0.9103  0.2043 -0.2712
  431MOL0     O59399   2.946   1.479  11.278  0.2462  0.2059  0.3670
  431MOL0     C59400   3.005   1.350  11.236  1.1535 -0.2831 -0.6110
  431MOL0     C59401   3.153   1.336  11.275  0.3305  0.1676 -0.9773
  431MOL0     C59402   3.226   1.214  11.215 -0.4383 -0.8255  0.1025
  431MOL0     C59403   3.291   1.136  11.328  0.0201  0.1352  0.1479
  431MOL0     C59404   3.342   1.009  11.275 -0.3630  0.6675  0.8750
  431MOL0     C59405   3.398   0.907  11.243  0.0802 -0.8192 -0.0827
  431MOL0     C59406   2.722   1.445  11.200  0.0050 -0.2319  0.0435
  431MOL0     C59407   2.581   1.474  11.210  0.3569  0.2806  0.9568
  431MOL0     C59408   2.486   1.397  11.115 -0.4774  0.5065  0.1036
  431MOL0     H59409   2.096   1.583  11.347 -1.7210 -1.4190 -0.6235
  431MOL0     H59410   1.900   1.723  11.319  0.2584  0.7398  0.4797
  431MOL0     H59411   1.700   1.850  11.238  0.0601 -0.0028  0.3353
  431MOL0     H59412   1.756   1.765  11.092 -1.3174  0.9005 -2.5830
  431MOL0     H59413   1.639   2.040  11.098  3.6022  0.3174  1.2064
  431MOL0     H59414   1.691   1.965  10.956  0.9100 -0.9086  0.3445
  431MOL0     H59415   1.495   1.825  11.160 -0.0267  0.6403  0.4297
  431MOL0     H59416   1.443   1.908  11.020 -1.3757 -1.9551 -0.4385
  431MOL0     H59417   1.610   1.641  10.989 -0.4723 -0.5583 -0.5409
  431MOL0     H59418   1.440   1.653  10.997  0.6525 -0.6078 -0.3260
  431MOL0     H59419   1.615   1.785  10.797 -0.2344 -1.2664 -0.6243
  431MOL0     H59420   1.436   1.789  10.810 -2.7810 -1.7461  3.4267
  431MOL0     H59421   1.598   1.519  10.802 -4.9969 -3.6085  2.5062
  431MOL0     H59422   1.430   1.550  10.769 -0.0340  1.4680  3.4380
  431MOL0     H59423   1.645   1.570  10.571  0.4833 -0.7400  2.0206
  431MOL0     H59424   1.540   1.713  10.581  2.1653 -0.1743 -0.9223
  431MOL0     H59425   1.339   1.541  10.550 -0.3260 -6.0478  2.9897
  431MOL0     H59426   1.463   1.545  10.417 -2.0945  0.0486  0.0068
  431MOL0     H59427   1.367   1.327  10.738  0.8603  0.3437  0.0853
  431MOL0     H59428   1.331   1.000  10.649 -0.0171  0.0290 -0.9211
  431MOL0     H59429   1.368   1.093  10.782  3.6984 -1.8043  2.2326
  431MOL0     H59430   1.541   0.905  10.755 -2.3261 -0.9596 -2.0591
  431MOL0     H59431   1.604   0.973  10.614 -1.9171 -1.7698 -0.2794
  431MOL0     H59432   1.753   1.044  10.789 -0.0969  0.0709  2.8670
  431MOL0     H59433   1.675   1.181  10.722 -1.2425  1.3493 -0.4919
  431MOL0     H59434   1.534   1.062  10.965  0.3989 -1.9017 -1.4275
  431MOL0     H59435   1.704   1.099  10.988  1.3368  3.6312 -0.1569
  431MOL0     H59436   1.765   1.318  11.123  0.8432  1.3747  1.4897
  431MOL0     H59437   1.843   1.420  11.320 -0.3780  0.7449 -2.1639
  431MOL0     H59438   1.762   1.333  11.457 -0.4443 -0.0560 -1.7168
  431MOL0     H59439   1.750   1.514  11.431 -0.6671  0.5489  0.2524
  431MOL0     H59440   1.267   1.364  11.715 -1.4751  0.1282  0.7919
  431MOL0     H59441   1.240   1.468  11.932  0.2062  1.8509  1.3311
  431MOL0     H59442   1.355   1.889  11.986  0.1993 -0.7363 -1.7922
  431MOL0     H59443   1.307   1.803  12.135  1.3624  0.8686  0.4082
  431MOL0     H59444   1.532   1.676  11.975  3.4722  0.3512  1.9080
  431MOL0     H59445   1.550   1.787  12.111 -1.6556  1.7247  0.1605
  431MOL0     H59446   1.410   1.515  12.075  2.7259 -1.1188 -0.7161
  431MOL0     H59447   1.372   1.611  12.218 -0.4427 -1.3189  0.2295
  431MOL0     H59448   1.606   1.636  12.283 -0.2965 -0.7701  0.4276
  431MOL0     H59449   1.675   1.547  12.151  2.7282  1.3180  4.5503
  431MOL0     H59450   1.666   1.408  12.366 -0.1242 -1.0921 -0.7996
  431MOL0     H59451   1.493   1.442  12.360 -0.6910  3.4319 -1.3514
  431MOL0     H59452   1.658   1.291  12.146 -0.3312  0.5223  0.0330
  431MOL0     H59453   1.482   1.314  12.136 -1.0880 -1.0255  1.0481
  431MOL0     H59454   1.461   1.188  12.357 -1.2706 -1.2179 -0.9646
  431MOL0     H59455   1.638   1.162  12.350  2.1062  0.0592 -2.9754
  431MOL0     H59456   1.608   1.016  12.154 -0.4315  2.4089 -3.6012
  431MOL0     H59457   1.445   1.045  12.145 -0.5459  0.2781  0.9098
  431MOL0     H59458   1.342   1.849  11.758  1.2397  0.4485  1.3797
  431MOL0     H59459   1.394   1.739  11.546 -2.3815  0.1897 -1.1532
  431MOL0     H59460   1.303   1.384  11.270 -0.8680  1.0790 -1.1217
  431MOL0     H59461   1.347   1.332  11.041  0.6192 -0.3866  0.0504
  431MOL0     H59462   2.089   1.971  11.019  1.5877 -0.5411 -1.1756
  431MOL0     H59463   2.294   1.820  11.033  0.0228  0.9243 -0.4036
  431MOL0     H59464   2.598   1.672  11.488  1.6146  2.0875 -0.2724
  431MOL0     H59465   2.842   1.626  11.460  2.5508 -0.4325 -1.7578
  431MOL0     H59466   2.946   1.265  11.273 -0.3332  0.4112 -1.3069
  431MOL0     H59467   3.009   1.344  11.127  0.3630  0.2690 -0.6752
  431MOL0     H59468   3.144   1.326  11.383 -1.1233 -0.7840 -1.1523
  431MOL0     H59469   3.198   1.431  11.246 -1.8128  0.4831 -3.6194
  431MOL0     H59470   3.156   1.163  11.149 -1.9573  3.4768 -1.9539
  431MOL0     H59471   3.306   1.261  11.157 -2.6961 -1.1935 -3.5802
  431MOL0     H59472   3.225   1.113  11.413  1.2885 -2.0988  0.6360
  431MOL0     H59473   3.372   1.198  11.366 -2.8576  3.2869  1.6626
  431MOL0     H59474   3.450   0.816  11.219 -0.1267 -0.9238 -0.1334
  431MOL0     H59475   2.768   1.382  11.125  3.1089  2.5654 -0.6308
  431MOL0     H59476   2.402   1.364  11.176 -1.1333 -2.0447 -2.0076
  431MOL0     H59477   2.456   1.458  11.029 -0.5703  0.6601  0.2447
  431MOL0     H59478   2.521   1.299  11.082 -0.6993  0.1597  0.8863
  432MOL0     O59479   4.762   1.468   4.540  0.2439  0.2800  0.0087
  432MOL0     C59480   4.785   1.561   4.622  1.5565 -0.0649  0.0354
  432MOL0     O59481   4.684   1.618   4.703 -0.9828 -0.4169 -0.5222
  432MOL0     C59482   4.557   1.583   4.689 -0.0691  0.0049 -0.0577
  432MOL0     C59483   4.493   1.513   4.793  0.0583 -0.3295  0.3571
  432MOL0     C59484   4.365   1.481   4.781  0.8308 -0.6077 -0.5128
  432MOL0     C59485   4.286   1.518   4.675  0.9284 -0.6745 -0.6920
  432MOL0     O59486   4.151   1.485   4.677 -1.3921 -0.0017  0.1108
  432MOL0     C59487   4.044   1.559   4.619 -0.0660  0.2481 -0.2517
  432MOL0     C59488   4.040   1.716   4.648 -0.5552 -0.0382  0.2042
  432MOL0     C59489   3.900   1.771   4.620  0.4401 -0.4424 -0.3793
  432MOL0     C59490   3.879   1.779   4.462  0.8969 -0.8341 -0.3937
  432MOL0     C59491   3.757   1.860   4.424  0.2113 -0.0084 -0.2748
  432MOL0     C59492   3.628   1.830   4.507  0.2116  0.1680  0.2124
  432MOL0     C59493   3.498   1.911   4.468 -0.7655 -0.4957  0.4306
  432MOL0     C59494   3.486   1.949   4.318 -0.5105 -0.4936 -0.2020
  432MOL0     N59495   3.347   1.975   4.277 -0.6378 -0.3943  0.1541
  432MOL0     C59496   3.293   1.942   4.152 -1.5256 -0.4408  0.2802
  432MOL0     C59497   3.171   1.994   4.159 -0.8417 -1.0135 -0.0332
  432MOL0     C59498   3.084   2.006   4.042  0.7488 -0.2594  0.7874
  432MOL0     C59499   2.934   1.946   4.051 -0.8241 -1.2526 -1.1090
  432MOL0     C59500   2.936   1.793   4.037 -0.9134 -0.5935 -0.6629
  432MOL0     C59501   2.802   1.739   4.064  0.5738 -0.0299  1.1313
  432MOL0     O59502   2.805   1.593   4.063  0.2162  0.1215 -1.0184
  432MOL0     C59503   2.685   1.536   4.067 -0.6278  0.5614 -0.4892
  432MOL0     C59504   2.675   1.399   4.036 -0.3678 -0.5880 -0.5675
  432MOL0     C59505   2.558   1.328   4.040  0.0922  0.1781 -0.5372
  432MOL0     C59506   2.567   1.176   4.016  0.3479 -0.6226  0.1873
  432MOL0     C59507   2.439   1.396   4.053 -0.4932 -0.3579  0.4109
  432MOL0     C59508   2.301   1.330   4.058  0.8269 -0.2303  0.3037
  432MOL0     O59509   2.189   1.390   4.096  0.1701  0.0299 -0.1161
  432MOL0     C59510   2.086   1.311   4.130  0.3714  0.1926  0.3181
  432MOL0     C59511   1.952   1.340   4.092  0.1903 -0.5273  0.1054
  432MOL0     C59512   1.847   1.261   4.120 -0.0796 -0.5108  0.1575
  432MOL0     C59513   1.868   1.155   4.207  0.3327  0.3742 -0.2418
  432MOL0     O59514   1.748   1.095   4.243  0.5331  0.5739  0.6544
  432MOL0     C59515   1.753   0.990   4.338 -0.2628 -0.4951 -0.0116
  432MOL0     C59516   1.618   0.965   4.388 -0.2331 -0.4247  1.0492
  432MOL0     C59517   1.625   0.918   4.531 -0.6401  0.0729 -1.0084
  432MOL0     C59518   1.700   0.783   4.539 -0.5506 -0.7310 -0.8186
  432MOL0     C59519   1.722   0.733   4.681  0.3910  0.7300 -1.2009
  432MOL0     C59520   1.846   0.801   4.730 -0.6742  0.4068  0.6128
  432MOL0     C59521   1.878   0.779   4.879  0.3029  0.5178 -0.2119
  432MOL0     C59522   1.915   0.633   4.899  0.4193 -0.2873  0.2047
  432MOL0    Cl59523   2.053   0.571   4.804  0.1543  0.0369 -0.2850
  432MOL0     C59524   1.992   1.117   4.248  0.0271 -0.0580  0.3638
  432MOL0     C59525   2.104   1.196   4.207 -0.1738  0.1435 -0.7020
  432MOL0     O59526   2.300   1.217   4.006  0.1490 -0.1298 -0.0426
  432MOL0     C59527   2.441   1.534   4.084 -0.1723  0.6332 -0.6093
  432MOL0     C59528   2.563   1.603   4.093  0.6417  0.9947  0.0373
  432MOL0     N59529   3.164   2.082   4.265 -0.2772 -0.8461 -0.4563
  432MOL0     N59530   3.265   2.065   4.340  0.3592 -0.1084 -0.4719
  432MOL0     C59531   4.340   1.603   4.577 -0.8177  0.6473  1.2514
  432MOL0     C59532   4.477   1.639   4.584 -0.1556  0.0193 -0.4213
  432MOL0     C59533   4.921   1.600   4.638  0.0525  0.1928 -0.3192
  432MOL0     C59534   5.024   1.513   4.608  0.0940  0.6504  0.0990
  432MOL0     C59535   5.161   1.538   4.633 -0.5422 -0.5921  0.8734
  432MOL0     C59536   5.197   1.660   4.687  0.6043 -0.0839 -0.6724
  432MOL0     O59537   5.331   1.701   4.690 -0.0882 -0.1693  0.4312
  432MOL0     C59538   5.400   1.703   4.816  0.4356  1.0052  0.3435
  432MOL0     C59539   5.464   1.840   4.842 -0.2612 -0.5787 -0.3758
  432MOL0     C59540   5.529   1.847   4.977 -0.4032  0.5974 -0.6012
  432MOL0     C59541   5.599   1.981   4.997 -0.5049 -0.1652 -0.0573
  432MOL0     C59542   5.494   2.086   5.028 -0.4880  0.4716 -0.2657
  432MOL0     C59543   5.404   2.167   5.032  0.0972 -0.5516  0.2521
  432MOL0     C59544   5.095   1.749   4.716 -1.2030 -0.1454  0.0466
  432MOL0     C59545   4.961   1.725   4.689 -0.7171  0.2161 -0.8015
  432MOL0     C59546   4.865   1.830   4.717  1.0661  0.9019 -0.6278
  432MOL0     H59547   4.558   1.493   4.878  0.6909 -2.0993 -0.5001
  432MOL0     H59548   4.327   1.419   4.862  0.6645  0.9515  0.6540
  432MOL0     H59549   3.958   1.514   4.671  1.9318 -1.5577  1.7118
  432MOL0     H59550   4.037   1.544   4.511  0.2262  2.0871 -0.5557
  432MOL0     H59551   4.065   1.731   4.754 -1.3996 -0.5763  0.4879
  432MOL0     H59552   4.114   1.767   4.585 -0.2259  1.6220  1.8481
  432MOL0     H59553   3.838   1.695   4.669  0.9653 -1.1539 -0.7865
  432MOL0     H59554   3.884   1.874   4.653 -0.4595 -0.5030 -0.6012
  432MOL0     H59555   3.954   1.830   4.401 -1.1312  0.0639 -2.2580
  432MOL0     H59556   3.869   1.681   4.413 -0.9372 -0.4093 -0.9164
  432MOL0     H59557   3.718   1.840   4.324  0.4815 -3.8792  0.2321
  432MOL0     H59558   3.776   1.968   4.430 -2.1629  0.4867 -0.4495
  432MOL0     H59559   3.589   1.728   4.497 -2.5565  1.2064 -0.5895
  432MOL0     H59560   3.651   1.847   4.612 -0.9032 -0.5435  0.5968
  432MOL0     H59561   3.503   1.998   4.535  1.3027  1.9291 -2.5777
  432MOL0     H59562   3.410   1.852   4.494 -0.3173 -1.6857 -0.6798
  432MOL0     H59563   3.552   2.035   4.300 -2.3310  0.8993 -0.5676
  432MOL0     H59564   3.526   1.865   4.261  1.8105  1.0446 -1.0019
  432MOL0     H59565   3.332   1.877   4.074 -0.0792 -1.9853  2.1903
  432MOL0     H59566   3.127   1.967   3.950  0.0788  0.6391  0.0719
  432MOL0     H59567   3.074   2.114   4.026 -2.0221  0.1084  3.8757
  432MOL0     H59568   2.887   1.981   4.143  1.8267  0.1232 -0.1821
  432MOL0     H59569   2.868   1.984   3.973  0.5315 -1.1118 -2.2229
  432MOL0     H59570   2.962   1.759   3.936  2.2025 -1.2482  0.2528
  432MOL0     H59571   3.008   1.748   4.105 -0.0889 -1.2944 -1.9622
  432MOL0     H59572   2.766   1.788   4.154 -1.3746  2.0820 -0.6933
  432MOL0     H59573   2.733   1.772   3.986  3.6245 -1.5878 -2.5800
  432MOL0     H59574   2.759   1.336   4.006  0.0288 -0.9584  1.2333
  432MOL0     H59575   2.663   1.128   4.040 -0.7280 -1.7727  2.5520
  432MOL0     H59576   2.536   1.159   3.913  0.0505 -0.4482  0.2469
  432MOL0     H59577   2.501   1.126   4.088  0.1102 -0.1414  0.3022
  432MOL0     H59578   1.934   1.437   4.047 -0.7341 -0.5503  0.3845
  432MOL0     H59579   1.749   1.284   4.079  0.7626  0.7199 -1.2802
  432MOL0     H59580   1.808   0.907   4.292 -0.4116 -0.1490 -0.8405
  432MOL0     H59581   1.813   1.030   4.420 -0.0523  2.2630 -1.3771
  432MOL0     H59582   1.557   1.055   4.384  1.5591  0.8104  0.0635
  432MOL0     H59583   1.566   0.901   4.316 -0.4359  1.1982 -0.3184
  432MOL0     H59584   1.518   0.897   4.548 -0.9815  1.1248 -1.7769
  432MOL0     H59585   1.658   0.996   4.600 -3.5822 -0.3760  1.1347
  432MOL0     H59586   1.803   0.795   4.503  0.4711  1.1086  2.2621
  432MOL0     H59587   1.646   0.716   4.473 -0.3390 -0.2365 -1.5042
  432MOL0     H59588   1.643   0.760   4.752  1.6408 -0.8149  0.8948
  432MOL0     H59589   1.741   0.625   4.689 -4.2553 -0.3141 -1.4735
  432MOL0     H59590   1.849   0.910   4.719 -0.6534  0.2211 -1.8287
  432MOL0     H59591   1.924   0.765   4.662 -0.4657  0.6764  0.7056
  432MOL0     H59592   1.786   0.801   4.934 -0.0752 -2.5313  0.5102
  432MOL0     H59593   1.958   0.837   4.927 -0.6789  0.6911  1.2727
  432MOL0     H59594   1.827   0.568   4.903 -1.5756  2.2699  0.6299
  432MOL0     H59595   1.961   0.618   4.998 -0.7549  1.9875  1.1704
  432MOL0     H59596   1.997   1.030   4.313 -0.3095 -0.4215 -0.0991
  432MOL0     H59597   2.207   1.167   4.228 -0.6520  0.9342  3.9284
  432MOL0     H59598   2.354   1.596   4.103 -0.9163 -0.1232 -1.4679
  432MOL0     H59599   2.548   1.708   4.115  0.2198  0.6965  1.2762
  432MOL0     H59600   4.280   1.651   4.501  0.0937  0.2914  0.2847
  432MOL0     H59601   4.518   1.714   4.517 -2.5247 -0.2194 -2.2428
  432MOL0     H59602   4.996   1.418   4.564 -1.9739  1.1405  0.2396
  432MOL0     H59603   5.236   1.466   4.602 -0.8533  0.3461 -2.4113
  432MOL0     H59604   5.339   1.680   4.904  1.2809 -2.2457  0.2081
  432MOL0     H59605   5.480   1.629   4.816  1.7863  2.4253 -0.5943
  432MOL0     H59606   5.387   1.917   4.831 -0.6744 -1.0782 -1.0822
  432MOL0     H59607   5.543   1.850   4.767 -0.7851 -0.5733 -0.9292
  432MOL0     H59608   5.470   1.817   5.064  0.6870 -0.2001 -0.1015
  432MOL0     H59609   5.607   1.771   4.987  1.0392  2.0974  0.1231
  432MOL0     H59610   5.670   2.011   4.920  1.2769 -1.5450  0.9766
  432MOL0     H59611   5.659   1.976   5.088  0.2440 -1.2300 -0.5908
  432MOL0     H59612   5.321   2.233   5.046 -0.1459 -0.3304 -1.9087
  432MOL0     H59613   5.127   1.844   4.757  0.6644 -0.2006 -1.1802
  432MOL0     H59614   4.821   1.817   4.816 -0.1074 -3.2211 -1.5007
  432MOL0     H59615   4.919   1.925   4.715  0.0032  1.5752  0.6805
  432MOL0     H59616   4.789   1.838   4.639  1.2405  0.3906 -0.8593
  433MOL0     O59617   7.399   3.720  11.060  0.3961 -0.5760  0.0628
  433MOL0     C59618   7.334   3.815  11.105  0.8102  0.3049 -0.4326
  433MOL0     O59619   7.350   3.861  11.235  0.3701 -0.0820 -0.0982
  433MOL0     C59620   7.417   3.769  11.309 -0.4489 -0.0669 -1.1506
  433MOL0     C59621   7.350   3.663  11.376 -0.6017  0.1640  0.7759
  433MOL0     C59622   7.413   3.584  11.470  0.6056  0.4151  0.4210
  433MOL0     C59623   7.541   3.624  11.525 -0.5596  0.4279  0.8878
  433MOL0     O59624   7.575   3.557  11.646  0.4864  0.2574  0.8786
  433MOL0     C59625   7.670   3.627  11.727  0.5604  0.7504  0.5646
  433MOL0     C59626   7.661   3.567  11.869 -0.5283  0.5747  0.6254
  433MOL0     C59627   7.739   3.433  11.883  0.7083  0.2640  0.6017
  433MOL0     C59628   7.884   3.445  11.921 -0.2195  0.7688  0.1850
  433MOL0     C59629   7.893   3.484  12.073  0.2929 -1.4852  0.1792
  433MOL0     C59630   8.035   3.459  12.128 -0.3172 -0.3472  0.1090
  433MOL0     C59631   8.091   3.320  12.116 -0.4953 -0.0258  0.3164
  433MOL0     C59632   8.235   3.312  12.164 -0.8234  0.8699  0.5141
  433MOL0     N59633   8.242   3.349  12.307  1.0827 -0.6078 -0.5896
  433MOL0     C59634   8.186   3.285  12.411 -0.6168 -0.1410 -0.2850
  433MOL0     C59635   8.196   3.372  12.519 -0.1528  0.4887 -0.0686
  433MOL0     C59636   8.112   3.346  12.645  0.0105  0.7224  0.4288
  433MOL0     C59637   7.989   3.445  12.656  0.0129  0.8205  0.6014
  433MOL0     C59638   7.880   3.412  12.569  0.6222 -0.3036  0.6548
  433MOL0     C59639   7.796   3.534  12.525  0.1211  2.2781 -0.1450
  433MOL0     O59640   7.744   3.508  12.395 -0.1721 -0.1261  0.5436
  433MOL0     C59641   7.622   3.448  12.378  0.3174  0.0179 -0.1836
  433MOL0     C59642   7.559   3.466  12.260  0.4412 -0.0975 -0.3579
  433MOL0     C59643   7.432   3.413  12.233 -0.0416  0.5027 -0.1861
  433MOL0     C59644   7.357   3.455  12.105 -0.7228 -0.3019  0.0734
  433MOL0     C59645   7.368   3.342  12.334 -0.9206  0.5394 -0.4179
  433MOL0     C59646   7.236   3.281  12.311  0.0058 -0.3061  0.1374
  433MOL0     O59647   7.131   3.319  12.395 -0.4330  0.1680 -0.4035
  433MOL0     C59648   7.012   3.242  12.414  0.1055 -0.5054 -0.6081
  433MOL0     C59649   6.897   3.302  12.461  0.2318 -0.0356 -0.2498
  433MOL0     C59650   6.776   3.231  12.487  0.3054 -0.2596  0.2783
  433MOL0     C59651   6.774   3.094  12.446 -0.0976 -1.1699  1.0376
  433MOL0     O59652   6.654   3.034  12.446  1.3588 -0.3449 -0.7101
  433MOL0     C59653   6.639   2.897  12.409  0.3431  0.3327  0.1150
  433MOL0     C59654   6.513   2.841  12.454  0.2445  0.0998 -0.1377
  433MOL0     C59655   6.500   2.850  12.607 -0.6139 -0.1324  0.3509
  433MOL0     C59656   6.352   2.838  12.655 -0.1897  0.0092 -0.5868
  433MOL0     C59657   6.318   2.684  12.652  0.0783 -0.3146  0.5062
  433MOL0     C59658   6.203   2.646  12.746  0.2863 -0.4246 -0.4522
  433MOL0     C59659   6.147   2.507  12.713 -0.0069  0.0127  0.1275
  433MOL0     C59660   6.038   2.475  12.816  1.0566 -0.1713  0.1684
  433MOL0    Cl59661   5.966   2.316  12.776  0.5029  0.2252  0.3555
  433MOL0     C59662   6.892   3.030  12.405  0.5136 -0.6046  0.0054
  433MOL0     C59663   7.005   3.101  12.399 -0.2983 -0.3111  0.3471
  433MOL0     O59664   7.215   3.212  12.214  0.8822 -0.0997  0.5820
  433MOL0     C59665   7.423   3.329  12.463 -0.5289 -0.6644  0.4164
  433MOL0     C59666   7.552   3.381  12.483  1.1414  0.2479  0.4800
  433MOL0     N59667   8.270   3.486  12.478  0.3143  0.3281  0.4972
  433MOL0     N59668   8.293   3.467  12.349 -0.1867 -0.4791  0.5839
  433MOL0     C59669   7.611   3.722  11.453  0.1247 -0.4696 -0.0679
  433MOL0     C59670   7.555   3.787  11.341  0.3013  0.0594  0.8846
  433MOL0     C59671   7.255   3.901  11.007 -0.2129  0.0707 -0.7921
  433MOL0     C59672   7.142   3.970  11.054  1.3779 -0.3153 -0.2555
  433MOL0     C59673   7.059   4.045  10.967  0.1690 -0.3196  0.0481
  433MOL0     C59674   7.101   4.063  10.834  0.0833 -1.1178  0.6408
  433MOL0     O59675   7.048   4.163  10.755 -1.0474  1.1500  0.0816
  433MOL0     C59676   6.910   4.147  10.740  0.0590  0.2976  0.6226
  433MOL0     C59677   6.873   4.164  10.590  0.2642  0.2083 -0.2936
  433MOL0     C59678   6.947   4.079  10.486  0.1016 -0.1583 -0.2281
  433MOL0     C59679   6.890   4.093  10.352 -0.2680 -0.6700  0.5870
  433MOL0     C59680   6.947   3.993  10.256  0.5441 -0.2635 -1.0467
  433MOL0     C59681   6.978   3.917  10.170 -0.3992  0.2780 -0.0866
  433MOL0     C59682   7.222   3.999  10.785  0.4265 -0.3017 -0.6984
  433MOL0     C59683   7.299   3.928  10.875 -0.0811  1.4311 -0.0021
  433MOL0     C59684   7.439   3.892  10.825 -1.3706  0.8504 -0.0222
  433MOL0     H59685   7.242   3.656  11.367 -0.7774  0.6371  2.1815
  433MOL0     H59686   7.357   3.505  11.519  2.5459 -0.1781  1.7896
  433MOL0     H59687   7.654   3.736  11.724  4.4957  1.5355  1.9423
  433MOL0     H59688   7.771   3.606  11.691 -0.2416 -1.1879 -0.7066
  433MOL0     H59689   7.698   3.634  11.947 -0.9756  1.8151 -0.1880
  433MOL0     H59690   7.558   3.556  11.904 -0.1206 -0.1833  1.6246
  433MOL0     H59691   7.688   3.389  11.969  3.1160 -0.5590  1.6692
  433MOL0     H59692   7.711   3.356  11.810  0.8546 -1.2160  2.0435
  433MOL0     H59693   7.919   3.344  11.894 -1.6999  0.4217 -0.5142
  433MOL0     H59694   7.942   3.512  11.856  2.8282 -1.2201  0.6257
  433MOL0     H59695   7.827   3.432  12.143  1.8363 -2.4006  1.0198
  433MOL0     H59696   7.873   3.591  12.084 -0.6520 -1.4347 -1.6509
  433MOL0     H59697   8.114   3.522  12.085  0.5300 -1.3359  0.1801
  433MOL0     H59698   8.020   3.497  12.229  2.5233 -2.3945  1.4244
  433MOL0     H59699   8.096   3.285  12.012 -1.2584  1.9984 -0.4570
  433MOL0     H59700   8.025   3.251  12.170 -1.7170  0.0252 -1.0270
  433MOL0     H59701   8.261   3.208  12.144 -1.0690  1.3608 -3.1239
  433MOL0     H59702   8.297   3.374  12.098 -0.2513 -1.9841 -1.8246
  433MOL0     H59703   8.122   3.197  12.401  1.4866 -1.8476  0.3633
  433MOL0     H59704   8.173   3.374  12.732 -0.8925  3.4611  0.2871
  433MOL0     H59705   8.090   3.239  12.647 -0.6716  0.8198 -0.8463
  433MOL0     H59706   7.947   3.437  12.757 -0.2710 -3.1340  0.3441
  433MOL0     H59707   8.033   3.544  12.642 -1.2115  1.3294  0.2732
  433MOL0     H59708   7.926   3.357  12.486  0.5082 -0.6612  0.8250
  433MOL0     H59709   7.822   3.331  12.616  0.7026 -0.0917  1.1256
  433MOL0     H59710   7.720   3.555  12.601 -0.6949  1.7141 -0.7872
  433MOL0     H59711   7.862   3.622  12.521  0.7550  1.8934  1.2043
  433MOL0     H59712   7.603   3.529  12.184 -0.0824 -0.5503 -1.0433
  433MOL0     H59713   7.275   3.522  12.130  2.7725  3.6011  2.3610
  433MOL0     H59714   7.325   3.364  12.053  2.5284 -1.2323 -0.5586
  433MOL0     H59715   7.425   3.514  12.044 -2.9580  0.5671 -1.7206
  433MOL0     H59716   6.899   3.406  12.494 -0.2235  0.9741 -3.0965
  433MOL0     H59717   6.691   3.292  12.515  0.8721  1.3527 -1.3685
  433MOL0     H59718   6.653   2.873  12.304 -1.3891  1.5480 -0.4340
  433MOL0     H59719   6.715   2.840  12.464 -0.0926  0.4413  0.8510
  433MOL0     H59720   6.433   2.906  12.417  0.4770  0.5040  0.0527
  433MOL0     H59721   6.505   2.736  12.426  1.6604  0.4247 -1.9431
  433MOL0     H59722   6.535   2.947  12.645 -2.4487 -0.3084  2.7900
  433MOL0     H59723   6.560   2.770  12.651 -1.6727 -0.0268  2.1233
  433MOL0     H59724   6.281   2.899  12.597 -0.8634  2.0301  2.1738
  433MOL0     H59725   6.344   2.884  12.754 -0.5690  0.9794 -1.0544
  433MOL0     H59726   6.292   2.672  12.546  0.7030  2.8218 -0.0835
  433MOL0     H59727   6.403   2.625  12.688  0.2505  0.8163  2.0296
  433MOL0     H59728   6.124   2.721  12.732  0.2148 -0.6173 -1.1437
  433MOL0     H59729   6.241   2.661  12.847  4.5577  1.6539 -2.1254
  433MOL0     H59730   6.225   2.431  12.712  0.1159  0.1359 -0.6102
  433MOL0     H59731   6.095   2.505  12.617 -1.7873 -0.8545  1.0636
  433MOL0     H59732   5.959   2.550  12.819 -1.7245 -2.8166 -1.4057
  433MOL0     H59733   6.081   2.459  12.915 -0.1875 -0.7012  0.6387
  433MOL0     H59734   6.910   2.924  12.391  3.9874 -0.1462  0.1049
  433MOL0     H59735   7.096   3.043  12.391  0.4679  0.7181  1.3174
  433MOL0     H59736   7.356   3.269  12.524 -1.5592 -0.4061 -0.4272
  433MOL0     H59737   7.605   3.349  12.572  0.9079  2.1352  1.3537
  433MOL0     H59738   7.716   3.736  11.476  0.1180 -2.3931  1.4214
  433MOL0     H59739   7.603   3.864  11.283 -1.1771  0.8321  0.6385
  433MOL0     H59740   7.106   3.969  11.156  2.2372  1.5604  0.1030
  433MOL0     H59741   6.984   4.108  11.014  1.8488  3.0619 -1.4331
  433MOL0     H59742   6.877   4.057  10.792 -1.3489 -1.6396 -3.2527
  433MOL0     H59743   6.852   4.224  10.792 -1.1412  1.4158 -2.1671
  433MOL0     H59744   6.890   4.271  10.575  1.8394 -0.1241 -1.0699
  433MOL0     H59745   6.765   4.149  10.588  0.1608  0.9562 -1.2862
  433MOL0     H59746   7.049   4.118  10.481  0.2984 -0.5457  0.5508
  433MOL0     H59747   6.976   3.981  10.525  5.1738  2.3042  3.4362
  433MOL0     H59748   6.924   4.188  10.308  1.6866 -2.5310 -2.2531
  433MOL0     H59749   6.781   4.084  10.350 -0.7153  2.8117 -2.4808
  433MOL0     H59750   7.024   3.846  10.103  1.1629  2.0156 -0.9173
  433MOL0     H59751   7.261   4.017  10.686  1.9249  0.8369  0.0573
  433MOL0     H59752   7.416   3.802  10.768 -2.6839  0.8688  0.4609
  433MOL0     H59753   7.477   3.975  10.765 -0.1522 -0.3735 -1.0231
  433MOL0     H59754   7.500   3.880  10.915 -1.2562 -0.5316 -0.2633
  434MOL0     O59755   0.577   6.687   7.621  0.6503  0.3684  1.0527
  434MOL0     C59756   0.507   6.656   7.713  1.0394 -0.2589  0.2911
  434MOL0     O59757   0.541   6.556   7.794  0.1935  0.4093 -0.2886
  434MOL0     C59758   0.654   6.475   7.767  0.5913  0.0196  0.6342
  434MOL0     C59759   0.634   6.334   7.785 -0.9921  0.0407 -1.0430
  434MOL0     C59760   0.740   6.240   7.774  0.0550 -0.8236 -0.4057
  434MOL0     C59761   0.865   6.286   7.731 -0.7442  1.1674  0.0508
  434MOL0     O59762   0.960   6.185   7.713  0.5818 -0.4447  0.7014
  434MOL0     C59763   1.097   6.216   7.676 -0.3153 -0.1484 -0.2301
  434MOL0     C59764   1.169   6.254   7.807 -0.5178 -1.0150 -0.1413
  434MOL0     C59765   1.303   6.313   7.777 -0.2304 -0.9225 -0.3611
  434MOL0     C59766   1.399   6.279   7.890 -0.1050 -0.9994 -0.2140
  434MOL0     C59767   1.537   6.330   7.861 -0.2950 -0.7307  0.4025
  434MOL0     C59768   1.632   6.283   7.964  0.4872 -0.5234  0.8669
  434MOL0     C59769   1.774   6.313   7.917 -0.1445 -1.0214 -0.2087
  434MOL0     C59770   1.883   6.255   8.018  0.5496 -0.0770 -0.1915
  434MOL0     N59771   2.010   6.328   8.016  0.4360  0.4251  0.2966
  434MOL0     C59772   2.128   6.276   7.970 -0.5894 -0.5068 -1.3521
  434MOL0     C59773   2.215   6.380   7.998 -0.5072 -0.1755 -0.1203
  434MOL0     C59774   2.363   6.372   7.962  0.1849 -0.2318  0.1675
  434MOL0     C59775   2.449   6.351   8.074 -0.5595 -0.0307  1.1615
  434MOL0     C59776   2.594   6.358   8.035 -0.8628  0.4432 -0.3202
  434MOL0     C59777   2.681   6.337   8.163 -0.5122  0.4279  0.5873
  434MOL0     O59778   2.810   6.408   8.168 -0.9001  0.2433  0.3949
  434MOL0     C59779   2.894   6.417   8.057 -0.8950 -0.7035 -0.3202
  434MOL0     C59780   2.975   6.523   8.069 -0.1935 -0.6442 -0.9836
  434MOL0     C59781   3.084   6.544   7.983 -0.3673  0.3000 -0.4819
  434MOL0     C59782   3.165   6.677   7.997  0.7280  0.9655 -0.7775
  434MOL0     C59783   3.097   6.446   7.874  0.1921  0.1075  0.4457
  434MOL0     C59784   3.189   6.463   7.767 -0.2048 -0.3055 -0.8011
  434MOL0     O59785   3.140   6.458   7.641 -0.1822 -0.3806  0.5000
  434MOL0     C59786   3.236   6.454   7.541 -0.4716  0.7723  0.4954
  434MOL0     C59787   3.254   6.329   7.481  0.0518 -0.4599  0.0543
  434MOL0     C59788   3.344   6.322   7.374 -0.4825 -1.0742  0.1588
  434MOL0     C59789   3.405   6.447   7.320  0.1868  0.2426 -0.7103
  434MOL0     O59790   3.486   6.426   7.207  0.0168 -0.1922  0.0435
  434MOL0     C59791   3.583   6.529   7.172 -0.0537 -1.1531  0.2639
  434MOL0     C59792   3.681   6.463   7.079 -0.5712 -0.1286 -0.0660
  434MOL0     C59793   3.637   6.449   6.936  0.0173 -0.1019 -0.1867
  434MOL0     C59794   3.741   6.367   6.864 -0.4645  0.5946  0.3929
  434MOL0     C59795   3.703   6.320   6.720  0.6529  0.2424  0.4844
  434MOL0     C59796   3.658   6.436   6.612 -0.3208  0.1267 -0.7677
  434MOL0     C59797   3.602   6.373   6.487  0.2480 -0.7709  0.7357
  434MOL0     C59798   3.632   6.444   6.365  0.5477  0.8546 -0.1327
  434MOL0    Cl59799   3.809   6.446   6.330 -0.6279 -0.0050 -0.2720
  434MOL0     C59800   3.388   6.570   7.391  0.2174  0.1195  0.7468
  434MOL0     C59801   3.305   6.572   7.500 -0.3320  0.2415 -0.3855
  434MOL0     O59802   3.303   6.506   7.796  0.0049 -0.1460 -0.7984
  434MOL0     C59803   3.014   6.339   7.859  0.8140  0.3831 -0.2587
  434MOL0     C59804   2.901   6.320   7.948  0.3013  0.0975 -0.6217
  434MOL0     N59805   2.156   6.477   8.079 -0.6937 -0.2067  0.7795
  434MOL0     N59806   2.032   6.445   8.085  0.1479  0.9947  0.0926
  434MOL0     C59807   0.891   6.417   7.701  1.0696  0.4240  0.4620
  434MOL0     C59808   0.787   6.512   7.718  0.3990 -0.0354 -0.5663
  434MOL0     C59809   0.380   6.724   7.727 -0.3660  0.3779  0.6970
  434MOL0     C59810   0.380   6.866   7.725  0.3093 -0.1801 -0.9682
  434MOL0     C59811   0.264   6.945   7.752 -0.2306  0.6684  0.2446
  434MOL0     C59812   0.146   6.881   7.770 -0.7749 -1.4448  0.4093
  434MOL0     O59813   0.046   6.957   7.820  0.1926  0.3957 -0.0814
  434MOL0     C59814  -0.094   6.915   7.826 -0.3044 -0.1028  0.3916
  434MOL0     C59815  -0.176   7.046   7.849  0.2761  0.2026  1.2712
  434MOL0     C59816  -0.325   7.022   7.831 -0.3339 -0.2945 -0.0712
  434MOL0     C59817  -0.365   6.922   7.941 -0.4448 -0.2107  0.2729
  434MOL0     C59818  -0.511   6.918   7.971  0.5152 -0.1894 -0.0292
  434MOL0     C59819  -0.632   6.907   8.001  0.1778 -0.2459 -0.9528
  434MOL0     C59820   0.139   6.740   7.758 -0.2752 -0.6230  0.4846
  434MOL0     C59821   0.253   6.657   7.742  0.6232  0.0962  0.1104
  434MOL0     C59822   0.225   6.515   7.749 -0.0969  0.3111 -0.9926
  434MOL0     H59823   0.534   6.299   7.808 -1.4019  2.0987  0.6486
  434MOL0     H59824   0.724   6.132   7.782 -0.6687 -0.7295 -0.4948
  434MOL0     H59825   1.099   6.293   7.598 -5.0652 -1.2812 -1.7659
  434MOL0     H59826   1.145   6.127   7.635 -1.5196  1.4047 -5.8906
  434MOL0     H59827   1.107   6.332   7.854  0.2100 -0.4580 -0.0803
  434MOL0     H59828   1.181   6.163   7.867  0.1026 -0.1543  1.0879
  434MOL0     H59829   1.342   6.272   7.683 -0.3486  1.0468 -1.3227
  434MOL0     H59830   1.275   6.418   7.771 -0.0230 -0.8060  0.6081
  434MOL0     H59831   1.361   6.328   7.980 -1.4877  1.7983 -2.1979
  434MOL0     H59832   1.411   6.171   7.902  3.3554 -0.6678  0.4658
  434MOL0     H59833   1.542   6.438   7.844 -2.3439 -0.7325 -0.6647
  434MOL0     H59834   1.554   6.282   7.764  1.0592  2.2775 -0.9810
  434MOL0     H59835   1.620   6.336   8.059  0.8937  0.9378  0.1350
  434MOL0     H59836   1.618   6.175   7.973 -1.8679 -0.2686  0.8821
  434MOL0     H59837   1.791   6.418   7.892  0.0992 -1.1974 -0.8240
  434MOL0     H59838   1.789   6.251   7.828  2.3597 -2.2469  0.9834
  434MOL0     H59839   1.829   6.270   8.113 -1.5668  2.9665 -1.6979
  434MOL0     H59840   1.892   6.148   7.998 -1.6669 -0.4416  0.4637
  434MOL0     H59841   2.144   6.178   7.926  0.4781 -1.1825  0.4202
  434MOL0     H59842   2.406   6.459   7.910 -0.0744 -0.3514 -0.2538
  434MOL0     H59843   2.387   6.284   7.902  1.7338 -0.0176  0.4211
  434MOL0     H59844   2.437   6.433   8.145 -0.3952  2.2335 -1.3128
  434MOL0     H59845   2.446   6.255   8.128  0.6143  0.9110  2.9991
  434MOL0     H59846   2.623   6.291   7.953  1.7886  1.4443 -0.2987
  434MOL0     H59847   2.611   6.458   7.996 -2.0220  0.6901 -0.2119
  434MOL0     H59848   2.625   6.366   8.252  1.7479  1.8920  1.6154
  434MOL0     H59849   2.706   6.231   8.169  0.3255  0.5032 -1.0920
  434MOL0     H59850   2.952   6.598   8.144 -6.1819  0.4255 -3.3050
  434MOL0     H59851   3.266   6.670   7.955  0.2683  2.0117 -2.1226
  434MOL0     H59852   3.176   6.704   8.103  0.8837 -3.9065  0.6625
  434MOL0     H59853   3.120   6.758   7.939 -3.2893 -0.6307 -0.1967
  434MOL0     H59854   3.208   6.235   7.509 -0.2001  0.1651  1.8601
  434MOL0     H59855   3.370   6.236   7.314  0.9401  0.7259 -1.9736
  434MOL0     H59856   3.527   6.609   7.121  4.6443  2.4785  0.0821
  434MOL0     H59857   3.628   6.559   7.267  0.1370 -0.5868  0.0014
  434MOL0     H59858   3.775   6.517   7.091  0.5586 -2.2295  1.1585
  434MOL0     H59859   3.705   6.367   7.125 -1.2014  0.9397  2.6463
  434MOL0     H59860   3.619   6.549   6.895 -2.9896  0.0340  1.1477
  434MOL0     H59861   3.537   6.405   6.925  0.6691 -1.1501 -3.0083
  434MOL0     H59862   3.770   6.280   6.924 -0.0591 -2.2334 -3.5586
  434MOL0     H59863   3.831   6.429   6.857 -1.0199  1.3052 -0.6321
  434MOL0     H59864   3.790   6.265   6.682  0.7303 -0.7230  1.9899
  434MOL0     H59865   3.629   6.239   6.718  3.0747 -2.1113  0.2064
  434MOL0     H59866   3.746   6.498   6.592  1.7286 -1.6007  2.0965
  434MOL0     H59867   3.582   6.495   6.664  1.5114  0.6695  1.4645
  434MOL0     H59868   3.494   6.362   6.500  0.3134 -5.5960 -0.9766
  434MOL0     H59869   3.657   6.279   6.488  0.2868 -0.7475  0.7824
  434MOL0     H59870   3.596   6.547   6.365 -2.3368 -0.0399 -0.8458
  434MOL0     H59871   3.560   6.395   6.298 -1.1459  1.2892  1.2729
  434MOL0     H59872   3.450   6.652   7.358  0.8138 -0.6756 -0.1563
  434MOL0     H59873   3.286   6.664   7.554 -0.2290  0.1998 -0.2768
  434MOL0     H59874   3.033   6.274   7.774 -0.2781  0.7679 -0.8105
  434MOL0     H59875   2.840   6.230   7.946  0.2324  0.1245  0.0940
  434MOL0     H59876   0.981   6.450   7.650  1.0598  1.7824  1.2724
  434MOL0     H59877   0.803   6.615   7.687  0.2101  0.1447 -0.0753
  434MOL0     H59878   0.473   6.915   7.698  0.8120 -0.6072 -0.0189
  434MOL0     H59879   0.279   7.053   7.756 -0.4547  0.9501 -3.4813
  434MOL0     H59880  -0.122   6.865   7.732 -0.1229  0.6716 -0.0819
  434MOL0     H59881  -0.104   6.851   7.914  0.5763 -0.7167  0.0517
  434MOL0     H59882  -0.138   7.119   7.777  2.3204 -1.8435  0.1197
  434MOL0     H59883  -0.161   7.089   7.948 -0.1945 -0.2056  1.5255
  434MOL0     H59884  -0.365   7.123   7.818 -0.6990 -0.5910 -1.3498
  434MOL0     H59885  -0.346   6.988   7.729 -0.7955  0.8098 -0.3630
  434MOL0     H59886  -0.305   6.939   8.031 -0.9338 -1.0522  0.7760
  434MOL0     H59887  -0.351   6.818   7.908 -4.0594 -0.5371 -0.6582
  434MOL0     H59888  -0.733   6.891   8.030  0.8038  0.9200  2.1768
  434MOL0     H59889   0.040   6.697   7.768  0.0528 -1.5807 -0.2161
  434MOL0     H59890   0.217   6.482   7.853 -3.3150  1.2254 -0.8533
  434MOL0     H59891   0.133   6.483   7.699  0.2115 -2.4912  0.0316
  434MOL0     H59892   0.303   6.458   7.697  2.5095  1.8214  1.0207
  435MOL0     O59893   3.544   8.525  10.844  0.3749 -0.9126  0.3603
  435MOL0     C59894   3.541   8.636  10.783  0.2072 -0.3927  0.2517
  435MOL0     O59895   3.543   8.762  10.835  0.5990 -0.0543 -0.3831
  435MOL0     C59896   3.539   8.792  10.971 -0.2320  0.6042 -0.1445
  435MOL0     C59897   3.559   8.926  11.002 -0.5587 -0.8273  1.0921
  435MOL0     C59898   3.551   8.967  11.134 -0.2194  1.2987 -0.1222
  435MOL0     C59899   3.510   8.885  11.240 -0.5295 -0.6685 -0.3743
  435MOL0     O59900   3.495   8.926  11.370  0.6993  0.0176  0.7248
  435MOL0     C59901   3.538   9.061  11.410  0.0215 -0.2655 -0.2448
  435MOL0     C59902   3.541   9.065  11.566 -0.1395  0.0176  0.0067
  435MOL0     C59903   3.588   9.194  11.628  0.2042  0.5293 -0.3980
  435MOL0     C59904   3.726   9.232  11.573  0.0680  0.3920 -1.2277
  435MOL0     C59905   3.794   9.351  11.642 -0.4273  0.0737 -0.2934
  435MOL0     C59906   3.937   9.365  11.577  0.6528  0.5614 -0.3800
  435MOL0     C59907   4.011   9.477  11.649  0.1630  0.1998  0.7217
  435MOL0     C59908   3.963   9.623  11.601  0.1604  0.1985 -0.1013
  435MOL0     N59909   3.838   9.669  11.672 -1.2016 -0.0501 -0.1211
  435MOL0     C59910   3.755   9.758  11.603  0.2419  0.1081 -0.4792
  435MOL0     C59911   3.670   9.787  11.703 -0.3666  0.2737  0.6058
  435MOL0     C59912   3.554   9.873  11.684 -0.9185  0.9036 -0.5853
  435MOL0     C59913   3.441   9.863  11.788 -0.8118 -0.4235  0.0463
  435MOL0     C59914   3.316   9.935  11.733  0.3249  0.2136 -0.1113
  435MOL0     C59915   3.193   9.914  11.816  0.5798 -0.4041 -0.0172
  435MOL0     O59916   3.218   9.996  11.930 -0.8291 -0.1798 -0.4782
  435MOL0     C59917   3.147   9.982  12.046  0.3533 -0.7688  0.0140
  435MOL0     C59918   3.206  10.019  12.164  0.0938  0.2030 -0.6842
  435MOL0     C59919   3.146   9.999  12.287  0.0018 -0.2208  0.8221
  435MOL0     C59920   3.228  10.043  12.413  0.1889  0.6879 -0.5455
  435MOL0     C59921   3.013   9.944  12.291  0.0714  0.5242  0.9832
  435MOL0     C59922   2.930   9.913  12.417  0.5602  0.6637 -1.0167
  435MOL0     O59923   2.798   9.865  12.398 -0.4971 -0.1831 -0.2107
  435MOL0     C59924   2.740   9.817  12.514 -0.9707  0.2502  0.3562
  435MOL0     C59925   2.732   9.884  12.630 -0.8066  0.9082 -0.4936
  435MOL0     C59926   2.668   9.831  12.745  0.3504 -0.2161  0.2881
  435MOL0     C59927   2.597   9.711  12.732 -0.0703  0.7425 -0.0680
  435MOL0     O59928   2.525   9.653  12.841 -0.4776 -0.0184  0.2673
  435MOL0     C59929   2.585   9.660  12.963 -0.9870 -0.2452 -0.4740
  435MOL0     C59930   2.527   9.566  13.054  0.0509  0.4606 -0.5448
  435MOL0     C59931   2.604   9.545  13.180  0.3557  0.4858  0.5839
  435MOL0     C59932   2.547   9.440  13.273  0.3177 -0.1867  0.4771
  435MOL0     C59933   2.624   9.409  13.402 -0.1083  0.5410 -1.1842
  435MOL0     C59934   2.731   9.296  13.388  0.1907 -0.2462 -0.5634
  435MOL0     C59935   2.879   9.348  13.380  0.1030  0.0381 -0.3460
  435MOL0     C59936   2.987   9.240  13.373 -0.2390 -0.5063  0.2157
  435MOL0    Cl59937   3.037   9.177  13.537 -0.1810  0.3397 -0.0679
  435MOL0     C59938   2.595   9.650  12.612 -0.5805 -0.6189  0.1132
  435MOL0     C59939   2.675   9.695  12.506 -0.2090  0.0246 -0.1251
  435MOL0     O59940   2.976   9.941  12.526  0.8185  0.0534  0.4943
  435MOL0     C59941   2.953   9.917  12.172  0.7600  0.2997  0.8384
  435MOL0     C59942   3.016   9.942  12.048  0.9541 -0.4469 -0.5763
  435MOL0     N59943   3.694   9.709  11.823 -0.5413 -0.7482 -0.1028
  435MOL0     N59944   3.801   9.643  11.799  0.3915  0.4366  0.6293
  435MOL0     C59945   3.495   8.750  11.207  0.6864 -0.8503 -0.6002
  435MOL0     C59946   3.508   8.703  11.077  0.4764 -0.2504 -0.0344
  435MOL0     C59947   3.513   8.630  10.637 -0.1062  0.5556 -0.2794
  435MOL0     C59948   3.479   8.750  10.573 -0.0643 -0.5598 -0.3756
  435MOL0     C59949   3.450   8.759  10.436  0.2705 -0.4420  0.1204
  435MOL0     C59950   3.464   8.645  10.355 -0.6403 -0.2557 -0.2243
  435MOL0     O59951   3.458   8.632  10.219  0.9207 -0.5452 -0.3141
  435MOL0     C59952   3.417   8.746  10.140  0.4466  1.0029  0.3637
  435MOL0     C59953   3.250   8.768  10.129  0.7293  0.2913  0.4813
  435MOL0     C59954   3.220   8.905  10.053  0.0988 -0.6512 -0.1549
  435MOL0     C59955   3.068   8.941  10.046 -0.6986 -0.6109  0.7019
  435MOL0     C59956   3.042   9.077   9.996 -0.4014 -0.3156  0.2203
  435MOL0     C59957   3.021   9.183   9.945  0.6498  0.0654  0.2285
  435MOL0     C59958   3.490   8.521  10.418  0.2040  0.2912  0.0522
  435MOL0     C59959   3.506   8.510  10.562  0.1145 -0.1134  0.2827
  435MOL0     C59960   3.544   8.374  10.613  0.2057 -1.0451  0.1199
  435MOL0     H59961   3.574   8.995  10.920  2.1758 -1.2638  1.1603
  435MOL0     H59962   3.563   9.073  11.153 -0.1329  1.2378  0.1809
  435MOL0     H59963   3.462   9.134  11.380 -0.4507  0.6378  2.8736
  435MOL0     H59964   3.634   9.095  11.369  0.4593  0.2631  1.1519
  435MOL0     H59965   3.436   9.040  11.588  0.4924 -1.2964  1.7100
  435MOL0     H59966   3.596   8.976  11.599 -0.4806  0.2449  1.2275
  435MOL0     H59967   3.508   9.267  11.614  0.4399  0.6509 -1.1462
  435MOL0     H59968   3.589   9.182  11.737  1.5637 -0.2587 -0.4718
  435MOL0     H59969   3.797   9.150  11.591  0.0998  0.8790  1.0966
  435MOL0     H59970   3.721   9.252  11.465  1.1011 -3.6419 -2.2131
  435MOL0     H59971   3.797   9.340  11.750  1.5555 -0.7160 -0.3873
  435MOL0     H59972   3.729   9.435  11.614  0.7212  1.7713  1.8315
  435MOL0     H59973   4.004   9.279  11.590 -0.7420 -0.1139  3.3055
  435MOL0     H59974   3.931   9.375  11.468 -3.7293 -0.4961 -0.3947
  435MOL0     H59975   4.118   9.476  11.629  0.4708  0.1155  2.2713
  435MOL0     H59976   4.014   9.461  11.757  0.0138 -0.4303  0.6397
  435MOL0     H59977   4.043   9.695  11.623  1.2698 -0.1769 -2.5987
  435MOL0     H59978   3.950   9.625  11.493  2.5763 -1.9055 -0.5195
  435MOL0     H59979   3.740   9.779  11.498 -1.4525 -0.7987 -0.4537
  435MOL0     H59980   3.510   9.834  11.591  0.4968 -0.8628 -0.5847
  435MOL0     H59981   3.582   9.976  11.663  0.8706  0.7936  0.9778
  435MOL0     H59982   3.417   9.757  11.801  0.2466 -0.4500  2.3068
  435MOL0     H59983   3.468   9.883  11.892 -1.6197 -2.6720  0.7464
  435MOL0     H59984   3.321  10.044  11.722 -0.8799  0.3959  0.9441
  435MOL0     H59985   3.300   9.889  11.635 -2.9612 -2.8546  1.6337
  435MOL0     H59986   3.106   9.956  11.765  0.1102 -2.0747 -0.6468
  435MOL0     H59987   3.172   9.808  11.833 -2.7746 -0.1032 -1.5557
  435MOL0     H59988   3.309  10.050  12.151  0.4333 -0.9284 -0.7524
  435MOL0     H59989   3.256   9.954  12.471 -0.1619  1.2849  0.5849
  435MOL0     H59990   3.165  10.108  12.474 -2.7459 -2.1489 -0.2362
  435MOL0     H59991   3.321  10.091  12.382  1.5389 -0.6724  1.1673
  435MOL0     H59992   2.772   9.984  12.641  1.2745  0.1276 -0.6415
  435MOL0     H59993   2.668   9.890  12.836  1.4662  0.4526 -0.1316
  435MOL0     H59994   2.689   9.630  12.946 -0.0039  1.7566  1.5540
  435MOL0     H59995   2.580   9.761  13.004 -0.8139  0.4738 -2.1207
  435MOL0     H59996   2.421   9.584  13.073  0.4715  1.9584  0.5527
  435MOL0     H59997   2.528   9.472  12.998 -2.1862  0.6847 -1.0764
  435MOL0     H59998   2.613   9.643  13.228  1.9942  0.0677  1.2022
  435MOL0     H59999   2.703   9.520  13.142 -0.2785 -0.0189 -0.7862
  435MOL0     H60000   2.536   9.343  13.222 -1.4165 -0.8337  1.9817
  435MOL0     H60001   2.444   9.457  13.303  0.9166  0.3177  2.3869
  435MOL0     H60002   2.669   9.506  13.424 -1.7498  1.0542  0.2035
  435MOL0     H60003   2.563   9.393  13.492  1.8819  0.5293  0.2152
  435MOL0     H60004   2.708   9.243  13.296 -0.9945 -1.7231  0.5286
  435MOL0     H60005   2.724   9.223  13.469  5.0754  2.0919  2.4504
  435MOL0     H60006   2.902   9.417  13.461  0.0236 -0.6673  0.2863
  435MOL0     H60007   2.897   9.407  13.290  1.3608  0.3260  0.0853
  435MOL0     H60008   3.082   9.269  13.327 -1.9190 -2.0401 -4.8858
  435MOL0     H60009   2.942   9.161  13.313  2.4002  0.4955 -3.4348
  435MOL0     H60010   2.536   9.559  12.602 -0.8261 -0.5145  0.5811
  435MOL0     H60011   2.686   9.630  12.420  0.4560  2.4146 -1.9484
  435MOL0     H60012   2.848   9.889  12.170  0.4552  1.3324  1.5328
  435MOL0     H60013   2.955   9.917  11.961  2.2719  1.5454 -2.1557
  435MOL0     H60014   3.473   8.681  11.288  0.7719 -0.5189 -0.2915
  435MOL0     H60015   3.482   8.599  11.063 -1.9703  0.3697 -0.5142
  435MOL0     H60016   3.486   8.837  10.637 -1.6637 -0.8575  0.2590
  435MOL0     H60017   3.431   8.858  10.395  2.5027 -0.1861 -0.4683
  435MOL0     H60018   3.480   8.833  10.161 -0.0618  2.0296 -1.9785
  435MOL0     H60019   3.470   8.731  10.045  1.7786 -1.2338  1.3795
  435MOL0     H60020   3.200   8.788  10.224 -3.8500  0.0218 -1.6240
  435MOL0     H60021   3.198   8.688  10.076  1.1618  0.4519 -0.1990
  435MOL0     H60022   3.268   8.984  10.112 -1.6049  0.1526  0.2209
  435MOL0     H60023   3.257   8.913   9.951  0.2553 -0.7759 -0.1080
  435MOL0     H60024   3.021   8.919  10.142 -0.9801 -0.5779  0.5706
  435MOL0     H60025   3.012   8.883   9.973 -0.9783 -0.1971  0.5818
  435MOL0     H60026   3.000   9.276   9.897 -1.5755 -0.2879  0.3739
  435MOL0     H60027   3.481   8.437  10.351  0.5957  1.2649 -1.2555
  435MOL0     H60028   3.477   8.332  10.689  0.4186  1.0959  1.5884
  435MOL0     H60029   3.544   8.305  10.529 -1.6671  0.7210 -1.4258
  435MOL0     H60030   3.644   8.389  10.654 -1.1441 -0.0808  3.3981
  436MOL0     O60031   4.350   0.257   5.981 -0.6659 -0.2924  0.6760
  436MOL0     C60032   4.409   0.190   5.897  0.6033  0.0007 -1.2215
  436MOL0     O60033   4.539   0.182   5.884 -0.1147 -0.2534 -0.2410
  436MOL0     C60034   4.623   0.211   5.991  0.3959 -0.4275 -0.1012
  436MOL0     C60035   4.753   0.250   5.961  0.9994  0.5922 -0.1874
  436MOL0     C60036   4.849   0.265   6.077 -0.3933  0.7140 -0.3084
  436MOL0     C60037   4.816   0.240   6.212 -0.6295  0.2893 -0.5432
  436MOL0     O60038   4.895   0.259   6.329 -0.4211 -0.6521 -0.2538
  436MOL0     C60039   5.036   0.255   6.299  0.0686 -0.1888 -0.1841
  436MOL0     C60040   5.105   0.119   6.281 -0.0911 -0.7224  0.1996
  436MOL0     C60041   5.258   0.113   6.256 -0.2557  1.0743  0.6246
  436MOL0     C60042   5.330   0.205   6.359  0.6279 -0.2066 -0.0266
  436MOL0     C60043   5.483   0.174   6.347  0.7380 -0.1727 -0.2437
  436MOL0     C60044   5.559   0.278   6.430 -0.2050  0.2600  0.0596
  436MOL0     C60045   5.717   0.264   6.429  0.4856 -1.4180  0.2010
  436MOL0     C60046   5.787   0.357   6.532  0.5183 -0.6455 -0.9260
  436MOL0     N60047   5.798   0.481   6.466 -0.9753 -0.5228 -0.3888
  436MOL0     C60048   5.697   0.564   6.448 -0.5822  1.0915  0.9337
  436MOL0     C60049   5.741   0.673   6.379  0.3320  1.1907 -0.5821
  436MOL0     C60050   5.651   0.784   6.340  0.3433 -0.4757 -0.1937
  436MOL0     C60051   5.588   0.776   6.205  0.0392 -0.5395 -0.1941
  436MOL0     C60052   5.455   0.696   6.212 -0.1178 -0.2223 -0.4542
  436MOL0     C60053   5.357   0.736   6.095  0.4138 -0.1504 -0.8091
  436MOL0     O60054   5.235   0.655   6.094  0.1255 -0.1744 -0.6606
  436MOL0     C60055   5.125   0.685   6.173  0.1542 -0.3963  0.3476
  436MOL0     C60056   5.122   0.770   6.275  0.4416  0.0192 -0.7835
  436MOL0     C60057   4.999   0.808   6.343  0.2126 -0.6259  0.4827
  436MOL0     C60058   5.019   0.889   6.469  0.5075 -0.4609  0.1649
  436MOL0     C60059   4.873   0.750   6.297 -0.7625 -0.3654 -0.2200
  436MOL0     C60060   4.744   0.768   6.371 -0.2742 -0.4368 -0.1182
  436MOL0     O60061   4.732   0.874   6.462 -0.1237  0.0868  0.1126
  436MOL0     C60062   4.618   0.888   6.538  0.1690  0.4657  0.0339
  436MOL0     C60063   4.522   0.792   6.583  0.0257 -0.5379 -0.2226
  436MOL0     C60064   4.409   0.832   6.649 -0.1845 -0.1279  0.2154
  436MOL0     C60065   4.386   0.966   6.676  0.0886 -0.0488  0.5510
  436MOL0     O60066   4.259   0.994   6.723  0.5288 -0.0211  0.3791
  436MOL0     C60067   4.209   1.122   6.753  0.6834  0.8528  0.5190
  436MOL0     C60068   4.063   1.112   6.779  0.2736 -0.0688 -0.2506
  436MOL0     C60069   3.982   1.251   6.790  0.1759  0.2320 -0.2427
  436MOL0     C60070   4.035   1.341   6.892 -0.0382 -0.3931  0.0039
  436MOL0     C60071   3.971   1.482   6.893 -0.3524  0.1497  0.3673
  436MOL0     C60072   3.839   1.489   6.970  0.3515 -0.4976 -0.8427
  436MOL0     C60073   3.853   1.429   7.110  0.2947 -1.2743  0.6263
  436MOL0     C60074   3.751   1.500   7.195  0.2356 -0.6978 -1.0089
  436MOL0    Cl60075   3.583   1.473   7.127  0.1448 -0.4429 -0.3056
  436MOL0     C60076   4.486   1.064   6.641 -0.6248  0.5543  0.3970
  436MOL0     C60077   4.596   1.016   6.575  0.0184 -0.3255 -0.1630
  436MOL0     O60078   4.648   0.704   6.328 -0.4205  0.2961 -0.1904
  436MOL0     C60079   4.883   0.653   6.195  1.7207 -0.3775 -0.3938
  436MOL0     C60080   5.001   0.619   6.133  0.1193 -0.5028  0.5386
  436MOL0     N60081   5.870   0.658   6.358 -0.3578  0.9736 -0.2184
  436MOL0     N60082   5.909   0.547   6.421 -0.2322  0.9903 -0.2263
  436MOL0     C60083   4.684   0.207   6.234 -0.4162  0.3145 -0.4116
  436MOL0     C60084   4.592   0.189   6.129 -0.4186  0.4662  0.2696
  436MOL0     C60085   4.337   0.127   5.778 -1.1073 -0.7682  0.0551
  436MOL0     C60086   4.412   0.105   5.663  0.4533  0.5045  0.4107
  436MOL0     C60087   4.353   0.064   5.543  0.9628 -0.8326 -0.3042
  436MOL0     C60088   4.220   0.037   5.533 -0.5376  0.4238  0.2256
  436MOL0     O60089   4.179  -0.011   5.410  0.4491  0.6884  0.5261
  436MOL0     C60090   4.038  -0.051   5.391 -0.6652  0.2797 -0.3190
  436MOL0     C60091   4.016  -0.182   5.470  0.2164  0.6419 -0.0183
  436MOL0     C60092   4.090  -0.296   5.396 -0.9889  0.2958  0.4543
  436MOL0     C60093   4.062  -0.442   5.421  0.3715 -0.2432  0.1119
  436MOL0     C60094   4.177  -0.508   5.370 -0.8617  0.0468 -1.0754
  436MOL0     C60095   4.276  -0.567   5.332 -0.2759 -0.4307  0.2850
  436MOL0     C60096   4.140   0.049   5.655  0.3124  0.0890 -0.0061
  436MOL0     C60097   4.198   0.097   5.780 -0.3855 -0.5924  0.2086
  436MOL0     C60098   4.109   0.111   5.903 -0.0470 -0.1081 -0.0198
  436MOL0     H60099   4.778   0.265   5.857 -2.0887 -1.8835 -1.4506
  436MOL0     H60100   4.952   0.294   6.055 -0.6641  2.4695  0.5868
  436MOL0     H60101   5.080   0.293   6.392 -1.0943  3.4838 -0.9363
  436MOL0     H60102   5.054   0.330   6.222 -0.1332 -0.2679 -0.3095
  436MOL0     H60103   5.074   0.063   6.370  0.8504 -3.2389 -0.9625
  436MOL0     H60104   5.071   0.073   6.188  1.8364 -0.5314 -0.6398
  436MOL0     H60105   5.292   0.012   6.280  2.1430  1.2814 -1.4215
  436MOL0     H60106   5.297   0.128   6.155 -0.0329 -0.9318  0.3675
  436MOL0     H60107   5.309   0.305   6.319  0.9195 -0.8244 -1.7872
  436MOL0     H60108   5.299   0.196   6.464 -2.8729  3.6325 -0.4620
  436MOL0     H60109   5.509   0.192   6.242  2.4918  2.3850  0.5323
  436MOL0     H60110   5.508   0.072   6.378  0.5535 -0.2837 -0.4558
  436MOL0     H60111   5.537   0.373   6.381 -0.5406  0.3094  0.3012
  436MOL0     H60112   5.529   0.290   6.535  3.3420  1.1807  1.1054
  436MOL0     H60113   5.745   0.283   6.324  3.3008  0.1207  1.1167
  436MOL0     H60114   5.738   0.159   6.450  0.6229 -0.8998  2.9071
  436MOL0     H60115   5.738   0.372   6.629  2.6500  0.7676  0.0094
  436MOL0     H60116   5.888   0.320   6.555  0.2803 -0.0847  1.2784
  436MOL0     H60117   5.590   0.549   6.463 -0.9581  1.3310 -1.2567
  436MOL0     H60118   5.714   0.873   6.351  0.9790 -1.1295  1.9247
  436MOL0     H60119   5.576   0.814   6.415 -1.2181  3.3993 -2.9371
  436MOL0     H60120   5.563   0.880   6.182  0.4800 -0.2472  0.5760
  436MOL0     H60121   5.652   0.741   6.124 -0.6651 -1.9599 -0.1637
  436MOL0     H60122   5.468   0.588   6.198  0.2652 -0.5008  1.6974
  436MOL0     H60123   5.403   0.722   6.304 -0.2263 -1.9931  0.0217
  436MOL0     H60124   5.346   0.845   6.102 -2.1887 -0.2322 -2.1187
  436MOL0     H60125   5.396   0.722   5.994  1.4595  1.1780 -0.6179
  436MOL0     H60126   5.217   0.781   6.325  1.1801 -2.6363 -1.4302
  436MOL0     H60127   4.963   0.983   6.467  2.6660  0.9492  1.6463
  436MOL0     H60128   5.125   0.918   6.477  0.3661  0.3287 -0.5562
  436MOL0     H60129   4.986   0.842   6.562  0.3960  1.4639  1.1483
  436MOL0     H60130   4.524   0.685   6.564  2.2644 -0.5714 -0.1433
  436MOL0     H60131   4.338   0.754   6.676 -0.9548  0.6451  0.4494
  436MOL0     H60132   4.260   1.179   6.831  0.2101  1.5046  0.3605
  436MOL0     H60133   4.217   1.191   6.669  0.3525  1.0881  0.6807
  436MOL0     H60134   4.027   1.037   6.708  3.7072 -2.8904  0.6784
  436MOL0     H60135   4.054   1.060   6.876 -2.3422 -0.6700 -0.7455
  436MOL0     H60136   3.875   1.230   6.799 -0.2419  1.1746 -2.4480
  436MOL0     H60137   3.993   1.304   6.695 -0.7435  5.0352  2.0472
  436MOL0     H60138   4.140   1.346   6.860 -0.1587 -0.5645 -0.4289
  436MOL0     H60139   4.033   1.294   6.991  1.3454  0.6497  0.5600
  436MOL0     H60140   4.037   1.557   6.938 -1.3920  0.4614  1.4062
  436MOL0     H60141   3.962   1.512   6.789 -2.1425 -1.3852  0.0209
  436MOL0     H60142   3.761   1.445   6.906  0.7624 -0.5986 -1.2840
  436MOL0     H60143   3.815   1.595   6.975 -2.2699 -1.0763  1.9129
  436MOL0     H60144   3.951   1.449   7.154  0.5494  0.8084 -0.7053
  436MOL0     H60145   3.836   1.322   7.118 -0.7155 -1.0538  1.8003
  436MOL0     H60146   3.778   1.606   7.193 -1.4234 -0.2549 -1.2767
  436MOL0     H60147   3.755   1.471   7.301 -0.1665 -1.5690 -1.2245
  436MOL0     H60148   4.462   1.167   6.663  0.9227  1.2952 -1.1363
  436MOL0     H60149   4.674   1.087   6.547 -0.0629 -1.1614 -2.8161
  436MOL0     H60150   4.796   0.594   6.165  1.8216  0.3604 -2.3085
  436MOL0     H60151   5.016   0.534   6.067  0.1543 -1.6801  2.0030
  436MOL0     H60152   4.639   0.178   6.328  0.5935 -0.1686 -0.0624
  436MOL0     H60153   4.491   0.162   6.155  0.1179 -0.8561  1.0589
  436MOL0     H60154   4.519   0.121   5.662  0.2442  2.2420 -0.5150
  436MOL0     H60155   4.409   0.063   5.450  2.2956 -0.0106  0.4464
  436MOL0     H60156   3.973   0.036   5.405 -2.2077 -0.8426 -0.2477
  436MOL0     H60157   4.021  -0.078   5.286  0.7486 -0.8723 -0.2776
  436MOL0     H60158   3.910  -0.210   5.465  0.4325  0.0241 -2.0586
  436MOL0     H60159   4.059  -0.170   5.570 -0.6475 -0.5981  0.5244
  436MOL0     H60160   4.094  -0.274   5.289  0.9244 -0.1547  0.4087
  436MOL0     H60161   4.191  -0.269   5.428  0.4780  3.6669 -5.5526
  436MOL0     H60162   3.975  -0.469   5.360  0.8813  0.1549 -0.8008
  436MOL0     H60163   4.041  -0.454   5.528 -0.8184 -1.7758 -0.2517
  436MOL0     H60164   4.365  -0.611   5.291 -0.6158 -2.7891  1.8696
  436MOL0     H60165   4.032   0.034   5.656  0.5000 -1.5005  1.6811
  436MOL0     H60166   4.005   0.106   5.869  0.1543  3.1556 -1.4327
  436MOL0     H60167   4.138   0.031   5.971 -0.4483 -1.1373 -1.0205
  436MOL0     H60168   4.112   0.211   5.946  0.4288  0.4639 -1.3279
  437MOL0     O60169   5.391   9.839  10.696  0.6235  0.0790 -0.1286
  437MOL0     C60170   5.353   9.924  10.777 -0.6797 -0.5626 -0.3519
  437MOL0     O60171   5.347   9.896  10.910 -0.1867  0.1825 -0.1846
  437MOL0     C60172   5.373   9.770  10.963  0.2609  0.2597  0.7973
  437MOL0     C60173   5.478   9.750  11.054  0.6007  0.2477 -0.0325
  437MOL0     C60174   5.500   9.626  11.105 -0.1342 -0.1121 -0.6373
  437MOL0     C60175   5.416   9.519  11.083 -0.1317  0.6290 -0.2218
  437MOL0     O60176   5.436   9.390  11.123  0.4544  0.1755  0.3831
  437MOL0     C60177   5.495   9.368  11.248 -0.0061  0.4079  0.3386
  437MOL0     C60178   5.432   9.242  11.307  0.5250 -0.0939 -1.3603
  437MOL0     C60179   5.487   9.195  11.439 -0.4619 -0.1098 -0.3271
  437MOL0     C60180   5.636   9.154  11.418  0.1414 -0.2673  0.1844
  437MOL0     C60181   5.687   9.063  11.526 -0.5209 -0.2824  0.5992
  437MOL0     C60182   5.830   9.020  11.487  0.1720 -0.2649 -0.0464
  437MOL0     C60183   5.869   8.903  11.573  0.0335 -1.3776 -0.4765
  437MOL0     C60184   6.002   8.847  11.539  0.6460 -0.3538 -0.3691
  437MOL0     N60185   6.108   8.935  11.597  0.1891  0.3080 -0.3691
  437MOL0     C60186   6.162   8.917  11.724 -0.2543  0.6449 -1.3061
  437MOL0     C60187   6.272   8.999  11.724 -0.1748 -0.3534 -0.5302
  437MOL0     C60188   6.387   9.003  11.826  0.8875  1.3781 -0.1251
  437MOL0     C60189   6.347   9.039  11.971  0.8763 -0.0302  0.3701
  437MOL0     C60190   6.291   9.182  11.972  0.3472 -0.5724 -0.1129
  437MOL0     C60191   6.307   9.239  12.110  0.6847 -0.7527 -0.0415
  437MOL0     O60192   6.224   9.359  12.125  0.1944  1.1236  0.0099
  437MOL0     C60193   6.130   9.355  12.233 -0.4029  0.6759  0.0512
  437MOL0     C60194   6.125   9.472  12.308  0.0456  0.7457 -1.1294
  437MOL0     C60195   6.024   9.485  12.404 -0.3524 -0.2213 -0.4857
  437MOL0     C60196   6.036   9.612  12.487  1.1410 -0.2479 -0.0420
  437MOL0     C60197   5.922   9.383  12.428 -0.2813  1.6467 -0.2009
  437MOL0     C60198   5.824   9.368  12.538  0.1859 -0.5642  0.6355
  437MOL0     O60199   5.814   9.247  12.592  0.5498 -0.1511  0.0371
  437MOL0     C60200   5.719   9.218  12.679  0.0867  0.3880 -1.0979
  437MOL0     C60201   5.583   9.250  12.655 -0.1195  0.0441 -0.2909
  437MOL0     C60202   5.479   9.193  12.741 -0.5493 -0.3230 -0.2162
  437MOL0     C60203   5.514   9.103  12.837 -0.3034  0.3127 -0.6575
  437MOL0     O60204   5.402   9.067  12.911 -0.1882 -0.0966  0.1967
  437MOL0     C60205   5.435   8.956  13.005  0.6480  0.7932  0.9010
  437MOL0     C60206   5.302   8.906  13.054  0.0957  0.0739 -0.0960
  437MOL0     C60207   5.291   8.774  13.132 -0.7458 -0.1766 -0.2099
  437MOL0     C60208   5.161   8.767  13.220 -0.4858 -0.0665  0.4385
  437MOL0     C60209   5.042   8.755  13.117 -0.4180  0.0518 -0.3477
  437MOL0     C60210   4.913   8.800  13.187 -0.7302 -0.4782  0.0293
  437MOL0     C60211   4.798   8.761  13.099 -0.2000  0.2207 -0.7177
  437MOL0     C60212   4.671   8.791  13.178  0.4563  0.2211 -0.1955
  437MOL0    Cl60213   4.525   8.733  13.079  0.2773  0.0670 -0.3426
  437MOL0     C60214   5.649   9.079  12.868 -0.2361  0.6783  0.0279
  437MOL0     C60215   5.750   9.123  12.781 -0.7209 -0.2568  0.4816
  437MOL0     O60216   5.755   9.466  12.570 -0.1084 -0.9462 -0.4285
  437MOL0     C60217   5.941   9.261  12.351  0.0094 -1.0183  0.2893
  437MOL0     C60218   6.041   9.243  12.253  0.1550 -0.0046  0.5128
  437MOL0     N60219   6.283   9.069  11.606 -0.2909  0.0135  0.3095
  437MOL0     N60220   6.185   9.025  11.527  0.2509 -0.0729  0.3286
  437MOL0     C60221   5.314   9.530  10.990 -0.1688  0.4220 -1.2062
  437MOL0     C60222   5.292   9.661  10.938 -0.0500  0.0212 -0.5010
  437MOL0     C60223   5.319  10.070  10.737 -0.6904  0.1272  0.8596
  437MOL0     C60224   5.257  10.151  10.831  0.1331 -0.6274 -0.4714
  437MOL0     C60225   5.250  10.287  10.821  0.0714 -0.6316  0.4345
  437MOL0     C60226   5.295  10.344  10.705 -0.6065  0.5876 -0.0952
  437MOL0     O60227   5.286  10.478  10.709  0.4172  0.3520  0.5068
  437MOL0     C60228   5.302  10.550  10.580  0.0525  0.5121 -0.2975
  437MOL0     C60229   5.191  10.527  10.477  0.4238 -0.0571 -0.1943
  437MOL0     C60230   5.215  10.621  10.358 -0.1984 -0.0128  0.1119
  437MOL0     C60231   5.102  10.621  10.245  0.0075  0.3721 -0.5307
  437MOL0     C60232   4.963  10.642  10.293  0.5373  0.6892  0.7961
  437MOL0     C60233   4.853  10.656  10.332  0.5196  0.0961  0.6038
  437MOL0     C60234   5.338  10.270  10.600 -0.4228 -0.2750  0.3661
  437MOL0     C60235   5.357  10.134  10.611  0.3732  0.2673 -0.0972
  437MOL0     C60236   5.419  10.060  10.495  0.2938  0.7613 -0.1309
  437MOL0     H60237   5.546   9.832  11.075  1.4815  0.6754 -3.7530
  437MOL0     H60238   5.591   9.613  11.162 -0.4593 -0.3856 -0.1758
  437MOL0     H60239   5.482   9.441  11.329 -3.7941 -1.6991  1.8825
  437MOL0     H60240   5.603   9.355  11.230 -0.1984 -0.4854 -0.1964
  437MOL0     H60241   5.330   9.266  11.339  2.0166  0.1480  4.3768
  437MOL0     H60242   5.440   9.167  11.228  0.9395 -3.7524  1.8759
  437MOL0     H60243   5.473   9.279  11.509  2.5406  0.3479 -0.1255
  437MOL0     H60244   5.433   9.112  11.485 -1.7258  1.1316  0.5232
  437MOL0     H60245   5.641   9.111  11.318  2.3564  2.6536 -1.1335
  437MOL0     H60246   5.695   9.246  11.407 -0.6863  0.1074 -1.4149
  437MOL0     H60247   5.623   8.975  11.525  0.2512 -0.9104 -2.2648
  437MOL0     H60248   5.686   9.115  11.623 -0.8668  3.6944 -1.3227
  437MOL0     H60249   5.828   8.984  11.384  1.7771  1.3049 -0.6833
  437MOL0     H60250   5.902   9.102  11.493  2.1505 -1.7469 -2.0204
  437MOL0     H60251   5.798   8.820  11.567  0.1767 -2.0137  3.6133
  437MOL0     H60252   5.862   8.920  11.681  1.3593 -1.5662 -0.3356
  437MOL0     H60253   6.014   8.749  11.588  2.5623  0.0823  0.0939
  437MOL0     H60254   6.006   8.845  11.430  3.0745 -1.4769 -0.3189
  437MOL0     H60255   6.148   8.842  11.801 -1.5332  2.1321 -0.0309
  437MOL0     H60256   6.474   9.060  11.791 -0.5187  2.5183 -1.9424
  437MOL0     H60257   6.421   8.899  11.828 -0.5506  0.8924  0.2425
  437MOL0     H60258   6.275   8.965  12.007  0.0038  0.7944  0.3591
  437MOL0     H60259   6.430   9.037  12.042 -0.0846  0.9302  1.5517
  437MOL0     H60260   6.347   9.239  11.897  0.1677 -0.7627 -0.3932
  437MOL0     H60261   6.185   9.182  11.944  0.4043 -1.7662 -0.4068
  437MOL0     H60262   6.275   9.168  12.186 -0.7247 -0.4258 -0.3101
  437MOL0     H60263   6.414   9.260  12.122  0.7584 -1.8376  1.3729
  437MOL0     H60264   6.203   9.547  12.296  2.9095 -2.3938 -4.3726
  437MOL0     H60265   5.966   9.618  12.570  2.1365 -1.8502  0.9647
  437MOL0     H60266   6.029   9.693  12.414  0.8604 -1.9851 -2.0390
  437MOL0     H60267   6.137   9.617  12.528  1.3298 -2.1897 -0.1582
  437MOL0     H60268   5.555   9.314  12.573 -2.4763 -2.1518 -1.3505
  437MOL0     H60269   5.374   9.219  12.735 -0.7397 -0.3065  2.3785
  437MOL0     H60270   5.482   8.877  12.945 -1.5725 -0.0172  0.1024
  437MOL0     H60271   5.487   8.987  13.096 -3.2834  2.3666  2.8438
  437MOL0     H60272   5.265   8.990  13.114  1.8485  1.7242 -1.2245
  437MOL0     H60273   5.235   8.897  12.968 -2.0585 -0.7292  1.5624
  437MOL0     H60274   5.379   8.747  13.191 -0.8919 -0.8948 -0.3156
  437MOL0     H60275   5.285   8.710  13.044 -0.1561  1.0834 -1.1995
  437MOL0     H60276   5.151   8.851  13.290 -0.8763 -1.4259  2.0959
  437MOL0     H60277   5.163   8.677  13.282  2.6893 -1.9817 -2.1521
  437MOL0     H60278   5.049   8.796  13.016 -0.3928  2.1069  0.4302
  437MOL0     H60279   5.028   8.648  13.099 -3.2583  0.3341 -0.2743
  437MOL0     H60280   4.897   8.905  13.215 -2.2528 -0.2707 -1.4379
  437MOL0     H60281   4.906   8.736  13.275 -2.3027  1.2589  1.2539
  437MOL0     H60282   4.808   8.654  13.077 -2.3265  0.2126 -1.9181
  437MOL0     H60283   4.801   8.808  13.000  3.7588 -2.3262 -2.0339
  437MOL0     H60284   4.655   8.898  13.195 -1.2218 -0.3867  2.5619
  437MOL0     H60285   4.666   8.747  13.278 -1.8736  3.2872  1.1935
  437MOL0     H60286   5.673   9.019  12.954  1.4033 -0.2676 -1.0391
  437MOL0     H60287   5.852   9.093  12.800 -0.1410  1.7117  0.6993
  437MOL0     H60288   5.879   9.172  12.354 -1.0724 -0.3978 -1.6500
  437MOL0     H60289   6.049   9.154  12.192  0.7335  1.6210 -1.9521
  437MOL0     H60290   5.253   9.444  10.965  0.6612 -0.5462  0.0219
  437MOL0     H60291   5.209   9.689  10.874 -1.6686  1.3155  1.9948
  437MOL0     H60292   5.233  10.102  10.925  0.5999 -3.5555 -1.7442
  437MOL0     H60293   5.205  10.334  10.908  0.4339 -2.7460  1.8494
  437MOL0     H60294   5.305  10.656  10.610 -3.0827  0.2505  1.3969
  437MOL0     H60295   5.397  10.534  10.529  0.5311  3.4759 -0.5295
  437MOL0     H60296   5.087  10.538  10.509  0.1698 -1.8379 -0.2832
  437MOL0     H60297   5.202  10.422  10.447  0.7325 -0.2793  0.6711
  437MOL0     H60298   5.219  10.725  10.392 -0.4361  0.0194  0.0429
  437MOL0     H60299   5.309  10.597  10.307  0.4782 -2.9952  2.4382
  437MOL0     H60300   5.107  10.522  10.199 -0.3862  1.1708 -2.3583
  437MOL0     H60301   5.118  10.692  10.163  3.8174 -0.5798 -0.7993
  437MOL0     H60302   4.753  10.692  10.345 -0.8320 -3.1562  0.1086
  437MOL0     H60303   5.374  10.316  10.508  1.9555 -1.9608  0.3477
  437MOL0     H60304   5.351   9.978  10.468  0.5128  0.0525  1.3963
  437MOL0     H60305   5.432  10.131  10.412 -0.2841 -0.5604 -1.4011
  437MOL0     H60306   5.508  10.014  10.537 -0.7043 -1.6362 -0.4842
  438MOL0     O60307   9.655   2.372   3.145  0.1433  0.1050  0.2768
  438MOL0     C60308   9.664   2.280   3.224 -0.1261 -0.2357  0.0913
  438MOL0     O60309   9.763   2.178   3.225 -0.1099 -0.3517  0.8867
  438MOL0     C60310   9.852   2.174   3.121  0.2675  0.6267  1.1626
  438MOL0     C60311   9.813   2.171   2.986  0.2605 -0.3343 -0.4987
  438MOL0     C60312   9.902   2.149   2.885  0.2892 -0.2175  0.5367
  438MOL0     C60313  10.039   2.128   2.913  0.2540 -0.1036 -0.6880
  438MOL0     O60314  10.128   2.114   2.806  0.7766 -0.2559  0.1406
  438MOL0     C60315  10.091   2.101   2.665 -0.5652 -0.0483  1.1078
  438MOL0     C60316  10.213   2.090   2.582  0.0223  0.5415  1.6662
  438MOL0     C60317  10.171   2.051   2.432 -1.0798 -0.1767 -0.5011
  438MOL0     C60318  10.085   2.144   2.344  0.6591 -0.4128  0.2531
  438MOL0     C60319  10.142   2.285   2.336 -0.6174  0.4978  0.1176
  438MOL0     C60320  10.079   2.370   2.225 -0.6075 -0.5675 -0.0067
  438MOL0     C60321  10.151   2.506   2.225 -0.6447 -0.0609  0.4630
  438MOL0     C60322  10.074   2.598   2.135  0.5256 -0.9749 -0.4435
  438MOL0     N60323   9.939   2.622   2.180  0.8602 -0.2289  0.1826
  438MOL0     C60324   9.890   2.732   2.242  0.2664 -0.0642 -0.2464
  438MOL0     C60325   9.758   2.727   2.236  0.2724  0.4997  0.7249
  438MOL0     C60326   9.683   2.838   2.302  1.1285 -0.7573  0.0174
  438MOL0     C60327   9.524   2.803   2.295 -0.8741  0.4090 -0.5336
  438MOL0     C60328   9.443   2.922   2.328  0.3856 -0.1551 -0.3253
  438MOL0     C60329   9.503   3.002   2.456  0.3443  0.2999 -0.8186
  438MOL0     O60330   9.538   2.915   2.568 -0.4598  0.3677  0.2515
  438MOL0     C60331   9.432   2.875   2.652  0.3599 -0.1883 -0.7204
  438MOL0     C60332   9.467   2.787   2.759 -0.6355 -0.1004 -0.3250
  438MOL0     C60333   9.371   2.743   2.850 -0.3267  0.4636 -0.3084
  438MOL0     C60334   9.421   2.668   2.977 -0.2542 -0.4585  0.4428
  438MOL0     C60335   9.234   2.776   2.829  0.0649  0.1219 -0.5572
  438MOL0     C60336   9.122   2.721   2.909 -0.5084  0.2863  0.2609
  438MOL0     O60337   9.012   2.698   2.842 -0.6871  0.1385  0.0598
  438MOL0     C60338   8.903   2.634   2.907 -1.0073 -0.1132  0.1566
  438MOL0     C60339   8.891   2.504   2.885 -0.1008  0.2724  0.0670
  438MOL0     C60340   8.794   2.424   2.940 -0.5428 -0.2389  0.6083
  438MOL0     C60341   8.723   2.482   3.046  0.7066  0.0667 -0.2734
  438MOL0     O60342   8.632   2.418   3.123  0.4645  0.4959  0.5302
  438MOL0     C60343   8.674   2.305   3.189 -0.5011 -0.0854  0.3024
  438MOL0     C60344   8.549   2.236   3.240 -0.1714 -0.0088 -0.4723
  438MOL0     C60345   8.485   2.318   3.346  0.7267  0.6482 -0.9951
  438MOL0     C60346   8.349   2.255   3.396 -0.7894  0.5324 -0.1086
  438MOL0     C60347   8.242   2.247   3.289 -0.5465  1.5223  0.5394
  438MOL0     C60348   8.223   2.376   3.205  0.6661 -0.8438 -0.0168
  438MOL0     C60349   8.116   2.349   3.093 -0.4093  0.5926  0.6141
  438MOL0     C60350   8.084   2.467   3.017  0.0099  0.1135 -0.3181
  438MOL0    Cl60351   8.243   2.533   2.933  0.0528 -0.6335  0.0499
  438MOL0     C60352   8.730   2.623   3.070  0.3551 -0.8437  0.6869
  438MOL0     C60353   8.822   2.707   2.996  1.2267  0.1373  0.9214
  438MOL0     O60354   9.145   2.699   3.022 -0.6872 -0.1408 -0.1235
  438MOL0     C60355   9.197   2.856   2.715  0.5757 -0.4915  0.0404
  438MOL0     C60356   9.296   2.897   2.632  0.1398  0.3142 -0.5762
  438MOL0     N60357   9.722   2.609   2.171  0.1475 -0.1844 -0.1874
  438MOL0     N60358   9.831   2.545   2.138  0.0791 -0.3045  0.2204
  438MOL0     C60359  10.087   2.135   3.054  0.6267 -0.6155 -0.3365
  438MOL0     C60360   9.986   2.155   3.147 -0.6050  0.4079  0.1724
  438MOL0     C60361   9.591   2.298   3.359 -0.9600 -0.0856  1.0641
  438MOL0     C60362   9.628   2.223   3.472  0.6617  0.3144  0.1601
  438MOL0     C60363   9.573   2.232   3.596  0.3008 -0.1922 -0.7708
  438MOL0     C60364   9.470   2.328   3.619  0.7828 -1.1945  0.2827
  438MOL0     O60365   9.395   2.355   3.736 -0.3917  0.2509 -0.1262
  438MOL0     C60366   9.435   2.303   3.857 -0.2070  0.7617 -0.7191
  438MOL0     C60367   9.312   2.308   3.951  0.0968 -0.2672 -0.8477
  438MOL0     C60368   9.236   2.439   3.970 -0.3565 -0.4818  0.5408
  438MOL0     C60369   9.137   2.424   4.091 -0.4568  0.0923 -0.1383
  438MOL0     C60370   9.094   2.554   4.149  0.0262  0.6514 -1.1270
  438MOL0     C60371   9.074   2.664   4.203  0.0143 -0.4059  0.6895
  438MOL0     C60372   9.426   2.400   3.508 -0.4571 -0.4554 -0.1586
  438MOL0     C60373   9.481   2.386   3.380  0.1016 -0.1560 -0.0029
  438MOL0     C60374   9.409   2.466   3.266  0.5008 -0.1470 -0.1038
  438MOL0     H60375   9.713   2.189   2.947  0.4274  2.6122  0.2255
  438MOL0     H60376   9.873   2.145   2.781  2.0333  1.3730 -0.0563
  438MOL0     H60377  10.031   2.185   2.630  1.2606  1.1074  0.5719
  438MOL0     H60378  10.025   2.016   2.648 -0.0638  0.0607 -1.8813
  438MOL0     H60379  10.275   2.181   2.576  1.2683 -0.3461 -1.3589
  438MOL0     H60380  10.281   2.010   2.613  0.5236 -0.0352 -0.6879
  438MOL0     H60381  10.269   2.035   2.385 -0.4721 -1.6376  1.1388
  438MOL0     H60382  10.122   1.956   2.451  1.3852 -0.8039  4.5386
  438MOL0     H60383  10.070   2.105   2.243 -1.5019  1.9420 -0.4376
  438MOL0     H60384   9.982   2.150   2.380  0.2819  1.1139 -0.9631
  438MOL0     H60385  10.237   2.257   2.289 -1.9279 -1.6597 -1.3996
  438MOL0     H60386  10.148   2.328   2.437 -0.9011 -0.5267  0.5882
  438MOL0     H60387  10.088   2.320   2.128 -1.9553  0.3218 -0.6187
  438MOL0     H60388   9.973   2.381   2.251 -0.0987  0.1958  1.9351
  438MOL0     H60389  10.255   2.497   2.192 -1.2762  0.6949 -1.9758
  438MOL0     H60390  10.155   2.552   2.324 -0.8881 -1.9293  1.3763
  438MOL0     H60391  10.119   2.697   2.121 -1.7707 -0.0206 -1.8417
  438MOL0     H60392  10.065   2.548   2.038 -1.3911 -1.4310 -0.0826
  438MOL0     H60393   9.951   2.809   2.288 -0.2526 -1.3229  2.7631
  438MOL0     H60394   9.702   2.932   2.250 -1.2789 -0.9333 -1.3485
  438MOL0     H60395   9.716   2.852   2.406  0.7999 -4.7669  0.8361
  438MOL0     H60396   9.500   2.775   2.192  0.4554  1.1857 -1.0826
  438MOL0     H60397   9.515   2.721   2.367  1.4772  3.3795  3.6127
  438MOL0     H60398   9.441   2.998   2.249  1.5587  1.2991  0.9784
  438MOL0     H60399   9.341   2.888   2.347  0.2269 -0.4079 -1.5418
  438MOL0     H60400   9.588   3.063   2.424 -0.4198  2.9471  1.6639
  438MOL0     H60401   9.435   3.079   2.494 -0.0382  0.6350 -2.1383
  438MOL0     H60402   9.565   2.744   2.776 -0.8772 -0.0392  1.3880
  438MOL0     H60403   9.362   2.580   3.003  0.9401 -0.4742  3.5790
  438MOL0     H60404   9.399   2.732   3.063 -0.2957  0.2933 -0.1089
  438MOL0     H60405   9.528   2.644   2.976  0.6893  2.9931 -1.7347
  438MOL0     H60406   8.952   2.463   2.805 -0.3612  0.9102 -0.4694
  438MOL0     H60407   8.785   2.318   2.918 -2.5429  0.4098 -2.3017
  438MOL0     H60408   8.735   2.232   3.135 -1.4470 -1.9593  1.6544
  438MOL0     H60409   8.736   2.336   3.273 -1.6642  2.6215  0.2400
  438MOL0     H60410   8.475   2.214   3.163 -1.9046  1.4021  0.7081
  438MOL0     H60411   8.579   2.138   3.277 -2.7521 -1.2044 -1.3044
  438MOL0     H60412   8.464   2.421   3.316 -1.1554 -0.4187 -3.7684
  438MOL0     H60413   8.557   2.308   3.428 -0.9071 -1.5440  0.2872
  438MOL0     H60414   8.309   2.317   3.476 -2.6482 -1.2753  0.4476
  438MOL0     H60415   8.364   2.161   3.451 -1.5350 -0.0975 -0.9647
  438MOL0     H60416   8.266   2.163   3.223  0.3940  2.3167 -0.1779
  438MOL0     H60417   8.148   2.224   3.339 -0.2047  2.9623  1.9475
  438MOL0     H60418   8.317   2.402   3.156  2.0854 -2.7489  1.5431
  438MOL0     H60419   8.178   2.454   3.268  1.6437  0.6067 -1.0357
  438MOL0     H60420   8.018   2.314   3.129 -1.0304  0.9880 -0.6401
  438MOL0     H60421   8.158   2.287   3.014  1.0675 -1.7080  3.0221
  438MOL0     H60422   8.043   2.548   3.078  1.7842  0.1291  0.9427
  438MOL0     H60423   8.008   2.432   2.947 -0.8358 -2.6124  1.8128
  438MOL0     H60424   8.658   2.675   3.132  0.0615  0.3196 -0.5841
  438MOL0     H60425   8.831   2.811   3.023  0.1796  1.0191 -1.8159
  438MOL0     H60426   9.095   2.891   2.701  1.1401  0.3669 -2.3472
  438MOL0     H60427   9.257   2.955   2.548 -0.1822  1.5356  0.3849
  438MOL0     H60428  10.190   2.130   3.085  0.4748 -0.9628  0.1310
  438MOL0     H60429  10.020   2.157   3.250  0.7723 -1.0458 -0.2181
  438MOL0     H60430   9.705   2.146   3.465  0.2941 -0.4485  3.0282
  438MOL0     H60431   9.605   2.166   3.676 -1.3987 -1.4971 -1.1089
  438MOL0     H60432   9.468   2.199   3.865 -0.5720  0.6978  5.9312
  438MOL0     H60433   9.525   2.357   3.889 -0.7821  0.2905  1.9204
  438MOL0     H60434   9.351   2.289   4.052  0.6739 -0.0991 -1.0353
  438MOL0     H60435   9.240   2.235   3.912 -1.6171  1.9176 -2.0195
  438MOL0     H60436   9.308   2.519   3.989 -0.4645  0.0435 -1.0733
  438MOL0     H60437   9.187   2.470   3.877 -1.4727  1.5658  1.7608
  438MOL0     H60438   9.178   2.363   4.172 -2.4766  0.4256  1.1968
  438MOL0     H60439   9.053   2.368   4.051 -1.0563 -0.4547  1.7748
  438MOL0     H60440   9.073   2.762   4.247 -0.5400 -1.4394  3.1595
  438MOL0     H60441   9.345   2.472   3.512 -0.6101 -0.5729 -0.8581
  438MOL0     H60442   9.383   2.396   3.187 -1.1864 -1.3390  1.4241
  438MOL0     H60443   9.327   2.525   3.309 -1.3135 -1.7181 -1.2099
  438MOL0     H60444   9.484   2.528   3.217  0.5192 -0.8785 -1.0106
  439MOL0     O60445   9.065  10.280   9.309 -0.6042 -0.4694  0.0238
  439MOL0     C60446   9.125  10.340   9.224  0.4348 -0.3535 -0.1606
  439MOL0     O60447   9.217  10.290   9.133 -0.5913 -0.2510 -0.5636
  439MOL0     C60448   9.272  10.163   9.139 -0.1818  0.5846 -0.3893
  439MOL0     C60449   9.408  10.161   9.147  0.0505  0.6495  0.7890
  439MOL0     C60450   9.465  10.027   9.149 -0.0844 -0.1310 -0.6395
  439MOL0     C60451   9.390   9.898   9.154 -0.2952 -0.5285 -0.0445
  439MOL0     O60452   9.464   9.783   9.162  0.5884 -0.8342 -0.1024
  439MOL0     C60453   9.395   9.664   9.120  1.0639 -0.4057 -0.2935
  439MOL0     C60454   9.504   9.582   9.059 -1.5031  1.1496  0.1215
  439MOL0     C60455   9.604   9.528   9.164  0.0186  0.3485 -0.5140
  439MOL0     C60456   9.700   9.425   9.106  0.1400 -0.3767 -0.0625
  439MOL0     C60457   9.773   9.496   8.991 -0.2282  0.4549  0.2564
  439MOL0     C60458   9.880   9.399   8.940  1.1822  0.6837  0.4753
  439MOL0     C60459  10.025   9.430   8.974 -0.8361 -0.1558  0.7074
  439MOL0     C60460  10.116   9.342   8.902 -0.1616  0.2782  0.6536
  439MOL0     N60461  10.249   9.388   8.932  0.9572  0.5264  0.0181
  439MOL0     C60462  10.355   9.305   8.962 -0.0256  0.5071 -0.0300
  439MOL0     C60463  10.460   9.380   8.984 -0.1969  0.1788 -0.1664
  439MOL0     C60464  10.599   9.323   9.001 -0.4195 -0.1824  0.4404
  439MOL0     C60465  10.687   9.342   8.886  0.3240  0.3109 -0.6562
  439MOL0     C60466  10.731   9.487   8.856 -0.2041 -0.1052  0.2366
  439MOL0     C60467  10.823   9.484   8.731 -0.2054 -0.6684 -0.3796
  439MOL0     O60468  10.952   9.430   8.759  0.1272  0.8102 -0.0268
  439MOL0     C60469  11.055   9.438   8.669  0.1918  0.4503 -0.2054
  439MOL0     C60470  11.182   9.410   8.714  0.2970  0.4388 -0.7087
  439MOL0     C60471  11.301   9.404   8.641  0.2653 -0.1699 -1.5410
  439MOL0     C60472  11.425   9.359   8.707  0.3066 -0.7285  0.0672
  439MOL0     C60473  11.290   9.434   8.510 -0.5588 -0.3945  0.2045
  439MOL0     C60474  11.404   9.459   8.419 -0.4529  0.5883 -0.8860
  439MOL0     O60475  11.528   9.476   8.474  0.6951 -0.4484 -0.1140
  439MOL0     C60476  11.634   9.471   8.382  0.5771 -0.3079  0.3665
  439MOL0     C60477  11.684   9.345   8.343  0.0318 -0.5295 -0.7222
  439MOL0     C60478  11.791   9.331   8.262  0.0715 -0.0433 -0.6760
  439MOL0     C60479  11.846   9.437   8.200 -0.5314  0.6698  0.0782
  439MOL0     O60480  11.949   9.408   8.109  0.1563  0.3178 -0.0785
  439MOL0     C60481  11.973   9.496   7.997 -0.1295 -0.7059  0.4142
  439MOL0     C60482  12.055   9.417   7.901 -0.0261 -0.0918  0.7425
  439MOL0     C60483  12.196   9.393   7.949 -0.0381  0.2127 -0.6405
  439MOL0     C60484  12.277   9.306   7.853  0.6882  1.0159 -0.2178
  439MOL0     C60485  12.427   9.309   7.879  0.8285 -0.6752  0.1920
  439MOL0     C60486  12.498   9.191   7.812 -0.2017  0.6015 -0.4639
  439MOL0     C60487  12.652   9.213   7.807  0.7183  1.1333 -0.2180
  439MOL0     C60488  12.722   9.105   7.742 -0.4633  0.0798  0.9089
  439MOL0    Cl60489  12.905   9.115   7.750 -0.4457 -0.0113  0.1719
  439MOL0     C60490  11.799   9.569   8.231  0.1616  0.4464 -0.4245
  439MOL0     C60491  11.697   9.583   8.322  0.2802 -0.2934  1.1444
  439MOL0     O60492  11.388   9.466   8.297 -0.2432  0.4893  0.7064
  439MOL0     C60493  11.165   9.468   8.456  0.8177 -0.5942  0.9729
  439MOL0     C60494  11.046   9.460   8.533  0.4351  0.6158  0.4159
  439MOL0     N60495  10.425   9.517   8.979  1.0431  0.2632 -0.4596
  439MOL0     N60496  10.294   9.524   8.952  0.2922  0.8776  0.0149
  439MOL0     C60497   9.249   9.909   9.160 -0.6352 -0.0816  0.4346
  439MOL0     C60498   9.193  10.045   9.148 -0.4110  0.9341 -0.4259
  439MOL0     C60499   9.085  10.486   9.195  0.3652  0.1309  0.5941
  439MOL0     C60500   9.134  10.545   9.074 -0.0502  0.0634 -0.2544
  439MOL0     C60501   9.110  10.679   9.040  0.2248  0.8709  0.2382
  439MOL0     C60502   9.030  10.758   9.122  0.4198 -0.3005 -0.6101
  439MOL0     O60503   8.969  10.880   9.084 -0.5714 -0.0630  0.2880
  439MOL0     C60504   9.011  10.946   8.966  0.6322  0.1375 -0.3621
  439MOL0     C60505   8.988  11.100   9.001  0.3902  0.3042  0.2653
  439MOL0     C60506   9.084  11.192   8.929 -0.5052 -0.2682  0.2656
  439MOL0     C60507   9.045  11.328   8.973  0.4963 -0.5176 -0.6069
  439MOL0     C60508   9.152  11.422   8.946 -1.0214 -1.0307 -0.3761
  439MOL0     C60509   9.225  11.517   8.947 -0.5234 -0.6509 -0.7582
  439MOL0     C60510   8.976  10.700   9.238 -0.3486 -0.9198  0.7824
  439MOL0     C60511   9.006  10.573   9.286 -0.5121 -0.3490  0.6297
  439MOL0     C60512   8.989  10.534   9.429  0.0195 -0.1761  0.3620
  439MOL0     H60513   9.458  10.257   9.149 -1.4832  1.5063  4.5620
  439MOL0     H60514   9.573  10.030   9.150  0.1267 -2.5839 -3.0747
  439MOL0     H60515   9.321   9.689   9.044 -1.3559  0.0090  2.0344
  439MOL0     H60516   9.347   9.625   9.210 -0.9413  2.0702 -0.1975
  439MOL0     H60517   9.462   9.498   9.003 -0.0016  0.1755  0.3740
  439MOL0     H60518   9.559   9.648   8.992  0.6138  2.8599  3.2980
  439MOL0     H60519   9.663   9.606   9.214  0.9197 -0.1354 -0.7901
  439MOL0     H60520   9.540   9.495   9.246 -0.8451  0.9243 -0.9422
  439MOL0     H60521   9.775   9.384   9.174 -0.5271 -0.4790  0.6249
  439MOL0     H60522   9.638   9.345   9.066 -1.7580  1.5746 -1.2701
  439MOL0     H60523   9.822   9.590   9.019 -0.2115  0.3421  0.6189
  439MOL0     H60524   9.702   9.501   8.909 -0.9082 -3.8580  0.3364
  439MOL0     H60525   9.863   9.296   8.974 -0.9765  0.1551 -1.9227
  439MOL0     H60526   9.868   9.378   8.834  3.4235 -1.9443  0.6246
  439MOL0     H60527  10.045   9.422   9.081  0.5625  1.4941  0.6161
  439MOL0     H60528  10.043   9.537   8.958 -2.5288  0.6033  3.3556
  439MOL0     H60529  10.092   9.239   8.927 -1.6465  0.1139 -1.1969
  439MOL0     H60530  10.102   9.328   8.794 -1.6113 -3.1131  1.1799
  439MOL0     H60531  10.348   9.197   8.951 -2.4216  0.7948 -2.3942
  439MOL0     H60532  10.610   9.217   9.024  1.4711  0.3857  2.5779
  439MOL0     H60533  10.640   9.370   9.091  0.8115 -0.9804  0.3146
  439MOL0     H60534  10.779   9.283   8.892 -1.7190 -2.9594  1.7019
  439MOL0     H60535  10.638   9.306   8.795  1.6265 -0.7084 -0.9926
  439MOL0     H60536  10.642   9.547   8.835  0.0844 -0.2541 -1.5285
  439MOL0     H60537  10.776   9.539   8.941  0.6386 -0.6935  0.1681
  439MOL0     H60538  10.777   9.416   8.659 -0.2611  0.5510 -1.5257
  439MOL0     H60539  10.842   9.585   8.693  1.3362 -1.4550 -1.8172
  439MOL0     H60540  11.206   9.381   8.815  1.3129  1.4496 -0.6410
  439MOL0     H60541  11.487   9.445   8.734 -1.4851  0.6402  0.0423
  439MOL0     H60542  11.476   9.289   8.640  1.6188  1.3948 -1.2842
  439MOL0     H60543  11.403   9.311   8.802 -4.0183 -1.2620 -0.9915
  439MOL0     H60544  11.635   9.261   8.391  1.7268 -0.2651  1.6753
  439MOL0     H60545  11.833   9.231   8.251  0.4904 -0.5520  3.6747
  439MOL0     H60546  11.877   9.520   7.951 -1.1715 -1.1693  2.2153
  439MOL0     H60547  12.032   9.580   8.037 -0.0424  0.0578 -1.2550
  439MOL0     H60548  11.998   9.324   7.885  0.5681 -0.3580  0.1012
  439MOL0     H60549  12.051   9.473   7.807 -0.5848  1.6125  1.7524
  439MOL0     H60550  12.195   9.346   8.048 -2.1259 -0.0706 -0.7566
  439MOL0     H60551  12.243   9.492   7.947  0.4486 -0.0240 -1.2537
  439MOL0     H60552  12.261   9.336   7.750 -2.5687  1.3479  0.2642
  439MOL0     H60553  12.243   9.202   7.861  0.8320  1.0400  0.9474
  439MOL0     H60554  12.457   9.401   7.828  1.6413  0.5664  2.7325
  439MOL0     H60555  12.445   9.321   7.986  0.8051  1.9499 -0.0342
  439MOL0     H60556  12.461   9.156   7.715 -0.9083 -1.6514  0.5354
  439MOL0     H60557  12.477   9.111   7.884 -1.4278  0.3702 -1.0530
  439MOL0     H60558  12.671   9.220   7.915 -3.0891  0.4219  0.6345
  439MOL0     H60559  12.675   9.307   7.757  1.2292  1.3106  0.3302
  439MOL0     H60560  12.689   9.107   7.638 -1.0100  1.0695  1.0918
  439MOL0     H60561  12.708   9.006   7.787 -0.7827 -1.1955 -1.7388
  439MOL0     H60562  11.836   9.662   8.191 -3.1408  1.9068 -0.4018
  439MOL0     H60563  11.655   9.680   8.344  2.6631  1.5448 -1.6123
  439MOL0     H60564  11.160   9.509   8.356  1.6181  1.5697  1.7747
  439MOL0     H60565  10.949   9.484   8.490  0.6323 -1.0039 -1.0626
  439MOL0     H60566   9.179   9.826   9.160  1.5349 -2.1201  3.1114
  439MOL0     H60567   9.086  10.061   9.149 -0.6534 -0.2462 -2.2801
  439MOL0     H60568   9.199  10.494   9.004 -0.0714  1.3116 -1.2165
  439MOL0     H60569   9.170  10.722   8.960  2.8795 -1.6869  0.7046
  439MOL0     H60570   9.115  10.926   8.940  0.0905 -0.7733 -1.9065
  439MOL0     H60571   8.956  10.912   8.878 -3.5323  2.2643  1.1475
  439MOL0     H60572   9.023  11.113   9.104  0.3587  2.1220  0.0756
  439MOL0     H60573   8.883  11.129   8.992  0.1473 -1.0365 -2.0256
  439MOL0     H60574   9.182  11.176   8.976 -0.2490 -0.1584 -0.2309
  439MOL0     H60575   9.091  11.186   8.820  1.5143  0.3576  0.3228
  439MOL0     H60576   9.037  11.342   9.081  0.0031  0.1224 -0.7205
  439MOL0     H60577   8.956  11.368   8.923  0.5525 -1.0288 -1.1264
  439MOL0     H60578   9.286  11.605   8.942  0.6152 -1.4744 -2.6743
  439MOL0     H60579   8.909  10.753   9.305  1.3411 -1.3481  2.9392
  439MOL0     H60580   9.078  10.489   9.474  0.6508  1.0484  0.3741
  439MOL0     H60581   8.977  10.629   9.481  1.3936 -1.3287  2.9844
  439MOL0     H60582   8.910  10.459   9.438  1.0493 -1.5754 -1.5593
  440MOL0     O60583   2.094  10.966   4.728  0.1257  0.3228  0.2828
  440MOL0     C60584   2.050  11.027   4.638  0.1416  0.1713  0.0054
  440MOL0     O60585   2.107  11.026   4.512 -0.2569  0.4740  0.2086
  440MOL0     C60586   2.239  10.983   4.503 -0.2937 -0.1492 -0.3219
  440MOL0     C60587   2.262  10.882   4.408 -0.9115  0.5273 -1.0174
  440MOL0     C60588   2.389  10.839   4.376 -0.3662 -0.0976 -0.2079
  440MOL0     C60589   2.502  10.881   4.457 -0.4859 -0.2425 -0.0728
  440MOL0     O60590   2.630  10.831   4.454 -0.1423 -0.6237 -0.0193
  440MOL0     C60591   2.670  10.762   4.336 -0.6868 -0.1065 -0.1491
  440MOL0     C60592   2.813  10.710   4.359  0.2367 -0.0421  0.5587
  440MOL0     C60593   2.827  10.580   4.442 -0.4447  0.1574 -0.1351
  440MOL0     C60594   2.783  10.452   4.373 -0.2179  0.3572  0.8042
  440MOL0     C60595   2.783  10.324   4.452 -0.2228 -0.2177 -0.3047
  440MOL0     C60596   2.723  10.207   4.373 -0.3241 -0.0405 -0.2893
  440MOL0     C60597   2.576  10.222   4.346 -0.6241 -0.3774 -0.0034
  440MOL0     C60598   2.486  10.222   4.465  1.1836  0.5093 -0.0976
  440MOL0     N60599   2.497  10.104   4.554  0.0089  0.4126 -0.1384
  440MOL0     C60600   2.480   9.977   4.513  0.0559  0.0792 -0.3493
  440MOL0     C60601   2.524   9.907   4.624  0.4764  0.2831  0.4693
  440MOL0     C60602   2.562   9.756   4.635 -0.1553 -0.2476 -0.2427
  440MOL0     C60603   2.708   9.711   4.595 -0.6287  0.0176  0.8208
  440MOL0     C60604   2.747   9.754   4.458  0.2445  0.6135  0.0254
  440MOL0     C60605   2.877   9.691   4.411 -0.0459 -0.1491  0.1158
  440MOL0     O60606   2.926   9.797   4.320  0.5072  0.3734  0.7886
  440MOL0     C60607   2.996   9.903   4.368  1.2700  0.1456 -0.3742
  440MOL0     C60608   3.065   9.970   4.269  1.7001  0.5834 -0.5587
  440MOL0     C60609   3.145  10.082   4.303  0.3721 -0.0265  0.4792
  440MOL0     C60610   3.194  10.141   4.182 -0.5569  0.1421  0.0569
  440MOL0     C60611   3.156  10.130   4.436  0.4978 -0.2719 -0.0867
  440MOL0     C60612   3.250  10.244   4.484  0.2723 -0.4237  0.2288
  440MOL0     O60613   3.287  10.322   4.383 -0.2438 -0.1786  0.1127
  440MOL0     C60614   3.419  10.367   4.389 -0.3904 -0.4686  0.3120
  440MOL0     C60615   3.531  10.282   4.332 -0.3195 -0.1733 -0.6667
  440MOL0     C60616   3.666  10.335   4.331 -0.3055 -0.5582 -0.6559
  440MOL0     C60617   3.683  10.462   4.399  0.0630  0.6104 -0.0316
  440MOL0     O60618   3.807  10.516   4.390  0.4270  0.0208 -0.7475
  440MOL0     C60619   3.929  10.441   4.388 -0.6194 -0.0699 -0.3511
  440MOL0     C60620   4.040  10.522   4.472  0.0462 -0.0610  0.1307
  440MOL0     C60621   4.140  10.432   4.543  0.7612  1.3927  0.6373
  440MOL0     C60622   4.244  10.516   4.608  0.5566 -0.0269  0.5640
  440MOL0     C60623   4.354  10.430   4.665 -0.8828  0.3192 -0.1202
  440MOL0     C60624   4.489  10.497   4.692 -0.3143 -0.1414 -0.0817
  440MOL0     C60625   4.593  10.398   4.738  0.1366  0.0012 -0.3019
  440MOL0     C60626   4.715  10.460   4.799 -0.0859 -1.1031 -0.0835
  440MOL0    Cl60627   4.693  10.470   4.972 -0.2553 -0.6930 -0.3892
  440MOL0     C60628   3.583  10.540   4.439  0.7155  0.4188  0.0650
  440MOL0     C60629   3.455  10.489   4.439 -0.1925  0.7528 -0.2100
  440MOL0     O60630   3.299  10.247   4.598 -0.3584  0.3280  0.1635
  440MOL0     C60631   3.070  10.058   4.535  0.2357 -0.4782  0.8906
  440MOL0     C60632   2.997   9.943   4.503 -0.5979  0.2047 -0.2724
  440MOL0     N60633   2.548   9.995   4.726  0.2525 -0.3804 -0.5775
  440MOL0     N60634   2.526  10.115   4.677 -0.4392  0.1996 -0.3627
  440MOL0     C60635   2.477  10.985   4.550  0.2413 -1.1127  0.7496
  440MOL0     C60636   2.345  11.035   4.567 -0.6524 -0.0107  0.1794
  440MOL0     C60637   1.928  11.115   4.653  0.0045  0.2642  0.1792
  440MOL0     C60638   1.815  11.055   4.707  0.2871 -1.5393 -0.3280
  440MOL0     C60639   1.706  11.133   4.731  0.5667  0.4643 -0.5029
  440MOL0     C60640   1.689  11.256   4.680  0.8188  0.0387 -0.3571
  440MOL0     O60641   1.566  11.311   4.712  0.3680  0.0925  0.0915
  440MOL0     C60642   1.538  11.440   4.663  1.1953 -0.7468 -0.0338
  440MOL0     C60643   1.474  11.458   4.523  0.1201 -0.2367  0.2041
  440MOL0     C60644   1.371  11.353   4.492 -0.0384  1.1173  0.6358
  440MOL0     C60645   1.322  11.376   4.348  0.5730 -0.2930 -0.0905
  440MOL0     C60646   1.220  11.280   4.302 -0.3852 -0.0634 -0.8242
  440MOL0     C60647   1.158  11.182   4.270  0.5446  0.6549  0.5264
  440MOL0     C60648   1.792  11.310   4.607  0.0203  0.3259 -0.0236
  440MOL0     C60649   1.917  11.245   4.598  0.0992 -0.6407 -0.9557
  440MOL0     C60650   2.044  11.305   4.532  0.7006 -0.0476 -1.0407
  440MOL0     H60651   2.180  10.831   4.359  0.1236 -2.4845  0.1527
  440MOL0     H60652   2.402  10.760   4.303  1.9864  1.1826 -1.2514
  440MOL0     H60653   2.662  10.824   4.246 -0.2438 -2.9946 -2.3343
  440MOL0     H60654   2.615  10.672   4.309 -0.4435 -0.0004 -1.0223
  440MOL0     H60655   2.857  10.691   4.261 -1.9648  2.5196 -1.0763
  440MOL0     H60656   2.889  10.771   4.408  2.0646  0.0108 -2.1353
  440MOL0     H60657   2.935  10.572   4.460  0.0588  1.1023 -2.3198
  440MOL0     H60658   2.787  10.590   4.543  0.3107 -0.5854  0.2426
  440MOL0     H60659   2.683  10.470   4.332  0.7740 -0.5123 -2.2271
  440MOL0     H60660   2.846  10.436   4.285 -0.9386  0.4652  0.2607
  440MOL0     H60661   2.721  10.351   4.538  1.2766  2.5599  0.0222
  440MOL0     H60662   2.876  10.274   4.482 -0.3446 -1.0349 -1.2173
  440MOL0     H60663   2.781  10.185   4.283 -0.1992  1.6726 -0.6712
  440MOL0     H60664   2.727  10.128   4.448 -3.5128  0.0576  0.1509
  440MOL0     H60665   2.543  10.138   4.285 -0.9243  1.4786 -2.5410
  440MOL0     H60666   2.556  10.310   4.284 -0.5571 -1.0023 -0.9318
  440MOL0     H60667   2.520  10.310   4.518  4.4467  1.1611 -2.9108
  440MOL0     H60668   2.381  10.234   4.435  0.1975 -1.8731  1.9635
  440MOL0     H60669   2.463   9.931   4.416 -3.5944 -2.8289  1.4143
  440MOL0     H60670   2.499   9.694   4.570 -0.3395 -0.7529  0.4156
  440MOL0     H60671   2.548   9.728   4.739  1.2983  1.1787  0.3811
  440MOL0     H60672   2.774   9.749   4.674 -2.9038  2.8057  1.5574
  440MOL0     H60673   2.721   9.604   4.610  1.3086  0.2403  0.9631
  440MOL0     H60674   2.665   9.725   4.392  1.4555 -2.4996 -0.3030
  440MOL0     H60675   2.747   9.863   4.464 -1.6764  0.7118 -0.9842
  440MOL0     H60676   2.941   9.677   4.498  0.0332  2.3610  0.5395
  440MOL0     H60677   2.851   9.602   4.353  0.6605  1.1887 -2.4495
  440MOL0     H60678   3.039   9.938   4.169 -4.5277 -1.9491  1.4134
  440MOL0     H60679   3.149  10.108   4.088 -0.5237 -2.8779  0.9968
  440MOL0     H60680   3.301  10.118   4.176 -0.2889 -0.8080  4.5476
  440MOL0     H60681   3.192  10.250   4.181  0.6131  0.1751 -1.1444
  440MOL0     H60682   3.518  10.180   4.299  0.6547  0.6265 -3.9098
  440MOL0     H60683   3.747  10.279   4.285  0.8432 -2.2811  2.9792
  440MOL0     H60684   3.915  10.337   4.420  0.8867  0.4241  2.1181
  440MOL0     H60685   3.951  10.434   4.281 -1.3712 -3.3461 -0.4075
  440MOL0     H60686   4.091  10.587   4.400  2.1691  0.2195  1.7855
  440MOL0     H60687   3.991  10.578   4.552 -0.3775  2.5454 -1.8319
  440MOL0     H60688   4.184  10.369   4.465 -2.7137 -2.8350  1.6586
  440MOL0     H60689   4.083  10.363   4.606 -0.3717  0.0496 -1.7231
  440MOL0     H60690   4.210  10.575   4.693  1.3573 -0.9839  1.5641
  440MOL0     H60691   4.286  10.579   4.529 -1.2366 -0.3836 -0.7528
  440MOL0     H60692   4.306  10.371   4.743 -1.2318  0.5111 -0.1861
  440MOL0     H60693   4.381  10.352   4.594  0.1689  0.4326  0.1377
  440MOL0     H60694   4.465  10.566   4.774 -0.1513  1.7780 -1.5940
  440MOL0     H60695   4.521  10.552   4.603  2.5176 -0.2032  0.8108
  440MOL0     H60696   4.636  10.343   4.654  0.8249 -0.8543  0.5901
  440MOL0     H60697   4.551  10.330   4.812  0.6721  0.1867  0.1794
  440MOL0     H60698   4.738  10.562   4.768  2.7737 -2.2691 -2.2758
  440MOL0     H60699   4.793  10.390   4.768 -0.4633 -0.5892 -2.3845
  440MOL0     H60700   3.597  10.645   4.462  0.0304  0.5491 -0.1049
  440MOL0     H60701   3.373  10.550   4.476 -0.1921 -0.1321  1.3170
  440MOL0     H60702   3.074  10.105   4.633 -2.0997 -0.4318  1.0194
  440MOL0     H60703   2.929   9.896   4.574 -0.7942 -0.4576 -0.8875
  440MOL0     H60704   2.558  11.026   4.609  0.6308 -1.5390  0.5163
  440MOL0     H60705   2.330  11.117   4.638 -0.9695  0.6549 -0.6422
  440MOL0     H60706   1.816  10.948   4.729 -0.7486 -1.0496  2.5025
  440MOL0     H60707   1.627  11.087   4.789  0.7160  1.2662  0.3522
  440MOL0     H60708   1.463  11.479   4.732 -0.6453 -2.0836 -1.1941
  440MOL0     H60709   1.621  11.512   4.664  1.3657 -0.9362 -0.4027
  440MOL0     H60710   1.560  11.450   4.456  0.6873  1.9405  0.5814
  440MOL0     H60711   1.441  11.561   4.506  0.3582 -0.5717 -2.7475
  440MOL0     H60712   1.422  11.257   4.488  1.2931  1.8313 -0.5088
  440MOL0     H60713   1.301  11.350   4.576  0.4795  0.5848  1.0557
  440MOL0     H60714   1.410  11.373   4.283  1.1618  2.3955  0.4586
  440MOL0     H60715   1.287  11.478   4.330 -0.2656 -0.9691 -2.8786
  440MOL0     H60716   1.096  11.100   4.242 -1.0119  1.9069  0.1372
  440MOL0     H60717   1.780  11.409   4.565  0.9798  0.3965 -0.1518
  440MOL0     H60718   2.051  11.414   4.523  3.0466 -0.2853 -3.2064
  440MOL0     H60719   2.140  11.272   4.573  1.1077 -0.5950 -2.3726
  440MOL0     H60720   2.039  11.266   4.430 -0.5870  4.3427 -2.9239
  441MOL0     O60721   3.311   3.602   4.240  0.3520  0.3155 -0.0926
  441MOL0     C60722   3.248   3.659   4.157 -0.5217 -0.2356 -0.3829
  441MOL0     O60723   3.296   3.716   4.043 -0.3250 -0.2128 -0.8067
  441MOL0     C60724   3.422   3.688   3.998 -0.1857  0.5084 -0.1486
  441MOL0     C60725   3.505   3.793   3.963 -0.5672 -0.5188  1.1779
  441MOL0     C60726   3.635   3.771   3.910  0.1090 -0.0791 -0.7945
  441MOL0     C60727   3.665   3.639   3.885 -0.5479  1.4262  0.2999
  441MOL0     O60728   3.781   3.593   3.822 -0.4050 -0.1619 -1.0732
  441MOL0     C60729   3.886   3.693   3.805  0.0660  0.2133  1.0984
  441MOL0     C60730   4.000   3.627   3.729  0.4131 -0.3211 -0.0454
  441MOL0     C60731   4.063   3.502   3.792 -0.1913  0.8904 -0.2440
  441MOL0     C60732   4.161   3.440   3.699  0.2108 -0.6727  0.5324
  441MOL0     C60733   4.254   3.337   3.756 -0.7302  0.7918 -0.0531
  441MOL0     C60734   4.387   3.382   3.812 -0.5229 -0.1381 -0.3684
  441MOL0     C60735   4.488   3.263   3.836 -0.1079 -0.1240 -0.2402
  441MOL0     C60736   4.431   3.154   3.932 -0.8332  0.5484  0.8058
  441MOL0     N60737   4.554   3.062   3.947  0.1464 -0.0656 -0.0129
  441MOL0     C60738   4.583   2.935   3.878  0.1625  0.2661 -0.7438
  441MOL0     C60739   4.714   2.917   3.893  0.1735 -1.1391 -0.2552
  441MOL0     C60740   4.795   2.797   3.862 -0.2968  0.0341 -0.7159
  441MOL0     C60741   4.866   2.812   3.735 -0.0337 -0.7915  1.4125
  441MOL0     C60742   4.959   2.940   3.719  0.1153 -0.0883  0.8048
  441MOL0     C60743   5.070   2.937   3.825  0.3751 -0.2258 -0.3743
  441MOL0     O60744   5.177   3.033   3.787 -0.0354  0.2865  0.6629
  441MOL0     C60745   5.167   3.161   3.822 -0.8637 -0.0755 -0.7162
  441MOL0     C60746   5.056   3.227   3.883  0.4633 -0.2422 -0.0055
  441MOL0     C60747   5.046   3.362   3.910 -0.7646 -0.2598  1.3188
  441MOL0     C60748   4.933   3.408   3.990 -0.0190 -0.2109 -1.4283
  441MOL0     C60749   5.148   3.444   3.849  0.1700  0.1659 -0.5423
  441MOL0     C60750   5.134   3.586   3.836 -0.1008 -0.7293 -0.8180
  441MOL0     O60751   5.011   3.635   3.837 -0.0774 -0.4859  0.5598
  441MOL0     C60752   4.993   3.753   3.771 -0.4260 -0.4322  0.0897
  441MOL0     C60753   5.051   3.870   3.808  0.5677 -0.3660  0.4568
  441MOL0     C60754   5.031   3.981   3.731  1.3995  0.4030 -0.0042
  441MOL0     C60755   4.943   3.983   3.628  0.5236 -0.1826  0.2134
  441MOL0     O60756   4.917   4.105   3.558 -0.3447  1.2446 -0.2941
  441MOL0     C60757   4.973   4.102   3.424 -0.7990 -0.2226 -0.7548
  441MOL0     C60758   4.891   4.177   3.315 -1.2847  0.2226  0.0979
  441MOL0     C60759   4.902   4.332   3.316  0.5351 -0.0471  0.0684
  441MOL0     C60760   4.804   4.384   3.212  0.5694 -0.8712  0.4761
  441MOL0     C60761   4.796   4.534   3.200 -0.5753 -0.2566 -0.2034
  441MOL0     C60762   4.718   4.584   3.085 -0.7525 -0.1281 -0.9243
  441MOL0     C60763   4.738   4.727   3.052 -0.0001 -0.2286 -0.0901
  441MOL0     C60764   4.631   4.785   2.954 -0.4988 -0.4089  0.8867
  441MOL0    Cl60765   4.626   4.695   2.789  0.0610 -0.6788 -0.0130
  441MOL0     C60766   4.872   3.869   3.595  1.1200  0.1200 -0.5025
  441MOL0     C60767   4.903   3.753   3.665 -0.6115 -0.4899 -0.0217
  441MOL0     O60768   5.237   3.650   3.826  0.1862 -0.2728 -0.0187
  441MOL0     C60769   5.258   3.384   3.795 -0.4977  0.1216  0.1116
  441MOL0     C60770   5.271   3.243   3.786  0.2714 -0.0046 -0.6981
  441MOL0     N60771   4.767   3.021   3.971 -0.7974  0.0081 -0.1400
  441MOL0     N60772   4.671   3.106   4.006  0.1858  0.5784  0.4363
  441MOL0     C60773   3.576   3.534   3.914  0.8191  0.2542  0.2423
  441MOL0     C60774   3.461   3.557   3.978  0.1845  0.3250 -0.7499
  441MOL0     C60775   3.112   3.694   4.194  0.6103 -0.5370 -0.4271
  441MOL0     C60776   3.035   3.745   4.092 -0.0017 -0.4199  0.2034
  441MOL0     C60777   2.905   3.799   4.113 -0.8161  0.7327 -0.1204
  441MOL0     C60778   2.844   3.796   4.239  0.3473  0.3070 -0.8704
  441MOL0     O60779   2.724   3.858   4.248  0.4822  0.4401  0.3084
  441MOL0     C60780   2.659   3.844   4.373  0.3877 -0.6647  0.4903
  441MOL0     C60781   2.505   3.899   4.374 -1.0218 -0.2183 -0.5888
  441MOL0     C60782   2.425   3.836   4.260 -0.2778  0.5009  0.8425
  441MOL0     C60783   2.405   3.683   4.279  0.4757  0.4268  0.2646
  441MOL0     C60784   2.294   3.664   4.375  0.6706 -0.2922  0.1510
  441MOL0     C60785   2.194   3.640   4.444 -0.6158 -0.0473 -0.2073
  441MOL0     C60786   2.915   3.731   4.340  0.1741  0.6175  0.8401
  441MOL0     C60787   3.049   3.679   4.321  0.0375 -0.7228  0.4692
  441MOL0     C60788   3.101   3.606   4.442  0.0909  0.5077 -0.2984
  441MOL0     H60789   3.474   3.897   3.957  0.5183 -0.2586 -1.9022
  441MOL0     H60790   3.698   3.854   3.881  0.5168 -0.5925 -1.4176
  441MOL0     H60791   3.904   3.731   3.906  1.6931  1.8775  0.2449
  441MOL0     H60792   3.850   3.779   3.747 -1.5814 -0.0831  1.6398
  441MOL0     H60793   3.967   3.597   3.629  1.0274  2.3938 -1.1591
  441MOL0     H60794   4.081   3.700   3.714  2.3976 -2.3105  0.5011
  441MOL0     H60795   4.105   3.523   3.891  0.6117 -0.9114 -0.1590
  441MOL0     H60796   3.990   3.422   3.805 -1.0812  2.0525  2.7963
  441MOL0     H60797   4.090   3.396   3.628  0.1742 -1.5987  1.1265
  441MOL0     H60798   4.231   3.506   3.647  0.4664 -2.2863 -1.2796
  441MOL0     H60799   4.278   3.275   3.669 -0.9240  0.4117  0.1604
  441MOL0     H60800   4.198   3.293   3.839 -1.1852  1.4871  0.0150
  441MOL0     H60801   4.428   3.444   3.732 -0.4540  2.1550  1.3315
  441MOL0     H60802   4.374   3.455   3.893  0.3825  0.4634 -0.7540
  441MOL0     H60803   4.589   3.299   3.858 -0.0296 -1.0654  1.0578
  441MOL0     H60804   4.500   3.220   3.736  4.5813  0.7765 -0.2924
  441MOL0     H60805   4.396   3.194   4.027  0.7471 -1.5580  2.3730
  441MOL0     H60806   4.349   3.104   3.879  0.1663  2.0561 -2.4517
  441MOL0     H60807   4.518   2.870   3.820 -1.5952  1.1692  0.1419
  441MOL0     H60808   4.737   2.704   3.860  2.6598 -1.9970  0.6464
  441MOL0     H60809   4.871   2.789   3.940  0.7790 -0.2566 -1.7636
  441MOL0     H60810   4.922   2.726   3.697 -0.2011  0.3500 -1.6724
  441MOL0     H60811   4.789   2.810   3.658  2.1668 -0.0901 -0.9416
  441MOL0     H60812   5.001   2.934   3.618 -1.9085  0.7497 -0.1352
  441MOL0     H60813   4.901   3.033   3.724 -0.0325 -0.1725  0.6722
  441MOL0     H60814   5.036   2.948   3.928  1.6842 -2.3105  0.3332
  441MOL0     H60815   5.120   2.842   3.801  1.8991  0.2021  0.9048
  441MOL0     H60816   4.969   3.166   3.904  0.2041  0.0408 -0.2476
  441MOL0     H60817   4.860   3.469   3.937 -1.7698  2.4453  3.4096
  441MOL0     H60818   4.978   3.483   4.056  0.4307  2.4776 -4.5215
  441MOL0     H60819   4.878   3.328   4.039 -2.4896  1.1887 -1.7782
  441MOL0     H60820   5.117   3.877   3.895 -0.4275 -2.0428  1.3989
  441MOL0     H60821   5.086   4.074   3.742 -2.7136  3.1622 -0.5351
  441MOL0     H60822   5.071   4.150   3.434  0.2463 -2.6763  3.1238
  441MOL0     H60823   4.993   4.001   3.388  0.2920  0.0593 -0.9656
  441MOL0     H60824   4.931   4.150   3.216  1.1116  2.9686  0.1881
  441MOL0     H60825   4.791   4.134   3.308 -1.2530  0.3337 -1.5638
  441MOL0     H60826   5.002   4.357   3.277  0.2639 -0.0875 -0.6799
  441MOL0     H60827   4.882   4.386   3.409 -0.2643  2.2565 -1.3432
  441MOL0     H60828   4.706   4.353   3.250  0.0740  0.2925  0.1994
  441MOL0     H60829   4.829   4.342   3.114  0.4728  1.1072 -0.4325
  441MOL0     H60830   4.759   4.567   3.298  1.7117  0.6877  0.4185
  441MOL0     H60831   4.897   4.573   3.186 -0.1557 -0.4981  1.7810
  441MOL0     H60832   4.613   4.566   3.111 -0.9791  0.7877 -1.1556
  441MOL0     H60833   4.748   4.532   2.994 -1.0349 -0.0463 -1.0649
  441MOL0     H60834   4.837   4.744   3.007  0.4943  0.6097  1.2432
  441MOL0     H60835   4.732   4.789   3.142  1.0970 -0.9365  0.5019
  441MOL0     H60836   4.651   4.891   2.939  1.5067 -0.8901 -0.1011
  441MOL0     H60837   4.534   4.758   2.999  1.0983 -3.6378  2.7639
  441MOL0     H60838   4.810   3.881   3.507  1.6958  4.1183 -0.5651
  441MOL0     H60839   4.859   3.658   3.634  2.2789 -1.2231 -2.4402
  441MOL0     H60840   5.343   3.451   3.781 -0.6168  0.0865 -0.9003
  441MOL0     H60841   5.364   3.198   3.754  1.7945  1.1625  1.8262
  441MOL0     H60842   3.589   3.431   3.881 -3.7712 -1.0952  1.7892
  441MOL0     H60843   3.396   3.476   4.007  0.2776  0.1471 -1.0343
  441MOL0     H60844   3.073   3.750   3.990  1.1948 -0.9374  0.6064
  441MOL0     H60845   2.857   3.844   4.027 -1.2701 -2.9309 -2.0094
  441MOL0     H60846   2.668   3.743   4.413  1.4003 -1.1347 -0.8593
  441MOL0     H60847   2.726   3.902   4.437  1.9561 -1.1901 -0.6135
  441MOL0     H60848   2.505   4.007   4.358 -1.9138 -0.2263 -0.6805
  441MOL0     H60849   2.454   3.875   4.468  2.6121 -1.8423  1.1428
  441MOL0     H60850   2.325   3.880   4.252  0.1998  1.5141  0.2872
  441MOL0     H60851   2.479   3.840   4.165  2.2852 -0.5315  2.1708
  441MOL0     H60852   2.502   3.650   4.319  0.1766  1.7711  2.2394
  441MOL0     H60853   2.387   3.641   4.179 -0.8501 -0.4936  0.8636
  441MOL0     H60854   2.112   3.606   4.505  0.0040 -1.0699  0.0795
  441MOL0     H60855   2.871   3.708   4.437 -2.2073 -0.4681 -0.4117
  441MOL0     H60856   3.126   3.501   4.424  0.7495  0.5319  0.4017
  441MOL0     H60857   3.197   3.653   4.464 -0.6627  1.0489  2.0925
  441MOL0     H60858   3.036   3.596   4.529  0.0975 -2.7291 -0.5299
  442MOL0     O60859   2.367   6.767   4.351  0.3665  0.0556 -0.0813
  442MOL0     C60860   2.444   6.772   4.449  0.5500 -0.1006  0.9986
  442MOL0     O60861   2.408   6.785   4.572  1.1239 -0.2463  0.1812
  442MOL0     C60862   2.273   6.795   4.612 -0.0306  0.3495 -0.4800
  442MOL0     C60863   2.240   6.919   4.677  0.2819 -0.0560  1.0548
  442MOL0     C60864   2.110   6.928   4.734  0.1591 -0.8480  0.3533
  442MOL0     C60865   2.020   6.821   4.723  0.3379 -0.8984 -0.2940
  442MOL0     O60866   1.902   6.844   4.779 -0.5740 -0.4476 -0.2242
  442MOL0     C60867   1.779   6.778   4.738 -0.6460  0.3982 -0.3327
  442MOL0     C60868   1.668   6.869   4.789  0.0223  0.2497 -0.1289
  442MOL0     C60869   1.535   6.810   4.758  0.5970 -0.1750 -0.3308
  442MOL0     C60870   1.437   6.922   4.788  0.4053 -0.0727  0.2186
  442MOL0     C60871   1.302   6.895   4.723  0.4228  0.5181 -0.5374
  442MOL0     C60872   1.236   6.761   4.775 -0.4552  0.1856 -0.9759
  442MOL0     C60873   1.227   6.749   4.936  0.5818  0.4883  0.0715
  442MOL0     C60874   1.118   6.837   4.999  0.1286  0.2987 -0.2298
  442MOL0     N60875   0.987   6.790   4.961  1.1341  0.2130  0.2925
  442MOL0     C60876   0.937   6.685   5.029  0.4678  0.2631  0.1653
  442MOL0     C60877   0.818   6.652   4.961 -0.0498 -1.1180 -0.2193
  442MOL0     C60878   0.704   6.557   4.981 -0.4256 -0.2812 -0.0782
  442MOL0     C60879   0.750   6.420   5.015 -0.3421  0.0904 -0.0786
  442MOL0     C60880   0.643   6.314   5.064 -0.2488 -0.8890 -0.1602
  442MOL0     C60881   0.550   6.294   4.943  0.9050  0.5761 -0.0232
  442MOL0     O60882   0.447   6.199   4.979  0.0165  0.8826  0.6000
  442MOL0     C60883   0.318   6.227   4.938  0.0202 -0.5531 -0.7022
  442MOL0     C60884   0.268   6.193   4.810 -1.2832  0.8745 -0.3636
  442MOL0     C60885   0.133   6.223   4.776 -0.5659  0.7559 -0.5894
  442MOL0     C60886   0.116   6.205   4.633 -0.8698  0.5053  0.1006
  442MOL0     C60887   0.037   6.249   4.877  0.2017 -0.3418 -0.0787
  442MOL0     C60888  -0.113   6.250   4.859 -0.1359 -0.1864  0.5818
  442MOL0     O60889  -0.188   6.330   4.945 -0.2767 -0.6624  0.1769
  442MOL0     C60890  -0.324   6.310   4.967  0.5083  0.8078  0.4866
  442MOL0     C60891  -0.405   6.416   4.995 -0.4151 -0.1496 -0.3406
  442MOL0     C60892  -0.549   6.403   5.004  0.7365  0.9301  0.2202
  442MOL0     C60893  -0.606   6.278   5.013  0.1684  1.4601 -0.0473
  442MOL0     O60894  -0.743   6.242   5.015 -0.5588 -0.3234 -0.0396
  442MOL0     C60895  -0.837   6.347   5.031  0.0457 -0.4303  1.3744
  442MOL0     C60896  -0.856   6.382   5.177  0.1913 -0.5080 -0.1016
  442MOL0     C60897  -0.949   6.286   5.257 -0.0777 -0.9223 -0.8341
  442MOL0     C60898  -0.856   6.184   5.334 -0.0170  0.6544 -0.2731
  442MOL0     C60899  -0.927   6.141   5.469  0.9643 -0.2112  0.8265
  442MOL0     C60900  -0.849   6.026   5.548 -0.0873  0.0844 -0.1566
  442MOL0     C60901  -0.697   6.055   5.571  0.2143  0.2272  0.0152
  442MOL0     C60902  -0.654   5.944   5.672 -0.7597  0.0470  0.9412
  442MOL0    Cl60903  -0.509   6.005   5.753 -0.2928  0.1268 -0.6654
  442MOL0     C60904  -0.521   6.164   4.983 -1.0081  0.2251  0.2048
  442MOL0     C60905  -0.381   6.184   4.969 -0.0678  0.1476  0.1114
  442MOL0     O60906  -0.164   6.166   4.778 -0.0502 -0.1717 -0.8265
  442MOL0     C60907   0.086   6.271   5.002  0.2507  0.5219 -0.0656
  442MOL0     C60908   0.223   6.269   5.036 -0.6173  0.5667 -0.0296
  442MOL0     N60909   0.805   6.751   4.858 -0.9929  0.2688  0.2689
  442MOL0     N60910   0.895   6.837   4.869 -0.0776 -0.9264  0.0484
  442MOL0     C60911   2.045   6.704   4.663  0.3057 -0.3708  0.5812
  442MOL0     C60912   2.178   6.687   4.610  0.2075  0.3637  0.0607
  442MOL0     C60913   2.595   6.773   4.423  0.4797 -0.6293 -0.1334
  442MOL0     C60914   2.653   6.679   4.347  0.1321  0.7846 -0.6866
  442MOL0     C60915   2.786   6.676   4.326  0.7166  0.2094 -0.4668
  442MOL0     C60916   2.872   6.771   4.382 -0.9634 -0.5820 -1.5107
  442MOL0     O60917   3.009   6.762   4.382 -0.2054 -0.6749  0.6246
  442MOL0     C60918   3.085   6.820   4.268 -0.2149  0.8878 -0.2186
  442MOL0     C60919   3.082   6.739   4.136  0.0160  0.7921  0.1650
  442MOL0     C60920   3.176   6.797   4.045 -0.2722 -0.1015 -0.0264
  442MOL0     C60921   3.179   6.690   3.926  0.7118 -0.7679  1.6060
  442MOL0     C60922   3.284   6.708   3.830  0.3796  0.1629  0.1102
  442MOL0     C60923   3.369   6.733   3.750  0.5787  0.6075 -0.1011
  442MOL0     C60924   2.812   6.877   4.460 -0.1190 -0.1017  0.8241
  442MOL0     C60925   2.677   6.878   4.486 -0.3896  0.5641 -0.1850
  442MOL0     C60926   2.621   6.990   4.572 -0.1468  0.0381  0.8437
  442MOL0     H60927   2.313   6.999   4.677  2.1129 -1.5649 -1.4920
  442MOL0     H60928   2.079   7.025   4.772 -2.0677 -1.1420 -0.5321
  442MOL0     H60929   1.771   6.674   4.772  3.1247 -1.1473 -3.3348
  442MOL0     H60930   1.780   6.778   4.628  3.5764 -3.5640 -0.6363
  442MOL0     H60931   1.686   6.885   4.896  2.0870  1.6060 -0.6139
  442MOL0     H60932   1.678   6.962   4.733  1.1461  1.6534  2.2386
  442MOL0     H60933   1.532   6.775   4.654 -0.6108 -0.0464 -0.3578
  442MOL0     H60934   1.512   6.724   4.820  0.0133  0.2432  0.0471
  442MOL0     H60935   1.430   6.943   4.895  0.3899 -2.5975  0.7758
  442MOL0     H60936   1.472   7.017   4.748 -0.9617  1.1342  1.7839
  442MOL0     H60937   1.317   6.905   4.615 -0.1034  4.0612 -0.4197
  442MOL0     H60938   1.240   6.983   4.743 -0.4015 -0.6291  2.4890
  442MOL0     H60939   1.142   6.739   4.725  0.2071 -0.8347 -1.8194
  442MOL0     H60940   1.298   6.679   4.739 -0.1533  0.2098 -0.5261
  442MOL0     H60941   1.323   6.775   4.981  1.5356 -3.6075  0.7681
  442MOL0     H60942   1.219   6.647   4.974  0.2024  0.5406  0.1403
  442MOL0     H60943   1.124   6.832   5.108 -0.1759 -1.3202 -0.2662
  442MOL0     H60944   1.134   6.938   4.962 -3.5101  1.3823  0.7646
  442MOL0     H60945   0.986   6.628   5.107 -0.3606 -3.5866 -1.8413
  442MOL0     H60946   0.649   6.559   4.886  3.1254 -0.6371 -2.3664
  442MOL0     H60947   0.645   6.598   5.063 -1.6506 -1.2237 -0.4544
  442MOL0     H60948   0.804   6.383   4.928 -0.3099  0.3331 -0.1617
  442MOL0     H60949   0.809   6.413   5.107 -3.0399 -1.5521  1.6858
  442MOL0     H60950   0.693   6.223   5.097  2.7715 -0.4669 -2.9626
  442MOL0     H60951   0.583   6.351   5.147 -2.9498 -2.2187 -1.4102
  442MOL0     H60952   0.503   6.388   4.915  0.0820  0.7364  1.7651
  442MOL0     H60953   0.603   6.254   4.856 -1.1497 -1.6175 -0.3913
  442MOL0     H60954   0.343   6.168   4.737  0.1816  1.0660  1.0174
  442MOL0     H60955   0.191   6.264   4.581  1.5042 -0.2726  2.4272
  442MOL0     H60956   0.014   6.222   4.598 -0.8840  2.4629  0.9390
  442MOL0     H60957   0.129   6.097   4.628  2.6319  0.2689  5.6695
  442MOL0     H60958  -0.359   6.513   5.007  0.7560 -0.6317 -0.7398
  442MOL0     H60959  -0.604   6.496   5.009  1.4661  1.3412  0.9193
  442MOL0     H60960  -0.799   6.428   4.969  1.6174 -0.9696  1.5867
  442MOL0     H60961  -0.926   6.315   4.977  0.3382 -0.0600  0.6597
  442MOL0     H60962  -0.754   6.386   5.216 -0.0155  2.3753  0.3199
  442MOL0     H60963  -0.889   6.486   5.184  4.5716  1.0290  1.6457
  442MOL0     H60964  -1.018   6.232   5.192  1.2508  1.7900 -4.8219
  442MOL0     H60965  -1.006   6.352   5.323 -1.0604 -0.8466 -1.7307
  442MOL0     H60966  -0.763   6.228   5.370  0.5302 -1.4608  1.0981
  442MOL0     H60967  -0.851   6.092   5.274 -0.7779  1.0238 -0.9217
  442MOL0     H60968  -0.918   6.228   5.535  2.7937 -2.3510  3.6408
  442MOL0     H60969  -1.034   6.119   5.459  0.9152  0.5991 -0.8331
  442MOL0     H60970  -0.858   5.932   5.494  2.9684  0.3452 -1.2832
  442MOL0     H60971  -0.902   6.020   5.644  0.8659 -0.6655  0.3320
  442MOL0     H60972  -0.684   6.157   5.608  2.7062  0.0544 -0.2174
  442MOL0     H60973  -0.637   6.045   5.480  2.4543 -3.6345  1.6446
  442MOL0     H60974  -0.626   5.854   5.616 -1.1338  0.0691  0.7129
  442MOL0     H60975  -0.733   5.921   5.745  0.6565 -3.3875  1.5994
  442MOL0     H60976  -0.561   6.064   4.974  1.4129 -0.6922 -1.4088
  442MOL0     H60977  -0.297   6.114   4.974  2.2460  2.7748  0.3978
  442MOL0     H60978   0.022   6.292   5.087  0.0044  0.9916 -0.3559
  442MOL0     H60979   0.234   6.270   5.144 -0.5306 -0.4105 -0.0152
  442MOL0     H60980   1.961   6.637   4.654 -0.2399  0.1311  1.7475
  442MOL0     H60981   2.196   6.591   4.563 -0.9919  0.5171 -0.7473
  442MOL0     H60982   2.596   6.599   4.299  1.5448 -0.6516 -0.0755
  442MOL0     H60983   2.827   6.600   4.261  0.5998 -0.5653  0.3539
  442MOL0     H60984   3.050   6.922   4.249 -1.2381  0.7514  0.7914
  442MOL0     H60985   3.188   6.826   4.304 -0.3890  0.9672  0.2830
  442MOL0     H60986   2.985   6.743   4.087  1.0669 -0.2786 -2.1280
  442MOL0     H60987   3.096   6.631   4.146 -2.4433  0.1556 -2.2872
  442MOL0     H60988   3.136   6.895   4.019 -1.2178 -0.4960 -0.1158
  442MOL0     H60989   3.277   6.813   4.084 -0.6675  2.6272  0.0682
  442MOL0     H60990   3.081   6.682   3.877  1.2925  0.9839  0.0838
  442MOL0     H60991   3.210   6.593   3.966  3.2509 -0.0320  1.6007
  442MOL0     H60992   3.451   6.748   3.683  0.9100 -1.6521 -0.2768
  442MOL0     H60993   2.882   6.950   4.501  0.2997 -0.6587  1.1151
  442MOL0     H60994   2.647   7.084   4.523  0.3247 -0.4249  0.1937
  442MOL0     H60995   2.517   6.989   4.604 -0.0364 -0.1779  1.2024
  442MOL0     H60996   2.685   6.993   4.661  1.9446  3.5951 -0.5554
  443MOL0     O60997   5.293   8.569   7.832  0.3305  0.2434  0.4094
  443MOL0     C60998   5.254   8.527   7.725  0.6002 -0.7897  0.5947
  443MOL0     O60999   5.271   8.603   7.605 -0.0029  0.3344  0.1743
  443MOL0     C61000   5.297   8.742   7.624 -0.0162  0.2685  0.1660
  443MOL0     C61001   5.202   8.821   7.689 -0.3755  0.9411 -0.3937
  443MOL0     C61002   5.220   8.958   7.705 -0.9764 -0.5211 -0.1814
  443MOL0     C61003   5.341   9.020   7.659  0.4720 -0.2821  0.0114
  443MOL0     O61004   5.370   9.151   7.680 -0.4557 -0.5935 -0.2068
  443MOL0     C61005   5.403   9.190   7.817 -0.2682 -0.1200 -0.5532
  443MOL0     C61006   5.530   9.280   7.835 -1.1187  0.6726 -0.3106
  443MOL0     C61007   5.534   9.366   7.977 -0.4248  0.1660 -0.6957
  443MOL0     C61008   5.556   9.287   8.099 -0.0946  0.8451 -0.4424
  443MOL0     C61009   5.569   9.365   8.223  0.2774 -0.6068 -1.3466
  443MOL0     C61010   5.596   9.276   8.351  1.1077  0.4340  0.5730
  443MOL0     C61011   5.484   9.266   8.453 -0.8139 -0.5483  0.1818
  443MOL0     C61012   5.358   9.195   8.411 -0.3243 -0.0571 -1.0439
  443MOL0     N61013   5.246   9.263   8.493 -0.3870 -0.5054  0.5724
  443MOL0     C61014   5.218   9.243   8.630 -0.2700  0.1604 -0.6457
  443MOL0     C61015   5.113   9.314   8.656 -0.1071  1.1088 -0.4694
  443MOL0     C61016   5.050   9.321   8.789  0.1398 -0.2212  0.3725
  443MOL0     C61017   4.916   9.397   8.797 -0.2411  1.0679  1.0020
  443MOL0     C61018   4.803   9.322   8.723 -0.9543 -0.2778  0.6997
  443MOL0     C61019   4.659   9.370   8.767  0.7385  0.0458  0.3906
  443MOL0     O61020   4.647   9.333   8.903 -0.6541  0.3865  0.1650
  443MOL0     C61021   4.640   9.203   8.938  0.3379 -0.3824  0.0238
  443MOL0     C61022   4.693   9.173   9.063 -0.0764  0.1243 -0.0298
  443MOL0     C61023   4.713   9.048   9.117  0.1910  0.8261 -0.1205
  443MOL0     C61024   4.754   9.034   9.257  0.5087 -0.6302  0.0057
  443MOL0     C61025   4.695   8.941   9.033 -0.0534 -0.1722  0.0626
  443MOL0     C61026   4.722   8.803   9.071 -0.2224 -0.0792 -0.6953
  443MOL0     O61027   4.757   8.724   8.967 -0.8719 -0.4589  0.1984
  443MOL0     C61028   4.781   8.588   8.977  0.4658  1.0318  0.0841
  443MOL0     C61029   4.838   8.538   8.862 -0.3687  0.4568  0.3269
  443MOL0     C61030   4.844   8.397   8.839 -0.2497 -0.3677 -0.1591
  443MOL0     C61031   4.810   8.306   8.939  0.7348  0.1034  0.2567
  443MOL0     O61032   4.816   8.169   8.926  0.1502 -0.7044 -0.0945
  443MOL0     C61033   4.871   8.119   8.803 -0.2987 -0.1290 -0.1704
  443MOL0     C61034   4.859   7.970   8.799  0.0649  1.2775 -0.4251
  443MOL0     C61035   4.875   7.924   8.652  0.5458  0.0501 -0.1735
  443MOL0     C61036   4.892   7.774   8.656 -0.8203  0.2349  0.4698
  443MOL0     C61037   4.856   7.720   8.520  0.0641 -0.2073  0.1300
  443MOL0     C61038   4.884   7.577   8.505 -0.9029  0.0384 -0.5734
  443MOL0     C61039   4.812   7.524   8.387 -0.1180 -0.1105  0.5410
  443MOL0     C61040   4.801   7.361   8.380  0.5481  0.5505 -0.7704
  443MOL0    Cl61041   4.973   7.303   8.389 -0.2383 -0.0354 -0.1301
  443MOL0     C61042   4.761   8.355   9.060 -0.0247 -0.6086  0.2503
  443MOL0     C61043   4.736   8.492   9.070  0.8300 -0.3092 -0.7999
  443MOL0     O61044   4.696   8.767   9.186  0.6367 -0.1938 -0.1249
  443MOL0     C61045   4.640   8.963   8.907  0.3044 -0.8305 -0.1605
  443MOL0     C61046   4.610   9.087   8.862 -0.6089 -0.7223  0.3789
  443MOL0     N61047   5.068   9.373   8.533  0.2928 -0.3297 -0.6181
  443MOL0     N61048   5.150   9.345   8.442 -0.2622 -0.1749 -0.3473
  443MOL0     C61049   5.437   8.945   7.589 -0.5754 -0.3733  0.2519
  443MOL0     C61050   5.406   8.808   7.563  0.0089 -0.0618 -0.5087
  443MOL0     C61051   5.165   8.404   7.722 -0.2194  0.8933 -0.3732
  443MOL0     C61052   5.129   8.344   7.837  0.2553  0.7528  0.0265
  443MOL0     C61053   5.063   8.228   7.845 -0.2104 -1.0074  0.5763
  443MOL0     C61054   5.023   8.158   7.731  0.4014 -0.3857 -0.1398
  443MOL0     O61055   4.938   8.043   7.728  0.5437 -0.5150 -0.1925
  443MOL0     C61056   4.841   8.029   7.838 -0.1664 -0.2380  0.7482
  443MOL0     C61057   4.710   8.086   7.810  0.6121 -0.5351 -0.5778
  443MOL0     C61058   4.626   7.997   7.722 -0.2960  0.3613 -0.3294
  443MOL0     C61059   4.656   7.988   7.571  0.0272  0.6448  0.2476
  443MOL0     C61060   4.696   8.118   7.524 -0.2562 -0.1660 -0.5095
  443MOL0     C61061   4.713   8.233   7.479 -0.2173  0.3073 -0.2910
  443MOL0     C61062   5.045   8.219   7.610  0.5722  0.7172 -0.4712
  443MOL0     C61063   5.116   8.343   7.603 -0.9034  0.2239 -0.1855
  443MOL0     C61064   5.154   8.385   7.461 -0.0714  0.0950 -0.4448
  443MOL0     H61065   5.108   8.780   7.725  0.2598  1.2929  1.7864
  443MOL0     H61066   5.143   9.023   7.746 -1.8860  0.5115 -3.2540
  443MOL0     H61067   5.429   9.103   7.879 -2.5837 -0.1743  0.4477
  443MOL0     H61068   5.329   9.249   7.872 -0.0515  0.3748 -0.7863
  443MOL0     H61069   5.621   9.220   7.846  0.4633  3.0304  0.2405
  443MOL0     H61070   5.546   9.345   7.748 -0.1297  0.8274 -0.0210
  443MOL0     H61071   5.613   9.441   7.969 -1.2626  1.2128  0.3642
  443MOL0     H61072   5.442   9.422   7.998  1.5889  2.8863  1.7190
  443MOL0     H61073   5.471   9.219   8.107  0.3781  0.4804  2.8672
  443MOL0     H61074   5.645   9.224   8.090 -1.4458 -1.3746  0.8031
  443MOL0     H61075   5.486   9.435   8.236  0.5172 -0.1319 -2.2743
  443MOL0     H61076   5.662   9.421   8.214 -0.2730  0.2264 -1.9513
  443MOL0     H61077   5.617   9.177   8.311 -2.0821  0.4908 -1.5897
  443MOL0     H61078   5.680   9.315   8.410 -0.9708  2.1980  2.5549
  443MOL0     H61079   5.453   9.363   8.495  0.9723  0.0081  0.3142
  443MOL0     H61080   5.531   9.218   8.539  1.4737  2.0401  0.5282
  443MOL0     H61081   5.342   9.204   8.303 -3.9944  1.5989 -0.5088
  443MOL0     H61082   5.362   9.092   8.447 -1.6798 -0.0105 -0.7104
  443MOL0     H61083   5.271   9.174   8.694  4.2962  2.1419 -1.9112
  443MOL0     H61084   5.113   9.384   8.853  1.8482 -2.9098  1.5506
  443MOL0     H61085   5.038   9.222   8.835 -1.9853  0.3427  1.1508
  443MOL0     H61086   4.890   9.411   8.902  2.1149 -0.6239  1.8968
  443MOL0     H61087   4.942   9.498   8.764 -0.5424  1.5048  2.0651
  443MOL0     H61088   4.820   9.355   8.620 -1.8882  0.6080  0.8077
  443MOL0     H61089   4.833   9.217   8.732  4.9969  0.8316 -1.4865
  443MOL0     H61090   4.633   9.473   8.741  1.0154  0.3029  1.0941
  443MOL0     H61091   4.579   9.310   8.723 -1.1312  0.0108  3.5245
  443MOL0     H61092   4.714   9.256   9.130  0.0170 -0.8077  1.1429
  443MOL0     H61093   4.853   8.988   9.254  0.3238 -0.9944 -2.3646
  443MOL0     H61094   4.673   8.970   9.295 -0.1483 -1.6655 -2.9317
  443MOL0     H61095   4.764   9.127   9.314  1.5003  0.5572 -2.0239
  443MOL0     H61096   4.869   8.603   8.782  0.9179  0.7886  1.0595
  443MOL0     H61097   4.873   8.366   8.739  0.0363 -0.6751  0.0165
  443MOL0     H61098   4.808   8.163   8.724  1.1170  3.7389  0.6232
  443MOL0     H61099   4.975   8.154   8.794 -0.9264  1.9394  0.0050
  443MOL0     H61100   4.936   7.922   8.861  0.8100 -1.7087 -3.3378
  443MOL0     H61101   4.769   7.921   8.838  0.5086  0.0525 -0.8843
  443MOL0     H61102   4.960   7.976   8.608  0.2803  0.2135 -0.5007
  443MOL0     H61103   4.780   7.950   8.605  0.3548  0.5972  0.4971
  443MOL0     H61104   4.825   7.725   8.727 -0.9205 -2.7529 -1.5003
  443MOL0     H61105   4.996   7.754   8.684 -0.7236  3.0297  2.5943
  443MOL0     H61106   4.752   7.747   8.499  0.0358 -0.3508  0.0820
  443MOL0     H61107   4.916   7.771   8.443 -2.0637  1.8739 -0.2820
  443MOL0     H61108   4.837   7.533   8.593 -0.3311 -0.1955 -0.3811
  443MOL0     H61109   4.991   7.555   8.495 -0.9923 -0.0614 -1.4393
  443MOL0     H61110   4.866   7.559   8.298  0.8862 -1.3892  0.6122
  443MOL0     H61111   4.713   7.568   8.399  0.7692  1.9656  0.5640
  443MOL0     H61112   4.753   7.323   8.289 -0.4298 -2.0611  0.7180
  443MOL0     H61113   4.750   7.336   8.473  1.4504  3.9016  0.7896
  443MOL0     H61114   4.735   8.280   9.133 -0.1468 -1.3536 -0.5444
  443MOL0     H61115   4.675   8.531   9.150 -1.7319 -2.6160 -1.4731
  443MOL0     H61116   4.630   8.882   8.835 -0.3031 -0.2530 -0.7477
  443MOL0     H61117   4.571   9.113   8.764  0.5878  0.2122  0.1198
  443MOL0     H61118   5.530   8.993   7.564 -1.4421  1.9802  1.3063
  443MOL0     H61119   5.480   8.756   7.504  1.9274  3.9102 -2.0117
  443MOL0     H61120   5.160   8.383   7.934  0.5921  1.9462 -0.5442
  443MOL0     H61121   5.044   8.197   7.947  1.6586  1.9214  1.9258
  443MOL0     H61122   4.834   7.924   7.867  0.3389 -0.5751 -0.3109
  443MOL0     H61123   4.877   8.084   7.926  0.8225 -1.7722  1.3466
  443MOL0     H61124   4.718   8.187   7.767  0.3971  0.9399  2.5658
  443MOL0     H61125   4.659   8.100   7.906  1.1274  0.4896 -0.4358
  443MOL0     H61126   4.613   7.898   7.767 -1.2541  0.8861  0.6096
  443MOL0     H61127   4.528   8.039   7.748 -0.1962 -0.5856  1.7860
  443MOL0     H61128   4.571   7.961   7.507 -0.2904  3.0292 -0.4320
  443MOL0     H61129   4.733   7.911   7.561 -1.0367 -0.3270 -0.8079
  443MOL0     H61130   4.734   8.328   7.435  3.1409 -0.8031 -1.4139
  443MOL0     H61131   4.993   8.169   7.529  0.6640 -2.9616  1.4950
  443MOL0     H61132   5.120   8.486   7.434  0.6952  0.7566  0.9303
  443MOL0     H61133   5.263   8.390   7.468 -0.0976  1.8724 -0.8149
  443MOL0     H61134   5.107   8.317   7.389 -1.9678 -0.6067  1.3503
  444MOL0     O61135   5.464   9.581   7.664  0.2161  0.4391 -0.6513
  444MOL0     C61136   5.358   9.577   7.597 -0.5100  0.1783  0.5431
  444MOL0     O61137   5.337   9.524   7.469  0.4477 -0.7281 -0.4094
  444MOL0     C61138   5.443   9.485   7.401 -0.4838  0.1728 -0.4042
  444MOL0     C61139   5.534   9.574   7.338 -0.0689  0.0175 -0.1737
  444MOL0     C61140   5.629   9.519   7.247  0.8734  0.8680  0.4118
  444MOL0     C61141   5.644   9.380   7.231 -0.4993  0.2681  0.2680
  444MOL0     O61142   5.744   9.335   7.151  0.4010  0.5361  0.0772
  444MOL0     C61143   5.703   9.250   7.047  0.4871 -1.0246 -0.1531
  444MOL0     C61144   5.816   9.264   6.939 -0.0436 -0.6084  0.2173
  444MOL0     C61145   5.949   9.195   6.987 -0.0528 -0.1333  0.3034
  444MOL0     C61146   6.034   9.299   7.068 -0.8674  0.1743  0.5143
  444MOL0     C61147   6.169   9.246   7.117 -0.6491  0.3053 -0.8800
  444MOL0     C61148   6.278   9.243   7.011 -0.5171  0.6810 -0.0931
  444MOL0     C61149   6.411   9.191   7.060  0.2681  0.5964  0.1529
  444MOL0     C61150   6.521   9.168   6.957 -0.1650  0.5401 -0.0355
  444MOL0     N61151   6.529   9.028   6.905 -0.1497  0.3239 -0.1814
  444MOL0     C61152   6.534   8.921   6.985  0.3754 -0.6551 -0.8398
  444MOL0     C61153   6.539   8.819   6.900 -0.9819 -0.1057 -0.5815
  444MOL0     C61154   6.539   8.669   6.917 -0.2812  0.5031  0.3141
  444MOL0     C61155   6.667   8.623   6.987  0.0445  0.2526  0.1562
  444MOL0     C61156   6.709   8.475   6.940 -0.6254  0.0980 -0.6232
  444MOL0     C61157   6.603   8.370   6.990 -0.5384 -0.4779  0.5045
  444MOL0     O61158   6.662   8.245   7.008  0.6630 -0.8754  0.2279
  444MOL0     C61159   6.669   8.159   6.898 -0.5574 -0.6668 -0.1390
  444MOL0     C61160   6.658   8.190   6.767  1.1786 -1.5814 -0.5728
  444MOL0     C61161   6.691   8.107   6.661 -0.5791 -0.2753 -1.0854
  444MOL0     C61162   6.671   8.152   6.518 -0.1801  0.8808  0.3690
  444MOL0     C61163   6.746   7.981   6.695  0.2650  0.5073 -0.0169
  444MOL0     C61164   6.793   7.900   6.584  0.2699  0.3659 -0.1222
  444MOL0     O61165   6.708   7.840   6.506 -0.2053 -0.5968 -0.6601
  444MOL0     C61166   6.758   7.808   6.389  0.1669 -0.3907  0.1483
  444MOL0     C61167   6.844   7.889   6.303  0.0362 -0.7989  0.1440
  444MOL0     C61168   6.870   7.862   6.170 -0.0876 -0.2589 -0.1423
  444MOL0     C61169   6.832   7.740   6.121  0.0138  0.0127  0.7880
  444MOL0     O61170   6.858   7.717   5.990  0.5081  0.4771  0.3275
  444MOL0     C61171   6.968   7.620   5.964  0.1274  1.0194  0.3955
  444MOL0     C61172   6.965   7.610   5.809 -0.4337  0.0665 -0.3836
  444MOL0     C61173   7.089   7.559   5.751 -0.7477 -0.2305  0.1509
  444MOL0     C61174   7.094   7.552   5.589 -0.1278 -0.0025  0.2658
  444MOL0     C61175   7.214   7.469   5.530  0.0296  0.1396 -0.4751
  444MOL0     C61176   7.350   7.536   5.550 -0.7434  0.1374 -0.5330
  444MOL0     C61177   7.366   7.680   5.491 -0.3209 -0.6908 -0.6333
  444MOL0     C61178   7.520   7.695   5.462 -0.3631  0.0559  0.1886
  444MOL0    Cl61179   7.547   7.842   5.376  0.1677 -0.1693  0.1085
  444MOL0     C61180   6.764   7.650   6.199 -0.1961  0.5198 -0.0575
  444MOL0     C61181   6.726   7.683   6.335 -0.3249 -0.5016 -0.2092
  444MOL0     O61182   6.918   7.896   6.577  0.3053 -0.2447 -0.2657
  444MOL0     C61183   6.763   7.950   6.834 -0.4456  0.5624 -0.2747
  444MOL0     C61184   6.721   8.033   6.933  0.4318  0.2425  0.5584
  444MOL0     N61185   6.540   8.873   6.776  0.1077 -0.3942 -0.2822
  444MOL0     N61186   6.530   8.998   6.776  0.3079 -0.9115  0.0033
  444MOL0     C61187   5.562   9.293   7.302  0.1504 -0.9739 -0.6741
  444MOL0     C61188   5.454   9.345   7.375  0.5719 -0.6804  0.6661
  444MOL0     C61189   5.242   9.660   7.642 -0.7738 -0.3785  0.7820
  444MOL0     C61190   5.140   9.692   7.548 -0.1368 -0.6495 -0.3950
  444MOL0     C61191   5.027   9.756   7.580 -0.2126 -0.6141 -0.5928
  444MOL0     C61192   5.009   9.817   7.715 -1.3370 -0.5065  0.8909
  444MOL0     O61193   4.901   9.902   7.731 -0.3202 -0.3764 -0.0492
  444MOL0     C61194   4.877   9.969   7.858 -0.3169 -0.5503  0.0863
  444MOL0     C61195   4.925  10.111   7.853 -0.1782  0.1035  0.3523
  444MOL0     C61196   4.893  10.186   7.988  0.7221 -0.5061  0.0547
  444MOL0     C61197   4.781  10.294   7.969  0.1066 -0.2170 -1.6431
  444MOL0     C61198   4.662  10.237   7.912 -0.0498  0.1841 -0.2517
  444MOL0     C61199   4.549  10.206   7.872  0.2841  0.1704 -0.5157
  444MOL0     C61200   5.112   9.786   7.806 -0.9255 -0.1573  1.1690
  444MOL0     C61201   5.226   9.704   7.776 -0.3307 -0.2468 -0.2986
  444MOL0     C61202   5.309   9.656   7.898 -0.1875  0.4287 -0.0168
  444MOL0     H61203   5.528   9.682   7.345  0.7719  0.2366 -2.1941
  444MOL0     H61204   5.680   9.595   7.188  0.2209  1.1481  0.1949
  444MOL0     H61205   5.614   9.288   6.997 -0.2638 -0.4266  1.5466
  444MOL0     H61206   5.682   9.146   7.076  2.7876 -0.8463  2.6678
  444MOL0     H61207   5.770   9.212   6.854  0.3705 -1.1495  0.3171
  444MOL0     H61208   5.838   9.369   6.921 -2.5841  0.1901  1.2612
  444MOL0     H61209   5.929   9.107   7.047 -0.8819 -1.6081 -2.0027
  444MOL0     H61210   6.017   9.165   6.907  0.8237 -1.3378  1.4739
  444MOL0     H61211   6.068   9.385   7.010  0.4115  0.6590  1.9129
  444MOL0     H61212   5.987   9.338   7.159  3.3293  1.5789  2.3309
  444MOL0     H61213   6.159   9.149   7.166  1.3812 -0.5445 -2.0171
  444MOL0     H61214   6.214   9.319   7.185  3.0213  1.9077 -4.5954
  444MOL0     H61215   6.238   9.185   6.927  0.1814  1.7341 -1.1787
  444MOL0     H61216   6.298   9.345   6.978  1.8794  1.1589  2.4349
  444MOL0     H61217   6.390   9.103   7.121  2.7114  0.3292  0.7053
  444MOL0     H61218   6.433   9.272   7.130  0.3991  0.5689  0.1436
  444MOL0     H61219   6.507   9.227   6.866  1.1532 -1.0578 -1.3293
  444MOL0     H61220   6.615   9.186   7.009  0.2385  1.6232 -1.1018
  444MOL0     H61221   6.526   8.918   7.093 -2.2270  0.5726 -0.9131
  444MOL0     H61222   6.522   8.633   6.816 -0.9954  0.0760  0.5770
  444MOL0     H61223   6.452   8.639   6.976 -1.1899  0.0283 -1.2074
  444MOL0     H61224   6.754   8.684   6.962 -0.6160  1.0683 -0.1965
  444MOL0     H61225   6.643   8.614   7.093  0.6401  1.2338  0.3897
  444MOL0     H61226   6.718   8.481   6.831  0.2783 -2.9023 -0.8083
  444MOL0     H61227   6.811   8.455   6.975 -0.1517 -0.7924 -2.4178
  444MOL0     H61228   6.564   8.407   7.085  0.4945  3.2723 -0.3547
  444MOL0     H61229   6.520   8.364   6.918 -2.3062  0.0757  2.4039
  444MOL0     H61230   6.617   8.287   6.741 -0.1246 -0.6799  3.9571
  444MOL0     H61231   6.769   8.173   6.475  1.1878 -1.8956  1.8367
  444MOL0     H61232   6.611   8.243   6.523 -3.2425 -1.0240  2.1629
  444MOL0     H61233   6.612   8.071   6.473  0.2505  2.1907 -2.7745
  444MOL0     H61234   6.889   7.979   6.346 -2.4341 -0.0350  1.2897
  444MOL0     H61235   6.927   7.936   6.115  0.8933 -1.1290 -0.3270
  444MOL0     H61236   7.064   7.660   5.998 -0.9837  3.0816  1.2626
  444MOL0     H61237   6.957   7.522   6.011  0.3479  0.1804 -1.2101
  444MOL0     H61238   6.878   7.548   5.785 -0.7037  1.6808 -4.3600
  444MOL0     H61239   6.940   7.700   5.751  0.9331  2.1180  2.0216
  444MOL0     H61240   7.106   7.458   5.788 -0.2850 -1.5805 -3.3830
  444MOL0     H61241   7.169   7.626   5.785 -1.1496 -0.1119  0.8898
  444MOL0     H61242   7.107   7.653   5.550  2.1562 -0.6321 -0.8029
  444MOL0     H61243   7.003   7.513   5.542 -0.8158  1.7309  0.0917
  444MOL0     H61244   7.203   7.371   5.578 -2.9518  0.8197  0.4338
  444MOL0     H61245   7.188   7.440   5.428 -2.1228 -1.9272  0.5653
  444MOL0     H61246   7.430   7.468   5.519 -0.9667 -0.0869 -0.6176
  444MOL0     H61247   7.376   7.542   5.656  0.0477  1.7543 -0.7708
  444MOL0     H61248   7.337   7.753   5.567  0.9304  0.5635 -1.3023
  444MOL0     H61249   7.313   7.691   5.396  2.1149  3.6332 -1.7811
  444MOL0     H61250   7.560   7.616   5.398  0.5562  1.8067 -1.5217
  444MOL0     H61251   7.571   7.703   5.558  0.9459  1.3943 -0.5686
  444MOL0     H61252   6.755   7.546   6.168 -2.9830 -0.4355  3.2675
  444MOL0     H61253   6.677   7.615   6.403 -0.8504  0.7311  0.6881
  444MOL0     H61254   6.804   7.852   6.859  0.4054 -0.4956 -4.8779
  444MOL0     H61255   6.737   8.017   7.039  4.8938  1.1949  0.1940
  444MOL0     H61256   5.578   9.187   7.292 -2.6408 -1.5483 -0.0045
  444MOL0     H61257   5.383   9.287   7.434 -1.1102  1.2326  0.6309
  444MOL0     H61258   5.162   9.678   7.443 -0.8187  1.4918 -0.8698
  444MOL0     H61259   4.946   9.777   7.510 -5.0578  1.2313  4.7751
  444MOL0     H61260   4.771   9.972   7.885  0.2710  1.3340  2.5951
  444MOL0     H61261   4.914   9.905   7.938 -1.6666 -1.3318  0.1117
  444MOL0     H61262   4.864  10.154   7.772 -3.0067 -1.3398  1.5559
  444MOL0     H61263   5.028  10.121   7.819 -0.2217 -1.3391 -0.2860
  444MOL0     H61264   4.855  10.112   8.059  2.0863 -2.0355 -0.7566
  444MOL0     H61265   4.982  10.230   8.033 -0.9907 -0.8727  4.2874
  444MOL0     H61266   4.819  10.377   7.909  0.9986 -0.3695 -1.2993
  444MOL0     H61267   4.750  10.334   8.066  1.9344 -1.0150 -0.6872
  444MOL0     H61268   4.449  10.178   7.844  0.2462  0.8353 -1.0794
  444MOL0     H61269   5.098   9.823   7.907  0.3199 -0.3971  1.4511
  444MOL0     H61270   5.293   9.549   7.917 -1.4086  0.7478  0.9050
  444MOL0     H61271   5.416   9.680   7.890 -0.0409  0.5759  1.7737
  444MOL0     H61272   5.273   9.706   7.989 -2.1694 -0.2585 -0.3737
  445MOL0     O61273  10.174   2.349   0.050 -0.1323  0.3508  1.3781
  445MOL0     C61274  10.184   2.405   0.157  0.5398  0.8876 -0.4181
  445MOL0     O61275  10.252   2.521   0.178  0.0615  0.0613  0.5135
  445MOL0     C61276  10.334   2.572   0.078 -0.4919 -0.1721 -0.1058
  445MOL0     C61277  10.456   2.508   0.053  0.9048  0.7349  0.7354
  445MOL0     C61278  10.539   2.554  -0.049  0.1514  0.0564  0.2730
  445MOL0     C61279  10.500   2.661  -0.124 -0.4485 -0.9984 -0.0588
  445MOL0     O61280  10.579   2.721  -0.226  0.4689  0.1644 -0.1899
  445MOL0     C61281  10.723   2.689  -0.222  1.0723  0.0470 -0.0692
  445MOL0     C61282  10.790   2.755  -0.342 -0.3872  0.2873  0.9008
  445MOL0     C61283  10.815   2.902  -0.330  0.5065 -0.9825 -0.2269
  445MOL0     C61284  10.899   2.947  -0.209  0.7139  0.9220  0.7108
  445MOL0     C61285  10.940   3.089  -0.236  0.2964  0.0066 -0.2991
  445MOL0     C61286  11.008   3.144  -0.110  0.0873  0.3921  0.3388
  445MOL0     C61287  10.979   3.284  -0.106 -1.0297  2.0507  0.3503
  445MOL0     C61288  11.057   3.349   0.003 -0.1091 -0.0741  0.1109
  445MOL0     N61289  11.186   3.401  -0.040  0.7717  0.0436 -0.2298
  445MOL0     C61290  11.295   3.319  -0.053  1.5287  0.0174 -0.3067
  445MOL0     C61291  11.386   3.409  -0.086 -0.3318  0.6898  0.5523
  445MOL0     C61292  11.526   3.394  -0.138  0.0024  0.5316 -0.1848
  445MOL0     C61293  11.608   3.280  -0.077 -0.0721  0.0095  0.3419
  445MOL0     C61294  11.719   3.244  -0.162 -0.5491  0.1883  0.6698
  445MOL0     C61295  11.823   3.353  -0.191  0.3590  0.9481 -0.5881
  445MOL0     O61296  11.859   3.449  -0.088 -0.4262  0.0154 -0.1261
  445MOL0     C61297  11.965   3.413  -0.007  0.7042 -0.4131 -0.1525
  445MOL0     C61298  12.041   3.301  -0.022 -0.2280  0.9239 -0.0407
  445MOL0     C61299  12.157   3.286   0.055  0.5886 -0.9668 -0.2377
  445MOL0     C61300  12.220   3.149   0.057  1.0229  0.9233 -1.0676
  445MOL0     C61301  12.200   3.396   0.137 -0.3199  0.2414  0.1875
  445MOL0     C61302  12.325   3.396   0.231  0.6507  0.7102 -0.1068
  445MOL0     O61303  12.361   3.517   0.299 -0.3505  0.3179  0.1519
  445MOL0     C61304  12.447   3.503   0.401  0.1579  0.7351  0.3965
  445MOL0     C61305  12.391   3.471   0.528  0.2699 -0.6976  0.4370
  445MOL0     C61306  12.467   3.491   0.640 -0.7910 -0.3650 -0.5444
  445MOL0     C61307  12.600   3.527   0.622  0.9601  0.4219 -0.0202
  445MOL0     O61308  12.674   3.526   0.736 -0.2895  0.1593 -0.2056
  445MOL0     C61309  12.812   3.534   0.747 -0.7622  0.5766 -0.3501
  445MOL0     C61310  12.887   3.415   0.693 -0.2006 -0.2599  0.4708
  445MOL0     C61311  13.033   3.425   0.738 -0.5857 -0.4437 -0.0171
  445MOL0     C61312  13.127   3.311   0.696  0.7039  0.0264 -0.5277
  445MOL0     C61313  13.268   3.317   0.745 -0.2788  0.3627 -1.2281
  445MOL0     C61314  13.335   3.444   0.690  0.5671 -0.4068 -0.7548
  445MOL0     C61315  13.368   3.539   0.808  0.5755 -0.1845 -0.9801
  445MOL0     C61316  13.445   3.665   0.765  0.1368  0.5718  1.1968
  445MOL0    Cl61317  13.352   3.801   0.699  0.3815  0.2615 -0.5973
  445MOL0     C61318  12.657   3.550   0.493 -0.5729  0.0455  0.6584
  445MOL0     C61319  12.578   3.539   0.383 -0.3252  0.0244 -0.0765
  445MOL0     O61320  12.382   3.288   0.242 -0.4930  0.4350 -0.5310
  445MOL0     C61321  12.130   3.523   0.137  0.3351  0.6642 -1.8274
  445MOL0     C61322  12.006   3.518   0.072 -0.6221  0.7137  0.3927
  445MOL0     N61323  11.347   3.537  -0.060  0.2489  1.0008  0.0746
  445MOL0     N61324  11.223   3.524  -0.041 -0.0754  0.5401  0.2338
  445MOL0     C61325  10.389   2.739  -0.077 -0.8951  0.0820  0.6413
  445MOL0     C61326  10.301   2.685   0.021 -0.2005  0.6220  0.2896
  445MOL0     C61327  10.089   2.374   0.276  0.8180 -0.1030  0.3979
  445MOL0     C61328  10.070   2.467   0.380 -0.2054  0.4402  0.6412
  445MOL0     C61329   9.972   2.443   0.478  0.9750 -0.9288 -0.2939
  445MOL0     C61330   9.894   2.329   0.475  0.7523 -0.2262  0.4068
  445MOL0     O61331   9.793   2.308   0.573 -0.5302  0.6366 -0.0273
  445MOL0     C61332   9.847   2.237   0.692  0.3636 -0.1492  0.2086
  445MOL0     C61333   9.854   2.337   0.814  0.2834 -0.6871  0.3001
  445MOL0     C61334   9.713   2.398   0.835  0.4877 -0.3055 -0.1101
  445MOL0     C61335   9.622   2.296   0.906  0.0494 -0.0560  0.2195
  445MOL0     C61336   9.493   2.357   0.940 -0.8392  0.1938 -0.4714
  445MOL0     C61337   9.393   2.404   0.982  0.1755 -0.6493  0.4778
  445MOL0     C61338   9.916   2.237   0.382  0.6437 -0.4765  1.1720
  445MOL0     C61339  10.013   2.256   0.281 -0.3764  0.0252 -0.3886
  445MOL0     C61340  10.025   2.145   0.177  0.0133  0.4957  0.4649
  445MOL0     H61341  10.485   2.419   0.107 -0.6598 -1.9472 -2.5338
  445MOL0     H61342  10.628   2.494  -0.063 -0.8128 -1.3067 -0.1969
  445MOL0     H61343  10.734   2.581  -0.239  2.3386 -0.2284  2.1222
  445MOL0     H61344  10.768   2.726  -0.130 -0.2313 -0.8466  0.9704
  445MOL0     H61345  10.884   2.700  -0.350  0.8635  2.1038  2.2987
  445MOL0     H61346  10.728   2.738  -0.430  1.6288 -1.4275 -0.2692
  445MOL0     H61347  10.865   2.931  -0.423  0.7933  2.2995  0.8480
  445MOL0     H61348  10.712   2.937  -0.322 -0.0715 -2.6881  0.3374
  445MOL0     H61349  10.854   2.920  -0.112  0.3011 -0.8315  0.0586
  445MOL0     H61350  10.983   2.877  -0.209 -0.6564 -0.8400 -1.3346
  445MOL0     H61351  10.846   3.144  -0.246  1.1370  1.3510 -1.1216
  445MOL0     H61352  11.007   3.097  -0.322  0.2803  5.7369 -0.1398
  445MOL0     H61353  10.954   3.099  -0.026  0.1954  0.2472  0.3298
  445MOL0     H61354  11.115   3.124  -0.109  0.3409  1.6577  0.7604
  445MOL0     H61355  10.876   3.305  -0.078 -0.9912  0.1797  2.1234
  445MOL0     H61356  10.995   3.325  -0.206  1.3830 -3.1944 -1.7948
  445MOL0     H61357  10.997   3.434   0.037 -1.1637 -0.3214 -1.0638
  445MOL0     H61358  11.084   3.283   0.086  0.1702  0.2401  0.2691
  445MOL0     H61359  11.306   3.211  -0.055  2.6202  0.0217  2.1575
  445MOL0     H61360  11.587   3.482  -0.119 -0.2793  0.2442  2.4289
  445MOL0     H61361  11.514   3.369  -0.244 -0.6446 -6.7984  1.1124
  445MOL0     H61362  11.641   3.322   0.018 -2.0392  3.5174 -0.3701
  445MOL0     H61363  11.549   3.188  -0.064 -0.2240 -0.1642 -1.3656
  445MOL0     H61364  11.775   3.160  -0.119  0.6723  1.9517  2.7540
  445MOL0     H61365  11.684   3.185  -0.247  0.8834 -1.0450  0.9116
  445MOL0     H61366  11.910   3.315  -0.244 -0.9651 -0.9295 -1.5409
  445MOL0     H61367  11.782   3.417  -0.270  0.5464 -0.3911 -1.7986
  445MOL0     H61368  11.999   3.220  -0.080  1.9035  0.7489 -1.4394
  445MOL0     H61369  12.169   3.085  -0.015 -1.4375  1.2166  0.3019
  445MOL0     H61370  12.217   3.097   0.153  2.1382  0.3264 -1.3392
  445MOL0     H61371  12.328   3.147   0.043  1.1716 -1.6011 -0.1668
  445MOL0     H61372  12.285   3.446   0.534  0.2311 -0.5558  0.3521
  445MOL0     H61373  12.440   3.465   0.742 -1.0021  2.5691  0.2227
  445MOL0     H61374  12.844   3.629   0.704  0.4913  0.6867  0.7653
  445MOL0     H61375  12.832   3.537   0.855  0.9741 -1.5386 -0.5430
  445MOL0     H61376  12.853   3.314   0.721  1.1298 -1.8859 -3.1823
  445MOL0     H61377  12.875   3.415   0.585  0.6774 -1.7903  0.3378
  445MOL0     H61378  13.041   3.432   0.847  0.2704 -0.0011 -0.1002
  445MOL0     H61379  13.074   3.512   0.685  0.8309 -0.6969  0.6196
  445MOL0     H61380  13.127   3.317   0.587  2.0011  2.1023 -0.4699
  445MOL0     H61381  13.087   3.216   0.734  1.2515 -0.1874 -0.4903
  445MOL0     H61382  13.275   3.305   0.853  0.4733  2.1595 -1.0402
  445MOL0     H61383  13.314   3.227   0.704  1.0621  0.6361 -0.3735
  445MOL0     H61384  13.282   3.486   0.603 -4.6689 -3.3850  0.5781
  445MOL0     H61385  13.437   3.420   0.657  1.3133 -0.5540  1.5309
  445MOL0     H61386  13.439   3.485   0.871  1.8666  0.7550 -1.5845
  445MOL0     H61387  13.278   3.570   0.862  0.9970 -1.4076  0.4935
  445MOL0     H61388  13.519   3.647   0.686  0.4845  1.0711  1.4047
  445MOL0     H61389  13.492   3.703   0.857 -2.0241  1.8627  1.8491
  445MOL0     H61390  12.758   3.588   0.486 -0.4266  0.5055  3.8336
  445MOL0     H61391  12.615   3.542   0.281  1.1103 -2.3583  0.2949
  445MOL0     H61392  12.149   3.610   0.199 -0.3555  2.3661 -3.8727
  445MOL0     H61393  11.934   3.599   0.079 -1.0636  0.3618 -0.0177
  445MOL0     H61394  10.379   2.835  -0.128 -0.0700 -1.1761 -2.0527
  445MOL0     H61395  10.208   2.734   0.047 -2.0364 -1.4208 -1.9462
  445MOL0     H61396  10.135   2.551   0.401 -0.5412  0.5813  1.1383
  445MOL0     H61397   9.969   2.517   0.558  1.4159 -1.0525 -0.1597
  445MOL0     H61398   9.786   2.149   0.710  4.0210 -3.0750 -0.4062
  445MOL0     H61399   9.950   2.201   0.678 -0.4016 -2.2146 -0.3492
  445MOL0     H61400   9.923   2.420   0.796  2.0330 -1.7283  1.9233
  445MOL0     H61401   9.892   2.286   0.902 -2.6138  0.9196  2.6768
  445MOL0     H61402   9.721   2.486   0.899 -2.8054 -0.2709  0.4121
  445MOL0     H61403   9.670   2.433   0.741  2.0818 -2.9370 -1.9883
  445MOL0     H61404   9.670   2.260   0.998 -1.4706 -0.5205  0.8816
  445MOL0     H61405   9.605   2.207   0.844  1.5118 -1.0725  1.1997
  445MOL0     H61406   9.308   2.453   1.023 -0.2638 -0.3805 -0.7198
  445MOL0     H61407   9.840   2.159   0.385 -1.3092  1.3267  0.8886
  445MOL0     H61408   9.972   2.173   0.085 -0.3412 -3.7928 -0.8438
  445MOL0     H61409  10.125   2.113   0.147 -0.4696  1.9853 -3.4421
  445MOL0     H61410   9.975   2.051   0.200 -2.0463  1.0881 -1.1796
  446MOL0     O61411   2.610   8.741   8.732  0.1106 -0.1547 -0.2659
  446MOL0     C61412   2.495   8.770   8.717  0.0208  0.8028 -0.1631
  446MOL0     O61413   2.457   8.900   8.672  0.0735 -0.3281 -0.4625
  446MOL0     C61414   2.556   8.997   8.666  0.8538  0.2309 -1.1058
  446MOL0     C61415   2.585   9.084   8.771 -0.5208 -1.0509 -0.5584
  446MOL0     C61416   2.687   9.178   8.760 -1.2791 -0.5233  0.0488
  446MOL0     C61417   2.769   9.175   8.641 -0.2376 -0.6864  1.1800
  446MOL0     O61418   2.890   9.244   8.624 -0.5756  0.0163  0.0286
  446MOL0     C61419   2.921   9.336   8.732 -0.4764 -0.1368 -0.0836
  446MOL0     C61420   3.036   9.425   8.686  0.0808 -0.3824 -0.0022
  446MOL0     C61421   3.170   9.352   8.672 -0.2887  1.1934 -0.5564
  446MOL0     C61422   3.237   9.303   8.810 -0.6705 -0.0011  0.9913
  446MOL0     C61423   3.347   9.202   8.783  0.2671 -0.9205  0.2855
  446MOL0     C61424   3.429   9.175   8.908  0.0794  1.4067  0.1623
  446MOL0     C61425   3.538   9.071   8.888 -0.2222 -0.0732  0.3479
  446MOL0     C61426   3.621   9.060   9.015  0.6367  0.0856 -0.2176
  446MOL0     N61427   3.758   9.009   8.980  0.5219 -0.0553  0.3456
  446MOL0     C61428   3.788   8.887   8.922  0.1721 -0.5836 -0.1480
  446MOL0     C61429   3.919   8.888   8.905  0.3084  0.0480  0.7109
  446MOL0     C61430   3.980   8.762   8.850  0.7296  0.0155 -0.5645
  446MOL0     C61431   4.126   8.734   8.893  0.2592  0.3301 -0.0133
  446MOL0     C61432   4.134   8.721   9.048  0.3977 -0.8843 -0.6750
  446MOL0     C61433   4.273   8.684   9.098  0.1212 -1.0881 -0.9642
  446MOL0     O61434   4.307   8.547   9.056  0.1960 -0.1317 -0.6441
  446MOL0     C61435   4.376   8.528   8.937  0.5998  0.5092  0.0614
  446MOL0     C61436   4.415   8.622   8.839 -0.9364  0.2715  0.2501
  446MOL0     C61437   4.482   8.586   8.721 -0.5307 -0.9835  0.2609
  446MOL0     C61438   4.500   8.695   8.619  0.8745 -0.0836 -0.5360
  446MOL0     C61439   4.529   8.453   8.700 -0.1446 -0.8460 -0.2703
  446MOL0     C61440   4.592   8.409   8.573 -0.4035 -0.2219 -0.3336
  446MOL0     O61441   4.561   8.286   8.544  0.4276 -0.3199 -0.4581
  446MOL0     C61442   4.633   8.206   8.457 -0.0476  0.2825  0.1562
  446MOL0     C61443   4.773   8.216   8.426  0.1760 -0.3256 -0.3969
  446MOL0     C61444   4.842   8.141   8.333  0.6298 -0.7255  0.2170
  446MOL0     C61445   4.772   8.035   8.274  0.1770  0.3284 -0.0887
  446MOL0     O61446   4.828   7.949   8.180 -0.0453  0.4650  0.2959
  446MOL0     C61447   4.970   7.957   8.166 -0.2488  0.4622 -0.8065
  446MOL0     C61448   5.006   7.816   8.116  0.3838  0.4788 -0.7525
  446MOL0     C61449   5.157   7.829   8.066  0.1609 -0.0669 -0.9419
  446MOL0     C61450   5.177   7.870   7.918  1.1282 -0.1429 -0.2598
  446MOL0     C61451   5.317   7.908   7.867  0.0406  0.4622  0.4367
  446MOL0     C61452   5.417   7.791   7.880  0.1363 -0.6556  0.1357
  446MOL0     C61453   5.547   7.818   7.800 -0.2627 -0.1414  0.0402
  446MOL0     C61454   5.637   7.915   7.875 -0.0905  0.4915  0.8300
  446MOL0    Cl61455   5.695   7.847   8.038 -0.3649 -0.0330  0.3418
  446MOL0     C61456   4.633   8.017   8.309 -0.3804 -0.3173 -0.0816
  446MOL0     C61457   4.567   8.099   8.402 -0.5014 -0.0770 -0.5145
  446MOL0     O61458   4.655   8.486   8.508 -0.7186 -0.2179  0.0269
  446MOL0     C61459   4.507   8.353   8.804  0.0157  0.6437 -0.9289
  446MOL0     C61460   4.429   8.397   8.911  0.8822 -0.6098 -0.5554
  446MOL0     N61461   3.958   9.022   8.920 -0.6755 -0.1145 -0.3811
  446MOL0     N61462   3.863   9.089   8.979  0.5079 -0.2162  1.1268
  446MOL0     C61463   2.742   9.086   8.543  0.2260  1.3141  0.1945
  446MOL0     C61464   2.629   9.004   8.548  0.1585  0.0637 -0.5635
  446MOL0     C61465   2.394   8.667   8.710 -0.5211  0.4652  0.7910
  446MOL0     C61466   2.290   8.677   8.619  0.3422  0.5060  0.0302
  446MOL0     C61467   2.189   8.579   8.601  0.0462  0.3929 -0.0420
  446MOL0     C61468   2.199   8.459   8.668  0.1064  0.1263  0.3484
  446MOL0     O61469   2.114   8.354   8.655  0.0557 -0.2695  0.2361
  446MOL0     C61470   1.975   8.388   8.627 -0.0680  0.1223 -0.0235
  446MOL0     C61471   1.906   8.265   8.694  0.0762  0.2833 -0.2678
  446MOL0     C61472   1.761   8.275   8.655  0.6515 -0.0614  0.2586
  446MOL0     C61473   1.669   8.202   8.746  0.3688  0.0929  0.2236
  446MOL0     C61474   1.714   8.081   8.806  0.1384 -0.0384 -0.0140
  446MOL0     C61475   1.738   7.969   8.848  0.4639 -0.3673 -0.1294
  446MOL0     C61476   2.305   8.439   8.751  0.5834 -1.2874  0.0875
  446MOL0     C61477   2.400   8.543   8.776 -0.2010  0.0649 -0.5409
  446MOL0     C61478   2.505   8.504   8.882  0.7859 -0.1604  0.3054
  446MOL0     H61479   2.531   9.052   8.860  1.1765 -1.7731  0.2486
  446MOL0     H61480   2.696   9.229   8.856 -1.9933 -0.1256 -0.0867
  446MOL0     H61481   2.950   9.277   8.820 -0.4013  0.2875  0.1803
  446MOL0     H61482   2.835   9.393   8.769 -0.2242 -0.4947  1.1253
  446MOL0     H61483   3.014   9.480   8.594  0.7091 -0.8459 -0.4357
  446MOL0     H61484   3.065   9.494   8.765  2.2047 -0.8224 -0.3392
  446MOL0     H61485   3.167   9.271   8.599 -1.9940  2.4690 -1.9916
  446MOL0     H61486   3.246   9.419   8.630  0.5953  1.3898  1.2501
  446MOL0     H61487   3.291   9.389   8.851  1.3169 -1.0100  0.5870
  446MOL0     H61488   3.159   9.270   8.879 -1.5675  1.9606  0.9850
  446MOL0     H61489   3.411   9.251   8.709 -0.7945  0.6886  0.3815
  446MOL0     H61490   3.312   9.103   8.751  0.0250 -0.6761 -0.2240
  446MOL0     H61491   3.468   9.273   8.937  0.1515  1.6141 -0.6066
  446MOL0     H61492   3.364   9.133   8.985 -2.1230  0.5810 -2.0088
  446MOL0     H61493   3.609   9.093   8.808 -1.0108  1.6395  0.0738
  446MOL0     H61494   3.493   8.973   8.871  2.8178 -1.5956  0.4228
  446MOL0     H61495   3.636   9.158   9.060  1.0273  0.6293 -1.4882
  446MOL0     H61496   3.581   8.999   9.097  1.6133 -0.4054 -0.1027
  446MOL0     H61497   3.728   8.797   8.921 -0.7046 -0.0405  0.9991
  446MOL0     H61498   3.970   8.751   8.742 -0.6845 -1.9516 -0.2817
  446MOL0     H61499   3.915   8.686   8.893 -0.6054  0.1748 -2.1971
  446MOL0     H61500   4.161   8.638   8.854  0.1179 -0.3980  1.5892
  446MOL0     H61501   4.194   8.816   8.867  1.8634  0.3548  3.7365
  446MOL0     H61502   4.108   8.820   9.084  0.2921 -0.5463 -1.6461
  446MOL0     H61503   4.064   8.649   9.091 -0.4252 -0.2300 -0.9016
  446MOL0     H61504   4.354   8.750   9.066  2.6873 -1.8433  3.1655
  446MOL0     H61505   4.264   8.702   9.206 -1.0321  1.2129 -1.3825
  446MOL0     H61506   4.392   8.725   8.866 -0.3895  0.3986  0.2417
  446MOL0     H61507   4.485   8.663   8.515  0.0109  0.6606 -0.6508
  446MOL0     H61508   4.605   8.718   8.636  2.5408 -4.5707 -3.0175
  446MOL0     H61509   4.433   8.777   8.649 -1.8641 -2.6856  1.0534
  446MOL0     H61510   4.833   8.280   8.490 -1.8512  0.7715  0.4817
  446MOL0     H61511   4.948   8.162   8.316  0.5079  0.2862  0.6528
  446MOL0     H61512   5.000   8.043   8.105  5.6549 -0.8357 -0.3579
  446MOL0     H61513   5.014   7.972   8.265  0.0948  0.7337 -0.9975
  446MOL0     H61514   4.981   7.743   8.193 -0.9656  4.2394  2.7147
  446MOL0     H61515   4.941   7.779   8.036 -1.9689  0.3149  1.1317
  446MOL0     H61516   5.189   7.724   8.073 -0.1834 -0.1540 -0.6011
  446MOL0     H61517   5.216   7.891   8.134 -0.5133  0.3576 -0.7323
  446MOL0     H61518   5.106   7.951   7.903 -1.2073 -1.0605  4.1016
  446MOL0     H61519   5.136   7.788   7.858 -1.6596  1.0144 -0.1010
  446MOL0     H61520   5.306   7.934   7.761 -0.8802  1.5994  0.7853
  446MOL0     H61521   5.354   7.996   7.920  1.0683  0.9854 -1.0781
  446MOL0     H61522   5.367   7.705   7.835  1.1246 -2.0278  1.5421
  446MOL0     H61523   5.430   7.765   7.986  0.2126 -1.6932 -0.1205
  446MOL0     H61524   5.534   7.881   7.712  1.6666  0.7034  0.2995
  446MOL0     H61525   5.596   7.725   7.766 -2.2336 -1.8361  1.5834
  446MOL0     H61526   5.573   8.002   7.896 -0.4958 -0.0361  1.8660
  446MOL0     H61527   5.726   7.947   7.820  0.4865 -0.3810  1.2470
  446MOL0     H61528   4.589   7.925   8.271 -0.5178 -0.8878  1.3934
  446MOL0     H61529   4.471   8.079   8.450 -1.3077  0.5865 -1.7752
  446MOL0     H61530   4.542   8.250   8.812 -2.0413 -0.1295 -1.3830
  446MOL0     H61531   4.407   8.330   8.994  2.4434  1.5987  1.8114
  446MOL0     H61532   2.814   9.073   8.462 -0.6519 -0.2323 -0.3668
  446MOL0     H61533   2.617   8.938   8.463  2.3612 -2.0055  0.5680
  446MOL0     H61534   2.282   8.769   8.562 -1.4645  1.3262  1.5139
  446MOL0     H61535   2.117   8.595   8.522  1.2365  1.5922 -0.9289
  446MOL0     H61536   1.951   8.487   8.667 -1.0439 -0.3100  0.5097
  446MOL0     H61537   1.972   8.389   8.518  1.9135  1.1504 -0.0993
  446MOL0     H61538   1.913   8.268   8.803 -2.2901 -0.0834 -0.0565
  446MOL0     H61539   1.936   8.167   8.655 -0.9626 -1.6803  3.4677
  446MOL0     H61540   1.724   8.377   8.667 -1.5675 -0.8844  0.8310
  446MOL0     H61541   1.747   8.244   8.551  0.6198  1.9889 -0.3931
  446MOL0     H61542   1.569   8.186   8.705  0.5849  1.0909 -0.7342
  446MOL0     H61543   1.650   8.269   8.831  3.4795  2.4399 -0.7340
  446MOL0     H61544   1.771   7.882   8.901 -1.0964 -0.5991  0.4934
  446MOL0     H61545   2.311   8.354   8.818  1.9102 -0.4186  1.1466
  446MOL0     H61546   2.501   8.579   8.962 -0.6134  0.1457 -0.0341
  446MOL0     H61547   2.467   8.416   8.934  0.4130 -0.2071 -0.0454
  446MOL0     H61548   2.606   8.488   8.842  1.0038  0.4258  0.5997
  447MOL0     O61549   7.453  10.779   9.057 -0.6377  0.1149  0.3147
  447MOL0     C61550   7.506  10.668   9.065 -0.2317  0.6002 -0.2195
  447MOL0     O61551   7.647  10.649   9.081  0.1380 -0.2690  0.6011
  447MOL0     C61552   7.717  10.767   9.082  0.1441  0.2766  0.0698
  447MOL0     C61553   7.747  10.839   8.957  0.5814 -0.3997 -0.2830
  447MOL0     C61554   7.820  10.953   8.955 -0.2550  1.8951 -0.4815
  447MOL0     C61555   7.869  11.005   9.074  0.3561 -0.0247 -0.7030
  447MOL0     O61556   7.932  11.122   9.051 -0.0559  0.1779 -0.0149
  447MOL0     C61557   7.976  11.185   9.165  0.3041  0.4490 -0.1984
  447MOL0     C61558   8.042  11.318   9.134 -0.4452 -0.3666 -0.5066
  447MOL0     C61559   7.963  11.417   9.054  0.5634  0.2322 -0.1524
  447MOL0     C61560   7.855  11.468   9.135  0.2863 -0.2915 -0.4531
  447MOL0     C61561   7.779  11.586   9.074  0.0222  0.2482 -0.1422
  447MOL0     C61562   7.669  11.629   9.174 -0.0024 -0.2649 -0.1313
  447MOL0     C61563   7.595  11.758   9.131  0.0721 -0.5438  0.2459
  447MOL0     C61564   7.673  11.886   9.151 -0.1353  0.5479 -0.3769
  447MOL0     N61565   7.772  11.876   9.260  0.0735 -0.2021  0.1479
  447MOL0     C61566   7.731  11.909   9.388 -0.3051 -0.3498 -0.2664
  447MOL0     C61567   7.844  11.939   9.456  1.0532 -0.9169  0.2506
  447MOL0     C61568   7.864  11.971   9.606  0.0810  0.4873  0.2621
  447MOL0     C61569   7.770  12.089   9.642 -0.2057 -0.2510 -0.5803
  447MOL0     C61570   7.767  12.109   9.798 -0.0293 -0.9573  0.2738
  447MOL0     C61571   7.900  12.166   9.857  0.1280 -0.4148  0.3125
  447MOL0     O61572   7.883  12.154  10.003  0.6265  0.8028 -0.0723
  447MOL0     C61573   7.982  12.214  10.088  0.6766 -0.5350  1.1158
  447MOL0     C61574   8.124  12.237  10.059  0.3031 -0.2152 -0.0991
  447MOL0     C61575   8.210  12.268  10.165 -1.5593 -0.3592 -0.2116
  447MOL0     C61576   8.360  12.275  10.133  0.0043  0.2133 -0.1053
  447MOL0     C61577   8.158  12.293  10.298 -0.4883 -0.3406  0.3469
  447MOL0     C61578   8.240  12.345  10.412  0.0402  0.2069  1.4750
  447MOL0     O61579   8.168  12.436  10.486 -0.2666  0.1360 -0.3123
  447MOL0     C61580   8.243  12.505  10.577 -0.1617 -0.4939  1.0315
  447MOL0     C61581   8.303  12.622  10.531 -0.7253 -0.3398  0.3307
  447MOL0     C61582   8.363  12.704  10.626 -0.2684  0.2321  0.6786
  447MOL0     C61583   8.353  12.684  10.763  0.0711  1.1185 -0.7637
  447MOL0     O61584   8.413  12.757  10.863  0.2484  0.5405  0.3859
  447MOL0     C61585   8.492  12.858  10.812  0.2810  0.2805  0.7998
  447MOL0     C61586   8.589  12.919  10.907  0.1719  0.2055 -0.2892
  447MOL0     C61587   8.662  12.817  10.999 -0.1657  0.5455 -0.7720
  447MOL0     C61588   8.742  12.884  11.110 -0.0837 -0.6892  0.4833
  447MOL0     C61589   8.652  12.957  11.223 -0.6421 -0.1718  0.9896
  447MOL0     C61590   8.720  12.963  11.360  1.0509  0.3026  0.0309
  447MOL0     C61591   8.696  12.826  11.427 -0.2511  0.5982  0.0252
  447MOL0     C61592   8.588  12.817  11.533 -0.6101 -1.1116 -0.6939
  447MOL0    Cl61593   8.603  12.939  11.662  0.2008  0.3763 -0.0916
  447MOL0     C61594   8.301  12.559  10.798  0.0006 -0.2163  0.3452
  447MOL0     C61595   8.237  12.474  10.707  0.4488 -0.5029  0.0819
  447MOL0     O61596   8.358  12.315  10.425  0.6698 -0.7108 -0.5079
  447MOL0     C61597   8.019  12.286  10.324 -0.6409 -0.6281 -0.0025
  447MOL0     C61598   7.934  12.252  10.217  1.0309  0.3584 -0.0551
  447MOL0     N61599   7.952  11.940   9.368 -0.1807 -0.1472  0.4939
  447MOL0     N61600   7.903  11.902   9.253  0.5392 -0.6217 -0.9728
  447MOL0     C61601   7.832  10.943   9.198 -0.1732 -0.4042  0.5795
  447MOL0     C61602   7.771  10.820   9.195  0.7024  0.1004  0.2729
  447MOL0     C61603   7.413  10.554   9.065  0.3764  0.2236 -0.4718
  447MOL0     C61604   7.280  10.567   9.123  0.3193 -0.6182 -0.1918
  447MOL0     C61605   7.198  10.461   9.137  0.3578 -0.0969 -0.2911
  447MOL0     C61606   7.241  10.338   9.091  0.6135 -0.2769  0.2820
  447MOL0     O61607   7.164  10.226   9.087 -0.3583  0.3241  0.5398
  447MOL0     C61608   7.024  10.227   9.107  0.7722  0.5467  0.8670
  447MOL0     C61609   6.954  10.179   8.981 -0.0616 -0.5278 -0.3840
  447MOL0     C61610   7.011  10.057   8.920 -0.0618 -0.5404  0.1424
  447MOL0     C61611   7.111  10.107   8.816 -0.0586  0.5192 -0.0899
  447MOL0     C61612   7.182   9.985   8.763  0.0672 -0.5661  0.1135
  447MOL0     C61613   7.234   9.883   8.721 -0.0098  0.8415 -0.7206
  447MOL0     C61614   7.364  10.319   9.041  0.2305 -0.0066 -0.6655
  447MOL0     C61615   7.450  10.423   9.030  0.5148  0.2210  0.7368
  447MOL0     C61616   7.583  10.378   8.969  0.0266 -0.8982 -0.9510
  447MOL0     H61617   7.708  10.801   8.863 -0.3517  3.0721 -1.4431
  447MOL0     H61618   7.846  10.999   8.861 -0.8261  0.9319 -1.1367
  447MOL0     H61619   8.058  11.127   9.208  0.6305  0.1217 -1.2347
  447MOL0     H61620   7.896  11.195   9.239 -1.0034  1.5251 -1.6863
  447MOL0     H61621   8.070  11.356   9.233  2.2737 -3.1442 -0.0338
  447MOL0     H61622   8.140  11.290   9.093  1.2223  0.0005  2.8189
  447MOL0     H61623   8.020  11.503   9.019  0.8461 -1.1331 -3.3528
  447MOL0     H61624   7.925  11.363   8.967  0.6490  1.0993 -0.7345
  447MOL0     H61625   7.777  11.397   9.162 -0.3050  0.5402  0.0752
  447MOL0     H61626   7.892  11.497   9.234  0.1049  0.0183 -0.4729
  447MOL0     H61627   7.726  11.554   8.984 -2.2281  3.1699 -0.0081
  447MOL0     H61628   7.853  11.664   9.053  2.0080 -0.7596  2.5671
  447MOL0     H61629   7.584  11.561   9.167  0.9272 -1.3284 -1.7265
  447MOL0     H61630   7.706  11.623   9.276 -1.7510 -2.1179  0.4518
  447MOL0     H61631   7.513  11.772   9.202 -0.4963  2.7032 -0.8782
  447MOL0     H61632   7.556  11.738   9.031  0.1856 -0.1632  0.1217
  447MOL0     H61633   7.727  11.918   9.061 -1.8264 -3.0044 -2.8602
  447MOL0     H61634   7.598  11.960   9.181  0.7901  1.3950 -0.0615
  447MOL0     H61635   7.630  11.894   9.425 -1.0745  1.6835 -1.4005
  447MOL0     H61636   7.968  11.999   9.628 -0.0321  0.5007  0.7669
  447MOL0     H61637   7.839  11.888   9.673  0.7098  0.4148  0.4158
  447MOL0     H61638   7.812  12.172   9.585 -0.6593 -0.4783 -1.2497
  447MOL0     H61639   7.668  12.081   9.603 -0.6919  3.0933 -0.3246
  447MOL0     H61640   7.697  12.189   9.826 -0.6586 -2.2928  2.8218
  447MOL0     H61641   7.752  12.010   9.841  4.6094 -2.3840 -0.8947
  447MOL0     H61642   7.983  12.102   9.826  0.5805 -0.1590  0.9938
  447MOL0     H61643   7.920  12.265   9.816 -1.2123  0.6316  2.0182
  447MOL0     H61644   8.164  12.221   9.959 -2.6623 -0.7307 -1.3116
  447MOL0     H61645   8.418  12.235  10.217  2.4073  3.2478 -0.1151
  447MOL0     H61646   8.384  12.381  10.116  0.5161  0.0698 -0.3002
  447MOL0     H61647   8.380  12.218  10.042  0.6304  0.7787 -0.3332
  447MOL0     H61648   8.284  12.646  10.427 -1.7258 -2.3184  0.0097
  447MOL0     H61649   8.400  12.799  10.590  2.3927 -0.6316  0.8788
  447MOL0     H61650   8.553  12.813  10.734 -0.5503  0.1295  0.2183
  447MOL0     H61651   8.428  12.937  10.772 -0.0638  0.0893  0.9699
  447MOL0     H61652   8.672  12.965  10.851  1.4183  0.7410  1.8796
  447MOL0     H61653   8.538  12.998  10.963 -0.4134 -0.4794  0.1581
  447MOL0     H61654   8.725  12.754  10.935  0.2837 -2.0211  1.9642
  447MOL0     H61655   8.594  12.740  11.038  0.4648  0.8486  1.0161
  447MOL0     H61656   8.804  12.962  11.064 -2.9262 -0.3785 -3.3071
  447MOL0     H61657   8.806  12.813  11.163  0.8634  0.0270  0.3257
  447MOL0     H61658   8.613  13.053  11.187 -0.2976  0.7529  2.9318
  447MOL0     H61659   8.552  12.914  11.225 -1.8923  2.1816 -1.9659
  447MOL0     H61660   8.658  13.042  11.403 -2.8302  1.1433 -5.9506
  447MOL0     H61661   8.824  12.998  11.363  0.8994  0.6939  1.2283
  447MOL0     H61662   8.793  12.795  11.466  0.2597  1.5222 -0.4639
  447MOL0     H61663   8.672  12.755  11.348 -0.9965  1.6842 -0.7470
  447MOL0     H61664   8.575  12.715  11.569  1.4183 -1.0496  0.3605
  447MOL0     H61665   8.490  12.838  11.490 -0.6366  0.8728  0.1837
  447MOL0     H61666   8.297  12.537  10.904  1.0495  1.1890  0.7142
  447MOL0     H61667   8.188  12.382  10.738  1.4593 -0.6885  1.2326
  447MOL0     H61668   7.984  12.303  10.425  1.5788 -0.7491  0.8380
  447MOL0     H61669   7.827  12.236  10.228  0.9688 -0.6904 -1.7417
  447MOL0     H61670   7.879  10.980   9.288  1.2644 -0.3894 -0.1620
  447MOL0     H61671   7.755  10.771   9.291 -1.4737  1.0738  0.4587
  447MOL0     H61672   7.245  10.657   9.173  0.8052 -1.5686  1.9767
  447MOL0     H61673   7.101  10.471   9.185  0.0283 -2.2229 -0.4034
  447MOL0     H61674   7.008  10.154   9.187 -2.2279  0.6504  0.4683
  447MOL0     H61675   6.972  10.319   9.134 -4.0624 -1.0781 -1.8171
  447MOL0     H61676   6.961  10.263   8.911  0.5973  0.6243  1.0013
  447MOL0     H61677   6.850  10.155   9.004 -0.6266  0.1247 -2.1000
  447MOL0     H61678   7.050   9.980   8.987 -1.6032 -2.1583 -0.7408
  447MOL0     H61679   6.933  10.008   8.861 -0.4500  0.8513 -0.5622
  447MOL0     H61680   7.194  10.160   8.866 -1.0635  0.2678  1.9580
  447MOL0     H61681   7.061  10.165   8.738 -3.0521  0.2873  1.5083
  447MOL0     H61682   7.275   9.789   8.689  0.9779  0.7591  0.7059
  447MOL0     H61683   7.387  10.217   9.016  1.9508  0.6822 -2.0902
  447MOL0     H61684   7.619  10.452   8.897  0.0099  2.9478  2.6171
  447MOL0     H61685   7.657  10.375   9.050 -1.1651 -0.3639  0.1786
  447MOL0     H61686   7.591  10.277   8.927 -1.0118 -1.7233  0.7389
  448MOL0     O61687   0.202   9.816   2.852 -0.2045  0.6339  0.0663
  448MOL0     C61688   0.196   9.700   2.890 -0.4968 -0.7710  0.5210
  448MOL0     O61689   0.285   9.626   2.959 -0.9390  0.8737 -0.0547
  448MOL0     C61690   0.378   9.687   3.037  0.4562 -0.4476 -1.1761
  448MOL0     C61691   0.495   9.753   2.986  1.1449  0.5327 -0.0293
  448MOL0     C61692   0.593   9.811   3.069 -0.4903 -0.3960  0.2582
  448MOL0     C61693   0.593   9.766   3.213  0.9117  0.4848 -1.0914
  448MOL0     O61694   0.683   9.800   3.311 -0.4801  0.1394 -0.4789
  448MOL0     C61695   0.769   9.908   3.276 -0.2908 -0.6363 -0.2057
  448MOL0     C61696   0.877   9.929   3.389  0.6170 -0.3666 -0.5596
  448MOL0     C61697   0.960   9.799   3.388  0.3436 -0.7214 -0.8645
  448MOL0     C61698   1.085   9.825   3.468  0.3078  0.0264 -0.0074
  448MOL0     C61699   1.145   9.692   3.497 -0.0272 -1.0462  1.1724
  448MOL0     C61700   1.223   9.620   3.379  0.1348 -0.1449 -0.0210
  448MOL0     C61701   1.335   9.703   3.321  0.2392 -0.2186 -0.3872
  448MOL0     C61702   1.438   9.736   3.426 -0.3476  0.3605 -0.0740
  448MOL0     N61703   1.569   9.772   3.360  0.8595  0.4796  0.1443
  448MOL0     C61704   1.588   9.894   3.296 -0.6207 -0.2360 -0.4942
  448MOL0     C61705   1.720   9.896   3.266 -0.1611  0.1725  0.2676
  448MOL0     C61706   1.810   9.992   3.190  0.9324  0.5785 -1.1544
  448MOL0     C61707   1.761  10.135   3.204 -1.3064 -0.0577  0.1994
  448MOL0     C61708   1.807  10.228   3.098  0.4068 -0.3970  0.3506
  448MOL0     C61709   1.957  10.261   3.094 -0.9609 -0.2539 -0.9096
  448MOL0     O61710   2.040  10.149   3.070 -0.6694  0.0250  0.0111
  448MOL0     C61711   2.060  10.103   2.947  0.0269  0.3647  0.0276
  448MOL0     C61712   2.046   9.968   2.912  1.1090 -0.2745 -0.4398
  448MOL0     C61713   2.051   9.927   2.780 -0.8639  0.6297 -0.8178
  448MOL0     C61714   2.020   9.785   2.748 -0.3689  0.1562  0.7339
  448MOL0     C61715   2.108  10.010   2.677 -0.3831  0.0449  0.0434
  448MOL0     C61716   2.141   9.970   2.538 -0.1941  0.0066  0.4423
  448MOL0     O61717   2.265   9.995   2.494 -0.3592  0.0736  0.1773
  448MOL0     C61718   2.295   9.975   2.366  0.4796  0.0389 -0.3290
  448MOL0     C61719   2.305   9.842   2.307 -0.1014 -0.6048  0.4624
  448MOL0     C61720   2.338   9.837   2.176 -0.0807 -0.0669  0.5503
  448MOL0     C61721   2.368   9.955   2.106  0.1975 -0.6943  0.3470
  448MOL0     O61722   2.388   9.949   1.967 -0.3065  0.0991 -0.0639
  448MOL0     C61723   2.347   9.844   1.877 -0.4181  0.4794  0.2630
  448MOL0     C61724   2.409   9.866   1.749  1.2521 -0.2149 -0.3386
  448MOL0     C61725   2.369   9.999   1.683  0.6173  1.0480 -0.9319
  448MOL0     C61726   2.429   9.999   1.542 -0.7290  0.2901  0.4702
  448MOL0     C61727   2.386  10.129   1.467  0.1591 -0.1767 -0.3201
  448MOL0     C61728   2.436  10.145   1.324 -0.8839 -0.3397 -0.2862
  448MOL0     C61729   2.381  10.272   1.254  0.9464 -0.6051 -0.1383
  448MOL0     C61730   2.399  10.401   1.336 -1.4485  0.3025 -0.0223
  448MOL0    Cl61731   2.325  10.546   1.262 -0.0843 -0.5998 -0.5471
  448MOL0     C61732   2.354  10.075   2.160 -0.9639  0.8358  0.3103
  448MOL0     C61733   2.315  10.082   2.296 -0.9987 -0.4403  0.3604
  448MOL0     O61734   2.053   9.925   2.467 -0.8242  0.0581  0.4147
  448MOL0     C61735   2.140  10.140   2.715  0.3390  0.1264 -0.0086
  448MOL0     C61736   2.103  10.188   2.843 -0.0226  0.0122 -0.7193
  448MOL0     N61737   1.772   9.780   3.307  0.5205  0.0017 -1.1848
  448MOL0     N61738   1.683   9.704   3.363  0.0504  0.6769 -0.5614
  448MOL0     C61739   0.481   9.700   3.259 -0.7726 -0.4310  0.4908
  448MOL0     C61740   0.378   9.665   3.174  1.0682  0.1053 -0.3459
  448MOL0     C61741   0.094   9.621   2.835  0.3396  0.1103 -0.1066
  448MOL0     C61742   0.052   9.630   2.697 -0.3724 -0.2850 -0.6295
  448MOL0     C61743  -0.026   9.533   2.642  0.3901  0.3730 -0.1947
  448MOL0     C61744  -0.089   9.437   2.725 -0.0092 -0.1940  0.9292
  448MOL0     O61745  -0.181   9.361   2.656  0.9685  0.4258  0.3611
  448MOL0     C61746  -0.242   9.252   2.726  0.6439 -0.5349  0.3337
  448MOL0     C61747  -0.339   9.174   2.633  0.9865  0.4775 -0.4675
  448MOL0     C61748  -0.363   9.029   2.690 -0.4926  0.1066  0.1062
  448MOL0     C61749  -0.444   9.036   2.819 -0.1365  0.5121  0.5491
  448MOL0     C61750  -0.557   8.939   2.826  0.2836  0.3393 -0.6481
  448MOL0     C61751  -0.637   8.849   2.816  0.6270  0.7466  0.9432
  448MOL0     C61752  -0.062   9.435   2.861 -0.5914 -0.1132 -0.6854
  448MOL0     C61753   0.022   9.526   2.916 -0.6322 -0.7360 -2.0372
  448MOL0     C61754   0.038   9.513   3.070  0.1222  0.8377 -0.3968
  448MOL0     H61755   0.480   9.755   2.878 -1.9544 -0.5360  0.2777
  448MOL0     H61756   0.668   9.871   3.019 -0.3752  0.7845  1.7714
  448MOL0     H61757   0.717  10.004   3.271  0.6452 -0.1366 -0.5561
  448MOL0     H61758   0.817   9.901   3.178  3.3196  1.6720  1.1985
  448MOL0     H61759   0.942  10.010   3.356  1.4550 -0.6246  0.4243
  448MOL0     H61760   0.834   9.957   3.486 -0.2201  0.2368 -1.0901
  448MOL0     H61761   0.901   9.719   3.433 -0.3265  1.0071  1.5520
  448MOL0     H61762   0.983   9.785   3.281 -1.2115  0.2892 -1.3599
  448MOL0     H61763   1.146   9.897   3.412 -2.1263  0.3446 -2.4752
  448MOL0     H61764   1.046   9.865   3.563 -2.1479 -2.3686  0.1093
  448MOL0     H61765   1.067   9.624   3.530 -0.1108 -0.6867  1.7363
  448MOL0     H61766   1.206   9.699   3.588  0.6012  1.0535  0.6531
  448MOL0     H61767   1.278   9.537   3.425 -0.1922  0.2738  1.1566
  448MOL0     H61768   1.162   9.580   3.297  0.4092 -1.3281  0.3288
  448MOL0     H61769   1.294   9.795   3.277 -2.3162 -1.5398 -0.9455
  448MOL0     H61770   1.387   9.652   3.240  3.5970  3.3377 -0.8029
  448MOL0     H61771   1.403   9.815   3.494 -1.0651  1.8174 -2.0553
  448MOL0     H61772   1.462   9.651   3.490  1.3580  1.1443  0.3893
  448MOL0     H61773   1.517   9.972   3.271 -0.1502  0.2704 -0.2916
  448MOL0     H61774   1.834   9.959   3.088  0.9620  0.8204 -1.2281
  448MOL0     H61775   1.916   9.993   3.217  1.7728  3.4398 -3.8544
  448MOL0     H61776   1.655  10.129   3.180 -1.0178 -1.3294 -0.8725
  448MOL0     H61777   1.767  10.183   3.302 -1.8365  4.2838 -1.6567
  448MOL0     H61778   1.793  10.193   2.996  4.1267 -0.7890 -0.1648
  448MOL0     H61779   1.761  10.327   3.108  1.6723  0.3554 -0.9546
  448MOL0     H61780   1.974  10.348   3.030 -0.6108 -1.0453 -1.9099
  448MOL0     H61781   1.985  10.289   3.196 -2.3564  2.2502 -1.1210
  448MOL0     H61782   2.014   9.895   2.986  0.0870 -2.2391 -2.6629
  448MOL0     H61783   2.105   9.718   2.731 -0.6499  0.1640 -0.8407
  448MOL0     H61784   1.953   9.770   2.663  0.7278 -0.8604  0.0155
  448MOL0     H61785   1.972   9.737   2.833 -0.4212 -0.8370  0.1629
  448MOL0     H61786   2.269   9.755   2.361  0.6041 -1.5489 -0.5477
  448MOL0     H61787   2.334   9.741   2.124 -0.0417  1.0268 -1.6038
  448MOL0     H61788   2.364   9.744   1.919  1.9063  0.8518  0.3620
  448MOL0     H61789   2.239   9.844   1.858 -0.8566  2.7965  2.2505
  448MOL0     H61790   2.515   9.867   1.777  0.7168 -0.0956  1.8587
  448MOL0     H61791   2.386   9.784   1.680 -1.3531  0.0541  0.1047
  448MOL0     H61792   2.394  10.091   1.735 -0.1814  1.4537 -1.2387
  448MOL0     H61793   2.260  10.001   1.669 -0.0266 -3.0453  1.7321
  448MOL0     H61794   2.378   9.923   1.483 -2.6117  1.0499  1.0519
  448MOL0     H61795   2.538   9.987   1.542 -0.6987 -0.0150 -2.1631
  448MOL0     H61796   2.277  10.133   1.460  0.1114 -0.7582  0.0426
  448MOL0     H61797   2.399  10.214   1.535 -0.2485 -0.3241 -0.0538
  448MOL0     H61798   2.412  10.055   1.268  3.3155 -0.9904 -1.3746
  448MOL0     H61799   2.545  10.151   1.328 -0.8234  0.6516 -2.3095
  448MOL0     H61800   2.273  10.256   1.252  0.9047 -0.9069  1.8992
  448MOL0     H61801   2.416  10.283   1.151 -1.0639  4.9257 -0.5836
  448MOL0     H61802   2.507  10.417   1.343 -1.1016 -2.1838  1.4043
  448MOL0     H61803   2.357  10.380   1.435  1.7623 -2.0370  1.0263
  448MOL0     H61804   2.363  10.164   2.099 -3.0297  1.5161  0.9131
  448MOL0     H61805   2.289  10.178   2.340 -2.9134 -0.1813 -1.2150
  448MOL0     H61806   2.183  10.209   2.643  0.1132 -1.1961 -1.4737
  448MOL0     H61807   2.125  10.290   2.870  0.4145  0.1459 -1.5520
  448MOL0     H61808   0.476   9.669   3.363  1.0599 -1.8132  0.2040
  448MOL0     H61809   0.288   9.624   3.218  0.5159  0.1914 -1.3553
  448MOL0     H61810   0.108   9.696   2.631 -0.6770 -2.2780 -3.0532
  448MOL0     H61811  -0.053   9.531   2.536 -1.1824 -0.9329  0.1850
  448MOL0     H61812  -0.160   9.183   2.746 -1.2240 -2.1917  2.8964
  448MOL0     H61813  -0.290   9.280   2.820  0.3261 -0.9538  0.3016
  448MOL0     H61814  -0.294   9.166   2.533 -0.4681  0.5193 -1.1517
  448MOL0     H61815  -0.433   9.227   2.614  0.7746 -0.0952 -1.0595
  448MOL0     H61816  -0.414   8.964   2.619 -3.4947 -3.1324  4.6176
  448MOL0     H61817  -0.265   8.986   2.711 -2.0253 -3.6605  0.2895
  448MOL0     H61818  -0.484   9.137   2.820 -0.0925  0.5610  2.5859
  448MOL0     H61819  -0.376   9.030   2.905  1.1531 -5.4581 -0.3980
  448MOL0     H61820  -0.707   8.769   2.804  1.1021  0.5185 -0.3937
  448MOL0     H61821  -0.099   9.359   2.929  0.1174  1.1062  1.1313
  448MOL0     H61822   0.063   9.613   3.107  0.8105 -0.1842  2.0698
  448MOL0     H61823  -0.059   9.480   3.110  1.1019  0.9230  2.2628
  448MOL0     H61824   0.116   9.440   3.095 -1.0753 -0.3276  0.0546
  449MOL0     O61825   8.472   2.652   5.073  0.0421 -0.5856  0.2591
  449MOL0     C61826   8.433   2.627   4.959 -0.7347 -0.1354  0.5307
  449MOL0     O61827   8.513   2.649   4.848 -1.1618  0.8280 -0.0537
  449MOL0     C61828   8.654   2.634   4.850  0.5154 -0.5466 -0.8012
  449MOL0     C61829   8.715   2.702   4.747  0.5919  0.2016  0.1533
  449MOL0     C61830   8.854   2.698   4.728 -0.9118  0.0691 -0.7609
  449MOL0     C61831   8.940   2.620   4.811  0.1038  0.0736  0.2733
  449MOL0     O61832   9.073   2.589   4.789  0.1047 -0.3488  0.2623
  449MOL0     C61833   9.130   2.609   4.659  0.4325 -0.3548 -0.2947
  449MOL0     C61834   9.274   2.574   4.662 -0.5768 -0.3500 -1.1377
  449MOL0     C61835   9.350   2.655   4.763  0.2359  0.7766 -0.2806
  449MOL0     C61836   9.505   2.629   4.773  0.5854  0.2584  0.4550
  449MOL0     C61837   9.564   2.706   4.897 -0.2607 -0.1327 -0.3617
  449MOL0     C61838   9.524   2.856   4.922 -0.4738 -0.8734 -0.1120
  449MOL0     C61839   9.562   2.916   5.061  0.1558 -0.9203 -0.9524
  449MOL0     C61840   9.711   2.923   5.073 -0.2457  1.6683  1.4319
  449MOL0     N61841   9.762   2.982   5.196  0.3356 -0.7283  0.4149
  449MOL0     C61842   9.742   2.950   5.330  0.2164  0.3924  1.3522
  449MOL0     C61843   9.827   3.035   5.397 -0.1042  0.1329 -0.4718
  449MOL0     C61844   9.846   3.050   5.539 -0.1851  0.5149  0.0967
  449MOL0     C61845   9.730   3.117   5.623 -0.2360  0.6678  0.4069
  449MOL0     C61846   9.675   3.235   5.553 -0.3932  0.5031 -0.3320
  449MOL0     C61847   9.584   3.313   5.643 -0.2272 -0.2477 -0.5373
  449MOL0     O61848   9.655   3.389   5.738  0.5382  0.6798 -0.1026
  449MOL0     C61849   9.587   3.473   5.822 -0.3196 -1.2284  0.3822
  449MOL0     C61850   9.664   3.536   5.918  0.6688 -0.0683 -0.0396
  449MOL0     C61851   9.606   3.613   6.029  0.1106 -0.3789  0.7338
  449MOL0     C61852   9.699   3.657   6.135  0.1113 -0.2831  0.1132
  449MOL0     C61853   9.464   3.641   6.012  0.3724  0.6499 -1.1066
  449MOL0     C61854   9.393   3.745   6.093 -0.6899  0.6196  0.4148
  449MOL0     O61855   9.458   3.857   6.119 -0.7227  0.1236 -0.0853
  449MOL0     C61856   9.409   3.963   6.182  0.4160 -0.3391 -0.2685
  449MOL0     C61857   9.280   3.966   6.254 -0.2261 -0.4176  0.8105
  449MOL0     C61858   9.227   4.088   6.303  0.5415  0.1518 -0.4616
  449MOL0     C61859   9.275   4.211   6.252  0.5654 -0.2537 -0.4480
  449MOL0     O61860   9.218   4.338   6.260  0.0172 -0.0383  0.2394
  449MOL0     C61861   9.133   4.368   6.379 -0.5059  0.4194  0.0557
  449MOL0     C61862   8.999   4.410   6.322 -0.0919  0.2143  0.0763
  449MOL0     C61863   8.922   4.288   6.283  0.2124  0.0555 -0.7531
  449MOL0     C61864   8.782   4.335   6.238  0.8047  0.4422 -0.1484
  449MOL0     C61865   8.676   4.223   6.239  0.2599 -0.1503 -0.5532
  449MOL0     C61866   8.533   4.269   6.206 -0.2074  0.2550  0.6460
  449MOL0     C61867   8.476   4.331   6.326  0.3102 -0.3361 -1.1556
  449MOL0     C61868   8.322   4.348   6.319  1.0939 -0.8225  0.4340
  449MOL0    Cl61869   8.278   4.484   6.209  0.0074  0.3220  0.2059
  449MOL0     C61870   9.392   4.205   6.180 -0.4248  0.3890  0.0101
  449MOL0     C61871   9.464   4.087   6.155  0.0515  0.1580  0.2000
  449MOL0     O61872   9.275   3.726   6.104 -0.4594  0.4521  0.2834
  449MOL0     C61873   9.389   3.575   5.909  0.1139  0.2128  0.0551
  449MOL0     C61874   9.453   3.481   5.824  0.6187 -0.6546 -0.0736
  449MOL0     N61875   9.899   3.106   5.308 -0.2956 -0.9103 -0.4172
  449MOL0     N61876   9.848   3.080   5.190  0.0694 -1.3579  0.0081
  449MOL0     C61877   8.882   2.556   4.922  0.2441  0.2420 -0.6584
  449MOL0     C61878   8.738   2.560   4.942 -0.6450  0.1361  0.9040
  449MOL0     C61879   8.293   2.579   4.935 -1.1838  0.1417  0.4109
  449MOL0     C61880   8.250   2.579   4.797  0.1827 -0.2295  0.7594
  449MOL0     C61881   8.135   2.517   4.757 -0.3551  0.3815 -0.2705
  449MOL0     C61882   8.048   2.457   4.854  0.8392 -0.1869  0.8015
  449MOL0     O61883   7.934   2.399   4.801  0.4318 -0.4238  0.2459
  449MOL0     C61884   7.827   2.352   4.886  0.6395  0.7779  0.1148
  449MOL0     C61885   7.697   2.356   4.796 -0.4054  0.9212  0.8319
  449MOL0     C61886   7.696   2.271   4.663  0.7490 -0.4634 -0.0648
  449MOL0     C61887   7.823   2.220   4.601  0.6476  0.2887 -0.2626
  449MOL0     C61888   7.812   2.118   4.494 -0.3247  1.2193 -0.9897
  449MOL0     C61889   7.804   2.035   4.406  0.0126 -0.4016 -0.6491
  449MOL0     C61890   8.086   2.471   4.986 -0.9444 -0.0737 -0.3846
  449MOL0     C61891   8.204   2.535   5.029 -0.0169 -0.0718  0.4459
  449MOL0     C61892   8.223   2.539   5.180  0.2725  0.3517  0.1133
  449MOL0     H61893   8.663   2.762   4.674 -0.6241  0.1730  0.9749
  449MOL0     H61894   8.888   2.753   4.641  0.9801  1.2173  0.6239
  449MOL0     H61895   9.116   2.713   4.628 -2.7990  0.1758  2.3547
  449MOL0     H61896   9.078   2.539   4.592 -1.1822 -0.1088  0.6439
  449MOL0     H61897   9.274   2.467   4.685 -0.9789 -0.4473 -1.5674
  449MOL0     H61898   9.318   2.594   4.564 -0.2506 -0.0201 -0.9252
  449MOL0     H61899   9.326   2.758   4.736 -1.9931  0.3985  0.0867
  449MOL0     H61900   9.321   2.644   4.867 -0.0992  1.8908 -0.2421
  449MOL0     H61901   9.530   2.524   4.790 -0.3322  0.1975  1.5786
  449MOL0     H61902   9.558   2.657   4.681 -2.1854  1.8357 -0.7797
  449MOL0     H61903   9.673   2.705   4.898 -0.2617 -1.2456 -0.3385
  449MOL0     H61904   9.539   2.635   4.977  2.7142 -1.0775 -0.1582
  449MOL0     H61905   9.569   2.913   4.840  0.6231  1.6937  2.1057
  449MOL0     H61906   9.415   2.863   4.910 -0.4730 -1.1789 -0.2960
  449MOL0     H61907   9.526   2.858   5.146  4.8399 -0.2659  1.8403
  449MOL0     H61908   9.533   3.021   5.072  1.2856 -0.6561 -0.3416
  449MOL0     H61909   9.766   2.831   5.054 -4.6732 -0.7120 -1.7929
  449MOL0     H61910   9.743   2.993   4.995 -1.6672  2.7347  1.7730
  449MOL0     H61911   9.676   2.868   5.357  1.5203 -1.4619 -0.6910
  449MOL0     H61912   9.932   3.116   5.554 -0.4501  1.2477 -1.3838
  449MOL0     H61913   9.866   2.947   5.570 -1.6938  0.7654  2.0245
  449MOL0     H61914   9.649   3.045   5.633  0.6054 -0.9490 -3.0640
  449MOL0     H61915   9.777   3.141   5.720 -1.9904  2.1160  0.9389
  449MOL0     H61916   9.754   3.304   5.521 -0.4649  0.6146 -0.2702
  449MOL0     H61917   9.622   3.198   5.465 -0.3868 -3.0992  1.0370
  449MOL0     H61918   9.533   3.380   5.573 -0.1627 -1.2018 -1.5269
  449MOL0     H61919   9.520   3.236   5.688  1.3566 -2.3240 -1.6288
  449MOL0     H61920   9.770   3.514   5.909  1.0341  1.2408  0.8577
  449MOL0     H61921   9.772   3.575   6.137 -1.4215 -1.9486 -3.4337
  449MOL0     H61922   9.674   3.673   6.240  1.1134  1.7670  0.0747
  449MOL0     H61923   9.750   3.745   6.097  1.6826 -1.0286  0.4083
  449MOL0     H61924   9.224   3.875   6.269 -0.9932 -1.2067 -4.7762
  449MOL0     H61925   9.133   4.082   6.358  0.1992  1.5337 -0.8356
  449MOL0     H61926   9.134   4.297   6.461  1.9909  4.0493  3.5491
  449MOL0     H61927   9.173   4.463   6.417  0.7840  0.0608 -0.3592
  449MOL0     H61928   8.946   4.467   6.398 -2.4004  0.6744 -1.7526
  449MOL0     H61929   9.019   4.472   6.234 -2.1843  2.0464  0.7971
  449MOL0     H61930   8.882   4.224   6.362 -1.1513 -1.0534 -2.2667
  449MOL0     H61931   8.975   4.225   6.211  2.3963 -0.2326  1.0005
  449MOL0     H61932   8.776   4.369   6.134  0.4182  0.9939  0.0479
  449MOL0     H61933   8.754   4.419   6.303 -1.8440  1.0043 -1.8670
  449MOL0     H61934   8.713   4.150   6.167  1.4701  1.8033 -2.0138
  449MOL0     H61935   8.676   4.175   6.338  0.8061  0.8522 -0.0463
  449MOL0     H61936   8.469   4.191   6.164  0.0193  0.5055 -0.1638
  449MOL0     H61937   8.550   4.348   6.133  5.2236  1.0766  2.3536
  449MOL0     H61938   8.519   4.426   6.361  0.1870 -0.7011  0.0046
  449MOL0     H61939   8.500   4.268   6.411  2.8645 -0.8062 -2.1276
  449MOL0     H61940   8.272   4.366   6.415  0.1090  2.0968 -0.5477
  449MOL0     H61941   8.269   4.263   6.275 -1.1719  0.8028 -0.1501
  449MOL0     H61942   9.434   4.298   6.142 -0.7604  0.8973  0.8708
  449MOL0     H61943   9.550   4.086   6.087 -1.0208 -1.3306 -1.2118
  449MOL0     H61944   9.282   3.585   5.895  0.2760  0.0712 -1.4133
  449MOL0     H61945   9.389   3.423   5.757  0.7206  0.3925 -1.1055
  449MOL0     H61946   8.950   2.502   4.987  0.1593  0.5222 -0.3290
  449MOL0     H61947   8.698   2.515   5.032 -0.4984 -0.2199  0.7952
  449MOL0     H61948   8.320   2.606   4.718 -0.0508 -2.7445 -0.3828
  449MOL0     H61949   8.122   2.510   4.649  0.4971 -0.5945 -0.3251
  449MOL0     H61950   7.845   2.248   4.914  3.4595  0.7684 -1.3889
  449MOL0     H61951   7.804   2.407   4.978 -0.9474  0.2647  0.0567
  449MOL0     H61952   7.673   2.461   4.776  0.6796  1.0602  0.1754
  449MOL0     H61953   7.620   2.303   4.854  1.7998 -3.5929  0.1140
  449MOL0     H61954   7.647   2.176   4.682  3.9137 -2.1257  0.4080
  449MOL0     H61955   7.654   2.331   4.582  4.3084 -0.8591 -2.4204
  449MOL0     H61956   7.887   2.174   4.677 -0.8679 -1.0669  0.2374
  449MOL0     H61957   7.883   2.305   4.567  2.1322  0.6590  2.9019
  449MOL0     H61958   7.790   1.963   4.327 -0.0571  0.2792 -1.2717
  449MOL0     H61959   8.031   2.426   5.069  2.3939 -0.3880  1.8572
  449MOL0     H61960   8.233   2.644   5.208 -0.6824  0.3919  0.3492
  449MOL0     H61961   8.132   2.509   5.233  0.0436 -0.5705 -0.7650
  449MOL0     H61962   8.301   2.470   5.212  0.2126 -0.8207 -2.1122
  450MOL0     O61963   4.792   6.488   8.005 -0.2674  0.0247  0.4138
  450MOL0     C61964   4.889   6.560   7.995  0.2142  0.0250 -0.0660
  450MOL0     O61965   4.955   6.612   8.103  0.0034 -0.4933 -0.1917
  450MOL0     C61966   4.904   6.581   8.228 -0.1413 -0.1193 -0.3692
  450MOL0     C61967   4.776   6.611   8.274 -1.0593 -0.9267  0.0837
  450MOL0     C61968   4.737   6.579   8.398 -0.5981  0.0664 -1.0473
  450MOL0     C61969   4.827   6.536   8.497  0.3874 -0.0029 -0.0179
  450MOL0     O61970   4.774   6.505   8.615 -0.1381 -0.0042  0.1376
  450MOL0     C61971   4.847   6.516   8.737 -0.5215 -0.4238 -0.3497
  450MOL0     C61972   4.760   6.489   8.864  0.3881 -0.2690  0.8577
  450MOL0     C61973   4.843   6.500   8.991 -0.0941 -0.7598 -0.6957
  450MOL0     C61974   4.843   6.643   9.045 -0.8001 -0.3509 -0.4202
  450MOL0     C61975   4.891   6.647   9.194  0.3601  0.0779  0.4116
  450MOL0     C61976   4.853   6.797   9.246 -0.2893 -1.4110  0.7517
  450MOL0     C61977   4.920   6.840   9.379 -0.0524  1.0797  0.3090
  450MOL0     C61978   4.896   6.977   9.437 -0.3904  0.5754  0.2554
  450MOL0     N61979   4.956   7.004   9.565 -0.2393  0.6898 -0.7696
  450MOL0     C61980   5.092   7.005   9.595  1.0198  0.2675  0.6410
  450MOL0     C61981   5.102   7.049   9.719 -0.0576  0.7140  0.1896
  450MOL0     C61982   5.231   7.043   9.803 -0.9420  0.3696 -0.5537
  450MOL0     C61983   5.276   7.173   9.840  0.0489  0.0875 -0.5136
  450MOL0     C61984   5.219   7.205   9.986  0.7798 -0.8043 -0.1196
  450MOL0     C61985   5.256   7.346  10.035  0.0733  0.7456  0.5417
  450MOL0     O61986   5.397   7.372  10.057 -0.0327  0.6622  0.3692
  450MOL0     C61987   5.465   7.296  10.156  0.8824  0.4435  0.5983
  450MOL0     C61988   5.398   7.236  10.262 -0.6432  0.5090  0.6209
  450MOL0     C61989   5.470   7.168  10.360 -0.1176 -0.3497 -0.6796
  450MOL0     C61990   5.386   7.111  10.473  0.1902  0.1082  0.6875
  450MOL0     C61991   5.606   7.154  10.350  0.8677 -0.7267  0.1418
  450MOL0     C61992   5.690   7.073  10.438  0.3017  0.4771  0.8171
  450MOL0     O61993   5.708   6.943  10.398 -0.0391 -0.4196  0.6080
  450MOL0     C61994   5.762   6.848  10.484 -0.0346  0.3141 -0.6898
  450MOL0     C61995   5.892   6.845  10.525  0.1360  0.3743  0.2728
  450MOL0     C61996   5.943   6.734  10.584 -0.1416  1.1173 -0.1560
  450MOL0     C61997   5.864   6.619  10.619 -0.8102 -0.3811  1.3089
  450MOL0     O61998   5.916   6.516  10.680  0.2630  0.9407  0.2416
  450MOL0     C61999   5.891   6.511  10.820 -0.8871  0.1041 -0.0213
  450MOL0     C62000   6.012   6.537  10.910  0.3119 -1.0399 -0.6910
  450MOL0     C62001   5.986   6.483  11.055 -0.5284 -0.8400 -0.1914
  450MOL0     C62002   5.914   6.590  11.132  0.0612 -1.0100 -1.3070
  450MOL0     C62003   5.768   6.569  11.133 -0.1086 -0.0850 -0.2181
  450MOL0     C62004   5.701   6.686  11.217  0.3833  0.7426 -0.8374
  450MOL0     C62005   5.548   6.671  11.229 -0.0062  0.7262  0.1687
  450MOL0     C62006   5.477   6.800  11.247  0.1366  0.3883 -0.2752
  450MOL0    Cl62007   5.306   6.773  11.208  0.0733  0.2153  0.2355
  450MOL0     C62008   5.738   6.620  10.575 -0.5701 -0.3622  0.1393
  450MOL0     C62009   5.676   6.738  10.517 -1.3852 -0.1614  0.6532
  450MOL0     O62010   5.732   7.130  10.536 -0.1185  0.2915 -0.0353
  450MOL0     C62011   5.669   7.216  10.246  0.4244 -0.5214  0.2106
  450MOL0     C62012   5.602   7.284  10.149 -0.3709 -0.0192 -0.2336
  450MOL0     N62013   4.984   7.100   9.758 -0.1544  0.1101  0.1091
  450MOL0     N62014   4.892   7.056   9.670 -0.1060 -0.0145  0.9025
  450MOL0     C62015   4.959   6.515   8.459  0.3864 -0.2784  0.4862
  450MOL0     C62016   5.001   6.531   8.328 -0.7176 -0.1377  0.3880
  450MOL0     C62017   4.942   6.595   7.866 -0.2419 -0.2710 -0.7375
  450MOL0     C62018   5.023   6.709   7.857 -0.0680  0.5095  0.5141
  450MOL0     C62019   5.073   6.757   7.737 -0.1119 -0.2879  0.7075
  450MOL0     C62020   5.050   6.686   7.616  0.8805 -1.0313  0.1538
  450MOL0     O62021   5.097   6.726   7.497 -0.6983  0.2914  0.5403
  450MOL0     C62022   5.198   6.831   7.497  0.3962 -0.2113 -0.2335
  450MOL0     C62023   5.253   6.857   7.359  0.3148  0.0781 -0.6174
  450MOL0     C62024   5.388   6.936   7.366  0.6099  0.3940 -0.0660
  450MOL0     C62025   5.453   6.925   7.230  0.0801 -0.2101 -0.3900
  450MOL0     C62026   5.549   7.030   7.199 -0.4569 -0.3472 -0.0932
  450MOL0     C62027   5.622   7.127   7.164 -0.3442  1.0725 -1.0829
  450MOL0     C62028   4.971   6.564   7.623 -0.9051  1.2361 -0.2725
  450MOL0     C62029   4.919   6.524   7.752  0.3910  0.0090  1.0228
  450MOL0     C62030   4.847   6.391   7.746 -0.0100  0.1142 -0.0215
  450MOL0     H62031   4.710   6.653   8.198  1.9231  1.3466 -1.4816
  450MOL0     H62032   4.635   6.600   8.427 -0.8682 -2.8604  0.4841
  450MOL0     H62033   4.888   6.616   8.750  0.2725 -0.8230  0.2979
  450MOL0     H62034   4.930   6.444   8.731  0.4881  0.7962 -3.1237
  450MOL0     H62035   4.680   6.563   8.872 -0.7487 -1.1987 -1.2501
  450MOL0     H62036   4.708   6.394   8.856  0.8949 -0.5535  0.8748
  450MOL0     H62037   4.812   6.431   9.070  1.3240  1.9675  2.4866
  450MOL0     H62038   4.949   6.477   8.976  0.3116  0.4925  0.1210
  450MOL0     H62039   4.926   6.697   8.998  1.6442 -1.4545  2.3111
  450MOL0     H62040   4.746   6.692   9.033 -0.9848 -0.2160  1.3251
  450MOL0     H62041   4.999   6.633   9.207  0.2306 -0.1881  1.2723
  450MOL0     H62042   4.848   6.566   9.254 -0.8250  0.7732  0.5327
  450MOL0     H62043   4.892   6.868   9.173  0.8645 -4.1613 -1.4608
  450MOL0     H62044   4.745   6.812   9.258 -0.2762  0.3385 -0.9827
  450MOL0     H62045   5.028   6.820   9.376  0.1317  2.0519 -0.0558
  450MOL0     H62046   4.889   6.770   9.457  1.3060 -0.6731 -0.6603
  450MOL0     H62047   4.927   7.049   9.360 -3.0521  0.8274 -0.6589
  450MOL0     H62048   4.789   6.991   9.448 -0.8329 -1.2225 -1.2136
  450MOL0     H62049   5.170   6.957   9.537  3.1782  0.6082  3.0688
  450MOL0     H62050   5.317   7.007   9.745 -0.0314  0.8513  0.4617
  450MOL0     H62051   5.212   6.986   9.895 -0.5864  1.1580  0.0211
  450MOL0     H62052   5.385   7.183   9.843  0.2715 -2.1501  0.6778
  450MOL0     H62053   5.239   7.252   9.774 -0.2245  1.8357  1.6139
  450MOL0     H62054   5.111   7.197   9.970  0.4153  3.1541 -0.5604
  450MOL0     H62055   5.247   7.139  10.068  0.9012  2.8337  3.0302
  450MOL0     H62056   5.211   7.411   9.960 -1.1606  0.6687  1.1917
  450MOL0     H62057   5.194   7.362  10.124  0.8457  2.4313  0.8092
  450MOL0     H62058   5.291   7.238  10.278 -1.0178 -4.1128 -0.0935
  450MOL0     H62059   5.283   7.120  10.438 -0.2155  2.9579  2.3211
  450MOL0     H62060   5.394   7.170  10.565  1.3956 -0.9213  1.2782
  450MOL0     H62061   5.404   7.004  10.491  0.8656  0.1567  0.3359
  450MOL0     H62062   5.953   6.933  10.507 -0.4429  0.6223 -0.5029
  450MOL0     H62063   6.048   6.730  10.609  0.0323 -1.1374 -0.9786
  450MOL0     H62064   5.803   6.572  10.842 -1.6045 -0.8347 -0.2370
  450MOL0     H62065   5.859   6.407  10.833  2.2829 -1.1171 -0.8474
  450MOL0     H62066   6.102   6.480  10.886  1.6894 -0.0928  1.8835
  450MOL0     H62067   6.054   6.637  10.899  0.2333 -1.2212 -3.2082
  450MOL0     H62068   6.083   6.451  11.094  0.5927  1.7366 -0.6837
  450MOL0     H62069   5.940   6.387  11.033 -2.1015 -0.6741  2.0793
  450MOL0     H62070   5.936   6.688  11.088  2.1793 -1.6036 -1.6780
  450MOL0     H62071   5.937   6.596  11.238 -3.9710 -0.1715 -0.3177
  450MOL0     H62072   5.709   6.563  11.041 -0.4592  1.5043 -0.1280
  450MOL0     H62073   5.749   6.477  11.189  0.0458 -0.3821 -0.6433
  450MOL0     H62074   5.713   6.783  11.168  1.3336  1.1497  0.1648
  450MOL0     H62075   5.747   6.692  11.316 -0.2303 -2.4469 -0.2313
  450MOL0     H62076   5.519   6.603  11.309 -1.3474  0.6234 -0.3794
  450MOL0     H62077   5.507   6.617  11.143 -1.0681  0.0266  1.0891
  450MOL0     H62078   5.514   6.877  11.178  0.9995  1.4199  1.2943
  450MOL0     H62079   5.470   6.837  11.349  1.5723 -0.6856  0.2422
  450MOL0     H62080   5.674   6.534  10.592 -0.2507 -0.5201  0.5701
  450MOL0     H62081   5.570   6.755  10.502 -1.6124  1.5574  3.5571
  450MOL0     H62082   5.774   7.190  10.233  0.2410 -0.8468 -0.6918
  450MOL0     H62083   5.665   7.323  10.070  1.0165  1.3518  1.4761
  450MOL0     H62084   5.032   6.468   8.524 -0.0024 -0.6800  0.6358
  450MOL0     H62085   5.106   6.513   8.307 -0.0235  4.3819 -0.9948
  450MOL0     H62086   5.032   6.764   7.950  1.8087 -0.1267  0.7504
  450MOL0     H62087   5.126   6.852   7.744 -0.3013 -0.2334  1.4066
  450MOL0     H62088   5.147   6.919   7.538 -1.0859 -1.0412 -0.2356
  450MOL0     H62089   5.283   6.803   7.560 -1.0895  0.7342  2.3777
  450MOL0     H62090   5.180   6.916   7.303  3.3257  2.1949 -2.6160
  450MOL0     H62091   5.272   6.761   7.310  1.9957  0.0448  0.0255
  450MOL0     H62092   5.375   7.041   7.392  1.8526  0.7733 -0.9152
  450MOL0     H62093   5.464   6.894   7.433  0.4936 -1.3171 -0.9452
  450MOL0     H62094   5.376   6.933   7.153  0.6410 -0.5187 -0.9972
  450MOL0     H62095   5.499   6.827   7.211  1.4295  0.4692 -0.7619
  450MOL0     H62096   5.678   7.215   7.142  0.3689  1.0000  0.3319
  450MOL0     H62097   4.945   6.515   7.529  1.6035  1.5524 -1.2091
  450MOL0     H62098   4.853   6.342   7.649 -0.9945  0.4478 -0.2625
  450MOL0     H62099   4.897   6.334   7.825  1.7639  1.3864 -0.1807
  450MOL0     H62100   4.744   6.403   7.782  0.1230  0.9715  0.0991
  451MOL0     O62101   2.314   0.505   0.295  0.1482  0.0445 -0.7092
  451MOL0     C62102   2.292   0.387   0.298  0.1043  0.9182 -0.3233
  451MOL0     O62103   2.387   0.289   0.280  0.0160  0.0737 -0.9868
  451MOL0     C62104   2.514   0.325   0.260 -0.0326  0.5994 -0.3165
  451MOL0     C62105   2.619   0.250   0.319  0.4187  0.0621 -0.8434
  451MOL0     C62106   2.752   0.282   0.293 -0.2363  0.5083 -0.4476
  451MOL0     C62107   2.783   0.375   0.192  0.0989 -0.4090 -0.1740
  451MOL0     O62108   2.908   0.432   0.169  0.9054  0.5075  0.3865
  451MOL0     C62109   3.029   0.357   0.185  0.7444 -0.0149  0.9971
  451MOL0     C62110   3.092   0.342   0.045  0.9758  0.3723 -0.2230
  451MOL0     C62111   3.011   0.242  -0.036  0.0085 -0.1063  0.1496
  451MOL0     C62112   3.066   0.240  -0.184 -0.2412 -0.7091 -0.7529
  451MOL0     C62113   3.014   0.121  -0.270  0.5326 -0.7647 -0.7975
  451MOL0     C62114   3.049   0.111  -0.417 -0.0206  0.6667 -0.0121
  451MOL0     C62115   2.970   0.211  -0.500 -0.1467  1.0864  0.0866
  451MOL0     C62116   3.041   0.218  -0.637  0.3839  0.2777 -0.3299
  451MOL0     N62117   2.982   0.317  -0.732  0.8873 -0.3468  0.0815
  451MOL0     C62118   3.018   0.452  -0.740  0.0928 -0.1703 -0.5203
  451MOL0     C62119   2.916   0.518  -0.804  0.8031 -0.2837  0.5946
  451MOL0     C62120   2.911   0.658  -0.855  0.3787  0.4469 -0.1360
  451MOL0     C62121   2.794   0.723  -0.792  0.2847 -0.1030  0.0011
  451MOL0     C62122   2.773   0.864  -0.854 -0.8438  0.5528  0.0292
  451MOL0     C62123   2.625   0.906  -0.865 -0.1678  0.3208  0.0983
  451MOL0     O62124   2.548   0.820  -0.955 -0.2715 -0.3104  0.6771
  451MOL0     C62125   2.464   0.880  -1.043  0.2353  0.1831 -0.2295
  451MOL0     C62126   2.363   0.797  -1.081 -0.6534  0.2018  0.7756
  451MOL0     C62127   2.252   0.837  -1.158 -0.7760 -0.8138 -0.1478
  451MOL0     C62128   2.139   0.740  -1.165 -0.8373  0.1183 -0.5790
  451MOL0     C62129   2.254   0.971  -1.209  0.4050  0.1246 -0.1206
  451MOL0     C62130   2.148   1.022  -1.307  1.1354 -0.4473 -0.6227
  451MOL0     O62131   2.161   1.142  -1.365  0.2587  0.1480 -0.4626
  451MOL0     C62132   2.071   1.195  -1.454  0.3657 -0.0665 -0.9016
  451MOL0     C62133   2.036   1.339  -1.453 -0.2812 -0.3523 -0.4277
  451MOL0     C62134   1.936   1.395  -1.530 -0.4216 -0.3814  1.0572
  451MOL0     C62135   1.878   1.317  -1.635 -0.6382  0.6981  0.1034
  451MOL0     O62136   1.787   1.365  -1.723 -0.2248  0.6178  0.0355
  451MOL0     C62137   1.744   1.502  -1.702 -0.3543  0.0795  0.0787
  451MOL0     C62138   1.613   1.530  -1.782  0.3852 -0.6676  0.3902
  451MOL0     C62139   1.629   1.503  -1.922  0.5529 -0.8659  0.6843
  451MOL0     C62140   1.524   1.577  -2.007 -0.5952 -0.6108  0.1830
  451MOL0     C62141   1.390   1.508  -2.001  0.0622 -0.1723 -0.0191
  451MOL0     C62142   1.286   1.589  -2.073  0.2032  0.4201  0.1098
  451MOL0     C62143   1.142   1.520  -2.092 -0.1796 -0.2438  0.2296
  451MOL0     C62144   1.051   1.581  -1.985  0.0877 -0.2554  0.7518
  451MOL0    Cl62145   0.924   1.472  -1.929 -0.1501 -0.2182 -0.3161
  451MOL0     C62146   1.921   1.182  -1.649 -0.1177  0.5874 -0.9355
  451MOL0     C62147   2.013   1.122  -1.556 -0.2951  0.8560  0.0341
  451MOL0     O62148   2.055   0.944  -1.333 -0.0941 -0.0380 -0.0101
  451MOL0     C62149   2.363   1.049  -1.183  0.3196 -0.8038  0.7611
  451MOL0     C62150   2.459   1.014  -1.087  0.0174 -0.6947 -0.0761
  451MOL0     N62151   2.827   0.415  -0.844 -0.5560  0.7732 -0.5836
  451MOL0     N62152   2.873   0.303  -0.808  0.4608  0.1280  0.8196
  451MOL0     C62153   2.677   0.448   0.127  0.0310  0.0611 -0.0256
  451MOL0     C62154   2.549   0.419   0.163  0.7142 -0.4477  0.5134
  451MOL0     C62155   2.151   0.335   0.300 -0.6190 -0.0786  0.0673
  451MOL0     C62156   2.072   0.384   0.202  0.0534 -0.2629 -0.6743
  451MOL0     C62157   1.940   0.355   0.190  0.1698  0.6184  0.6401
  451MOL0     C62158   1.886   0.269   0.285  0.1966 -0.5460  0.0002
  451MOL0     O62159   1.746   0.252   0.289 -0.6487  0.2263 -0.3858
  451MOL0     C62160   1.673   0.336   0.382 -0.4104  1.0352 -0.1108
  451MOL0     C62161   1.523   0.318   0.348  0.2782 -0.3414  0.0682
  451MOL0     C62162   1.467   0.198   0.421  0.4140  0.3678  0.2106
  451MOL0     C62163   1.348   0.140   0.345  0.2776 -0.1442 -0.1567
  451MOL0     C62164   1.234   0.238   0.345  0.2972  0.5342  0.5457
  451MOL0     C62165   1.150   0.321   0.343  0.2918  1.1676  0.6086
  451MOL0     C62166   1.961   0.223   0.393 -0.0190  0.1450  0.4551
  451MOL0     C62167   2.096   0.256   0.398 -0.1324 -0.4928  0.5064
  451MOL0     C62168   2.180   0.188   0.502  0.0545 -1.0096 -0.6066
  451MOL0     H62169   2.578   0.172   0.383 -1.7656  2.9107  1.5218
  451MOL0     H62170   2.835   0.237   0.347 -0.2253 -1.0037 -1.6608
  451MOL0     H62171   3.019   0.253   0.217 -0.7802 -0.0587  0.4384
  451MOL0     H62172   3.092   0.408   0.258  0.4119 -0.3526  1.5256
  451MOL0     H62173   3.085   0.445   0.011  0.0685  0.8829  1.3878
  451MOL0     H62174   3.196   0.312   0.061  0.7172 -0.4284  0.0402
  451MOL0     H62175   3.025   0.146   0.014 -0.8730 -1.9446 -2.8340
  451MOL0     H62176   2.903   0.254  -0.052 -0.3534 -2.8934 -0.1655
  451MOL0     H62177   3.037   0.330  -0.239  1.7351 -1.2377 -2.8182
  451MOL0     H62178   3.175   0.250  -0.172 -0.5089 -0.6743  2.4555
  451MOL0     H62179   2.909   0.106  -0.242  0.7010 -1.1808 -0.3818
  451MOL0     H62180   3.058   0.026  -0.239  2.3360  0.1669 -0.4268
  451MOL0     H62181   3.155   0.141  -0.423  0.1000  0.2527  0.0618
  451MOL0     H62182   3.048   0.006  -0.446  1.9724 -0.1039  2.3984
  451MOL0     H62183   2.963   0.313  -0.461 -1.4517  1.4817 -1.1138
  451MOL0     H62184   2.869   0.177  -0.522  0.4538  2.0731 -5.3925
  451MOL0     H62185   3.145   0.242  -0.618  0.7797 -0.8845 -0.9002
  451MOL0     H62186   3.043   0.120  -0.687  2.1730  1.1195 -2.0420
  451MOL0     H62187   3.103   0.502  -0.695 -0.0170 -2.1329  2.1317
  451MOL0     H62188   2.895   0.657  -0.963 -0.5244  0.9409 -0.0178
  451MOL0     H62189   3.004   0.712  -0.834 -1.0681  2.1185  2.4385
  451MOL0     H62190   2.701   0.668  -0.807 -1.2889  2.2315  0.5855
  451MOL0     H62191   2.809   0.732  -0.684 -0.2246 -2.2498  0.2952
  451MOL0     H62192   2.837   0.942  -0.812 -0.1713  0.0150  0.0335
  451MOL0     H62193   2.812   0.856  -0.956  2.5082  0.6277  1.1728
  451MOL0     H62194   2.573   0.891  -0.770 -0.8303 -2.3080 -0.5998
  451MOL0     H62195   2.623   1.013  -0.887  0.5403  0.5961  1.3052
  451MOL0     H62196   2.361   0.701  -1.030  1.7177  0.8151  2.1879
  451MOL0     H62197   2.046   0.790  -1.135 -0.2661 -0.7101  3.0700
  451MOL0     H62198   2.145   0.663  -1.088 -0.0468  0.7687  0.0421
  451MOL0     H62199   2.138   0.694  -1.264  1.2001 -2.6697  0.5791
  451MOL0     H62200   2.083   1.403  -1.379  1.5176  1.6659 -3.1678
  451MOL0     H62201   1.917   1.502  -1.525 -2.4777 -0.6296 -0.1660
  451MOL0     H62202   1.708   1.527  -1.601 -0.9541  0.8493 -0.3112
  451MOL0     H62203   1.819   1.576  -1.731 -0.9654  1.1971  1.2200
  451MOL0     H62204   1.542   1.455  -1.746  1.0066 -0.9997  0.9521
  451MOL0     H62205   1.578   1.629  -1.754  0.6008 -0.8032  1.1715
  451MOL0     H62206   1.610   1.398  -1.945  1.3614 -0.6523 -1.1427
  451MOL0     H62207   1.729   1.523  -1.963 -0.0086  0.8671  0.0837
  451MOL0     H62208   1.552   1.579  -2.113 -0.2901 -1.1904  0.2501
  451MOL0     H62209   1.518   1.683  -1.981  0.7867 -0.7699  1.2605
  451MOL0     H62210   1.408   1.409  -2.043  1.0904 -0.3808  0.8617
  451MOL0     H62211   1.360   1.485  -1.898 -2.0956 -2.2859 -1.0109
  451MOL0     H62212   1.310   1.608  -2.178 -0.2059 -2.0367 -0.4953
  451MOL0     H62213   1.276   1.686  -2.025 -1.2454  1.4755 -2.1678
  451MOL0     H62214   1.155   1.415  -2.063 -0.2796  0.4683  3.1787
  451MOL0     H62215   1.108   1.526  -2.196  3.0766 -0.6608 -1.0084
  451MOL0     H62216   0.989   1.664  -2.021 -2.0556 -0.8873  2.7062
  451MOL0     H62217   1.110   1.610  -1.898 -0.9813 -1.2696  1.8524
  451MOL0     H62218   1.872   1.127  -1.730  0.7557  1.7326 -2.2880
  451MOL0     H62219   2.047   1.019  -1.567  0.7059  1.3298 -1.6969
  451MOL0     H62220   2.358   1.153  -1.213 -3.8769 -0.0213  3.4310
  451MOL0     H62221   2.543   1.083  -1.080 -1.0629  0.6025  0.6932
  451MOL0     H62222   2.701   0.516   0.046  0.9067  1.7963  1.5809
  451MOL0     H62223   2.479   0.491   0.122 -0.3566  0.1767  3.1695
  451MOL0     H62224   2.116   0.439   0.120  1.7718 -2.5038 -1.3824
  451MOL0     H62225   1.882   0.398   0.109 -0.8095  0.3253  1.1733
  451MOL0     H62226   1.692   0.310   0.486 -1.8994 -0.2272 -0.1274
  451MOL0     H62227   1.702   0.439   0.359 -3.2990  2.0360  0.3915
  451MOL0     H62228   1.516   0.305   0.240  0.8842 -0.4272  0.0358
  451MOL0     H62229   1.478   0.412   0.380  4.2089  1.1397  2.0267
  451MOL0     H62230   1.543   0.120   0.432 -0.1022  0.1227  2.6789
  451MOL0     H62231   1.433   0.240   0.516 -0.6518  2.8193 -1.1446
  451MOL0     H62232   1.307   0.052   0.394  3.5441 -2.0477 -0.5045
  451MOL0     H62233   1.369   0.110   0.242 -2.9944 -0.1672 -0.9324
  451MOL0     H62234   1.063   0.384   0.350 -1.2475 -0.7959 -0.0625
  451MOL0     H62235   1.904   0.171   0.469 -1.7813 -0.5292 -1.2284
  451MOL0     H62236   2.133   0.091   0.518 -1.2557 -0.4898 -1.1624
  451MOL0     H62237   2.283   0.177   0.466  0.5353  4.3029 -1.6902
  451MOL0     H62238   2.184   0.245   0.596  1.5361 -2.2483  0.1315
  452MOL0     O62239   6.650   3.985   9.668  0.3111 -0.0146 -0.1939
  452MOL0     C62240   6.659   4.075   9.749 -0.2070  0.6317 -0.4797
  452MOL0     O62241   6.777   4.148   9.768  0.0170  0.0698 -0.4536
  452MOL0     C62242   6.876   4.140   9.669 -0.6164  0.2748  1.2410
  452MOL0     C62243   7.006   4.117   9.715 -0.0309  0.3315 -0.9512
  452MOL0     C62244   7.115   4.135   9.630 -0.3777  0.0619 -0.5349
  452MOL0     C62245   7.098   4.159   9.493  0.1173  1.1579 -0.2057
  452MOL0     O62246   7.197   4.153   9.397 -0.4289 -0.0015 -0.9940
  452MOL0     C62247   7.308   4.068   9.430  1.0125 -0.9699 -0.8751
  452MOL0     C62248   7.377   4.033   9.298 -0.1117 -0.2384 -0.3909
  452MOL0     C62249   7.280   3.955   9.201 -0.0707  0.8821 -0.1970
  452MOL0     C62250   7.311   3.798   9.186 -0.5911 -0.6552  0.6232
  452MOL0     C62251   7.196   3.743   9.095  0.1623 -0.6092 -0.8271
  452MOL0     C62252   7.187   3.589   9.099  0.4344 -0.2518 -0.4057
  452MOL0     C62253   7.046   3.555   9.031 -0.2731 -0.1155 -0.1482
  452MOL0     C62254   7.027   3.587   8.888 -0.7299 -0.3572  0.0745
  452MOL0     N62255   6.918   3.498   8.833  0.0890  0.8243 -0.1887
  452MOL0     C62256   6.939   3.365   8.799  0.0842  0.3034 -0.8271
  452MOL0     C62257   6.824   3.334   8.728 -0.0454 -0.1354  0.5610
  452MOL0     C62258   6.800   3.211   8.640 -0.2049 -1.0697 -0.1659
  452MOL0     C62259   6.700   3.239   8.527  0.1877 -0.2556 -0.2356
  452MOL0     C62260   6.552   3.215   8.574 -0.5593 -0.2024  0.2283
  452MOL0     C62261   6.448   3.288   8.494 -0.1710  0.2965  0.6206
  452MOL0     O62262   6.471   3.284   8.355  0.3477 -0.5474 -0.1278
  452MOL0     C62263   6.436   3.173   8.289  0.2881 -0.2432  0.1638
  452MOL0     C62264   6.482   3.156   8.157 -0.2631 -0.1029  0.5838
  452MOL0     C62265   6.437   3.045   8.079  0.0780  0.0843  0.5171
  452MOL0     C62266   6.497   3.045   7.937  0.1792  0.0154 -0.6682
  452MOL0     C62267   6.350   2.947   8.141 -0.9543  1.0816 -0.3442
  452MOL0     C62268   6.302   2.823   8.069 -0.6131 -0.4329 -0.0122
  452MOL0     O62269   6.303   2.829   7.937 -0.6378 -0.1881 -0.1295
  452MOL0     C62270   6.242   2.736   7.859 -0.6468  0.1150  0.3112
  452MOL0     C62271   6.106   2.748   7.816 -0.0501 -0.8601  1.3339
  452MOL0     C62272   6.052   2.637   7.741 -0.2237 -0.1636 -0.0935
  452MOL0     C62273   6.135   2.529   7.700 -0.4517  0.1003 -0.2673
  452MOL0     O62274   6.094   2.433   7.618 -0.7685  0.3473  0.0886
  452MOL0     C62275   6.009   2.467   7.507  0.3976 -0.1527 -0.4554
  452MOL0     C62276   5.861   2.432   7.523  0.4682  0.8187 -0.3235
  452MOL0     C62277   5.822   2.313   7.608 -0.7524  0.5150 -0.6695
  452MOL0     C62278   5.840   2.172   7.548  0.2622 -0.2253  0.1450
  452MOL0     C62279   5.819   2.055   7.646  0.0114  0.3844  0.2635
  452MOL0     C62280   5.788   1.915   7.594 -1.1255 -0.2731  0.5632
  452MOL0     C62281   5.647   1.888   7.530  0.8439 -0.2146 -0.5561
  452MOL0     C62282   5.606   1.958   7.404  0.9211  0.2914 -0.7017
  452MOL0    Cl62283   5.739   1.956   7.281 -0.1411 -0.6058 -0.4002
  452MOL0     C62284   6.263   2.517   7.740 -0.4997  0.2830 -0.4955
  452MOL0     C62285   6.321   2.620   7.817  0.0804 -0.6759  0.0050
  452MOL0     O62286   6.250   2.739   8.134  0.5419  0.6481 -0.5287
  452MOL0     C62287   6.297   2.968   8.268 -0.3398  0.4065 -0.1883
  452MOL0     C62288   6.335   3.082   8.338 -0.6515  0.9779  1.0697
  452MOL0     N62289   6.748   3.452   8.719  1.0481  0.3013  0.1246
  452MOL0     N62290   6.799   3.542   8.791 -0.6189  0.1509  0.2496
  452MOL0     C62291   6.964   4.183   9.448 -1.1258 -0.2490  0.7426
  452MOL0     C62292   6.855   4.170   9.533 -0.4823 -0.3199 -0.7391
  452MOL0     C62293   6.560   4.085   9.851  0.1063 -0.0292 -0.0812
  452MOL0     C62294   6.426   4.066   9.813 -0.7248  0.1222  0.0380
  452MOL0     C62295   6.325   4.051   9.904  0.1085 -0.3130 -0.5756
  452MOL0     C62296   6.344   4.084  10.039  0.0563  0.5729 -0.2246
  452MOL0     O62297   6.248   4.112  10.137  0.0568 -0.2363  0.1736
  452MOL0     C62298   6.112   4.078  10.108  0.7793  1.0377  0.7988
  452MOL0     C62299   6.031   4.124  10.226  0.3165  0.7041  1.3090
  452MOL0     C62300   6.029   4.276  10.228 -1.3001 -1.1306  0.0172
  452MOL0     C62301   5.886   4.331  10.266 -0.2075 -0.5211 -0.2636
  452MOL0     C62302   5.847   4.267  10.392  0.0122 -1.2444 -0.8675
  452MOL0     C62303   5.811   4.241  10.506  0.5112 -0.3104  0.2452
  452MOL0     C62304   6.475   4.097  10.078  0.1722 -0.1259  0.3209
  452MOL0     C62305   6.580   4.109   9.989 -0.9612 -0.4924  0.5475
  452MOL0     C62306   6.721   4.148  10.040 -1.7341  0.1722  0.9234
  452MOL0     H62307   7.023   4.085   9.817  1.2292 -0.9030 -1.5149
  452MOL0     H62308   7.217   4.129   9.667 -1.2444 -0.2678  1.9632
  452MOL0     H62309   7.269   3.973   9.466 -0.7913  0.3188  0.8112
  452MOL0     H62310   7.372   4.119   9.503 -1.3114 -0.9772  1.2919
  452MOL0     H62311   7.396   4.124   9.240 -0.9685 -0.3316 -0.8367
  452MOL0     H62312   7.469   3.976   9.313 -0.8930 -1.2978  0.5215
  452MOL0     H62313   7.178   3.974   9.236  0.5615  0.9477  1.7596
  452MOL0     H62314   7.282   3.993   9.099  0.2268 -1.1564 -1.0027
  452MOL0     H62315   7.405   3.788   9.131 -1.3535  0.3028 -0.9302
  452MOL0     H62316   7.317   3.760   9.288 -2.5227 -0.7516  0.7370
  452MOL0     H62317   7.189   3.787   8.995 -3.7480  0.8007 -0.1156
  452MOL0     H62318   7.102   3.768   9.146  0.6614 -3.7338  1.9835
  452MOL0     H62319   7.265   3.535   9.044 -1.0339 -0.9357 -1.8942
  452MOL0     H62320   7.185   3.550   9.201 -1.0064 -1.1721 -0.7558
  452MOL0     H62321   6.970   3.599   9.095 -0.0605 -1.8654  1.3978
  452MOL0     H62322   7.026   3.448   9.025 -1.0777  0.0916 -2.3583
  452MOL0     H62323   6.996   3.691   8.872 -1.9196 -0.6150  0.6047
  452MOL0     H62324   7.120   3.563   8.836 -0.3874  1.0728 -0.0048
  452MOL0     H62325   7.024   3.298   8.809 -0.3953 -0.3156 -0.7714
  452MOL0     H62326   6.778   3.129   8.709  0.1539 -0.7867  0.2921
  452MOL0     H62327   6.894   3.178   8.595  1.5903  0.8780  1.8722
  452MOL0     H62328   6.697   3.343   8.491  2.9897  0.2191  0.6623
  452MOL0     H62329   6.718   3.174   8.441  1.4415  1.1839 -1.1026
  452MOL0     H62330   6.537   3.112   8.541  1.2888 -0.1566 -0.8983
  452MOL0     H62331   6.554   3.229   8.683  1.5287 -3.7922  0.7875
  452MOL0     H62332   6.343   3.267   8.517 -0.3086 -0.2439 -0.4300
  452MOL0     H62333   6.458   3.391   8.529 -1.0359  0.9583 -0.9674
  452MOL0     H62334   6.547   3.234   8.119 -1.4465  0.1130 -1.1312
  452MOL0     H62335   6.539   3.143   7.911 -1.5164  1.0598  0.3520
  452MOL0     H62336   6.425   3.023   7.858 -1.4868  4.5523 -0.6674
  452MOL0     H62337   6.581   2.974   7.941  0.5764  0.5247  0.4135
  452MOL0     H62338   6.057   2.843   7.834 -0.5254 -0.5308 -1.3535
  452MOL0     H62339   5.953   2.646   7.698 -0.3406  0.3767  0.2823
  452MOL0     H62340   6.014   2.569   7.469 -0.2491 -0.5760 -1.7488
  452MOL0     H62341   6.051   2.413   7.421  0.2932  0.6040 -0.9850
  452MOL0     H62342   5.796   2.516   7.548 -1.5453 -0.7575  0.0483
  452MOL0     H62343   5.816   2.413   7.424  0.5040  1.2809 -0.4308
  452MOL0     H62344   5.716   2.326   7.630 -0.0851  3.9022  1.2029
  452MOL0     H62345   5.884   2.313   7.698  1.6015  1.5400 -2.1561
  452MOL0     H62346   5.941   2.158   7.507 -0.5591 -1.7494 -1.4245
  452MOL0     H62347   5.769   2.169   7.466  0.8347 -1.7037 -0.3410
  452MOL0     H62348   5.913   2.048   7.702  0.2661  1.1025 -0.0466
  452MOL0     H62349   5.733   2.076   7.710 -1.0280 -1.3897 -0.4926
  452MOL0     H62350   5.804   1.846   7.677 -1.4272  1.7180  2.3561
  452MOL0     H62351   5.860   1.887   7.516 -2.1159 -2.8272  0.4641
  452MOL0     H62352   5.570   1.903   7.607  0.7364  0.8808 -0.8512
  452MOL0     H62353   5.640   1.783   7.503  1.0539 -0.1341 -0.9224
  452MOL0     H62354   5.598   2.064   7.431  0.4611  0.0296  0.2229
  452MOL0     H62355   5.520   1.917   7.352  1.2077  0.2263 -1.1223
  452MOL0     H62356   6.323   2.434   7.703 -0.5515  0.5790 -1.2464
  452MOL0     H62357   6.416   2.606   7.868 -2.0955 -1.6252  4.2361
  452MOL0     H62358   6.236   2.897   8.323 -1.2626  1.2499 -0.0901
  452MOL0     H62359   6.287   3.093   8.435 -0.9073  0.2500  1.0313
  452MOL0     H62360   6.949   4.199   9.342  1.4852 -1.4620  0.1050
  452MOL0     H62361   6.753   4.182   9.500 -1.8563 -2.3338  2.2844
  452MOL0     H62362   6.413   4.038   9.709 -0.9806 -1.3469  0.4474
  452MOL0     H62363   6.229   4.018   9.863 -0.0194  2.7958 -3.2117
  452MOL0     H62364   6.075   4.119  10.014  1.9695  0.9754  0.2869
  452MOL0     H62365   6.094   3.971  10.091 -0.0451  1.4798 -1.4067
  452MOL0     H62366   6.066   4.068  10.313  0.3725 -2.0502 -0.3760
  452MOL0     H62367   5.928   4.092  10.205  0.7884  0.7787 -1.4142
  452MOL0     H62368   6.103   4.324  10.293  0.5549 -0.5201 -2.3906
  452MOL0     H62369   6.071   4.308  10.132  0.5505  0.6345  1.3571
  452MOL0     H62370   5.811   4.318  10.187 -2.3423  5.8686  0.0778
  452MOL0     H62371   5.891   4.437  10.295 -0.5652 -0.1741 -1.4044
  452MOL0     H62372   5.774   4.222  10.605  0.9001  0.8602  0.6358
  452MOL0     H62373   6.498   4.104  10.184  1.7835 -1.6483  0.1301
  452MOL0     H62374   6.780   4.059  10.017 -2.5190 -0.6885  2.0883
  452MOL0     H62375   6.766   4.237   9.995  1.2763 -0.6107  2.1439
  452MOL0     H62376   6.713   4.163  10.148 -1.9008  0.0630  0.9259
  453MOL0     O62377   8.200   7.723   7.396 -0.3512  0.1687 -0.0589
  453MOL0     C62378   8.299   7.796   7.393  0.0933 -0.1784  0.6006
  453MOL0     O62379   8.396   7.801   7.489  0.3570 -0.0105  0.2270
  453MOL0     C62380   8.463   7.920   7.517  0.2753  0.5839 -0.9243
  453MOL0     C62381   8.606   7.923   7.528  0.5149  0.7325  0.8216
  453MOL0     C62382   8.673   8.049   7.548  0.1448 -0.5865 -0.2503
  453MOL0     C62383   8.598   8.160   7.558  0.3776 -0.7648  0.0181
  453MOL0     O62384   8.651   8.289   7.584  0.4174 -0.0570 -0.2429
  453MOL0     C62385   8.702   8.348   7.459  0.2308 -0.8088  0.4656
  453MOL0     C62386   8.835   8.301   7.412 -0.0462 -0.0362  0.5996
  453MOL0     C62387   8.946   8.298   7.523 -0.2522  0.3688  1.0377
  453MOL0     C62388   9.084   8.221   7.489 -0.1028 -0.0022  0.1243
  453MOL0     C62389   9.068   8.064   7.498  0.3015  0.9785 -0.1951
  453MOL0     C62390   9.193   8.002   7.443 -0.1570  0.2505 -1.5307
  453MOL0     C62391   9.203   8.011   7.290  0.8222  0.1601  0.0802
  453MOL0     C62392   9.177   7.870   7.224 -0.5513 -0.1445 -0.2716
  453MOL0     N62393   9.295   7.788   7.235 -0.2038  0.2955  1.0815
  453MOL0     C62394   9.406   7.829   7.165  0.2908  0.3901 -0.0492
  453MOL0     C62395   9.489   7.720   7.162 -0.5658 -0.6544 -0.4541
  453MOL0     C62396   9.615   7.716   7.087 -0.8881  0.0411  0.3172
  453MOL0     C62397   9.716   7.816   7.153  0.3058 -0.4151 -0.3163
  453MOL0     C62398   9.702   7.959   7.094  0.2194  0.7990 -0.5953
  453MOL0     C62399   9.836   8.035   7.118  0.3821 -0.7795 -0.2366
  453MOL0     O62400   9.808   8.175   7.086 -1.3265  0.2343 -0.0527
  453MOL0     C62401   9.911   8.267   7.083 -0.0463  0.8655 -0.4593
  453MOL0     C62402   9.888   8.381   7.011 -0.1725 -0.2651 -0.7262
  453MOL0     C62403   9.978   8.489   7.011  0.3716  0.1770 -0.0835
  453MOL0     C62404   9.940   8.595   6.914  0.3609  0.1401 -0.1908
  453MOL0     C62405  10.078   8.488   7.107  0.2005 -0.7190 -0.5560
  453MOL0     C62406  10.160   8.600   7.144 -0.0582 -0.4478 -0.2034
  453MOL0     O62407  10.223   8.594   7.270 -0.4512  0.2913 -0.0216
  453MOL0     C62408  10.281   8.705   7.333 -0.2089  0.0794  0.6386
  453MOL0     C62409  10.416   8.694   7.385  0.7280  0.2582 -0.5500
  453MOL0     C62410  10.476   8.808   7.460  0.9313 -0.6163  0.3859
  453MOL0     C62411  10.397   8.916   7.487 -0.8028  0.0463 -0.7157
  453MOL0     O62412  10.437   9.033   7.550  0.3344  0.2945  0.8218
  453MOL0     C62413  10.572   9.060   7.587  0.2417 -0.4789 -0.3185
  453MOL0     C62414  10.595   9.208   7.634  0.3288 -1.3045 -0.9786
  453MOL0     C62415  10.723   9.220   7.709 -0.0820  0.7133 -0.4421
  453MOL0     C62416  10.699   9.193   7.864 -0.1191 -0.2347  0.0023
  453MOL0     C62417  10.811   9.243   7.959  0.3144 -0.6166 -0.3963
  453MOL0     C62418  10.786   9.181   8.099 -0.9369  0.4057  0.2915
  453MOL0     C62419  10.879   9.224   8.210 -0.3957 -0.2587  0.0373
  453MOL0     C62420  10.853   9.144   8.346  0.0542  0.0520  0.2832
  453MOL0    Cl62421  10.722   9.217   8.445  0.0029  0.0416  0.1990
  453MOL0     C62422  10.268   8.927   7.431  0.1426  0.2669  0.8967
  453MOL0     C62423  10.214   8.823   7.351  1.1393  0.6419 -0.7686
  453MOL0     O62424  10.160   8.700   7.070  0.3536  0.1257 -0.1036
  453MOL0     C62425  10.110   8.363   7.179  0.3519  0.2648 -0.3170
  453MOL0     C62426  10.018   8.258   7.172 -0.9068 -0.6286 -0.0509
  453MOL0     N62427   9.426   7.621   7.242 -0.2235  0.1701 -0.9370
  453MOL0     N62428   9.316   7.669   7.292 -0.2945  0.2419  0.1047
  453MOL0     C62429   8.463   8.150   7.550  0.4703  0.1353  0.1889
  453MOL0     C62430   8.391   8.033   7.541 -0.1669 -0.1825 -0.5356
  453MOL0     C62431   8.332   7.866   7.260  1.5154 -0.4504  0.0074
  453MOL0     C62432   8.445   7.837   7.188 -0.0503 -0.5137 -0.1294
  453MOL0     C62433   8.470   7.879   7.063 -0.5036 -0.5701  1.1134
  453MOL0     C62434   8.376   7.967   6.995 -0.1252  0.6829  0.2272
  453MOL0     O62435   8.378   8.005   6.862 -0.0532 -0.1303  0.0760
  453MOL0     C62436   8.506   8.037   6.806 -0.2470 -0.3673  0.6153
  453MOL0     C62437   8.479   8.165   6.730 -0.3168 -0.7403  0.7038
  453MOL0     C62438   8.373   8.157   6.630 -0.6759 -0.4907  0.8236
  453MOL0     C62439   8.376   8.278   6.528  0.5967 -0.3918 -0.1901
  453MOL0     C62440   8.244   8.299   6.470  0.6986  0.4466  0.4160
  453MOL0     C62441   8.137   8.328   6.423  0.5682  0.1107 -0.1718
  453MOL0     C62442   8.260   7.998   7.067 -0.4367 -0.1105  0.7083
  453MOL0     C62443   8.236   7.950   7.196  0.1822 -0.1550  0.2490
  453MOL0     C62444   8.106   8.008   7.254 -0.1387 -0.2718  0.3520
  453MOL0     H62445   8.656   7.827   7.516 -0.9941 -0.0552  0.6094
  453MOL0     H62446   8.780   8.056   7.566  0.3056 -0.2487 -1.2972
  453MOL0     H62447   8.713   8.454   7.486  1.0470 -0.8132  0.1855
  453MOL0     H62448   8.627   8.334   7.380  2.6624 -1.9943 -1.8044
  453MOL0     H62449   8.824   8.203   7.365 -2.8901  1.5266 -2.3664
  453MOL0     H62450   8.862   8.371   7.333 -1.9001 -1.1617 -1.1335
  453MOL0     H62451   8.983   8.401   7.533  0.8175  0.4098 -2.3072
  453MOL0     H62452   8.896   8.272   7.617 -0.7697  1.1420  0.9897
  453MOL0     H62453   9.117   8.244   7.387  1.7054  0.4519  0.7762
  453MOL0     H62454   9.161   8.261   7.554 -0.5488  1.1774 -0.0490
  453MOL0     H62455   8.981   8.039   7.436 -0.0657 -0.7611  0.9383
  453MOL0     H62456   9.034   8.030   7.596 -0.5891  1.3074 -0.3781
  453MOL0     H62457   9.281   8.045   7.493 -1.6781  3.9193 -1.7083
  453MOL0     H62458   9.188   7.898   7.477  0.8413  0.4446 -0.7321
  453MOL0     H62459   9.299   8.051   7.258  0.4536  1.2838  0.3306
  453MOL0     H62460   9.130   8.087   7.261  0.6715  0.4173  1.0950
  453MOL0     H62461   9.091   7.827   7.277 -0.7613  1.5908  0.8626
  453MOL0     H62462   9.147   7.889   7.120  0.2874  0.1979 -0.4543
  453MOL0     H62463   9.411   7.916   7.101  2.1825  0.5577  0.2791
  453MOL0     H62464   9.586   7.732   6.983 -2.0202 -0.9206  0.4721
  453MOL0     H62465   9.651   7.613   7.094 -0.3681  0.0741 -1.4225
  453MOL0     H62466   9.692   7.818   7.260 -1.2898 -1.7275 -0.6083
  453MOL0     H62467   9.819   7.780   7.145  1.0736  0.7185  2.9498
  453MOL0     H62468   9.681   7.955   6.986 -2.2955 -2.5047 -0.1626
  453MOL0     H62469   9.622   8.013   7.145  0.6028  1.4205 -0.6422
  453MOL0     H62470   9.861   8.039   7.225 -2.3082  4.0464  0.4858
  453MOL0     H62471   9.914   7.997   7.052  0.0531 -0.3890 -0.8579
  453MOL0     H62472   9.798   8.386   6.950 -0.1746  1.1422 -0.6582
  453MOL0     H62473  10.021   8.643   6.859 -1.7462  2.3117 -1.6177
  453MOL0     H62474   9.881   8.662   6.978 -0.3023 -1.4915  0.9903
  453MOL0     H62475   9.873   8.553   6.838 -0.8001  0.6606  0.5121
  453MOL0     H62476  10.470   8.600   7.374  0.6943 -0.3965  3.3774
  453MOL0     H62477  10.573   8.805   7.508  0.2260 -2.4201  1.8185
  453MOL0     H62478  10.602   8.986   7.662 -2.3106 -0.4609  0.8124
  453MOL0     H62479  10.642   9.055   7.504  1.8806  1.8455  0.8176
  453MOL0     H62480  10.596   9.278   7.550 -0.3303  2.8129  2.1338
  453MOL0     H62481  10.507   9.241   7.689  0.6024  1.8735 -2.2473
  453MOL0     H62482  10.763   9.321   7.696 -0.6140  0.8174 -1.3732
  453MOL0     H62483  10.804   9.153   7.676  2.0632  1.7350  2.3262
  453MOL0     H62484  10.687   9.087   7.885  2.5469 -0.4632  0.7316
  453MOL0     H62485  10.613   9.253   7.895 -1.0338 -1.9706  0.9464
  453MOL0     H62486  10.909   9.219   7.917  1.0351  0.1053  0.8111
  453MOL0     H62487  10.812   9.351   7.976  0.1993 -0.6583 -0.0980
  453MOL0     H62488  10.791   9.073   8.088  1.0607  0.7029 -2.7768
  453MOL0     H62489  10.684   9.214   8.125 -0.6932 -0.2425  2.2333
  453MOL0     H62490  10.869   9.331   8.229  0.7569 -0.1695  0.1837
  453MOL0     H62491  10.983   9.210   8.180 -0.4898 -0.2612 -0.2892
  453MOL0     H62492  10.946   9.157   8.401  0.3309  0.3463 -0.2440
  453MOL0     H62493  10.828   9.038   8.335 -0.5972  0.2569 -0.3533
  453MOL0     H62494  10.205   9.015   7.442  0.0464  0.0921  1.9350
  453MOL0     H62495  10.116   8.828   7.306  0.7059 -0.5144 -0.0125
  453MOL0     H62496  10.189   8.371   7.253 -0.1947 -0.5083  0.3617
  453MOL0     H62497  10.030   8.166   7.229 -0.9373 -0.0880  0.8477
  453MOL0     H62498   8.408   8.243   7.562  2.1002  1.7695 -3.5044
  453MOL0     H62499   8.283   8.037   7.536 -0.1440 -0.2633 -1.1836
  453MOL0     H62500   8.516   7.772   7.238  1.5061  2.6069  2.0024
  453MOL0     H62501   8.558   7.848   7.007 -1.9537 -0.5570 -1.3231
  453MOL0     H62502   8.577   8.055   6.888 -0.6291 -0.1403  0.8999
  453MOL0     H62503   8.545   7.964   6.735  1.2924 -0.0242  1.0605
  453MOL0     H62504   8.570   8.200   6.679 -2.0432  0.8210 -1.5135
  453MOL0     H62505   8.467   8.247   6.801  0.0580  1.3928 -1.5327
  453MOL0     H62506   8.375   8.063   6.575 -1.1277 -0.4480  0.7253
  453MOL0     H62507   8.275   8.165   6.678 -1.2039 -0.0885 -0.3022
  453MOL0     H62508   8.451   8.256   6.451 -1.3386  0.6323 -2.4891
  453MOL0     H62509   8.401   8.373   6.576 -2.6631 -0.2142  1.3794
  453MOL0     H62510   8.038   8.350   6.387  0.2478  0.4070  0.8298
  453MOL0     H62511   8.188   8.066   7.021  0.1071 -0.5233 -0.8258
  453MOL0     H62512   8.072   7.938   7.331 -0.2433 -1.8556 -1.0742
  453MOL0     H62513   8.138   8.106   7.292 -1.4823 -0.5603  2.3520
  453MOL0     H62514   8.024   8.031   7.185 -1.3317 -1.4170  1.3422
  454MOL0     O62515   5.885   6.012   7.250 -0.6132  0.2491 -0.1572
  454MOL0     C62516   5.795   5.945   7.200  0.0698  0.1654  0.1015
  454MOL0     O62517   5.815   5.822   7.156 -0.9254  0.5457 -0.0871
  454MOL0     C62518   5.897   5.732   7.222  1.2177 -0.0531 -0.0787
  454MOL0     C62519   5.955   5.622   7.156  0.3030  0.0990  0.1539
  454MOL0     C62520   6.031   5.527   7.215  0.7984  0.0069 -0.0482
  454MOL0     C62521   6.046   5.543   7.351 -1.1943 -0.5540 -0.9219
  454MOL0     O62522   6.129   5.453   7.415 -0.2481  0.4847  0.4221
  454MOL0     C62523   6.113   5.431   7.555 -0.9483 -0.2321  0.4904
  454MOL0     C62524   6.183   5.300   7.581  0.1396 -0.4361  1.0148
  454MOL0     C62525   6.206   5.252   7.724  1.1690 -0.1928  0.7257
  454MOL0     C62526   6.306   5.132   7.729  1.1406 -0.7296  0.5638
  454MOL0     C62527   6.336   5.091   7.869  0.2647 -0.7534 -0.5075
  454MOL0     C62528   6.222   5.030   7.951  0.3246  0.0901 -0.8116
  454MOL0     C62529   6.259   5.029   8.104 -0.2282  0.5269 -0.0555
  454MOL0     C62530   6.383   4.946   8.114 -0.0593 -0.3559 -0.1843
  454MOL0     N62531   6.431   4.915   8.247  0.0359  0.1993 -0.0755
  454MOL0     C62532   6.450   5.005   8.350 -0.0878 -0.1864  0.7460
  454MOL0     C62533   6.535   4.950   8.436  0.0185  0.2356  0.7043
  454MOL0     C62534   6.603   5.023   8.550  0.1222  0.6254  0.1618
  454MOL0     C62535   6.735   5.071   8.509 -0.2983 -0.4457  0.2519
  454MOL0     C62536   6.834   4.973   8.571 -0.7147 -0.4017  0.2037
  454MOL0     C62537   6.985   5.001   8.561  1.2256  0.8436 -0.6522
  454MOL0     O62538   6.998   5.135   8.605 -0.4245  0.1221  0.3434
  454MOL0     C62539   7.040   5.242   8.526 -0.4684 -0.4911 -0.6162
  454MOL0     C62540   7.097   5.351   8.592 -0.5814 -0.1294  0.7227
  454MOL0     C62541   7.147   5.465   8.530 -0.0192 -0.1422 -0.5658
  454MOL0     C62542   7.206   5.576   8.613 -0.2035 -0.0921  0.9838
  454MOL0     C62543   7.156   5.469   8.389 -0.0740  0.2912 -0.1378
  454MOL0     C62544   7.193   5.588   8.308 -0.4520  0.2665 -0.0045
  454MOL0     O62545   7.284   5.674   8.354  0.2593  0.0542 -0.2658
  454MOL0     C62546   7.292   5.802   8.293  0.5223 -0.6838  0.7393
  454MOL0     C62547   7.409   5.848   8.232  0.6858  0.9856  0.4743
  454MOL0     C62548   7.426   5.979   8.201  0.3326  0.4864 -0.2152
  454MOL0     C62549   7.320   6.066   8.214 -0.2213 -0.5041  0.6618
  454MOL0     O62550   7.334   6.198   8.167 -0.4001  0.9474  0.0732
  454MOL0     C62551   7.246   6.301   8.207  0.4888  1.6136  0.1765
  454MOL0     C62552   7.318   6.440   8.209  0.0327  0.9718  0.0941
  454MOL0     C62553   7.372   6.479   8.069  0.2704 -0.1510 -0.4820
  454MOL0     C62554   7.256   6.534   7.989 -0.5152  0.2427  0.9833
  454MOL0     C62555   7.303   6.597   7.857 -0.2773 -0.7727  0.3224
  454MOL0     C62556   7.283   6.516   7.726 -0.0452 -1.0332 -0.6834
  454MOL0     C62557   7.136   6.514   7.689  0.2835  0.4881  0.3351
  454MOL0     C62558   7.132   6.447   7.547  0.6444 -0.8171  1.1349
  454MOL0    Cl62559   7.216   6.547   7.417  0.1571  0.6370 -0.9177
  454MOL0     C62560   7.202   6.026   8.270 -0.0173 -0.1305 -0.0468
  454MOL0     C62561   7.189   5.896   8.312  0.6573 -0.3072 -0.6304
  454MOL0     O62562   7.130   5.608   8.204 -0.0898  0.4013  0.1353
  454MOL0     C62563   7.104   5.351   8.317  0.0769 -0.1934 -1.0503
  454MOL0     C62564   7.034   5.244   8.387  0.0542 -0.7608  0.3551
  454MOL0     N62565   6.573   4.827   8.383  0.0330 -0.6840  0.4562
  454MOL0     N62566   6.510   4.808   8.270 -0.3926  0.3666  0.7972
  454MOL0     C62567   5.996   5.657   7.428  0.5736  0.4710  0.1565
  454MOL0     C62568   5.922   5.754   7.362  0.0893  0.7997  0.6120
  454MOL0     C62569   5.660   6.010   7.178  0.9770 -0.9048 -0.4783
  454MOL0     C62570   5.654   6.149   7.182  0.4345  0.8168 -0.6504
  454MOL0     C62571   5.538   6.212   7.152 -0.3506 -0.1339  0.2198
  454MOL0     C62572   5.417   6.138   7.138  0.3988  0.5433 -0.4236
  454MOL0     O62573   5.300   6.198   7.110 -0.4311 -0.1402  0.2683
  454MOL0     C62574   5.306   6.291   6.988 -0.2115 -0.7283 -0.1993
  454MOL0     C62575   5.162   6.342   6.947 -0.0797  1.3089  0.3007
  454MOL0     C62576   5.098   6.425   7.062 -1.1088  0.7287  0.8504
  454MOL0     C62577   4.955   6.463   7.026 -0.0825 -0.6819 -0.7668
  454MOL0     C62578   4.924   6.503   6.896  0.1235  0.1964 -0.3481
  454MOL0     C62579   4.907   6.545   6.787  0.5296  0.4618  0.7539
  454MOL0     C62580   5.416   6.002   7.160 -1.3188  0.3965  0.0635
  454MOL0     C62581   5.533   5.936   7.178 -0.8268  0.5279  0.8067
  454MOL0     C62582   5.529   5.784   7.158  0.3211  0.2926 -0.3570
  454MOL0     H62583   5.945   5.607   7.049 -1.3548 -1.8398  0.5213
  454MOL0     H62584   6.090   5.448   7.168  0.3383 -0.4883  0.2011
  454MOL0     H62585   6.011   5.440   7.592 -1.2458 -0.7261 -0.2020
  454MOL0     H62586   6.171   5.498   7.620 -0.1285  0.3249 -0.7867
  454MOL0     H62587   6.130   5.221   7.527  0.6689 -0.1213  0.0179
  454MOL0     H62588   6.277   5.317   7.528 -0.0404 -0.0613  0.8093
  454MOL0     H62589   6.248   5.335   7.781 -2.2259  2.2114 -0.0081
  454MOL0     H62590   6.105   5.232   7.760  0.9013  1.5819  1.0185
  454MOL0     H62591   6.260   5.045   7.681  0.4958 -0.7644  1.2231
  454MOL0     H62592   6.398   5.163   7.679 -0.7890  3.2989 -0.9412
  454MOL0     H62593   6.386   5.169   7.927 -0.0575 -1.8098  1.2836
  454MOL0     H62594   6.402   5.005   7.851 -0.0516 -0.8868 -1.0384
  454MOL0     H62595   6.138   5.099   7.935 -0.5081 -1.1676 -2.1642
  454MOL0     H62596   6.197   4.929   7.918  1.6687 -0.5494  0.0730
  454MOL0     H62597   6.182   4.978   8.162 -0.2370  0.1546 -0.3943
  454MOL0     H62598   6.276   5.131   8.142 -2.9033  2.4394 -3.3641
  454MOL0     H62599   6.375   4.853   8.058 -1.3451  0.2371 -1.0457
  454MOL0     H62600   6.461   5.007   8.068  0.2893 -0.1358  0.6813
  454MOL0     H62601   6.414   5.106   8.365 -0.7458  0.3533 -3.1850
  454MOL0     H62602   6.601   4.957   8.637 -2.4420  0.2948 -0.0736
  454MOL0     H62603   6.539   5.108   8.571  0.3180  0.1102  3.2263
  454MOL0     H62604   6.756   5.076   8.402  0.3145  1.9558  0.4235
  454MOL0     H62605   6.754   5.172   8.548 -0.5784 -0.0571 -0.5904
  454MOL0     H62606   6.817   4.960   8.678 -4.4285  2.9267  0.2674
  454MOL0     H62607   6.813   4.875   8.527 -0.2258 -0.2481 -0.3891
  454MOL0     H62608   7.026   4.929   8.632  1.0341  0.6799 -0.7086
  454MOL0     H62609   7.038   4.988   8.466  1.7812 -0.2845 -0.2030
  454MOL0     H62610   7.088   5.349   8.700 -1.4639  0.7237  0.6740
  454MOL0     H62611   7.199   5.570   8.722  0.1122 -2.6734  0.9313
  454MOL0     H62612   7.168   5.673   8.582  1.2112  0.6490  1.4922
  454MOL0     H62613   7.313   5.579   8.593 -0.7663  1.6099 -2.3703
  454MOL0     H62614   7.496   5.783   8.229 -0.5261 -0.6883 -1.0894
  454MOL0     H62615   7.518   6.020   8.160 -0.6401  1.3747 -1.5967
  454MOL0     H62616   7.157   6.296   8.143  0.7408 -2.8746 -0.1290
  454MOL0     H62617   7.215   6.281   8.311  0.5337 -0.7206 -0.2039
  454MOL0     H62618   7.255   6.517   8.254 -0.8219  0.3687 -0.0446
  454MOL0     H62619   7.395   6.432   8.286 -0.9859 -0.2106  1.0453
  454MOL0     H62620   7.413   6.394   8.014 -2.2302 -1.1576 -0.9063
  454MOL0     H62621   7.443   6.561   8.083 -0.6827  0.3347  2.0182
  454MOL0     H62622   7.199   6.610   8.044 -1.7215  1.0463 -1.2630
  454MOL0     H62623   7.181   6.455   7.980 -1.4793  1.3132 -0.9191
  454MOL0     H62624   7.255   6.691   7.829 -0.5898 -1.6568 -2.3872
  454MOL0     H62625   7.410   6.613   7.872 -0.5624 -0.0700  1.8305
  454MOL0     H62626   7.332   6.418   7.718 -0.6316 -1.2688 -1.5074
  454MOL0     H62627   7.334   6.575   7.650 -0.9425  0.1874 -0.3614
  454MOL0     H62628   7.088   6.612   7.679 -2.6283 -0.8418  0.1919
  454MOL0     H62629   7.080   6.461   7.767 -1.2634  1.9015  0.2406
  454MOL0     H62630   7.025   6.435   7.524  0.3619  3.7320 -0.9335
  454MOL0     H62631   7.178   6.348   7.547  2.2306 -0.1346 -0.4547
  454MOL0     H62632   7.117   6.093   8.277 -1.9654 -2.6250  3.1641
  454MOL0     H62633   7.100   5.860   8.363  0.5995  0.2383 -0.3353
  454MOL0     H62634   7.093   5.363   8.210 -2.2545  1.6097 -0.7098
  454MOL0     H62635   6.975   5.179   8.323  0.3790  2.2696 -3.3823
  454MOL0     H62636   6.020   5.671   7.533  0.0516  2.3020  0.0586
  454MOL0     H62637   5.885   5.838   7.420  0.4946  2.0125 -0.8341
  454MOL0     H62638   5.737   6.213   7.211 -1.4938  2.6306  1.2750
  454MOL0     H62639   5.540   6.321   7.146 -0.0540 -0.1501 -0.0328
  454MOL0     H62640   5.378   6.372   7.002 -0.5993 -0.4667  0.3382
  454MOL0     H62641   5.345   6.242   6.899 -1.9658 -1.2535 -0.7212
  454MOL0     H62642   5.103   6.252   6.930 -0.5576  1.7456 -0.3946
  454MOL0     H62643   5.176   6.385   6.848 -1.8902 -0.4127 -0.7670
  454MOL0     H62644   5.105   6.367   7.154  0.6880 -1.7064 -0.7034
  454MOL0     H62645   5.156   6.518   7.063 -1.2175  0.8704 -1.6917
  454MOL0     H62646   4.927   6.541   7.098 -1.8777  0.0351 -2.1878
  454MOL0     H62647   4.902   6.369   7.047 -1.6101  0.3024 -0.0376
  454MOL0     H62648   4.914   6.578   6.686  0.6819  0.5256  0.7854
  454MOL0     H62649   5.327   5.940   7.170 -0.4518 -0.8542  0.2965
  454MOL0     H62650   5.430   5.747   7.188  0.7198 -0.1487  0.4542
  454MOL0     H62651   5.551   5.760   7.053  1.7275  2.2954 -0.5590
  454MOL0     H62652   5.604   5.726   7.212 -1.1944 -0.5061  1.0086
  455MOL0     O62653   6.704   3.433   7.131 -0.2973  1.3862 -0.0982
  455MOL0     C62654   6.770   3.378   7.046 -0.0092 -1.0339 -0.1071
  455MOL0     O62655   6.731   3.337   6.920  0.1472  0.2082 -0.2368
  455MOL0     C62656   6.604   3.356   6.878 -0.9500  0.3193  0.2452
  455MOL0     C62657   6.551   3.270   6.783  1.0535  0.0018 -0.7446
  455MOL0     C62658   6.423   3.288   6.729  1.1727  0.0442 -0.2238
  455MOL0     C62659   6.355   3.413   6.751  0.4167  0.6880  0.3589
  455MOL0     O62660   6.235   3.442   6.694 -0.2075  0.2009 -0.1765
  455MOL0     C62661   6.167   3.336   6.630  1.1039  0.5268 -0.0241
  455MOL0     C62662   6.015   3.361   6.605  0.0048  0.4413 -0.9265
  455MOL0     C62663   5.961   3.465   6.715 -0.1130  0.7087 -0.0027
  455MOL0     C62664   5.808   3.471   6.705  0.6792  0.0914 -0.9432
  455MOL0     C62665   5.765   3.573   6.816 -0.1502 -0.2797  0.1793
  455MOL0     C62666   5.609   3.593   6.820 -0.9772  0.5604  0.0019
  455MOL0     C62667   5.563   3.710   6.908  0.3175 -0.6709 -1.2908
  455MOL0     C62668   5.459   3.676   7.023 -0.2281  0.4595  0.3409
  455MOL0     N62669   5.513   3.569   7.108  0.4931  0.2315  0.1417
  455MOL0     C62670   5.639   3.560   7.178  0.0967  0.4582 -0.0084
  455MOL0     C62671   5.632   3.450   7.255  0.9766 -0.7586 -0.2106
  455MOL0     C62672   5.740   3.417   7.344  0.4759  0.3589  1.1797
  455MOL0     C62673   5.820   3.527   7.402 -0.6541 -0.1255 -0.1856
  455MOL0     C62674   5.739   3.593   7.508  0.7915  0.1501  0.4236
  455MOL0     C62675   5.810   3.699   7.583  0.4780 -0.5838  0.7054
  455MOL0     O62676   5.928   3.651   7.653 -0.4304  0.0325  0.0960
  455MOL0     C62677   5.982   3.714   7.760  0.1500 -0.4080 -0.8897
  455MOL0     C62678   6.051   3.628   7.853 -0.3257 -0.1088  0.0130
  455MOL0     C62679   6.131   3.684   7.954 -0.1714 -0.1726 -0.3480
  455MOL0     C62680   6.212   3.582   8.034  0.1279 -0.5097 -0.3853
  455MOL0     C62681   6.122   3.824   7.980 -0.2378  0.4563 -0.0737
  455MOL0     C62682   6.189   3.886   8.107  0.9529 -0.6615  0.3314
  455MOL0     O62683   6.205   4.015   8.091 -0.8162  0.9023 -1.0569
  455MOL0     C62684   6.282   4.085   8.177 -0.0458 -1.1223 -0.2267
  455MOL0     C62685   6.277   4.088   8.317 -0.2275 -0.3722  0.6636
  455MOL0     C62686   6.358   4.180   8.398 -0.4105  0.1906  0.8203
  455MOL0     C62687   6.458   4.262   8.338 -1.0577 -0.1250 -0.1694
  455MOL0     O62688   6.549   4.319   8.428 -0.5475 -1.0336  1.2618
  455MOL0     C62689   6.591   4.461   8.413 -0.9067  0.3137  0.6666
  455MOL0     C62690   6.691   4.501   8.523  0.5645  0.2622 -0.3501
  455MOL0     C62691   6.634   4.525   8.664  0.2865  0.0193  0.3688
  455MOL0     C62692   6.740   4.568   8.771  0.1501  0.1469 -0.5636
  455MOL0     C62693   6.660   4.602   8.900 -0.3766  0.5075  0.3996
  455MOL0     C62694   6.604   4.481   8.962  0.7039  0.0905 -0.8279
  455MOL0     C62695   6.560   4.499   9.101 -0.2744 -0.3488 -0.0690
  455MOL0     C62696   6.545   4.368   9.169 -0.0528 -0.2438  0.0267
  455MOL0    Cl62697   6.709   4.302   9.217  0.3456 -0.0871  0.4227
  455MOL0     C62698   6.459   4.273   8.193 -0.2155 -0.2546  0.3502
  455MOL0     C62699   6.377   4.181   8.114  0.0701 -0.4136 -1.1395
  455MOL0     O62700   6.214   3.828   8.206 -0.3260  0.2640  0.3402
  455MOL0     C62701   6.059   3.904   7.890 -0.2263  0.2645 -0.1757
  455MOL0     C62702   5.981   3.851   7.785 -0.2700 -0.7273 -0.5366
  455MOL0     N62703   5.493   3.408   7.252 -0.4823 -0.2766 -1.8078
  455MOL0     N62704   5.442   3.460   7.146  0.3476  0.1346  0.6224
  455MOL0     C62705   6.414   3.503   6.838  1.0265  0.0985  0.1361
  455MOL0     C62706   6.545   3.482   6.893 -0.3284  0.6315  0.1081
  455MOL0     C62707   6.909   3.331   7.084 -0.1325 -0.6781 -0.4516
  455MOL0     C62708   6.958   3.225   7.006 -0.8959 -0.3639  1.0925
  455MOL0     C62709   7.091   3.175   7.031 -0.6562  0.4973  0.6168
  455MOL0     C62710   7.172   3.234   7.123  0.0534 -0.4393 -0.7320
  455MOL0     O62711   7.298   3.184   7.138 -0.7187 -0.0860 -0.0772
  455MOL0     C62712   7.393   3.268   7.208  0.1078 -0.6597 -0.0795
  455MOL0     C62713   7.519   3.183   7.217 -0.6137  0.1923  0.8144
  455MOL0     C62714   7.650   3.249   7.263 -0.4081  0.4273 -0.5048
  455MOL0     C62715   7.777   3.141   7.248  0.2463 -0.7071 -0.3744
  455MOL0     C62716   7.821   3.126   7.113 -0.0361 -0.7080  0.6101
  455MOL0     C62717   7.855   3.120   6.995 -0.1505  0.0325  0.4969
  455MOL0     C62718   7.124   3.349   7.190 -0.5444  0.0549  0.2044
  455MOL0     C62719   6.988   3.401   7.171  0.9643  0.5935 -0.2678
  455MOL0     C62720   6.953   3.536   7.242  0.1110  0.4971  0.0810
  455MOL0     H62721   6.610   3.182   6.758  0.4399 -0.0181 -2.2509
  455MOL0     H62722   6.378   3.216   6.661 -1.1499 -0.5956  1.8428
  455MOL0     H62723   6.163   3.250   6.697 -1.5089 -1.2712 -2.2553
  455MOL0     H62724   6.201   3.301   6.532 -0.5339 -1.7137  0.1124
  455MOL0     H62725   5.984   3.395   6.506 -1.0234 -0.8447 -1.0675
  455MOL0     H62726   5.965   3.265   6.619  1.5147 -0.3851 -0.9356
  455MOL0     H62727   5.993   3.428   6.813 -2.5683  3.5483  2.0385
  455MOL0     H62728   5.998   3.567   6.707 -1.8889  1.9002  4.3966
  455MOL0     H62729   5.775   3.508   6.607 -1.2299  3.0473  0.6804
  455MOL0     H62730   5.765   3.370   6.715 -0.0007  0.5409  0.9908
  455MOL0     H62731   5.807   3.672   6.796 -2.1784  0.5523 -0.2049
  455MOL0     H62732   5.806   3.538   6.911 -1.8400  0.9058  1.3973
  455MOL0     H62733   5.569   3.602   6.718  2.2805 -1.3954 -1.6159
  455MOL0     H62734   5.573   3.498   6.860 -0.2190 -0.2919 -1.2954
  455MOL0     H62735   5.516   3.788   6.848 -3.7698  0.7539  3.1195
  455MOL0     H62736   5.651   3.759   6.953 -1.5072 -1.1942  3.4158
  455MOL0     H62737   5.440   3.764   7.085 -0.9625  1.1293 -0.7921
  455MOL0     H62738   5.367   3.647   6.970  0.2971  0.8032 -0.8060
  455MOL0     H62739   5.717   3.634   7.190 -0.3667  0.7790  1.2662
  455MOL0     H62740   5.810   3.370   7.274 -0.0998  1.8486 -0.4666
  455MOL0     H62741   5.699   3.341   7.412 -1.0512 -0.3047 -0.3918
  455MOL0     H62742   5.898   3.479   7.461 -3.9369 -2.1824  2.9316
  455MOL0     H62743   5.862   3.583   7.318 -2.0746 -2.5068 -2.6992
  455MOL0     H62744   5.655   3.637   7.453  0.4381 -3.1019 -1.9155
  455MOL0     H62745   5.694   3.521   7.577  0.0748  2.5590  2.6468
  455MOL0     H62746   5.834   3.785   7.518  1.0150 -0.2997  1.2718
  455MOL0     H62747   5.749   3.738   7.664  1.5893 -1.3110  1.9310
  455MOL0     H62748   6.066   3.521   7.839  0.4867 -0.1604  1.2239
  455MOL0     H62749   6.251   3.617   8.130 -2.5838 -2.3333  1.5406
  455MOL0     H62750   6.293   3.549   7.969 -1.0013 -0.5634 -1.8229
  455MOL0     H62751   6.151   3.493   8.051 -2.8281  1.1595 -1.3787
  455MOL0     H62752   6.210   4.023   8.374 -0.4938 -0.4275  0.2900
  455MOL0     H62753   6.357   4.189   8.506  0.1989  2.5130  0.6898
  455MOL0     H62754   6.644   4.464   8.318 -0.2866 -0.1531  0.9882
  455MOL0     H62755   6.505   4.527   8.402  0.6011  2.3861  0.6002
  455MOL0     H62756   6.765   4.422   8.532  1.5567  1.3437  1.6478
  455MOL0     H62757   6.732   4.597   8.492 -1.8529  1.0666 -1.3413
  455MOL0     H62758   6.580   4.434   8.692  1.6687  0.4260  5.3940
  455MOL0     H62759   6.561   4.607   8.656 -0.2057 -0.4758 -0.2740
  455MOL0     H62760   6.799   4.657   8.748  1.3710 -0.1453  1.1910
  455MOL0     H62761   6.815   4.489   8.781 -3.7449 -3.8367  0.7641
  455MOL0     H62762   6.721   4.647   8.979 -1.9093 -0.3492  2.1200
  455MOL0     H62763   6.583   4.678   8.887  0.0927  1.1411  1.2376
  455MOL0     H62764   6.684   4.407   8.969  2.2348  1.8038  1.4112
  455MOL0     H62765   6.514   4.444   8.913  0.0442 -2.2077  1.8482
  455MOL0     H62766   6.461   4.547   9.104  0.0386  0.4467 -1.6059
  455MOL0     H62767   6.634   4.557   9.157 -1.2422 -1.8372  3.0120
  455MOL0     H62768   6.480   4.306   9.106 -1.7279 -0.3453  1.7725
  455MOL0     H62769   6.486   4.376   9.260  0.1102 -0.0125  0.1145
  455MOL0     H62770   6.528   4.348   8.155 -1.6222 -0.3289 -2.6102
  455MOL0     H62771   6.402   4.192   8.009 -0.1590 -2.3466 -1.4267
  455MOL0     H62772   6.057   4.007   7.923  0.0633 -0.0146  0.7396
  455MOL0     H62773   5.943   3.927   7.718  0.3516  1.5724  1.5585
  455MOL0     H62774   6.364   3.595   6.864 -0.1677 -0.3339 -0.5546
  455MOL0     H62775   6.593   3.567   6.940 -0.7643  1.3098 -0.6579
  455MOL0     H62776   6.898   3.181   6.928 -1.3448 -0.3359  1.4194
  455MOL0     H62777   7.125   3.086   6.979 -0.1018  0.8469  0.3758
  455MOL0     H62778   7.417   3.365   7.162  0.6578 -0.8834 -0.2800
  455MOL0     H62779   7.369   3.293   7.312  0.9120  2.2735 -0.4882
  455MOL0     H62780   7.542   3.139   7.120  0.8823 -0.8503  1.5795
  455MOL0     H62781   7.499   3.109   7.296 -3.8125  1.5254  1.3925
  455MOL0     H62782   7.667   3.346   7.215  0.7832  0.5094  0.0294
  455MOL0     H62783   7.644   3.257   7.372 -1.4716 -2.5787 -0.2679
  455MOL0     H62784   7.757   3.045   7.296  1.7377 -0.5992  0.5289
  455MOL0     H62785   7.865   3.176   7.303 -0.4448 -1.7652  1.5002
  455MOL0     H62786   7.901   3.110   6.899 -1.4215  1.4989 -0.3154
  455MOL0     H62787   7.182   3.395   7.269 -1.3712 -1.9363  2.0788
  455MOL0     H62788   7.038   3.599   7.270 -0.8938  1.5257  0.9164
  455MOL0     H62789   6.903   3.599   7.169 -1.8520 -1.6517 -0.5310
  455MOL0     H62790   6.883   3.521   7.324  1.3719 -0.4653  1.0293
  456MOL0     O62791   6.386   8.719   1.683  0.0651 -0.6002 -0.0571
  456MOL0     C62792   6.381   8.824   1.749  0.1215  0.0639  1.7835
  456MOL0     O62793   6.279   8.914   1.748  0.0563  0.6141  0.2944
  456MOL0     C62794   6.183   8.901   1.649  0.3073  0.5917 -1.5841
  456MOL0     C62795   6.215   8.937   1.527 -0.6059  0.2107  0.1240
  456MOL0     C62796   6.109   8.916   1.434  0.5537  0.0950 -0.0334
  456MOL0     C62797   5.989   8.855   1.469  0.5094 -0.8667  0.5876
  456MOL0     O62798   5.892   8.847   1.374  0.6121  0.6306 -0.2567
  456MOL0     C62799   5.822   8.722   1.366 -0.7427  1.0379 -0.1115
  456MOL0     C62800   5.783   8.684   1.224  0.0827  0.1981  0.1085
  456MOL0     C62801   5.706   8.796   1.156 -0.1239 -0.2509  0.0686
  456MOL0     C62802   5.654   8.762   1.018 -0.4239  1.1052  0.4970
  456MOL0     C62803   5.630   8.885   0.935 -0.1549  0.2119  0.9116
  456MOL0     C62804   5.582   8.849   0.793 -0.1099  0.1439  1.1060
  456MOL0     C62805   5.495   8.960   0.729  0.1358  0.6883 -0.1570
  456MOL0     C62806   5.567   9.088   0.703 -0.2124  0.5554 -0.1586
  456MOL0     N62807   5.674   9.101   0.600 -0.3120  1.0209  0.6687
  456MOL0     C62808   5.715   9.224   0.563  0.3358  0.1697  0.5760
  456MOL0     C62809   5.808   9.200   0.463 -0.3556 -0.5528  0.0391
  456MOL0     C62810   5.892   9.308   0.402 -1.0306  0.0304 -0.4073
  456MOL0     C62811   5.842   9.357   0.267 -0.4043 -0.7190 -0.5234
  456MOL0     C62812   5.767   9.486   0.275 -0.0578 -1.0491 -1.2766
  456MOL0     C62813   5.717   9.514   0.139 -0.4234 -0.6322  0.9786
  456MOL0     O62814   5.620   9.625   0.152  0.5073 -0.1629  0.4575
  456MOL0     C62815   5.652   9.743   0.091 -0.7483 -0.2895 -1.1305
  456MOL0     C62816   5.702   9.752  -0.042  0.4441 -0.1395  0.3340
  456MOL0     C62817   5.714   9.875  -0.105 -0.3190 -0.0638 -0.7839
  456MOL0     C62818   5.761   9.872  -0.253 -0.0145 -0.6750 -0.4037
  456MOL0     C62819   5.685   9.992  -0.032  0.2365  0.1597 -0.5675
  456MOL0     C62820   5.701  10.124  -0.094 -0.2053  0.9443 -0.4063
  456MOL0     O62821   5.625  10.220  -0.035 -0.5459  0.2460 -0.0559
  456MOL0     C62822   5.626  10.341  -0.092  0.0920  0.1657  0.6271
  456MOL0     C62823   5.721  10.432  -0.073 -0.1813  0.6563 -0.5444
  456MOL0     C62824   5.721  10.551  -0.136  0.5129 -0.2987  0.8410
  456MOL0     C62825   5.619  10.586  -0.218  0.0498 -1.1190 -0.6437
  456MOL0     O62826   5.636  10.705  -0.287  0.3502  0.1701  1.1838
  456MOL0     C62827   5.535  10.735  -0.383  0.5315  0.5764 -0.4248
  456MOL0     C62828   5.579  10.831  -0.489  0.6267 -0.0813  0.7345
  456MOL0     C62829   5.492  10.844  -0.610  0.5359  0.0251 -0.0691
  456MOL0     C62830   5.563  10.830  -0.746 -0.4486  0.4427  0.1124
  456MOL0     C62831   5.505  10.928  -0.842  1.0402 -0.9598  1.3600
  456MOL0     C62832   5.515  10.897  -0.991 -0.4149  0.2455  0.9505
  456MOL0     C62833   5.462  11.021  -1.078  0.3065 -0.0217  0.4825
  456MOL0     C62834   5.453  11.001  -1.224  0.3109  0.4706 -0.0283
  456MOL0    Cl62835   5.302  10.926  -1.266  0.1716 -0.1090  0.2997
  456MOL0     C62836   5.513  10.492  -0.232  0.5120  0.7234 -0.0601
  456MOL0     C62837   5.520  10.368  -0.180  1.0579  0.3669 -0.5724
  456MOL0     O62838   5.787  10.152  -0.177  0.1977 -0.5044 -0.5717
  456MOL0     C62839   5.639   9.988   0.103 -0.1197  0.4839 -0.5080
  456MOL0     C62840   5.614   9.862   0.158  1.1149 -0.5783 -0.1072
  456MOL0     N62841   5.819   9.068   0.445  0.3250  0.3763 -0.2830
  456MOL0     N62842   5.748   9.010   0.533 -0.4796 -0.1329  0.0753
  456MOL0     C62843   5.963   8.823   1.604 -0.8682 -0.0164  0.1591
  456MOL0     C62844   6.058   8.852   1.694  0.7703 -0.8603 -0.2559
  456MOL0     C62845   6.494   8.871   1.830  0.1122 -0.1913 -0.8689
  456MOL0     C62846   6.454   8.950   1.945  0.3110  0.5281 -0.0403
  456MOL0     C62847   6.548   8.984   2.050 -0.5612  0.8156 -0.3898
  456MOL0     C62848   6.684   8.946   2.030  0.2915  0.0685 -0.1562
  456MOL0     O62849   6.765   9.000   2.124 -0.1637  0.2647 -0.1079
  456MOL0     C62850   6.868   8.913   2.178 -0.7394 -0.7400 -0.7740
  456MOL0     C62851   6.895   8.958   2.321 -0.4625 -0.1418 -0.5612
  456MOL0     C62852   6.793   8.890   2.426  0.3510 -0.8788  0.1729
  456MOL0     C62853   6.711   8.991   2.499 -0.2330 -0.0980 -0.3680
  456MOL0     C62854   6.567   8.955   2.498  0.0995  0.7322 -0.9448
  456MOL0     C62855   6.452   8.921   2.502 -0.1368  1.2805 -0.0781
  456MOL0     C62856   6.728   8.870   1.920  0.1629  0.0089 -0.1341
  456MOL0     C62857   6.633   8.828   1.823 -1.1712 -0.6575 -0.0981
  456MOL0     C62858   6.688   8.729   1.719  0.1488 -0.1264 -0.0755
  456MOL0     H62859   6.316   8.974   1.509  0.3911 -0.8780  2.9081
  456MOL0     H62860   6.130   8.951   1.333 -0.4789 -2.8621 -1.3899
  456MOL0     H62861   5.743   8.745   1.439  1.5989  2.4734  2.1303
  456MOL0     H62862   5.897   8.654   1.405  1.0744  3.7884  1.5468
  456MOL0     H62863   5.875   8.664   1.168 -1.5595  1.5283 -3.3211
  456MOL0     H62864   5.714   8.602   1.242  0.0911 -0.4956 -2.5907
  456MOL0     H62865   5.619   8.834   1.212 -0.1222  2.8870 -1.8643
  456MOL0     H62866   5.775   8.879   1.143 -0.7726  0.7387  2.2656
  456MOL0     H62867   5.726   8.703   0.961 -1.3093  2.9799 -2.8686
  456MOL0     H62868   5.563   8.702   1.025 -0.5341  0.9131 -1.7386
  456MOL0     H62869   5.720   8.946   0.923  0.0628 -0.1036  0.9495
  456MOL0     H62870   5.552   8.945   0.984 -0.2709  2.7246 -2.0356
  456MOL0     H62871   5.682   8.849   0.748  0.7511  0.8140  2.8990
  456MOL0     H62872   5.539   8.749   0.792 -1.1386  0.5542  2.2660
  456MOL0     H62873   5.405   8.965   0.790  2.6621  1.5176  3.8971
  456MOL0     H62874   5.461   8.921   0.633  0.2971 -3.4652  1.2657
  456MOL0     H62875   5.480   9.144   0.670 -1.8943 -2.0312 -0.3981
  456MOL0     H62876   5.594   9.126   0.803 -0.5566 -0.6953  0.4260
  456MOL0     H62877   5.690   9.319   0.611  1.2123 -0.7748  3.0729
  456MOL0     H62878   5.996   9.273   0.394 -0.7226  1.3195 -3.1935
  456MOL0     H62879   5.880   9.385   0.479 -1.7546  2.6588 -2.9526
  456MOL0     H62880   5.929   9.372   0.202 -1.0876 -0.8820 -1.4957
  456MOL0     H62881   5.772   9.282   0.229  1.9065 -1.9488 -2.6253
  456MOL0     H62882   5.683   9.496   0.344 -0.3098  1.5782 -1.8548
  456MOL0     H62883   5.835   9.569   0.295  0.1056 -1.7403  1.3372
  456MOL0     H62884   5.805   9.542   0.080 -1.1824 -2.1219 -0.9533
  456MOL0     H62885   5.671   9.430   0.087  1.2549  0.0256 -1.7542
  456MOL0     H62886   5.730   9.658  -0.088 -0.6967 -0.9081  1.1502
  456MOL0     H62887   5.864   9.908  -0.259  0.1472 -0.9092  0.6776
  456MOL0     H62888   5.695   9.939  -0.309  0.1810  1.1706  1.4856
  456MOL0     H62889   5.754   9.770  -0.292  1.9231 -0.9121 -0.2351
  456MOL0     H62890   5.809  10.407  -0.013  1.4127  1.6786 -2.3489
  456MOL0     H62891   5.801  10.625  -0.136  0.5442 -0.3083  2.3623
  456MOL0     H62892   5.506  10.648  -0.441 -0.1335 -0.8344  1.8828
  456MOL0     H62893   5.444  10.774  -0.335  1.2137 -1.1310  2.4610
  456MOL0     H62894   5.580  10.930  -0.442 -1.5064 -0.0634  0.8430
  456MOL0     H62895   5.679  10.804  -0.524  0.6585  1.3657 -0.3496
  456MOL0     H62896   5.430  10.934  -0.603  1.6935  0.8615 -0.1596
  456MOL0     H62897   5.412  10.770  -0.605  1.6172 -1.2401 -0.9459
  456MOL0     H62898   5.554  10.727  -0.779 -0.5508  0.0201  1.4040
  456MOL0     H62899   5.666  10.862  -0.729  0.1355  0.4393 -2.9447
  456MOL0     H62900   5.397  10.933  -0.826  1.0261  0.9350  0.8869
  456MOL0     H62901   5.554  11.025  -0.832  2.7702 -1.1981 -2.6178
  456MOL0     H62902   5.449  10.813  -1.012 -1.4521  1.1727  0.3515
  456MOL0     H62903   5.621  10.886  -1.014 -0.1248  2.1150  1.1895
  456MOL0     H62904   5.511  11.118  -1.068  1.2870 -0.4345 -0.1942
  456MOL0     H62905   5.358  11.037  -1.048 -0.5211 -1.2290 -1.4862
  456MOL0     H62906   5.545  10.957  -1.262 -0.2147 -0.8920  0.2320
  456MOL0     H62907   5.447  11.102  -1.265  2.6101 -0.2272 -2.3247
  456MOL0     H62908   5.425  10.514  -0.292 -0.5308 -2.1658  0.2261
  456MOL0     H62909   5.442  10.293  -0.190  0.6575  0.9875 -2.7202
  456MOL0     H62910   5.633  10.084   0.152  2.5116  0.9604 -0.9768
  456MOL0     H62911   5.587   9.863   0.263 -1.9564 -0.7156 -0.7810
  456MOL0     H62912   5.874   8.766   1.626 -0.4976 -0.3149  0.9076
  456MOL0     H62913   6.045   8.825   1.798 -0.5987  1.3224  0.2122
  456MOL0     H62914   6.353   8.986   1.965 -0.3932 -1.3513 -0.0399
  456MOL0     H62915   6.525   9.039   2.140  2.3291  0.4041  0.7143
  456MOL0     H62916   6.830   8.811   2.174  0.1348 -1.0675 -1.0053
  456MOL0     H62917   6.962   8.910   2.122 -0.3362 -1.3695 -0.0973
  456MOL0     H62918   6.883   9.067   2.319 -1.5151 -0.2175  0.4564
  456MOL0     H62919   6.999   8.943   2.348 -0.2656  2.7283  0.6438
  456MOL0     H62920   6.723   8.817   2.384 -0.3351  0.4422 -1.0508
  456MOL0     H62921   6.856   8.837   2.498  0.9533  0.2725  0.4999
  456MOL0     H62922   6.731   9.084   2.446  1.0852  0.4347  0.9878
  456MOL0     H62923   6.759   9.001   2.597 -0.3535  0.4938 -0.3653
  456MOL0     H62924   6.352   8.884   2.516  0.2773 -0.9698 -2.2439
  456MOL0     H62925   6.830   8.831   1.914  0.6914  1.3847 -0.4102
  456MOL0     H62926   6.794   8.708   1.737 -0.2957 -0.6613  2.2981
  456MOL0     H62927   6.637   8.632   1.721 -1.3984  0.6696  1.0024
  456MOL0     H62928   6.674   8.786   1.627  0.0696 -0.1988 -0.1078
  457MOL0     O62929   9.763   0.148   3.700 -0.3361 -0.5148 -0.3793
  457MOL0     C62930   9.677   0.227   3.738  1.0305 -0.6947 -0.7532
  457MOL0     O62931   9.535   0.210   3.719 -0.1691  0.1230 -0.0949
  457MOL0     C62932   9.484   0.088   3.673  0.0975 -0.9364 -0.3158
  457MOL0     C62933   9.534   0.036   3.555 -1.3937  0.6365 -0.8550
  457MOL0     C62934   9.473  -0.074   3.505 -0.5767  0.4455 -1.0827
  457MOL0     C62935   9.365  -0.141   3.567 -0.2411 -0.3451  0.4470
  457MOL0     O62936   9.306  -0.242   3.494 -0.1707  0.6144  0.2028
  457MOL0     C62937   9.187  -0.295   3.551 -0.1729 -0.2734 -0.2229
  457MOL0     C62938   9.118  -0.418   3.478 -0.7004 -0.3546 -0.1897
  457MOL0     C62939   9.137  -0.401   3.333 -0.3390 -0.3259  0.7381
  457MOL0     C62940   9.045  -0.496   3.265 -0.2048 -0.1956  0.4666
  457MOL0     C62941   9.067  -0.520   3.117 -0.3151 -0.1312  0.7734
  457MOL0     C62942   8.961  -0.600   3.037  0.6281 -0.9583 -0.2683
  457MOL0     C62943   8.954  -0.742   3.076  0.2054 -0.0689 -0.2297
  457MOL0     C62944   8.840  -0.833   3.009 -0.6557  1.2191 -0.0816
  457MOL0     N62945   8.881  -0.891   2.883 -0.1279  0.1119  0.9966
  457MOL0     C62946   8.985  -0.985   2.861 -0.0359  0.6406  0.4128
  457MOL0     C62947   8.986  -1.003   2.730 -0.2792  0.2548  0.4259
  457MOL0     C62948   9.072  -1.097   2.652 -0.2212 -0.4695  0.0946
  457MOL0     C62949   9.033  -1.085   2.510 -0.6987 -0.6027 -0.0847
  457MOL0     C62950   9.094  -1.182   2.404 -0.4257 -0.3565  0.4414
  457MOL0     C62951   9.050  -1.167   2.258 -0.2612 -1.3642 -0.9651
  457MOL0     O62952   9.105  -1.266   2.172 -0.0526  0.1709  0.0409
  457MOL0     C62953   9.052  -1.293   2.050  0.1465  0.4066  0.7372
  457MOL0     C62954   9.103  -1.401   1.982 -0.6306  0.7145  0.2092
  457MOL0     C62955   9.062  -1.439   1.854  0.0555 -0.2338  0.3306
  457MOL0     C62956   9.152  -1.542   1.774  0.2395  0.1946 -0.3762
  457MOL0     C62957   8.969  -1.354   1.789 -0.2062 -0.6674  0.4266
  457MOL0     C62958   8.928  -1.361   1.642  0.8489 -0.5654  0.7238
  457MOL0     O62959   8.843  -1.260   1.595 -1.0051  0.8724  0.2765
  457MOL0     C62960   8.784  -1.271   1.473  0.0110  0.1812  0.9018
  457MOL0     C62961   8.649  -1.254   1.451 -0.3118 -0.4921 -0.1762
  457MOL0     C62962   8.592  -1.250   1.318 -0.1643  0.4409 -0.7935
  457MOL0     C62963   8.681  -1.258   1.210 -0.1429  0.7342 -1.4883
  457MOL0     O62964   8.636  -1.265   1.080  0.0144 -0.4481 -0.0516
  457MOL0     C62965   8.509  -1.226   1.042 -0.4262  0.0306 -0.3636
  457MOL0     C62966   8.490  -1.229   0.897  0.7794  0.4074  0.3615
  457MOL0     C62967   8.555  -1.110   0.816  0.4602  0.9641  0.6154
  457MOL0     C62968   8.504  -0.968   0.860 -0.8985  0.2089  0.2626
  457MOL0     C62969   8.606  -0.854   0.830 -0.0222  1.1335 -0.5438
  457MOL0     C62970   8.540  -0.720   0.865 -0.4204 -0.0750 -0.2162
  457MOL0     C62971   8.647  -0.607   0.851  0.3782 -0.1551  0.0290
  457MOL0     C62972   8.574  -0.477   0.895  0.1547 -0.1386  0.1506
  457MOL0    Cl62973   8.458  -0.412   0.780 -0.8428 -0.3442  0.4710
  457MOL0     C62974   8.812  -1.287   1.232 -1.0815 -0.3447  0.7575
  457MOL0     C62975   8.864  -1.288   1.362 -1.2070 -0.5337  0.6258
  457MOL0     O62976   8.965  -1.451   1.579  0.6795  0.4004  0.0080
  457MOL0     C62977   8.909  -1.250   1.857  0.7032 -0.7859 -0.2630
  457MOL0     C62978   8.944  -1.221   1.997  0.7213 -0.3371  0.5085
  457MOL0     N62979   8.885  -0.934   2.668  0.5152 -0.5994  0.2544
  457MOL0     N62980   8.825  -0.866   2.758 -0.3263  0.0566 -0.8028
  457MOL0     C62981   9.315  -0.075   3.687 -0.2683  0.1548 -0.4923
  457MOL0     C62982   9.379   0.032   3.745 -0.8533  0.2580 -0.1929
  457MOL0     C62983   9.732   0.358   3.783  0.0142  1.4051 -0.5843
  457MOL0     C62984   9.831   0.416   3.706 -0.1589 -0.5830 -0.1326
  457MOL0     C62985   9.870   0.551   3.734 -0.3498  0.0699  0.0002
  457MOL0     C62986   9.789   0.626   3.821 -0.2247  0.3477  0.9163
  457MOL0     O62987   9.841   0.751   3.850 -0.3743 -0.1342 -0.3165
  457MOL0     C62988   9.764   0.864   3.902  0.9664 -0.9259  0.1168
  457MOL0     C62989   9.728   0.963   3.789 -0.6277  0.2735  0.3317
  457MOL0     C62990   9.841   1.015   3.703 -0.5242  0.5444 -0.0650
  457MOL0     C62991   9.780   1.116   3.602 -0.4851  0.2681 -0.1392
  457MOL0     C62992   9.891   1.195   3.546 -0.5628 -0.4997  0.5698
  457MOL0     C62993   9.968   1.252   3.481 -0.2850 -0.6216 -0.3169
  457MOL0     C62994   9.687   0.568   3.886  0.5917 -0.2871 -0.0452
  457MOL0     C62995   9.654   0.437   3.869 -0.4879 -1.4929 -0.3675
  457MOL0     C62996   9.553   0.380   3.963  0.8131 -0.2439  0.3316
  457MOL0     H62997   9.623   0.068   3.503 -0.9518 -0.1013 -0.5764
  457MOL0     H62998   9.511  -0.116   3.413 -1.8198 -1.1970 -0.8878
  457MOL0     H62999   9.104  -0.223   3.548 -1.6142 -1.5589  3.3647
  457MOL0     H63000   9.217  -0.329   3.650  1.0533 -0.4413 -0.6324
  457MOL0     H63001   9.175  -0.503   3.517  0.8665  0.6668 -0.1795
  457MOL0     H63002   9.014  -0.426   3.510 -0.9980  1.4436 -0.6284
  457MOL0     H63003   9.118  -0.299   3.296 -1.6328 -1.2671 -1.3736
  457MOL0     H63004   9.240  -0.415   3.299 -1.4656 -2.1420 -2.3054
  457MOL0     H63005   9.066  -0.596   3.306 -2.3233 -1.0701 -0.4274
  457MOL0     H63006   8.941  -0.470   3.286 -0.0215 -0.0864  1.2699
  457MOL0     H63007   9.162  -0.574   3.106 -0.8631 -1.0731  0.6203
  457MOL0     H63008   9.065  -0.426   3.060 -0.7798 -1.6802 -1.9230
  457MOL0     H63009   8.865  -0.551   3.055 -0.3121 -2.8737  0.1668
  457MOL0     H63010   8.969  -0.588   2.928 -2.9044  0.8409 -0.4901
  457MOL0     H63011   8.936  -0.740   3.184 -0.8814  3.8052 -0.3407
  457MOL0     H63012   9.051  -0.781   3.044  2.9643  3.3927  3.0983
  457MOL0     H63013   8.814  -0.913   3.079  1.2732  0.7382  0.1681
  457MOL0     H63014   8.745  -0.782   2.997 -1.1360  0.1683 -0.9304
  457MOL0     H63015   9.048  -1.032   2.936 -0.1244  0.5025  0.4013
  457MOL0     H63016   9.040  -1.195   2.688  0.0010  0.0170  1.6843
  457MOL0     H63017   9.179  -1.082   2.668 -0.4769  0.9403  0.5591
  457MOL0     H63018   8.926  -1.105   2.503 -1.0279  1.3256 -1.3404
  457MOL0     H63019   9.057  -0.982   2.484 -1.4453 -0.7203 -1.3239
  457MOL0     H63020   9.203  -1.180   2.410 -0.2878 -0.4623 -1.4222
  457MOL0     H63021   9.063  -1.279   2.444  4.2084 -1.7895  1.1625
  457MOL0     H63022   8.941  -1.175   2.254 -0.2810 -2.1857  0.5725
  457MOL0     H63023   9.072  -1.064   2.228 -0.7547 -1.8971 -3.4329
  457MOL0     H63024   9.184  -1.457   2.027  0.9241  2.7230  0.0156
  457MOL0     H63025   9.197  -1.499   1.685  0.6297  2.7213  0.9467
  457MOL0     H63026   9.101  -1.635   1.748  0.8776 -0.0436 -0.7941
  457MOL0     H63027   9.226  -1.572   1.849 -2.7638  1.4202  3.4619
  457MOL0     H63028   8.580  -1.235   1.532  1.5864  0.3211  1.3487
  457MOL0     H63029   8.488  -1.220   1.315 -1.2897 -2.2787  2.9098
  457MOL0     H63030   8.435  -1.296   1.082 -1.1419  2.0000  2.0167
  457MOL0     H63031   8.478  -1.131   1.086 -0.4844  0.9548 -2.2641
  457MOL0     H63032   8.516  -1.327   0.855 -0.7297  0.1874 -0.1059
  457MOL0     H63033   8.385  -1.205   0.880  1.0378  1.1572 -0.2563
  457MOL0     H63034   8.523  -1.126   0.713 -1.2877  0.6500  1.1643
  457MOL0     H63035   8.663  -1.121   0.821  0.3981  0.1545  0.3631
  457MOL0     H63036   8.492  -0.960   0.969  1.4082  1.4826  0.5037
  457MOL0     H63037   8.404  -0.961   0.818 -0.2603 -1.8396 -1.7908
  457MOL0     H63038   8.695  -0.854   0.894 -0.7069  1.0310  0.4324
  457MOL0     H63039   8.634  -0.865   0.725 -0.4689 -0.7867 -0.4956
  457MOL0     H63040   8.495  -0.715   0.965 -1.4390 -1.7119 -0.5658
  457MOL0     H63041   8.454  -0.698   0.801 -0.1861 -3.0354 -1.7103
  457MOL0     H63042   8.669  -0.590   0.745 -0.2519  1.0707  0.0879
  457MOL0     H63043   8.739  -0.620   0.908  0.1408 -0.4140  0.3568
  457MOL0     H63044   8.642  -0.397   0.924 -0.2439  0.5885 -0.8774
  457MOL0     H63045   8.517  -0.494   0.987 -3.0048  4.0434 -0.7132
  457MOL0     H63046   8.872  -1.297   1.142 -1.2202  2.0130  0.3232
  457MOL0     H63047   8.968  -1.315   1.378 -1.2109  0.1044  1.8519
  457MOL0     H63048   8.842  -1.174   1.820 -1.0499 -0.3518  3.3564
  457MOL0     H63049   8.891  -1.139   2.045 -0.8535 -2.6776  3.0433
  457MOL0     H63050   9.218  -0.093   3.732 -1.5026 -0.9728 -3.3796
  457MOL0     H63051   9.340   0.080   3.834 -2.7969 -1.7775  0.1519
  457MOL0     H63052   9.870   0.343   3.636 -1.9685 -1.6219 -0.1356
  457MOL0     H63053   9.956   0.599   3.687 -0.6782 -0.0251 -0.7152
  457MOL0     H63054   9.669   0.829   3.945 -1.0181  1.3195 -2.1529
  457MOL0     H63055   9.815   0.913   3.986 -3.0101  3.1879  0.4958
  457MOL0     H63056   9.692   1.056   3.834  0.1438  0.5352  0.4225
  457MOL0     H63057   9.649   0.916   3.730  1.4216 -0.5453 -1.8948
  457MOL0     H63058   9.920   1.064   3.761 -2.0795  1.0397  1.7160
  457MOL0     H63059   9.889   0.936   3.643 -0.3170  1.6045 -1.3469
  457MOL0     H63060   9.698   1.178   3.642 -2.7498 -0.8200 -2.7536
  457MOL0     H63061   9.737   1.060   3.518 -3.6905  1.0508  0.8275
  457MOL0     H63062  10.039   1.302   3.418 -0.3010  0.0716  0.2070
  457MOL0     H63063   9.619   0.616   3.956 -0.3322 -0.8015 -0.5759
  457MOL0     H63064   9.452   0.379   3.920 -0.7245  0.0245  3.6666
  457MOL0     H63065   9.579   0.277   3.987 -2.4215 -1.3853 -0.5483
  457MOL0     H63066   9.554   0.439   4.055 -2.9375 -0.4611  0.6880
  458MOL0     O63067   8.080   9.870   8.824  0.2589 -0.4401  0.0697
  458MOL0     C63068   7.992   9.796   8.869 -0.4786 -0.6844  1.2702
  458MOL0     O63069   7.914   9.712   8.787 -0.9803  0.6325  0.1602
  458MOL0     C63070   7.958   9.713   8.656  0.0655  0.6208 -0.7346
  458MOL0     C63071   8.056   9.622   8.617  0.8710  0.0413 -0.2048
  458MOL0     C63072   8.093   9.613   8.481 -0.0504 -0.8327  0.5235
  458MOL0     C63073   8.030   9.701   8.381  0.3117  0.9638 -0.3231
  458MOL0     O63074   8.063   9.686   8.248  0.1552  0.4756 -0.0246
  458MOL0     C63075   7.991   9.773   8.162  0.0130  0.1773  0.4114
  458MOL0     C63076   8.025   9.726   8.017 -0.2860 -0.2787 -0.8551
  458MOL0     C63077   7.972   9.817   7.905  0.2685 -1.0222  0.2838
  458MOL0     C63078   7.813   9.795   7.900  0.7336  0.0179  0.7399
  458MOL0     C63079   7.756   9.815   7.759  0.2656  0.6577 -0.3411
  458MOL0     C63080   7.738   9.954   7.705 -1.2611 -0.2499 -0.2666
  458MOL0     C63081   7.662   9.948   7.570  0.1074  0.1871  0.0665
  458MOL0     C63082   7.750   9.873   7.465 -0.1516  0.4245 -0.0120
  458MOL0     N63083   7.718   9.904   7.329 -0.8582 -1.4014  0.2697
  458MOL0     C63084   7.803   9.966   7.244 -0.3204 -0.7755 -1.1086
  458MOL0     C63085   7.725   9.992   7.137  0.2487  0.0234 -0.6605
  458MOL0     C63086   7.771  10.072   7.014  0.9886 -0.7262 -0.7503
  458MOL0     C63087   7.654  10.174   6.970 -0.2846  0.3742  0.4326
  458MOL0     C63088   7.616  10.272   7.074  0.1291  0.4718 -0.7749
  458MOL0     C63089   7.732  10.361   7.112  0.3381 -0.5419  0.5543
  458MOL0     O63090   7.702  10.435   7.233 -0.8800 -0.2088  0.5551
  458MOL0     C63091   7.796  10.522   7.287  0.7772 -0.0901 -0.0453
  458MOL0     C63092   7.933  10.530   7.251  0.4638 -0.4525  0.5068
  458MOL0     C63093   8.024  10.620   7.318  0.9352 -0.0735 -1.0181
  458MOL0     C63094   8.171  10.609   7.293 -1.0701  0.0928 -0.4590
  458MOL0     C63095   7.970  10.691   7.429 -0.4103 -0.1922  0.0588
  458MOL0     C63096   8.042  10.792   7.509  1.4353  0.5776  0.0128
  458MOL0     O63097   8.003  10.799   7.637  0.3758 -0.3001 -0.5147
  458MOL0     C63098   8.083  10.855   7.736 -0.1499 -0.3944  0.5815
  458MOL0     C63099   8.111  10.991   7.749  0.6698 -0.7752 -0.1712
  458MOL0     C63100   8.200  11.036   7.845  0.3200  0.2585  0.0516
  458MOL0     C63101   8.251  10.952   7.942 -0.1635  0.8497  0.1200
  458MOL0     O63102   8.338  11.010   8.029 -0.5065  1.0052 -0.2724
  458MOL0     C63103   8.353  10.941   8.160 -0.1032  0.0811 -0.2822
  458MOL0     C63104   8.428  11.025   8.255 -0.6613 -0.4349  0.3580
  458MOL0     C63105   8.365  11.158   8.288 -0.5222  0.2696  0.1272
  458MOL0     C63106   8.372  11.211   8.441 -0.0366  0.0411  0.5883
  458MOL0     C63107   8.299  11.347   8.446 -0.4976 -0.6402  0.8236
  458MOL0     C63108   8.274  11.384   8.588  0.2358 -0.6808  0.5913
  458MOL0     C63109   8.161  11.303   8.650  0.1334  0.4869 -1.1584
  458MOL0     C63110   8.195  11.289   8.798  0.2947 -0.6434 -0.8138
  458MOL0    Cl63111   8.352  11.201   8.821 -0.0656  0.0718 -0.0089
  458MOL0     C63112   8.233  10.818   7.932  0.4437  0.8116 -0.1971
  458MOL0     C63113   8.151  10.770   7.829  0.5260  1.0442  0.3304
  458MOL0     O63114   8.132  10.855   7.464  0.0069  0.1815 -0.0752
  458MOL0     C63115   7.837  10.670   7.473  0.2932 -0.2341  0.9060
  458MOL0     C63116   7.752  10.584   7.402  0.2115  0.3916 -0.1467
  458MOL0     N63117   7.601   9.942   7.162  0.3637  0.5132  0.6342
  458MOL0     N63118   7.593   9.884   7.281  0.0969 -0.1700  0.6778
  458MOL0     C63119   7.931   9.792   8.432 -0.1930  0.2768 -0.1270
  458MOL0     C63120   7.894   9.790   8.567 -0.2379 -0.3508 -0.5829
  458MOL0     C63121   7.953   9.817   9.007  0.4948 -1.2012  0.7365
  458MOL0     C63122   7.949   9.947   9.062 -0.7212  0.1485  0.1219
  458MOL0     C63123   7.899   9.970   9.188 -0.0079  0.5152 -0.1229
  458MOL0     C63124   7.849   9.862   9.262  0.2409 -0.1069 -0.4305
  458MOL0     O63125   7.796   9.891   9.384 -0.3178 -0.5220  0.0606
  458MOL0     C63126   7.778   9.797   9.500  0.2267  0.5777  0.4720
  458MOL0     C63127   7.913   9.753   9.553  0.5078  1.3244 -0.8004
  458MOL0     C63128   7.886   9.639   9.659 -1.7247 -0.1485 -0.3461
  458MOL0     C63129   8.008   9.542   9.677 -0.0047  0.1434  0.2962
  458MOL0     C63130   7.995   9.443   9.793 -0.0242 -0.3588 -0.7268
  458MOL0     C63131   7.969   9.357   9.881  0.5731 -0.5667 -0.1426
  458MOL0     C63132   7.848   9.735   9.202  0.1401  0.0781  0.4042
  458MOL0     C63133   7.900   9.708   9.076  0.3866 -0.9143 -0.1342
  458MOL0     C63134   7.872   9.567   9.023  0.1752  0.1328  0.2414
  458MOL0     H63135   8.098   9.562   8.698  0.1443 -1.5334 -0.9437
  458MOL0     H63136   8.182   9.554   8.461  0.8865  1.1419 -1.4852
  458MOL0     H63137   8.018   9.878   8.181  2.5263 -0.5946  1.6359
  458MOL0     H63138   7.885   9.748   8.162  0.4573 -1.8892  1.8632
  458MOL0     H63139   8.134   9.715   8.008 -0.5245 -2.4404 -1.7628
  458MOL0     H63140   7.995   9.621   8.003  1.7878 -0.6864 -2.8741
  458MOL0     H63141   7.982   9.923   7.929  0.0998 -1.3336  1.7813
  458MOL0     H63142   8.015   9.792   7.807 -0.3276 -0.8131 -0.0367
  458MOL0     H63143   7.782   9.693   7.921 -0.8027  0.1120 -0.8127
  458MOL0     H63144   7.770   9.863   7.975 -1.1271  1.0473 -1.1492
  458MOL0     H63145   7.663   9.756   7.755  2.1149 -2.5210 -0.2595
  458MOL0     H63146   7.825   9.757   7.698  1.0709  0.3230  0.8463
  458MOL0     H63147   7.683  10.005   7.785  0.2452 -0.6738  1.0937
  458MOL0     H63148   7.828  10.015   7.694 -1.4037 -0.1326 -0.8435
  458MOL0     H63149   7.649  10.048   7.528 -1.5188 -0.4619 -1.1091
  458MOL0     H63150   7.568   9.893   7.582  0.7347 -0.9555 -0.1638
  458MOL0     H63151   7.856   9.892   7.488  0.9945 -5.0518  0.6990
  458MOL0     H63152   7.737   9.768   7.491  0.9874  0.5226  1.0859
  458MOL0     H63153   7.904   9.998   7.270  0.1781 -0.4587 -3.2090
  458MOL0     H63154   7.805  10.015   6.927  5.1055  1.0178 -0.5556
  458MOL0     H63155   7.865  10.123   7.042  3.3392 -4.8236 -0.4158
  458MOL0     H63156   7.673  10.219   6.873 -0.5256 -0.9452 -0.2442
  458MOL0     H63157   7.573  10.103   6.953  1.4306 -1.7196  0.4994
  458MOL0     H63158   7.528  10.329   7.042 -0.2378  0.6653  0.5377
  458MOL0     H63159   7.589  10.211   7.161 -2.3174  1.6590 -0.6195
  458MOL0     H63160   7.825  10.308   7.132  0.9013  0.2775  0.1689
  458MOL0     H63161   7.759  10.432   7.034 -0.2378  0.9677  1.6699
  458MOL0     H63162   7.966  10.466   7.170  1.5600 -0.4464  0.9240
  458MOL0     H63163   8.192  10.547   7.204 -0.5514 -1.6053  0.7886
  458MOL0     H63164   8.223  10.562   7.377  0.2935  0.2545 -1.1727
  458MOL0     H63165   8.211  10.709   7.276 -1.7838  0.9758  2.5232
  458MOL0     H63166   8.054  11.054   7.681  1.4942 -2.1905 -2.2713
  458MOL0     H63167   8.206  11.145   7.849 -0.8545  0.2979  1.3115
  458MOL0     H63168   8.261  10.914   8.213  0.9747  2.9584  3.4768
  458MOL0     H63169   8.423  10.857   8.146  0.9847  1.1713 -1.6895
  458MOL0     H63170   8.424  10.974   8.352  2.3268  1.2829  1.5080
  458MOL0     H63171   8.531  11.043   8.224 -1.5430  2.6016 -1.1496
  458MOL0     H63172   8.257  11.155   8.269 -1.1639 -0.8517  3.3879
  458MOL0     H63173   8.411  11.239   8.230 -0.8633  0.5925  0.2961
  458MOL0     H63174   8.475  11.226   8.475 -0.5070 -1.7657  3.0624
  458MOL0     H63175   8.325  11.140   8.509 -1.4054  1.4159  1.1370
  458MOL0     H63176   8.346  11.433   8.396 -1.6167 -1.0950 -1.1116
  458MOL0     H63177   8.211  11.342   8.381  2.2273 -1.5333 -3.1904
  458MOL0     H63178   8.247  11.490   8.587 -1.4643 -0.9448 -3.7117
  458MOL0     H63179   8.371  11.374   8.638 -0.2444 -2.0008  1.3170
  458MOL0     H63180   8.152  11.201   8.611 -1.7887 -1.1040  2.8839
  458MOL0     H63181   8.065  11.354   8.644 -0.2303  0.0214  0.3202
  458MOL0     H63182   8.108  11.236   8.838  0.9707 -0.8997  0.3998
  458MOL0     H63183   8.209  11.393   8.831  0.2474  0.1400 -3.1142
  458MOL0     H63184   8.281  10.747   7.998  4.2734  0.3506 -3.1278
  458MOL0     H63185   8.134  10.664   7.812 -0.6802  1.6771 -3.5444
  458MOL0     H63186   7.789  10.724   7.554 -1.6746 -0.4196 -0.0570
  458MOL0     H63187   7.648  10.577   7.432  0.5222  1.8614  1.3869
  458MOL0     H63188   7.878   9.858   8.364  1.3315  2.5201  0.7589
  458MOL0     H63189   7.815   9.855   8.605  1.5152  1.2453  0.5282
  458MOL0     H63190   7.989  10.032   9.007 -0.8791 -0.6852 -1.3285
  458MOL0     H63191   7.881  10.067   9.232  0.0628  0.5799 -0.2332
  458MOL0     H63192   7.729   9.835   9.590 -1.0801 -1.4193  0.6634
  458MOL0     H63193   7.712   9.727   9.449  1.1138 -0.0976  0.2209
  458MOL0     H63194   7.952   9.842   9.602 -1.1559  1.2843  0.7082
  458MOL0     H63195   7.978   9.706   9.479  0.8768  0.7068 -0.0942
  458MOL0     H63196   7.856   9.674   9.758 -0.3333 -2.2096  0.9002
  458MOL0     H63197   7.803   9.580   9.619 -0.1055 -0.5651 -3.3942
  458MOL0     H63198   8.095   9.602   9.705  0.2248  2.2458 -4.0531
  458MOL0     H63199   8.038   9.496   9.582  0.9731  0.0613  0.6272
  458MOL0     H63200   7.948   9.281   9.953  1.6472  1.3175  2.2748
  458MOL0     H63201   7.796   9.655   9.254  0.1689 -0.0631  0.2185
  458MOL0     H63202   7.818   9.506   9.096 -1.2804 -1.3662 -1.9825
  458MOL0     H63203   7.804   9.573   8.938  0.1717  1.1910  0.3025
  458MOL0     H63204   7.969   9.524   8.995 -0.1604 -0.3348 -0.2247
  459MOL0     O63205   7.481   5.658   2.171  0.3514  0.1925 -0.5502
  459MOL0     C63206   7.453   5.767   2.120  0.6102  0.2760 -0.2170
  459MOL0     O63207   7.515   5.883   2.149  0.1933 -0.4411  0.0674
  459MOL0     C63208   7.625   5.906   2.237 -0.4081 -0.3843  0.5756
  459MOL0     C63209   7.658   5.809   2.343  0.3304 -0.3728 -0.3900
  459MOL0     C63210   7.778   5.826   2.418 -0.9677  0.3896  0.2869
  459MOL0     C63211   7.853   5.943   2.410 -1.0516  0.8684 -0.0805
  459MOL0     O63212   7.969   5.963   2.479 -0.0556  0.0738 -0.2472
  459MOL0     C63213   8.014   5.879   2.583  0.1018  0.6108  0.6775
  459MOL0     C63214   8.093   5.759   2.530  0.9797 -0.3799 -0.4157
  459MOL0     C63215   8.135   5.663   2.641 -0.4654 -0.4701  0.8548
  459MOL0     C63216   8.256   5.587   2.586 -0.1327  0.4895  0.0429
  459MOL0     C63217   8.316   5.505   2.694  0.5878 -0.9425  0.1767
  459MOL0     C63218   8.375   5.383   2.641 -0.5724  1.4376  0.4979
  459MOL0     C63219   8.422   5.288   2.748 -0.4158  0.3724 -0.1436
  459MOL0     C63220   8.526   5.349   2.845 -0.0242 -0.8510 -0.5200
  459MOL0     N63221   8.493   5.341   2.993  0.1100  0.5496  0.3953
  459MOL0     C63222   8.405   5.429   3.051  1.1116 -0.0321 -0.0459
  459MOL0     C63223   8.436   5.435   3.179 -0.8757  0.0591  0.7952
  459MOL0     C63224   8.369   5.518   3.287 -0.1723  0.4000  0.3953
  459MOL0     C63225   8.471   5.535   3.410  0.2908  0.7561  0.0226
  459MOL0     C63226   8.375   5.601   3.512 -0.4719 -0.1017  0.2074
  459MOL0     C63227   8.459   5.654   3.629 -0.4004 -0.8275  0.6984
  459MOL0     O63228   8.381   5.714   3.726  0.0781 -0.9681  0.0469
  459MOL0     C63229   8.441   5.792   3.828  0.1850  0.1727 -0.0533
  459MOL0     C63230   8.580   5.806   3.856 -0.6740 -0.3334  0.4925
  459MOL0     C63231   8.630   5.879   3.960 -0.8303 -0.8280  0.2579
  459MOL0     C63232   8.783   5.908   3.964  0.5279 -0.2144 -0.1321
  459MOL0     C63233   8.540   5.931   4.058 -0.6939 -1.3195 -0.5822
  459MOL0     C63234   8.572   6.038   4.160  0.0887  0.1896 -0.9039
  459MOL0     O63235   8.467   6.111   4.204 -0.8992  0.0297 -0.3497
  459MOL0     C63236   8.460   6.245   4.221  0.4489  0.7240 -0.3415
  459MOL0     C63237   8.354   6.311   4.166  0.4878  0.0168 -0.2278
  459MOL0     C63238   8.340   6.448   4.190  0.2176 -0.2490 -1.1023
  459MOL0     C63239   8.446   6.523   4.243  0.2600  0.0765  0.1123
  459MOL0     O63240   8.449   6.657   4.255 -0.1449  0.5665 -0.8282
  459MOL0     C63241   8.323   6.728   4.264 -0.1199 -0.0769  0.3473
  459MOL0     C63242   8.353   6.881   4.272 -0.0177  0.2584  0.3927
  459MOL0     C63243   8.406   6.923   4.405  0.1154 -0.2481  0.2583
  459MOL0     C63244   8.469   7.064   4.381 -1.1131 -0.5708  0.5516
  459MOL0     C63245   8.524   7.125   4.503  0.2481  0.1544 -0.4046
  459MOL0     C63246   8.627   7.039   4.582  0.0419 -0.0227 -0.2902
  459MOL0     C63247   8.696   7.126   4.699  0.7145  0.8971  0.0856
  459MOL0     C63248   8.601   7.202   4.793  0.0888 -0.4799 -0.5424
  459MOL0    Cl63249   8.715   7.225   4.938  0.0220  0.3249  0.1174
  459MOL0     C63250   8.560   6.456   4.292 -0.1263  0.5194  0.0110
  459MOL0     C63251   8.562   6.320   4.277 -0.2886  0.2190 -0.0272
  459MOL0     O63252   8.691   6.060   4.188  0.0883 -0.1185 -0.1374
  459MOL0     C63253   8.402   5.909   4.034  0.8662 -0.5718 -0.9898
  459MOL0     C63254   8.353   5.837   3.926 -0.6504  0.7967 -0.0610
  459MOL0     N63255   8.535   5.339   3.200  0.5131 -0.5139  0.0756
  459MOL0     N63256   8.579   5.296   3.092 -0.6383  0.0704  0.0147
  459MOL0     C63257   7.804   6.051   2.331  0.0550 -0.0085  0.2698
  459MOL0     C63258   7.701   6.026   2.247 -0.4993 -0.5597 -0.2128
  459MOL0     C63259   7.333   5.786   2.029 -0.2829  0.5107 -0.5943
  459MOL0     C63260   7.363   5.838   1.908  0.2730  0.4912 -0.1314
  459MOL0     C63261   7.262   5.864   1.819 -0.2131  0.7741 -0.6162
  459MOL0     C63262   7.124   5.821   1.846  0.2643 -0.1930  0.2153
  459MOL0     O63263   7.026   5.853   1.755 -0.2801 -0.3791  0.2630
  459MOL0     C63264   6.994   5.746   1.665 -0.0228  0.9346 -0.3656
  459MOL0     C63265   6.890   5.802   1.572  0.2323  1.1536 -0.4948
  459MOL0     C63266   6.831   5.712   1.459 -0.1798  0.3726 -1.1461
  459MOL0     C63267   6.723   5.794   1.383  0.1050 -0.2232 -1.2162
  459MOL0     C63268   6.622   5.723   1.293 -0.4127 -0.6006 -0.7804
  459MOL0     C63269   6.548   5.667   1.217 -0.3127  0.1151 -0.1192
  459MOL0     C63270   7.100   5.746   1.970  0.2312 -1.1660  0.3800
  459MOL0     C63271   7.205   5.727   2.058  0.4742  0.2393 -0.5299
  459MOL0     C63272   7.171   5.688   2.205  0.3727 -0.4006 -0.1480
  459MOL0     H63273   7.621   5.707   2.349  1.3103 -1.0215 -3.3240
  459MOL0     H63274   7.805   5.737   2.474 -1.9939  0.4468  0.9062
  459MOL0     H63275   7.934   5.852   2.652  1.0363 -1.3853  1.0593
  459MOL0     H63276   8.085   5.929   2.650  2.7521 -3.1337  0.9668
  459MOL0     H63277   8.031   5.707   2.457 -0.5726 -1.8505  1.8020
  459MOL0     H63278   8.176   5.800   2.471 -0.4478  1.7025 -1.0870
  459MOL0     H63279   8.148   5.706   2.741  0.0662 -2.8109  1.8579
  459MOL0     H63280   8.055   5.588   2.642 -0.9061 -0.3024 -3.5131
  459MOL0     H63281   8.228   5.514   2.509  2.3410 -1.1599  0.5736
  459MOL0     H63282   8.332   5.650   2.539 -0.2868 -0.2414 -1.2277
  459MOL0     H63283   8.234   5.487   2.764  1.7564 -0.5220  1.7416
  459MOL0     H63284   8.384   5.576   2.742 -1.6960  1.8055 -0.4128
  459MOL0     H63285   8.324   5.329   2.560  1.7253 -0.0895 -0.0306
  459MOL0     H63286   8.463   5.417   2.587 -0.1311 -2.2129 -1.4122
  459MOL0     H63287   8.469   5.199   2.707  2.2338  0.0110  3.1972
  459MOL0     H63288   8.335   5.252   2.803 -0.4596 -0.0767 -0.5092
  459MOL0     H63289   8.626   5.308   2.828  0.3001 -0.1414 -0.3818
  459MOL0     H63290   8.541   5.457   2.832 -2.4823 -0.5517 -1.2872
  459MOL0     H63291   8.319   5.480   3.008  1.4961  0.1452 -0.6100
  459MOL0     H63292   8.280   5.456   3.303 -0.1027  0.0444 -0.5636
  459MOL0     H63293   8.323   5.609   3.247 -0.8831  0.2570  0.8716
  459MOL0     H63294   8.510   5.439   3.444 -2.2523 -0.6866 -0.8409
  459MOL0     H63295   8.554   5.597   3.376 -1.7522  2.4556 -2.1609
  459MOL0     H63296   8.328   5.689   3.466  0.6050  1.6253  2.2889
  459MOL0     H63297   8.296   5.529   3.538  0.2955 -0.5248  1.4394
  459MOL0     H63298   8.510   5.574   3.683 -0.5199  0.1461  2.2987
  459MOL0     H63299   8.535   5.722   3.589  1.3653 -2.0370  1.8602
  459MOL0     H63300   8.652   5.776   3.780 -0.6064  2.7648 -0.8320
  459MOL0     H63301   8.826   5.837   3.893 -0.8267 -1.1440 -0.0588
  459MOL0     H63302   8.842   5.891   4.054  2.4513  3.1461 -0.5962
  459MOL0     H63303   8.811   6.012   3.943  0.5496 -0.5235 -1.7529
  459MOL0     H63304   8.274   6.266   4.109  0.0369 -4.4459  3.3469
  459MOL0     H63305   8.252   6.502   4.158 -0.5727 -0.5344  0.5256
  459MOL0     H63306   8.250   6.704   4.187 -0.4353  2.1521 -0.1251
  459MOL0     H63307   8.283   6.701   4.362 -0.6155 -1.4372 -0.2034
  459MOL0     H63308   8.420   6.910   4.190  0.0265  2.7926  1.2564
  459MOL0     H63309   8.253   6.925   4.263 -0.8589 -1.6855 -0.3722
  459MOL0     H63310   8.479   6.852   4.446  1.5268  1.4128  0.7499
  459MOL0     H63311   8.322   6.938   4.473  0.4730  1.6326  0.3325
  459MOL0     H63312   8.392   7.135   4.352  1.1426  1.3311 -1.1209
  459MOL0     H63313   8.548   7.058   4.306  1.0410 -2.1295  2.7744
  459MOL0     H63314   8.572   7.220   4.481 -1.4826  0.8181 -1.5251
  459MOL0     H63315   8.443   7.134   4.577 -1.1737 -0.5816 -1.7957
  459MOL0     H63316   8.697   7.003   4.506 -0.0756  3.9812 -2.6109
  459MOL0     H63317   8.580   6.954   4.630  2.4881 -0.4361  1.5838
  459MOL0     H63318   8.774   7.191   4.659  1.1699  0.4996  0.3296
  459MOL0     H63319   8.751   7.051   4.756  1.7502  1.4903 -0.1129
  459MOL0     H63320   8.508   7.152   4.823 -0.0617  0.1392  0.0298
  459MOL0     H63321   8.581   7.299   4.746  1.4841  0.0784 -0.0425
  459MOL0     H63322   8.642   6.510   4.338  0.0270 -2.6513  4.0527
  459MOL0     H63323   8.646   6.266   4.319  1.2040  3.7762  2.0172
  459MOL0     H63324   8.333   5.950   4.107  1.2886 -0.2481 -0.7662
  459MOL0     H63325   8.250   5.807   3.913  0.3307 -3.3867  0.3018
  459MOL0     H63326   7.861   6.143   2.321  2.0256 -1.0548  1.1839
  459MOL0     H63327   7.679   6.118   2.194 -0.0080  0.7119  1.6964
  459MOL0     H63328   7.463   5.879   1.893 -0.7743  3.6955  0.8411
  459MOL0     H63329   7.282   5.929   1.734 -1.4583  1.4955 -0.3708
  459MOL0     H63330   7.058   5.699   1.590 -1.0362  0.1702 -0.7860
  459MOL0     H63331   6.962   5.655   1.716  3.2710 -0.0154  0.2453
  459MOL0     H63332   6.936   5.891   1.528  3.8723 -1.6899 -3.0871
  459MOL0     H63333   6.815   5.826   1.647 -0.1966 -0.6845 -0.3031
  459MOL0     H63334   6.910   5.687   1.387  0.3367  3.0668 -1.6201
  459MOL0     H63335   6.789   5.618   1.496  0.8192  0.3366  0.0060
  459MOL0     H63336   6.786   5.858   1.320  4.1432  0.3627  2.8826
  459MOL0     H63337   6.673   5.855   1.459  2.8833  0.0439  0.5369
  459MOL0     H63338   6.492   5.596   1.159  1.7312 -2.5948  1.0232
  459MOL0     H63339   7.002   5.713   2.004  0.2166 -2.2568 -0.6530
  459MOL0     H63340   7.077   5.733   2.239  0.6756 -0.0989  0.2958
  459MOL0     H63341   7.158   5.580   2.218 -5.2953  0.1996  1.9476
  459MOL0     H63342   7.237   5.727   2.283  1.0053 -1.5739 -0.0847
  460MOL0     O63343   6.859   8.336   5.257  0.7678  0.2286 -0.5753
  460MOL0     C63344   6.817   8.425   5.331 -0.2828 -0.0209 -0.0751
  460MOL0     O63345   6.802   8.553   5.289  0.1246  0.5667 -0.2145
  460MOL0     C63346   6.889   8.605   5.198 -0.5699 -0.4925  0.3890
  460MOL0     C63347   7.023   8.569   5.180 -0.8767 -0.0618 -0.7414
  460MOL0     C63348   7.116   8.625   5.095  0.3055  0.5784  0.8321
  460MOL0     C63349   7.068   8.724   5.006  0.0556  0.9547  0.6505
  460MOL0     O63350   7.148   8.790   4.915  0.8206 -0.0410  0.1587
  460MOL0     C63351   7.208   8.703   4.816 -0.0966  0.5935  0.5172
  460MOL0     C63352   7.339   8.766   4.752 -0.1798 -0.1986  0.6541
  460MOL0     C63353   7.366   8.688   4.621  0.1462 -0.6272  0.0671
  460MOL0     C63354   7.434   8.556   4.655 -0.7204 -0.2832 -0.2621
  460MOL0     C63355   7.588   8.557   4.621  0.0458  0.5878  0.2788
  460MOL0     C63356   7.647   8.419   4.620 -0.2805 -0.0510  0.4485
  460MOL0     C63357   7.586   8.315   4.527  0.6789 -0.2819 -0.7221
  460MOL0     C63358   7.676   8.200   4.482 -0.3251 -0.1340 -0.3529
  460MOL0     N63359   7.759   8.240   4.371 -0.4886 -0.2969 -0.2053
  460MOL0     C63360   7.875   8.171   4.338 -0.0891 -0.3467 -0.1136
  460MOL0     C63361   7.921   8.202   4.212  1.2155  0.8442 -0.0558
  460MOL0     C63362   8.029   8.132   4.131  0.9981  0.4642  0.0740
  460MOL0     C63363   8.159   8.105   4.213 -0.1075  0.6376  0.5998
  460MOL0     C63364   8.254   8.005   4.144 -0.0208  0.9606 -0.4071
  460MOL0     C63365   8.194   7.863   4.144 -1.1669  0.1127  0.3411
  460MOL0     O63366   8.285   7.775   4.082 -0.3836 -0.4552  0.3496
  460MOL0     C63367   8.264   7.639   4.089 -0.0687 -0.7739  0.0806
  460MOL0     C63368   8.151   7.589   4.149  0.1771 -1.5300  0.5215
  460MOL0     C63369   8.129   7.456   4.144 -0.4723 -0.1000  0.3369
  460MOL0     C63370   8.003   7.395   4.196 -0.5451 -0.8421 -0.3912
  460MOL0     C63371   8.226   7.367   4.088 -0.8464  0.5482 -0.5914
  460MOL0     C63372   8.222   7.217   4.080  0.0901 -0.2115 -0.0461
  460MOL0     O63373   8.289   7.164   3.978  0.4409  0.0471 -0.7112
  460MOL0     C63374   8.285   7.029   3.946  0.2305 -0.3498 -0.7608
  460MOL0     C63375   8.392   6.983   3.875 -0.3519  0.0111  0.8257
  460MOL0     C63376   8.396   6.856   3.818  0.1093 -0.5144  0.4369
  460MOL0     C63377   8.278   6.781   3.818 -0.4715 -0.1855 -0.5292
  460MOL0     O63378   8.281   6.650   3.769 -0.4589  0.3381  0.1336
  460MOL0     C63379   8.281   6.546   3.862  0.8696 -0.0146  0.3658
  460MOL0     C63380   8.335   6.412   3.807  0.0980  0.0646 -0.1548
  460MOL0     C63381   8.492   6.388   3.829  0.1243 -0.1023 -1.1087
  460MOL0     C63382   8.580   6.454   3.736 -0.5251 -0.2856  1.1025
  460MOL0     C63383   8.728   6.452   3.762 -1.0677  0.2523 -0.0508
  460MOL0     C63384   8.772   6.491   3.913 -0.3172 -0.3403 -0.4316
  460MOL0     C63385   8.755   6.638   3.940 -0.1539  0.2943 -0.5127
  460MOL0     C63386   8.817   6.672   4.077  0.5081 -0.4965 -0.2087
  460MOL0    Cl63387   8.752   6.843   4.123  0.0833  0.0760  0.0641
  460MOL0     C63388   8.167   6.824   3.890  0.3922 -0.3829  0.1839
  460MOL0     C63389   8.169   6.944   3.963 -0.1372  0.2290 -0.2226
  460MOL0     O63390   8.163   7.153   4.165  0.1328 -0.3237 -0.2446
  460MOL0     C63391   8.342   7.424   4.026 -0.1612 -0.0840  0.3633
  460MOL0     C63392   8.358   7.561   4.030 -0.0740  0.7256  0.2837
  460MOL0     N63393   7.822   8.294   4.171 -0.2315 -0.2958 -0.2347
  460MOL0     N63394   7.722   8.313   4.259  0.9538 -0.4644  0.3127
  460MOL0     C63395   6.933   8.773   5.024  0.1507  0.3105  0.5168
  460MOL0     C63396   6.847   8.713   5.119  0.2560  0.1079  1.1282
  460MOL0     C63397   6.774   8.369   5.464 -0.1322 -0.5983 -0.2338
  460MOL0     C63398   6.686   8.265   5.469  0.7454  0.1898  1.1051
  460MOL0     C63399   6.637   8.213   5.587 -0.2669  0.4658 -0.1453
  460MOL0     C63400   6.685   8.268   5.708  0.3777 -0.3914  0.8047
  460MOL0     O63401   6.644   8.209   5.824 -0.0921 -0.5022  0.3387
  460MOL0     C63402   6.668   8.269   5.946 -0.3475  0.0099 -0.2702
  460MOL0     C63403   6.590   8.196   6.056  0.9839  0.7437  0.7894
  460MOL0     C63404   6.564   8.040   6.044 -1.0067  0.1313  0.2155
  460MOL0     C63405   6.502   7.971   6.173 -0.5075  0.8049  0.0201
  460MOL0     C63406   6.368   8.018   6.195  0.8603  0.2947  0.4213
  460MOL0     C63407   6.253   8.063   6.205  0.1993  0.3726  1.0163
  460MOL0     C63408   6.783   8.368   5.707 -0.1687  0.0059 -0.4879
  460MOL0     C63409   6.816   8.421   5.584 -0.3341  0.4974 -0.1900
  460MOL0     C63410   6.908   8.535   5.593 -0.6668  0.6275 -0.4940
  460MOL0     H63411   7.065   8.502   5.255  0.6937 -0.5440 -1.9840
  460MOL0     H63412   7.217   8.586   5.091  0.0310 -0.2559  1.7099
  460MOL0     H63413   7.134   8.687   4.738 -0.9696  1.2710  1.1882
  460MOL0     H63414   7.226   8.606   4.863  2.0017 -1.0771 -3.2873
  460MOL0     H63415   7.328   8.873   4.730 -0.0053 -0.5987 -1.5478
  460MOL0     H63416   7.421   8.753   4.823  0.5764 -0.8612 -0.3144
  460MOL0     H63417   7.268   8.667   4.576 -0.8943  2.0837  0.8434
  460MOL0     H63418   7.425   8.740   4.545 -0.1532 -0.6827 -0.2068
  460MOL0     H63419   7.415   8.516   4.755  2.1200 -0.6155  0.2553
  460MOL0     H63420   7.388   8.486   4.585  1.6438 -1.5645 -0.6710
  460MOL0     H63421   7.662   8.608   4.682  1.3712 -1.0463  0.0962
  460MOL0     H63422   7.597   8.587   4.516 -0.1235  4.1022  1.1293
  460MOL0     H63423   7.754   8.429   4.598  0.1855 -1.1839  2.0468
  460MOL0     H63424   7.663   8.387   4.723  2.6950  0.0032  0.1073
  460MOL0     H63425   7.536   8.360   4.441 -2.2148 -2.9397 -0.6463
  460MOL0     H63426   7.513   8.263   4.590 -0.9053  0.9683 -1.4569
  460MOL0     H63427   7.742   8.174   4.565  2.1207  1.0196 -1.8219
  460MOL0     H63428   7.622   8.108   4.455 -1.2211 -0.3706  1.9951
  460MOL0     H63429   7.913   8.092   4.402  0.3795 -1.5821 -1.8268
  460MOL0     H63430   8.053   8.204   4.053  2.0640 -1.6723 -1.6648
  460MOL0     H63431   7.990   8.042   4.085  2.7589 -0.4173  0.2169
  460MOL0     H63432   8.222   8.194   4.225  1.9376 -0.8688  2.0843
  460MOL0     H63433   8.142   8.080   4.319  0.6408 -0.9071  0.3979
  460MOL0     H63434   8.282   8.039   4.044 -1.3216 -1.0072 -1.5104
  460MOL0     H63435   8.347   7.998   4.201 -1.1251 -1.6912  1.2827
  460MOL0     H63436   8.178   7.821   4.243  1.4486 -2.2830 -0.1074
  460MOL0     H63437   8.107   7.855   4.079 -0.5665 -1.0055 -0.3491
  460MOL0     H63438   8.069   7.649   4.186 -1.6320 -2.6859 -1.3479
  460MOL0     H63439   7.963   7.312   4.137  2.0218 -0.8982 -2.2180
  460MOL0     H63440   7.924   7.469   4.212 -0.2119 -0.6392  0.3768
  460MOL0     H63441   8.028   7.344   4.290  3.1851 -0.9275 -1.3084
  460MOL0     H63442   8.468   7.059   3.859  0.4731 -0.8866  0.3858
  460MOL0     H63443   8.483   6.810   3.773 -0.1093 -1.4707  0.9640
  460MOL0     H63444   8.331   6.570   3.957  1.1947  1.1654 -0.0904
  460MOL0     H63445   8.174   6.541   3.885  0.8232 -2.2489 -0.1745
  460MOL0     H63446   8.287   6.327   3.857 -2.9707  0.1197 -2.6879
  460MOL0     H63447   8.314   6.408   3.699  0.1253  1.0504 -0.2053
  460MOL0     H63448   8.506   6.283   3.804  2.6375  0.6447 -3.3530
  460MOL0     H63449   8.517   6.413   3.932 -2.2425  1.7413 -0.9039
  460MOL0     H63450   8.554   6.560   3.749  1.8832  0.6239 -0.6289
  460MOL0     H63451   8.572   6.431   3.629  0.5618  1.1057  0.6789
  460MOL0     H63452   8.749   6.347   3.738 -0.2284  0.6672 -1.2522
  460MOL0     H63453   8.791   6.514   3.698  0.0718  1.3156  2.0000
  460MOL0     H63454   8.878   6.465   3.913 -0.4382 -0.8668 -0.1486
  460MOL0     H63455   8.723   6.426   3.987 -1.1703 -0.6045 -1.1988
  460MOL0     H63456   8.650   6.668   3.945 -0.0240  0.5525  1.0032
  460MOL0     H63457   8.807   6.707   3.873 -0.3487  3.2665  2.1496
  460MOL0     H63458   8.926   6.659   4.075  0.6215  0.4416 -0.7164
  460MOL0     H63459   8.771   6.603   4.149  0.9186  1.1728  1.7583
  460MOL0     H63460   8.074   6.768   3.894 -0.1567  0.5283  2.5007
  460MOL0     H63461   8.082   6.962   4.026 -0.9311 -1.0893 -0.9243
  460MOL0     H63462   8.419   7.365   3.978  1.9349  1.1916  1.9649
  460MOL0     H63463   8.449   7.599   3.985  0.4090  2.6816  2.6935
  460MOL0     H63464   6.893   8.844   4.954 -0.5725  0.4332  1.0504
  460MOL0     H63465   6.749   8.754   5.139  0.1181 -0.8358  2.6028
  460MOL0     H63466   6.660   8.213   5.377 -0.1492  1.5368  0.5688
  460MOL0     H63467   6.554   8.144   5.599  0.7583 -0.3104  3.5975
  460MOL0     H63468   6.773   8.269   5.976 -0.5217  1.6920  0.4519
  460MOL0     H63469   6.636   8.374   5.947  0.9135  0.4027  0.0795
  460MOL0     H63470   6.497   8.252   6.069  1.2930  1.1792  1.1441
  460MOL0     H63471   6.639   8.217   6.151  2.2128 -0.4503  0.4582
  460MOL0     H63472   6.495   8.021   5.961 -3.1350 -1.0984  2.1486
  460MOL0     H63473   6.657   7.985   6.028 -0.5866  1.1071 -0.8126
  460MOL0     H63474   6.559   8.004   6.261 -0.2342  0.9976 -0.2304
  460MOL0     H63475   6.500   7.863   6.156  4.1554  0.6415 -0.6835
  460MOL0     H63476   6.152   8.093   6.220  0.6566  1.6898  1.5988
  460MOL0     H63477   6.830   8.406   5.797 -0.6833 -0.2360 -0.1122
  460MOL0     H63478   6.917   8.592   5.499 -2.7801  2.8099  0.5163
  460MOL0     H63479   6.875   8.608   5.668 -0.5605 -1.3796  1.5971
  460MOL0     H63480   7.013   8.504   5.603  0.0419  1.9710 -2.8024
  461MOL0     O63481   7.376  10.187   1.986 -0.5249  0.3757 -0.1685
  461MOL0     C63482   7.313  10.285   2.026 -0.2037  0.1566 -0.8619
  461MOL0     O63483   7.233  10.291   2.136 -0.5456  0.9076 -0.3798
  461MOL0     C63484   7.239  10.175   2.220 -0.2219  0.5643 -1.0820
  461MOL0     C63485   7.163  10.051   2.194 -0.1314 -0.2146  0.0989
  461MOL0     C63486   7.174   9.937   2.269  0.1372 -0.6958 -0.4817
  461MOL0     C63487   7.257   9.936   2.382  0.3979  0.6595  0.2410
  461MOL0     O63488   7.275   9.823   2.456 -0.0363 -0.3550  0.8217
  461MOL0     C63489   7.416   9.771   2.451  0.5348  0.1045  0.0190
  461MOL0     C63490   7.419   9.638   2.512 -0.1950 -0.9660 -0.5816
  461MOL0     C63491   7.402   9.646   2.669  0.4016  0.4599  0.2595
  461MOL0     C63492   7.531   9.711   2.726  0.0526 -0.3154 -0.3864
  461MOL0     C63493   7.489   9.832   2.819  0.1501  0.5780  0.2568
  461MOL0     C63494   7.606   9.920   2.857  0.8974 -1.0605  0.5759
  461MOL0     C63495   7.556  10.062   2.903  0.3023 -0.1440 -0.5973
  461MOL0     C63496   7.460  10.051   3.022 -0.3232  0.1985 -0.2891
  461MOL0     N63497   7.420  10.193   3.050  0.0841  0.3527 -0.6935
  461MOL0     C63498   7.498  10.285   3.103 -0.2547  0.0397  0.0621
  461MOL0     C63499   7.426  10.404   3.114 -1.5521  0.1342 -0.1038
  461MOL0     C63500   7.470  10.538   3.181 -0.0672  0.2948  1.0901
  461MOL0     C63501   7.353  10.634   3.179 -0.7179 -0.5671  0.1335
  461MOL0     C63502   7.238  10.603   3.277 -0.2502  0.3637 -0.3268
  461MOL0     C63503   7.098  10.645   3.231 -0.7841 -0.7339  0.8363
  461MOL0     O63504   7.108  10.789   3.235 -0.3652  0.1377 -0.8453
  461MOL0     C63505   6.993  10.856   3.202 -0.3530 -0.0900 -0.0132
  461MOL0     C63506   6.866  10.804   3.182  0.0404 -0.4462 -0.0281
  461MOL0     C63507   6.754  10.879   3.136  0.0838  0.2546 -0.8364
  461MOL0     C63508   6.615  10.811   3.124 -0.2025 -0.4308  0.4259
  461MOL0     C63509   6.772  11.017   3.112 -0.8243 -0.5153  0.0116
  461MOL0     C63510   6.657  11.101   3.052  0.5567 -0.1846 -1.0905
  461MOL0     O63511   6.631  11.221   3.122  0.2726  1.3541 -0.3798
  461MOL0     C63512   6.643  11.346   3.075 -0.1786 -0.5187  0.1800
  461MOL0     C63513   6.637  11.458   3.165  0.6658 -0.2868  0.5002
  461MOL0     C63514   6.655  11.585   3.103 -0.7789 -0.5480  0.0253
  461MOL0     C63515   6.687  11.605   2.968 -0.4578  0.3412  0.9820
  461MOL0     O63516   6.719  11.738   2.928  0.5158  0.3392  0.4299
  461MOL0     C63517   6.663  11.780   2.801 -0.1044 -0.0160  0.5191
  461MOL0     C63518   6.567  11.895   2.814 -0.4949 -0.2385 -1.1326
  461MOL0     C63519   6.624  12.033   2.863  0.1949 -0.0554  0.0474
  461MOL0     C63520   6.624  12.042   3.017 -0.0059 -0.7026 -0.3202
  461MOL0     C63521   6.688  12.178   3.071 -0.2756  0.3202 -1.0512
  461MOL0     C63522   6.828  12.215   3.015  0.3838 -0.5590 -0.1500
  461MOL0     C63523   6.937  12.096   3.043 -0.2886 -0.9158 -0.4302
  461MOL0     C63524   6.939  12.035   3.192 -0.4323 -0.1376 -0.5415
  461MOL0    Cl63525   7.003  12.157   3.297 -0.3240  0.5781  0.2923
  461MOL0     C63526   6.706  11.490   2.886  0.3010  0.1634  1.0519
  461MOL0     C63527   6.676  11.362   2.937  1.7350  0.5227  0.2848
  461MOL0     O63528   6.591  11.063   2.961  0.1567  0.3961 -0.3658
  461MOL0     C63529   6.904  11.072   3.120 -0.0407 -0.5256  0.2848
  461MOL0     C63530   7.009  10.992   3.163  0.1613  0.5473 -0.5154
  461MOL0     N63531   7.293  10.377   3.085 -0.5936 -1.1511  0.5139
  461MOL0     N63532   7.296  10.249   3.043  0.5190 -0.2699 -0.8888
  461MOL0     C63533   7.331  10.050   2.412 -0.1059  0.3896  0.7524
  461MOL0     C63534   7.327  10.169   2.332  0.4712 -0.7336 -0.0944
  461MOL0     C63535   7.358  10.414   1.977 -0.6652  0.1173 -0.0844
  461MOL0     C63536   7.356  10.527   2.065  1.3373  1.1996 -0.3974
  461MOL0     C63537   7.384  10.657   2.025 -0.1261  0.8864  0.2378
  461MOL0     C63538   7.418  10.675   1.893 -0.2949 -0.9986  0.2524
  461MOL0     O63539   7.442  10.802   1.836 -1.0695  0.0625 -0.6642
  461MOL0     C63540   7.533  10.887   1.907 -0.2633 -0.3723 -0.8347
  461MOL0     C63541   7.644  10.900   1.808  0.4071 -0.6615  0.3646
  461MOL0     C63542   7.761  10.976   1.862 -0.7309 -0.1493 -0.1879
  461MOL0     C63543   7.734  11.125   1.903  0.5882 -0.7461 -0.6101
  461MOL0     C63544   7.859  11.189   1.952  0.9550 -0.5328  0.2227
  461MOL0     C63545   7.958  11.257   1.989  0.3874  0.1336 -0.6733
  461MOL0     C63546   7.433  10.566   1.806 -0.9512 -0.2410  0.1689
  461MOL0     C63547   7.408  10.435   1.840 -0.0535 -0.1753  0.0120
  461MOL0     C63548   7.397  10.332   1.722 -0.8069  0.5675  0.4958
  461MOL0     H63549   7.097  10.059   2.109 -0.8809 -1.0246  0.5936
  461MOL0     H63550   7.116   9.846   2.255 -0.7094 -0.2307 -0.0567
  461MOL0     H63551   7.481   9.842   2.503 -1.9500  3.1197 -0.7038
  461MOL0     H63552   7.445   9.763   2.346  2.4931  1.3150  0.4167
  461MOL0     H63553   7.345   9.571   2.467  0.2196 -0.3608 -2.2049
  461MOL0     H63554   7.512   9.590   2.479  1.4376  1.6736 -0.0791
  461MOL0     H63555   7.309   9.701   2.685  1.2937  2.3615 -0.6857
  461MOL0     H63556   7.387   9.545   2.708  0.1984  1.4477  2.9670
  461MOL0     H63557   7.574   9.637   2.795 -0.6733 -0.1488  0.2723
  461MOL0     H63558   7.596   9.743   2.645 -0.0276 -0.0663 -0.3524
  461MOL0     H63559   7.440   9.797   2.910  0.9364  1.3635  0.9985
  461MOL0     H63560   7.431   9.891   2.747  0.1422  0.7851  0.4306
  461MOL0     H63561   7.672   9.878   2.934  3.3043 -0.0809 -0.8690
  461MOL0     H63562   7.672   9.940   2.773 -0.5160  1.1833 -0.0959
  461MOL0     H63563   7.502  10.105   2.818 -0.7872 -1.1182 -0.4171
  461MOL0     H63564   7.641  10.124   2.934  0.5192 -0.6833 -0.0956
  461MOL0     H63565   7.380   9.984   2.990 -0.3066  0.8608 -1.7981
  461MOL0     H63566   7.509  10.008   3.110 -1.3258 -2.9143 -1.0902
  461MOL0     H63567   7.605  10.268   3.113 -0.3029 -1.2300 -1.2916
  461MOL0     H63568   7.551  10.575   3.117  0.4439  0.8365  2.0266
  461MOL0     H63569   7.511  10.534   3.283 -0.5917  1.2076  1.3477
  461MOL0     H63570   7.397  10.728   3.213  2.1907 -1.9533  0.5763
  461MOL0     H63571   7.312  10.646   3.078 -1.8811  0.5098  0.7104
  461MOL0     H63572   7.245  10.499   3.308 -1.6570  0.8346  1.7730
  461MOL0     H63573   7.262  10.653   3.372  0.6452 -2.9244  1.3091
  461MOL0     H63574   7.079  10.613   3.128 -0.0794  1.4449 -0.0134
  461MOL0     H63575   7.032  10.599   3.306  4.5595 -3.2330  4.6955
  461MOL0     H63576   6.848  10.698   3.200  1.7787 -0.5649  1.2554
  461MOL0     H63577   6.607  10.717   3.179 -2.3770 -1.0685 -0.8838
  461MOL0     H63578   6.601  10.791   3.017 -0.1885 -0.9194  0.5109
  461MOL0     H63579   6.531  10.875   3.150  1.1917  2.3140 -1.3262
  461MOL0     H63580   6.623  11.449   3.272  1.4190 -1.1192  0.5319
  461MOL0     H63581   6.656  11.662   3.180  0.7687 -2.3835  1.9512
  461MOL0     H63582   6.737  11.813   2.727  1.1742 -2.6909  0.4806
  461MOL0     H63583   6.620  11.688   2.761  2.6712 -1.7778  1.3069
  461MOL0     H63584   6.520  11.913   2.716 -2.4441  0.1675 -0.1825
  461MOL0     H63585   6.491  11.857   2.883 -0.1656  1.3571  0.1469
  461MOL0     H63586   6.569  12.114   2.814 -0.6105  1.4311  3.1823
  461MOL0     H63587   6.728  12.040   2.827 -0.0383 -0.2151 -0.6764
  461MOL0     H63588   6.683  11.963   3.064 -0.3047  0.8656  3.0291
  461MOL0     H63589   6.525  12.032   3.063 -0.0977 -2.1484 -0.7801
  461MOL0     H63590   6.618  12.254   3.037 -1.7022  0.0896  1.1716
  461MOL0     H63591   6.689  12.176   3.181 -2.4193 -0.8848 -0.9975
  461MOL0     H63592   6.842  12.308   3.070 -3.3649  0.8652 -1.2948
  461MOL0     H63593   6.821  12.242   2.909  1.3177  0.7109  0.0791
  461MOL0     H63594   7.038  12.133   3.021  0.4316 -1.9484  1.0075
  461MOL0     H63595   6.906  12.016   2.976  1.0700 -0.2423 -1.9153
  461MOL0     H63596   6.998  11.943   3.198 -2.1879 -1.2292  2.1580
  461MOL0     H63597   6.841  12.003   3.229  0.1602 -0.0026  1.2742
  461MOL0     H63598   6.753  11.493   2.788  1.9582 -0.0348  1.8130
  461MOL0     H63599   6.676  11.270   2.880  2.1304  0.3022  0.6372
  461MOL0     H63600   6.934  11.171   3.085  1.0567 -1.7099 -2.3881
  461MOL0     H63601   7.105  11.041   3.175  0.8504 -0.1286 -2.8057
  461MOL0     H63602   7.405  10.049   2.491  0.8039  1.6391 -0.0507
  461MOL0     H63603   7.395  10.246   2.366 -3.5563  2.1370  2.2496
  461MOL0     H63604   7.342  10.528   2.172 -2.8899  0.4864 -0.7770
  461MOL0     H63605   7.396  10.746   2.086  1.2397  1.7787 -1.2632
  461MOL0     H63606   7.485  10.978   1.946 -0.3477 -0.1816 -1.3855
  461MOL0     H63607   7.567  10.838   1.999  0.8210 -0.2916 -1.1889
  461MOL0     H63608   7.599  10.937   1.715 -0.4633  0.0879  1.0656
  461MOL0     H63609   7.668  10.796   1.786  1.4468 -0.3703  0.0749
  461MOL0     H63610   7.817  10.940   1.949  0.1922 -0.6753 -0.9789
  461MOL0     H63611   7.844  10.975   1.790  0.0916 -0.5319  0.7397
  461MOL0     H63612   7.655  11.127   1.979 -0.0197 -1.9169 -1.1904
  461MOL0     H63613   7.687  11.176   1.818 -1.2604 -0.6123  0.4354
  461MOL0     H63614   8.042  11.310   2.029 -0.3937  0.3372  0.7554
  461MOL0     H63615   7.472  10.595   1.709  0.8360  5.4199  2.1753
  461MOL0     H63616   7.498  10.329   1.678 -0.0601 -0.9947  2.1769
  461MOL0     H63617   7.370  10.229   1.747  1.6097 -0.3049 -0.1755
  461MOL0     H63618   7.324  10.367   1.648  1.1908 -1.6074 -2.7840
  462MOL0     O63619   4.720   8.631   3.537  0.1436 -0.4713 -0.3704
  462MOL0     C63620   4.598   8.646   3.560 -1.2205 -0.8430  0.1350
  462MOL0     O63621   4.525   8.637   3.675 -0.9032  0.4884  0.7243
  462MOL0     C63622   4.608   8.577   3.772 -0.9900  0.1620  0.7601
  462MOL0     C63623   4.625   8.646   3.885  0.7679 -0.1316 -0.4572
  462MOL0     C63624   4.677   8.588   3.999  0.0533 -0.4531 -0.1087
  462MOL0     C63625   4.754   8.467   3.992 -0.2379 -0.9013  0.1278
  462MOL0     O63626   4.828   8.434   4.105 -0.1806  0.4843  0.9431
  462MOL0     C63627   4.944   8.366   4.090 -0.9722  0.0730  0.0625
  462MOL0     C63628   5.028   8.382   4.222  0.4257 -0.4803 -0.8476
  462MOL0     C63629   5.168   8.319   4.203 -0.5095 -0.2988  0.3067
  462MOL0     C63630   5.240   8.329   4.335 -0.9134 -0.2388 -0.7487
  462MOL0     C63631   5.393   8.282   4.320 -0.0952  0.8875 -0.4680
  462MOL0     C63632   5.455   8.270   4.461 -0.2952  1.5215 -0.8105
  462MOL0     C63633   5.585   8.198   4.447 -0.6594  0.3339 -0.2673
  462MOL0     C63634   5.668   8.190   4.571 -0.2110 -0.4123 -0.9802
  462MOL0     N63635   5.738   8.058   4.583 -0.3243 -1.3699  0.4919
  462MOL0     C63636   5.874   8.040   4.555  0.4345 -0.3811  0.1075
  462MOL0     C63637   5.894   7.905   4.538  0.6277  0.4281 -0.0233
  462MOL0     C63638   6.028   7.842   4.495  0.2985  0.4772  0.3030
  462MOL0     C63639   6.010   7.767   4.362 -0.4937  0.4066  0.2353
  462MOL0     C63640   6.153   7.723   4.306 -0.3331  0.6164 -0.7502
  462MOL0     C63641   6.139   7.640   4.178  0.1362  0.0328  0.4046
  462MOL0     O63642   6.098   7.513   4.199  0.0874  0.2063 -0.0026
  462MOL0     C63643   6.190   7.417   4.206 -0.0399  0.7106  0.3257
  462MOL0     C63644   6.266   7.394   4.090 -0.8756  0.6543  0.3483
  462MOL0     C63645   6.373   7.308   4.088  0.0910  0.0406 -0.4491
  462MOL0     C63646   6.451   7.315   3.962 -0.0814  0.1635 -0.2079
  462MOL0     C63647   6.392   7.212   4.196 -1.2032 -0.4915  0.1264
  462MOL0     C63648   6.507   7.121   4.211 -0.6960  0.1673 -0.2457
  462MOL0     O63649   6.480   6.994   4.248  0.0572 -0.2025  0.1629
  462MOL0     C63650   6.578   6.907   4.269  0.4904 -0.5723 -1.2353
  462MOL0     C63651   6.630   6.822   4.171  0.2073 -0.1799  0.1431
  462MOL0     C63652   6.745   6.742   4.203 -0.0967  0.1653 -0.2356
  462MOL0     C63653   6.799   6.739   4.333 -0.3105  0.7619 -0.0746
  462MOL0     O63654   6.904   6.667   4.378 -0.3700 -0.6769 -1.0937
  462MOL0     C63655   6.981   6.594   4.284  0.6239  0.5446  0.0122
  462MOL0     C63656   7.103   6.526   4.348  0.0788  0.7655 -0.2752
  462MOL0     C63657   7.205   6.494   4.234  0.1741 -0.5560  0.6626
  462MOL0     C63658   7.307   6.387   4.271  0.1318 -0.5610  0.6670
  462MOL0     C63659   7.420   6.377   4.172  0.4299 -0.7277 -0.2903
  462MOL0     C63660   7.372   6.278   4.067  0.3896 -0.2819 -0.0883
  462MOL0     C63661   7.476   6.260   3.960  0.3136 -1.1261 -0.7332
  462MOL0     C63662   7.480   6.115   3.926 -0.1244  0.1537  0.4795
  462MOL0    Cl63663   7.617   6.080   3.810  0.0742 -0.4170 -0.2147
  462MOL0     C63664   6.738   6.821   4.431  0.7442 -1.2757  0.4961
  462MOL0     C63665   6.628   6.901   4.401 -0.4473 -0.3004  1.1673
  462MOL0     O63666   6.619   7.169   4.197 -1.2977  0.0397 -0.3347
  462MOL0     C63667   6.294   7.221   4.298 -0.9129  0.5033  0.7888
  462MOL0     C63668   6.212   7.327   4.316  0.8734  0.0407 -0.2323
  462MOL0     N63669   5.774   7.844   4.572 -0.3945 -0.4087  0.6788
  462MOL0     N63670   5.688   7.936   4.590 -0.4686  0.5166 -0.4192
  462MOL0     C63671   4.739   8.392   3.879  0.1251  0.2377  0.9119
  462MOL0     C63672   4.663   8.441   3.763  0.2225 -1.2013 -0.0936
  462MOL0     C63673   4.514   8.670   3.439 -0.3499  0.2872 -0.4288
  462MOL0     C63674   4.380   8.637   3.450 -0.1887 -0.8834 -0.7296
  462MOL0     C63675   4.291   8.652   3.342 -0.0434 -0.4492  0.1335
  462MOL0     C63676   4.342   8.709   3.222 -1.4000  1.1726 -0.3430
  462MOL0     O63677   4.278   8.737   3.106 -0.0278 -0.2057  0.1349
  462MOL0     C63678   4.136   8.710   3.096  1.0448  0.0749 -0.9309
  462MOL0     C63679   4.100   8.780   2.965  0.2051 -0.0358 -0.1565
  462MOL0     C63680   3.956   8.763   2.923  0.2728  0.1699  1.3404
  462MOL0     C63681   3.929   8.815   2.784  0.3155 -0.6374 -0.3082
  462MOL0     C63682   3.787   8.781   2.747 -0.0406  0.3418  0.6585
  462MOL0     C63683   3.674   8.763   2.716 -0.3308  0.3833 -0.1120
  462MOL0     C63684   4.471   8.736   3.221 -0.6026 -0.4092  0.7727
  462MOL0     C63685   4.562   8.720   3.320  0.0162  0.4454  0.1778
  462MOL0     C63686   4.697   8.766   3.296 -0.2825 -0.1940  0.1180
  462MOL0     H63687   4.581   8.745   3.881  2.5542  0.7361  0.3191
  462MOL0     H63688   4.681   8.650   4.088  1.5361 -2.6273  1.4606
  462MOL0     H63689   4.999   8.392   3.999 -2.8924  2.0595 -0.6259
  462MOL0     H63690   4.918   8.259   4.083  1.0901 -0.3436 -3.3193
  462MOL0     H63691   5.040   8.487   4.249 -2.7497 -0.6003  1.5188
  462MOL0     H63692   4.979   8.329   4.303  0.8952  0.5577  0.1449
  462MOL0     H63693   5.153   8.213   4.181  0.1170 -1.0589  3.0644
  462MOL0     H63694   5.230   8.365   4.126  0.9592  1.7329  2.5513
  462MOL0     H63695   5.249   8.436   4.359 -0.7649 -0.5522  0.6631
  462MOL0     H63696   5.196   8.282   4.424  0.5951  2.5249  1.6513
  462MOL0     H63697   5.454   8.341   4.251  0.2472 -1.1810 -2.0188
  462MOL0     H63698   5.403   8.183   4.275  2.6530  1.0886 -0.4651
  462MOL0     H63699   5.468   8.370   4.502 -0.0087  0.7396  1.1334
  462MOL0     H63700   5.388   8.213   4.525 -0.6771  3.3073  0.4576
  462MOL0     H63701   5.657   8.237   4.374 -0.1932  0.4306  0.2454
  462MOL0     H63702   5.576   8.091   4.426 -1.2309  0.0713  1.2425
  462MOL0     H63703   5.745   8.267   4.578 -0.3913 -0.3528  3.0057
  462MOL0     H63704   5.599   8.201   4.656 -1.9526 -0.8808 -2.2852
  462MOL0     H63705   5.953   8.109   4.526  1.4240  0.4815  4.1356
  462MOL0     H63706   6.046   7.765   4.570  0.2274 -0.2453 -0.4082
  462MOL0     H63707   6.109   7.915   4.484  0.9077 -0.2144  0.0946
  462MOL0     H63708   5.948   7.677   4.371  1.9953 -1.8140 -2.5932
  462MOL0     H63709   5.966   7.837   4.290  0.9057 -0.6369 -1.7423
  462MOL0     H63710   6.218   7.803   4.269  2.2331 -1.0421 -0.0301
  462MOL0     H63711   6.225   7.679   4.375  1.8742  2.0462 -1.9890
  462MOL0     H63712   6.068   7.687   4.109 -0.2320 -1.4577 -0.2653
  462MOL0     H63713   6.230   7.642   4.117 -0.7004 -1.6842 -0.9743
  462MOL0     H63714   6.232   7.445   4.000 -2.3456 -1.4018 -0.3098
  462MOL0     H63715   6.457   7.421   3.938 -1.5143  0.7553  1.8308
  462MOL0     H63716   6.402   7.257   3.882 -0.4584  0.1366  0.0397
  462MOL0     H63717   6.554   7.283   3.982  0.5247  0.7765 -2.1036
  462MOL0     H63718   6.596   6.817   4.068  1.3363 -0.5818 -0.2229
  462MOL0     H63719   6.788   6.687   4.119 -0.2675  0.6772 -0.6601
  462MOL0     H63720   6.933   6.511   4.232  3.0893 -1.2814  0.4685
  462MOL0     H63721   7.013   6.662   4.205  4.1300  0.3264  1.0400
  462MOL0     H63722   7.143   6.590   4.427  1.1914  0.5889 -0.6705
  462MOL0     H63723   7.069   6.428   4.382  3.0510 -1.5888 -3.3546
  462MOL0     H63724   7.263   6.582   4.203 -1.2361 -0.4419 -1.9395
  462MOL0     H63725   7.149   6.457   4.147  0.0124  0.9999  0.0568
  462MOL0     H63726   7.267   6.287   4.283  1.5851 -1.3911 -0.9207
  462MOL0     H63727   7.357   6.433   4.357  1.9225  1.6503 -1.4084
  462MOL0     H63728   7.450   6.468   4.120  3.6734 -1.3003  0.3795
  462MOL0     H63729   7.514   6.338   4.212  0.0531 -0.5405  0.8271
  462MOL0     H63730   7.282   6.313   4.015  0.5260  1.3056  0.6723
  462MOL0     H63731   7.360   6.182   4.118 -1.2064 -0.5290 -0.8460
  462MOL0     H63732   7.576   6.301   3.979 -1.1722  4.1632 -2.4506
  462MOL0     H63733   7.437   6.314   3.874  1.1182 -1.0441 -1.0555
  462MOL0     H63734   7.385   6.079   3.885 -0.0493  0.3055  0.1720
  462MOL0     H63735   7.495   6.049   4.012  1.0858 -1.1697 -0.6769
  462MOL0     H63736   6.762   6.838   4.536 -2.2133  0.9321  0.9549
  462MOL0     H63737   6.590   6.966   4.479 -0.4716  2.8185 -1.2494
  462MOL0     H63738   6.310   7.144   4.372  2.9551 -1.7766 -2.0569
  462MOL0     H63739   6.148   7.347   4.402 -1.0929  3.4956 -2.2373
  462MOL0     H63740   4.797   8.300   3.878  0.5634  0.4905  2.2647
  462MOL0     H63741   4.652   8.388   3.668 -3.0349 -1.3239  0.2263
  462MOL0     H63742   4.347   8.589   3.541  1.5622 -0.8146 -0.0202
  462MOL0     H63743   4.192   8.610   3.353  0.0107 -0.2754  1.5972
  462MOL0     H63744   4.117   8.604   3.115  0.1898  0.0812 -1.6580
  462MOL0     H63745   4.086   8.755   3.183  2.2235  2.6920 -1.5132
  462MOL0     H63746   4.175   8.746   2.893  1.5007  1.3790  0.4645
  462MOL0     H63747   4.110   8.887   2.985 -0.6534 -0.2211  1.3933
  462MOL0     H63748   3.934   8.657   2.905  1.4529  0.2885 -1.1927
  462MOL0     H63749   3.890   8.793   3.005  0.6737  1.5895  1.1636
  462MOL0     H63750   3.998   8.767   2.715  0.6244  0.3986 -0.7356
  462MOL0     H63751   3.941   8.924   2.780 -1.8762 -0.3282 -0.0821
  462MOL0     H63752   3.570   8.742   2.700 -0.5405  3.2028 -3.6361
  462MOL0     H63753   4.494   8.781   3.125 -2.5885 -2.1215 -0.6134
  462MOL0     H63754   4.697   8.838   3.214  1.9681  1.0724  1.1471
  462MOL0     H63755   4.750   8.803   3.384 -0.1381  1.9650 -0.8217
  462MOL0     H63756   4.756   8.679   3.266 -0.6902 -1.7233  3.3028
  463MOL0     O63757   4.808   6.214   1.430 -0.0090 -0.3580 -0.3369
  463MOL0     C63758   4.777   6.131   1.513  0.4607  0.2996 -0.6065
  463MOL0     O63759   4.859   6.054   1.585  0.1448 -0.6677  0.5504
  463MOL0     C63760   4.993   6.074   1.577  0.6708 -0.2839 -0.2412
  463MOL0     C63761   5.052   6.203   1.585  0.0363 -0.1809 -0.0269
  463MOL0     C63762   5.191   6.217   1.593 -0.8566  0.1574  0.2630
  463MOL0     C63763   5.269   6.105   1.553 -0.5614  0.1090 -0.1855
  463MOL0     O63764   5.409   6.116   1.534  0.2457 -0.2849  0.5530
  463MOL0     C63765   5.497   6.001   1.556  0.8257  0.4032 -0.2659
  463MOL0     C63766   5.633   6.064   1.584 -0.2723 -0.0316 -0.2567
  463MOL0     C63767   5.635   6.120   1.730  0.5243 -0.6450 -0.1950
  463MOL0     C63768   5.764   6.212   1.744 -0.1805 -0.1296 -0.1754
  463MOL0     C63769   5.886   6.122   1.761  0.7840  0.0355  0.1148
  463MOL0     C63770   6.009   6.204   1.801 -0.1767 -0.7096  0.0164
  463MOL0     C63771   6.118   6.122   1.867 -0.0093 -0.4484  0.3587
  463MOL0     C63772   6.233   6.206   1.917 -0.6297 -0.2067 -0.7786
  463MOL0     N63773   6.339   6.125   1.963  0.1231 -0.0848 -0.2950
  463MOL0     C63774   6.460   6.162   2.022 -0.0209 -0.5053  0.2802
  463MOL0     C63775   6.511   6.045   2.068  0.6229  0.9899  0.7385
  463MOL0     C63776   6.636   6.037   2.136  0.8070 -0.1328 -0.1315
  463MOL0     C63777   6.619   6.038   2.288  0.7029  0.7042  0.7982
  463MOL0     C63778   6.755   6.055   2.365 -0.5688 -0.3958  0.2650
  463MOL0     C63779   6.830   5.924   2.383  0.5086 -0.6930  0.3523
  463MOL0     O63780   6.969   5.938   2.421 -0.3762 -0.4500 -0.1762
  463MOL0     C63781   6.969   5.962   2.555  0.0430  0.5260  0.3998
  463MOL0     C63782   6.953   5.860   2.651  0.4778 -0.4070 -0.7565
  463MOL0     C63783   6.936   5.898   2.790 -0.0896  1.3992 -0.8431
  463MOL0     C63784   6.886   5.788   2.885 -0.9492  0.4520 -0.0335
  463MOL0     C63785   6.955   6.036   2.831 -0.3912  1.3587 -1.2400
  463MOL0     C63786   6.969   6.075   2.974  0.5380  0.8067  0.3993
  463MOL0     O63787   7.000   6.208   2.984  0.1889  0.0913  0.3754
  463MOL0     C63788   7.059   6.236   3.109  0.8466 -0.3612  0.2282
  463MOL0     C63789   7.202   6.260   3.118 -0.9221  1.2871 -0.0436
  463MOL0     C63790   7.258   6.301   3.243 -0.5262 -0.2841 -0.0373
  463MOL0     C63791   7.174   6.332   3.353 -0.1501 -0.5450  0.3164
  463MOL0     O63792   7.212   6.401   3.467  0.1609  0.1683 -0.7603
  463MOL0     C63793   7.349   6.396   3.512  0.0836 -0.4283 -0.2803
  463MOL0     C63794   7.371   6.501   3.616  0.4690 -0.4604 -1.3545
  463MOL0     C63795   7.524   6.538   3.644  0.5806  1.0558  0.4782
  463MOL0     C63796   7.558   6.668   3.722  0.1383  0.7753  0.0226
  463MOL0     C63797   7.486   6.681   3.864  0.2583 -0.1944 -0.1275
  463MOL0     C63798   7.379   6.782   3.866 -0.0904  0.2870 -1.0471
  463MOL0     C63799   7.309   6.789   3.996  0.2932 -0.6592 -0.2719
  463MOL0     C63800   7.264   6.933   4.050  0.2186 -0.5500  0.7596
  463MOL0    Cl63801   7.111   6.981   3.982  0.1214 -0.2821  0.1908
  463MOL0     C63802   7.038   6.313   3.325  0.1580  0.0122 -0.4484
  463MOL0     C63803   6.978   6.266   3.214  0.1971  0.8167  0.3467
  463MOL0     O63804   6.963   5.993   3.066 -0.3041  0.5003  0.5928
  463MOL0     C63805   6.967   6.126   2.730 -0.6979  0.7674 -0.4577
  463MOL0     C63806   6.981   6.096   2.598  0.0787 -0.5239  0.8959
  463MOL0     N63807   6.429   5.939   2.033  0.3169 -0.5202 -0.3728
  463MOL0     N63808   6.329   5.989   1.965 -0.6032 -0.3568 -0.9340
  463MOL0     C63809   5.210   5.980   1.548 -0.5990  0.1071  0.2979
  463MOL0     C63810   5.077   5.968   1.561 -1.5008  0.4139  0.2956
  463MOL0     C63811   4.635   6.134   1.560  0.3723 -1.1299 -0.3936
  463MOL0     C63812   4.543   6.224   1.495 -0.6124  0.6403 -0.1117
  463MOL0     C63813   4.411   6.239   1.533  0.3483 -0.7868 -0.4076
  463MOL0     C63814   4.358   6.151   1.624 -0.0605  0.8127 -0.0164
  463MOL0     O63815   4.237   6.166   1.684  0.3899 -0.4305 -0.1672
  463MOL0     C63816   4.125   6.218   1.612 -0.9122  0.3061  0.6112
  463MOL0     C63817   3.989   6.220   1.697  0.1586 -0.7827  0.0307
  463MOL0     C63818   3.926   6.081   1.700 -0.1334  0.0067 -0.3639
  463MOL0     C63819   3.770   6.079   1.745  0.2199 -0.5118 -0.5364
  463MOL0     C63820   3.721   5.946   1.764  0.5593  0.0165  0.4039
  463MOL0     C63821   3.665   5.841   1.768 -0.3554  0.3149  0.1363
  463MOL0     C63822   4.446   6.066   1.695 -0.1293 -0.3886 -0.2010
  463MOL0     C63823   4.580   6.066   1.670 -1.2418  0.3072 -0.6629
  463MOL0     C63824   4.663   5.969   1.751 -0.3444  0.0999 -0.8858
  463MOL0     H63825   4.996   6.295   1.603  0.3880 -0.5434  3.6541
  463MOL0     H63826   5.242   6.310   1.612 -1.1911 -0.0653  2.4423
  463MOL0     H63827   5.499   5.931   1.472 -2.0600  1.5134 -1.3667
  463MOL0     H63828   5.466   5.944   1.643  4.0797  1.6745  1.9436
  463MOL0     H63829   5.708   5.984   1.581  2.2619  2.2300 -0.4196
  463MOL0     H63830   5.663   6.135   1.507 -1.7395  1.5145  0.5173
  463MOL0     H63831   5.544   6.179   1.745  0.1509 -0.9646 -1.1257
  463MOL0     H63832   5.641   6.037   1.801 -0.8854 -0.4288  0.2080
  463MOL0     H63833   5.797   6.278   1.663 -0.9776  1.9906  1.1468
  463MOL0     H63834   5.764   6.261   1.842  1.4975 -1.0819  0.3362
  463MOL0     H63835   5.910   6.074   1.666 -0.7937  0.4945 -0.5618
  463MOL0     H63836   5.861   6.047   1.836 -2.1917  2.3921  1.7607
  463MOL0     H63837   6.053   6.245   1.710  0.2071 -1.5234 -0.1759
  463MOL0     H63838   5.977   6.292   1.859  4.7275  1.0516  0.4772
  463MOL0     H63839   6.149   6.040   1.801  0.5029  0.8156 -1.0439
  463MOL0     H63840   6.082   6.078   1.960  1.5382  1.3648  1.8956
  463MOL0     H63841   6.270   6.282   1.847 -0.8599 -0.0035 -0.6828
  463MOL0     H63842   6.195   6.253   2.008  0.0897 -1.0512 -0.0309
  463MOL0     H63843   6.507   6.259   2.030  0.4908 -0.8634  1.8581
  463MOL0     H63844   6.687   6.129   2.106 -1.4820  0.6772 -1.8710
  463MOL0     H63845   6.699   5.956   2.096  1.2181 -1.9147  3.7108
  463MOL0     H63846   6.556   6.120   2.322 -0.3930 -0.1364  0.8740
  463MOL0     H63847   6.573   5.945   2.325  0.1980  0.3129 -0.7666
  463MOL0     H63848   6.822   6.127   2.317  1.1121 -2.5115 -0.7766
  463MOL0     H63849   6.741   6.087   2.469  0.7814  0.4398  0.2145
  463MOL0     H63850   6.774   5.852   2.443 -0.8240 -1.2717 -1.4951
  463MOL0     H63851   6.848   5.883   2.283  1.9167 -0.8347  0.6326
  463MOL0     H63852   6.964   5.757   2.619  0.3006 -0.0192 -2.1524
  463MOL0     H63853   6.787   5.809   2.928 -4.1643 -2.7924 -4.7416
  463MOL0     H63854   6.960   5.770   2.964 -0.1499  3.0299 -0.1157
  463MOL0     H63855   6.867   5.699   2.824  0.7679  0.4770 -0.6509
  463MOL0     H63856   7.262   6.238   3.031 -2.5743 -0.6612 -0.7504
  463MOL0     H63857   7.366   6.294   3.238 -0.5674 -1.8957  0.7211
  463MOL0     H63858   7.369   6.302   3.564  0.6479  0.4722  1.1742
  463MOL0     H63859   7.414   6.404   3.425 -0.7874  2.2617 -0.7895
  463MOL0     H63860   7.326   6.599   3.598  3.0574  1.0128 -0.1615
  463MOL0     H63861   7.333   6.452   3.706 -0.3073  1.1853 -0.7389
  463MOL0     H63862   7.568   6.563   3.547  0.2386  4.2608  1.0426
  463MOL0     H63863   7.575   6.453   3.691  1.9472 -0.4557 -3.3553
  463MOL0     H63864   7.538   6.760   3.665 -0.5130 -0.9132 -2.6785
  463MOL0     H63865   7.665   6.659   3.744 -0.0547 -0.8862  0.4016
  463MOL0     H63866   7.447   6.582   3.887 -0.2110  0.1144  0.4067
  463MOL0     H63867   7.565   6.713   3.933  1.4769 -0.0316 -1.5463
  463MOL0     H63868   7.307   6.749   3.791  2.2335 -1.0770 -2.8122
  463MOL0     H63869   7.408   6.882   3.833 -1.3885  1.7588  1.8357
  463MOL0     H63870   7.366   6.729   4.068 -0.7602  1.2073  2.2867
  463MOL0     H63871   7.218   6.728   3.993 -0.9800  1.0366  1.4016
  463MOL0     H63872   7.346   7.001   4.024 -3.2504  3.3592 -1.2494
  463MOL0     H63873   7.268   6.923   4.159 -2.4552  1.9057  1.2360
  463MOL0     H63874   6.973   6.340   3.408  0.0933 -4.9804  1.4426
  463MOL0     H63875   6.873   6.242   3.197 -0.5199  2.5521  2.0262
  463MOL0     H63876   6.990   6.230   2.752  2.4724  0.3141 -1.0795
  463MOL0     H63877   6.989   6.171   2.520 -3.4075 -1.4386 -0.5119
  463MOL0     H63878   5.256   5.882   1.540 -0.7655  0.1881 -2.8383
  463MOL0     H63879   5.030   5.871   1.564  3.4969 -2.3642 -0.0614
  463MOL0     H63880   4.565   6.275   1.402 -0.7652  0.6954 -0.1184
  463MOL0     H63881   4.340   6.304   1.484  0.7324 -1.5026 -1.9910
  463MOL0     H63882   4.151   6.323   1.591 -2.1580  0.2437 -1.6168
  463MOL0     H63883   4.115   6.163   1.517 -1.0385  1.3614 -0.0071
  463MOL0     H63884   3.924   6.303   1.666  0.3849 -0.3731  0.6263
  463MOL0     H63885   4.024   6.238   1.799  0.5413 -2.9048  0.3186
  463MOL0     H63886   3.923   6.059   1.593  3.2520  2.3301 -1.1327
  463MOL0     H63887   3.987   6.018   1.766  3.1211  3.5640  0.4179
  463MOL0     H63888   3.699   6.124   1.675 -1.5135  0.1055  1.5018
  463MOL0     H63889   3.757   6.143   1.833 -0.7274  0.6492 -1.4900
  463MOL0     H63890   3.621   5.745   1.749  0.9891  0.0608 -2.0901
  463MOL0     H63891   4.399   6.016   1.779 -1.3882  1.3933  0.2205
  463MOL0     H63892   4.604   5.905   1.817  2.0503 -1.9352 -0.5637
  463MOL0     H63893   4.696   5.899   1.674 -1.6966 -3.9892  1.8974
  463MOL0     H63894   4.749   6.017   1.800 -0.1048  0.0641 -1.2691
  464MOL0     O63895   8.024   0.837   3.681  0.8790  0.1731 -0.7503
  464MOL0     C63896   8.025   0.713   3.676  0.9638 -1.4478 -0.4307
  464MOL0     O63897   8.118   0.642   3.606 -0.1603  0.2839 -0.2015
  464MOL0     C63898   8.179   0.704   3.502  0.3640 -0.2134 -0.0136
  464MOL0     C63899   8.275   0.808   3.516 -0.4856 -0.3842  0.5176
  464MOL0     C63900   8.336   0.870   3.403 -0.0509 -0.4359  0.0865
  464MOL0     C63901   8.304   0.831   3.273 -0.9535  0.5029 -0.0251
  464MOL0     O63902   8.359   0.884   3.162 -0.1138 -0.6094 -0.0199
  464MOL0     C63903   8.479   0.961   3.167  0.1764  0.9761 -0.0319
  464MOL0     C63904   8.595   0.888   3.230 -0.0589 -0.1554 -0.4977
  464MOL0     C63905   8.635   0.747   3.177 -0.4149  0.4054 -0.0314
  464MOL0     C63906   8.792   0.728   3.152 -0.6165 -0.0635  0.5111
  464MOL0     C63907   8.827   0.615   3.050 -0.0744 -0.1228 -0.4268
  464MOL0     C63908   8.800   0.639   2.895  0.1736 -0.9398 -0.8524
  464MOL0     C63909   8.824   0.525   2.805 -0.4029 -0.1758 -1.4275
  464MOL0     C63910   8.733   0.408   2.855  0.4097 -0.2506 -0.4716
  464MOL0     N63911   8.734   0.297   2.755  0.3969  0.3520 -1.1553
  464MOL0     C63912   8.789   0.180   2.776  1.0281 -0.1011  0.5491
  464MOL0     C63913   8.778   0.123   2.653  0.1535  0.3197 -0.1067
  464MOL0     C63914   8.848  -0.007   2.616  0.6754 -0.7940  0.6260
  464MOL0     C63915   8.792  -0.071   2.489  0.7236 -0.1403 -0.1066
  464MOL0     C63916   8.817  -0.223   2.485  0.2887  0.8260  0.2442
  464MOL0     C63917   8.875  -0.268   2.348  1.3737  0.1153 -0.2758
  464MOL0     O63918   9.021  -0.255   2.352 -0.2670 -0.0738  0.3209
  464MOL0     C63919   9.080  -0.307   2.234  0.6546  0.6347 -0.0929
  464MOL0     C63920   9.021  -0.330   2.111 -0.6097 -1.1143  0.3246
  464MOL0     C63921   9.101  -0.347   1.990  1.3622  0.2033 -0.2545
  464MOL0     C63922   9.014  -0.348   1.864  0.4302 -0.6655 -0.2917
  464MOL0     C63923   9.240  -0.366   2.006 -0.6242  0.9137  0.2124
  464MOL0     C63924   9.325  -0.418   1.895 -0.1906  0.0080  0.9809
  464MOL0     O63925   9.255  -0.447   1.781  0.2917 -0.1035  0.7495
  464MOL0     C63926   9.310  -0.475   1.657  1.0317 -0.5831 -0.4407
  464MOL0     C63927   9.438  -0.458   1.606 -0.1470 -0.3367  0.2399
  464MOL0     C63928   9.467  -0.484   1.474 -1.2625  0.2189 -0.2277
  464MOL0     C63929   9.365  -0.514   1.381 -0.7877  0.2106 -0.6617
  464MOL0     O63930   9.384  -0.544   1.250  0.4010  0.3141 -0.4446
  464MOL0     C63931   9.519  -0.571   1.199  0.5011 -0.0424  0.9671
  464MOL0     C63932   9.506  -0.595   1.046 -0.7125 -0.2499  0.3470
  464MOL0     C63933   9.639  -0.630   0.986 -0.3077  0.1023 -0.8798
  464MOL0     C63934   9.636  -0.597   0.837  0.0803  0.3800  0.6078
  464MOL0     C63935   9.760  -0.631   0.750 -0.8527 -0.3928  0.1000
  464MOL0     C63936   9.893  -0.615   0.826 -0.7412  0.0256  0.7894
  464MOL0     C63937   9.938  -0.464   0.806  0.5560  0.5287  0.1073
  464MOL0     C63938  10.079  -0.448   0.838  0.5115  0.3877 -0.2572
  464MOL0    Cl63939  10.093  -0.437   1.016 -0.4468 -0.0270 -0.0288
  464MOL0     C63940   9.239  -0.538   1.433 -0.3762 -0.1789  0.1134
  464MOL0     C63941   9.213  -0.521   1.571 -0.0704  0.0628  0.4457
  464MOL0     O63942   9.446  -0.416   1.906  0.3473  0.0104 -0.1818
  464MOL0     C63943   9.297  -0.348   2.129  0.2740 -0.9715 -0.5434
  464MOL0     C63944   9.216  -0.312   2.240 -0.5727  0.2345  0.6072
  464MOL0     N63945   8.708   0.205   2.568  0.0864 -1.1738 -0.5232
  464MOL0     N63946   8.678   0.307   2.634  0.2778 -0.2752 -0.2359
  464MOL0     C63947   8.188   0.750   3.258 -0.5706 -0.8170  0.9890
  464MOL0     C63948   8.138   0.682   3.369 -0.8171 -1.1719  0.3379
  464MOL0     C63949   7.913   0.635   3.748 -0.5646 -0.4278 -0.2927
  464MOL0     C63950   7.939   0.504   3.773 -0.2618  0.7892  0.0078
  464MOL0     C63951   7.849   0.416   3.855 -0.6111 -0.1094  0.5422
  464MOL0     C63952   7.731   0.468   3.895  0.5516  0.3976  0.0191
  464MOL0     O63953   7.647   0.406   3.986  0.4893  0.2434  0.1196
  464MOL0     C63954   7.673   0.266   4.024 -0.5472 -0.1830  0.4745
  464MOL0     C63955   7.572   0.219   4.139 -0.3896 -0.6248 -1.1167
  464MOL0     C63956   7.535   0.076   4.138 -0.4874 -0.2608 -0.3756
  464MOL0     C63957   7.451   0.035   4.026  0.1495  0.3477 -0.4445
  464MOL0     C63958   7.318   0.104   4.023  1.0346  0.0182  0.4595
  464MOL0     C63959   7.211   0.170   4.034  0.2229 -0.4936  0.6123
  464MOL0     C63960   7.702   0.603   3.862 -0.5359 -0.4390  0.4169
  464MOL0     C63961   7.788   0.684   3.778 -0.9368  0.2351  0.0863
  464MOL0     C63962   7.739   0.823   3.738 -0.1299  0.5205 -0.2970
  464MOL0     H63963   8.301   0.836   3.617 -2.6870  0.1559  0.9771
  464MOL0     H63964   8.386   0.964   3.426 -1.6765  0.6518 -0.6459
  464MOL0     H63965   8.476   1.059   3.216  5.1158  2.0269 -1.2469
  464MOL0     H63966   8.510   0.975   3.063  4.5767 -1.3699  0.7472
  464MOL0     H63967   8.676   0.959   3.212  0.9232 -1.2711 -0.5824
  464MOL0     H63968   8.580   0.879   3.339 -2.4787  0.7219 -0.6974
  464MOL0     H63969   8.591   0.664   3.233 -0.7008 -1.1111 -2.3848
  464MOL0     H63970   8.588   0.743   3.078 -1.3363  1.2635  0.3462
  464MOL0     H63971   8.842   0.820   3.120  1.4689 -0.7353  1.6157
  464MOL0     H63972   8.843   0.714   3.247 -1.3092  1.1386  1.0823
  464MOL0     H63973   8.774   0.524   3.079 -1.1556  1.2424  2.1414
  464MOL0     H63974   8.935   0.612   3.070 -0.1890  1.7026  0.7128
  464MOL0     H63975   8.698   0.675   2.879  0.5727 -0.4512 -2.4997
  464MOL0     H63976   8.862   0.723   2.864 -1.0022  1.4907  2.6597
  464MOL0     H63977   8.930   0.497   2.812 -0.9638 -1.9905  1.6383
  464MOL0     H63978   8.793   0.552   2.704 -1.0531  2.3220 -0.6561
  464MOL0     H63979   8.777   0.369   2.948  3.2558 -1.6267 -2.2366
  464MOL0     H63980   8.639   0.462   2.869  2.2927  3.4159 -0.8013
  464MOL0     H63981   8.829   0.133   2.866  1.7895 -2.6971 -1.0380
  464MOL0     H63982   8.838  -0.073   2.703 -0.1969 -0.5007  0.7634
  464MOL0     H63983   8.951   0.025   2.598  0.0567  1.7890  1.2470
  464MOL0     H63984   8.689  -0.042   2.464  1.4449  0.1673 -3.1154
  464MOL0     H63985   8.843  -0.019   2.408  1.2353 -0.3731  0.0635
  464MOL0     H63986   8.885  -0.266   2.559 -1.1788  0.7788  1.6258
  464MOL0     H63987   8.717  -0.268   2.486  0.9385 -0.9266 -2.5687
  464MOL0     H63988   8.855  -0.370   2.313  1.4691  0.0992 -0.2821
  464MOL0     H63989   8.821  -0.210   2.272 -0.9514 -1.5272 -0.0059
  464MOL0     H63990   8.913  -0.336   2.118 -0.6171 -1.0979  0.2087
  464MOL0     H63991   9.016  -0.449   1.823  2.7894 -1.3237  1.2454
  464MOL0     H63992   9.070  -0.290   1.791  1.7309  0.5478  1.5812
  464MOL0     H63993   8.909  -0.320   1.879  0.4614 -0.5474 -0.2917
  464MOL0     H63994   9.516  -0.421   1.672 -0.2180  1.7803 -0.7582
  464MOL0     H63995   9.564  -0.466   1.430 -1.1087  2.4102  0.8666
  464MOL0     H63996   9.578  -0.480   1.211 -2.7748  2.2566  0.9674
  464MOL0     H63997   9.570  -0.648   1.257 -1.0953  0.1744  2.7795
  464MOL0     H63998   9.433  -0.674   1.026  0.0682 -1.4109  1.8816
  464MOL0     H63999   9.461  -0.497   1.023  2.3268  1.0993 -0.3809
  464MOL0     H64000   9.667  -0.734   1.003  1.4947  0.8317  1.0620
  464MOL0     H64001   9.716  -0.573   1.038  0.0452 -2.4866  1.6740
  464MOL0     H64002   9.625  -0.489   0.823 -1.1524  0.3727  1.3438
  464MOL0     H64003   9.554  -0.645   0.784  1.6883 -1.5918 -0.1990
  464MOL0     H64004   9.754  -0.737   0.723 -0.7554 -0.3102 -0.2517
  464MOL0     H64005   9.761  -0.577   0.655  0.9725  0.5536  0.6149
  464MOL0     H64006   9.965  -0.684   0.781 -1.2478 -0.3830  0.5965
  464MOL0     H64007   9.903  -0.654   0.927  5.3013 -1.4913 -0.0396
  464MOL0     H64008   9.881  -0.397   0.870  0.3142 -0.1752  0.6316
  464MOL0     H64009   9.924  -0.435   0.701 -0.6578  0.3566  0.2075
  464MOL0     H64010  10.107  -0.355   0.786  0.3090  0.6919  0.1739
  464MOL0     H64011  10.145  -0.531   0.810  0.2152  0.3262 -0.7894
  464MOL0     H64012   9.169  -0.587   1.366 -0.4535 -2.1266  1.5057
  464MOL0     H64013   9.109  -0.530   1.604 -0.9882 -0.8501 -2.4147
  464MOL0     H64014   9.404  -0.360   2.141  0.1782 -2.4516 -0.9001
  464MOL0     H64015   9.249  -0.278   2.338 -2.2674 -0.4475  1.4694
  464MOL0     H64016   8.162   0.742   3.153  0.8318  2.9829  0.1924
  464MOL0     H64017   8.046   0.625   3.366 -0.8866 -1.1280  1.3322
  464MOL0     H64018   8.033   0.462   3.737 -1.6811 -1.4840 -1.3237
  464MOL0     H64019   7.881   0.315   3.878  0.4662  0.2973  0.9330
  464MOL0     H64020   7.679   0.202   3.935  0.2476 -0.2969  0.5998
  464MOL0     H64021   7.778   0.257   4.055  0.9628  3.1312 -2.9009
  464MOL0     H64022   7.489   0.289   4.153  0.1759  0.6050 -3.4077
  464MOL0     H64023   7.631   0.242   4.228 -1.8815 -0.6057 -0.0943
  464MOL0     H64024   7.621   0.009   4.147  0.0092 -0.1731 -3.3462
  464MOL0     H64025   7.478   0.058   4.229  2.0084 -1.8794  0.9765
  464MOL0     H64026   7.423  -0.070   4.040 -1.5073  1.0204  1.6534
  464MOL0     H64027   7.507   0.049   3.933 -1.1520 -0.6457 -1.4256
  464MOL0     H64028   7.122   0.229   4.046  1.8954  2.3721 -0.0206
  464MOL0     H64029   7.603   0.638   3.887 -1.4571 -3.5577  1.5757
  464MOL0     H64030   7.779   0.897   3.808 -2.4730  0.8191  0.8397
  464MOL0     H64031   7.774   0.860   3.641 -0.6684  0.9317 -0.3390
  464MOL0     H64032   7.630   0.833   3.729 -0.2758 -0.8051 -0.2418
  465MOL0     O64033   9.313   0.752   5.500 -0.6352  0.3125  0.0755
  465MOL0     C64034   9.356   0.678   5.407  0.6436  0.3657 -0.0922
  465MOL0     O64035   9.408   0.552   5.425  0.2302  0.2250 -0.2245
  465MOL0     C64036   9.429   0.516   5.555 -0.5896 -0.0401 -0.3577
  465MOL0     C64037   9.472   0.594   5.665 -0.4293 -0.0707 -0.0387
  465MOL0     C64038   9.489   0.540   5.799  0.1572 -0.2985  0.6456
  465MOL0     C64039   9.492   0.404   5.823  0.3685  0.4880 -0.1036
  465MOL0     O64040   9.530   0.350   5.947 -0.1990 -0.1069 -0.4213
  465MOL0     C64041   9.505   0.210   5.963 -0.5887 -0.6790 -0.9498
  465MOL0     C64042   9.559   0.156   6.096 -0.4699 -0.0186 -0.1969
  465MOL0     C64043   9.713   0.155   6.110 -0.2826 -1.1018  0.3117
  465MOL0     C64044   9.754   0.083   6.235 -0.2521  0.3771 -0.0078
  465MOL0     C64045   9.908   0.071   6.255 -0.0650  0.6163  0.1265
  465MOL0     C64046   9.959  -0.017   6.376  0.1225 -0.0473 -0.1952
  465MOL0     C64047   9.906   0.035   6.512 -0.2415 -0.4791 -0.1859
  465MOL0     C64048   9.980   0.158   6.563 -0.1453  0.4050 -0.0001
  465MOL0     N64049   9.943   0.193   6.698  0.1163 -0.1532  0.2159
  465MOL0     C64050   9.861   0.301   6.733  0.2743 -0.1227 -0.2093
  465MOL0     C64051   9.842   0.299   6.869  0.3201  0.2903 -0.2141
  465MOL0     C64052   9.756   0.405   6.930 -1.0559  0.2685 -0.3079
  465MOL0     C64053   9.810   0.551   6.903 -0.1313  0.1285  0.7260
  465MOL0     C64054   9.943   0.563   6.962  1.7700 -1.3039 -0.3632
  465MOL0     C64055   9.971   0.718   6.965  0.0067 -0.1993  0.1298
  465MOL0     O64056   9.929   0.780   6.836 -0.9093 -0.4608  0.5318
  465MOL0     C64057  10.016   0.797   6.734  0.2103 -0.1630 -0.0557
  465MOL0     C64058  10.145   0.744   6.735  0.1470 -0.6324  0.0939
  465MOL0     C64059  10.229   0.758   6.618  0.9401 -0.0279 -0.0687
  465MOL0     C64060  10.375   0.720   6.650  0.4955 -0.0672 -0.0384
  465MOL0     C64061  10.182   0.819   6.497 -0.1332  0.3840 -0.4484
  465MOL0     C64062  10.256   0.799   6.376 -0.1243 -1.1721  0.2023
  465MOL0     O64063  10.307   0.673   6.332 -0.3249 -0.4086 -0.0427
  465MOL0     C64064  10.387   0.665   6.219  0.0856  0.6388 -1.1505
  465MOL0     C64065  10.471   0.549   6.224 -0.2969  0.4804  1.1978
  465MOL0     C64066  10.577   0.543   6.132  0.2869  1.4364  0.1982
  465MOL0     C64067  10.591   0.632   6.024 -0.4047 -0.5828 -0.6031
  465MOL0     O64068  10.695   0.609   5.939  0.0967 -0.3878 -0.1515
  465MOL0     C64069  10.702   0.677   5.812  0.3031  0.2059  0.7752
  465MOL0     C64070  10.808   0.608   5.725 -0.8250 -0.0879 -0.3873
  465MOL0     C64071  10.816   0.658   5.578 -0.9520 -0.5722  0.3981
  465MOL0     C64072  10.920   0.563   5.502  0.5261  0.2062  0.3972
  465MOL0     C64073  10.931   0.619   5.354 -0.8136  0.8479 -0.4929
  465MOL0     C64074  11.016   0.743   5.334  0.4004 -0.3085 -0.2474
  465MOL0     C64075  11.158   0.721   5.361 -0.0014 -0.3963  1.2165
  465MOL0     C64076  11.250   0.674   5.244 -0.4872 -0.0257  0.0543
  465MOL0    Cl64077  11.238   0.493   5.199  0.0987 -0.0576 -0.2233
  465MOL0     C64078  10.496   0.734   6.017 -0.2289 -0.0561 -0.4333
  465MOL0     C64079  10.399   0.758   6.115  0.6421 -0.1134  0.1726
  465MOL0     O64080  10.252   0.902   6.313 -0.4342  0.2168  0.0537
  465MOL0     C64081  10.050   0.866   6.505 -0.5527 -0.7381  0.9033
  465MOL0     C64082   9.974   0.850   6.615  0.8094  0.3994 -0.3435
  465MOL0     N64083   9.916   0.186   6.913  0.5489 -0.0990 -0.2983
  465MOL0     N64084   9.977   0.129   6.816  0.5260  0.8053  0.3804
  465MOL0     C64085   9.447   0.328   5.717 -0.1760  0.7831 -0.9185
  465MOL0     C64086   9.429   0.380   5.587  0.1016  0.1028  0.9480
  465MOL0     C64087   9.326   0.717   5.271  0.0930  0.0003 -0.1508
  465MOL0     C64088   9.298   0.614   5.173 -0.0573 -0.6180 -0.8812
  465MOL0     C64089   9.246   0.634   5.051  0.7898 -0.2294 -0.0795
  465MOL0     C64090   9.234   0.767   5.009 -1.1176  0.0102 -0.5943
  465MOL0     O64091   9.190   0.799   4.887  0.4118  0.5534  0.1228
  465MOL0     C64092   9.149   0.696   4.793 -0.8103  0.4031  0.4346
  465MOL0     C64093   9.258   0.628   4.718  0.2158  0.3811 -0.3503
  465MOL0     C64094   9.215   0.502   4.634  0.7979  1.1335  0.8068
  465MOL0     C64095   9.101   0.530   4.534 -0.3622  0.0755 -1.1046
  465MOL0     C64096   9.077   0.398   4.470 -0.0792  0.8135  0.7895
  465MOL0     C64097   9.064   0.290   4.410 -0.1390 -0.0056  0.2075
  465MOL0     C64098   9.282   0.869   5.100  1.3365  0.1472  0.6924
  465MOL0     C64099   9.318   0.853   5.234  0.1966  0.1602 -0.3859
  465MOL0     C64100   9.366   0.967   5.320  0.0468 -0.4698 -0.0120
  465MOL0     H64101   9.481   0.702   5.659 -1.8454  0.2826  2.6988
  465MOL0     H64102   9.530   0.602   5.878 -0.4391 -0.0174  0.7423
  465MOL0     H64103   9.565   0.154   5.892  2.3648  0.4507  0.4793
  465MOL0     H64104   9.397   0.200   5.949 -0.4087  1.6338 -5.7492
  465MOL0     H64105   9.505   0.204   6.178  0.5535  2.1590 -0.7433
  465MOL0     H64106   9.534   0.049   6.098 -2.1056  0.2893 -1.8072
  465MOL0     H64107   9.757   0.115   6.018  0.3347 -0.6636  0.4099
  465MOL0     H64108   9.747   0.257   6.130  0.8495 -1.2771 -0.5707
  465MOL0     H64109   9.713   0.138   6.320 -0.5315  0.3342 -0.1130
  465MOL0     H64110   9.716  -0.020   6.229  1.8623 -0.4462 -0.1218
  465MOL0     H64111   9.955   0.170   6.254 -0.9114  1.0220 -0.5845
  465MOL0     H64112   9.951   0.012   6.174 -1.4641 -2.2551  1.3596
  465MOL0     H64113   9.919  -0.117   6.355  0.4246  0.0730 -1.3949
  465MOL0     H64114  10.068  -0.021   6.376  0.1127 -1.9287 -1.8889
  465MOL0     H64115   9.916  -0.047   6.584  0.6107 -1.9890 -1.9184
  465MOL0     H64116   9.798   0.053   6.508 -0.5960 -1.9535  1.4508
  465MOL0     H64117  10.087   0.137   6.568 -0.0680  1.0384  1.5176
  465MOL0     H64118   9.960   0.245   6.499  1.1284  0.2960 -0.5649
  465MOL0     H64119   9.826   0.378   6.666 -0.8300  2.3727  2.9329
  465MOL0     H64120   9.774   0.396   7.037 -0.5501 -2.4593 -0.5306
  465MOL0     H64121   9.651   0.393   6.904 -1.9312  2.8310  1.6944
  465MOL0     H64122   9.801   0.579   6.797  1.9890  2.8058  1.1301
  465MOL0     H64123   9.736   0.617   6.950 -2.5996 -3.0173  1.5788
  465MOL0     H64124   9.942   0.522   7.063 -1.3535 -0.1161  0.2020
  465MOL0     H64125  10.017   0.509   6.901  0.3168 -2.0707 -1.4935
  465MOL0     H64126   9.920   0.766   7.050  0.8606 -0.2195  0.6674
  465MOL0     H64127  10.077   0.733   6.987 -0.8847  3.2366  3.0960
  465MOL0     H64128  10.175   0.687   6.823 -1.2660  0.4077  1.2956
  465MOL0     H64129  10.407   0.785   6.732 -0.9771  0.7433 -0.0852
  465MOL0     H64130  10.434   0.742   6.561 -1.4687  1.3500 -1.0733
  465MOL0     H64131  10.386   0.613   6.672 -0.5597 -0.1519  0.1430
  465MOL0     H64132  10.468   0.473   6.302 -0.7760 -0.3614  0.3753
  465MOL0     H64133  10.648   0.461   6.140  0.7856  1.8085 -0.3541
  465MOL0     H64134  10.608   0.681   5.756  0.1762  1.8505  1.0595
  465MOL0     H64135  10.726   0.783   5.821 -3.1718  1.1086  0.8073
  465MOL0     H64136  10.906   0.621   5.771 -0.3870 -0.1989 -1.2679
  465MOL0     H64137  10.790   0.500   5.725  2.8509 -0.8192  0.2402
  465MOL0     H64138  10.841   0.765   5.574 -0.7629 -0.6473 -0.7555
  465MOL0     H64139  10.720   0.655   5.525  0.3813 -2.7118 -2.1431
  465MOL0     H64140  10.874   0.464   5.494 -3.5962  1.8720  0.7224
  465MOL0     H64141  11.012   0.558   5.561  0.5311  2.3571  0.6640
  465MOL0     H64142  10.989   0.545   5.298 -0.0139  1.7973 -0.9692
  465MOL0     H64143  10.830   0.622   5.313 -1.0238 -0.8248 -0.1380
  465MOL0     H64144  10.971   0.821   5.396  0.2131  0.1330 -0.9288
  465MOL0     H64145  10.996   0.776   5.232 -0.4092 -1.6008 -0.5277
  465MOL0     H64146  11.172   0.651   5.444 -1.0288 -1.9390  0.1486
  465MOL0     H64147  11.196   0.820   5.389 -2.7085  1.3092 -0.6610
  465MOL0     H64148  11.353   0.688   5.277 -0.2890 -4.0340  1.7410
  465MOL0     H64149  11.244   0.738   5.155 -0.7391 -0.3420 -0.1599
  465MOL0     H64150  10.513   0.799   5.932  0.8880  0.5415  0.2248
  465MOL0     H64151  10.333   0.845   6.109 -2.1455 -2.0642  0.4052
  465MOL0     H64152  10.016   0.914   6.414  0.0396 -0.8940  0.5945
  465MOL0     H64153   9.868   0.874   6.620  0.0624 -2.6918  0.5360
  465MOL0     H64154   9.426   0.222   5.725  1.2307  0.6098  1.7417
  465MOL0     H64155   9.416   0.311   5.505 -1.9879  4.4517 -2.8522
  465MOL0     H64156   9.320   0.512   5.203 -0.4197 -0.3064  0.5372
  465MOL0     H64157   9.230   0.555   4.978  1.1075 -0.3166 -0.0581
  465MOL0     H64158   9.100   0.612   4.844  1.2023  0.2312  2.2046
  465MOL0     H64159   9.072   0.732   4.724 -0.0772 -3.6441 -2.9292
  465MOL0     H64160   9.337   0.594   4.785 -0.2531 -0.0453 -0.0084
  465MOL0     H64161   9.297   0.701   4.647 -0.1619  0.6315 -0.3022
  465MOL0     H64162   9.307   0.468   4.585  0.5265 -1.2968  1.8701
  465MOL0     H64163   9.191   0.419   4.700  1.4017 -1.4099 -1.9725
  465MOL0     H64164   9.137   0.604   4.462 -0.1150 -0.0886 -1.1494
  465MOL0     H64165   9.013   0.569   4.586 -0.1112 -0.2312 -0.4472
  465MOL0     H64166   9.050   0.197   4.358 -1.7919  0.9878 -1.2592
  465MOL0     H64167   9.261   0.967   5.059 -0.2125  0.9287  3.1273
  465MOL0     H64168   9.291   1.002   5.393 -0.4041  0.6208 -0.9740
  465MOL0     H64169   9.455   0.933   5.374  0.6471  2.0411  0.7220
  465MOL0     H64170   9.399   1.056   5.266  0.3405  0.1030  1.0802
  466MOL0     O64171   4.647   0.669  10.438  0.4652  0.2647  0.6219
  466MOL0     C64172   4.553   0.738  10.474 -0.0319  0.5838  0.3884
  466MOL0     O64173   4.558   0.815  10.588  0.2063 -0.0418  0.7902
  466MOL0     C64174   4.677   0.831  10.658 -0.9356  0.7419  0.3653
  466MOL0     C64175   4.682   0.817  10.799  0.4604  0.2292  0.1950
  466MOL0     C64176   4.795   0.818  10.877  0.0834 -1.1730  0.1292
  466MOL0     C64177   4.914   0.844  10.807 -0.2580  0.6325 -0.5576
  466MOL0     O64178   5.032   0.837  10.870  0.7113  0.6823 -0.0232
  466MOL0     C64179   5.129   0.942  10.840 -0.4188  0.2523  0.4604
  466MOL0     C64180   5.256   0.937  10.924  0.0385 -0.3826  0.2832
  466MOL0     C64181   5.320   0.802  10.954 -0.0744  0.5413 -0.5389
  466MOL0     C64182   5.473   0.808  10.999 -0.6219  0.7271  0.5795
  466MOL0     C64183   5.520   0.675  11.066  0.8757 -0.1021  0.3585
  466MOL0     C64184   5.674   0.686  11.088 -0.1088  0.3337  0.2642
  466MOL0     C64185   5.730   0.562  11.159  0.5201 -1.0272  0.8410
  466MOL0     C64186   5.863   0.583  11.221 -0.2848 -0.5409 -0.0352
  466MOL0     N64187   5.919   0.461  11.279  0.0680 -0.3132 -1.1467
  466MOL0     C64188   6.034   0.447  11.357 -0.1736 -0.6129 -0.1544
  466MOL0     C64189   6.042   0.319  11.383 -0.5804  1.2455 -0.2305
  466MOL0     C64190   6.167   0.253  11.445 -1.1058 -1.1309 -0.4580
  466MOL0     C64191   6.277   0.225  11.348 -0.2267 -0.2312 -0.3362
  466MOL0     C64192   6.397   0.165  11.415 -0.4100  0.3245  1.1488
  466MOL0     C64193   6.379   0.014  11.452 -0.1405 -0.1855 -0.2368
  466MOL0     O64194   6.515  -0.042  11.441  0.1987 -0.0125  1.1599
  466MOL0     C64195   6.554  -0.149  11.514 -0.5983  0.2018  0.2625
  466MOL0     C64196   6.685  -0.142  11.559 -0.6874 -0.3479 -0.1701
  466MOL0     C64197   6.743  -0.246  11.632  0.1987  0.4536  0.1401
  466MOL0     C64198   6.890  -0.224  11.671  0.2457  0.2653 -0.1763
  466MOL0     C64199   6.656  -0.360  11.663 -0.3698  0.5604 -0.3404
  466MOL0     C64200   6.696  -0.472  11.743 -0.2727  0.0480  0.3224
  466MOL0     O64201   6.831  -0.512  11.731  0.1064 -0.1740  0.5100
  466MOL0     C64202   6.872  -0.633  11.782  0.7834 -0.0733 -0.4034
  466MOL0     C64203   6.918  -0.730  11.701  0.1427  0.5156  0.2491
  466MOL0     C64204   6.959  -0.854  11.759  0.4799  0.7081 -0.4992
  466MOL0     C64205   6.957  -0.870  11.901  0.0584  0.2094  0.1219
  466MOL0     O64206   6.983  -0.992  11.964  0.6620  1.0973  0.4400
  466MOL0     C64207   6.928  -1.116  11.911  0.7489 -0.1870 -0.4621
  466MOL0     C64208   6.951  -1.242  12.000  0.5365 -0.7256 -0.0752
  466MOL0     C64209   6.914  -1.213  12.143  0.3804 -0.4740 -0.0908
  466MOL0     C64210   6.759  -1.202  12.165  0.1039 -0.1854 -0.0524
  466MOL0     C64211   6.706  -1.189  12.315 -0.7270  0.0915 -0.6791
  466MOL0     C64212   6.791  -1.091  12.402  0.3575 -0.0040  0.1153
  466MOL0     C64213   6.715  -1.048  12.531  0.0351 -0.1897  0.1553
  466MOL0     C64214   6.817  -1.024  12.641  0.9495 -0.1203  0.2650
  466MOL0    Cl64215   6.929  -0.881  12.613 -0.0774  0.2399  0.0594
  466MOL0     C64216   6.917  -0.764  11.980 -0.3183  0.1826 -0.4402
  466MOL0     C64217   6.868  -0.648  11.916  0.3004 -0.2903 -1.0198
  466MOL0     O64218   6.615  -0.521  11.824  0.3612  0.4241  0.2779
  466MOL0     C64219   6.522  -0.364  11.625 -0.0021 -0.8268  0.7913
  466MOL0     C64220   6.476  -0.263  11.543 -0.2398 -0.6366 -1.0351
  466MOL0     N64221   5.925   0.263  11.342 -0.0581  0.5958 -0.3567
  466MOL0     N64222   5.845   0.352  11.293  0.3314  0.5813 -0.2621
  466MOL0     C64223   4.911   0.864  10.671  0.2145  1.1062 -0.1107
  466MOL0     C64224   4.798   0.857  10.592  0.1612 -0.2438 -0.5202
  466MOL0     C64225   4.430   0.760  10.400 -0.2425 -0.0624  0.2899
  466MOL0     C64226   4.455   0.833  10.285 -0.3136 -1.3182  0.3679
  466MOL0     C64227   4.355   0.871  10.198  0.6280  0.1121  0.2169
  466MOL0     C64228   4.228   0.830  10.219 -0.2743 -1.0507  0.0046
  466MOL0     O64229   4.129   0.859  10.125  0.7870  0.0688  0.1594
  466MOL0     C64230   4.143   0.940  10.005 -1.0566  0.0132 -0.2700
  466MOL0     C64231   4.003   0.978   9.959  0.3390  0.1783 -0.2062
  466MOL0     C64232   4.002   1.028   9.816 -0.1754 -0.5959 -0.4179
  466MOL0     C64233   3.881   1.109   9.771  0.8142  0.2375 -0.2295
  466MOL0     C64234   3.901   1.126   9.625  1.1662  0.1671 -0.2843
  466MOL0     C64235   3.901   1.134   9.501 -0.4691  0.1949  0.9307
  466MOL0     C64236   4.199   0.752  10.336 -0.8730 -0.2645 -0.3104
  466MOL0     C64237   4.296   0.722  10.435 -0.5737  1.0692  0.5882
  466MOL0     C64238   4.267   0.636  10.553  0.6200  0.5870  0.2952
  466MOL0     H64239   4.587   0.810  10.851  0.8893 -2.6624  0.7372
  466MOL0     H64240   4.783   0.805  10.984  1.0442 -0.5080  0.3237
  466MOL0     H64241   5.087   1.043  10.846  0.5222  0.6652  0.2774
  466MOL0     H64242   5.161   0.934  10.736 -5.0143 -1.0858 -1.0520
  466MOL0     H64243   5.332   1.003  10.881  0.8184  0.8463  3.2931
  466MOL0     H64244   5.244   0.991  11.019  3.1216  0.6956  0.1745
  466MOL0     H64245   5.260   0.755  11.033 -0.7695  1.5933 -0.4144
  466MOL0     H64246   5.312   0.745  10.862  0.6582  0.0880 -0.3300
  466MOL0     H64247   5.532   0.833  10.910  2.5699  1.3242  2.6968
  466MOL0     H64248   5.489   0.890  11.070 -0.0578 -0.4330  1.8253
  466MOL0     H64249   5.496   0.595  10.996  0.2700  0.8603 -0.5692
  466MOL0     H64250   5.473   0.663  11.164  1.0708  0.3566  0.5104
  466MOL0     H64251   5.712   0.682  10.985  0.0399 -0.0417  0.3303
  466MOL0     H64252   5.709   0.779  11.133  0.5290  1.2497 -1.9545
  466MOL0     H64253   5.733   0.487  11.080 -0.9665 -0.4723  0.2128
  466MOL0     H64254   5.659   0.527  11.234 -1.3843  2.4781  0.9161
  466MOL0     H64255   5.934   0.618  11.146  0.3612  0.6119  1.0754
  466MOL0     H64256   5.848   0.666  11.290 -4.6022  0.7415 -2.1519
  466MOL0     H64257   6.114   0.519  11.372 -1.9760  1.2729  1.1574
  466MOL0     H64258   6.127   0.164  11.494  0.0274 -2.1903 -1.3874
  466MOL0     H64259   6.200   0.318  11.527 -1.8116  0.7761 -1.6093
  466MOL0     H64260   6.241   0.160  11.268 -1.0150  0.6294 -0.6897
  466MOL0     H64261   6.309   0.312  11.290  1.5119 -1.6794 -1.6954
  466MOL0     H64262   6.486   0.175  11.351 -1.5842  0.6228 -0.4981
  466MOL0     H64263   6.429   0.221  11.504 -0.5643  1.2679  0.6315
  466MOL0     H64264   6.347   0.001  11.556  1.6174 -1.6527  0.1677
  466MOL0     H64265   6.320  -0.048  11.384  2.2021 -0.6589 -1.9829
  466MOL0     H64266   6.741  -0.054  11.531 -0.5419  0.4598  2.3929
  466MOL0     H64267   6.904  -0.120  11.702 -0.9082  0.7052 -1.0692
  466MOL0     H64268   6.954  -0.225  11.583  1.4449 -0.0275  0.6641
  466MOL0     H64269   6.923  -0.291  11.751 -3.6916 -2.8704 -0.9056
  466MOL0     H64270   6.909  -0.723  11.593 -0.8025  0.9071  0.3377
  466MOL0     H64271   7.002  -0.931  11.694 -0.4608 -0.8112  0.6042
  466MOL0     H64272   6.822  -1.105  11.885  0.9220 -0.9157 -1.5517
  466MOL0     H64273   6.988  -1.137  11.822  0.8462 -1.2733 -0.1477
  466MOL0     H64274   6.907  -1.329  11.952 -0.0258  0.7785 -2.4739
  466MOL0     H64275   7.060  -1.258  11.999  0.3762 -1.8694 -0.5194
  466MOL0     H64276   6.959  -1.121  12.181 -1.9105  0.8353 -0.3704
  466MOL0     H64277   6.962  -1.293  12.200  0.6460  2.1786  3.8117
  466MOL0     H64278   6.696  -1.274  12.111 -2.1523  2.4750 -1.2451
  466MOL0     H64279   6.742  -1.103  12.121  0.1317  0.3118  1.0272
  466MOL0     H64280   6.597  -1.184  12.325 -1.0189  4.2445 -3.4474
  466MOL0     H64281   6.721  -1.291  12.351 -2.4019  0.5555  1.5800
  466MOL0     H64282   6.811  -1.005  12.337  3.2796 -0.3997  0.3543
  466MOL0     H64283   6.890  -1.129  12.428  1.3541  0.0826 -3.0920
  466MOL0     H64284   6.655  -1.128  12.575  0.5303  1.0060  3.2288
  466MOL0     H64285   6.650  -0.961  12.514 -1.1494 -1.3004 -1.2426
  466MOL0     H64286   6.880  -1.113  12.639  1.1887  0.0497 -1.9473
  466MOL0     H64287   6.755  -1.014  12.731 -0.8878  1.6696 -1.0966
  466MOL0     H64288   6.922  -0.781  12.087 -1.1853 -4.0063 -0.8930
  466MOL0     H64289   6.822  -0.573  11.979 -1.1009 -0.7480 -1.4776
  466MOL0     H64290   6.462  -0.450  11.655 -1.7706 -0.5119 -1.5255
  466MOL0     H64291   6.377  -0.268  11.499 -1.1127  0.2997  0.7415
  466MOL0     H64292   5.003   0.859  10.614  0.3677  0.6238  0.1661
  466MOL0     H64293   4.809   0.884  10.487  1.5037  0.3443 -0.2440
  466MOL0     H64294   4.555   0.858  10.252 -1.1083  1.6531 -0.1261
  466MOL0     H64295   4.383   0.919  10.105  2.1725 -1.3241 -0.1182
  466MOL0     H64296   4.201   1.029  10.029 -0.6399 -0.4495  0.4445
  466MOL0     H64297   4.195   0.875   9.933  0.8986  0.4869  0.6696
  466MOL0     H64298   3.964   1.046  10.035 -0.8869 -0.1522 -0.5257
  466MOL0     H64299   3.939   0.890   9.971 -0.6048  0.8464 -0.2826
  466MOL0     H64300   4.094   1.084   9.797  0.3449 -0.8223  1.2758
  466MOL0     H64301   4.004   0.943   9.747 -0.3716  0.2097 -1.4606
  466MOL0     H64302   3.866   1.201   9.829 -0.2089 -0.1032  0.0674
  466MOL0     H64303   3.790   1.055   9.798 -0.1966  1.8437 -0.2654
  466MOL0     H64304   3.901   1.125   9.394  0.0997  0.5245  0.8986
  466MOL0     H64305   4.100   0.711  10.352 -2.8844  3.3871 -2.1739
  466MOL0     H64306   4.183   0.570  10.531  0.2894  0.9736  0.3855
  466MOL0     H64307   4.352   0.568  10.564  0.1375 -0.6293 -2.4619
  466MOL0     H64308   4.243   0.695  10.642 -1.3745 -2.0767  1.6568
  467MOL0     O64309   7.188  11.338   4.558 -0.1472  0.4247  0.6702
  467MOL0     C64310   7.260  11.348   4.459 -0.0635  1.4701 -0.5002
  467MOL0     O64311   7.287  11.461   4.378  0.7530 -0.1918 -0.2041
  467MOL0     C64312   7.186  11.555   4.384  0.0065 -0.0027 -0.3615
  467MOL0     C64313   7.049  11.522   4.373  1.7048  0.0474  0.1731
  467MOL0     C64314   6.955  11.622   4.370  0.3583 -0.3091  0.7070
  467MOL0     C64315   6.991  11.756   4.370 -0.0399 -1.5852 -0.5810
  467MOL0     O64316   6.902  11.862   4.378 -0.0021  0.6485  0.3439
  467MOL0     C64317   6.773  11.861   4.303 -0.6931  0.4710  0.5929
  467MOL0     C64318   6.704  11.998   4.303 -0.6278 -0.3194  0.6959
  467MOL0     C64319   6.769  12.100   4.202  0.5545  0.4229 -0.2948
  467MOL0     C64320   6.932  12.100   4.193  0.7313 -0.4682  0.2690
  467MOL0     C64321   6.982  12.206   4.100  0.4653 -0.1474  0.5232
  467MOL0     C64322   7.128  12.217   4.093  0.1401 -0.6646  0.1490
  467MOL0     C64323   7.195  12.088   4.058  0.2178  0.0558 -0.2214
  467MOL0     C64324   7.341  12.098   4.087 -0.0602  0.0003 -0.7799
  467MOL0     N64325   7.361  12.116   4.236  0.3459  0.2342  0.8049
  467MOL0     C64326   7.411  12.237   4.280  0.2175 -0.1568  0.2169
  467MOL0     C64327   7.447  12.197   4.410  0.3074 -0.0312 -0.1847
  467MOL0     C64328   7.491  12.291   4.514 -1.0605  0.2673 -0.5339
  467MOL0     C64329   7.638  12.286   4.563  0.4997 -0.2931 -0.0099
  467MOL0     C64330   7.652  12.385   4.681 -0.3760 -0.3678  0.1643
  467MOL0     C64331   7.763  12.367   4.783  0.5861 -0.6588 -0.0274
  467MOL0     O64332   7.881  12.406   4.716 -0.2069 -0.2141 -0.3494
  467MOL0     C64333   7.977  12.456   4.792  0.0477 -0.9472  0.7831
  467MOL0     C64334   8.078  12.508   4.716 -0.2424  0.5459 -0.5352
  467MOL0     C64335   8.202  12.558   4.776  0.7651  1.1538  0.2149
  467MOL0     C64336   8.310  12.609   4.684 -0.2387 -1.1641 -0.3020
  467MOL0     C64337   8.213  12.548   4.918  0.9073  0.8519  0.0896
  467MOL0     C64338   8.322  12.598   5.005  0.1804 -0.6481 -0.0648
  467MOL0     O64339   8.283  12.617   5.137  0.2013  0.3644 -0.0008
  467MOL0     C64340   8.380  12.615   5.244  0.2073  0.4428 -0.1550
  467MOL0     C64341   8.334  12.680   5.366 -0.4027  0.1211 -0.1529
  467MOL0     C64342   8.422  12.692   5.474  0.9223  1.0600 -0.6787
  467MOL0     C64343   8.549  12.632   5.469 -0.2776 -0.3140 -0.2283
  467MOL0     O64344   8.644  12.625   5.570  0.7398  0.1525  0.1200
  467MOL0     C64345   8.637  12.699   5.695  0.5522  0.3229 -0.5088
  467MOL0     C64346   8.769  12.732   5.764 -0.3303  0.1724  1.2031
  467MOL0     C64347   8.869  12.610   5.756 -0.1794 -0.3861 -0.0702
  467MOL0     C64348   8.970  12.606   5.876 -0.4418  0.1279  0.2712
  467MOL0     C64349   8.919  12.636   6.024 -0.5040  0.3129 -1.0219
  467MOL0     C64350   9.030  12.613   6.123  0.1290 -0.1973 -0.1554
  467MOL0     C64351   8.981  12.618   6.277 -0.2954  0.6138  0.7009
  467MOL0     C64352   9.085  12.585   6.373  0.5592  1.1078 -0.4313
  467MOL0    Cl64353   9.125  12.407   6.362 -0.4276  0.0949  0.1752
  467MOL0     C64354   8.590  12.566   5.359  0.2599 -0.1112  0.2395
  467MOL0     C64355   8.506  12.559   5.242 -0.2473 -0.4608 -0.0201
  467MOL0     O64356   8.431  12.616   4.957 -0.7250  0.0980  0.1817
  467MOL0     C64357   8.115  12.477   4.992 -0.0678 -0.1953  0.0367
  467MOL0     C64358   7.994  12.436   4.933 -0.8968  0.2416  0.4764
  467MOL0     N64359   7.423  12.065   4.435  0.3096 -0.3395 -0.5152
  467MOL0     N64360   7.373  12.020   4.326 -0.7424  1.4930  0.2787
  467MOL0     C64361   7.129  11.785   4.378  0.7101 -0.2663 -0.0346
  467MOL0     C64362   7.224  11.689   4.389  0.1521  1.2061  0.2661
  467MOL0     C64363   7.362  11.239   4.430 -0.4977 -0.2870  0.0449
  467MOL0     C64364   7.489  11.264   4.384 -0.1081  0.0087  0.5382
  467MOL0     C64365   7.584  11.167   4.371 -0.3181  1.1625  0.5097
  467MOL0     C64366   7.547  11.035   4.409 -0.5943  0.2244  0.0831
  467MOL0     O64367   7.650  10.936   4.391  0.4199  0.3447 -0.1779
  467MOL0     C64368   7.621  10.799   4.357 -0.0846 -0.5496 -0.6421
  467MOL0     C64369   7.748  10.721   4.380 -0.7163  0.2024  0.2977
  467MOL0     C64370   7.860  10.748   4.269 -0.0854 -0.1728 -0.4603
  467MOL0     C64371   7.995  10.681   4.277  0.6204  1.1286 -0.3759
  467MOL0     C64372   8.096  10.770   4.218 -0.5945  0.6410  0.7626
  467MOL0     C64373   8.184  10.836   4.162 -0.0375 -0.1698 -0.5730
  467MOL0     C64374   7.420  11.007   4.459  1.1098  0.4849  0.3025
  467MOL0     C64375   7.323  11.105   4.463 -0.0753 -0.4461 -0.9594
  467MOL0     C64376   7.179  11.067   4.491 -0.5162  0.2911 -1.2779
  467MOL0     H64377   7.019  11.418   4.360 -0.6747  0.8421 -1.2823
  467MOL0     H64378   6.851  11.590   4.374  0.9955 -2.6601 -0.0099
  467MOL0     H64379   6.706  11.785   4.345  0.1201 -1.1479 -0.9050
  467MOL0     H64380   6.795  11.819   4.205  1.5894 -2.6457  2.2140
  467MOL0     H64381   6.596  11.993   4.291 -0.2789 -2.3735 -3.4895
  467MOL0     H64382   6.729  12.045   4.398 -3.2419  2.0983  0.3246
  467MOL0     H64383   6.721  12.078   4.106 -0.8588 -0.2763  0.5473
  467MOL0     H64384   6.738  12.199   4.235  1.6268  1.3533 -1.9150
  467MOL0     H64385   6.977  12.124   4.290  2.2033 -2.1621  0.0510
  467MOL0     H64386   6.942  12.000   4.149 -0.9114 -1.2550  1.5529
  467MOL0     H64387   6.939  12.304   4.125 -0.2582 -0.5133  0.7349
  467MOL0     H64388   6.952  12.181   3.998  1.3751 -0.9500  0.4405
  467MOL0     H64389   7.158  12.295   4.022 -0.7827  1.4509  1.9787
  467MOL0     H64390   7.147  12.264   4.190  2.5484  0.6262 -0.8520
  467MOL0     H64391   7.177  12.067   3.953  0.6385 -3.1450  0.2571
  467MOL0     H64392   7.148  12.003   4.110 -2.1198  0.9315 -0.7541
  467MOL0     H64393   7.395  12.008   4.055 -2.0351  0.1309 -5.2426
  467MOL0     H64394   7.385  12.177   4.027 -2.4612  1.8450 -0.2898
  467MOL0     H64395   7.422  12.333   4.230  3.9681 -0.9298 -0.7128
  467MOL0     H64396   7.427  12.274   4.602 -2.1458 -3.6982 -1.8736
  467MOL0     H64397   7.473  12.393   4.478 -3.8185  0.8847  2.1021
  467MOL0     H64398   7.655  12.183   4.597 -2.5426 -0.6034  0.8365
  467MOL0     H64399   7.704  12.323   4.484 -0.0365 -0.7489 -0.6885
  467MOL0     H64400   7.639  12.489   4.648 -0.8603 -0.3021  0.5493
  467MOL0     H64401   7.561  12.376   4.742 -0.2035  2.3616  0.9280
  467MOL0     H64402   7.730  12.423   4.871  0.4574 -0.7918  0.0111
  467MOL0     H64403   7.771  12.259   4.798 -1.0676 -0.8360 -0.2001
  467MOL0     H64404   8.067  12.509   4.608 -0.2295 -0.4234 -0.5531
  467MOL0     H64405   8.399  12.547   4.693 -0.2879 -1.0025  1.6514
  467MOL0     H64406   8.331  12.710   4.720  0.2080 -0.7815 -1.5772
  467MOL0     H64407   8.284  12.614   4.577 -0.0337  0.4981 -0.2925
  467MOL0     H64408   8.235  12.724   5.359 -0.3184  0.3336  0.0019
  467MOL0     H64409   8.395  12.747   5.563 -2.1514  1.1405 -1.5747
  467MOL0     H64410   8.585  12.794   5.681 -1.1781 -0.9422 -3.9437
  467MOL0     H64411   8.575  12.641   5.764  1.3957 -0.9785 -0.7966
  467MOL0     H64412   8.807  12.826   5.724 -1.7255  1.6056  3.0766
  467MOL0     H64413   8.747  12.751   5.869 -1.3333 -1.8720  1.4104
  467MOL0     H64414   8.924  12.604   5.662  0.8089  1.6704  0.3081
  467MOL0     H64415   8.802  12.524   5.762  0.5601 -0.8961  1.3823
  467MOL0     H64416   9.047  12.681   5.855  0.8130 -1.4737 -1.1502
  467MOL0     H64417   9.013  12.505   5.870 -1.6943 -0.3810 -0.4348
  467MOL0     H64418   8.888  12.741   6.032 -1.5953  0.1458 -2.6196
  467MOL0     H64419   8.834  12.570   6.048 -0.5583  0.2076 -1.5046
  467MOL0     H64420   9.113  12.685   6.122  0.0659 -0.1133 -1.3941
  467MOL0     H64421   9.074  12.517   6.095  0.3204 -0.0364 -0.4197
  467MOL0     H64422   8.904  12.541   6.290 -0.4919  0.5170 -0.8719
  467MOL0     H64423   8.943  12.718   6.300 -0.2088 -0.0250  4.1987
  467MOL0     H64424   9.048  12.604   6.474  0.3397  0.9655 -0.4844
  467MOL0     H64425   9.166  12.657   6.360  0.4242  1.3032 -0.1963
  467MOL0     H64426   8.688  12.522   5.345  1.1070  1.6324  0.4655
  467MOL0     H64427   8.532  12.505   5.151 -0.8262 -0.7995  0.0098
  467MOL0     H64428   8.117  12.448   5.096  1.4612 -0.6146 -0.0832
  467MOL0     H64429   7.913  12.388   4.987  1.9805 -0.6724  4.4542
  467MOL0     H64430   7.147  11.892   4.373 -0.4846  0.0382  1.3644
  467MOL0     H64431   7.328  11.714   4.405  0.5198 -1.3297  2.5229
  467MOL0     H64432   7.521  11.364   4.355  2.3207 -0.9629 -0.4280
  467MOL0     H64433   7.690  11.178   4.352 -0.3921  0.0111 -0.8008
  467MOL0     H64434   7.546  10.757   4.425 -2.4278 -0.5496 -3.0455
  467MOL0     H64435   7.583  10.802   4.254  1.8747  1.6484 -1.3753
  467MOL0     H64436   7.737  10.612   4.370  0.4443  0.2530 -2.7813
  467MOL0     H64437   7.789  10.747   4.478  0.1801 -0.0521  0.0044
  467MOL0     H64438   7.825  10.711   4.172 -1.1145  0.4185 -0.3298
  467MOL0     H64439   7.885  10.855   4.268 -0.4514 -0.0819 -1.9878
  467MOL0     H64440   7.985  10.585   4.225  0.3034 -0.1884  1.9703
  467MOL0     H64441   8.011  10.658   4.383 -3.8265 -0.4501  0.1343
  467MOL0     H64442   8.264  10.894   4.120  1.5067  0.0577  2.3710
  467MOL0     H64443   7.389  10.909   4.493 -0.6865  2.4477  5.4247
  467MOL0     H64444   7.101  11.119   4.433 -1.9174  2.3375  2.1272
  467MOL0     H64445   7.162  10.960   4.483 -0.8056  0.0702  1.3812
  467MOL0     H64446   7.162  11.078   4.599  0.6118  4.7509 -1.3553
  468MOL0     O64447   9.291   7.526  10.119 -0.9231  0.4131 -0.2683
  468MOL0     C64448   9.185   7.583  10.121 -1.4430  0.3783 -0.1714
  468MOL0     O64449   9.079   7.554  10.040  0.2890  0.4587 -0.2890
  468MOL0     C64450   9.103   7.492   9.921  0.0103  0.7114  0.3512
  468MOL0     C64451   9.139   7.561   9.799  0.3373  0.2814  0.3008
  468MOL0     C64452   9.146   7.504   9.670 -0.5681 -0.4303  0.1605
  468MOL0     C64453   9.116   7.367   9.659 -0.0678  0.2454 -0.3337
  468MOL0     O64454   9.109   7.309   9.540  1.2846  0.2713  0.0424
  468MOL0     C64455   9.177   7.176   9.522  0.2390 -0.1961  0.3780
  468MOL0     C64456   9.115   7.107   9.396 -0.6496  0.3353 -0.7926
  468MOL0     C64457   9.229   7.027   9.338  0.4295 -0.4970 -1.5086
  468MOL0     C64458   9.178   6.957   9.207 -0.3669 -0.3090 -0.7822
  468MOL0     C64459   9.289   6.919   9.114  0.6093 -0.0020 -1.2549
  468MOL0     C64460   9.235   6.829   9.011  0.6900  0.1113 -0.1897
  468MOL0     C64461   9.339   6.753   8.924 -0.1540 -0.6226  0.4273
  468MOL0     C64462   9.340   6.818   8.777  0.6684 -0.6709 -0.0481
  468MOL0     N64463   9.429   6.751   8.684  0.0836  0.5115 -0.0491
  468MOL0     C64464   9.415   6.622   8.635  0.1076 -1.1123  0.5241
  468MOL0     C64465   9.525   6.595   8.559  0.5318  0.0297  0.4390
  468MOL0     C64466   9.536   6.466   8.482  0.5130  0.1812  0.8735
  468MOL0     C64467   9.455   6.465   8.348 -0.9617  0.1012  0.0553
  468MOL0     C64468   9.445   6.324   8.307 -0.4277 -0.4876  0.0484
  468MOL0     C64469   9.351   6.229   8.391 -0.2519 -1.1276  0.7721
  468MOL0     O64470   9.224   6.290   8.400 -0.1554 -0.1604 -0.1335
  468MOL0     C64471   9.140   6.276   8.290  0.3936  0.2326  0.5322
  468MOL0     C64472   9.145   6.165   8.198 -0.4218  0.3971  0.1463
  468MOL0     C64473   9.066   6.163   8.074 -0.9407  0.3113  0.0424
  468MOL0     C64474   9.068   6.037   7.988  0.7183 -0.4592 -0.4032
  468MOL0     C64475   8.978   6.269   8.054 -0.2588  0.2924  0.0032
  468MOL0     C64476   8.891   6.289   7.937 -0.4358  0.3008 -0.1209
  468MOL0     O64477   8.771   6.345   7.951 -0.3422 -0.1749  0.1986
  468MOL0     C64478   8.672   6.347   7.847 -0.6144 -0.0346  0.3202
  468MOL0     C64479   8.655   6.238   7.755  1.0065 -0.5771  0.6977
  468MOL0     C64480   8.553   6.249   7.653  0.3163  0.0575 -0.1804
  468MOL0     C64481   8.467   6.356   7.642  0.1626 -0.0761 -0.1190
  468MOL0     O64482   8.374   6.351   7.539  0.0015 -0.2580  0.7109
  468MOL0     C64483   8.285   6.455   7.524 -0.3941 -1.1110 -0.0398
  468MOL0     C64484   8.148   6.393   7.537 -0.4173 -0.0264  0.7071
  468MOL0     C64485   8.040   6.477   7.608 -0.1644  0.9593 -0.0168
  468MOL0     C64486   8.006   6.601   7.534  0.2232  0.3737  0.2356
  468MOL0     C64487   7.877   6.578   7.460  0.8418  0.1266  0.5438
  468MOL0     C64488   7.826   6.708   7.386  0.0165  0.3710  0.3007
  468MOL0     C64489   7.686   6.690   7.321 -0.3783 -0.4179 -0.8619
  468MOL0     C64490   7.647   6.813   7.229  0.1704  0.7819 -0.0702
  468MOL0    Cl64491   7.480   6.800   7.174  0.1773 -0.2507 -0.4852
  468MOL0     C64492   8.485   6.454   7.735  0.4978 -0.1547  0.0262
  468MOL0     C64493   8.585   6.447   7.836  0.4304 -0.3421  0.5403
  468MOL0     O64494   8.941   6.265   7.830  0.5449 -0.2492 -0.0318
  468MOL0     C64495   8.973   6.372   8.151 -0.4051 -0.7181  0.6674
  468MOL0     C64496   9.049   6.375   8.262 -0.4307 -0.9282 -0.8401
  468MOL0     N64497   9.620   6.697   8.578  0.3899  0.1098  0.6288
  468MOL0     N64498   9.564   6.787   8.652  0.3662  0.4588  0.2116
  468MOL0     C64499   9.081   7.298   9.782  0.4089 -0.4234  0.5522
  468MOL0     C64500   9.084   7.354   9.912  0.6488 -0.1432 -0.0533
  468MOL0     C64501   9.167   7.696  10.215  0.2884  0.4508  0.2053
  468MOL0     C64502   9.144   7.679  10.349  0.0584  0.5005  0.0016
  468MOL0     C64503   9.116   7.778  10.442  0.2180 -0.0479  0.0052
  468MOL0     C64504   9.089   7.901  10.405 -0.6690 -0.3304  0.7722
  468MOL0     O64505   9.043   7.995  10.496 -0.7124 -0.0515  0.3805
  468MOL0     C64506   8.988   8.115  10.448 -0.1376 -0.3605  0.2479
  468MOL0     C64507   8.940   8.197  10.565 -0.3607 -0.5102  0.2808
  468MOL0     C64508   9.062   8.254  10.640 -0.2103  0.1871  0.4435
  468MOL0     C64509   9.024   8.384  10.726  0.1695  0.9517  0.0426
  468MOL0     C64510   8.972   8.484  10.645  0.2965  0.7234  0.3291
  468MOL0     C64511   8.924   8.584  10.589  0.2409  0.2633 -0.2744
  468MOL0     C64512   9.129   7.929  10.266  0.2411  0.0557 -0.2947
  468MOL0     C64513   9.168   7.831  10.174  0.3130  0.3417  0.8161
  468MOL0     C64514   9.198   7.877  10.029 -0.3401  0.3303  0.2515
  468MOL0     H64515   9.138   7.669   9.809 -1.7117  0.5134 -1.5824
  468MOL0     H64516   9.164   7.555   9.575 -2.0654 -0.9251 -0.4188
  468MOL0     H64517   9.149   7.107   9.602 -0.2541  0.8756  1.1659
  468MOL0     H64518   9.285   7.191   9.524  0.1878  0.1777  1.6132
  468MOL0     H64519   9.035   7.039   9.425  1.8874 -1.2684  3.4481
  468MOL0     H64520   9.074   7.176   9.322 -0.9261  2.8217  1.5254
  468MOL0     H64521   9.303   7.105   9.314  0.6941 -0.2322  0.0170
  468MOL0     H64522   9.265   6.944   9.399  0.5692 -1.5942 -3.0350
  468MOL0     H64523   9.123   6.864   9.225 -0.7867  0.3693  2.0478
  468MOL0     H64524   9.121   7.033   9.152  0.6992  1.8693  0.9704
  468MOL0     H64525   9.356   6.857   9.174  0.4690  0.4945 -0.5661
  468MOL0     H64526   9.348   7.002   9.075  1.5229 -0.8891 -1.7923
  468MOL0     H64527   9.171   6.750   9.050  1.1767  0.5772  1.6756
  468MOL0     H64528   9.172   6.893   8.948 -0.4615 -0.4938  0.3158
  468MOL0     H64529   9.308   6.648   8.922 -1.4998 -0.2637 -2.7989
  468MOL0     H64530   9.441   6.760   8.962 -0.0586  2.7704 -0.1544
  468MOL0     H64531   9.237   6.814   8.740  0.8486 -2.8283 -0.4303
  468MOL0     H64532   9.384   6.918   8.777  1.4717 -1.0133  0.7120
  468MOL0     H64533   9.325   6.560   8.632 -2.0651  1.7517  1.6651
  468MOL0     H64534   9.504   6.381   8.543 -0.3450 -0.3309 -0.2706
  468MOL0     H64535   9.639   6.440   8.456  0.8190  2.7167 -0.7857
  468MOL0     H64536   9.351   6.498   8.359 -1.0660 -0.0654 -0.3849
  468MOL0     H64537   9.501   6.523   8.268  3.1655 -1.2078  1.2517
  468MOL0     H64538   9.419   6.317   8.201  1.8800 -0.0252 -0.6018
  468MOL0     H64539   9.540   6.272   8.313 -0.1509 -0.1061 -0.7647
  468MOL0     H64540   9.349   6.128   8.351 -2.1036  0.0631 -2.5378
  468MOL0     H64541   9.389   6.225   8.494  0.0823 -0.2074  0.6967
  468MOL0     H64542   9.205   6.078   8.222  0.3111  0.3028 -1.7939
  468MOL0     H64543   8.975   6.027   7.931 -0.8186  1.5435  1.5233
  468MOL0     H64544   9.085   5.948   8.049  0.6455 -0.2024 -0.0015
  468MOL0     H64545   9.141   6.055   7.910 -0.6792  1.6877 -1.2981
  468MOL0     H64546   8.719   6.151   7.763  0.9661 -1.0854 -2.9243
  468MOL0     H64547   8.539   6.167   7.583 -0.3685 -1.6765  1.8692
  468MOL0     H64548   8.304   6.541   7.589  0.5378 -1.5683  0.3099
  468MOL0     H64549   8.306   6.503   7.428  0.4094  1.4237  1.2929
  468MOL0     H64550   8.113   6.347   7.443  0.1125  0.9245  0.0322
  468MOL0     H64551   8.170   6.309   7.603  1.1427  1.9958  2.9334
  468MOL0     H64552   8.069   6.495   7.712  2.0119 -0.1573 -0.3818
  468MOL0     H64553   7.954   6.410   7.615  0.9318 -0.4726  0.0830
  468MOL0     H64554   8.083   6.630   7.463 -1.7632  4.7728 -0.4486
  468MOL0     H64555   7.972   6.672   7.610  0.3037 -1.6427  2.2871
  468MOL0     H64556   7.895   6.507   7.379 -0.3397  0.5825 -0.1445
  468MOL0     H64557   7.802   6.542   7.532  0.3985 -2.9599 -1.2933
  468MOL0     H64558   7.892   6.733   7.302  1.2139  2.1081  1.6753
  468MOL0     H64559   7.814   6.797   7.449  0.2777  1.8506 -1.6319
  468MOL0     H64560   7.618   6.664   7.403  0.4581  2.0445  0.7399
  468MOL0     H64561   7.694   6.612   7.246  0.2247 -1.5882  0.3740
  468MOL0     H64562   7.712   6.807   7.141 -1.0504  0.0763 -0.9690
  468MOL0     H64563   7.648   6.910   7.280 -0.6876  1.0064 -0.4515
  468MOL0     H64564   8.425   6.544   7.740  1.4031  0.3918  1.7726
  468MOL0     H64565   8.596   6.520   7.916  0.6384 -1.3667  1.4716
  468MOL0     H64566   8.896   6.448   8.151  0.8061  0.5422  0.2425
  468MOL0     H64567   9.038   6.458   8.331 -1.7697 -0.7049 -1.2942
  468MOL0     H64568   9.055   7.193   9.784  3.0786 -1.1341  1.3704
  468MOL0     H64569   9.044   7.291   9.991  1.1777  1.4800  1.5938
  468MOL0     H64570   9.156   7.577  10.387  2.5558  0.8949  0.4442
  468MOL0     H64571   9.106   7.749  10.546  1.1275  0.0129  0.1103
  468MOL0     H64572   9.060   8.179  10.397  0.1543  2.6084  3.9849
  468MOL0     H64573   8.897   8.093  10.391 -0.5075 -2.5299  1.5600
  468MOL0     H64574   8.877   8.138  10.631 -1.9094  1.6626  0.8547
  468MOL0     H64575   8.880   8.283  10.533 -1.0120 -0.9506  0.3068
  468MOL0     H64576   9.105   8.174  10.700  0.2067 -1.2320 -1.6270
  468MOL0     H64577   9.141   8.288  10.572 -1.5632  2.2744 -0.1686
  468MOL0     H64578   9.123   8.415  10.760  1.5749  0.7464 -3.4272
  468MOL0     H64579   8.962   8.365  10.814 -0.9984 -0.9020 -1.1027
  468MOL0     H64580   8.890   8.666  10.528 -3.1843 -0.6253  0.2473
  468MOL0     H64581   9.130   8.033  10.234  1.7328  0.8817  2.1298
  468MOL0     H64582   9.261   7.806   9.975  0.0475 -1.2468  2.6122
  468MOL0     H64583   9.109   7.895   9.967  0.9673  3.5675 -0.8896
  468MOL0     H64584   9.244   7.976  10.035 -1.6546  1.0680 -1.1576
  469MOL0     O64585  10.006   1.185   6.650 -0.2114  0.0088 -0.0480
  469MOL0     C64586  10.059   1.194   6.762 -0.0521  1.3485  0.3239
  469MOL0     O64587  10.167   1.276   6.794  0.6374 -1.1596 -0.5938
  469MOL0     C64588  10.258   1.317   6.695  0.0457 -0.3422  1.0959
  469MOL0     C64589  10.218   1.365   6.573  0.2427  0.1409 -0.3844
  469MOL0     C64590  10.311   1.407   6.473 -0.7752 -0.2917 -0.6039
  469MOL0     C64591  10.445   1.417   6.503  0.3196 -0.2148  0.3428
  469MOL0     O64592  10.536   1.472   6.415  0.1535 -0.1933 -0.2059
  469MOL0     C64593  10.479   1.573   6.325  0.3437 -0.3660  0.1515
  469MOL0     C64594  10.463   1.501   6.185 -0.7583  0.0185  1.4934
  469MOL0     C64595  10.502   1.594   6.049  0.2373 -0.0677  0.2502
  469MOL0     C64596  10.647   1.658   6.054  0.6539 -0.3214  0.6991
  469MOL0     C64597  10.669   1.740   5.931  0.2055  0.2698 -0.1627
  469MOL0     C64598  10.805   1.807   5.922  0.9020 -0.2088  0.3109
  469MOL0     C64599  10.928   1.713   5.943  0.0375 -0.3232 -1.1866
  469MOL0     C64600  10.947   1.611   5.834  0.7496 -0.1487  0.3676
  469MOL0     N64601  11.078   1.546   5.855 -0.0134  0.2572  0.6703
  469MOL0     C64602  11.090   1.412   5.904  0.2897 -0.3495  0.4416
  469MOL0     C64603  11.214   1.385   5.866 -0.6125  0.5180 -0.1360
  469MOL0     C64604  11.279   1.252   5.880  0.0476  0.1389  0.1102
  469MOL0     C64605  11.396   1.268   5.989 -0.2091  0.8502  0.8571
  469MOL0     C64606  11.347   1.290   6.133  0.5207  0.5152  0.0194
  469MOL0     C64607  11.457   1.246   6.238 -0.0640  0.0268  0.2433
  469MOL0     O64608  11.415   1.298   6.367  0.0102 -0.1766 -0.0051
  469MOL0     C64609  11.467   1.407   6.419  0.2986 -1.2787  0.2736
  469MOL0     C64610  11.585   1.478   6.369  0.5193 -0.1555  0.0620
  469MOL0     C64611  11.645   1.590   6.433 -0.1935 -0.2532 -0.7079
  469MOL0     C64612  11.761   1.658   6.363  1.5209  0.4488 -0.6957
  469MOL0     C64613  11.578   1.643   6.547  0.7391 -0.5989 -0.1964
  469MOL0     C64614  11.621   1.766   6.615 -0.6239  0.4413  0.5521
  469MOL0     O64615  11.537   1.818   6.703 -0.1372  0.5521 -0.3502
  469MOL0     C64616  11.575   1.925   6.783  1.0247 -0.4113 -0.8153
  469MOL0     C64617  11.486   2.031   6.801  0.5944 -0.2073 -0.8693
  469MOL0     C64618  11.514   2.145   6.869 -0.1494  0.5482 -0.2425
  469MOL0     C64619  11.631   2.157   6.947 -1.1135 -0.4503  0.8217
  469MOL0     O64620  11.635   2.252   7.043 -0.1559 -0.8562 -0.2642
  469MOL0     C64621  11.610   2.206   7.180  0.1252  0.2517 -0.1199
  469MOL0     C64622  11.464   2.208   7.218 -0.1736 -0.3221  0.0670
  469MOL0     C64623  11.450   2.141   7.362  0.5176 -0.6519 -0.4874
  469MOL0     C64624  11.486   2.227   7.482  0.5674 -0.1944  0.4575
  469MOL0     C64625  11.480   2.143   7.605 -0.2621 -0.0354  0.1651
  469MOL0     C64626  11.493   2.231   7.732  0.6567  0.4806 -1.1609
  469MOL0     C64627  11.351   2.294   7.768 -0.1551  0.0225 -0.2885
  469MOL0     C64628  11.356   2.440   7.775 -0.6401  0.9985 -0.7599
  469MOL0    Cl64629  11.455   2.505   7.909 -0.4109  0.5208  0.5692
  469MOL0     C64630  11.725   2.045   6.948  0.5262 -0.4789  0.7211
  469MOL0     C64631  11.691   1.930   6.868 -0.9054 -0.0821 -0.3765
  469MOL0     O64632  11.731   1.814   6.593  0.5015  0.5177 -0.5810
  469MOL0     C64633  11.461   1.581   6.587  0.4959  0.7284 -0.4003
  469MOL0     C64634  11.420   1.462   6.537 -0.6095 -0.2176  0.0676
  469MOL0     N64635  11.278   1.489   5.797  0.8574  1.2559  0.0144
  469MOL0     N64636  11.195   1.587   5.795 -0.5707 -0.2854 -0.4228
  469MOL0     C64637  10.489   1.374   6.630 -1.0368 -0.7550  0.4226
  469MOL0     C64638  10.397   1.328   6.719  0.0616 -1.0547 -0.3774
  469MOL0     C64639  10.000   1.132   6.875  0.6696  0.7928 -0.6170
  469MOL0     C64640   9.874   1.151   6.919  0.5952 -0.8071 -0.5439
  469MOL0     C64641   9.827   1.111   7.043  0.4785 -0.5011 -0.5912
  469MOL0     C64642   9.913   1.044   7.127  0.2987  1.1721 -1.2386
  469MOL0     O64643   9.881   0.995   7.253 -0.7341 -0.1203 -0.2611
  469MOL0     C64644   9.760   0.930   7.269 -0.4550  0.3378  0.5334
  469MOL0     C64645   9.773   0.818   7.367  0.2449 -0.1774 -0.0858
  469MOL0     C64646   9.827   0.692   7.302  1.2697 -0.8262  0.1816
  469MOL0     C64647   9.858   0.592   7.407 -0.8556 -0.5123 -0.6816
  469MOL0     C64648   9.865   0.465   7.338 -0.0562 -0.7984 -0.4491
  469MOL0     C64649   9.853   0.353   7.300  0.4095  0.8043 -0.2198
  469MOL0     C64650  10.043   1.029   7.089  0.4914 -0.2323 -0.1323
  469MOL0     C64651  10.084   1.063   6.967 -0.3673  0.0941 -0.5277
  469MOL0     C64652  10.226   1.021   6.922  0.2540 -0.4199 -0.7248
  469MOL0     H64653  10.112   1.368   6.550  0.2229  2.3314 -0.1648
  469MOL0     H64654  10.282   1.418   6.369 -1.1638 -1.4279 -0.6279
  469MOL0     H64655  10.543   1.661   6.312  2.5467 -1.8800  0.1279
  469MOL0     H64656  10.382   1.612   6.357  1.1705  1.1750  0.9162
  469MOL0     H64657  10.532   1.417   6.184  1.5874  1.8289  1.5559
  469MOL0     H64658  10.359   1.473   6.170 -0.3187 -0.1292 -2.0047
  469MOL0     H64659  10.489   1.537   5.956  2.9306  1.4910 -1.2224
  469MOL0     H64660  10.432   1.676   6.031 -0.4593 -0.3243  1.6363
  469MOL0     H64661  10.663   1.717   6.145  3.1575 -0.7697  0.6320
  469MOL0     H64662  10.716   1.576   6.075 -0.4852 -0.8461  2.6297
  469MOL0     H64663  10.582   1.805   5.918  1.1928  1.5209 -0.6352
  469MOL0     H64664  10.665   1.677   5.841  0.4209  0.9388 -0.6511
  469MOL0     H64665  10.810   1.855   5.823 -2.5038 -0.4932 -0.1058
  469MOL0     H64666  10.799   1.880   6.003 -1.4385  0.3262 -0.2766
  469MOL0     H64667  10.931   1.670   6.044 -0.1346 -0.0684 -1.0720
  469MOL0     H64668  11.016   1.778   5.940  1.5386 -2.1015  0.9343
  469MOL0     H64669  10.868   1.537   5.847 -1.8407  2.1466 -1.1428
  469MOL0     H64670  10.947   1.637   5.728  1.7036 -0.9570  0.1569
  469MOL0     H64671  11.017   1.345   5.949  0.7656 -0.0320  1.7263
  469MOL0     H64672  11.319   1.211   5.787  3.1785  0.4168  1.1976
  469MOL0     H64673  11.202   1.181   5.912 -0.4195  0.4554 -0.2951
  469MOL0     H64674  11.469   1.187   5.983  0.1106  1.2289 -0.9856
  469MOL0     H64675  11.454   1.354   5.955 -1.4913  1.0581 -0.9618
  469MOL0     H64676  11.317   1.395   6.134 -0.7053  0.1662  0.6716
  469MOL0     H64677  11.259   1.233   6.161  0.0844  2.5505  3.2273
  469MOL0     H64678  11.457   1.138   6.252 -3.6311  0.0157  1.0609
  469MOL0     H64679  11.557   1.286   6.220  0.2244  0.7421  2.9198
  469MOL0     H64680  11.643   1.447   6.283  0.5906  3.3033 -1.3362
  469MOL0     H64681  11.796   1.612   6.270  2.5151  1.8655 -1.0562
  469MOL0     H64682  11.848   1.656   6.429  0.3748 -3.0643  0.9686
  469MOL0     H64683  11.731   1.762   6.349 -1.3674 -0.1714  0.0927
  469MOL0     H64684  11.391   2.029   6.749  0.4618  1.7616 -0.7555
  469MOL0     H64685  11.444   2.227   6.869  1.6977  2.2053  0.0406
  469MOL0     H64686  11.641   2.102   7.195 -0.8822  0.2222  2.3694
  469MOL0     H64687  11.673   2.258   7.253  1.2581 -1.1328 -0.0692
  469MOL0     H64688  11.427   2.311   7.220 -1.1648 -0.6670 -0.2120
  469MOL0     H64689  11.411   2.143   7.148 -0.9314 -1.1269  1.3399
  469MOL0     H64690  11.526   2.062   7.361  2.9120  1.4902 -0.6456
  469MOL0     H64691  11.350   2.099   7.372 -0.4007  1.0879 -1.7038
  469MOL0     H64692  11.415   2.311   7.486  1.9069  0.9404  3.5899
  469MOL0     H64693  11.587   2.270   7.475 -0.2147  1.8421  0.8152
  469MOL0     H64694  11.382   2.094   7.605 -0.9935  1.3710  0.3148
  469MOL0     H64695  11.556   2.065   7.598  0.5064  0.8153 -1.7116
  469MOL0     H64696  11.562   2.312   7.710  0.1778  1.3890  0.5548
  469MOL0     H64697  11.524   2.178   7.823 -3.3361 -0.4395 -0.1418
  469MOL0     H64698  11.304   2.245   7.854  1.1500 -2.5627 -0.9430
  469MOL0     H64699  11.286   2.277   7.681 -0.2983 -2.3090  0.2024
  469MOL0     H64700  11.254   2.477   7.785 -0.8207  0.8210 -1.8487
  469MOL0     H64701  11.387   2.494   7.685  0.6970 -1.2739 -1.7469
  469MOL0     H64702  11.814   2.047   7.010 -0.2754 -1.2391  1.9234
  469MOL0     H64703  11.765   1.851   6.859  1.4899  1.6253  2.5125
  469MOL0     H64704  11.418   1.620   6.678 -0.3109  0.0040 -0.4582
  469MOL0     H64705  11.343   1.397   6.577 -0.1573 -0.7078  0.1508
  469MOL0     H64706  10.592   1.382   6.662 -0.1671  0.9802 -2.4200
  469MOL0     H64707  10.436   1.294   6.815  1.1791 -0.8257 -0.7263
  469MOL0     H64708   9.807   1.192   6.843 -1.3239  0.1656  1.5583
  469MOL0     H64709   9.724   1.127   7.075  0.4415 -1.0010 -0.4537
  469MOL0     H64710   9.681   0.998   7.301  0.0236  2.3264 -2.0938
  469MOL0     H64711   9.738   0.881   7.173  3.0799 -0.6991  0.0843
  469MOL0     H64712   9.673   0.785   7.395  0.0425  0.0568 -0.5245
  469MOL0     H64713   9.838   0.844   7.451  0.4423 -0.8750 -0.0166
  469MOL0     H64714   9.753   0.650   7.234  0.6722  1.1820 -0.4737
  469MOL0     H64715   9.913   0.719   7.240  0.0774 -2.5318 -2.3889
  469MOL0     H64716   9.784   0.598   7.487  0.0911  1.6992  0.1151
  469MOL0     H64717   9.955   0.614   7.453 -2.8396  3.2463  2.3519
  469MOL0     H64718   9.845   0.250   7.274 -1.1909  0.9894 -0.5813
  469MOL0     H64719  10.111   0.969   7.149  1.6389 -1.0404 -2.1477
  469MOL0     H64720  10.254   1.048   6.819  2.1710  1.4799  0.2141
  469MOL0     H64721  10.310   1.056   6.982  0.4940  1.2218 -1.9441
  469MOL0     H64722  10.212   0.913   6.935  2.8712 -0.4441  3.7173
  470MOL0     O64723  10.008  11.206   0.154 -0.2298 -0.2658  1.1919
  470MOL0     C64724   9.967  11.314   0.101 -1.4406 -0.5748  0.1656
  470MOL0     O64725  10.043  11.423   0.079  0.7731 -0.7752  0.4189
  470MOL0     C64726  10.174  11.437   0.105 -0.3083  1.0581  0.6001
  470MOL0     C64727  10.262  11.389   0.009 -0.0276  0.5447 -1.0094
  470MOL0     C64728  10.400  11.400   0.040 -0.1307  0.2714  1.3074
  470MOL0     C64729  10.441  11.479   0.150 -0.5751  1.0169 -0.4486
  470MOL0     O64730  10.571  11.513   0.155 -0.1555  0.1794  0.2251
  470MOL0     C64731  10.621  11.547   0.284 -0.3387  0.1770 -0.9416
  470MOL0     C64732  10.772  11.579   0.266 -0.0940 -0.2808 -0.5322
  470MOL0     C64733  10.867  11.483   0.196  0.1385  0.1854  0.3572
  470MOL0     C64734  11.002  11.498   0.249  0.3238  0.8307 -0.3630
  470MOL0     C64735  11.106  11.406   0.171  0.4592 -0.1206 -0.1604
  470MOL0     C64736  11.245  11.450   0.218  1.0423  0.5711 -0.4580
  470MOL0     C64737  11.356  11.361   0.172 -0.5593  0.5465 -0.3014
  470MOL0     C64738  11.368  11.355   0.023  0.6924 -0.5515 -0.2158
  470MOL0     N64739  11.494  11.290  -0.011 -0.3598 -0.2567  0.0860
  470MOL0     C64740  11.520  11.190  -0.105  0.1220 -0.7750  0.5299
  470MOL0     C64741  11.650  11.167  -0.104 -0.8205 -0.3333 -0.0844
  470MOL0     C64742  11.720  11.071  -0.186 -0.2992 -0.3868  0.6703
  470MOL0     C64743  11.655  10.930  -0.169  0.0953  0.4900 -0.0525
  470MOL0     C64744  11.677  10.872  -0.028  0.8532  0.1172  0.2739
  470MOL0     C64745  11.553  10.821   0.048  0.4222  0.0142  0.6212
  470MOL0     O64746  11.462  10.922   0.096 -0.1119  0.0297 -0.3834
  470MOL0     C64747  11.375  10.880   0.193  0.0551 -0.8023 -1.1548
  470MOL0     C64748  11.296  10.761   0.191  0.7643  0.1907  0.8503
  470MOL0     C64749  11.193  10.733   0.290 -0.3871 -0.3092 -0.0020
  470MOL0     C64750  11.102  10.620   0.249 -0.0583  1.6264 -0.6526
  470MOL0     C64751  11.185  10.829   0.394 -0.6679 -0.2983 -0.6013
  470MOL0     C64752  11.105  10.799   0.518  0.3379 -0.5386 -0.4508
  470MOL0     O64753  11.097  10.897   0.616  0.7837  0.1606  0.3737
  470MOL0     C64754  11.049  10.852   0.737  0.3440 -0.7277  0.5187
  470MOL0     C64755  10.943  10.922   0.791  0.5597 -0.3962 -0.9051
  470MOL0     C64756  10.892  10.886   0.918 -0.0395 -0.8192  0.2830
  470MOL0     C64757  10.951  10.782   0.986 -1.7908  0.4755 -0.1670
  470MOL0     O64758  10.900  10.750   1.105 -0.4558 -1.0590  0.1271
  470MOL0     C64759  10.976  10.664   1.187  0.5105 -0.4937 -0.6748
  470MOL0     C64760  10.920  10.650   1.327 -0.8846 -0.7828 -0.1328
  470MOL0     C64761  10.929  10.792   1.388  0.0971 -0.2327 -0.1396
  470MOL0     C64762  10.851  10.801   1.526  0.0469 -0.6880 -0.2843
  470MOL0     C64763  10.859  10.943   1.580 -0.2252 -0.0862  0.5882
  470MOL0     C64764  10.754  10.963   1.696 -0.5641 -1.0798  0.5182
  470MOL0     C64765  10.788  10.899   1.833 -0.3510  0.1361  0.5366
  470MOL0     C64766  10.707  10.982   1.936  0.9239  0.1688  0.5328
  470MOL0    Cl64767  10.722  10.948   2.114 -0.3724 -0.1318 -0.2164
  470MOL0     C64768  11.051  10.702   0.925 -0.8111  0.3514  0.0628
  470MOL0     C64769  11.095  10.735   0.798  0.1236  0.5741 -0.4287
  470MOL0     O64770  11.061  10.681   0.526  0.1756 -0.5087  0.4352
  470MOL0     C64771  11.261  10.955   0.390 -1.2163 -0.1018 -0.3914
  470MOL0     C64772  11.347  10.979   0.293  0.1242  0.0798 -1.0780
  470MOL0     N64773  11.717  11.256  -0.021  0.4447  0.4147  0.2629
  470MOL0     N64774  11.623  11.331   0.026 -0.3430  0.4491  0.1007
  470MOL0     C64775  10.349  11.525   0.243 -0.6146  0.3123 -0.2535
  470MOL0     C64776  10.217  11.498   0.224  0.0491  0.4837  0.3143
  470MOL0     C64777   9.822  11.326   0.085 -0.1861 -0.5054 -0.1660
  470MOL0     C64778   9.775  11.470   0.089  0.1069 -0.1274  0.1717
  470MOL0     C64779   9.641  11.499   0.082  0.3009  0.1776  0.9315
  470MOL0     C64780   9.551  11.403   0.037  0.2845 -0.5162 -0.9342
  470MOL0     O64781   9.423  11.436  -0.002 -0.5889 -0.2665  0.7873
  470MOL0     C64782   9.329  11.426   0.103  0.2610 -0.3801  0.0299
  470MOL0     C64783   9.308  11.568   0.170 -0.1166  0.1324  0.6124
  470MOL0     C64784   9.233  11.668   0.096  0.2083  0.3561  1.1005
  470MOL0     C64785   9.213  11.808   0.158  0.6432  0.1478  0.1195
  470MOL0     C64786   9.115  11.834   0.256 -0.7063  0.1085  0.8886
  470MOL0     C64787   9.022  11.857   0.331 -0.1714  0.0915 -0.4418
  470MOL0     C64788   9.591  11.268   0.037 -1.0196  0.0350 -0.3325
  470MOL0     C64789   9.725  11.231   0.063 -0.5952  0.8752 -0.1477
  470MOL0     C64790   9.740  11.078   0.049 -0.5410 -0.0510  0.5166
  470MOL0     H64791  10.224  11.334  -0.077 -4.0083  1.1949  0.1403
  470MOL0     H64792  10.465  11.369  -0.041 -2.8092 -0.3361 -0.7634
  470MOL0     H64793  10.587  11.485   0.368 -2.5910  3.6686  0.9891
  470MOL0     H64794  10.571  11.640   0.312 -0.6030 -0.3667  0.4991
  470MOL0     H64795  10.797  11.679   0.231  0.5669  0.6497  2.3340
  470MOL0     H64796  10.800  11.580   0.372  0.6344  0.5308 -0.7177
  470MOL0     H64797  10.837  11.378   0.198 -0.7593  0.3540 -1.6122
  470MOL0     H64798  10.869  11.517   0.092 -0.0451  3.6979  1.3959
  470MOL0     H64799  11.046  11.599   0.254 -1.0644  1.4031  3.0968
  470MOL0     H64800  11.000  11.465   0.353  1.7064 -1.3134 -0.9475
  470MOL0     H64801  11.087  11.417   0.064  1.1332 -1.4885 -0.4426
  470MOL0     H64802  11.092  11.298   0.187  3.4124 -1.4231 -4.4907
  470MOL0     H64803  11.263  11.556   0.198 -1.4256  0.9707 -0.8016
  470MOL0     H64804  11.236  11.454   0.327  0.9966  1.7479 -0.4967
  470MOL0     H64805  11.338  11.263   0.217  3.0962 -2.6880 -4.9125
  470MOL0     H64806  11.449  11.390   0.222  0.0101  2.3729 -2.2513
  470MOL0     H64807  11.277  11.305  -0.011 -1.6273  1.2048  2.8456
  470MOL0     H64808  11.348  11.451  -0.025 -0.1039 -1.2854 -1.4047
  470MOL0     H64809  11.445  11.144  -0.168  1.1139 -0.0542 -1.2633
  470MOL0     H64810  11.826  11.076  -0.160 -0.0004  2.8294 -0.7512
  470MOL0     H64811  11.707  11.098  -0.291  1.7483 -1.7800 -0.0013
  470MOL0     H64812  11.547  10.939  -0.178  0.0617  2.2655  1.6160
  470MOL0     H64813  11.697  10.868  -0.249  0.6446  1.3679 -0.4613
  470MOL0     H64814  11.736  10.780  -0.036 -1.8114 -1.7835  1.0547
  470MOL0     H64815  11.729  10.937   0.043 -0.3139 -1.6644  2.9400
  470MOL0     H64816  11.503  10.745  -0.012 -0.9113  1.6738 -0.4752
  470MOL0     H64817  11.604  10.769   0.130  1.6197 -0.0005 -0.1229
  470MOL0     H64818  11.294  10.690   0.108 -1.3967 -0.0468  1.0525
  470MOL0     H64819  11.153  10.529   0.280 -2.4588  0.8547  1.3551
  470MOL0     H64820  11.080  10.616   0.142  0.8595  2.9299 -0.9177
  470MOL0     H64821  11.012  10.628   0.310 -0.0515 -2.5847  0.2164
  470MOL0     H64822  10.893  11.003   0.739 -1.3484  0.3779  1.8826
  470MOL0     H64823  10.807  10.939   0.960  1.2639  0.0805  1.9294
  470MOL0     H64824  10.968  10.558   1.159 -0.8420 -0.6002  0.0291
  470MOL0     H64825  11.080  10.696   1.198  0.2963 -0.4548  1.5322
  470MOL0     H64826  10.815  10.620   1.326 -0.9538 -0.9175  2.9791
  470MOL0     H64827  10.974  10.578   1.388  0.0126  0.1403  0.1931
  470MOL0     H64828  10.899  10.870   1.318  3.1457  2.0693  0.9026
  470MOL0     H64829  11.031  10.800   1.428 -0.6975  1.7775  1.6635
  470MOL0     H64830  10.891  10.723   1.592 -0.0629  0.5016  1.2461
  470MOL0     H64831  10.749  10.763   1.522 -0.6479  1.0492  0.2658
  470MOL0     H64832  10.963  10.956   1.614 -0.4006  0.2467  1.0060
  470MOL0     H64833  10.837  11.009   1.496 -0.7624 -1.9993 -0.8662
  470MOL0     H64834  10.655  10.934   1.661 -1.8419  1.8087  1.4711
  470MOL0     H64835  10.764  11.070   1.714 -0.2175 -0.7572 -1.4648
  470MOL0     H64836  10.891  10.928   1.855 -0.9974  1.1111  2.5190
  470MOL0     H64837  10.767  10.793   1.851  0.6654  0.4260  4.1123
  470MOL0     H64838  10.601  10.962   1.920  1.1306  0.9899 -2.4334
  470MOL0     H64839  10.732  11.086   1.910 -0.3894 -0.3513 -3.5899
  470MOL0     H64840  11.099  10.616   0.971 -1.5615 -0.5355 -0.7799
  470MOL0     H64841  11.181  10.689   0.751  0.2043  1.8799 -1.6361
  470MOL0     H64842  11.243  11.031   0.465 -0.9076  0.4016 -0.8210
  470MOL0     H64843  11.404  11.071   0.297  0.2448 -0.0247  1.9094
  470MOL0     H64844  10.376  11.582   0.332 -1.7658  0.4669  0.0208
  470MOL0     H64845  10.144  11.529   0.298 -1.0288  0.2265 -0.6188
  470MOL0     H64846   9.842  11.551   0.114  0.5445 -0.6722  0.8021
  470MOL0     H64847   9.615  11.605   0.088  6.1122  1.8611  3.5105
  470MOL0     H64848   9.231  11.395   0.066 -0.0216  1.0186 -0.4537
  470MOL0     H64849   9.364  11.354   0.178 -1.3421 -2.4480 -1.0885
  470MOL0     H64850   9.398  11.614   0.213  0.7812  0.5830 -1.6227
  470MOL0     H64851   9.247  11.553   0.259 -4.5787  1.1095 -2.0057
  470MOL0     H64852   9.288  11.681   0.002  0.9960  2.9648  1.8246
  470MOL0     H64853   9.138  11.626   0.062  0.4268  0.3508  0.4765
  470MOL0     H64854   9.194  11.874   0.073  0.4127 -0.2670 -0.1549
  470MOL0     H64855   9.310  11.841   0.197 -0.4183  1.2074  1.9913
  470MOL0     H64856   8.931  11.882   0.381  1.0307  1.4694  1.1489
  470MOL0     H64857   9.516  11.193   0.013  0.7846 -2.8243  2.1722
  470MOL0     H64858   9.818  11.066  -0.026  2.1189 -1.9535  3.3352
  470MOL0     H64859   9.782  11.031   0.138  2.9290  1.2747 -0.2643
  470MOL0     H64860   9.643  11.034   0.024 -0.4437 -0.6041  1.0947
  471MOL0     O64861  10.028   9.035  10.136 -0.6213  0.5320  0.0294
  471MOL0     C64862  10.144   9.059  10.170 -0.4546  0.1290  0.1749
  471MOL0     O64863  10.190   9.175  10.219  0.5310 -0.0067  1.9680
  471MOL0     C64864  10.098   9.269  10.259 -0.0759  0.6120  0.2374
  471MOL0     C64865  10.122   9.327  10.389 -0.9617 -0.0849  0.5072
  471MOL0     C64866  10.038   9.424  10.439  0.6466 -0.3666  0.1688
  471MOL0     C64867   9.921   9.457  10.366 -0.3411  0.1717 -0.3953
  471MOL0     O64868   9.827   9.533  10.414  0.1993  0.1189 -0.3348
  471MOL0     C64869   9.757   9.491  10.528  0.4881  0.8387 -0.2275
  471MOL0     C64870   9.629   9.569  10.519 -0.3481  0.6348 -0.2387
  471MOL0     C64871   9.545   9.535  10.396  0.0363  0.7006 -0.1240
  471MOL0     C64872   9.415   9.611  10.401  0.3354  1.1518  0.0209
  471MOL0     C64873   9.327   9.575  10.284  0.5657 -0.1350  0.5252
  471MOL0     C64874   9.246   9.447  10.323  0.0422  0.6067  0.0321
  471MOL0     C64875   9.152   9.409  10.210 -0.5245 -0.0429 -0.8782
  471MOL0     C64876   9.232   9.355  10.094 -1.2015  0.4518 -0.2221
  471MOL0     N64877   9.157   9.278   9.988  0.2651  0.2083 -0.4485
  471MOL0     C64878   9.178   9.151   9.944 -0.9216  0.1209 -0.1431
  471MOL0     C64879   9.125   9.155   9.820  0.3510  0.4456 -0.5853
  471MOL0     C64880   9.127   9.043   9.717 -0.2804 -0.5831 -0.2701
  471MOL0     C64881   9.268   9.021   9.679 -0.0270  0.5431  0.5402
  471MOL0     C64882   9.289   8.884   9.623  0.5327 -0.2463 -0.3764
  471MOL0     C64883   9.427   8.844   9.574  0.2009  0.1426  0.4770
  471MOL0     O64884   9.529   8.853   9.675 -0.1157 -0.7992 -0.2524
  471MOL0     C64885   9.643   8.776   9.671 -0.3978  0.9300  0.6110
  471MOL0     C64886   9.737   8.796   9.774 -0.1513  0.2411  0.1596
  471MOL0     C64887   9.861   8.720   9.773 -1.3275 -0.2902  0.4186
  471MOL0     C64888   9.952   8.758   9.889 -0.3541  0.4664  0.4300
  471MOL0     C64889   9.887   8.626   9.670 -0.1811 -0.6283 -0.0077
  471MOL0     C64890  10.015   8.553   9.655 -0.5061  0.5393  0.5733
  471MOL0     O64891  10.056   8.532   9.527 -0.2673  0.1078 -0.7029
  471MOL0     C64892  10.188   8.498   9.502 -0.0063  0.0725  0.2121
  471MOL0     C64893  10.223   8.433   9.386  0.0951  0.0895  0.6424
  471MOL0     C64894  10.357   8.416   9.334 -0.5594 -0.0509 -0.0559
  471MOL0     C64895  10.458   8.464   9.420 -0.8229  0.0853  0.2430
  471MOL0     O64896  10.593   8.474   9.385  0.1627 -0.2645 -0.7790
  471MOL0     C64897  10.626   8.395   9.267 -0.4373 -0.1673  0.0501
  471MOL0     C64898  10.772   8.393   9.251 -0.3108 -0.6382  0.1020
  471MOL0     C64899  10.858   8.329   9.352  0.1327 -0.4771 -0.0864
  471MOL0     C64900  11.008   8.325   9.318  0.1896  0.0613  0.6017
  471MOL0     C64901  11.098   8.236   9.411 -0.0828 -0.4474  0.1067
  471MOL0     C64902  11.242   8.205   9.350 -0.5371  0.2624  0.3303
  471MOL0     C64903  11.315   8.331   9.308  1.1135 -0.2954  0.5754
  471MOL0     C64904  11.458   8.303   9.258 -0.4258  0.0817  0.3520
  471MOL0    Cl64905  11.474   8.176   9.146 -0.0538 -0.3254  0.1870
  471MOL0     C64906  10.431   8.516   9.544  0.0210  0.3887  0.2826
  471MOL0     C64907  10.299   8.543   9.577 -0.0421  0.4345 -0.1639
  471MOL0     O64908  10.076   8.515   9.757  0.2842 -0.7340 -0.7475
  471MOL0     C64909   9.793   8.618   9.560  0.9095  0.0497 -1.1779
  471MOL0     C64910   9.677   8.690   9.562  0.2659 -0.8042  0.1921
  471MOL0     N64911   9.068   9.282   9.795  0.3846 -0.0320 -1.2582
  471MOL0     N64912   9.080   9.349   9.903  0.0449 -0.0310  0.0667
  471MOL0     C64913   9.907   9.401  10.238  0.5746  0.0933  0.5197
  471MOL0     C64914   9.989   9.309  10.182 -0.2560  0.2757 -0.0831
  471MOL0     C64915  10.250   8.957  10.149  0.0987 -0.0810 -0.2071
  471MOL0     C64916  10.311   8.930  10.023  0.2192 -0.4965  0.1134
  471MOL0     C64917  10.408   8.831  10.001 -0.0748 -0.0848 -0.5123
  471MOL0     C64918  10.446   8.762  10.111 -0.3836 -0.2327 -0.2451
  471MOL0     O64919  10.545   8.668  10.094  0.3825 -0.1750 -0.1975
  471MOL0     C64920  10.597   8.628   9.965 -0.2115  0.0185 -0.2923
  471MOL0     C64921  10.710   8.522   9.992 -0.8970 -0.2447  0.0115
  471MOL0     C64922  10.828   8.581  10.068 -0.3286  0.1971 -0.4175
  471MOL0     C64923  10.940   8.472  10.074 -0.2605 -0.0453  1.3086
  471MOL0     C64924  11.066   8.511  10.145 -0.4708  0.5160 -0.2206
  471MOL0     C64925  11.173   8.549  10.181  0.3159  0.9038  0.3559
  471MOL0     C64926  10.384   8.771  10.235  1.0009 -0.2896  0.0860
  471MOL0     C64927  10.282   8.866  10.256  0.2164  0.5965  0.1062
  471MOL0     C64928  10.199   8.880  10.379  0.2657  0.8400 -0.0825
  471MOL0     H64929  10.206   9.288  10.445 -1.7510 -2.9562 -0.1623
  471MOL0     H64930  10.058   9.464  10.538  4.0483 -0.5932 -0.2894
  471MOL0     H64931   9.812   9.531  10.614 -0.0507  3.7815 -1.1469
  471MOL0     H64932   9.725   9.387  10.520 -3.4818  1.9950 -1.4114
  471MOL0     H64933   9.571   9.545  10.609  0.0576  2.4019  0.5311
  471MOL0     H64934   9.654   9.675  10.517  3.1756 -0.0644 -1.3090
  471MOL0     H64935   9.592   9.556  10.300  2.0142  0.2224  0.6893
  471MOL0     H64936   9.531   9.427  10.391  0.0822  0.6764  0.2218
  471MOL0     H64937   9.360   9.598  10.495 -1.2809  2.0613 -0.7632
  471MOL0     H64938   9.433   9.718  10.389 -0.8250  1.2844 -0.6104
  471MOL0     H64939   9.388   9.558  10.195 -0.6139  1.3390 -0.6253
  471MOL0     H64940   9.254   9.655  10.275  0.8898  0.4059  2.3028
  471MOL0     H64941   9.315   9.366  10.347 -0.4129  0.4991  1.0515
  471MOL0     H64942   9.184   9.462  10.412 -0.3754  0.1445 -0.1765
  471MOL0     H64943   9.098   9.498  10.177  2.5321  2.6360  0.8041
  471MOL0     H64944   9.090   9.323  10.238 -0.4583  0.0763 -0.3644
  471MOL0     H64945   9.295   9.431  10.047 -1.4913  0.5647 -0.4304
  471MOL0     H64946   9.300   9.284  10.143  1.0540  2.3885 -0.3757
  471MOL0     H64947   9.231   9.069   9.993  0.7723  0.8645 -0.6689
  471MOL0     H64948   9.062   9.068   9.633 -1.0013 -0.6210  0.2648
  471MOL0     H64949   9.086   8.953   9.763 -1.6800 -1.3725 -2.8324
  471MOL0     H64950   9.292   9.097   9.605  0.4210  0.1977  0.3293
  471MOL0     H64951   9.341   9.051   9.755 -2.0006  1.2051  2.3027
  471MOL0     H64952   9.262   8.823   9.710 -0.3171 -1.0982 -1.2184
  471MOL0     H64953   9.214   8.866   9.545  1.3777 -1.5031 -0.9341
  471MOL0     H64954   9.415   8.737   9.554  0.2332 -0.2972  2.5723
  471MOL0     H64955   9.456   8.901   9.486 -0.6529  1.2128  0.8780
  471MOL0     H64956   9.731   8.879   9.844  1.6619  0.2242  0.4025
  471MOL0     H64957  10.017   8.843   9.868  0.6885 -0.5996 -0.8856
  471MOL0     H64958  10.011   8.671   9.919  2.3609  0.3323 -4.2958
  471MOL0     H64959   9.882   8.782   9.970 -1.2761 -0.0261 -0.1943
  471MOL0     H64960  10.134   8.393   9.338  0.2946 -1.0149  1.1514
  471MOL0     H64961  10.381   8.367   9.240  1.0636  0.8807 -0.1713
  471MOL0     H64962  10.599   8.291   9.282  1.9246 -1.1013 -1.4574
  471MOL0     H64963  10.573   8.445   9.185 -0.6448  1.2569  1.0179
  471MOL0     H64964  10.786   8.319   9.172  1.1265  0.2990 -0.5771
  471MOL0     H64965  10.796   8.499   9.238  0.2657 -0.8839 -0.9484
  471MOL0     H64966  10.825   8.225   9.362 -1.3265  0.0741  1.1976
  471MOL0     H64967  10.844   8.373   9.451 -1.7298 -1.9719  0.3809
  471MOL0     H64968  11.046   8.427   9.328 -1.1473  0.7001 -0.5836
  471MOL0     H64969  11.026   8.292   9.216  2.5088  3.1408 -0.1156
  471MOL0     H64970  11.113   8.290   9.505 -1.0513  0.3401 -0.1767
  471MOL0     H64971  11.045   8.143   9.431 -0.0185 -0.3991  0.5259
  471MOL0     H64972  11.230   8.135   9.267  0.7295  0.5550 -0.1160
  471MOL0     H64973  11.297   8.149   9.426  1.1783  0.9827 -0.3344
  471MOL0     H64974  11.308   8.406   9.388  2.4070  0.8745 -0.3506
  471MOL0     H64975  11.263   8.375   9.223  4.9517 -0.3043 -2.0390
  471MOL0     H64976  11.508   8.259   9.345  1.4212 -0.1602 -0.7891
  471MOL0     H64977  11.506   8.397   9.228 -2.5727  0.9676 -0.5294
  471MOL0     H64978  10.519   8.550   9.598  0.8972 -0.2065 -0.7184
  471MOL0     H64979  10.282   8.595   9.671 -0.4782  1.4673 -0.8122
  471MOL0     H64980   9.814   8.543   9.485 -0.3558 -1.9583  0.3809
  471MOL0     H64981   9.618   8.675   9.472  1.5910 -2.5906 -0.4526
  471MOL0     H64982   9.822   9.427  10.176  1.6594 -2.4428 -2.2750
  471MOL0     H64983   9.973   9.254  10.090 -0.7401 -1.3447  0.9212
  471MOL0     H64984  10.275   8.993   9.942 -1.8771 -1.2947  0.3525
  471MOL0     H64985  10.448   8.814   9.901 -1.1057  0.9041 -1.1151
  471MOL0     H64986  10.517   8.574   9.913 -1.0786  0.0245  0.9866
  471MOL0     H64987  10.633   8.714   9.907 -0.3700  0.2817 -0.0040
  471MOL0     H64988  10.734   8.477   9.896  1.2890 -1.3289  0.9932
  471MOL0     H64989  10.659   8.446  10.053 -3.0618  0.0285 -1.3495
  471MOL0     H64990  10.863   8.674  10.021 -1.1415  0.5267 -0.3821
  471MOL0     H64991  10.798   8.596  10.172  0.5339  2.9593 -0.4837
  471MOL0     H64992  10.957   8.435   9.973 -3.0461 -0.9662  1.1219
  471MOL0     H64993  10.909   8.381  10.127 -1.6623  0.0039  0.6061
  471MOL0     H64994  11.267   8.577  10.225  0.4277 -2.5002  2.6567
  471MOL0     H64995  10.403   8.698  10.313  2.8635  1.9826  1.9079
  471MOL0     H64996  10.207   8.788  10.436  0.2552  0.6265 -0.4219
  471MOL0     H64997  10.223   8.970  10.436 -0.3108  0.7626  0.2869
  471MOL0     H64998  10.092   8.884  10.357  0.1663 -2.3242 -0.5675
  472MOL0     O64999   6.037   0.535   9.173  0.0604 -0.2871  0.4322
  472MOL0     C65000   5.962   0.467   9.238  0.9597 -0.1391 -0.6978
  472MOL0     O65001   5.937   0.335   9.222 -0.1988 -0.0088  0.3023
  472MOL0     C65002   6.001   0.283   9.104  0.3511 -0.3925 -1.1183
  472MOL0     C65003   6.142   0.273   9.101 -0.6519 -0.1303  0.0363
  472MOL0     C65004   6.202   0.217   8.989  0.4846 -0.1151 -1.4239
  472MOL0     C65005   6.121   0.162   8.894 -0.8083 -0.4222  0.4684
  472MOL0     O65006   6.171   0.098   8.791  0.6088 -0.0262  0.4099
  472MOL0     C65007   6.266   0.163   8.700 -0.5380 -0.3741 -0.0873
  472MOL0     C65008   6.406   0.097   8.723  0.4717 -0.5751  0.5877
  472MOL0     C65009   6.436  -0.044   8.687 -0.3932  0.1012 -0.4322
  472MOL0     C65010   6.577  -0.103   8.733  0.0354  0.4989 -0.9876
  472MOL0     C65011   6.603  -0.092   8.882  0.5554  0.0831  0.0021
  472MOL0     C65012   6.478  -0.134   8.969 -0.4139 -0.1201 -0.7172
  472MOL0     C65013   6.447  -0.284   8.962 -0.4758 -0.1183  1.1273
  472MOL0     C65014   6.309  -0.324   8.981 -0.4747 -0.4193 -0.1317
  472MOL0     N65015   6.267  -0.270   9.118  0.3244 -0.2440 -0.0373
  472MOL0     C65016   6.210  -0.148   9.137  0.7566 -0.7053 -0.3386
  472MOL0     C65017   6.206  -0.147   9.274  0.7689  0.0099  0.0026
  472MOL0     C65018   6.143  -0.030   9.355  0.5124  0.6694  0.1961
  472MOL0     C65019   5.989  -0.031   9.364  0.3482  0.3486 -0.6527
  472MOL0     C65020   5.926   0.063   9.471 -0.7804  0.6673 -0.1349
  472MOL0     C65021   5.779   0.077   9.473  0.7759 -0.3110  0.2457
  472MOL0     O65022   5.722  -0.045   9.513 -0.1656 -0.3186 -0.2558
  472MOL0     C65023   5.706  -0.076   9.641  0.1148  0.6149  0.4223
  472MOL0     C65024   5.676  -0.209   9.654  0.4912  0.5883 -0.9908
  472MOL0     C65025   5.663  -0.270   9.782  1.3295  0.1388 -0.4177
  472MOL0     C65026   5.624  -0.423   9.788 -0.9129 -0.0347 -0.4665
  472MOL0     C65027   5.675  -0.198   9.901  0.1170 -0.0606 -0.1171
  472MOL0     C65028   5.651  -0.244  10.042 -0.2498 -0.0695  0.3660
  472MOL0     O65029   5.632  -0.142  10.136 -0.4632  0.3968 -0.5944
  472MOL0     C65030   5.640  -0.181  10.272 -1.3571 -0.2395 -0.2352
  472MOL0     C65031   5.547  -0.132  10.354 -0.8154 -0.0474  0.3412
  472MOL0     C65032   5.576  -0.142  10.490  0.7641  0.1821 -0.1874
  472MOL0     C65033   5.686  -0.204  10.544 -0.0775 -0.9656  0.5999
  472MOL0     O65034   5.694  -0.215  10.682 -0.5278  0.4976 -0.2634
  472MOL0     C65035   5.802  -0.278  10.743  0.3864  0.1173  1.1352
  472MOL0     C65036   5.759  -0.328  10.876 -0.4981  0.7317 -0.3398
  472MOL0     C65037   5.892  -0.381  10.943  0.2905 -0.9217  0.8040
  472MOL0     C65038   5.883  -0.349  11.101  0.4401 -0.0767  0.0265
  472MOL0     C65039   6.010  -0.405  11.182  0.1533 -0.1433  0.9243
  472MOL0     C65040   5.984  -0.382  11.328 -0.2191  0.1521  0.0913
  472MOL0     C65041   6.093  -0.462  11.399  0.5949  0.0820 -0.7295
  472MOL0     C65042   6.057  -0.467  11.556 -0.7115  0.3833 -0.4590
  472MOL0    Cl65043   6.025  -0.303  11.618 -0.2245 -0.7487  0.2330
  472MOL0     C65044   5.783  -0.250  10.455 -0.0605 -0.8347  0.4447
  472MOL0     C65045   5.761  -0.231  10.319 -0.2657 -0.3868 -0.2918
  472MOL0     O65046   5.647  -0.364  10.065  0.3159  0.1152 -0.0160
  472MOL0     C65047   5.722  -0.064   9.877  0.5658  0.1307 -0.1543
  472MOL0     C65048   5.738   0.004   9.755 -0.2221 -0.3617 -0.2194
  472MOL0     N65049   6.251  -0.269   9.324  0.4218 -0.1728 -0.9002
  472MOL0     N65050   6.284  -0.342   9.230  0.6880  0.3720 -0.2497
  472MOL0     C65051   5.981   0.175   8.903  0.0270 -0.3891 -0.0490
  472MOL0     C65052   5.919   0.228   9.007 -0.2454  0.3489 -0.9194
  472MOL0     C65053   5.866   0.524   9.344 -0.3682 -0.2177 -0.3837
  472MOL0     C65054   5.749   0.447   9.385 -0.4636  0.8340  0.8159
  472MOL0     C65055   5.652   0.507   9.469 -0.1818  0.2242  0.0915
  472MOL0     C65056   5.663   0.644   9.510 -0.7162  0.0362  0.7137
  472MOL0     O65057   5.563   0.705   9.572  0.0080  0.1742 -0.7691
  472MOL0     C65058   5.509   0.830   9.508 -0.0028  0.0622 -0.8406
  472MOL0     C65059   5.484   0.817   9.358  1.2244 -0.7535 -0.4274
  472MOL0     C65060   5.341   0.870   9.318 -0.1980  0.3022  0.2924
  472MOL0     C65061   5.352   1.024   9.302  1.3568  0.7794 -0.0455
  472MOL0     C65062   5.216   1.068   9.268  0.8382  0.2333  0.1004
  472MOL0     C65063   5.093   1.091   9.255 -0.5190  0.2454 -0.1697
  472MOL0     C65064   5.783   0.710   9.481 -0.2189 -0.5409  0.5845
  472MOL0     C65065   5.880   0.659   9.400  0.6385  0.8236  0.0765
  472MOL0     C65066   6.005   0.737   9.384  0.0634 -0.0810  0.5241
  472MOL0     H65067   6.198   0.329   9.175 -2.2128  2.7531 -0.8286
  472MOL0     H65068   6.311   0.217   8.991  0.4810 -0.5466 -0.7526
  472MOL0     H65069   6.261   0.268   8.732 -3.1790 -0.4549 -0.0224
  472MOL0     H65070   6.247   0.171   8.593  1.3862  4.0126 -0.3487
  472MOL0     H65071   6.476   0.163   8.671 -1.3965  3.7419  2.9674
  472MOL0     H65072   6.427   0.122   8.827 -1.2070 -1.1679  1.0986
  472MOL0     H65073   6.369  -0.107   8.746 -2.7610  3.0444  0.2239
  472MOL0     H65074   6.433  -0.052   8.577  0.0938 -1.2891 -0.3715
  472MOL0     H65075   6.574  -0.209   8.704  2.4650  0.2618 -0.5544
  472MOL0     H65076   6.657  -0.065   8.668  0.4985  0.1070 -0.6537
  472MOL0     H65077   6.618   0.015   8.896  0.3520  0.3803 -1.8933
  472MOL0     H65078   6.690  -0.153   8.910  0.0245  0.4033  2.7003
  472MOL0     H65079   6.500  -0.117   9.074  2.3225 -2.5185 -0.7884
  472MOL0     H65080   6.384  -0.082   8.947 -0.8832 -0.4770  0.3701
  472MOL0     H65081   6.506  -0.339   9.036  2.7002  1.4434 -0.0581
  472MOL0     H65082   6.496  -0.319   8.871 -0.1674 -0.0657  1.2682
  472MOL0     H65083   6.248  -0.285   8.899 -0.4822  0.2200  0.1725
  472MOL0     H65084   6.303  -0.433   8.982  3.6022 -0.8411  1.9223
  472MOL0     H65085   6.198  -0.064   9.069  0.6998  1.2297  1.9300
  472MOL0     H65086   6.174   0.066   9.315 -0.8985 -0.0381 -2.8944
  472MOL0     H65087   6.178  -0.035   9.459 -0.3421 -0.7533  0.4443
  472MOL0     H65088   5.942  -0.001   9.269 -1.3694 -1.1678 -0.3460
  472MOL0     H65089   5.945  -0.130   9.382  1.4062  0.0774  0.5817
  472MOL0     H65090   5.958   0.026   9.569  2.6617  1.0832 -0.9614
  472MOL0     H65091   5.971   0.162   9.459  0.5149 -0.0517 -1.5712
  472MOL0     H65092   5.758   0.150   9.551 -1.1015  0.2901 -0.7535
  472MOL0     H65093   5.732   0.126   9.387  0.8425  1.7687  1.3210
  472MOL0     H65094   5.662  -0.279   9.572 -2.5603  0.8055 -0.7635
  472MOL0     H65095   5.608  -0.465   9.689  1.1721  0.0387 -0.8738
  472MOL0     H65096   5.538  -0.427   9.856  0.1320  1.0470  0.9965
  472MOL0     H65097   5.703  -0.492   9.819 -0.8812  0.5840  0.9065
  472MOL0     H65098   5.455  -0.086  10.319 -0.8166  0.5963  1.1541
  472MOL0     H65099   5.499  -0.112  10.560  2.4560  0.8359  1.4697
  472MOL0     H65100   5.827  -0.365  10.682 -0.9316  1.0978 -0.9095
  472MOL0     H65101   5.888  -0.210  10.743  2.7946 -2.6651 -1.1608
  472MOL0     H65102   5.723  -0.246  10.938 -0.8598  0.2308  0.1202
  472MOL0     H65103   5.697  -0.418  10.867  0.9859 -0.5607  1.5424
  472MOL0     H65104   5.980  -0.334  10.899 -1.5005 -0.8185 -3.0967
  472MOL0     H65105   5.907  -0.486  10.921 -3.3132 -1.2743 -0.6383
  472MOL0     H65106   5.798  -0.406  11.139 -0.9905  2.6396  1.1468
  472MOL0     H65107   5.867  -0.246  11.133 -2.8043 -0.5589  0.2812
  472MOL0     H65108   6.011  -0.512  11.160  0.3821 -0.5018  2.5190
  472MOL0     H65109   6.105  -0.356  11.162  1.0750 -2.3980 -0.6753
  472MOL0     H65110   5.887  -0.420  11.360  1.1803 -2.4554  1.5990
  472MOL0     H65111   5.996  -0.275  11.344  4.4561 -0.2484  0.6651
  472MOL0     H65112   6.192  -0.416  11.385  0.3106  0.8966 -0.0950
  472MOL0     H65113   6.103  -0.564  11.359  2.2605  0.1628 -0.5907
  472MOL0     H65114   6.145  -0.506  11.607 -2.8919 -2.1504  1.6831
  472MOL0     H65115   5.971  -0.532  11.575  0.6154 -1.2832  0.1116
  472MOL0     H65116   5.884  -0.275  10.487 -1.0509 -5.2692  0.8428
  472MOL0     H65117   5.848  -0.262  10.263  0.7819  0.8201  0.5695
  472MOL0     H65118   5.732  -0.003   9.967  2.0310  0.5000 -0.5393
  472MOL0     H65119   5.753   0.111   9.760  2.2646 -0.6031 -1.0153
  472MOL0     H65120   5.913   0.146   8.823 -0.4506  2.9424 -0.9937
  472MOL0     H65121   5.812   0.244   9.003 -0.4798 -1.1158 -1.1193
  472MOL0     H65122   5.726   0.353   9.336  0.1885  1.6386 -1.1727
  472MOL0     H65123   5.564   0.448   9.493  1.5327 -2.6762 -0.2347
  472MOL0     H65124   5.414   0.847   9.560  1.0229 -1.0779  1.5752
  472MOL0     H65125   5.575   0.911   9.542  1.5759 -3.1529  5.2815
  472MOL0     H65126   5.506   0.718   9.317  3.0073  0.6048 -3.0024
  472MOL0     H65127   5.557   0.886   9.315 -1.6612  2.0031 -1.2339
  472MOL0     H65128   5.301   0.826   9.226 -1.4461 -0.7921  1.3416
  472MOL0     H65129   5.258   0.850   9.386  1.0333 -2.4199  1.1126
  472MOL0     H65130   5.416   1.048   9.216 -0.1860 -0.1536 -1.5000
  472MOL0     H65131   5.391   1.073   9.391  1.1761  0.1957  0.3566
  472MOL0     H65132   4.991   1.120   9.267 -0.6005 -0.7910  2.3519
  472MOL0     H65133   5.784   0.809   9.524 -3.0413  0.2047 -0.8518
  472MOL0     H65134   6.027   0.819   9.453  1.8915  0.0750 -0.1790
  472MOL0     H65135   6.093   0.672   9.391  0.2395  0.1395  0.4018
  472MOL0     H65136   5.995   0.777   9.283  1.0773  2.3183  1.2861
  473MOL0     O65137   2.847  11.456   8.666  0.8286 -0.2225 -0.3499
  473MOL0     C65138   2.805  11.411   8.771  0.0203 -0.1764 -0.4804
  473MOL0     O65139   2.886  11.394   8.879 -0.3047  0.2138 -0.2141
  473MOL0     C65140   3.024  11.394   8.864  0.3433 -0.2092 -0.0973
  473MOL0     C65141   3.093  11.284   8.899  0.4067  0.2999  0.3270
  473MOL0     C65142   3.231  11.277   8.884 -0.3701  0.3705  0.1441
  473MOL0     C65143   3.302  11.384   8.827  0.0115  0.5606  0.2340
  473MOL0     O65144   3.437  11.381   8.812  0.0455 -0.2518  0.5254
  473MOL0     C65145   3.473  11.325   8.679 -0.5921  0.4780  0.1114
  473MOL0     C65146   3.492  11.169   8.671  0.0359 -1.0355 -0.2033
  473MOL0     C65147   3.531  11.125   8.528 -0.4861 -0.5800 -0.1330
  473MOL0     C65148   3.519  10.975   8.520 -0.5427  0.1294  0.2678
  473MOL0     C65149   3.528  10.921   8.377 -0.5952 -0.5801 -0.4840
  473MOL0     C65150   3.668  10.871   8.340  0.2456 -0.5222  0.0149
  473MOL0     C65151   3.682  10.832   8.193 -0.1374  0.2561 -0.2586
  473MOL0     C65152   3.791  10.728   8.194 -0.3683  0.0118  0.1012
  473MOL0     N65153   3.797  10.689   8.051 -0.1256 -0.3335 -0.1511
  473MOL0     C65154   3.746  10.567   8.010 -0.1015 -0.0270 -0.2727
  473MOL0     C65155   3.782  10.559   7.879  0.6689 -0.0089 -0.5034
  473MOL0     C65156   3.752  10.440   7.784 -0.4335 -0.0853  0.2681
  473MOL0     C65157   3.838  10.465   7.651 -0.6398  0.1106 -0.6204
  473MOL0     C65158   3.803  10.362   7.547  0.5107  0.0092 -0.0718
  473MOL0     C65159   3.822  10.218   7.589 -0.0065  1.0681  0.4784
  473MOL0     O65160   3.881  10.143   7.477  0.4509  0.4394  0.3951
  473MOL0     C65161   3.903  10.010   7.503  0.5067 -0.9501  0.6883
  473MOL0     C65162   3.912   9.930   7.387  0.5005 -0.1003  0.3886
  473MOL0     C65163   3.946   9.797   7.381  0.2148  0.4404  0.2705
  473MOL0     C65164   3.920   9.720   7.251 -0.6792 -0.7413 -0.3415
  473MOL0     C65165   3.968   9.734   7.506 -0.2060 -0.8017 -0.2874
  473MOL0     C65166   4.015   9.595   7.523 -0.1290  0.2774 -0.1172
  473MOL0     O65167   4.006   9.528   7.646 -0.1083 -0.3673  0.7350
  473MOL0     C65168   4.045   9.398   7.666 -0.1528 -0.0876  0.4146
  473MOL0     C65169   4.070   9.300   7.566  0.2550  0.0929 -0.4750
  473MOL0     C65170   4.098   9.166   7.600  0.5843 -0.2338 -0.5421
  473MOL0     C65171   4.115   9.130   7.735  0.4379 -0.1794 -1.2482
  473MOL0     O65172   4.161   9.004   7.774  0.2689 -0.0492 -0.0262
  473MOL0     C65173   4.171   8.898   7.672  0.6612  0.1232  0.3918
  473MOL0     C65174   4.243   8.772   7.715 -0.2694  0.3979  0.0257
  473MOL0     C65175   4.184   8.697   7.832 -0.1141 -0.4226 -0.6697
  473MOL0     C65176   4.257   8.568   7.851  0.3562  0.4696 -0.2445
  473MOL0     C65177   4.185   8.473   7.941  0.4222 -0.2748  0.0538
  473MOL0     C65178   4.278   8.350   7.964 -0.7741 -0.0590 -0.5521
  473MOL0     C65179   4.414   8.358   8.033 -0.4865  0.7371 -0.8768
  473MOL0     C65180   4.461   8.228   8.107  0.6379  0.8631 -0.5868
  473MOL0    Cl65181   4.419   8.068   8.027  0.3702 -0.3800  0.5212
  473MOL0     C65182   4.090   9.228   7.833 -0.3615  0.1268 -0.1372
  473MOL0     C65183   4.064   9.365   7.801 -0.3138 -0.7533 -0.1011
  473MOL0     O65184   4.069   9.550   7.422  0.5608  0.7719  0.3779
  473MOL0     C65185   3.965   9.817   7.623  0.1949 -0.1115  1.0487
  473MOL0     C65186   3.938   9.951   7.619 -0.2904  0.0397  0.5248
  473MOL0     N65187   3.851  10.676   7.846  0.7023  0.0618 -0.1511
  473MOL0     N65188   3.865  10.751   7.952 -0.1205  0.0387  0.4866
  473MOL0     C65189   3.231  11.504   8.794  0.2520  1.0365 -0.1264
  473MOL0     C65190   3.095  11.505   8.807  0.0475 -0.0648  0.1548
  473MOL0     C65191   2.660  11.379   8.780  0.2541 -0.2810 -0.9189
  473MOL0     C65192   2.601  11.379   8.911 -0.0640 -0.0467 -0.3925
  473MOL0     C65193   2.468  11.349   8.927 -0.0518 -0.6422 -1.0361
  473MOL0     C65194   2.386  11.300   8.828 -0.3099  0.5547  1.3001
  473MOL0     O65195   2.257  11.261   8.848  0.0372  0.4195  0.6151
  473MOL0     C65196   2.196  11.258   8.973  0.0452  0.1970  0.2138
  473MOL0     C65197   2.216  11.119   9.035  0.2426  0.0289 -0.2670
  473MOL0     C65198   2.190  11.005   8.950 -0.3899  0.7131  0.3102
  473MOL0     C65199   2.174  10.869   9.023 -0.9488 -0.5618 -0.4153
  473MOL0     C65200   2.308  10.801   9.037  0.0271  0.8308  0.0399
  473MOL0     C65201   2.409  10.739   9.049 -0.0513  0.1875  0.4366
  473MOL0     C65202   2.441  11.312   8.697  1.2055  0.6654  0.4335
  473MOL0     C65203   2.572  11.346   8.672 -0.2301  0.1351  0.7838
  473MOL0     C65204   2.625  11.355   8.526 -0.1689 -0.0865  0.4710
  473MOL0     H65205   3.036  11.197   8.930  0.6507  0.2911  0.7625
  473MOL0     H65206   3.288  11.185   8.895 -0.6774  0.4666  3.7805
  473MOL0     H65207   3.565  11.376   8.651 -0.1317  0.4554  1.4702
  473MOL0     H65208   3.391  11.347   8.609 -0.0582  0.2386 -0.5886
  473MOL0     H65209   3.573  11.141   8.738  1.8487  1.0434 -1.3967
  473MOL0     H65210   3.395  11.125   8.695 -2.1022  3.0128 -0.5753
  473MOL0     H65211   3.478  11.179   8.449 -0.2581 -0.0003  0.1062
  473MOL0     H65212   3.636  11.154   8.511 -0.9689  0.1378 -2.1760
  473MOL0     H65213   3.594  10.937   8.590  0.2437 -0.8155 -1.0639
  473MOL0     H65214   3.417  10.945   8.546 -0.8933  1.6448  0.7828
  473MOL0     H65215   3.513  11.006   8.309  0.5244 -0.4421 -0.5740
  473MOL0     H65216   3.448  10.850   8.352 -0.7137 -0.4343 -0.5214
  473MOL0     H65217   3.745  10.947   8.356  2.1193 -2.9565  4.5618
  473MOL0     H65218   3.697  10.792   8.410  1.0058  0.7877  1.2420
  473MOL0     H65219   3.715  10.920   8.138 -2.5758  1.2141 -0.3397
  473MOL0     H65220   3.589  10.792   8.151 -0.2769 -1.9324  1.8638
  473MOL0     H65221   3.884  10.774   8.227 -1.2460  0.4968  2.0344
  473MOL0     H65222   3.780  10.643   8.262 -1.1690 -0.4456 -0.5772
  473MOL0     H65223   3.690  10.492   8.065 -0.0646  1.1913  1.5315
  473MOL0     H65224   3.649  10.449   7.747 -0.1399  2.1296 -0.1330
  473MOL0     H65225   3.774  10.342   7.826  3.3553 -0.6898 -2.6094
  473MOL0     H65226   3.836  10.568   7.613 -0.9066 -0.5546 -2.5176
  473MOL0     H65227   3.943  10.443   7.674 -0.5494  1.2316  0.1555
  473MOL0     H65228   3.695  10.369   7.532 -0.1528 -2.4295  2.6994
  473MOL0     H65229   3.859  10.377   7.454  2.2286  0.2068  0.9442
  473MOL0     H65230   3.892  10.217   7.673  0.8795  3.4440 -0.1565
  473MOL0     H65231   3.727  10.169   7.615  0.8528  0.4082  2.5882
  473MOL0     H65232   3.881   9.980   7.296  0.7319 -2.5589 -1.1363
  473MOL0     H65233   3.857   9.775   7.181  1.2331  2.9190  0.5511
  473MOL0     H65234   3.881   9.620   7.272  4.0455 -2.4329  1.8425
  473MOL0     H65235   4.011   9.704   7.193  0.3524  2.1730  0.3050
  473MOL0     H65236   4.067   9.307   7.458 -0.0334  0.9892 -0.4154
  473MOL0     H65237   4.098   9.088   7.525  0.3834  0.6854 -1.5164
  473MOL0     H65238   4.068   8.875   7.645  0.3758 -0.8623  2.1267
  473MOL0     H65239   4.224   8.936   7.585  1.3471  0.6918  1.0400
  473MOL0     H65240   4.243   8.699   7.634  0.7888  1.1767 -0.7127
  473MOL0     H65241   4.349   8.792   7.734  0.0938 -0.0186 -1.4498
  473MOL0     H65242   4.077   8.685   7.820 -0.7694  1.0033  2.4893
  473MOL0     H65243   4.200   8.757   7.923 -3.1166  0.8708 -0.8966
  473MOL0     H65244   4.362   8.581   7.877  0.8142 -3.1708  0.3092
  473MOL0     H65245   4.253   8.511   7.757 -1.1662 -3.1368  1.7749
  473MOL0     H65246   4.138   8.510   8.032 -4.1359 -3.0929 -0.7771
  473MOL0     H65247   4.092   8.442   7.891 -0.8810 -1.8839  3.1607
  473MOL0     H65248   4.288   8.294   7.870 -5.7200 -0.2784 -1.2300
  473MOL0     H65249   4.216   8.294   8.034 -1.1835  2.1624  0.9503
  473MOL0     H65250   4.412   8.434   8.112 -0.3251  1.5597 -1.6493
  473MOL0     H65251   4.485   8.393   7.957 -0.6514 -2.8604 -2.9161
  473MOL0     H65252   4.412   8.238   8.205 -0.4774  1.6109 -1.2001
  473MOL0     H65253   4.569   8.233   8.127  0.7527 -1.4326 -0.2868
  473MOL0     H65254   4.124   9.214   7.935 -1.8644 -0.1836  0.3338
  473MOL0     H65255   4.054   9.435   7.883  0.0717  0.8308 -1.3563
  473MOL0     H65256   3.984   9.784   7.725  1.5199  0.8291  1.1307
  473MOL0     H65257   3.950  10.003   7.714 -1.3009 -1.1115  1.3210
  473MOL0     H65258   3.282  11.581   8.736  2.3068 -0.5056 -0.4809
  473MOL0     H65259   3.051  11.598   8.774  2.3766  2.4003  3.4363
  473MOL0     H65260   2.669  11.412   8.990 -1.9323  0.4463  1.0901
  473MOL0     H65261   2.435  11.358   9.030  2.2200 -5.2920  0.3696
  473MOL0     H65262   2.220  11.337   9.045 -1.7890  2.1395 -1.1890
  473MOL0     H65263   2.093  11.279   8.941 -0.0260  1.3097  1.1158
  473MOL0     H65264   2.161  11.111   9.129 -0.5707 -1.0239 -0.8152
  473MOL0     H65265   2.324  11.112   9.055  0.2744  0.5959 -0.2233
  473MOL0     H65266   2.098  11.012   8.892 -1.1293 -2.9928  0.8010
  473MOL0     H65267   2.276  10.987   8.885 -0.4257  1.1633  0.1335
  473MOL0     H65268   2.112  10.801   8.964  0.3243  0.5622 -3.2317
  473MOL0     H65269   2.122  10.876   9.119 -0.3045  0.9797 -0.1389
  473MOL0     H65270   2.495  10.683   9.081  1.4007  2.7361  1.2453
  473MOL0     H65271   2.380  11.295   8.609  2.0641 -0.1679 -0.0180
  473MOL0     H65272   2.648  11.457   8.494 -0.5348  0.1800  1.0220
  473MOL0     H65273   2.715  11.294   8.526 -0.0909  0.0279  0.4870
  473MOL0     H65274   2.558  11.305   8.456  0.4971 -4.0161  2.3500
  474MOL0     O65275   1.144   6.561  11.045  0.9699  0.3783 -0.3402
  474MOL0     C65276   1.146   6.659  10.971  0.5508 -0.8006 -0.2602
  474MOL0     O65277   1.036   6.716  10.922 -0.0419  0.4280 -0.2683
  474MOL0     C65278   0.913   6.671  10.972 -0.1913 -0.1327  0.3761
  474MOL0     C65279   0.879   6.672  11.112  0.0206  0.0717  0.1511
  474MOL0     C65280   0.746   6.663  11.156  1.1078 -0.2889 -0.6174
  474MOL0     C65281   0.643   6.636  11.064  0.7812 -0.0134 -0.2498
  474MOL0     O65282   0.512   6.634  11.118  0.5420  0.4291  0.7737
  474MOL0     C65283   0.435   6.735  11.053  0.9952 -0.4906 -0.7437
  474MOL0     C65284   0.321   6.758  11.159  0.1359 -0.4702  0.5101
  474MOL0     C65285   0.202   6.808  11.089  0.1455 -0.6039 -0.4877
  474MOL0     C65286   0.093   6.867  11.179 -0.1277  0.8531 -0.3090
  474MOL0     C65287   0.093   7.012  11.205 -0.7247 -0.2682 -0.4864
  474MOL0     C65288   0.216   7.075  11.268 -0.5247  0.0485 -1.0295
  474MOL0     C65289   0.198   7.220  11.317  0.2651  1.0206  0.2831
  474MOL0     C65290   0.118   7.303  11.225 -0.2374  0.6654  0.1273
  474MOL0     N65291   0.104   7.443  11.269  0.0364 -0.4019 -0.1017
  474MOL0     C65292  -0.005   7.498  11.332  0.7340 -0.1941  0.1489
  474MOL0     C65293   0.035   7.627  11.358 -0.3374  0.0158 -0.7602
  474MOL0     C65294  -0.043   7.731  11.443 -0.1496  0.5642  0.3163
  474MOL0     C65295   0.001   7.872  11.410 -0.5394  0.1339 -0.2330
  474MOL0     C65296  -0.046   7.974  11.518 -0.0328  0.1405  0.4237
  474MOL0     C65297   0.008   8.106  11.478 -0.0219 -0.7780  0.3303
  474MOL0     O65298   0.007   8.141  11.342 -0.5609 -0.8915 -0.5623
  474MOL0     C65299  -0.115   8.162  11.285  0.5914 -1.0719  1.0170
  474MOL0     C65300  -0.113   8.192  11.146 -0.3747  1.1032  0.0970
  474MOL0     C65301  -0.230   8.204  11.064 -0.9235  0.6431 -0.1560
  474MOL0     C65302  -0.206   8.223  10.919 -0.9174  0.0644 -0.1704
  474MOL0     C65303  -0.351   8.210  11.132  0.0915  0.4588 -0.7439
  474MOL0     C65304  -0.484   8.214  11.073 -0.3307 -0.2986  0.6026
  474MOL0     O65305  -0.580   8.281  11.133 -0.6998  0.0105 -0.4719
  474MOL0     C65306  -0.714   8.285  11.092 -0.5587  0.0862  0.5615
  474MOL0     C65307  -0.757   8.380  11.004  0.3143  0.3563  0.5738
  474MOL0     C65308  -0.898   8.409  10.985  0.1642 -0.3069 -0.9328
  474MOL0     C65309  -0.991   8.325  11.055 -0.2778 -0.8923  0.9931
  474MOL0     O65310  -1.125   8.333  11.023 -0.3279 -0.0912  0.0747
  474MOL0     C65311  -1.216   8.237  11.080 -0.1512 -0.3019  1.0474
  474MOL0     C65312  -1.352   8.259  11.016 -0.4669  0.9660 -0.3099
  474MOL0     C65313  -1.459   8.171  11.077 -0.5206  0.4940  0.0475
  474MOL0     C65314  -1.591   8.237  11.055 -0.4980  0.1061  0.6890
  474MOL0     C65315  -1.704   8.135  11.059 -0.1601 -0.3573  0.0413
  474MOL0     C65316  -1.844   8.200  11.103 -0.9197  0.3659 -0.8387
  474MOL0     C65317  -1.941   8.086  11.131  1.1550  0.5314 -0.2556
  474MOL0     C65318  -2.077   8.149  11.172 -0.2783 -0.0847 -0.6773
  474MOL0    Cl65319  -2.054   8.249  11.324 -0.1720  0.1068  0.4774
  474MOL0     C65320  -0.942   8.231  11.145 -0.7956 -1.0399  0.3588
  474MOL0     C65321  -0.808   8.213  11.168 -0.3141  0.6276  0.3543
  474MOL0     O65322  -0.502   8.155  10.966  0.3497  0.8409  0.1452
  474MOL0     C65323  -0.353   8.200  11.277 -0.1674  0.1106 -0.1467
  474MOL0     C65324  -0.240   8.172  11.346  0.2025  0.4303  0.3935
  474MOL0     N65325   0.165   7.649  11.315  0.0998  0.3773  0.0967
  474MOL0     N65326   0.203   7.538  11.264  0.1000  0.9686 -0.3712
  474MOL0     C65327   0.679   6.632  10.918 -0.2609  0.2563  0.3464
  474MOL0     C65328   0.814   6.658  10.878 -0.2840  1.6343 -0.4245
  474MOL0     C65329   1.273   6.734  10.936 -0.0730  0.1871  0.2596
  474MOL0     C65330   1.266   6.851  10.863  0.6028 -0.3816 -0.1119
  474MOL0     C65331   1.376   6.917  10.808  1.3215  0.2561 -0.3578
  474MOL0     C65332   1.497   6.877  10.853 -0.6866 -0.7182  0.4105
  474MOL0     O65333   1.612   6.944  10.835 -0.3085  0.3039 -0.0666
  474MOL0     C65334   1.632   7.054  10.743  0.5460 -0.1713 -0.3324
  474MOL0     C65335   1.770   7.117  10.773 -0.6670  0.4353  0.0021
  474MOL0     C65336   1.787   7.174  10.919  0.4172 -0.0763  0.5226
  474MOL0     C65337   1.726   7.323  10.949  0.9385  0.3264  0.1239
  474MOL0     C65338   1.765   7.431  10.850  0.2336  0.9575  0.1107
  474MOL0     C65339   1.812   7.511  10.772  0.5886 -0.1526 -0.6793
  474MOL0     C65340   1.512   6.764  10.925  0.3409  0.9746  0.2928
  474MOL0     C65341   1.404   6.685  10.956  0.1306 -0.4874  0.0343
  474MOL0     C65342   1.426   6.567  11.052  0.0791 -0.0001  0.3284
  474MOL0     H65343   0.945   6.712  11.189 -0.2668 -3.5832  2.5790
  474MOL0     H65344   0.720   6.669  11.261  1.3611 -2.2636 -0.3971
  474MOL0     H65345   0.401   6.705  10.954  0.8952  0.9639 -1.1631
  474MOL0     H65346   0.480   6.834  11.052 -1.0777  0.5039 -0.3391
  474MOL0     H65347   0.309   6.659  11.204  2.1174 -0.4651  1.1311
  474MOL0     H65348   0.353   6.829  11.236 -2.3671  0.0814  1.1589
  474MOL0     H65349   0.230   6.900  11.036  0.7914  0.5679  1.7525
  474MOL0     H65350   0.167   6.729  11.021  1.1101  0.2366 -2.0189
  474MOL0     H65351   0.000   6.852  11.123 -0.4317  0.2931  0.3352
  474MOL0     H65352   0.087   6.825  11.280 -0.4759 -1.6301 -1.3021
  474MOL0     H65353  -0.004   7.032  11.252 -1.0931 -0.3854 -1.1823
  474MOL0     H65354   0.100   7.054  11.105  2.4130  0.0537 -0.2128
  474MOL0     H65355   0.245   7.003  11.345  0.9977  0.1140 -1.5089
  474MOL0     H65356   0.299   7.071  11.197  1.8355  3.3798  1.2928
  474MOL0     H65357   0.299   7.258  11.338  1.0351 -1.1011  0.6693
  474MOL0     H65358   0.144   7.220  11.412 -2.0196 -2.9098 -0.7661
  474MOL0     H65359   0.166   7.301  11.126  2.4050  0.2730  1.3226
  474MOL0     H65360   0.015   7.270  11.214 -0.3371  1.2349 -0.7398
  474MOL0     H65361  -0.097   7.453  11.368  0.0300 -0.1722 -1.5021
  474MOL0     H65362  -0.015   7.720  11.548  1.0009  3.8149  0.4644
  474MOL0     H65363  -0.149   7.725  11.420 -0.4539  3.4087  0.7132
  474MOL0     H65364   0.110   7.880  11.410 -0.6418  2.0764 -1.2493
  474MOL0     H65365  -0.021   7.902  11.307  0.3278 -0.3186 -0.5595
  474MOL0     H65366  -0.155   7.979  11.520  0.0365  2.6340  1.0188
  474MOL0     H65367  -0.007   7.950  11.617 -0.3930  1.1550  0.8302
  474MOL0     H65368  -0.039   8.185  11.537 -0.6281 -2.0914  1.6466
  474MOL0     H65369   0.115   8.111  11.500 -0.3720  1.6548  1.8920
  474MOL0     H65370  -0.016   8.199  11.099  0.2582 -1.3093  0.8984
  474MOL0     H65371  -0.105   8.187  10.895 -0.2315 -0.3379  2.9058
  474MOL0     H65372  -0.224   8.322  10.876 -2.3230 -0.0643  0.0945
  474MOL0     H65373  -0.269   8.146  10.874 -0.9935 -0.7715  1.3065
  474MOL0     H65374  -0.698   8.452  10.949 -1.6167  0.6515 -1.2464
  474MOL0     H65375  -0.918   8.478  10.904  3.7601 -0.3910 -2.0914
  474MOL0     H65376  -1.200   8.130  11.062  2.3493 -0.0771  1.4662
  474MOL0     H65377  -1.213   8.253  11.188 -0.1061  2.2592  0.7371
  474MOL0     H65378  -1.392   8.359  11.034 -1.0608  0.4066  1.7646
  474MOL0     H65379  -1.348   8.236  10.909  1.0233 -0.0447 -0.0801
  474MOL0     H65380  -1.450   8.161  11.185 -1.7110 -0.6043  0.0666
  474MOL0     H65381  -1.462   8.069  11.038 -4.7400  0.7611 -0.7555
  474MOL0     H65382  -1.601   8.288  10.959 -1.6201 -1.7906 -0.2501
  474MOL0     H65383  -1.605   8.313  11.134 -0.7140 -0.6242  1.3643
  474MOL0     H65384  -1.707   8.079  10.965 -0.6462  0.5300 -0.4848
  474MOL0     H65385  -1.684   8.063  11.139  2.7543 -0.6245 -0.8014
  474MOL0     H65386  -1.874   8.260  11.016  2.1117 -0.5490 -2.6676
  474MOL0     H65387  -1.836   8.274  11.184  2.5323  0.5267 -1.1770
  474MOL0     H65388  -1.905   8.013  11.204 -1.4199  0.3720  0.9531
  474MOL0     H65389  -1.967   8.026  11.043 -0.8503 -1.4536  1.5682
  474MOL0     H65390  -2.135   8.061  11.198  3.0543 -1.7631  1.9999
  474MOL0     H65391  -2.121   8.198  11.085 -0.7562  0.3214 -0.2107
  474MOL0     H65392  -1.004   8.158  11.195 -0.0024 -1.3063  0.9740
  474MOL0     H65393  -0.785   8.149  11.252 -0.7978  2.3976  1.8846
  474MOL0     H65394  -0.447   8.199  11.332 -0.2225  0.2783 -0.2385
  474MOL0     H65395  -0.255   8.159  11.452  4.0388  0.2915  1.0411
  474MOL0     H65396   0.599   6.635  10.845 -0.2952 -0.7002  0.3371
  474MOL0     H65397   0.845   6.667  10.775  2.2257  0.9458  0.1991
  474MOL0     H65398   1.176   6.905  10.838 -0.8719 -2.5250  0.3340
  474MOL0     H65399   1.363   6.999  10.738  0.0008 -2.3272 -3.3116
  474MOL0     H65400   1.624   7.023  10.639 -0.0985 -2.4067  0.3169
  474MOL0     H65401   1.556   7.129  10.767  1.2385  0.5948 -0.5109
  474MOL0     H65402   1.787   7.201  10.705 -1.1821  2.0037  1.7431
  474MOL0     H65403   1.845   7.038  10.767 -2.3662 -1.1707 -1.1591
  474MOL0     H65404   1.735   7.113  10.994 -2.2626 -0.1168 -1.2099
  474MOL0     H65405   1.893   7.184  10.943  0.8969 -0.8584 -1.1799
  474MOL0     H65406   1.754   7.348  11.052 -0.7666 -0.6795  0.8822
  474MOL0     H65407   1.617   7.324  10.960  1.1635  1.7812  3.4021
  474MOL0     H65408   1.853   7.587  10.709  2.6575 -0.0418  0.6955
  474MOL0     H65409   1.612   6.740  10.958  1.2421  2.9462 -0.8130
  474MOL0     H65410   1.524   6.568  11.100  1.9882  2.5018 -3.2036
  474MOL0     H65411   1.356   6.557  11.135  0.8927  0.7608  1.1319
  474MOL0     H65412   1.421   6.475  10.993 -0.3573 -0.4992  1.1294
  475MOL0     O65413  10.588   2.782   8.134  0.3657 -0.5598  0.6185
  475MOL0     C65414  10.536   2.845   8.042 -0.2161 -0.1061 -0.4392
  475MOL0     O65415  10.590   2.948   7.972 -0.1667 -0.6114 -0.1740
  475MOL0     C65416  10.696   3.021   8.023  0.2382  0.0636  0.0183
  475MOL0     C65417  10.765   3.099   7.922 -0.5282  0.3871  0.4410
  475MOL0     C65418  10.880   3.174   7.952 -0.4290  0.1891  0.4200
  475MOL0     C65419  10.910   3.175   8.086 -0.8954  0.3013  0.2637
  475MOL0     O65420  11.026   3.250   8.107  0.1522  0.3380 -0.6544
  475MOL0     C65421  11.128   3.188   8.191  0.3917  0.5794  0.0043
  475MOL0     C65422  11.271   3.172   8.124  0.1678 -0.2042  0.4444
  475MOL0     C65423  11.264   3.073   8.003 -0.1409  0.7049 -0.9715
  475MOL0     C65424  11.399   3.047   7.939 -0.0365  0.0596  0.3848
  475MOL0     C65425  11.393   2.942   7.829 -0.5470  0.4700 -0.1748
  475MOL0     C65426  11.538   2.894   7.796 -0.0044  0.6745  0.3575
  475MOL0     C65427  11.541   2.793   7.681 -0.2793 -0.2919 -0.5571
  475MOL0     C65428  11.483   2.837   7.544  0.1316  0.3812  0.2470
  475MOL0     N65429  11.579   2.935   7.484  0.4197  0.4492  0.2075
  475MOL0     C65430  11.714   2.921   7.476  0.5947 -0.1089 -0.0325
  475MOL0     C65431  11.753   3.026   7.411 -1.5160 -0.0845  0.6332
  475MOL0     C65432  11.897   3.073   7.368  0.0736 -0.1863  0.8664
  475MOL0     C65433  12.007   2.966   7.369  0.0369  0.3064  0.5807
  475MOL0     C65434  12.123   3.033   7.286  0.8080 -0.2628 -0.6388
  475MOL0     C65435  12.237   2.938   7.265  0.2323  0.7636  0.1540
  475MOL0     O65436  12.293   2.884   7.386 -0.5550  0.7479 -0.3754
  475MOL0     C65437  12.357   2.955   7.477 -0.9095 -0.5365  0.0601
  475MOL0     C65438  12.379   2.898   7.604  0.0993 -0.9959 -0.1358
  475MOL0     C65439  12.474   2.959   7.690  0.0387  0.0718 -0.3754
  475MOL0     C65440  12.491   2.879   7.809 -0.4596  0.2324  0.4357
  475MOL0     C65441  12.544   3.083   7.659 -0.1412  0.3285 -0.3400
  475MOL0     C65442  12.641   3.151   7.748  0.4908 -0.0634 -0.3653
  475MOL0     O65443  12.695   3.268   7.692  0.3299  0.1926 -0.2063
  475MOL0     C65444  12.802   3.330   7.755 -1.0067 -0.4559  0.2610
  475MOL0     C65445  12.924   3.336   7.687 -0.2470 -0.3926  0.6101
  475MOL0     C65446  13.033   3.400   7.751  0.2372  0.6092  0.1220
  475MOL0     C65447  13.025   3.449   7.879 -0.7535  0.1118 -0.7413
  475MOL0     O65448  13.137   3.505   7.930  0.5433  0.5856 -0.4222
  475MOL0     C65449  13.129   3.575   8.052  0.4087  0.7262  0.4862
  475MOL0     C65450  13.270   3.600   8.092 -0.7555  0.3650  0.1015
  475MOL0     C65451  13.347   3.691   7.997  1.5843  0.1656  0.0822
  475MOL0     C65452  13.491   3.712   8.049  0.1292  0.2259  0.7909
  475MOL0     C65453  13.593   3.599   8.013  0.8496  0.0486 -0.3309
  475MOL0     C65454  13.739   3.607   8.078  0.5043 -0.3755  0.0101
  475MOL0     C65455  13.834   3.495   8.039 -0.2135  0.2232  0.0613
  475MOL0     C65456  13.892   3.523   7.908  0.2357  0.2160  0.6164
  475MOL0    Cl65457  13.996   3.383   7.843  0.1481 -0.6342  0.3338
  475MOL0     C65458  12.910   3.421   7.953 -0.2428 -0.1484  0.1562
  475MOL0     C65459  12.798   3.368   7.890 -0.0732  0.6774 -0.6596
  475MOL0     O65460  12.675   3.100   7.854 -0.2183  0.1585 -0.6031
  475MOL0     C65461  12.504   3.135   7.531 -0.1481 -0.3986  0.2041
  475MOL0     C65462  12.421   3.073   7.446  0.5319 -0.9975 -0.4081
  475MOL0     N65463  11.650   3.112   7.381 -0.1409  0.1842 -0.0883
  475MOL0     N65464  11.538   3.058   7.424  0.2623 -0.1644 -1.2336
  475MOL0     C65465  10.850   3.098   8.182 -0.1345 -0.6064  0.6592
  475MOL0     C65466  10.744   3.021   8.157  0.1210 -0.5406  0.3389
  475MOL0     C65467  10.401   2.800   7.986  1.2315  0.2929 -0.7500
  475MOL0     C65468  10.280   2.874   8.005 -0.6190 -0.1499 -1.1683
  475MOL0     C65469  10.155   2.830   7.961 -0.2264  0.2591 -0.6284
  475MOL0     C65470  10.142   2.706   7.894 -0.1325 -1.0595 -0.0266
  475MOL0     O65471  10.022   2.637   7.859  0.5507  0.3058  0.2230
  475MOL0     C65472   9.906   2.716   7.853  0.0723 -0.4698 -0.2666
  475MOL0     C65473   9.836   2.720   7.989 -1.4715  0.7801  0.1902
  475MOL0     C65474   9.711   2.809   7.975 -0.5659 -0.1146 -0.4103
  475MOL0     C65475   9.645   2.822   8.114 -0.6721 -0.2711  0.6459
  475MOL0     C65476   9.503   2.836   8.096  0.5035  0.4307  0.1141
  475MOL0     C65477   9.385   2.869   8.088 -0.1289  0.1267 -0.5981
  475MOL0     C65478  10.262   2.627   7.865 -0.1547  0.3612  0.7440
  475MOL0     C65479  10.390   2.670   7.921 -0.1250  0.1538  0.2348
  475MOL0     C65480  10.516   2.597   7.887  0.6356 -1.2609 -0.1079
  475MOL0     H65481  10.731   3.099   7.819  0.3601  1.4211  0.1206
  475MOL0     H65482  10.930   3.241   7.882 -3.1098  1.0219 -0.8312
  475MOL0     H65483  11.113   3.086   8.230  2.9950 -0.6307 -1.8383
  475MOL0     H65484  11.142   3.250   8.280 -1.3722  0.2820  0.5399
  475MOL0     H65485  11.303   3.272   8.092 -0.2563  0.4946  2.0599
  475MOL0     H65486  11.341   3.152   8.206  2.1336  2.9816 -0.2364
  475MOL0     H65487  11.232   2.978   8.047  3.1675  0.8874  2.3559
  475MOL0     H65488  11.192   3.112   7.930 -1.8135  1.5723  1.0275
  475MOL0     H65489  11.439   3.140   7.897 -0.1094 -0.1953 -0.2621
  475MOL0     H65490  11.470   3.010   8.014  0.9592  2.7122  0.8536
  475MOL0     H65491  11.351   2.994   7.743  2.4759  3.3854 -0.1011
  475MOL0     H65492  11.334   2.853   7.852  0.7506 -0.0904  1.1730
  475MOL0     H65493  11.605   2.977   7.773  1.6259 -1.3177 -2.9261
  475MOL0     H65494  11.574   2.841   7.884 -4.0823 -0.7675  1.3798
  475MOL0     H65495  11.496   2.704   7.724  2.7047 -1.6905 -0.0440
  475MOL0     H65496  11.643   2.754   7.669 -0.8560 -1.5359 -1.7205
  475MOL0     H65497  11.468   2.753   7.475 -3.6789  0.5989  0.5729
  475MOL0     H65498  11.384   2.885   7.549 -0.8339 -1.1744 -2.0185
  475MOL0     H65499  11.769   2.837   7.516 -0.4868 -0.9414 -0.2586
  475MOL0     H65500  11.937   3.146   7.439 -0.2933 -1.7574  2.7820
  475MOL0     H65501  11.885   3.124   7.272  1.0786  0.0614  0.8539
  475MOL0     H65502  12.029   2.934   7.471 -0.5417  0.1199  0.6541
  475MOL0     H65503  11.974   2.883   7.305 -0.4181 -0.3137  1.5973
  475MOL0     H65504  12.088   3.079   7.193  0.6841  0.9651 -0.0128
  475MOL0     H65505  12.158   3.116   7.349  2.7906 -1.2435 -0.3825
  475MOL0     H65506  12.207   2.846   7.215  3.8919 -2.2705  2.9520
  475MOL0     H65507  12.309   2.997   7.208  1.7791  2.8809  3.9055
  475MOL0     H65508  12.331   2.802   7.624 -1.1700 -0.3455  0.0688
  475MOL0     H65509  12.592   2.838   7.816 -0.5330 -0.9182 -3.3439
  475MOL0     H65510  12.410   2.809   7.830  0.3861 -0.2463  2.4191
  475MOL0     H65511  12.489   2.951   7.891  4.0717 -0.8828  1.8029
  475MOL0     H65512  12.909   3.315   7.582 -3.4540 -2.7721  1.3873
  475MOL0     H65513  13.132   3.407   7.706 -0.5058  0.5727 -1.5620
  475MOL0     H65514  13.067   3.664   8.046 -2.7172 -1.3409 -0.2302
  475MOL0     H65515  13.086   3.516   8.134 -1.7274  0.8671 -0.4603
  475MOL0     H65516  13.264   3.645   8.192 -3.0033 -0.2076  0.2661
  475MOL0     H65517  13.321   3.503   8.085  2.3456  2.0161 -3.2021
  475MOL0     H65518  13.298   3.788   8.014 -2.0999 -1.8839  2.4372
  475MOL0     H65519  13.327   3.655   7.895  1.2814 -2.0140  0.8745
  475MOL0     H65520  13.505   3.729   8.156  1.9685 -1.6127  0.9022
  475MOL0     H65521  13.532   3.801   8.000  0.1518 -1.1880 -1.9272
  475MOL0     H65522  13.543   3.514   8.059 -0.3825  1.4279  0.9871
  475MOL0     H65523  13.611   3.592   7.905 -0.6516 -1.4790 -0.5302
  475MOL0     H65524  13.713   3.612   8.184 -1.9974  1.2471 -0.5738
  475MOL0     H65525  13.790   3.701   8.053 -0.8675 -0.0898 -1.9758
  475MOL0     H65526  13.780   3.400   8.032 -1.2275  0.7672  0.2660
  475MOL0     H65527  13.920   3.490   8.106  0.1641  0.3994 -0.3998
  475MOL0     H65528  13.952   3.613   7.920 -1.0319  1.6521 -2.5528
  475MOL0     H65529  13.809   3.542   7.839  0.1489  0.4241  0.7802
  475MOL0     H65530  12.919   3.439   8.060  2.4529 -1.4347  0.2323
  475MOL0     H65531  12.698   3.348   7.927 -0.5786  2.8345 -0.7709
  475MOL0     H65532  12.546   3.228   7.495 -0.0129 -0.2358  0.7677
  475MOL0     H65533  12.393   3.115   7.350 -3.2103 -2.3190 -0.0610
  475MOL0     H65534  10.897   3.104   8.279 -0.0466  4.1422  0.5453
  475MOL0     H65535  10.692   2.967   8.236 -0.1915  0.5683  0.9181
  475MOL0     H65536  10.296   2.971   8.049 -1.2453 -0.9391  0.9435
  475MOL0     H65537  10.069   2.885   7.998 -2.6520 -1.6003 -3.1617
  475MOL0     H65538   9.930   2.813   7.808 -3.0032 -0.7235 -2.9110
  475MOL0     H65539   9.850   2.669   7.771  0.3076 -1.3060  0.0394
  475MOL0     H65540   9.904   2.747   8.071  0.2381  2.5888 -1.7156
  475MOL0     H65541   9.790   2.623   8.008 -3.6837  0.9828 -3.2502
  475MOL0     H65542   9.739   2.904   7.929 -2.7518 -0.4502 -2.6490
  475MOL0     H65543   9.641   2.769   7.901  1.6258 -0.5130 -2.3759
  475MOL0     H65544   9.683   2.908   8.169  0.1109 -0.5216  0.5148
  475MOL0     H65545   9.667   2.735   8.177 -2.0544 -0.9065  0.2709
  475MOL0     H65546   9.280   2.888   8.076 -1.0654 -3.6211  0.2260
  475MOL0     H65547  10.254   2.542   7.799  3.2278  1.9028 -1.9114
  475MOL0     H65548  10.591   2.670   7.857  0.2684 -1.0998 -0.6625
  475MOL0     H65549  10.554   2.542   7.973 -0.8414  0.2002  1.5640
  475MOL0     H65550  10.503   2.539   7.795 -1.3767  1.3861 -1.6550
  476MOL0     O65551   7.944   5.329   0.320 -0.6238 -0.0452 -1.0435
  476MOL0     C65552   8.028   5.405   0.273 -0.6536 -0.4130  0.4196
  476MOL0     O65553   7.999   5.510   0.191 -0.2529  0.0053  0.5932
  476MOL0     C65554   7.867   5.536   0.168  0.9650 -0.1352  0.3052
  476MOL0     C65555   7.841   5.495   0.038  1.2433 -0.0900 -0.0268
  476MOL0     C65556   7.703   5.516   0.001 -1.7131 -0.2675  0.6692
  476MOL0     C65557   7.599   5.559   0.081 -0.4251 -0.4941  0.1339
  476MOL0     O65558   7.481   5.549   0.024 -0.2390 -0.2741 -0.4213
  476MOL0     C65559   7.450   5.446  -0.077 -0.4596  0.2060 -0.2854
  476MOL0     C65560   7.420   5.498  -0.229 -0.6696  0.7783 -0.6343
  476MOL0     C65561   7.550   5.510  -0.311 -0.4158 -0.0537  0.3470
  476MOL0     C65562   7.509   5.548  -0.456  0.6231 -0.4248 -0.0132
  476MOL0     C65563   7.628   5.568  -0.551  0.0055  0.8295 -0.3349
  476MOL0     C65564   7.591   5.583  -0.694 -0.4512 -0.1104 -0.4589
  476MOL0     C65565   7.698   5.644  -0.787  0.0527  0.6095 -0.1120
  476MOL0     C65566   7.669   5.643  -0.940 -0.5426 -0.0212 -0.0934
  476MOL0     N65567   7.771   5.721  -1.015 -0.6714  0.1354 -0.4605
  476MOL0     C65568   7.771   5.859  -1.023 -0.9559  0.3661  0.7702
  476MOL0     C65569   7.869   5.887  -1.105  0.0191  0.5970 -0.1817
  476MOL0     C65570   7.912   6.021  -1.155 -0.5894  0.3476  0.3067
  476MOL0     C65571   7.924   6.019  -1.304 -1.3016 -0.5339 -0.0516
  476MOL0     C65572   7.953   6.156  -1.345 -0.3365 -0.0789  0.1675
  476MOL0     C65573   7.854   6.205  -1.453  0.5070  0.5384 -0.3661
  476MOL0     O65574   7.896   6.340  -1.486 -0.0410  0.4595  0.3373
  476MOL0     C65575   7.834   6.403  -1.588 -1.1889  1.0220  0.2233
  476MOL0     C65576   7.721   6.353  -1.655 -0.0903 -0.0196  1.2856
  476MOL0     C65577   7.665   6.422  -1.770  0.1188 -0.0576 -0.8127
  476MOL0     C65578   7.541   6.365  -1.831  1.2779 -0.2353  0.1392
  476MOL0     C65579   7.731   6.544  -1.799  0.5607 -0.2383  0.5494
  476MOL0     C65580   7.690   6.632  -1.912 -0.2209 -0.3927 -0.0865
  476MOL0     O65581   7.555   6.632  -1.949  1.1440 -0.1335 -0.3279
  476MOL0     C65582   7.531   6.663  -2.077  0.2438 -0.7694 -0.5286
  476MOL0     C65583   7.416   6.722  -2.115  1.6282  0.3934  0.5767
  476MOL0     C65584   7.367   6.738  -2.245 -0.3413  1.3222 -0.9142
  476MOL0     C65585   7.440   6.686  -2.345 -0.9819 -0.5246  0.0728
  476MOL0     O65586   7.404   6.688  -2.480 -0.2950  0.5591  1.0144
  476MOL0     C65587   7.271   6.728  -2.508  0.7879  0.1287 -0.4012
  476MOL0     C65588   7.163   6.626  -2.472 -0.6602 -1.3576  0.1052
  476MOL0     C65589   7.048   6.627  -2.574  0.4084  0.8408  0.0679
  476MOL0     C65590   7.103   6.559  -2.706  0.0499  0.9260 -0.3265
  476MOL0     C65591   7.003   6.590  -2.828 -0.1440  0.3782 -0.3906
  476MOL0     C65592   7.043   6.507  -2.946 -0.5509  0.3936 -0.2802
  476MOL0     C65593   6.965   6.559  -3.080 -0.8280 -0.1933 -0.0653
  476MOL0     C65594   6.804   6.590  -3.064 -0.3944 -0.0333 -0.0067
  476MOL0    Cl65595   6.763   6.758  -3.009 -0.7031 -0.1376  0.1530
  476MOL0     C65596   7.566   6.628  -2.316 -0.3132  0.5261 -0.2346
  476MOL0     C65597   7.611   6.619  -2.181 -0.9332  0.4757 -0.8968
  476MOL0     O65598   7.775   6.703  -1.961 -0.6457  0.7840 -0.0555
  476MOL0     C65599   7.842   6.590  -1.733 -0.6918  1.0659  0.3319
  476MOL0     C65600   7.897   6.519  -1.624  0.1599 -0.5669  0.0359
  476MOL0     N65601   7.938   5.768  -1.125  0.6471 -0.1892 -0.5240
  476MOL0     N65602   7.877   5.664  -1.076  0.3107 -0.7084 -0.8034
  476MOL0     C65603   7.634   5.607   0.211 -0.8948  0.4669  0.0529
  476MOL0     C65604   7.770   5.595   0.247  0.1792  0.2322 -0.9031
  476MOL0     C65605   8.169   5.395   0.321  0.4189 -0.5246  0.3777
  476MOL0     C65606   8.250   5.518   0.322 -0.3231  0.3082 -1.3033
  476MOL0     C65607   8.380   5.520   0.381 -0.2605 -0.9740 -0.4015
  476MOL0     C65608   8.433   5.400   0.415 -0.5609  0.1212  0.2789
  476MOL0     O65609   8.558   5.363   0.458 -0.4716 -0.1950  0.0265
  476MOL0     C65610   8.650   5.477   0.473 -1.2612 -0.6234 -1.2270
  476MOL0     C65611   8.782   5.421   0.521 -1.1886 -1.1016  0.0615
  476MOL0     C65612   8.784   5.339   0.650 -0.1893  0.6076 -0.0129
  476MOL0     C65613   8.929   5.308   0.675  0.1510 -0.3144  0.0209
  476MOL0     C65614   8.992   5.215   0.579 -0.0594  0.2851  1.0133
  476MOL0     C65615   9.051   5.136   0.506 -0.0866 -0.9208 -0.1675
  476MOL0     C65616   8.360   5.279   0.401 -0.6501 -0.7868 -0.3311
  476MOL0     C65617   8.232   5.276   0.352  0.4438 -0.8366 -0.0899
  476MOL0     C65618   8.171   5.144   0.338  0.3766 -0.2813 -0.1773
  476MOL0     H65619   7.912   5.438  -0.022  0.4416 -1.6093  0.3991
  476MOL0     H65620   7.687   5.484  -0.102 -0.4954  1.2290 -0.0205
  476MOL0     H65621   7.356   5.402  -0.042 -0.1650 -0.2757 -0.0926
  476MOL0     H65622   7.504   5.352  -0.063 -0.5031  0.3761  1.1491
  476MOL0     H65623   7.356   5.415  -0.261 -0.3589 -0.3362  1.4272
  476MOL0     H65624   7.373   5.597  -0.231 -1.4856  0.4928  1.4983
  476MOL0     H65625   7.605   5.585  -0.254  2.9733 -2.7891  0.9646
  476MOL0     H65626   7.607   5.416  -0.317  3.7759  2.3421 -1.9957
  476MOL0     H65627   7.431   5.474  -0.478 -0.1474 -1.0722  4.0591
  476MOL0     H65628   7.458   5.644  -0.438 -1.3369 -1.1048 -1.6076
  476MOL0     H65629   7.699   5.486  -0.539 -1.1132 -0.2552 -0.8136
  476MOL0     H65630   7.673   5.662  -0.519 -0.0275  0.6121  0.3494
  476MOL0     H65631   7.564   5.484  -0.730 -1.6955  0.8226 -2.2546
  476MOL0     H65632   7.495   5.635  -0.702 -0.3574  0.2615  0.6932
  476MOL0     H65633   7.791   5.590  -0.769 -0.7303 -0.6918  0.1849
  476MOL0     H65634   7.715   5.747  -0.757  1.2438  0.8593 -1.5778
  476MOL0     H65635   7.662   5.539  -0.973 -0.3951 -0.5694  1.4994
  476MOL0     H65636   7.572   5.688  -0.964  0.1131  2.3378  1.2436
  476MOL0     H65637   7.700   5.926  -0.975 -0.1348  0.6211  1.6491
  476MOL0     H65638   8.007   6.053  -1.110 -1.3703  0.6033  1.8473
  476MOL0     H65639   7.828   6.086  -1.130 -0.5556  1.6319 -2.5394
  476MOL0     H65640   7.994   5.946  -1.346 -0.1923  0.2118  0.4792
  476MOL0     H65641   7.827   5.985  -1.343 -1.2904 -0.5193 -0.0927
  476MOL0     H65642   7.963   6.236  -1.270 -3.4460 -1.8884  2.7758
  476MOL0     H65643   8.050   6.174  -1.392 -1.2146  0.7844 -1.3864
  476MOL0     H65644   7.869   6.151  -1.547  2.5087 -0.4509  0.4697
  476MOL0     H65645   7.751   6.201  -1.416 -0.1326 -3.5923 -2.0959
  476MOL0     H65646   7.673   6.262  -1.619  2.0686 -0.6420  2.7269
  476MOL0     H65647   7.557   6.352  -1.938  0.6422 -0.0958  0.0225
  476MOL0     H65648   7.457   6.433  -1.812  1.5860 -0.1504  1.2677
  476MOL0     H65649   7.536   6.271  -1.776  1.3521  0.3157  1.1254
  476MOL0     H65650   7.353   6.755  -2.033 -0.1186  2.2964 -1.4218
  476MOL0     H65651   7.277   6.796  -2.264 -2.2677 -0.8485  0.9381
  476MOL0     H65652   7.237   6.824  -2.467  1.5250 -0.4151  1.6031
  476MOL0     H65653   7.266   6.750  -2.615 -1.1288  0.4611 -0.2804
  476MOL0     H65654   7.198   6.522  -2.474 -0.8111 -1.4142  0.4813
  476MOL0     H65655   7.125   6.646  -2.372  1.2870  0.9055  0.4580
  476MOL0     H65656   7.005   6.726  -2.589 -2.2718  0.3323  3.1171
  476MOL0     H65657   6.968   6.557  -2.545  3.9082 -2.2020  3.5847
  476MOL0     H65658   7.127   6.453  -2.692 -3.5020 -0.0701 -0.8814
  476MOL0     H65659   7.196   6.612  -2.727  1.8862 -2.4704 -1.5004
  476MOL0     H65660   6.901   6.559  -2.803 -0.6904  3.4170  1.6043
  476MOL0     H65661   6.996   6.695  -2.857  2.9006  1.2791  1.6640
  476MOL0     H65662   7.004   6.409  -2.917  0.1514  1.2178  4.1391
  476MOL0     H65663   7.152   6.508  -2.959 -0.6397  2.2316 -1.2805
  476MOL0     H65664   6.967   6.478  -3.153  1.8499 -2.3013  2.0985
  476MOL0     H65665   7.012   6.650  -3.117  2.5914 -2.7393 -2.6287
  476MOL0     H65666   6.755   6.513  -3.004 -1.1922 -1.3353 -2.2189
  476MOL0     H65667   6.768   6.596  -3.167 -0.3884 -1.3294 -0.1050
  476MOL0     H65668   7.626   6.588  -2.397 -0.4305  1.3746 -0.7494
  476MOL0     H65669   7.705   6.567  -2.163 -0.5268  1.5873  0.3326
  476MOL0     H65670   7.895   6.681  -1.760  3.7949 -1.4181 -0.1407
  476MOL0     H65671   7.982   6.558  -1.568  0.0979 -0.2389 -0.0980
  476MOL0     H65672   7.556   5.647   0.275 -2.0754 -1.9075  0.1966
  476MOL0     H65673   7.811   5.638   0.338 -2.3126  2.2303 -0.6250
  476MOL0     H65674   8.207   5.614   0.297 -1.6122  0.8099  2.2684
  476MOL0     H65675   8.427   5.618   0.385 -0.8983 -0.6931  0.3929
  476MOL0     H65676   8.671   5.530   0.380 -0.2476 -3.8748 -3.0196
  476MOL0     H65677   8.607   5.549   0.543  2.3713  0.0337  0.5254
  476MOL0     H65678   8.839   5.510   0.548  0.5580 -1.8688 -0.9549
  476MOL0     H65679   8.838   5.378   0.438  0.7049  1.4935 -0.1227
  476MOL0     H65680   8.749   5.388   0.741  2.2509 -3.0721  3.2837
  476MOL0     H65681   8.723   5.248   0.641  1.9360 -0.8203 -0.7124
  476MOL0     H65682   8.946   5.257   0.770  0.2361  1.1585  0.8210
  476MOL0     H65683   8.998   5.393   0.670  1.2059 -1.1007  0.8260
  476MOL0     H65684   9.106   5.074   0.439  0.9162  0.1950 -0.4115
  476MOL0     H65685   8.408   5.188   0.435 -0.4070 -0.3054  0.6431
  476MOL0     H65686   8.096   5.136   0.258  1.6614 -1.9554 -1.3049
  476MOL0     H65687   8.251   5.076   0.306 -1.2505 -2.0449 -0.7536
  476MOL0     H65688   8.133   5.114   0.436  0.8426 -3.8233 -0.9336
  477MOL0     O65689  10.688   7.501   4.489  0.6320 -0.0145  0.5969
  477MOL0     C65690  10.770   7.578   4.540  0.5332  0.5536  0.6661
  477MOL0     O65691  10.820   7.689   4.471  0.4910 -0.2294  1.2204
  477MOL0     C65692  10.732   7.749   4.385  0.6245 -0.5949 -0.0727
  477MOL0     C65693  10.613   7.821   4.418 -0.4457  0.2361  0.2756
  477MOL0     C65694  10.541   7.894   4.325  0.4535  0.4125  0.0417
  477MOL0     C65695  10.563   7.875   4.187 -0.1004  0.4727  1.0224
  477MOL0     O65696  10.482   7.931   4.087  0.5851  0.1714  0.7952
  477MOL0     C65697  10.359   7.988   4.120  0.4482  0.3107  0.1803
  477MOL0     C65698  10.271   8.012   3.996 -0.0799  0.1038 -0.1872
  477MOL0     C65699  10.346   8.108   3.891 -0.0520 -0.0918 -0.5310
  477MOL0     C65700  10.236   8.175   3.804 -0.1708 -0.4816  0.1179
  477MOL0     C65701  10.267   8.296   3.719 -0.3143 -0.2268 -0.7763
  477MOL0     C65702  10.141   8.362   3.653 -0.2999 -0.1541 -0.0431
  477MOL0     C65703  10.056   8.444   3.756  0.0806 -0.7152 -0.1654
  477MOL0     C65704   9.965   8.550   3.697  0.4757 -0.3990  0.3915
  477MOL0     N65705  10.036   8.644   3.617  0.0862 -0.5726 -0.4367
  477MOL0     C65706  10.086   8.749   3.691  0.0970  0.0173  0.4832
  477MOL0     C65707  10.140   8.829   3.596 -0.1970 -0.2044  0.5445
  477MOL0     C65708  10.199   8.965   3.635  0.3650  1.0660  0.0939
  477MOL0     C65709  10.341   8.981   3.568  0.2490  0.4094 -0.6831
  477MOL0     C65710  10.398   9.119   3.577 -0.7157  0.2530 -0.7495
  477MOL0     C65711  10.526   9.126   3.489  0.5856  0.1678  0.6680
  477MOL0     O65712  10.629   9.025   3.529  0.5859  0.2449 -0.1669
  477MOL0     C65713  10.748   9.079   3.580 -0.5913 -0.2937  0.0906
  477MOL0     C65714  10.773   9.214   3.624  0.0447  0.0579  0.6549
  477MOL0     C65715  10.906   9.262   3.663 -1.3684 -0.3152 -0.0337
  477MOL0     C65716  10.926   9.398   3.722  0.3090 -0.5118  0.7606
  477MOL0     C65717  11.016   9.168   3.660 -0.2154 -0.0936  0.6599
  477MOL0     C65718  11.157   9.203   3.689 -0.7037 -0.8402  0.0720
  477MOL0     O65719  11.222   9.120   3.773  0.5025 -0.2629 -0.0847
  477MOL0     C65720  11.354   9.112   3.767 -0.0585  0.1704 -0.0809
  477MOL0     C65721  11.440   9.162   3.862  0.1232  0.4155 -0.6039
  477MOL0     C65722  11.576   9.136   3.869 -0.0379  0.7086 -0.5305
  477MOL0     C65723  11.631   9.055   3.766 -0.2116  0.8900  0.8903
  477MOL0     O65724  11.765   9.011   3.782 -0.2370 -0.2808  0.0762
  477MOL0     C65725  11.844   8.963   3.669 -0.0706  0.5188  0.2492
  477MOL0     C65726  12.000   8.934   3.711  1.0400  0.5551  0.8506
  477MOL0     C65727  12.071   9.067   3.752  0.1720  0.6599  0.5224
  477MOL0     C65728  12.222   9.065   3.722 -0.4202  0.3539 -0.4042
  477MOL0     C65729  12.279   9.205   3.725 -0.0258  1.3581 -0.7083
  477MOL0     C65730  12.435   9.207   3.733 -0.5511  0.3298  0.3319
  477MOL0     C65731  12.486   9.353   3.713  0.1348  0.2894 -0.9479
  477MOL0     C65732  12.640   9.354   3.689  0.9842 -0.2298  0.3875
  477MOL0    Cl65733  12.718   9.333   3.842 -0.2994 -0.2844  0.1609
  477MOL0     C65734  11.549   8.998   3.667  0.4183  0.0761  0.3746
  477MOL0     C65735  11.413   9.025   3.670  0.4044  0.1903 -0.1208
  477MOL0     O65736  11.212   9.300   3.626  0.7092 -0.0305 -0.2731
  477MOL0     C65737  10.993   9.036   3.617  0.2199  0.5502  0.4291
  477MOL0     C65738  10.860   8.994   3.579  0.1674  0.3538  0.3407
  477MOL0     N65739  10.124   8.770   3.473 -0.4931  0.1399 -0.1207
  477MOL0     N65740  10.058   8.664   3.486 -0.4358  0.1397  0.3882
  477MOL0     C65741  10.677   7.794   4.149  0.3919  0.9378  0.5774
  477MOL0     C65742  10.752   7.732   4.248  0.8061 -0.0916 -0.0814
  477MOL0     C65743  10.844   7.539   4.659  0.5449 -1.0372  0.5282
  477MOL0     C65744  10.970   7.587   4.690  0.0566 -0.7324  0.1051
  477MOL0     C65745  11.036   7.555   4.809 -0.3896  0.6094  0.3110
  477MOL0     C65746  10.991   7.451   4.884  0.1698  0.7881  0.1517
  477MOL0     O65747  11.059   7.393   4.983 -0.2733  0.2064  0.3314
  477MOL0     C65748  11.154   7.465   5.069  0.4176 -0.3151  0.0339
  477MOL0     C65749  11.067   7.526   5.178  0.0916 -0.2355  0.1911
  477MOL0     C65750  11.155   7.617   5.264 -0.9200 -0.0792 -1.1358
  477MOL0     C65751  11.067   7.682   5.380 -1.0342 -0.4607 -0.4136
  477MOL0     C65752  11.157   7.729   5.482  0.4449 -0.2583 -0.3112
  477MOL0     C65753  11.238   7.760   5.563  0.3020  0.3753  0.0490
  477MOL0     C65754  10.862   7.405   4.865  0.0360 -0.6687 -0.7625
  477MOL0     C65755  10.791   7.445   4.750 -0.3508  0.1482  1.1245
  477MOL0     C65756  10.657   7.382   4.739  0.3551 -0.9573  0.3537
  477MOL0     H65757  10.591   7.836   4.523 -1.3142 -0.1464  0.1511
  477MOL0     H65758  10.470   7.971   4.354  0.1566  0.4946 -0.8760
  477MOL0     H65759  10.382   8.086   4.164  1.6178  1.2866 -2.3750
  477MOL0     H65760  10.300   7.925   4.186  1.5304 -1.3955 -0.4185
  477MOL0     H65761  10.240   7.917   3.952  1.2711 -1.0893  1.3143
  477MOL0     H65762  10.186   8.060   4.046  1.3206  3.3126 -0.6539
  477MOL0     H65763  10.407   8.186   3.939 -0.7318 -0.1819  0.4997
  477MOL0     H65764  10.407   8.043   3.827 -1.6511 -0.1210 -2.1127
  477MOL0     H65765  10.206   8.091   3.742  4.8968 -1.4110 -1.5808
  477MOL0     H65766  10.159   8.209   3.874 -0.4722  0.5538 -0.6871
  477MOL0     H65767  10.332   8.266   3.636  0.9835 -0.8685  0.4239
  477MOL0     H65768  10.329   8.360   3.782 -1.1462 -3.1837  3.4300
  477MOL0     H65769  10.160   8.439   3.578  0.8918 -2.5083 -2.2961
  477MOL0     H65770  10.078   8.290   3.598  0.6245  0.2880 -1.7406
  477MOL0     H65771  10.122   8.500   3.823 -4.0541  3.6898  0.7767
  477MOL0     H65772   9.993   8.385   3.822  1.0464 -2.4435 -0.7101
  477MOL0     H65773   9.885   8.508   3.636 -0.4103  1.8744 -0.1168
  477MOL0     H65774   9.918   8.596   3.785  3.0844  2.9426  0.2676
  477MOL0     H65775  10.069   8.766   3.797 -2.8871 -0.4300  0.1607
  477MOL0     H65776  10.188   8.981   3.743  0.4472  1.9262 -0.0174
  477MOL0     H65777  10.138   9.045   3.592  0.4641  0.9179 -0.3316
  477MOL0     H65778  10.407   8.907   3.616 -0.0395  1.1692  0.9705
  477MOL0     H65779  10.320   8.957   3.464 -0.6413 -0.7520 -0.2591
  477MOL0     H65780  10.326   9.200   3.561 -0.7766  0.0114 -1.7801
  477MOL0     H65781  10.426   9.125   3.682  0.0573 -0.0947 -0.9284
  477MOL0     H65782  10.484   9.092   3.394  2.5847 -2.1546  0.5061
  477MOL0     H65783  10.577   9.221   3.467  2.0288 -0.9949 -1.4141
  477MOL0     H65784  10.691   9.285   3.630 -1.0134 -1.2087  4.4799
  477MOL0     H65785  11.001   9.401   3.802 -0.8461  0.5602  1.8702
  477MOL0     H65786  10.831   9.431   3.766  0.5048  2.0955 -0.5508
  477MOL0     H65787  10.948   9.476   3.649 -5.2593  2.3232  1.5741
  477MOL0     H65788  11.398   9.231   3.934 -1.2060  1.6855 -2.5110
  477MOL0     H65789  11.637   9.184   3.944  4.1677 -0.9062 -2.5939
  477MOL0     H65790  11.790   8.872   3.642 -1.1977  0.7931  1.4593
  477MOL0     H65791  11.834   9.031   3.584 -2.4928 -1.9927 -1.6384
  477MOL0     H65792  12.000   8.873   3.801 -0.3320 -1.6466 -0.5532
  477MOL0     H65793  12.052   8.884   3.629 -1.4284 -1.1066  0.2208
  477MOL0     H65794  12.043   9.095   3.854  0.5284 -0.2803  0.8866
  477MOL0     H65795  12.025   9.140   3.684 -3.5027 -4.3648 -3.1223
  477MOL0     H65796  12.244   9.019   3.625  0.3973 -1.9412  0.7935
  477MOL0     H65797  12.274   9.003   3.796 -3.7254 -0.2520  1.6173
  477MOL0     H65798  12.244   9.254   3.634 -0.4311 -0.8464 -1.8292
  477MOL0     H65799  12.254   9.262   3.815  1.6467  0.1469  0.6079
  477MOL0     H65800  12.463   9.152   3.643 -1.2665 -0.0396  0.3260
  477MOL0     H65801  12.486   9.169   3.822  0.4401 -1.6334 -0.9979
  477MOL0     H65802  12.456   9.425   3.789  0.1411 -1.7936  1.1347
  477MOL0     H65803  12.428   9.387   3.627 -4.6842 -2.6756  0.7069
  477MOL0     H65804  12.668   9.454   3.653 -1.0208 -0.2285 -1.4385
  477MOL0     H65805  12.678   9.280   3.618  2.3310 -0.6343  1.4996
  477MOL0     H65806  11.591   8.940   3.586 -0.2949 -1.3972  1.0294
  477MOL0     H65807  11.351   8.966   3.604 -0.4456  1.8583 -0.8721
  477MOL0     H65808  11.072   8.962   3.623  0.0587  0.2914 -0.5360
  477MOL0     H65809  10.827   8.896   3.547  0.6419 -0.1779  1.4186
  477MOL0     H65810  10.691   7.772   4.043  2.2641 -0.9679  1.1654
  477MOL0     H65811  10.834   7.669   4.213  1.7517  1.6429 -1.1652
  477MOL0     H65812  11.008   7.671   4.634  1.9164  0.2454  2.6372
  477MOL0     H65813  11.131   7.605   4.829 -0.0367  0.6734 -1.3865
  477MOL0     H65814  11.219   7.389   5.112 -0.1153 -1.3119 -0.8766
  477MOL0     H65815  11.216   7.541   5.021  1.9384 -0.1141  2.1650
  477MOL0     H65816  11.016   7.445   5.232  1.2026 -0.6859  0.5879
  477MOL0     H65817  10.992   7.592   5.134 -0.9584 -1.3251  0.2898
  477MOL0     H65818  11.254   7.576   5.287 -1.1201 -0.4169 -0.8575
  477MOL0     H65819  11.175   7.703   5.200  1.2199 -0.9740 -1.7371
  477MOL0     H65820  11.001   7.611   5.431  2.4205 -0.4205  4.7970
  477MOL0     H65821  11.016   7.774   5.348  0.5826  1.3470  1.8465
  477MOL0     H65822  11.306   7.810   5.629  1.1099 -0.3663 -0.2007
  477MOL0     H65823  10.815   7.331   4.929 -2.7290  0.2616 -1.5443
  477MOL0     H65824  10.586   7.465   4.736  1.0868 -0.1342  3.0315
  477MOL0     H65825  10.644   7.313   4.655  1.8538 -1.3311  0.4005
  477MOL0     H65826  10.630   7.333   4.833  0.8078 -0.4080  0.7771
  478MOL0     O65827   5.541   9.894   5.120 -0.6510  0.3700  1.1820
  478MOL0     C65828   5.471   9.859   5.208  0.4763  0.1404  0.1648
  478MOL0     O65829   5.475   9.892   5.339  0.2787  0.5023 -0.2360
  478MOL0     C65830   5.575   9.983   5.369  0.4509 -0.2446  0.3883
  478MOL0     C65831   5.534  10.105   5.427 -0.9948 -0.7003 -0.5227
  478MOL0     C65832   5.622  10.201   5.467  0.1210 -0.0009 -0.0370
  478MOL0     C65833   5.754  10.178   5.446  0.2347 -0.1646 -0.0991
  478MOL0     O65834   5.847  10.267   5.489 -0.6474  0.0909  0.5544
  478MOL0     C65835   5.833  10.399   5.452  0.0361 -0.0043  1.2569
  478MOL0     C65836   5.975  10.438   5.410 -0.3449  0.0275 -0.5914
  478MOL0     C65837   6.031  10.380   5.285 -0.3222  0.0748 -0.3001
  478MOL0     C65838   6.189  10.399   5.267 -0.2712  0.0316  0.1222
  478MOL0     C65839   6.241  10.401   5.119 -1.5703  0.1627 -0.5414
  478MOL0     C65840   6.392  10.417   5.149 -0.4180  0.6746  0.5091
  478MOL0     C65841   6.462  10.394   5.014  0.3817 -0.3234  0.3172
  478MOL0     C65842   6.607  10.453   5.015 -0.7988 -0.2772  0.2243
  478MOL0     N65843   6.607  10.596   5.018 -0.4855  0.3631  0.1775
  478MOL0     C65844   6.573  10.679   4.915  0.8904 -0.1516  0.2505
  478MOL0     C65845   6.566  10.802   4.969 -0.9293 -1.0451 -0.7005
  478MOL0     C65846   6.515  10.928   4.917 -0.5468 -0.3668 -0.1500
  478MOL0     C65847   6.368  10.972   4.954 -0.5875 -0.5403  0.2305
  478MOL0     C65848   6.339  11.005   5.101  0.5884  0.5555 -0.0162
  478MOL0     C65849   6.185  10.988   5.114  0.5742 -0.4724  0.1023
  478MOL0     O65850   6.132  10.857   5.075 -0.0227 -0.0902 -0.6916
  478MOL0     C65851   5.998  10.827   5.101  0.2980 -0.5847 -0.1147
  478MOL0     C65852   5.905  10.929   5.140  0.5865 -0.1769 -0.4864
  478MOL0     C65853   5.767  10.909   5.187  0.8980 -0.3239 -0.3272
  478MOL0     C65854   5.673  11.024   5.228 -0.9074 -0.1819 -0.0312
  478MOL0     C65855   5.726  10.778   5.195  0.3291 -0.2991  1.0369
  478MOL0     C65856   5.599  10.727   5.254 -0.5028 -0.0087 -0.0415
  478MOL0     O65857   5.592  10.600   5.302 -0.2316  0.0284  0.5551
  478MOL0     C65858   5.482  10.570   5.374  0.4272  0.6790  0.0905
  478MOL0     C65859   5.363  10.514   5.318 -0.6014 -0.9226  0.1391
  478MOL0     C65860   5.242  10.512   5.394  0.3850 -1.0847  0.2184
  478MOL0     C65861   5.242  10.560   5.520 -0.4708 -0.4751  0.2832
  478MOL0     O65862   5.127  10.587   5.578  0.0399 -0.0595 -0.9665
  478MOL0     C65863   5.112  10.523   5.708  0.4316  1.1089 -0.2501
  478MOL0     C65864   5.148  10.380   5.702  0.3722 -0.1028 -0.5200
  478MOL0     C65865   5.115  10.320   5.834  0.2874  0.3686  0.2095
  478MOL0     C65866   5.222  10.344   5.948  1.2661  0.0322 -0.2598
  478MOL0     C65867   5.160  10.308   6.085  0.9290 -0.5316  0.2109
  478MOL0     C65868   5.069  10.423   6.131 -0.3961 -0.2907  0.2599
  478MOL0     C65869   4.923  10.372   6.165  0.2695 -0.2486 -1.0003
  478MOL0     C65870   4.817  10.485   6.160 -0.2781 -0.6486 -0.1050
  478MOL0    Cl65871   4.794  10.571   6.008 -0.5536  0.4624  0.4082
  478MOL0     C65872   5.357  10.614   5.575  1.1478  0.1952  0.0505
  478MOL0     C65873   5.472  10.626   5.499 -0.2275  0.6027 -0.8715
  478MOL0     O65874   5.514  10.813   5.268 -1.0180  0.1982  0.0442
  478MOL0     C65875   5.803  10.676   5.141 -0.5358 -0.1250  0.2859
  478MOL0     C65876   5.935  10.704   5.095 -0.3352 -0.2310 -0.8813
  478MOL0     N65877   6.599  10.800   5.101 -0.2758 -0.0019  0.2574
  478MOL0     N65878   6.637  10.686   5.126 -0.4101  0.2925  0.4707
  478MOL0     C65879   5.805  10.060   5.390  0.3830  0.4342  0.1133
  478MOL0     C65880   5.712   9.957   5.355  0.5207  0.4138  0.3245
  478MOL0     C65881   5.346   9.773   5.171  0.9386 -0.4879 -0.1785
  478MOL0     C65882   5.278   9.708   5.279 -0.3382 -0.5441  0.0932
  478MOL0     C65883   5.167   9.631   5.270 -0.3974  0.0598 -0.8068
  478MOL0     C65884   5.114   9.603   5.146  0.0785  0.0555 -0.0261
  478MOL0     O65885   4.999   9.537   5.153  0.0607  0.0574 -0.1156
  478MOL0     C65886   4.964   9.447   5.036  0.2083  0.0015  0.2226
  478MOL0     C65887   4.917   9.311   5.085  0.2366  0.0324  0.1141
  478MOL0     C65888   4.866   9.221   4.974 -0.5564  0.2124  0.5455
  478MOL0     C65889   4.748   9.294   4.889 -0.0801  0.7878  0.2567
  478MOL0     C65890   4.688   9.194   4.797  0.1398 -0.2732 -0.2214
  478MOL0     C65891   4.647   9.102   4.731 -0.0967  0.8829 -0.1333
  478MOL0     C65892   5.167   9.662   5.030 -0.3693  1.1079  0.4741
  478MOL0     C65893   5.288   9.747   5.040  0.4724 -0.0482  0.0264
  478MOL0     C65894   5.328   9.818   4.920 -0.6296 -0.2963  0.3487
  478MOL0     H65895   5.427  10.125   5.428 -0.5163  2.6137 -1.4428
  478MOL0     H65896   5.584  10.298   5.498  1.4687  0.7897 -0.7709
  478MOL0     H65897   5.794  10.452   5.539 -0.5227  0.3218  0.8165
  478MOL0     H65898   5.767  10.418   5.367  1.0925  0.3300  0.5031
  478MOL0     H65899   5.969  10.547   5.402 -3.2945 -0.1455 -1.9186
  478MOL0     H65900   6.042  10.405   5.490 -1.2199 -1.7375 -0.5286
  478MOL0     H65901   6.008  10.273   5.278 -1.9574  0.3183  0.6846
  478MOL0     H65902   6.001  10.434   5.196  3.5882  0.4082 -1.5906
  478MOL0     H65903   6.217  10.488   5.324 -3.5224 -0.4436  2.7845
  478MOL0     H65904   6.235  10.312   5.315 -0.9283 -3.1021 -4.2396
  478MOL0     H65905   6.218  10.491   5.062 -1.0966  1.3127  1.0213
  478MOL0     H65906   6.234  10.313   5.054 -0.1220  0.3923 -1.0292
  478MOL0     H65907   6.415  10.512   5.199  0.9654  0.8314 -0.3575
  478MOL0     H65908   6.422  10.339   5.220  0.8436  2.0661  1.5970
  478MOL0     H65909   6.401  10.436   4.935 -0.2131 -0.3171  0.7736
  478MOL0     H65910   6.478  10.292   4.978  2.9742  0.8243 -2.1230
  478MOL0     H65911   6.658  10.430   5.109 -0.8170  0.5287  0.4447
  478MOL0     H65912   6.666  10.419   4.930 -0.0441 -2.2942  1.4833
  478MOL0     H65913   6.539  10.645   4.818 -0.2593  1.6496 -0.0299
  478MOL0     H65914   6.534  10.924   4.809  0.9065  0.2099  0.0551
  478MOL0     H65915   6.591  11.002   4.945  1.0382 -0.4307 -3.6808
  478MOL0     H65916   6.343  11.062   4.897  1.0736 -1.0989 -1.4808
  478MOL0     H65917   6.305  10.896   4.907  0.0858  1.9353 -5.5112
  478MOL0     H65918   6.389  10.945   5.177  0.0375  1.8822  1.4411
  478MOL0     H65919   6.366  11.110   5.115  0.1976  0.4636  1.6014
  478MOL0     H65920   6.157  11.013   5.217  0.0082  0.3654 -0.2484
  478MOL0     H65921   6.141  11.072   5.059  3.6355  1.1921 -0.0409
  478MOL0     H65922   5.928  11.035   5.142 -0.1116 -0.0212 -0.6235
  478MOL0     H65923   5.651  11.009   5.335 -0.3236 -0.8380  0.0062
  478MOL0     H65924   5.577  11.036   5.177 -1.0177  0.1009  0.2404
  478MOL0     H65925   5.724  11.117   5.204 -1.4509 -0.2604 -1.6189
  478MOL0     H65926   5.366  10.491   5.212  3.0540 -1.5815  0.2709
  478MOL0     H65927   5.156  10.461   5.351  0.4438 -2.2651  1.4364
  478MOL0     H65928   5.170  10.568   5.790 -2.6080  1.5642  1.8338
  478MOL0     H65929   5.005  10.530   5.731  0.6209  3.1720  0.1794
  478MOL0     H65930   5.093  10.334   5.620  1.6941 -2.2595 -0.2716
  478MOL0     H65931   5.256  10.372   5.685  0.4778  1.1076 -0.4935
  478MOL0     H65932   5.121  10.211   5.830  1.5968  0.3446  1.6655
  478MOL0     H65933   5.013  10.345   5.863  0.9785  2.1181  1.3043
  478MOL0     H65934   5.259  10.447   5.950 -2.5206  1.5327  1.3337
  478MOL0     H65935   5.309  10.280   5.930  2.5886  1.9218 -1.0461
  478MOL0     H65936   5.096  10.219   6.083 -1.8209  1.2821  1.3728
  478MOL0     H65937   5.239  10.281   6.155  0.8703  0.0969  0.5280
  478MOL0     H65938   5.071  10.501   6.054 -1.0970 -0.4136  0.1066
  478MOL0     H65939   5.110  10.463   6.224 -2.1202 -1.9380  1.8124
  478MOL0     H65940   4.927  10.318   6.260  0.2471 -0.0829 -0.9042
  478MOL0     H65941   4.885  10.301   6.091  0.3598 -1.4958  0.1254
  478MOL0     H65942   4.845  10.562   6.232  0.9631 -1.3234  0.1627
  478MOL0     H65943   4.729  10.433   6.199  0.8743 -3.0943 -0.5757
  478MOL0     H65944   5.361  10.645   5.679 -1.1795 -0.1257  0.2857
  478MOL0     H65945   5.559  10.679   5.536  0.2332 -0.5924 -0.2267
  478MOL0     H65946   5.757  10.578   5.135 -3.1106  0.9370  0.8804
  478MOL0     H65947   5.985  10.620   5.049 -1.0678 -0.0477 -2.0516
  478MOL0     H65948   5.912  10.058   5.375  0.5267 -3.8719  0.3889
  478MOL0     H65949   5.742   9.868   5.301 -0.0307  0.4312 -0.0224
  478MOL0     H65950   5.327   9.717   5.375  2.7894  1.3436 -1.5044
  478MOL0     H65951   5.127   9.584   5.359 -1.3065 -0.6553 -1.5762
  478MOL0     H65952   4.887   9.507   4.987 -0.7398 -2.6303 -1.7170
  478MOL0     H65953   5.042   9.440   4.959  0.9183 -2.0958  1.0592
  478MOL0     H65954   4.849   9.328   5.169 -1.3982  1.3265 -1.3821
  478MOL0     H65955   5.006   9.263   5.126  1.0822  1.7415  0.3622
  478MOL0     H65956   4.954   9.190   4.916  1.1271 -1.9528  3.9003
  478MOL0     H65957   4.825   9.132   5.023  1.4026 -1.0966 -0.0532
  478MOL0     H65958   4.776   9.380   4.828 -0.0034  0.6947  0.1625
  478MOL0     H65959   4.670   9.339   4.951 -1.8778  0.4506 -1.6528
  478MOL0     H65960   4.607   9.012   4.689 -0.7210 -0.1519  2.4479
  478MOL0     H65961   5.127   9.630   4.935  1.8319 -3.4512  0.8304
  478MOL0     H65962   5.241   9.828   4.855 -0.4640 -0.1703  0.1489
  478MOL0     H65963   5.366   9.917   4.945  1.8876 -1.2401  0.6061
  478MOL0     H65964   5.406   9.759   4.871 -0.4225  0.1694  0.1168
  479MOL0     O65965   1.941   5.440   5.526  0.6997  0.3043 -0.3622
  479MOL0     C65966   2.036   5.367   5.564 -0.4305  0.3410  0.5271
  479MOL0     O65967   2.050   5.239   5.514 -0.9113 -0.2332 -0.3234
  479MOL0     C65968   1.990   5.205   5.397 -0.2355  0.0833  0.2088
  479MOL0     C65969   1.916   5.089   5.395  0.4946 -1.1344  0.2754
  479MOL0     C65970   1.859   5.044   5.273  0.1273 -0.5531 -0.5490
  479MOL0     C65971   1.866   5.116   5.159 -0.0409 -0.1196  1.0428
  479MOL0     O65972   1.812   5.061   5.040 -0.1061  0.1850 -0.6140
  479MOL0     C65973   1.669   5.028   5.051  0.8375 -0.9024  0.8453
  479MOL0     C65974   1.641   4.995   4.903  0.5457 -0.2780  0.3090
  479MOL0     C65975   1.481   4.970   4.877 -0.7027 -0.8623  0.6777
  479MOL0     C65976   1.395   5.100   4.889  0.2726  0.6032  0.5992
  479MOL0     C65977   1.252   5.057   4.856 -0.4450  0.5312 -0.0044
  479MOL0     C65978   1.147   5.171   4.864  0.7560  0.6796 -0.6865
  479MOL0     C65979   1.153   5.256   4.986  0.1460 -0.1940 -0.7138
  479MOL0     C65980   1.030   5.350   5.001 -0.7567 -0.3235 -0.5335
  479MOL0     N65981   1.073   5.487   5.030  0.1971 -0.1299  0.3044
  479MOL0     C65982   1.144   5.529   5.140  0.5872  0.4240 -0.4436
  479MOL0     C65983   1.138   5.660   5.121  0.9527  0.0957  0.2205
  479MOL0     C65984   1.200   5.762   5.207 -0.1340 -0.3271 -0.3090
  479MOL0     C65985   1.349   5.765   5.197  0.1214 -0.2142  0.0502
  479MOL0     C65986   1.403   5.811   5.328  0.4119  0.2466 -0.8775
  479MOL0     C65987   1.544   5.872   5.331 -0.0085  0.1638 -0.1117
  479MOL0     O65988   1.635   5.784   5.269 -0.1347  0.0401  0.1458
  479MOL0     C65989   1.762   5.826   5.256  0.9471 -0.3251 -0.0551
  479MOL0     C65990   1.795   5.915   5.155 -0.8981 -0.0571 -0.0518
  479MOL0     C65991   1.925   5.955   5.122 -0.0526 -0.0060 -0.3744
  479MOL0     C65992   1.940   6.070   5.026  0.1617 -0.0075 -0.6800
  479MOL0     C65993   2.034   5.903   5.200 -0.1862 -0.4088 -0.5370
  479MOL0     C65994   2.177   5.930   5.188 -0.1727 -0.1984 -0.3974
  479MOL0     O65995   2.268   5.842   5.245  0.1283  0.2608 -0.4591
  479MOL0     C65996   2.400   5.879   5.230  0.1366 -0.3351  0.2131
  479MOL0     C65997   2.469   5.842   5.112  0.2585  0.0165 -0.4358
  479MOL0     C65998   2.604   5.872   5.096  0.3365  1.0664 -0.1935
  479MOL0     C65999   2.686   5.930   5.198  0.1221 -0.9850 -0.1716
  479MOL0     O66000   2.826   5.938   5.191  0.3489 -0.5369 -0.4070
  479MOL0     C66001   2.875   5.994   5.070  0.0895  0.0748 -0.4036
  479MOL0     C66002   3.010   6.060   5.107 -0.3702  0.1927 -0.2766
  479MOL0     C66003   3.118   5.963   5.172  0.6862 -0.6900 -0.4739
  479MOL0     C66004   3.253   6.028   5.208  0.0529  0.3342  0.0235
  479MOL0     C66005   3.363   5.931   5.246 -0.5991  0.0703 -0.4637
  479MOL0     C66006   3.334   5.869   5.380 -0.0795 -0.3830  0.2192
  479MOL0     C66007   3.444   5.760   5.406 -0.0086  1.0517  0.2300
  479MOL0     C66008   3.424   5.720   5.552 -0.4191 -0.1889 -0.6617
  479MOL0    Cl66009   3.540   5.585   5.590 -0.1596 -0.6204 -0.4408
  479MOL0     C66010   2.609   5.953   5.315  0.1803 -0.2192 -0.3416
  479MOL0     C66011   2.472   5.932   5.337  0.6126 -0.1203  0.4803
  479MOL0     O66012   2.208   6.040   5.135  0.8961 -0.1367 -0.7338
  479MOL0     C66013   2.003   5.802   5.296  0.5252  0.3187  0.5115
  479MOL0     C66014   1.868   5.769   5.325 -0.0434  0.0186  1.0193
  479MOL0     N66015   1.074   5.697   5.001  0.1179  0.4208  0.6261
  479MOL0     N66016   1.036   5.582   4.948 -0.3067 -0.4068 -0.8738
  479MOL0     C66017   1.936   5.234   5.159  0.1603  0.1011 -0.0249
  479MOL0     C66018   1.996   5.277   5.279 -0.2611  0.0122  0.5565
  479MOL0     C66019   2.127   5.415   5.667  0.5098 -0.2054  0.2562
  479MOL0     C66020   2.194   5.312   5.735 -0.5745  0.5372  0.5186
  479MOL0     C66021   2.273   5.352   5.850 -0.9772 -1.6631  0.3840
  479MOL0     C66022   2.286   5.485   5.893 -0.7105 -0.6179  0.3318
  479MOL0     O66023   2.362   5.510   6.005  0.5393  0.2248  0.5247
  479MOL0     C66024   2.380   5.644   6.045 -0.4179 -0.4602 -0.1398
  479MOL0     C66025   2.431   5.637   6.185 -0.3205  1.3189  0.7581
  479MOL0     C66026   2.365   5.519   6.271  0.1285 -0.5745  0.0850
  479MOL0     C66027   2.360   5.558   6.412 -0.3286 -0.7894 -0.2015
  479MOL0     C66028   2.487   5.566   6.492  0.4438  0.0335  0.4306
  479MOL0     C66029   2.592   5.564   6.562  0.7066  0.0475  0.6294
  479MOL0     C66030   2.216   5.587   5.815  0.0152 -0.0056  0.4304
  479MOL0     C66031   2.133   5.549   5.711 -0.0122 -0.7988 -0.1833
  479MOL0     C66032   2.057   5.665   5.645  0.3137 -0.3847 -0.7198
  479MOL0     H66033   1.914   5.040   5.491  1.7410  2.4300  2.3315
  479MOL0     H66034   1.792   4.960   5.278  2.1356 -2.1830  2.8541
  479MOL0     H66035   1.620   5.123   5.073  2.0006 -0.1107  0.1427
  479MOL0     H66036   1.641   4.952   5.125  2.6662 -2.4470  0.0531
  479MOL0     H66037   1.674   5.076   4.837 -2.4299  1.2791  0.5495
  479MOL0     H66038   1.697   4.905   4.875  0.0719 -0.1659 -1.0748
  479MOL0     H66039   1.469   4.927   4.778 -1.4786  0.5719  0.1208
  479MOL0     H66040   1.445   4.893   4.947 -3.2621  2.2467  3.1125
  479MOL0     H66041   1.406   5.132   4.993  2.6040  2.1943 -0.0611
  479MOL0     H66042   1.427   5.175   4.817 -1.3096  0.0093 -0.8040
  479MOL0     H66043   1.226   4.973   4.921 -0.4552  0.1782 -0.4602
  479MOL0     H66044   1.264   5.011   4.758 -0.5074 -1.5857  0.9184
  479MOL0     H66045   1.157   5.220   4.767  1.0399  0.3595 -0.8200
  479MOL0     H66046   1.051   5.117   4.864  1.5066 -0.9001  2.2519
  479MOL0     H66047   1.240   5.323   4.986 -0.6705  0.9268  0.6992
  479MOL0     H66048   1.169   5.197   5.077  1.1684 -0.1365 -0.8361
  479MOL0     H66049   0.962   5.344   4.916  0.0654  2.0363 -1.4566
  479MOL0     H66050   0.962   5.311   5.077 -0.8388 -1.2581 -1.0840
  479MOL0     H66051   1.168   5.468   5.227 -1.9619  0.0579  0.0739
  479MOL0     H66052   1.163   5.761   5.310 -1.9661  1.4116 -0.8787
  479MOL0     H66053   1.177   5.864   5.173  3.0660  1.3127  1.9706
  479MOL0     H66054   1.386   5.664   5.177  0.4968 -0.3637  1.4077
  479MOL0     H66055   1.383   5.843   5.128 -1.2451  2.7849  2.5050
  479MOL0     H66056   1.340   5.889   5.370 -1.1781  0.5180 -3.5405
  479MOL0     H66057   1.402   5.730   5.401 -0.7880  3.0255  2.4377
  479MOL0     H66058   1.544   5.966   5.274 -0.2034  1.4709  1.9686
  479MOL0     H66059   1.577   5.896   5.432 -0.7167  2.9365 -0.4656
  479MOL0     H66060   1.714   5.957   5.096  0.5608  1.0665 -1.3279
  479MOL0     H66061   1.987   6.158   5.071 -1.1656  1.3146 -1.8050
  479MOL0     H66062   1.842   6.095   4.985  0.1394 -0.8314 -1.1481
  479MOL0     H66063   1.996   6.042   4.937  1.1332  0.8119 -0.3446
  479MOL0     H66064   2.412   5.804   5.029 -2.8655  2.9682  0.1293
  479MOL0     H66065   2.645   5.854   4.998  0.5650  2.0053 -0.2805
  479MOL0     H66066   2.889   5.910   5.001  2.5638 -1.9102  2.2925
  479MOL0     H66067   2.803   6.068   5.033  0.0614  0.6787  0.8304
  479MOL0     H66068   3.061   6.095   5.017 -1.0134 -1.0778 -1.1762
  479MOL0     H66069   3.002   6.146   5.173  0.2062  1.6146 -1.9841
  479MOL0     H66070   3.143   5.874   5.114  2.5920 -2.1557  2.3229
  479MOL0     H66071   3.080   5.930   5.269 -0.2388  3.5052  0.7712
  479MOL0     H66072   3.238   6.111   5.278 -3.7029  0.7266 -0.9995
  479MOL0     H66073   3.283   6.077   5.115  2.9757 -0.6679  0.3391
  479MOL0     H66074   3.370   5.856   5.166 -1.3012 -1.4571  0.8571
  479MOL0     H66075   3.461   5.980   5.247 -0.8333  0.5398 -0.4666
  479MOL0     H66076   3.232   5.829   5.378  0.0932 -0.9530  1.9211
  479MOL0     H66077   3.330   5.935   5.466 -3.2129 -3.4351  2.6923
  479MOL0     H66078   3.546   5.786   5.376 -0.3529  0.8672 -1.1799
  479MOL0     H66079   3.427   5.667   5.350  3.7277  2.0730 -3.0403
  479MOL0     H66080   3.323   5.684   5.575 -0.5644 -0.3768 -1.5698
  479MOL0     H66081   3.439   5.811   5.612 -1.2427  1.5377 -2.9309
  479MOL0     H66082   2.664   5.994   5.400  1.8179  1.6126 -2.1929
  479MOL0     H66083   2.428   5.956   5.434  1.4992  1.7770  0.4728
  479MOL0     H66084   2.078   5.739   5.344 -0.7043 -1.8143 -0.2505
  479MOL0     H66085   1.828   5.695   5.394 -2.4522 -0.2404 -0.5518
  479MOL0     H66086   1.941   5.294   5.069 -0.0852  2.2111  1.2880
  479MOL0     H66087   2.058   5.365   5.293 -0.4652 -0.0082  1.6891
  479MOL0     H66088   2.211   5.209   5.706 -0.7454 -0.4021  3.4034
  479MOL0     H66089   2.335   5.282   5.905  1.3701  0.4327  0.5709
  479MOL0     H66090   2.433   5.707   5.974 -1.1292  0.6195  0.2556
  479MOL0     H66091   2.282   5.694   6.050  0.6366  1.6037  1.5660
  479MOL0     H66092   2.402   5.728   6.237 -1.1528  2.0622 -0.9313
  479MOL0     H66093   2.540   5.628   6.182 -0.4963 -1.3363 -0.2063
  479MOL0     H66094   2.260   5.509   6.243 -0.3231  0.8501  1.1397
  479MOL0     H66095   2.407   5.422   6.242  0.0200 -0.2513 -1.1881
  479MOL0     H66096   2.306   5.474   6.457 -2.5377  1.5885  1.9683
  479MOL0     H66097   2.295   5.645   6.426  2.2546  1.4324 -1.1696
  479MOL0     H66098   2.676   5.565   6.628 -0.4766 -1.2451  2.2376
  479MOL0     H66099   2.237   5.689   5.846  0.2806  0.7482 -2.0221
  479MOL0     H66100   1.953   5.636   5.627 -0.4579 -2.1225  4.7930
  479MOL0     H66101   2.066   5.759   5.701  1.1799 -1.0491  0.2905
  479MOL0     H66102   2.110   5.694   5.553  1.5363 -1.7172 -0.4668
  480MOL0     O66103   7.823   6.599   3.945  0.2292 -0.1533  0.4268
  480MOL0     C66104   7.851   6.521   4.035  0.3207  0.3590 -0.1064
  480MOL0     O66105   7.836   6.558   4.172 -0.0418  0.6102 -0.6447
  480MOL0     C66106   7.792   6.686   4.195 -0.1783  0.2322  0.9328
  480MOL0     C66107   7.656   6.713   4.195  1.0488  0.1940  0.1553
  480MOL0     C66108   7.610   6.844   4.209 -0.6025 -0.0956 -0.9071
  480MOL0     C66109   7.703   6.943   4.220 -0.1610 -0.5154  0.8496
  480MOL0     O66110   7.665   7.067   4.254  0.2787 -0.4174  0.7554
  480MOL0     C66111   7.568   7.074   4.358 -0.4282 -0.2383  0.8984
  480MOL0     C66112   7.588   7.212   4.414  0.4729  0.3755  0.2932
  480MOL0     C66113   7.666   7.207   4.549 -0.1634 -0.4232  0.1177
  480MOL0     C66114   7.598   7.139   4.665 -0.0698  0.2191 -0.7651
  480MOL0     C66115   7.673   7.175   4.800  0.2041 -0.6280  0.7534
  480MOL0     C66116   7.612   7.101   4.933 -0.0821 -1.0957  0.1170
  480MOL0     C66117   7.462   7.069   4.929  0.8481 -1.5316  0.4083
  480MOL0     C66118   7.423   6.965   5.037  0.3622 -1.2422 -0.4661
  480MOL0     N66119   7.514   6.963   5.153 -0.2496  0.2949 -0.2275
  480MOL0     C66120   7.498   7.033   5.278  0.1933 -0.3806 -0.5412
  480MOL0     C66121   7.600   6.980   5.357  0.0141 -0.1947  0.7352
  480MOL0     C66122   7.616   6.990   5.498 -0.3292  0.0777 -0.6525
  480MOL0     C66123   7.721   7.090   5.552  0.7907 -0.0690  0.1517
  480MOL0     C66124   7.726   7.092   5.702 -0.4464 -1.2698 -0.0362
  480MOL0     C66125   7.801   6.979   5.771 -0.6157  0.7569 -0.7495
  480MOL0     O66126   7.751   6.969   5.902  0.3529  0.0190 -0.5277
  480MOL0     C66127   7.814   6.885   5.992  0.1962 -0.0884 -0.1761
  480MOL0     C66128   7.932   6.809   5.966 -0.0144  0.5296  0.3609
  480MOL0     C66129   7.996   6.732   6.069 -0.9269  0.5195 -1.1641
  480MOL0     C66130   8.126   6.659   6.028  0.2297  0.5939 -0.0983
  480MOL0     C66131   7.927   6.712   6.196  0.2573 -0.1741 -0.5849
  480MOL0     C66132   7.980   6.623   6.303  0.6093 -0.4682 -0.0744
  480MOL0     O66133   8.102   6.566   6.289  0.9630 -0.6818 -0.7467
  480MOL0     C66134   8.202   6.567   6.390  0.1781  0.0185  0.1758
  480MOL0     C66135   8.195   6.660   6.496  0.4996  0.9141 -0.6119
  480MOL0     C66136   8.291   6.658   6.594  0.2530 -0.0904  0.6555
  480MOL0     C66137   8.402   6.577   6.591  0.2411  0.0191  0.3257
  480MOL0     O66138   8.493   6.570   6.696  0.2123  0.0130 -0.0819
  480MOL0     C66139   8.569   6.691   6.723 -0.0969 -0.3179  0.2184
  480MOL0     C66140   8.667   6.658   6.838  0.6179  0.0706 -0.0085
  480MOL0     C66141   8.748   6.526   6.810  0.1328 -0.7415 -0.1344
  480MOL0     C66142   8.855   6.515   6.908 -0.8238  0.7243 -0.1661
  480MOL0     C66143   8.935   6.382   6.879 -0.0312 -0.9262 -0.1102
  480MOL0     C66144   9.023   6.324   6.990 -0.4222  0.1789 -0.6043
  480MOL0     C66145   9.169   6.377   6.998  0.1396  1.3044 -0.0977
  480MOL0     C66146   9.260   6.309   6.897 -0.3095  0.3313 -0.2580
  480MOL0    Cl66147   9.434   6.355   6.906  0.3608 -0.1199  0.1927
  480MOL0     C66148   8.410   6.486   6.480 -0.3107 -0.3924 -0.1761
  480MOL0     C66149   8.313   6.481   6.381  0.5352 -0.8325  0.3103
  480MOL0     O66150   7.905   6.600   6.399 -0.0983  0.2074  0.0125
  480MOL0     C66151   7.798   6.766   6.209  0.2527 -1.3521  0.0951
  480MOL0     C66152   7.743   6.843   6.109 -0.7291 -0.7055  0.8177
  480MOL0     N66153   7.686   6.902   5.271  1.0770 -0.2384 -0.6175
  480MOL0     N66154   7.636   6.896   5.159  0.1568 -0.8125 -0.6449
  480MOL0     C66155   7.836   6.935   4.187 -0.1259  0.4794  0.3203
  480MOL0     C66156   7.885   6.794   4.177 -0.3313  0.5225  0.4920
  480MOL0     C66157   7.909   6.381   4.012  1.1515 -0.7716  0.3363
  480MOL0     C66158   7.929   6.290   4.116 -0.5989  0.2003 -0.0746
  480MOL0     C66159   7.985   6.161   4.099  0.5485 -0.2643  0.4809
  480MOL0     C66160   8.013   6.110   3.973 -0.6510  0.0575 -0.0373
  480MOL0     O66161   8.057   5.983   3.970 -0.0307  0.8416 -0.7784
  480MOL0     C66162   7.948   5.896   3.964 -0.1489  0.1053 -0.7393
  480MOL0     C66163   7.948   5.836   3.828  0.3366  0.5182  0.7170
  480MOL0     C66164   7.815   5.769   3.778  0.4130  0.4857  1.3169
  480MOL0     C66165   7.796   5.777   3.612  0.4788 -0.2884 -0.2925
  480MOL0     C66166   7.903   5.705   3.558 -0.0052  0.1686  0.5873
  480MOL0     C66167   7.988   5.646   3.501 -0.6784  1.3976  0.1881
  480MOL0     C66168   7.997   6.200   3.868 -0.3485  0.6784  1.1562
  480MOL0     C66169   7.943   6.329   3.888 -0.2314 -0.7217  0.4530
  480MOL0     C66170   7.926   6.411   3.760 -0.0087  0.0228  0.7579
  480MOL0     H66171   7.581   6.633   4.199  0.9322  0.3358  1.1207
  480MOL0     H66172   7.505   6.856   4.235 -0.2335 -1.3149  1.5260
  480MOL0     H66173   7.593   6.999   4.434 -1.3876 -1.2109  0.2712
  480MOL0     H66174   7.465   7.090   4.325  0.5841  1.3756 -1.7930
  480MOL0     H66175   7.635   7.270   4.333 -0.6293 -1.4208 -1.7343
  480MOL0     H66176   7.484   7.243   4.431 -0.8926 -2.9496 -1.0672
  480MOL0     H66177   7.763   7.158   4.537 -0.3944 -1.2812  1.4705
  480MOL0     H66178   7.684   7.310   4.580  1.6443 -0.1682 -1.5610
  480MOL0     H66179   7.492   7.164   4.664 -0.1694 -0.1810 -0.3659
  480MOL0     H66180   7.601   7.029   4.659 -0.0971  0.2573 -1.5419
  480MOL0     H66181   7.663   7.281   4.823  2.3675 -0.2146  0.0670
  480MOL0     H66182   7.782   7.166   4.801  0.6669  3.1529 -0.0520
  480MOL0     H66183   7.670   7.008   4.941 -1.7278 -2.0767  1.1396
  480MOL0     H66184   7.634   7.160   5.022  0.9259  0.5559 -1.1649
  480MOL0     H66185   7.425   7.046   4.828 -1.7483  0.7621  0.7076
  480MOL0     H66186   7.419   7.168   4.943 -0.1531 -1.7187 -1.0823
  480MOL0     H66187   7.320   6.984   5.068  0.6186  1.3045 -0.9965
  480MOL0     H66188   7.431   6.866   4.991 -1.2668 -0.8708 -1.6569
  480MOL0     H66189   7.421   7.095   5.322 -0.5154  0.2281 -2.5140
  480MOL0     H66190   7.634   6.895   5.550  1.3280  1.3957  1.3373
  480MOL0     H66191   7.519   7.022   5.537 -0.5872 -1.0069 -0.3593
  480MOL0     H66192   7.818   7.075   5.503 -1.2251 -2.5890 -3.6415
  480MOL0     H66193   7.685   7.190   5.524 -1.5234  0.0029  2.9791
  480MOL0     H66194   7.764   7.192   5.728 -0.4886 -1.2874  0.0907
  480MOL0     H66195   7.621   7.094   5.734 -0.5280  1.6659 -0.1718
  480MOL0     H66196   7.785   6.885   5.717  1.5404  1.0290 -1.9583
  480MOL0     H66197   7.909   6.990   5.774 -0.7175  2.6632 -2.0530
  480MOL0     H66198   7.969   6.801   5.864 -0.0384 -0.1377  0.4053
  480MOL0     H66199   8.155   6.690   5.927  0.1863  0.7653 -0.0581
  480MOL0     H66200   8.103   6.552   6.029  1.4616  0.3250  0.6940
  480MOL0     H66201   8.209   6.681   6.096 -0.3311  1.2403  0.3870
  480MOL0     H66202   8.104   6.716   6.513  0.6043  1.4731 -1.8496
  480MOL0     H66203   8.295   6.724   6.680  0.1631 -0.3455  0.8563
  480MOL0     H66204   8.635   6.714   6.639  2.1862  0.8749  2.2149
  480MOL0     H66205   8.511   6.777   6.757  1.2064  0.3677  0.8081
  480MOL0     H66206   8.734   6.743   6.846  1.8207 -0.9103  0.7158
  480MOL0     H66207   8.610   6.647   6.931 -1.5925 -2.1813 -1.4950
  480MOL0     H66208   8.788   6.524   6.709 -2.6486  0.4568 -1.3840
  480MOL0     H66209   8.683   6.438   6.809  0.2197 -0.8061 -1.4849
  480MOL0     H66210   8.814   6.509   7.009 -0.4131 -0.9824 -0.0701
  480MOL0     H66211   8.918   6.605   6.906  2.5015 -1.4406 -0.5063
  480MOL0     H66212   8.858   6.306   6.862  0.2291 -0.6642 -2.9632
  480MOL0     H66213   8.992   6.400   6.787 -1.2595  1.2104 -0.5192
  480MOL0     H66214   9.023   6.216   6.976  0.3028 -0.0090  0.6559
  480MOL0     H66215   8.985   6.340   7.092  0.5228 -2.5826  0.2549
  480MOL0     H66216   9.206   6.363   7.100  0.4871  0.9602 -0.2628
  480MOL0     H66217   9.170   6.484   6.976 -2.3740  1.1074 -1.5103
  480MOL0     H66218   9.215   6.330   6.800 -2.5772 -1.2199  0.3751
  480MOL0     H66219   9.248   6.200   6.903  1.6430  0.0923 -0.0334
  480MOL0     H66220   8.500   6.426   6.472  0.3823  0.5403  0.3909
  480MOL0     H66221   8.325   6.421   6.292 -3.5427 -0.0761 -0.9753
  480MOL0     H66222   7.742   6.751   6.301  2.2928 -0.3926  1.5948
  480MOL0     H66223   7.640   6.875   6.123 -0.8851  0.2103 -1.9526
  480MOL0     H66224   7.908   7.017   4.184 -0.0711  0.3897 -1.8951
  480MOL0     H66225   7.985   6.755   4.166 -0.5990 -0.1797  0.5215
  480MOL0     H66226   7.895   6.305   4.218  0.7307 -3.2270  1.0092
  480MOL0     H66227   8.004   6.098   4.185  0.9314  4.1661  4.0157
  480MOL0     H66228   7.965   5.829   4.049 -0.0030  0.5580 -0.4118
  480MOL0     H66229   7.851   5.944   3.980  0.1507  0.3197  0.4736
  480MOL0     H66230   8.027   5.762   3.812 -0.2820  0.2428 -1.2972
  480MOL0     H66231   7.964   5.910   3.749 -0.0618  0.6993  0.8050
  480MOL0     H66232   7.805   5.664   3.807 -5.3138  0.2998 -0.0385
  480MOL0     H66233   7.733   5.829   3.818 -0.2905  1.8202 -1.7987
  480MOL0     H66234   7.795   5.884   3.591 -0.9393 -0.7422 -3.0386
  480MOL0     H66235   7.701   5.739   3.572  0.0475 -1.9484  2.0949
  480MOL0     H66236   8.076   5.596   3.464 -0.1412  0.9094  1.9799
  480MOL0     H66237   8.017   6.151   3.772 -0.3742  1.5897  0.6789
  480MOL0     H66238   7.978   6.353   3.683  1.2665  0.7516  1.0405
  480MOL0     H66239   7.824   6.419   3.721  0.3921 -0.7227 -0.5303
  480MOL0     H66240   7.966   6.512   3.754 -1.1118  0.3892 -1.1885
  481MOL0     O66241   4.522   8.171   1.019 -0.0724  0.4492  0.4652
  481MOL0     C66242   4.503   8.106   0.925  0.4080 -0.9272 -0.6622
  481MOL0     O66243   4.605   8.059   0.852  0.2712 -0.1514 -0.1881
  481MOL0     C66244   4.738   8.093   0.876 -0.3462 -0.0016  0.2910
  481MOL0     C66245   4.830   7.989   0.886  0.4309 -0.1335 -1.0178
  481MOL0     C66246   4.966   8.010   0.890 -0.2301 -0.0781  0.0630
  481MOL0     C66247   5.025   8.133   0.905  0.6481 -0.5971 -0.5654
  481MOL0     O66248   5.163   8.136   0.909  0.3948  0.1403 -0.3651
  481MOL0     C66249   5.217   8.175   1.039 -0.4460  0.5132  0.0353
  481MOL0     C66250   5.374   8.171   1.056 -0.4018 -0.6290 -0.2257
  481MOL0     C66251   5.451   8.283   0.976 -0.0243  0.1030 -0.3833
  481MOL0     C66252   5.570   8.322   1.070  0.6439  0.5724 -0.6984
  481MOL0     C66253   5.686   8.392   1.007 -0.0970 -0.4518  0.3277
  481MOL0     C66254   5.756   8.286   0.926 -0.0664 -0.5468 -0.6379
  481MOL0     C66255   5.860   8.358   0.835 -0.3409  0.9736  0.3807
  481MOL0     C66256   5.963   8.273   0.755 -1.1285  0.5362  0.3754
  481MOL0     N66257   6.051   8.178   0.834  0.2940  0.3208  0.4745
  481MOL0     C66258   6.013   8.071   0.916 -0.2231 -1.1476  0.3489
  481MOL0     C66259   6.121   8.048   1.005  0.5972 -0.1335  0.2698
  481MOL0     C66260   6.125   7.929   1.104  0.4438  0.6742 -0.4791
  481MOL0     C66261   6.182   7.807   1.053 -0.0245  0.4577 -0.0137
  481MOL0     C66262   6.208   7.703   1.166 -0.0398  0.1896  0.6526
  481MOL0     C66263   6.311   7.598   1.107 -0.0602 -0.0128 -0.6308
  481MOL0     O66264   6.265   7.469   1.167  0.0752  0.5793  0.0280
  481MOL0     C66265   6.339   7.401   1.262  0.2285  0.1662 -0.2639
  481MOL0     C66266   6.444   7.464   1.327  0.1573  0.3755 -0.9751
  481MOL0     C66267   6.497   7.420   1.444 -0.0915  0.5383  0.3599
  481MOL0     C66268   6.597   7.500   1.520 -0.2459 -0.3236  0.2151
  481MOL0     C66269   6.437   7.304   1.504 -0.6242  0.1877 -0.5658
  481MOL0     C66270   6.491   7.251   1.633 -0.3060 -0.2060 -0.4708
  481MOL0     O66271   6.395   7.194   1.708  0.1486 -0.0482  0.7224
  481MOL0     C66272   6.428   7.121   1.824 -0.2633 -1.2007 -0.1056
  481MOL0     C66273   6.536   7.038   1.850 -1.0252 -0.4906  0.1215
  481MOL0     C66274   6.550   6.965   1.968  0.1307  0.5578 -0.4369
  481MOL0     C66275   6.439   6.971   2.062  0.5672  0.2216  0.0438
  481MOL0     O66276   6.428   6.899   2.178  0.6827  0.0841  0.0793
  481MOL0     C66277   6.549   6.854   2.246  0.2178  0.1342  0.5154
  481MOL0     C66278   6.623   6.975   2.294 -0.5461  0.1638  0.1524
  481MOL0     C66279   6.739   6.941   2.389  0.1953 -0.7772 -0.6310
  481MOL0     C66280   6.834   7.061   2.430  0.5273  0.0629 -0.0559
  481MOL0     C66281   6.968   7.030   2.516 -0.1162  0.0199  0.2999
  481MOL0     C66282   7.050   6.906   2.466  0.2700  0.2568 -0.9976
  481MOL0     C66283   7.107   6.925   2.329 -0.2606  0.1997  0.1333
  481MOL0     C66284   7.160   6.792   2.279  0.6300 -0.7705  0.3674
  481MOL0    Cl66285   7.018   6.690   2.227  0.0204 -0.0079 -0.5818
  481MOL0     C66286   6.327   7.053   2.026  0.4271  1.0330 -0.1630
  481MOL0     C66287   6.324   7.122   1.910  0.3268 -0.8006  0.3722
  481MOL0     O66288   6.611   7.261   1.659 -0.0827 -0.3203  0.0911
  481MOL0     C66289   6.333   7.242   1.434  0.5834 -0.0843 -0.0907
  481MOL0     C66290   6.291   7.284   1.308  0.1765 -0.1150  0.5597
  481MOL0     N66291   6.212   8.148   0.975  0.4604  0.7968 -0.0868
  481MOL0     N66292   6.172   8.225   0.874 -0.3993  0.4510  0.7412
  481MOL0     C66293   4.929   8.244   0.914 -0.2409 -0.6318  0.4672
  481MOL0     C66294   4.790   8.221   0.897 -1.0772 -0.0158  0.0397
  481MOL0     C66295   4.360   8.091   0.874 -0.0571 -0.3274  0.0584
  481MOL0     C66296   4.340   8.015   0.759 -0.5959 -0.7578  1.0394
  481MOL0     C66297   4.213   7.991   0.708 -0.1905 -0.0727  0.8904
  481MOL0     C66298   4.097   8.036   0.771 -0.0647  0.0314 -0.5416
  481MOL0     O66299   3.967   8.002   0.722  0.1301 -0.0661  0.2472
  481MOL0     C66300   3.854   8.002   0.812  0.6304 -0.1126  1.0684
  481MOL0     C66301   3.758   8.122   0.782 -0.9685 -0.3788  0.1752
  481MOL0     C66302   3.734   8.139   0.628 -0.3226  0.3929  0.3415
  481MOL0     C66303   3.594   8.196   0.609 -0.0706  0.0071 -0.3249
  481MOL0     C66304   3.612   8.341   0.615 -0.8491 -0.2663 -0.0038
  481MOL0     C66305   3.617   8.462   0.592 -0.7149 -0.4346  0.8893
  481MOL0     C66306   4.115   8.114   0.885 -0.5574  0.0430  0.0811
  481MOL0     C66307   4.238   8.150   0.936 -0.8779 -0.0718 -0.2986
  481MOL0     C66308   4.250   8.244   1.056  0.2936  1.3184 -0.3015
  481MOL0     H66309   4.793   7.887   0.875 -2.9207  0.8260  0.2033
  481MOL0     H66310   5.035   7.928   0.871 -0.4704  0.1903 -2.2307
  481MOL0     H66311   5.168   8.114   1.116  0.9271 -1.2768 -0.4389
  481MOL0     H66312   5.194   8.280   1.055 -0.2548  0.5672 -0.0404
  481MOL0     H66313   5.393   8.194   1.161 -0.8368  0.5211 -0.3748
  481MOL0     H66314   5.412   8.069   1.046  0.9060 -0.3960  1.7882
  481MOL0     H66315   5.491   8.230   0.890 -1.3236  2.1131 -2.3192
  481MOL0     H66316   5.396   8.371   0.942  1.6859  0.5678 -2.1224
  481MOL0     H66317   5.527   8.378   1.153  1.9273  0.3163  0.1680
  481MOL0     H66318   5.606   8.228   1.114 -0.6346  0.5165  0.2835
  481MOL0     H66319   5.755   8.422   1.087 -0.5233  2.7542 -0.3900
  481MOL0     H66320   5.654   8.480   0.952  1.8055  0.2793  0.3104
  481MOL0     H66321   5.806   8.213   0.992 -0.9253  0.0954  0.7791
  481MOL0     H66322   5.682   8.229   0.869 -1.8159  1.2987 -0.3129
  481MOL0     H66323   5.918   8.432   0.892 -0.2100  1.7683 -0.7584
  481MOL0     H66324   5.806   8.417   0.761 -0.8909  0.6716  0.5364
  481MOL0     H66325   5.903   8.213   0.685  1.7858 -1.8379 -0.3106
  481MOL0     H66326   6.020   8.351   0.705  0.2944 -0.1882  0.8138
  481MOL0     H66327   5.919   8.018   0.912  0.7849 -3.1100  1.1000
  481MOL0     H66328   6.029   7.896   1.144 -0.6339 -2.1476 -4.6571
  481MOL0     H66329   6.192   7.947   1.188  4.0639  0.3284 -3.0555
  481MOL0     H66330   6.110   7.766   0.982  0.6760 -1.7410  0.4834
  481MOL0     H66331   6.268   7.823   0.987 -1.2993 -1.4096 -2.2763
  481MOL0     H66332   6.266   7.742   1.251  1.5562 -2.1134  0.7112
  481MOL0     H66333   6.120   7.649   1.202  2.0635 -4.4814 -0.4300
  481MOL0     H66334   6.284   7.596   1.001 -2.6079  1.2273 -0.0845
  481MOL0     H66335   6.415   7.627   1.127 -1.1227  1.7869  3.2187
  481MOL0     H66336   6.488   7.558   1.295  1.2409 -0.0083 -0.6591
  481MOL0     H66337   6.595   7.603   1.484 -1.6058  0.1846  1.6397
  481MOL0     H66338   6.696   7.454   1.517  0.9757  2.0812  0.7249
  481MOL0     H66339   6.565   7.510   1.624 -1.2547 -1.8568  0.0870
  481MOL0     H66340   6.612   7.023   1.775 -2.0303 -1.2743 -0.7781
  481MOL0     H66341   6.636   6.904   1.992 -1.4803 -1.1690  1.3517
  481MOL0     H66342   6.522   6.787   2.329  1.5168 -0.4123  0.5217
  481MOL0     H66343   6.604   6.789   2.177 -1.1749  2.0872 -2.6537
  481MOL0     H66344   6.669   7.022   2.207 -1.7770  1.8872  0.3837
  481MOL0     H66345   6.554   7.045   2.344 -0.6777 -1.3779  2.2742
  481MOL0     H66346   6.802   6.871   2.335 -1.8637 -2.1523 -1.3770
  481MOL0     H66347   6.706   6.902   2.486  3.0570 -2.4805 -0.2273
  481MOL0     H66348   6.769   7.133   2.482  1.7145 -0.3763  2.1455
  481MOL0     H66349   6.865   7.101   2.333  1.1872  0.5142  0.3315
  481MOL0     H66350   7.032   7.119   2.516 -1.7683  1.2737 -0.8831
  481MOL0     H66351   6.935   7.013   2.619  0.5471 -0.7945  0.3823
  481MOL0     H66352   6.988   6.816   2.461  0.5846  0.0926 -3.6473
  481MOL0     H66353   7.121   6.883   2.545 -1.5536  1.4468  1.1300
  481MOL0     H66354   7.185   7.001   2.325 -0.2426  0.1753 -0.0115
  481MOL0     H66355   7.027   6.960   2.263 -1.6442 -0.1029  1.5957
  481MOL0     H66356   7.217   6.734   2.352 -0.5397 -0.7490  1.3379
  481MOL0     H66357   7.228   6.815   2.196 -1.3532  0.8777 -0.9091
  481MOL0     H66358   6.248   7.059   2.101  0.6724 -3.3545  0.7496
  481MOL0     H66359   6.241   7.186   1.881  0.8212 -0.7755 -1.0473
  481MOL0     H66360   6.296   7.147   1.471 -0.5714  0.2502 -0.3395
  481MOL0     H66361   6.219   7.226   1.250 -1.3655  2.4290 -0.2085
  481MOL0     H66362   4.974   8.342   0.925  1.5243 -1.6131  2.7866
  481MOL0     H66363   4.733   8.312   0.916 -0.5977  0.2492  0.2432
  481MOL0     H66364   4.424   7.978   0.701 -1.5245 -0.5485 -0.4827
  481MOL0     H66365   4.202   7.927   0.621 -3.4613 -0.7998  1.6857
  481MOL0     H66366   3.807   7.905   0.794  1.4804 -0.0796 -1.7718
  481MOL0     H66367   3.882   8.008   0.917  2.3382  0.1564  0.6237
  481MOL0     H66368   3.795   8.213   0.830 -0.7873 -0.9575  1.1705
  481MOL0     H66369   3.665   8.092   0.831 -0.5496 -0.8802  0.6743
  481MOL0     H66370   3.811   8.198   0.578 -2.8792  1.8017 -2.2735
  481MOL0     H66371   3.741   8.036   0.591 -0.2106  0.7177 -0.5656
  481MOL0     H66372   3.525   8.166   0.689  1.2998 -1.6110  0.2998
  481MOL0     H66373   3.547   8.159   0.517  1.8274  0.1627 -1.4091
  481MOL0     H66374   3.620   8.567   0.572  2.3799 -0.6895 -0.4976
  481MOL0     H66375   4.025   8.159   0.925 -0.7086  0.1192 -0.3461
  481MOL0     H66376   4.313   8.332   1.039  1.9577  0.2235  0.0297
  481MOL0     H66377   4.155   8.288   1.087  0.0562  0.3672  0.3811
  481MOL0     H66378   4.286   8.182   1.139 -1.1091  2.5011  1.2684
  482MOL0     O66379   1.227  10.395   1.351 -0.4086 -0.2906  0.3259
  482MOL0     C66380   1.267  10.491   1.295 -1.2524  0.4100 -0.4101
  482MOL0     O66381   1.327  10.478   1.173  0.1070 -0.3352 -0.2344
  482MOL0     C66382   1.353  10.354   1.119  0.2065 -0.4333 -0.9171
  482MOL0     C66383   1.267  10.285   1.027 -0.5103 -0.6851 -0.6927
  482MOL0     C66384   1.305  10.156   0.979  0.3363  0.1953 -0.1817
  482MOL0     C66385   1.419  10.096   1.021  0.5409  0.4303 -0.1172
  482MOL0     O66386   1.452   9.977   0.960  0.9354 -0.2232  0.9642
  482MOL0     C66387   1.575   9.912   0.993 -0.8633  0.6999 -0.9930
  482MOL0     C66388   1.583   9.775   0.922  0.5294  0.8144  0.2770
  482MOL0     C66389   1.714   9.704   0.916  0.8112 -0.2929  0.0346
  482MOL0     C66390   1.701   9.548   0.889 -0.0646 -1.1646  0.0055
  482MOL0     C66391   1.827   9.468   0.906 -1.0087 -0.2603  0.0488
  482MOL0     C66392   1.808   9.323   0.848 -0.8566  0.0036  0.1740
  482MOL0     C66393   1.946   9.277   0.783  0.0126  0.1834 -1.0219
  482MOL0     C66394   1.957   9.126   0.782 -0.2030 -0.0545 -0.4822
  482MOL0     N66395   1.847   9.056   0.700  0.4085 -0.4108  0.1137
  482MOL0     C66396   1.830   9.080   0.564 -0.0901 -0.1255 -0.1262
  482MOL0     C66397   1.696   9.060   0.541  0.3581  0.5966 -0.0859
  482MOL0     C66398   1.622   9.122   0.417  0.5381  0.8484 -0.7380
  482MOL0     C66399   1.462   9.138   0.437 -0.4544  0.1997  0.3689
  482MOL0     C66400   1.391   9.248   0.348  0.5666 -0.7772 -0.0275
  482MOL0     C66401   1.403   9.385   0.406  0.0186 -0.8304  0.2742
  482MOL0     O66402   1.539   9.427   0.390  0.5459 -0.3531  0.6936
  482MOL0     C66403   1.590   9.539   0.446  0.1723 -0.1019 -0.3270
  482MOL0     C66404   1.727   9.539   0.478 -0.1055  0.2126 -0.0627
  482MOL0     C66405   1.785   9.662   0.527  0.2188 -0.0259  1.0171
  482MOL0     C66406   1.928   9.655   0.578  0.8794  0.3572  0.5983
  482MOL0     C66407   1.710   9.783   0.545 -0.4970 -0.4723  0.4202
  482MOL0     C66408   1.763   9.919   0.591 -0.4833 -0.4457 -0.0235
  482MOL0     O66409   1.895   9.939   0.594 -0.4898 -0.2705 -0.0233
  482MOL0     C66410   1.947  10.036   0.670 -0.9751 -0.7536 -0.2875
  482MOL0     C66411   1.917  10.072   0.803 -0.1133  0.4475  0.8506
  482MOL0     C66412   1.979  10.185   0.871  0.6583 -0.6330 -0.1119
  482MOL0     C66413   2.063  10.277   0.793 -0.4029  0.2423  0.0882
  482MOL0     O66414   2.136  10.374   0.851 -0.4601  0.6720  0.7648
  482MOL0     C66415   2.076  10.499   0.831 -0.2603 -0.0254  0.2095
  482MOL0     C66416   1.977  10.527   0.948  0.2673 -0.8618  0.9451
  482MOL0     C66417   2.026  10.541   1.093  0.5109 -0.2107  0.3870
  482MOL0     C66418   1.913  10.558   1.197  0.1775 -0.3225 -0.5539
  482MOL0     C66419   1.968  10.501   1.332 -0.3550  0.5285  0.3978
  482MOL0     C66420   1.889  10.521   1.460  0.1814  0.8785 -0.1374
  482MOL0     C66421   1.735  10.488   1.460  0.2637  0.6256 -0.3444
  482MOL0     C66422   1.653  10.603   1.398  0.6280 -0.3189 -0.8232
  482MOL0    Cl66423   1.632  10.742   1.512 -0.0603  0.0894 -0.3343
  482MOL0     C66424   2.077  10.249   0.656 -1.3744 -0.5180  0.3128
  482MOL0     C66425   2.028  10.131   0.601  0.3631 -0.3584  0.5185
  482MOL0     O66426   1.679  10.005   0.612  0.1945 -0.3577  0.1094
  482MOL0     C66427   1.569   9.776   0.512  0.3584 -0.3675  0.4705
  482MOL0     C66428   1.509   9.656   0.465  0.6321 -0.3351 -0.3618
  482MOL0     N66429   1.645   8.996   0.660 -0.0748 -0.2923  0.6592
  482MOL0     N66430   1.737   8.996   0.752 -0.0000 -0.6532  0.2613
  482MOL0     C66431   1.495  10.154   1.122 -0.4439  0.1774  1.3768
  482MOL0     C66432   1.466  10.284   1.161 -0.3060  0.4203 -0.5742
  482MOL0     C66433   1.252  10.622   1.367  0.4214  0.8923  0.3735
  482MOL0     C66434   1.164  10.623   1.474 -0.6810 -0.3294 -0.3726
  482MOL0     C66435   1.135  10.735   1.554  1.2693 -0.5896  0.4876
  482MOL0     C66436   1.211  10.855   1.528  0.6438 -0.3976  0.4509
  482MOL0     O66437   1.187  10.968   1.600 -0.1609  0.0365 -0.6308
  482MOL0     C66438   1.307  11.022   1.664  0.6918  0.0837 -0.5556
  482MOL0     C66439   1.271  11.063   1.809  0.3875 -0.5908  0.7223
  482MOL0     C66440   1.395  11.102   1.892  0.6151  0.0176 -1.2356
  482MOL0     C66441   1.337  11.124   2.041 -0.9981  0.3470  0.6920
  482MOL0     C66442   1.269  11.248   2.060  0.8559 -0.8251 -0.0899
  482MOL0     C66443   1.210  11.353   2.082  0.0877 -0.4002 -0.8603
  482MOL0     C66444   1.285  10.854   1.409 -0.7686 -0.6850  0.7086
  482MOL0     C66445   1.312  10.743   1.330  0.0967  0.1379  0.1545
  482MOL0     C66446   1.396  10.754   1.200  0.6307 -0.1481 -0.3955
  482MOL0     H66447   1.190  10.342   0.976  0.8053 -1.8122 -4.2275
  482MOL0     H66448   1.248  10.105   0.901 -0.8080 -0.6712  1.1740
  482MOL0     H66449   1.586   9.897   1.101  0.1333 -0.1495 -1.1977
  482MOL0     H66450   1.657   9.979   0.965 -0.1107  1.2702  2.1629
  482MOL0     H66451   1.502   9.711   0.957 -0.2626  0.8668 -1.3624
  482MOL0     H66452   1.560   9.799   0.818 -1.8501 -1.7595  0.1145
  482MOL0     H66453   1.768   9.748   0.832  0.1330 -1.8414 -1.2779
  482MOL0     H66454   1.765   9.727   1.010 -0.0607  1.2552  0.1525
  482MOL0     H66455   1.622   9.508   0.954  0.8217  0.6949  2.3427
  482MOL0     H66456   1.673   9.538   0.784  0.2277 -0.1747 -0.1763
  482MOL0     H66457   1.850   9.468   1.012 -1.7521 -2.0733  0.2421
  482MOL0     H66458   1.905   9.518   0.847 -2.7301  1.2909 -1.0434
  482MOL0     H66459   1.778   9.254   0.927  1.0361 -1.0817  0.0176
  482MOL0     H66460   1.738   9.313   0.765 -2.2848 -1.2558  1.4791
  482MOL0     H66461   2.023   9.308   0.854 -1.7678 -0.1700  1.1565
  482MOL0     H66462   1.958   9.324   0.685  0.8786 -0.5287 -1.2764
  482MOL0     H66463   2.051   9.104   0.730  0.7369  1.6562  0.4534
  482MOL0     H66464   1.955   9.082   0.882 -0.9293  2.0200  0.4563
  482MOL0     H66465   1.888   9.136   0.491 -0.9040  0.9323  0.0018
  482MOL0     H66466   1.644   9.062   0.329 -0.1877  0.2592 -0.5245
  482MOL0     H66467   1.651   9.228   0.409  1.3868  0.5572 -1.7006
  482MOL0     H66468   1.431   9.036   0.413  3.2405 -1.0814  0.4917
  482MOL0     H66469   1.435   9.140   0.543 -1.6122  0.3548  0.0879
  482MOL0     H66470   1.443   9.249   0.252  5.2655  1.1307  2.2198
  482MOL0     H66471   1.283   9.232   0.337  0.6893 -0.3816 -2.2130
  482MOL0     H66472   1.333   9.459   0.368  1.6311 -0.4146 -2.0450
  482MOL0     H66473   1.387   9.386   0.515 -0.1596  0.5951  0.2425
  482MOL0     H66474   1.786   9.449   0.469 -0.8840 -0.2995 -0.1927
  482MOL0     H66475   1.923   9.700   0.677 -0.0908  1.9830 -0.1400
  482MOL0     H66476   1.995   9.701   0.504 -1.6417  0.6683 -1.6789
  482MOL0     H66477   1.956   9.549   0.584 -3.0029 -0.7778  1.1305
  482MOL0     H66478   1.864   9.997   0.860 -0.5431 -0.0303 -0.1566
  482MOL0     H66479   1.970  10.201   0.978 -0.8654  0.5998 -0.3939
  482MOL0     H66480   2.153  10.577   0.832  1.5978 -1.7810  0.0528
  482MOL0     H66481   2.018  10.513   0.740 -0.5386 -0.9450  0.2404
  482MOL0     H66482   1.917  10.613   0.916 -0.2466 -1.0271  1.4417
  482MOL0     H66483   1.913  10.440   0.965  1.3253 -1.9610 -0.5145
  482MOL0     H66484   2.086  10.633   1.095 -1.9641  1.5360 -0.1795
  482MOL0     H66485   2.093  10.456   1.108  2.5896  1.1863 -0.4858
  482MOL0     H66486   1.835  10.485   1.172 -1.3966  1.1444 -0.1277
  482MOL0     H66487   1.875  10.660   1.210  1.1621 -0.3622  4.6209
  482MOL0     H66488   1.969  10.393   1.312  3.1929  0.2960  1.1912
  482MOL0     H66489   2.069  10.532   1.360 -0.0236 -0.5035  0.4069
  482MOL0     H66490   1.890  10.627   1.488  0.1198  0.8709 -0.1046
  482MOL0     H66491   1.928  10.452   1.536 -1.7926  0.8201  0.9051
  482MOL0     H66492   1.695  10.460   1.558 -1.2448  2.4390 -0.3619
  482MOL0     H66493   1.709  10.406   1.393 -1.7301 -0.0275  1.1518
  482MOL0     H66494   1.553  10.560   1.386  1.2594 -2.2758  0.5547
  482MOL0     H66495   1.679  10.646   1.301  0.8387 -0.4345 -0.8181
  482MOL0     H66496   2.150  10.312   0.607 -0.2274  2.8347  5.5224
  482MOL0     H66497   2.055  10.114   0.497  1.2037 -1.2986  0.8680
  482MOL0     H66498   1.504   9.863   0.522  1.5032  0.4759  0.7499
  482MOL0     H66499   1.406   9.650   0.432  0.9906 -0.1260 -1.5756
  482MOL0     H66500   1.589  10.106   1.148 -1.0557 -1.1923  1.1406
  482MOL0     H66501   1.528  10.333   1.234 -0.9840 -0.5656  0.7240
  482MOL0     H66502   1.110  10.530   1.490  0.6640 -1.4246 -1.9214
  482MOL0     H66503   1.057  10.735   1.629  0.3445  0.2572 -0.4437
  482MOL0     H66504   1.388  10.951   1.684 -0.7973 -0.5900  4.3663
  482MOL0     H66505   1.353  11.106   1.611  1.5948 -1.7082 -2.8265
  482MOL0     H66506   1.207  10.983   1.849 -2.6511  0.0022 -2.3798
  482MOL0     H66507   1.215  11.157   1.808  1.5675  0.2424 -2.8170
  482MOL0     H66508   1.466  11.019   1.891  0.3805 -0.2590  1.1374
  482MOL0     H66509   1.438  11.196   1.854 -2.2455  1.3064 -1.5608
  482MOL0     H66510   1.432  11.130   2.094 -0.6761  1.5375  0.0196
  482MOL0     H66511   1.272  11.043   2.075 -1.4088  0.5530  0.4022
  482MOL0     H66512   1.153  11.439   2.109  1.8661  0.3957  0.5138
  482MOL0     H66513   1.321  10.950   1.373 -1.7604  0.4712  2.6243
  482MOL0     H66514   1.464  10.669   1.186 -0.0638 -1.1287  1.7430
  482MOL0     H66515   1.328  10.760   1.115 -1.2005  3.8945  1.1024
  482MOL0     H66516   1.451  10.847   1.214  1.7296 -0.9038  0.5593
  483MOL0     O66517   3.793   8.762   0.509  0.6173 -0.2226  0.0588
  483MOL0     C66518   3.825   8.716   0.401  0.3439  0.6445  0.1624
  483MOL0     O66519   3.739   8.678   0.299 -0.5224  0.5394 -0.1164
  483MOL0     C66520   3.607   8.692   0.322 -0.1591 -0.1745 -0.3635
  483MOL0     C66521   3.542   8.819   0.318  0.4043 -0.4017 -0.0417
  483MOL0     C66522   3.399   8.825   0.302 -0.1659  0.3698  0.0951
  483MOL0     C66523   3.312   8.714   0.295  0.0997  0.8807 -0.6802
  483MOL0     O66524   3.177   8.735   0.285  0.1700 -0.7136 -0.2354
  483MOL0     C66525   3.094   8.618   0.265 -1.0868 -0.7836  0.0370
  483MOL0     C66526   3.055   8.548   0.401  0.5368  0.4781  0.7385
  483MOL0     C66527   3.001   8.409   0.396 -0.1563  0.0708  0.6925
  483MOL0     C66528   2.860   8.410   0.317  0.1306 -0.6734  0.1403
  483MOL0     C66529   2.793   8.280   0.358  0.4226  0.4046 -0.9212
  483MOL0     C66530   2.671   8.244   0.276 -0.1858  0.1918  0.0335
  483MOL0     C66531   2.595   8.127   0.351  0.2948  0.0500  1.2260
  483MOL0     C66532   2.459   8.093   0.273  0.0112  0.5835  0.3437
  483MOL0     N66533   2.472   8.034   0.134  0.8402  0.0153  0.0282
  483MOL0     C66534   2.560   7.950   0.082 -0.4779 -0.0595 -0.8709
  483MOL0     C66535   2.540   7.936  -0.050 -0.5754 -0.1777 -1.0724
  483MOL0     C66536   2.617   7.840  -0.140 -0.1518 -0.1163  0.4956
  483MOL0     C66537   2.587   7.694  -0.125  0.1738  0.1975 -0.1358
  483MOL0     C66538   2.441   7.645  -0.148 -0.1924 -0.8714  0.9166
  483MOL0     C66539   2.443   7.496  -0.129 -0.4245 -0.2508 -0.1102
  483MOL0     O66540   2.307   7.462  -0.149 -0.3304  0.7190 -0.7446
  483MOL0     C66541   2.288   7.345  -0.220 -0.4631  1.0884 -0.0373
  483MOL0     C66542   2.288   7.219  -0.156 -0.2349  0.6636  0.7245
  483MOL0     C66543   2.257   7.100  -0.225  0.7469 -0.0030  0.5290
  483MOL0     C66544   2.246   6.968  -0.153 -0.0742 -0.3054 -0.4112
  483MOL0     C66545   2.227   7.108  -0.368 -0.2528 -0.2717 -0.5067
  483MOL0     C66546   2.199   6.983  -0.442  0.6188  0.7021  0.0722
  483MOL0     O66547   2.082   6.959  -0.507 -0.6285 -0.4037 -0.3620
  483MOL0     C66548   2.032   6.835  -0.512 -0.4528  0.1330 -0.0347
  483MOL0     C66549   1.922   6.811  -0.426 -0.2313 -0.2860 -0.1710
  483MOL0     C66550   1.882   6.680  -0.412  0.2834 -0.0468  0.8202
  483MOL0     C66551   1.940   6.571  -0.488 -0.0895 -0.8339  0.3042
  483MOL0     O66552   1.891   6.441  -0.456  0.1284 -0.1138 -0.7068
  483MOL0     C66553   1.949   6.328  -0.520 -0.2441 -0.9248  0.8341
  483MOL0     C66554   2.080   6.287  -0.444  0.1339 -0.3500  0.3252
  483MOL0     C66555   2.149   6.189  -0.546  1.1377 -0.3651 -0.4112
  483MOL0     C66556   2.254   6.109  -0.484  0.0373 -0.0126  0.1118
  483MOL0     C66557   2.280   5.994  -0.581 -0.5730 -0.8415 -0.9475
  483MOL0     C66558   2.369   6.024  -0.706 -0.0540 -0.7001 -0.4386
  483MOL0     C66559   2.438   5.895  -0.756 -0.7302 -0.6384  0.0148
  483MOL0     C66560   2.537   5.924  -0.869  0.3892  0.2030 -0.8159
  483MOL0    Cl66561   2.635   5.769  -0.890 -0.4310  0.2657  0.1725
  483MOL0     C66562   2.052   6.598  -0.565 -0.2843 -0.0297 -0.9927
  483MOL0     C66563   2.086   6.730  -0.581 -0.4496 -0.2449 -0.9352
  483MOL0     O66564   2.288   6.896  -0.437 -0.6665  0.0186  0.2710
  483MOL0     C66565   2.230   7.222  -0.437 -0.2162  0.0987 -0.6737
  483MOL0     C66566   2.255   7.347  -0.359 -0.1798  0.3890 -0.0924
  483MOL0     N66567   2.446   8.020  -0.091 -0.2564  0.7469 -0.4940
  483MOL0     N66568   2.407   8.080   0.020 -0.2548  0.3250 -0.0327
  483MOL0     C66569   3.385   8.588   0.318  0.4776 -0.4806  0.1226
  483MOL0     C66570   3.525   8.578   0.331  0.2690  0.1664 -0.0242
  483MOL0     C66571   3.970   8.681   0.388 -0.2706  0.1328 -0.0459
  483MOL0     C66572   4.067   8.776   0.428 -0.3746 -0.2017 -0.3595
  483MOL0     C66573   4.201   8.744   0.395  0.8390 -0.1710  0.3736
  483MOL0     C66574   4.238   8.625   0.325  0.2442  0.7162 -0.0397
  483MOL0     O66575   4.375   8.605   0.296  0.5127  0.5866  0.1662
  483MOL0     C66576   4.429   8.474   0.312  0.1456 -0.2649  0.0544
  483MOL0     C66577   4.583   8.482   0.267  0.0224  0.2829 -0.4307
  483MOL0     C66578   4.613   8.503   0.120 -0.3145 -0.3243 -0.9932
  483MOL0     C66579   4.712   8.412   0.048  1.2073  1.2704  0.1096
  483MOL0     C66580   4.849   8.418   0.105 -0.5704 -0.0981  0.2150
  483MOL0     C66581   4.959   8.437   0.151  0.1229  0.9850 -0.0482
  483MOL0     C66582   4.137   8.540   0.285 -0.3890 -0.3938 -0.6454
  483MOL0     C66583   4.008   8.561   0.323  0.9693  0.0916  0.6747
  483MOL0     C66584   3.906   8.455   0.298 -0.1477  0.2652 -0.7154
  483MOL0     H66585   3.600   8.910   0.319  0.1825 -0.2605  0.5665
  483MOL0     H66586   3.365   8.928   0.295  0.6896  0.5756 -1.8502
  483MOL0     H66587   3.138   8.550   0.192 -1.0956  1.0520 -1.7776
  483MOL0     H66588   3.009   8.668   0.218  1.2708  0.3362 -3.3809
  483MOL0     H66589   3.145   8.559   0.464 -0.0560  1.7146  1.4165
  483MOL0     H66590   2.997   8.623   0.456  0.4524  0.8518  0.1493
  483MOL0     H66591   3.074   8.353   0.336  0.5793  2.4564 -0.7902
  483MOL0     H66592   2.972   8.359   0.489 -2.4225 -0.8347 -0.4392
  483MOL0     H66593   2.800   8.499   0.337  1.9002  0.1413  2.3396
  483MOL0     H66594   2.879   8.403   0.210  0.6966  0.0326  0.1855
  483MOL0     H66595   2.783   8.293   0.466  1.4553 -1.0549 -0.6271
  483MOL0     H66596   2.863   8.197   0.347 -0.7910 -1.0497  1.5454
  483MOL0     H66597   2.609   8.333   0.269 -1.3061 -0.6512 -1.1729
  483MOL0     H66598   2.699   8.211   0.175  0.7849  0.0621  0.3340
  483MOL0     H66599   2.569   8.150   0.455  1.1629 -2.0819  1.9703
  483MOL0     H66600   2.658   8.039   0.357 -0.7327 -0.6765  1.5767
  483MOL0     H66601   2.391   8.022   0.321 -0.6554  1.2470  0.3922
  483MOL0     H66602   2.400   8.183   0.253  1.4478  1.2576 -1.0737
  483MOL0     H66603   2.634   7.897   0.142  0.6897  1.9801 -0.4182
  483MOL0     H66604   2.721   7.865  -0.120 -0.4325  0.4378  1.2960
  483MOL0     H66605   2.595   7.870  -0.243 -1.4627  2.0218  1.3271
  483MOL0     H66606   2.643   7.647  -0.206 -3.7125 -1.0273 -2.3866
  483MOL0     H66607   2.629   7.656  -0.032  1.4024 -1.3515 -1.2607
  483MOL0     H66608   2.384   7.687  -0.064  0.6940 -0.2390  1.2116
  483MOL0     H66609   2.402   7.681  -0.244  2.5631  0.8343  0.3332
  483MOL0     H66610   2.509   7.447  -0.202  1.1257 -0.4220  1.3202
  483MOL0     H66611   2.474   7.458  -0.031  1.5392 -0.8561 -0.9032
  483MOL0     H66612   2.295   7.210  -0.048  1.8627  0.8374  0.6594
  483MOL0     H66613   2.266   6.984  -0.047 -0.5031  0.9010 -0.5036
  483MOL0     H66614   2.324   6.900  -0.189  0.0422 -0.7251  0.5949
  483MOL0     H66615   2.151   6.914  -0.166 -0.8145  0.3953  1.6741
  483MOL0     H66616   1.884   6.900  -0.376  3.4365  0.6578  1.2880
  483MOL0     H66617   1.803   6.649  -0.344 -0.3978 -1.5834 -0.6135
  483MOL0     H66618   1.875   6.248  -0.523  1.3215 -2.4992  2.1658
  483MOL0     H66619   1.977   6.335  -0.626 -1.9321 -1.4016  0.3288
  483MOL0     H66620   2.150   6.371  -0.441 -1.4143  0.9598  1.5317
  483MOL0     H66621   2.049   6.240  -0.350 -0.7017 -0.8720 -0.2027
  483MOL0     H66622   2.184   6.252  -0.627 -1.3899  0.0780 -1.2264
  483MOL0     H66623   2.073   6.119  -0.581  0.9798  0.2445 -1.3027
  483MOL0     H66624   2.210   6.076  -0.390 -2.4214 -0.5530 -1.1452
  483MOL0     H66625   2.343   6.168  -0.462 -0.5910  0.7319  0.7254
  483MOL0     H66626   2.344   5.922  -0.529  0.8952  2.0252  1.4892
  483MOL0     H66627   2.190   5.939  -0.612 -1.0079 -0.3606 -0.5627
  483MOL0     H66628   2.452   6.088  -0.675  0.8987 -0.2655 -3.5341
  483MOL0     H66629   2.317   6.082  -0.784  1.6779  3.1909  1.0465
  483MOL0     H66630   2.360   5.828  -0.793  0.4942 -2.1771  0.0949
  483MOL0     H66631   2.497   5.842  -0.680  1.1952  0.7010 -0.4646
  483MOL0     H66632   2.600   6.008  -0.839 -2.0089  2.6925 -2.2630
  483MOL0     H66633   2.482   5.944  -0.962 -3.1708 -2.6815  0.4009
  483MOL0     H66634   2.109   6.521  -0.616 -0.4724 -1.1067  0.3526
  483MOL0     H66635   2.170   6.761  -0.642 -0.2477  0.3830 -0.3476
  483MOL0     H66636   2.214   7.231  -0.544  2.5236  1.7302 -1.0462
  483MOL0     H66637   2.252   7.446  -0.403  0.8469  1.6169  2.4103
  483MOL0     H66638   3.336   8.492   0.306  0.1253 -0.7275  2.9896
  483MOL0     H66639   3.563   8.477   0.326  1.5987  0.5971  0.7529
  483MOL0     H66640   4.060   8.870   0.483 -2.4491  0.1416 -1.1505
  483MOL0     H66641   4.286   8.807   0.417  0.1260  1.7969 -2.0365
  483MOL0     H66642   4.416   8.446   0.417  0.8789  0.5711  0.3763
  483MOL0     H66643   4.366   8.412   0.247 -1.1458 -0.0842  1.0826
  483MOL0     H66644   4.644   8.400   0.306 -0.8998 -0.3017 -0.1707
  483MOL0     H66645   4.627   8.560   0.330  1.8283 -2.2958  1.7723
  483MOL0     H66646   4.523   8.475   0.065  0.6039 -0.7204 -2.3311
  483MOL0     H66647   4.635   8.610   0.108 -0.8336  0.4230  3.1802
  483MOL0     H66648   4.721   8.433  -0.059 -1.5410  2.3351  0.0041
  483MOL0     H66649   4.672   8.310   0.037  1.9255  1.2075 -3.0288
  483MOL0     H66650   5.047   8.452   0.210 -1.6603 -1.6500  3.6358
  483MOL0     H66651   4.173   8.455   0.227 -1.2299 -1.0260 -0.2784
  483MOL0     H66652   3.854   8.439   0.393 -1.5538  1.5479 -1.2210
  483MOL0     H66653   3.836   8.476   0.217 -0.6780  0.1509 -0.2941
  483MOL0     H66654   3.946   8.356   0.276 -2.1846 -0.6882 -0.3765
  484MOL0     O66655   1.850   2.516  10.869  0.3258 -1.2408  0.8688
  484MOL0     C66656   1.966   2.547  10.891  0.2509 -1.0610 -0.6062
  484MOL0     O66657   2.027   2.647  10.827 -0.8629 -0.0024  0.0285
  484MOL0     C66658   1.957   2.696  10.721 -0.3650  0.6086 -0.0420
  484MOL0     C66659   1.979   2.658  10.593  0.1877  0.4228 -0.0323
  484MOL0     C66660   1.926   2.733  10.491 -0.1590  0.0736  0.4026
  484MOL0     C66661   1.845   2.840  10.509  0.7021 -0.1317  0.8275
  484MOL0     O66662   1.806   2.900  10.383 -0.0129 -0.8236 -0.2396
  484MOL0     C66663   1.783   3.044  10.407 -0.1671 -0.2477 -0.6678
  484MOL0     C66664   1.719   3.100  10.287  0.7875 -0.7681  0.2935
  484MOL0     C66665   1.697   3.252  10.288 -0.2612  0.0165  0.5420
  484MOL0     C66666   1.816   3.319  10.228  0.2265 -0.7041  0.3409
  484MOL0     C66667   1.796   3.474  10.230 -0.2080 -0.8747  0.4303
  484MOL0     C66668   1.917   3.559  10.190  0.1676  0.0240 -0.4537
  484MOL0     C66669   1.911   3.705  10.219 -0.1248  0.4131 -0.1635
  484MOL0     C66670   2.041   3.779  10.171 -0.4522 -0.5543  0.2013
  484MOL0     N66671   2.071   3.921  10.189  0.8915 -0.6567  0.5382
  484MOL0     C66672   1.990   4.018  10.240  0.5904 -0.7327 -0.0749
  484MOL0     C66673   2.040   4.140  10.208  0.1042 -0.3514 -0.0849
  484MOL0     C66674   1.967   4.272  10.214  0.1709 -0.4410  0.0704
  484MOL0     C66675   1.991   4.366  10.095  0.5914  0.1432 -0.4629
  484MOL0     C66676   2.121   4.444  10.131  0.7637  0.0329  1.0101
  484MOL0     C66677   2.162   4.538  10.021 -0.6127 -0.5668  0.0198
  484MOL0     O66678   2.305   4.546   9.986 -1.0785 -0.0693  0.0953
  484MOL0     C66679   2.381   4.632  10.058 -1.1465  0.5129  0.5364
  484MOL0     C66680   2.499   4.668   9.984 -0.1545  0.2833 -0.6144
  484MOL0     C66681   2.599   4.763  10.026 -0.1039 -0.0163 -0.3926
  484MOL0     C66682   2.707   4.799   9.943 -0.9264 -0.3053  0.1689
  484MOL0     C66683   2.592   4.814  10.159  0.4628 -0.2233  0.5019
  484MOL0     C66684   2.680   4.915  10.226  0.4004 -0.5256 -0.6126
  484MOL0     O66685   2.630   4.955  10.353  0.6100  1.0054 -0.2756
  484MOL0     C66686   2.702   5.048  10.422  0.9346  0.0008  0.8928
  484MOL0     C66687   2.809   5.010  10.497  0.2980 -0.6338 -0.3262
  484MOL0     C66688   2.890   5.097  10.580  0.3224  0.9163  1.2359
  484MOL0     C66689   2.849   5.233  10.588 -0.0955 -0.9890 -0.0537
  484MOL0     O66690   2.928   5.312  10.660 -0.3467  0.1200  0.4143
  484MOL0     C66691   2.950   5.453  10.634  0.1522 -0.2879 -0.4355
  484MOL0     C66692   3.086   5.486  10.699 -0.3356 -0.0410 -1.1203
  484MOL0     C66693   3.112   5.643  10.679  0.0023 -0.0901 -0.1033
  484MOL0     C66694   3.108   5.728  10.810 -0.0912 -0.5855 -0.0145
  484MOL0     C66695   3.087   5.879  10.771 -0.8180 -0.5057  0.2825
  484MOL0     C66696   3.202   5.927  10.675  0.5986  0.8776  0.3456
  484MOL0     C66697   3.205   6.082  10.653 -0.3694  0.1636  0.1658
  484MOL0     C66698   3.227   6.164  10.788 -0.0989  0.3329  0.2152
  484MOL0    Cl66699   3.268   6.320  10.749  0.0515 -0.2014 -0.2447
  484MOL0     C66700   2.733   5.279  10.515 -0.7779  1.8703  0.5682
  484MOL0     C66701   2.662   5.185  10.434  0.5606  0.0284 -0.2703
  484MOL0     O66702   2.773   4.961  10.167 -0.0142  0.0273  0.4543
  484MOL0     C66703   2.479   4.766  10.234  0.1166 -0.4494 -0.3575
  484MOL0     C66704   2.379   4.678  10.184  0.7832 -0.4776 -0.1240
  484MOL0     N66705   2.159   4.117  10.144  0.1017 -0.1455 -0.1587
  484MOL0     N66706   2.179   3.992  10.140 -0.3339 -1.0966  0.0309
  484MOL0     C66707   1.799   2.872  10.635 -0.2716  0.2641  0.0491
  484MOL0     C66708   1.858   2.796  10.740 -0.3774  0.3061  0.8930
  484MOL0     C66709   2.049   2.471  10.992  0.2444  0.1118 -0.7587
  484MOL0     C66710   2.150   2.547  11.060  0.3197  0.4572  0.9494
  484MOL0     C66711   2.225   2.495  11.159 -0.0482 -0.3966 -0.0771
  484MOL0     C66712   2.195   2.371  11.205 -1.3249  0.2443 -1.1967
  484MOL0     O66713   2.241   2.317  11.321  0.4037 -0.3632 -0.0494
  484MOL0     C66714   2.304   2.398  11.419 -0.3714  0.2336  0.7537
  484MOL0     C66715   2.307   2.345  11.552  0.4449 -0.2835 -0.5114
  484MOL0     C66716   2.342   2.428  11.669  0.2353  0.2183  0.4775
  484MOL0     C66717   2.247   2.404  11.796 -1.2907 -0.0001  0.5921
  484MOL0     C66718   2.239   2.530  11.880 -0.5087  0.5460  0.7221
  484MOL0     C66719   2.235   2.619  11.951  0.1348  0.0214  0.2586
  484MOL0     C66720   2.101   2.288  11.135 -0.8257  0.1626 -0.1910
  484MOL0     C66721   2.033   2.339  11.025 -0.6524  0.5153  1.5956
  484MOL0     C66722   1.929   2.254  10.964 -0.4408 -0.5837 -0.0362
  484MOL0     H66723   2.057   2.587  10.567 -0.1125 -0.2588  0.8798
  484MOL0     H66724   1.951   2.697  10.392 -1.5975  2.7769 -1.0494
  484MOL0     H66725   1.878   3.090  10.437  0.8714 -1.9504 -1.1719
  484MOL0     H66726   1.711   3.075  10.483  0.3828  3.1039 -1.3436
  484MOL0     H66727   1.777   3.070  10.199 -0.9594 -0.6283 -0.9575
  484MOL0     H66728   1.620   3.055  10.273 -0.5762  2.0020  0.2164
  484MOL0     H66729   1.612   3.284  10.226  1.8501  3.8357 -0.7695
  484MOL0     H66730   1.681   3.302  10.384  3.7577  3.0716 -0.0837
  484MOL0     H66731   1.903   3.290  10.288  0.6949  2.9144  1.6493
  484MOL0     H66732   1.846   3.291  10.126  0.0542  2.1340 -0.5880
  484MOL0     H66733   1.763   3.508  10.329  0.8114  0.5286  0.3210
  484MOL0     H66734   1.718   3.499  10.158 -1.3807 -1.6976  1.3794
  484MOL0     H66735   2.000   3.523  10.250  0.2917  1.9704  0.6229
  484MOL0     H66736   1.939   3.551  10.083 -1.9316  0.4753 -0.9843
  484MOL0     H66737   1.901   3.728  10.326  2.7978  1.2016  0.0299
  484MOL0     H66738   1.829   3.745  10.159  0.2850 -0.6940 -1.5266
  484MOL0     H66739   2.130   3.729  10.211 -1.0416 -0.1759  2.0985
  484MOL0     H66740   2.041   3.768  10.063 -3.0640  3.7445 -0.4976
  484MOL0     H66741   1.887   4.013  10.276 -0.0977  3.7404 -0.8125
  484MOL0     H66742   1.993   4.323  10.307 -0.3969  1.7842 -0.9135
  484MOL0     H66743   1.865   4.239  10.232  0.0850  0.2265  0.8579
  484MOL0     H66744   1.996   4.325   9.993 -1.3595 -3.0978  0.5896
  484MOL0     H66745   1.909   4.438  10.099 -2.4528 -2.8801 -2.5945
  484MOL0     H66746   2.096   4.503  10.220  0.7671 -0.6434  1.4652
  484MOL0     H66747   2.199   4.371  10.151 -0.4601 -1.4451  0.5168
  484MOL0     H66748   2.115   4.514   9.926 -4.4306 -2.0004  2.0829
  484MOL0     H66749   2.133   4.638  10.053 -1.7291  0.2513 -3.2350
  484MOL0     H66750   2.504   4.624   9.885 -2.1433 -2.5144  0.4125
  484MOL0     H66751   2.706   4.760   9.841  0.8151 -0.5005  0.1963
  484MOL0     H66752   2.800   4.756   9.981 -0.0755  3.9406  3.6667
  484MOL0     H66753   2.723   4.907   9.946  1.3031 -0.5568 -0.5190
  484MOL0     H66754   2.844   4.907  10.493 -1.4858 -1.2641 -0.4054
  484MOL0     H66755   2.976   5.058  10.633  0.4003 -1.5543 -0.5029
  484MOL0     H66756   2.955   5.471  10.526  0.2297 -0.0054 -0.3859
  484MOL0     H66757   2.870   5.509  10.682 -0.2963 -2.4029  1.4814
  484MOL0     H66758   3.099   5.450  10.801 -1.3862  0.0551 -0.9433
  484MOL0     H66759   3.154   5.422  10.641  1.5686 -0.8053  1.7641
  484MOL0     H66760   3.054   5.694  10.602  2.8452  0.2379 -2.1805
  484MOL0     H66761   3.211   5.651  10.634  0.3082 -0.5429  0.4817
  484MOL0     H66762   3.205   5.710  10.858  0.4090  0.7428 -0.4822
  484MOL0     H66763   3.022   5.704  10.873  1.6123 -1.9929  1.9265
  484MOL0     H66764   2.988   5.897  10.727 -0.7594 -1.2090 -0.1712
  484MOL0     H66765   3.084   5.937  10.863 -1.2719 -1.6606  1.0192
  484MOL0     H66766   3.189   5.877  10.579  4.0328  0.0528  0.1854
  484MOL0     H66767   3.301   5.902  10.713  0.7614  2.1809  0.8268
  484MOL0     H66768   3.103   6.107  10.625  0.1949  0.6891 -1.5048
  484MOL0     H66769   3.287   6.111  10.588 -2.4033  0.5826 -2.3459
  484MOL0     H66770   3.312   6.126  10.846 -0.0454  1.3443  0.8255
  484MOL0     H66771   3.138   6.163  10.852 -3.3275 -0.4505 -3.8354
  484MOL0     H66772   2.704   5.383  10.517  0.4646  2.3746 -2.4368
  484MOL0     H66773   2.567   5.207  10.387  1.0405  1.5605 -0.6040
  484MOL0     H66774   2.458   4.788  10.338  2.7085  1.2483 -0.1090
  484MOL0     H66775   2.286   4.647  10.230  0.6729  1.2103  0.8550
  484MOL0     H66776   1.724   2.949  10.646  0.2838  0.8423 -0.1903
  484MOL0     H66777   1.843   2.819  10.845 -0.4275  2.7466  0.3964
  484MOL0     H66778   2.156   2.650  11.029 -0.2570 -0.3243 -2.0292
  484MOL0     H66779   2.294   2.567  11.202  0.3642  0.2461 -1.7369
  484MOL0     H66780   2.411   2.408  11.400 -0.1288 -2.2844  0.4908
  484MOL0     H66781   2.259   2.497  11.417 -1.0881  0.0192  2.9760
  484MOL0     H66782   2.350   2.245  11.566 -1.9524 -1.2637  0.4634
  484MOL0     H66783   2.203   2.325  11.577  0.7893  0.6537  1.9608
  484MOL0     H66784   2.449   2.408  11.678 -0.1685 -2.3624  0.4052
  484MOL0     H66785   2.338   2.533  11.639  2.4768 -0.0083 -0.7990
  484MOL0     H66786   2.307   2.337  11.857  1.2192  1.9345  0.3945
  484MOL0     H66787   2.143   2.383  11.769 -0.3617 -0.9463 -2.6446
  484MOL0     H66788   2.239   2.709  12.011 -1.0512 -0.2009  0.6929
  484MOL0     H66789   2.098   2.186  11.172  2.0847 -0.5076 -1.4360
  484MOL0     H66790   1.830   2.301  10.958 -0.2922 -0.3874 -1.1243
  484MOL0     H66791   1.958   2.240  10.860 -2.3039  1.6040 -0.9274
  484MOL0     H66792   1.913   2.160  11.018 -0.7385 -0.9632 -0.7798
  485MOL0     O66793   6.467   8.581   5.962 -0.7122  0.2459  0.1310
  485MOL0     C66794   6.352   8.581   5.993  0.0780 -0.0249 -0.3445
  485MOL0     O66795   6.258   8.527   5.914 -0.2530  0.2959 -0.0622
  485MOL0     C66796   6.289   8.481   5.794 -0.6901  0.1468  0.8384
  485MOL0     C66797   6.282   8.557   5.672  0.7767  0.3638 -0.8209
  485MOL0     C66798   6.303   8.499   5.550 -0.2529 -0.6107 -0.3039
  485MOL0     C66799   6.305   8.357   5.533  0.4232 -0.0261 -0.3312
  485MOL0     O66800   6.332   8.287   5.417  0.5765 -0.2899 -0.2076
  485MOL0     C66801   6.360   8.358   5.302  0.2287  0.2526 -0.1250
  485MOL0     C66802   6.398   8.265   5.184  0.1964  0.5720 -0.3065
  485MOL0     C66803   6.408   8.334   5.049  0.3304  0.5177 -0.0707
  485MOL0     C66804   6.497   8.270   4.948 -0.2818 -0.2161 -0.1569
  485MOL0     C66805   6.642   8.291   4.977  0.5370 -0.3446 -0.0006
  485MOL0     C66806   6.726   8.218   4.880 -0.0830  0.0567 -0.1001
  485MOL0     C66807   6.871   8.232   4.903 -0.3148 -0.6080  0.1130
  485MOL0     C66808   6.922   8.378   4.887  0.0355 -1.1675  0.2789
  485MOL0     N66809   7.067   8.372   4.871  0.6518  0.4432  0.1972
  485MOL0     C66810   7.156   8.323   4.970  0.2776  0.5345 -0.2359
  485MOL0     C66811   7.273   8.318   4.908 -0.7276  0.0078  0.2106
  485MOL0     C66812   7.396   8.272   4.980 -0.3618  0.0035 -0.5349
  485MOL0     C66813   7.430   8.363   5.107 -1.0357  0.7592 -0.5864
  485MOL0     C66814   7.569   8.327   5.151 -0.2952 -0.5842 -0.2103
  485MOL0     C66815   7.587   8.376   5.289  0.7206 -0.0068 -0.1768
  485MOL0     O66816   7.727   8.384   5.313 -0.2965 -0.1906  0.3733
  485MOL0     C66817   7.794   8.273   5.356 -1.1208 -0.1725  0.6881
  485MOL0     C66818   7.931   8.269   5.334 -1.3054 -0.5794  0.0073
  485MOL0     C66819   8.003   8.152   5.364 -0.6339  0.3225  0.8209
  485MOL0     C66820   8.151   8.147   5.318  0.2562  0.5264  0.3085
  485MOL0     C66821   7.940   8.040   5.432 -0.0173  0.4299 -0.7211
  485MOL0     C66822   8.002   7.913   5.480  0.4000  0.3536 -0.3051
  485MOL0     O66823   7.915   7.838   5.550  0.8133  1.0422 -0.0340
  485MOL0     C66824   7.938   7.697   5.576  0.4557 -0.1273  0.8076
  485MOL0     C66825   7.935   7.598   5.479  0.6938  0.2477  0.4316
  485MOL0     C66826   7.967   7.462   5.519 -0.2220 -0.1874 -0.7819
  485MOL0     C66827   8.001   7.431   5.651 -0.6315  0.2854  0.2259
  485MOL0     O66828   8.030   7.303   5.690  0.1552 -0.1956 -0.4620
  485MOL0     C66829   8.163   7.269   5.665 -0.4181  0.4663  0.1538
  485MOL0     C66830   8.196   7.129   5.731 -0.1619  0.3072  1.0527
  485MOL0     C66831   8.163   7.131   5.879 -0.4686  0.5424 -0.0331
  485MOL0     C66832   8.240   7.023   5.946 -0.0162  0.4486 -0.2877
  485MOL0     C66833   8.212   7.036   6.095  0.7911  0.0856 -0.1215
  485MOL0     C66834   8.297   6.936   6.182  0.4073 -0.5083 -0.0595
  485MOL0     C66835   8.420   6.995   6.261  0.1126  0.7033  0.1266
  485MOL0     C66836   8.502   6.872   6.307 -0.1469  0.4548  0.0033
  485MOL0    Cl66837   8.642   6.950   6.386 -0.1814  0.1198  0.2924
  485MOL0     C66838   8.004   7.530   5.743 -0.4026  0.0097 -0.0014
  485MOL0     C66839   7.979   7.664   5.706  0.1168  0.0420  0.7722
  485MOL0     O66840   8.114   7.881   5.444 -0.5848 -0.0878 -0.6298
  485MOL0     C66841   7.801   8.052   5.458 -0.5274  0.4223 -1.5220
  485MOL0     C66842   7.726   8.161   5.415  0.1095  0.0766 -0.6103
  485MOL0     N66843   7.262   8.339   4.768 -0.8678 -0.8573  0.6640
  485MOL0     N66844   7.134   8.379   4.753 -0.0496  0.5205 -0.2861
  485MOL0     C66845   6.308   8.277   5.651  1.1000  0.7039 -0.6948
  485MOL0     C66846   6.303   8.341   5.775  0.0644  0.4858 -0.3041
  485MOL0     C66847   6.310   8.622   6.128 -0.0789 -0.3384  0.0658
  485MOL0     C66848   6.392   8.709   6.205 -0.6273 -0.0564  0.2559
  485MOL0     C66849   6.352   8.752   6.329 -1.1908  0.5904  0.9810
  485MOL0     C66850   6.239   8.708   6.389 -0.2879 -1.3926  0.6922
  485MOL0     O66851   6.191   8.750   6.504  0.2758  0.6508  0.3218
  485MOL0     C66852   6.266   8.834   6.582 -0.2578 -0.2812 -0.3116
  485MOL0     C66853   6.176   8.867   6.700  1.0402  0.1163 -0.8085
  485MOL0     C66854   6.130   8.742   6.779 -1.2058 -0.0769  0.3858
  485MOL0     C66855   6.159   8.767   6.934 -0.0042 -0.5419  0.6028
  485MOL0     C66856   6.101   8.670   7.029  0.3028 -0.6064 -0.3784
  485MOL0     C66857   6.060   8.590   7.112 -0.9739  0.2480 -0.2180
  485MOL0     C66858   6.156   8.628   6.315 -0.1031 -0.2595  0.4283
  485MOL0     C66859   6.194   8.580   6.185 -0.2669 -0.5016 -0.0123
  485MOL0     C66860   6.096   8.465   6.135 -0.0117 -0.2094 -0.2947
  485MOL0     H66861   6.272   8.665   5.672  0.4465  0.3750 -2.7393
  485MOL0     H66862   6.324   8.560   5.463  0.1779 -2.0655 -1.2549
  485MOL0     H66863   6.452   8.409   5.331 -0.1912  1.2472 -0.5146
  485MOL0     H66864   6.285   8.427   5.262 -1.1760 -0.7003  0.7620
  485MOL0     H66865   6.492   8.219   5.215  0.2477 -0.3819 -1.7741
  485MOL0     H66866   6.327   8.182   5.174 -1.3788  1.9360 -0.8531
  485MOL0     H66867   6.304   8.328   5.016 -0.4663 -2.9520  2.4690
  485MOL0     H66868   6.435   8.437   5.073 -0.8421  0.6368  0.8177
  485MOL0     H66869   6.472   8.164   4.951  1.5965 -0.6685  1.8927
  485MOL0     H66870   6.482   8.309   4.846 -0.0369 -0.7985 -0.4176
  485MOL0     H66871   6.663   8.254   5.078 -1.0233 -0.8525  0.1682
  485MOL0     H66872   6.668   8.397   4.979  1.8440 -0.6320  2.7861
  485MOL0     H66873   6.693   8.114   4.893 -1.6391  0.6837  1.2952
  485MOL0     H66874   6.705   8.249   4.778 -4.0718  0.3210  0.6643
  485MOL0     H66875   6.928   8.173   4.831  0.9720  0.6174  0.0969
  485MOL0     H66876   6.885   8.197   5.006 -0.3278  2.7271  1.3872
  485MOL0     H66877   6.882   8.433   4.801  4.3222 -0.4332 -1.4779
  485MOL0     H66878   6.892   8.438   4.973 -2.4209 -1.9692  0.0821
  485MOL0     H66879   7.137   8.299   5.074  0.2706  0.2488 -0.3025
  485MOL0     H66880   7.493   8.277   4.931  1.3205 -0.1255  2.4936
  485MOL0     H66881   7.384   8.169   5.015 -2.5325  0.4883  0.3298
  485MOL0     H66882   7.423   8.470   5.090 -2.5198  0.9796  1.1480
  485MOL0     H66883   7.358   8.338   5.186  0.5029  2.9854  1.6866
  485MOL0     H66884   7.575   8.219   5.136 -0.2708 -0.7012  0.6247
  485MOL0     H66885   7.637   8.380   5.084  0.5960 -0.1965  0.9725
  485MOL0     H66886   7.533   8.470   5.307 -1.3490 -0.9786 -0.9673
  485MOL0     H66887   7.532   8.298   5.342 -2.6608 -1.9730 -5.7568
  485MOL0     H66888   7.968   8.354   5.277 -3.1222  0.7162  0.6594
  485MOL0     H66889   8.170   8.226   5.244 -0.9323  2.3034  1.8221
  485MOL0     H66890   8.180   8.049   5.277 -0.2549  0.0764  0.9958
  485MOL0     H66891   8.218   8.156   5.403  0.5691 -0.0826  0.1348
  485MOL0     H66892   7.897   7.624   5.381 -0.4146 -0.6818  0.5981
  485MOL0     H66893   7.976   7.389   5.440 -1.7946  0.4771 -1.5991
  485MOL0     H66894   8.180   7.256   5.558  1.8377 -1.6846  0.6753
  485MOL0     H66895   8.223   7.358   5.687 -0.5180  0.8567 -1.0854
  485MOL0     H66896   8.132   7.055   5.683 -0.5632  0.8993  0.6509
  485MOL0     H66897   8.303   7.104   5.725 -0.3236 -0.1518 -0.2214
  485MOL0     H66898   8.057   7.134   5.906 -0.9739  1.7849 -1.9716
  485MOL0     H66899   8.191   7.231   5.913  1.6611  0.4315 -1.2658
  485MOL0     H66900   8.345   7.020   5.917 -0.3979 -0.9929 -1.6599
  485MOL0     H66901   8.204   6.926   5.909  0.6226  0.2547 -0.4168
  485MOL0     H66902   8.231   7.139   6.130 -0.3295  0.1961  0.2034
  485MOL0     H66903   8.105   7.020   6.109  0.6609 -0.6674 -1.8442
  485MOL0     H66904   8.324   6.853   6.116 -0.2800 -0.2396 -0.6927
  485MOL0     H66905   8.222   6.889   6.247 -0.5125  0.9433 -0.0202
  485MOL0     H66906   8.386   7.052   6.348 -0.1547 -1.4717  1.5357
  485MOL0     H66907   8.475   7.068   6.201 -0.9816 -0.6134 -2.6376
  485MOL0     H66908   8.543   6.811   6.226 -1.2205  2.9196 -2.5684
  485MOL0     H66909   8.443   6.806   6.371 -3.0687  1.0085 -1.9349
  485MOL0     H66910   8.051   7.495   5.835  0.0406 -0.2725 -0.3354
  485MOL0     H66911   7.985   7.746   5.776  2.5660  0.2549  0.4061
  485MOL0     H66912   7.749   7.974   5.513  4.3274 -1.0649  1.5994
  485MOL0     H66913   7.620   8.142   5.428  0.7345 -1.3694  4.2000
  485MOL0     H66914   6.312   8.169   5.639  0.0896  0.4997  0.5365
  485MOL0     H66915   6.325   8.284   5.865  0.9057 -2.1954 -2.0612
  485MOL0     H66916   6.481   8.758   6.169 -0.5892 -0.5833 -0.3920
  485MOL0     H66917   6.412   8.821   6.387 -3.2089  0.9170  2.8313
  485MOL0     H66918   6.360   8.780   6.600 -0.4028 -0.3750  0.2059
  485MOL0     H66919   6.281   8.935   6.542  0.5380  1.1570  3.2378
  485MOL0     H66920   6.091   8.929   6.672  1.1095 -0.7359 -3.1063
  485MOL0     H66921   6.234   8.929   6.769  0.2565  0.2020 -0.2132
  485MOL0     H66922   6.021   8.731   6.774 -1.0788 -2.0973  0.9599
  485MOL0     H66923   6.189   8.657   6.744  0.5149 -0.5381  3.9513
  485MOL0     H66924   6.132   8.871   6.953 -0.9886 -0.3959 -1.3810
  485MOL0     H66925   6.268   8.764   6.949  0.2551  5.0944  1.8531
  485MOL0     H66926   6.039   8.528   7.197  0.4470 -3.7999 -2.5467
  485MOL0     H66927   6.060   8.608   6.361 -0.2824  1.2610  0.7710
  485MOL0     H66928   6.023   8.450   6.215 -1.7182  0.6815 -1.5962
  485MOL0     H66929   6.042   8.498   6.045 -0.8807  0.3128  0.4014
  485MOL0     H66930   6.134   8.365   6.112 -2.7262 -1.2528 -0.6273
  486MOL0     O66931   5.558   3.430   9.816  0.2002  0.1648  0.2311
  486MOL0     C66932   5.542   3.320   9.764 -0.2608 -0.5298  0.0518
  486MOL0     O66933   5.444   3.237   9.780 -0.0065  0.3715  0.5359
  486MOL0     C66934   5.328   3.284   9.843 -0.2560  0.1226  0.0766
  486MOL0     C66935   5.325   3.319   9.978 -0.7841 -0.8212  0.5587
  486MOL0     C66936   5.207   3.369  10.036  0.7422 -0.4301  0.2803
  486MOL0     C66937   5.087   3.364   9.972  0.8497 -0.5684  0.2789
  486MOL0     O66938   4.964   3.391  10.029  0.3874 -0.5814  0.4057
  486MOL0     C66939   4.930   3.531  10.008 -0.5216 -0.0935 -0.0205
  486MOL0     C66940   4.781   3.565  10.066  0.5690  0.1126  1.1137
  486MOL0     C66941   4.764   3.532  10.212  0.6373 -0.4852  0.0953
  486MOL0     C66942   4.856   3.616  10.303  0.4461  0.5635  0.1545
  486MOL0     C66943   4.845   3.562  10.450  0.1686 -0.2638 -0.2869
  486MOL0     C66944   4.917   3.652  10.536 -0.2386  0.2791 -0.5780
  486MOL0     C66945   4.948   3.574  10.668 -0.2154  0.8901 -0.0324
  486MOL0     C66946   5.049   3.631  10.766 -1.2896  0.3158  0.2186
  486MOL0     N66947   5.007   3.739  10.859 -0.2229 -0.4999 -0.6397
  486MOL0     C66948   4.917   3.718  10.958  0.3643 -0.0927 -0.6660
  486MOL0     C66949   4.908   3.829  11.019 -0.6359 -0.9021  0.1519
  486MOL0     C66950   4.814   3.864  11.128  0.0851  0.2009  0.3564
  486MOL0     C66951   4.898   3.893  11.250  0.5536  0.5360  0.6977
  486MOL0     C66952   4.956   3.764  11.306  0.4375  0.5404 -0.7591
  486MOL0     C66953   5.042   3.782  11.434  0.6028 -0.6508 -0.6608
  486MOL0     O66954   5.120   3.902  11.398 -0.8516  0.3621  0.4588
  486MOL0     C66955   5.243   3.923  11.457 -0.5477 -0.1570  0.6463
  486MOL0     C66956   5.326   4.022  11.403  0.1574  0.2649  1.3168
  486MOL0     C66957   5.450   4.052  11.454  0.5433 -1.1989  0.6811
  486MOL0     C66958   5.546   4.141  11.367  0.2939  0.5134 -0.1884
  486MOL0     C66959   5.493   3.998  11.573  0.5129 -0.1745 -0.1886
  486MOL0     C66960   5.612   4.050  11.647  0.6036 -0.2917 -0.3073
  486MOL0     O66961   5.639   3.988  11.765 -0.9060  0.8434 -0.1331
  486MOL0     C66962   5.766   4.007  11.818 -0.2693 -1.0109 -0.1912
  486MOL0     C66963   5.781   4.114  11.902 -0.0109  0.0230  0.8448
  486MOL0     C66964   5.910   4.149  11.958  0.3350 -0.5814 -0.3430
  486MOL0     C66965   6.028   4.070  11.933  0.1092  0.4775 -0.5907
  486MOL0     O66966   6.152   4.093  11.999 -0.1628 -0.5619  0.3247
  486MOL0     C66967   6.269   4.011  11.967  0.6554 -0.6360 -0.5520
  486MOL0     C66968   6.383   4.053  12.062 -0.4180  0.1797 -0.7488
  486MOL0     C66969   6.408   4.205  12.052  0.5647  0.9555  0.1020
  486MOL0     C66970   6.519   4.243  12.151  0.3056 -0.4649  0.3713
  486MOL0     C66971   6.566   4.384  12.130  0.4188 -0.1101 -0.1961
  486MOL0     C66972   6.694   4.411  12.215  0.8941 -0.1996 -0.0704
  486MOL0     C66973   6.727   4.551  12.191  0.7674 -0.4388 -0.9315
  486MOL0     C66974   6.855   4.600  12.253 -0.2922  0.5511  0.2218
  486MOL0    Cl66975   6.856   4.595  12.433 -0.4159  0.5210  0.2810
  486MOL0     C66976   6.000   3.961  11.843  0.0466 -0.3207  0.5161
  486MOL0     C66977   5.874   3.925  11.791  0.3604  0.3229  0.1972
  486MOL0     O66978   5.692   4.127  11.596 -0.0808 -0.6003  0.5447
  486MOL0     C66979   5.405   3.900  11.629  0.3651 -0.4310 -0.5452
  486MOL0     C66980   5.280   3.869  11.578 -0.2048 -0.3050  0.2845
  486MOL0     N66981   5.012   3.911  10.963  0.6733 -0.8363 -0.6146
  486MOL0     N66982   5.068   3.857  10.872 -0.7686 -0.9290  0.4053
  486MOL0     C66983   5.091   3.328   9.834 -0.7347  1.4610  0.8523
  486MOL0     C66984   5.207   3.279   9.771  0.1636  0.2506  0.2718
  486MOL0     C66985   5.644   3.269   9.668  0.4701 -0.8223  0.2666
  486MOL0     C66986   5.618   3.163   9.573  0.7781 -0.7758  0.1196
  486MOL0     C66987   5.716   3.119   9.485  0.3928 -1.0403 -0.8367
  486MOL0     C66988   5.830   3.195   9.469  0.2313 -1.0480  0.7513
  486MOL0     O66989   5.912   3.175   9.369 -0.2834 -0.6021 -0.3100
  486MOL0     C66990   5.919   3.041   9.310  0.0209 -0.4613 -0.3116
  486MOL0     C66991   6.054   3.020   9.248 -0.6862  0.3291  0.2828
  486MOL0     C66992   6.157   3.023   9.360 -0.2394  0.2589 -0.4131
  486MOL0     C66993   6.291   2.992   9.307 -0.1477  0.8279  0.5704
  486MOL0     C66994   6.393   2.986   9.415 -0.1698 -0.5858  0.0948
  486MOL0     C66995   6.480   3.010   9.497 -0.9765 -1.3678 -1.0468
  486MOL0     C66996   5.864   3.299   9.546 -0.0205 -0.0058 -0.8059
  486MOL0     C66997   5.770   3.335   9.654 -0.2627 -0.3680 -0.2431
  486MOL0     C66998   5.822   3.452   9.746 -0.2907 -0.3112  0.3621
  486MOL0     H66999   5.422   3.319  10.027 -0.0759  0.9213 -0.7236
  486MOL0     H67000   5.215   3.382  10.143  0.5238 -2.6422  0.6024
  486MOL0     H67001   4.935   3.553   9.901 -0.5605 -1.2721 -0.2773
  486MOL0     H67002   5.000   3.598  10.059 -0.7254 -1.5417  2.3288
  486MOL0     H67003   4.761   3.672  10.065  0.6043  0.3301 -4.4838
  486MOL0     H67004   4.707   3.514  10.004  0.2326 -0.7698  2.1976
  486MOL0     H67005   4.660   3.544  10.243  0.7741  0.7274  0.1410
  486MOL0     H67006   4.784   3.425  10.218 -0.4153 -0.6463  0.9332
  486MOL0     H67007   4.961   3.606  10.275  0.6885  0.4075  1.0719
  486MOL0     H67008   4.822   3.720  10.303  1.3330  0.9162  2.5560
  486MOL0     H67009   4.886   3.460  10.447  0.2410 -0.3200  1.6727
  486MOL0     H67010   4.741   3.561  10.483  0.5647 -3.1429  1.2512
  486MOL0     H67011   5.007   3.688  10.486 -0.2823 -0.0029 -0.8680
  486MOL0     H67012   4.838   3.726  10.553 -1.1521 -0.8941  0.3956
  486MOL0     H67013   4.977   3.472  10.641 -1.6869  0.0392  1.4378
  486MOL0     H67014   4.853   3.569  10.722  0.1162 -1.4380  0.4137
  486MOL0     H67015   5.094   3.550  10.825 -1.6294  0.1779  0.2889
  486MOL0     H67016   5.139   3.668  10.715 -1.1522 -3.2235 -2.5225
  486MOL0     H67017   4.867   3.628  10.991 -2.9765  1.7971 -0.1250
  486MOL0     H67018   4.748   3.777  11.135  2.2821 -1.3909  2.4141
  486MOL0     H67019   4.745   3.944  11.098 -0.1490 -0.3013 -0.5128
  486MOL0     H67020   4.977   3.964  11.227 -0.3727  0.5287 -3.1385
  486MOL0     H67021   4.827   3.937  11.322  1.5057  1.0902  1.3167
  486MOL0     H67022   4.878   3.698  11.345 -1.0968  1.3253 -2.3874
  486MOL0     H67023   5.014   3.716  11.227  1.3453  0.5595 -0.1265
  486MOL0     H67024   4.972   3.803  11.515 -2.3181 -1.3428 -2.8610
  486MOL0     H67025   5.104   3.694  11.451  1.9629  0.1794 -1.1403
  486MOL0     H67026   5.304   4.068  11.307  3.3841  2.1357  1.3271
  486MOL0     H67027   5.552   4.242  11.410 -1.5253  0.8341 -0.5871
  486MOL0     H67028   5.507   4.154  11.266  0.5048 -0.7922 -0.4507
  486MOL0     H67029   5.641   4.090  11.352  1.1113  2.3365 -1.6106
  486MOL0     H67030   5.699   4.183  11.920  0.3278  1.3673 -2.1237
  486MOL0     H67031   5.903   4.240  12.017  1.5279 -0.0473 -0.9765
  486MOL0     H67032   6.235   3.908  11.984 -4.7835  0.6195 -2.0764
  486MOL0     H67033   6.294   4.021  11.861 -1.9250 -1.7692 -1.3292
  486MOL0     H67034   6.347   4.039  12.164 -1.2684  1.1052 -0.8971
  486MOL0     H67035   6.471   3.998  12.027  0.1089  1.2927 -1.2430
  486MOL0     H67036   6.324   4.270  12.077  1.3216  1.2640  2.0256
  486MOL0     H67037   6.440   4.229  11.950  1.2326 -0.1235  0.0365
  486MOL0     H67038   6.604   4.178  12.126  1.6695  2.3190 -3.0246
  486MOL0     H67039   6.492   4.223  12.255  1.4737 -0.9036  0.6058
  486MOL0     H67040   6.590   4.405  12.026  0.4302  0.8494 -0.0067
  486MOL0     H67041   6.484   4.452  12.153 -0.3212 -0.9173 -0.3792
  486MOL0     H67042   6.780   4.345  12.198  1.1603 -0.2209  1.2452
  486MOL0     H67043   6.677   4.404  12.323  2.8088  2.0640  0.4603
  486MOL0     H67044   6.641   4.609  12.227  1.0498 -1.0274  0.8072
  486MOL0     H67045   6.746   4.574  12.086  1.9295 -0.8522 -0.8290
  486MOL0     H67046   6.865   4.704  12.219  1.7281 -0.2130 -1.8031
  486MOL0     H67047   6.938   4.537  12.219 -2.2080 -1.5625 -0.8361
  486MOL0     H67048   6.082   3.902  11.804  1.5098  0.4805  2.2364
  486MOL0     H67049   5.859   3.843  11.721 -1.3261  0.8652 -0.1113
  486MOL0     H67050   5.419   3.868  11.731 -2.3108  1.2810  0.4646
  486MOL0     H67051   5.207   3.811  11.635  1.1315 -0.4144  1.9584
  486MOL0     H67052   4.996   3.324   9.781  0.5174 -1.3166 -1.4404
  486MOL0     H67053   5.208   3.239   9.670 -3.7340  1.2273 -0.3211
  486MOL0     H67054   5.513   3.137   9.567  0.1839  1.6734 -2.0793
  486MOL0     H67055   5.682   3.043   9.416 -1.9824 -0.8550  0.0208
  486MOL0     H67056   5.894   2.961   9.381 -1.5395  0.7817  0.6052
  486MOL0     H67057   5.834   3.037   9.241  0.0879 -1.0765 -0.3647
  486MOL0     H67058   6.073   3.085   9.162  1.0427 -2.3576 -1.5493
  486MOL0     H67059   6.067   2.921   9.203 -0.1499  0.1009  0.9256
  486MOL0     H67060   6.162   3.126   9.395  0.0771  0.3174 -0.6255
  486MOL0     H67061   6.125   2.960   9.444 -3.7185 -2.8115 -3.6822
  486MOL0     H67062   6.323   3.058   9.225 -0.2381  1.0702  0.7309
  486MOL0     H67063   6.292   2.888   9.272  1.2028  0.7517  0.7866
  486MOL0     H67064   6.557   3.035   9.568 -1.1724 -0.1549 -1.2390
  486MOL0     H67065   5.954   3.357   9.530 -1.8431  2.7020 -2.0764
  486MOL0     H67066   5.810   3.430   9.853  2.2709 -2.0201  0.3773
  486MOL0     H67067   5.929   3.466   9.735 -0.2772 -1.9473 -2.6898
  486MOL0     H67068   5.777   3.543   9.705 -0.0652 -0.8002 -1.0092
  487MOL0     O67069   3.416   5.358   3.957 -0.8813  0.7039 -0.1460
  487MOL0     C67070   3.444   5.367   3.840  0.0299 -1.1626  0.2517
  487MOL0     O67071   3.568   5.398   3.793 -0.2865 -0.3291 -0.3201
  487MOL0     C67072   3.655   5.460   3.885  0.4088  0.3437  0.6062
  487MOL0     C67073   3.717   5.409   4.003 -0.1410 -0.5844  0.3723
  487MOL0     C67074   3.807   5.479   4.081 -0.7406 -0.8501 -0.6174
  487MOL0     C67075   3.842   5.612   4.049 -0.4252 -0.2463  0.0640
  487MOL0     O67076   3.937   5.681   4.121 -0.0477  0.1275 -0.3737
  487MOL0     C67077   3.972   5.811   4.069 -0.2583  0.0278 -0.5404
  487MOL0     C67078   4.048   5.879   4.180  0.5710  0.1264 -0.8480
  487MOL0     C67079   4.132   5.988   4.121 -0.2513  0.5724 -0.7062
  487MOL0     C67080   4.204   6.051   4.238  0.7204 -0.1561  0.1394
  487MOL0     C67081   4.308   6.149   4.175  0.9292  0.1324  0.3678
  487MOL0     C67082   4.392   6.208   4.279  0.0743 -1.0792  0.6661
  487MOL0     C67083   4.472   6.330   4.223  0.2662  0.3472  0.0427
  487MOL0     C67084   4.564   6.390   4.334 -0.1445 -0.0304  0.4215
  487MOL0     N67085   4.664   6.477   4.270  0.0962 -0.1801  0.6143
  487MOL0     C67086   4.655   6.610   4.291 -1.7688  0.5929  0.6557
  487MOL0     C67087   4.760   6.663   4.228 -0.1727 -0.1784  0.5876
  487MOL0     C67088   4.786   6.812   4.199  0.1931 -0.1624 -0.3774
  487MOL0     C67089   4.918   6.880   4.243 -0.5220 -0.6964 -0.1573
  487MOL0     C67090   5.047   6.811   4.198  0.1776 -0.7269  0.2511
  487MOL0     C67091   5.150   6.925   4.200 -0.1963  0.5804 -0.2884
  487MOL0     O67092   5.279   6.881   4.173 -0.4039 -0.1382  0.5858
  487MOL0     C67093   5.380   6.935   4.253  0.7298  0.0792 -0.0771
  487MOL0     C67094   5.450   6.856   4.344 -0.1820 -0.0785  0.3013
  487MOL0     C67095   5.551   6.905   4.423  0.4202 -0.3218  0.1566
  487MOL0     C67096   5.625   6.811   4.512 -0.7656 -0.2642  0.3866
  487MOL0     C67097   5.595   7.038   4.389 -0.0573  0.0503  0.5288
  487MOL0     C67098   5.718   7.096   4.454 -0.5401 -0.4278  0.9106
  487MOL0     O67099   5.712   7.232   4.468 -0.1287 -0.0510 -0.2598
  487MOL0     C67100   5.789   7.280   4.567  0.0622  0.1258 -0.4741
  487MOL0     C67101   5.852   7.401   4.542 -0.1456 -0.4045 -0.3356
  487MOL0     C67102   5.914   7.481   4.640  0.1502 -0.4461 -0.7823
  487MOL0     C67103   5.905   7.428   4.774 -0.5320 -0.3410  0.0531
  487MOL0     O67104   5.951   7.501   4.880  0.3459  0.1914  0.3558
  487MOL0     C67105   5.919   7.640   4.879 -0.6578 -0.1703 -0.1198
  487MOL0     C67106   5.937   7.688   5.020 -0.1263 -1.0603 -0.8535
  487MOL0     C67107   6.076   7.674   5.076  0.3934  0.3631 -0.5737
  487MOL0     C67108   6.062   7.633   5.226 -0.9256 -0.9550  0.0163
  487MOL0     C67109   6.023   7.483   5.237 -0.3292  0.8021  0.7866
  487MOL0     C67110   6.015   7.458   5.387 -0.6651  0.1113 -0.6020
  487MOL0     C67111   5.990   7.301   5.405  0.2612 -1.0531 -0.1496
  487MOL0     C67112   5.995   7.257   5.544  0.2323  0.6844 -0.8637
  487MOL0    Cl67113   5.963   7.091   5.548  0.0535  0.4737  0.1381
  487MOL0     C67114   5.852   7.305   4.799 -0.1549 -0.1181 -0.6048
  487MOL0     C67115   5.789   7.233   4.705 -0.5759  0.5762  0.7373
  487MOL0     O67116   5.815   7.017   4.475  0.1033 -1.0475  0.4412
  487MOL0     C67117   5.521   7.126   4.297  0.1692 -0.1975  0.8869
  487MOL0     C67118   5.414   7.068   4.230 -0.3970 -0.0905 -0.1055
  487MOL0     N67119   4.836   6.566   4.170 -0.1590  0.6666 -0.5190
  487MOL0     N67120   4.774   6.449   4.195 -0.4643 -0.3412  0.1269
  487MOL0     C67121   3.770   5.665   3.943  0.1205 -0.2840 -0.1742
  487MOL0     C67122   3.684   5.590   3.859 -0.0825  0.4321  0.5274
  487MOL0     C67123   3.339   5.375   3.739  0.1046  0.3456  1.0083
  487MOL0     C67124   3.372   5.421   3.615 -0.0767 -0.1493  1.0094
  487MOL0     C67125   3.280   5.414   3.513 -0.4908  0.2302 -0.2756
  487MOL0     C67126   3.158   5.354   3.523 -0.4091  0.3066  0.4396
  487MOL0     O67127   3.079   5.364   3.410 -0.0850  0.2287  0.0712
  487MOL0     C67128   3.052   5.230   3.359 -0.5498 -0.0352  0.0984
  487MOL0     C67129   3.156   5.165   3.260  0.0558  0.9793  0.2285
  487MOL0     C67130   3.088   5.070   3.163  0.8491 -0.7357 -0.4669
  487MOL0     C67131   3.188   4.991   3.079 -0.8263 -0.0531 -0.0062
  487MOL0     C67132   3.118   4.875   3.022  0.1067 -0.5341 -0.6700
  487MOL0     C67133   3.055   4.774   2.978  0.8891 -0.2998 -0.7854
  487MOL0     C67134   3.116   5.305   3.643  0.7766 -0.7469  0.3071
  487MOL0     C67135   3.205   5.315   3.753 -0.0694  0.1410  1.2228
  487MOL0     C67136   3.153   5.237   3.867  0.6936  0.8847  0.4341
  487MOL0     H67137   3.686   5.311   4.038 -1.2241 -0.1140  0.7451
  487MOL0     H67138   3.843   5.429   4.171  0.2087  0.5405 -0.1972
  487MOL0     H67139   3.885   5.875   4.048 -0.2691 -0.0560 -0.7579
  487MOL0     H67140   4.035   5.800   3.980  1.1508  2.6436  0.0300
  487MOL0     H67141   3.961   5.917   4.235 -0.8471 -3.1631 -0.6249
  487MOL0     H67142   4.089   5.800   4.243 -3.6719 -0.6805  1.2969
  487MOL0     H67143   4.209   5.947   4.054  0.0745 -0.7100  0.4025
  487MOL0     H67144   4.067   6.054   4.063 -0.2087 -0.8473 -2.4861
  487MOL0     H67145   4.133   6.104   4.302  0.4904 -2.2122  1.6808
  487MOL0     H67146   4.250   5.982   4.309  0.9306 -1.0235 -0.8062
  487MOL0     H67147   4.256   6.233   4.128 -0.6229 -0.8642  0.2306
  487MOL0     H67148   4.362   6.101   4.093 -2.3493 -0.8268 -1.4250
  487MOL0     H67149   4.337   6.248   4.364  1.1522  0.7071  0.5728
  487MOL0     H67150   4.473   6.143   4.316  2.8998  0.5569 -2.1328
  487MOL0     H67151   4.415   6.409   4.175  1.0178  2.2452  2.1117
  487MOL0     H67152   4.543   6.289   4.150  0.0181  0.3168 -0.1825
  487MOL0     H67153   4.508   6.433   4.418  2.9298  2.2064  1.4938
  487MOL0     H67154   4.621   6.309   4.380 -0.3684  0.1139  0.9607
  487MOL0     H67155   4.572   6.652   4.347 -2.1201 -0.6778  1.1353
  487MOL0     H67156   4.709   6.867   4.252 -1.4210 -0.1325 -2.5979
  487MOL0     H67157   4.777   6.838   4.093  3.3971  1.7581 -0.3268
  487MOL0     H67158   4.913   6.984   4.212 -0.4860 -0.8097 -0.5539
  487MOL0     H67159   4.922   6.892   4.351  0.6833  3.6089 -0.4879
  487MOL0     H67160   5.077   6.729   4.264  0.2771  0.6608  2.0278
  487MOL0     H67161   5.036   6.764   4.100 -1.3523  0.5973 -0.2558
  487MOL0     H67162   5.137   7.003   4.124  0.0122  2.1503  1.2223
  487MOL0     H67163   5.149   6.951   4.306  0.3064 -1.9236  0.4059
  487MOL0     H67164   5.419   6.752   4.354 -0.2076  0.0538  1.9411
  487MOL0     H67165   5.728   6.781   4.490 -0.0791  1.3124  1.3045
  487MOL0     H67166   5.567   6.718   4.509  0.9588 -1.4251 -3.1639
  487MOL0     H67167   5.624   6.841   4.617  0.6636 -0.4833  0.4853
  487MOL0     H67168   5.838   7.450   4.446 -1.3380  0.4814  0.2568
  487MOL0     H67169   5.955   7.581   4.629 -0.1545 -0.1294  0.7147
  487MOL0     H67170   5.993   7.701   4.827 -0.8439  0.5794  0.4767
  487MOL0     H67171   5.819   7.665   4.840  0.5944 -0.6591 -4.1415
  487MOL0     H67172   5.910   7.791   5.043  1.5233 -0.6899 -0.4070
  487MOL0     H67173   5.868   7.626   5.078  0.8016 -2.7025 -1.4431
  487MOL0     H67174   6.116   7.776   5.077 -1.3751  1.0998  0.4944
  487MOL0     H67175   6.136   7.607   5.015 -1.1660 -0.5518 -1.1751
  487MOL0     H67176   5.987   7.698   5.270  0.6076  0.8965  0.0323
  487MOL0     H67177   6.160   7.656   5.270 -0.1280  1.2254 -2.5701
  487MOL0     H67178   5.927   7.469   5.186  1.1623 -4.5877 -1.2592
  487MOL0     H67179   6.099   7.434   5.175  0.6278  3.7605 -0.5513
  487MOL0     H67180   5.935   7.513   5.438 -0.2886 -1.4790  1.9349
  487MOL0     H67181   6.112   7.478   5.435 -0.5315 -3.3181  0.8867
  487MOL0     H67182   6.066   7.256   5.342  1.2881 -0.1961  0.4454
  487MOL0     H67183   5.892   7.277   5.363 -1.1715  1.8654  1.1907
  487MOL0     H67184   5.926   7.314   5.608 -2.2088 -3.1342  0.2417
  487MOL0     H67185   6.095   7.266   5.588  0.1972 -2.4680  0.0970
  487MOL0     H67186   5.871   7.264   4.897  1.1911 -2.7476 -1.8460
  487MOL0     H67187   5.739   7.144   4.740 -0.0375  0.8618  2.2931
  487MOL0     H67188   5.555   7.228   4.281  0.6552 -0.5950 -0.8966
  487MOL0     H67189   5.349   7.124   4.162 -0.0539 -1.2658 -1.4590
  487MOL0     H67190   3.776   5.767   3.906 -1.7551 -0.1764 -0.2802
  487MOL0     H67191   3.644   5.656   3.783  0.4633  3.2262  2.5272
  487MOL0     H67192   3.469   5.466   3.595  0.7883 -2.3652 -0.1109
  487MOL0     H67193   3.296   5.460   3.416 -2.2980 -0.8962 -1.1685
  487MOL0     H67194   3.037   5.160   3.442  3.0355  1.5287  2.3276
  487MOL0     H67195   2.957   5.250   3.310 -0.1648  0.8939 -0.2898
  487MOL0     H67196   3.218   5.111   3.331  0.8162  2.0409  0.3867
  487MOL0     H67197   3.204   5.253   3.216  0.6529  0.2804 -0.5588
  487MOL0     H67198   3.015   5.004   3.212 -2.3602  2.4281 -0.5928
  487MOL0     H67199   3.032   5.132   3.092  0.1604  0.5976  1.1915
  487MOL0     H67200   3.281   4.951   3.120 -0.5074 -1.3682 -1.9218
  487MOL0     H67201   3.215   5.060   2.999 -1.7255  1.9842  1.3634
  487MOL0     H67202   2.990   4.691   2.959 -0.5823  0.0838  1.9348
  487MOL0     H67203   3.020   5.261   3.669  0.7055  0.9405  3.2951
  487MOL0     H67204   3.056   5.192   3.840  1.4698 -0.1237 -0.7990
  487MOL0     H67205   3.221   5.155   3.894 -1.2011 -1.0984 -0.4573
  487MOL0     H67206   3.147   5.311   3.947  1.5789  2.1312 -0.6265
  488MOL0     O67207   5.227  11.470   3.572  0.6489 -0.1555  0.4124
  488MOL0     C67208   5.259  11.354   3.561 -1.0564 -0.1163 -0.1699
  488MOL0     O67209   5.348  11.287   3.645  0.0815 -0.0131 -0.0538
  488MOL0     C67210   5.394  11.355   3.753 -0.1856  0.4259 -0.7834
  488MOL0     C67211   5.360  11.329   3.884  0.8120  0.5172 -0.7666
  488MOL0     C67212   5.414  11.404   3.994  0.9141  0.4604  0.9315
  488MOL0     C67213   5.489  11.521   3.970  0.1551 -0.4652  0.3207
  488MOL0     O67214   5.546  11.601   4.068 -0.2948  0.9542  0.1655
  488MOL0     C67215   5.491  11.607   4.197 -0.1557 -0.2504  1.0172
  488MOL0     C67216   5.531  11.730   4.271 -0.0277 -0.1402 -0.2788
  488MOL0     C67217   5.685  11.745   4.257  0.4083 -0.0999 -0.6328
  488MOL0     C67218   5.751  11.811   4.389  0.3571 -0.3482  0.8108
  488MOL0     C67219   5.893  11.860   4.349 -0.2586 -0.6250  0.7285
  488MOL0     C67220   5.983  11.908   4.463 -0.7844 -0.3575 -0.5693
  488MOL0     C67221   6.013  11.805   4.576  0.6057 -0.4803  1.4122
  488MOL0     C67222   6.087  11.688   4.535  0.2967  0.1640 -0.2428
  488MOL0     N67223   6.021  11.582   4.475  1.4462  0.2729 -0.0008
  488MOL0     C67224   5.924  11.501   4.524  0.2728 -0.1163 -0.9960
  488MOL0     C67225   5.899  11.416   4.425  0.6430  0.5034  1.0859
  488MOL0     C67226   5.795  11.308   4.438 -1.0772  0.1460  0.0290
  488MOL0     C67227   5.660  11.358   4.482  0.1856  0.0976 -0.0503
  488MOL0     C67228   5.559  11.246   4.489  0.4637  0.1469 -0.1266
  488MOL0     C67229   5.536  11.179   4.354  1.0168  1.1193 -0.8841
  488MOL0     O67230   5.405  11.122   4.359 -0.5505 -0.2364 -0.2916
  488MOL0     C67231   5.371  11.035   4.265 -0.1393  0.1000  0.6006
  488MOL0     C67232   5.447  10.983   4.155 -0.3456  0.1913 -0.7567
  488MOL0     C67233   5.391  10.917   4.048 -0.4990 -0.2724 -0.8312
  488MOL0     C67234   5.460  10.898   3.913  0.3752 -0.8516 -0.4677
  488MOL0     C67235   5.258  10.888   4.058 -0.4418  0.1387 -0.8791
  488MOL0     C67236   5.168  10.826   3.959 -0.5010  1.1957 -0.7203
  488MOL0     O67237   5.075  10.720   4.002  0.2452 -0.7043 -0.5344
  488MOL0     C67238   4.974  10.705   3.915  0.4580  0.1712  0.7350
  488MOL0     C67239   4.857  10.784   3.921  0.8516  0.1853 -0.1458
  488MOL0     C67240   4.750  10.769   3.828 -0.3881  0.9019  0.5575
  488MOL0     C67241   4.760  10.665   3.726 -0.3195  0.7335 -0.1973
  488MOL0     O67242   4.669  10.654   3.627  0.0523  0.1919 -0.3806
  488MOL0     C67243   4.626  10.518   3.600  0.4641  0.3931  0.9877
  488MOL0     C67244   4.472  10.524   3.556 -0.1341  0.4222 -0.2793
  488MOL0     C67245   4.459  10.567   3.404  0.0202  0.7944  0.8044
  488MOL0     C67246   4.489  10.440   3.316 -0.3814 -0.6717 -0.5692
  488MOL0     C67247   4.460  10.461   3.165  0.2554  0.3274 -0.3853
  488MOL0     C67248   4.478  10.329   3.084 -0.4502  0.1463 -0.3375
  488MOL0     C67249   4.629  10.288   3.077 -0.1020  0.5932 -0.5254
  488MOL0     C67250   4.650  10.145   3.121  0.8784  0.4026  0.4343
  488MOL0    Cl67251   4.601  10.034   2.993 -0.0395 -0.0306  0.0805
  488MOL0     C67252   4.881  10.592   3.729  0.2155 -0.3499 -0.6466
  488MOL0     C67253   4.984  10.603   3.821  0.5268  0.5795  0.1254
  488MOL0     O67254   5.175  10.864   3.847 -0.1291 -0.6394  0.0807
  488MOL0     C67255   5.184  10.931   4.164 -0.1556  0.1470 -0.2480
  488MOL0     C67256   5.240  11.002   4.266 -0.4520  0.9021 -0.0441
  488MOL0     N67257   5.986  11.423   4.326 -0.8459  0.5808 -0.5383
  488MOL0     N67258   6.071  11.520   4.357  0.9190 -0.3095  0.3574
  488MOL0     C67259   5.520  11.549   3.843 -0.1679  0.2095  1.0924
  488MOL0     C67260   5.482  11.467   3.737  0.4442 -0.4854  0.3651
  488MOL0     C67261   5.190  11.278   3.454  0.2822 -1.1007  0.5950
  488MOL0     C67262   5.191  11.340   3.325 -0.4148  0.0474  0.0459
  488MOL0     C67263   5.122  11.272   3.216 -0.2798 -0.2706 -0.3642
  488MOL0     C67264   5.067  11.143   3.238 -0.1898 -0.1972 -0.1652
  488MOL0     O67265   4.996  11.085   3.138  0.5028 -0.4933 -0.6090
  488MOL0     C67266   4.948  10.947   3.138  0.1312  0.8812 -0.2137
  488MOL0     C67267   4.871  10.901   3.018  0.8198  0.1030  0.2449
  488MOL0     C67268   4.864  10.752   3.006 -0.4205  0.3449 -0.1048
  488MOL0     C67269   4.806  10.700   3.139 -0.0984  0.5567  0.2821
  488MOL0     C67270   4.893  10.662   3.254  0.9910 -0.4435  0.6523
  488MOL0     C67271   4.959  10.663   3.349 -0.8015  0.5120  0.4339
  488MOL0     C67272   5.064  11.088   3.366  0.3197 -0.6239 -0.1331
  488MOL0     C67273   5.123  11.159   3.472 -0.4840 -0.3990  0.2698
  488MOL0     C67274   5.102  11.109   3.616  0.6473  0.5691 -0.2635
  488MOL0     H67275   5.304  11.240   3.911 -1.8738  2.4794  0.6073
  488MOL0     H67276   5.394  11.366   4.094  1.0516 -0.8884  0.4643
  488MOL0     H67277   5.517  11.521   4.259 -2.4034  0.8142  3.6581
  488MOL0     H67278   5.382  11.606   4.187 -0.3308  5.5553 -1.6302
  488MOL0     H67279   5.482  11.815   4.223 -2.4439 -0.1656  1.8626
  488MOL0     H67280   5.494  11.724   4.374 -2.6797  0.8206 -1.0681
  488MOL0     H67281   5.742  11.653   4.239  1.4042  0.5212 -0.7380
  488MOL0     H67282   5.708  11.796   4.164  0.1748 -2.0316 -1.8103
  488MOL0     H67283   5.685  11.893   4.416 -0.1012  0.2520 -1.8851
  488MOL0     H67284   5.754  11.733   4.467 -1.3334  0.5171  1.8037
  488MOL0     H67285   5.900  11.943   4.279  1.6271 -0.4942  1.0151
  488MOL0     H67286   5.944  11.778   4.298  1.1803 -0.2841  1.5708
  488MOL0     H67287   6.073  11.946   4.415  0.9272  0.4726  2.9690
  488MOL0     H67288   5.928  11.994   4.501  0.3144 -1.5218  4.3373
  488MOL0     H67289   5.920  11.761   4.614 -0.9551  0.4123 -1.1282
  488MOL0     H67290   6.059  11.856   4.661 -0.2044  1.5622  0.6750
  488MOL0     H67291   6.162  11.720   4.461  1.1750  0.4919  0.7675
  488MOL0     H67292   6.136  11.662   4.629  0.8759  4.7477  0.9745
  488MOL0     H67293   5.874  11.505   4.621  2.3159  0.7259  0.1022
  488MOL0     H67294   5.818  11.244   4.523 -4.2789 -1.7021 -0.3369
  488MOL0     H67295   5.794  11.253   4.344 -2.1475  2.5600 -1.4824
  488MOL0     H67296   5.677  11.411   4.576 -0.0887  1.3457 -0.6868
  488MOL0     H67297   5.635  11.436   4.410  1.3891  2.4041  1.8851
  488MOL0     H67298   5.584  11.180   4.572  2.1107  2.6351  1.5031
  488MOL0     H67299   5.462  11.292   4.508  1.7291  2.6417  0.7208
  488MOL0     H67300   5.557  11.246   4.270  4.7009 -0.4726 -1.4430
  488MOL0     H67301   5.615  11.103   4.357  1.7216  1.6292 -3.7848
  488MOL0     H67302   5.555  10.993   4.162 -0.2530 -0.0178 -1.7677
  488MOL0     H67303   5.436  10.985   3.851 -1.8691  0.4267  1.9594
  488MOL0     H67304   5.441  10.809   3.853 -0.2875  0.7375 -2.7674
  488MOL0     H67305   5.567  10.906   3.935  0.4833 -1.6882 -0.6809
  488MOL0     H67306   4.841  10.855   4.002 -3.2250  0.9084 -1.3976
  488MOL0     H67307   4.661  10.829   3.814 -1.1423 -0.8364 -4.6689
  488MOL0     H67308   4.682  10.488   3.511 -0.5985  1.1811  0.0117
  488MOL0     H67309   4.643  10.447   3.681  1.7881  1.9551  2.1703
  488MOL0     H67310   4.426  10.430   3.586 -0.5131  0.7183  0.0764
  488MOL0     H67311   4.413  10.586   3.624 -2.3208 -1.1787 -0.6065
  488MOL0     H67312   4.535  10.642   3.377 -0.6988  0.6464 -1.8831
  488MOL0     H67313   4.356  10.602   3.398  0.1364  0.9400 -0.6664
  488MOL0     H67314   4.431  10.356   3.353 -2.3254  0.5983 -0.5780
  488MOL0     H67315   4.596  10.419   3.329  0.2292  1.2851 -1.9126
  488MOL0     H67316   4.355  10.487   3.150  0.4199  1.3496  0.1534
  488MOL0     H67317   4.516  10.548   3.130 -0.8022  1.3775  0.4462
  488MOL0     H67318   4.442  10.341   2.982 -1.4911 -1.6937 -0.2286
  488MOL0     H67319   4.418  10.256   3.139 -1.6362  0.8917 -0.6230
  488MOL0     H67320   4.695  10.350   3.139  1.9616 -2.2665  0.3741
  488MOL0     H67321   4.666  10.297   2.975 -0.9887  0.0409 -0.9061
  488MOL0     H67322   4.593  10.128   3.213  0.1532  1.3793  0.1778
  488MOL0     H67323   4.754  10.129   3.149  0.9038 -3.3242 -1.1575
  488MOL0     H67324   4.887  10.510   3.658 -1.4178  0.4773 -1.7943
  488MOL0     H67325   5.071  10.539   3.824 -2.5066 -3.9072  1.2476
  488MOL0     H67326   5.081  10.902   4.185 -0.0215 -0.6683 -0.6614
  488MOL0     H67327   5.169  11.029   4.343 -3.1907 -1.9377 -1.3616
  488MOL0     H67328   5.582  11.635   3.820  0.6520 -0.2074  1.6689
  488MOL0     H67329   5.519  11.497   3.639  3.5026  1.6576  2.0117
  488MOL0     H67330   5.239  11.437   3.317 -2.3504  1.1482  1.1601
  488MOL0     H67331   5.117  11.316   3.117 -0.8574 -0.5231 -0.4491
  488MOL0     H67332   5.037  10.885   3.153 -0.0797  0.6987  0.2948
  488MOL0     H67333   4.873  10.939   3.217 -2.1405 -0.5212 -2.3358
  488MOL0     H67334   4.933  10.938   2.935  2.3232  0.6565  1.5528
  488MOL0     H67335   4.772  10.946   3.015 -0.0328 -1.5394  2.1169
  488MOL0     H67336   4.801  10.739   2.918  0.5825  3.1347 -1.3338
  488MOL0     H67337   4.966  10.718   2.990  1.1991  2.6478  3.8546
  488MOL0     H67338   4.726  10.625   3.129  1.3700 -1.1004  0.4860
  488MOL0     H67339   4.745  10.777   3.187  1.3982  2.0825 -0.1781
  488MOL0     H67340   5.017  10.631   3.433  0.0694 -0.1562 -0.3986
  488MOL0     H67341   5.007  10.997   3.383 -0.2706 -0.5695 -1.6140
  488MOL0     H67342   5.010  11.049   3.620  0.5237  0.6998 -0.9904
  488MOL0     H67343   5.188  11.050   3.649  2.8572  3.7896  0.0981
  488MOL0     H67344   5.096  11.195   3.683  0.4503  0.0692  0.3762
  489MOL0     O67345   9.845   5.332   9.661 -0.4915  0.0417 -0.7465
  489MOL0     C67346   9.836   5.265   9.555 -0.0475  0.2652 -0.8016
  489MOL0     O67347   9.888   5.289   9.433  0.8066 -0.1200  0.5537
  489MOL0     C67348   9.942   5.406   9.387  0.0990  0.2366 -0.1269
  489MOL0     C67349  10.024   5.404   9.277  1.1212  0.2722  0.7988
  489MOL0     C67350  10.090   5.516   9.244 -0.1850  0.0704  0.5324
  489MOL0     C67351  10.053   5.650   9.296 -0.0561 -0.6192  0.0044
  489MOL0     O67352  10.103   5.768   9.247  0.2841  0.9347 -0.2866
  489MOL0     C67353  10.167   5.771   9.121  0.4373  0.3315  0.5174
  489MOL0     C67354  10.194   5.916   9.074  0.4434  0.4343  0.6873
  489MOL0     C67355  10.280   5.991   9.178 -0.3226 -0.0213 -0.3026
  489MOL0     C67356  10.318   6.123   9.122 -0.1250 -0.8217  0.6444
  489MOL0     C67357  10.415   6.197   9.213  0.4231 -0.7815  0.0012
  489MOL0     C67358  10.425   6.339   9.151  0.1035 -0.0165  0.1327
  489MOL0     C67359  10.537   6.421   9.213 -0.0199  0.7466  0.3236
  489MOL0     C67360  10.530   6.447   9.367  0.6016  0.5122  0.4181
  489MOL0     N67361  10.663   6.480   9.410  0.4689 -0.4891 -0.3726
  489MOL0     C67362  10.717   6.601   9.422  0.1428  0.3543 -0.2294
  489MOL0     C67363  10.839   6.575   9.474 -0.1086  0.5224 -0.6631
  489MOL0     C67364  10.953   6.674   9.484 -0.4210  1.3097 -0.3776
  489MOL0     C67365  11.019   6.692   9.349  1.0422  0.0342 -0.0689
  489MOL0     C67366  11.155   6.619   9.344  0.6099  0.5570 -0.1189
  489MOL0     C67367  11.213   6.625   9.198  0.6679  0.8773  0.3370
  489MOL0     O67368  11.167   6.515   9.112  0.0992 -0.5002 -0.5937
  489MOL0     C67369  11.239   6.398   9.143  1.0814  0.1201 -0.2500
  489MOL0     C67370  11.179   6.308   9.228 -1.2547  0.3519 -1.0277
  489MOL0     C67371  11.239   6.189   9.261 -0.0396  0.3766 -0.0334
  489MOL0     C67372  11.165   6.090   9.352  0.1233 -0.4676  0.1150
  489MOL0     C67373  11.364   6.152   9.211 -0.0334 -0.0899 -0.9426
  489MOL0     C67374  11.443   6.029   9.221 -0.0469 -0.0387  0.1986
  489MOL0     O67375  11.575   6.029   9.173  0.3869  0.0547  0.8601
  489MOL0     C67376  11.660   5.926   9.198 -0.6055  0.9410  0.1056
  489MOL0     C67377  11.636   5.794   9.153 -0.2299 -0.5659 -0.9143
  489MOL0     C67378  11.730   5.690   9.170  0.0608 -1.0399  0.7679
  489MOL0     C67379  11.859   5.724   9.223 -0.5940 -0.0833  0.2520
  489MOL0     O67380  11.952   5.628   9.237 -0.2916  0.4947 -0.2963
  489MOL0     C67381  12.075   5.648   9.308 -0.1668  0.5059 -0.2738
  489MOL0     C67382  12.150   5.519   9.319 -1.7820  1.2890 -0.3058
  489MOL0     C67383  12.252   5.531   9.440  0.0191  0.2522  0.2746
  489MOL0     C67384  12.379   5.606   9.411  0.7410 -0.7216  0.7292
  489MOL0     C67385  12.493   5.520   9.354 -0.1888 -0.2077  0.1938
  489MOL0     C67386  12.617   5.584   9.410 -1.3151 -0.3109  1.0552
  489MOL0     C67387  12.743   5.503   9.362  0.2816 -0.8720 -0.2556
  489MOL0     C67388  12.863   5.542   9.441 -0.2759  0.0195  0.2971
  489MOL0    Cl67389  13.003   5.461   9.355 -0.0826 -0.7086 -0.3801
  489MOL0     C67390  11.882   5.853   9.261 -0.6139 -0.2317  0.7637
  489MOL0     C67391  11.789   5.953   9.241  0.2557  0.5096 -0.2344
  489MOL0     O67392  11.395   5.933   9.287  0.6847  0.7332 -0.5331
  489MOL0     C67393  11.430   6.254   9.133  0.2061  0.2468  0.1307
  489MOL0     C67394  11.369   6.370   9.093 -0.0354  0.4264 -0.1146
  489MOL0     N67395  10.854   6.441   9.504  0.4954  0.4728 -0.7726
  489MOL0     N67396  10.742   6.382   9.463 -0.2473 -0.3570 -0.5948
  489MOL0     C67397   9.968   5.655   9.406 -0.8930  0.5202 -0.1908
  489MOL0     C67398   9.907   5.529   9.440  0.3069 -0.0733  0.2089
  489MOL0     C67399   9.764   5.140   9.563 -0.9176  0.2561  0.4806
  489MOL0     C67400   9.782   5.045   9.452 -0.2418  0.2632  0.5744
  489MOL0     C67401   9.731   4.920   9.447  0.5568  0.7788 -0.0996
  489MOL0     C67402   9.671   4.863   9.561  1.2814 -0.8085  0.0437
  489MOL0     O67403   9.633   4.734   9.565  0.4327  0.6493 -0.1039
  489MOL0     C67404   9.500   4.711   9.620  1.2995 -0.6892 -0.6452
  489MOL0     C67405   9.474   4.559   9.596 -1.5298 -0.1299  0.6523
  489MOL0     C67406   9.325   4.539   9.603  0.6520  0.3619 -1.2394
  489MOL0     C67407   9.288   4.393   9.616  0.0236  0.5954  0.1068
  489MOL0     C67408   9.282   4.330   9.476 -0.3734 -0.2774  0.0565
  489MOL0     C67409   9.269   4.265   9.376  0.2707 -1.1353  0.7187
  489MOL0     C67410   9.653   4.949   9.667 -0.3476 -0.4147  0.4440
  489MOL0     C67411   9.691   5.083   9.668  0.0291 -0.0607 -0.3677
  489MOL0     C67412   9.660   5.163   9.787  0.1085 -0.3999 -0.4881
  489MOL0     H67413  10.023   5.305   9.233  0.2758  1.4133 -1.9522
  489MOL0     H67414  10.151   5.516   9.155 -1.0849  1.1450 -0.1032
  489MOL0     H67415  10.098   5.732   9.047  0.1735 -0.3869  1.1268
  489MOL0     H67416  10.269   5.733   9.120  0.0980 -0.6518  1.2755
  489MOL0     H67417  10.230   5.917   8.971 -0.9049 -2.6064  0.0999
  489MOL0     H67418  10.103   5.977   9.079  0.5253  0.9031 -2.2305
  489MOL0     H67419  10.227   5.994   9.274  0.4495 -5.2229  0.5792
  489MOL0     H67420  10.367   5.933   9.209 -0.3592  1.4204  2.7437
  489MOL0     H67421  10.355   6.112   9.020  1.3386  0.7264  0.9656
  489MOL0     H67422  10.224   6.177   9.106  0.3284 -1.0381 -4.2606
  489MOL0     H67423  10.506   6.138   9.213  0.4211 -0.8166  1.5068
  489MOL0     H67424  10.368   6.204   9.311  1.8493 -1.3732  0.7422
  489MOL0     H67425  10.445   6.332   9.043 -0.4890 -1.9347  0.1154
  489MOL0     H67426  10.329   6.388   9.169  0.2763 -0.1549  1.5315
  489MOL0     H67427  10.532   6.515   9.158 -2.0272 -1.4780 -3.7559
  489MOL0     H67428  10.631   6.372   9.185 -0.7405  0.0920 -1.0238
  489MOL0     H67429  10.454   6.524   9.384 -0.1007  0.2231 -1.2960
  489MOL0     H67430  10.502   6.357   9.424 -1.2838  1.0996  0.4592
  489MOL0     H67431  10.675   6.694   9.386  0.8509  0.0895 -1.8553
  489MOL0     H67432  11.026   6.651   9.562 -0.9079  0.5537 -0.1339
  489MOL0     H67433  10.906   6.767   9.518 -0.6820  0.2542  2.3842
  489MOL0     H67434  10.956   6.640   9.276 -0.2663 -0.8486  1.6242
  489MOL0     H67435  11.023   6.799   9.326  2.3766 -0.5605 -3.1461
  489MOL0     H67436  11.227   6.674   9.405 -1.0500  2.9163 -0.1450
  489MOL0     H67437  11.155   6.516   9.381  3.6642  0.9726  1.3789
  489MOL0     H67438  11.196   6.721   9.149  0.7171  1.5631  1.6472
  489MOL0     H67439  11.321   6.605   9.199  1.5074  4.2674 -2.4152
  489MOL0     H67440  11.083   6.331   9.273 -1.5760 -1.0681 -0.9158
  489MOL0     H67441  11.075   6.134   9.396  0.8578  1.7426 -0.4756
  489MOL0     H67442  11.230   6.051   9.431  2.1794 -0.3294 -1.4152
  489MOL0     H67443  11.136   6.006   9.288  2.4061 -1.1888 -0.0886
  489MOL0     H67444  11.534   5.764   9.132  0.1803 -2.7531 -0.0102
  489MOL0     H67445  11.699   5.589   9.146 -0.4477 -0.0797 -3.4000
  489MOL0     H67446  12.138   5.733   9.279  2.5915 -0.7018  1.7113
  489MOL0     H67447  12.048   5.662   9.413  0.9136 -3.5172  0.7218
  489MOL0     H67448  12.082   5.439   9.349 -0.0146  0.3927  1.5526
  489MOL0     H67449  12.205   5.486   9.230 -1.8395 -1.4829  0.6052
  489MOL0     H67450  12.285   5.428   9.453  2.3787  0.8194 -0.6902
  489MOL0     H67451  12.187   5.560   9.522  1.1722 -0.3279  1.4190
  489MOL0     H67452  12.399   5.640   9.513 -0.2446  1.8037  0.1732
  489MOL0     H67453  12.347   5.695   9.355 -1.2119  0.4172  3.4263
  489MOL0     H67454  12.488   5.420   9.398 -2.8875 -0.4802 -0.5713
  489MOL0     H67455  12.488   5.521   9.245  0.9557  1.3594  0.1257
  489MOL0     H67456  12.606   5.581   9.518  0.1119 -2.2695  1.1969
  489MOL0     H67457  12.619   5.687   9.372 -2.7065  0.4947  3.0237
  489MOL0     H67458  12.756   5.514   9.254  1.4053  3.9277  0.1294
  489MOL0     H67459  12.725   5.401   9.396  0.9920 -0.9438 -0.0819
  489MOL0     H67460  12.856   5.532   9.550 -1.1629 -0.6463  0.1896
  489MOL0     H67461  12.884   5.649   9.440  2.7982 -0.3807  2.7234
  489MOL0     H67462  11.974   5.882   9.311  1.3946 -2.4853 -1.3180
  489MOL0     H67463  11.801   6.056   9.271  0.5378 -0.4963  3.5626
  489MOL0     H67464  11.533   6.232   9.109  0.5901  0.1530  1.8075
  489MOL0     H67465  11.421   6.448   9.038  0.6789 -0.8177 -1.2742
  489MOL0     H67466   9.942   5.749   9.452  3.3452  2.4011 -1.1764
  489MOL0     H67467   9.824   5.517   9.509  0.3074  2.7752  0.8415
  489MOL0     H67468   9.849   5.061   9.368  1.8562 -0.0307  2.1040
  489MOL0     H67469   9.732   4.855   9.360 -1.0860  2.8769 -1.8090
  489MOL0     H67470   9.493   4.736   9.727  0.1431 -1.5243 -0.5103
  489MOL0     H67471   9.431   4.779   9.571  0.2753 -0.6384  0.8004
  489MOL0     H67472   9.527   4.504   9.674  2.2766  5.3208  2.5015
  489MOL0     H67473   9.509   4.523   9.498  1.1582  2.0752  0.6677
  489MOL0     H67474   9.289   4.577   9.699  1.6681  1.0642 -1.1179
  489MOL0     H67475   9.276   4.576   9.512 -3.7108 -2.5758 -0.3950
  489MOL0     H67476   9.186   4.382   9.654 -0.1897 -0.6333 -0.7512
  489MOL0     H67477   9.354   4.329   9.676  1.1997  1.4368 -0.2524
  489MOL0     H67478   9.249   4.207   9.288 -0.0889 -1.3797  0.9595
  489MOL0     H67479   9.604   4.910   9.756 -4.0826  0.7511 -0.9287
  489MOL0     H67480   9.584   5.115   9.848 -0.2067 -0.6853 -1.0913
  489MOL0     H67481   9.750   5.163   9.849 -0.0086 -0.0247 -0.3212
  489MOL0     H67482   9.628   5.267   9.774  0.4693 -0.1872  0.2712
  490MOL0     O67483   8.206  11.122  11.142 -0.2927  0.7080  0.1929
  490MOL0     C67484   8.247  11.011  11.154 -0.3145  0.1112  0.4618
  490MOL0     O67485   8.213  10.924  11.251  0.2116 -0.9426 -0.3609
  490MOL0     C67486   8.122  10.956  11.343 -0.8183  0.3620  0.4679
  490MOL0     C67487   8.161  10.985  11.480  0.3614  0.1604  0.5181
  490MOL0     C67488   8.067  11.039  11.567 -0.0759  0.0948 -0.4155
  490MOL0     C67489   7.932  11.067  11.520 -0.0149 -0.1430  0.2752
  490MOL0     O67490   7.842  11.123  11.600 -0.0436 -0.8754 -0.0045
  490MOL0     C67491   7.697  11.109  11.579 -0.4233 -0.2799  0.0394
  490MOL0     C67492   7.632  11.146  11.702 -0.0583 -0.8069 -0.7452
  490MOL0     C67493   7.645  11.042  11.823 -0.6668  0.4441 -0.1587
  490MOL0     C67494   7.577  11.080  11.956  0.8974 -0.5538  0.5237
  490MOL0     C67495   7.543  10.958  12.036  0.3391  0.2543  0.9138
  490MOL0     C67496   7.519  10.988  12.185 -0.5111  0.0880  0.0343
  490MOL0     C67497   7.490  10.859  12.262  0.4785  0.1960  0.2128
  490MOL0     C67498   7.354  10.789  12.249 -0.3492 -0.0144 -0.0727
  490MOL0     N67499   7.245  10.892  12.258  0.1908  0.7488  0.7372
  490MOL0     C67500   7.220  10.959  12.373 -0.1994 -0.3950  0.3454
  490MOL0     C67501   7.158  11.070  12.328  0.1780  0.0116 -1.1400
  490MOL0     C67502   7.109  11.172  12.422 -0.0076 -0.1424  0.0696
  490MOL0     C67503   6.959  11.156  12.461  0.3864 -0.3374  0.4928
  490MOL0     C67504   6.925  11.023  12.525  0.1719 -1.1977 -0.9951
  490MOL0     C67505   6.843  11.054  12.652 -0.7212  0.6541 -0.1297
  490MOL0     O67506   6.911  11.148  12.736 -0.1513  0.7432  0.1817
  490MOL0     C67507   6.863  11.157  12.868  0.2378  0.4761  0.1796
  490MOL0     C67508   6.918  11.265  12.944  0.4049 -0.1494  0.3559
  490MOL0     C67509   6.901  11.278  13.086 -0.0395  0.1479 -0.7155
  490MOL0     C67510   6.982  11.382  13.169  0.4124 -0.3889 -0.7258
  490MOL0     C67511   6.800  11.195  13.139  0.2083 -0.0041 -0.1953
  490MOL0     C67512   6.747  11.217  13.279 -0.1740  0.7011 -0.2617
  490MOL0     O67513   6.647  11.122  13.316 -0.2899  0.0954 -0.2824
  490MOL0     C67514   6.621  11.117  13.456  0.7120 -0.7208 -0.4483
  490MOL0     C67515   6.623  10.987  13.517  0.0883 -0.2850 -0.7989
  490MOL0     C67516   6.601  10.981  13.657  0.6778 -0.2097  0.0351
  490MOL0     C67517   6.572  11.108  13.730  0.4416  0.3719  0.8013
  490MOL0     O67518   6.536  11.130  13.863  0.3064 -0.0319  0.0854
  490MOL0     C67519   6.498  11.017  13.933 -0.0382  0.5433 -0.6127
  490MOL0     C67520   6.432  11.053  14.066  0.2522  0.3860  0.6564
  490MOL0     C67521   6.452  10.939  14.170 -0.1839 -0.5887 -0.0629
  490MOL0     C67522   6.402  10.799  14.119 -0.4453 -0.3207 -0.6576
  490MOL0     C67523   6.427  10.696  14.230 -1.1414 -0.2565  0.1326
  490MOL0     C67524   6.575  10.644  14.246 -1.3558 -0.3129 -0.6456
  490MOL0     C67525   6.579  10.549  14.368 -0.2185 -0.3342  0.5933
  490MOL0     C67526   6.727  10.538  14.412  0.6615 -0.7013  0.1860
  490MOL0    Cl67527   6.751  10.409  14.530 -0.2082  0.1801 -0.4826
  490MOL0     C67528   6.566  11.225  13.658  0.3978 -0.7728 -0.0981
  490MOL0     C67529   6.590  11.233  13.527  0.2926 -0.0544 -0.6283
  490MOL0     O67530   6.811  11.284  13.354 -0.0163 -0.1763 -0.3121
  490MOL0     C67531   6.731  11.097  13.056 -0.2169 -0.3985 -0.1637
  490MOL0     C67532   6.773  11.069  12.925  0.0474 -0.2952 -0.1789
  490MOL0     N67533   7.127  11.064  12.196 -0.2818 -0.4956  0.2391
  490MOL0     N67534   7.179  10.957  12.154 -0.4809 -0.8906  0.6218
  490MOL0     C67535   7.900  11.033  11.390 -0.0917  0.1288  0.2302
  490MOL0     C67536   7.992  10.989  11.302 -0.2884  0.5238  0.9245
  490MOL0     C67537   8.350  10.959  11.056  0.2690 -0.9371 -0.6095
  490MOL0     C67538   8.418  10.835  11.086 -0.3402 -0.2008 -0.2428
  490MOL0     C67539   8.513  10.777  11.003  0.4658 -0.7141  0.3569
  490MOL0     C67540   8.540  10.832  10.879  0.6894 -0.2828  0.7088
  490MOL0     O67541   8.634  10.765  10.808 -0.3211  0.1251 -0.0613
  490MOL0     C67542   8.761  10.828  10.814 -0.2961  0.0586 -0.1802
  490MOL0     C67543   8.860  10.748  10.727  0.0690 -0.5533 -0.1817
  490MOL0     C67544   8.870  10.807  10.594  0.6439 -0.7213  0.2380
  490MOL0     C67545   8.989  10.745  10.526  0.4694  0.0329  0.7671
  490MOL0     C67546   8.963  10.602  10.502  0.3230 -0.1620 -0.4829
  490MOL0     C67547   8.927  10.480  10.495 -0.4752  0.1056 -0.1623
  490MOL0     C67548   8.466  10.946  10.837  0.2297 -0.7933 -0.1603
  490MOL0     C67549   8.378  11.010  10.925 -0.2792 -0.0512  0.0954
  490MOL0     C67550   8.332  11.145  10.876 -0.1243  0.0480  0.1990
  490MOL0     H67551   8.260  10.958  11.515 -0.0406 -1.8559  0.2262
  490MOL0     H67552   8.091  11.061  11.671  1.7117 -1.2030 -0.5103
  490MOL0     H67553   7.664  11.007  11.555 -2.5299  0.2575  0.4177
  490MOL0     H67554   7.661  11.181  11.505  1.9522 -0.3046 -1.2357
  490MOL0     H67555   7.668  11.244  11.734 -1.8505 -0.0476 -0.9012
  490MOL0     H67556   7.527  11.164  11.676 -0.5454 -0.0344  1.5694
  490MOL0     H67557   7.617  10.940  11.796 -1.0329  0.2257  0.9835
  490MOL0     H67558   7.751  11.027  11.846 -0.0205  0.4135 -2.8398
  490MOL0     H67559   7.644  11.141  12.018 -2.1036  0.5202  3.0182
  490MOL0     H67560   7.487  11.141  11.940 -0.1590 -2.6945 -2.7470
  490MOL0     H67561   7.608  10.870  12.030  0.6040  0.3194  2.4245
  490MOL0     H67562   7.448  10.921  11.997  0.9891 -0.3086 -0.1935
  490MOL0     H67563   7.612  11.025  12.229 -0.6211 -1.3735  1.6180
  490MOL0     H67564   7.438  11.059  12.205 -2.0189 -1.8999  1.2791
  490MOL0     H67565   7.508  10.881  12.368  0.7186  2.1784 -0.2078
  490MOL0     H67566   7.570  10.790  12.232 -0.1735  0.3574 -2.1198
  490MOL0     H67567   7.340  10.740  12.152 -2.2034  3.6574 -1.8470
  490MOL0     H67568   7.338  10.725  12.337 -0.9217 -1.0619 -0.9252
  490MOL0     H67569   7.254  10.941  12.474  1.5873  2.0668  0.2843
  490MOL0     H67570   7.132  11.271  12.381 -1.4383  0.2489  0.1427
  490MOL0     H67571   7.173  11.169  12.511  0.1115 -1.0954 -0.0386
  490MOL0     H67572   6.928  11.243  12.521  1.6569 -0.0522  0.7600
  490MOL0     H67573   6.897  11.154  12.371  0.1206  0.9135  0.6317
  490MOL0     H67574   6.866  10.971  12.450  1.2958 -1.7470 -1.5191
  490MOL0     H67575   7.011  10.965  12.561  1.3845  0.7690 -0.5267
  490MOL0     H67576   6.748  11.100  12.623  0.7572  3.6364 -0.5582
  490MOL0     H67577   6.820  10.965  12.712 -3.5819  1.0933 -0.4423
  490MOL0     H67578   6.991  11.331  12.898  0.3435 -0.4449 -0.1840
  490MOL0     H67579   7.023  11.343  13.262 -2.6124 -0.6738  0.6146
  490MOL0     H67580   6.928  11.462  13.220  1.1893 -1.8989  2.7375
  490MOL0     H67581   7.051  11.433  13.101 -0.7589  1.9423 -0.2809
  490MOL0     H67582   6.646  10.900  13.457  2.5431  0.8203 -1.6034
  490MOL0     H67583   6.584  10.892  13.717 -0.6916  0.4222  0.6184
  490MOL0     H67584   6.420  10.977  13.867 -1.2775  0.4213  0.8560
  490MOL0     H67585   6.580  10.945  13.938  1.0291  1.8262  1.3022
  490MOL0     H67586   6.480  11.144  14.103  3.0395 -0.6577 -0.1065
  490MOL0     H67587   6.329  11.071  14.035  0.4619  1.5637  0.5770
  490MOL0     H67588   6.411  10.972  14.266 -0.0537  0.0658 -0.2323
  490MOL0     H67589   6.559  10.929  14.186 -0.1742 -0.4857 -0.0605
  490MOL0     H67590   6.450  10.756  14.030  1.0649 -0.2874  0.1024
  490MOL0     H67591   6.296  10.810  14.097 -0.5540  1.6654  0.6578
  490MOL0     H67592   6.375  10.737  14.317 -0.6990  1.7389 -0.4927
  490MOL0     H67593   6.377  10.603  14.200 -0.0379 -0.2535 -1.9446
  490MOL0     H67594   6.634  10.734  14.263 -0.8976 -0.7331  0.0178
  490MOL0     H67595   6.620  10.600  14.157 -1.5451  4.7884 -3.7176
  490MOL0     H67596   6.553  10.445  14.346 -1.1246 -0.2058  0.9810
  490MOL0     H67597   6.512  10.579  14.450 -0.9323  1.0252 -0.4427
  490MOL0     H67598   6.770  10.627  14.459 -1.8056  1.5051 -1.4566
  490MOL0     H67599   6.793  10.517  14.328  0.9196  1.7114 -0.2834
  490MOL0     H67600   6.534  11.322  13.695  0.6795  0.4225 -2.7764
  490MOL0     H67601   6.586  11.332  13.482 -0.4594 -0.3358 -1.2157
  490MOL0     H67602   6.652  11.036  13.097  0.1363 -2.6954 -2.5691
  490MOL0     H67603   6.728  10.978  12.886 -1.6312 -1.8808  4.7590
  490MOL0     H67604   7.798  11.040  11.355 -0.6291 -0.2964  1.6336
  490MOL0     H67605   7.957  10.973  11.200 -5.3315  2.5210  2.0163
  490MOL0     H67606   8.407  10.793  11.185  1.5051 -1.5516 -0.5398
  490MOL0     H67607   8.585  10.697  11.017  0.7826  0.0837  4.8378
  490MOL0     H67608   8.748  10.933  10.786 -0.1186  0.2062  0.2894
  490MOL0     H67609   8.814  10.817  10.909  3.4195 -1.3333 -2.2132
  490MOL0     H67610   8.829  10.643  10.715  1.8948 -1.2660  0.9238
  490MOL0     H67611   8.959  10.743  10.774 -0.2796  0.0404  0.6118
  490MOL0     H67612   8.776  10.796  10.539  0.8114  1.0128 -0.4869
  490MOL0     H67613   8.886  10.913  10.618  0.0415 -0.6693  0.4338
  490MOL0     H67614   9.081  10.750  10.584  2.6901  2.5003 -2.5984
  490MOL0     H67615   9.013  10.793  10.431  1.0539 -1.4504  0.1390
  490MOL0     H67616   8.904  10.376  10.497  0.3367 -0.0763 -0.0104
  490MOL0     H67617   8.486  10.975  10.735 -3.1667 -1.8417 -1.2611
  490MOL0     H67618   8.361  11.164  10.773  1.8625  1.4030  0.9396
  490MOL0     H67619   8.225  11.136  10.857  0.0936 -0.7182 -0.7380
  490MOL0     H67620   8.364  11.235  10.930 -1.1630  0.2351  0.5240
  491MOL0     O67621  10.643   6.728   6.247  1.2517  0.1093 -0.0112
  491MOL0     C67622  10.753   6.683   6.279  0.4960  0.4428 -0.5184
  491MOL0     O67623  10.769   6.590   6.379 -0.1168 -0.0289 -0.1435
  491MOL0     C67624  10.662   6.508   6.402  0.8684 -0.2462  0.2567
  491MOL0     C67625  10.595   6.442   6.299 -0.0767  0.1057 -0.5119
  491MOL0     C67626  10.491   6.341   6.335 -0.1532  0.1236 -0.1520
  491MOL0     C67627  10.456   6.325   6.472  0.1625 -0.3281  0.1972
  491MOL0     O67628  10.366   6.231   6.517 -0.0818  1.1036 -0.6121
  491MOL0     C67629  10.236   6.267   6.556  0.3498 -0.4269  0.0324
  491MOL0     C67630  10.151   6.285   6.432  0.6977 -0.2234 -0.4114
  491MOL0     C67631  10.001   6.267   6.462 -0.2982  0.2300 -0.1749
  491MOL0     C67632   9.951   6.388   6.527  0.2411 -0.1132  0.4655
  491MOL0     C67633   9.797   6.396   6.579  0.4455  0.0246  1.4195
  491MOL0     C67634   9.749   6.531   6.625  0.3284 -0.3075  0.5254
  491MOL0     C67635   9.606   6.536   6.665 -0.5277  0.2337  0.2598
  491MOL0     C67636   9.569   6.678   6.723  0.4237  0.1259 -0.2073
  491MOL0     N67637   9.425   6.685   6.747  0.1483 -0.0713 -0.2275
  491MOL0     C67638   9.327   6.675   6.644 -0.2943  0.8434  0.0848
  491MOL0     C67639   9.205   6.687   6.705 -0.1194  0.6756 -0.0675
  491MOL0     C67640   9.070   6.698   6.635 -0.3176 -0.0267 -0.5398
  491MOL0     C67641   9.013   6.843   6.622 -0.2704 -0.8668 -0.0437
  491MOL0     C67642   9.092   6.918   6.508 -0.0730  0.7124  0.7068
  491MOL0     C67643   9.020   7.037   6.462 -0.2741 -0.9386  0.6497
  491MOL0     O67644   9.102   7.119   6.370  0.6309 -0.3977 -0.4054
  491MOL0     C67645   9.206   7.186   6.425 -1.2102 -0.5016  0.5486
  491MOL0     C67646   9.294   7.232   6.329 -0.5454 -0.4385  0.0536
  491MOL0     C67647   9.420   7.296   6.347  0.2117  0.2533 -0.2359
  491MOL0     C67648   9.487   7.347   6.223  0.4360  0.2004 -1.0871
  491MOL0     C67649   9.462   7.317   6.482 -0.2432 -0.0396 -0.0648
  491MOL0     C67650   9.576   7.411   6.523 -0.3758  0.0336  0.3332
  491MOL0     O67651   9.582   7.427   6.652 -0.1116  0.3534 -0.5586
  491MOL0     C67652   9.671   7.522   6.708  0.7339  0.0719 -0.2587
  491MOL0     C67653   9.756   7.487   6.816 -0.3011  0.6272 -0.4314
  491MOL0     C67654   9.854   7.581   6.866 -0.2199 -0.0822  0.1569
  491MOL0     C67655   9.840   7.715   6.822 -0.0965 -1.3335 -0.3537
  491MOL0     O67656   9.929   7.807   6.877  0.1792 -0.0575  0.5458
  491MOL0     C67657  10.069   7.781   6.860  0.2210 -0.4212  0.4265
  491MOL0     C67658  10.163   7.909   6.843 -0.5152  0.6508 -0.1530
  491MOL0     C67659  10.120   8.002   6.734 -0.2235  0.7181 -0.3721
  491MOL0     C67660  10.226   8.112   6.717 -0.7083  0.5931  0.8744
  491MOL0     C67661  10.187   8.209   6.608 -0.5420  0.4553 -0.0501
  491MOL0     C67662  10.066   8.301   6.641 -0.3011 -0.2494  0.0673
  491MOL0     C67663  10.031   8.393   6.524  0.1790  0.2662 -0.6847
  491MOL0     C67664   9.887   8.409   6.483  0.2179 -0.6737  0.3896
  491MOL0    Cl67665   9.783   8.480   6.611  0.4170  0.3720  0.3282
  491MOL0     C67666   9.752   7.751   6.721  0.7176 -1.0346 -0.0032
  491MOL0     C67667   9.669   7.658   6.669 -0.0046  0.9135 -0.7259
  491MOL0     O67668   9.631   7.489   6.446  0.0062  0.3459 -0.3610
  491MOL0     C67669   9.387   7.253   6.579  1.2353 -0.8043  0.0433
  491MOL0     C67670   9.260   7.195   6.554  0.5384  0.5128 -0.4992
  491MOL0     N67671   9.227   6.722   6.840 -0.0644 -0.3181 -0.3520
  491MOL0     N67672   9.359   6.715   6.860 -0.6195 -0.4984 -0.2411
  491MOL0     C67673  10.514   6.404   6.568  0.3302 -0.2750 -0.1269
  491MOL0     C67674  10.614   6.488   6.536  0.1336 -0.1203  1.2205
  491MOL0     C67675  10.864   6.747   6.215  0.3884  0.8885  1.7150
  491MOL0     C67676  10.974   6.772   6.293  0.1979 -1.3685  0.9944
  491MOL0     C67677  11.084   6.839   6.233  0.3855  0.0445  0.1789
  491MOL0     C67678  11.086   6.873   6.099  1.5442  0.0879  0.5958
  491MOL0     O67679  11.192   6.923   6.037 -0.6050 -0.4619  0.8604
  491MOL0     C67680  11.309   6.951   6.108  0.9698  0.0882 -0.0788
  491MOL0     C67681  11.408   6.981   5.985 -0.0791 -0.0430  0.0981
  491MOL0     C67682  11.553   6.978   6.030 -0.1154 -0.5842 -0.5628
  491MOL0     C67683  11.641   7.005   5.909 -0.0611 -0.2527  0.3708
  491MOL0     C67684  11.621   6.918   5.791  0.8591 -0.4729 -0.4933
  491MOL0     C67685  11.614   6.828   5.705 -0.8426 -0.6088 -0.3203
  491MOL0     C67686  10.981   6.835   6.015  0.8518  0.0440  0.0695
  491MOL0     C67687  10.869   6.775   6.068  0.2127 -0.0245  1.0066
  491MOL0     C67688  10.770   6.739   5.966 -0.0614 -0.5739  0.3296
  491MOL0     H67689  10.632   6.458   6.199 -1.4102  0.9246 -0.8909
  491MOL0     H67690  10.446   6.268   6.269  0.3919  0.0286 -0.4166
  491MOL0     H67691  10.237   6.363   6.609  1.8516 -0.8614  0.8390
  491MOL0     H67692  10.190   6.202   6.631 -0.4197  1.9238  1.7394
  491MOL0     H67693  10.174   6.377   6.377  0.0835  0.4504  0.4315
  491MOL0     H67694  10.168   6.208   6.356 -0.5923  0.1471 -1.0980
  491MOL0     H67695   9.945   6.268   6.368 -1.8101 -1.1594  0.6667
  491MOL0     H67696   9.977   6.177   6.518 -0.8346 -0.4603 -1.4618
  491MOL0     H67697  10.008   6.406   6.618 -0.6875  0.1090  1.0245
  491MOL0     H67698   9.970   6.471   6.459 -0.6425  0.6634  1.1265
  491MOL0     H67699   9.770   6.322   6.655 -2.0542 -1.0038 -0.3280
  491MOL0     H67700   9.734   6.363   6.496  0.9016  2.5558 -0.0248
  491MOL0     H67701   9.811   6.555   6.712  4.1859 -0.5325 -1.9729
  491MOL0     H67702   9.770   6.609   6.552  0.2045  0.8947  1.7223
  491MOL0     H67703   9.594   6.461   6.743  1.5589 -0.9396 -0.4777
  491MOL0     H67704   9.544   6.527   6.575 -1.2881  3.7363  0.2583
  491MOL0     H67705   9.627   6.705   6.812 -0.0838 -1.9525  0.8167
  491MOL0     H67706   9.590   6.750   6.644 -1.4810  1.8511  0.7657
  491MOL0     H67707   9.351   6.682   6.538 -2.1854 -1.3112 -0.5667
  491MOL0     H67708   8.997   6.642   6.693  0.8585  0.4097  1.4611
  491MOL0     H67709   9.065   6.657   6.534 -3.5802 -0.4450 -0.3027
  491MOL0     H67710   8.909   6.842   6.588 -0.2440 -1.5862 -0.1218
  491MOL0     H67711   9.009   6.905   6.712 -1.4083  1.2053 -1.4374
  491MOL0     H67712   9.189   6.940   6.553  2.0250 -4.2404 -0.7051
  491MOL0     H67713   9.125   6.857   6.424  2.0268 -0.1076  2.0402
  491MOL0     H67714   8.924   7.014   6.415  1.6689 -0.6924 -3.9367
  491MOL0     H67715   8.990   7.096   6.549 -0.9184 -2.4997  1.5468
  491MOL0     H67716   9.271   7.217   6.224 -1.6909  3.5123 -0.4402
  491MOL0     H67717   9.454   7.285   6.139  0.8606  0.1147 -1.1934
  491MOL0     H67718   9.595   7.328   6.229  0.3424 -1.3768 -3.2564
  491MOL0     H67719   9.457   7.450   6.200  1.9834  0.8313 -0.4545
  491MOL0     H67720   9.785   7.388   6.847  3.3646  0.8221 -2.6829
  491MOL0     H67721   9.917   7.549   6.949 -2.2128 -0.9755  1.4193
  491MOL0     H67722  10.101   7.749   6.960 -1.9768  0.5725  1.5261
  491MOL0     H67723  10.094   7.706   6.785  1.2851 -0.4489  0.7938
  491MOL0     H67724  10.159   7.962   6.938 -3.0794 -0.5092  0.4653
  491MOL0     H67725  10.264   7.868   6.830 -1.2871 -1.2712 -0.4856
  491MOL0     H67726  10.023   8.038   6.770 -1.9310 -2.6064 -1.2335
  491MOL0     H67727  10.096   7.944   6.645 -0.4280 -1.7720  1.2073
  491MOL0     H67728  10.318   8.067   6.679 -0.0075  1.3941  1.5815
  491MOL0     H67729  10.252   8.152   6.815  3.0705 -0.5079  0.5045
  491MOL0     H67730  10.273   8.271   6.585  0.3602 -0.7511 -0.0250
  491MOL0     H67731  10.166   8.151   6.518  0.5038 -0.1991  0.1157
  491MOL0     H67732  10.098   8.367   6.722 -0.1948  2.6795 -2.2131
  491MOL0     H67733   9.974   8.246   6.662 -1.6730  0.5030 -3.3734
  491MOL0     H67734  10.074   8.344   6.437 -0.3080 -2.2910  0.4005
  491MOL0     H67735  10.082   8.489   6.532  1.5551 -0.5050  0.2885
  491MOL0     H67736   9.849   8.308   6.473 -1.2098 -0.1948  0.7743
  491MOL0     H67737   9.876   8.459   6.386  1.2276 -0.3842  0.4129
  491MOL0     H67738   9.751   7.852   6.680 -0.6115 -0.5194  1.2410
  491MOL0     H67739   9.602   7.690   6.590 -1.0241 -2.1939 -1.2632
  491MOL0     H67740   9.403   7.262   6.686  0.2864 -0.0682  0.1286
  491MOL0     H67741   9.207   7.150   6.638  0.3158  2.8637  0.6985
  491MOL0     H67742  10.474   6.412   6.668 -1.3381  1.7026 -0.8659
  491MOL0     H67743  10.662   6.535   6.621  0.6163 -0.5050  1.1642
  491MOL0     H67744  10.971   6.754   6.400 -0.8861  2.7830  1.7998
  491MOL0     H67745  11.173   6.861   6.291 -0.3030  0.4927  1.0978
  491MOL0     H67746  11.297   7.033   6.180  0.9120  0.9598 -1.0643
  491MOL0     H67747  11.349   6.857   6.149  1.2128  1.6733  3.7552
  491MOL0     H67748  11.389   7.082   5.947 -2.3221  0.1274  1.5244
  491MOL0     H67749  11.392   6.910   5.904  2.9214  1.1163 -1.6687
  491MOL0     H67750  11.573   7.056   6.104 -1.2039  1.0331 -1.8811
  491MOL0     H67751  11.571   6.879   6.071 -1.7107 -1.1436 -1.1227
  491MOL0     H67752  11.745   6.991   5.940  0.1472 -1.1527 -0.6691
  491MOL0     H67753  11.640   7.110   5.879 -1.8271 -0.3960 -0.1413
  491MOL0     H67754  11.612   6.756   5.626  0.8065  0.8067 -1.7303
  491MOL0     H67755  10.992   6.860   5.910  1.4111  2.2565  0.6072
  491MOL0     H67756  10.671   6.732   6.012 -0.2774 -1.5927 -0.2519
  491MOL0     H67757  10.765   6.821   5.895 -0.2012  0.9935  2.0806
  491MOL0     H67758  10.788   6.650   5.904  2.1157  0.2805 -0.3460
  492MOL0     O67759   0.778   8.587   0.665 -0.3736 -0.2066  0.0615
  492MOL0     C67760   0.876   8.663   0.677  0.2262  0.4984 -0.0015
  492MOL0     O67761   0.865   8.795   0.654  0.1560  0.0733  0.3821
  492MOL0     C67762   0.739   8.837   0.619 -0.2402 -0.4876 -0.2704
  492MOL0     C67763   0.704   8.855   0.485 -1.3061 -0.9801 -0.0090
  492MOL0     C67764   0.577   8.886   0.454 -0.4505 -0.4822  0.4845
  492MOL0     C67765   0.480   8.909   0.552  0.0940  0.3438 -0.5487
  492MOL0     O67766   0.349   8.933   0.509 -0.9032 -0.0485  0.2068
  492MOL0     C67767   0.246   8.955   0.612 -0.3245 -0.3841  0.9258
  492MOL0     C67768   0.121   9.004   0.531 -0.1893 -0.9706  0.9964
  492MOL0     C67769   0.136   9.149   0.487  0.2489 -1.4450 -0.1379
  492MOL0     C67770   0.020   9.200   0.401  0.3032 -0.0856  0.2797
  492MOL0     C67771   0.029   9.349   0.366 -0.0156 -0.0310  0.2509
  492MOL0     C67772   0.153   9.386   0.284 -0.5432  0.0465  0.1471
  492MOL0     C67773   0.155   9.536   0.245  0.7738 -0.1420 -0.3101
  492MOL0     C67774   0.210   9.634   0.356  0.3065  0.5304  0.0764
  492MOL0     N67775   0.351   9.640   0.376 -0.0494  0.8914  0.0514
  492MOL0     C67776   0.408   9.603   0.498  0.8218  1.3300 -0.0645
  492MOL0     C67777   0.537   9.650   0.497  0.8591 -0.1436  0.2828
  492MOL0     C67778   0.638   9.635   0.605  0.1955 -0.8638 -0.5351
  492MOL0     C67779   0.758   9.725   0.582 -0.3516 -0.1718 -0.0659
  492MOL0     C67780   0.720   9.872   0.592 -0.5420  0.3146 -0.1755
  492MOL0     C67781   0.849   9.939   0.586 -1.1397 -0.3744 -0.1966
  492MOL0     O67782   0.914   9.929   0.716 -0.2738 -0.4372 -0.2952
  492MOL0     C67783   0.897  10.026   0.819  0.5224  0.0945 -0.0033
  492MOL0     C67784   0.795  10.122   0.812  0.2041 -0.1523  0.2007
  492MOL0     C67785   0.767  10.222   0.910  0.3874  0.5922 -0.2469
  492MOL0     C67786   0.657  10.327   0.882  0.4435 -0.9567 -0.1834
  492MOL0     C67787   0.858  10.231   1.016  1.2458  0.1508  0.1246
  492MOL0     C67788   0.852  10.338   1.114  0.3133 -0.3483 -0.6866
  492MOL0     O67789   0.876  10.306   1.239 -0.2857  0.1514  0.7223
  492MOL0     C67790   0.859  10.397   1.339 -0.4260  0.2688 -0.3306
  492MOL0     C67791   0.866  10.332   1.466 -0.5027 -0.4769  0.8911
  492MOL0     C67792   0.850  10.403   1.580  0.0198  0.1431 -0.2520
  492MOL0     C67793   0.821  10.540   1.586  0.8833  0.0224  1.5686
  492MOL0     O67794   0.800  10.583   1.709 -0.7958  0.5044 -0.2683
  492MOL0     C67795   0.673  10.642   1.717  0.7524 -0.5282  0.2490
  492MOL0     C67796   0.688  10.743   1.830 -0.3209 -0.5056 -1.0723
  492MOL0     C67797   0.799  10.847   1.814 -0.4539  0.5858 -0.0271
  492MOL0     C67798   0.790  10.928   1.951 -0.4532  0.0733  0.4753
  492MOL0     C67799   0.874  11.064   1.949 -1.4072  0.9932  0.5722
  492MOL0     C67800   0.824  11.173   1.851 -0.6525  0.1382 -0.7082
  492MOL0     C67801   0.909  11.295   1.872 -0.1265  0.0914 -0.3167
  492MOL0     C67802   0.863  11.418   1.789 -0.4364  0.0512  0.4313
  492MOL0    Cl67803   0.692  11.467   1.806 -0.2549 -0.2218  0.0592
  492MOL0     C67804   0.836  10.610   1.464  0.0990  0.8281 -0.4910
  492MOL0     C67805   0.856  10.538   1.343  0.2306 -0.2808  0.1614
  492MOL0     O67806   0.831  10.447   1.069  0.6668 -0.5130 -0.7627
  492MOL0     C67807   0.960  10.134   1.024 -0.9880 -0.3080  1.7685
  492MOL0     C67808   0.976  10.031   0.934  0.4716 -0.0065  0.7412
  492MOL0     N67809   0.557   9.711   0.367  0.1752 -0.1606 -0.1123
  492MOL0     N67810   0.445   9.707   0.299 -0.0711 -0.4974  0.6818
  492MOL0     C67811   0.520   8.909   0.688  0.7026 -0.4829  0.7254
  492MOL0     C67812   0.651   8.869   0.721  0.2118 -0.7054 -0.1282
  492MOL0     C67813   1.001   8.598   0.725 -0.2771 -0.9144  0.3046
  492MOL0     C67814   1.009   8.461   0.712 -0.1451  0.6498  1.0330
  492MOL0     C67815   1.113   8.380   0.763  0.3251 -0.5469  0.0548
  492MOL0     C67816   1.223   8.444   0.827 -0.3218  0.4242 -0.3254
  492MOL0     O67817   1.335   8.369   0.871  0.1478 -1.0235  0.6147
  492MOL0     C67818   1.360   8.235   0.823 -0.8748 -0.6320 -0.2456
  492MOL0     C67819   1.351   8.126   0.934 -0.1144  0.2668  0.1352
  492MOL0     C67820   1.394   7.987   0.894  1.1746  0.3762 -0.4260
  492MOL0     C67821   1.340   7.884   0.992  0.0511  0.6881  0.0434
  492MOL0     C67822   1.371   7.912   1.132 -0.0141  0.7614  0.1050
  492MOL0     C67823   1.411   7.944   1.245 -0.2419  0.8726  0.0463
  492MOL0     C67824   1.217   8.582   0.835 -0.4169 -0.0742  0.0495
  492MOL0     C67825   1.112   8.662   0.784 -0.5286  0.0253 -0.2556
  492MOL0     C67826   1.128   8.807   0.810  0.5578  0.6863 -0.1069
  492MOL0     H67827   0.782   8.829   0.414  0.6426 -1.2776  2.1201
  492MOL0     H67828   0.541   8.880   0.352 -3.2424  2.3781  1.1767
  492MOL0     H67829   0.281   9.024   0.689  0.7649 -1.3167  1.2909
  492MOL0     H67830   0.236   8.869   0.679 -1.5329  1.3053  3.0703
  492MOL0     H67831   0.101   8.939   0.446 -0.0035  0.8870 -0.5423
  492MOL0     H67832   0.039   8.986   0.602 -0.5674  2.0596  1.4716
  492MOL0     H67833   0.147   9.216   0.573 -0.2696  1.3416 -2.0974
  492MOL0     H67834   0.236   9.153   0.442 -0.4509 -1.6134 -1.7773
  492MOL0     H67835   0.001   9.144   0.309 -1.6997  0.8139  0.0835
  492MOL0     H67836  -0.076   9.184   0.452 -0.1916 -0.3858 -0.7150
  492MOL0     H67837   0.046   9.400   0.461  0.9715  1.7537 -0.8390
  492MOL0     H67838  -0.059   9.400   0.325  3.0911  5.3821 -0.5675
  492MOL0     H67839   0.245   9.371   0.342  0.1826  2.4381 -0.3102
  492MOL0     H67840   0.150   9.321   0.196  2.0944 -2.1043  1.4417
  492MOL0     H67841   0.054   9.571   0.223  0.4865  1.1762  2.5946
  492MOL0     H67842   0.208   9.554   0.152  0.0841 -0.4693 -0.7768
  492MOL0     H67843   0.177   9.732   0.322  1.4006  0.6950 -0.5489
  492MOL0     H67844   0.156   9.620   0.450 -1.9837  3.0021 -0.7738
  492MOL0     H67845   0.353   9.554   0.577  2.2732 -1.6053 -0.7424
  492MOL0     H67846   0.672   9.531   0.605 -0.1680 -1.0060  1.0262
  492MOL0     H67847   0.595   9.661   0.702 -0.4022  0.2793 -1.0759
  492MOL0     H67848   0.832   9.700   0.658 -0.7280  2.8064  1.4459
  492MOL0     H67849   0.803   9.715   0.482  0.0280  3.2653 -0.3922
  492MOL0     H67850   0.662   9.894   0.502 -0.1246  0.5839 -0.3824
  492MOL0     H67851   0.669   9.896   0.686 -1.8103  1.4522 -1.1066
  492MOL0     H67852   0.921   9.906   0.510 -0.7508  3.1389 -1.5612
  492MOL0     H67853   0.839  10.041   0.546 -0.0956 -0.9479 -2.0603
  492MOL0     H67854   0.735  10.130   0.721  1.8280 -0.7947 -0.9831
  492MOL0     H67855   0.582  10.328   0.961  1.2233  0.4926  0.5796
  492MOL0     H67856   0.609  10.300   0.787 -1.0149  0.9552 -0.0582
  492MOL0     H67857   0.704  10.426   0.885 -0.5119 -0.5032  0.0606
  492MOL0     H67858   0.869  10.224   1.456  3.3356 -0.3006 -2.2092
  492MOL0     H67859   0.865  10.337   1.665 -1.2866 -0.0997 -0.1823
  492MOL0     H67860   0.642  10.687   1.623 -0.9174 -0.9090  0.5790
  492MOL0     H67861   0.591  10.581   1.757 -1.7710  3.3387  1.5297
  492MOL0     H67862   0.591  10.792   1.841 -1.2009 -2.1285 -1.2343
  492MOL0     H67863   0.699  10.693   1.927  0.1395  0.1661 -0.7731
  492MOL0     H67864   0.783  10.905   1.723  2.2398  1.9531  0.2604
  492MOL0     H67865   0.891  10.789   1.807 -1.9488 -1.9284  0.1744
  492MOL0     H67866   0.827  10.859   2.028 -1.9701 -0.6731  0.5705
  492MOL0     H67867   0.687  10.949   1.981  0.2330  2.6018  1.3520
  492MOL0     H67868   0.870  11.097   2.053 -0.0215 -2.6719  1.9560
  492MOL0     H67869   0.978  11.036   1.931 -1.4603  1.4343 -0.5093
  492MOL0     H67870   0.720  11.196   1.876 -0.3816  0.4296  0.2030
  492MOL0     H67871   0.831  11.139   1.747 -1.5882 -0.9611 -0.4304
  492MOL0     H67872   1.013  11.271   1.847 -0.2186 -0.2139 -0.4118
  492MOL0     H67873   0.908  11.320   1.978  3.1929  1.5275 -0.5046
  492MOL0     H67874   0.859  11.381   1.686 -3.2694  2.3837 -0.4135
  492MOL0     H67875   0.926  11.504   1.810 -1.1762  0.6075  0.3992
  492MOL0     H67876   0.816  10.716   1.482  0.9658  0.4651  3.5281
  492MOL0     H67877   0.872  10.590   1.249 -0.4095 -1.0213 -0.3678
  492MOL0     H67878   1.030  10.156   1.105  0.5875  3.2678 -0.3235
  492MOL0     H67879   1.050   9.955   0.960  0.6251  0.5064  1.8564
  492MOL0     H67880   0.458   8.937   0.772  1.7328  1.3685  0.9098
  492MOL0     H67881   0.678   8.858   0.826 -0.2704  1.0977  0.2235
  492MOL0     H67882   0.933   8.402   0.663 -0.9451  0.5512  2.3510
  492MOL0     H67883   1.103   8.273   0.749  1.9870 -0.8672  0.9698
  492MOL0     H67884   1.285   8.209   0.747 -1.9375  0.9223  0.2113
  492MOL0     H67885   1.454   8.223   0.768  0.1722  0.0831  1.3195
  492MOL0     H67886   1.248   8.105   0.964 -0.0907  1.5245  1.1975
  492MOL0     H67887   1.406   8.172   1.017 -0.5537 -1.9612  1.7463
  492MOL0     H67888   1.363   7.970   0.791  2.1754  0.1366 -0.6961
  492MOL0     H67889   1.503   7.980   0.894  1.3019  0.6262  2.8669
  492MOL0     H67890   1.383   7.786   0.966 -0.8353  0.8234 -2.1265
  492MOL0     H67891   1.231   7.879   0.984 -0.1832  3.4232  0.6840
  492MOL0     H67892   1.463   7.957   1.338 -1.2004 -0.5088  0.8122
  492MOL0     H67893   1.304   8.616   0.891 -3.0911  0.5118  4.3171
  492MOL0     H67894   1.210   8.828   0.879 -1.9214  2.3195  2.5956
  492MOL0     H67895   1.149   8.859   0.716  1.1852  1.8079  0.6318
  492MOL0     H67896   1.041   8.854   0.856  0.0767 -1.3764  1.1893
  493MOL0     O67897   3.092   9.162   3.644  0.3014  0.5142  0.2555
  493MOL0     C67898   3.076   9.077   3.733 -0.4036  0.0495  0.5788
  493MOL0     O67899   2.978   8.979   3.725 -0.2397 -0.4487 -0.6420
  493MOL0     C67900   2.900   8.974   3.613 -0.3997 -0.4599  0.5592
  493MOL0     C67901   2.869   8.848   3.563  0.3333 -0.2691 -0.7332
  493MOL0     C67902   2.771   8.832   3.471  0.1873 -0.0555  0.1093
  493MOL0     C67903   2.694   8.945   3.430  0.7579  0.4369 -0.1920
  493MOL0     O67904   2.579   8.927   3.360 -0.0357  0.2754 -0.5430
  493MOL0     C67905   2.535   8.790   3.330 -0.4855 -0.6790  0.0086
  493MOL0     C67906   2.418   8.795   3.247  0.6387  0.4272  1.3215
  493MOL0     C67907   2.371   8.650   3.214 -0.1764  0.4468 -0.3184
  493MOL0     C67908   2.237   8.645   3.145 -0.3321 -0.0992 -0.1019
  493MOL0     C67909   2.140   8.537   3.189 -0.4171  0.4941 -1.0345
  493MOL0     C67910   2.092   8.559   3.333 -0.1072 -0.1605 -0.2341
  493MOL0     C67911   1.987   8.461   3.375  0.2655  0.4770  0.2493
  493MOL0     C67912   1.857   8.495   3.314  0.3905  0.2438  0.7436
  493MOL0     N67913   1.809   8.627   3.367  0.1985 -0.4360  0.7732
  493MOL0     C67914   1.818   8.671   3.498  0.5102 -0.8149 -0.4969
  493MOL0     C67915   1.760   8.792   3.488 -0.0335  0.0764 -0.3137
  493MOL0     C67916   1.721   8.892   3.590 -0.3782  0.3868 -0.2836
  493MOL0     C67917   1.847   8.954   3.644 -0.3925  0.2261 -0.3353
  493MOL0     C67918   1.820   9.097   3.713 -0.6714  0.7282  0.3899
  493MOL0     C67919   1.949   9.184   3.722  0.0811 -0.2127 -0.4732
  493MOL0     O67920   1.917   9.322   3.734  0.1322 -0.3244  0.2633
  493MOL0     C67921   2.017   9.410   3.727 -0.0015 -0.3006 -0.0138
  493MOL0     C67922   1.982   9.528   3.658 -0.2077  0.2230  0.1279
  493MOL0     C67923   2.086   9.625   3.636  0.6709  0.1428 -0.9784
  493MOL0     C67924   2.027   9.753   3.579 -1.0245 -0.4158  1.1347
  493MOL0     C67925   2.211   9.609   3.698  1.3586  0.7751 -0.4022
  493MOL0     C67926   2.321   9.716   3.705  0.4116  0.1588 -0.6275
  493MOL0     O67927   2.441   9.676   3.762  0.1736  0.0959  0.4531
  493MOL0     C67928   2.553   9.753   3.755  0.0611  0.6408  0.8597
  493MOL0     C67929   2.589   9.823   3.867 -0.3921 -1.2953  0.4529
  493MOL0     C67930   2.707   9.901   3.880  0.1169 -0.2801 -0.2631
  493MOL0     C67931   2.800   9.888   3.774 -0.1952 -0.5160 -0.4789
  493MOL0     O67932   2.924   9.945   3.796  0.5918  0.0578  0.6110
  493MOL0     C67933   2.996   9.969   3.671  0.0925 -0.9554  0.3399
  493MOL0     C67934   3.097  10.085   3.710 -0.2381 -0.4319  0.3067
  493MOL0     C67935   3.042  10.230   3.682 -0.5453  0.2781 -0.1164
  493MOL0     C67936   3.121  10.333   3.757  0.1988 -0.1927  0.1128
  493MOL0     C67937   3.076  10.478   3.761 -0.0528 -0.9209 -0.4793
  493MOL0     C67938   2.945  10.474   3.847  0.2731 -0.5636 -0.3125
  493MOL0     C67939   2.924  10.619   3.906 -0.5524  0.1917  0.5350
  493MOL0     C67940   2.780  10.641   3.927 -0.1237 -0.2564  0.5783
  493MOL0    Cl67941   2.691  10.520   4.022 -0.1190  0.4203  0.2833
  493MOL0     C67942   2.762   9.820   3.654 -0.8929 -0.5683  0.0442
  493MOL0     C67943   2.633   9.755   3.638 -0.0772  0.2609 -0.6717
  493MOL0     O67944   2.306   9.824   3.658 -0.3161  0.4124  1.1528
  493MOL0     C67945   2.231   9.502   3.780 -0.4496 -1.8264  0.2376
  493MOL0     C67946   2.139   9.406   3.787 -1.0978 -0.1665  0.3836
  493MOL0     N67947   1.742   8.828   3.355 -1.0257  0.2593  0.5596
  493MOL0     N67948   1.787   8.729   3.281  0.1828 -0.3148  0.2350
  493MOL0     C67949   2.725   9.073   3.473  0.5514 -0.0100 -0.3399
  493MOL0     C67950   2.834   9.091   3.560  0.4208  0.4228 -0.0424
  493MOL0     C67951   3.184   9.047   3.820  0.9519 -0.3307 -0.4749
  493MOL0     C67952   3.210   8.920   3.866 -0.9709  0.4578 -0.4737
  493MOL0     C67953   3.302   8.893   3.971  0.1152  0.1824  0.1345
  493MOL0     C67954   3.384   8.990   4.026  0.3020 -0.1527  0.1619
  493MOL0     O67955   3.476   8.968   4.134 -0.1829 -0.3597  0.1167
  493MOL0     C67956   3.547   9.082   4.191  0.2663 -0.8389 -0.0105
  493MOL0     C67957   3.643   9.049   4.308 -0.3632  0.0687 -0.2878
  493MOL0     C67958   3.716   9.174   4.366  1.1299 -0.5857 -0.5227
  493MOL0     C67959   3.616   9.286   4.401 -1.0462  0.6369  0.5765
  493MOL0     C67960   3.670   9.392   4.492  0.0922 -0.5248  0.0998
  493MOL0     C67961   3.696   9.482   4.566 -0.7227 -0.7956 -0.8642
  493MOL0     C67962   3.369   9.111   3.968 -0.2155 -0.8259  0.9869
  493MOL0     C67963   3.271   9.151   3.867  0.9098  0.1597 -0.9720
  493MOL0     C67964   3.254   9.302   3.842 -0.1317  1.0016 -0.1236
  493MOL0     H67965   2.925   8.765   3.605 -2.4349 -1.2719  1.3364
  493MOL0     H67966   2.748   8.733   3.435  0.7128 -0.0787 -0.1836
  493MOL0     H67967   2.519   8.740   3.426  0.6534 -2.0834 -0.5027
  493MOL0     H67968   2.608   8.735   3.270  0.2557  1.3237 -1.0343
  493MOL0     H67969   2.343   8.854   3.299 -0.2319  1.9444 -1.4349
  493MOL0     H67970   2.429   8.845   3.150  2.7196 -2.8133 -0.3275
  493MOL0     H67971   2.457   8.616   3.155 -0.7246 -1.6571  0.0374
  493MOL0     H67972   2.373   8.599   3.310  2.9353  4.5252  2.1296
  493MOL0     H67973   2.188   8.742   3.160  0.3997  0.0567  1.4421
  493MOL0     H67974   2.261   8.632   3.039 -2.7174  0.8969 -0.8530
  493MOL0     H67975   2.195   8.444   3.179  0.0410  0.5344  0.8276
  493MOL0     H67976   2.060   8.530   3.114 -0.8097 -1.6590 -0.4670
  493MOL0     H67977   2.174   8.540   3.403  0.6823 -0.6260 -1.2707
  493MOL0     H67978   2.056   8.660   3.355  1.1733  0.3761 -0.4656
  493MOL0     H67979   1.979   8.455   3.484 -0.1120 -2.0580  0.1366
  493MOL0     H67980   2.012   8.357   3.353  1.0137  0.9551 -1.3040
  493MOL0     H67981   1.852   8.479   3.205  0.8452  1.2934  0.5544
  493MOL0     H67982   1.781   8.426   3.351 -0.9825  0.7265 -1.0366
  493MOL0     H67983   1.847   8.633   3.595  0.8446  2.7072  0.8989
  493MOL0     H67984   1.662   8.851   3.672  1.1543 -3.1007 -0.7739
  493MOL0     H67985   1.660   8.976   3.554 -0.0436  1.6640  1.9279
  493MOL0     H67986   1.883   8.886   3.721  3.4683  2.3300 -0.0681
  493MOL0     H67987   1.923   8.963   3.566 -2.2702 -2.6547 -2.7526
  493MOL0     H67988   1.746   9.154   3.657 -3.4242 -0.1726  2.8335
  493MOL0     H67989   1.782   9.085   3.815 -0.2977 -2.2674  0.2770
  493MOL0     H67990   2.017   9.154   3.803 -0.3053 -2.4113 -0.8854
  493MOL0     H67991   2.007   9.171   3.630  0.3791  0.8283 -0.4393
  493MOL0     H67992   1.886   9.541   3.609  0.0146  0.5697 -0.2186
  493MOL0     H67993   1.943   9.733   3.512 -2.2242  1.3519  2.0376
  493MOL0     H67994   2.107   9.804   3.524 -0.2964  0.1097  2.6197
  493MOL0     H67995   1.997   9.815   3.664 -2.0669 -1.2943  1.4280
  493MOL0     H67996   2.526   9.831   3.955 -0.9913 -0.7805 -0.0169
  493MOL0     H67997   2.732   9.955   3.970  1.2242  2.9478 -2.3342
  493MOL0     H67998   3.052   9.882   3.636  0.3748 -0.1584 -1.3297
  493MOL0     H67999   2.930  10.009   3.593 -0.0411 -0.8438  0.5093
  493MOL0     H68000   3.131  10.081   3.814 -0.7433  0.5924  0.5240
  493MOL0     H68001   3.186  10.078   3.647  0.5937  0.2571  1.3659
  493MOL0     H68002   2.935  10.234   3.703 -0.6366 -0.7413 -0.3070
  493MOL0     H68003   3.047  10.260   3.577 -4.1863  1.1000 -0.1915
  493MOL0     H68004   3.218  10.328   3.707  0.7453  0.4323  1.0702
  493MOL0     H68005   3.131  10.290   3.857  0.5713 -1.4566 -0.4535
  493MOL0     H68006   3.154  10.540   3.806 -0.8334  0.3216 -0.8083
  493MOL0     H68007   3.067  10.516   3.659 -2.6216 -0.9257 -0.3020
  493MOL0     H68008   2.947  10.387   3.913 -3.9640 -2.3478 -2.1607
  493MOL0     H68009   2.864  10.456   3.775 -1.0514  0.0308  0.9767
  493MOL0     H68010   2.950  10.693   3.830  1.6867 -1.1662 -0.1246
  493MOL0     H68011   2.982  10.640   3.997  0.9930 -0.0503 -0.3717
  493MOL0     H68012   2.719  10.654   3.837  1.2956 -0.0945 -0.3841
  493MOL0     H68013   2.763  10.739   3.971 -1.9661  1.5790 -3.6465
  493MOL0     H68014   2.830   9.800   3.572 -0.5786 -4.4283  1.0392
  493MOL0     H68015   2.589   9.707   3.551  0.3640  0.2794 -0.9122
  493MOL0     H68016   2.320   9.501   3.841  2.3616  3.3992 -3.1026
  493MOL0     H68017   2.164   9.322   3.851  3.4485 -0.3236 -1.2628
  493MOL0     H68018   2.666   9.162   3.455 -0.0397 -0.2522  0.3590
  493MOL0     H68019   2.857   9.190   3.598 -0.5194  0.8839 -0.6317
  493MOL0     H68020   3.153   8.835   3.829  1.9198 -0.8664 -2.2221
  493MOL0     H68021   3.309   8.790   4.005  5.7545 -0.5720 -2.2604
  493MOL0     H68022   3.615   9.125   4.117  1.3084  0.1603  1.4767
  493MOL0     H68023   3.474   9.158   4.221  1.5008  0.9755 -1.3777
  493MOL0     H68024   3.714   8.976   4.269  0.7879  1.7632 -1.4755
  493MOL0     H68025   3.600   9.004   4.399  0.8472  1.6096  1.1090
  493MOL0     H68026   3.761   9.140   4.460 -2.4433  2.5110  2.6606
  493MOL0     H68027   3.786   9.214   4.291  0.5393 -0.5909 -1.0789
  493MOL0     H68028   3.535   9.250   4.465  1.0853 -1.0319  2.5083
  493MOL0     H68029   3.567   9.330   4.313 -1.8014 -1.5218 -0.1715
  493MOL0     H68030   3.720   9.567   4.626 -0.5466  0.1135 -2.1805
  493MOL0     H68031   3.418   9.205   3.992  0.1497  0.1850 -2.9205
  493MOL0     H68032   3.341   9.364   3.865  0.5905 -0.7329  2.1452
  493MOL0     H68033   3.226   9.317   3.737  1.6796  2.8301 -0.4113
  493MOL0     H68034   3.171   9.339   3.903 -1.8657  2.2620 -3.0514
  494MOL0     O68035   8.154   0.640   2.893  0.4064  0.2434 -0.3664
  494MOL0     C68036   8.270   0.678   2.879  1.4194  0.0934 -0.4021
  494MOL0     O68037   8.379   0.611   2.913 -0.5722  0.6289 -0.0381
  494MOL0     C68038   8.364   0.475   2.949  1.0454  0.1929  0.1359
  494MOL0     C68039   8.371   0.449   3.085 -1.8754  0.2444 -0.3793
  494MOL0     C68040   8.364   0.311   3.114 -0.2745 -0.4876  0.4079
  494MOL0     C68041   8.338   0.207   3.021 -0.1202  0.0340 -0.6440
  494MOL0     O68042   8.334   0.066   3.056  0.5121  0.2392 -0.8898
  494MOL0     C68043   8.331   0.044   3.202  0.2047 -0.5010 -0.1646
  494MOL0     C68044   8.283  -0.096   3.226  0.6455 -0.2507 -0.5016
  494MOL0     C68045   8.154  -0.108   3.135 -0.1872 -0.4317 -0.3117
  494MOL0     C68046   8.074  -0.238   3.152 -0.0378 -0.2111 -0.4358
  494MOL0     C68047   8.147  -0.352   3.077  0.7567 -1.2163 -0.2073
  494MOL0     C68048   8.080  -0.490   3.097  1.2243 -0.2693 -0.4277
  494MOL0     C68049   8.111  -0.555   3.236 -0.6865  0.2101  0.0842
  494MOL0     C68050   8.253  -0.620   3.241 -0.3938  0.2899  0.5805
  494MOL0     N68051   8.288  -0.684   3.363 -0.2328  0.9919 -0.5475
  494MOL0     C68052   8.294  -0.825   3.383  0.1333  0.4949 -0.0002
  494MOL0     C68053   8.315  -0.834   3.519  0.7011 -0.6324  0.0807
  494MOL0     C68054   8.308  -0.957   3.601 -0.6382 -0.0118 -0.2350
  494MOL0     C68055   8.177  -0.977   3.675  0.3333 -0.0047  0.4991
  494MOL0     C68056   8.165  -0.864   3.775 -0.4797  0.2863  1.6097
  494MOL0     C68057   8.050  -0.895   3.872  0.2229  0.5757 -0.3797
  494MOL0     O68058   7.918  -0.852   3.825 -0.4503  0.0657 -0.3783
  494MOL0     C68059   7.849  -0.745   3.880 -0.1107  0.4194 -0.1678
  494MOL0     C68060   7.902  -0.629   3.938 -0.0898  0.3778  0.4769
  494MOL0     C68061   7.813  -0.533   3.983 -0.5347 -0.0624  0.4088
  494MOL0     C68062   7.880  -0.416   4.060  0.6301 -0.0529 -1.2883
  494MOL0     C68063   7.666  -0.545   3.966  0.5537  0.5336  0.1829
  494MOL0     C68064   7.562  -0.445   4.011 -0.0899 -0.2651  0.8063
  494MOL0     O68065   7.440  -0.489   4.012 -0.1237  0.1458 -0.0195
  494MOL0     C68066   7.333  -0.405   4.018 -0.5717 -0.8506 -0.6317
  494MOL0     C68067   7.295  -0.314   3.920  0.4900 -0.9289  0.1941
  494MOL0     C68068   7.185  -0.237   3.921  0.0831 -0.1572  0.2182
  494MOL0     C68069   7.103  -0.241   4.034 -0.1534  0.3903 -0.1145
  494MOL0     O68070   6.982  -0.175   4.040 -0.1745 -0.1865  0.0338
  494MOL0     C68071   6.951  -0.081   3.944  0.4826 -0.4058  0.1092
  494MOL0     C68072   6.818  -0.009   4.001  0.0442  0.0535  0.1491
  494MOL0     C68073   6.783   0.118   3.929  0.5806 -0.4898 -0.3156
  494MOL0     C68074   6.639   0.178   3.968 -0.6451  0.0255  0.4343
  494MOL0     C68075   6.608   0.320   3.919 -0.0833 -0.5725  0.3649
  494MOL0     C68076   6.480   0.372   3.978 -1.1867 -0.2639  0.7762
  494MOL0     C68077   6.471   0.525   3.951 -0.2256 -0.0379 -0.3790
  494MOL0     C68078   6.336   0.576   3.997  0.5482  0.0252 -0.2422
  494MOL0    Cl68079   6.189   0.518   3.909 -0.1207 -0.0062  0.2433
  494MOL0     C68080   7.133  -0.331   4.138  0.3546 -0.4583  0.5123
  494MOL0     C68081   7.246  -0.410   4.123  0.8939  0.0595 -0.3341
  494MOL0     O68082   7.596  -0.324   4.019 -0.3253  0.0474 -0.6296
  494MOL0     C68083   7.626  -0.653   3.897 -0.2359  1.2060  0.2121
  494MOL0     C68084   7.712  -0.754   3.859  0.0403 -0.2145  0.2005
  494MOL0     N68085   8.338  -0.712   3.575  0.0293  0.5113  0.3524
  494MOL0     N68086   8.314  -0.618   3.482 -0.3192  0.3066  0.0354
  494MOL0     C68087   8.311   0.249   2.894 -0.8099  0.1563  0.4484
  494MOL0     C68088   8.345   0.372   2.849  0.3389 -0.7687 -0.9583
  494MOL0     C68089   8.288   0.809   2.822  0.2445 -0.0791  0.6796
  494MOL0     C68090   8.218   0.918   2.868  0.4907  0.4492  0.6256
  494MOL0     C68091   8.224   1.040   2.800 -0.0867  0.8237 -0.6611
  494MOL0     C68092   8.322   1.060   2.696  0.7075 -0.1369 -0.5650
  494MOL0     O68093   8.312   1.180   2.630  0.3560 -0.0024  0.4817
  494MOL0     C68094   8.399   1.213   2.523 -0.2035  0.2255 -0.0391
  494MOL0     C68095   8.350   1.343   2.452  0.0772 -0.0641 -1.3182
  494MOL0     C68096   8.462   1.410   2.388 -0.2551  0.6484  0.0162
  494MOL0     C68097   8.525   1.332   2.275  0.1693 -1.0206  0.0297
  494MOL0     C68098   8.638   1.414   2.228  0.2128  0.1148 -0.3600
  494MOL0     C68099   8.745   1.444   2.182  0.1813 -0.2267  0.1489
  494MOL0     C68100   8.411   0.961   2.665 -0.4638  0.7116  0.4508
  494MOL0     C68101   8.383   0.834   2.711  0.4996 -0.0933 -0.1246
  494MOL0     C68102   8.458   0.720   2.652 -0.1141 -0.0997  0.0324
  494MOL0     H68103   8.389   0.520   3.165 -2.1909 -1.1674  0.9847
  494MOL0     H68104   8.390   0.304   3.219  1.1868  1.1302  0.1937
  494MOL0     H68105   8.260   0.112   3.250  0.3578 -0.0144 -0.6107
  494MOL0     H68106   8.429   0.062   3.248 -0.9396  2.1507  1.4647
  494MOL0     H68107   8.343  -0.182   3.194 -2.1754 -2.6389  0.1876
  494MOL0     H68108   8.268  -0.106   3.334 -0.5546  0.5220 -0.5818
  494MOL0     H68109   8.085  -0.024   3.149  0.6239  0.3318 -0.8156
  494MOL0     H68110   8.185  -0.115   3.031 -0.1646 -3.7657 -0.2127
  494MOL0     H68111   8.064  -0.247   3.261 -0.7745 -0.2687 -0.5028
  494MOL0     H68112   7.973  -0.218   3.116 -0.3700  0.5944  0.8662
  494MOL0     H68113   8.245  -0.352   3.125 -0.3506 -1.4629  2.2062
  494MOL0     H68114   8.151  -0.322   2.972  0.5806 -0.5413 -0.0282
  494MOL0     H68115   7.971  -0.480   3.103  1.3054 -0.2675  1.9542
  494MOL0     H68116   8.102  -0.564   3.020 -0.4780  0.5868 -1.8228
  494MOL0     H68117   8.037  -0.634   3.249 -0.5640  0.4638  3.0658
  494MOL0     H68118   8.095  -0.490   3.323  0.4492 -0.4261  0.7850
  494MOL0     H68119   8.245  -0.694   3.161  0.3697  1.7353 -0.9044
  494MOL0     H68120   8.335  -0.556   3.205 -0.2787 -0.6848 -0.9647
  494MOL0     H68121   8.280  -0.902   3.307  1.6803  1.2000 -1.0496
  494MOL0     H68122   8.384  -0.947   3.680 -1.4899 -0.4221  0.6663
  494MOL0     H68123   8.345  -1.043   3.544  0.3512  0.9959 -1.1330
  494MOL0     H68124   8.091  -0.983   3.608  0.9386 -1.6368 -0.1873
  494MOL0     H68125   8.186  -1.070   3.733  2.0756  1.4343  2.7349
  494MOL0     H68126   8.259  -0.846   3.826  1.7388 -2.5945 -1.0805
  494MOL0     H68127   8.141  -0.767   3.730  2.8411  0.8190  0.7114
  494MOL0     H68128   8.050  -1.000   3.902  1.0432  0.8280  0.5297
  494MOL0     H68129   8.065  -0.842   3.966 -0.4043  3.5762 -1.8392
  494MOL0     H68130   8.010  -0.621   3.945 -0.0890 -0.7427  3.0248
  494MOL0     H68131   7.850  -0.414   4.166  3.9889  3.4023 -0.1595
  494MOL0     H68132   7.873  -0.321   4.007  0.6893 -0.1003 -1.3787
  494MOL0     H68133   7.987  -0.428   4.077  0.6393  1.6901  0.2681
  494MOL0     H68134   7.353  -0.302   3.829  0.2352  3.1411  0.3476
  494MOL0     H68135   7.177  -0.167   3.839 -2.5267 -2.0466 -1.2910
  494MOL0     H68136   7.017   0.005   3.926 -1.0598  0.2277 -3.4438
  494MOL0     H68137   6.934  -0.129   3.847  5.1684 -4.9136  1.0324
  494MOL0     H68138   6.732  -0.075   3.984 -0.5055  0.0480  2.6821
  494MOL0     H68139   6.819   0.015   4.107  1.0287  0.7702 -0.0132
  494MOL0     H68140   6.790   0.091   3.823  1.4675 -2.9864  0.3070
  494MOL0     H68141   6.863   0.192   3.943  0.1948  1.0425 -4.6288
  494MOL0     H68142   6.634   0.193   4.076 -0.6921  2.5683  0.1390
  494MOL0     H68143   6.561   0.110   3.932 -3.4929  2.0587  2.3179
  494MOL0     H68144   6.685   0.384   3.963  1.1916  1.1299 -3.8850
  494MOL0     H68145   6.624   0.337   3.812  0.1072  0.5915  0.5663
  494MOL0     H68146   6.475   0.358   4.087 -0.8458 -1.5084  0.6396
  494MOL0     H68147   6.395   0.318   3.937  0.1973 -2.1036  0.2159
  494MOL0     H68148   6.484   0.547   3.844  0.6125  4.4194  0.4506
  494MOL0     H68149   6.537   0.587   4.013 -0.5755 -0.1561  0.1046
  494MOL0     H68150   6.334   0.685   3.990 -0.3055 -0.1001 -2.7378
  494MOL0     H68151   6.329   0.542   4.101 -0.2030  1.8713  0.3716
  494MOL0     H68152   7.074  -0.348   4.228  2.1576 -3.2966  1.2797
  494MOL0     H68153   7.270  -0.491   4.192 -0.6604 -2.2418 -2.3101
  494MOL0     H68154   7.522  -0.679   3.882  0.0966 -0.1071  0.1419
  494MOL0     H68155   7.680  -0.841   3.802  0.8947  0.6000 -1.5981
  494MOL0     H68156   8.272   0.190   2.811 -2.2263  0.2507  1.0302
  494MOL0     H68157   8.357   0.397   2.744  1.4527  1.1979 -0.4297
  494MOL0     H68158   8.142   0.921   2.946  0.6095  1.1044  0.7249
  494MOL0     H68159   8.163   1.126   2.829  0.8905  0.8604  1.4208
  494MOL0     H68160   8.499   1.233   2.561  0.0886 -0.2263 -0.5503
  494MOL0     H68161   8.399   1.127   2.455  1.5674  1.1876 -1.3570
  494MOL0     H68162   8.292   1.409   2.517 -0.2888 -2.3047  0.7676
  494MOL0     H68163   8.278   1.332   2.371 -1.4834  3.7016 -0.6727
  494MOL0     H68164   8.422   1.508   2.362  2.7137  1.8045 -0.5365
  494MOL0     H68165   8.535   1.440   2.463 -0.4735  1.4113 -0.0634
  494MOL0     H68166   8.451   1.317   2.196 -1.3301  1.3913  0.8536
  494MOL0     H68167   8.547   1.228   2.297 -1.7393 -1.8977 -1.8263
  494MOL0     H68168   8.836   1.479   2.139  0.0075  0.5348  0.3911
  494MOL0     H68169   8.485   0.975   2.586 -0.4299  0.2507  0.3960
  494MOL0     H68170   8.387   0.637   2.648 -0.6079  0.3845 -2.3241
  494MOL0     H68171   8.502   0.720   2.552 -2.0044 -2.8987 -0.9115
  494MOL0     H68172   8.536   0.702   2.727  0.1792 -2.7496 -0.7877
  495MOL0     O68173   7.391   2.977   5.540  0.5872  0.0202  0.2894
  495MOL0     C68174   7.336   3.077   5.491  1.0955  0.0383  0.0663
  495MOL0     O68175   7.222   3.072   5.431 -0.2638  0.3692  0.5035
  495MOL0     C68176   7.138   2.964   5.456  0.2028 -0.5314 -0.6253
  495MOL0     C68177   7.134   2.860   5.369 -0.4575 -0.9951 -1.1366
  495MOL0     C68178   7.047   2.761   5.382 -0.0141  0.0851  0.3139
  495MOL0     C68179   6.951   2.757   5.482 -0.2793  0.2290  0.2546
  495MOL0     O68180   6.863   2.658   5.501 -0.1390 -0.2661 -0.4468
  495MOL0     C68181   6.827   2.565   5.397 -0.0129 -0.8783  0.5655
  495MOL0     C68182   6.732   2.632   5.303 -0.1132 -0.8960 -0.9471
  495MOL0     C68183   6.656   2.527   5.214  0.4399 -0.1828 -0.1492
  495MOL0     C68184   6.563   2.589   5.111  0.0229  0.2464 -0.0756
  495MOL0     C68185   6.504   2.494   5.000  0.5350 -0.0999  0.1497
  495MOL0     C68186   6.403   2.567   4.897  0.1085  0.5174  0.5225
  495MOL0     C68187   6.438   2.701   4.839 -0.6509  0.5323 -0.4989
  495MOL0     C68188   6.366   2.744   4.711  0.1422 -0.8352 -0.3174
  495MOL0     N68189   6.223   2.766   4.735 -0.2137 -0.0372 -0.2716
  495MOL0     C68190   6.171   2.878   4.801 -0.8648  0.2495 -0.1362
  495MOL0     C68191   6.050   2.839   4.853  0.1450  0.9378 -0.1192
  495MOL0     C68192   5.967   2.928   4.948 -0.9554  0.5449  0.2632
  495MOL0     C68193   5.918   3.049   4.861 -0.4289  0.1895  0.6650
  495MOL0     C68194   5.847   3.151   4.954 -0.3145 -1.2751  0.2413
  495MOL0     C68195   5.767   3.257   4.876  0.2802 -0.0990 -0.9319
  495MOL0     O68196   5.846   3.323   4.775 -0.1242  0.5546 -0.6527
  495MOL0     C68197   5.931   3.419   4.825 -0.4622 -0.1880  0.0955
  495MOL0     C68198   6.004   3.493   4.730 -0.0146  0.6897  0.1502
  495MOL0     C68199   6.077   3.609   4.764 -0.7091  0.6266 -0.1033
  495MOL0     C68200   6.148   3.685   4.649 -0.0777 -0.2324  1.0514
  495MOL0     C68201   6.100   3.647   4.899  0.0660  0.1653 -0.1870
  495MOL0     C68202   6.195   3.747   4.943 -0.1127  0.3123  0.5775
  495MOL0     O68203   6.274   3.718   5.056 -0.3353  0.2188 -0.1768
  495MOL0     C68204   6.309   3.825   5.123 -0.7983 -0.1716  0.2188
  495MOL0     C68205   6.222   3.882   5.208  0.3584 -0.4770 -0.2237
  495MOL0     C68206   6.249   3.987   5.284 -0.4840  0.7564 -0.1795
  495MOL0     C68207   6.385   4.039   5.281  0.2734 -1.0255 -0.5896
  495MOL0     O68208   6.436   4.135   5.365  0.2715 -0.3164  0.3735
  495MOL0     C68209   6.352   4.243   5.413  0.4126  0.0939  0.8708
  495MOL0     C68210   6.436   4.330   5.504  0.2122  0.1704 -0.7335
  495MOL0     C68211   6.565   4.377   5.443 -0.1198  0.0931 -0.7742
  495MOL0     C68212   6.634   4.469   5.545  0.4454  0.2198  0.1288
  495MOL0     C68213   6.732   4.576   5.487  0.1234  1.0829 -0.2755
  495MOL0     C68214   6.772   4.687   5.583 -0.3978  0.3113  0.1622
  495MOL0     C68215   6.873   4.785   5.529 -0.1414 -0.3206 -0.3421
  495MOL0     C68216   7.012   4.735   5.550 -0.2330 -0.2892 -0.4358
  495MOL0    Cl68217   7.130   4.877   5.543 -0.2966 -0.5205 -0.0548
  495MOL0     C68218   6.478   3.991   5.192  0.5971  0.1826  0.4640
  495MOL0     C68219   6.437   3.888   5.112  0.0963  0.8876 -0.9410
  495MOL0     O68220   6.181   3.859   4.894 -0.5161 -0.4320 -0.0858
  495MOL0     C68221   6.056   3.550   4.997 -0.3663 -0.4674 -0.0570
  495MOL0     C68222   5.965   3.453   4.956  0.0848  0.1366 -0.2060
  495MOL0     N68223   6.022   2.714   4.806  0.1001 -0.5207  0.8593
  495MOL0     N68224   6.132   2.668   4.745 -0.0915 -0.5698 -0.8446
  495MOL0     C68225   6.959   2.851   5.587 -0.4432 -0.0499 -0.1555
  495MOL0     C68226   7.049   2.953   5.567 -0.8030 -0.5565 -0.3087
  495MOL0     C68227   7.395   3.211   5.498  0.3877  0.3415 -0.0148
  495MOL0     C68228   7.315   3.318   5.465 -0.1465 -1.2451 -0.2567
  495MOL0     C68229   7.367   3.448   5.461  0.3924  0.9396  0.2935
  495MOL0     C68230   7.505   3.465   5.481  0.1357 -0.5805 -0.5294
  495MOL0     O68231   7.558   3.589   5.486 -0.9005 -0.3076 -1.0632
  495MOL0     C68232   7.556   3.667   5.368 -0.5996  0.7038 -0.9067
  495MOL0     C68233   7.532   3.821   5.378  0.3211  0.3512 -0.3966
  495MOL0     C68234   7.406   3.855   5.453  0.8503  0.8173 -1.2035
  495MOL0     C68235   7.283   3.797   5.370  0.0417 -0.7913 -1.0682
  495MOL0     C68236   7.171   3.769   5.463 -0.3533  0.5598  0.3087
  495MOL0     C68237   7.090   3.732   5.541  0.4442  0.8670  0.1604
  495MOL0     C68238   7.583   3.359   5.518 -0.8304 -0.5511 -0.3740
  495MOL0     C68239   7.529   3.238   5.528  0.0777  0.8645 -0.2471
  495MOL0     C68240   7.625   3.128   5.563  0.4619 -0.4236  0.7111
  495MOL0     H68241   7.195   2.858   5.279 -1.0481  0.2303 -1.5835
  495MOL0     H68242   7.042   2.685   5.304 -0.3540 -2.5416  2.7095
  495MOL0     H68243   6.793   2.470   5.440  1.4857 -1.7190 -0.0554
  495MOL0     H68244   6.913   2.535   5.336  1.2772  1.2672  1.2345
  495MOL0     H68245   6.654   2.682   5.361 -0.3670 -2.1631 -0.1627
  495MOL0     H68246   6.791   2.702   5.244  0.5035  0.5052  1.2357
  495MOL0     H68247   6.731   2.465   5.163  1.4503  0.3887  0.6284
  495MOL0     H68248   6.606   2.458   5.282  0.6622  0.9191  1.1583
  495MOL0     H68249   6.486   2.637   5.173  1.8190 -0.4279  2.9085
  495MOL0     H68250   6.627   2.664   5.062 -0.5297  1.1573  0.5519
  495MOL0     H68251   6.460   2.401   5.039  4.2308 -2.4409 -0.7622
  495MOL0     H68252   6.586   2.455   4.940  1.0838 -0.3066  1.0272
  495MOL0     H68253   6.395   2.501   4.810  0.8144  2.1844 -0.8458
  495MOL0     H68254   6.303   2.569   4.942 -1.0527  1.4883 -1.9240
  495MOL0     H68255   6.546   2.705   4.818 -0.7718  1.5426 -0.9885
  495MOL0     H68256   6.425   2.774   4.919 -2.3034 -0.3147  0.0380
  495MOL0     H68257   6.406   2.831   4.658 -0.0497 -1.0263 -0.7912
  495MOL0     H68258   6.378   2.658   4.644  0.5272 -0.0477 -1.2859
  495MOL0     H68259   6.229   2.965   4.831  1.1693 -1.8839  2.6647
  495MOL0     H68260   6.037   2.953   5.028 -0.1753  0.8560 -0.5032
  495MOL0     H68261   5.886   2.870   4.994 -1.4551  1.8003  0.9984
  495MOL0     H68262   5.998   3.098   4.805 -1.2635  0.8257 -0.0023
  495MOL0     H68263   5.843   3.017   4.788  0.1401  0.5338 -0.0883
  495MOL0     H68264   5.785   3.084   5.014 -1.2848 -1.2455 -0.6987
  495MOL0     H68265   5.932   3.199   5.003 -1.3038  0.0230  0.7505
  495MOL0     H68266   5.674   3.213   4.837 -0.6115 -1.7185  2.6584
  495MOL0     H68267   5.734   3.338   4.941  0.3307  0.3339 -1.4325
  495MOL0     H68268   6.001   3.457   4.627  0.3213  2.1724 -0.4029
  495MOL0     H68269   6.253   3.701   4.676 -0.7980  3.1464  2.4130
  495MOL0     H68270   6.104   3.783   4.627  0.0943 -0.9917 -3.5324
  495MOL0     H68271   6.144   3.619   4.562  0.5844 -1.2359  1.7495
  495MOL0     H68272   6.123   3.837   5.216  0.6419 -1.1273 -0.3860
  495MOL0     H68273   6.178   4.032   5.352 -0.4942 -2.0570  1.8572
  495MOL0     H68274   6.303   4.291   5.329 -0.5520 -0.9564  0.8139
  495MOL0     H68275   6.268   4.207   5.474 -1.9379  2.7936 -0.5222
  495MOL0     H68276   6.373   4.417   5.525 -1.0394 -1.0205  0.7297
  495MOL0     H68277   6.450   4.267   5.593  2.1961 -0.0746 -1.1789
  495MOL0     H68278   6.550   4.433   5.350 -0.1008  0.8819 -0.3152
  495MOL0     H68279   6.619   4.285   5.419 -3.6040 -1.6222 -2.9067
  495MOL0     H68280   6.679   4.420   5.632 -0.2772 -1.3306 -0.3378
  495MOL0     H68281   6.561   4.537   5.591  1.9022  1.5573  0.5932
  495MOL0     H68282   6.820   4.518   5.457 -1.9257 -3.4696  1.5366
  495MOL0     H68283   6.688   4.624   5.399 -0.1460  1.9347  0.3127
  495MOL0     H68284   6.806   4.649   5.680 -3.3496  0.5670  1.3915
  495MOL0     H68285   6.684   4.747   5.608  0.1940  0.2761  2.5600
  495MOL0     H68286   6.845   4.879   5.578  2.4608  0.0902  0.5103
  495MOL0     H68287   6.871   4.802   5.421  1.8393 -1.8480 -0.6686
  495MOL0     H68288   7.047   4.653   5.486  1.9370  0.2312 -0.0023
  495MOL0     H68289   7.022   4.694   5.650  0.3654  0.9421  0.0316
  495MOL0     H68290   6.578   4.033   5.197  1.4251 -1.5253 -0.5903
  495MOL0     H68291   6.510   3.839   5.048  4.4879  2.6296  2.2608
  495MOL0     H68292   6.092   3.549   5.099 -2.3907  1.0043  0.7578
  495MOL0     H68293   5.925   3.395   5.039  2.2815 -0.6941  0.3484
  495MOL0     H68294   6.897   2.854   5.676  2.1801  0.3242  1.7788
  495MOL0     H68295   7.055   3.030   5.644  1.5659 -1.8175  0.8685
  495MOL0     H68296   7.209   3.310   5.443  0.0238 -0.3187 -1.5161
  495MOL0     H68297   7.300   3.534   5.459 -0.5284  0.2304  0.2304
  495MOL0     H68298   7.659   3.651   5.335  0.6160  3.9777  0.8677
  495MOL0     H68299   7.487   3.630   5.292 -1.8354  1.8172 -0.3662
  495MOL0     H68300   7.515   3.872   5.283 -1.6342 -4.5059 -2.9617
  495MOL0     H68301   7.620   3.864   5.429  2.3190 -4.2392  0.5037
  495MOL0     H68302   7.401   3.813   5.554  2.8479  2.0160 -0.5417
  495MOL0     H68303   7.391   3.964   5.458  0.4785  0.7191  1.6311
  495MOL0     H68304   7.297   3.707   5.309  0.7492 -1.8562  0.6017
  495MOL0     H68305   7.248   3.876   5.303 -1.2503  0.1065  0.5667
  495MOL0     H68306   7.009   3.693   5.599  1.6288 -4.1013 -1.0485
  495MOL0     H68307   7.685   3.373   5.550 -1.8082  3.1943  1.6992
  495MOL0     H68308   7.723   3.171   5.588  1.2680 -0.9091 -1.3532
  495MOL0     H68309   7.602   3.059   5.644  0.6456 -2.3452 -0.8070
  495MOL0     H68310   7.641   3.062   5.477  0.3975 -1.4197  1.4448
  496MOL0     O68311   3.702   9.213   7.479 -0.7798 -0.3502  0.4021
  496MOL0     C68312   3.625   9.127   7.423  0.3180 -0.6108 -0.2829
  496MOL0     O68313   3.562   9.156   7.305 -0.7194  0.4822  0.8100
  496MOL0     C68314   3.562   9.284   7.264  0.0303  0.0071 -1.0215
  496MOL0     C68315   3.481   9.374   7.340  0.2250 -0.4163 -0.5487
  496MOL0     C68316   3.481   9.509   7.307 -0.6686 -0.2872  1.1080
  496MOL0     C68317   3.565   9.552   7.205  0.3589 -1.1738  0.1381
  496MOL0     O68318   3.571   9.690   7.174  0.9684 -0.3647  0.6800
  496MOL0     C68319   3.518   9.788   7.263 -0.5442  0.6346 -0.2641
  496MOL0     C68320   3.534   9.924   7.202  0.9103  0.1293  0.4398
  496MOL0     C68321   3.420   9.953   7.102 -1.1451  0.2834  0.7320
  496MOL0     C68322   3.424  10.100   7.047  0.7523  0.6414  0.4019
  496MOL0     C68323   3.303  10.139   6.961 -1.1508  0.9018 -0.4949
  496MOL0     C68324   3.269  10.041   6.846 -0.4493 -0.1207 -0.4062
  496MOL0     C68325   3.156  10.080   6.745  0.8498 -0.0895 -0.2532
  496MOL0     C68326   3.022  10.099   6.802 -1.1381 -0.3043 -0.1205
  496MOL0     N68327   2.938  10.140   6.686 -0.0006  0.1766 -0.5387
  496MOL0     C68328   2.890  10.060   6.582  0.6349 -0.1293 -0.1778
  496MOL0     C68329   2.782  10.122   6.521 -0.3506 -0.5997  0.3174
  496MOL0     C68330   2.720  10.082   6.393 -0.5482  0.1951  0.5815
  496MOL0     C68331   2.811  10.042   6.278 -0.1749 -1.0171  0.2554
  496MOL0     C68332   2.744  10.014   6.139  0.1219  0.5070  0.4494
  496MOL0     C68333   2.710  10.136   6.056  0.5944 -0.7478  1.1333
  496MOL0     O68334   2.673  10.095   5.929 -0.8054  1.3731 -0.9770
  496MOL0     C68335   2.621  10.190   5.845 -0.2305 -0.1919 -0.1100
  496MOL0     C68336   2.610  10.325   5.872 -0.5942 -0.1841  0.6097
  496MOL0     C68337   2.545  10.414   5.780  0.3152 -0.0187  0.7755
  496MOL0     C68338   2.542  10.566   5.814 -0.4899 -0.2271 -1.3772
  496MOL0     C68339   2.495  10.359   5.651 -0.2682  0.0519 -0.2889
  496MOL0     C68340   2.442  10.444   5.539  0.5249  0.3316  0.6630
  496MOL0     O68341   2.407  10.572   5.561  0.9585 -0.5759  0.2093
  496MOL0     C68342   2.314  10.637   5.483 -0.8079  0.2200 -0.6120
  496MOL0     C68343   2.249  10.594   5.364 -0.7886 -0.4628 -0.1578
  496MOL0     C68344   2.160  10.678   5.305  0.1031  0.1737 -0.6712
  496MOL0     C68345   2.126  10.800   5.363  0.4753 -0.3671 -0.0228
  496MOL0     O68346   2.050  10.892   5.299  0.4688 -0.3603 -0.7103
  496MOL0     C68347   1.944  10.859   5.209  0.6946 -0.9103 -0.6974
  496MOL0     C68348   1.863  10.985   5.153  0.1884  0.1767 -0.2821
  496MOL0     C68349   1.754  11.029   5.250 -0.5845 -1.0843  0.2057
  496MOL0     C68350   1.684  11.154   5.199  0.0087  0.3881  0.4139
  496MOL0     C68351   1.541  11.167   5.270 -0.3325 -0.4103 -0.0385
  496MOL0     C68352   1.499  11.317   5.275 -0.2289  0.0190 -0.5326
  496MOL0     C68353   1.491  11.382   5.135 -0.3356 -0.2125 -0.6778
  496MOL0     C68354   1.394  11.319   5.038 -0.8787  0.4316 -0.3713
  496MOL0    Cl68355   1.245  11.290   5.114  0.0814  0.1215  0.1976
  496MOL0     C68356   2.183  10.832   5.480 -0.2269 -0.1628 -0.5648
  496MOL0     C68357   2.277  10.758   5.540 -0.1171  0.7938  0.0470
  496MOL0     O68358   2.407  10.381   5.440 -0.1862  0.2736 -0.5415
  496MOL0     C68359   2.518  10.228   5.619 -0.0979  1.3226 -0.4487
  496MOL0     C68360   2.580  10.148   5.716 -0.9351 -0.2423  0.3200
  496MOL0     N68361   2.778  10.243   6.584 -0.4593 -0.1476 -0.6861
  496MOL0     N68362   2.857  10.248   6.689 -0.2570 -0.0400  0.6031
  496MOL0     C68363   3.640   9.456   7.131  0.2230 -0.3162  0.2812
  496MOL0     C68364   3.633   9.325   7.154 -0.1510 -0.1576  0.1179
  496MOL0     C68365   3.599   8.993   7.479 -0.4468  0.3760 -0.5564
  496MOL0     C68366   3.529   8.902   7.402 -0.9144  0.3835 -0.0960
  496MOL0     C68367   3.514   8.769   7.435  0.7947 -0.4912  0.5678
  496MOL0     C68368   3.560   8.726   7.554 -0.4392 -0.6916 -0.3828
  496MOL0     O68369   3.539   8.590   7.576 -0.6597  0.7670  0.2280
  496MOL0     C68370   3.617   8.515   7.677  0.2565  0.5659  0.4616
  496MOL0     C68371   3.613   8.363   7.648 -0.3301 -0.3624  0.3646
  496MOL0     C68372   3.644   8.279   7.767 -0.0347 -0.7749 -1.0117
  496MOL0     C68373   3.692   8.134   7.730 -0.3841 -0.5514 -0.2495
  496MOL0     C68374   3.586   8.050   7.678  0.3400 -0.3735  0.1537
  496MOL0     C68375   3.505   7.966   7.637  0.2974 -0.5494  0.2180
  496MOL0     C68376   3.636   8.815   7.641 -0.3126 -0.0580  0.3687
  496MOL0     C68377   3.652   8.949   7.604 -0.9780 -0.5624 -0.3400
  496MOL0     C68378   3.717   9.035   7.705  0.0327 -0.1033  0.9786
  496MOL0     H68379   3.418   9.346   7.424 -0.9378  2.8727 -0.1426
  496MOL0     H68380   3.415   9.567   7.371 -1.3251 -0.5884  0.7259
  496MOL0     H68381   3.573   9.783   7.357 -2.1406  0.6188  0.6971
  496MOL0     H68382   3.415   9.769   7.291 -0.4429  0.4371 -0.0264
  496MOL0     H68383   3.515  10.003   7.276 -0.8298  1.4927 -1.3456
  496MOL0     H68384   3.637   9.937   7.168  1.5266 -2.0524  1.2890
  496MOL0     H68385   3.411   9.875   7.026 -3.4127 -0.2298  1.4635
  496MOL0     H68386   3.322   9.941   7.148  0.3852 -5.2680  3.3588
  496MOL0     H68387   3.421  10.165   7.135  0.1483  0.3068  0.6329
  496MOL0     H68388   3.520  10.114   6.996  2.0506 -0.5906  2.3727
  496MOL0     H68389   3.339  10.227   6.908  3.2994 -1.3722 -1.7520
  496MOL0     H68390   3.211  10.161   7.016 -0.0085  3.6785  0.4506
  496MOL0     H68391   3.361  10.025   6.789  2.0219  2.6367  2.4155
  496MOL0     H68392   3.242   9.948   6.897  1.3148 -0.4505 -0.0046
  496MOL0     H68393   3.153  10.007   6.664  0.7138 -0.1161 -0.2253
  496MOL0     H68394   3.180  10.182   6.712 -3.1948  1.7994  1.8654
  496MOL0     H68395   2.986  10.003   6.841  2.6480 -1.5875  0.6295
  496MOL0     H68396   3.028  10.172   6.884  0.2079 -0.5641  0.0299
  496MOL0     H68397   2.921   9.959   6.556  0.1027 -1.4206  3.5769
  496MOL0     H68398   2.644  10.153   6.359 -0.8184  0.2848  1.3691
  496MOL0     H68399   2.663   9.993   6.418 -0.7013  0.5157  1.4106
  496MOL0     H68400   2.893  10.111   6.255 -1.2445 -0.1066 -0.9703
  496MOL0     H68401   2.861   9.946   6.297  0.0308 -1.8280 -3.5609
  496MOL0     H68402   2.819   9.956   6.085 -2.2133 -1.8339 -0.5179
  496MOL0     H68403   2.662   9.943   6.157  2.4071 -2.0655  1.2713
  496MOL0     H68404   2.617  10.183   6.092  0.9246  0.1118  0.8965
  496MOL0     H68405   2.788  10.213   6.058 -0.2784  0.2541 -0.5550
  496MOL0     H68406   2.654  10.368   5.962 -2.0774  0.4960  1.0517
  496MOL0     H68407   2.440  10.606   5.811 -0.6590 -0.5667 -0.6261
  496MOL0     H68408   2.599  10.614   5.735  0.1891  0.2927 -0.5842
  496MOL0     H68409   2.575  10.593   5.915  3.0530  0.9928 -2.7221
  496MOL0     H68410   2.268  10.508   5.300  0.8421  0.4250 -0.9089
  496MOL0     H68411   2.130  10.658   5.203  2.0814 -1.8774 -0.9380
  496MOL0     H68412   1.981  10.805   5.121  0.1259 -1.1828 -0.7713
  496MOL0     H68413   1.873  10.792   5.259 -0.5395  0.6101 -0.3677
  496MOL0     H68414   1.931  11.067   5.126  1.1314 -0.7584 -0.8339
  496MOL0     H68415   1.817  10.955   5.059 -1.1635 -0.4830  0.5587
  496MOL0     H68416   1.799  11.055   5.346 -2.7432 -0.6364  1.1559
  496MOL0     H68417   1.686  10.946   5.269 -1.7938  0.0328  1.0239
  496MOL0     H68418   1.670  11.144   5.091 -0.2440 -0.3740  0.5110
  496MOL0     H68419   1.737  11.248   5.213 -3.2968  2.2754  1.3395
  496MOL0     H68420   1.462  11.115   5.216 -2.1698  2.0445  0.0996
  496MOL0     H68421   1.552  11.143   5.376 -0.6706 -2.7827 -0.4854
  496MOL0     H68422   1.557  11.365   5.354  0.2896 -0.5194 -0.5770
  496MOL0     H68423   1.398  11.320   5.316  0.6892  1.7207  1.8103
  496MOL0     H68424   1.583  11.382   5.075 -0.7692 -3.1896 -1.5193
  496MOL0     H68425   1.463  11.487   5.150 -0.0987 -0.1612 -0.5800
  496MOL0     H68426   1.443  11.226   5.008  1.4126  1.2249  0.7493
  496MOL0     H68427   1.383  11.386   4.952 -1.3493  2.0924  0.9403
  496MOL0     H68428   2.153  10.921   5.535 -0.0805  0.0204 -0.7787
  496MOL0     H68429   2.314  10.785   5.638 -0.0975  1.7148 -0.2054
  496MOL0     H68430   2.472  10.173   5.537 -0.2399 -0.8762  1.0067
  496MOL0     H68431   2.589  10.042   5.699  2.6443 -0.1616  0.8357
  496MOL0     H68432   3.719   9.484   7.062 -0.4266  0.3352 -0.2099
  496MOL0     H68433   3.704   9.260   7.103 -1.9936 -2.8249  0.7006
  496MOL0     H68434   3.487   8.924   7.304  2.0238  0.0537 -1.5543
  496MOL0     H68435   3.464   8.698   7.371  0.9879  0.5376 -0.7593
  496MOL0     H68436   3.721   8.548   7.665 -0.4693  2.9575  0.0903
  496MOL0     H68437   3.581   8.537   7.778  0.9223  1.2408  0.5630
  496MOL0     H68438   3.680   8.339   7.565 -0.6426 -0.1118  0.0431
  496MOL0     H68439   3.514   8.335   7.612  0.4795 -1.6115 -0.9938
  496MOL0     H68440   3.723   8.319   7.830 -0.8696 -0.8867  0.1367
  496MOL0     H68441   3.550   8.283   7.823 -0.5714  1.1879 -1.9279
  496MOL0     H68442   3.734   8.084   7.818  0.4501 -2.2133 -1.5388
  496MOL0     H68443   3.777   8.136   7.662  1.0122  3.2705  1.3576
  496MOL0     H68444   3.449   7.885   7.596 -1.9706 -0.5455  2.9973
  496MOL0     H68445   3.695   8.778   7.723  1.5034  1.3498 -0.2265
  496MOL0     H68446   3.737   8.983   7.799  0.0531 -0.1061  0.9725
  496MOL0     H68447   3.812   9.072   7.666 -1.0545  1.5435 -0.2799
  496MOL0     H68448   3.661   9.128   7.724 -1.2813 -0.3269 -1.3940
  497MOL0     O68449   7.938   8.125   8.354  1.0866 -0.4429  0.3096
  497MOL0     C68450   7.938   8.011   8.405  0.4786  0.1295  0.4094
  497MOL0     O68451   8.030   7.906   8.377 -0.0980  0.3433 -0.2513
  497MOL0     C68452   8.131   7.923   8.288 -0.8159 -0.0970  0.0451
  497MOL0     C68453   8.240   8.011   8.320  0.0962 -0.1990 -0.3140
  497MOL0     C68454   8.343   8.022   8.225 -0.0615  0.9883  0.1260
  497MOL0     C68455   8.334   7.953   8.105  0.2060 -0.0238 -0.8042
  497MOL0     O68456   8.434   7.992   8.014  0.2835  0.8469 -0.3104
  497MOL0     C68457   8.473   7.888   7.923  0.4607 -0.4892 -1.2182
  497MOL0     C68458   8.621   7.902   7.906  0.1022  1.4503 -0.0589
  497MOL0     C68459   8.660   7.779   7.827  1.1304 -0.3184 -0.4796
  497MOL0     C68460   8.799   7.781   7.778 -0.5033  0.0223 -1.0522
  497MOL0     C68461   8.840   7.664   7.685  0.0162  0.8558 -0.2793
  497MOL0     C68462   8.985   7.679   7.628  0.4396 -0.3180 -0.2138
  497MOL0     C68463   9.029   7.548   7.567  0.5332  1.1472 -1.6191
  497MOL0     C68464   9.017   7.540   7.413  0.8541 -0.8000 -0.7549
  497MOL0     N68465   8.882   7.547   7.368  0.7572 -0.9613 -0.8880
  497MOL0     C68466   8.780   7.462   7.416  0.1841 -0.1919  0.2132
  497MOL0     C68467   8.666   7.531   7.380 -0.0986 -0.0252  0.2391
  497MOL0     C68468   8.534   7.488   7.423  0.1635  0.6833  0.1272
  497MOL0     C68469   8.457   7.372   7.338 -0.9156 -0.2843 -0.2611
  497MOL0     C68470   8.424   7.421   7.202  0.5245  0.5420  0.0899
  497MOL0     C68471   8.341   7.319   7.126 -0.6453  0.0258  0.4868
  497MOL0     O68472   8.207   7.327   7.188 -0.0113 -0.4485 -0.1271
  497MOL0     C68473   8.114   7.415   7.130 -0.6118 -1.1229 -0.7052
  497MOL0     C68474   8.074   7.418   6.999 -0.8903  1.0072  0.3272
  497MOL0     C68475   7.990   7.520   6.939  0.3425  0.4669 -0.2854
  497MOL0     C68476   7.973   7.516   6.784 -0.0826  0.6343  0.3943
  497MOL0     C68477   7.928   7.608   7.029  0.4615 -0.2358  0.3787
  497MOL0     C68478   7.837   7.715   6.986  0.1030  0.3162 -0.0901
  497MOL0     O68479   7.703   7.681   6.969 -0.0423  1.1254 -0.0862
  497MOL0     C68480   7.606   7.771   6.922  0.5378  0.4179  0.4528
  497MOL0     C68481   7.644   7.882   6.842  0.8876 -0.0947  0.1035
  497MOL0     C68482   7.547   7.976   6.800 -0.4037  0.6786  0.2399
  497MOL0     C68483   7.413   7.955   6.841 -0.1440  0.0478 -0.8537
  497MOL0     O68484   7.310   8.042   6.798 -0.0492 -0.6788 -0.0015
  497MOL0     C68485   7.333   8.166   6.721 -0.4901 -0.1077  0.0808
  497MOL0     C68486   7.238   8.284   6.755 -0.0989 -0.1524 -0.4780
  497MOL0     C68487   7.187   8.372   6.651 -0.2549  0.0411  0.3849
  497MOL0     C68488   7.063   8.444   6.713 -0.1701 -0.2062  0.3544
  497MOL0     C68489   7.004   8.541   6.609  0.7968 -0.4683  0.3342
  497MOL0     C68490   6.900   8.467   6.530  0.9623 -0.2090  0.6435
  497MOL0     C68491   6.817   8.562   6.437  0.2264 -0.0369  0.1186
  497MOL0     C68492   6.715   8.493   6.347  0.0106 -0.0937 -0.4343
  497MOL0    Cl68493   6.789   8.433   6.194 -0.0876  0.2346 -0.4302
  497MOL0     C68494   7.374   7.838   6.907 -0.0657  0.7374 -0.5361
  497MOL0     C68495   7.471   7.746   6.941 -0.1849  0.5595 -0.0911
  497MOL0     O68496   7.886   7.831   6.977 -0.0829  0.7551  0.2356
  497MOL0     C68497   7.959   7.604   7.163  0.5606 -0.0063 -0.1835
  497MOL0     C68498   8.062   7.515   7.215 -0.0890 -0.1290 -0.9078
  497MOL0     N68499   8.703   7.647   7.317 -0.0242  0.6077 -0.1469
  497MOL0     N68500   8.831   7.657   7.318 -0.4898 -0.2481 -0.2514
  497MOL0     C68501   8.221   7.878   8.077  0.1651  0.3351  0.0214
  497MOL0     C68502   8.117   7.856   8.171 -0.3484  0.0065  0.0881
  497MOL0     C68503   7.834   7.983   8.502  0.5986  0.6044 -0.1527
  497MOL0     C68504   7.718   8.057   8.493 -0.1921  0.0969  1.1997
  497MOL0     C68505   7.611   8.044   8.584  0.5272 -0.6593  0.8430
  497MOL0     C68506   7.605   7.940   8.678  0.5231  0.3076 -0.3371
  497MOL0     O68507   7.505   7.894   8.757  0.4230  1.0654 -0.8108
  497MOL0     C68508   7.369   7.942   8.740 -0.2161  0.2307 -0.6753
  497MOL0     C68509   7.356   8.070   8.818  0.7791 -0.3259 -0.3142
  497MOL0     C68510   7.225   8.144   8.796  0.2079  0.6547 -0.3110
  497MOL0     C68511   7.134   8.126   8.913 -0.5635  0.5993  0.5142
  497MOL0     C68512   7.161   8.210   9.028 -0.2854  0.1650  0.5249
  497MOL0     C68513   7.178   8.291   9.117 -0.0976 -0.4357  0.5794
  497MOL0     C68514   7.723   7.855   8.688 -0.4576  0.3086  0.2736
  497MOL0     C68515   7.834   7.873   8.600 -0.3833 -1.4376 -0.0928
  497MOL0     C68516   7.953   7.787   8.627  0.4239  0.3145 -0.5668
  497MOL0     H68517   8.238   8.048   8.422  0.3397 -1.5032  0.1883
  497MOL0     H68518   8.435   8.078   8.240  0.7909  0.2991 -2.1084
  497MOL0     H68519   8.427   7.901   7.825  2.3750 -2.5199 -2.4705
  497MOL0     H68520   8.440   7.789   7.957 -2.4970 -0.0796 -2.6100
  497MOL0     H68521   8.639   8.000   7.861 -0.2098  1.8897  0.7406
  497MOL0     H68522   8.687   7.904   7.994 -0.0568 -1.7871  0.2848
  497MOL0     H68523   8.639   7.689   7.885  2.8684 -0.7235 -0.4311
  497MOL0     H68524   8.585   7.766   7.748  0.5125  1.2335 -0.1842
  497MOL0     H68525   8.810   7.871   7.717 -4.4107  0.0040 -2.0938
  497MOL0     H68526   8.875   7.784   7.857  0.9945  1.0553 -2.4757
  497MOL0     H68527   8.771   7.654   7.601  2.2672 -4.2131 -1.9058
  497MOL0     H68528   8.831   7.572   7.744 -2.0969  1.3094  0.1982
  497MOL0     H68529   8.998   7.769   7.567  0.9206 -1.6920 -2.2480
  497MOL0     H68530   9.051   7.688   7.715  0.6830  1.8371 -0.5664
  497MOL0     H68531   8.976   7.465   7.615 -0.2121  1.0267 -2.6081
  497MOL0     H68532   9.133   7.534   7.598  0.1148 -4.8648 -1.7526
  497MOL0     H68533   9.077   7.622   7.373 -0.6451  0.1001 -1.2554
  497MOL0     H68534   9.058   7.448   7.372  2.9324  0.2147 -1.0960
  497MOL0     H68535   8.786   7.361   7.455  0.5696 -0.1517  0.2581
  497MOL0     H68536   8.469   7.575   7.424  2.1139  2.2316 -1.1875
  497MOL0     H68537   8.542   7.436   7.520  1.4506 -1.5086 -1.0533
  497MOL0     H68538   8.522   7.285   7.321  2.4652  2.2871 -1.6503
  497MOL0     H68539   8.365   7.345   7.391 -1.3294  1.5817  0.0302
  497MOL0     H68540   8.374   7.518   7.199 -0.9830 -0.2097 -1.8142
  497MOL0     H68541   8.519   7.438   7.150  0.5986 -0.0505  0.0161
  497MOL0     H68542   8.348   7.356   7.024 -0.3430  3.1657  1.5177
  497MOL0     H68543   8.385   7.219   7.136 -2.3942 -0.7877  0.2900
  497MOL0     H68544   8.111   7.340   6.933 -2.9509 -1.1086  1.5250
  497MOL0     H68545   7.866   7.536   6.774 -0.0060  0.6686 -0.4406
  497MOL0     H68546   8.001   7.418   6.742 -0.8319  2.6097 -5.7830
  497MOL0     H68547   8.034   7.587   6.727 -0.5865 -0.2483 -1.3130
  497MOL0     H68548   7.746   7.901   6.810  0.8738 -1.7762 -1.0486
  497MOL0     H68549   7.588   8.051   6.733  4.6187 -2.7622 -1.0975
  497MOL0     H68550   7.431   8.211   6.742 -0.2694 -0.2227 -0.6800
  497MOL0     H68551   7.321   8.126   6.620  1.1970 -2.0740  0.5788
  497MOL0     H68552   7.151   8.235   6.799 -0.4686 -0.7110 -1.8023
  497MOL0     H68553   7.284   8.341   6.837 -1.2024 -1.2076  0.9410
  497MOL0     H68554   7.159   8.318   6.560 -0.1733  0.6416 -0.0049
  497MOL0     H68555   7.263   8.444   6.619 -1.8777  1.5047 -0.2985
  497MOL0     H68556   7.095   8.505   6.799  1.7167 -1.6502  0.7420
  497MOL0     H68557   6.983   8.379   6.749  1.1209 -3.2053 -1.8337
  497MOL0     H68558   6.952   8.620   6.665  0.6762  1.5269 -2.3512
  497MOL0     H68559   7.071   8.590   6.538  0.5832  0.8616  1.0097
  497MOL0     H68560   6.830   8.419   6.600  0.8645 -2.6216 -1.0002
  497MOL0     H68561   6.950   8.392   6.469  0.3038 -0.3133  0.2304
  497MOL0     H68562   6.886   8.623   6.376 -0.6585  0.8178 -0.0484
  497MOL0     H68563   6.761   8.637   6.494 -1.9947 -0.8599 -0.9021
  497MOL0     H68564   6.642   8.572   6.329 -0.8394 -0.6990  0.3031
  497MOL0     H68565   6.675   8.405   6.397 -0.2574 -0.6637 -1.6173
  497MOL0     H68566   7.272   7.808   6.926 -0.9348  1.8390 -3.0067
  497MOL0     H68567   7.444   7.653   6.990  0.4602 -1.6288 -3.5428
  497MOL0     H68568   7.908   7.677   7.225 -0.1960  0.3036 -1.1328
  497MOL0     H68569   8.094   7.526   7.318  0.0782  0.3002 -1.0013
  497MOL0     H68570   8.221   7.820   7.985 -1.7781 -0.4931  0.4805
  497MOL0     H68571   8.034   7.787   8.160  0.5133 -0.8712 -1.1227
  497MOL0     H68572   7.706   8.136   8.420  1.1799  0.5628  1.4603
  497MOL0     H68573   7.527   8.113   8.576  1.6181  0.6421  0.3122
  497MOL0     H68574   7.358   7.969   8.634  2.5180 -1.4601 -1.5001
  497MOL0     H68575   7.295   7.865   8.764 -0.5508  1.0164  0.8669
  497MOL0     H68576   7.430   8.135   8.771  1.5624 -0.9652  0.0111
  497MOL0     H68577   7.378   8.047   8.923 -0.8867 -1.9649 -0.2738
  497MOL0     H68578   7.239   8.252   8.786  1.0034  0.5748 -0.1193
  497MOL0     H68579   7.181   8.110   8.702 -0.4991 -1.0325  0.5896
  497MOL0     H68580   7.113   8.020   8.929 -3.8348  0.9752 -0.4321
  497MOL0     H68581   7.040   8.161   8.870  0.3978 -0.2055 -2.4973
  497MOL0     H68582   7.184   8.365   9.194 -1.3393  0.6917 -0.3508
  497MOL0     H68583   7.727   7.770   8.755 -0.1347 -1.6334 -2.0643
  497MOL0     H68584   7.955   7.710   8.550 -1.4622 -1.8977  1.4464
  497MOL0     H68585   8.045   7.845   8.625  2.0645 -2.1618 -0.9802
  497MOL0     H68586   7.956   7.740   8.726  0.9213  1.8821  0.2110
  498MOL0     O68587   3.927   7.127   3.469 -0.7441 -0.4784 -0.3672
  498MOL0     C68588   3.859   7.211   3.522 -0.1304  0.0054 -0.3094
  498MOL0     O68589   3.906   7.334   3.544 -0.4735  0.0180  0.0656
  498MOL0     C68590   4.030   7.385   3.508  0.5757  0.7566 -0.5499
  498MOL0     C68591   4.123   7.334   3.415  0.2260  0.8704 -0.0991
  498MOL0     C68592   4.233   7.407   3.378 -0.4965  0.2390  0.3290
  498MOL0     C68593   4.260   7.537   3.427 -0.3090  0.0702  1.7217
  498MOL0     O68594   4.336   7.637   3.361  0.1472  0.3799  0.8380
  498MOL0     C68595   4.419   7.596   3.243 -0.2016  0.1756 -0.3304
  498MOL0     C68596   4.515   7.709   3.195 -0.3732 -0.2996  0.3032
  498MOL0     C68597   4.589   7.787   3.305 -0.8788 -0.5304 -0.0587
  498MOL0     C68598   4.676   7.905   3.255  0.9551  0.2613 -0.2769
  498MOL0     C68599   4.691   8.006   3.363  0.2576  0.6249 -0.2603
  498MOL0     C68600   4.768   8.129   3.317 -1.0083 -0.3965 -0.3915
  498MOL0     C68601   4.755   8.256   3.409  0.1005 -0.7457  0.1094
  498MOL0     C68602   4.860   8.364   3.366 -0.3374  0.1613 -0.2987
  498MOL0     N68603   4.996   8.339   3.432 -0.7793 -0.6207 -0.2192
  498MOL0     C68604   5.047   8.400   3.545  0.4502  0.0971  0.5235
  498MOL0     C68605   5.177   8.354   3.550  0.5383  0.4463  0.3754
  498MOL0     C68606   5.275   8.400   3.658 -0.5216  0.3468  0.2528
  498MOL0     C68607   5.332   8.538   3.619  0.5512 -0.6547 -0.1506
  498MOL0     C68608   5.451   8.585   3.703 -0.1125 -0.1311 -0.2010
  498MOL0     C68609   5.439   8.544   3.846 -0.2578 -0.2391  0.4742
  498MOL0     O68610   5.566   8.581   3.900 -0.2416 -0.4053  0.3951
  498MOL0     C68611   5.594   8.595   4.035 -0.0816 -0.0863  0.1128
  498MOL0     C68612   5.725   8.602   4.078 -0.2400  0.2143 -0.3396
  498MOL0     C68613   5.763   8.602   4.218  0.7369 -1.0490 -0.4625
  498MOL0     C68614   5.914   8.613   4.248 -0.4050 -0.0893 -0.0223
  498MOL0     C68615   5.654   8.615   4.316 -0.3584  0.1844  0.4801
  498MOL0     C68616   5.679   8.603   4.459 -0.4979 -0.2417  0.0759
  498MOL0     O68617   5.586   8.667   4.538 -0.4570  0.0788  0.0750
  498MOL0     C68618   5.574   8.635   4.671 -0.7589 -0.1251  0.4299
  498MOL0     C68619   5.506   8.725   4.756  0.4088 -0.1857  0.2563
  498MOL0     C68620   5.469   8.704   4.895  0.1671 -0.2238  0.3228
  498MOL0     C68621   5.503   8.582   4.941  0.1064 -0.6744  0.0057
  498MOL0     O68622   5.478   8.548   5.078  0.0788 -0.6577 -0.0056
  498MOL0     C68623   5.528   8.656   5.170 -0.1030  0.1891 -1.0071
  498MOL0     C68624   5.550   8.584   5.304 -0.3864 -0.5948  0.1549
  498MOL0     C68625   5.433   8.511   5.354 -0.8379 -0.4849 -0.3840
  498MOL0     C68626   5.458   8.475   5.498 -0.2721  0.0025 -1.1233
  498MOL0     C68627   5.554   8.359   5.532  0.2912 -0.3864 -0.3679
  498MOL0     C68628   5.509   8.223   5.477  0.4822  0.2160 -0.8916
  498MOL0     C68629   5.600   8.109   5.536 -0.3103 -0.1234  1.0891
  498MOL0     C68630   5.731   8.083   5.452  0.1802  0.7786  0.5687
  498MOL0    Cl68631   5.809   7.933   5.509  0.2242  0.5036 -0.4616
  498MOL0     C68632   5.577   8.487   4.865 -0.5436  0.4422 -0.1504
  498MOL0     C68633   5.619   8.513   4.728 -0.6493  0.1010 -0.7366
  498MOL0     O68634   5.784   8.542   4.498  0.8453  0.7891  0.3330
  498MOL0     C68635   5.524   8.632   4.262 -0.2552 -0.3556  0.1086
  498MOL0     C68636   5.499   8.627   4.127 -1.0146 -0.7960  0.3250
  498MOL0     N68637   5.201   8.264   3.444  0.5604  0.1418 -0.2350
  498MOL0     N68638   5.091   8.254   3.378 -0.3525 -0.4298  0.2919
  498MOL0     C68639   4.183   7.584   3.529  0.3560  0.1101 -0.1234
  498MOL0     C68640   4.066   7.513   3.560 -0.7924 -0.1789  0.2390
  498MOL0     C68641   3.715   7.176   3.563 -1.2127 -0.7629 -0.2142
  498MOL0     C68642   3.655   7.060   3.505 -0.0247 -1.0659  0.0599
  498MOL0     C68643   3.532   7.012   3.546  0.4972 -0.3819  0.4251
  498MOL0     C68644   3.459   7.084   3.643 -0.0969  0.1845  0.0965
  498MOL0     O68645   3.340   7.036   3.692  0.0187 -0.2522  0.3094
  498MOL0     C68646   3.225   7.111   3.653 -0.8674 -0.2967 -0.3711
  498MOL0     C68647   3.129   7.025   3.570 -0.9727  0.1866  0.1370
  498MOL0     C68648   3.044   6.931   3.667  0.3468  0.1245  0.6995
  498MOL0     C68649   2.917   6.991   3.715  0.2195  0.6952  0.0825
  498MOL0     C68650   2.866   6.922   3.834 -0.1918 -0.8897  0.0869
  498MOL0     C68651   2.834   6.862   3.939 -0.3947 -0.5779 -0.1634
  498MOL0     C68652   3.511   7.202   3.695 -0.1636 -0.2271 -0.8658
  498MOL0     C68653   3.637   7.245   3.661 -0.2191 -0.0415  1.2851
  498MOL0     C68654   3.679   7.374   3.721  0.3347 -0.0794 -0.0438
  498MOL0     H68655   4.110   7.242   3.357  1.1541  1.1949 -0.8507
  498MOL0     H68656   4.285   7.368   3.290 -1.7905  2.5349 -1.5667
  498MOL0     H68657   4.354   7.559   3.163 -2.7612  0.5982  1.4489
  498MOL0     H68658   4.481   7.512   3.277 -2.8466 -1.2368  1.3571
  498MOL0     H68659   4.587   7.667   3.123  0.1284  0.1442  0.5401
  498MOL0     H68660   4.454   7.780   3.138 -0.9175 -2.1726 -1.5846
  498MOL0     H68661   4.525   7.830   3.383 -0.4988  1.7584 -0.9273
  498MOL0     H68662   4.655   7.715   3.355 -0.2800 -1.0413 -1.5311
  498MOL0     H68663   4.768   7.869   3.208 -1.0873 -0.1743 -4.4245
  498MOL0     H68664   4.621   7.947   3.170 -0.0479 -0.1876  0.1294
  498MOL0     H68665   4.738   7.954   3.447 -2.5231 -3.4835 -0.9175
  498MOL0     H68666   4.587   8.028   3.390 -0.0740  2.5545 -2.7792
  498MOL0     H68667   4.870   8.091   3.307  0.1683  1.6250  2.7611
  498MOL0     H68668   4.739   8.160   3.216 -2.8208 -2.6870 -0.6621
  498MOL0     H68669   4.768   8.250   3.517  3.3311  1.7035  0.0108
  498MOL0     H68670   4.654   8.293   3.388 -0.2371 -2.4456 -1.5075
  498MOL0     H68671   4.887   8.372   3.260 -0.2859  1.6279 -0.1882
  498MOL0     H68672   4.808   8.458   3.383 -2.9991 -1.2828  0.1160
  498MOL0     H68673   4.998   8.467   3.615  0.0853  3.6222 -2.8050
  498MOL0     H68674   5.361   8.332   3.655 -1.0508 -0.3295  0.4072
  498MOL0     H68675   5.224   8.403   3.755 -0.0641 -1.3873  0.5878
  498MOL0     H68676   5.360   8.525   3.514  0.5710 -1.9631  0.0071
  498MOL0     H68677   5.255   8.616   3.625 -0.7275 -1.9958  2.4538
  498MOL0     H68678   5.545   8.532   3.686 -0.5386 -1.0163  0.0978
  498MOL0     H68679   5.475   8.689   3.684  2.1787 -1.0999 -3.5528
  498MOL0     H68680   5.349   8.581   3.896 -0.2250  0.8904 -0.2768
  498MOL0     H68681   5.432   8.435   3.856  0.1688 -0.2831  0.3145
  498MOL0     H68682   5.809   8.599   4.010  0.2274  1.9809  0.1198
  498MOL0     H68683   5.948   8.711   4.283 -0.2611 -0.0132 -0.3670
  498MOL0     H68684   5.967   8.604   4.153  1.3785  2.4098  0.6236
  498MOL0     H68685   5.945   8.536   4.319  1.1646 -0.8089 -1.4478
  498MOL0     H68686   5.475   8.825   4.726 -1.1585 -0.6345  0.2979
  498MOL0     H68687   5.404   8.754   4.966 -0.8776 -1.1428  0.0485
  498MOL0     H68688   5.618   8.711   5.142  1.1655  0.0856  2.3593
  498MOL0     H68689   5.451   8.728   5.200  1.6271  1.2909  1.0961
  498MOL0     H68690   5.637   8.518   5.294 -1.8754 -2.5664 -0.5235
  498MOL0     H68691   5.583   8.669   5.365  0.9399 -0.4535 -0.7252
  498MOL0     H68692   5.422   8.424   5.288 -0.1692  1.6810 -3.6071
  498MOL0     H68693   5.338   8.566   5.348 -0.1284  0.6873 -1.2155
  498MOL0     H68694   5.360   8.460   5.545  0.6084 -0.7487  0.5903
  498MOL0     H68695   5.493   8.566   5.548 -3.3754  0.2463  0.8729
  498MOL0     H68696   5.656   8.386   5.503  0.9758  0.7214  2.7007
  498MOL0     H68697   5.569   8.355   5.640 -1.5070  1.1877 -0.0131
  498MOL0     H68698   5.503   8.233   5.368 -1.7913  1.8538 -0.6904
  498MOL0     H68699   5.406   8.210   5.511  0.4823  2.1356 -0.0302
  498MOL0     H68700   5.533   8.022   5.540  0.8036 -1.1340 -1.0542
  498MOL0     H68701   5.640   8.132   5.636  2.8109  3.4836 -0.7367
  498MOL0     H68702   5.799   8.169   5.454 -1.1941  1.9283  0.2091
  498MOL0     H68703   5.710   8.070   5.345 -0.2919  2.9895  0.3423
  498MOL0     H68704   5.604   8.395   4.915 -2.3531  0.3926  0.8526
  498MOL0     H68705   5.675   8.436   4.677 -1.3909 -1.0386  0.1306
  498MOL0     H68706   5.445   8.654   4.333  2.5417 -2.1546  4.2418
  498MOL0     H68707   5.393   8.629   4.104 -0.6721 -0.6878 -1.3309
  498MOL0     H68708   4.212   7.681   3.569  0.0781 -0.9228  2.8099
  498MOL0     H68709   3.993   7.546   3.634 -1.1421  1.7197 -0.8945
  498MOL0     H68710   3.723   7.013   3.435  1.8369  1.5837 -0.0708
  498MOL0     H68711   3.487   6.939   3.478 -0.2207  1.3571 -1.0529
  498MOL0     H68712   3.178   7.143   3.747 -0.9262 -0.6821 -0.2692
  498MOL0     H68713   3.246   7.203   3.598 -4.7961  1.4077  0.5925
  498MOL0     H68714   3.189   6.964   3.503  0.5997 -0.9529  2.4482
  498MOL0     H68715   3.055   7.086   3.518  0.5782  0.2892 -2.0742
  498MOL0     H68716   3.012   6.841   3.614  1.4038 -0.7565  1.4926
  498MOL0     H68717   3.096   6.887   3.753  0.2021  2.8514  2.3006
  498MOL0     H68718   2.841   6.984   3.637  0.3351 -0.7848  0.0715
  498MOL0     H68719   2.922   7.098   3.737 -1.2900  0.7511  0.2376
  498MOL0     H68720   2.790   6.811   4.022 -1.5321 -0.8280 -0.8939
  498MOL0     H68721   3.456   7.252   3.774  0.5791  1.8843 -1.6055
  498MOL0     H68722   3.614   7.405   3.804 -1.4155 -1.1850 -0.9661
  498MOL0     H68723   3.777   7.357   3.766  0.9273 -0.0456 -1.3013
  498MOL0     H68724   3.692   7.444   3.638  2.2701 -2.7525 -2.1519
  499MOL0     O68725   5.965   7.985   7.649 -1.3191 -0.8044 -0.1802
  499MOL0     C68726   6.089   7.971   7.651  0.0950 -0.2068  0.0172
  499MOL0     O68727   6.167   7.924   7.538  0.1408 -0.2034  0.2747
  499MOL0     C68728   6.099   7.860   7.436 -0.4412  1.0341 -0.2860
  499MOL0     C68729   6.166   7.859   7.313  1.0978 -0.5941  0.1128
  499MOL0     C68730   6.109   7.808   7.201 -0.3637  1.1066  0.4744
  499MOL0     C68731   5.979   7.757   7.207  0.3814  0.3711 -0.3293
  499MOL0     O68732   5.909   7.718   7.094 -0.3000  0.0536  0.1253
  499MOL0     C68733   5.782   7.645   7.093 -1.4576  0.4869 -0.3740
  499MOL0     C68734   5.755   7.615   6.945 -0.2157 -0.0459  0.1031
  499MOL0     C68735   5.859   7.516   6.887  0.3744 -0.9228 -0.7397
  499MOL0     C68736   5.858   7.517   6.743  0.1055 -0.5317  0.5805
  499MOL0     C68737   5.931   7.640   6.692 -0.3725 -0.8248  0.6759
  499MOL0     C68738   5.911   7.648   6.536 -0.8351  0.2231 -0.3853
  499MOL0     C68739   5.955   7.782   6.467  0.6478 -0.6305 -0.2946
  499MOL0     C68740   5.965   7.786   6.306 -0.0987  0.6411 -0.7765
  499MOL0     N68741   5.865   7.683   6.252 -0.2031  0.1326  0.5481
  499MOL0     C68742   5.739   7.720   6.215  0.2765 -0.1122 -1.1681
  499MOL0     C68743   5.674   7.610   6.174 -0.4309  0.0295  0.1602
  499MOL0     C68744   5.544   7.614   6.095 -0.4692  0.0814  0.6893
  499MOL0     C68745   5.578   7.589   5.939  0.4904  0.6201 -0.3953
  499MOL0     C68746   5.603   7.729   5.878 -0.0364 -1.0182 -0.7456
  499MOL0     C68747   5.576   7.753   5.729  0.0243  0.4716  0.1091
  499MOL0     O68748   5.652   7.650   5.662  0.1717 -0.1107 -0.8135
  499MOL0     C68749   5.581   7.547   5.600 -0.5956 -0.0877  0.2049
  499MOL0     C68750   5.475   7.555   5.511 -0.8965 -0.3419 -0.4289
  499MOL0     C68751   5.410   7.444   5.458  0.3630  1.4175 -0.1100
  499MOL0     C68752   5.287   7.461   5.370 -0.1321  0.4820 -0.3118
  499MOL0     C68753   5.461   7.318   5.485  0.0322 -0.3614  0.4595
  499MOL0     C68754   5.394   7.194   5.434  0.3724  0.4660 -0.4856
  499MOL0     O68755   5.483   7.090   5.392  0.1861 -0.3577  0.2219
  499MOL0     C68756   5.425   6.977   5.358 -0.5724  0.0783 -0.9112
  499MOL0     C68757   5.371   6.885   5.445 -0.1024 -0.9672 -0.2661
  499MOL0     C68758   5.323   6.759   5.409  0.0773  0.8808  0.5108
  499MOL0     C68759   5.325   6.718   5.274 -0.0267 -0.6581 -0.5342
  499MOL0     O68760   5.288   6.595   5.243 -0.0647  0.1857 -0.6055
  499MOL0     C68761   5.318   6.547   5.111  0.4501  0.3591  0.8339
  499MOL0     C68762   5.374   6.405   5.121 -0.4384 -0.0728  0.4392
  499MOL0     C68763   5.363   6.319   4.999 -0.9114  0.3983 -0.3007
  499MOL0     C68764   5.220   6.270   5.002 -0.1163  0.2687 -0.3767
  499MOL0     C68765   5.189   6.166   4.893  0.0340  0.5707  0.5590
  499MOL0     C68766   5.039   6.104   4.891  0.3284 -0.3062 -0.2673
  499MOL0     C68767   5.041   5.999   4.773  0.4701  0.0839 -0.3680
  499MOL0     C68768   4.916   5.910   4.787 -0.8341 -0.0093  0.5974
  499MOL0    Cl68769   4.863   5.838   4.622  0.5131  0.1699  0.1170
  499MOL0     C68770   5.374   6.812   5.182 -0.7240  1.1910  0.0898
  499MOL0     C68771   5.432   6.934   5.227 -0.0792  0.3017  0.8269
  499MOL0     O68772   5.275   7.179   5.454 -0.1336 -0.7842  0.1886
  499MOL0     C68773   5.570   7.311   5.572  0.9803 -0.0222 -0.7210
  499MOL0     C68774   5.634   7.421   5.627 -0.4425 -0.2704 -0.1436
  499MOL0     N68775   5.765   7.501   6.195 -0.0333 -0.7451  0.0633
  499MOL0     N68776   5.881   7.546   6.235 -0.5953 -0.0626  0.1749
  499MOL0     C68777   5.915   7.746   7.336  0.0789 -0.0028 -0.1771
  499MOL0     C68778   5.977   7.795   7.444  0.1673  0.5019 -0.3229
  499MOL0     C68779   6.174   8.025   7.763  0.7070  0.6092 -0.5087
  499MOL0     C68780   6.315   8.044   7.743 -0.1039 -0.2165 -0.0313
  499MOL0     C68781   6.395   8.095   7.842 -0.0088  1.1887  0.2662
  499MOL0     C68782   6.339   8.126   7.967  0.7559  0.2485 -0.6940
  499MOL0     O68783   6.408   8.187   8.072 -0.4116  0.2946 -0.0116
  499MOL0     C68784   6.518   8.274   8.043 -0.0669 -0.4510 -0.1038
  499MOL0     C68785   6.463   8.417   8.056 -0.3263  0.4981 -1.1356
  499MOL0     C68786   6.446   8.463   8.200  0.1125  0.1817 -0.1686
  499MOL0     C68787   6.342   8.577   8.220 -0.3854 -0.0073 -0.9079
  499MOL0     C68788   6.381   8.706   8.161 -0.7186 -0.0316 -0.2575
  499MOL0     C68789   6.413   8.812   8.121 -0.4212 -0.7169 -0.4518
  499MOL0     C68790   6.201   8.123   7.981 -0.4166  0.6210  0.1448
  499MOL0     C68791   6.119   8.074   7.886 -0.2275  0.8328  0.1402
  499MOL0     C68792   5.976   8.046   7.929  0.3720 -0.0692  0.4422
  499MOL0     H68793   6.265   7.902   7.314  1.4879 -1.4602  0.6883
  499MOL0     H68794   6.164   7.803   7.108  1.3683 -0.8198  1.5191
  499MOL0     H68795   5.709   7.715   7.136 -0.2054  1.8309 -0.3579
  499MOL0     H68796   5.799   7.555   7.153  1.4946  0.1851 -1.4956
  499MOL0     H68797   5.653   7.577   6.936 -0.9931  2.1301 -0.8443
  499MOL0     H68798   5.763   7.710   6.891  0.4964 -1.4885 -2.4844
  499MOL0     H68799   5.958   7.532   6.929  0.8167 -0.0789 -2.0724
  499MOL0     H68800   5.832   7.418   6.928  1.3423 -2.0738 -2.6912
  499MOL0     H68801   5.914   7.431   6.705  0.6690 -0.5714  1.4707
  499MOL0     H68802   5.759   7.505   6.698  1.0543  1.6508 -2.4149
  499MOL0     H68803   6.037   7.632   6.719  0.4720  1.3115 -1.6595
  499MOL0     H68804   5.894   7.736   6.729 -1.1734  0.5335 -3.1676
  499MOL0     H68805   5.950   7.560   6.484 -1.5844 -1.1256  1.2366
  499MOL0     H68806   5.803   7.634   6.524 -0.6280 -4.1485  1.0262
  499MOL0     H68807   6.055   7.800   6.507  0.0767 -2.0406  1.9722
  499MOL0     H68808   5.899   7.864   6.512  3.2998 -0.2983  2.7225
  499MOL0     H68809   5.942   7.883   6.262  2.5421  2.3323  1.2876
  499MOL0     H68810   6.069   7.761   6.281 -0.1074  2.5725 -3.2010
  499MOL0     H68811   5.712   7.824   6.200 -0.4763 -0.5894 -3.6535
  499MOL0     H68812   5.496   7.711   6.110  0.0200  0.2158  1.4153
  499MOL0     H68813   5.475   7.540   6.135 -0.7579  0.8406  1.6480
  499MOL0     H68814   5.666   7.525   5.924 -2.7480 -4.4398 -0.1518
  499MOL0     H68815   5.491   7.539   5.897 -1.2180  2.0252  1.2912
  499MOL0     H68816   5.535   7.801   5.924 -1.1500 -1.6253 -1.3965
  499MOL0     H68817   5.709   7.754   5.876 -0.1108 -0.5485 -3.8025
  499MOL0     H68818   5.473   7.755   5.692  0.9270  3.0952 -2.6339
  499MOL0     H68819   5.617   7.848   5.693 -0.1957  0.0534 -1.3129
  499MOL0     H68820   5.419   7.648   5.512  2.2015  1.6840 -0.2307
  499MOL0     H68821   5.281   7.567   5.340 -1.1541  0.7829  0.8852
  499MOL0     H68822   5.192   7.436   5.419  0.5639 -4.7407 -1.1340
  499MOL0     H68823   5.291   7.406   5.276 -0.4447  1.8141 -1.1387
  499MOL0     H68824   5.385   6.897   5.552  0.3479 -1.8509 -0.2172
  499MOL0     H68825   5.290   6.682   5.479  0.6977  0.6843  0.5905
  499MOL0     H68826   5.224   6.529   5.058  1.3496 -0.1993 -0.6160
  499MOL0     H68827   5.383   6.613   5.053 -0.0534 -0.1731 -0.3790
  499MOL0     H68828   5.478   6.411   5.155  0.0252  2.4486 -1.1614
  499MOL0     H68829   5.328   6.347   5.201  0.7418 -1.8329 -0.1001
  499MOL0     H68830   5.438   6.241   5.009 -3.1558 -1.8576 -0.0167
  499MOL0     H68831   5.380   6.381   4.910  0.3145 -1.7968 -1.6793
  499MOL0     H68832   5.147   6.351   5.004 -0.9117 -0.4214 -0.9059
  499MOL0     H68833   5.210   6.211   5.094  1.4255 -2.5482 -1.8538
  499MOL0     H68834   5.199   6.230   4.805  0.2097 -1.4435 -0.9356
  499MOL0     H68835   5.266   6.089   4.887 -0.0361  0.6353 -2.0458
  499MOL0     H68836   4.962   6.180   4.874  1.5593  0.9891 -0.2718
  499MOL0     H68837   5.018   6.052   4.984  0.1375 -0.1288 -0.2094
  499MOL0     H68838   5.124   5.928   4.783 -0.8920 -1.6166 -0.5896
  499MOL0     H68839   5.048   6.051   4.677  1.2880 -0.5570 -0.6747
  499MOL0     H68840   4.830   5.959   4.834 -1.3124  1.8558 -1.9962
  499MOL0     H68841   4.939   5.829   4.857  1.9536 -2.7923 -3.1281
  499MOL0     H68842   5.359   6.804   5.075 -1.5314 -2.0802  0.3446
  499MOL0     H68843   5.476   6.996   5.149 -1.9565 -1.0835 -1.4704
  499MOL0     H68844   5.608   7.213   5.597  3.6064  0.9859 -0.4896
  499MOL0     H68845   5.716   7.418   5.698 -1.5473  0.7785  1.2354
  499MOL0     H68846   5.824   7.687   7.346  0.9004 -1.6277 -1.7754
  499MOL0     H68847   5.927   7.791   7.540  1.0946 -1.3840  0.1268
  499MOL0     H68848   6.367   8.027   7.650  0.1899 -0.5886  0.1978
  499MOL0     H68849   6.497   8.121   7.814  0.5260 -0.2075  0.8101
  499MOL0     H68850   6.590   8.246   8.121  0.4658  0.8454 -0.1088
  499MOL0     H68851   6.561   8.267   7.942  1.3781 -0.4355  0.4932
  499MOL0     H68852   6.372   8.417   7.995 -0.1229 -0.7844 -1.4719
  499MOL0     H68853   6.535   8.488   8.016  0.8867  0.4807  0.8557
  499MOL0     H68854   6.405   8.375   8.250 -1.7263 -0.1062 -2.0499
  499MOL0     H68855   6.546   8.481   8.240  0.3857 -0.8027 -0.3766
  499MOL0     H68856   6.325   8.592   8.327  0.2349 -1.9509 -0.4960
  499MOL0     H68857   6.246   8.549   8.176 -1.0316 -1.8878  1.4932
  499MOL0     H68858   6.449   8.898   8.068  2.5865  0.5185  3.1307
  499MOL0     H68859   6.153   8.178   8.062  0.4734  1.5677  0.0474
  499MOL0     H68860   5.958   8.044   8.037 -0.5739 -3.5580  0.3431
  499MOL0     H68861   5.909   8.122   7.888 -1.1163 -0.4301  2.1033
  499MOL0     H68862   5.948   7.947   7.891  0.9153  0.4680 -1.4568
  500MOL0     O68863   5.412   5.204   3.652 -0.1325 -0.0658 -0.4956
  500MOL0     C68864   5.301   5.247   3.623  0.4013 -0.0165  0.5771
  500MOL0     O68865   5.194   5.244   3.708  0.3187 -0.0755 -0.2760
  500MOL0     C68866   5.213   5.173   3.824 -0.3337 -0.5183  0.3439
  500MOL0     C68867   5.253   5.241   3.939  0.1211  0.7083 -0.9247
  500MOL0     C68868   5.279   5.159   4.050 -0.3662 -0.0745  0.5158
  500MOL0     C68869   5.283   5.021   4.049 -0.2241  0.0109 -0.2203
  500MOL0     O68870   5.313   4.950   4.167  0.4087  0.0768 -0.2755
  500MOL0     C68871   5.442   4.894   4.168 -0.3363  0.5062  0.1891
  500MOL0     C68872   5.454   4.764   4.243  0.4375  0.5999 -0.8026
  500MOL0     C68873   5.345   4.652   4.202  0.2055 -0.0324 -0.1481
  500MOL0     C68874   5.356   4.517   4.277  0.1177 -0.0833  0.8129
  500MOL0     C68875   5.224   4.470   4.336 -0.5192 -0.6987  1.2202
  500MOL0     C68876   5.123   4.437   4.224  0.0805  0.3276 -0.4919
  500MOL0     C68877   4.993   4.399   4.300 -1.2657 -0.2686 -0.1392
  500MOL0     C68878   4.930   4.515   4.385  0.2293 -0.2494  0.2758
  500MOL0     N68879   4.793   4.543   4.347 -0.1910  0.3573  0.3951
  500MOL0     C68880   4.735   4.610   4.241 -0.3290  0.5113 -0.2247
  500MOL0     C68881   4.610   4.629   4.287 -0.5369 -0.2923  0.1211
  500MOL0     C68882   4.499   4.693   4.213 -0.4026  0.1247  0.2193
  500MOL0     C68883   4.433   4.586   4.130  0.8970  0.0853 -0.0095
  500MOL0     C68884   4.314   4.632   4.047  0.4558  0.0139 -0.2166
  500MOL0     C68885   4.318   4.750   3.941 -0.0100 -0.0697 -0.1028
  500MOL0     O68886   4.410   4.703   3.840 -0.7330 -0.2407 -0.1526
  500MOL0     C68887   4.427   4.787   3.731 -0.5376  0.7573  0.0840
  500MOL0     C68888   4.487   4.734   3.616 -0.0381 -0.3668 -0.2739
  500MOL0     C68889   4.522   4.815   3.511  0.0367  0.1646  0.7405
  500MOL0     C68890   4.566   4.741   3.389  0.7758  0.4311 -0.2538
  500MOL0     C68891   4.484   4.953   3.509  0.1930  0.9730  0.1713
  500MOL0     C68892   4.516   5.035   3.388  0.9899  0.0184 -0.9674
  500MOL0     O68893   4.616   4.997   3.309 -0.1747  0.0786 -0.1703
  500MOL0     C68894   4.645   5.067   3.203 -0.1150 -0.7288  0.1500
  500MOL0     C68895   4.559   5.070   3.098 -0.0465 -0.0563  0.8463
  500MOL0     C68896   4.575   5.165   2.997  0.1184 -1.2516  0.6356
  500MOL0     C68897   4.686   5.251   2.993  0.2207 -0.8107  0.1876
  500MOL0     O68898   4.703   5.336   2.884  0.3083  0.4769 -0.6603
  500MOL0     C68899   4.719   5.476   2.908  0.6036  0.7646  0.5968
  500MOL0     C68900   4.574   5.534   2.905  0.9910  0.0743 -1.1712
  500MOL0     C68901   4.572   5.678   2.953  0.8033  0.7012 -0.1782
  500MOL0     C68902   4.433   5.735   2.947 -0.2560 -0.6842 -0.1274
  500MOL0     C68903   4.438   5.890   2.936 -0.0126  0.5302 -0.2220
  500MOL0     C68904   4.304   5.963   2.912 -0.1722  0.0842  0.0383
  500MOL0     C68905   4.316   6.090   2.841  0.9856 -0.2335 -0.4066
  500MOL0     C68906   4.200   6.179   2.881  0.1410 -0.3888  0.1591
  500MOL0    Cl68907   4.046   6.097   2.851  0.2303  0.1138 -0.0752
  500MOL0     C68908   4.781   5.247   3.093 -0.1287  0.5862 -0.1445
  500MOL0     C68909   4.758   5.150   3.201  0.3801 -0.7182  0.9118
  500MOL0     O68910   4.446   5.133   3.369 -0.4738  0.7617 -0.0201
  500MOL0     C68911   4.411   5.002   3.619  0.3445 -0.1835 -0.3678
  500MOL0     C68912   4.385   4.922   3.726  0.0705 -1.1499  0.3833
  500MOL0     N68913   4.588   4.568   4.407  1.0608  1.0613  0.2589
  500MOL0     N68914   4.698   4.498   4.434  1.2324 -0.5384 -0.4907
  500MOL0     C68915   5.258   4.951   3.930 -1.0902 -0.4064 -0.8698
  500MOL0     C68916   5.223   5.027   3.819  0.5114 -0.0291 -1.2958
  500MOL0     C68917   5.260   5.292   3.492 -0.2333  0.9203  0.3887
  500MOL0     C68918   5.167   5.399   3.473  0.4139  0.3842 -0.0271
  500MOL0     C68919   5.132   5.431   3.348  0.3060 -0.6326  0.2847
  500MOL0     C68920   5.178   5.367   3.231  0.0275  1.0154 -0.7375
  500MOL0     O68921   5.115   5.407   3.112  0.3742 -0.0522 -0.1863
  500MOL0     C68922   5.146   5.347   2.989 -0.3015  0.0160 -0.0149
  500MOL0     C68923   5.246   5.424   2.917 -0.5772 -0.0346  0.2024
  500MOL0     C68924   5.201   5.570   2.900  0.0053 -0.9595 -0.4224
  500MOL0     C68925   5.309   5.666   2.851 -0.4920  1.0080  0.2302
  500MOL0     C68926   5.329   5.663   2.708  0.8008 -0.1255 -0.0885
  500MOL0     C68927   5.352   5.664   2.588  0.1449  0.1710 -0.1747
  500MOL0     C68928   5.274   5.272   3.239 -0.1414 -0.5290  0.0770
  500MOL0     C68929   5.314   5.231   3.374  0.2503  0.0262  0.4523
  500MOL0     C68930   5.419   5.116   3.381  0.2065 -0.5990 -0.1522
  500MOL0     H68931   5.246   5.349   3.944 -1.6481  0.6545 -1.4130
  500MOL0     H68932   5.305   5.213   4.141 -1.1858  2.5450 -0.6909
  500MOL0     H68933   5.513   4.964   4.212  0.4312 -1.9840  3.2480
  500MOL0     H68934   5.479   4.874   4.067  0.9168  1.6042  0.4043
  500MOL0     H68935   5.550   4.721   4.213 -1.2225 -2.0724 -2.6923
  500MOL0     H68936   5.448   4.782   4.351 -0.8248 -0.3759 -0.6790
  500MOL0     H68937   5.246   4.693   4.224  0.0467 -0.2720 -0.4016
  500MOL0     H68938   5.352   4.623   4.096  0.6032 -1.5149  0.2632
  500MOL0     H68939   5.400   4.432   4.223  0.9743  1.5761 -1.2406
  500MOL0     H68940   5.433   4.529   4.354  2.9560 -4.1712 -1.0132
  500MOL0     H68941   5.187   4.551   4.398 -0.8827  3.1362 -3.4478
  500MOL0     H68942   5.244   4.373   4.383  1.6584 -2.1323 -2.2510
  500MOL0     H68943   5.106   4.515   4.149  0.9693  0.4927 -0.5410
  500MOL0     H68944   5.159   4.357   4.158  0.8537  0.3042 -0.0624
  500MOL0     H68945   5.021   4.319   4.369 -2.7219 -0.3488  0.4004
  500MOL0     H68946   4.907   4.359   4.246 -2.1461  0.3392  0.7876
  500MOL0     H68947   4.939   4.491   4.491 -1.2069  1.0031  0.7023
  500MOL0     H68948   4.985   4.609   4.374 -2.4395  1.4175  0.2706
  500MOL0     H68949   4.788   4.634   4.150  3.8413 -1.1254  1.5208
  500MOL0     H68950   4.543   4.761   4.141 -2.5729 -1.1642 -2.4974
  500MOL0     H68951   4.434   4.749   4.281  1.6505 -1.2346  3.5721
  500MOL0     H68952   4.513   4.535   4.074  0.5317 -0.0378 -0.4271
  500MOL0     H68953   4.397   4.507   4.198  1.1948 -1.7505 -1.8674
  500MOL0     H68954   4.272   4.541   4.004 -1.5791  0.4663  0.6820
  500MOL0     H68955   4.233   4.658   4.115 -0.0984  0.5261 -1.0573
  500MOL0     H68956   4.227   4.782   3.891  1.1588 -1.6588 -3.5826
  500MOL0     H68957   4.357   4.836   3.995  0.9855 -0.7427  0.2999
  500MOL0     H68958   4.505   4.627   3.624 -2.6529 -0.7897  1.3142
  500MOL0     H68959   4.556   4.632   3.396  2.1866  0.2762 -0.3853
  500MOL0     H68960   4.672   4.765   3.385  0.6619  0.9270 -0.3447
  500MOL0     H68961   4.522   4.782   3.297  0.3372 -1.2524 -0.8308
  500MOL0     H68962   4.473   5.005   3.114 -0.9468  0.9931  0.3864
  500MOL0     H68963   4.490   5.197   2.937  0.0878  3.3290  2.7310
  500MOL0     H68964   4.791   5.509   2.983  3.0577  0.2935 -1.3999
  500MOL0     H68965   4.772   5.521   2.823 -0.1181 -0.4088 -0.5174
  500MOL0     H68966   4.539   5.535   2.802 -1.3552  2.0049 -0.4299
  500MOL0     H68967   4.503   5.485   2.972  1.3548  5.5011  3.9682
  500MOL0     H68968   4.645   5.736   2.896  0.8712 -0.0441 -0.8597
  500MOL0     H68969   4.607   5.681   3.057 -0.1444  0.2423  0.1743
  500MOL0     H68970   4.365   5.709   3.029 -4.6682  2.2444 -2.4696
  500MOL0     H68971   4.390   5.705   2.851  2.1387 -3.3847 -0.5056
  500MOL0     H68972   4.477   5.933   3.029 -0.5287 -0.5070  0.4965
  500MOL0     H68973   4.505   5.911   2.851  1.9838  3.8845  1.9448
  500MOL0     H68974   4.252   5.995   3.003  0.7916  1.5268  0.1162
  500MOL0     H68975   4.235   5.892   2.864  0.6136 -0.4183 -0.3563
  500MOL0     H68976   4.314   6.067   2.734 -0.5692  0.5990 -0.5754
  500MOL0     H68977   4.414   6.126   2.875 -0.1472  1.2639  1.4797
  500MOL0     H68978   4.198   6.271   2.822 -1.0624 -0.0008  0.7605
  500MOL0     H68979   4.203   6.202   2.988  0.0858  2.8817 -0.4390
  500MOL0     H68980   4.869   5.311   3.088  0.0377  0.3325 -0.5560
  500MOL0     H68981   4.829   5.138   3.282  1.0294 -0.4553  0.3888
  500MOL0     H68982   4.370   5.100   3.595  1.1062 -0.0209 -1.0287
  500MOL0     H68983   4.329   4.973   3.803 -2.2326  1.1217 -2.5379
  500MOL0     H68984   5.254   4.843   3.919  0.3976 -0.9376  2.5528
  500MOL0     H68985   5.200   4.986   3.721 -2.6072 -0.6225 -0.4210
  500MOL0     H68986   5.115   5.450   3.554  1.0424  0.1109  0.5614
  500MOL0     H68987   5.074   5.523   3.342  0.6828 -0.3268  1.0932
  500MOL0     H68988   5.187   5.246   2.997 -0.3962  0.0670  1.3103
  500MOL0     H68989   5.060   5.348   2.922  0.2412 -1.9683 -0.8258
  500MOL0     H68990   5.263   5.384   2.816  2.4177  2.4448 -0.4396
  500MOL0     H68991   5.345   5.420   2.964 -1.4608 -1.0491  2.0918
  500MOL0     H68992   5.119   5.568   2.827 -0.8016 -1.1487  0.4653
  500MOL0     H68993   5.166   5.609   2.996 -0.9558 -1.6806 -0.4581
  500MOL0     H68994   5.399   5.646   2.910 -1.6492  1.0631  2.0961
  500MOL0     H68995   5.272   5.762   2.888  0.3175  2.5840 -2.7571
  500MOL0     H68996   5.370   5.647   2.484  2.5497 -1.1268  0.3781
  500MOL0     H68997   5.321   5.222   3.155  0.7881  0.5197 -0.0593
  500MOL0     H68998   5.440   5.065   3.287  2.8658  0.3401 -0.1401
  500MOL0     H68999   5.513   5.166   3.404  0.5500 -1.8065  1.1746
  500MOL0     H69000   5.400   5.041   3.458 -0.5059 -1.2668 -0.9576
  501MOL0     O69001   3.471   1.673   9.635 -0.3963 -0.4511 -0.1169
  501MOL0     C69002   3.465   1.562   9.593  0.5955  0.4570  0.3871
  501MOL0     O69003   3.493   1.525   9.463  0.3913 -0.3127 -0.6077
  501MOL0     C69004   3.480   1.392   9.435 -0.3313  0.7711 -0.5468
  501MOL0     C69005   3.584   1.313   9.463  0.2539  0.4322 -0.1401
  501MOL0     C69006   3.569   1.176   9.447 -0.3104  0.2197 -0.4630
  501MOL0     C69007   3.444   1.123   9.424  0.6405  0.0610  0.0350
  501MOL0     O69008   3.418   0.990   9.412 -0.5117 -0.1179  0.2253
  501MOL0     C69009   3.522   0.888   9.403 -0.9750 -0.5013  0.1215
  501MOL0     C69010   3.458   0.768   9.333  0.0210 -0.5355 -0.2805
  501MOL0     C69011   3.536   0.639   9.362  0.1145 -0.4246 -0.2941
  501MOL0     C69012   3.684   0.633   9.309 -0.9262  0.0806 -0.3740
  501MOL0     C69013   3.791   0.683   9.411 -0.3002  0.9813 -0.3440
  501MOL0     C69014   3.930   0.665   9.363 -0.4157 -0.6765  0.2826
  501MOL0     C69015   3.975   0.524   9.370  0.1743  0.4782  0.0038
  501MOL0     C69016   4.116   0.508   9.319 -0.4558  0.3912 -0.3777
  501MOL0     N69017   4.130   0.518   9.175  0.8887  0.3128 -0.0645
  501MOL0     C69018   4.066   0.428   9.087 -0.4013 -0.3936 -0.7939
  501MOL0     C69019   4.109   0.461   8.965  0.0558 -1.2168  0.0462
  501MOL0     C69020   4.073   0.389   8.835  0.2596  1.0587  0.2458
  501MOL0     C69021   4.176   0.404   8.725 -0.8222 -0.1720 -0.2566
  501MOL0     C69022   4.141   0.334   8.596 -0.6498  0.4857 -0.1294
  501MOL0     C69023   4.261   0.346   8.500 -0.2352  0.1820  0.2438
  501MOL0     O69024   4.241   0.272   8.385  0.0086  0.4887 -0.1443
  501MOL0     C69025   4.328   0.294   8.288  0.1984 -0.2282  0.1235
  501MOL0     C69026   4.433   0.208   8.272  0.0523 -0.5975 -0.3975
  501MOL0     C69027   4.541   0.244   8.194 -0.4643 -0.7602  0.7065
  501MOL0     C69028   4.670   0.160   8.193 -0.0048 -0.1820  0.9173
  501MOL0     C69029   4.536   0.370   8.113  0.7441 -0.1488 -0.1138
  501MOL0     C69030   4.633   0.402   7.998  0.3594  0.1273 -0.2376
  501MOL0     O69031   4.624   0.522   7.947  1.0711  0.3216 -0.1521
  501MOL0     C69032   4.725   0.574   7.865 -0.5754 -0.7344  1.3007
  501MOL0     C69033   4.690   0.663   7.763 -0.3177  0.0542 -0.2259
  501MOL0     C69034   4.788   0.723   7.682 -0.3833 -0.4534  0.3047
  501MOL0     C69035   4.927   0.708   7.701  0.1436  0.7143 -0.4297
  501MOL0     O69036   5.026   0.772   7.629  0.8541  0.3375 -0.1516
  501MOL0     C69037   5.021   0.923   7.628 -0.0337 -0.2032  0.3396
  501MOL0     C69038   5.169   0.966   7.632  0.7400  0.0639  0.9074
  501MOL0     C69039   5.175   1.125   7.646  0.2873 -0.5551 -0.4416
  501MOL0     C69040   5.116   1.201   7.524  0.6364  0.0149 -0.0736
  501MOL0     C69041   5.106   1.361   7.545  1.1070 -0.4395 -1.1906
  501MOL0     C69042   5.246   1.430   7.537 -0.5848 -0.4697 -0.4958
  501MOL0     C69043   5.235   1.582   7.542 -0.1239 -0.4396  0.2381
  501MOL0     C69044   5.370   1.652   7.520  0.1894  0.5096  1.1278
  501MOL0    Cl69045   5.447   1.653   7.678  0.5053  0.3286  0.0618
  501MOL0     C69046   4.972   0.611   7.793  0.9711 -0.0483  0.1502
  501MOL0     C69047   4.867   0.548   7.881 -0.0840 -0.3924 -0.6374
  501MOL0     O69048   4.702   0.310   7.959  0.1208 -0.1122  0.1224
  501MOL0     C69049   4.433   0.464   8.146  0.4722 -0.0659  0.8745
  501MOL0     C69050   4.337   0.429   8.242 -0.0386 -0.1719  0.4648
  501MOL0     N69051   4.197   0.571   8.971  0.4731 -0.1084  0.3307
  501MOL0     N69052   4.217   0.598   9.103  0.5930  0.2531 -0.5142
  501MOL0     C69053   3.346   1.205   9.368  0.0277 -0.2899  0.7530
  501MOL0     C69054   3.369   1.341   9.369  0.2883  0.7604 -0.6026
  501MOL0     C69055   3.423   1.459   9.700  0.0633  0.7065  1.4384
  501MOL0     C69056   3.529   1.403   9.773  0.2850  1.7031 -0.4515
  501MOL0     C69057   3.506   1.320   9.875  0.5027  0.6976 -0.7424
  501MOL0     C69058   3.375   1.262   9.889  0.0640 -0.1022 -0.3305
  501MOL0     O69059   3.361   1.165   9.982 -0.2659  0.6303 -0.2730
  501MOL0     C69060   3.264   1.056   9.947  0.1024 -0.9714 -0.5906
  501MOL0     C69061   3.288   0.969   9.817  0.6594 -0.3657 -0.5305
  501MOL0     C69062   3.398   0.858   9.828 -0.0494 -0.7885 -0.6441
  501MOL0     C69063   3.535   0.942   9.841 -0.2852  0.2902  0.2578
  501MOL0     C69064   3.639   0.841   9.808 -0.6958  0.1203 -1.0049
  501MOL0     C69065   3.718   0.761   9.767  0.0780 -0.3742  0.5366
  501MOL0     C69066   3.270   1.310   9.809  0.3334 -0.7106  0.0515
  501MOL0     C69067   3.289   1.406   9.713  0.2673 -0.2388 -0.9039
  501MOL0     C69068   3.169   1.459   9.633  0.6949 -0.4963 -0.2411
  501MOL0     H69069   3.679   1.346   9.502  1.1762 -1.2625 -0.8597
  501MOL0     H69070   3.658   1.116   9.457 -2.2544 -3.3770 -2.8370
  501MOL0     H69071   3.547   0.875   9.509 -1.6705  2.0774  0.6727
  501MOL0     H69072   3.617   0.914   9.355  0.2178 -1.1653  2.0200
  501MOL0     H69073   3.358   0.755   9.376  0.2525  1.5720  1.0621
  501MOL0     H69074   3.449   0.783   9.225 -1.9011 -2.0682 -0.3736
  501MOL0     H69075   3.535   0.632   9.471  4.0307  0.2600 -0.0759
  501MOL0     H69076   3.466   0.562   9.325 -2.6568  1.0239  1.5718
  501MOL0     H69077   3.704   0.526   9.293  3.2721 -0.1089  3.8236
  501MOL0     H69078   3.682   0.674   9.208 -0.2454 -1.9929 -1.2952
  501MOL0     H69079   3.773   0.622   9.500  0.7316 -1.3574 -1.6341
  501MOL0     H69080   3.787   0.790   9.433  4.0425  1.1896  0.3360
  501MOL0     H69081   3.929   0.704   9.261  1.6826  0.0007  0.4748
  501MOL0     H69082   3.995   0.735   9.416  1.1518 -2.3591  0.6939
  501MOL0     H69083   3.913   0.456   9.311 -1.3918  1.0931  0.8891
  501MOL0     H69084   3.978   0.492   9.475  1.2429 -2.1204 -0.7312
  501MOL0     H69085   4.185   0.575   9.372  1.1955 -2.3198  1.1265
  501MOL0     H69086   4.158   0.413   9.352  0.7557  1.1208  0.2805
  501MOL0     H69087   3.992   0.352   9.111 -0.1325 -0.3333  0.2732
  501MOL0     H69088   3.983   0.433   8.792 -0.3616 -3.1326 -3.4321
  501MOL0     H69089   4.048   0.284   8.856 -1.2850  0.4814 -3.6658
  501MOL0     H69090   4.184   0.513   8.716  1.3506 -0.2033  0.7551
  501MOL0     H69091   4.272   0.362   8.756  0.1794  1.2453 -1.3209
  501MOL0     H69092   4.118   0.228   8.609 -1.3813  0.5943 -0.4885
  501MOL0     H69093   4.049   0.372   8.551 -1.8306  0.6939  2.2883
  501MOL0     H69094   4.271   0.454   8.487 -0.7165  0.0318 -1.7245
  501MOL0     H69095   4.353   0.319   8.551 -0.0710  0.1000 -0.0890
  501MOL0     H69096   4.428   0.120   8.334 -0.9990  0.9922  1.9123
  501MOL0     H69097   4.677   0.073   8.258 -0.1244 -1.1451 -0.3298
  501MOL0     H69098   4.757   0.218   8.225  1.8519 -3.0630  1.3855
  501MOL0     H69099   4.692   0.113   8.097 -1.0940 -2.0317  1.5336
  501MOL0     H69100   4.589   0.681   7.727  0.2498 -2.9558 -4.0971
  501MOL0     H69101   4.765   0.773   7.589 -1.3715  1.0379  1.3214
  501MOL0     H69102   4.977   0.967   7.538  0.5972 -0.3508 -0.0502
  501MOL0     H69103   4.968   0.957   7.717  0.3668 -0.9528  0.8824
  501MOL0     H69104   5.219   0.914   7.714  0.2395 -1.2298  0.4108
  501MOL0     H69105   5.209   0.944   7.533 -3.6407  0.8768 -1.2691
  501MOL0     H69106   5.280   1.153   7.648  0.6841 -1.9721  0.8298
  501MOL0     H69107   5.123   1.164   7.735  0.4415 -1.0340 -0.1360
  501MOL0     H69108   5.015   1.164   7.503  0.4469 -0.9053  2.1801
  501MOL0     H69109   5.164   1.188   7.427  0.5869  1.1953 -0.2809
  501MOL0     H69110   5.040   1.403   7.468 -0.2752  0.1293  0.2566
  501MOL0     H69111   5.056   1.399   7.634  0.0055 -0.1928 -1.8902
  501MOL0     H69112   5.302   1.398   7.448 -0.1863  1.2007 -0.8639
  501MOL0     H69113   5.302   1.395   7.623  0.1820 -0.5676 -1.0275
  501MOL0     H69114   5.202   1.608   7.643  1.7851  0.9770  0.5598
  501MOL0     H69115   5.164   1.616   7.466  2.1049 -1.9065 -2.6961
  501MOL0     H69116   5.349   1.757   7.495  2.0080  1.4990  3.3879
  501MOL0     H69117   5.442   1.620   7.443 -1.3264  1.3315 -0.7209
  501MOL0     H69118   5.075   0.579   7.800  0.9678  0.0370  0.6964
  501MOL0     H69119   4.880   0.463   7.947  1.9331 -0.6684 -1.3187
  501MOL0     H69120   4.427   0.557   8.091  1.8391 -1.9058 -2.7480
  501MOL0     H69121   4.256   0.500   8.252 -1.0116 -1.2674  0.5903
  501MOL0     H69122   3.246   1.171   9.345  0.2544 -1.0276  0.7963
  501MOL0     H69123   3.299   1.417   9.335  3.2994  4.6502  1.1164
  501MOL0     H69124   3.635   1.427   9.771  0.8445 -0.5492 -0.9500
  501MOL0     H69125   3.584   1.291   9.944 -0.3732  2.3909  1.0327
  501MOL0     H69126   3.268   0.983  10.029 -3.4123  1.3257  1.9175
  501MOL0     H69127   3.160   1.089   9.944 -0.4392 -2.4548  0.8166
  501MOL0     H69128   3.296   1.044   9.738 -0.2305  1.9411  1.4350
  501MOL0     H69129   3.197   0.916   9.788  1.5520 -1.1250 -2.0267
  501MOL0     H69130   3.368   0.794   9.911 -3.3436 -1.3573 -2.1327
  501MOL0     H69131   3.405   0.795   9.739  1.7248 -2.2662  0.4652
  501MOL0     H69132   3.549   0.999   9.933 -0.2468  3.5211 -1.6276
  501MOL0     H69133   3.546   1.017   9.763  0.3824 -2.5668 -2.6017
  501MOL0     H69134   3.786   0.688   9.728 -1.3110 -1.7059  0.5046
  501MOL0     H69135   3.169   1.271   9.819 -1.0447  2.3299 -1.0182
  501MOL0     H69136   3.105   1.523   9.695  0.9590  0.1223 -0.5984
  501MOL0     H69137   3.191   1.532   9.555 -2.0091 -1.2733 -1.8629
  501MOL0     H69138   3.114   1.372   9.597 -0.7132 -0.0291  0.7213
  502MOL0     O69139   1.966   6.343   1.097  0.4016 -0.2720  1.5477
  502MOL0     C69140   1.905   6.244   1.140 -0.2992  0.3449 -0.2584
  502MOL0     O69141   1.769   6.235   1.163 -0.1980  0.2052 -0.8064
  502MOL0     C69142   1.713   6.361   1.190  0.6212 -0.1075  0.7303
  502MOL0     C69143   1.618   6.414   1.105  0.4205 -1.1280  0.1912
  502MOL0     C69144   1.571   6.543   1.110 -0.1022  0.0665 -0.3998
  502MOL0     C69145   1.617   6.625   1.214 -0.0905 -0.4985  0.6120
  502MOL0     O69146   1.562   6.745   1.240 -0.1238  0.2278  0.2082
  502MOL0     C69147   1.647   6.858   1.192 -0.2393  0.0749 -1.1185
  502MOL0     C69148   1.551   6.969   1.153 -1.0037 -0.7334  0.1618
  502MOL0     C69149   1.502   7.027   1.286 -0.0255 -0.1037 -0.0947
  502MOL0     C69150   1.603   7.079   1.394  0.1148  0.2322  0.5268
  502MOL0     C69151   1.536   7.148   1.516  0.7740  0.0368 -0.2559
  502MOL0     C69152   1.450   7.269   1.473 -0.2472  0.0380 -0.5618
  502MOL0     C69153   1.434   7.371   1.579 -0.9509  0.4534  0.8423
  502MOL0     C69154   1.358   7.326   1.710  0.4011 -0.7557 -0.3911
  502MOL0     N69155   1.215   7.328   1.704  0.0650  0.1193 -0.5559
  502MOL0     C69156   1.139   7.416   1.627 -0.3573  0.7022  1.3128
  502MOL0     C69157   1.014   7.368   1.624  0.2478 -1.1583  0.0885
  502MOL0     C69158   0.900   7.457   1.580 -0.0091 -0.5227  0.2985
  502MOL0     C69159   0.865   7.469   1.439  0.2828  0.3686  0.2407
  502MOL0     C69160   0.791   7.334   1.410 -0.6103  0.0077 -0.2283
  502MOL0     C69161   0.775   7.309   1.252 -1.1519 -0.2833 -0.6818
  502MOL0     O69162   0.693   7.192   1.242 -0.1613 -0.6989  0.2749
  502MOL0     C69163   0.558   7.214   1.255  0.4587 -0.0831  0.4411
  502MOL0     C69164   0.492   7.293   1.163 -0.6146 -0.5483 -0.3749
  502MOL0     C69165   0.351   7.307   1.170  0.9573  1.1105  0.0229
  502MOL0     C69166   0.278   7.398   1.072 -0.9705 -0.3413  0.6847
  502MOL0     C69167   0.279   7.237   1.266 -0.2557 -0.3766  0.5277
  502MOL0     C69168   0.135   7.238   1.271 -0.2727  0.9336 -0.4018
  502MOL0     O69169   0.046   7.213   1.170  0.3958  0.3224  0.0690
  502MOL0     C69170  -0.079   7.263   1.191 -0.1821 -0.4096  0.5927
  502MOL0     C69171  -0.107   7.402   1.204 -0.6531 -0.4921  1.0081
  502MOL0     C69172  -0.233   7.430   1.255 -0.2524  0.1235  0.1659
  502MOL0     C69173  -0.331   7.339   1.282  0.6426 -0.6152 -0.3309
  502MOL0     O69174  -0.455   7.390   1.316  0.2001 -0.5268 -0.6535
  502MOL0     C69175  -0.522   7.318   1.416 -0.2463  0.7537 -0.3700
  502MOL0     C69176  -0.642   7.406   1.443 -0.6645 -0.2567 -0.0488
  502MOL0     C69177  -0.736   7.438   1.320 -0.7008  0.0063 -0.3881
  502MOL0     C69178  -0.879   7.477   1.376 -0.5103  0.3118 -0.3258
  502MOL0     C69179  -0.988   7.501   1.268 -0.8699  0.0379  0.2205
  502MOL0     C69180  -0.944   7.601   1.162 -0.1019 -0.3147  0.1893
  502MOL0     C69181  -0.930   7.746   1.220  0.5715  0.0771  0.4817
  502MOL0     C69182  -0.946   7.838   1.100  0.1195 -0.3253 -0.0632
  502MOL0    Cl69183  -1.116   7.837   1.066  0.1651 -0.5317  0.2143
  502MOL0     C69184  -0.299   7.207   1.256 -0.8490  0.8245  1.4538
  502MOL0     C69185  -0.173   7.160   1.209 -0.3484  0.1944 -0.7296
  502MOL0     O69186   0.102   7.263   1.393  0.4751 -0.0546  1.1626
  502MOL0     C69187   0.350   7.147   1.350 -0.1441  0.2838 -0.0445
  502MOL0     C69188   0.493   7.138   1.352  0.1637  0.5959  0.2142
  502MOL0     N69189   1.010   7.248   1.696 -0.2397 -0.7944  0.8007
  502MOL0     N69190   1.131   7.223   1.740  0.3776 -0.0347  0.3597
  502MOL0     C69191   1.708   6.576   1.310 -0.0618  1.4794 -0.3118
  502MOL0     C69192   1.755   6.446   1.295 -0.8987  0.7602 -0.9557
  502MOL0     C69193   1.975   6.110   1.154 -0.2513 -0.1347  0.0919
  502MOL0     C69194   1.904   5.992   1.147  0.4674  0.4132 -0.2656
  502MOL0     C69195   1.970   5.864   1.135  0.3673 -0.4594 -0.5400
  502MOL0     C69196   2.111   5.858   1.148 -0.0128  0.3898 -0.0467
  502MOL0     O69197   2.154   5.734   1.163 -0.4423 -0.1470 -0.5439
  502MOL0     C69198   2.290   5.705   1.181  0.3672  0.5137 -0.2261
  502MOL0     C69199   2.324   5.559   1.200  0.2776 -0.3969  0.3025
  502MOL0     C69200   2.338   5.477   1.067  0.3338  0.2778  0.9660
  502MOL0     C69201   2.211   5.474   0.979  0.0406 -0.0224 -0.7893
  502MOL0     C69202   2.117   5.397   1.050 -0.4051  0.3480  0.5981
  502MOL0     C69203   2.040   5.322   1.099 -1.0244 -0.9281 -0.8282
  502MOL0     C69204   2.181   5.975   1.177 -0.1739 -0.2259  0.2131
  502MOL0     C69205   2.115   6.096   1.182  0.1246 -0.8164 -0.2795
  502MOL0     C69206   2.203   6.221   1.215 -0.6750  0.4057 -0.9259
  502MOL0     H69207   1.567   6.341   1.045 -0.4825 -3.5558  3.5970
  502MOL0     H69208   1.500   6.586   1.041 -1.4605  1.9108  1.9928
  502MOL0     H69209   1.697   6.825   1.100 -2.7106  0.1502 -2.5893
  502MOL0     H69210   1.729   6.891   1.256 -2.5172 -2.7628  3.8112
  502MOL0     H69211   1.614   7.038   1.098  0.3237 -3.0672 -1.4010
  502MOL0     H69212   1.474   6.944   1.079 -1.9419 -0.7533  1.1083
  502MOL0     H69213   1.438   7.110   1.254  0.4847 -0.5164 -2.3059
  502MOL0     H69214   1.441   6.951   1.336  0.8640 -0.3214  0.6901
  502MOL0     H69215   1.661   6.994   1.432  1.5212  0.6198 -0.6744
  502MOL0     H69216   1.669   7.147   1.340 -1.9808  2.7190  0.9105
  502MOL0     H69217   1.620   7.174   1.581 -0.2525 -0.4494  1.3225
  502MOL0     H69218   1.478   7.074   1.571  0.6582  0.6454  0.4550
  502MOL0     H69219   1.495   7.320   1.388 -0.2831 -0.9946 -1.2118
  502MOL0     H69220   1.351   7.239   1.438 -0.8538 -0.9339  1.7532
  502MOL0     H69221   1.391   7.463   1.539 -1.7711 -0.2224  0.1033
  502MOL0     H69222   1.531   7.404   1.615 -0.2081 -1.9750  1.2645
  502MOL0     H69223   1.392   7.227   1.740  3.0298  0.2274  0.1657
  502MOL0     H69224   1.386   7.392   1.793 -0.5572  1.3322 -1.6387
  502MOL0     H69225   1.185   7.501   1.578  3.1846 -0.3548  2.4487
  502MOL0     H69226   0.932   7.557   1.611  0.4431 -0.6389  0.2001
  502MOL0     H69227   0.812   7.434   1.642 -1.4670 -0.2878 -1.5859
  502MOL0     H69228   0.793   7.547   1.412  0.0674  0.0473 -0.1329
  502MOL0     H69229   0.957   7.474   1.381  0.7063 -1.1558  0.7155
  502MOL0     H69230   0.844   7.245   1.446 -0.9974  0.5407  1.7444
  502MOL0     H69231   0.691   7.339   1.454  0.0931  3.6231  1.2811
  502MOL0     H69232   0.730   7.404   1.220  0.1969  0.6708  0.1522
  502MOL0     H69233   0.871   7.300   1.200 -0.5378  3.5568 -0.5262
  502MOL0     H69234   0.546   7.344   1.084  2.3386  0.4220  2.0988
  502MOL0     H69235   0.348   7.481   1.058 -0.4977 -0.6659  1.0913
  502MOL0     H69236   0.179   7.435   1.102 -0.0035  1.6731  1.5985
  502MOL0     H69237   0.265   7.346   0.977 -0.2148  1.1764 -0.3026
  502MOL0     H69238  -0.023   7.471   1.199  0.8749 -2.0462  3.1538
  502MOL0     H69239  -0.243   7.532   1.289 -1.9426 -0.7379  2.5123
  502MOL0     H69240  -0.545   7.216   1.386 -2.6658  1.6914 -2.0869
  502MOL0     H69241  -0.449   7.309   1.497 -0.0127  1.1124 -0.5318
  502MOL0     H69242  -0.686   7.361   1.533  0.7415  0.9918  1.3316
  502MOL0     H69243  -0.617   7.509   1.469 -1.2335 -0.1629  0.1228
  502MOL0     H69244  -0.745   7.350   1.256  2.4694 -2.6584  2.4750
  502MOL0     H69245  -0.692   7.519   1.261  2.3660  0.3495  2.1367
  502MOL0     H69246  -0.880   7.555   1.453  0.3165  0.6896 -0.6879
  502MOL0     H69247  -0.915   7.387   1.428 -0.6693 -0.4818 -1.7716
  502MOL0     H69248  -1.001   7.403   1.224 -0.6848 -1.0003  2.3358
  502MOL0     H69249  -1.085   7.526   1.311 -0.4246 -1.0012  1.9236
  502MOL0     H69250  -1.029   7.604   1.093 -1.8013  1.0150  2.2251
  502MOL0     H69251  -0.849   7.582   1.110 -0.2973  2.7495 -1.5040
  502MOL0     H69252  -0.828   7.766   1.255  0.5793  0.1238  0.4335
  502MOL0     H69253  -1.004   7.765   1.299  0.2561 -2.4598  0.8963
  502MOL0     H69254  -0.893   7.801   1.012  1.1431 -1.5145  1.0092
  502MOL0     H69255  -0.903   7.934   1.129 -3.0160  1.6981 -1.6129
  502MOL0     H69256  -0.381   7.136   1.259 -0.5365  0.3927  0.2889
  502MOL0     H69257  -0.145   7.056   1.196 -0.9622 -0.0876  0.0878
  502MOL0     H69258   0.299   7.074   1.412  1.0745 -1.0589 -0.5416
  502MOL0     H69259   0.537   7.070   1.425  1.3541 -1.0872 -1.9706
  502MOL0     H69260   1.742   6.639   1.392  0.0270 -1.8252  2.4234
  502MOL0     H69261   1.817   6.411   1.376 -2.0513 -1.2236 -0.8647
  502MOL0     H69262   1.796   5.986   1.134  0.7417 -0.7986 -2.5452
  502MOL0     H69263   1.918   5.771   1.115 -2.4397  0.6663  0.9950
  502MOL0     H69264   2.347   5.740   1.094 -0.6702  1.3202 -0.5887
  502MOL0     H69265   2.314   5.762   1.271 -2.0844  1.2246  0.0329
  502MOL0     H69266   2.238   5.529   1.261  0.1160 -0.0133  0.2653
  502MOL0     H69267   2.419   5.545   1.253 -0.6710  0.5127  2.3570
  502MOL0     H69268   2.412   5.528   1.004  0.1957 -0.9674 -0.2559
  502MOL0     H69269   2.376   5.376   1.084  2.2900  0.7391 -0.2613
  502MOL0     H69270   2.240   5.427   0.885  0.6311 -0.6119 -0.3277
  502MOL0     H69271   2.170   5.575   0.968  0.8831  0.4465  0.1417
  502MOL0     H69272   1.973   5.261   1.156  0.4529 -0.3540  1.6738
  502MOL0     H69273   2.287   5.968   1.201 -0.6427  0.6624  2.8320
  502MOL0     H69274   2.277   6.202   1.293  0.2045  0.6085 -1.7006
  502MOL0     H69275   2.252   6.250   1.122 -2.3596  0.9627 -1.6859
  502MOL0     H69276   2.142   6.305   1.250 -0.5228 -0.5860  1.9804
  503MOL0     O69277   4.583   7.624  11.213 -0.6773  0.1076  0.1821
  503MOL0     C69278   4.491   7.548  11.227 -0.1875 -0.2423 -1.3703
  503MOL0     O69279   4.360   7.583  11.235 -0.9445 -0.4565  0.0797
  503MOL0     C69280   4.327   7.716  11.217 -0.1897 -0.6232  0.2630
  503MOL0     C69281   4.297   7.770  11.087  0.6598  1.1749  0.1940
  503MOL0     C69282   4.253   7.901  11.063  0.5914 -0.5701  0.6368
  503MOL0     C69283   4.233   7.987  11.169 -1.1111 -0.8991 -0.4061
  503MOL0     O69284   4.187   8.112  11.147 -1.0254 -0.1289 -0.1527
  503MOL0     C69285   4.212   8.210  11.253 -0.2632 -0.6992 -0.3199
  503MOL0     C69286   4.193   8.364  11.195 -0.0337  0.9065  0.1561
  503MOL0     C69287   4.263   8.473  11.279 -0.0276 -0.2836 -0.8378
  503MOL0     C69288   4.173   8.600  11.296 -0.4935 -0.4079  0.5587
  503MOL0     C69289   4.056   8.562  11.378 -0.1858 -0.3262  0.6761
  503MOL0     C69290   3.944   8.675  11.356 -0.4916  0.6478 -0.9313
  503MOL0     C69291   3.988   8.812  11.382  0.1146 -0.5999  0.7175
  503MOL0     C69292   4.036   8.850  11.518  0.0963  0.1932 -0.1776
  503MOL0     N69293   4.161   8.936  11.525 -0.3153 -0.1007  0.0752
  503MOL0     C69294   4.285   8.885  11.563 -0.7207  0.0107  0.0803
  503MOL0     C69295   4.375   8.986  11.543  0.1589 -0.0471 -0.5638
  503MOL0     C69296   4.510   8.966  11.587  0.2619  0.3956 -0.0286
  503MOL0     C69297   4.597   8.890  11.487  0.2284 -0.5953 -0.1763
  503MOL0     C69298   4.740   8.924  11.497 -0.5099  0.2173  0.0502
  503MOL0     C69299   4.830   8.809  11.433 -0.3859  0.2013 -0.5322
  503MOL0     O69300   4.811   8.797  11.302 -0.9840 -1.0490 -0.5397
  503MOL0     C69301   4.869   8.682  11.249 -0.3088  0.6327 -0.2089
  503MOL0     C69302   4.980   8.612  11.297 -0.4670  0.0620  0.3466
  503MOL0     C69303   5.032   8.489  11.241  0.1673 -0.6616 -0.2601
  503MOL0     C69304   5.134   8.400  11.302  0.2348 -1.2288  0.3545
  503MOL0     C69305   4.970   8.449  11.121 -0.2990  0.0141  0.2408
  503MOL0     C69306   4.990   8.321  11.047 -0.0619 -0.1562  0.7551
  503MOL0     O69307   4.963   8.339  10.912 -0.9277 -0.0136 -0.0923
  503MOL0     C69308   4.973   8.228  10.830  0.7678 -0.9253 -0.5716
  503MOL0     C69309   5.084   8.140  10.823  0.5901 -0.8613 -0.1233
  503MOL0     C69310   5.093   8.041  10.718 -0.3165 -1.1651  0.8707
  503MOL0     C69311   4.994   8.048  10.614  0.4587  0.2521  0.3473
  503MOL0     O69312   5.006   7.976  10.500  0.0738 -0.5795  1.0596
  503MOL0     C69313   5.107   7.875  10.486 -0.5575  0.9483  0.1845
  503MOL0     C69314   5.028   7.760  10.413  0.6169  0.4173  0.3021
  503MOL0     C69315   5.112   7.625  10.416  0.2915  0.0413 -0.4710
  503MOL0     C69316   5.257   7.629  10.363  0.4826 -0.6888  0.9885
  503MOL0     C69317   5.262   7.679  10.222 -0.3490 -0.0556 -0.2639
  503MOL0     C69318   5.395   7.737  10.177  0.0094  0.2737 -0.4813
  503MOL0     C69319   5.508   7.650  10.215  0.0982 -0.2698 -0.4682
  503MOL0     C69320   5.613   7.635  10.101 -0.2094 -0.5782  0.7195
  503MOL0    Cl69321   5.632   7.780   9.985  0.3661 -0.1192  0.2307
  503MOL0     C69322   4.885   8.131  10.619  0.3285 -0.7156  0.5921
  503MOL0     C69323   4.875   8.217  10.727 -0.0257  0.5820 -1.3365
  503MOL0     O69324   5.027   8.215  11.100 -1.8591 -0.0272  0.6687
  503MOL0     C69325   4.870   8.529  11.059 -0.8926 -0.3904  0.0729
  503MOL0     C69326   4.812   8.637  11.131 -0.3445  0.2155  0.0252
  503MOL0     N69327   4.304   9.096  11.501  0.2095  0.1774 -0.7076
  503MOL0     N69328   4.176   9.071  11.492 -0.3394  0.0303  0.3686
  503MOL0     C69329   4.256   7.937  11.298 -1.1895 -0.6397  0.5626
  503MOL0     C69330   4.306   7.811  11.315 -0.0195  1.0207 -0.1357
  503MOL0     C69331   4.521   7.408  11.258 -1.1788 -0.0543  0.1796
  503MOL0     C69332   4.441   7.347  11.357 -0.3302 -0.5291 -0.2851
  503MOL0     C69333   4.454   7.215  11.389  0.3819 -0.8767  0.2930
  503MOL0     C69334   4.547   7.136  11.313  0.2848  0.0476 -0.1831
  503MOL0     O69335   4.553   7.001  11.334  0.4913  0.4305 -0.0983
  503MOL0     C69336   4.527   6.920  11.216 -0.1435  0.9425 -0.4213
  503MOL0     C69337   4.483   6.777  11.241 -0.2404  0.6786  0.0461
  503MOL0     C69338   4.510   6.700  11.107  0.4584  0.3469  0.5455
  503MOL0     C69339   4.430   6.573  11.105 -0.0587 -0.7615 -0.4442
  503MOL0     C69340   4.479   6.496  10.990 -0.5629  0.8252 -0.3840
  503MOL0     C69341   4.528   6.442  10.893 -0.2917  0.8395  0.1786
  503MOL0     C69342   4.633   7.191  11.217 -0.4524 -0.4482 -0.5554
  503MOL0     C69343   4.610   7.330  11.189  0.0985  0.3149  0.6855
  503MOL0     C69344   4.695   7.389  11.082 -0.0429  0.2774 -0.4918
  503MOL0     H69345   4.301   7.696  11.008  0.5177  2.7506 -1.3468
  503MOL0     H69346   4.213   7.921  10.964  1.8118 -2.6499 -0.3465
  503MOL0     H69347   4.318   8.204  11.283 -1.0117  1.4486  3.4169
  503MOL0     H69348   4.149   8.198  11.341  0.0121  0.4649  0.0615
  503MOL0     H69349   4.231   8.364  11.092 -0.3675 -2.6653 -0.0925
  503MOL0     H69350   4.086   8.386  11.186 -0.6829 -1.9237 -0.2140
  503MOL0     H69351   4.289   8.429  11.376 -3.5913 -0.8060  0.0050
  503MOL0     H69352   4.356   8.495  11.225  3.6200 -2.0902  3.9289
  503MOL0     H69353   4.221   8.690  11.336  0.5476 -0.7949  0.2112
  503MOL0     H69354   4.144   8.635  11.196 -0.2139  2.7536  1.4636
  503MOL0     H69355   4.078   8.554  11.484  1.1220  0.8331  0.5231
  503MOL0     H69356   4.016   8.464  11.348 -2.3351  0.4891  0.7217
  503MOL0     H69357   3.914   8.679  11.251  0.8854  1.3594 -1.3265
  503MOL0     H69358   3.868   8.636  11.424  0.7670  1.6303  1.1469
  503MOL0     H69359   3.909   8.882  11.354  2.1500  1.6073  0.2104
  503MOL0     H69360   4.061   8.837  11.305 -0.9866 -0.2826 -0.2539
  503MOL0     H69361   3.955   8.906  11.568  0.5136 -0.3781  1.1923
  503MOL0     H69362   4.057   8.768  11.588  0.3568  1.4420  1.2731
  503MOL0     H69363   4.309   8.785  11.596  1.4673  1.0638  1.9038
  503MOL0     H69364   4.496   8.927  11.689 -0.0526  0.0922 -0.1874
  503MOL0     H69365   4.555   9.060  11.622  1.2578 -0.2083  0.3663
  503MOL0     H69366   4.579   8.782  11.488 -1.2152 -0.5283 -3.6731
  503MOL0     H69367   4.571   8.918  11.385  4.0079 -2.5713 -1.8673
  503MOL0     H69368   4.773   9.008  11.436  1.9258 -1.8872 -1.7521
  503MOL0     H69369   4.769   8.953  11.599 -0.6604  1.8562 -0.3515
  503MOL0     H69370   4.935   8.834  11.452 -1.0685  1.8380  1.4255
  503MOL0     H69371   4.806   8.726  11.499 -0.6947  0.9286  0.2870
  503MOL0     H69372   5.024   8.642  11.391  0.9579 -1.3240  0.1607
  503MOL0     H69373   5.141   8.440  11.404  1.3873 -0.2760 -0.0786
  503MOL0     H69374   5.232   8.415  11.257  0.1271 -2.7077 -0.4213
  503MOL0     H69375   5.104   8.297  11.323 -0.2989 -0.6919  2.6104
  503MOL0     H69376   5.158   8.158  10.900  2.0123 -0.6957 -1.4947
  503MOL0     H69377   5.181   7.977  10.713 -0.5648 -1.4253 -0.8973
  503MOL0     H69378   5.197   7.912  10.438  2.7701 -1.1825  4.1163
  503MOL0     H69379   5.141   7.827  10.579  0.9214  0.8479 -0.3942
  503MOL0     H69380   4.929   7.749  10.459 -0.2480  1.6907 -1.1448
  503MOL0     H69381   5.007   7.787  10.309  2.9619 -0.0848 -0.3711
  503MOL0     H69382   5.064   7.540  10.365  3.0989 -1.4961 -0.7336
  503MOL0     H69383   5.120   7.587  10.518  0.3300  1.2070 -0.0276
  503MOL0     H69384   5.296   7.527  10.368 -0.0268 -1.1917 -2.6593
  503MOL0     H69385   5.315   7.698  10.425 -0.6609  1.4079 -0.1427
  503MOL0     H69386   5.232   7.595  10.159  0.7185  1.2777 -2.6695
  503MOL0     H69387   5.188   7.758  10.209 -1.8273 -1.3101  0.0956
  503MOL0     H69388   5.402   7.834  10.228  0.7176 -1.0689  2.1346
  503MOL0     H69389   5.386   7.747  10.068 -0.8825  0.8648 -0.3696
  503MOL0     H69390   5.475   7.551  10.249  2.2666  0.4318  4.6239
  503MOL0     H69391   5.557   7.679  10.309  2.3395 -0.0970 -1.6174
  503MOL0     H69392   5.586   7.546  10.043  1.4828  1.4272 -3.5917
  503MOL0     H69393   5.711   7.609  10.142  0.8070 -1.7942 -2.2234
  503MOL0     H69394   4.806   8.118  10.545 -1.6642 -0.9741  2.6577
  503MOL0     H69395   4.791   8.286  10.724  0.6560  1.4001 -2.2267
  503MOL0     H69396   4.819   8.511  10.965  1.5817  1.0357 -1.6476
  503MOL0     H69397   4.717   8.670  11.089  0.3888  1.3657 -0.7748
  503MOL0     H69398   4.255   7.992  11.391  0.9333  0.3508  0.0622
  503MOL0     H69399   4.347   7.775  11.409 -0.5894  3.5427  1.1695
  503MOL0     H69400   4.371   7.404  11.418  0.4502  1.1588 -0.9005
  503MOL0     H69401   4.403   7.170  11.473  0.7095 -3.8552 -0.9480
  503MOL0     H69402   4.456   6.974  11.153 -0.7263  0.8248  0.1212
  503MOL0     H69403   4.622   6.924  11.162  1.2602  1.1605  1.9135
  503MOL0     H69404   4.381   6.768  11.278  0.7303  0.0950  2.7691
  503MOL0     H69405   4.554   6.737  11.314 -1.3173 -0.8635  0.3110
  503MOL0     H69406   4.473   6.755  11.020  1.4617 -0.5291 -0.4537
  503MOL0     H69407   4.615   6.673  11.097 -0.3201 -1.9288 -3.9633
  503MOL0     H69408   4.327   6.599  11.082  0.2649  0.4980 -0.5227
  503MOL0     H69409   4.437   6.516  11.198  2.0100 -1.5995 -1.0280
  503MOL0     H69410   4.575   6.386  10.815  1.0818  1.2460  0.6950
  503MOL0     H69411   4.712   7.138  11.166  0.0846  1.9586 -2.4380
  503MOL0     H69412   4.645   7.452  11.008  1.3667  0.3972 -1.3995
  503MOL0     H69413   4.771   7.456  11.124 -0.1553  0.5044 -0.6501
  503MOL0     H69414   4.742   7.310  11.022  1.8640  2.2195 -1.7334
  504MOL0     O69415   7.911   5.292   3.012 -0.3721 -0.5266 -0.4175
  504MOL0     C69416   8.018   5.237   2.981  0.3150  0.0073 -0.2252
  504MOL0     O69417   8.053   5.214   2.854 -0.3447  0.5190 -0.0930
  504MOL0     C69418   7.960   5.218   2.756  0.2077 -0.2628 -0.8992
  504MOL0     C69419   8.003   5.267   2.631 -0.4687 -1.0918 -1.2410
  504MOL0     C69420   7.920   5.271   2.524  0.7715 -0.1049  0.0389
  504MOL0     C69421   7.784   5.230   2.541 -0.3434 -0.4513  0.5456
  504MOL0     O69422   7.700   5.263   2.440  0.0221  0.3482  1.0557
  504MOL0     C69423   7.561   5.222   2.444  0.4012  0.4383  0.2526
  504MOL0     C69424   7.511   5.257   2.305 -0.6821 -0.2206  0.0933
  504MOL0     C69425   7.356   5.241   2.301 -0.5296 -0.2671  1.2559
  504MOL0     C69426   7.315   5.250   2.157  0.1565  0.4909  0.5466
  504MOL0     C69427   7.156   5.256   2.146  0.6704 -0.9191  0.5206
  504MOL0     C69428   7.069   5.126   2.136 -0.0953  0.5597  0.6831
  504MOL0     C69429   7.072   5.068   1.998 -0.0707  0.0374 -0.1233
  504MOL0     C69430   6.981   4.946   1.983 -0.0340 -0.3985 -0.1242
  504MOL0     N69431   7.061   4.823   2.004 -1.2939 -0.0852 -0.2239
  504MOL0     C69432   7.125   4.757   1.897 -0.2294  0.9474 -0.4378
  504MOL0     C69433   7.120   4.621   1.928 -0.5665  0.0373  0.1089
  504MOL0     C69434   7.161   4.509   1.836 -0.2143  0.2921  0.1140
  504MOL0     C69435   7.028   4.451   1.766  0.1522 -0.1474  1.0582
  504MOL0     C69436   6.981   4.516   1.634  0.4307  0.1609  1.1327
  504MOL0     C69437   6.887   4.421   1.558  0.1693  0.1241  0.6374
  504MOL0     O69438   6.881   4.454   1.416 -0.4844  0.2960  0.4599
  504MOL0     C69439   6.776   4.391   1.349 -1.2592  0.2396 -1.1304
  504MOL0     C69440   6.660   4.328   1.410  0.1552 -0.8359  0.6486
  504MOL0     C69441   6.564   4.265   1.334 -0.1861 -0.5607  0.6777
  504MOL0     C69442   6.441   4.208   1.409 -0.1551 -0.3653  0.8826
  504MOL0     C69443   6.567   4.275   1.191 -0.2487 -0.2119  0.1054
  504MOL0     C69444   6.465   4.203   1.102 -0.4734  0.8641 -0.3625
  504MOL0     O69445   6.329   4.197   1.141 -0.9012  0.6557  0.8214
  504MOL0     C69446   6.260   4.108   1.058  0.1112 -0.1317  0.7654
  504MOL0     C69447   6.247   3.974   1.099  0.1768 -0.0575 -0.4069
  504MOL0     C69448   6.181   3.878   1.013 -1.1033  0.4461  0.1267
  504MOL0     C69449   6.123   3.916   0.896  0.0740 -0.4868 -0.5116
  504MOL0     O69450   6.063   3.822   0.818  0.1379 -0.2878  0.2958
  504MOL0     C69451   5.957   3.873   0.730  0.4738 -0.9128  0.4530
  504MOL0     C69452   5.887   3.761   0.664 -0.7122 -0.2042  0.7039
  504MOL0     C69453   5.845   3.640   0.750  0.1987 -0.0649 -0.5182
  504MOL0     C69454   5.799   3.525   0.665 -0.5502  1.2800  0.3196
  504MOL0     C69455   5.734   3.427   0.757 -0.0716  1.8653  0.0590
  504MOL0     C69456   5.591   3.468   0.808 -0.5803 -0.0914 -0.3377
  504MOL0     C69457   5.509   3.355   0.871 -0.1899  0.3112 -0.1730
  504MOL0     C69458   5.481   3.240   0.775 -0.2580  0.7981 -0.3327
  504MOL0    Cl69459   5.349   3.283   0.678 -0.1720  0.1400  0.3323
  504MOL0     C69460   6.145   4.052   0.853 -0.4006 -0.1702 -0.0230
  504MOL0     C69461   6.219   4.145   0.926 -1.0262  0.6728 -0.4801
  504MOL0     O69462   6.501   4.171   0.990  0.7165  0.2075 -0.6317
  504MOL0     C69463   6.679   4.335   1.133 -0.2490 -0.6599  0.3910
  504MOL0     C69464   6.780   4.394   1.210 -0.3411 -0.1247 -0.6605
  504MOL0     N69465   7.055   4.605   2.041  0.3986  0.7566  0.6153
  504MOL0     N69466   7.016   4.721   2.083 -0.3780 -0.1095  0.3708
  504MOL0     C69467   7.745   5.175   2.660  0.1745  0.6905 -0.5620
  504MOL0     C69468   7.829   5.165   2.769 -1.1309 -0.4012 -0.0014
  504MOL0     C69469   8.110   5.198   3.092 -0.5123  0.0679  0.1000
  504MOL0     C69470   8.209   5.100   3.055  0.5033 -0.0808 -0.6174
  504MOL0     C69471   8.286   5.039   3.148 -0.3809  0.4270 -0.2005
  504MOL0     C69472   8.290   5.071   3.286 -0.5220 -0.8817 -0.9707
  504MOL0     O69473   8.359   5.001   3.377 -0.0608 -0.1862  0.6468
  504MOL0     C69474   8.441   4.896   3.330  0.2020 -0.2040 -0.0352
  504MOL0     C69475   8.363   4.763   3.346 -0.6678  0.2560  0.7215
  504MOL0     C69476   8.307   4.729   3.484  0.5226 -1.1447  0.0249
  504MOL0     C69477   8.257   4.580   3.517 -0.1182 -0.2161 -0.4776
  504MOL0     C69478   8.121   4.558   3.476 -0.5127 -0.1216  0.1686
  504MOL0     C69479   8.015   4.531   3.442 -0.2840  0.6361 -0.9257
  504MOL0     C69480   8.191   5.162   3.326  0.4681 -0.3600 -0.1131
  504MOL0     C69481   8.095   5.215   3.232  0.0985 -0.0609 -0.6936
  504MOL0     C69482   8.004   5.325   3.280  0.5904  0.4391  0.2621
  504MOL0     H69483   8.100   5.316   2.640 -0.2852 -1.8352  3.8116
  504MOL0     H69484   7.955   5.311   2.430  2.3716 -4.9642 -1.7415
  504MOL0     H69485   7.505   5.286   2.512 -0.3093 -1.3687  1.4562
  504MOL0     H69486   7.555   5.120   2.483  4.2660  2.0939  6.6061
  504MOL0     H69487   7.539   5.362   2.290  2.8831 -0.9479  0.6467
  504MOL0     H69488   7.560   5.191   2.232 -0.6253  0.1476 -0.2059
  504MOL0     H69489   7.329   5.139   2.328 -1.2132 -1.1551 -2.3195
  504MOL0     H69490   7.306   5.316   2.364 -0.6385  0.6330  0.1225
  504MOL0     H69491   7.357   5.343   2.117  0.0702  0.7166  0.9700
  504MOL0     H69492   7.371   5.167   2.114 -1.2403 -0.0104 -0.3738
  504MOL0     H69493   7.134   5.319   2.059 -0.5216  0.8081  2.0075
  504MOL0     H69494   7.114   5.320   2.224  0.9918  1.1590 -0.9364
  504MOL0     H69495   7.101   5.053   2.211 -1.4348  0.5619  1.2879
  504MOL0     H69496   6.967   5.157   2.159 -0.3695 -1.1702  1.9815
  504MOL0     H69497   7.162   5.054   1.937 -0.2315  3.3787 -1.3417
  504MOL0     H69498   7.017   5.141   1.938 -0.4571  0.1832  0.4019
  504MOL0     H69499   6.894   4.950   2.049 -0.0987 -2.0912 -0.0662
  504MOL0     H69500   6.936   4.950   1.883  1.0849 -0.3805 -0.6412
  504MOL0     H69501   7.165   4.809   1.810 -1.2196  1.8406 -0.3791
  504MOL0     H69502   7.199   4.430   1.901  0.3071  0.0896 -0.4292
  504MOL0     H69503   7.245   4.519   1.767  0.0138 -0.0830  0.3359
  504MOL0     H69504   7.046   4.344   1.751 -1.1008 -0.4940  1.8543
  504MOL0     H69505   6.950   4.466   1.841  1.2226 -0.3072  2.2361
  504MOL0     H69506   6.930   4.612   1.648  0.1527  0.1494  0.2713
  504MOL0     H69507   7.067   4.533   1.569 -0.4961  0.8332  0.0435
  504MOL0     H69508   6.923   4.319   1.573 -0.4270 -0.3405 -0.8810
  504MOL0     H69509   6.795   4.430   1.617  0.9292  0.7759  1.7503
  504MOL0     H69510   6.654   4.308   1.517 -0.8795 -1.3332  0.5051
  504MOL0     H69511   6.372   4.292   1.424  0.2337 -0.0103  0.7154
  504MOL0     H69512   6.479   4.166   1.503  0.8938  1.0799  1.1453
  504MOL0     H69513   6.398   4.122   1.356 -1.8594 -0.4509  2.2920
  504MOL0     H69514   6.292   3.951   1.195  2.2168 -0.2056 -1.3396
  504MOL0     H69515   6.155   3.776   1.040  0.4957  0.6759  2.9066
  504MOL0     H69516   5.889   3.945   0.778  1.1914  0.2722 -0.2540
  504MOL0     H69517   6.004   3.929   0.649 -0.1334 -1.5017 -0.3169
  504MOL0     H69518   5.798   3.798   0.613 -1.0962  1.6609  2.5519
  504MOL0     H69519   5.956   3.711   0.596  0.5031  2.1040  0.1162
  504MOL0     H69520   5.768   3.668   0.822 -1.7600 -1.4980 -1.9688
  504MOL0     H69521   5.928   3.609   0.813 -1.1989 -1.6777  0.5935
  504MOL0     H69522   5.890   3.485   0.619 -1.3591 -1.2676  0.7631
  504MOL0     H69523   5.734   3.564   0.586  1.7001  2.1222 -1.1981
  504MOL0     H69524   5.725   3.337   0.696 -2.0839  2.8902 -1.2703
  504MOL0     H69525   5.801   3.409   0.842  1.3990  1.5374 -1.1334
  504MOL0     H69526   5.544   3.506   0.716  2.0601  0.5852 -1.5065
  504MOL0     H69527   5.600   3.542   0.888  1.9328 -3.0167  2.3289
  504MOL0     H69528   5.427   3.397   0.929  1.1242  0.0661  1.9597
  504MOL0     H69529   5.559   3.314   0.959 -3.6281 -0.4412  1.5740
  504MOL0     H69530   5.447   3.157   0.837 -3.7846  2.1159 -0.2630
  504MOL0     H69531   5.572   3.214   0.721  1.7478 -1.9048  3.8511
  504MOL0     H69532   6.118   4.096   0.758 -0.3931  0.4003  0.2336
  504MOL0     H69533   6.262   4.239   0.893  0.9905  0.6915  1.9355
  504MOL0     H69534   6.694   4.360   1.028 -2.5197 -2.0296 -0.3271
  504MOL0     H69535   6.861   4.453   1.168 -0.1289 -1.0366 -1.5800
  504MOL0     H69536   7.643   5.139   2.667  0.1661  0.9614  0.8587
  504MOL0     H69537   7.815   5.104   2.858 -3.4729  1.1915  0.8274
  504MOL0     H69538   8.231   5.077   2.952  4.2277  0.2415 -0.0558
  504MOL0     H69539   8.352   4.963   3.107 -1.3665  0.5310 -2.1132
  504MOL0     H69540   8.491   4.892   3.233  0.7147 -2.9055  0.2665
  504MOL0     H69541   8.517   4.904   3.409 -2.3500 -1.2957  2.7301
  504MOL0     H69542   8.434   4.685   3.318 -0.9396  0.3119 -0.1622
  504MOL0     H69543   8.290   4.762   3.265 -0.6703 -0.7619  0.7220
  504MOL0     H69544   8.375   4.761   3.564  2.1607 -1.4023 -1.1899
  504MOL0     H69545   8.217   4.790   3.488 -0.3442 -2.0365 -3.0153
  504MOL0     H69546   8.254   4.572   3.626 -2.8484 -2.3214 -0.5816
  504MOL0     H69547   8.330   4.510   3.476  1.6984  2.0323 -1.2916
  504MOL0     H69548   7.918   4.503   3.404  0.5621  1.6013 -4.1799
  504MOL0     H69549   8.188   5.186   3.432  4.5418 -1.8599  0.5359
  504MOL0     H69550   7.902   5.287   3.289  0.8666 -0.9607 -1.7495
  504MOL0     H69551   8.036   5.359   3.379  2.0157  0.7181 -0.2575
  504MOL0     H69552   8.002   5.408   3.209 -0.9610 -0.8563 -1.2805
  505MOL0     O69553   4.537   1.078   8.176  0.0150 -0.3812 -0.5988
  505MOL0     C69554   4.508   0.985   8.097  1.1370 -0.9328  0.1207
  505MOL0     O69555   4.447   0.865   8.143  0.3153  0.3925  0.5831
  505MOL0     C69556   4.411   0.858   8.282  0.0219 -0.5479  0.5470
  505MOL0     C69557   4.470   0.765   8.367 -1.0416 -0.3759 -0.1293
  505MOL0     C69558   4.434   0.778   8.505 -0.0609  0.3685 -0.4044
  505MOL0     C69559   4.336   0.868   8.570 -0.1990 -0.0747  0.2626
  505MOL0     O69560   4.322   0.893   8.700 -0.5658  0.2137 -0.0008
  505MOL0     C69561   4.430   0.834   8.787  0.3735 -0.7171 -0.3464
  505MOL0     C69562   4.418   0.891   8.934  0.3188  0.3439  0.3010
  505MOL0     C69563   4.485   1.019   8.962  0.2213  0.0625 -0.3672
  505MOL0     C69564   4.616   0.994   9.042 -0.5516  0.1514 -0.4819
  505MOL0     C69565   4.674   1.119   9.123  0.2913  1.5404  0.3028
  505MOL0     C69566   4.704   1.230   9.025 -0.3518  0.2241 -0.6267
  505MOL0     C69567   4.760   1.350   9.106 -0.3391  1.1949 -0.3411
  505MOL0     C69568   4.832   1.455   9.015  0.0508 -0.4444 -0.0848
  505MOL0     N69569   4.948   1.405   8.940  0.4865  0.7297  0.6133
  505MOL0     C69570   5.054   1.328   8.993  0.5637 -0.8229  0.2035
  505MOL0     C69571   5.140   1.307   8.897 -0.2092  0.8113  0.2165
  505MOL0     C69572   5.272   1.246   8.927 -0.8807  0.2809  0.7186
  505MOL0     C69573   5.365   1.353   8.974 -0.4143 -0.0969  0.5585
  505MOL0     C69574   5.363   1.374   9.120  0.0069 -0.1037  0.8499
  505MOL0     C69575   5.471   1.471   9.165  0.0385 -0.4903 -0.2878
  505MOL0     O69576   5.607   1.424   9.161  0.3036  0.4920 -0.4325
  505MOL0     C69577   5.692   1.498   9.087 -0.1299  0.6679 -0.1613
  505MOL0     C69578   5.748   1.619   9.138  0.3529 -0.4835 -0.3593
  505MOL0     C69579   5.852   1.691   9.072  0.3311 -0.8012  0.5494
  505MOL0     C69580   5.910   1.809   9.147 -0.4611  0.4777 -0.2195
  505MOL0     C69581   5.893   1.655   8.945  0.6053  0.5415  0.5683
  505MOL0     C69582   5.994   1.732   8.869  0.2184 -0.4723  0.0335
  505MOL0     O69583   6.027   1.861   8.916 -0.9176  0.5373 -0.4826
  505MOL0     C69584   6.103   1.951   8.840  0.0274  0.0780 -0.3770
  505MOL0     C69585   6.205   2.004   8.910 -0.2473 -0.7851 -0.9915
  505MOL0     C69586   6.274   2.120   8.856 -0.1850 -0.2189 -0.2365
  505MOL0     C69587   6.234   2.175   8.732  0.4277  0.1903  0.2535
  505MOL0     O69588   6.296   2.282   8.680 -0.6696  0.0158 -0.1372
  505MOL0     C69589   6.441   2.253   8.660 -0.9836 -0.3588  0.2668
  505MOL0     C69590   6.505   2.279   8.512  0.4938 -0.2655  0.3161
  505MOL0     C69591   6.450   2.154   8.431  0.0230 -0.1302  0.3168
  505MOL0     C69592   6.482   2.147   8.282 -0.5116  0.3233 -0.7250
  505MOL0     C69593   6.425   2.263   8.195 -1.2747 -0.4363 -1.4559
  505MOL0     C69594   6.274   2.290   8.202 -0.1621 -0.6632 -0.0146
  505MOL0     C69595   6.216   2.397   8.105 -0.0348 -0.1347  0.0085
  505MOL0     C69596   6.067   2.431   8.108 -0.5159 -0.1732  0.5307
  505MOL0    Cl69597   6.019   2.453   8.275  0.1050  0.4346 -0.6058
  505MOL0     C69598   6.136   2.112   8.664  0.5082 -0.6632  0.2200
  505MOL0     C69599   6.066   2.005   8.718 -0.2194  0.0551  0.0184
  505MOL0     O69600   6.047   1.674   8.768  0.2651  0.0431 -0.3638
  505MOL0     C69601   5.841   1.533   8.891  0.2600 -0.4791 -0.0846
  505MOL0     C69602   5.737   1.460   8.958  0.0990 -0.0497  0.3193
  505MOL0     N69603   5.087   1.357   8.779 -0.3206 -0.0642  0.2286
  505MOL0     N69604   4.972   1.413   8.807 -0.2245 -0.6647  0.5682
  505MOL0     C69605   4.264   0.945   8.478 -0.1624  0.0742  1.1861
  505MOL0     C69606   4.306   0.932   8.344  0.4647 -0.4503  0.1288
  505MOL0     C69607   4.542   0.993   7.956  0.4058  0.3896  0.6581
  505MOL0     C69608   4.444   0.948   7.866  1.3186 -1.2256 -0.4463
  505MOL0     C69609   4.467   0.951   7.732  0.1146 -0.1456 -0.3369
  505MOL0     C69610   4.591   0.994   7.679 -0.0660  0.0935 -0.4602
  505MOL0     O69611   4.621   0.989   7.548  0.3434  0.2960  0.2159
  505MOL0     C69612   4.555   0.899   7.463 -0.8212  0.1716 -0.4382
  505MOL0     C69613   4.624   0.897   7.340 -0.7418  0.7781  0.6501
  505MOL0     C69614   4.636   1.031   7.270  0.0332 -0.4346  0.4725
  505MOL0     C69615   4.602   1.035   7.124  1.0404  0.3889  0.0017
  505MOL0     C69616   4.455   1.033   7.098  0.0344 -0.9531  0.0738
  505MOL0     C69617   4.334   1.025   7.073  0.6197 -0.8661 -0.5103
  505MOL0     C69618   4.690   1.044   7.767 -0.1195 -0.0075  0.2244
  505MOL0     C69619   4.663   1.044   7.904 -0.0582  0.0835  0.2966
  505MOL0     C69620   4.785   1.076   7.993 -0.0926 -0.0473  0.2654
  505MOL0     H69621   4.545   0.690   8.342 -2.7706 -1.8706 -1.0721
  505MOL0     H69622   4.485   0.707   8.568 -0.9783  1.3371  1.5211
  505MOL0     H69623   4.521   0.875   8.744  0.0603  2.6153  1.7979
  505MOL0     H69624   4.429   0.726   8.804 -0.6640 -0.5211  1.0267
  505MOL0     H69625   4.309   0.902   8.941  0.1223  0.6528 -2.2596
  505MOL0     H69626   4.453   0.825   9.014  2.9021  1.5840  0.2954
  505MOL0     H69627   4.505   1.060   8.862  0.1709 -2.8992 -1.7081
  505MOL0     H69628   4.418   1.087   9.015  0.5443  2.8118 -3.1760
  505MOL0     H69629   4.588   0.927   9.124  0.8641 -3.9677 -3.0456
  505MOL0     H69630   4.699   0.942   8.993  0.7036  0.7078  0.9452
  505MOL0     H69631   4.759   1.093   9.186  0.4863 -0.2096 -0.6092
  505MOL0     H69632   4.594   1.154   9.189 -3.1572  1.8872 -3.6035
  505MOL0     H69633   4.776   1.200   8.948  0.1599 -0.8639  0.2466
  505MOL0     H69634   4.613   1.258   8.972 -1.1195 -0.5483  0.2306
  505MOL0     H69635   4.839   1.320   9.175  0.6368  2.3526 -0.9145
  505MOL0     H69636   4.684   1.397   9.169  0.2332 -1.7705  2.8995
  505MOL0     H69637   4.761   1.516   8.959  0.2241  1.2704  1.4849
  505MOL0     H69638   4.878   1.528   9.082 -2.6135 -0.3971  1.8505
  505MOL0     H69639   5.065   1.303   9.098 -2.5004 -0.5006  0.6803
  505MOL0     H69640   5.324   1.204   8.840 -0.5607  2.1962 -0.0552
  505MOL0     H69641   5.255   1.158   8.990 -0.4644 -0.2089  0.1530
  505MOL0     H69642   5.460   1.314   8.936 -0.7670  0.5981 -1.1771
  505MOL0     H69643   5.350   1.441   8.909 -0.3090  0.3792  1.1702
  505MOL0     H69644   5.264   1.410   9.147 -0.2562 -1.9059  2.5118
  505MOL0     H69645   5.385   1.280   9.172  1.8623 -0.6633 -0.8075
  505MOL0     H69646   5.464   1.553   9.093 -0.1557 -0.0402  0.2356
  505MOL0     H69647   5.437   1.498   9.266 -3.0319 -2.9900 -0.5095
  505MOL0     H69648   5.708   1.661   9.229  0.2010 -3.3402  1.0105
  505MOL0     H69649   5.853   1.899   9.120  0.9890  1.0084 -1.6167
  505MOL0     H69650   6.018   1.820   9.138 -0.3960 -1.1507 -2.0560
  505MOL0     H69651   5.901   1.786   9.253  3.5410  1.0321  0.3926
  505MOL0     H69652   6.236   1.960   9.004 -2.5143  1.2281  0.8503
  505MOL0     H69653   6.351   2.160   8.921  2.8026 -1.5759 -2.6924
  505MOL0     H69654   6.487   2.334   8.718 -0.6932 -2.6794  3.5278
  505MOL0     H69655   6.481   2.165   8.710 -0.3466  0.7028  1.7242
  505MOL0     H69656   6.457   2.372   8.479  2.6408  1.9933  2.9976
  505MOL0     H69657   6.613   2.292   8.510  0.4072  0.4892  0.3113
  505MOL0     H69658   6.341   2.147   8.440 -0.0773  1.6564  0.7713
  505MOL0     H69659   6.506   2.075   8.482  2.7576  2.4516  1.5784
  505MOL0     H69660   6.445   2.054   8.237  2.0027 -1.7268  1.1531
  505MOL0     H69661   6.591   2.135   8.278 -0.6459 -3.2591  1.6766
  505MOL0     H69662   6.471   2.360   8.216 -3.3511  0.7750 -2.2065
  505MOL0     H69663   6.454   2.235   8.093 -1.9275  1.8851 -2.3243
  505MOL0     H69664   6.242   2.329   8.299 -0.6541 -0.3208 -0.3114
  505MOL0     H69665   6.216   2.202   8.172 -0.9150  0.2130 -1.2180
  505MOL0     H69666   6.253   2.371   8.006 -0.7973  2.7939 -1.1423
  505MOL0     H69667   6.268   2.491   8.126 -3.1443  1.5348  0.8654
  505MOL0     H69668   6.008   2.358   8.052  0.6539 -1.9769  1.5363
  505MOL0     H69669   6.045   2.529   8.063  0.3807  1.1645  2.8032
  505MOL0     H69670   6.104   2.157   8.570 -0.2953  0.9011  1.2047
  505MOL0     H69671   5.981   1.965   8.663 -0.6164 -0.5088  0.9930
  505MOL0     H69672   5.885   1.493   8.800  1.2143 -1.5515  0.8200
  505MOL0     H69673   5.704   1.370   8.906 -0.9038  0.8596 -0.6625
  505MOL0     H69674   4.192   1.024   8.496  2.1887  2.8791 -0.5915
  505MOL0     H69675   4.253   0.979   8.261  1.5088 -1.8512 -1.3986
  505MOL0     H69676   4.352   0.907   7.905  1.6479 -0.6714  0.9573
  505MOL0     H69677   4.386   0.915   7.669 -1.6813 -2.2241  2.9238
  505MOL0     H69678   4.545   0.799   7.506 -0.0223 -0.3806 -1.5149
  505MOL0     H69679   4.451   0.917   7.433 -1.0631 -1.3954 -0.6298
  505MOL0     H69680   4.569   0.827   7.277  1.3856  1.4949 -2.2003
  505MOL0     H69681   4.722   0.851   7.350 -1.0799 -0.1487 -0.1512
  505MOL0     H69682   4.566   1.108   7.305 -0.7010  0.3689 -2.4445
  505MOL0     H69683   4.739   1.065   7.271 -0.7434  2.2157  2.9867
  505MOL0     H69684   4.657   0.957   7.071 -0.3957 -0.4828 -0.2661
  505MOL0     H69685   4.639   1.134   7.097 -2.7409  1.5841 -1.4771
  505MOL0     H69686   4.227   1.011   7.068  0.0133  2.4546  0.7081
  505MOL0     H69687   4.784   1.079   7.727  0.3199 -0.2163  1.0583
  505MOL0     H69688   4.799   0.996   8.066 -3.5784 -1.1899 -0.1660
  505MOL0     H69689   4.877   1.078   7.933 -0.4829 -0.0872 -0.3400
  505MOL0     H69690   4.755   1.169   8.043  0.9330  0.5637 -0.2063
  506MOL0     O69691   3.773  10.773   5.307 -0.2867 -0.9781  0.1273
  506MOL0     C69692   3.739  10.659   5.283 -0.5052 -0.2201  0.3726
  506MOL0     O69693   3.779  10.550   5.359 -0.6546  0.6708  0.5207
  506MOL0     C69694   3.889  10.564   5.441 -0.6866  0.7037 -0.5890
  506MOL0     C69695   4.007  10.636   5.413  0.0816 -0.2236 -0.1582
  506MOL0     C69696   4.115  10.647   5.504  0.2300  0.3851 -0.6141
  506MOL0     C69697   4.106  10.574   5.628 -0.6109 -0.6150  0.0772
  506MOL0     O69698   4.209  10.568   5.711  0.1178 -0.4685 -0.1779
  506MOL0     C69699   4.246  10.699   5.768  1.3209 -0.4708  1.5317
  506MOL0     C69700   4.403  10.693   5.782  0.5116 -0.3138  0.1509
  506MOL0     C69701   4.473  10.831   5.795  0.6884 -0.1149  0.1971
  506MOL0     C69702   4.452  10.915   5.670  0.6415 -0.5654 -0.1131
  506MOL0     C69703   4.508  11.053   5.679 -0.0225 -0.6720 -0.0492
  506MOL0     C69704   4.460  11.137   5.560 -0.2098 -0.0971 -0.6956
  506MOL0     C69705   4.519  11.282   5.556  0.5557  0.0466  0.1961
  506MOL0     C69706   4.665  11.273   5.515 -0.7253 -0.4706 -0.4153
  506MOL0     N69707   4.748  11.362   5.588 -0.0116  0.7599 -0.4653
  506MOL0     C69708   4.826  11.349   5.698  0.1185  0.7880  0.4574
  506MOL0     C69709   4.857  11.476   5.726  0.5954 -0.2507  0.0562
  506MOL0     C69710   4.950  11.509   5.835 -1.3037 -1.0741 -0.4717
  506MOL0     C69711   5.064  11.612   5.776  2.1147  0.2571 -0.2538
  506MOL0     C69712   5.173  11.649   5.872  1.1187 -0.3633 -0.1231
  506MOL0     C69713   5.304  11.691   5.794  0.7790  0.6954 -0.7117
  506MOL0     O69714   5.391  11.748   5.899  0.6013 -0.3868  0.1852
  506MOL0     C69715   5.527  11.751   5.883  0.0343 -0.4180 -0.0212
  506MOL0     C69716   5.605  11.823   5.980  0.8493  0.5179  0.1278
  506MOL0     C69717   5.739  11.836   5.966 -0.7170  0.5034 -0.8028
  506MOL0     C69718   5.804  11.924   6.069  0.0569 -0.0122  0.7698
  506MOL0     C69719   5.813  11.760   5.861  0.1621 -0.3526  0.2942
  506MOL0     C69720   5.964  11.758   5.861  0.0007  0.7427 -0.6630
  506MOL0     O69721   6.010  11.683   5.753 -0.1986 -0.6866 -0.8373
  506MOL0     C69722   6.144  11.671   5.730  0.2504  1.0297  0.1560
  506MOL0     C69723   6.223  11.581   5.799 -0.6499 -0.6929  0.1474
  506MOL0     C69724   6.359  11.563   5.771  0.6286 -0.0485 -0.0766
  506MOL0     C69725   6.409  11.623   5.659  0.0593  0.0608 -0.0645
  506MOL0     O69726   6.534  11.605   5.611 -0.8602 -0.6524 -0.3652
  506MOL0     C69727   6.641  11.540   5.681 -0.2282  0.0593  0.3081
  506MOL0     C69728   6.762  11.519   5.585  0.0833  0.1058 -0.1367
  506MOL0     C69729   6.724  11.432   5.465  0.3793 -0.1281  0.1975
  506MOL0     C69730   6.854  11.418   5.362  0.4078 -0.2742 -0.2709
  506MOL0     C69731   6.821  11.330   5.239 -0.2016 -0.2015 -1.1198
  506MOL0     C69732   6.764  11.191   5.266  0.8148  0.5755  1.0496
  506MOL0     C69733   6.865  11.109   5.339  0.7305  0.7342  1.1785
  506MOL0     C69734   6.814  10.967   5.347  0.6934  0.6941 -0.7071
  506MOL0    Cl69735   6.901  10.881   5.476  0.2683 -0.0658 -0.6561
  506MOL0     C69736   6.331  11.714   5.589 -0.6071 -0.2832  0.3263
  506MOL0     C69737   6.201  11.732   5.625 -0.3087 -0.2644  0.0621
  506MOL0     O69738   6.036  11.814   5.941  0.3546  0.0507  0.5889
  506MOL0     C69739   5.729  11.687   5.759  0.5300 -0.1146 -0.7605
  506MOL0     C69740   5.587  11.690   5.769 -0.7417  0.0482 -1.3338
  506MOL0     N69741   4.809  11.560   5.627 -0.1855 -0.6803  0.5842
  506MOL0     N69742   4.753  11.492   5.545  0.2249  0.2393  0.0059
  506MOL0     C69743   3.987  10.510   5.667  0.3875 -0.0808 -0.3095
  506MOL0     C69744   3.884  10.510   5.569  0.3504 -0.2675 -0.1314
  506MOL0     C69745   3.652  10.630   5.159  0.3924  0.1153 -0.6737
  506MOL0     C69746   3.586  10.502   5.144 -0.0734 -0.1655 -0.2106
  506MOL0     C69747   3.490  10.484   5.045  0.5390 -0.5009 -0.2853
  506MOL0     C69748   3.454  10.580   4.952  0.4442 -0.1209  0.1445
  506MOL0     O69749   3.374  10.536   4.847  0.5345 -0.6383  0.1894
  506MOL0     C69750   3.320  10.633   4.757  0.2566 -0.0879  0.1940
  506MOL0     C69751   3.187  10.580   4.683 -0.4324 -0.6014 -0.4150
  506MOL0     C69752   3.084  10.509   4.775 -0.2862 -0.6014  0.1217
  506MOL0     C69753   3.125  10.392   4.868  0.3406 -0.3367 -0.1864
  506MOL0     C69754   3.003  10.313   4.893 -0.1434 -0.2337  0.4253
  506MOL0     C69755   2.900  10.258   4.909  0.6129 -0.0055 -0.4928
  506MOL0     C69756   3.525  10.698   4.955 -1.2222  0.5417 -0.0858
  506MOL0     C69757   3.623  10.720   5.059  0.6291 -0.5436 -0.2006
  506MOL0     C69758   3.689  10.852   5.046  0.6127 -0.3338 -0.4509
  506MOL0     H69759   4.019  10.677   5.314  1.0577  2.1910  0.8954
  506MOL0     H69760   4.200  10.707   5.470  0.0753  0.6626 -0.5173
  506MOL0     H69761   4.212  10.720   5.869  1.2060 -1.6781  1.7562
  506MOL0     H69762   4.207  10.778   5.704 -2.1786 -0.4975  3.4180
  506MOL0     H69763   4.426  10.624   5.864  2.4021 -0.1740 -0.2115
  506MOL0     H69764   4.449  10.633   5.704  0.6677  0.7278 -0.5773
  506MOL0     H69765   4.436  10.890   5.880 -0.2936  0.0270 -0.3233
  506MOL0     H69766   4.580  10.826   5.815  0.7473 -0.7819 -0.2458
  506MOL0     H69767   4.481  10.859   5.581  3.0026 -1.4307  1.1193
  506MOL0     H69768   4.345  10.939   5.671  0.7317  0.2189 -2.5293
  506MOL0     H69769   4.617  11.038   5.673 -0.4272 -3.9033 -2.0093
  506MOL0     H69770   4.471  11.105   5.767  3.1275 -1.9266  2.2166
  506MOL0     H69771   4.473  11.089   5.462 -4.0883  0.1257 -1.5169
  506MOL0     H69772   4.351  11.143   5.570 -0.1416 -1.8439  2.1349
  506MOL0     H69773   4.515  11.325   5.657 -4.1611  0.2031  0.1717
  506MOL0     H69774   4.459  11.346   5.491 -1.0058 -1.1082  0.4322
  506MOL0     H69775   4.715  11.178   5.538  0.1469  0.5266  2.2290
  506MOL0     H69776   4.681  11.300   5.411  0.8477 -3.4374 -1.0426
  506MOL0     H69777   4.865  11.254   5.735  0.9534  0.8305 -0.2845
  506MOL0     H69778   5.006  11.421   5.869 -0.1985 -0.7939 -1.4645
  506MOL0     H69779   4.890  11.545   5.919 -1.4774 -1.5617 -0.3828
  506MOL0     H69780   5.099  11.562   5.686  3.5273 -0.9397  0.9063
  506MOL0     H69781   5.013  11.703   5.743 -0.4570 -0.6897  0.8343
  506MOL0     H69782   5.129  11.722   5.941  2.3598  0.4733 -0.1908
  506MOL0     H69783   5.206  11.559   5.925  2.0684  1.3754  2.4406
  506MOL0     H69784   5.341  11.607   5.736 -0.0227 -1.0448  1.1863
  506MOL0     H69785   5.282  11.776   5.728  0.1366  1.0510 -0.0616
  506MOL0     H69786   5.555  11.875   6.061 -0.2150  0.5117 -0.5077
  506MOL0     H69787   5.885  11.987   6.030 -1.5259  1.7900  0.2872
  506MOL0     H69788   5.843  11.863   6.151 -0.1780  0.1668  1.0120
  506MOL0     H69789   5.741  11.999   6.117  3.8390  3.1341  1.3524
  506MOL0     H69790   6.181  11.525   5.883  0.8066  0.0421  1.4090
  506MOL0     H69791   6.415  11.494   5.834 -2.5819 -1.7216  1.1701
  506MOL0     H69792   6.670  11.599   5.768 -0.8260 -0.1363  0.6460
  506MOL0     H69793   6.613  11.447   5.731  0.9870 -1.3168 -1.4258
  506MOL0     H69794   6.799  11.617   5.552 -0.3826  1.8373  3.8000
  506MOL0     H69795   6.840  11.475   5.648  0.0800  0.9071  0.4428
  506MOL0     H69796   6.633  11.473   5.421 -0.4491 -0.2465  1.7554
  506MOL0     H69797   6.712  11.334   5.510  0.5858  0.0020  0.5446
  506MOL0     H69798   6.951  11.388   5.403  1.4080  0.5624 -1.9142
  506MOL0     H69799   6.874  11.518   5.322 -2.2192  0.9215  1.1132
  506MOL0     H69800   6.741  11.367   5.174 -0.5972  0.3836 -0.3132
  506MOL0     H69801   6.911  11.342   5.177  1.5409  2.1053  1.5810
  506MOL0     H69802   6.742  11.132   5.177 -2.5034 -1.1237  2.8231
  506MOL0     H69803   6.671  11.194   5.323 -0.2256  0.3655 -0.5925
  506MOL0     H69804   6.866  11.147   5.442 -1.6969  0.6280  1.2955
  506MOL0     H69805   6.961  11.116   5.288  0.6981 -1.8333  0.6300
  506MOL0     H69806   6.831  10.920   5.250 -0.4527 -1.5832  0.1158
  506MOL0     H69807   6.707  10.971   5.368  0.4779 -0.2559 -1.5180
  506MOL0     H69808   6.370  11.769   5.504 -1.3968  2.4070  1.6047
  506MOL0     H69809   6.139  11.797   5.563  0.3161  1.5905  1.2871
  506MOL0     H69810   5.776  11.641   5.673 -1.0772 -1.2613 -1.0802
  506MOL0     H69811   5.537  11.627   5.697 -5.6653  4.2019 -2.1385
  506MOL0     H69812   3.983  10.441   5.751 -1.7867 -0.8958 -1.0146
  506MOL0     H69813   3.802  10.443   5.593 -1.5056  2.3901  1.3840
  506MOL0     H69814   3.612  10.431   5.222  0.7105 -0.7864 -1.0156
  506MOL0     H69815   3.438  10.389   5.042  1.0939 -0.7994 -2.6724
  506MOL0     H69816   3.283  10.718   4.816 -2.0317 -2.2822  2.1438
  506MOL0     H69817   3.399  10.661   4.687  0.2481 -3.7978 -1.5450
  506MOL0     H69818   3.222  10.496   4.621 -0.0772 -1.9274  1.4896
  506MOL0     H69819   3.142  10.661   4.625 -0.9002  0.1199  0.9124
  506MOL0     H69820   3.045  10.583   4.847  3.7946 -0.5853  2.6262
  506MOL0     H69821   3.016  10.474   4.697  1.4753  1.2847 -2.4442
  506MOL0     H69822   3.170  10.442   4.954  0.4114  2.8206 -1.9413
  506MOL0     H69823   3.206  10.334   4.822  0.8525  0.0962  0.1660
  506MOL0     H69824   2.828  10.182   4.932  2.4718 -1.0486  2.6137
  506MOL0     H69825   3.511  10.775   4.880 -1.7059  1.3823  0.8550
  506MOL0     H69826   3.651  10.923   5.120 -1.0881  0.1728 -1.7684
  506MOL0     H69827   3.796  10.831   5.060  1.0973  2.3251  0.6134
  506MOL0     H69828   3.677  10.897   4.947  0.0429  0.1606 -0.1635
  507MOL0     O69829   8.262   7.295   3.688 -0.4388  0.4534 -0.1366
  507MOL0     C69830   8.156   7.306   3.623 -0.2782 -0.0772  0.3471
  507MOL0     O69831   8.139   7.229   3.512  0.2780  0.4530  0.1890
  507MOL0     C69832   8.237   7.138   3.479  0.0810 -0.0329  0.4820
  507MOL0     C69833   8.331   7.177   3.385 -0.4540  0.2432  0.0554
  507MOL0     C69834   8.434   7.091   3.339 -0.4217 -0.7020 -0.2809
  507MOL0     C69835   8.434   6.959   3.370  0.1779  0.2315 -1.1321
  507MOL0     O69836   8.525   6.871   3.307 -0.2521  0.5958 -0.3533
  507MOL0     C69837   8.582   6.765   3.378 -1.0251  0.7986 -0.2473
  507MOL0     C69838   8.681   6.817   3.484 -0.2120  0.7057  0.6165
  507MOL0     C69839   8.803   6.898   3.448  0.0487 -0.8806  0.6511
  507MOL0     C69840   8.833   7.007   3.549  0.2312  0.3666  0.8199
  507MOL0     C69841   8.951   7.099   3.520 -1.3862  0.1999  0.1196
  507MOL0     C69842   8.990   7.192   3.636 -1.2166  0.3631 -0.6052
  507MOL0     C69843   9.141   7.233   3.614  1.0792  0.7237 -0.1523
  507MOL0     C69844   9.209   7.302   3.736 -0.0119  0.5457 -1.4459
  507MOL0     N69845   9.176   7.237   3.864  0.5720  0.0048  0.1549
  507MOL0     C69846   9.109   7.297   3.965 -1.5909  0.2588  1.7405
  507MOL0     C69847   9.126   7.216   4.068 -0.3920 -0.0008  0.1443
  507MOL0     C69848   9.056   7.241   4.196  0.2287 -0.7412 -0.1209
  507MOL0     C69849   9.095   7.371   4.269 -0.1833  0.1143  0.7185
  507MOL0     C69850   9.003   7.398   4.395  0.3879 -0.1573  0.5274
  507MOL0     C69851   8.852   7.435   4.355  0.2930  1.1315  0.1495
  507MOL0     O69852   8.854   7.547   4.261 -0.3090  0.1972  0.2443
  507MOL0     C69853   8.832   7.532   4.123 -0.5603 -1.1007  0.0744
  507MOL0     C69854   8.753   7.444   4.053 -0.4725  0.2807  0.3035
  507MOL0     C69855   8.739   7.442   3.910  0.2917 -0.3716  0.1382
  507MOL0     C69856   8.650   7.336   3.838 -0.5012 -0.3754  0.7000
  507MOL0     C69857   8.811   7.533   3.841 -0.7368  0.6724  0.2612
  507MOL0     C69858   8.832   7.529   3.696  0.4295 -0.7104  0.2487
  507MOL0     O69859   8.965   7.541   3.643 -0.1807  0.5772 -0.3388
  507MOL0     C69860   8.985   7.563   3.513  1.4352  0.4741  0.5845
  507MOL0     C69861   9.097   7.637   3.474  0.3980 -0.5587  0.3562
  507MOL0     C69862   9.135   7.649   3.336 -0.8181  0.0118 -0.2171
  507MOL0     C69863   9.054   7.576   3.239 -0.3397 -0.5192  1.1239
  507MOL0     O69864   9.102   7.589   3.109  0.2254 -0.0746 -0.5409
  507MOL0     C69865   8.994   7.615   3.012 -0.0053  1.0289 -1.0097
  507MOL0     C69866   8.988   7.491   2.920  0.6152  0.3331  0.5561
  507MOL0     C69867   8.920   7.545   2.790 -0.3242  0.3360  0.2116
  507MOL0     C69868   8.875   7.425   2.701  0.2648 -0.2790  0.5904
  507MOL0     C69869   8.869   7.476   2.551 -0.1657 -0.1173 -0.1067
  507MOL0     C69870   8.776   7.587   2.530 -0.7556  0.3869  0.5017
  507MOL0     C69871   8.637   7.560   2.597 -0.7224 -0.5224 -0.5618
  507MOL0     C69872   8.529   7.621   2.524 -0.1562 -0.1509  0.0997
  507MOL0    Cl69873   8.518   7.566   2.359  0.3819  0.3713  0.4118
  507MOL0     C69874   8.939   7.505   3.278  0.2280 -0.0904 -1.1321
  507MOL0     C69875   8.909   7.492   3.412  0.6473 -0.4223  0.2175
  507MOL0     O69876   8.728   7.530   3.629 -0.2572  0.3846 -0.1673
  507MOL0     C69877   8.894   7.631   3.907  0.5589  0.9223  0.2926
  507MOL0     C69878   8.897   7.634   4.046  0.6867  0.0920 -0.0962
  507MOL0     N69879   9.175   7.094   4.015  0.3206  0.8695 -0.1935
  507MOL0     N69880   9.222   7.116   3.897 -1.0231  0.4868  0.4749
  507MOL0     C69881   8.334   6.913   3.460 -0.5948 -0.6499  0.1146
  507MOL0     C69882   8.243   7.002   3.521  0.0017  0.5479 -0.8451
  507MOL0     C69883   8.055   7.415   3.668  0.0537  0.3163  0.6797
  507MOL0     C69884   8.095   7.491   3.776 -0.7502  0.1708  0.1102
  507MOL0     C69885   8.009   7.590   3.826  0.4721 -0.1090  0.3040
  507MOL0     C69886   7.885   7.616   3.780 -0.1120 -0.9128  0.1035
  507MOL0     O69887   7.807   7.724   3.826 -0.1916  0.3731  0.2242
  507MOL0     C69888   7.720   7.670   3.929  0.5095 -0.4925  0.2826
  507MOL0     C69889   7.624   7.775   3.992  0.1299  0.2586 -0.5500
  507MOL0     C69890   7.698   7.868   4.079 -0.3697 -0.4133  0.0968
  507MOL0     C69891   7.613   7.988   4.129 -0.4572  0.7305 -0.6708
  507MOL0     C69892   7.549   7.930   4.252 -0.4064 -0.3242  0.0089
  507MOL0     C69893   7.521   7.880   4.368 -0.5187  0.1020  0.0753
  507MOL0     C69894   7.833   7.526   3.679 -0.1205  0.3449 -0.8408
  507MOL0     C69895   7.921   7.428   3.623  0.0129  0.2120 -0.0300
  507MOL0     C69896   7.842   7.349   3.511 -0.5976 -0.2568 -0.1615
  507MOL0     H69897   8.333   7.279   3.347  3.2799  0.2174 -0.1950
  507MOL0     H69898   8.516   7.127   3.279  0.1089 -0.2015  0.7264
  507MOL0     H69899   8.632   6.703   3.304 -1.6168 -0.1298  0.1091
  507MOL0     H69900   8.501   6.705   3.423  0.4489  0.2861  1.8743
  507MOL0     H69901   8.623   6.875   3.556  0.1292  0.2275  1.2750
  507MOL0     H69902   8.714   6.727   3.536  0.9637  0.4878 -0.4382
  507MOL0     H69903   8.889   6.831   3.457  0.7926  0.1321  1.2547
  507MOL0     H69904   8.798   6.926   3.342  2.2642 -1.7072  0.2707
  507MOL0     H69905   8.749   7.076   3.540  0.3131  0.1999 -3.0476
  507MOL0     H69906   8.855   6.966   3.648  4.9810  0.8978  0.2289
  507MOL0     H69907   8.940   7.162   3.432 -1.1229  0.5903  0.3657
  507MOL0     H69908   9.035   7.032   3.499 -0.1805  1.6624  0.1675
  507MOL0     H69909   8.922   7.277   3.639  0.6668  1.9772 -1.4107
  507MOL0     H69910   8.981   7.136   3.729  0.3387  0.5303 -0.3209
  507MOL0     H69911   9.142   7.291   3.521  2.7248  1.7597  0.4687
  507MOL0     H69912   9.190   7.136   3.602  0.4990  0.5456 -1.2489
  507MOL0     H69913   9.317   7.293   3.725 -0.1023 -0.5323 -1.6436
  507MOL0     H69914   9.186   7.408   3.749 -2.2742  0.2245 -2.3311
  507MOL0     H69915   9.070   7.399   3.967 -0.9121  0.7385 -1.9398
  507MOL0     H69916   9.066   7.155   4.263 -0.4608 -0.5434  0.2439
  507MOL0     H69917   8.949   7.246   4.177 -0.8913  0.1889  4.9135
  507MOL0     H69918   9.195   7.358   4.309 -0.5305  0.2777  1.6579
  507MOL0     H69919   9.109   7.460   4.207  3.3157  2.4055  4.3500
  507MOL0     H69920   8.997   7.303   4.449  0.9577 -0.4144  0.1537
  507MOL0     H69921   9.048   7.463   4.470  0.8526  0.7804 -0.5231
  507MOL0     H69922   8.812   7.345   4.308  0.5978 -1.0523  3.6870
  507MOL0     H69923   8.799   7.461   4.447  0.9685 -2.1370  1.5831
  507MOL0     H69924   8.702   7.365   4.108  0.1575 -1.3177 -1.3038
  507MOL0     H69925   8.618   7.258   3.908  0.6923  0.2335  1.9703
  507MOL0     H69926   8.711   7.293   3.758 -0.4679 -1.3666  1.2364
  507MOL0     H69927   8.566   7.392   3.797  0.0759 -0.6913 -1.0136
  507MOL0     H69928   9.152   7.679   3.558  0.0172  0.1376  0.2687
  507MOL0     H69929   9.224   7.707   3.313  0.0136 -0.3487  1.8341
  507MOL0     H69930   8.896   7.635   3.054  0.7802 -0.2700  1.6910
  507MOL0     H69931   9.032   7.696   2.949  1.3773  1.0562 -0.2020
  507MOL0     H69932   9.093   7.463   2.913  1.0580  1.1711  2.9126
  507MOL0     H69933   8.942   7.408   2.976 -0.7701  2.8703  3.4855
  507MOL0     H69934   8.988   7.613   2.738  1.7735 -2.2354 -0.6293
  507MOL0     H69935   8.832   7.602   2.823 -1.5120 -1.3927  0.1833
  507MOL0     H69936   8.774   7.391   2.726 -1.1043 -0.6770 -4.4378
  507MOL0     H69937   8.953   7.347   2.704  0.3174 -0.3938 -1.7610
  507MOL0     H69938   8.968   7.510   2.517  0.9936 -1.4199  1.7471
  507MOL0     H69939   8.850   7.387   2.491 -1.6805 -0.6913  1.1464
  507MOL0     H69940   8.762   7.596   2.422 -1.6866 -2.6980  0.2729
  507MOL0     H69941   8.822   7.673   2.579  1.1451  0.9617 -2.0602
  507MOL0     H69942   8.635   7.566   2.707  2.3817 -0.1425 -0.4295
  507MOL0     H69943   8.623   7.454   2.572 -1.2275 -0.9276  1.2489
  507MOL0     H69944   8.546   7.729   2.525 -0.9928  0.0188  2.4351
  507MOL0     H69945   8.434   7.614   2.577 -0.9716  3.6720 -0.5141
  507MOL0     H69946   8.875   7.452   3.207  1.7905 -0.9196 -1.9830
  507MOL0     H69947   8.827   7.424   3.434  0.2045 -0.2316 -0.7981
  507MOL0     H69948   8.938   7.713   3.851  0.7569  0.0552 -0.8493
  507MOL0     H69949   8.944   7.723   4.088  1.4165 -0.7727  0.9825
  507MOL0     H69950   8.342   6.820   3.514 -0.4128 -1.4040 -1.1634
  507MOL0     H69951   8.177   6.956   3.594 -0.8714  2.0237 -0.6804
  507MOL0     H69952   8.182   7.468   3.836 -3.2784 -1.3230  3.4775
  507MOL0     H69953   8.037   7.655   3.909 -4.2205  0.0964  2.0458
  507MOL0     H69954   7.660   7.589   3.886 -1.6663 -1.3104  4.3202
  507MOL0     H69955   7.778   7.620   4.008  3.0735 -1.2503 -1.9483
  507MOL0     H69956   7.548   7.715   4.043  2.0421 -0.2487  1.9215
  507MOL0     H69957   7.566   7.835   3.922  0.1550  0.5009 -0.3653
  507MOL0     H69958   7.749   7.810   4.157 -1.4572  2.0287  2.8324
  507MOL0     H69959   7.772   7.911   4.011  1.0878  1.6180  2.7610
  507MOL0     H69960   7.537   8.012   4.054  1.6621  0.7019 -2.9422
  507MOL0     H69961   7.678   8.069   4.164  1.6215 -1.7984  1.8236
  507MOL0     H69962   7.496   7.823   4.455  1.4016 -1.3549 -0.2431
  507MOL0     H69963   7.731   7.538   3.642 -0.2524 -0.9205 -0.9124
  507MOL0     H69964   7.896   7.263   3.471  0.3818  1.2679 -2.3210
  507MOL0     H69965   7.742   7.329   3.551  0.3366  0.3904  2.7505
  507MOL0     H69966   7.832   7.426   3.434 -0.5498 -0.0104  0.0752
  508MOL0     O69967  11.229  10.376   2.151  0.4816  0.2201 -0.4151
  508MOL0     C69968  11.312  10.460   2.124 -0.2899 -0.5715 -0.8912
  508MOL0     O69969  11.438  10.432   2.092 -0.4587 -0.0449 -0.4554
  508MOL0     C69970  11.491  10.309   2.061  0.5565 -0.0774  0.3312
  508MOL0     C69971  11.414  10.199   2.020  0.1304 -0.4719  0.2313
  508MOL0     C69972  11.471  10.091   1.956 -0.0461 -0.1871 -0.8564
  508MOL0     C69973  11.608  10.077   1.963  0.4558  0.5791 -0.1659
  508MOL0     O69974  11.679   9.977   1.905 -0.1055 -0.0479 -0.2397
  508MOL0     C69975  11.634   9.844   1.919 -0.1176 -0.7039 -0.2278
  508MOL0     C69976  11.682   9.756   1.804  0.4995  0.9230 -0.4280
  508MOL0     C69977  11.837   9.721   1.803  1.1422  0.1396  0.3782
  508MOL0     C69978  11.887   9.641   1.928 -0.6191  0.7324 -0.5057
  508MOL0     C69979  11.993   9.533   1.897  0.4208 -0.0306  0.0104
  508MOL0     C69980  12.101   9.608   1.822 -0.1143  0.0726 -0.2678
  508MOL0     C69981  12.233   9.529   1.817  0.3240 -0.1339  1.2961
  508MOL0     C69982  12.346   9.604   1.743 -0.1872  0.1302  1.0213
  508MOL0     N69983  12.468   9.513   1.740  0.2161  0.6191  0.0546
  508MOL0     C69984  12.557   9.481   1.847 -0.5793 -0.2058 -0.7798
  508MOL0     C69985  12.653   9.403   1.801  0.5274 -0.3228  0.1573
  508MOL0     C69986  12.764   9.363   1.891 -0.9924  0.5683 -0.1026
  508MOL0     C69987  12.853   9.274   1.818  0.0644  0.7518  0.0966
  508MOL0     C69988  12.981   9.238   1.899  0.0587 -0.6502 -0.1457
  508MOL0     C69989  13.048   9.126   1.821 -0.4106  0.2282 -0.3717
  508MOL0     O69990  13.170   9.102   1.897 -0.1047 -0.3852 -0.2696
  508MOL0     C69991  13.273   9.027   1.847  0.7012  0.1834 -0.8407
  508MOL0     C69992  13.395   9.053   1.908  0.3743  0.2245 -0.9141
  508MOL0     C69993  13.494   8.957   1.884 -0.4878  0.1845  0.0309
  508MOL0     C69994  13.625   8.964   1.962 -0.5069 -0.0886  0.2561
  508MOL0     C69995  13.476   8.862   1.787  0.6692  0.9586 -0.4743
  508MOL0     C69996  13.576   8.756   1.756  1.0165 -0.1019  0.5069
  508MOL0     O69997  13.572   8.641   1.830 -0.3977 -0.4284  0.1872
  508MOL0     C69998  13.679   8.555   1.846 -0.2586 -0.6125 -0.3484
  508MOL0     C69999  13.805   8.610   1.871  0.7141 -0.3067 -0.1447
  508MOL0     C70000  13.918   8.523   1.863 -0.6338 -0.5953  0.3894
  508MOL0     C70001  13.898   8.392   1.847  0.1886 -0.5206  0.9775
  508MOL0     O70002  14.020   8.331   1.846  0.4359 -0.0204 -0.2804
  508MOL0     C70003  14.024   8.198   1.815  0.1972 -0.0388  0.0782
  508MOL0     C70004  14.018   8.184   1.654  0.0388  0.3407 -0.0444
  508MOL0     C70005  14.145   8.255   1.598  1.2731 -0.3897 -0.0545
  508MOL0     C70006  14.166   8.222   1.450  0.3527 -1.1090  0.1396
  508MOL0     C70007  14.306   8.245   1.406  0.1701 -1.2353  1.1039
  508MOL0     C70008  14.325   8.221   1.258 -0.0506 -0.2243  0.1440
  508MOL0     C70009  14.407   8.327   1.181  0.0320  0.3064  0.6574
  508MOL0     C70010  14.537   8.368   1.235 -0.0385 -0.3214  0.2689
  508MOL0    Cl70011  14.633   8.217   1.236 -0.3413  0.8583  0.2323
  508MOL0     C70012  13.768   8.341   1.842 -0.7344 -0.2924  0.5976
  508MOL0     C70013  13.656   8.424   1.827 -1.0070 -0.1704  0.0598
  508MOL0     O70014  13.669   8.785   1.685 -0.0955 -0.7349 -0.3447
  508MOL0     C70015  13.358   8.852   1.716 -0.5273  0.0395 -0.1729
  508MOL0     C70016  13.251   8.940   1.745  0.1134 -0.1325 -0.3277
  508MOL0     N70017  12.628   9.367   1.668 -0.6243 -0.5846  0.2368
  508MOL0     N70018  12.522   9.444   1.634 -0.1855  0.2658 -0.1620
  508MOL0     C70019  11.682  10.182   2.013  0.5512  0.2286  0.0519
  508MOL0     C70020  11.628  10.296   2.054  0.6144 -0.1743 -1.0214
  508MOL0     C70021  11.286  10.593   2.175  0.1384  0.3047  0.3196
  508MOL0     C70022  11.394  10.679   2.195  0.0443 -0.0811  0.4540
  508MOL0     C70023  11.381  10.800   2.260  0.2654 -0.3811  0.3659
  508MOL0     C70024  11.256  10.848   2.302 -0.1433 -0.5181  0.5018
  508MOL0     O70025  11.259  10.969   2.365 -0.2723 -0.1136 -0.1805
  508MOL0     C70026  11.142  11.026   2.424 -0.2524 -0.0982  0.9200
  508MOL0     C70027  11.178  11.103   2.549  0.1798 -0.2711  0.1511
  508MOL0     C70028  11.196  11.001   2.666  0.1114  0.2905  0.1513
  508MOL0     C70029  11.180  11.085   2.797  0.2990 -0.1638  0.3620
  508MOL0     C70030  11.290  11.078   2.896 -0.3284 -0.1931 -0.3278
  508MOL0     C70031  11.367  11.063   2.985  0.1814 -0.9226 -0.6884
  508MOL0     C70032  11.143  10.772   2.276 -0.2016  1.2742 -0.4077
  508MOL0     C70033  11.159  10.648   2.205  0.4145 -0.2299 -0.2212
  508MOL0     C70034  11.028  10.592   2.151  0.4349  0.3912 -0.6344
  508MOL0     H70035  11.305  10.204   2.021 -0.0259  5.8068 -1.9421
  508MOL0     H70036  11.396  10.018   1.926 -0.1670  0.5376 -2.4085
  508MOL0     H70037  11.525   9.849   1.919 -0.0958  0.6833 -1.8932
  508MOL0     H70038  11.670   9.799   2.012 -0.8466  1.0289  0.9419
  508MOL0     H70039  11.628   9.665   1.830  0.1069  0.9770 -1.0450
  508MOL0     H70040  11.654   9.803   1.709 -1.6753 -0.9777 -0.7938
  508MOL0     H70041  11.843   9.652   1.718 -0.9720  0.3682 -0.0170
  508MOL0     H70042  11.899   9.808   1.778  0.2242  0.8602  0.5370
  508MOL0     H70043  11.939   9.709   1.997 -1.2011  0.6478  0.0263
  508MOL0     H70044  11.794   9.600   1.968 -1.3130  0.3153 -2.4394
  508MOL0     H70045  11.940   9.448   1.853 -1.2224  0.3841  1.0815
  508MOL0     H70046  12.020   9.491   1.995 -0.8218 -0.4536  0.1884
  508MOL0     H70047  12.064   9.631   1.721 -0.4539  2.1047  0.2781
  508MOL0     H70048  12.132   9.700   1.873 -0.5082  0.1185 -0.1082
  508MOL0     H70049  12.212   9.430   1.776 -1.0808 -0.3704  2.5218
  508MOL0     H70050  12.263   9.511   1.921 -2.3661  1.3768  2.4491
  508MOL0     H70051  12.319   9.619   1.638 -0.2625 -0.1778  0.9936
  508MOL0     H70052  12.368   9.700   1.791 -0.5852 -0.6557  2.8704
  508MOL0     H70053  12.560   9.524   1.947  1.6452  1.7071 -1.5583
  508MOL0     H70054  12.712   9.315   1.975 -0.9399 -0.2323 -0.5214
  508MOL0     H70055  12.822   9.447   1.931 -0.5539 -1.2328  3.5216
  508MOL0     H70056  12.794   9.185   1.795  1.2410  0.1915 -0.8450
  508MOL0     H70057  12.885   9.312   1.721  1.8017 -0.0236  0.3126
  508MOL0     H70058  13.045   9.326   1.897  0.4443 -0.9350 -0.4904
  508MOL0     H70059  12.956   9.217   2.003  0.4958  0.8782  0.2824
  508MOL0     H70060  12.979   9.043   1.814 -0.7460  0.3137  1.4435
  508MOL0     H70061  13.080   9.164   1.724 -0.5506  2.5590  0.4160
  508MOL0     H70062  13.396   9.121   1.992  1.6739  1.2047 -1.6959
  508MOL0     H70063  13.616   9.043   2.037  2.1239 -0.2832  0.8755
  508MOL0     H70064  13.717   8.983   1.905 -0.0634 -1.2432  0.5584
  508MOL0     H70065  13.635   8.866   2.011 -1.0786 -0.4658 -0.3759
  508MOL0     H70066  13.823   8.717   1.879 -0.3582 -0.1063 -0.3190
  508MOL0     H70067  14.013   8.576   1.868 -0.7256 -0.2446 -1.0574
  508MOL0     H70068  14.122   8.156   1.840  0.4480 -2.1568 -3.6492
  508MOL0     H70069  13.942   8.140   1.859  1.5108 -1.0711  1.2735
  508MOL0     H70070  14.025   8.080   1.621  0.6766  0.4843 -0.3859
  508MOL0     H70071  13.916   8.203   1.621 -0.3171 -0.4766  0.5466
  508MOL0     H70072  14.226   8.208   1.654  0.9403 -0.0383  0.7392
  508MOL0     H70073  14.146   8.364   1.612 -2.5285  0.0255 -1.8476
  508MOL0     H70074  14.107   8.293   1.392  0.5702 -1.0417 -0.0007
  508MOL0     H70075  14.138   8.117   1.435  2.3043 -1.5162 -1.1000
  508MOL0     H70076  14.323   8.352   1.421 -2.1427  0.5237 -5.3659
  508MOL0     H70077  14.376   8.179   1.458  1.0801 -1.3752 -0.2304
  508MOL0     H70078  14.223   8.208   1.219 -0.6844  0.8966  1.3366
  508MOL0     H70079  14.373   8.126   1.233 -2.0139 -1.3822  0.5902
  508MOL0     H70080  14.352   8.421   1.175 -1.2607 -0.5318 -2.0212
  508MOL0     H70081  14.422   8.290   1.079 -0.4683 -0.4535  0.8466
  508MOL0     H70082  14.531   8.412   1.335  2.7165  0.1194  0.3092
  508MOL0     H70083  14.585   8.430   1.158  1.0438  0.5927  1.6362
  508MOL0     H70084  13.750   8.234   1.835 -1.5304 -0.1811  0.8993
  508MOL0     H70085  13.552   8.401   1.805 -1.2938  2.4661 -1.8112
  508MOL0     H70086  13.347   8.791   1.627  1.8148 -0.5548 -0.1327
  508MOL0     H70087  13.161   8.928   1.686 -0.8895  0.5557  1.0060
  508MOL0     H70088  11.787  10.176   1.988  0.1133  1.0853 -2.1744
  508MOL0     H70089  11.692  10.374   2.092 -1.1365  0.5932  0.5308
  508MOL0     H70090  11.495  10.644   2.175  0.0742  0.7227 -0.9601
  508MOL0     H70091  11.469  10.861   2.275 -0.9968  1.7161 -0.2453
  508MOL0     H70092  11.109  11.093   2.344  1.6758  0.2613  0.3941
  508MOL0     H70093  11.060  10.956   2.445  0.6320 -1.1069  1.1132
  508MOL0     H70094  11.097  11.176   2.552 -1.0010 -1.4342 -1.5597
  508MOL0     H70095  11.268  11.165   2.545  0.8054 -1.1405  0.4487
  508MOL0     H70096  11.112  10.930   2.664 -1.0403  1.6051 -0.0556
  508MOL0     H70097  11.295  10.955   2.666 -0.0226 -0.0281 -1.0074
  508MOL0     H70098  11.083  11.048   2.831 -0.3657 -1.4396 -2.5429
  508MOL0     H70099  11.167  11.191   2.777 -0.4345 -0.4745 -0.9316
  508MOL0     H70100  11.428  11.038   3.069 -0.1990  1.2313  0.2930
  508MOL0     H70101  11.044  10.804   2.309 -0.4009  0.2992 -0.0374
  508MOL0     H70102  10.944  10.627   2.212 -0.4054 -3.0560  0.4385
  508MOL0     H70103  11.018  10.628   2.048  1.3008 -2.1154 -1.6765
  508MOL0     H70104  11.010  10.484   2.158 -1.3007  0.6421 -0.7720
  509MOL0     O70105   2.648   8.601   6.808  0.7287  0.5071  0.2625
  509MOL0     C70106   2.745   8.535   6.772  0.3979  0.4573  0.2013
  509MOL0     O70107   2.877   8.572   6.780  0.3134 -0.2176  0.3443
  509MOL0     C70108   2.922   8.670   6.866 -0.1014  0.2574  0.2302
  509MOL0     C70109   2.865   8.708   6.989  0.8043  0.2409  0.8535
  509MOL0     C70110   2.904   8.830   7.050 -0.1373 -1.2339 -0.7717
  509MOL0     C70111   3.027   8.895   7.008 -0.8524  0.7252 -0.3416
  509MOL0     O70112   3.067   9.013   7.074  0.6138 -0.0368  0.0770
  509MOL0     C70113   3.049   9.033   7.218 -0.3646  1.0137  0.8697
  509MOL0     C70114   3.191   9.074   7.265  0.9109 -0.6842 -0.0694
  509MOL0     C70115   3.189   9.045   7.421 -0.1479  0.4345 -0.5457
  509MOL0     C70116   3.149   9.166   7.506 -0.3896 -0.2724 -0.6180
  509MOL0     C70117   3.175   9.147   7.653  1.0576  0.4437 -0.1186
  509MOL0     C70118   3.318   9.167   7.688  0.1004  0.3076 -0.8713
  509MOL0     C70119   3.322   9.135   7.838  0.5651  0.1412  0.2904
  509MOL0     C70120   3.321   9.251   7.933 -0.6834  0.0608  0.6843
  509MOL0     N70121   3.336   9.193   8.069 -0.2530  0.0599 -0.0419
  509MOL0     C70122   3.447   9.174   8.136 -0.3119  0.2223  0.1549
  509MOL0     C70123   3.410   9.132   8.257 -0.6064  1.2430 -0.3734
  509MOL0     C70124   3.496   9.069   8.358 -0.3897 -0.2403 -0.2352
  509MOL0     C70125   3.511   8.915   8.359  0.4202  0.3613 -0.0534
  509MOL0     C70126   3.375   8.859   8.407  0.4630 -0.3195 -0.1009
  509MOL0     C70127   3.334   8.891   8.556 -0.0468  0.3139 -0.2714
  509MOL0     O70128   3.432   8.864   8.660 -0.2027  0.4520  1.3376
  509MOL0     C70129   3.461   8.734   8.680  0.2114  0.8491  0.5719
  509MOL0     C70130   3.362   8.640   8.722  0.1364  0.8129 -0.0525
  509MOL0     C70131   3.391   8.500   8.744  0.6078 -0.4515  0.3550
  509MOL0     C70132   3.281   8.407   8.777  0.3398  0.7895 -0.2580
  509MOL0     C70133   3.527   8.462   8.731 -0.2747  0.2017  0.0259
  509MOL0     C70134   3.578   8.317   8.735  0.4957 -0.3112  0.0858
  509MOL0     O70135   3.702   8.304   8.782  0.3915 -0.4469 -0.3957
  509MOL0     C70136   3.752   8.179   8.758  0.9538  0.3425  0.1970
  509MOL0     C70137   3.699   8.059   8.806  0.3996 -0.1835 -0.9401
  509MOL0     C70138   3.768   7.940   8.779  0.1255  0.3219 -0.0812
  509MOL0     C70139   3.894   7.942   8.718 -0.0299  0.5644 -1.0408
  509MOL0     O70140   3.983   7.838   8.690  0.0221 -0.7212  0.2795
  509MOL0     C70141   3.930   7.707   8.702 -0.0307 -0.1737 -0.9381
  509MOL0     C70142   4.045   7.614   8.689 -0.1292 -0.3870  0.1614
  509MOL0     C70143   3.983   7.474   8.680 -0.4390 -0.2590 -0.0457
  509MOL0     C70144   4.099   7.384   8.634  0.6166  0.6309 -0.7831
  509MOL0     C70145   4.052   7.236   8.636  0.6523 -0.1654 -0.0306
  509MOL0     C70146   4.170   7.141   8.588  0.2713  0.1824 -0.7686
  509MOL0     C70147   4.120   6.997   8.587  0.1844  0.2089  0.1004
  509MOL0     C70148   4.071   6.935   8.717  0.9277 -0.7762  0.2610
  509MOL0    Cl70149   4.171   6.969   8.863 -0.2614  0.2098 -0.0743
  509MOL0     C70150   3.953   8.066   8.691 -0.3456 -0.4941  0.0115
  509MOL0     C70151   3.883   8.183   8.703  0.8340 -0.5321 -0.5077
  509MOL0     O70152   3.503   8.227   8.688  0.7586 -0.0697 -0.2297
  509MOL0     C70153   3.628   8.558   8.691 -0.0759 -0.1492  0.6090
  509MOL0     C70154   3.599   8.695   8.677  0.1019 -0.4586 -0.5508
  509MOL0     N70155   3.275   9.106   8.259 -0.1676 -0.0538 -0.9400
  509MOL0     N70156   3.236   9.137   8.145  0.1643 -0.2461  0.5399
  509MOL0     C70157   3.083   8.856   6.889  0.2136 -0.9853 -0.0323
  509MOL0     C70158   3.028   8.746   6.820  0.0074 -0.4056  0.0236
  509MOL0     C70159   2.716   8.398   6.733 -0.1965  0.8850  0.4448
  509MOL0     C70160   2.583   8.369   6.699 -0.4104 -0.0412 -0.0741
  509MOL0     C70161   2.549   8.249   6.630 -1.2167 -0.7779  0.4615
  509MOL0     C70162   2.646   8.153   6.598 -0.2248  0.2635  0.2522
  509MOL0     O70163   2.603   8.031   6.550 -0.4960  0.0491  0.7474
  509MOL0     C70164   2.700   7.966   6.464 -0.7075  0.3482  0.4736
  509MOL0     C70165   2.630   7.851   6.391  0.9079 -0.3219 -0.1414
  509MOL0     C70166   2.517   7.903   6.305 -0.5750 -0.3744 -0.2372
  509MOL0     C70167   2.557   7.991   6.182  0.5061 -0.2888  0.0427
  509MOL0     C70168   2.442   8.018   6.107 -0.0270 -0.8376 -0.2011
  509MOL0     C70169   2.353   8.057   6.045 -0.5174 -0.3375  0.0375
  509MOL0     C70170   2.777   8.185   6.633 -0.3487  0.2037  0.8061
  509MOL0     C70171   2.818   8.301   6.705  0.1363  0.6636  0.4211
  509MOL0     C70172   2.965   8.308   6.744 -0.0424 -0.1218  0.2944
  509MOL0     H70173   2.768   8.670   7.018  0.1952  0.2699 -1.0510
  509MOL0     H70174   2.839   8.858   7.133  1.5671  0.5277  0.0498
  509MOL0     H70175   3.028   8.936   7.264  0.0589  1.2313  1.5307
  509MOL0     H70176   2.972   9.110   7.229 -2.1822 -0.4133 -0.9058
  509MOL0     H70177   3.272   9.019   7.217  0.6740 -2.0651  1.0591
  509MOL0     H70178   3.218   9.179   7.248 -2.6773  0.0210 -2.4273
  509MOL0     H70179   3.130   8.960   7.455  2.0429  0.5831  4.5184
  509MOL0     H70180   3.291   9.016   7.448  0.3857  0.3600 -2.4453
  509MOL0     H70181   3.196   9.257   7.467  2.0819 -1.6905 -1.2204
  509MOL0     H70182   3.040   9.164   7.509 -0.7359  3.5649  4.6683
  509MOL0     H70183   3.143   9.048   7.689  1.4898  0.6642  0.9119
  509MOL0     H70184   3.118   9.220   7.711  0.9736 -1.3826  2.2872
  509MOL0     H70185   3.387   9.092   7.648  1.5642 -0.5699  2.8778
  509MOL0     H70186   3.348   9.271   7.672 -1.6469  0.8753 -0.6972
  509MOL0     H70187   3.412   9.073   7.846  0.3101 -0.1500  0.9473
  509MOL0     H70188   3.241   9.070   7.870 -0.0993  0.2989 -0.9954
  509MOL0     H70189   3.401   9.325   7.928  0.3657 -1.1198 -0.8766
  509MOL0     H70190   3.232   9.311   7.913 -0.7822 -0.6219 -1.0773
  509MOL0     H70191   3.551   9.190   8.109  0.0276 -1.2008  0.5283
  509MOL0     H70192   3.464   9.100   8.458 -0.7468 -0.3480 -0.3129
  509MOL0     H70193   3.592   9.115   8.336 -1.0571  0.5479 -1.6143
  509MOL0     H70194   3.548   8.875   8.264  2.4177  2.8722 -0.4443
  509MOL0     H70195   3.586   8.880   8.431  1.8612  0.3371 -1.5197
  509MOL0     H70196   3.293   8.899   8.347  1.0133  0.2793 -0.4683
  509MOL0     H70197   3.376   8.750   8.393 -0.3208 -0.2822 -0.4902
  509MOL0     H70198   3.296   8.994   8.555 -0.8888  0.0005 -1.2062
  509MOL0     H70199   3.245   8.832   8.578 -0.4869  1.2684  0.6108
  509MOL0     H70200   3.264   8.684   8.736 -1.6269 -2.9444  0.8009
  509MOL0     H70201   3.230   8.379   8.684 -2.0819 -1.0828  1.5286
  509MOL0     H70202   3.210   8.440   8.853 -0.2380 -2.0276  0.5307
  509MOL0     H70203   3.316   8.318   8.828 -1.4784 -0.4206 -1.0347
  509MOL0     H70204   3.625   8.054   8.885  0.2959  4.1342 -0.5075
  509MOL0     H70205   3.725   7.843   8.799 -1.7237  0.3235 -3.2872
  509MOL0     H70206   3.879   7.685   8.796 -2.4258 -0.4269 -2.2291
  509MOL0     H70207   3.861   7.683   8.620  1.1275 -3.0790 -1.1905
  509MOL0     H70208   4.083   7.635   8.588  1.1678 -0.6612  0.5828
  509MOL0     H70209   4.118   7.622   8.770 -1.3958  2.3346  1.1837
  509MOL0     H70210   3.905   7.471   8.604  1.2036  2.6393 -2.0616
  509MOL0     H70211   3.953   7.430   8.775 -0.8188 -0.2184 -0.1461
  509MOL0     H70212   4.192   7.386   8.691  0.6292  0.9055 -0.8083
  509MOL0     H70213   4.122   7.409   8.531 -1.6218 -1.2498 -1.8285
  509MOL0     H70214   4.020   7.199   8.734  0.3696  0.6103  0.1779
  509MOL0     H70215   3.965   7.220   8.571  0.5761  0.9055 -0.2222
  509MOL0     H70216   4.250   7.143   8.662 -1.5655  0.5714  1.2912
  509MOL0     H70217   4.215   7.174   8.494 -0.0443  1.6952 -0.4159
  509MOL0     H70218   4.198   6.942   8.535 -1.1060 -0.6638 -0.9806
  509MOL0     H70219   4.035   6.998   8.518 -1.4673  0.9237  2.0286
  509MOL0     H70220   4.046   6.829   8.707 -1.8544 -0.4388  2.5180
  509MOL0     H70221   3.970   6.977   8.719 -0.5647 -4.0267 -0.5724
  509MOL0     H70222   4.055   8.063   8.656 -0.1724 -0.5913  0.5241
  509MOL0     H70223   3.917   8.282   8.673  0.8985 -0.0359  1.1357
  509MOL0     H70224   3.731   8.527   8.679 -0.4392 -2.2290  2.3369
  509MOL0     H70225   3.678   8.764   8.650 -1.2341  0.2847 -2.7572
  509MOL0     H70226   3.161   8.920   6.849 -1.5574  0.2345 -1.7248
  509MOL0     H70227   3.057   8.706   6.724 -0.0523 -3.5065  1.1886
  509MOL0     H70228   2.506   8.445   6.710 -0.5312  0.4206 -3.1236
  509MOL0     H70229   2.443   8.233   6.613 -1.8899  3.7471 -0.8331
  509MOL0     H70230   2.736   8.050   6.406  3.5366  0.4851  2.9296
  509MOL0     H70231   2.778   7.922   6.527  0.3937 -0.0289 -1.1064
  509MOL0     H70232   2.590   7.776   6.460  0.4957  0.5182  0.5551
  509MOL0     H70233   2.691   7.792   6.322  1.3411 -2.1442  1.7100
  509MOL0     H70234   2.458   7.820   6.264 -0.3970 -0.5288 -0.1816
  509MOL0     H70235   2.447   7.956   6.371 -0.5782  0.0449 -0.5807
  509MOL0     H70236   2.628   7.941   6.116 -0.2654  0.8076 -1.6725
  509MOL0     H70237   2.602   8.082   6.222  0.1368 -1.2169  2.7706
  509MOL0     H70238   2.266   8.091   5.993  1.5095  0.8473 -2.8051
  509MOL0     H70239   2.861   8.120   6.612  0.3755  1.1368  0.7696
  509MOL0     H70240   3.009   8.387   6.683 -0.7591 -1.6124 -2.3296
  509MOL0     H70241   2.979   8.343   6.846  0.2283  2.1280 -0.4655
  509MOL0     H70242   3.018   8.217   6.716 -0.0708 -0.0649  0.0482
  510MOL0     O70243   5.585   6.797   1.780 -0.0427 -0.0438 -0.0385
  510MOL0     C70244   5.682   6.856   1.826  0.7037  0.6972  0.2699
  510MOL0     O70245   5.687   6.991   1.854  0.2871 -0.1554 -0.7134
  510MOL0     C70246   5.594   7.070   1.792  0.0070 -0.1582 -0.3014
  510MOL0     C70247   5.510   7.134   1.867  0.4046  0.0078  1.2781
  510MOL0     C70248   5.389   7.187   1.817  0.0760 -1.1510  0.2084
  510MOL0     C70249   5.364   7.191   1.678  0.5678  0.9161  0.4620
  510MOL0     O70250   5.245   7.259   1.630  0.0466 -0.7448 -0.5106
  510MOL0     C70251   5.250   7.326   1.501  0.1118 -0.2516  0.2495
  510MOL0     C70252   5.139   7.439   1.495 -0.7292  0.5689  0.6072
  510MOL0     C70253   4.994   7.377   1.480  0.7350 -0.2743 -0.7723
  510MOL0     C70254   4.881   7.482   1.488 -0.1461 -0.3305  0.4543
  510MOL0     C70255   4.753   7.420   1.466  0.7916 -0.6524  0.9060
  510MOL0     C70256   4.632   7.512   1.499 -1.0452 -0.6845 -0.5267
  510MOL0     C70257   4.497   7.470   1.433 -0.1892  0.1110  0.0483
  510MOL0     C70258   4.383   7.522   1.520  0.7254  0.2630 -0.2469
  510MOL0     N70259   4.251   7.480   1.473  1.1300 -0.2444  0.4284
  510MOL0     C70260   4.176   7.545   1.386  0.6038 -0.2769 -0.9251
  510MOL0     C70261   4.058   7.475   1.368 -0.4871  0.8231  0.5591
  510MOL0     C70262   3.932   7.516   1.299  0.8097  0.4524 -0.1830
  510MOL0     C70263   3.947   7.642   1.210  0.7908  0.3045  0.6794
  510MOL0     C70264   4.015   7.607   1.072  0.3389 -0.5080  0.2024
  510MOL0     C70265   4.031   7.737   0.981  0.0654 -0.3007 -0.6152
  510MOL0     O70266   4.116   7.834   1.040  0.1890 -0.7144  0.2782
  510MOL0     C70267   4.251   7.809   1.059 -0.3586 -0.2567 -0.2915
  510MOL0     C70268   4.319   7.703   1.009  0.3996 -0.1369  0.3446
  510MOL0     C70269   4.456   7.677   1.039 -0.3125 -0.3389  0.5169
  510MOL0     C70270   4.519   7.565   0.963 -0.0088  0.7632 -0.8015
  510MOL0     C70271   4.512   7.764   1.141 -0.3367  0.2986  0.2721
  510MOL0     C70272   4.660   7.759   1.175  0.7720 -0.4331 -0.3864
  510MOL0     O70273   4.742   7.704   1.083 -0.5009  1.2395  0.1483
  510MOL0     C70274   4.877   7.686   1.103 -0.2259 -0.6991 -1.1744
  510MOL0     C70275   4.961   7.792   1.129 -0.0457 -0.6788  0.1954
  510MOL0     C70276   5.100   7.764   1.142 -0.3471  0.2270  0.9661
  510MOL0     C70277   5.160   7.636   1.127  0.0142 -0.2808 -0.9315
  510MOL0     O70278   5.290   7.595   1.145 -0.3603  0.3362 -1.0698
  510MOL0     C70279   5.403   7.687   1.172 -0.1513 -0.7560  1.0606
  510MOL0     C70280   5.421   7.717   1.317 -0.2272  0.8332  0.0975
  510MOL0     C70281   5.531   7.631   1.374 -0.8031  0.4141 -0.0065
  510MOL0     C70282   5.516   7.644   1.531 -0.3240  0.2991  0.0276
  510MOL0     C70283   5.610   7.541   1.611  0.2205  0.4098  0.0892
  510MOL0     C70284   5.621   7.583   1.759 -0.0630 -1.2719 -0.8522
  510MOL0     C70285   5.483   7.591   1.829 -0.0174  0.7492  0.8131
  510MOL0     C70286   5.507   7.598   1.981  0.0332 -0.3606 -0.2584
  510MOL0    Cl70287   5.358   7.621   2.071 -0.1410 -0.4224 -0.4701
  510MOL0     C70288   5.068   7.534   1.110 -0.8652 -0.0159  0.6162
  510MOL0     C70289   4.934   7.559   1.100 -0.6891  0.5284  0.1704
  510MOL0     O70290   4.690   7.820   1.278  0.7794  0.3768  0.5282
  510MOL0     C70291   4.434   7.863   1.201  0.6758 -0.2213  0.3594
  510MOL0     C70292   4.306   7.893   1.155 -0.3170  0.5524 -0.5835
  510MOL0     N70293   4.068   7.366   1.451 -0.1910 -0.6214 -0.3561
  510MOL0     N70294   4.190   7.360   1.499 -0.0789  0.2084 -0.4866
  510MOL0     C70295   5.462   7.140   1.596 -0.6707 -0.9566  0.1566
  510MOL0     C70296   5.578   7.079   1.656 -0.1093  0.6378 -0.1673
  510MOL0     C70297   5.803   6.777   1.860 -0.4801  0.2617  0.3311
  510MOL0     C70298   5.925   6.837   1.885  0.2162 -0.0454 -0.6262
  510MOL0     C70299   6.038   6.771   1.924  0.1123 -0.9586  0.0730
  510MOL0     C70300   6.037   6.640   1.954  0.0376  0.1368 -0.6037
  510MOL0     O70301   6.138   6.575   2.023  1.1453  0.2778 -0.2272
  510MOL0     C70302   6.256   6.642   2.042 -1.7550 -0.2317  0.0613
  510MOL0     C70303   6.350   6.536   2.107  0.1857 -0.1292 -0.2566
  510MOL0     C70304   6.321   6.528   2.264  0.1248  0.7578 -0.4763
  510MOL0     C70305   6.398   6.405   2.327  0.4595  0.9486 -0.6078
  510MOL0     C70306   6.546   6.400   2.295  0.1311  0.0174 -0.2367
  510MOL0     C70307   6.667   6.399   2.272 -0.1114 -0.0263 -0.2373
  510MOL0     C70308   5.917   6.577   1.946  0.1521 -0.0820  0.4194
  510MOL0     C70309   5.800   6.642   1.903  0.7044  0.0970 -0.2039
  510MOL0     C70310   5.672   6.559   1.919 -0.3496 -0.3216 -0.0879
  510MOL0     H70311   5.532   7.129   1.974 -1.3169  1.5262  1.7620
  510MOL0     H70312   5.318   7.232   1.885  1.3929 -0.4495  1.1771
  510MOL0     H70313   5.233   7.251   1.423 -0.2880  0.6828 -0.5892
  510MOL0     H70314   5.346   7.378   1.492  0.7535 -1.2964  0.8594
  510MOL0     H70315   5.141   7.495   1.588 -1.3261 -2.2721  2.4450
  510MOL0     H70316   5.154   7.502   1.406 -0.4603  1.8245  1.5217
  510MOL0     H70317   4.982   7.327   1.384  0.3409 -0.2438 -0.7431
  510MOL0     H70318   4.976   7.295   1.551 -0.3520 -2.0573 -2.9925
  510MOL0     H70319   4.883   7.534   1.584  1.6926 -1.5426  1.1414
  510MOL0     H70320   4.890   7.567   1.420  1.5999 -2.1127 -1.6795
  510MOL0     H70321   4.742   7.332   1.530 -3.9020 -2.4289 -1.8434
  510MOL0     H70322   4.740   7.378   1.366  1.5320  5.0424 -2.0182
  510MOL0     H70323   4.617   7.518   1.607 -0.2730 -0.1955 -0.4414
  510MOL0     H70324   4.663   7.612   1.468  0.0160  0.5274  3.7738
  510MOL0     H70325   4.498   7.365   1.404 -1.9107  0.4056 -1.2083
  510MOL0     H70326   4.495   7.514   1.333 -3.0117 -0.6033 -0.2796
  510MOL0     H70327   4.395   7.477   1.618 -1.9253  1.5850  0.7835
  510MOL0     H70328   4.390   7.631   1.527  0.7595  0.3672 -1.5356
  510MOL0     H70329   4.192   7.650   1.364  0.6559 -0.1383 -0.2628
  510MOL0     H70330   3.858   7.546   1.373 -1.7660 -0.4025 -2.2468
  510MOL0     H70331   3.898   7.432   1.237 -0.9545  0.9419  0.0669
  510MOL0     H70332   3.845   7.680   1.203  0.4358 -0.9239 -2.4767
  510MOL0     H70333   4.009   7.714   1.264  0.0300 -0.1365  2.2280
  510MOL0     H70334   4.111   7.558   1.089 -0.7099 -2.7065  0.1850
  510MOL0     H70335   3.944   7.542   1.020  2.1403 -1.2535 -1.4792
  510MOL0     H70336   4.055   7.719   0.876  2.8665  1.2273 -0.3190
  510MOL0     H70337   3.926   7.767   0.984 -0.2742 -1.4061  2.7848
  510MOL0     H70338   4.264   7.637   0.942 -0.5945  1.2799 -0.3000
  510MOL0     H70339   4.448   7.501   0.910  1.0629 -2.6249  1.5436
  510MOL0     H70340   4.563   7.498   1.037 -0.6004  1.4976  0.2378
  510MOL0     H70341   4.601   7.583   0.892 -0.4014 -1.1179 -1.8062
  510MOL0     H70342   4.925   7.893   1.146  1.9640 -0.1867  2.1062
  510MOL0     H70343   5.164   7.850   1.158  1.8864 -0.7360 -1.9306
  510MOL0     H70344   5.493   7.637   1.137 -0.5743  0.2094 -1.6154
  510MOL0     H70345   5.401   7.775   1.107  0.8876 -0.8068  0.9502
  510MOL0     H70346   5.455   7.821   1.329 -1.5257  1.2864 -0.0695
  510MOL0     H70347   5.325   7.712   1.368 -0.8996  0.1255 -1.2062
  510MOL0     H70348   5.629   7.667   1.343 -0.1870 -1.9619 -1.1183
  510MOL0     H70349   5.534   7.530   1.330  0.4970  1.5693 -2.7794
  510MOL0     H70350   5.412   7.624   1.560 -0.5563 -2.4227 -2.1873
  510MOL0     H70351   5.545   7.747   1.548 -0.4123  1.0282 -3.3903
  510MOL0     H70352   5.541   7.455   1.605  0.7271 -0.1147  1.3643
  510MOL0     H70353   5.707   7.524   1.564  1.2040 -0.9628  2.4224
  510MOL0     H70354   5.661   7.681   1.784 -2.3355 -0.8850  1.6246
  510MOL0     H70355   5.687   7.514   1.813 -0.7651 -1.7048 -0.5339
  510MOL0     H70356   5.413   7.508   1.817  0.1365  0.1742  3.4148
  510MOL0     H70357   5.436   7.681   1.787 -1.4535 -0.7124 -0.9062
  510MOL0     H70358   5.563   7.692   1.992 -2.2405  1.2566 -1.5724
  510MOL0     H70359   5.562   7.515   2.024 -3.0058 -1.6580  1.4046
  510MOL0     H70360   5.100   7.431   1.118 -1.5402 -0.2299  0.6258
  510MOL0     H70361   4.882   7.464   1.095  1.5432 -0.8330  1.0101
  510MOL0     H70362   4.476   7.916   1.285  0.7407 -0.2707  0.3583
  510MOL0     H70363   4.250   7.976   1.197 -0.2260 -0.8082  2.5069
  510MOL0     H70364   5.465   7.163   1.490 -0.0114  1.0564  0.5552
  510MOL0     H70365   5.658   7.030   1.602  0.0531 -0.6562  1.1823
  510MOL0     H70366   5.941   6.944   1.879 -1.9140  0.3806  0.2303
  510MOL0     H70367   6.127   6.831   1.936 -0.6944  0.8484 -2.3015
  510MOL0     H70368   6.303   6.668   1.946 -0.7892 -3.1054 -0.3464
  510MOL0     H70369   6.249   6.734   2.100 -1.6637 -0.5621  0.6024
  510MOL0     H70370   6.453   6.569   2.093 -0.7522  3.7043  0.6674
  510MOL0     H70371   6.333   6.438   2.062 -2.1630 -1.2786  2.7435
  510MOL0     H70372   6.364   6.609   2.323  2.5339 -0.0988 -0.9473
  510MOL0     H70373   6.214   6.515   2.279  0.4560  1.0598  2.8465
  510MOL0     H70374   6.357   6.310   2.290 -0.1233  0.2024  1.8186
  510MOL0     H70375   6.385   6.409   2.435 -0.6700 -0.0711 -0.6808
  510MOL0     H70376   6.771   6.418   2.254 -0.4299  1.8329 -0.2992
  510MOL0     H70377   5.906   6.477   1.987 -2.3576 -0.7683 -1.6821
  510MOL0     H70378   5.686   6.469   1.980  0.2187 -0.0893  0.1294
  510MOL0     H70379   5.597   6.619   1.971  0.4157 -1.2380  2.2265
  510MOL0     H70380   5.628   6.547   1.820 -1.9561 -0.6807  0.6466
  511MOL0     O70381   7.156   0.923   8.322 -0.3000  0.0202 -0.1547
  511MOL0     C70382   7.067   0.985   8.263 -0.1165 -0.5916  0.5212
  511MOL0     O70383   7.094   1.104   8.194 -0.1872  0.0223 -0.6173
  511MOL0     C70384   7.224   1.142   8.185 -0.7270 -0.1219 -0.0980
  511MOL0     C70385   7.304   1.102   8.074  0.4182 -0.1422  0.8381
  511MOL0     C70386   7.423   1.167   8.040 -0.2254 -0.0090  0.6059
  511MOL0     C70387   7.473   1.267   8.126 -0.7135  0.1228 -0.8429
  511MOL0     O70388   7.602   1.322   8.111  0.1915  0.4279 -0.5219
  511MOL0     C70389   7.699   1.243   8.044 -0.6491 -0.2417  0.7400
  511MOL0     C70390   7.828   1.326   8.061 -0.1800 -0.0204  0.0902
  511MOL0     C70391   7.937   1.261   7.985 -0.4868  1.1159  0.4785
  511MOL0     C70392   8.074   1.309   8.019  0.2675  0.7042 -0.3142
  511MOL0     C70393   8.185   1.274   7.918  0.6165  0.4675  0.6685
  511MOL0     C70394   8.200   1.124   7.872  0.3995 -0.4986 -0.4442
  511MOL0     C70395   8.308   1.112   7.762  0.7351 -0.0033  0.0097
  511MOL0     C70396   8.448   1.156   7.815 -0.4624  0.0816  0.3731
  511MOL0     N70397   8.542   1.079   7.732 -0.0184  0.7417 -0.7619
  511MOL0     C70398   8.556   0.938   7.752  0.5817 -0.4357  0.1737
  511MOL0     C70399   8.662   0.909   7.672  0.2492 -0.7704 -0.6664
  511MOL0     C70400   8.719   0.766   7.662  0.0402 -0.3000  0.2670
  511MOL0     C70401   8.844   0.762   7.749 -0.2702  0.2587  0.7429
  511MOL0     C70402   8.945   0.655   7.705 -0.3502 -0.4247  0.2514
  511MOL0     C70403   9.083   0.682   7.773  0.5028  0.4571 -0.5773
  511MOL0     O70404   9.183   0.594   7.724  0.0840 -0.6337  0.3750
  511MOL0     C70405   9.317   0.594   7.751 -0.5192 -0.0073 -0.1470
  511MOL0     C70406   9.385   0.480   7.732  1.0037 -0.3782  0.1265
  511MOL0     C70407   9.523   0.463   7.751 -0.3944  0.0243 -0.4390
  511MOL0     C70408   9.590   0.324   7.712 -0.3213 -0.4268  0.1055
  511MOL0     C70409   9.592   0.571   7.813  0.1942 -0.3024  0.3180
  511MOL0     C70410   9.744   0.572   7.837  1.1545 -0.3474 -0.2437
  511MOL0     O70411   9.792   0.675   7.923 -0.4616 -0.9328 -0.2237
  511MOL0     C70412   9.922   0.725   7.901  0.7268 -0.6581 -0.9119
  511MOL0     C70413   9.982   0.777   8.021  0.6848 -0.5001  0.0160
  511MOL0     C70414  10.098   0.852   8.026 -1.1029  0.2111  0.1741
  511MOL0     C70415  10.161   0.877   7.904 -0.1963  0.0653  0.3597
  511MOL0     O70416  10.258   0.969   7.890  0.4582  0.2205 -0.5184
  511MOL0     C70417  10.315   1.038   7.998  0.3296  0.1134  0.1826
  511MOL0     C70418  10.382   1.164   7.941 -0.8350  0.2671 -0.3091
  511MOL0     C70419  10.454   1.246   8.050  0.0465 -0.8644  0.3372
  511MOL0     C70420  10.527   1.376   7.994  0.2259 -0.0475 -0.6152
  511MOL0     C70421  10.435   1.464   7.911  0.7824 -0.5156  0.1692
  511MOL0     C70422  10.493   1.591   7.852 -0.5215  0.8412  1.0736
  511MOL0     C70423  10.400   1.646   7.728  0.0266  1.0451  0.6288
  511MOL0     C70424  10.406   1.558   7.599  0.4287 -0.6034 -1.0115
  511MOL0    Cl70425  10.549   1.595   7.504  0.7934 -0.3472 -0.1330
  511MOL0     C70426  10.091   0.842   7.788  0.2011  0.1584  0.1831
  511MOL0     C70427   9.977   0.765   7.785 -0.3137  0.1729  0.2593
  511MOL0     O70428   9.812   0.497   7.775  0.3170 -0.0910  0.0560
  511MOL0     C70429   9.519   0.696   7.827 -0.2667 -0.3329 -0.7171
  511MOL0     C70430   9.382   0.705   7.815 -0.3387  0.0787 -0.1244
  511MOL0     N70431   8.710   1.021   7.610 -0.4268 -0.3659  0.2178
  511MOL0     N70432   8.632   1.123   7.642 -0.0069  0.3751  0.3035
  511MOL0     C70433   7.390   1.318   8.230 -1.0535 -0.0695 -0.7989
  511MOL0     C70434   7.265   1.258   8.254  0.1541  0.7586  0.1316
  511MOL0     C70435   6.930   0.948   8.310 -0.7415 -0.0858  0.2461
  511MOL0     C70436   6.844   1.061   8.321 -0.1701  0.5835  0.7697
  511MOL0     C70437   6.715   1.037   8.366  0.0019 -0.5143  0.4304
  511MOL0     C70438   6.663   0.909   8.385 -0.9023 -0.0484 -0.1477
  511MOL0     O70439   6.534   0.901   8.435  0.9041  0.5396 -0.2783
  511MOL0     C70440   6.463   0.776   8.418  0.4258 -0.6834 -0.1352
  511MOL0     C70441   6.324   0.802   8.474 -0.6337  1.2559  0.4856
  511MOL0     C70442   6.215   0.689   8.438 -0.4848  0.3521  0.1884
  511MOL0     C70443   6.222   0.540   8.489  0.5340 -0.3869 -0.4827
  511MOL0     C70444   6.257   0.533   8.629 -0.5652  0.4935  0.4356
  511MOL0     C70445   6.296   0.530   8.745 -0.7667  0.2810  0.4492
  511MOL0     C70446   6.748   0.799   8.369  0.2172  0.8577  0.7987
  511MOL0     C70447   6.888   0.816   8.340  0.1216 -0.5311 -0.9581
  511MOL0     C70448   6.981   0.705   8.343 -0.8368 -0.5362  0.0704
  511MOL0     H70449   7.256   1.030   8.009 -0.4121  0.7931  0.3854
  511MOL0     H70450   7.468   1.144   7.944  1.7922  3.1665  0.6101
  511MOL0     H70451   7.679   1.236   7.936 -0.3016 -1.2685  0.7370
  511MOL0     H70452   7.708   1.143   8.086 -3.6895 -0.8181  0.2599
  511MOL0     H70453   7.811   1.425   8.017  3.6036  1.4055  1.4148
  511MOL0     H70454   7.858   1.341   8.165  1.9289  0.3127 -0.5295
  511MOL0     H70455   7.945   1.154   8.007  1.9334  1.4064  1.2891
  511MOL0     H70456   7.924   1.288   7.880  2.2883  0.2118 -0.1722
  511MOL0     H70457   8.065   1.418   8.012  2.5514  1.0717  1.3271
  511MOL0     H70458   8.100   1.276   8.120 -0.0632  0.7493 -0.2130
  511MOL0     H70459   8.280   1.311   7.958  0.9248  1.8942 -1.2363
  511MOL0     H70460   8.155   1.328   7.828  0.3820 -1.9762 -0.8232
  511MOL0     H70461   8.225   1.058   7.956  1.4635 -1.2056 -1.2847
  511MOL0     H70462   8.112   1.086   7.818  0.6640  2.7577 -3.5092
  511MOL0     H70463   8.292   1.171   7.671  3.9993 -1.8248 -1.9573
  511MOL0     H70464   8.309   1.009   7.725  1.9978 -0.0948  0.2565
  511MOL0     H70465   8.474   1.262   7.813 -0.2314  0.0661  1.8562
  511MOL0     H70466   8.466   1.132   7.920  5.2026  2.0422  0.1862
  511MOL0     H70467   8.495   0.884   7.824  0.1232  0.5602  0.5602
  511MOL0     H70468   8.739   0.751   7.555 -0.1009 -0.7382  0.3032
  511MOL0     H70469   8.661   0.680   7.697  1.4595  0.0173  3.8548
  511MOL0     H70470   8.897   0.857   7.742  0.4431  0.0493  2.6781
  511MOL0     H70471   8.827   0.758   7.857  1.7077  0.1162  1.0906
  511MOL0     H70472   8.910   0.553   7.721 -1.5911  0.3221  3.0726
  511MOL0     H70473   8.962   0.671   7.598  1.6061 -0.3731  0.5246
  511MOL0     H70474   9.116   0.785   7.761 -0.9722  0.9056 -1.0508
  511MOL0     H70475   9.078   0.655   7.879  1.4825 -0.4718 -0.7459
  511MOL0     H70476   9.329   0.392   7.702  0.0036  0.4639 -0.5344
  511MOL0     H70477   9.661   0.305   7.793 -0.4807  0.8503  0.5732
  511MOL0     H70478   9.653   0.327   7.623  1.2326  0.3859  1.1914
  511MOL0     H70479   9.508   0.253   7.699  1.0615 -2.3703  1.5025
  511MOL0     H70480   9.938   0.758   8.119 -0.5007 -3.5504 -0.9605
  511MOL0     H70481  10.144   0.876   8.120 -1.0941 -1.2474  0.5729
  511MOL0     H70482  10.250   1.083   8.073 -0.6351 -0.7949 -0.0847
  511MOL0     H70483  10.380   0.961   8.041 -0.6766 -0.9546 -0.1580
  511MOL0     H70484  10.444   1.126   7.859 -0.8827  2.0402 -1.2134
  511MOL0     H70485  10.294   1.215   7.901 -1.5434 -0.4743  0.2759
  511MOL0     H70486  10.527   1.178   8.094  1.5163 -1.2958 -2.5416
  511MOL0     H70487  10.384   1.283   8.126 -2.2059 -1.4841 -1.3104
  511MOL0     H70488  10.616   1.358   7.932  0.3398  2.6686 -1.3852
  511MOL0     H70489  10.560   1.429   8.084 -1.8622  1.0038 -0.4106
  511MOL0     H70490  10.394   1.394   7.838 -0.0396 -0.3380  0.4566
  511MOL0     H70491  10.352   1.497   7.973  0.9880  1.2019 -0.4154
  511MOL0     H70492  10.594   1.559   7.824 -0.7576  0.0951  1.0350
  511MOL0     H70493  10.494   1.669   7.928 -1.2449  0.4543  1.4905
  511MOL0     H70494  10.426   1.750   7.705 -0.4445  0.8708 -0.7890
  511MOL0     H70495  10.296   1.658   7.761 -0.4962  0.2808 -0.6637
  511MOL0     H70496  10.319   1.579   7.535  2.2453  0.1667 -3.3778
  511MOL0     H70497  10.416   1.453   7.629  2.1584  0.0039  0.7048
  511MOL0     H70498  10.128   0.874   7.691  1.0555  2.3425  1.1632
  511MOL0     H70499   9.924   0.729   7.697 -0.8785  2.6285 -0.4773
  511MOL0     H70500   9.570   0.780   7.874 -1.8014 -1.4771  3.5046
  511MOL0     H70501   9.320   0.788   7.848 -0.2325  0.5173 -1.0074
  511MOL0     H70502   7.430   1.395   8.295  0.2233 -3.3981  2.7311
  511MOL0     H70503   7.200   1.294   8.333 -3.0866 -2.7555 -0.6295
  511MOL0     H70504   6.880   1.164   8.318  0.8241  0.2779  1.6053
  511MOL0     H70505   6.664   1.127   8.399  1.0558 -0.9666  3.6482
  511MOL0     H70506   6.455   0.737   8.316  2.4659 -2.6571  0.3839
  511MOL0     H70507   6.513   0.704   8.483  2.1385  0.7449  0.2149
  511MOL0     H70508   6.293   0.887   8.413 -0.4416  2.4229  1.9443
  511MOL0     H70509   6.332   0.834   8.578 -1.6225  1.2586  0.5692
  511MOL0     H70510   6.121   0.722   8.483 -2.4234 -0.0170 -3.2999
  511MOL0     H70511   6.193   0.692   8.331 -1.8097 -2.3670  0.3039
  511MOL0     H70512   6.289   0.477   8.429 -0.8582 -2.4444 -0.0075
  511MOL0     H70513   6.124   0.497   8.465  1.1312 -0.3261 -3.3636
  511MOL0     H70514   6.320   0.538   8.849 -3.0357 -0.7182  1.1182
  511MOL0     H70515   6.700   0.702   8.374 -2.9494  2.2634  0.0801
  511MOL0     H70516   7.032   0.701   8.246  3.8012 -0.8367  2.2459
  511MOL0     H70517   7.064   0.712   8.414 -0.5403  2.7133 -0.4221
  511MOL0     H70518   6.920   0.616   8.358 -2.7279  1.0804  2.7279
  512MOL0     O70519  10.660   5.015   1.368 -0.0840  0.4544 -0.5847
  512MOL0     C70520  10.587   5.113   1.369  1.1372  0.1400 -0.0131
  512MOL0     O70521  10.539   5.165   1.261 -0.0175  0.0216  0.2047
  512MOL0     C70522  10.532   5.114   1.138 -0.0738 -0.0869  1.0636
  512MOL0     C70523  10.480   5.209   1.048 -0.1472  0.0745 -0.2466
  512MOL0     C70524  10.467   5.177   0.911 -0.1472  0.8242  0.7841
  512MOL0     C70525  10.520   5.057   0.860  0.1457 -0.0265  1.3208
  512MOL0     O70526  10.519   5.030   0.725 -0.4836 -0.8516  0.0201
  512MOL0     C70527  10.536   4.903   0.669 -0.2053 -0.4025 -1.1525
  512MOL0     C70528  10.526   4.905   0.516 -0.5578 -0.2232 -0.6031
  512MOL0     C70529  10.412   4.967   0.442  0.4574 -1.0526 -0.1986
  512MOL0     C70530  10.273   4.938   0.516  0.2865  0.2274  0.3757
  512MOL0     C70531  10.161   5.013   0.443  0.4745  0.4831 -0.8131
  512MOL0     C70532  10.087   5.120   0.536  0.3463 -0.6238  0.3846
  512MOL0     C70533  10.182   5.224   0.590  0.1719  0.3456  0.1356
  512MOL0     C70534  10.102   5.342   0.645 -0.3695 -0.9096  0.7854
  512MOL0     N70535  10.194   5.416   0.727  0.3007  0.0836  0.1700
  512MOL0     C70536  10.195   5.416   0.859 -0.1601 -0.3659  0.0568
  512MOL0     C70537  10.265   5.525   0.894 -0.0668  0.6690 -0.9594
  512MOL0     C70538  10.297   5.573   1.041  0.8437  0.5881 -0.2059
  512MOL0     C70539  10.250   5.715   1.061 -0.9431  0.4512 -0.0283
  512MOL0     C70540  10.280   5.769   1.214 -0.7828 -0.3356 -0.2912
  512MOL0     C70541  10.206   5.688   1.323  0.8610 -0.1149 -0.1272
  512MOL0     O70542  10.084   5.755   1.380 -0.2764 -0.2873  0.1767
  512MOL0     C70543  10.051   5.692   1.496 -0.4875 -0.4973 -0.6049
  512MOL0     C70544   9.985   5.758   1.593 -0.3325  0.5148 -0.0905
  512MOL0     C70545   9.947   5.700   1.718 -0.6378  0.0867  0.3557
  512MOL0     C70546   9.893   5.792   1.829 -1.8412 -0.8265  0.9682
  512MOL0     C70547   9.964   5.561   1.740 -0.2425  1.2918 -0.4183
  512MOL0     C70548   9.919   5.481   1.859 -0.1951 -1.0819  0.0511
  512MOL0     O70549   9.941   5.343   1.855 -0.6362 -0.2757  0.5487
  512MOL0     C70550   9.869   5.266   1.943  0.8919 -0.4941 -0.7749
  512MOL0     C70551   9.924   5.233   2.071  0.8045 -0.1285  0.2792
  512MOL0     C70552   9.856   5.142   2.155  0.1044 -0.7889 -0.9200
  512MOL0     C70553   9.732   5.089   2.110 -0.8296  0.7406 -0.1475
  512MOL0     O70554   9.656   5.007   2.183  1.3190 -0.0923  0.3935
  512MOL0     C70555   9.616   5.061   2.311  0.7996 -0.0144 -0.6685
  512MOL0     C70556   9.462   5.040   2.319 -0.3244  0.4118  0.1223
  512MOL0     C70557   9.421   4.894   2.325  0.1707  0.5977 -0.2671
  512MOL0     C70558   9.276   4.858   2.324 -1.0800 -0.3468 -0.3896
  512MOL0     C70559   9.257   4.709   2.336 -0.2748 -0.6569  0.0874
  512MOL0     C70560   9.108   4.677   2.341 -0.2051 -0.3321 -0.0817
  512MOL0     C70561   9.049   4.688   2.203  0.6213  0.1781  0.3282
  512MOL0     C70562   8.947   4.572   2.185  0.4378  0.6521 -0.6549
  512MOL0    Cl70563   8.812   4.601   2.296  0.0834  0.1889  0.0930
  512MOL0     C70564   9.679   5.119   1.980  0.6670  0.5025 -0.9515
  512MOL0     C70565   9.750   5.207   1.898 -0.5552 -0.6057  0.0721
  512MOL0     O70566   9.878   5.542   1.956 -0.2284  0.1347  0.2383
  512MOL0     C70567  10.035   5.494   1.638 -0.0416 -0.1101  0.5128
  512MOL0     C70568  10.077   5.556   1.523  0.0259  0.4303 -0.3692
  512MOL0     N70569  10.308   5.588   0.776  0.3594 -0.2348  0.3310
  512MOL0     N70570  10.262   5.526   0.684  0.2704  0.4404 -0.3231
  512MOL0     C70571  10.577   4.961   0.954  0.2987 -0.2074  0.5430
  512MOL0     C70572  10.576   4.987   1.094  0.5860 -0.3194 -0.3848
  512MOL0     C70573  10.548   5.179   1.499  0.2995  0.5111 -0.7519
  512MOL0     C70574  10.434   5.262   1.498  0.9056  0.2081 -0.3432
  512MOL0     C70575  10.392   5.323   1.616  0.2436 -0.6690  0.7297
  512MOL0     C70576  10.454   5.313   1.733 -0.1304 -0.8943 -0.1795
  512MOL0     O70577  10.395   5.385   1.828  0.0932 -0.3039  0.1864
  512MOL0     C70578  10.456   5.403   1.949  0.1191  1.6506 -0.0705
  512MOL0     C70579  10.356   5.421   2.068 -1.0276  0.6849  1.4991
  512MOL0     C70580  10.276   5.552   2.061 -0.4996 -0.5806 -0.3561
  512MOL0     C70581  10.166   5.556   2.164 -0.3209 -0.0405 -0.4614
  512MOL0     C70582  10.215   5.557   2.298 -0.2578 -0.2933  0.7161
  512MOL0     C70583  10.256   5.548   2.404 -0.5656  0.4104 -0.5395
  512MOL0     C70584  10.552   5.206   1.742  0.0530 -0.2215  0.5731
  512MOL0     C70585  10.606   5.156   1.629  0.1621  0.5516 -0.1266
  512MOL0     C70586  10.733   5.075   1.640 -0.9755  0.9522  0.2925
  512MOL0     H70587  10.457   5.304   1.095  2.6131 -0.8496  3.4788
  512MOL0     H70588  10.418   5.244   0.841 -2.9711  0.3717  2.1438
  512MOL0     H70589  10.451   4.845   0.708  1.3510  0.1368  3.8028
  512MOL0     H70590  10.628   4.855   0.706  0.9235  2.2207 -0.3351
  512MOL0     H70591  10.617   4.953   0.479 -1.0654 -0.9717 -2.9854
  512MOL0     H70592  10.542   4.801   0.486  1.9775 -0.1995  0.3949
  512MOL0     H70593  10.418   5.076   0.432  0.0505 -0.8709  1.2934
  512MOL0     H70594  10.398   4.930   0.340  2.6282  0.6401 -1.1846
  512MOL0     H70595  10.257   4.830   0.507  2.2555  0.0098 -1.4069
  512MOL0     H70596  10.277   4.960   0.623 -1.1581  0.3379  0.4272
  512MOL0     H70597  10.091   4.943   0.397  0.7079  0.6823 -1.4755
  512MOL0     H70598  10.194   5.088   0.371 -0.0904  0.3421 -1.2217
  512MOL0     H70599  10.011   5.180   0.486  0.1333 -0.4137  0.9630
  512MOL0     H70600  10.043   5.068   0.621  0.5789  1.6163  1.9299
  512MOL0     H70601  10.261   5.248   0.519 -1.8854 -0.0105 -2.4197
  512MOL0     H70602  10.229   5.176   0.676 -1.1653 -1.2802  0.0143
  512MOL0     H70603  10.059   5.401   0.563 -1.7138 -3.3732 -0.3921
  512MOL0     H70604  10.023   5.305   0.711 -1.6369 -2.6592 -1.5608
  512MOL0     H70605  10.128   5.353   0.916  1.0046  0.1920  2.1362
  512MOL0     H70606  10.404   5.572   1.062  0.4783 -2.8699  2.3197
  512MOL0     H70607  10.254   5.508   1.118 -0.4040  2.2063  0.5459
  512MOL0     H70608  10.306   5.786   0.999 -0.4619  0.1148  0.0143
  512MOL0     H70609  10.143   5.721   1.039 -0.9370  0.9972  0.0689
  512MOL0     H70610  10.388   5.756   1.231 -1.1083 -1.0871  1.5282
  512MOL0     H70611  10.251   5.873   1.228  1.1699  0.3849 -1.3652
  512MOL0     H70612  10.167   5.591   1.291 -3.5453  0.5033  2.5094
  512MOL0     H70613  10.270   5.665   1.409 -2.6704 -1.0189  2.4971
  512MOL0     H70614   9.979   5.866   1.578 -1.8171  0.7146  1.6341
  512MOL0     H70615   9.948   5.776   1.921 -1.4174 -1.7790  0.5646
  512MOL0     H70616   9.792   5.761   1.858 -3.1293  2.4649  0.4268
  512MOL0     H70617   9.891   5.894   1.790 -1.0305 -1.4960 -0.9636
  512MOL0     H70618  10.021   5.261   2.111  0.3321  0.3750  1.0942
  512MOL0     H70619   9.894   5.117   2.253 -0.2934  0.6971 -0.3676
  512MOL0     H70620   9.663   5.009   2.394  2.1503  1.3067 -0.5797
  512MOL0     H70621   9.631   5.169   2.319 -1.4369  0.7845 -4.4288
  512MOL0     H70622   9.425   5.098   2.404  0.4128  4.0925 -1.8177
  512MOL0     H70623   9.404   5.088   2.239 -1.1745  1.9064  1.5664
  512MOL0     H70624   9.462   4.848   2.416 -1.2704  0.7376  0.4998
  512MOL0     H70625   9.471   4.851   2.238 -0.5480  1.2865 -1.0422
  512MOL0     H70626   9.227   4.903   2.237  0.8286  3.5797  0.3711
  512MOL0     H70627   9.225   4.903   2.410 -0.9319 -0.5172 -0.2139
  512MOL0     H70628   9.309   4.655   2.256  3.1399 -0.4752  2.0111
  512MOL0     H70629   9.302   4.660   2.422 -0.0237 -1.3080 -0.4122
  512MOL0     H70630   9.056   4.715   2.430  1.0353 -1.7271  1.3074
  512MOL0     H70631   9.101   4.571   2.368  0.6047 -0.1762  0.7813
  512MOL0     H70632   9.122   4.675   2.124  0.9780 -4.5971  1.1911
  512MOL0     H70633   8.993   4.782   2.198  1.4298  0.6377 -0.2720
  512MOL0     H70634   8.994   4.477   2.213  0.5579  1.2264  1.2072
  512MOL0     H70635   8.903   4.563   2.085 -0.3408 -0.1144 -0.2541
  512MOL0     H70636   9.590   5.065   1.948  0.7658  0.4585 -1.1556
  512MOL0     H70637   9.707   5.234   1.802 -0.9057 -0.7690  0.1806
  512MOL0     H70638  10.067   5.390   1.639 -1.0305 -0.4745 -1.0057
  512MOL0     H70639  10.125   5.490   1.451 -0.4785  0.3100 -0.5981
  512MOL0     H70640  10.610   4.867   0.909 -0.5428  1.2531 -3.4996
  512MOL0     H70641  10.617   4.912   1.160  1.9865  0.8341  0.1193
  512MOL0     H70642  10.374   5.273   1.408  0.9733  2.9967 -0.1294
  512MOL0     H70643  10.307   5.389   1.605  1.4823  0.6005 -2.0194
  512MOL0     H70644  10.520   5.320   1.981 -0.0881  2.0307  1.3966
  512MOL0     H70645  10.530   5.482   1.936  0.8959  1.0939  0.8346
  512MOL0     H70646  10.415   5.424   2.160 -0.5606  0.4616  1.2112
  512MOL0     H70647  10.288   5.336   2.061 -0.2223  0.1581 -1.6577
  512MOL0     H70648  10.335   5.643   2.064 -2.5302  0.7932  0.7628
  512MOL0     H70649  10.226   5.543   1.964  0.7730 -3.3865 -0.8629
  512MOL0     H70650  10.117   5.461   2.140 -1.3372  0.2459  0.4201
  512MOL0     H70651  10.095   5.637   2.148 -0.2357 -0.2688 -2.1746
  512MOL0     H70652  10.292   5.550   2.505  0.8212 -0.0696 -0.9979
  512MOL0     H70653  10.598   5.180   1.837 -0.2776  1.6496  1.2995
  512MOL0     H70654  10.806   5.116   1.571 -0.0950 -2.5324 -1.0508
  512MOL0     H70655  10.774   5.079   1.742  0.7133  1.6485 -0.3821
  512MOL0     H70656  10.719   4.975   1.598  1.5963  1.6107 -2.4311
  513MOL0     O70657   1.434   8.291   2.571  0.5683 -0.0278  0.3555
  513MOL0     C70658   1.391   8.392   2.615  0.3583  0.3174  0.1257
  513MOL0     O70659   1.458   8.506   2.648 -0.5186  0.2619  0.1172
  513MOL0     C70660   1.595   8.480   2.650 -0.0832  0.2103  0.7143
  513MOL0     C70661   1.670   8.492   2.527  0.4386  0.9325 -0.1065
  513MOL0     C70662   1.806   8.480   2.528 -0.0111 -0.8620  0.2612
  513MOL0     C70663   1.875   8.443   2.646 -0.3137  0.3910 -0.0372
  513MOL0     O70664   2.009   8.408   2.627 -0.5639  0.2560 -0.3993
  513MOL0     C70665   2.092   8.426   2.739 -1.5692  0.6231 -0.2229
  513MOL0     C70666   2.230   8.375   2.705 -0.0568 -0.6330 -0.3761
  513MOL0     C70667   2.349   8.402   2.810 -0.5331  0.2490  0.3196
  513MOL0     C70668   2.496   8.436   2.745  0.1361  0.5865  0.1118
  513MOL0     C70669   2.590   8.470   2.858  0.1075  0.9852  0.2258
  513MOL0     C70670   2.704   8.555   2.803 -0.9182 -0.2433  0.7757
  513MOL0     C70671   2.814   8.604   2.899  0.2435 -0.0488 -0.2156
  513MOL0     C70672   2.749   8.665   3.028  0.3866 -0.0062 -0.1974
  513MOL0     N70673   2.851   8.760   3.082 -0.0697 -0.0660  0.2140
  513MOL0     C70674   2.843   8.891   3.078 -0.8482  0.0067 -0.2967
  513MOL0     C70675   2.950   8.937   3.157  0.8055  1.0996  1.1204
  513MOL0     C70676   2.982   9.077   3.200  0.3517  0.3759 -0.4526
  513MOL0     C70677   3.087   9.077   3.308 -0.9533  0.0733 -0.1835
  513MOL0     C70678   3.159   9.211   3.332 -0.6842 -0.1450  0.0496
  513MOL0     C70679   3.246   9.253   3.216  0.3347 -0.3752 -0.3462
  513MOL0     O70680   3.323   9.151   3.161 -0.1932 -0.0184 -0.0803
  513MOL0     C70681   3.459   9.138   3.198  0.2562  0.0356  0.7596
  513MOL0     C70682   3.519   9.210   3.308  0.5202  1.0461  0.4436
  513MOL0     C70683   3.659   9.219   3.323  0.3368  0.2063 -0.4342
  513MOL0     C70684   3.718   9.322   3.428 -0.1111  0.7612  0.3195
  513MOL0     C70685   3.739   9.128   3.250  0.0506 -0.3373 -0.4361
  513MOL0     C70686   3.889   9.112   3.270  1.1645  0.8293 -0.8007
  513MOL0     O70687   3.961   9.073   3.165 -0.1984  0.3871  0.2587
  513MOL0     C70688   4.102   9.094   3.165  0.3907  0.1090 -0.3548
  513MOL0     C70689   4.194   9.010   3.232 -0.3475 -0.8107  0.6440
  513MOL0     C70690   4.326   9.061   3.236  0.4874  0.7455 -0.5304
  513MOL0     C70691   4.368   9.184   3.187  0.7784  0.2849  1.3474
  513MOL0     O70692   4.495   9.229   3.211  0.5742 -0.0025  0.4555
  513MOL0     C70693   4.599   9.154   3.159 -0.9256 -0.4329  0.7734
  513MOL0     C70694   4.731   9.235   3.185  0.0182  0.1705  0.4026
  513MOL0     C70695   4.856   9.151   3.143 -0.1559 -0.9030 -1.1869
  513MOL0     C70696   4.916   9.090   3.271 -0.0536  0.3012  0.7110
  513MOL0     C70697   5.028   9.007   3.239  0.3707  0.5623 -0.0170
  513MOL0     C70698   5.112   8.978   3.367  0.3061 -0.6588  0.1686
  513MOL0     C70699   5.238   8.908   3.332  0.1960  0.4881 -0.3556
  513MOL0     C70700   5.323   8.896   3.462 -0.2190  0.6932 -0.0667
  513MOL0    Cl70701   5.323   9.034   3.565 -0.2269  0.0373  0.0923
  513MOL0     C70702   4.274   9.264   3.122  0.4139  0.5279  0.0973
  513MOL0     C70703   4.141   9.221   3.110  0.4954 -0.0720 -0.4802
  513MOL0     O70704   3.929   9.121   3.391  0.4242  0.0323  0.1939
  513MOL0     C70705   3.675   9.055   3.146 -0.6940 -0.1696 -0.8917
  513MOL0     C70706   3.539   9.053   3.124  0.6038  0.8642 -0.1990
  513MOL0     N70707   3.015   8.820   3.197  0.0071  0.2976  0.5255
  513MOL0     N70708   2.956   8.710   3.160  0.9270 -0.5898 -0.1644
  513MOL0     C70709   1.801   8.441   2.767  0.3056  0.2079 -0.4137
  513MOL0     C70710   1.661   8.458   2.773  0.0808  0.3747 -0.0747
  513MOL0     C70711   1.242   8.406   2.620  0.3794 -0.6331 -0.0463
  513MOL0     C70712   1.169   8.342   2.514 -0.0669 -0.2181  0.6692
  513MOL0     C70713   1.031   8.349   2.500  0.4705 -0.9946 -0.5420
  513MOL0     C70714   0.956   8.427   2.594  0.1458 -0.0544  0.1633
  513MOL0     O70715   0.822   8.431   2.597 -0.2440 -0.0957 -0.0739
  513MOL0     C70716   0.744   8.360   2.504 -0.0551  0.4902  0.4083
  513MOL0     C70717   0.613   8.373   2.555  0.7446 -0.3810 -0.2210
  513MOL0     C70718   0.506   8.339   2.456  0.1445 -0.6119 -0.2397
  513MOL0     C70719   0.374   8.331   2.529  0.1053  0.6956 -0.1847
  513MOL0     C70720   0.263   8.293   2.444  0.1143 -0.7531  0.4152
  513MOL0     C70721   0.165   8.241   2.390 -0.2852 -0.5648 -0.0401
  513MOL0     C70722   1.030   8.498   2.687 -1.3956 -0.4021 -0.4112
  513MOL0     C70723   1.171   8.492   2.706  0.2213  0.1978  0.1822
  513MOL0     C70724   1.229   8.569   2.820 -0.6795 -0.2490  1.4041
  513MOL0     H70725   1.623   8.523   2.434  0.8819  0.6376 -0.4347
  513MOL0     H70726   1.851   8.493   2.430 -1.9554 -1.1016 -0.7022
  513MOL0     H70727   2.064   8.354   2.816  0.9224 -1.3046 -0.9781
  513MOL0     H70728   2.101   8.531   2.768 -1.3909  1.0371 -1.6626
  513MOL0     H70729   2.241   8.266   2.700  0.3101 -0.5435 -1.9076
  513MOL0     H70730   2.256   8.403   2.603 -1.9818  1.3166 -0.3933
  513MOL0     H70731   2.319   8.498   2.851  0.0921 -0.0124  1.4202
  513MOL0     H70732   2.353   8.317   2.879  0.2268 -1.4447 -1.7051
  513MOL0     H70733   2.522   8.348   2.686 -0.4252  0.3636  0.1908
  513MOL0     H70734   2.479   8.521   2.679 -2.3465 -0.8487 -1.2642
  513MOL0     H70735   2.638   8.383   2.903  0.8860  1.1914 -0.1971
  513MOL0     H70736   2.535   8.513   2.942 -2.3849  0.2710 -0.9081
  513MOL0     H70737   2.754   8.492   2.729  0.1062  0.8953  0.4692
  513MOL0     H70738   2.661   8.641   2.751 -0.9003 -0.2969  0.6733
  513MOL0     H70739   2.878   8.672   2.844  0.8630 -0.1526  0.3603
  513MOL0     H70740   2.872   8.516   2.931 -0.3001 -0.3279  0.0362
  513MOL0     H70741   2.658   8.722   3.005  1.5713  3.3044  2.5534
  513MOL0     H70742   2.721   8.592   3.103 -1.6465  1.3089  0.4067
  513MOL0     H70743   2.758   8.947   3.040 -1.9815  0.0174  2.0731
  513MOL0     H70744   2.898   9.128   3.248 -0.0617 -1.9535  1.4884
  513MOL0     H70745   3.019   9.130   3.112 -0.1205  0.5875 -0.5279
  513MOL0     H70746   3.035   9.044   3.398 -3.4266  3.7911 -0.0399
  513MOL0     H70747   3.163   9.001   3.287 -2.6962 -1.5533 -0.9970
  513MOL0     H70748   3.082   9.287   3.338 -1.3950 -0.7803 -0.7665
  513MOL0     H70749   3.221   9.208   3.422 -0.4953  1.9640  0.0469
  513MOL0     H70750   3.174   9.273   3.136 -0.8061 -0.3842  0.6440
  513MOL0     H70751   3.300   9.347   3.230  0.3376 -0.7839  3.1373
  513MOL0     H70752   3.450   9.264   3.373 -0.7040  2.0366 -1.6018
  513MOL0     H70753   3.716   9.275   3.527  2.7120 -0.5864 -0.1568
  513MOL0     H70754   3.660   9.414   3.436  1.3448  2.0611 -2.4631
  513MOL0     H70755   3.821   9.355   3.419  0.5945 -1.6706 -2.1586
  513MOL0     H70756   4.159   8.919   3.279 -1.4037 -0.2441  0.9835
  513MOL0     H70757   4.393   9.000   3.296 -1.5300 -0.1917  0.8864
  513MOL0     H70758   4.615   9.050   3.190  4.2544  0.1621  1.0319
  513MOL0     H70759   4.594   9.156   3.050  2.5108 -0.0926  0.4886
  513MOL0     H70760   4.732   9.326   3.124  3.5908  0.2580  0.3571
  513MOL0     H70761   4.738   9.262   3.291 -3.0952  0.2931  0.6630
  513MOL0     H70762   4.930   9.210   3.089  0.0260  0.8180  0.7991
  513MOL0     H70763   4.817   9.072   3.078 -2.2249 -1.4494  0.5890
  513MOL0     H70764   4.841   9.025   3.318  0.4964  0.8610  2.4140
  513MOL0     H70765   4.938   9.169   3.342  0.3747 -0.1205  1.0564
  513MOL0     H70766   5.002   8.907   3.202  3.3751 -1.1428  2.0487
  513MOL0     H70767   5.094   9.052   3.164  1.2311 -3.0092 -1.6593
  513MOL0     H70768   5.042   8.926   3.434  1.0616 -1.4675  0.3476
  513MOL0     H70769   5.141   9.075   3.410 -1.5272  0.4896 -1.0357
  513MOL0     H70770   5.293   8.973   3.265  0.4769  1.5396  0.8587
  513MOL0     H70771   5.223   8.812   3.282 -4.4531  2.2233 -2.8956
  513MOL0     H70772   5.426   8.902   3.425  0.1013  2.6824  1.0371
  513MOL0     H70773   5.294   8.813   3.527  0.6831  0.5046  0.1164
  513MOL0     H70774   4.307   9.363   3.095 -0.5305  1.7329  2.9383
  513MOL0     H70775   4.053   9.275   3.077 -1.3633 -2.0676  0.9786
  513MOL0     H70776   3.732   9.014   3.063 -1.5372 -1.7873 -0.7069
  513MOL0     H70777   3.513   8.994   3.037  3.5400 -0.6560 -0.1748
  513MOL0     H70778   1.862   8.429   2.856 -0.2282  2.4824  0.3363
  513MOL0     H70779   1.614   8.442   2.869 -2.3074 -3.1987 -1.6226
  513MOL0     H70780   1.233   8.279   2.454  2.1721  3.6400 -1.4539
  513MOL0     H70781   0.983   8.310   2.410 -2.6028 -0.8525  0.9024
  513MOL0     H70782   0.758   8.397   2.402  2.5949 -0.8155  0.2112
  513MOL0     H70783   0.780   8.257   2.511  2.2620  1.2896  1.1128
  513MOL0     H70784   0.608   8.473   2.599  3.5613  0.2656 -1.1038
  513MOL0     H70785   0.612   8.309   2.643 -0.1211 -1.2112 -0.8232
  513MOL0     H70786   0.489   8.419   2.382 -1.7854  0.6383  1.4507
  513MOL0     H70787   0.525   8.242   2.408  0.7233  0.1269 -1.5766
  513MOL0     H70788   0.341   8.424   2.576 -0.5329  1.0881 -1.3720
  513MOL0     H70789   0.378   8.250   2.603 -0.4669 -1.3393 -2.2576
  513MOL0     H70790   0.083   8.195   2.339 -1.0452 -0.4492  1.0566
  513MOL0     H70791   0.975   8.573   2.743  1.8832  1.4052  0.6486
  513MOL0     H70792   1.154   8.594   2.897 -0.8031 -0.0305  1.2134
  513MOL0     H70793   1.318   8.526   2.867  2.2742  1.7783 -1.8449
  513MOL0     H70794   1.265   8.661   2.773 -2.2146 -0.9287 -1.3008
  514MOL0     O70795   7.346   6.018   7.533  0.1805  0.8246  1.1091
  514MOL0     C70796   7.253   5.941   7.548 -0.3348 -0.8623 -0.6503
  514MOL0     O70797   7.251   5.803   7.537  0.5633  0.2273  0.5136
  514MOL0     C70798   7.309   5.743   7.425  0.0657 -0.1332 -0.6339
  514MOL0     C70799   7.351   5.806   7.302 -0.5299  0.0380 -0.9814
  514MOL0     C70800   7.396   5.736   7.202  0.4151  0.8456 -0.3898
  514MOL0     C70801   7.386   5.592   7.197 -0.6692  0.8179  0.4170
  514MOL0     O70802   7.395   5.510   7.089 -0.1351  0.3635  0.7555
  514MOL0     C70803   7.402   5.584   6.968 -0.8918  0.1483  0.2936
  514MOL0     C70804   7.393   5.486   6.848 -0.1850 -0.7936 -0.4862
  514MOL0     C70805   7.518   5.394   6.849 -0.9422  0.1883 -0.5609
  514MOL0     C70806   7.531   5.320   6.715 -0.2774  0.1514 -0.3399
  514MOL0     C70807   7.662   5.237   6.704 -0.6392 -0.1136  0.5652
  514MOL0     C70808   7.639   5.146   6.579  0.4673 -0.4760 -0.3623
  514MOL0     C70809   7.748   5.154   6.478 -0.3222 -0.4164  0.5584
  514MOL0     C70810   7.893   5.147   6.525 -0.3237 -0.0395 -0.2795
  514MOL0     N70811   7.912   5.032   6.624 -0.1039  0.5274  0.8116
  514MOL0     C70812   7.912   4.905   6.576 -0.1550  0.0441 -0.6352
  514MOL0     C70813   7.949   4.835   6.691  0.7833  0.1243 -0.3408
  514MOL0     C70814   7.941   4.686   6.725 -0.4054 -0.2482 -0.3117
  514MOL0     C70815   8.088   4.632   6.733 -0.4149 -0.8794 -0.3794
  514MOL0     C70816   8.161   4.654   6.602  0.5298  0.9792 -0.2374
  514MOL0     C70817   8.309   4.610   6.612 -0.6734 -0.4584 -0.5851
  514MOL0     O70818   8.324   4.470   6.643 -0.7254  0.1497  0.4175
  514MOL0     C70819   8.452   4.421   6.663 -0.4002  0.4562 -0.4492
  514MOL0     C70820   8.575   4.492   6.658 -0.4787  1.0434 -0.6803
  514MOL0     C70821   8.706   4.432   6.664 -0.3978  1.1127  0.1126
  514MOL0     C70822   8.827   4.518   6.671 -0.8569 -1.3066  0.0457
  514MOL0     C70823   8.704   4.289   6.680 -0.0402 -0.0355  0.3920
  514MOL0     C70824   8.832   4.206   6.675 -0.3908 -0.3240 -0.5885
  514MOL0     O70825   8.827   4.072   6.652 -0.0851  0.5778 -0.0340
  514MOL0     C70826   8.926   3.988   6.623 -0.5038 -0.6469  0.8356
  514MOL0     C70827   9.010   3.936   6.718 -0.0126  0.0663 -0.5450
  514MOL0     C70828   9.102   3.829   6.699 -0.2338  0.2758 -0.3942
  514MOL0     C70829   9.106   3.765   6.576  0.0495 -0.4475 -0.6046
  514MOL0     O70830   9.196   3.662   6.564  0.3489 -0.6162  0.0430
  514MOL0     C70831   9.231   3.601   6.439  0.9956  0.5419 -0.2763
  514MOL0     C70832   9.347   3.508   6.463  0.5295  0.6067  0.3735
  514MOL0     C70833   9.301   3.387   6.546 -0.8493 -1.3675 -0.1144
  514MOL0     C70834   9.420   3.298   6.579  0.6638 -0.1360 -0.1795
  514MOL0     C70835   9.383   3.193   6.676 -0.4149  0.4733  0.3938
  514MOL0     C70836   9.509   3.105   6.717  0.5011  0.5924 -0.3791
  514MOL0     C70837   9.453   2.979   6.791  0.9926 -0.3355 -0.8085
  514MOL0     C70838   9.568   2.870   6.820  0.8404 -0.5546 -0.3877
  514MOL0    Cl70839   9.671   2.897   6.966 -0.1242  0.2082  0.0789
  514MOL0     C70840   9.025   3.819   6.468 -0.0934 -0.1252  0.4164
  514MOL0     C70841   8.938   3.936   6.498 -0.5693 -0.0079  1.5189
  514MOL0     O70842   8.937   4.268   6.669  0.0346 -0.5481  0.5481
  514MOL0     C70843   8.577   4.222   6.688  0.1841 -0.0509  0.3336
  514MOL0     C70844   8.457   4.287   6.679  0.4077  0.1031 -0.2895
  514MOL0     N70845   7.956   4.920   6.801 -0.2394 -1.1392  0.3147
  514MOL0     N70846   7.942   5.038   6.751  0.6191 -0.8866 -0.6776
  514MOL0     C70847   7.355   5.527   7.318  0.3543 -0.5557  0.0963
  514MOL0     C70848   7.326   5.605   7.433  1.0008  0.5842 -0.8141
  514MOL0     C70849   7.117   5.998   7.592 -0.3317  1.2901 -0.7047
  514MOL0     C70850   7.018   6.031   7.501 -0.4656 -0.1184 -0.3147
  514MOL0     C70851   6.884   6.071   7.535 -0.4752 -0.0168 -0.1554
  514MOL0     C70852   6.868   6.111   7.670  1.2415 -0.4022 -0.1863
  514MOL0     O70853   6.749   6.172   7.722 -0.3470 -0.3164  0.1676
  514MOL0     C70854   6.627   6.140   7.652 -0.8712  1.3061 -0.5469
  514MOL0     C70855   6.570   6.005   7.652  0.4751 -0.5377  0.0185
  514MOL0     C70856   6.437   6.010   7.563  0.4872  0.3294  0.6494
  514MOL0     C70857   6.482   5.982   7.414 -0.7680 -0.8544  0.2260
  514MOL0     C70858   6.364   5.951   7.340 -1.0793  0.4403  0.8581
  514MOL0     C70859   6.273   5.911   7.276  0.3915  0.3536  0.5654
  514MOL0     C70860   6.967   6.092   7.760 -0.0476 -0.1212  0.2957
  514MOL0     C70861   7.095   6.027   7.729 -0.0992  0.3214  0.9391
  514MOL0     C70862   7.176   5.993   7.850 -0.4487 -0.1634  0.3851
  514MOL0     H70863   7.339   5.914   7.304  0.0523  0.0956 -0.1582
  514MOL0     H70864   7.418   5.798   7.116  1.4649  1.3828  0.2427
  514MOL0     H70865   7.501   5.630   6.964 -1.0565  0.6257  1.3785
  514MOL0     H70866   7.312   5.643   6.951  0.2661  1.4449 -1.7220
  514MOL0     H70867   7.305   5.423   6.864 -0.7139  0.4888  2.3036
  514MOL0     H70868   7.392   5.541   6.754  2.2670  1.7980  0.8437
  514MOL0     H70869   7.608   5.457   6.853 -1.7682  1.3158  0.8020
  514MOL0     H70870   7.521   5.314   6.923 -2.9784  0.5995  0.0163
  514MOL0     H70871   7.441   5.262   6.694 -0.5359 -1.0726  3.3930
  514MOL0     H70872   7.540   5.397   6.637 -1.1142  1.0274  0.3930
  514MOL0     H70873   7.673   5.171   6.790 -0.7370 -1.6301 -0.5443
  514MOL0     H70874   7.738   5.314   6.691 -2.8713  1.7210 -3.3152
  514MOL0     H70875   7.620   5.040   6.601  1.1775 -0.2342  1.5408
  514MOL0     H70876   7.543   5.178   6.536 -0.2963 -1.9075  0.1978
  514MOL0     H70877   7.732   5.250   6.428  2.5453 -0.4899 -0.6554
  514MOL0     H70878   7.745   5.076   6.402 -1.3981  1.4059 -1.3511
  514MOL0     H70879   7.957   5.122   6.439  1.3124  1.8686  0.3156
  514MOL0     H70880   7.923   5.246   6.560 -0.1985 -1.2263  3.2912
  514MOL0     H70881   7.870   4.865   6.485 -0.6121  1.4033 -1.0309
  514MOL0     H70882   7.891   4.636   6.642  0.9259 -0.2102 -1.1721
  514MOL0     H70883   7.883   4.675   6.817 -1.0021  0.2684 -0.6217
  514MOL0     H70884   8.149   4.681   6.810 -1.1420  0.6661 -0.7468
  514MOL0     H70885   8.084   4.526   6.759  2.0053 -0.5844  1.5748
  514MOL0     H70886   8.112   4.589   6.529  2.9636  0.2678 -1.3096
  514MOL0     H70887   8.155   4.756   6.563 -2.3042  0.7007 -0.7686
  514MOL0     H70888   8.370   4.635   6.524 -0.6372 -4.7440 -1.9877
  514MOL0     H70889   8.355   4.666   6.694 -1.7775 -1.4753  0.7742
  514MOL0     H70890   8.573   4.598   6.637  1.1485  0.7743 -2.4548
  514MOL0     H70891   8.796   4.623   6.667  1.0516 -0.7412 -1.8546
  514MOL0     H70892   8.892   4.500   6.585 -0.6884  2.5175 -0.8170
  514MOL0     H70893   8.880   4.501   6.765 -3.3471 -1.3304  1.5253
  514MOL0     H70894   9.020   3.991   6.811 -1.0691 -4.0588  2.2926
  514MOL0     H70895   9.177   3.798   6.772 -0.7371  1.2465  0.5799
  514MOL0     H70896   9.143   3.550   6.399  1.1932  2.2775 -3.2445
  514MOL0     H70897   9.256   3.679   6.366  2.0391 -0.9739 -1.6006
  514MOL0     H70898   9.379   3.466   6.368 -1.8718 -2.7018  0.8461
  514MOL0     H70899   9.420   3.579   6.502  0.8042  1.0861 -0.9777
  514MOL0     H70900   9.229   3.331   6.485 -2.7918  3.9491 -3.4456
  514MOL0     H70901   9.245   3.422   6.634 -0.4016  0.9856 -0.6978
  514MOL0     H70902   9.504   3.361   6.611  1.4281 -1.2342  0.0280
  514MOL0     H70903   9.466   3.248   6.494  3.0009 -2.8724  2.4885
  514MOL0     H70904   9.341   3.237   6.767  1.6889  0.8633  1.2415
  514MOL0     H70905   9.303   3.130   6.637 -1.8247 -2.5121  6.7200
  514MOL0     H70906   9.571   3.161   6.788 -1.3739  1.3366  0.7327
  514MOL0     H70907   9.557   3.072   6.624 -3.3095 -2.1863 -1.6309
  514MOL0     H70908   9.375   2.929   6.732  0.4629 -1.5083  0.8430
  514MOL0     H70909   9.412   3.006   6.889  2.6073  0.2184 -0.2532
  514MOL0     H70910   9.630   2.836   6.737  0.7707 -0.7787 -0.3484
  514MOL0     H70911   9.509   2.778   6.827 -0.5042  0.1214 -1.8719
  514MOL0     H70912   9.016   3.754   6.382  0.3274  1.6211 -0.9820
  514MOL0     H70913   8.874   3.974   6.420  2.4589 -1.4368 -1.9414
  514MOL0     H70914   8.571   4.114   6.691 -4.2464 -0.1680 -2.7822
  514MOL0     H70915   8.365   4.229   6.687 -0.4801  1.6550  1.6382
  514MOL0     H70916   7.363   5.419   7.318  2.4954 -0.4317 -0.4332
  514MOL0     H70917   7.295   5.550   7.521 -0.8402  3.2310  0.3497
  514MOL0     H70918   7.036   6.008   7.397  0.2519  0.3538 -0.3017
  514MOL0     H70919   6.813   6.075   7.453  1.1617  0.8479 -1.5813
  514MOL0     H70920   6.554   6.186   7.719  1.4649 -0.8227  3.8784
  514MOL0     H70921   6.635   6.179   7.550  0.9251  0.6023 -0.7132
  514MOL0     H70922   6.543   5.978   7.755  1.5775 -1.0453  0.1916
  514MOL0     H70923   6.643   5.931   7.618 -1.3354 -2.7556  0.7588
  514MOL0     H70924   6.380   5.924   7.600  0.1566 -0.0586 -0.7223
  514MOL0     H70925   6.385   6.106   7.572  2.0635  1.5211 -1.9859
  514MOL0     H70926   6.541   5.890   7.415  0.3075 -0.1975  1.7900
  514MOL0     H70927   6.542   6.068   7.382  0.3475 -1.1468  1.4071
  514MOL0     H70928   6.193   5.879   7.213  2.0807 -4.1369  0.3254
  514MOL0     H70929   6.947   6.109   7.865  1.8060 -5.1806  1.7940
  514MOL0     H70930   7.161   5.885   7.861 -2.7242 -0.1769 -1.8504
  514MOL0     H70931   7.279   6.025   7.835 -1.0915  0.6236 -3.2287
  514MOL0     H70932   7.142   6.045   7.940  0.8285  0.0135  0.7890
  515MOL0     O70933   6.994   3.882   5.952  0.9636  0.5251 -0.0980
  515MOL0     C70934   6.962   3.789   5.874 -0.5176  0.2274  0.0394
  515MOL0     O70935   7.045   3.688   5.834  0.1001 -0.0169  0.9558
  515MOL0     C70936   7.151   3.656   5.911 -1.6080  0.5491 -0.2321
  515MOL0     C70937   7.145   3.644   6.051  0.8981  0.1557 -0.6692
  515MOL0     C70938   7.259   3.614   6.129  0.0142 -0.0132  0.0656
  515MOL0     C70939   7.385   3.584   6.067  0.6013 -0.7014 -0.0569
  515MOL0     O70940   7.485   3.544   6.161  0.1831 -0.3658 -0.2032
  515MOL0     C70941   7.593   3.466   6.109 -0.1703  0.2496 -0.6288
  515MOL0     C70942   7.681   3.429   6.233  0.6824 -0.0371  0.0960
  515MOL0     C70943   7.807   3.511   6.212 -0.4039 -0.5465  0.0032
  515MOL0     C70944   7.897   3.473   6.335  0.8106  0.0933 -0.0443
  515MOL0     C70945   8.036   3.545   6.354 -0.0434 -0.4275 -0.5675
  515MOL0     C70946   8.133   3.519   6.241  0.7114  0.2845  0.2829
  515MOL0     C70947   8.266   3.571   6.282 -0.1258 -0.1149 -0.4338
  515MOL0     C70948   8.378   3.552   6.179 -0.2237  0.0774 -0.3327
  515MOL0     N70949   8.462   3.435   6.204 -0.3090  0.8147  0.2009
  515MOL0     C70950   8.486   3.375   6.325 -0.6042  0.4833 -0.5971
  515MOL0     C70951   8.575   3.273   6.306  0.2995 -0.0342  0.5351
  515MOL0     C70952   8.617   3.186   6.419 -0.4519  0.0500  0.4191
  515MOL0     C70953   8.767   3.203   6.467 -0.3149  0.2658 -0.1693
  515MOL0     C70954   8.851   3.103   6.378  0.1965 -0.0976  0.2232
  515MOL0     C70955   9.000   3.105   6.413  1.5280  0.3562 -0.1835
  515MOL0     O70956   9.074   3.020   6.325 -0.0886 -0.6363 -0.1840
  515MOL0     C70957   9.191   2.973   6.376  0.8726 -0.2623 -0.6343
  515MOL0     C70958   9.199   2.864   6.472  0.9224  0.6404  0.0928
  515MOL0     C70959   9.317   2.798   6.497 -0.5543 -0.4202 -0.4038
  515MOL0     C70960   9.306   2.672   6.581  0.0570  0.5425 -0.5479
  515MOL0     C70961   9.439   2.841   6.442 -0.0673 -1.2570  1.3245
  515MOL0     C70962   9.579   2.782   6.449  0.4862 -0.0585 -0.9705
  515MOL0     O70963   9.684   2.851   6.396 -0.2961  0.3618 -0.1766
  515MOL0     C70964   9.818   2.822   6.447 -0.2602 -1.4515  0.9412
  515MOL0     C70965   9.919   2.859   6.350 -0.3259  1.3411 -0.0159
  515MOL0     C70966  10.051   2.856   6.391 -0.1768  0.3212  0.1528
  515MOL0     C70967  10.087   2.809   6.513  0.0431  0.6054 -0.5217
  515MOL0     O70968  10.211   2.845   6.557  0.3612  0.4855 -0.0377
  515MOL0     C70969  10.290   2.756   6.629 -0.0103  0.6322 -0.0275
  515MOL0     C70970  10.406   2.702   6.541 -1.0299  0.3149 -0.2417
  515MOL0     C70971  10.488   2.818   6.490 -0.4596 -0.1279 -0.3390
  515MOL0     C70972  10.597   2.757   6.401  0.1059 -0.0721  0.2275
  515MOL0     C70973  10.742   2.804   6.437  0.6043  0.6072  0.3535
  515MOL0     C70974  10.767   2.952   6.425 -0.8580  0.0630 -0.5827
  515MOL0     C70975  10.899   3.004   6.485  0.5823 -0.0090 -0.2630
  515MOL0     C70976  11.004   3.037   6.379 -0.5685  0.0433 -0.7894
  515MOL0    Cl70977  11.062   2.883   6.307 -0.4662 -0.1192  0.1797
  515MOL0     C70978   9.989   2.766   6.612  1.3557  0.7851  0.5665
  515MOL0     C70979   9.851   2.775   6.572  0.2366  0.6919 -1.3447
  515MOL0     O70980   9.582   2.667   6.504 -0.1527 -0.1628 -0.2395
  515MOL0     C70981   9.430   2.958   6.365  0.6216 -0.5188 -0.0913
  515MOL0     C70982   9.311   3.024   6.327  0.0665 -0.0844  0.2363
  515MOL0     N70983   8.603   3.269   6.167  0.3777  0.4489  0.0634
  515MOL0     N70984   8.539   3.367   6.108  0.4421 -0.8232  0.3943
  515MOL0     C70985   7.390   3.586   5.930 -0.2162 -0.6939 -0.2265
  515MOL0     C70986   7.279   3.623   5.857  0.0123 -0.1070  1.0773
  515MOL0     C70987   6.829   3.778   5.813 -0.4371  0.8606 -0.1766
  515MOL0     C70988   6.755   3.656   5.834  0.2904 -0.4432  0.0174
  515MOL0     C70989   6.619   3.648   5.792  0.0445 -0.6404  1.0062
  515MOL0     C70990   6.554   3.751   5.709  0.4465 -0.0397  0.0730
  515MOL0     O70991   6.423   3.736   5.675  0.3929  0.6259  0.0989
  515MOL0     C70992   6.355   3.818   5.582  0.2315 -0.3134 -1.5468
  515MOL0     C70993   6.228   3.740   5.535  0.0585  0.0892 -0.2046
  515MOL0     C70994   6.254   3.604   5.476 -0.3124 -0.6172 -0.0694
  515MOL0     C70995   6.127   3.521   5.471  0.5462 -0.1329 -0.2397
  515MOL0     C70996   6.138   3.402   5.375  0.1630  0.9586  0.6658
  515MOL0     C70997   6.152   3.291   5.318  0.6305  0.5733  0.3522
  515MOL0     C70998   6.631   3.871   5.699  0.6921  0.2610  0.3484
  515MOL0     C70999   6.762   3.882   5.755 -0.0289 -0.0833  0.3528
  515MOL0     C71000   6.838   4.014   5.728 -0.0618  0.9100  0.0400
  515MOL0     H71001   7.063   3.690   6.104  0.6458 -1.8587  0.8204
  515MOL0     H71002   7.266   3.616   6.237 -0.1693  2.9258  0.1040
  515MOL0     H71003   7.645   3.529   6.037 -1.6289  2.2811  0.0064
  515MOL0     H71004   7.549   3.383   6.054 -1.8941  0.2995  0.5825
  515MOL0     H71005   7.633   3.472   6.321  1.5386 -1.2089  1.1540
  515MOL0     H71006   7.711   3.325   6.250  2.1878  0.3407 -0.1352
  515MOL0     H71007   7.856   3.487   6.117 -1.7092  1.2948 -1.2019
  515MOL0     H71008   7.798   3.620   6.206 -0.8215 -0.6114 -0.5555
  515MOL0     H71009   7.846   3.516   6.421  0.0363 -0.6356 -0.1322
  515MOL0     H71010   7.902   3.364   6.336 -3.4168 -0.2611  1.5186
  515MOL0     H71011   8.086   3.520   6.448  1.1353 -0.5421 -1.2157
  515MOL0     H71012   8.011   3.651   6.354 -1.8684 -0.8033  0.5467
  515MOL0     H71013   8.137   3.410   6.231 -1.5875  0.0172  1.6212
  515MOL0     H71014   8.096   3.553   6.144  2.6488 -0.9323 -0.9632
  515MOL0     H71015   8.296   3.527   6.378  4.0905 -0.6355 -1.7916
  515MOL0     H71016   8.241   3.677   6.290 -1.5576 -0.5081  0.8257
  515MOL0     H71017   8.331   3.535   6.082  1.2185  2.2155 -1.4921
  515MOL0     H71018   8.439   3.643   6.183 -1.3260  0.8104  1.0068
  515MOL0     H71019   8.436   3.399   6.418  0.1712  3.0321 -0.7663
  515MOL0     H71020   8.589   3.084   6.390 -2.8294  0.4986  0.9470
  515MOL0     H71021   8.558   3.203   6.509  4.3686  0.6337  3.8232
  515MOL0     H71022   8.806   3.302   6.442 -1.8943  1.0213  0.2238
  515MOL0     H71023   8.780   3.191   6.575 -1.2104  1.1874  0.0605
  515MOL0     H71024   8.824   2.998   6.398  0.7169  0.1761  2.5660
  515MOL0     H71025   8.833   3.141   6.277 -0.5562 -0.2136  0.3103
  515MOL0     H71026   9.040   3.206   6.419  2.0875  0.1285 -0.0384
  515MOL0     H71027   9.005   3.074   6.518 -2.0547 -1.4805 -0.3954
  515MOL0     H71028   9.103   2.825   6.503  1.0765 -2.5218 -2.7861
  515MOL0     H71029   9.217   2.664   6.644  0.9757 -2.8395  0.4816
  515MOL0     H71030   9.391   2.666   6.649 -0.2849 -0.9435 -0.2148
  515MOL0     H71031   9.307   2.582   6.519 -1.3531  1.1503 -1.5225
  515MOL0     H71032   9.886   2.897   6.255 -4.0679  2.8322  1.7069
  515MOL0     H71033  10.125   2.907   6.331 -0.4230  1.7983  1.0362
  515MOL0     H71034  10.331   2.809   6.715 -0.7521 -0.1328  0.8209
  515MOL0     H71035  10.229   2.675   6.669 -2.6683  2.1046 -0.8991
  515MOL0     H71036  10.470   2.631   6.595 -0.8523  1.7645  1.5191
  515MOL0     H71037  10.363   2.659   6.450 -0.7607  0.1772 -0.3067
  515MOL0     H71038  10.528   2.862   6.581 -1.4128 -0.6952  0.3729
  515MOL0     H71039  10.424   2.890   6.438 -0.5164  1.3584  1.6707
  515MOL0     H71040  10.585   2.778   6.295  3.6438 -1.1336 -0.5194
  515MOL0     H71041  10.616   2.649   6.408 -0.0550 -0.3102 -2.1481
  515MOL0     H71042  10.761   2.760   6.535  2.2509 -1.0205 -0.6272
  515MOL0     H71043  10.805   2.740   6.374 -2.3051 -2.4642  0.2528
  515MOL0     H71044  10.683   3.011   6.463 -0.6493 -0.4591  0.7328
  515MOL0     H71045  10.772   2.983   6.320 -1.0700 -0.0126 -0.6163
  515MOL0     H71046  10.946   2.935   6.555  1.6818  0.1369 -0.8245
  515MOL0     H71047  10.879   3.099   6.536  3.5233  0.4797  0.2069
  515MOL0     H71048  11.084   3.082   6.438 -0.2587  0.7882 -1.7444
  515MOL0     H71049  10.960   3.110   6.309 -3.5534  2.2714  3.0236
  515MOL0     H71050  10.009   2.741   6.716 -2.8337  0.5729  1.4988
  515MOL0     H71051   9.775   2.751   6.645 -1.5426 -0.1112 -3.3403
  515MOL0     H71052   9.521   2.984   6.313  1.3248  1.3469  1.8791
  515MOL0     H71053   9.302   3.115   6.269 -0.4658 -0.4663 -0.2941
  515MOL0     H71054   7.480   3.556   5.877 -0.2709 -1.4863  0.1112
  515MOL0     H71055   7.287   3.615   5.749  1.2856  2.2600  0.9366
  515MOL0     H71056   6.790   3.570   5.891 -3.0342 -1.3558  0.8836
  515MOL0     H71057   6.555   3.562   5.808  0.5805 -1.0299  1.0995
  515MOL0     H71058   6.329   3.918   5.619  1.8200 -0.4623  0.1111
  515MOL0     H71059   6.415   3.834   5.491  0.2646 -2.7615 -2.0164
  515MOL0     H71060   6.182   3.808   5.462 -2.7395 -1.2278  0.1815
  515MOL0     H71061   6.158   3.747   5.619  0.1707  2.7449 -0.2758
  515MOL0     H71062   6.304   3.606   5.379  1.0708 -0.3563  0.6240
  515MOL0     H71063   6.329   3.554   5.538 -1.3353  1.6864  3.3090
  515MOL0     H71064   6.048   3.585   5.430  2.5780  3.4895  1.0273
  515MOL0     H71065   6.089   3.495   5.570 -0.3703 -1.7180 -0.9730
  515MOL0     H71066   6.148   3.201   5.260 -2.8716 -1.3676  3.1318
  515MOL0     H71067   6.591   3.947   5.632 -1.4560 -1.0212  0.0892
  515MOL0     H71068   6.943   4.016   5.759 -0.0789  2.5016  0.0866
  515MOL0     H71069   6.832   4.038   5.621  0.8765 -1.3132 -0.5643
  515MOL0     H71070   6.787   4.096   5.778  0.6196  0.5602  1.3514
  516MOL0     O71071   1.592   4.128   5.076  0.5012 -0.0987 -0.3030
  516MOL0     C71072   1.625   4.100   4.958 -0.1026 -0.0094  0.9251
  516MOL0     O71073   1.759   4.080   4.909  0.2158  0.1293 -0.2468
  516MOL0     C71074   1.855   4.083   5.015  0.0155  1.4507  0.2037
  516MOL0     C71075   1.856   3.970   5.096  0.1555 -0.4766 -0.3897
  516MOL0     C71076   1.959   3.960   5.186  0.4818 -0.0618 -0.3120
  516MOL0     C71077   2.060   4.056   5.206  0.4567  1.3678  0.6732
  516MOL0     O71078   2.156   4.020   5.295  0.2492 -0.3414 -0.0232
  516MOL0     C71079   2.260   4.114   5.322 -0.7249 -0.0838 -0.8330
  516MOL0     C71080   2.356   4.055   5.430  0.5970  0.8078  0.2823
  516MOL0     C71081   2.454   4.161   5.479  0.4649 -0.3288 -0.8152
  516MOL0     C71082   2.393   4.270   5.568  0.1398  0.3422 -0.3515
  516MOL0     C71083   2.490   4.319   5.674 -1.2350  0.3827 -0.2738
  516MOL0     C71084   2.447   4.461   5.720  0.4005  0.4336 -0.7283
  516MOL0     C71085   2.549   4.545   5.808  0.3949  0.5918 -0.0372
  516MOL0     C71086   2.583   4.467   5.937  0.1509  0.4023 -0.6829
  516MOL0     N71087   2.720   4.413   5.930  0.4968  0.1397  0.5568
  516MOL0     C71088   2.761   4.291   5.894 -0.4699 -0.0171  0.1787
  516MOL0     C71089   2.888   4.316   5.852 -0.7009  0.1963  0.0163
  516MOL0     C71090   2.978   4.208   5.786 -0.0003  0.2434  0.1432
  516MOL0     C71091   3.089   4.266   5.691  0.2238 -1.1872  0.3745
  516MOL0     C71092   3.208   4.337   5.756  0.1014 -0.2290  0.2386
  516MOL0     C71093   3.321   4.361   5.653 -0.3533 -0.0357 -0.2579
  516MOL0     O71094   3.420   4.450   5.719  0.0248  0.1522  0.2668
  516MOL0     C71095   3.522   4.505   5.645 -0.5546 -0.4009 -0.3106
  516MOL0     C71096   3.579   4.440   5.539  0.0600  0.1278  0.4723
  516MOL0     C71097   3.690   4.498   5.467  0.1552  0.9158 -1.1323
  516MOL0     C71098   3.755   4.419   5.348  0.3652 -0.1224 -0.5360
  516MOL0     C71099   3.738   4.622   5.507 -0.2251  0.0438  0.3338
  516MOL0     C71100   3.833   4.699   5.428 -0.0708 -0.2114 -0.3850
  516MOL0     O71101   3.934   4.764   5.492  0.1389  0.8320  0.1953
  516MOL0     C71102   4.022   4.845   5.426  0.4714  0.0614  0.3902
  516MOL0     C71103   4.056   4.856   5.288  0.2287  0.8620 -0.9234
  516MOL0     C71104   4.138   4.955   5.235 -0.7263 -0.5676 -0.2513
  516MOL0     C71105   4.201   5.042   5.326 -0.9020  0.0038 -0.1625
  516MOL0     O71106   4.293   5.134   5.277  0.3206  0.2010 -0.0593
  516MOL0     C71107   4.292   5.267   5.336 -0.4726  0.1679  0.4995
  516MOL0     C71108   4.360   5.362   5.239  0.9397 -0.3020  0.1748
  516MOL0     C71109   4.506   5.386   5.290  0.6121  0.7693  0.4793
  516MOL0     C71110   4.578   5.500   5.214  0.0688  0.9493  0.3475
  516MOL0     C71111   4.728   5.477   5.222 -0.7017 -0.1018 -0.1294
  516MOL0     C71112   4.793   5.439   5.361 -0.0629  0.6551 -0.1473
  516MOL0     C71113   4.952   5.432   5.356  0.3434 -0.2959 -0.8253
  516MOL0     C71114   5.014   5.338   5.248  0.0260  0.5575 -0.7926
  516MOL0    Cl71115   5.185   5.298   5.287  0.4007  0.6382  0.1855
  516MOL0     C71116   4.177   5.027   5.463  0.6041 -0.2604 -0.0606
  516MOL0     C71117   4.087   4.929   5.509 -0.0889  0.2888 -0.0463
  516MOL0     O71118   3.799   4.712   5.314  0.2996 -0.5060  0.0822
  516MOL0     C71119   3.688   4.683   5.625  0.1714 -0.8987  0.0888
  516MOL0     C71120   3.580   4.623   5.691  0.0219 -1.1455 -0.2737
  516MOL0     N71121   2.933   4.447   5.888  0.6602 -0.1065 -0.1013
  516MOL0     N71122   2.822   4.499   5.923  0.4723 -0.2947 -0.2890
  516MOL0     C71123   2.050   4.177   5.141 -0.4200 -0.5263  0.5293
  516MOL0     C71124   1.946   4.190   5.037 -0.7025 -0.3424 -0.5873
  516MOL0     C71125   1.518   4.106   4.861 -0.7363 -0.2486  0.1131
  516MOL0     C71126   1.389   4.069   4.893  0.1913  0.1969 -0.2083
  516MOL0     C71127   1.274   4.073   4.812  0.0875  0.4823  0.3992
  516MOL0     C71128   1.303   4.103   4.679  0.4081 -0.7513 -0.0617
  516MOL0     O71129   1.189   4.099   4.596 -0.1764  0.2261  0.8270
  516MOL0     C71130   1.202   4.063   4.456 -0.9312 -0.3617  0.5838
  516MOL0     C71131   1.257   3.910   4.436  0.5082 -0.3900 -0.7231
  516MOL0     C71132   1.196   3.799   4.516  0.0765  1.5732 -0.3372
  516MOL0     C71133   1.049   3.766   4.498 -0.3945 -0.5721 -0.2938
  516MOL0     C71134   1.028   3.733   4.362  0.1807 -0.8099 -0.1087
  516MOL0     C71135   1.012   3.702   4.245  0.7465 -0.1206 -0.1108
  516MOL0     C71136   1.431   4.139   4.635 -0.4543 -0.6156 -1.6469
  516MOL0     C71137   1.540   4.140   4.725 -0.0735  0.2710  0.4221
  516MOL0     C71138   1.671   4.182   4.656 -0.0897  1.0426  0.3437
  516MOL0     H71139   1.777   3.896   5.092  0.1394 -0.4581 -0.4103
  516MOL0     H71140   1.950   3.866   5.240 -2.9127  0.2631 -0.0914
  516MOL0     H71141   2.214   4.195   5.379  1.0799 -0.0128  0.6239
  516MOL0     H71142   2.310   4.149   5.231 -1.0569  1.0861 -0.5843
  516MOL0     H71143   2.294   4.024   5.515 -0.6725 -0.4660 -1.0594
  516MOL0     H71144   2.404   3.966   5.389 -1.9338  0.0489 -1.2551
  516MOL0     H71145   2.531   4.118   5.544  1.4582  0.7138 -1.2574
  516MOL0     H71146   2.513   4.197   5.393  0.9521 -1.5000 -0.9931
  516MOL0     H71147   2.357   4.353   5.507  0.7066  0.2175 -0.8605
  516MOL0     H71148   2.306   4.231   5.622 -0.9569  1.2121 -1.4193
  516MOL0     H71149   2.592   4.324   5.636 -1.8135  2.0056 -1.7486
  516MOL0     H71150   2.491   4.245   5.755 -1.9656 -1.7139 -2.0861
  516MOL0     H71151   2.423   4.528   5.637 -0.6302  1.6841  0.5425
  516MOL0     H71152   2.350   4.445   5.768 -0.7820  0.3670 -2.9794
  516MOL0     H71153   2.506   4.639   5.844  0.4167  0.2228  0.9866
  516MOL0     H71154   2.639   4.567   5.750  1.2211 -2.0447  0.1127
  516MOL0     H71155   2.576   4.533   6.024  1.1243  0.0760 -0.3468
  516MOL0     H71156   2.513   4.387   5.961  0.5014 -0.3426 -2.0772
  516MOL0     H71157   2.695   4.205   5.885 -1.6952  0.5259  2.8434
  516MOL0     H71158   2.917   4.137   5.729  0.4329 -1.4580  1.7012
  516MOL0     H71159   3.029   4.141   5.856 -2.0059 -1.7071 -0.1882
  516MOL0     H71160   3.127   4.176   5.642 -2.7514 -3.2187  1.5385
  516MOL0     H71161   3.041   4.335   5.620 -2.5318 -2.1859  1.1259
  516MOL0     H71162   3.165   4.432   5.790  0.9467  0.3746 -0.3417
  516MOL0     H71163   3.243   4.269   5.834  1.3712  0.3554  0.2080
  516MOL0     H71164   3.367   4.263   5.637  0.8065  0.0402  2.0374
  516MOL0     H71165   3.287   4.404   5.559  0.6610  1.1175 -0.1303
  516MOL0     H71166   3.543   4.341   5.513 -1.5575  1.1758 -1.5814
  516MOL0     H71167   3.792   4.484   5.269  1.1092 -0.8493 -0.8082
  516MOL0     H71168   3.684   4.350   5.301  2.0711 -1.4704 -1.2532
  516MOL0     H71169   3.843   4.368   5.388  0.1496  0.2728  0.4817
  516MOL0     H71170   4.008   4.784   5.223 -2.0653  0.9742  0.5353
  516MOL0     H71171   4.165   4.959   5.130 -1.4244  1.8694 -0.3992
  516MOL0     H71172   4.188   5.294   5.360 -2.1058 -3.6237 -1.4852
  516MOL0     H71173   4.360   5.261   5.422 -0.7408 -1.8253  0.6226
  516MOL0     H71174   4.361   5.310   5.143 -0.0317 -2.3680  1.2007
  516MOL0     H71175   4.306   5.456   5.235  1.6544  0.0741 -1.4062
  516MOL0     H71176   4.563   5.293   5.278 -0.6239  0.0648 -0.0927
  516MOL0     H71177   4.508   5.400   5.399 -0.2682  2.1472  0.3375
  516MOL0     H71178   4.560   5.605   5.239  1.8964  1.5427 -0.7215
  516MOL0     H71179   4.541   5.489   5.112 -1.2721  2.7897  0.5917
  516MOL0     H71180   4.758   5.407   5.144 -2.3812 -1.6636  0.5599
  516MOL0     H71181   4.771   5.575   5.200  0.7525 -0.2577  1.7457
  516MOL0     H71182   4.757   5.338   5.383  2.6635 -0.0272  1.7527
  516MOL0     H71183   4.763   5.519   5.430 -1.8711  0.0122 -0.1458
  516MOL0     H71184   5.001   5.404   5.450 -1.0851 -1.9198 -0.5002
  516MOL0     H71185   4.988   5.533   5.336  1.1770 -0.0961  1.3243
  516MOL0     H71186   5.024   5.381   5.148  1.4757 -0.9977 -1.3511
  516MOL0     H71187   4.953   5.247   5.248 -1.3423  1.3713  1.4985
  516MOL0     H71188   4.224   5.093   5.533 -0.8001  0.8365 -0.1030
  516MOL0     H71189   4.068   4.926   5.615  1.8850  1.3979  0.3849
  516MOL0     H71190   3.747   4.768   5.657 -1.7343  0.6216 -0.2733
  516MOL0     H71191   3.538   4.674   5.777  0.4244 -0.5392 -0.4303
  516MOL0     H71192   2.124   4.256   5.146  0.6625 -1.2040 -2.7064
  516MOL0     H71193   1.948   4.267   4.960  0.2422  1.2421  0.9581
  516MOL0     H71194   1.381   4.034   4.996  3.3759 -0.9824 -0.2388
  516MOL0     H71195   1.183   4.025   4.846  0.0515  0.9116  0.9042
  516MOL0     H71196   1.105   4.079   4.407  0.2934 -1.3748 -2.3703
  516MOL0     H71197   1.264   4.130   4.396 -1.0468  1.0166  1.9184
  516MOL0     H71198   1.365   3.900   4.444  0.3997 -0.0026  2.1147
  516MOL0     H71199   1.251   3.884   4.330  1.0717 -0.7655 -0.6665
  516MOL0     H71200   1.252   3.708   4.490 -1.6694  0.8989 -1.9005
  516MOL0     H71201   1.233   3.810   4.619  0.7655  1.3950 -0.5579
  516MOL0     H71202   0.990   3.849   4.538  2.2685  1.2588  0.1184
  516MOL0     H71203   1.018   3.681   4.560 -4.5416  2.0583  1.7038
  516MOL0     H71204   1.001   3.680   4.141  0.0852  4.5667 -1.2895
  516MOL0     H71205   1.455   4.178   4.537  2.2943 -0.9709 -1.1971
  516MOL0     H71206   1.658   4.240   4.564  1.2737 -1.9555 -1.9053
  516MOL0     H71207   1.740   4.236   4.721  1.9456 -0.4582 -0.4729
  516MOL0     H71208   1.722   4.088   4.632  0.4793  0.7026  2.6382
  517MOL0     O71209   3.705   4.145  10.332  0.4123  0.1812 -0.6230
  517MOL0     C71210   3.584   4.105  10.321 -0.4977 -0.2065 -0.0999
  517MOL0     O71211   3.494   4.152  10.229 -0.1014  0.3017  0.7253
  517MOL0     C71212   3.507   4.268  10.164 -0.3923  0.6651  0.7351
  517MOL0     C71213   3.530   4.389  10.233  0.0592 -0.4642  0.5558
  517MOL0     C71214   3.550   4.506  10.169  0.2072 -0.2510 -0.2335
  517MOL0     C71215   3.547   4.513  10.031  0.2978  0.0169 -0.1714
  517MOL0     O71216   3.565   4.631   9.971 -0.0572 -0.6650  0.1036
  517MOL0     C71217   3.663   4.635   9.861  0.1957  0.3523 -0.6401
  517MOL0     C71218   3.667   4.781   9.810 -0.3689 -0.1390  0.0237
  517MOL0     C71219   3.753   4.876   9.889 -0.1636  0.2265 -0.0219
  517MOL0     C71220   3.876   4.894   9.807  1.2940  0.3961  0.1338
  517MOL0     C71221   3.951   4.771   9.756 -0.1538  0.3063 -1.1820
  517MOL0     C71222   4.084   4.821   9.714  0.2551  0.0512 -0.0627
  517MOL0     C71223   4.168   4.722   9.638 -0.0603  0.2080  0.9976
  517MOL0     C71224   4.308   4.774   9.603  0.6674 -0.2406 -0.1636
  517MOL0     N71225   4.400   4.782   9.725  0.5132  0.5521  0.4199
  517MOL0     C71226   4.380   4.719   9.846  0.1984 -0.1739  0.0314
  517MOL0     C71227   4.493   4.743   9.918 -0.8925  0.2252 -0.5058
  517MOL0     C71228   4.513   4.696  10.060  0.4074  0.0492 -0.6666
  517MOL0     C71229   4.632   4.606  10.087  0.5186  0.4088 -0.6636
  517MOL0     C71230   4.665   4.577  10.234  0.9157  0.1210  0.5249
  517MOL0     C71231   4.551   4.545  10.323 -0.7687 -0.1135  0.3121
  517MOL0     O71232   4.497   4.415  10.305  0.4726 -0.3159  0.0692
  517MOL0     C71233   4.389   4.371  10.386 -0.4622  0.0921 -0.2448
  517MOL0     C71234   4.322   4.254  10.357 -1.5362  0.4565  0.4148
  517MOL0     C71235   4.212   4.210  10.437 -0.5460 -0.0881  0.6406
  517MOL0     C71236   4.167   4.071  10.401 -0.2155  0.1353 -0.3262
  517MOL0     C71237   4.162   4.281  10.548 -0.6157  0.3859  0.6304
  517MOL0     C71238   4.054   4.245  10.640 -0.7981  0.4581 -0.8924
  517MOL0     O71239   3.980   4.346  10.698 -0.1272 -0.0463  0.5322
  517MOL0     C71240   3.851   4.315  10.725  0.1459 -0.2219 -0.4078
  517MOL0     C71241   3.789   4.380  10.831 -0.4555  0.7126 -0.4699
  517MOL0     C71242   3.652   4.367  10.860 -0.6601  0.3785  0.8249
  517MOL0     C71243   3.561   4.279  10.790  0.3565  0.2021 -0.3935
  517MOL0     O71244   3.435   4.259  10.833  0.0067 -0.0143 -0.2168
  517MOL0     C71245   3.377   4.135  10.795 -0.1342 -0.7794 -0.0371
  517MOL0     C71246   3.248   4.130  10.873  0.0849 -0.0502  0.4110
  517MOL0     C71247   3.145   4.242  10.841  1.0413  0.4865 -0.2067
  517MOL0     C71248   3.066   4.215  10.707  0.1523 -0.6228 -0.4768
  517MOL0     C71249   3.010   4.069  10.687 -0.1981 -0.3782  0.0180
  517MOL0     C71250   2.888   4.038  10.768 -0.6071 -0.3272 -0.2873
  517MOL0     C71251   2.768   4.129  10.741 -0.1049 -0.7831 -0.1758
  517MOL0     C71252   2.656   4.102  10.835 -0.1211  0.5403 -0.3695
  517MOL0    Cl71253   2.531   4.221  10.812  0.0195  0.0107 -0.2466
  517MOL0     C71254   3.624   4.207  10.694 -0.5320  0.3340  0.0154
  517MOL0     C71255   3.762   4.226  10.660  0.3916 -0.3755  0.3919
  517MOL0     O71256   4.035   4.126  10.661  0.3382 -0.0023 -0.3297
  517MOL0     C71257   4.226   4.408  10.565  0.2306  0.0399  0.6168
  517MOL0     C71258   4.339   4.441  10.494 -0.0369 -0.2988  0.2784
  517MOL0     N71259   4.576   4.814   9.837 -1.3139  0.5196 -0.0684
  517MOL0     N71260   4.514   4.840   9.725 -0.3265  0.3739 -1.3670
  517MOL0     C71261   3.508   4.393   9.958  0.9421 -0.1494  0.1141
  517MOL0     C71262   3.496   4.272  10.021  0.3473  0.1030 -0.1611
  517MOL0     C71263   3.539   3.992  10.416  0.4649 -0.7078 -0.1351
  517MOL0     C71264   3.404   3.999  10.462 -0.1091  0.9234 -0.0012
  517MOL0     C71265   3.364   3.896  10.551  0.3425 -1.0831  0.0999
  517MOL0     C71266   3.439   3.792  10.588 -0.1662  0.2695 -0.9750
  517MOL0     O71267   3.388   3.703  10.677 -1.1375  0.4510  0.0169
  517MOL0     C71268   3.481   3.621  10.756  0.0620  0.9439 -0.3015
  517MOL0     C71269   3.413   3.554  10.875  0.0116  0.4276 -0.1044
  517MOL0     C71270   3.509   3.470  10.956  1.0476 -0.3601 -0.7461
  517MOL0     C71271   3.447   3.408  11.082  0.5062 -1.3140 -0.2360
  517MOL0     C71272   3.542   3.312  11.149 -1.2063 -0.2371  0.4025
  517MOL0     C71273   3.638   3.253  11.189 -1.0413  0.3976 -0.2474
  517MOL0     C71274   3.567   3.785  10.541  0.3348  0.7210 -0.1675
  517MOL0     C71275   3.617   3.882  10.446  0.1403  0.4761  0.0164
  517MOL0     C71276   3.755   3.852  10.394  0.6661  0.5844  0.1851
  517MOL0     H71277   3.558   4.387  10.338  2.1853 -2.0444  0.0188
  517MOL0     H71278   3.577   4.596  10.223  0.0567  0.1730 -0.8526
  517MOL0     H71279   3.627   4.567   9.784 -0.3215 -1.3258  1.0070
  517MOL0     H71280   3.757   4.595   9.900 -0.9328  0.0956  2.0310
  517MOL0     H71281   3.690   4.773   9.703  1.8854 -2.0064  0.5698
  517MOL0     H71282   3.565   4.820   9.811 -0.0754  0.6308  0.7771
  517MOL0     H71283   3.704   4.971   9.907  0.7740  0.7556 -0.1946
  517MOL0     H71284   3.775   4.828   9.984 -1.0041 -0.1821 -0.0201
  517MOL0     H71285   3.852   4.956   9.720  1.1521  1.6712  1.0566
  517MOL0     H71286   3.940   4.970   9.853  1.5877  0.5653 -0.5344
  517MOL0     H71287   3.899   4.721   9.674 -1.4235 -0.8663  0.2652
  517MOL0     H71288   3.951   4.707   9.844 -1.7237  3.0994  1.0362
  517MOL0     H71289   4.063   4.914   9.660  0.3248  0.8930  1.3261
  517MOL0     H71290   4.143   4.848   9.802 -0.9635 -0.8907  1.0782
  517MOL0     H71291   4.113   4.687   9.549  1.3815 -1.2614  0.6263
  517MOL0     H71292   4.181   4.632   9.699  1.6122  0.5835  1.2359
  517MOL0     H71293   4.350   4.706   9.528 -0.0514 -0.6830 -0.1772
  517MOL0     H71294   4.307   4.876   9.564  1.7527 -0.9274 -2.1008
  517MOL0     H71295   4.293   4.668   9.887  0.9627 -1.6711 -0.1139
  517MOL0     H71296   4.426   4.634  10.085  0.5249 -0.2988 -1.1038
  517MOL0     H71297   4.520   4.786  10.121 -1.6051 -0.0648 -0.1757
  517MOL0     H71298   4.603   4.508  10.047  0.1855  0.6534 -1.0275
  517MOL0     H71299   4.720   4.636  10.028  0.9449  0.0909 -0.2016
  517MOL0     H71300   4.736   4.494  10.233 -0.1530 -0.8161 -0.0812
  517MOL0     H71301   4.716   4.661  10.282  2.7471  1.7514 -3.7590
  517MOL0     H71302   4.581   4.555  10.428  0.5285  1.7302 -0.1846
  517MOL0     H71303   4.472   4.621  10.314  2.2922  3.5162  1.3831
  517MOL0     H71304   4.357   4.186  10.280  0.6280  2.0003 -0.0538
  517MOL0     H71305   4.239   3.994  10.431 -1.3990 -1.3804 -1.2110
  517MOL0     H71306   4.175   4.066  10.292  2.5605  2.5654 -0.3488
  517MOL0     H71307   4.064   4.042  10.423  0.7562 -2.8928  0.8345
  517MOL0     H71308   3.849   4.437  10.901 -0.2119 -0.4142  0.2586
  517MOL0     H71309   3.609   4.414  10.948 -0.7244  2.6160 -0.3399
  517MOL0     H71310   3.358   4.148  10.688  1.1141  0.7711 -0.1110
  517MOL0     H71311   3.439   4.053  10.834 -0.5373 -0.2503  1.8356
  517MOL0     H71312   3.204   4.030  10.876 -1.6972  0.7251  1.6462
  517MOL0     H71313   3.269   4.142  10.979  0.1698 -0.7814  0.4793
  517MOL0     H71314   3.192   4.341  10.841  1.9950  0.1806  3.4979
  517MOL0     H71315   3.071   4.224  10.919  0.2463 -2.0450 -1.4408
  517MOL0     H71316   3.132   4.240  10.623  2.4243 -0.5168  1.2582
  517MOL0     H71317   2.980   4.280  10.689  0.2065 -0.7260 -1.1358
  517MOL0     H71318   2.994   4.062  10.579 -0.2317 -1.3262  0.0764
  517MOL0     H71319   3.080   3.987  10.709  0.4656 -0.0366 -0.7838
  517MOL0     H71320   2.903   4.046  10.876 -2.7552 -4.1431  0.4869
  517MOL0     H71321   2.850   3.938  10.745 -1.3863  0.3065 -1.8999
  517MOL0     H71322   2.741   4.125  10.636 -4.1631  1.4790  0.5921
  517MOL0     H71323   2.787   4.233  10.770 -2.8752 -0.1448 -0.3736
  517MOL0     H71324   2.688   4.103  10.940 -5.0769 -1.4071  1.4781
  517MOL0     H71325   2.619   4.002  10.811 -0.9124  1.1167 -1.6403
  517MOL0     H71326   3.590   4.112  10.654  1.6882 -0.9026  0.9383
  517MOL0     H71327   3.792   4.158  10.581 -0.0920 -0.1494  0.0077
  517MOL0     H71328   4.190   4.478  10.640 -0.4733  0.3687 -0.0111
  517MOL0     H71329   4.391   4.534  10.517 -1.2656  1.2267 -2.6122
  517MOL0     H71330   3.496   4.385   9.850 -0.6643  1.3227  0.1431
  517MOL0     H71331   3.479   4.180   9.966 -1.8393  1.0985 -1.2544
  517MOL0     H71332   3.329   4.063  10.417 -2.1945 -2.7607 -2.2686
  517MOL0     H71333   3.265   3.911  10.593  1.4981 -0.4337  2.7694
  517MOL0     H71334   3.525   3.544  10.691 -0.4216 -1.0714  1.6307
  517MOL0     H71335   3.570   3.670  10.795 -0.2881  2.7024 -1.6242
  517MOL0     H71336   3.326   3.497  10.838 -0.5230  0.2991  1.2845
  517MOL0     H71337   3.363   3.631  10.934 -1.1674  0.2416 -0.8144
  517MOL0     H71338   3.546   3.387  10.894 -1.2880 -1.9836 -0.0772
  517MOL0     H71339   3.595   3.530  10.988  0.7301 -1.1893  1.8099
  517MOL0     H71340   3.351   3.362  11.058 -0.1799 -0.2083  0.3047
  517MOL0     H71341   3.438   3.489  11.154 -1.4741 -1.4742 -0.2588
  517MOL0     H71342   3.713   3.191  11.234 -2.5575  0.7829  3.0661
  517MOL0     H71343   3.626   3.702  10.577 -2.7197 -0.3805  2.8334
  517MOL0     H71344   3.818   3.941  10.401  0.4477  0.6021  4.5030
  517MOL0     H71345   3.802   3.771  10.451  0.4701 -0.9883 -1.7655
  517MOL0     H71346   3.741   3.824  10.289 -0.5953  1.6226  0.0585
  518MOL0     O71347   3.884   2.949   2.985 -0.3921 -0.0556 -0.4573
  518MOL0     C71348   3.817   2.913   3.082  0.2137 -1.0734 -0.9598
  518MOL0     O71349   3.803   2.777   3.123 -0.6199 -0.6940 -0.3951
  518MOL0     C71350   3.893   2.677   3.079 -1.1187  0.5657 -0.6639
  518MOL0     C71351   3.949   2.585   3.170 -0.8009 -0.6559  0.0434
  518MOL0     C71352   4.011   2.465   3.111  0.3369 -0.5456 -0.1037
  518MOL0     C71353   4.028   2.458   2.974 -0.1645 -0.4292  0.3657
  518MOL0     O71354   4.084   2.349   2.912 -0.2088  0.1175  0.8261
  518MOL0     C71355   4.184   2.277   2.984 -0.5569 -0.0385 -0.7828
  518MOL0     C71356   4.290   2.217   2.886 -0.4436  0.1483 -0.2398
  518MOL0     C71357   4.222   2.110   2.794 -0.3118 -0.3863  0.5845
  518MOL0     C71358   4.341   2.053   2.723  0.0152 -0.1465  0.4050
  518MOL0     C71359   4.303   1.918   2.666 -0.9595 -0.7574  0.3187
  518MOL0     C71360   4.209   1.924   2.551 -0.8217  0.0740  0.6946
  518MOL0     C71361   4.244   1.978   2.415 -1.2134  0.2738 -0.8993
  518MOL0     C71362   4.314   1.875   2.335  0.4412  0.4653  0.1916
  518MOL0     N71363   4.229   1.788   2.252 -0.1190 -0.6806 -0.0999
  518MOL0     C71364   4.202   1.812   2.122 -0.8218  0.8914  0.4759
  518MOL0     C71365   4.112   1.715   2.088 -0.1616 -0.9345  1.0161
  518MOL0     C71366   4.051   1.700   1.954  0.2098  0.1329  0.7541
  518MOL0     C71367   3.947   1.803   1.908  1.0899  0.0142  0.3538
  518MOL0     C71368   3.869   1.755   1.780  0.8699  0.1257 -0.3727
  518MOL0     C71369   3.774   1.855   1.721  0.1350 -1.0287 -0.1321
  518MOL0     O71370   3.718   1.943   1.825 -0.4086  0.4669  0.4247
  518MOL0     C71371   3.624   2.042   1.786  0.0673  0.8695 -0.5764
  518MOL0     C71372   3.545   2.044   1.670 -0.2739 -0.2312 -0.3477
  518MOL0     C71373   3.463   2.147   1.632 -0.2986 -0.1720 -0.0279
  518MOL0     C71374   3.411   2.149   1.489  0.5282 -0.0279 -0.4836
  518MOL0     C71375   3.436   2.246   1.728 -0.2223 -0.0469 -0.7372
  518MOL0     C71376   3.365   2.363   1.697  0.8883 -0.4048 -0.9980
  518MOL0     O71377   3.240   2.379   1.756 -0.1917  0.4994 -0.8940
  518MOL0     C71378   3.159   2.452   1.688  0.4726 -0.8947 -0.9040
  518MOL0     C71379   3.132   2.579   1.749  0.3679 -0.0259  0.1166
  518MOL0     C71380   3.024   2.654   1.697  0.0322  0.2091  0.7563
  518MOL0     C71381   2.953   2.595   1.594  0.8047 -0.8405  0.3196
  518MOL0     O71382   2.843   2.669   1.551 -0.6504  0.1592  0.3217
  518MOL0     C71383   2.715   2.612   1.584  0.2812 -0.2412 -0.4383
  518MOL0     C71384   2.595   2.693   1.530 -0.4738  0.2276  0.9400
  518MOL0     C71385   2.557   2.791   1.645  0.0996  0.2329  0.2270
  518MOL0     C71386   2.474   2.729   1.756 -0.4022 -0.2349 -0.3762
  518MOL0     C71387   2.327   2.695   1.730  0.5901  0.2009 -0.1923
  518MOL0     C71388   2.245   2.626   1.845 -0.1254 -0.6844 -0.4398
  518MOL0     C71389   2.288   2.473   1.858 -0.0936 -0.1529 -0.1377
  518MOL0     C71390   2.248   2.423   1.996 -0.2242 -0.1895 -0.3611
  518MOL0    Cl71391   2.083   2.463   2.038 -0.3059  0.1316  0.6083
  518MOL0     C71392   2.993   2.484   1.529 -0.2819  0.1110 -0.2509
  518MOL0     C71393   3.102   2.406   1.570  0.0261 -0.5256 -0.8198
  518MOL0     O71394   3.411   2.439   1.607  0.3936  0.0355 -0.0568
  518MOL0     C71395   3.505   2.242   1.848 -0.5417  0.2239 -0.4018
  518MOL0     C71396   3.598   2.136   1.877 -0.4231 -0.0714  0.7122
  518MOL0     N71397   4.078   1.652   2.203 -0.3898 -0.4618  1.1642
  518MOL0     N71398   4.148   1.699   2.300  0.0774  0.0851  0.0909
  518MOL0     C71399   3.972   2.545   2.889 -0.4673 -0.1726 -0.1739
  518MOL0     C71400   3.896   2.651   2.941 -0.6542 -0.6690 -0.9062
  518MOL0     C71401   3.740   3.016   3.158 -0.0049  0.7869 -0.6917
  518MOL0     C71402   3.670   2.971   3.275 -0.0765  0.4130  0.2118
  518MOL0     C71403   3.602   3.057   3.357 -0.1225 -0.2191  0.6894
  518MOL0     C71404   3.593   3.196   3.325 -0.2429 -0.6933  0.3060
  518MOL0     O71405   3.531   3.298   3.394 -0.4047 -0.6098  0.6321
  518MOL0     C71406   3.439   3.240   3.485  0.0329  0.2661 -0.6618
  518MOL0     C71407   3.358   3.347   3.542 -0.0925 -0.5418 -0.1435
  518MOL0     C71408   3.254   3.298   3.643 -0.4594  0.3599  0.0734
  518MOL0     C71409   3.183   3.414   3.714 -0.7495 -0.5832 -0.4731
  518MOL0     C71410   3.113   3.369   3.835  0.0918 -0.6540  0.9899
  518MOL0     C71411   3.032   3.339   3.929  0.1078  0.1568  0.3841
  518MOL0     C71412   3.658   3.239   3.213  0.1385  0.4521  0.1251
  518MOL0     C71413   3.736   3.153   3.128  0.9973 -0.2874 -0.3755
  518MOL0     C71414   3.811   3.215   3.010  0.7395  0.2685 -0.4443
  518MOL0     H71415   3.925   2.603   3.274 -2.3181  0.7492 -0.5174
  518MOL0     H71416   4.048   2.385   3.174  1.5177  0.2442  0.2464
  518MOL0     H71417   4.131   2.213   3.055  0.0245  0.4861  0.1511
  518MOL0     H71418   4.243   2.340   3.052  1.1044 -0.5722 -1.6765
  518MOL0     H71419   4.336   2.299   2.830 -0.2680 -1.1634 -2.0987
  518MOL0     H71420   4.371   2.169   2.941  1.2835  0.7539 -2.1438
  518MOL0     H71421   4.171   2.034   2.853 -1.4160 -1.9377 -2.2104
  518MOL0     H71422   4.155   2.159   2.723  1.5305  1.2228 -0.1631
  518MOL0     H71423   4.380   2.125   2.650 -1.5671  1.2066  0.8220
  518MOL0     H71424   4.426   2.027   2.786 -0.4200 -1.3273  0.5382
  518MOL0     H71425   4.265   1.843   2.735 -1.5568 -0.9973 -0.2596
  518MOL0     H71426   4.391   1.873   2.620 -0.8057 -1.3344  1.1738
  518MOL0     H71427   4.167   1.825   2.536  0.6794 -0.6293  0.9375
  518MOL0     H71428   4.121   1.977   2.589  0.1037 -0.6356  4.1036
  518MOL0     H71429   4.295   2.075   2.406 -0.4656 -0.1553 -1.3661
  518MOL0     H71430   4.143   1.993   2.375 -2.2659 -0.6864  1.2713
  518MOL0     H71431   4.387   1.920   2.267  0.0356 -1.1420 -1.3935
  518MOL0     H71432   4.368   1.812   2.407  1.2775  0.3062 -0.5599
  518MOL0     H71433   4.242   1.899   2.070 -1.5828  1.5936  1.0511
  518MOL0     H71434   4.003   1.601   1.962 -0.6360  0.6327  2.2671
  518MOL0     H71435   4.136   1.703   1.886  1.4604  0.1181  2.2729
  518MOL0     H71436   3.868   1.817   1.983 -0.0004 -0.2776 -0.7087
  518MOL0     H71437   3.990   1.901   1.886  1.4447 -0.1277  0.4178
  518MOL0     H71438   3.947   1.722   1.711  1.9253 -0.3372  0.9829
  518MOL0     H71439   3.822   1.660   1.809  0.7644  0.3345  0.1455
  518MOL0     H71440   3.828   1.929   1.660  1.6254  0.2635  2.5789
  518MOL0     H71441   3.700   1.802   1.661  0.3426 -0.0700 -1.2926
  518MOL0     H71442   3.569   1.962   1.603 -0.7554 -1.2423  0.6986
  518MOL0     H71443   3.461   2.072   1.429  2.6908 -0.7480  2.0361
  518MOL0     H71444   3.413   2.251   1.449 -2.2467  0.4562  0.4275
  518MOL0     H71445   3.303   2.136   1.479  0.6350  0.9739 -4.5446
  518MOL0     H71446   3.191   2.602   1.837  0.9402 -2.1195  0.3433
  518MOL0     H71447   2.994   2.753   1.731  0.5767  0.1525  1.4251
  518MOL0     H71448   2.705   2.523   1.521 -1.3913 -0.0239 -0.5032
  518MOL0     H71449   2.703   2.581   1.688 -1.0137 -0.5732 -0.6699
  518MOL0     H71450   2.636   2.752   1.447 -2.5206  0.8841  0.3382
  518MOL0     H71451   2.514   2.627   1.498 -0.0632  0.1579  0.0059
  518MOL0     H71452   2.519   2.884   1.602 -0.2246  0.1751  0.3861
  518MOL0     H71453   2.643   2.821   1.705  1.4431 -0.9183 -1.0307
  518MOL0     H71454   2.494   2.793   1.842  3.4458 -3.4658  1.4687
  518MOL0     H71455   2.528   2.641   1.793  2.6962  0.9029 -1.8104
  518MOL0     H71456   2.276   2.786   1.694 -0.1782 -0.2236 -0.1966
  518MOL0     H71457   2.326   2.621   1.650  0.7327  0.9748 -0.9353
  518MOL0     H71458   2.140   2.643   1.823  0.2085  2.2383 -0.1308
  518MOL0     H71459   2.267   2.686   1.934  2.3093 -0.9815 -0.7540
  518MOL0     H71460   2.392   2.450   1.834  0.7745  0.2457  2.8267
  518MOL0     H71461   2.234   2.416   1.782  1.3420 -1.4562 -0.2385
  518MOL0     H71462   2.310   2.474   2.071  0.7387 -1.0266 -0.5529
  518MOL0     H71463   2.266   2.315   2.004  1.9264  0.0343 -1.3980
  518MOL0     H71464   2.947   2.452   1.435 -0.5795 -1.0206  0.2525
  518MOL0     H71465   3.137   2.324   1.509 -0.5812  2.1609 -5.1513
  518MOL0     H71466   3.487   2.326   1.914  0.5562 -0.7110  1.1633
  518MOL0     H71467   3.644   2.138   1.975 -0.3076 -2.6022  0.7605
  518MOL0     H71468   3.977   2.536   2.781  0.5879 -0.9420 -0.0720
  518MOL0     H71469   3.830   2.701   2.871 -2.4554 -2.0563 -0.2625
  518MOL0     H71470   3.668   2.864   3.289 -0.2974  0.0469 -2.1840
  518MOL0     H71471   3.550   3.018   3.444 -0.8595 -1.8887 -0.4316
  518MOL0     H71472   3.374   3.173   3.428 -1.0516  1.1621 -0.5043
  518MOL0     H71473   3.488   3.188   3.568 -1.0747 -1.4428 -1.0176
  518MOL0     H71474   3.323   3.406   3.457  2.3074  0.0086 -0.8283
  518MOL0     H71475   3.427   3.411   3.598 -1.3093  0.5067  0.2222
  518MOL0     H71476   3.173   3.239   3.598  1.0679  0.1970 -2.6605
  518MOL0     H71477   3.303   3.238   3.721  3.7726  2.5213 -0.6304
  518MOL0     H71478   3.109   3.462   3.649 -0.2897  1.5438  0.4663
  518MOL0     H71479   3.260   3.488   3.740  1.2014 -2.1182 -1.5984
  518MOL0     H71480   2.975   3.299   4.011  0.1668  0.7762  0.7257
  518MOL0     H71481   3.654   3.346   3.198 -0.9824  0.6506  1.5989
  518MOL0     H71482   3.919   3.198   3.019  0.9928  1.8370 -0.3954
  518MOL0     H71483   3.770   3.178   2.915 -2.3900  1.9128  0.1445
  518MOL0     H71484   3.806   3.324   3.004 -1.1117  0.1931 -0.9111
  519MOL0     O71485   6.807   0.786   6.022  0.1861 -0.1778 -0.1391
  519MOL0     C71486   6.771   0.840   5.921  0.5025  0.0723  0.3717
  519MOL0     O71487   6.762   0.776   5.801 -0.2143  0.3599 -0.1915
  519MOL0     C71488   6.808   0.647   5.787 -0.6158 -1.2020 -0.2403
  519MOL0     C71489   6.942   0.623   5.810 -0.5378  0.9810  0.0947
  519MOL0     C71490   6.995   0.491   5.788 -1.3466 -0.4963  0.6884
  519MOL0     C71491   6.918   0.380   5.752  0.2367 -1.0850  0.0212
  519MOL0     O71492   6.963   0.256   5.732 -0.1094 -0.0142  0.4746
  519MOL0     C71493   7.098   0.225   5.732 -0.3623  0.1475 -0.8423
  519MOL0     C71494   7.129   0.084   5.674 -0.2732 -0.9300  0.1987
  519MOL0     C71495   7.281   0.068   5.663  0.2592 -0.2048 -0.2448
  519MOL0     C71496   7.300  -0.044   5.570 -0.6996 -0.4401 -0.1854
  519MOL0     C71497   7.428  -0.125   5.598 -0.2596 -0.8051 -0.6592
  519MOL0     C71498   7.453  -0.232   5.490  0.1336 -1.1162  0.1280
  519MOL0     C71499   7.580  -0.312   5.522 -0.2042  0.6703 -0.1207
  519MOL0     C71500   7.714  -0.263   5.459  0.1318 -0.4368  0.6455
  519MOL0     N71501   7.833  -0.291   5.537  0.5299  0.0132  0.3501
  519MOL0     C71502   7.847  -0.278   5.674  0.7883  0.6888 -1.0805
  519MOL0     C71503   7.969  -0.330   5.692  0.1238  0.5735 -0.4253
  519MOL0     C71504   8.040  -0.337   5.825 -0.6981 -0.7250  0.2604
  519MOL0     C71505   8.181  -0.279   5.810 -0.1776 -0.4807 -0.8517
  519MOL0     C71506   8.171  -0.141   5.755 -0.5529 -0.3675 -0.6370
  519MOL0     C71507   8.092  -0.038   5.834 -0.5911  0.2509  1.9504
  519MOL0     O71508   8.114  -0.059   5.970  0.1987  0.6933  0.5340
  519MOL0     C71509   8.055   0.024   6.061 -0.2750 -0.4714  1.0936
  519MOL0     C71510   7.972   0.127   6.024  0.1292  0.2789 -0.4716
  519MOL0     C71511   7.940   0.232   6.115  0.2695 -0.4219  0.8801
  519MOL0     C71512   7.865   0.343   6.051 -0.1772  0.3642 -0.0084
  519MOL0     C71513   7.981   0.221   6.249 -0.4834 -0.2109  0.0531
  519MOL0     C71514   7.955   0.330   6.349 -0.2739  0.0203 -0.8563
  519MOL0     O71515   7.936   0.293   6.478  0.1737  0.2625 -0.2305
  519MOL0     C71516   7.967   0.378   6.576 -0.9838  0.7063  0.3784
  519MOL0     C71517   7.865   0.454   6.633  0.5966 -0.0329  0.2892
  519MOL0     C71518   7.881   0.540   6.742 -0.6048 -0.0124  0.2886
  519MOL0     C71519   8.008   0.566   6.788  0.1136 -0.0660  1.5421
  519MOL0     O71520   8.024   0.647   6.890 -0.4740  0.0911 -0.5461
  519MOL0     C71521   8.071   0.582   7.011 -0.0951 -0.1600  0.5596
  519MOL0     C71522   8.049   0.674   7.128  0.4533  0.2691 -0.0474
  519MOL0     C71523   8.134   0.807   7.111  0.3597 -0.4839 -0.6208
  519MOL0     C71524   8.277   0.787   7.162 -0.0988  0.0329  0.7286
  519MOL0     C71525   8.275   0.794   7.317 -0.4830 -0.2559  0.2487
  519MOL0     C71526   8.403   0.743   7.384 -0.2217 -0.8091  0.3916
  519MOL0     C71527   8.405   0.589   7.380  0.7814 -0.4630  1.3537
  519MOL0     C71528   8.535   0.527   7.416  0.3709  0.8817 -0.8804
  519MOL0    Cl71529   8.668   0.576   7.303  0.4269 -0.2076 -0.1344
  519MOL0     C71530   8.111   0.497   6.733  0.6672 -0.0881  0.6984
  519MOL0     C71531   8.092   0.404   6.625  0.1335 -0.1046  0.2991
  519MOL0     O71532   7.948   0.443   6.305  0.6676 -0.1408 -0.1843
  519MOL0     C71533   8.062   0.110   6.286 -0.5826 -0.1792 -0.9711
  519MOL0     C71534   8.100   0.020   6.194 -0.4364 -0.6770  0.6774
  519MOL0     N71535   8.015  -0.378   5.567 -0.2216  0.5760 -0.5356
  519MOL0     N71536   7.939  -0.349   5.479  0.1743 -0.7270  0.1588
  519MOL0     C71537   6.775   0.411   5.738  0.0509 -0.8467  0.5931
  519MOL0     C71538   6.726   0.540   5.753  0.0220 -0.3956  0.6332
  519MOL0     C71539   6.713   0.984   5.944  0.2841  0.0717  0.8628
  519MOL0     C71540   6.619   1.024   5.848 -0.0389 -1.6793 -0.1557
  519MOL0     C71541   6.557   1.147   5.854  0.0619  0.7938  0.4995
  519MOL0     C71542   6.581   1.233   5.960 -0.7590 -1.0740 -1.1612
  519MOL0     O71543   6.507   1.348   5.983 -0.0134 -0.0279  0.4738
  519MOL0     C71544   6.381   1.365   5.923  0.7588  0.0756 -0.2394
  519MOL0     C71545   6.304   1.479   5.980 -0.0050  0.3749  0.3279
  519MOL0     C71546   6.184   1.517   5.884 -0.3042 -0.1061 -0.0295
  519MOL0     C71547   6.053   1.478   5.950  0.6560  0.1879 -0.8369
  519MOL0     C71548   6.047   1.336   5.978 -0.2975  0.0807 -0.0478
  519MOL0     C71549   6.050   1.221   6.015  0.9049  0.0112  0.3484
  519MOL0     C71550   6.677   1.199   6.054  0.5112 -0.4160  0.2168
  519MOL0     C71551   6.734   1.073   6.049  0.5331  0.0260  0.0351
  519MOL0     C71552   6.833   1.056   6.153 -0.1881  0.5444 -0.4407
  519MOL0     H71553   7.004   0.703   5.850 -2.2938  1.5123  1.9196
  519MOL0     H71554   7.100   0.478   5.815 -1.2001  0.0003  0.3723
  519MOL0     H71555   7.131   0.235   5.836  0.7314  2.1629 -1.3290
  519MOL0     H71556   7.160   0.299   5.681  0.1309 -0.4265 -1.0935
  519MOL0     H71557   7.086   0.002   5.734  2.5464 -0.7012  2.7823
  519MOL0     H71558   7.077   0.076   5.578 -2.4074  1.4639  1.0500
  519MOL0     H71559   7.323   0.160   5.621 -1.8480  0.0754 -1.8712
  519MOL0     H71560   7.325   0.041   5.760  2.0454  0.1373 -0.9201
  519MOL0     H71561   7.223  -0.122   5.571 -1.0117 -0.2570 -2.8442
  519MOL0     H71562   7.294   0.011   5.476  3.7717  3.3815  1.3744
  519MOL0     H71563   7.422  -0.177   5.694  1.3600  1.2168  0.6084
  519MOL0     H71564   7.517  -0.062   5.589  0.8632 -2.2632 -0.0027
  519MOL0     H71565   7.365  -0.288   5.458  0.4216 -0.3498 -2.2254
  519MOL0     H71566   7.478  -0.181   5.396  0.3066 -0.4632  0.5186
  519MOL0     H71567   7.567  -0.413   5.480  2.2351 -1.2525  3.2540
  519MOL0     H71568   7.584  -0.345   5.626  0.7439 -0.1045 -0.3898
  519MOL0     H71569   7.723  -0.299   5.356 -1.9549  1.2227 -0.1971
  519MOL0     H71570   7.703  -0.154   5.456 -0.8734 -0.4807  1.8426
  519MOL0     H71571   7.804  -0.219   5.754  1.2947 -0.8144  0.3661
  519MOL0     H71572   8.050  -0.437   5.868  1.8104 -0.1015  1.3117
  519MOL0     H71573   7.985  -0.288   5.905  0.1443 -1.9553  1.6401
  519MOL0     H71574   8.226  -0.282   5.909 -2.6245  2.5011  0.5184
  519MOL0     H71575   8.246  -0.348   5.756 -0.3282 -1.4845  0.2218
  519MOL0     H71576   8.275  -0.107   5.741 -0.9186  2.3149  2.1210
  519MOL0     H71577   8.126  -0.140   5.655  1.4895 -2.3956 -1.6636
  519MOL0     H71578   8.122   0.060   5.796  1.2804 -0.5182  1.3313
  519MOL0     H71579   7.991  -0.059   5.797 -0.3963  3.3449 -0.8382
  519MOL0     H71580   7.944   0.145   5.921 -1.7603  0.1967 -0.0169
  519MOL0     H71581   7.769   0.355   6.102 -0.1577  2.0787 -0.3065
  519MOL0     H71582   7.838   0.324   5.947  0.3679  0.7632 -0.2227
  519MOL0     H71583   7.918   0.438   6.055 -0.4431  0.5703 -1.1424
  519MOL0     H71584   7.763   0.434   6.602  0.1821  2.2749  0.0091
  519MOL0     H71585   7.794   0.591   6.782 -0.2814  1.6075 -0.9554
  519MOL0     H71586   8.033   0.481   7.029  2.8991 -1.3972  0.5145
  519MOL0     H71587   8.179   0.564   7.008 -0.0557  0.0133  0.8739
  519MOL0     H71588   7.949   0.719   7.120  0.3001  0.2353  1.3616
  519MOL0     H71589   8.055   0.619   7.223  1.4139 -0.3591 -0.4590
  519MOL0     H71590   8.087   0.885   7.171 -0.4779 -1.4539  0.0294
  519MOL0     H71591   8.129   0.842   7.007  3.3807 -0.2463 -0.7663
  519MOL0     H71592   8.354   0.856   7.124 -0.0998  1.3188  2.8874
  519MOL0     H71593   8.313   0.695   7.115  1.4387  0.7262  0.4637
  519MOL0     H71594   8.251   0.894   7.355  0.9459 -0.7172  2.5528
  519MOL0     H71595   8.197   0.727   7.354 -0.9266  0.2958  0.3194
  519MOL0     H71596   8.402   0.781   7.486 -1.2655  0.0641  0.0765
  519MOL0     H71597   8.495   0.776   7.337  0.3271 -2.0217  0.5702
  519MOL0     H71598   8.385   0.564   7.275 -2.2114 -2.9190  2.3447
  519MOL0     H71599   8.327   0.550   7.446  2.2650  0.2549  3.6436
  519MOL0     H71600   8.531   0.418   7.415  1.9753  0.7916 -2.1103
  519MOL0     H71601   8.553   0.552   7.521 -0.4488  1.4646 -0.8720
  519MOL0     H71602   8.208   0.517   6.777  0.8642  0.7291 -0.0575
  519MOL0     H71603   8.170   0.349   6.574 -0.8758  0.8360 -2.4477
  519MOL0     H71604   8.092   0.098   6.390  0.5827  1.1139 -1.1371
  519MOL0     H71605   8.164  -0.063   6.225 -1.4245 -2.0330 -0.7374
  519MOL0     H71606   6.707   0.336   5.701 -1.4081  1.6229 -2.1851
  519MOL0     H71607   6.625   0.578   5.749 -0.1952 -1.0167 -2.1537
  519MOL0     H71608   6.602   0.961   5.761  0.5098 -0.4758 -1.1457
  519MOL0     H71609   6.472   1.158   5.787  0.0495  1.0545  0.5559
  519MOL0     H71610   6.388   1.377   5.815 -1.0114 -1.0387 -0.5167
  519MOL0     H71611   6.321   1.275   5.938  1.5803 -0.6482 -1.1259
  519MOL0     H71612   6.370   1.565   5.994 -1.3859  2.1707 -3.0998
  519MOL0     H71613   6.258   1.443   6.073 -0.8352 -1.9206 -0.8916
  519MOL0     H71614   6.185   1.625   5.864  0.8109  0.0033  0.5383
  519MOL0     H71615   6.199   1.471   5.786 -3.9736 -0.2375 -0.6744
  519MOL0     H71616   5.958   1.504   5.904  0.1117  0.0766  0.1922
  519MOL0     H71617   6.043   1.527   6.048  0.5083  2.3000 -1.8578
  519MOL0     H71618   6.047   1.114   6.029  2.5328 -0.5209 -2.4771
  519MOL0     H71619   6.671   1.251   6.149 -2.3544 -0.0968 -0.0434
  519MOL0     H71620   6.931   1.049   6.103 -0.0080 -0.3242  0.0077
  519MOL0     H71621   6.836   1.131   6.231  2.0703  0.5583 -0.4610
  519MOL0     H71622   6.813   0.962   6.206 -0.0483  1.1657  0.7337
  520MOL0     O71623   3.252  10.925   4.998 -0.5128  0.0762 -0.0157
  520MOL0     C71624   3.163  10.993   5.033  0.3086  0.0488 -0.3381
  520MOL0     O71625   3.133  11.031   5.164 -0.1441 -0.6417  0.3685
  520MOL0     C71626   3.233  11.038   5.259  0.3438 -0.5654 -0.5381
  520MOL0     C71627   3.194  11.116   5.375 -0.0693  0.4820  0.1296
  520MOL0     C71628   3.279  11.139   5.482 -0.3961  0.5936  0.0629
  520MOL0     C71629   3.399  11.075   5.493  0.6563  0.5607 -0.8152
  520MOL0     O71630   3.474  11.090   5.610  1.0964  0.0926 -0.2128
  520MOL0     C71631   3.609  11.058   5.623 -0.4590 -0.4635  1.1250
  520MOL0     C71632   3.683  11.147   5.718  0.0002 -0.9918 -0.2185
  520MOL0     C71633   3.618  11.129   5.853 -0.2038 -0.2262 -0.3275
  520MOL0     C71634   3.693  11.207   5.965 -0.4218  0.7623  1.3804
  520MOL0     C71635   3.665  11.169   6.110 -0.7057  0.2775  0.3409
  520MOL0     C71636   3.762  11.252   6.190  0.3847 -0.4026  0.4294
  520MOL0     C71637   3.731  11.256   6.342  0.3217  0.9984 -0.6413
  520MOL0     C71638   3.817  11.354   6.419  0.5144 -1.0304 -0.6673
  520MOL0     N71639   3.960  11.348   6.387  0.7735  0.7100 -0.0388
  520MOL0     C71640   4.029  11.466   6.348 -0.0706 -0.7598  0.0091
  520MOL0     C71641   4.155  11.443   6.395  0.1850  0.1693 -0.5891
  520MOL0     C71642   4.269  11.527   6.369 -0.0942  0.3289  0.6823
  520MOL0     C71643   4.371  11.520   6.487  0.8039 -0.1260  0.6684
  520MOL0     C71644   4.482  11.421   6.455  0.2041  0.2346  0.8023
  520MOL0     C71645   4.549  11.357   6.573  0.5551 -0.6148  0.2396
  520MOL0     O71646   4.665  11.282   6.535  0.8970 -0.3797 -0.0515
  520MOL0     C71647   4.784  11.322   6.578 -0.0508 -0.6589 -0.3089
  520MOL0     C71648   4.825  11.268   6.696 -1.0591  0.2413 -0.1167
  520MOL0     C71649   4.947  11.305   6.751 -0.1302 -0.3961  0.6647
  520MOL0     C71650   5.004  11.215   6.856 -0.1107 -0.7564  0.7572
  520MOL0     C71651   5.014  11.419   6.710 -0.2969 -0.1855  0.0681
  520MOL0     C71652   5.150  11.474   6.758 -0.1067  0.5382  0.2187
  520MOL0     O71653   5.232  11.533   6.663  0.6984  0.4533  0.3504
  520MOL0     C71654   5.368  11.554   6.689  1.5625 -0.1256 -1.0049
  520MOL0     C71655   5.458  11.448   6.659 -0.2397 -0.8509 -0.2982
  520MOL0     C71656   5.588  11.473   6.689  0.0894  0.9590 -0.2234
  520MOL0     C71657   5.631  11.581   6.767  0.5309  1.3969  0.2745
  520MOL0     O71658   5.767  11.589   6.787 -0.4890 -0.3409 -0.4961
  520MOL0     C71659   5.829  11.472   6.852 -0.2831  0.3132 -0.5154
  520MOL0     C71660   5.960  11.512   6.905 -0.2122 -0.8176 -0.1874
  520MOL0     C71661   6.073  11.564   6.810  0.8994  1.0500  0.0385
  520MOL0     C71662   6.102  11.459   6.700  0.1019 -0.5276 -0.1855
  520MOL0     C71663   6.215  11.508   6.605  1.1709 -0.1630  0.1284
  520MOL0     C71664   6.360  11.488   6.658 -0.4385 -0.2075 -0.3300
  520MOL0     C71665   6.451  11.543   6.549 -0.0116  0.2844 -0.2383
  520MOL0     C71666   6.601  11.500   6.584 -0.6813  0.1162  0.7073
  520MOL0    Cl71667   6.623  11.328   6.538  0.4696 -0.2539 -0.6102
  520MOL0     C71668   5.540  11.685   6.797  0.0654 -0.3694 -0.1091
  520MOL0     C71669   5.410  11.672   6.746  0.0655  0.5378 -0.1793
  520MOL0     O71670   5.191  11.460   6.871  0.1498  0.2581 -0.5833
  520MOL0     C71671   4.965  11.493   6.594  0.0238  0.7644  0.2540
  520MOL0     C71672   4.846  11.437   6.536 -0.1060 -0.1142 -0.2745
  520MOL0     N71673   4.159  11.303   6.431 -0.7805  0.2425 -0.3636
  520MOL0     N71674   4.041  11.254   6.434 -0.3160  0.4874 -0.7225
  520MOL0     C71675   3.443  10.995   5.382  0.6273 -0.0590  0.6634
  520MOL0     C71676   3.364  10.981   5.267  1.2775 -0.1260 -0.2775
  520MOL0     C71677   3.060  11.018   4.927  0.2358 -0.1627  0.2795
  520MOL0     C71678   3.102  11.009   4.785  0.9066  0.4119 -0.3573
  520MOL0     C71679   3.015  11.046   4.677  0.1144  0.3935 -1.4490
  520MOL0     C71680   2.881  11.091   4.701 -0.9056  0.0629 -1.2233
  520MOL0     O71681   2.787  11.131   4.606 -0.3419 -0.8548  0.5541
  520MOL0     C71682   2.828  11.146   4.468 -0.2283  0.1581  0.2570
  520MOL0     C71683   2.703  11.179   4.386 -0.1882 -0.1810 -0.0181
  520MOL0     C71684   2.607  11.282   4.458  0.1104 -0.1733 -1.0005
  520MOL0     C71685   2.488  11.305   4.370 -0.2870  0.8097 -0.4432
  520MOL0     C71686   2.516  11.373   4.241 -0.1527  0.6390 -0.2677
  520MOL0     C71687   2.548  11.408   4.128  0.2756  1.0542 -0.5355
  520MOL0     C71688   2.846  11.106   4.833  0.1084 -0.1415 -0.1305
  520MOL0     C71689   2.929  11.066   4.946  0.0893  0.6948  0.6958
  520MOL0     C71690   2.869  11.081   5.087  0.0896  0.7100 -0.3165
  520MOL0     H71691   3.097  11.165   5.381 -0.1019  0.5216 -0.5748
  520MOL0     H71692   3.250  11.203   5.564  4.2502  2.3795  0.5867
  520MOL0     H71693   3.653  11.051   5.523 -1.0366  1.5073  0.6784
  520MOL0     H71694   3.629  10.959   5.665  0.8229 -1.2790 -1.2460
  520MOL0     H71695   3.792  11.131   5.719 -0.2352 -2.8523  0.9271
  520MOL0     H71696   3.653  11.251   5.702  1.3912 -0.0745  2.4725
  520MOL0     H71697   3.512  11.155   5.842 -0.3701 -1.2553 -1.2684
  520MOL0     H71698   3.615  11.023   5.879 -1.9198 -0.7286 -2.3187
  520MOL0     H71699   3.798  11.203   5.937 -0.5480  0.3569  0.9464
  520MOL0     H71700   3.671  11.312   5.944  0.3822  0.8152  0.7576
  520MOL0     H71701   3.689  11.064   6.129 -0.5225  0.2840  0.1465
  520MOL0     H71702   3.562  11.190   6.142 -1.2031  0.0955 -1.0604
  520MOL0     H71703   3.859  11.206   6.170 -0.0986 -1.2566 -0.0540
  520MOL0     H71704   3.771  11.354   6.151 -0.7332 -0.3946  0.1631
  520MOL0     H71705   3.754  11.159   6.388  1.2099  0.5658 -1.9192
  520MOL0     H71706   3.627  11.283   6.358  0.5049  2.2875 -1.5121
  520MOL0     H71707   3.785  11.456   6.397  3.1644  0.7704  2.9028
  520MOL0     H71708   3.810  11.327   6.525  0.6180 -0.0412 -0.3988
  520MOL0     H71709   3.984  11.553   6.302  0.1495 -0.2525  0.7395
  520MOL0     H71710   4.238  11.631   6.356 -0.4402  0.5072  2.6508
  520MOL0     H71711   4.316  11.488   6.278  1.3715  1.1928  1.0348
  520MOL0     H71712   4.411  11.618   6.517  1.1713 -0.2496  0.5948
  520MOL0     H71713   4.321  11.486   6.577 -0.9398  1.1808  0.2461
  520MOL0     H71714   4.452  11.344   6.384  1.8617 -0.0330  0.3624
  520MOL0     H71715   4.559  11.470   6.396  1.0128 -2.0315 -0.1360
  520MOL0     H71716   4.581  11.435   6.642  1.1193 -0.3331 -0.3346
  520MOL0     H71717   4.470  11.292   6.612 -0.3775  0.5186  0.2929
  520MOL0     H71718   4.767  11.183   6.731 -0.0551 -0.1341  0.7050
  520MOL0     H71719   4.984  11.260   6.953  2.2752  0.2543  0.8567
  520MOL0     H71720   5.113  11.202   6.848  0.0650  1.0583 -0.4093
  520MOL0     H71721   4.953  11.119   6.848 -0.4879 -0.7052  2.3557
  520MOL0     H71722   5.432  11.356   6.606  0.7737 -0.8466 -0.8192
  520MOL0     H71723   5.658  11.397   6.657  1.8138  0.5878  3.7455
  520MOL0     H71724   5.776  11.450   6.945  1.4898 -0.5223  0.3472
  520MOL0     H71725   5.831  11.387   6.784  2.4257  0.5818 -0.8873
  520MOL0     H71726   5.928  11.587   6.978  2.3293 -0.8309  1.0241
  520MOL0     H71727   5.997  11.425   6.959 -0.2627  0.0629  1.3223
  520MOL0     H71728   6.161  11.588   6.871  0.7581 -0.3433  0.8246
  520MOL0     H71729   6.038  11.658   6.766 -0.7073 -0.5758 -2.3279
  520MOL0     H71730   6.013  11.440   6.638 -1.1267  3.1298  0.2586
  520MOL0     H71731   6.127  11.362   6.744 -1.1794  0.8003  3.8819
  520MOL0     H71732   6.201  11.441   6.520  0.5766 -1.1616  0.9813
  520MOL0     H71733   6.193  11.612   6.581  0.7522 -0.4100 -0.6012
  520MOL0     H71734   6.369  11.380   6.678  1.3094 -0.1730 -0.7612
  520MOL0     H71735   6.380  11.535   6.755  1.4332 -5.8467  2.5230
  520MOL0     H71736   6.445  11.653   6.543 -5.2266  0.2002 -3.5576
  520MOL0     H71737   6.429  11.503   6.449 -0.3973  1.9810 -0.8713
  520MOL0     H71738   6.625  11.522   6.688  1.4684  0.0911  0.2786
  520MOL0     H71739   6.681  11.561   6.540 -0.2634 -0.6401  0.3944
  520MOL0     H71740   5.565  11.770   6.859  2.5850  1.7646 -3.6521
  520MOL0     H71741   5.332  11.746   6.763 -3.3939 -2.9515  0.8191
  520MOL0     H71742   5.017  11.581   6.558  1.9748  0.4190  1.9900
  520MOL0     H71743   4.802  11.498   6.459 -1.5874  0.9663  1.3535
  520MOL0     H71744   3.534  10.936   5.377  2.4324  2.5551  0.4628
  520MOL0     H71745   3.398  10.925   5.181 -4.1830  0.8138 -3.5604
  520MOL0     H71746   3.202  10.977   4.758  1.1061  0.9414 -0.2571
  520MOL0     H71747   3.054  11.034   4.577 -0.6287 -0.8090 -1.6076
  520MOL0     H71748   2.908  11.219   4.458 -1.1456  1.4993  2.2100
  520MOL0     H71749   2.876  11.049   4.448  1.3138  0.8456  0.5132
  520MOL0     H71750   2.649  11.088   4.359 -1.2261  0.5566 -0.4701
  520MOL0     H71751   2.727  11.235   4.296 -0.1546 -0.5484 -0.2410
  520MOL0     H71752   2.583  11.243   4.557  3.3618  0.7232  0.2800
  520MOL0     H71753   2.663  11.375   4.472 -0.2766  0.2162 -1.9232
  520MOL0     H71754   2.417  11.362   4.429  1.5229 -0.2159  3.0192
  520MOL0     H71755   2.458  11.205   4.336  2.9554  0.4331 -2.7318
  520MOL0     H71756   2.584  11.439   4.031  0.3180  1.9583 -0.2388
  520MOL0     H71757   2.746  11.141   4.856  0.2230 -0.3199  0.6880
  520MOL0     H71758   2.770  11.128   5.086 -0.5392 -0.2821  2.9083
  520MOL0     H71759   2.859  10.979   5.124 -2.8971  1.0974  0.1852
  520MOL0     H71760   2.928  11.142   5.156 -0.1682  0.7456 -0.1258
  521MOL0     O71761  10.780  10.214   8.996  0.2288 -0.3633 -0.1331
  521MOL0     C71762  10.710  10.212   9.101  0.4448 -0.9589 -0.7222
  521MOL0     O71763  10.742  10.273   9.217  0.5293  0.4927  0.2733
  521MOL0     C71764  10.871  10.325   9.219  1.4963 -0.7220 -0.7726
  521MOL0     C71765  10.980  10.253   9.211 -0.9275 -0.6437 -0.1577
  521MOL0     C71766  11.112  10.304   9.233  0.0546  0.4586  0.4256
  521MOL0     C71767  11.124  10.434   9.283 -0.1556 -0.0472 -0.2005
  521MOL0     O71768  11.254  10.463   9.336 -0.1955  0.1536  0.0398
  521MOL0     C71769  11.264  10.608   9.368  0.3531  0.2520  0.3868
  521MOL0     C71770  11.413  10.640   9.375  0.1496 -0.3285  0.1582
  521MOL0     C71771  11.476  10.641   9.232 -0.0062 -0.4023 -0.1064
  521MOL0     C71772  11.526  10.497   9.191  0.6395 -0.3994 -0.3177
  521MOL0     C71773  11.593  10.490   9.050 -0.3495  0.4972 -0.0128
  521MOL0     C71774  11.656  10.353   9.024 -0.0654  0.7734  0.1108
  521MOL0     C71775  11.779  10.322   9.108  0.1725  0.6132 -0.2204
  521MOL0     C71776  11.826  10.176   9.095 -0.0492 -0.5643  0.4038
  521MOL0     N71777  11.840  10.124   8.960 -0.4788 -0.6398 -0.2097
  521MOL0     C71778  11.920  10.186   8.858  0.4391  0.1205 -0.2953
  521MOL0     C71779  11.951  10.096   8.763  0.8510 -1.1347 -0.6240
  521MOL0     C71780  12.044  10.122   8.654 -1.0858  0.6062  0.7796
  521MOL0     C71781  12.185  10.077   8.691  0.3159 -0.5418 -0.5783
  521MOL0     C71782  12.296  10.187   8.671  0.1616  0.2534  0.2549
  521MOL0     C71783  12.324  10.228   8.531  0.1504  0.4149 -0.0772
  521MOL0     O71784  12.374  10.119   8.455 -0.2708 -0.0994  0.8898
  521MOL0     C71785  12.399  10.148   8.323  0.7587  1.0159 -0.4254
  521MOL0     C71786  12.484  10.060   8.249  0.4225 -0.5215 -0.4288
  521MOL0     C71787  12.518  10.097   8.110  1.5549  1.3903  0.9225
  521MOL0     C71788  12.622  10.004   8.051 -0.3355 -0.5131 -0.2713
  521MOL0     C71789  12.453  10.211   8.045 -0.5044 -0.8321  0.1278
  521MOL0     C71790  12.499  10.263   7.908  0.2149  0.2630  0.9030
  521MOL0     O71791  12.437  10.378   7.859 -0.1490 -0.0351 -0.2216
  521MOL0     C71792  12.471  10.416   7.729  0.6819  0.2495  0.2035
  521MOL0     C71793  12.414  10.347   7.622  0.2558 -0.1617 -0.2481
  521MOL0     C71794  12.450  10.381   7.496 -0.5284  0.4288  0.4725
  521MOL0     C71795  12.542  10.478   7.461 -0.2891 -0.0701 -0.9330
  521MOL0     O71796  12.592  10.484   7.333  0.0354  0.0164 -0.4599
  521MOL0     C71797  12.582  10.621   7.276 -0.4855 -0.1328  0.2645
  521MOL0     C71798  12.719  10.635   7.191 -0.3007 -0.2925 -0.6540
  521MOL0     C71799  12.837  10.654   7.286 -0.3343  0.3624 -0.5201
  521MOL0     C71800  12.968  10.617   7.208 -0.6375 -0.2272 -0.1145
  521MOL0     C71801  13.098  10.620   7.297  0.9306 -0.7048  1.2785
  521MOL0     C71802  13.106  10.493   7.391  0.3825 -1.3567  0.9754
  521MOL0     C71803  13.234  10.506   7.472 -0.6316  0.2658  0.3261
  521MOL0     C71804  13.232  10.414   7.598  0.2778 -0.1111  1.0206
  521MOL0    Cl71805  13.382  10.453   7.696 -0.4984 -0.3750 -0.1465
  521MOL0     C71806  12.599  10.550   7.568  0.0518  0.4081 -0.5978
  521MOL0     C71807  12.577  10.515   7.706 -0.8792 -0.5023 -0.2893
  521MOL0     O71808  12.591  10.209   7.850  1.2041  0.0543 -0.5366
  521MOL0     C71809  12.369  10.289   8.128 -0.2360 -0.0496  0.2058
  521MOL0     C71810  12.343  10.259   8.256 -0.1640  0.2539  0.0317
  521MOL0     N71811  11.910   9.974   8.818  0.4802 -0.2524 -0.4811
  521MOL0     N71812  11.830   9.995   8.922 -1.0085  0.3734 -0.5447
  521MOL0     C71813  11.005  10.516   9.296  0.2191 -0.2087  0.8857
  521MOL0     C71814  10.878  10.463   9.261  0.5289  0.5197  0.2989
  521MOL0     C71815  10.580  10.147   9.093  0.9433  0.3283 -0.2375
  521MOL0     C71816  10.475  10.202   9.167 -0.0310 -0.4970  0.5932
  521MOL0     C71817  10.337  10.166   9.161 -1.4664  0.5580  0.2434
  521MOL0     C71818  10.302  10.051   9.093 -1.0753  0.2509  0.3721
  521MOL0     O71819  10.165  10.010   9.097  0.0817  0.7481 -0.3601
  521MOL0     C71820  10.136   9.874   9.054  0.4093 -0.2600 -0.0828
  521MOL0     C71821   9.986   9.839   9.073  0.5031 -0.1917  0.5856
  521MOL0     C71822   9.885   9.918   8.983 -0.4719 -0.1243 -0.5608
  521MOL0     C71823   9.875  10.069   8.996 -0.6797 -0.2350  0.4311
  521MOL0     C71824   9.941  10.136   8.885 -0.3203  0.3535  0.6044
  521MOL0     C71825  10.016  10.174   8.796  0.5432 -0.2197 -0.3548
  521MOL0     C71826  10.406   9.987   9.023 -0.0523 -0.3134  0.5801
  521MOL0     C71827  10.537  10.046   9.008  0.6356 -0.4335 -0.0768
  521MOL0     C71828  10.635   9.980   8.923  0.7825  0.1519  0.6021
  521MOL0     H71829  10.959  10.153   9.174 -0.7533  0.9592 -5.3851
  521MOL0     H71830  11.203  10.244   9.229  1.1208  2.0681 -2.1434
  521MOL0     H71831  11.215  10.640   9.460  1.5565  1.8281  0.5275
  521MOL0     H71832  11.219  10.661   9.284  0.1311 -2.8122 -1.5908
  521MOL0     H71833  11.429  10.745   9.401  1.2211 -0.1083 -1.2135
  521MOL0     H71834  11.468  10.571   9.439 -2.6456 -0.7581  2.2777
  521MOL0     H71835  11.398  10.671   9.161  2.1891 -0.9894 -2.9281
  521MOL0     H71836  11.566  10.703   9.227  0.6942 -1.4397 -0.5521
  521MOL0     H71837  11.601  10.465   9.263 -0.1823 -0.6160  0.4548
  521MOL0     H71838  11.445  10.424   9.206  0.3484  0.3635  2.3974
  521MOL0     H71839  11.661  10.576   9.056  0.5230 -0.2346  0.8422
  521MOL0     H71840  11.515  10.503   8.974 -1.3867  0.5817  1.0427
  521MOL0     H71841  11.571  10.286   9.039 -2.6123  4.1870  2.4818
  521MOL0     H71842  11.684  10.350   8.918 -2.1428  0.4129 -0.4863
  521MOL0     H71843  11.754  10.335   9.214 -1.0072 -0.1816 -0.3816
  521MOL0     H71844  11.851  10.402   9.089 -1.9809  3.2808  2.0213
  521MOL0     H71845  11.927  10.169   9.138  0.0704  1.3259  0.4831
  521MOL0     H71846  11.762  10.110   9.154  2.9254 -3.1388  1.0365
  521MOL0     H71847  11.959  10.286   8.846 -0.3014  0.1966 -2.4493
  521MOL0     H71848  12.045  10.224   8.616 -1.2514  1.4200  2.8154
  521MOL0     H71849  12.015  10.075   8.560  1.0427  0.0530  0.3430
  521MOL0     H71850  12.177  10.055   8.798  0.2879  1.9807 -0.0050
  521MOL0     H71851  12.216   9.990   8.632  1.5448  0.4613 -1.4583
  521MOL0     H71852  12.260  10.276   8.724 -1.0564  2.0912 -3.3554
  521MOL0     H71853  12.393  10.155   8.709  1.7735  0.3194 -3.4329
  521MOL0     H71854  12.232  10.264   8.484 -0.4292 -1.2487 -0.2919
  521MOL0     H71855  12.387  10.318   8.533  1.4381 -0.4055 -1.4622
  521MOL0     H71856  12.525   9.970   8.294 -2.0046 -1.5658 -0.1238
  521MOL0     H71857  12.638   9.914   8.112  1.7718 -1.1558 -1.6767
  521MOL0     H71858  12.713  10.064   8.050  2.1408 -3.7736  2.5369
  521MOL0     H71859  12.610   9.971   7.947  0.4828  0.2586 -0.6191
  521MOL0     H71860  12.344  10.268   7.646  2.1269 -0.7122  4.4024
  521MOL0     H71861  12.419  10.321   7.411  0.8876 -0.4118  0.5136
  521MOL0     H71862  12.495  10.645   7.214 -0.5268 -0.1701  0.3077
  521MOL0     H71863  12.576  10.693   7.358  1.3999 -0.0648  0.3837
  521MOL0     H71864  12.732  10.549   7.125 -0.8710 -0.1409 -0.9694
  521MOL0     H71865  12.720  10.725   7.130  0.6531  0.9386  1.0924
  521MOL0     H71866  12.826  10.605   7.383  0.0005  3.2772  1.0911
  521MOL0     H71867  12.846  10.762   7.302 -0.8988  0.3545 -0.1276
  521MOL0     H71868  12.983  10.676   7.118 -1.0213 -0.4167 -0.3060
  521MOL0     H71869  12.957  10.518   7.163 -2.1489  1.6523 -4.4181
  521MOL0     H71870  13.183  10.628   7.229 -0.1361 -1.4634 -0.1909
  521MOL0     H71871  13.090  10.711   7.358  1.9883 -0.1500  0.6268
  521MOL0     H71872  13.106  10.405   7.326 -0.3130  1.9833 -4.0798
  521MOL0     H71873  13.026  10.490   7.466  0.5641 -0.4882  1.2168
  521MOL0     H71874  13.226  10.606   7.516 -2.3671 -0.4842  1.8360
  521MOL0     H71875  13.327  10.487   7.419  0.0518 -1.1645  1.9588
  521MOL0     H71876  13.232  10.309   7.569 -2.7072 -0.0131  0.4473
  521MOL0     H71877  13.138  10.439   7.648  0.2614 -0.6724  1.2849
  521MOL0     H71878  12.668  10.632   7.551  2.0302 -0.6183  1.8222
  521MOL0     H71879  12.632  10.568   7.783 -3.6865  2.1710  0.0440
  521MOL0     H71880  12.343  10.388   8.090  1.6049  0.5282  0.3532
  521MOL0     H71881  12.288  10.334   8.312 -0.6771  1.6536 -2.1979
  521MOL0     H71882  10.991  10.615   9.338  1.4622  0.6395 -0.6044
  521MOL0     H71883  10.791  10.522   9.290 -0.3698 -1.6604  2.4007
  521MOL0     H71884  10.494  10.294   9.222  1.5510  1.9614 -3.5389
  521MOL0     H71885  10.258  10.214   9.218 -1.6819 -0.5114  0.8742
  521MOL0     H71886  10.164   9.885   8.949  2.2509  2.3518  0.5864
  521MOL0     H71887  10.199   9.802   9.106  0.6781 -1.2470 -1.7104
  521MOL0     H71888   9.969   9.871   9.176  0.1867 -2.3328  1.2593
  521MOL0     H71889   9.984   9.730   9.067  2.1575 -0.2031 -0.0794
  521MOL0     H71890   9.900   9.893   8.877  0.0981  2.1634 -1.0707
  521MOL0     H71891   9.787   9.872   8.998 -0.4957 -1.2861 -3.5031
  521MOL0     H71892   9.905  10.100   9.097  0.6254 -1.8902  0.6053
  521MOL0     H71893   9.768  10.091   8.996 -0.7601 -0.6079  0.1736
  521MOL0     H71894  10.080  10.197   8.713  4.1809 -2.2600  1.6393
  521MOL0     H71895  10.378   9.906   8.955 -1.5065  0.3843  0.3004
  521MOL0     H71896  10.724   9.972   8.987  1.4459 -0.5323 -0.3711
  521MOL0     H71897  10.602   9.881   8.892 -1.8354  1.1767 -0.0988
  521MOL0     H71898  10.655  10.025   8.826  1.0785 -0.1052  0.5418
  522MOL0     O71899   5.341   7.562   4.126 -0.2330  0.3075 -0.0672
  522MOL0     C71900   5.367   7.681   4.128  0.4572  0.2335 -0.9433
  522MOL0     O71901   5.485   7.734   4.088  0.1957 -0.2998 -0.2854
  522MOL0     C71902   5.569   7.633   4.045 -0.4907 -1.1545  1.0389
  522MOL0     C71903   5.556   7.578   3.914  0.5285 -0.0195  0.1741
  522MOL0     C71904   5.643   7.488   3.864  0.1695 -0.2412 -0.4905
  522MOL0     C71905   5.745   7.440   3.950 -0.1653  0.3392 -0.1493
  522MOL0     O71906   5.824   7.336   3.895  0.3814  0.0096  0.3135
  522MOL0     C71907   5.903   7.249   3.981 -0.6224  0.3710  0.0085
  522MOL0     C71908   5.889   7.106   3.929 -0.2302  0.1484  0.8915
  522MOL0     C71909   6.004   7.008   3.983 -0.3994  0.6877  0.5784
  522MOL0     C71910   5.995   6.969   4.132  0.2446  0.0966  0.1159
  522MOL0     C71911   6.116   6.884   4.169  0.3459  0.3187  0.8175
  522MOL0     C71912   6.124   6.892   4.322  0.7484  0.1331  0.1717
  522MOL0     C71913   6.206   6.782   4.385 -0.1247  0.7743 -0.4467
  522MOL0     C71914   6.193   6.778   4.540 -0.6787 -0.5922 -0.0934
  522MOL0     N71915   6.244   6.902   4.606 -0.3752  0.1099 -0.3101
  522MOL0     C71916   6.163   7.008   4.644  0.0349 -0.4638  0.2916
  522MOL0     C71917   6.251   7.093   4.712  0.4528  0.8357 -0.2387
  522MOL0     C71918   6.207   7.223   4.765 -0.6371 -0.0417 -0.6855
  522MOL0     C71919   6.285   7.330   4.685 -0.1722  0.2182 -0.1575
  522MOL0     C71920   6.269   7.476   4.735 -0.0718 -0.3179 -0.5618
  522MOL0     C71921   6.353   7.581   4.661  0.6527 -0.7302 -0.5991
  522MOL0     O71922   6.281   7.702   4.660 -0.6310  0.1613  0.5223
  522MOL0     C71923   6.350   7.821   4.626  0.8347 -0.2965 -0.1479
  522MOL0     C71924   6.471   7.823   4.553  1.0900 -0.0015 -0.8549
  522MOL0     C71925   6.531   7.942   4.521  0.0809 -0.0118 -0.4943
  522MOL0     C71926   6.643   7.931   4.421  0.1976 -0.8788  0.9151
  522MOL0     C71927   6.493   8.061   4.592 -0.1618 -0.3010  0.5999
  522MOL0     C71928   6.549   8.189   4.559 -0.4785 -1.6125  0.1621
  522MOL0     O71929   6.678   8.201   4.525 -0.7118  0.1700 -1.0739
  522MOL0     C71930   6.728   8.317   4.486  0.3124 -0.6212  0.4810
  522MOL0     C71931   6.676   8.393   4.377  0.4796  0.2319 -0.1456
  522MOL0     C71932   6.740   8.511   4.338  0.4545  0.6045  0.7981
  522MOL0     C71933   6.880   8.530   4.380 -0.4155 -0.6195 -1.5262
  522MOL0     O71934   6.947   8.630   4.319 -0.0548  0.5203 -0.2500
  522MOL0     C71935   7.088   8.621   4.310 -0.5241 -0.3323  0.8243
  522MOL0     C71936   7.137   8.691   4.185 -0.0427  0.4678  0.4580
  522MOL0     C71937   7.276   8.756   4.203  0.0297 -0.0312 -0.3538
  522MOL0     C71938   7.378   8.637   4.189  0.4478  0.7395  0.6310
  522MOL0     C71939   7.517   8.680   4.220  0.1418 -0.0099 -0.2035
  522MOL0     C71940   7.599   8.732   4.101  0.6990  0.3199  0.2059
  522MOL0     C71941   7.730   8.788   4.143  0.0064 -0.2697 -0.0000
  522MOL0     C71942   7.834   8.800   4.032 -0.0574  1.2409  0.3538
  522MOL0    Cl71943   7.779   8.905   3.911 -0.5014 -0.2306  0.3968
  522MOL0     C71944   6.937   8.449   4.488 -0.7433  0.5319  0.5058
  522MOL0     C71945   6.856   8.343   4.537 -0.3524 -0.2174  0.1647
  522MOL0     O71946   6.464   8.277   4.575 -0.3654 -0.3514  0.2745
  522MOL0     C71947   6.370   8.053   4.663 -0.5141  0.2495  0.3003
  522MOL0     C71948   6.294   7.936   4.673  0.9060  0.2556 -0.2261
  522MOL0     N71949   6.381   7.028   4.716 -0.4638 -0.8828  0.4935
  522MOL0     N71950   6.365   6.913   4.665  0.4748  0.2334 -1.0925
  522MOL0     C71951   5.773   7.501   4.075  0.5148 -0.3958  0.5606
  522MOL0     C71952   5.692   7.610   4.122  0.2106  0.6641  0.5641
  522MOL0     C71953   5.264   7.781   4.171 -0.2435 -0.7116  0.5301
  522MOL0     C71954   5.133   7.792   4.107 -0.7341  0.8840 -0.1737
  522MOL0     C71955   5.041   7.881   4.161  0.4189  0.8678  0.2807
  522MOL0     C71956   5.064   7.957   4.273  0.9269  0.0613  0.6584
  522MOL0     O71957   4.963   8.042   4.318 -0.6709 -0.3338 -0.0044
  522MOL0     C71958   4.920   7.999   4.444  0.5448 -0.4203 -0.3127
  522MOL0     C71959   4.849   8.110   4.519  0.1544 -0.3980  0.0565
  522MOL0     C71960   4.718   8.163   4.446 -0.7198  0.2172  0.1858
  522MOL0     C71961   4.632   8.274   4.517  0.0982 -0.3707 -0.2912
  522MOL0     C71962   4.560   8.230   4.633  0.7294  0.6080 -0.1140
  522MOL0     C71963   4.502   8.208   4.745 -0.4577 -0.0274  0.1065
  522MOL0     C71964   5.195   7.959   4.326  0.4070  1.5595 -0.8445
  522MOL0     C71965   5.291   7.858   4.284 -0.4659  0.2146 -0.3998
  522MOL0     C71966   5.415   7.850   4.361 -0.8143 -1.1161 -0.7752
  522MOL0     H71967   5.467   7.600   3.856 -0.1074 -0.4273  0.9693
  522MOL0     H71968   5.628   7.445   3.765 -2.0394 -1.6022  0.3742
  522MOL0     H71969   5.849   7.247   4.075 -1.4904  1.4879 -0.4498
  522MOL0     H71970   6.010   7.265   3.998 -0.1375 -0.9690 -1.5228
  522MOL0     H71971   5.787   7.069   3.947  0.2096 -0.8485  1.4503
  522MOL0     H71972   5.906   7.109   3.821 -0.3026  0.3550  0.8855
  522MOL0     H71973   6.020   6.921   3.919  1.3365  1.2522  0.2141
  522MOL0     H71974   6.099   7.061   3.978  0.4754 -0.9550 -1.5348
  522MOL0     H71975   6.000   7.057   4.197  1.9809 -0.0695  0.2403
  522MOL0     H71976   5.906   6.906   4.148  1.6220 -1.4442  2.3478
  522MOL0     H71977   6.207   6.921   4.121  0.4247 -1.9985 -0.9659
  522MOL0     H71978   6.100   6.787   4.122 -0.4979 -0.4637  2.6444
  522MOL0     H71979   6.134   6.998   4.346  0.3488  0.2299 -0.0899
  522MOL0     H71980   6.023   6.869   4.358  0.4108 -1.7220 -1.7505
  522MOL0     H71981   6.311   6.799   4.360 -0.3998  0.7812 -1.6589
  522MOL0     H71982   6.167   6.687   4.348 -2.1546  1.3880  0.0186
  522MOL0     H71983   6.090   6.754   4.568 -1.2344  1.0831 -0.5302
  522MOL0     H71984   6.256   6.696   4.574  1.9170  1.9185  1.6574
  522MOL0     H71985   6.058   7.019   4.620  0.6003  0.8416 -1.8635
  522MOL0     H71986   6.226   7.218   4.873 -3.1973 -0.7019 -0.2140
  522MOL0     H71987   6.100   7.243   4.761 -0.4249  1.2002 -0.6999
  522MOL0     H71988   6.392   7.307   4.689 -0.1510 -0.7162 -3.4054
  522MOL0     H71989   6.267   7.319   4.578  1.9448 -0.6991 -0.4634
  522MOL0     H71990   6.165   7.509   4.728 -0.1659 -0.7712 -1.4792
  522MOL0     H71991   6.303   7.476   4.839  0.4488  3.8051 -0.5668
  522MOL0     H71992   6.450   7.597   4.708 -0.9161  2.8811  1.8345
  522MOL0     H71993   6.357   7.558   4.554  0.8940 -1.8325 -0.3649
  522MOL0     H71994   6.514   7.737   4.502 -0.6057  0.2325 -2.8498
  522MOL0     H71995   6.622   7.848   4.353  0.8455  0.3620 -0.8530
  522MOL0     H71996   6.733   7.906   4.478 -1.6861 -5.0029  2.4628
  522MOL0     H71997   6.647   8.020   4.358 -0.6275  0.8831  3.2028
  522MOL0     H71998   6.574   8.379   4.341  0.5824  3.4829 -2.0350
  522MOL0     H71999   6.705   8.572   4.255 -1.6711 -1.5254  0.0208
  522MOL0     H72000   7.130   8.683   4.390  0.9598 -0.6385  0.3120
  522MOL0     H72001   7.111   8.515   4.317 -0.5411 -0.2509  2.5781
  522MOL0     H72002   7.136   8.621   4.102 -3.5081 -0.6662  1.2572
  522MOL0     H72003   7.061   8.763   4.151 -0.0604 -0.4459 -1.5340
  522MOL0     H72004   7.286   8.811   4.297 -0.4684  0.3907 -0.5464
  522MOL0     H72005   7.293   8.829   4.123 -1.0555  1.7829  0.9929
  522MOL0     H72006   7.370   8.590   4.091 -0.3225  2.8687 -0.4099
  522MOL0     H72007   7.349   8.552   4.251 -2.8537 -0.8389 -2.6993
  522MOL0     H72008   7.527   8.748   4.305  3.1855 -0.5439 -0.0199
  522MOL0     H72009   7.580   8.595   4.250  1.7035  0.7839 -1.1002
  522MOL0     H72010   7.540   8.798   4.037 -2.6442  0.5708  3.2467
  522MOL0     H72011   7.619   8.652   4.028 -0.8393  1.7710 -1.9488
  522MOL0     H72012   7.776   8.721   4.217  1.2976  3.3951  2.8342
  522MOL0     H72013   7.730   8.881   4.200  3.4264  0.9055 -1.6377
  522MOL0     H72014   7.858   8.701   3.992  1.4731  2.0702 -0.9216
  522MOL0     H72015   7.924   8.848   4.072 -1.0680  1.6740  2.1783
  522MOL0     H72016   7.041   8.460   4.518 -0.2382 -3.2172  0.5251
  522MOL0     H72017   6.901   8.286   4.617  3.4733  0.9329 -0.9505
  522MOL0     H72018   6.330   8.141   4.712 -1.2117 -0.5915  1.2963
  522MOL0     H72019   6.209   7.927   4.740  0.2163  3.2271 -0.5582
  522MOL0     H72020   5.854   7.454   4.129  1.6705 -0.5606 -1.2386
  522MOL0     H72021   5.721   7.673   4.206  0.1446 -0.1687  1.2335
  522MOL0     H72022   5.117   7.729   4.020  0.1283 -0.3809  0.5550
  522MOL0     H72023   4.938   7.876   4.127 -0.0784 -1.2632  1.8948
  522MOL0     H72024   4.870   7.902   4.441  2.1100 -1.3048  0.9659
  522MOL0     H72025   5.007   7.971   4.502  0.5079  1.4792  0.7455
  522MOL0     H72026   4.928   8.186   4.518  0.9263 -1.1690  0.9251
  522MOL0     H72027   4.813   8.086   4.620  0.9297 -4.6524 -0.5239
  522MOL0     H72028   4.757   8.208   4.354  3.4730 -1.7096  0.8012
  522MOL0     H72029   4.652   8.078   4.426 -0.7004  0.1887  0.2450
  522MOL0     H72030   4.558   8.316   4.448 -0.1213  0.5418  0.4897
  522MOL0     H72031   4.700   8.352   4.550 -0.7955 -1.3768  4.7376
  522MOL0     H72032   4.445   8.194   4.835 -0.9759  1.6667  0.0811
  522MOL0     H72033   5.201   8.041   4.397 -1.5154  1.2860 -0.2992
  522MOL0     H72034   5.436   7.750   4.398  0.2373  0.1301  2.2427
  522MOL0     H72035   5.497   7.892   4.302 -0.8655  0.4755  0.2245
  522MOL0     H72036   5.412   7.918   4.446 -0.4950  1.3021 -2.5781
  523MOL0     O72037   7.147   0.304   6.536 -0.5062 -0.5053  0.4559
  523MOL0     C72038   7.151   0.304   6.411  0.0249 -0.3745 -0.1410
  523MOL0     O72039   7.136   0.408   6.327 -0.3548  0.0649 -0.1121
  523MOL0     C72040   7.090   0.531   6.373 -0.5711  0.3969 -0.4700
  523MOL0     C72041   7.140   0.582   6.487 -0.0263 -0.6179 -0.4039
  523MOL0     C72042   7.080   0.697   6.536 -0.7787  0.2091  0.6541
  523MOL0     C72043   6.980   0.768   6.465 -0.0585 -0.7024  0.4597
  523MOL0     O72044   6.920   0.886   6.498 -0.4768  0.0539 -0.0946
  523MOL0     C72045   7.011   0.970   6.570  0.1956  0.0574  0.2972
  523MOL0     C72046   6.956   1.117   6.563  0.1932 -0.5260  0.1204
  523MOL0     C72047   7.055   1.213   6.621 -0.3645 -0.3299 -0.4298
  523MOL0     C72048   6.981   1.350   6.634  0.0682  0.4381 -0.0666
  523MOL0     C72049   7.068   1.457   6.689 -0.6057 -0.0938  0.5310
  523MOL0     C72050   7.012   1.600   6.649  0.5318  0.1905 -0.0794
  523MOL0     C72051   7.087   1.710   6.721  0.2693  0.0192  0.2158
  523MOL0     C72052   7.032   1.860   6.708 -0.9629  0.5742 -0.0982
  523MOL0     N72053   6.925   1.890   6.789 -0.4732  0.6068 -0.7567
  523MOL0     C72054   6.794   1.858   6.753  0.0762  0.7348 -0.9116
  523MOL0     C72055   6.720   1.904   6.849  0.5905  0.5274 -0.2727
  523MOL0     C72056   6.576   1.877   6.870  0.7350 -0.1886 -0.7143
  523MOL0     C72057   6.487   1.991   6.824 -0.3835  0.5929 -0.1572
  523MOL0     C72058   6.423   1.961   6.691  0.3196  0.4193  0.1399
  523MOL0     C72059   6.321   2.068   6.652 -0.9127 -0.2098  0.1743
  523MOL0     O72060   6.277   2.057   6.519  0.7311  0.8794  0.9597
  523MOL0     C72061   6.192   1.956   6.494  0.2938  0.1773 -0.8753
  523MOL0     C72062   6.228   1.841   6.433 -0.4573 -0.4379  0.1503
  523MOL0     C72063   6.147   1.724   6.432 -0.1254 -0.2566  0.3230
  523MOL0     C72064   6.199   1.593   6.374 -0.2112 -0.1877  0.5603
  523MOL0     C72065   6.015   1.731   6.494  0.1742  1.2673  0.8819
  523MOL0     C72066   5.938   1.606   6.538 -0.1446 -0.2574 -0.2387
  523MOL0     O72067   5.932   1.564   6.670  0.1261  0.8949  0.0793
  523MOL0     C72068   6.002   1.626   6.765 -0.4327 -0.4546  0.1178
  523MOL0     C72069   5.940   1.706   6.846 -0.0664  0.1584 -0.0181
  523MOL0     C72070   6.006   1.785   6.940  0.3657 -0.9616  0.5656
  523MOL0     C72071   6.148   1.779   6.937  0.1870  0.0624 -0.5463
  523MOL0     O72072   6.227   1.858   7.017  0.2166 -0.2755  0.3105
  523MOL0     C72073   6.307   1.786   7.109  0.2245  0.4155 -0.1202
  523MOL0     C72074   6.215   1.722   7.216 -0.9072 -0.2549  0.1547
  523MOL0     C72075   6.155   1.825   7.315 -0.4925  0.2230 -0.7664
  523MOL0     C72076   6.256   1.865   7.422  0.3495  0.7160 -1.0182
  523MOL0     C72077   6.166   1.912   7.545 -0.3441 -0.4437  0.2131
  523MOL0     C72078   6.254   1.976   7.646 -0.0879  0.3650  0.0045
  523MOL0     C72079   6.182   2.026   7.766 -0.3166 -0.4256 -0.1799
  523MOL0     C72080   6.277   2.051   7.890 -0.1017 -0.4044  0.1610
  523MOL0    Cl72081   6.386   2.180   7.826  0.1279  0.1447 -0.0663
  523MOL0     C72082   6.211   1.693   6.849 -0.6561  0.0517 -0.3285
  523MOL0     C72083   6.141   1.606   6.766  0.9037 -0.6831  0.2520
  523MOL0     O72084   5.875   1.553   6.448 -0.3248  0.3453 -0.1579
  523MOL0     C72085   5.977   1.856   6.535  1.0909  0.6843  0.2669
  523MOL0     C72086   6.060   1.974   6.532  0.4794 -0.1297  0.4279
  523MOL0     N72087   6.803   1.955   6.949  0.1217 -0.1539  0.0598
  523MOL0     N72088   6.920   1.942   6.905  0.1871 -0.6586 -0.3578
  523MOL0     C72089   6.943   0.720   6.333  0.5424 -0.1286  0.3501
  523MOL0     C72090   7.000   0.598   6.295 -0.1613 -0.0118  0.1750
  523MOL0     C72091   7.198   0.176   6.341  0.5006  0.7309 -0.0556
  523MOL0     C72092   7.275   0.086   6.434  0.3261 -0.3549  0.7404
  523MOL0     C72093   7.320  -0.037   6.380 -0.8128 -0.2751  0.0162
  523MOL0     C72094   7.291  -0.078   6.249 -0.3376  0.7063 -0.6758
  523MOL0     O72095   7.318  -0.201   6.218 -0.0121  0.5374 -0.3497
  523MOL0     C72096   7.204  -0.284   6.239 -0.0070 -0.4675 -0.9448
  523MOL0     C72097   7.212  -0.409   6.149  0.9256 -0.7791 -0.7265
  523MOL0     C72098   7.170  -0.398   6.002  0.4286  0.1813 -0.2656
  523MOL0     C72099   7.292  -0.345   5.918  0.7223 -0.7132 -0.0482
  523MOL0     C72100   7.250  -0.372   5.784  0.2718 -0.7860 -0.4378
  523MOL0     C72101   7.206  -0.377   5.670 -0.1197  0.9116  1.6692
  523MOL0     C72102   7.213   0.004   6.164  0.8510  1.2481  0.1413
  523MOL0     C72103   7.170   0.130   6.206  0.2812 -0.3044  0.4088
  523MOL0     C72104   7.074   0.212   6.121  0.3021 -0.1772  0.0295
  523MOL0     H72105   7.216   0.533   6.547  1.1306  0.1020 -1.2372
  523MOL0     H72106   7.124   0.740   6.626 -2.2064 -0.9717  1.9692
  523MOL0     H72107   7.107   0.950   6.522  0.7801 -0.0449  1.4949
  523MOL0     H72108   7.012   0.954   6.678  2.7084  3.4711  0.9574
  523MOL0     H72109   6.935   1.139   6.458  0.0177 -3.0506 -0.4405
  523MOL0     H72110   6.865   1.111   6.624 -0.0581  0.5093 -0.1518
  523MOL0     H72111   7.085   1.176   6.720  1.7399  2.2401  0.0208
  523MOL0     H72112   7.150   1.227   6.569  1.1649  2.2881  2.6746
  523MOL0     H72113   6.955   1.385   6.534 -3.6631  3.2496  1.6448
  523MOL0     H72114   6.886   1.335   6.687  0.5529 -0.1585  0.6586
  523MOL0     H72115   7.171   1.443   6.654  0.6826  1.3982  3.3499
  523MOL0     H72116   7.084   1.448   6.797  0.9341 -1.4731  0.2298
  523MOL0     H72117   7.012   1.614   6.540  0.3087 -4.9418 -1.0074
  523MOL0     H72118   6.910   1.610   6.686  0.6421  2.5938 -0.2871
  523MOL0     H72119   7.183   1.718   6.670  0.7908  0.9077  1.2739
  523MOL0     H72120   7.086   1.673   6.824 -0.0664  0.4369  0.3671
  523MOL0     H72121   7.116   1.927   6.723 -0.1040 -0.3855 -0.4825
  523MOL0     H72122   6.999   1.872   6.604 -1.3145 -1.9186 -0.3467
  523MOL0     H72123   6.754   1.807   6.666 -2.4949  0.9813  0.0409
  523MOL0     H72124   6.577   1.860   6.978  3.6517  0.1974 -0.5986
  523MOL0     H72125   6.546   1.783   6.824  1.1391 -0.7484  0.1432
  523MOL0     H72126   6.406   2.013   6.893  0.3641  3.7071 -0.1521
  523MOL0     H72127   6.543   2.083   6.806  2.0567 -0.3206  2.2287
  523MOL0     H72128   6.509   1.943   6.625  0.6706 -0.5933  0.8451
  523MOL0     H72129   6.368   1.868   6.703  2.5650 -1.3275 -2.0624
  523MOL0     H72130   6.242   2.055   6.727  0.6373  2.8985  2.6101
  523MOL0     H72131   6.362   2.168   6.672 -1.2744 -0.2333  1.0882
  523MOL0     H72132   6.329   1.841   6.393 -1.3472  2.5779 -2.4833
  523MOL0     H72133   6.119   1.525   6.344  1.8338 -3.4209  1.9494
  523MOL0     H72134   6.252   1.527   6.443  1.0272 -4.2011 -3.7081
  523MOL0     H72135   6.262   1.623   6.290 -0.3987  1.6375  1.0193
  523MOL0     H72136   5.833   1.696   6.853  0.1860 -1.8819  1.9362
  523MOL0     H72137   5.963   1.855   7.011  2.0086 -0.2251  0.8775
  523MOL0     H72138   6.368   1.711   7.057 -1.1769 -0.1346 -1.0270
  523MOL0     H72139   6.376   1.855   7.159  0.3294  0.9406 -0.9766
  523MOL0     H72140   6.128   1.672   7.172 -0.9648  0.4018 -0.5062
  523MOL0     H72141   6.286   1.659   7.270 -0.8553 -0.3514 -0.0258
  523MOL0     H72142   6.068   1.786   7.368  2.0763 -2.0921  2.0953
  523MOL0     H72143   6.126   1.915   7.260  0.6012  1.1330  0.1016
  523MOL0     H72144   6.329   1.936   7.382 -0.2479  0.4185 -2.7420
  523MOL0     H72145   6.311   1.776   7.452 -0.2938  0.2887 -1.0884
  523MOL0     H72146   6.094   1.980   7.500  0.5451  0.8055  0.6039
  523MOL0     H72147   6.117   1.827   7.593 -2.0412 -0.0767 -0.8067
  523MOL0     H72148   6.316   2.057   7.605  0.3896 -0.2791 -0.5684
  523MOL0     H72149   6.319   1.895   7.680  0.0366 -0.4990 -2.1260
  523MOL0     H72150   6.117   1.946   7.801  0.7102 -0.6698  1.2878
  523MOL0     H72151   6.128   2.120   7.749 -1.3032 -0.8883  0.3116
  523MOL0     H72152   6.335   1.967   7.929 -0.4462  0.6942  3.2803
  523MOL0     H72153   6.218   2.092   7.972 -1.1669  2.3223 -1.8086
  523MOL0     H72154   6.319   1.684   6.846 -0.7168 -0.5587 -2.1780
  523MOL0     H72155   6.199   1.549   6.694  1.8318  0.2535  0.2475
  523MOL0     H72156   5.875   1.862   6.571 -0.4086  1.8418 -3.6122
  523MOL0     H72157   6.020   2.067   6.572 -0.4673  0.3598 -1.5437
  523MOL0     H72158   6.884   0.780   6.265  2.2790  1.3436  0.0593
  523MOL0     H72159   6.991   0.557   6.195  0.3483  1.9129 -0.7004
  523MOL0     H72160   7.294   0.119   6.535  2.5534  4.2894 -0.9072
  523MOL0     H72161   7.383  -0.100   6.441 -0.1391 -0.8799 -1.2496
  523MOL0     H72162   7.203  -0.320   6.343 -2.9015 -2.3747 -1.5131
  523MOL0     H72163   7.104  -0.244   6.217 -0.6338 -0.7133  1.1693
  523MOL0     H72164   7.143  -0.479   6.198  0.3254  0.2239 -0.1002
  523MOL0     H72165   7.312  -0.450   6.166  1.2605  0.3990  0.3460
  523MOL0     H72166   7.155  -0.502   5.974 -0.9691  0.3173 -0.0828
  523MOL0     H72167   7.083  -0.334   5.987 -2.0950 -1.7007  4.4471
  523MOL0     H72168   7.374  -0.412   5.944 -0.3605 -1.8084  0.6419
  523MOL0     H72169   7.325  -0.243   5.939 -2.5891  1.4518 -3.8270
  523MOL0     H72170   7.174  -0.408   5.573  0.4413  1.1543  1.4038
  523MOL0     H72171   7.184  -0.040   6.069 -2.9402 -1.5162  2.2648
  523MOL0     H72172   6.998   0.259   6.184 -1.3352 -1.4793 -0.9033
  523MOL0     H72173   7.141   0.275   6.062  0.1447 -0.7110 -0.7294
  523MOL0     H72174   7.010   0.151   6.057 -2.0974 -1.4068  3.3303
  524MOL0     O72175   4.432   7.857  10.162  0.3970 -0.4397  0.1563
  524MOL0     C72176   4.373   7.963  10.166  0.6280  0.8958 -0.1023
  524MOL0     O72177   4.341   8.025  10.277 -0.2564 -0.2340 -0.6574
  524MOL0     C72178   4.393   7.972  10.398 -0.3984 -0.1891 -0.1292
  524MOL0     C72179   4.303   7.945  10.507  0.2493  0.8162  0.0460
  524MOL0     C72180   4.345   7.881  10.623 -0.2930 -0.3011  0.7666
  524MOL0     C72181   4.476   7.860  10.647 -0.2877 -0.1741 -0.4365
  524MOL0     O72182   4.509   7.804  10.766 -0.0347  0.0048 -0.7510
  524MOL0     C72183   4.653   7.804  10.794  0.1733  0.7596  0.0340
  524MOL0     C72184   4.683   7.772  10.942  0.0497 -0.3936 -0.0091
  524MOL0     C72185   4.834   7.726  10.969 -0.0555 -0.1257 -0.6357
  524MOL0     C72186   4.921   7.843  10.955  0.5414  0.5831  0.3894
  524MOL0     C72187   5.069   7.819  10.990  0.0880  0.4380 -0.2325
  524MOL0     C72188   5.132   7.714  10.900 -0.2494  0.4341  0.1749
  524MOL0     C72189   5.270   7.681  10.952 -0.1706 -0.1396 -0.0739
  524MOL0     C72190   5.377   7.652  10.843  0.5314  0.4624 -0.4259
  524MOL0     N72191   5.417   7.782  10.781  0.8214 -0.5529  0.8481
  524MOL0     C72192   5.466   7.897  10.845 -0.6110  0.7231 -0.6054
  524MOL0     C72193   5.494   7.990  10.750 -0.3051 -0.3213 -0.5909
  524MOL0     C72194   5.541   8.136  10.752  0.2896  0.7731 -0.6749
  524MOL0     C72195   5.448   8.240  10.817 -0.3765 -0.8265  0.4352
  524MOL0     C72196   5.443   8.229  10.969 -0.3531 -1.0011  0.0404
  524MOL0     C72197   5.555   8.285  11.054 -0.2294  0.9420  0.8371
  524MOL0     O72198   5.530   8.239  11.190 -0.0820  0.2102  0.4256
  524MOL0     C72199   5.494   8.323  11.293  0.3046 -0.1306  0.6317
  524MOL0     C72200   5.422   8.281  11.400  0.0019  0.8200 -0.2360
  524MOL0     C72201   5.387   8.355  11.517  0.9516 -0.8630 -1.0486
  524MOL0     C72202   5.305   8.287  11.623  0.4839 -0.9631 -0.7585
  524MOL0     C72203   5.429   8.490  11.514  0.3804  0.4353  0.2900
  524MOL0     C72204   5.378   8.601  11.603 -0.4381 -0.1313 -0.2536
  524MOL0     O72205   5.451   8.721  11.605 -0.5889 -0.7602  0.2199
  524MOL0     C72206   5.402   8.827  11.684 -0.1867 -0.3861  0.4206
  524MOL0     C72207   5.497   8.894  11.763 -0.0599 -0.5965  0.7021
  524MOL0     C72208   5.454   9.013  11.835 -0.2351 -0.0548  0.0914
  524MOL0     C72209   5.325   9.063  11.826  0.1973 -0.9258  0.1786
  524MOL0     O72210   5.280   9.183  11.883 -0.5288 -0.0401  0.0075
  524MOL0     C72211   5.353   9.294  11.822 -0.3639 -0.1533  0.2106
  524MOL0     C72212   5.318   9.432  11.875  0.1464  0.3159  0.1115
  524MOL0     C72213   5.166   9.455  11.859  0.3580  0.8426  0.5774
  524MOL0     C72214   5.085   9.402  11.979  0.2446 -0.5688  0.1916
  524MOL0     C72215   4.943   9.453  11.947  0.5953  0.2005  0.7930
  524MOL0     C72216   4.837   9.408  12.039 -0.3648 -0.0418  0.1737
  524MOL0     C72217   4.858   9.456  12.188 -0.4732  0.2555 -0.2639
  524MOL0     C72218   4.755   9.393  12.283  0.0698 -0.3223  0.7782
  524MOL0    Cl72219   4.597   9.485  12.258 -0.4672  0.0317  1.0514
  524MOL0     C72220   5.240   8.993  11.743  0.2701 -0.2105 -0.1330
  524MOL0     C72221   5.278   8.882  11.665  0.1386 -0.0495 -0.8224
  524MOL0     O72222   5.279   8.588  11.673 -0.3259 -0.5385  0.0280
  524MOL0     C72223   5.506   8.535  11.405  0.0428  0.2356 -0.1610
  524MOL0     C72224   5.544   8.453  11.310  0.7993  1.0347 -0.5833
  524MOL0     N72225   5.442   7.935  10.632 -0.3215  0.7753 -0.1930
  524MOL0     N72226   5.394   7.815  10.650 -1.2874  0.1650 -0.6012
  524MOL0     C72227   4.561   7.905  10.544 -1.2521  0.2656  0.8397
  524MOL0     C72228   4.528   7.960  10.424  1.2342  0.2010 -0.4840
  524MOL0     C72229   4.330   8.014  10.041  0.1802 -0.6164  0.0574
  524MOL0     C72230   4.396   7.985   9.926  0.0255  0.0121  0.8202
  524MOL0     C72231   4.357   8.039   9.806  1.3252 -1.0157 -0.2044
  524MOL0     C72232   4.246   8.127   9.794  0.1442  0.5914 -0.6034
  524MOL0     O72233   4.209   8.179   9.678 -0.3174 -0.3851  0.2663
  524MOL0     C72234   4.237   8.098   9.561 -0.1890  0.6585 -0.6291
  524MOL0     C72235   4.139   8.152   9.456 -0.1353  0.0881  0.2237
  524MOL0     C72236   3.995   8.119   9.491  0.3021 -0.0892  0.3897
  524MOL0     C72237   3.908   8.213   9.584  0.4200  0.0360  0.6572
  524MOL0     C72238   3.890   8.343   9.524  0.3207 -0.6464  0.6932
  524MOL0     C72239   3.865   8.454   9.479 -0.2465 -0.3058  0.6061
  524MOL0     C72240   4.180   8.149   9.906  0.2499 -0.1492 -0.1040
  524MOL0     C72241   4.221   8.098  10.023  0.5295  0.3264  0.7530
  524MOL0     C72242   4.133   8.153  10.134 -0.0642  0.2689 -0.7352
  524MOL0     H72243   4.199   7.953  10.476  0.4437  1.5742 -0.4557
  524MOL0     H72244   4.266   7.843  10.687 -1.0833 -2.1628 -1.1899
  524MOL0     H72245   4.712   7.889  10.761  0.3254  0.2362 -1.0748
  524MOL0     H72246   4.693   7.722  10.734 -1.0572  0.5500 -0.5349
  524MOL0     H72247   4.667   7.866  10.995 -1.4925  1.9175 -4.0593
  524MOL0     H72248   4.614   7.694  10.976  0.9044 -0.6555  1.1549
  524MOL0     H72249   4.846   7.691  11.072  3.6588 -2.7362 -1.7553
  524MOL0     H72250   4.853   7.644  10.898 -2.5437 -0.4693 -1.0079
  524MOL0     H72251   4.907   7.887  10.856  0.5498 -1.3760 -0.5364
  524MOL0     H72252   4.887   7.919  11.026 -1.7265  0.6821 -0.7098
  524MOL0     H72253   5.075   7.785  11.094  0.6722  1.1562 -0.0271
  524MOL0     H72254   5.126   7.912  10.986 -0.6609  0.8573 -2.5505
  524MOL0     H72255   5.070   7.624  10.893  0.3439 -0.1504  1.8702
  524MOL0     H72256   5.148   7.747  10.797 -2.1217 -1.1522 -0.6946
  524MOL0     H72257   5.261   7.593  11.017  0.4275 -0.0161  0.1839
  524MOL0     H72258   5.298   7.763  11.019  1.2134  0.5293 -1.4293
  524MOL0     H72259   5.463   7.606  10.893  1.1058  1.7478 -0.1969
  524MOL0     H72260   5.338   7.577  10.774  0.2856 -2.8471  2.9569
  524MOL0     H72261   5.489   7.896  10.951 -0.4373 -5.0846 -0.3584
  524MOL0     H72262   5.549   8.156  10.644 -0.6554 -0.4854 -0.9938
  524MOL0     H72263   5.641   8.136  10.796 -0.9311  3.2117  2.4820
  524MOL0     H72264   5.486   8.340  10.795  0.4711 -1.3050 -0.3402
  524MOL0     H72265   5.352   8.222  10.769 -0.7177  1.2596  0.2699
  524MOL0     H72266   5.347   8.274  10.995 -0.8463 -0.5840 -2.3489
  524MOL0     H72267   5.439   8.120  10.983  4.3319 -1.7447 -2.2831
  524MOL0     H72268   5.644   8.232  11.022  0.6563  0.8015  3.2969
  524MOL0     H72269   5.565   8.394  11.049  0.9481  0.9395  2.3700
  524MOL0     H72270   5.379   8.185  11.373  1.3381  0.4268 -1.1273
  524MOL0     H72271   5.201   8.285  11.588 -1.0938 -0.8889  3.3030
  524MOL0     H72272   5.314   8.342  11.717  2.9286 -0.5279 -1.1745
  524MOL0     H72273   5.338   8.185  11.645  1.7174 -0.4152  0.0214
  524MOL0     H72274   5.603   8.870  11.760  0.2860  0.8405 -2.0248
  524MOL0     H72275   5.542   9.062  11.876  0.0304 -0.5105  0.0883
  524MOL0     H72276   5.461   9.291  11.840 -0.0130  0.6752 -1.5269
  524MOL0     H72277   5.349   9.299  11.713 -2.9433  0.9801  0.2979
  524MOL0     H72278   5.336   9.443  11.983 -0.0400  0.0927  0.1659
  524MOL0     H72279   5.377   9.507  11.822  3.3425 -1.5882  0.6934
  524MOL0     H72280   5.121   9.421  11.766  0.0087  1.2367  0.5993
  524MOL0     H72281   5.152   9.562  11.842  1.7303  0.6929 -1.8799
  524MOL0     H72282   5.132   9.441  12.070  0.9941 -0.2567 -0.3132
  524MOL0     H72283   5.091   9.293  11.982 -0.4607 -0.5921  1.2625
  524MOL0     H72284   4.948   9.562  11.941  2.7764  0.2742  2.5011
  524MOL0     H72285   4.919   9.412  11.849 -1.8876 -1.1123  1.8415
  524MOL0     H72286   4.850   9.300  12.034  1.2619  0.1846 -1.3097
  524MOL0     H72287   4.744   9.456  12.006 -0.2039 -0.0438 -0.2911
  524MOL0     H72288   4.866   9.565  12.195  1.6590  0.1407 -0.0978
  524MOL0     H72289   4.950   9.423  12.237 -0.5173 -0.2470 -0.5089
  524MOL0     H72290   4.783   9.399  12.388 -1.4131 -0.1521  1.1954
  524MOL0     H72291   4.739   9.286  12.268  0.3546 -0.4737  1.5208
  524MOL0     H72292   5.135   9.017  11.735  0.0169 -1.5050 -1.0163
  524MOL0     H72293   5.219   8.817  11.601  0.2445 -2.4006  1.3163
  524MOL0     H72294   5.548   8.635  11.398  1.0421 -0.2513 -1.6769
  524MOL0     H72295   5.616   8.481  11.234  0.4427 -1.5281 -1.9605
  524MOL0     H72296   4.667   7.887  10.561 -1.6807 -2.9017  0.7596
  524MOL0     H72297   4.603   7.980  10.348  2.0510 -0.1741  0.1923
  524MOL0     H72298   4.481   7.917   9.933 -0.2306 -0.1481  3.0759
  524MOL0     H72299   4.417   7.991   9.730  2.7965  0.7594 -0.2173
  524MOL0     H72300   4.341   8.100   9.528 -0.6593  1.3116 -2.1826
  524MOL0     H72301   4.211   7.992   9.567 -3.0587  1.1799 -2.0624
  524MOL0     H72302   4.168   8.109   9.360  1.0979  0.7763  0.2692
  524MOL0     H72303   4.141   8.261   9.450 -1.8457  0.1591  0.4944
  524MOL0     H72304   3.941   8.114   9.396  1.8812 -1.7295 -0.4897
  524MOL0     H72305   3.983   8.017   9.529 -2.1082 -0.1595 -0.3830
  524MOL0     H72306   3.969   8.225   9.674  1.3762  1.3261 -0.1210
  524MOL0     H72307   3.803   8.189   9.604 -0.1825  2.0837  0.1634
  524MOL0     H72308   3.852   8.547   9.428  0.9703 -1.5199 -2.1317
  524MOL0     H72309   4.085   8.200   9.899 -0.7596 -1.9953 -0.6774
  524MOL0     H72310   4.199   8.216  10.194  0.5795 -2.2769  1.4438
  524MOL0     H72311   4.050   8.218  10.103  0.9976  2.3286  0.5301
  524MOL0     H72312   4.095   8.072  10.198  0.2399  0.0636 -0.8138
  525MOL0     O72313   7.083   7.290   2.106  0.3227  0.1357 -0.0701
  525MOL0     C72314   7.153   7.318   2.009 -0.2927 -0.3802  0.3589
  525MOL0     O72315   7.257   7.409   2.007  0.3086 -0.3323  0.0777
  525MOL0     C72316   7.308   7.478   2.117 -0.8492  0.7780  0.1016
  525MOL0     C72317   7.284   7.437   2.252 -0.3766 -0.3823  0.3404
  525MOL0     C72318   7.347   7.499   2.363 -0.1592 -0.2757  0.1349
  525MOL0     C72319   7.435   7.606   2.338  1.0506 -0.2431 -0.1824
  525MOL0     O72320   7.505   7.680   2.429 -0.6484  0.3309 -0.0068
  525MOL0     C72321   7.537   7.620   2.552  0.2913 -0.4006  0.7777
  525MOL0     C72322   7.429   7.648   2.656 -0.1288  0.4428  0.4023
  525MOL0     C72323   7.411   7.801   2.659  0.4939  0.2086 -0.2481
  525MOL0     C72324   7.357   7.849   2.797  0.5326 -0.3397 -0.0622
  525MOL0     C72325   7.367   8.005   2.807 -1.0373 -0.6922  0.3163
  525MOL0     C72326   7.323   8.066   2.676  0.1447 -0.3270 -0.6652
  525MOL0     C72327   7.288   8.210   2.689  0.1413  0.0918 -1.5388
  525MOL0     C72328   7.322   8.275   2.554 -0.3786  0.1677 -0.3743
  525MOL0     N72329   7.288   8.417   2.557 -0.0959 -0.0882 -0.4865
  525MOL0     C72330   7.175   8.475   2.614 -0.7427  0.0749 -0.7772
  525MOL0     C72331   7.168   8.603   2.573  0.2767  0.2802 -0.4075
  525MOL0     C72332   7.068   8.702   2.598  0.4966 -0.0889  0.1411
  525MOL0     C72333   7.068   8.761   2.741 -0.4841 -0.2193 -0.4389
  525MOL0     C72334   7.193   8.842   2.759  0.1047  0.2757  0.3738
  525MOL0     C72335   7.213   8.954   2.654  0.4622  0.7855  0.4273
  525MOL0     O72336   7.288   9.066   2.697  0.2730 -0.2475  0.0815
  525MOL0     C72337   7.417   9.044   2.732  0.0646  0.0936  0.1931
  525MOL0     C72338   7.492   8.937   2.684  0.0148 -0.6016 -0.0001
  525MOL0     C72339   7.629   8.933   2.723  0.5897  0.3800 -0.4843
  525MOL0     C72340   7.706   8.812   2.691 -0.0407  0.5466  0.4607
  525MOL0     C72341   7.691   9.043   2.803 -0.0807  0.2360 -0.0379
  525MOL0     C72342   7.828   9.052   2.823 -0.5848 -0.6208  1.0596
  525MOL0     O72343   7.875   9.122   2.930 -0.6506 -0.2187  0.0057
  525MOL0     C72344   7.999   9.105   2.976  0.2753 -0.6461 -1.1654
  525MOL0     C72345   8.024   9.114   3.116 -0.0684 -0.0595  0.2500
  525MOL0     C72346   8.154   9.099   3.165 -0.5516  0.1036  0.5527
  525MOL0     C72347   8.263   9.089   3.074 -0.2075 -0.1562 -0.1834
  525MOL0     O72348   8.390   9.070   3.119 -0.6422 -0.1715 -0.2565
  525MOL0     C72349   8.507   9.077   3.040  0.8430  0.5685 -0.2094
  525MOL0     C72350   8.551   8.932   3.002 -0.2386  0.5710 -0.7295
  525MOL0     C72351   8.608   8.858   3.127 -0.3082 -0.1896 -0.5769
  525MOL0     C72352   8.645   8.717   3.080  0.3117 -0.3871 -0.2548
  525MOL0     C72353   8.688   8.635   3.198  0.5612  1.1381 -0.6473
  525MOL0     C72354   8.800   8.696   3.283 -0.5392 -0.0005  0.4557
  525MOL0     C72355   8.846   8.602   3.389  0.1291  0.0643  0.7565
  525MOL0     C72356   8.967   8.656   3.457  0.6854 -0.0081  1.0129
  525MOL0    Cl72357   8.942   8.799   3.530 -0.2468  0.1509 -0.3828
  525MOL0     C72358   8.242   9.092   2.934 -0.1334 -0.8795 -0.1140
  525MOL0     C72359   8.107   9.112   2.894 -0.5316  0.1349  0.2587
  525MOL0     O72360   7.900   8.996   2.737 -0.2837 -0.6816 -0.1524
  525MOL0     C72361   7.603   9.146   2.847  0.2178  0.4969  0.1933
  525MOL0     C72362   7.465   9.143   2.813 -0.5011  1.0525  0.3837
  525MOL0     N72363   7.265   8.610   2.472  0.1037  0.1503 -1.1394
  525MOL0     N72364   7.344   8.509   2.480  0.0324 -0.2396 -0.2961
  525MOL0     C72365   7.458   7.648   2.206  0.4493  0.2571 -0.4555
  525MOL0     C72366   7.401   7.582   2.093  0.9236  1.1007 -0.2934
  525MOL0     C72367   7.104   7.268   1.880 -0.5005  0.8791 -0.7269
  525MOL0     C72368   7.215   7.248   1.791 -1.3391 -0.2000  0.0876
  525MOL0     C72369   7.185   7.188   1.665  0.3194 -0.2439 -0.5332
  525MOL0     C72370   7.058   7.143   1.636 -0.3884  0.6625  1.2372
  525MOL0     O72371   7.041   7.080   1.511  0.6083  0.2441 -0.8575
  525MOL0     C72372   6.903   7.044   1.475 -0.2497 -0.4330 -0.6750
  525MOL0     C72373   6.887   6.950   1.358 -0.5792  0.1972 -0.2546
  525MOL0     C72374   6.744   6.902   1.338  0.3015 -1.3119 -0.1826
  525MOL0     C72375   6.644   7.026   1.340 -0.0054 -0.1369  1.4373
  525MOL0     C72376   6.508   6.966   1.347  0.0026  0.7554  0.1701
  525MOL0     C72377   6.398   6.911   1.349 -0.0865  0.1426 -0.8537
  525MOL0     C72378   6.957   7.160   1.729 -0.6735  0.7706  1.2543
  525MOL0     C72379   6.972   7.231   1.850 -0.0091 -0.4681  0.0689
  525MOL0     C72380   6.845   7.236   1.947 -0.1907  0.3801 -0.9820
  525MOL0     H72381   7.216   7.355   2.274  0.1034 -0.8270  0.1737
  525MOL0     H72382   7.338   7.466   2.466  0.6521 -0.6974  0.0730
  525MOL0     H72383   7.628   7.676   2.574 -1.4360  3.2256 -0.4355
  525MOL0     H72384   7.553   7.512   2.547 -2.8898 -0.9502 -0.2498
  525MOL0     H72385   7.335   7.592   2.646  0.1881  0.2416 -2.2093
  525MOL0     H72386   7.471   7.615   2.751  2.4721 -0.3428 -0.9255
  525MOL0     H72387   7.504   7.852   2.630  0.0927  0.9331 -0.2926
  525MOL0     H72388   7.340   7.825   2.580  2.4406 -0.0275 -2.1432
  525MOL0     H72389   7.253   7.817   2.802 -0.0872  1.6379  0.6426
  525MOL0     H72390   7.402   7.799   2.883 -0.5478  1.5949  1.7006
  525MOL0     H72391   7.470   8.036   2.825  0.1733 -4.2981  0.3791
  525MOL0     H72392   7.306   8.028   2.895 -1.3337 -0.7507  0.1304
  525MOL0     H72393   7.405   8.058   2.604  2.9098  0.5808  2.1185
  525MOL0     H72394   7.236   8.018   2.630  2.2157 -1.5786 -3.5743
  525MOL0     H72395   7.357   8.250   2.763 -2.5641  0.5260  0.9221
  525MOL0     H72396   7.186   8.233   2.722 -0.7865  0.0085 -4.0791
  525MOL0     H72397   7.429   8.264   2.536 -0.5058 -1.5922 -0.1836
  525MOL0     H72398   7.270   8.226   2.472 -2.2207  1.5713 -0.1176
  525MOL0     H72399   7.105   8.422   2.678 -0.2465 -1.3776 -1.3834
  525MOL0     H72400   6.965   8.666   2.582 -0.0270  1.4928 -0.2897
  525MOL0     H72401   7.093   8.774   2.520 -0.3317  1.3637  1.1469
  525MOL0     H72402   6.978   8.821   2.759 -1.4474 -2.0668  1.4297
  525MOL0     H72403   7.057   8.673   2.805  0.1717 -1.2828 -1.7482
  525MOL0     H72404   7.181   8.885   2.859 -0.4198  0.2162  0.3405
  525MOL0     H72405   7.278   8.773   2.765 -1.4863 -1.9745 -1.3448
  525MOL0     H72406   7.261   8.913   2.564  1.0508 -0.2267  1.1716
  525MOL0     H72407   7.114   8.983   2.620 -0.9867 -3.2330  0.6685
  525MOL0     H72408   7.459   8.868   2.607  0.8409 -0.1048 -0.8235
  525MOL0     H72409   7.634   8.730   2.682 -0.0664  0.7899 -2.3575
  525MOL0     H72410   7.780   8.782   2.767  0.9626  2.9410  0.4960
  525MOL0     H72411   7.750   8.827   2.592  0.9133 -1.1529  0.5785
  525MOL0     H72412   7.938   9.128   3.181 -0.5717 -0.0323 -0.3980
  525MOL0     H72413   8.179   9.096   3.271 -1.6598 -0.6329  0.8155
  525MOL0     H72414   8.491   9.133   2.948  0.8669  0.2658 -0.3999
  525MOL0     H72415   8.591   9.113   3.101  2.0362 -1.7633 -0.3564
  525MOL0     H72416   8.476   8.876   2.944 -1.0140  1.4118 -0.5616
  525MOL0     H72417   8.637   8.937   2.935  0.7890  0.1307  0.5160
  525MOL0     H72418   8.547   8.852   3.218  0.8477 -0.3526  0.2132
  525MOL0     H72419   8.705   8.906   3.144  0.3578 -0.2734 -3.6179
  525MOL0     H72420   8.712   8.712   2.994  3.1964 -0.3387  1.8362
  525MOL0     H72421   8.550   8.677   3.046  1.6303 -2.1964 -2.0324
  525MOL0     H72422   8.607   8.610   3.267  2.1561 -1.9231  0.3152
  525MOL0     H72423   8.732   8.542   3.160  1.4133  1.8146 -1.3601
  525MOL0     H72424   8.765   8.788   3.330  1.3571  1.3745 -0.6716
  525MOL0     H72425   8.892   8.722   3.228 -1.6346  3.9089  0.1969
  525MOL0     H72426   8.864   8.500   3.354 -2.2871 -1.3839  3.2849
  525MOL0     H72427   8.768   8.597   3.466  0.6734  0.7228  1.3596
  525MOL0     H72428   9.039   8.672   3.376  1.2793 -1.5302  1.2089
  525MOL0     H72429   9.002   8.585   3.532 -0.9759 -1.8551  0.1242
  525MOL0     H72430   8.325   9.080   2.865 -1.5721 -1.3940 -1.8204
  525MOL0     H72431   8.096   9.136   2.789  2.2189  0.3883 -0.0580
  525MOL0     H72432   7.644   9.226   2.908  0.7457  0.0882  0.3858
  525MOL0     H72433   7.406   9.232   2.835 -1.3488  1.2286 -2.2769
  525MOL0     H72434   7.539   7.719   2.194  3.7079 -3.1750 -0.8765
  525MOL0     H72435   7.437   7.604   1.993  1.6084 -1.6420 -0.7388
  525MOL0     H72436   7.320   7.271   1.808 -1.2082 -1.6742  1.5988
  525MOL0     H72437   7.255   7.170   1.584  0.8110 -0.2972 -0.0994
  525MOL0     H72438   6.852   7.000   1.561  0.6877 -0.5397 -0.1600
  525MOL0     H72439   6.854   7.137   1.446 -0.6108 -0.6407 -0.7416
  525MOL0     H72440   6.952   6.866   1.383 -1.1185  0.5211  2.5723
  525MOL0     H72441   6.937   6.979   1.266  2.5309 -1.1997  0.8455
  525MOL0     H72442   6.748   6.863   1.236  0.5434  0.2862 -0.8209
  525MOL0     H72443   6.723   6.825   1.413  2.6409 -2.2820 -0.4554
  525MOL0     H72444   6.658   7.096   1.257 -4.3892  1.3641  1.6864
  525MOL0     H72445   6.648   7.095   1.425  2.1545  0.8714  0.5792
  525MOL0     H72446   6.297   6.875   1.347  0.2142 -1.1746  2.2804
  525MOL0     H72447   6.856   7.125   1.711 -1.1163  1.2071  2.7624
  525MOL0     H72448   6.748   7.251   1.901 -0.4726  0.2459 -0.4414
  525MOL0     H72449   6.842   7.138   1.996  0.3520  1.4684  1.3894
  525MOL0     H72450   6.857   7.310   2.027 -3.0253 -2.3724  2.3008
  526MOL0     O72451   2.447   4.103   3.043 -0.1318  0.0556  0.1820
  526MOL0     C72452   2.372   4.010   3.026  0.5144 -0.2508  0.3789
  526MOL0     O72453   2.378   3.903   3.106  0.2770 -0.6607 -0.1733
  526MOL0     C72454   2.440   3.902   3.232  0.2861  0.6835 -0.1602
  526MOL0     C72455   2.578   3.920   3.254 -0.3303  0.7322 -1.0357
  526MOL0     C72456   2.624   3.896   3.390 -0.7589  0.4801  0.4577
  526MOL0     C72457   2.530   3.855   3.493 -0.7554 -0.4991 -0.0427
  526MOL0     O72458   2.567   3.825   3.623  0.6784  0.0555  0.1639
  526MOL0     C72459   2.704   3.834   3.664 -0.0166  0.0923  0.4186
  526MOL0     C72460   2.730   3.778   3.803  0.0644 -0.2105  0.6658
  526MOL0     C72461   2.680   3.628   3.811 -0.0801 -0.5016  0.7291
  526MOL0     C72462   2.721   3.564   3.944 -0.4249 -0.0161  0.0189
  526MOL0     C72463   2.644   3.432   3.970 -0.0770  0.3039  0.6300
  526MOL0     C72464   2.703   3.363   4.091  0.9469  0.3031 -0.3356
  526MOL0     C72465   2.615   3.254   4.159 -0.3761 -0.2662  0.1415
  526MOL0     C72466   2.585   3.136   4.069 -1.0177  0.6652  0.9093
  526MOL0     N72467   2.712   3.072   4.022  0.0160 -1.0116  0.4154
  526MOL0     C72468   2.805   3.001   4.092 -0.5936  1.0634  0.2554
  526MOL0     C72469   2.891   2.960   3.997  0.3807 -1.1107 -1.1729
  526MOL0     C72470   3.023   2.893   4.028  0.4853 -0.9044  0.4770
  526MOL0     C72471   3.134   2.992   4.005 -0.8523 -0.8782  0.3185
  526MOL0     C72472   3.279   2.934   4.000  0.3742 -0.6233 -0.5907
  526MOL0     C72473   3.392   3.020   3.940  0.3057  0.2624  0.0538
  526MOL0     O72474   3.521   2.954   3.968  0.0281  0.3187 -0.1411
  526MOL0     C72475   3.616   2.957   3.867  0.3373 -0.5266 -0.2797
  526MOL0     C72476   3.650   3.078   3.801 -0.7298  0.1159 -0.8823
  526MOL0     C72477   3.749   3.080   3.705 -1.2424 -0.3071 -0.1967
  526MOL0     C72478   3.799   3.208   3.644  0.1582 -0.3677 -0.6354
  526MOL0     C72479   3.820   2.955   3.674 -0.6707 -0.5193 -0.0914
  526MOL0     C72480   3.932   2.942   3.576 -0.5007  0.0065 -0.3616
  526MOL0     O72481   4.014   3.047   3.553  0.2623  0.1834 -0.2208
  526MOL0     C72482   4.128   3.033   3.483 -0.8031  0.9883  0.4539
  526MOL0     C72483   4.251   3.054   3.547  0.7345  1.0933  0.6422
  526MOL0     C72484   4.373   3.040   3.487 -0.1759 -1.0150 -0.0043
  526MOL0     C72485   4.367   3.006   3.358 -0.4888  0.1162  0.0655
  526MOL0     O72486   4.489   2.986   3.286  0.0084 -0.3660  0.0371
  526MOL0     C72487   4.599   3.077   3.311 -0.0268  0.4990  0.6196
  526MOL0     C72488   4.696   3.086   3.192  0.3865  0.3167  0.0428
  526MOL0     C72489   4.728   2.958   3.127  0.9353 -0.3231  0.3034
  526MOL0     C72490   4.841   2.960   3.026  0.3163 -0.4642 -0.8632
  526MOL0     C72491   4.844   2.819   2.948  0.3131 -0.9249 -0.5712
  526MOL0     C72492   4.863   2.712   3.068 -0.0203 -0.4633  0.5219
  526MOL0     C72493   4.928   2.582   3.021  0.4142 -0.2454 -1.5724
  526MOL0     C72494   4.924   2.454   3.110  0.9305  0.1026 -0.1395
  526MOL0    Cl72495   4.755   2.399   3.135 -0.3878  0.4086 -0.0867
  526MOL0     C72496   4.249   3.008   3.280 -0.1711  0.4651 -0.2636
  526MOL0     C72497   4.129   3.010   3.346 -0.7877 -0.0226  0.1494
  526MOL0     O72498   3.947   2.825   3.530 -0.2804 -0.8945 -0.4999
  526MOL0     C72499   3.784   2.838   3.740 -0.5148 -0.3244 -0.4377
  526MOL0     C72500   3.685   2.847   3.833  0.1844 -0.1965  0.3851
  526MOL0     N72501   2.861   3.023   3.881  0.3911  0.0150  0.5335
  526MOL0     N72502   2.747   3.086   3.892 -0.5871 -0.1251 -0.5117
  526MOL0     C72503   2.399   3.841   3.465 -0.0854 -1.2440  0.5411
  526MOL0     C72504   2.356   3.858   3.337 -0.5419 -0.3644 -0.0999
  526MOL0     C72505   2.285   4.002   2.904  0.4608  0.1330  0.0397
  526MOL0     C72506   2.192   3.887   2.906 -0.5453 -0.7595 -0.7443
  526MOL0     C72507   2.093   3.877   2.804  0.1177 -0.2726 -0.0641
  526MOL0     C72508   2.087   3.967   2.699  0.6264  0.2832 -0.2342
  526MOL0     O72509   1.997   3.964   2.593 -0.3073  0.6357  0.1605
  526MOL0     C72510   1.917   3.844   2.571  0.0665  0.1374 -0.2129
  526MOL0     C72511   1.819   3.854   2.455 -0.3483  0.8471 -0.2055
  526MOL0     C72512   1.908   3.884   2.333  0.2790 -0.2458  0.0648
  526MOL0     C72513   2.011   3.789   2.287  0.1752  0.7150 -0.1221
  526MOL0     C72514   1.946   3.666   2.235 -0.1467 -0.5051  0.1218
  526MOL0     C72515   1.905   3.556   2.199  0.0290 -0.9581 -0.5064
  526MOL0     C72516   2.184   4.071   2.708 -0.2929 -0.1294  0.0868
  526MOL0     C72517   2.284   4.096   2.795  0.3136 -0.4265 -0.5273
  526MOL0     C72518   2.392   4.199   2.773  0.8977 -0.4466 -0.2691
  526MOL0     H72519   2.649   3.957   3.181 -0.0401  2.9615  0.3055
  526MOL0     H72520   2.730   3.885   3.414  0.0865  0.3325 -2.8789
  526MOL0     H72521   2.723   3.942   3.658 -1.9670  0.6063  2.2171
  526MOL0     H72522   2.772   3.785   3.594  0.2624  0.2896  0.5490
  526MOL0     H72523   2.836   3.785   3.829  0.2351  3.5318 -0.3605
  526MOL0     H72524   2.676   3.839   3.875  0.7671  1.3667 -0.0865
  526MOL0     H72525   2.571   3.626   3.807 -0.0395 -1.5831 -1.3414
  526MOL0     H72526   2.717   3.567   3.728 -0.4046  0.2127  0.0441
  526MOL0     H72527   2.825   3.533   3.928 -1.1941 -2.6256 -0.4220
  526MOL0     H72528   2.713   3.635   4.027  0.4137 -0.2447  0.3104
  526MOL0     H72529   2.650   3.362   3.887 -0.8367 -1.1658  1.7606
  526MOL0     H72530   2.540   3.460   3.986  0.9446  3.1914  3.2816
  526MOL0     H72531   2.797   3.316   4.063  0.2768 -0.6144 -1.1355
  526MOL0     H72532   2.733   3.437   4.165  0.5769  1.4170 -1.2670
  526MOL0     H72533   2.518   3.302   4.173  1.0162  1.8971  3.6831
  526MOL0     H72534   2.658   3.220   4.254 -0.7154 -0.3489  0.2650
  526MOL0     H72535   2.526   3.063   4.124  1.6709 -0.3278  2.6851
  526MOL0     H72536   2.537   3.178   3.981 -2.8001  0.0666  1.5536
  526MOL0     H72537   2.814   2.971   4.196 -0.0765 -1.9957 -0.5748
  526MOL0     H72538   3.045   2.811   3.960  0.9353  1.8839 -3.0565
  526MOL0     H72539   3.037   2.867   4.133 -1.0548 -0.9803  0.6913
  526MOL0     H72540   3.103   3.023   3.904 -3.9440 -1.3201  1.0204
  526MOL0     H72541   3.139   3.070   4.082 -2.4141  0.6140 -1.0005
  526MOL0     H72542   3.317   2.913   4.101  2.4742  3.0136 -0.4513
  526MOL0     H72543   3.267   2.833   3.960 -1.1762 -0.4405 -0.6553
  526MOL0     H72544   3.370   3.025   3.833  0.3547 -0.0143  0.0318
  526MOL0     H72545   3.380   3.118   3.988  0.2119  0.6817 -0.7989
  526MOL0     H72546   3.602   3.169   3.836 -3.3491 -2.0468  1.6343
  526MOL0     H72547   3.795   3.209   3.534  0.2148  0.8735 -0.6328
  526MOL0     H72548   3.899   3.240   3.673 -0.3149  0.9789 -0.4517
  526MOL0     H72549   3.735   3.289   3.679  0.8148  0.2465 -0.8409
  526MOL0     H72550   4.243   3.066   3.655  0.1868  1.3706  0.5786
  526MOL0     H72551   4.466   3.040   3.543 -0.4755 -0.1244  0.4971
  526MOL0     H72552   4.559   3.176   3.332  0.0954  0.4002  1.3219
  526MOL0     H72553   4.654   3.041   3.398 -1.3059 -2.9705  0.1844
  526MOL0     H72554   4.647   3.160   3.128 -0.7754  0.0878  0.6401
  526MOL0     H72555   4.786   3.139   3.225  0.0834  2.7130 -2.5269
  526MOL0     H72556   4.636   2.914   3.087 -0.4067  1.5897  1.1018
  526MOL0     H72557   4.757   2.891   3.209 -2.4352  0.4684  2.3443
  526MOL0     H72558   4.939   2.972   3.073 -0.8141 -0.7407  1.7499
  526MOL0     H72559   4.814   3.046   2.965 -3.9287 -0.1247  1.1212
  526MOL0     H72560   4.746   2.794   2.905 -2.2202  3.8225  1.6647
  526MOL0     H72561   4.925   2.823   2.874  0.6805  1.1479 -0.1157
  526MOL0     H72562   4.762   2.695   3.106 -0.3795 -1.4899 -0.8037
  526MOL0     H72563   4.922   2.746   3.153 -0.8870  1.5004  0.3726
  526MOL0     H72564   5.031   2.600   2.990  0.3094 -0.4787 -2.0754
  526MOL0     H72565   4.865   2.556   2.936 -0.4743 -0.8103 -0.7708
  526MOL0     H72566   4.965   2.491   3.205  1.1934  1.1445 -0.6348
  526MOL0     H72567   4.986   2.382   3.056 -0.9482 -1.4027 -0.3829
  526MOL0     H72568   4.271   2.996   3.175  2.3707  2.0647 -0.0261
  526MOL0     H72569   4.038   2.997   3.288 -2.5942 -2.9007  3.2678
  526MOL0     H72570   3.824   2.742   3.708  4.6637  1.5226 -0.5473
  526MOL0     H72571   3.654   2.754   3.880 -1.3114  0.4440  0.7235
  526MOL0     H72572   2.333   3.809   3.545  0.9002  0.6628  2.2279
  526MOL0     H72573   2.268   3.820   3.287  1.5475 -1.3150 -3.3921
  526MOL0     H72574   2.200   3.808   2.981 -0.2664  0.8982  1.0752
  526MOL0     H72575   2.036   3.785   2.791 -0.6832  0.1584  0.3371
  526MOL0     H72576   1.981   3.756   2.556 -1.5395 -1.0443 -0.4370
  526MOL0     H72577   1.857   3.813   2.657 -1.4472  3.4129  0.0460
  526MOL0     H72578   1.746   3.934   2.467  0.8777  2.4307 -2.5607
  526MOL0     H72579   1.768   3.758   2.446 -1.4650  1.4905 -0.9894
  526MOL0     H72580   1.845   3.899   2.245 -2.1952  0.8028  1.9049
  526MOL0     H72581   1.956   3.979   2.360  1.3279 -0.7785  0.1407
  526MOL0     H72582   2.082   3.757   2.364  2.0395  0.3564 -1.8851
  526MOL0     H72583   2.074   3.837   2.211 -1.0069 -0.3299 -1.8248
  526MOL0     H72584   1.883   3.458   2.161  2.7939 -0.4928 -3.7316
  526MOL0     H72585   2.199   4.137   2.622  5.5239 -1.9353 -0.7209
  526MOL0     H72586   2.370   4.262   2.686  3.3618  0.9173  0.0058
  526MOL0     H72587   2.391   4.277   2.851  0.8782 -0.3749 -0.3407
  526MOL0     H72588   2.487   4.149   2.759  1.7939  2.0409 -5.3655
  527MOL0     O72589  10.523  11.347  10.992  0.9889  0.4662  0.4823
  527MOL0     C72590  10.490  11.303  11.102 -0.3558  0.0792  0.3094
  527MOL0     O72591  10.571  11.295  11.210  0.0285  0.1576 -0.0825
  527MOL0     C72592  10.703  11.310  11.207 -0.1921 -0.3074  0.5798
  527MOL0     C72593  10.783  11.284  11.101 -0.5037 -0.1231 -0.3611
  527MOL0     C72594  10.927  11.293  11.123 -0.1151 -0.6737  0.5021
  527MOL0     C72595  10.982  11.343  11.243  0.6899  0.5131 -0.0322
  527MOL0     O72596  11.117  11.356  11.266 -0.1116  0.2072  0.2280
  527MOL0     C72597  11.199  11.401  11.155  0.0270  0.2550  0.0812
  527MOL0     C72598  11.311  11.507  11.203  0.7364 -0.2618  0.4345
  527MOL0     C72599  11.259  11.630  11.274  1.1943  0.0410  0.0093
  527MOL0     C72600  11.372  11.724  11.321  0.0375  0.8452 -0.6875
  527MOL0     C72601  11.333  11.859  11.372  0.3753  0.1379  0.3991
  527MOL0     C72602  11.247  11.857  11.495  0.2221 -0.1816 -0.0619
  527MOL0     C72603  11.200  12.000  11.546  0.6618 -0.0292 -0.3934
  527MOL0     C72604  11.113  11.965  11.666 -0.1394 -0.5178 -0.6560
  527MOL0     N72605  11.051  12.078  11.728  0.3161 -0.1048 -0.6162
  527MOL0     C72606  10.922  12.084  11.765  0.4474 -0.3725  0.5881
  527MOL0     C72607  10.896  12.210  11.820 -0.6770 -0.3028  0.4282
  527MOL0     C72608  10.768  12.253  11.881  1.2026 -0.5464 -0.8970
  527MOL0     C72609  10.682  12.129  11.923  0.1648  0.4621  0.2965
  527MOL0     C72610  10.552  12.172  11.997 -0.3790  0.3690 -0.4949
  527MOL0     C72611  10.453  12.066  12.040 -0.4249  0.0673 -0.0728
  527MOL0     O72612  10.524  11.983  12.132 -0.0167 -0.1006 -0.2521
  527MOL0     C72613  10.478  11.852  12.141  0.5676 -0.1267 -0.6746
  527MOL0     C72614  10.575  11.741  12.159  1.0727  0.5139  0.1487
  527MOL0     C72615  10.528  11.607  12.160 -0.5076 -0.0897 -0.2266
  527MOL0     C72616  10.638  11.504  12.185 -0.4450  0.5554  0.7569
  527MOL0     C72617  10.388  11.579  12.153 -0.0488  0.1031  0.8190
  527MOL0     C72618  10.342  11.442  12.165 -0.1894  0.2400 -0.3715
  527MOL0     O72619  10.251  11.392  12.072 -0.6288 -0.3362  0.3155
  527MOL0     C72620  10.242  11.247  12.051  0.4829 -0.9730 -0.6728
  527MOL0     C72621  10.120  11.180  12.000  0.3172  0.0078 -0.2279
  527MOL0     C72622  10.123  11.043  11.995  0.2797  0.8171 -0.3933
  527MOL0     C72623  10.238  10.963  12.021  0.6503 -0.7942 -0.3423
  527MOL0     O72624  10.229  10.827  12.022  0.3527 -0.4009 -0.7102
  527MOL0     C72625  10.256  10.787  11.891  0.2768  1.1485  0.1478
  527MOL0     C72626  10.290  10.638  11.895  0.9252 -0.5070 -0.2324
  527MOL0     C72627  10.173  10.552  11.913  0.1251  0.1824 -0.0328
  527MOL0     C72628  10.201  10.415  11.862 -0.4449  0.2231 -0.5802
  527MOL0     C72629  10.184  10.420  11.713 -0.0418 -0.0591 -0.2643
  527MOL0     C72630  10.035  10.412  11.676  0.1855 -0.5220  0.0145
  527MOL0     C72631   9.949  10.306  11.750 -0.4866 -0.7836 -0.5708
  527MOL0     C72632   9.812  10.269  11.701  0.0256 -0.3079  0.3361
  527MOL0    Cl72633   9.722  10.392  11.610  0.0709  0.2847  0.2574
  527MOL0     C72634  10.352  11.025  12.066  0.2735  0.9655 -0.7785
  527MOL0     C72635  10.352  11.163  12.083 -0.7330  0.9785  0.2164
  527MOL0     O72636  10.379  11.378  12.261 -0.0584 -0.6087  0.8648
  527MOL0     C72637  10.296  11.685  12.138 -0.0770 -0.0236  0.5330
  527MOL0     C72638  10.343  11.820  12.141  1.0522 -0.1846  1.2572
  527MOL0     N72639  11.015  12.283  11.826  0.0114  0.1671 -0.1440
  527MOL0     N72640  11.104  12.198  11.781  0.1699  0.5256  0.2404
  527MOL0     C72641  10.894  11.382  11.337  0.3861  0.0487 -0.1578
  527MOL0     C72642  10.758  11.360  11.319  0.0122  0.3963  0.0341
  527MOL0     C72643  10.354  11.259  11.121  0.1913 -0.5808  0.0145
  527MOL0     C72644  10.250  11.342  11.056  0.1267  0.9894 -0.1362
  527MOL0     C72645  10.112  11.307  11.082 -0.3474 -0.3124 -0.0221
  527MOL0     C72646  10.082  11.194  11.163  0.8932  0.9927  0.3357
  527MOL0     O72647   9.944  11.173  11.178  0.5970 -0.1231  0.7802
  527MOL0     C72648   9.889  11.042  11.202 -1.3577 -0.5140  0.5870
  527MOL0     C72649   9.913  10.945  11.077 -0.4971  0.7282 -0.6022
  527MOL0     C72650   9.862  11.002  10.941  0.0277  0.0803  0.8917
  527MOL0     C72651   9.818  10.885  10.852 -0.7249  0.0039  0.5896
  527MOL0     C72652   9.690  10.826  10.888  0.5427  0.4472  0.5908
  527MOL0     C72653   9.587  10.770  10.908 -0.2104  0.1342  0.3315
  527MOL0     C72654  10.183  11.108  11.214 -0.6018 -0.1695 -0.9711
  527MOL0     C72655  10.316  11.139  11.202 -0.3815  0.4488  0.3699
  527MOL0     C72656  10.423  11.057  11.262 -0.0738 -0.3650 -0.6701
  527MOL0     H72657  10.748  11.241  11.008  1.2787 -2.2675 -0.1160
  527MOL0     H72658  10.990  11.248  11.047  0.1046  0.7829 -0.2190
  527MOL0     H72659  11.163  11.464  11.074  2.3537 -0.6771 -1.8217
  527MOL0     H72660  11.242  11.308  11.116 -1.6179 -0.5885  0.1757
  527MOL0     H72661  11.386  11.459  11.266  0.6105  1.4611  1.9760
  527MOL0     H72662  11.370  11.541  11.117 -0.9685  4.1966  0.7871
  527MOL0     H72663  11.197  11.685  11.202  4.4022  1.2367 -2.0605
  527MOL0     H72664  11.201  11.599  11.361  0.8044 -1.8270 -0.8683
  527MOL0     H72665  11.408  11.663  11.404 -2.7537 -3.9115 -2.5679
  527MOL0     H72666  11.455  11.721  11.250  1.0325 -2.1602  0.4841
  527MOL0     H72667  11.271  11.919  11.305 -2.7978 -1.2119  1.9112
  527MOL0     H72668  11.420  11.924  11.388  0.2300  0.2956  0.5582
  527MOL0     H72669  11.157  11.804  11.465 -0.2574  0.8345 -0.4484
  527MOL0     H72670  11.303  11.800  11.570  2.7214  1.8638 -0.2172
  527MOL0     H72671  11.139  12.046  11.468  1.9262 -1.3320 -2.2044
  527MOL0     H72672  11.289  12.061  11.562 -0.8632  2.5406 -1.1105
  527MOL0     H72673  11.043  11.888  11.633 -1.9754  0.6837  0.2827
  527MOL0     H72674  11.174  11.927  11.748  0.4199  0.0393 -0.8068
  527MOL0     H72675  10.852  12.002  11.750 -1.0906  1.2015 -1.3453
  527MOL0     H72676  10.710  12.325  11.821  0.2608  2.0958  2.8358
  527MOL0     H72677  10.793  12.306  11.973 -2.5814 -0.9195  0.5370
  527MOL0     H72678  10.657  12.070  11.835  1.8738 -0.2352  0.2481
  527MOL0     H72679  10.730  12.059  11.992 -0.4953  0.2801  0.5785
  527MOL0     H72680  10.586  12.235  12.080  0.9807 -0.4098 -0.4372
  527MOL0     H72681  10.496  12.238  11.930  1.4083  0.3344 -2.1041
  527MOL0     H72682  10.367  12.101  12.097 -0.6748 -1.3537  0.4624
  527MOL0     H72683  10.417  12.018  11.949 -1.1140 -0.9646  0.7269
  527MOL0     H72684  10.684  11.748  12.157  1.0353  1.0094 -1.4970
  527MOL0     H72685  10.639  11.475  12.290 -0.2633  0.0023  0.6036
  527MOL0     H72686  10.738  11.546  12.175  1.1146 -2.8608  0.6409
  527MOL0     H72687  10.623  11.417  12.120  0.5517  0.2003  0.9918
  527MOL0     H72688  10.041  11.241  11.958  0.6263  0.0281 -0.7851
  527MOL0     H72689  10.032  10.990  11.967  0.2331  0.4918  0.3664
  527MOL0     H72690  10.169  10.813  11.829  0.0209 -1.4713 -0.6898
  527MOL0     H72691  10.346  10.835  11.851  0.2791  1.0382  0.0209
  527MOL0     H72692  10.339  10.610  11.802  0.1399 -3.0893  0.0663
  527MOL0     H72693  10.359  10.621  11.979 -1.9940 -3.0837  1.8592
  527MOL0     H72694  10.084  10.590  11.862  1.2649  0.3715 -1.9894
  527MOL0     H72695  10.157  10.542  12.021  1.9271 -1.3581  0.1315
  527MOL0     H72696  10.133  10.342  11.906 -1.3865  1.0097 -0.6871
  527MOL0     H72697  10.293  10.372  11.903 -0.6065  0.2018 -0.2320
  527MOL0     H72698  10.231  10.509  11.668  0.4241 -0.1217  0.0929
  527MOL0     H72699  10.232  10.340  11.656 -3.3428 -2.3767 -0.0244
  527MOL0     H72700  10.037  10.389  11.569  0.2602 -3.4542  0.5650
  527MOL0     H72701   9.985  10.506  11.699  0.5426 -0.3708  0.1733
  527MOL0     H72702   9.924  10.348  11.848  1.2348 -0.7993 -0.1005
  527MOL0     H72703  10.016  10.222  11.772  0.9565  0.5049  0.1075
  527MOL0     H72704   9.741  10.230  11.775  2.9166 -1.9216  2.4350
  527MOL0     H72705   9.819  10.180  11.639  1.0653 -1.4813  2.0707
  527MOL0     H72706  10.425  10.956  12.108 -0.2853  0.2488 -0.9657
  527MOL0     H72707  10.445  11.215  12.103 -0.3940  1.0197 -1.3911
  527MOL0     H72708  10.191  11.658  12.125 -0.3689  0.7315  1.2390
  527MOL0     H72709  10.270  11.901  12.141 -1.1332 -2.0636  1.7411
  527MOL0     H72710  10.939  11.413  11.431  2.5604  0.7865 -1.3669
  527MOL0     H72711  10.701  11.383  11.409 -0.9638  1.0227 -0.7085
  527MOL0     H72712  10.263  11.426  10.989  1.8530  2.0533  1.4445
  527MOL0     H72713  10.029  11.359  11.034  1.3149  1.1639 -1.4257
  527MOL0     H72714   9.931  11.006  11.296 -0.5840  0.0775  0.4729
  527MOL0     H72715   9.781  11.050  11.218 -1.5630  0.0237 -0.8910
  527MOL0     H72716   9.867  10.849  11.101 -2.2928  1.3349 -1.4882
  527MOL0     H72717  10.021  10.931  11.065 -0.7738 -0.0532 -2.3601
  527MOL0     H72718   9.783  11.077  10.958  0.7206  0.7473  1.2402
  527MOL0     H72719   9.949  11.043  10.891 -0.7289  1.2334  0.4682
  527MOL0     H72720   9.873  10.790  10.860 -1.5614 -0.3707  2.2442
  527MOL0     H72721   9.809  10.922  10.750  0.7143 -0.8245  0.1247
  527MOL0     H72722   9.499  10.715  10.935  1.2164 -2.1669  0.5413
  527MOL0     H72723  10.161  11.021  11.275  0.5134 -2.4535 -3.5923
  527MOL0     H72724  10.510  11.039  11.198  1.5190 -0.0514  1.3068
  527MOL0     H72725  10.457  11.113  11.349 -0.4694 -0.1571 -0.6493
  527MOL0     H72726  10.384  10.957  11.286  1.7284 -1.1279 -0.8110
  528MOL0     O72727   3.697  10.612   0.454 -0.0112  0.4353 -0.5300
  528MOL0     C72728   3.808  10.579   0.411 -0.1768 -0.7871 -0.7430
  528MOL0     O72729   3.885  10.667   0.334  0.1327 -0.3630 -0.7983
  528MOL0     C72730   3.841  10.782   0.280  0.3033 -0.9343 -0.1600
  528MOL0     C72731   3.931  10.885   0.302  0.2116  0.2023 -1.0585
  528MOL0     C72732   3.904  11.006   0.240  0.6448  0.3880 -0.3222
  528MOL0     C72733   3.801  11.029   0.146  0.5601 -0.9558  0.0627
  528MOL0     O72734   3.791  11.152   0.085 -0.7925 -0.3974  0.0474
  528MOL0     C72735   3.814  11.163  -0.056 -0.3664 -0.0618  0.6798
  528MOL0     C72736   3.924  11.269  -0.086  0.3268  0.0836 -0.0376
  528MOL0     C72737   3.872  11.412  -0.072 -0.5203 -0.3395 -0.3415
  528MOL0     C72738   3.752  11.454  -0.159 -0.2596  0.4874  0.1557
  528MOL0     C72739   3.777  11.591  -0.231  0.1911  0.6754 -0.2786
  528MOL0     C72740   3.684  11.626  -0.343 -0.6842 -0.8913 -0.4927
  528MOL0     C72741   3.730  11.747  -0.417 -0.0135  0.1317 -0.6821
  528MOL0     C72742   3.614  11.826  -0.491  0.4968  0.4449  0.3644
  528MOL0     N72743   3.544  11.737  -0.573  0.0315 -0.6462  0.7184
  528MOL0     C72744   3.598  11.674  -0.681 -0.1890  0.4781 -0.7331
  528MOL0     C72745   3.503  11.587  -0.722 -0.3991  0.8916  0.9590
  528MOL0     C72746   3.528  11.490  -0.839 -0.2057 -0.2789 -0.2175
  528MOL0     C72747   3.434  11.373  -0.833 -0.3503  1.1244  0.2242
  528MOL0     C72748   3.471  11.257  -0.733  0.5188  0.5312 -0.5877
  528MOL0     C72749   3.502  11.291  -0.590  0.2585 -0.4433 -0.4359
  528MOL0     O72750   3.495  11.177  -0.502  0.1117 -0.1249  0.0311
  528MOL0     C72751   3.467  11.204  -0.368 -0.1344  0.4014  0.2419
  528MOL0     C72752   3.443  11.325  -0.304 -0.7336  1.0770  0.0835
  528MOL0     C72753   3.410  11.330  -0.164 -0.3352  0.5038  0.8327
  528MOL0     C72754   3.393  11.470  -0.103  0.0680 -0.6638 -0.1746
  528MOL0     C72755   3.390  11.213  -0.086  0.4166  0.2640  0.2264
  528MOL0     C72756   3.355  11.203   0.065 -0.5663 -0.3739  0.0811
  528MOL0     O72757   3.420  11.099   0.126  0.5057 -0.2149  1.3242
  528MOL0     C72758   3.371  11.052   0.244 -0.0234 -0.5296 -0.4044
  528MOL0     C72759   3.445  11.083   0.365  0.0682 -0.2086  0.0200
  528MOL0     C72760   3.412  11.021   0.478 -0.2500 -0.7789 -0.1016
  528MOL0     C72761   3.300  10.940   0.490  0.4484 -0.0516  0.5046
  528MOL0     O72762   3.261  10.860   0.595  0.5142 -0.3271  0.1390
  528MOL0     C72763   3.325  10.873   0.714 -0.6160  0.0932  0.2100
  528MOL0     C72764   3.236  10.820   0.834  0.1226 -0.5028 -0.2241
  528MOL0     C72765   3.311  10.854   0.958  0.4256 -0.1889  0.2055
  528MOL0     C72766   3.238  10.829   1.085  0.2635  0.3259  0.1457
  528MOL0     C72767   3.319  10.846   1.209 -0.5388 -0.5128 -0.4106
  528MOL0     C72768   3.272  10.750   1.319  0.1358 -0.6774 -0.0962
  528MOL0     C72769   3.134  10.775   1.369 -0.2177  0.7079  0.3769
  528MOL0     C72770   3.092  10.718   1.501  0.9488 -0.9083  0.4348
  528MOL0    Cl72771   3.158  10.562   1.535  0.3623  0.5465  0.2033
  528MOL0     C72772   3.222  10.917   0.379  0.4271 -0.3391  0.8726
  528MOL0     C72773   3.253  10.976   0.256  0.4311  0.8245  0.9744
  528MOL0     O72774   3.276  11.284   0.111  0.3127 -0.1343  0.4295
  528MOL0     C72775   3.408  11.089  -0.149 -0.4747 -0.3109  0.3521
  528MOL0     C72776   3.448  11.087  -0.286 -0.5773  0.4919  0.1597
  528MOL0     N72777   3.391  11.612  -0.652 -0.1212  0.2159  0.2941
  528MOL0     N72778   3.415  11.705  -0.566  0.3622 -0.3829  0.1889
  528MOL0     C72779   3.714  10.924   0.122 -1.1427  0.9096 -0.7444
  528MOL0     C72780   3.738  10.801   0.188 -0.3053 -0.1965 -0.3508
  528MOL0     C72781   3.871  10.447   0.442  0.0575 -1.4432  0.3998
  528MOL0     C72782   3.834  10.351   0.351  0.1307 -0.2736 -1.0453
  528MOL0     C72783   3.868  10.225   0.382  0.0856 -0.2678  0.4991
  528MOL0     C72784   3.939  10.190   0.499 -0.6568  0.7292  0.3427
  528MOL0     O72785   3.987  10.067   0.531 -0.2137 -1.0087  0.0963
  528MOL0     C72786   3.941   9.946   0.469 -0.3349  0.1771 -0.6303
  528MOL0     C72787   3.973   9.836   0.568  0.1060  0.7617  0.1504
  528MOL0     C72788   4.131   9.809   0.576 -0.8613  0.0290  0.3871
  528MOL0     C72789   4.146   9.663   0.609  0.6230  0.3543  0.7752
  528MOL0     C72790   4.215   9.600   0.490  0.2647  0.4884 -0.2930
  528MOL0     C72791   4.265   9.555   0.394 -1.1876 -0.0502 -0.0626
  528MOL0     C72792   3.970  10.289   0.590 -0.1127 -0.2446  0.6649
  528MOL0     C72793   3.943  10.419   0.561 -0.1886  0.6732 -0.2204
  528MOL0     C72794   3.982  10.525   0.670 -0.2218 -0.3158  0.0831
  528MOL0     H72795   4.027  10.885   0.353  1.2020  2.1730 -2.7549
  528MOL0     H72796   3.980  11.082   0.252 -0.3822  1.0868  2.9288
  528MOL0     H72797   3.724  11.194  -0.110 -1.0203 -1.2397  1.0731
  528MOL0     H72798   3.838  11.062  -0.092 -2.4633 -0.2424 -0.3554
  528MOL0     H72799   4.005  11.247  -0.016 -1.4236  1.6684  2.6662
  528MOL0     H72800   3.960  11.256  -0.189 -0.3729  0.4508 -0.3352
  528MOL0     H72801   3.851  11.426   0.034 -0.3993  2.2026 -0.6032
  528MOL0     H72802   3.952  11.485  -0.089 -1.2385  1.1926  2.2769
  528MOL0     H72803   3.741  11.376  -0.234  0.1939  0.1768  0.4048
  528MOL0     H72804   3.662  11.465  -0.097  0.2136  0.2250  0.9017
  528MOL0     H72805   3.877  11.589  -0.277 -0.0556  5.1711 -1.4764
  528MOL0     H72806   3.771  11.674  -0.160 -1.4881 -0.6145  1.1770
  528MOL0     H72807   3.689  11.543  -0.414 -0.4795 -1.9076  0.6619
  528MOL0     H72808   3.582  11.639  -0.305 -1.0642 -1.9509 -1.1125
  528MOL0     H72809   3.806  11.712  -0.488  2.1667  2.2059  0.4970
  528MOL0     H72810   3.792  11.808  -0.350  0.5119 -1.5765  0.4579
  528MOL0     H72811   3.546  11.880  -0.425 -1.1630  1.3234 -1.9546
  528MOL0     H72812   3.658  11.901  -0.557 -0.5624  2.2887  1.6914
  528MOL0     H72813   3.704  11.675  -0.704  1.2983 -4.0598  3.9404
  528MOL0     H72814   3.635  11.468  -0.837 -0.4438 -1.4299  0.4660
  528MOL0     H72815   3.512  11.545  -0.933  2.7312  5.3617  2.0823
  528MOL0     H72816   3.333  11.402  -0.803 -0.8961  0.5254 -1.0116
  528MOL0     H72817   3.430  11.323  -0.930  1.8619  1.4900 -0.1018
  528MOL0     H72818   3.384  11.192  -0.745  2.6845 -2.8328  0.6637
  528MOL0     H72819   3.564  11.204  -0.757  0.4703 -1.1513  2.4233
  528MOL0     H72820   3.598  11.344  -0.591 -0.6256  1.2275  0.3280
  528MOL0     H72821   3.437  11.371  -0.556 -5.0532 -3.7442 -1.6486
  528MOL0     H72822   3.453  11.422  -0.353  1.0128 -0.4951 -2.9784
  528MOL0     H72823   3.288  11.497  -0.111  0.6228  2.1216  0.8960
  528MOL0     H72824   3.445  11.550  -0.157 -0.6049  0.4887  0.8288
  528MOL0     H72825   3.422  11.467   0.003 -1.6541 -0.8143  0.3115
  528MOL0     H72826   3.539  11.136   0.370  0.3192 -0.7529  1.6110
  528MOL0     H72827   3.474  11.053   0.561 -0.7866  1.9927 -0.6986
  528MOL0     H72828   3.423  10.826   0.704 -1.2207 -1.3932  0.9930
  528MOL0     H72829   3.345  10.980   0.725 -1.5176  0.3565 -0.5882
  528MOL0     H72830   3.133  10.858   0.833 -0.1542 -1.2110  0.1319
  528MOL0     H72831   3.232  10.711   0.840  0.0565 -0.4876  4.8493
  528MOL0     H72832   3.326  10.962   0.952 -0.5644  0.2174  3.2714
  528MOL0     H72833   3.407  10.802   0.960 -1.1411 -3.3505  0.3372
  528MOL0     H72834   3.208  10.724   1.087  3.4422 -0.7016 -0.7626
  528MOL0     H72835   3.147  10.890   1.089 -0.8165 -1.2728  0.8797
  528MOL0     H72836   3.428  10.842   1.192 -0.6695 -0.9847 -1.2009
  528MOL0     H72837   3.304  10.948   1.244 -1.3246 -0.6621 -0.3061
  528MOL0     H72838   3.343  10.752   1.402  0.3841 -3.4501 -0.1416
  528MOL0     H72839   3.268  10.649   1.277 -1.6741  0.3929 -2.7935
  528MOL0     H72840   3.065  10.724   1.301 -4.5442  6.0651  0.0625
  528MOL0     H72841   3.117  10.883   1.368 -2.4784  0.4672  2.3469
  528MOL0     H72842   2.982  10.717   1.504  0.9318  0.3154  0.8819
  528MOL0     H72843   3.131  10.783   1.580  1.1565  0.5180 -0.7850
  528MOL0     H72844   3.144  10.842   0.381  1.5955 -1.5720  1.6908
  528MOL0     H72845   3.191  10.944   0.173  3.4591  0.0133 -1.1188
  528MOL0     H72846   3.380  10.996  -0.101  2.8434 -1.6846 -0.0961
  528MOL0     H72847   3.463  10.989  -0.330  0.6413  0.4140  0.6902
  528MOL0     H72848   3.630  10.932   0.054 -0.7809 -1.8090 -1.6381
  528MOL0     H72849   3.660  10.726   0.179 -0.0366 -1.1521  3.7586
  528MOL0     H72850   3.791  10.387   0.258  0.1003  1.0222 -0.5551
  528MOL0     H72851   3.841  10.144   0.314 -1.3277 -0.2266  0.9963
  528MOL0     H72852   3.836   9.941   0.438 -0.5505  0.9186 -0.0517
  528MOL0     H72853   4.006   9.909   0.389  0.2258  1.4592 -0.7933
  528MOL0     H72854   3.904   9.756   0.540 -0.3613  0.8049  1.1449
  528MOL0     H72855   3.935   9.863   0.667 -2.3095 -0.1046 -0.4552
  528MOL0     H72856   4.179   9.841   0.484 -0.2359 -2.5089 -0.2446
  528MOL0     H72857   4.168   9.873   0.656  1.5573  1.6925 -1.9181
  528MOL0     H72858   4.052   9.624   0.647  0.1780  0.8802  0.2382
  528MOL0     H72859   4.219   9.665   0.690  1.4225  2.1977  0.0776
  528MOL0     H72860   4.319   9.492   0.326  0.1532 -0.8300  1.6638
  528MOL0     H72861   4.022  10.261   0.682 -0.8069 -0.9010  0.8722
  528MOL0     H72862   4.033  10.603   0.613 -3.1836  0.5606 -1.5856
  528MOL0     H72863   3.885  10.566   0.702  0.1302  2.1752 -1.7610
  528MOL0     H72864   4.039  10.490   0.757  3.2548  1.5276 -1.2531
  529MOL0     O72865   3.393   2.347   6.448  0.0481 -0.3502 -0.0620
  529MOL0     C72866   3.460   2.436   6.394 -0.8591  0.0933 -0.0970
  529MOL0     O72867   3.442   2.568   6.411 -0.0140 -0.3319 -0.2254
  529MOL0     C72868   3.325   2.622   6.454  1.4513 -0.4140 -0.6211
  529MOL0     C72869   3.332   2.740   6.535 -0.7060  0.3916  0.3721
  529MOL0     C72870   3.220   2.802   6.576  0.6026  0.2054 -0.0807
  529MOL0     C72871   3.094   2.754   6.552 -0.3712  0.0466  0.8177
  529MOL0     O72872   2.997   2.813   6.618  0.5519 -0.6850 -0.0793
  529MOL0     C72873   2.862   2.782   6.582 -0.3449 -1.2859 -0.9682
  529MOL0     C72874   2.781   2.890   6.658 -0.5466 -0.0185  0.1952
  529MOL0     C72875   2.635   2.863   6.660  0.6553  0.3602 -0.5259
  529MOL0     C72876   2.565   2.961   6.766  0.0692  0.2281  0.1341
  529MOL0     C72877   2.426   2.919   6.786  0.2899 -0.4844  1.3947
  529MOL0     C72878   2.326   2.968   6.673 -0.2800 -0.5631 -0.1990
  529MOL0     C72879   2.172   2.940   6.689 -1.1531  0.3391  0.5591
  529MOL0     C72880   2.112   3.002   6.810  1.1910 -0.9192 -0.0131
  529MOL0     N72881   1.987   2.936   6.852  0.9492  0.4740  0.2367
  529MOL0     C72882   1.984   2.852   6.959  0.8251 -1.5189 -0.9750
  529MOL0     C72883   1.865   2.786   6.957 -0.0015  0.0854 -0.3447
  529MOL0     C72884   1.817   2.688   7.066 -0.2044 -0.8671  0.2951
  529MOL0     C72885   1.665   2.711   7.080  0.1866 -0.5043 -0.5810
  529MOL0     C72886   1.626   2.603   7.184  0.1785 -0.0125  0.5608
  529MOL0     C72887   1.477   2.601   7.185 -0.2727  0.1586 -0.9781
  529MOL0     O72888   1.432   2.518   7.282  0.2028  0.1080 -0.9261
  529MOL0     C72889   1.293   2.504   7.286  0.0833  0.0146  1.3659
  529MOL0     C72890   1.229   2.580   7.384  0.3513  0.1957  0.7416
  529MOL0     C72891   1.091   2.572   7.389  0.5681 -0.0380  0.3097
  529MOL0     C72892   1.030   2.632   7.515 -0.1281  0.9101  0.7008
  529MOL0     C72893   1.015   2.492   7.301 -0.1727  0.0172  0.4394
  529MOL0     C72894   0.874   2.465   7.315  0.5904  0.2554  0.2295
  529MOL0     O72895   0.801   2.458   7.203 -0.8375  0.6139  0.7963
  529MOL0     C72896   0.667   2.487   7.202 -0.0623 -0.2070 -0.4052
  529MOL0     C72897   0.583   2.420   7.121 -0.2560  0.4456 -1.1488
  529MOL0     C72898   0.449   2.446   7.127 -0.2612 -0.0248  0.6937
  529MOL0     C72899   0.390   2.538   7.210  0.9209  0.5335 -0.1203
  529MOL0     O72900   0.248   2.559   7.217  0.0467  0.2002 -0.1522
  529MOL0     C72901   0.206   2.689   7.165 -0.3141  0.8387 -0.1601
  529MOL0     C72902   0.060   2.703   7.185  0.2975  0.0620  0.5794
  529MOL0     C72903  -0.024   2.608   7.101 -0.9532  0.3061 -0.8730
  529MOL0     C72904  -0.100   2.692   6.993 -0.1969 -0.4292  0.2072
  529MOL0     C72905  -0.230   2.625   6.947 -1.3431 -0.1075 -0.1070
  529MOL0     C72906  -0.230   2.470   6.942  0.0274 -0.1395 -0.6079
  529MOL0     C72907  -0.365   2.420   6.883 -0.5477 -0.9152  0.1739
  529MOL0     C72908  -0.365   2.423   6.732  0.1989 -0.3028  0.1482
  529MOL0    Cl72909  -0.476   2.556   6.692 -0.2784 -0.3531  0.1121
  529MOL0     C72910   0.474   2.615   7.294 -0.3028 -0.4137 -0.4719
  529MOL0     C72911   0.612   2.588   7.290 -0.2669  0.7281 -0.4961
  529MOL0     O72912   0.835   2.440   7.428 -0.0906 -0.0479  0.3991
  529MOL0     C72913   1.079   2.426   7.197  0.1263 -0.0402  0.2881
  529MOL0     C72914   1.219   2.441   7.184  0.7020 -0.3116  0.5500
  529MOL0     N72915   1.803   2.825   6.840  0.1193  0.1419  0.5310
  529MOL0     N72916   1.875   2.912   6.776 -0.8425 -0.2428  0.1403
  529MOL0     C72917   3.082   2.633   6.481  0.4973 -0.8196  0.4323
  529MOL0     C72918   3.196   2.569   6.424  0.0728 -0.3019 -0.2468
  529MOL0     C72919   3.574   2.392   6.299  0.1593  0.1859 -0.4370
  529MOL0     C72920   3.640   2.495   6.232  0.4051 -0.3310  0.0022
  529MOL0     C72921   3.757   2.472   6.157  0.0206 -0.0161 -0.1464
  529MOL0     C72922   3.806   2.344   6.137 -0.5856  0.0347 -0.3005
  529MOL0     O72923   3.931   2.317   6.077  0.1965 -0.2048  0.4443
  529MOL0     C72924   4.011   2.417   6.013  0.1713 -0.1621 -0.2985
  529MOL0     C72925   4.089   2.483   6.123 -0.3170 -0.1258 -0.1691
  529MOL0     C72926   4.193   2.387   6.193 -0.1625 -0.2943  0.0977
  529MOL0     C72927   4.242   2.425   6.340 -0.6165 -0.7767  0.0410
  529MOL0     C72928   4.263   2.566   6.369  0.0719  0.4544  0.5041
  529MOL0     C72929   4.272   2.686   6.399 -0.5718  0.3835  0.0659
  529MOL0     C72930   3.733   2.240   6.195  0.1783  0.1774 -0.0263
  529MOL0     C72931   3.625   2.259   6.281  0.1423 -0.6979 -0.0500
  529MOL0     C72932   3.582   2.140   6.357 -0.0342  0.4690 -0.3487
  529MOL0     H72933   3.430   2.780   6.559  0.0918 -0.8983 -0.5729
  529MOL0     H72934   3.228   2.895   6.632  1.5772  0.9964 -1.4753
  529MOL0     H72935   2.841   2.681   6.620 -0.5838 -1.1672 -0.7827
  529MOL0     H72936   2.852   2.795   6.474  0.9878 -0.3752 -1.0032
  529MOL0     H72937   2.805   2.889   6.764 -2.1505  1.0837  0.6033
  529MOL0     H72938   2.802   2.992   6.623  2.4196 -0.3928  0.6317
  529MOL0     H72939   2.607   2.864   6.555  0.8736 -3.3395 -0.7427
  529MOL0     H72940   2.619   2.762   6.698  3.2334  0.4056  0.8943
  529MOL0     H72941   2.607   2.945   6.865 -1.8270 -0.8418  0.8143
  529MOL0     H72942   2.579   3.066   6.741  0.8505  0.6151  2.0242
  529MOL0     H72943   2.388   2.944   6.885  0.9797 -2.0070  2.0811
  529MOL0     H72944   2.415   2.811   6.778  0.8848 -0.4132 -2.1139
  529MOL0     H72945   2.341   3.075   6.660 -0.0627 -0.5287  0.3226
  529MOL0     H72946   2.361   2.919   6.581  0.0642 -0.3990 -0.1569
  529MOL0     H72947   2.150   2.833   6.685 -0.9834  0.2956  0.8037
  529MOL0     H72948   2.122   2.985   6.603 -0.9368  1.8200  1.1821
  529MOL0     H72949   2.179   3.013   6.895  0.7859  1.1941  0.0927
  529MOL0     H72950   2.083   3.107   6.795 -0.7520 -1.2324  1.2205
  529MOL0     H72951   2.059   2.839   7.036  0.1468  0.0244  0.0046
  529MOL0     H72952   1.863   2.714   7.162 -1.2627  1.4203  0.2603
  529MOL0     H72953   1.829   2.585   7.034  0.6714 -1.1452  1.4241
  529MOL0     H72954   1.638   2.812   7.113 -2.3777 -1.3321  0.1228
  529MOL0     H72955   1.617   2.698   6.982 -0.3078 -0.7514 -0.3103
  529MOL0     H72956   1.667   2.505   7.155  0.0785  0.3234 -0.8089
  529MOL0     H72957   1.664   2.627   7.283 -2.4983  0.9901  1.4302
  529MOL0     H72958   1.441   2.702   7.207  2.5526  1.4776 -1.9251
  529MOL0     H72959   1.433   2.573   7.089 -0.7938 -2.4844 -0.0579
  529MOL0     H72960   1.284   2.642   7.455  0.5968  0.5855  0.2155
  529MOL0     H72961   0.934   2.677   7.487  0.3767  1.5649 -0.0147
  529MOL0     H72962   1.091   2.708   7.566  3.2559 -1.2976  0.2590
  529MOL0     H72963   1.014   2.551   7.587 -0.7702  0.2925 -0.1260
  529MOL0     H72964   0.633   2.364   7.042  1.3722  0.8417 -0.4397
  529MOL0     H72965   0.385   2.399   7.053 -1.0847  0.4396  1.0938
  529MOL0     H72966   0.254   2.767   7.224 -1.7951  0.1869  2.0175
  529MOL0     H72967   0.222   2.715   7.060  1.1527  3.8230  0.6924
  529MOL0     H72968   0.036   2.667   7.286 -1.2685 -2.8649 -0.7174
  529MOL0     H72969   0.045   2.811   7.179  1.0155  0.1067 -0.9138
  529MOL0     H72970  -0.081   2.545   7.170  1.9904  1.2369  2.7482
  529MOL0     H72971   0.042   2.532   7.056 -0.1360  0.2600  0.3501
  529MOL0     H72972  -0.034   2.728   6.914 -4.3125  0.3868 -3.2494
  529MOL0     H72973  -0.131   2.789   7.035 -2.6142 -1.2659  0.5226
  529MOL0     H72974  -0.306   2.659   7.018 -0.0857  0.6799  0.9179
  529MOL0     H72975  -0.237   2.683   6.855  0.6030  1.1105  0.4510
  529MOL0     H72976  -0.228   2.425   7.041 -1.7338 -0.0801 -0.5192
  529MOL0     H72977  -0.143   2.434   6.885 -0.1871  0.6663 -1.4797
  529MOL0     H72978  -0.440   2.486   6.928  1.6951  1.7702  0.2006
  529MOL0     H72979  -0.388   2.315   6.902  0.5148 -1.5190 -1.6443
  529MOL0     H72980  -0.411   2.333   6.690 -1.8126  1.0534 -0.6978
  529MOL0     H72981  -0.261   2.440   6.706  0.1748  1.6644  1.1755
  529MOL0     H72982   0.424   2.692   7.352  1.8725  0.3280  0.5211
  529MOL0     H72983   0.674   2.642   7.360  0.6387 -0.3862 -0.4161
  529MOL0     H72984   1.036   2.366   7.118  1.6848 -1.1315  0.2291
  529MOL0     H72985   1.259   2.383   7.101  2.3092 -0.1421  1.1701
  529MOL0     H72986   2.991   2.581   6.455  1.0804 -3.0516  2.4696
  529MOL0     H72987   3.191   2.478   6.365 -1.7260  0.4556 -1.3500
  529MOL0     H72988   3.601   2.594   6.253  3.2849  0.7464  0.7558
  529MOL0     H72989   3.807   2.559   6.115  0.8572 -0.1507  0.5373
  529MOL0     H72990   4.083   2.390   5.936  2.2253  2.4840  0.5451
  529MOL0     H72991   3.953   2.489   5.955  0.5146  1.4536  1.2722
  529MOL0     H72992   4.020   2.508   6.204 -3.0545 -4.2176 -0.8880
  529MOL0     H72993   4.140   2.573   6.088 -0.2733  0.2491  0.8100
  529MOL0     H72994   4.148   2.287   6.201  2.2114 -1.6553 -2.2244
  529MOL0     H72995   4.279   2.379   6.127 -0.4962 -0.2924 -0.3450
  529MOL0     H72996   4.341   2.380   6.353 -0.3156 -0.1060  0.1052
  529MOL0     H72997   4.171   2.388   6.414  2.2695 -3.5757  1.6362
  529MOL0     H72998   4.264   2.789   6.427  1.9775  0.4895  0.6900
  529MOL0     H72999   3.777   2.140   6.194 -0.5821 -0.1827  1.0472
  529MOL0     H73000   3.476   2.113   6.355 -0.6178  1.9158  3.3530
  529MOL0     H73001   3.639   2.051   6.327  2.2981  1.1774  1.5811
  529MOL0     H73002   3.603   2.157   6.463 -1.6326  1.8122 -0.2251
  530MOL0     O73003   6.706   9.019   0.704  0.1975  0.5479  0.3010
  530MOL0     C73004   6.816   8.968   0.720 -0.0107  0.5609 -0.4359
  530MOL0     O73005   6.872   8.875   0.640 -0.7715  0.1163  0.1256
  530MOL0     C73006   6.816   8.829   0.537  0.5063 -0.3274  0.0882
  530MOL0     C73007   6.784   8.915   0.426 -0.1943  0.0733  0.3184
  530MOL0     C73008   6.731   8.866   0.310 -1.8298  0.5983  0.1743
  530MOL0     C73009   6.714   8.726   0.293 -0.5577 -0.4960 -0.3556
  530MOL0     O73010   6.652   8.673   0.185  0.8884  0.3379  0.6219
  530MOL0     C73011   6.587   8.760   0.082 -0.3558  0.2194  0.9163
  530MOL0     C73012   6.528   8.663  -0.020  0.4526 -0.5804  0.8587
  530MOL0     C73013   6.497   8.743  -0.152 -0.5616  0.5330 -0.5455
  530MOL0     C73014   6.388   8.673  -0.242 -0.8270  0.4480  0.1560
  530MOL0     C73015   6.394   8.727  -0.394  0.2795  0.5868  0.2189
  530MOL0     C73016   6.388   8.873  -0.399  0.0695 -0.0946 -0.6670
  530MOL0     C73017   6.363   8.933  -0.532 -0.6306 -0.3875  0.6403
  530MOL0     C73018   6.488   8.916  -0.626 -0.4652  0.0400 -0.0316
  530MOL0     N73019   6.488   9.016  -0.734  0.8711 -0.6228  0.9434
  530MOL0     C73020   6.421   9.018  -0.855  0.3372 -0.3906 -0.6317
  530MOL0     C73021   6.467   9.127  -0.928  0.4685 -0.1133 -0.4079
  530MOL0     C73022   6.429   9.168  -1.064  0.0728 -0.0119 -0.0092
  530MOL0     C73023   6.548   9.213  -1.157  0.3307 -0.7969 -0.2984
  530MOL0     C73024   6.509   9.273  -1.289 -0.0834 -0.2108 -0.2005
  530MOL0     C73025   6.647   9.307  -1.363  0.6152 -0.1428 -0.7549
  530MOL0     O73026   6.604   9.371  -1.480 -0.8524  0.6471  0.4447
  530MOL0     C73027   6.684   9.375  -1.591  0.0726 -0.1195  0.2411
  530MOL0     C73028   6.818   9.364  -1.586  0.7017  0.3131  0.1260
  530MOL0     C73029   6.903   9.349  -1.705  0.0703  0.1108 -0.2994
  530MOL0     C73030   7.049   9.333  -1.680  0.1559  0.0056 -0.0593
  530MOL0     C73031   6.838   9.365  -1.827  0.5810  0.7283 -1.2518
  530MOL0     C73032   6.906   9.363  -1.958 -0.3550 -0.4275  0.1021
  530MOL0     O73033   6.837   9.307  -2.066  0.0252 -0.3603  0.0272
  530MOL0     C73034   6.904   9.257  -2.177  0.2456  0.0240  0.8726
  530MOL0     C73035   6.892   9.323  -2.298  0.2470  1.1038 -1.4003
  530MOL0     C73036   6.963   9.274  -2.400  0.2778  0.4284 -0.8473
  530MOL0     C73037   7.042   9.159  -2.399  0.7768  1.4193  0.1783
  530MOL0     O73038   7.130   9.124  -2.495  0.0106 -0.1186 -0.1278
  530MOL0     C73039   7.274   9.092  -2.464  0.1294 -0.9004 -1.0195
  530MOL0     C73040   7.373   9.133  -2.575 -0.0821 -0.1617 -0.1372
  530MOL0     C73041   7.348   9.271  -2.627 -0.7611  0.1200 -0.1972
  530MOL0     C73042   7.453   9.301  -2.737 -0.1047 -0.1047  0.0085
  530MOL0     C73043   7.449   9.445  -2.789 -0.2504  0.4412 -0.4510
  530MOL0     C73044   7.507   9.466  -2.925 -0.2833 -0.5138  0.8067
  530MOL0     C73045   7.657   9.458  -2.926 -0.8050 -0.0790 -0.0203
  530MOL0     C73046   7.726   9.494  -3.062  0.2754 -0.1525  0.0777
  530MOL0    Cl73047   7.687   9.379  -3.191  0.1502  0.4009  0.5730
  530MOL0     C73048   7.049   9.087  -2.280 -0.5761 -0.1487 -0.4811
  530MOL0     C73049   6.984   9.141  -2.170  0.1891  0.3852  0.0172
  530MOL0     O73050   7.022   9.406  -1.965  0.0041 -0.0037 -0.6032
  530MOL0     C73051   6.701   9.386  -1.832  0.1469 -0.1282  0.0815
  530MOL0     C73052   6.618   9.382  -1.713 -0.9415 -0.7771 -0.0457
  530MOL0     N73053   6.542   9.195  -0.843 -0.2223 -0.3038 -0.4647
  530MOL0     N73054   6.552   9.134  -0.729 -0.3998 -0.4773 -0.3182
  530MOL0     C73055   6.738   8.644   0.401  0.1979 -0.2770  0.9179
  530MOL0     C73056   6.786   8.691   0.525  0.6549 -0.2401 -0.2590
  530MOL0     C73057   6.882   9.002   0.854  0.3528 -0.0825 -0.3851
  530MOL0     C73058   6.990   8.916   0.894  0.3371 -0.6826  0.0231
  530MOL0     C73059   7.039   8.918   1.023  0.3102  0.2675  0.3819
  530MOL0     C73060   6.995   9.020   1.108 -1.1466  0.0535 -0.6609
  530MOL0     O73061   7.047   9.044   1.237  0.4581  0.4007  0.2379
  530MOL0     C73062   7.107   8.940   1.313 -0.3517  0.2043  0.6727
  530MOL0     C73063   7.127   8.994   1.452  0.6561 -0.5132 -0.1547
  530MOL0     C73064   6.993   9.015   1.512 -0.3282  0.3426 -0.2368
  530MOL0     C73065   6.977   9.002   1.659 -0.2268  0.1585  0.5007
  530MOL0     C73066   7.043   9.100   1.733 -1.2390  0.0970  0.0780
  530MOL0     C73067   7.108   9.185   1.793  0.1398  0.2015  0.2402
  530MOL0     C73068   6.894   9.108   1.069  0.0073  0.5642 -0.1889
  530MOL0     C73069   6.836   9.106   0.942 -0.3593  0.0710  0.5821
  530MOL0     C73070   6.712   9.194   0.930  0.3064 -0.9350 -0.4621
  530MOL0     H73071   6.768   9.021   0.443  1.7056  0.3688  0.5689
  530MOL0     H73072   6.705   8.947   0.243 -0.2595  1.2017  0.2551
  530MOL0     H73073   6.662   8.817   0.026 -0.7147 -1.6253 -1.6135
  530MOL0     H73074   6.510   8.830   0.117 -1.1327  0.9531 -1.9941
  530MOL0     H73075   6.599   8.583  -0.044 -0.4391 -2.1712  3.1063
  530MOL0     H73076   6.440   8.617   0.025  1.3828 -0.2216  3.1722
  530MOL0     H73077   6.445   8.836  -0.129  0.1377  0.6205  0.7345
  530MOL0     H73078   6.592   8.773  -0.198 -0.2158  0.7441  0.3027
  530MOL0     H73079   6.396   8.563  -0.240 -0.2448  0.4886  0.6715
  530MOL0     H73080   6.291   8.701  -0.201  0.0550 -0.1195  2.8886
  530MOL0     H73081   6.302   8.689  -0.440  0.7574  1.2347 -1.3320
  530MOL0     H73082   6.478   8.693  -0.455 -1.0331 -3.1065  0.1767
  530MOL0     H73083   6.315   8.914  -0.329 -1.6651 -1.1593 -1.7602
  530MOL0     H73084   6.487   8.903  -0.364  0.1576  2.5755 -2.9310
  530MOL0     H73085   6.327   9.036  -0.536  1.9354  0.5606 -0.0291
  530MOL0     H73086   6.274   8.880  -0.568 -2.5356  1.5067  2.2986
  530MOL0     H73087   6.580   8.942  -0.573 -1.1821  3.4091 -0.1609
  530MOL0     H73088   6.504   8.814  -0.662 -3.9038 -1.8625  3.1509
  530MOL0     H73089   6.356   8.941  -0.894 -0.3285  0.5168 -1.3890
  530MOL0     H73090   6.365   9.252  -1.038 -3.0381 -2.0025 -0.7712
  530MOL0     H73091   6.370   9.088  -1.109 -1.5937  1.5604 -0.7207
  530MOL0     H73092   6.613   9.287  -1.108 -2.1348 -1.5272  4.6406
  530MOL0     H73093   6.593   9.118  -1.186  2.2656  0.0932 -0.3675
  530MOL0     H73094   6.445   9.202  -1.343  0.6921 -2.1176  1.2409
  530MOL0     H73095   6.456   9.368  -1.292  0.1950 -0.0855 -2.0447
  530MOL0     H73096   6.717   9.371  -1.309 -0.3939  1.7808 -1.6155
  530MOL0     H73097   6.690   9.211  -1.393  1.0963 -0.1074 -0.1862
  530MOL0     H73098   6.862   9.338  -1.490  1.2000 -0.9009 -0.4141
  530MOL0     H73099   7.076   9.353  -1.576 -0.4815 -1.6950  0.4660
  530MOL0     H73100   7.101   9.414  -1.732  1.4477  0.2396  1.4831
  530MOL0     H73101   7.091   9.240  -1.721 -0.6618 -1.3514  2.0204
  530MOL0     H73102   6.834   9.414  -2.296 -1.9599 -0.2369 -0.0051
  530MOL0     H73103   6.968   9.315  -2.500  3.0576  2.3623 -0.0296
  530MOL0     H73104   7.299   9.145  -2.371  0.0633  0.8747 -1.9596
  530MOL0     H73105   7.285   8.984  -2.450  0.7111 -1.2858 -3.9760
  530MOL0     H73106   7.475   9.142  -2.536  0.9771  0.8126 -2.8710
  530MOL0     H73107   7.370   9.058  -2.654 -0.6292  0.4376 -0.6939
  530MOL0     H73108   7.360   9.340  -2.543  1.2829  1.0659 -1.1916
  530MOL0     H73109   7.248   9.287  -2.670 -0.7085  0.9874 -0.0073
  530MOL0     H73110   7.430   9.226  -2.814  1.5117 -1.0156  0.3712
  530MOL0     H73111   7.556   9.273  -2.716 -0.1908 -0.8543 -0.5159
  530MOL0     H73112   7.344   9.473  -2.797 -0.1887  0.4918 -1.1480
  530MOL0     H73113   7.508   9.501  -2.716 -1.8062 -1.5877  2.6584
  530MOL0     H73114   7.474   9.558  -2.975  0.9023 -1.2605 -1.5050
  530MOL0     H73115   7.468   9.392  -2.995  0.2167  1.1447 -1.3642
  530MOL0     H73116   7.688   9.354  -2.915 -2.9018 -1.4963 -4.7201
  530MOL0     H73117   7.700   9.516  -2.844  1.0977 -0.2147 -0.8568
  530MOL0     H73118   7.835   9.502  -3.059  0.2155  0.9735 -0.2131
  530MOL0     H73119   7.697   9.595  -3.095 -1.4129 -1.3228 -2.3493
  530MOL0     H73120   7.101   8.993  -2.267 -1.8688 -0.6936  1.1861
  530MOL0     H73121   6.973   9.082  -2.079 -0.6361  2.0534  1.0527
  530MOL0     H73122   6.642   9.385  -1.923  2.6611  3.3047 -1.8115
  530MOL0     H73123   6.513   9.405  -1.726 -1.2382 -1.2225  1.3522
  530MOL0     H73124   6.717   8.542   0.372  3.2326 -0.1313 -2.4741
  530MOL0     H73125   6.800   8.632   0.615 -2.0613 -0.4023  0.1297
  530MOL0     H73126   7.026   8.848   0.818  0.2329 -0.7412  0.0264
  530MOL0     H73127   7.113   8.842   1.045 -0.6956 -1.2201 -1.1090
  530MOL0     H73128   7.048   8.848   1.314 -0.1277  0.0597  0.7376
  530MOL0     H73129   7.204   8.904   1.278 -0.2775  0.3792  0.7011
  530MOL0     H73130   7.189   9.085   1.448  0.3158 -0.2756 -0.0627
  530MOL0     H73131   7.179   8.916   1.508 -0.2351 -0.7777  0.3173
  530MOL0     H73132   6.962   9.116   1.482  1.5649  0.9221 -0.3760
  530MOL0     H73133   6.915   8.946   1.479  0.3385 -1.1535  1.2000
  530MOL0     H73134   7.008   8.900   1.686 -4.8639 -1.9588 -1.0016
  530MOL0     H73135   6.872   9.013   1.687  0.4729  1.4649  2.8633
  530MOL0     H73136   7.156   9.265   1.845 -0.3322 -0.8841  2.4835
  530MOL0     H73137   6.863   9.189   1.134  0.6291  0.0178  0.7991
  530MOL0     H73138   6.627   9.129   0.909 -1.8014  0.2178  3.3987
  530MOL0     H73139   6.700   9.265   1.013  2.0911 -2.2829  1.0534
  530MOL0     H73140   6.712   9.255   0.840 -3.1353  1.4681  0.9660
  531MOL0     O73141   7.618   1.680   7.619  0.0257  0.5435 -0.1733
  531MOL0     C73142   7.533   1.638   7.544  0.0680  0.2367  0.3480
  531MOL0     O73143   7.507   1.685   7.416 -0.3966 -0.1016 -0.7278
  531MOL0     C73144   7.589   1.801   7.393 -0.4162 -0.0216  0.1494
  531MOL0     C73145   7.726   1.789   7.349  0.3073 -0.0086 -0.2268
  531MOL0     C73146   7.805   1.897   7.321 -0.1919 -0.6818 -0.8710
  531MOL0     C73147   7.752   2.028   7.334  0.1922  0.9919  0.0262
  531MOL0     O73148   7.822   2.136   7.287  0.7696 -0.0254 -0.0954
  531MOL0     C73149   7.961   2.149   7.318  1.1171  0.6357 -0.1503
  531MOL0     C73150   7.988   2.187   7.471  1.0019  0.3704 -0.2883
  531MOL0     C73151   8.134   2.204   7.497 -0.3325  0.5041 -0.7669
  531MOL0     C73152   8.173   2.348   7.488  0.0739  0.2952  0.2930
  531MOL0     C73153   8.329   2.367   7.506 -0.5521  0.7113  0.7302
  531MOL0     C73154   8.392   2.303   7.639  0.5032 -0.4458 -0.3791
  531MOL0     C73155   8.521   2.376   7.668 -0.6699 -0.1209  0.3979
  531MOL0     C73156   8.656   2.291   7.684  0.2628 -0.2610 -0.0257
  531MOL0     N73157   8.775   2.373   7.702 -0.2436  0.8022  0.8100
  531MOL0     C73158   8.843   2.432   7.605 -0.3537  0.2660  0.4296
  531MOL0     C73159   8.955   2.474   7.666  0.1321 -0.3553  0.3185
  531MOL0     C73160   9.067   2.537   7.582  0.3464  1.1556  0.3941
  531MOL0     C73161   9.094   2.688   7.604 -0.6685  0.1775 -0.6081
  531MOL0     C73162   9.109   2.735   7.760 -0.0914  0.6949  0.3399
  531MOL0     C73163   9.152   2.880   7.761 -0.9936  0.2822  0.8503
  531MOL0     O73164   9.283   2.889   7.700 -0.3748 -0.3180  0.7994
  531MOL0     C73165   9.345   3.007   7.724 -0.4598  0.2123 -0.4903
  531MOL0     C73166   9.293   3.133   7.731 -0.4423 -0.8812 -0.7296
  531MOL0     C73167   9.377   3.256   7.767  0.5433  0.7378  0.6406
  531MOL0     C73168   9.308   3.393   7.771 -0.0818  0.5445 -0.8210
  531MOL0     C73169   9.513   3.231   7.794 -0.7389 -0.6620  0.0602
  531MOL0     C73170   9.609   3.344   7.829  0.1089  0.5635  0.6219
  531MOL0     O73171   9.728   3.308   7.879  0.4206  0.3654 -0.4032
  531MOL0     C73172   9.810   3.397   7.939 -0.7556  0.3464 -0.6208
  531MOL0     C73173   9.944   3.382   7.916  0.1220 -0.0109  0.0747
  531MOL0     C73174  10.039   3.464   7.989 -0.5011  0.5757  0.5957
  531MOL0     C73175  10.000   3.549   8.091  0.0929 -0.6084  0.3914
  531MOL0     O73176  10.089   3.609   8.178  0.3115 -0.8609  0.2434
  531MOL0     C73177  10.219   3.559   8.202 -0.1517 -0.6629  0.5123
  531MOL0     C73178  10.273   3.598   8.340  0.3594 -0.6410  1.4247
  531MOL0     C73179  10.206   3.519   8.455  0.0225  1.4704  0.5759
  531MOL0     C73180  10.217   3.574   8.589 -0.7253  0.1211 -0.3258
  531MOL0     C73181  10.110   3.513   8.687  0.4845 -0.5325  0.5700
  531MOL0     C73182  10.134   3.370   8.727  1.5287  0.7078 -0.2565
  531MOL0     C73183  10.000   3.319   8.797  1.0536 -0.6700  1.0467
  531MOL0     C73184  10.017   3.215   8.915  0.7116  0.6569 -0.0061
  531MOL0    Cl73185  10.152   3.109   8.887  0.4602 -0.3998 -0.0904
  531MOL0     C73186   9.862   3.562   8.118 -0.9020 -0.4478  0.1969
  531MOL0     C73187   9.764   3.495   8.034 -0.5568 -0.5059 -0.7751
  531MOL0     O73188   9.575   3.460   7.807 -0.1030 -0.4917  0.6675
  531MOL0     C73189   9.559   3.094   7.799 -0.0202  0.1518 -0.2947
  531MOL0     C73190   9.478   2.987   7.756 -0.1516  0.6527 -0.4663
  531MOL0     N73191   8.943   2.461   7.801  0.1994  0.9784  0.3874
  531MOL0     N73192   8.839   2.383   7.822  0.1126  0.4943 -0.2649
  531MOL0     C73193   7.616   2.049   7.365 -0.2597  0.2782  0.2691
  531MOL0     C73194   7.543   1.935   7.406  0.0726  0.4671  0.6077
  531MOL0     C73195   7.452   1.520   7.580 -0.1071  0.8980 -0.4372
  531MOL0     C73196   7.392   1.440   7.475  0.1868  0.6157  0.4281
  531MOL0     C73197   7.318   1.324   7.500  0.8124 -0.5474 -0.5743
  531MOL0     C73198   7.305   1.291   7.633  0.4947 -0.3559  0.4149
  531MOL0     O73199   7.237   1.184   7.687  0.1738  0.4258  0.7860
  531MOL0     C73200   7.189   1.078   7.599  0.4544 -0.1575 -0.0124
  531MOL0     C73201   7.300   0.985   7.539 -0.6016  0.0344  0.2891
  531MOL0     C73202   7.356   0.892   7.646  0.1396  0.6647 -0.5608
  531MOL0     C73203   7.513   0.889   7.647 -0.3691  0.9584  0.7998
  531MOL0     C73204   7.571   1.023   7.674  0.0840  0.7585  0.8863
  531MOL0     C73205   7.616   1.131   7.702  0.3446 -0.8251  0.5100
  531MOL0     C73206   7.367   1.355   7.742 -0.6847 -0.4284 -0.2203
  531MOL0     C73207   7.444   1.472   7.715  0.9518  0.5139 -0.2665
  531MOL0     C73208   7.504   1.547   7.835 -0.2025  0.7009  0.6122
  531MOL0     H73209   7.766   1.691   7.327  0.4333 -0.7202  2.8236
  531MOL0     H73210   7.898   1.866   7.274 -0.0902 -0.1110 -1.0570
  531MOL0     H73211   8.007   2.224   7.254  1.3763 -0.2026 -0.9733
  531MOL0     H73212   8.007   2.059   7.276 -0.9648 -0.5506 -0.0250
  531MOL0     H73213   7.937   2.277   7.507 -0.5353 -0.9576  1.0604
  531MOL0     H73214   7.944   2.116   7.542 -1.0922  1.0680 -0.8371
  531MOL0     H73215   8.152   2.159   7.595 -0.2997 -2.1440 -1.9220
  531MOL0     H73216   8.193   2.132   7.439  1.0108  1.9345 -1.2576
  531MOL0     H73217   8.149   2.386   7.388  2.4982 -0.7849 -0.7978
  531MOL0     H73218   8.125   2.406   7.567  2.6129 -0.4499  2.5275
  531MOL0     H73219   8.341   2.475   7.519  1.3816  0.2558  3.7919
  531MOL0     H73220   8.373   2.334   7.411 -0.6769 -0.0317  0.9192
  531MOL0     H73221   8.320   2.326   7.718 -0.8115  0.6557 -1.8415
  531MOL0     H73222   8.404   2.197   7.613 -1.3689 -0.2356 -2.4296
  531MOL0     H73223   8.521   2.432   7.762 -1.1984 -2.0299  1.5860
  531MOL0     H73224   8.544   2.449   7.590  3.1814 -0.7960  0.6606
  531MOL0     H73225   8.645   2.234   7.777  2.6129 -2.8895 -1.2257
  531MOL0     H73226   8.674   2.225   7.599  4.3950 -0.3420  0.7135
  531MOL0     H73227   8.820   2.428   7.499  1.3390 -1.5443  0.0698
  531MOL0     H73228   9.042   2.529   7.475  1.7826 -0.4136  0.1436
  531MOL0     H73229   9.158   2.477   7.584  0.3377  1.0737 -0.7795
  531MOL0     H73230   9.193   2.703   7.560 -0.8726 -0.3729 -1.2668
  531MOL0     H73231   9.009   2.732   7.552 -0.4643 -0.9216 -1.9312
  531MOL0     H73232   9.008   2.746   7.801  0.5375  2.3127  1.5483
  531MOL0     H73233   9.175   2.664   7.810 -1.7930 -0.5183  0.9495
  531MOL0     H73234   9.081   2.939   7.701 -0.3538  3.2483  2.7922
  531MOL0     H73235   9.158   2.925   7.860 -0.6201  0.4035  0.7709
  531MOL0     H73236   9.193   3.148   7.693 -1.4380 -3.1945  0.7737
  531MOL0     H73237   9.201   3.400   7.749 -0.5080  0.6093  1.0900
  531MOL0     H73238   9.352   3.443   7.685 -0.4585 -0.6731 -1.7610
  531MOL0     H73239   9.330   3.449   7.862 -0.9657 -0.8512  0.2936
  531MOL0     H73240   9.978   3.302   7.851  1.4647 -0.1104  0.8672
  531MOL0     H73241  10.145   3.461   7.965  0.2228  5.3260  2.2211
  531MOL0     H73242  10.212   3.450   8.197  2.3275 -0.8492 -0.0866
  531MOL0     H73243  10.272   3.606   8.119 -1.6305  1.1953  0.5391
  531MOL0     H73244  10.378   3.575   8.324  0.8703  2.4442 -0.4966
  531MOL0     H73245  10.269   3.706   8.358 -1.9544  0.2212 -2.8460
  531MOL0     H73246  10.234   3.414   8.445 -2.0095  1.0076 -0.7764
  531MOL0     H73247  10.102   3.522   8.422  0.3511 -2.2580 -1.2812
  531MOL0     H73248  10.210   3.682   8.579  2.2456  0.6714  2.2114
  531MOL0     H73249  10.316   3.567   8.633 -0.2900  0.3866 -1.2320
  531MOL0     H73250  10.120   3.566   8.782 -0.0696 -1.5328  1.2009
  531MOL0     H73251  10.009   3.521   8.645  1.1021  0.5206 -0.8279
  531MOL0     H73252  10.219   3.368   8.797  1.8024  0.4923 -0.5899
  531MOL0     H73253  10.149   3.310   8.637 -2.6324 -1.2620  0.1419
  531MOL0     H73254   9.932   3.283   8.719  2.4641 -1.6672  0.2342
  531MOL0     H73255   9.938   3.400   8.837 -1.7168 -2.3262  0.4233
  531MOL0     H73256   9.921   3.162   8.925 -1.7649  5.0290  2.8600
  531MOL0     H73257  10.042   3.264   9.009 -3.0098 -1.2663  2.2680
  531MOL0     H73258   9.833   3.631   8.197 -0.2671  1.5027 -1.1830
  531MOL0     H73259   9.662   3.522   8.057 -0.1799  0.9726 -0.7458
  531MOL0     H73260   9.662   3.078   7.828 -1.0834 -2.7511  2.4431
  531MOL0     H73261   9.518   2.886   7.763 -2.7482 -0.3122  2.4839
  531MOL0     H73262   7.559   2.141   7.350  0.0603  0.4373  0.0215
  531MOL0     H73263   7.438   1.951   7.427 -0.4072 -3.5675  2.1714
  531MOL0     H73264   7.390   1.462   7.369 -4.1898 -0.8073  0.0048
  531MOL0     H73265   7.276   1.271   7.416  0.5037  1.1255 -1.5267
  531MOL0     H73266   7.120   1.020   7.660  1.5096 -1.6491 -0.1875
  531MOL0     H73267   7.133   1.115   7.513  0.9813  0.3225 -0.1548
  531MOL0     H73268   7.376   1.043   7.488 -1.1110  2.0851  1.7579
  531MOL0     H73269   7.252   0.917   7.468 -0.4450  0.4979 -0.2587
  531MOL0     H73270   7.308   0.909   7.743 -0.2745 -3.8154  0.2482
  531MOL0     H73271   7.333   0.788   7.619 -0.0222 -0.7093  3.9979
  531MOL0     H73272   7.542   0.853   7.547  3.4727  1.8954  1.3914
  531MOL0     H73273   7.546   0.813   7.718 -1.0583  1.7646  2.0184
  531MOL0     H73274   7.640   1.235   7.713 -2.4403  0.2639 -2.1583
  531MOL0     H73275   7.334   1.340   7.844 -1.2953  1.6508 -0.0629
  531MOL0     H73276   7.458   1.646   7.822 -1.1488  0.0078 -2.0283
  531MOL0     H73277   7.467   1.503   7.928  0.0654 -0.9024 -0.0057
  531MOL0     H73278   7.612   1.552   7.852 -0.3976  0.1941  2.1416
  532MOL0     O73279   5.650  10.753   0.105  0.4383  0.0693 -0.3415
  532MOL0     C73280   5.583  10.772   0.202 -0.3493  0.0731  0.3958
  532MOL0     O73281   5.603  10.705   0.319  0.2134 -0.3564 -0.3347
  532MOL0     C73282   5.684  10.593   0.321 -0.0753  0.1208  0.5491
  532MOL0     C73283   5.817  10.607   0.279  0.3423 -0.8244  0.5583
  532MOL0     C73284   5.897  10.494   0.245  0.1345 -0.3367 -0.4668
  532MOL0     C73285   5.845  10.361   0.262 -1.0010 -0.0284 -0.1456
  532MOL0     O73286   5.914  10.248   0.241 -0.0164  0.4577  0.6626
  532MOL0     C73287   6.018  10.249   0.140  0.9417  0.1080 -0.2565
  532MOL0     C73288   6.036  10.103   0.100  1.0470  0.0973 -0.6901
  532MOL0     C73289   6.128  10.082  -0.021  0.3041 -0.8018  0.2565
  532MOL0     C73290   6.135   9.934  -0.058 -0.0384  0.0928 -0.2217
  532MOL0     C73291   6.198   9.902  -0.193 -0.4000 -0.3413 -0.2069
  532MOL0     C73292   6.337   9.969  -0.212  0.7571  0.5696  0.0626
  532MOL0     C73293   6.429   9.931  -0.093 -0.7838  0.1146  0.6148
  532MOL0     C73294   6.574   9.974  -0.111 -0.0431  0.1137 -0.0907
  532MOL0     N73295   6.588  10.120  -0.120  0.1177 -0.6528 -0.2060
  532MOL0     C73296   6.583  10.192  -0.238  0.2415 -0.4173  0.1423
  532MOL0     C73297   6.620  10.321  -0.204  0.4131  0.2230  0.4203
  532MOL0     C73298   6.632  10.443  -0.296 -0.7021 -0.4311  0.2411
  532MOL0     C73299   6.760  10.517  -0.292 -0.2324  0.0375  1.0913
  532MOL0     C73300   6.872  10.439  -0.364 -0.2306 -0.7584  1.0872
  532MOL0     C73301   6.869  10.418  -0.513 -0.8401 -0.5487 -1.3505
  532MOL0     O73302   6.993  10.350  -0.538  0.7586  1.0075 -0.8690
  532MOL0     C73303   7.024  10.316  -0.667 -0.2032  0.1168 -0.6645
  532MOL0     C73304   6.937  10.333  -0.777  0.3994 -0.1157 -0.2428
  532MOL0     C73305   6.973  10.287  -0.906 -0.2061  0.4444 -1.0276
  532MOL0     C73306   6.857  10.278  -0.999  0.7218  0.0461  0.4051
  532MOL0     C73307   7.101  10.232  -0.924  0.7704 -0.2868 -0.0456
  532MOL0     C73308   7.156  10.198  -1.051  0.8098  0.1740 -0.6310
  532MOL0     O73309   7.300  10.198  -1.049  0.6039  0.5418 -0.3378
  532MOL0     C73310   7.370  10.183  -1.170  0.4144  0.7210 -1.0489
  532MOL0     C73311   7.349  10.075  -1.261  0.7504  0.4950  0.3685
  532MOL0     C73312   7.424  10.067  -1.378 -0.2172 -0.9534 -0.7346
  532MOL0     C73313   7.526  10.160  -1.396  0.2753  0.6040  0.2126
  532MOL0     O73314   7.598  10.133  -1.509 -0.1100  0.3976 -0.0905
  532MOL0     C73315   7.660  10.242  -1.575  0.2205 -0.3803  0.7348
  532MOL0     C73316   7.680  10.197  -1.718  0.4341  1.0716 -0.0769
  532MOL0     C73317   7.748  10.301  -1.797 -0.8019 -0.0409  0.3442
  532MOL0     C73318   7.902  10.276  -1.776 -0.5271 -0.7939 -0.5976
  532MOL0     C73319   7.978  10.380  -1.840 -0.0861 -0.3001 -0.2267
  532MOL0     C73320   8.052  10.340  -1.970  0.3553  0.2438  0.5978
  532MOL0     C73321   8.082  10.456  -2.072  0.2308  0.0871  0.1807
  532MOL0     C73322   8.219  10.526  -2.053  0.3073 -0.6674  0.8613
  532MOL0    Cl73323   8.203  10.604  -1.899 -0.3429 -0.5614 -0.2374
  532MOL0     C73324   7.550  10.266  -1.306 -0.6903  1.5585 -0.5717
  532MOL0     C73325   7.464  10.277  -1.197  0.2553  0.8186  0.5573
  532MOL0     O73326   7.081  10.189  -1.146  0.1268  0.5999  0.7698
  532MOL0     C73327   7.185  10.223  -0.813  0.0682 -0.1882  0.4926
  532MOL0     C73328   7.147  10.252  -0.689  0.8897  0.4329 -0.2188
  532MOL0     N73329   6.645  10.326  -0.070  0.7129  0.3722  0.2875
  532MOL0     N73330   6.624  10.210  -0.021 -1.1618 -0.1493 -0.9472
  532MOL0     C73331   5.718  10.353   0.317  0.3307  1.1627  0.4309
  532MOL0     C73332   5.641  10.459   0.353  0.1759 -1.0418  1.4048
  532MOL0     C73333   5.475  10.877   0.204 -0.7861 -1.0198  0.3893
  532MOL0     C73334   5.355  10.859   0.284 -0.5111 -0.6146  0.7416
  532MOL0     C73335   5.255  10.962   0.294 -1.1184 -0.0865 -0.3397
  532MOL0     C73336   5.261  11.082   0.223 -0.6032 -0.8083  1.4046
  532MOL0     O73337   5.172  11.184   0.229 -0.1308  0.1620  0.0203
  532MOL0     C73338   5.043  11.169   0.302  0.6100  0.0861  0.7025
  532MOL0     C73339   4.974  11.308   0.307  0.4890  0.9278 -0.8772
  532MOL0     C73340   4.822  11.298   0.327  0.1845  0.2012  0.3856
  532MOL0     C73341   4.750  11.429   0.361 -0.4120  0.1706  0.2778
  532MOL0     C73342   4.805  11.477   0.486  0.7603 -0.8596  0.9031
  532MOL0     C73343   4.860  11.517   0.588 -0.1867 -0.2054 -0.5054
  532MOL0     C73344   5.376  11.099   0.147  0.4714 -0.8757 -0.2256
  532MOL0     C73345   5.474  10.999   0.127 -0.1863  0.5015  0.0457
  532MOL0     C73346   5.590  11.029   0.035  0.4135  0.3437  0.5178
  532MOL0     H73347   5.851  10.706   0.251  0.1378 -1.3837 -1.8935
  532MOL0     H73348   6.004  10.508   0.241  0.3921  0.3920  4.1820
  532MOL0     H73349   6.120  10.272   0.171  1.4208 -1.2835 -0.7173
  532MOL0     H73350   5.986  10.309   0.055 -3.2854 -0.7787  0.4971
  532MOL0     H73351   6.078  10.039   0.179 -0.3408  2.0971  1.8397
  532MOL0     H73352   5.938  10.065   0.070 -0.9750  3.7197  0.7281
  532MOL0     H73353   6.104  10.147  -0.105  2.9006  1.3252  1.0138
  532MOL0     H73354   6.229  10.124  -0.011 -0.7973  2.7657 -1.8465
  532MOL0     H73355   6.193   9.882   0.019  2.6406  3.9500  0.6965
  532MOL0     H73356   6.036   9.888  -0.059 -0.2023  0.4403 -0.3753
  532MOL0     H73357   6.136   9.922  -0.281  3.6342  3.3950 -2.5628
  532MOL0     H73358   6.206   9.792  -0.189 -1.6809 -0.4929 -1.1392
  532MOL0     H73359   6.382   9.946  -0.309  1.7961  3.3509 -0.2232
  532MOL0     H73360   6.322  10.077  -0.218 -1.1185  0.2945 -0.8244
  532MOL0     H73361   6.422   9.824  -0.072  0.4873 -0.1239 -0.0633
  532MOL0     H73362   6.390   9.983  -0.005  1.1089 -1.9266  2.7891
  532MOL0     H73363   6.644   9.942  -0.033  0.7289  2.3447  0.2129
  532MOL0     H73364   6.609   9.936  -0.207 -1.4672 -0.1517 -0.5272
  532MOL0     H73365   6.549  10.162  -0.336 -0.7403  1.1955 -0.0552
  532MOL0     H73366   6.545  10.507  -0.280 -0.5257 -0.7252  2.7573
  532MOL0     H73367   6.623  10.404  -0.398 -2.0455  2.8088 -1.0154
  532MOL0     H73368   6.742  10.610  -0.348  2.5911 -0.7851 -1.3998
  532MOL0     H73369   6.794  10.551  -0.194  2.8635  3.2360 -0.8537
  532MOL0     H73370   6.965  10.496  -0.350 -0.9850  0.0412  3.2439
  532MOL0     H73371   6.885  10.346  -0.307 -1.8378 -1.8825 -0.3113
  532MOL0     H73372   6.778  10.363  -0.539 -2.3610  0.4758  1.3112
  532MOL0     H73373   6.872  10.516  -0.561 -0.6711 -0.7069 -1.6611
  532MOL0     H73374   6.843  10.385  -0.763  1.2693  1.0724  1.6546
  532MOL0     H73375   6.861  10.331  -1.094  0.1473  1.4366  1.1149
  532MOL0     H73376   6.768  10.312  -0.945  2.2881  2.9688  1.3761
  532MOL0     H73377   6.838  10.173  -1.023 -0.2274  0.6341 -1.5778
  532MOL0     H73378   7.265  10.011  -1.236 -0.4431  2.5710  2.0188
  532MOL0     H73379   7.407   9.994  -1.456 -0.5170 -0.5472 -1.0543
  532MOL0     H73380   7.597  10.330  -1.564  0.7381 -0.1715  2.2704
  532MOL0     H73381   7.762  10.271  -1.547  0.9098  0.0545 -1.9741
  532MOL0     H73382   7.737  10.104  -1.716 -1.0503 -0.0248 -3.0246
  532MOL0     H73383   7.584  10.164  -1.759  1.4463 -0.2270 -1.4916
  532MOL0     H73384   7.725  10.401  -1.759  0.9867 -0.4736  2.8069
  532MOL0     H73385   7.728  10.291  -1.904  0.1749 -1.1029  0.2484
  532MOL0     H73386   7.933  10.177  -1.812  0.6848 -0.4531 -0.5470
  532MOL0     H73387   7.915  10.286  -1.668 -1.6086  0.9031 -0.5934
  532MOL0     H73388   7.914  10.468  -1.852 -1.1513 -0.7403  1.7052
  532MOL0     H73389   8.056  10.404  -1.767  0.7254  2.4722 -1.8532
  532MOL0     H73390   7.984  10.284  -2.035  0.9770  1.9926 -1.7101
  532MOL0     H73391   8.146  10.289  -1.947  0.0032 -0.3293  0.7966
  532MOL0     H73392   7.996  10.523  -2.084 -0.6283 -1.2363 -1.6419
  532MOL0     H73393   8.087  10.412  -2.172 -2.3436 -2.1971  0.9052
  532MOL0     H73394   8.227  10.609  -2.123  0.2228 -0.2195  1.3784
  532MOL0     H73395   8.310  10.466  -2.046 -0.6426 -2.1800  0.6946
  532MOL0     H73396   7.630  10.337  -1.323 -0.6089  1.1215 -2.1402
  532MOL0     H73397   7.476  10.355  -1.123  3.7921 -1.3742  2.5875
  532MOL0     H73398   7.283  10.178  -0.826  0.9317  1.7306  0.0123
  532MOL0     H73399   7.208  10.247  -0.599  0.8647  5.1662  0.3374
  532MOL0     H73400   5.672  10.257   0.337 -0.3862  0.9299 -1.9517
  532MOL0     H73401   5.544  10.442   0.399 -2.0530 -0.1520 -2.5526
  532MOL0     H73402   5.327  10.769   0.339  0.7818  0.5538  3.4682
  532MOL0     H73403   5.181  10.938   0.369  1.1659  0.9928  2.4540
  532MOL0     H73404   4.974  11.105   0.246 -0.4913 -0.1194  2.2489
  532MOL0     H73405   5.055  11.131   0.404 -1.7537 -0.4463  0.8444
  532MOL0     H73406   4.977  11.355   0.209 -0.8251  1.8159 -0.5207
  532MOL0     H73407   5.024  11.370   0.382  0.5276  0.4683 -0.5189
  532MOL0     H73408   4.771  11.265   0.236  0.0099 -1.7925  1.1400
  532MOL0     H73409   4.814  11.226   0.409 -0.9568  0.3702  0.4327
  532MOL0     H73410   4.642  11.412   0.365 -0.5887  1.4079  2.8115
  532MOL0     H73411   4.768  11.512   0.292 -0.9935  1.2349  1.3753
  532MOL0     H73412   4.907  11.547   0.679 -0.7982  2.8277 -1.0917
  532MOL0     H73413   5.395  11.197   0.105 -1.7906 -0.0309  0.5412
  532MOL0     H73414   5.600  10.956  -0.046  1.8419 -0.9364  1.7862
  532MOL0     H73415   5.581  11.132  -0.000 -2.6057  0.1514  0.4555
  532MOL0     H73416   5.683  11.018   0.092  0.2799 -3.1285  0.2301
  533MOL0     O73417   0.789   9.989   5.903  0.1831 -0.4027  0.3177
  533MOL0     C73418   0.805  10.089   5.973  0.9614  0.8268 -0.4962
  533MOL0     O73419   0.795  10.215   5.935 -0.2598 -0.0344 -0.3552
  533MOL0     C73420   0.738  10.258   5.817 -0.1538 -0.1085  0.0306
  533MOL0     C73421   0.624  10.199   5.768 -0.5182 -0.5648  0.2800
  533MOL0     C73422   0.574  10.260   5.647  0.8036 -0.5838 -0.0538
  533MOL0     C73423   0.627  10.381   5.590 -0.9674 -1.1713 -0.2402
  533MOL0     O73424   0.563  10.437   5.482 -0.5115  1.0689  0.1873
  533MOL0     C73425   0.464  10.528   5.513  0.3049 -0.4986  0.0481
  533MOL0     C73426   0.391  10.557   5.384  0.0296  0.3653  0.0875
  533MOL0     C73427   0.466  10.645   5.292 -0.4695 -0.1307 -0.6843
  533MOL0     C73428   0.444  10.796   5.320  0.4470  0.7997 -0.0994
  533MOL0     C73429   0.301  10.841   5.275  0.7564 -0.5353  0.1457
  533MOL0     C73430   0.288  10.997   5.250 -0.3166  0.7913 -0.3530
  533MOL0     C73431   0.157  11.047   5.178  0.2091  0.1492 -0.1275
  533MOL0     C73432   0.026  11.022   5.250 -0.0685 -0.5999  0.0182
  533MOL0     N73433  -0.018  11.136   5.331  0.0283 -0.0917 -0.0567
  533MOL0     C73434  -0.034  11.268   5.297 -0.3637  0.0695  0.0602
  533MOL0     C73435  -0.087  11.333   5.403 -0.2496 -0.5094  0.7765
  533MOL0     C73436  -0.119  11.478   5.396  0.3267 -0.1863  0.0065
  533MOL0     C73437  -0.258  11.522   5.360  0.2027  0.4381  1.0286
  533MOL0     C73438  -0.282  11.670   5.334  0.1459 -0.6015  1.0643
  533MOL0     C73439  -0.421  11.711   5.299 -0.3859  0.6388  0.5539
  533MOL0     O73440  -0.447  11.659   5.168 -0.1547 -0.0283  0.2957
  533MOL0     C73441  -0.580  11.679   5.127 -0.3802  0.6662 -0.2867
  533MOL0     C73442  -0.667  11.786   5.164 -0.1643 -0.6331  0.1278
  533MOL0     C73443  -0.795  11.788   5.115 -0.5768  0.2216  0.4984
  533MOL0     C73444  -0.885  11.894   5.182  0.1084  0.8130 -0.0595
  533MOL0     C73445  -0.843  11.690   5.022  0.8203  0.6963  0.7820
  533MOL0     C73446  -0.972  11.687   4.956 -0.2747 -0.0221 -0.1249
  533MOL0     O73447  -1.005  11.583   4.883  0.9647 -0.5490 -0.0971
  533MOL0     C73448  -1.144  11.567   4.856 -0.7594 -0.4222 -0.8304
  533MOL0     C73449  -1.217  11.456   4.898  0.6757  1.0252 -0.5800
  533MOL0     C73450  -1.346  11.439   4.852  1.2097  0.8886  0.1730
  533MOL0     C73451  -1.410  11.533   4.771 -0.4330 -1.1729 -0.8088
  533MOL0     O73452  -1.526  11.500   4.706 -0.2767 -0.3189  0.7158
  533MOL0     C73453  -1.608  11.590   4.629 -0.1943  0.2652 -0.6376
  533MOL0     C73454  -1.746  11.550   4.581  0.3493  0.2841  0.1925
  533MOL0     C73455  -1.859  11.571   4.686  0.3610 -0.3822 -0.1468
  533MOL0     C73456  -1.897  11.717   4.698  0.3685  0.1485 -0.5490
  533MOL0     C73457  -2.028  11.739   4.788  0.2212  0.7800 -0.3658
  533MOL0     C73458  -2.007  11.704   4.935  0.4080  0.1833  0.1885
  533MOL0     C73459  -2.105  11.784   5.028 -0.0678 -0.6362 -0.1132
  533MOL0     C73460  -2.121  11.730   5.164 -0.2462  0.3718  0.0205
  533MOL0    Cl73461  -1.963  11.700   5.237  0.8567  0.0735  0.0564
  533MOL0     C73462  -1.336  11.652   4.735  0.4682  0.1333  0.0139
  533MOL0     C73463  -1.202  11.667   4.780 -0.1775 -0.2224  0.1189
  533MOL0     O73464  -1.049  11.774   4.991 -0.5139 -0.0514 -0.1791
  533MOL0     C73465  -0.756  11.588   4.982 -0.1119 -0.3465 -0.2220
  533MOL0     C73466  -0.633  11.582   5.034 -0.3381  0.2222 -0.3925
  533MOL0     N73467  -0.103  11.245   5.495 -0.2123  0.2696 -0.0216
  533MOL0     N73468  -0.059  11.121   5.459  0.4593 -0.1053  0.6469
  533MOL0     C73469   0.747  10.427   5.647  0.3202  0.0650  0.6011
  533MOL0     C73470   0.806  10.365   5.755  0.8210  0.9259 -0.2653
  533MOL0     C73471   0.811  10.064   6.125  0.4698 -0.0738  0.9180
  533MOL0     C73472   0.746  10.145   6.218  0.0582 -0.5410  0.0338
  533MOL0     C73473   0.734  10.111   6.354  0.0726 -0.0601  0.5186
  533MOL0     C73474   0.798   9.992   6.398 -1.0253 -1.0085  0.2634
  533MOL0     O73475   0.798   9.952   6.524  0.4082  0.0589  0.4955
  533MOL0     C73476   0.726  10.027   6.625  0.9053  0.3269 -0.1036
  533MOL0     C73477   0.732   9.954   6.758 -0.5199  0.5917  0.9039
  533MOL0     C73478   0.693  10.044   6.871  0.1356  0.0869  0.2753
  533MOL0     C73479   0.811  10.115   6.939 -0.2919  0.0252  0.1403
  533MOL0     C73480   0.790  10.134   7.081  0.2246 -0.3964 -1.1732
  533MOL0     C73481   0.772  10.148   7.204 -0.5634  0.5692 -0.7834
  533MOL0     C73482   0.890   9.931   6.312  0.5448 -1.3018 -0.4770
  533MOL0     C73483   0.899   9.969   6.177 -0.1003 -0.2874 -0.6395
  533MOL0     C73484   1.017   9.896   6.098  0.7375 -0.7488 -0.0430
  533MOL0     H73485   0.589  10.110   5.819 -0.0556 -1.1039 -0.3316
  533MOL0     H73486   0.491  10.215   5.593 -0.1663  1.6807 -0.5738
  533MOL0     H73487   0.506  10.618   5.559 -2.6574 -0.5574  3.2743
  533MOL0     H73488   0.393  10.486   5.585  0.7252 -2.5383 -0.6674
  533MOL0     H73489   0.370  10.461   5.334 -1.6689  0.8762 -0.2401
  533MOL0     H73490   0.296  10.606   5.409 -0.5570 -0.5847 -0.1811
  533MOL0     H73491   0.573  10.623   5.284  0.1341  2.2419 -0.0560
  533MOL0     H73492   0.445  10.615   5.189  4.1976 -0.1591 -1.8647
  533MOL0     H73493   0.459  10.819   5.426 -0.7307 -3.3306  1.1645
  533MOL0     H73494   0.518  10.848   5.258  1.3789 -1.5842 -1.1110
  533MOL0     H73495   0.230  10.801   5.348 -1.4845  1.7181 -0.6505
  533MOL0     H73496   0.283  10.801   5.175 -0.1439  0.2843 -0.0420
  533MOL0     H73497   0.306  11.052   5.343  0.7593 -0.9711  0.5362
  533MOL0     H73498   0.370  11.027   5.184  0.0190 -1.1587 -0.9040
  533MOL0     H73499   0.152  10.986   5.087 -0.7299  0.6576 -0.4310
  533MOL0     H73500   0.155  11.154   5.154 -1.2940  0.1561 -0.0746
  533MOL0     H73501  -0.059  11.011   5.182 -1.2069 -2.1159  1.6229
  533MOL0     H73502   0.034  10.936   5.317  1.7648 -1.7751 -1.5648
  533MOL0     H73503  -0.005  11.314   5.203  0.7630 -2.0603 -0.7136
  533MOL0     H73504  -0.049  11.519   5.322  0.4438 -2.4955 -1.2459
  533MOL0     H73505  -0.098  11.529   5.490 -1.5287 -2.4785  1.7814
  533MOL0     H73506  -0.284  11.469   5.268 -1.3059  0.7001  1.2718
  533MOL0     H73507  -0.330  11.484   5.433 -1.5096 -0.8207 -1.1972
  533MOL0     H73508  -0.255  11.720   5.428  1.3049  0.0974  0.3949
  533MOL0     H73509  -0.212  11.705   5.258  0.3890  0.9441  1.9634
  533MOL0     H73510  -0.483  11.667   5.378 -1.6344  0.0232 -0.7225
  533MOL0     H73511  -0.433  11.819   5.305 -0.1778  0.8587 -1.9940
  533MOL0     H73512  -0.639  11.863   5.235 -2.6800 -0.0387  0.5992
  533MOL0     H73513  -0.829  11.938   5.266  0.2515  2.2850 -0.8965
  533MOL0     H73514  -0.971  11.854   5.236  1.1582 -2.6606 -0.7310
  533MOL0     H73515  -0.916  11.973   5.113 -1.8647 -1.1576 -1.5396
  533MOL0     H73516  -1.184  11.372   4.958 -4.9764  1.6482  4.2753
  533MOL0     H73517  -1.402  11.347   4.863 -0.5779  1.6819 -1.6872
  533MOL0     H73518  -1.618  11.672   4.700 -1.2994 -0.3461 -0.0669
  533MOL0     H73519  -1.550  11.604   4.536 -1.1549 -1.3906 -1.5252
  533MOL0     H73520  -1.763  11.622   4.501 -1.4266 -0.4055 -0.0883
  533MOL0     H73521  -1.762  11.446   4.549  0.9625 -0.5460  2.3548
  533MOL0     H73522  -1.832  11.542   4.788 -0.2140  2.3169  0.8541
  533MOL0     H73523  -1.949  11.516   4.656 -0.2650  0.0425  0.9334
  533MOL0     H73524  -1.919  11.749   4.595  0.4446  4.5232  0.5826
  533MOL0     H73525  -1.816  11.788   4.720  3.0314 -2.2641 -1.8865
  533MOL0     H73526  -2.053  11.844   4.774  1.4693  1.1925  0.3548
  533MOL0     H73527  -2.111  11.678   4.750  2.3283 -2.8864  0.3463
  533MOL0     H73528  -1.906  11.711   4.977  0.7191  4.0866 -0.8097
  533MOL0     H73529  -2.030  11.597   4.945  0.3490  0.0573 -1.1426
  533MOL0     H73530  -2.208  11.777   4.991 -0.7308 -0.5917  1.6393
  533MOL0     H73531  -2.077  11.890   5.027 -1.1478 -0.3299  0.4185
  533MOL0     H73532  -2.177  11.636   5.170  2.8989 -1.7297 -0.6610
  533MOL0     H73533  -2.174  11.803   5.225 -0.9815 -0.6351  0.6332
  533MOL0     H73534  -1.381  11.719   4.662 -0.0463 -0.8777 -0.6208
  533MOL0     H73535  -1.137  11.748   4.746  2.4789 -1.8401  1.0211
  533MOL0     H73536  -0.785  11.512   4.910 -1.0271 -1.6585  1.4712
  533MOL0     H73537  -0.574  11.495   5.006  0.6709  0.1414  1.7639
  533MOL0     H73538   0.801  10.509   5.602  1.9426 -1.4484 -0.3404
  533MOL0     H73539   0.900  10.400   5.796  1.9551 -1.1026 -0.9876
  533MOL0     H73540   0.696  10.236   6.188 -0.0089 -1.1441 -1.7779
  533MOL0     H73541   0.679  10.168   6.428 -0.6382 -2.1955  1.7043
  533MOL0     H73542   0.772  10.126   6.633  0.8429  0.5102 -1.7626
  533MOL0     H73543   0.622  10.028   6.590  1.1470 -3.0058 -1.2942
  533MOL0     H73544   0.837   9.925   6.770 -1.3688 -2.9029  1.0440
  533MOL0     H73545   0.665   9.869   6.769 -0.2608  0.6099  3.0002
  533MOL0     H73546   0.626  10.124   6.838  2.6417  1.8124 -0.9124
  533MOL0     H73547   0.639   9.986   6.946 -1.4702 -0.3735 -1.1705
  533MOL0     H73548   0.834  10.214   6.900  2.0522 -1.1812 -1.8501
  533MOL0     H73549   0.906  10.061   6.927  1.6418  2.9827  1.2008
  533MOL0     H73550   0.759  10.174   7.308 -2.1812 -0.3206 -0.7360
  533MOL0     H73551   0.951   9.851   6.353  1.7278 -1.1245 -1.8221
  533MOL0     H73552   1.091   9.850   6.164  2.3800  2.3345  0.4586
  533MOL0     H73553   0.975   9.816   6.036 -0.1986 -1.3843  1.3609
  533MOL0     H73554   1.071   9.965   6.032 -1.0140  0.8432  0.1182
  534MOL0     O73555   4.064   2.638   8.637  0.4731  0.1372  0.5515
  534MOL0     C73556   4.050   2.552   8.558  0.5049  0.0901  0.2587
  534MOL0     O73557   4.151   2.506   8.470 -0.7998 -0.0780 -0.6487
  534MOL0     C73558   4.276   2.558   8.500 -0.3827 -0.2893 -0.8534
  534MOL0     C73559   4.308   2.690   8.456 -0.0414 -0.0823  0.3059
  534MOL0     C73560   4.436   2.746   8.492  0.7546 -0.6299  0.0251
  534MOL0     C73561   4.527   2.675   8.566  0.7002  0.4179  0.2549
  534MOL0     O73562   4.644   2.721   8.610 -0.9166 -0.2667  0.7401
  534MOL0     C73563   4.652   2.840   8.680  0.2044  0.2264 -0.5347
  534MOL0     C73564   4.594   2.842   8.819 -0.1727 -0.2082 -0.3091
  534MOL0     C73565   4.447   2.865   8.848  0.2586 -1.2481  0.3126
  534MOL0     C73566   4.395   3.003   8.812 -0.1243  0.0693 -0.2545
  534MOL0     C73567   4.325   3.011   8.682  0.5153 -1.3222 -0.3431
  534MOL0     C73568   4.245   3.138   8.656  0.8794 -0.3335 -0.3710
  534MOL0     C73569   4.112   3.137   8.741  0.1937 -0.3829  0.5291
  534MOL0     C73570   4.011   3.036   8.680 -0.4247 -0.3027 -0.4605
  534MOL0     N73571   3.875   3.074   8.707 -0.3155 -0.3466 -0.3145
  534MOL0     C73572   3.805   3.195   8.674  0.2823  0.5468 -0.8189
  534MOL0     C73573   3.678   3.183   8.727 -0.0219 -0.4647 -0.1610
  534MOL0     C73574   3.569   3.291   8.714 -0.4202  0.5320  0.4631
  534MOL0     C73575   3.480   3.274   8.590  0.1790  0.5170 -0.2969
  534MOL0     C73576   3.410   3.411   8.567  0.0078  0.6887  0.4440
  534MOL0     C73577   3.308   3.398   8.452 -0.5354 -0.2454 -0.6932
  534MOL0     O73578   3.345   3.311   8.351  0.2006  0.1940 -0.5998
  534MOL0     C73579   3.245   3.229   8.308 -0.5752 -0.9154  0.4469
  534MOL0     C73580   3.126   3.266   8.249  0.5639  0.0901 -0.2333
  534MOL0     C73581   3.045   3.174   8.177 -0.6781  0.7529  0.4657
  534MOL0     C73582   2.931   3.221   8.098 -0.4594 -0.7613 -0.3132
  534MOL0     C73583   3.088   3.041   8.165 -0.3531  0.8267  0.6094
  534MOL0     C73584   3.004   2.947   8.090  0.1341 -0.2322  0.5833
  534MOL0     O73585   3.052   2.904   7.968  0.1558  0.4670  0.0043
  534MOL0     C73586   2.993   2.799   7.899 -0.0871 -0.1198 -0.8136
  534MOL0     C73587   3.084   2.696   7.854 -0.0172 -0.1583 -0.4254
  534MOL0     C73588   3.034   2.593   7.770  0.5345 -0.5507  0.1717
  534MOL0     C73589   2.893   2.603   7.723  0.3210  0.0068 -0.1924
  534MOL0     O73590   2.845   2.498   7.640  0.1674 -0.5675  0.2335
  534MOL0     C73591   2.937   2.442   7.539 -0.7601  0.4693 -0.5653
  534MOL0     C73592   2.852   2.359   7.432 -0.7143 -0.0735 -0.2299
  534MOL0     C73593   2.784   2.446   7.326 -0.1822  0.2072 -0.7593
  534MOL0     C73594   2.690   2.349   7.251  0.6130 -0.0180  0.5327
  534MOL0     C73595   2.591   2.424   7.156 -0.0392 -0.0665 -0.8337
  534MOL0     C73596   2.525   2.537   7.233 -0.2633 -0.3238 -0.2422
  534MOL0     C73597   2.385   2.571   7.173  0.4820 -0.7952 -0.3747
  534MOL0     C73598   2.395   2.662   7.055  0.3311  0.7308  0.0046
  534MOL0    Cl73599   2.246   2.669   6.961 -0.1198  0.2402 -0.0109
  534MOL0     C73600   2.817   2.701   7.776 -0.0620 -0.5788  0.3857
  534MOL0     C73601   2.863   2.797   7.866  0.2756 -0.5439  0.4336
  534MOL0     O73602   2.894   2.919   8.137 -1.0170  0.6704 -0.6272
  534MOL0     C73603   3.203   3.000   8.237 -0.8236  0.5050 -0.3046
  534MOL0     C73604   3.274   3.093   8.312 -0.2113  0.5398  0.1464
  534MOL0     N73605   3.675   3.055   8.787 -0.1826 -0.6897 -0.4636
  534MOL0     N73606   3.789   2.998   8.785 -0.2169  0.7102 -0.5143
  534MOL0     C73607   4.491   2.540   8.604 -0.4601 -0.6693 -0.2237
  534MOL0     C73608   4.376   2.479   8.566  0.3362 -0.2561  0.1551
  534MOL0     C73609   3.914   2.480   8.538  0.1507  0.1491 -0.8579
  534MOL0     C73610   3.909   2.372   8.451 -0.8133  0.8152 -0.3685
  534MOL0     C73611   3.788   2.297   8.441  0.9160  0.3011 -0.1449
  534MOL0     C73612   3.670   2.331   8.502 -0.2619 -0.6708 -0.5833
  534MOL0     O73613   3.562   2.268   8.472 -0.2987 -0.2455 -0.1453
  534MOL0     C73614   3.456   2.337   8.390 -0.1868  0.3662 -1.2702
  534MOL0     C73615   3.360   2.229   8.356  0.4733 -0.6535  1.1033
  534MOL0     C73616   3.258   2.293   8.266  0.1023  0.1377  0.2739
  534MOL0     C73617   3.149   2.194   8.238 -0.4708 -0.5295 -0.3366
  534MOL0     C73618   3.017   2.249   8.187 -0.5357  0.2092 -0.0403
  534MOL0     C73619   2.915   2.283   8.129  0.2372 -0.9729 -0.8438
  534MOL0     C73620   3.672   2.451   8.576 -0.5378 -0.8720 -0.4285
  534MOL0     C73621   3.790   2.519   8.599 -0.5719 -0.5034  0.5178
  534MOL0     C73622   3.776   2.641   8.695  0.1342 -0.8687  0.4391
  534MOL0     H73623   4.224   2.720   8.395 -0.0400 -0.3686  0.1626
  534MOL0     H73624   4.436   2.853   8.473  0.7818 -0.5048  0.6812
  534MOL0     H73625   4.620   2.930   8.626  1.2265  1.7723  1.3285
  534MOL0     H73626   4.760   2.847   8.699 -0.0652 -2.1788  2.7338
  534MOL0     H73627   4.620   2.749   8.872  1.9790  0.4541 -0.0985
  534MOL0     H73628   4.643   2.923   8.874 -0.4262 -0.7566  0.7752
  534MOL0     H73629   4.386   2.795   8.791  0.7332 -2.2818  1.0156
  534MOL0     H73630   4.430   2.846   8.955  0.9321 -0.4596  0.5762
  534MOL0     H73631   4.329   3.032   8.894 -2.2343  0.6922 -2.0736
  534MOL0     H73632   4.470   3.083   8.811 -1.7740  1.6744 -0.3092
  534MOL0     H73633   4.262   2.925   8.655  1.9022 -2.8142  0.9538
  534MOL0     H73634   4.405   3.024   8.609 -0.3810  2.5822 -0.8385
  534MOL0     H73635   4.299   3.226   8.690 -1.7244  1.8186 -1.4846
  534MOL0     H73636   4.221   3.152   8.550  0.8473  1.6992 -0.1220
  534MOL0     H73637   4.066   3.236   8.731  1.8936  0.3114 -0.8981
  534MOL0     H73638   4.140   3.112   8.844  2.9177 -3.9792 -0.8548
  534MOL0     H73639   4.023   3.031   8.572  2.7347  0.8958 -0.2952
  534MOL0     H73640   4.026   2.931   8.706 -1.7336 -0.6411 -1.0026
  534MOL0     H73641   3.848   3.281   8.624  1.4933  0.7403  0.4769
  534MOL0     H73642   3.620   3.386   8.731  0.6665  0.3219 -1.3960
  534MOL0     H73643   3.495   3.287   8.795  1.4156 -2.3922  2.1792
  534MOL0     H73644   3.534   3.258   8.496 -2.9733  0.3880 -2.2270
  534MOL0     H73645   3.410   3.192   8.610 -0.0866  1.1244  1.4658
  534MOL0     H73646   3.361   3.449   8.657  0.7617 -1.0060  1.6154
  534MOL0     H73647   3.487   3.479   8.529  0.9483 -0.5898 -0.0050
  534MOL0     H73648   3.213   3.373   8.499  0.1123  1.3869  1.6813
  534MOL0     H73649   3.286   3.499   8.416 -3.2545 -0.6289 -0.3441
  534MOL0     H73650   3.090   3.368   8.243 -2.0755 -0.8186 -2.1493
  534MOL0     H73651   2.924   3.330   8.103 -0.0341 -0.7695  0.6920
  534MOL0     H73652   2.831   3.200   8.138 -0.4343  1.0316  0.7955
  534MOL0     H73653   2.939   3.194   7.992 -0.9115 -1.3252 -0.2092
  534MOL0     H73654   3.187   2.702   7.889 -0.9120  4.0934  2.2390
  534MOL0     H73655   3.090   2.508   7.733  0.6181 -0.1034 -0.7609
  534MOL0     H73656   3.001   2.517   7.493  0.0951 -0.1923 -0.4710
  534MOL0     H73657   3.014   2.384   7.590 -1.3428 -0.8773 -1.1615
  534MOL0     H73658   2.922   2.289   7.384  1.2449  1.0647  0.8453
  534MOL0     H73659   2.784   2.301   7.496  0.6748 -0.9782  0.4880
  534MOL0     H73660   2.859   2.478   7.254  0.5693 -2.8817 -1.5006
  534MOL0     H73661   2.726   2.525   7.375 -2.5722 -1.2434 -1.0510
  534MOL0     H73662   2.636   2.275   7.310 -2.2583 -0.6488 -2.5508
  534MOL0     H73663   2.762   2.298   7.187 -1.7624 -3.2936  0.2491
  534MOL0     H73664   2.658   2.468   7.081  1.3915 -1.2611 -0.3142
  534MOL0     H73665   2.524   2.361   7.097 -2.3981 -1.2313  2.7643
  534MOL0     H73666   2.588   2.626   7.219  0.2153 -0.1277  2.5367
  534MOL0     H73667   2.513   2.532   7.341 -0.0324  0.7804 -0.1427
  534MOL0     H73668   2.323   2.622   7.248  1.3960  1.8597 -1.2970
  534MOL0     H73669   2.319   2.489   7.143 -0.8829 -0.4046  1.3874
  534MOL0     H73670   2.472   2.614   6.994  0.2199  1.2370 -0.5488
  534MOL0     H73671   2.435   2.760   7.081  1.8926 -0.0152  0.5720
  534MOL0     H73672   2.718   2.723   7.737  1.1812  0.3382 -2.5485
  534MOL0     H73673   2.805   2.887   7.886  0.8797 -0.3048  1.1772
  534MOL0     H73674   3.233   2.896   8.239 -2.2089  0.0559 -1.0332
  534MOL0     H73675   3.364   3.062   8.365 -0.8020  0.2681  1.0184
  534MOL0     H73676   4.563   2.494   8.672 -1.8809  0.7740  2.4015
  534MOL0     H73677   4.342   2.379   8.589 -1.2143  0.2583  0.2273
  534MOL0     H73678   4.000   2.353   8.395 -0.3613  2.3715 -0.2165
  534MOL0     H73679   3.786   2.217   8.368  0.0393 -0.0905  0.2965
  534MOL0     H73680   3.407   2.414   8.450  2.2887  1.9888 -1.1573
  534MOL0     H73681   3.497   2.383   8.300 -2.7724  0.8894 -2.2397
  534MOL0     H73682   3.320   2.183   8.447  0.0103  0.6017  1.5517
  534MOL0     H73683   3.409   2.150   8.298  1.0271 -1.2897  2.3926
  534MOL0     H73684   3.208   2.374   8.320 -0.7319 -0.9204  1.1322
  534MOL0     H73685   3.297   2.336   8.173  0.9360 -0.3527  0.3922
  534MOL0     H73686   3.126   2.141   8.331 -0.0981 -0.3035 -0.1157
  534MOL0     H73687   3.189   2.116   8.173  1.5025  0.3527 -0.2485
  534MOL0     H73688   2.817   2.310   8.095 -0.7378 -1.5410  1.3741
  534MOL0     H73689   3.576   2.483   8.615  1.0098 -0.6786  3.7673
  534MOL0     H73690   3.671   2.663   8.714  0.3336  0.6764 -0.1357
  534MOL0     H73691   3.818   2.611   8.792  0.8549 -2.1770 -0.2498
  534MOL0     H73692   3.815   2.730   8.645 -2.1986 -0.7113 -1.2531
  535MOL0     O73693   5.047   5.725   0.242 -0.4012 -0.0744  0.1425
  535MOL0     C73694   5.061   5.798   0.339 -0.9589  0.4944 -0.2059
  535MOL0     O73695   5.158   5.802   0.422 -0.3858  0.8081  0.0412
  535MOL0     C73696   5.250   5.707   0.432 -0.6553  0.9248 -0.2722
  535MOL0     C73697   5.241   5.571   0.383  0.3161 -0.9872 -0.1982
  535MOL0     C73698   5.354   5.490   0.404  0.8325  0.6846 -0.2594
  535MOL0     C73699   5.460   5.531   0.487  0.2470  0.2874 -0.0527
  535MOL0     O73700   5.561   5.445   0.512  0.3994  0.4791 -0.1192
  535MOL0     C73701   5.533   5.355   0.617 -0.1833 -0.2964  0.0206
  535MOL0     C73702   5.645   5.269   0.656 -0.1202 -0.6273  0.2216
  535MOL0     C73703   5.612   5.198   0.785  0.7948 -0.6001 -0.2373
  535MOL0     C73704   5.497   5.087   0.775 -0.2772  1.0088  0.3612
  535MOL0     C73705   5.476   4.991   0.897 -0.6336 -0.2261 -0.2724
  535MOL0     C73706   5.414   5.063   1.010 -0.2253  0.1445  0.1083
  535MOL0     C73707   5.403   4.966   1.131 -0.4789  0.2887  0.8616
  535MOL0     C73708   5.365   5.035   1.258  0.0347 -0.4581 -0.4630
  535MOL0     N73709   5.478   5.130   1.299  1.5396 -0.3379  0.1381
  535MOL0     C73710   5.488   5.258   1.260  0.3974 -0.5124  1.0579
  535MOL0     C73711   5.609   5.293   1.306 -0.5173  0.5748  0.3964
  535MOL0     C73712   5.680   5.424   1.292 -0.8089 -0.8743  0.2344
  535MOL0     C73713   5.812   5.426   1.199  0.2545 -0.3668 -0.2203
  535MOL0     C73714   5.768   5.432   1.059 -0.1700  0.3544  0.1852
  535MOL0     C73715   5.889   5.427   0.966 -0.1721 -0.6311  0.3398
  535MOL0     O73716   5.976   5.541   0.962 -0.1045  0.3386 -0.9374
  535MOL0     C73717   5.923   5.656   0.921 -0.8842 -0.2944  0.0314
  535MOL0     C73718   6.001   5.771   0.928 -0.0108 -0.4365  0.0392
  535MOL0     C73719   5.967   5.906   0.911 -0.2957 -0.1598  0.4930
  535MOL0     C73720   6.069   6.011   0.938 -0.5357 -0.1316 -0.1671
  535MOL0     C73721   5.832   5.931   0.865 -0.1612  1.0064  0.4287
  535MOL0     C73722   5.767   6.066   0.858 -0.1384  0.1799  0.4398
  535MOL0     O73723   5.830   6.171   0.910 -0.0139  0.3516  0.2320
  535MOL0     C73724   5.782   6.300   0.887 -0.8259 -0.3851 -0.0339
  535MOL0     C73725   5.867   6.387   0.825 -0.9407  0.8455 -0.2471
  535MOL0     C73726   5.831   6.525   0.812  0.0862  0.6756  0.8396
  535MOL0     C73727   5.698   6.568   0.859 -0.6099  0.2697 -0.0790
  535MOL0     O73728   5.645   6.689   0.848  0.1434 -0.0207 -0.4238
  535MOL0     C73729   5.711   6.792   0.771  0.6468 -0.4438 -0.0549
  535MOL0     C73730   5.642   6.934   0.802 -0.6130  1.5080  0.3351
  535MOL0     C73731   5.502   6.944   0.742 -0.3460  0.0502  0.4572
  535MOL0     C73732   5.490   6.921   0.592  0.2822  0.5607 -0.4163
  535MOL0     C73733   5.386   7.004   0.520 -0.1761 -0.6371 -1.5653
  535MOL0     C73734   5.401   6.993   0.375 -0.6315  1.1154 -0.0047
  535MOL0     C73735   5.297   7.075   0.310  0.3977 -0.3220  0.0756
  535MOL0     C73736   5.302   7.072   0.153 -0.5570 -0.0395  0.0314
  535MOL0    Cl73737   5.311   6.890   0.083 -0.2481 -0.2434  0.2221
  535MOL0     C73738   5.615   6.472   0.922 -0.4653 -0.2884  0.6214
  535MOL0     C73739   5.659   6.344   0.934  0.7076 -0.0129  0.3538
  535MOL0     O73740   5.671   6.075   0.788 -0.4714 -0.5125 -0.4033
  535MOL0     C73741   5.758   5.813   0.837  0.0366 -0.0446 -0.3282
  535MOL0     C73742   5.799   5.681   0.863  0.0649  0.1190  0.2557
  535MOL0     N73743   5.662   5.191   1.377 -0.2126 -0.2323 -0.1382
  535MOL0     N73744   5.581   5.091   1.384 -0.3790 -0.3263  0.2379
  535MOL0     C73745   5.476   5.662   0.531 -0.3119  0.7912  0.0758
  535MOL0     C73746   5.363   5.743   0.503  1.2937 -0.2671 -0.3684
  535MOL0     C73747   4.960   5.900   0.363 -0.2217  0.4919 -0.4681
  535MOL0     C73748   4.935   5.936   0.500  0.7092  0.0126 -0.2932
  535MOL0     C73749   4.828   6.019   0.527 -1.5571  0.4281  0.0815
  535MOL0     C73750   4.741   6.069   0.423 -0.2506 -0.3585  0.1257
  535MOL0     O73751   4.637   6.148   0.464 -0.0956 -0.3217 -0.2118
  535MOL0     C73752   4.539   6.182   0.372  0.5995  0.0295 -0.4388
  535MOL0     C73753   4.472   6.317   0.416 -0.0308  0.1307 -0.3636
  535MOL0     C73754   4.326   6.341   0.351  0.0772 -0.8092 -0.6124
  535MOL0     C73755   4.227   6.231   0.377  0.8927  1.0880  0.3981
  535MOL0     C73756   4.093   6.289   0.352 -0.3130  0.5665 -0.4284
  535MOL0     C73757   3.993   6.349   0.318  1.0444 -1.2542 -1.0737
  535MOL0     C73758   4.764   6.034   0.293  0.1004 -0.2540  0.6296
  535MOL0     C73759   4.877   5.952   0.258  0.7529 -0.4010 -0.7017
  535MOL0     C73760   4.907   5.938   0.112  0.6968  0.0869  0.4666
  535MOL0     H73761   5.161   5.523   0.327 -0.4332 -1.7465  1.4687
  535MOL0     H73762   5.349   5.386   0.372  1.5590  0.5282  0.1036
  535MOL0     H73763   5.446   5.298   0.582  0.4337 -0.1004 -1.9310
  535MOL0     H73764   5.507   5.416   0.704  2.5727 -1.5584  1.8721
  535MOL0     H73765   5.663   5.191   0.581 -0.7452 -1.8595  1.2982
  535MOL0     H73766   5.738   5.326   0.654 -0.6665  0.5502  3.0613
  535MOL0     H73767   5.702   5.148   0.823  1.3293 -0.5236 -1.3693
  535MOL0     H73768   5.574   5.267   0.862 -0.2037 -2.3692  0.9361
  535MOL0     H73769   5.405   5.137   0.745 -1.5014  0.0846  2.3435
  535MOL0     H73770   5.537   5.023   0.695  1.8511  2.7818 -0.1087
  535MOL0     H73771   5.572   4.948   0.930 -0.2749  1.4790  1.0333
  535MOL0     H73772   5.403   4.917   0.863 -1.4059  0.1524  0.5487
  535MOL0     H73773   5.481   5.147   1.030 -0.7149  0.4704  0.4286
  535MOL0     H73774   5.313   5.099   0.990 -0.0568  1.0994  0.8933
  535MOL0     H73775   5.496   4.915   1.157 -1.6634 -2.5555 -0.0418
  535MOL0     H73776   5.342   4.880   1.101 -1.0514  1.1896 -0.7023
  535MOL0     H73777   5.275   5.093   1.237 -0.2361  0.3929  2.4763
  535MOL0     H73778   5.351   4.969   1.344 -2.2670  1.2408  0.6033
  535MOL0     H73779   5.398   5.305   1.220 -0.8170 -2.6187  1.1472
  535MOL0     H73780   5.716   5.438   1.395 -1.3498 -0.4847  0.3765
  535MOL0     H73781   5.603   5.501   1.280 -0.4581 -0.3129  1.4232
  535MOL0     H73782   5.877   5.510   1.226  2.3521 -2.3979  1.4767
  535MOL0     H73783   5.872   5.336   1.211 -1.3847 -2.1181 -3.7804
  535MOL0     H73784   5.702   5.348   1.037 -0.1306  0.8822 -2.1913
  535MOL0     H73785   5.711   5.524   1.046 -0.3909  0.3207  0.8596
  535MOL0     H73786   5.950   5.346   1.008  1.5939  0.4743  0.0169
  535MOL0     H73787   5.850   5.404   0.867 -1.1695  4.6456 -0.8094
  535MOL0     H73788   6.107   5.755   0.943 -0.2533 -4.0386 -1.2619
  535MOL0     H73789   6.173   5.975   0.936 -0.5724 -0.6581  2.8931
  535MOL0     H73790   6.055   6.054   1.038  0.2573  2.9313 -1.2325
  535MOL0     H73791   6.036   6.093   0.873  0.0247 -0.0028 -0.3009
  535MOL0     H73792   5.965   6.355   0.790 -1.3111  1.0539 -1.5262
  535MOL0     H73793   5.899   6.599   0.771  3.9489 -2.3094  1.2041
  535MOL0     H73794   5.817   6.808   0.794  0.5218  1.4998 -0.7067
  535MOL0     H73795   5.700   6.765   0.666 -0.5285  2.8750 -0.8901
  535MOL0     H73796   5.639   6.941   0.912  1.9812 -3.3381  1.0195
  535MOL0     H73797   5.706   7.010   0.757  0.0326 -0.4855 -2.3612
  535MOL0     H73798   5.462   7.041   0.773  0.2784  1.3226 -2.3908
  535MOL0     H73799   5.442   6.866   0.789  1.9050 -1.5521  0.8374
  535MOL0     H73800   5.455   6.819   0.573  0.7166 -0.2666  2.6085
  535MOL0     H73801   5.591   6.923   0.551  0.5175 -0.8961  0.0578
  535MOL0     H73802   5.289   6.972   0.559  0.3152  0.2092  0.4718
  535MOL0     H73803   5.390   7.110   0.547  2.7712 -1.4144  1.7745
  535MOL0     H73804   5.381   6.892   0.339  2.0011  0.6294 -0.2755
  535MOL0     H73805   5.506   7.012   0.349 -1.4794  2.9087 -2.5201
  535MOL0     H73806   5.303   7.179   0.342 -4.3669  0.1474  0.1680
  535MOL0     H73807   5.200   7.033   0.339  0.9767 -2.6034 -1.0071
  535MOL0     H73808   5.396   7.117   0.119 -0.6503  1.3128  1.4318
  535MOL0     H73809   5.214   7.123   0.115 -1.2252 -0.0023  1.5501
  535MOL0     H73810   5.515   6.506   0.949 -1.2617 -1.8701 -0.1571
  535MOL0     H73811   5.602   6.269   0.989  0.2634 -0.8490 -1.1900
  535MOL0     H73812   5.655   5.840   0.815  0.3757  1.4482 -0.2121
  535MOL0     H73813   5.728   5.603   0.837  1.9631 -1.5639 -0.0220
  535MOL0     H73814   5.570   5.711   0.554  0.8175 -1.1890 -0.0479
  535MOL0     H73815   5.355   5.847   0.531  0.5834  0.1397 -1.9934
  535MOL0     H73816   4.999   5.896   0.577 -0.4055  0.1101  0.7133
  535MOL0     H73817   4.809   6.047   0.630  1.3795  2.2308  0.2367
  535MOL0     H73818   4.570   6.192   0.267  1.1458 -2.1220 -0.5240
  535MOL0     H73819   4.459   6.108   0.375 -0.4708  1.1197 -1.1050
  535MOL0     H73820   4.531   6.407   0.396 -1.7689  0.9217 -2.3708
  535MOL0     H73821   4.445   6.317   0.522  3.2659  0.6418  0.5866
  535MOL0     H73822   4.286   6.435   0.390  2.7455  1.1377 -2.1888
  535MOL0     H73823   4.340   6.371   0.246 -2.1493  4.4765  0.2747
  535MOL0     H73824   4.242   6.212   0.484  1.6245  2.2325  0.5178
  535MOL0     H73825   4.243   6.133   0.330  3.8774 -0.6172  4.3686
  535MOL0     H73826   3.902   6.395   0.286  0.9462 -0.0542  0.7480
  535MOL0     H73827   4.705   6.066   0.207  0.4834 -2.2203 -0.4211
  535MOL0     H73828   5.012   5.924   0.083  1.4661  1.2846  2.4554
  535MOL0     H73829   4.836   5.863   0.077 -1.5728  2.5646 -0.5439
  535MOL0     H73830   4.875   6.028   0.059  0.9663 -0.4312 -0.6055
  536MOL0     O73831   4.348   2.057   1.903  0.3499 -1.1477 -0.0977
  536MOL0     C73832   4.399   2.164   1.928 -0.4728  0.2733 -0.0284
  536MOL0     O73833   4.477   2.187   2.043 -0.6165 -0.5000 -0.1509
  536MOL0     C73834   4.545   2.310   2.062 -0.1885 -0.5730 -0.6285
  536MOL0     C73835   4.496   2.409   2.147 -0.6447  0.4185  0.1829
  536MOL0     C73836   4.563   2.531   2.163  0.1307 -0.1151 -0.4294
  536MOL0     C73837   4.691   2.546   2.101 -0.1520  0.0767  0.8368
  536MOL0     O73838   4.772   2.657   2.110  0.1995  0.0608  0.0193
  536MOL0     C73839   4.725   2.789   2.126  0.0895 -0.3069  0.1955
  536MOL0     C73840   4.752   2.870   1.998  0.5566  0.2080  0.1923
  536MOL0     C73841   4.908   2.869   1.961  1.8792 -1.1594 -0.1250
  536MOL0     C73842   4.956   2.991   1.880  0.4885 -0.3772 -0.3284
  536MOL0     C73843   5.108   2.998   1.857 -1.3460 -1.0416  1.0783
  536MOL0     C73844   5.162   3.136   1.847 -0.7296 -0.3959 -0.8362
  536MOL0     C73845   5.302   3.137   1.787  0.6658 -0.5546  0.0247
  536MOL0     C73846   5.380   3.274   1.780 -0.2881 -0.1831  0.0087
  536MOL0     N73847   5.428   3.295   1.919 -0.3531 -0.6730 -0.7423
  536MOL0     C73848   5.550   3.271   1.961  0.3129  0.7516 -0.5306
  536MOL0     C73849   5.550   3.286   2.093 -0.0098 -0.0339 -0.7318
  536MOL0     C73850   5.672   3.272   2.168 -0.9971 -0.2335 -0.2098
  536MOL0     C73851   5.738   3.407   2.197 -0.1666 -0.3490  0.4435
  536MOL0     C73852   5.861   3.376   2.281  0.2137 -0.1883  0.7160
  536MOL0     C73853   5.949   3.498   2.311  0.9749  0.5470  0.3133
  536MOL0     O73854   6.073   3.497   2.235  0.3087  0.3600 -0.5343
  536MOL0     C73855   6.176   3.412   2.269 -0.0198 -0.8472 -0.5284
  536MOL0     C73856   6.182   3.327   2.375 -0.6847 -0.3304  0.4633
  536MOL0     C73857   6.285   3.232   2.391  0.2136 -0.1779 -0.3325
  536MOL0     C73858   6.255   3.136   2.504 -0.1004 -0.1943  0.4482
  536MOL0     C73859   6.388   3.229   2.295 -0.9828 -0.4095 -0.6679
  536MOL0     C73860   6.503   3.136   2.293  0.4086  0.7595  0.2589
  536MOL0     O73861   6.607   3.164   2.207 -0.0365 -0.6483  0.1890
  536MOL0     C73862   6.724   3.095   2.207 -0.2629  0.3560  0.7172
  536MOL0     C73863   6.823   3.141   2.110 -0.3440  0.7677  0.3600
  536MOL0     C73864   6.931   3.068   2.078 -0.2477 -0.8732 -0.2695
  536MOL0     C73865   6.957   2.943   2.147  0.6158 -0.2995 -0.1304
  536MOL0     O73866   7.059   2.869   2.104  0.3782  0.3923 -0.3876
  536MOL0     C73867   7.142   2.809   2.205 -0.2302 -0.0250  0.1124
  536MOL0     C73868   7.282   2.776   2.151 -0.5190  0.5842 -0.5165
  536MOL0     C73869   7.386   2.896   2.149  0.5713  0.6530  0.3081
  536MOL0     C73870   7.524   2.843   2.106 -0.6646 -0.5300  0.5094
  536MOL0     C73871   7.632   2.944   2.099  0.5501  1.5756  0.3958
  536MOL0     C73872   7.597   3.075   2.032  0.4145  0.1846 -0.8086
  536MOL0     C73873   7.719   3.173   2.033  0.0227  0.5473  0.1725
  536MOL0     C73874   7.705   3.290   1.942  0.0508 -0.7413  1.2274
  536MOL0    Cl73875   7.843   3.408   1.952 -0.0396 -0.5339 -0.0024
  536MOL0     C73876   6.879   2.908   2.261  0.8689  0.4239  0.6510
  536MOL0     C73877   6.764   2.983   2.284  0.4179 -0.8822 -0.3308
  536MOL0     O73878   6.504   3.038   2.374  0.1834  0.2889  0.5761
  536MOL0     C73879   6.382   3.327   2.189 -0.7035 -0.0805 -0.1185
  536MOL0     C73880   6.277   3.415   2.181 -0.6908 -0.0726 -0.1731
  536MOL0     N73881   5.423   3.310   2.134  0.3203  0.0608 -0.9013
  536MOL0     N73882   5.348   3.319   2.030 -1.0099  0.5965  0.2737
  536MOL0     C73883   4.743   2.447   2.022 -0.0025 -0.2573 -0.1041
  536MOL0     C73884   4.668   2.329   1.998 -0.2650 -0.5455 -0.6385
  536MOL0     C73885   4.384   2.268   1.821 -0.2530  0.9952 -0.2556
  536MOL0     C73886   4.310   2.381   1.840  0.1339  0.3326 -0.6265
  536MOL0     C73887   4.296   2.466   1.730  0.8623 -0.4655 -1.3595
  536MOL0     C73888   4.355   2.447   1.609  0.4013 -0.9650 -0.0750
  536MOL0     O73889   4.366   2.538   1.507  0.1192  0.1012 -0.0510
  536MOL0     C73890   4.288   2.661   1.505 -0.3115 -0.1294  0.1692
  536MOL0     C73891   4.145   2.647   1.444  0.0739  0.0541  0.0114
  536MOL0     C73892   4.074   2.783   1.426  0.0313  0.1402  1.0723
  536MOL0     C73893   3.936   2.766   1.363 -0.6907 -0.5257  0.4510
  536MOL0     C73894   3.957   2.717   1.228  0.0586  0.0761 -0.5801
  536MOL0     C73895   3.969   2.695   1.111 -0.6911  0.3985  0.1991
  536MOL0     C73896   4.432   2.344   1.591 -0.0381  0.3649 -0.1327
  536MOL0     C73897   4.451   2.251   1.698  0.0432  0.3298 -0.2310
  536MOL0     C73898   4.544   2.135   1.686  0.4174  0.4561  0.5150
  536MOL0     H73899   4.404   2.393   2.202 -0.4240 -0.0669  0.4204
  536MOL0     H73900   4.534   2.600   2.241  1.8178  0.0299  0.1002
  536MOL0     H73901   4.789   2.833   2.203 -0.3152  1.0198 -0.1930
  536MOL0     H73902   4.625   2.803   2.168 -0.0181  1.7747 -0.6345
  536MOL0     H73903   4.686   2.834   1.919 -1.4465  1.6503  1.1275
  536MOL0     H73904   4.718   2.972   2.018  3.0464  1.0652  0.4537
  536MOL0     H73905   4.967   2.865   2.053 -0.1669 -0.4598  1.2661
  536MOL0     H73906   4.923   2.782   1.896 -2.1829 -0.8543 -1.7640
  536MOL0     H73907   4.908   2.992   1.781  4.1630 -1.4447 -2.3042
  536MOL0     H73908   4.930   3.082   1.934  3.3474  0.1469  0.3142
  536MOL0     H73909   5.123   2.945   1.763  0.8456  1.7385 -0.2919
  536MOL0     H73910   5.160   2.945   1.939  0.2750  0.4536  1.0806
  536MOL0     H73911   5.096   3.197   1.784  0.2722  0.1273 -1.4059
  536MOL0     H73912   5.166   3.186   1.944  0.5422 -1.9667 -0.0305
  536MOL0     H73913   5.288   3.103   1.684 -0.7617 -0.6403  0.2344
  536MOL0     H73914   5.367   3.069   1.844  1.1270  0.7260  1.0692
  536MOL0     H73915   5.461   3.281   1.706 -0.0231  1.5227  0.4204
  536MOL0     H73916   5.305   3.344   1.744 -0.4236  0.0207  0.6724
  536MOL0     H73917   5.636   3.240   1.902 -0.8984  1.0169 -2.5085
  536MOL0     H73918   5.751   3.217   2.117 -1.0584 -0.9733  0.4823
  536MOL0     H73919   5.643   3.212   2.255  1.1667 -0.0727  0.6685
  536MOL0     H73920   5.768   3.455   2.103 -0.7042 -0.6818  0.1000
  536MOL0     H73921   5.679   3.484   2.248  2.3972  2.2145 -0.2073
  536MOL0     H73922   5.829   3.343   2.381 -0.5485 -1.4933  0.0696
  536MOL0     H73923   5.925   3.304   2.230 -0.9842  1.8419 -4.2313
  536MOL0     H73924   5.892   3.590   2.296  2.3433  1.5748  1.1512
  536MOL0     H73925   5.972   3.502   2.418 -2.1318 -2.0582  1.2504
  536MOL0     H73926   6.090   3.327   2.433 -0.2397 -2.3074  1.2552
  536MOL0     H73927   6.322   3.158   2.587  0.1251  0.1314  0.1861
  536MOL0     H73928   6.275   3.031   2.481  0.0714  0.0140 -0.3755
  536MOL0     H73929   6.148   3.145   2.526 -0.1683  2.3389 -0.5129
  536MOL0     H73930   6.791   3.229   2.055  5.3019  1.1671 -3.1173
  536MOL0     H73931   6.998   3.104   2.000 -0.4147 -0.0485 -0.0405
  536MOL0     H73932   7.151   2.875   2.292 -1.6136  0.2373  0.0749
  536MOL0     H73933   7.095   2.714   2.232  2.3032 -1.1223  0.9847
  536MOL0     H73934   7.326   2.701   2.217 -2.4356  1.4870  1.9160
  536MOL0     H73935   7.270   2.738   2.048 -1.1136  4.3408 -1.9848
  536MOL0     H73936   7.402   2.941   2.248  0.4352  0.2160  0.5273
  536MOL0     H73937   7.357   2.970   2.074 -0.4655 -0.3122 -0.2674
  536MOL0     H73938   7.524   2.797   2.007  0.1870 -0.8353  0.6386
  536MOL0     H73939   7.555   2.767   2.179 -0.7314 -0.2262  0.8566
  536MOL0     H73940   7.655   2.970   2.203  1.4861  1.8762  0.1285
  536MOL0     H73941   7.716   2.892   2.051 -0.0170  2.0322 -1.1485
  536MOL0     H73942   7.519   3.130   2.087  0.3440 -0.9077  0.2274
  536MOL0     H73943   7.563   3.058   1.930 -4.2252 -2.9571  0.9106
  536MOL0     H73944   7.809   3.125   1.995 -1.7255 -2.2990 -0.7426
  536MOL0     H73945   7.742   3.206   2.135  0.4642 -0.7887  0.5225
  536MOL0     H73946   7.619   3.351   1.967 -0.9792 -1.2269 -0.8784
  536MOL0     H73947   7.692   3.259   1.838  0.1572  1.6684  0.4345
  536MOL0     H73948   6.884   2.813   2.313 -1.2244 -0.6233 -0.8649
  536MOL0     H73949   6.702   2.964   2.371 -2.1177  3.6527 -0.8510
  536MOL0     H73950   6.453   3.332   2.107  0.0717  0.2131  0.5591
  536MOL0     H73951   6.272   3.485   2.098  1.4312  1.7685  1.1336
  536MOL0     H73952   4.835   2.473   1.971 -0.8829 -2.0745 -2.8189
  536MOL0     H73953   4.724   2.254   1.942 -1.7603 -2.8876  0.8218
  536MOL0     H73954   4.257   2.385   1.934  0.5094  0.3147 -0.4140
  536MOL0     H73955   4.235   2.552   1.754  1.0894 -0.5605 -0.4072
  536MOL0     H73956   4.276   2.707   1.604  0.9490  1.9856 -0.5886
  536MOL0     H73957   4.345   2.732   1.446  2.2659  2.2004  4.8704
  536MOL0     H73958   4.087   2.579   1.507 -0.5248 -1.4539 -2.0577
  536MOL0     H73959   4.154   2.598   1.346  0.0980 -1.7972  0.8954
  536MOL0     H73960   4.065   2.840   1.519  0.0009  0.7141  0.7248
  536MOL0     H73961   4.123   2.850   1.354  1.2081  0.6743  2.3275
  536MOL0     H73962   3.887   2.862   1.381  1.7306  0.7007  0.9555
  536MOL0     H73963   3.882   2.691   1.421  1.6105 -1.9530  0.8754
  536MOL0     H73964   4.000   2.662   1.014  2.3244  0.2075  1.1324
  536MOL0     H73965   4.479   2.322   1.496 -0.7501  2.2899 -0.9635
  536MOL0     H73966   4.602   2.111   1.776  2.8585 -1.1295 -1.3267
  536MOL0     H73967   4.481   2.052   1.653  1.4438 -0.1243 -0.0680
  536MOL0     H73968   4.614   2.161   1.606  0.0757  0.4444  0.2103
  537MOL0     O73969   8.653   5.904   4.894  0.3531  0.7386  0.2051
  537MOL0     C73970   8.547   5.880   4.827 -0.4963 -0.8045 -1.0236
  537MOL0     O73971   8.426   5.942   4.864  0.1976 -0.0531  0.5027
  537MOL0     C73972   8.439   6.059   4.935 -0.3566  0.2247 -0.1039
  537MOL0     C73973   8.539   6.153   4.910 -0.2559  0.7531 -0.4002
  537MOL0     C73974   8.547   6.270   4.984 -0.5475 -0.2995  0.2357
  537MOL0     C73975   8.460   6.301   5.092 -0.1271 -0.3086  0.1207
  537MOL0     O73976   8.468   6.418   5.167  0.2891  0.0288  1.3490
  537MOL0     C73977   8.590   6.486   5.200  0.5386  0.2379 -0.4265
  537MOL0     C73978   8.585   6.556   5.341  0.0479  0.2002 -0.1765
  537MOL0     C73979   8.549   6.459   5.456 -0.3606  0.6008 -0.2611
  537MOL0     C73980   8.644   6.339   5.465  0.5339  0.7326 -0.1757
  537MOL0     C73981   8.682   6.278   5.606  0.7723  0.0582 -0.8822
  537MOL0     C73982   8.800   6.352   5.676 -0.5421 -0.0604 -0.2914
  537MOL0     C73983   8.850   6.283   5.804 -0.2979 -0.4698 -0.6490
  537MOL0     C73984   8.947   6.367   5.893  0.4556  0.2857  0.1680
  537MOL0     N73985   9.082   6.346   5.856  0.7746  0.1435  0.3405
  537MOL0     C73986   9.130   6.329   5.728  0.2192  0.1802  0.0831
  537MOL0     C73987   9.259   6.312   5.747  0.0875 -0.2919  0.8502
  537MOL0     C73988   9.347   6.272   5.630  0.4737 -0.7117  0.6006
  537MOL0     C73989   9.325   6.129   5.572 -0.1658 -0.0183 -0.0832
  537MOL0     C73990   9.251   6.126   5.449 -0.1289  0.1626 -0.4068
  537MOL0     C73991   9.331   6.154   5.322 -0.6146  0.1699  0.0774
  537MOL0     O73992   9.437   6.067   5.302 -0.3067  0.0269 -0.6055
  537MOL0     C73993   9.525   6.069   5.197 -0.6018 -0.4381 -0.1592
  537MOL0     C73994   9.483   6.052   5.069 -0.1867 -0.4024  1.2585
  537MOL0     C73995   9.569   6.048   4.957 -0.2230  0.4815 -0.5320
  537MOL0     C73996   9.517   6.024   4.823 -0.9897  0.0017 -0.2865
  537MOL0     C73997   9.711   6.055   4.981 -0.4736  0.6645 -0.5025
  537MOL0     C73998   9.818   6.031   4.878  0.8458 -0.2458 -0.6315
  537MOL0     O73999   9.926   5.966   4.919  0.4614 -0.5958  0.0358
  537MOL0     C74000  10.041   5.956   4.843 -0.0566 -0.5084  0.6639
  537MOL0     C74001  10.072   6.024   4.718  0.2598  0.3925 -0.0361
  537MOL0     C74002  10.195   6.002   4.651 -0.3873 -1.2082 -0.0629
  537MOL0     C74003  10.287   5.909   4.695  0.0050  0.3638 -0.4785
  537MOL0     O74004  10.394   5.888   4.617 -0.5225  0.4889 -0.4675
  537MOL0     C74005  10.509   5.807   4.660  0.4591 -0.1560 -0.2995
  537MOL0     C74006  10.633   5.860   4.585 -0.3434  0.1361  0.5088
  537MOL0     C74007  10.688   5.990   4.649 -0.4851  0.1968  0.6250
  537MOL0     C74008  10.755   6.080   4.547  0.4247 -0.7974  0.0882
  537MOL0     C74009  10.813   6.199   4.624  0.5512  0.2584  0.2459
  537MOL0     C74010  10.863   6.308   4.528  0.2819 -0.1473 -0.2891
  537MOL0     C74011  10.955   6.404   4.605  0.7268 -0.7193 -0.1732
  537MOL0     C74012  11.096   6.363   4.644 -0.0703  0.5022  0.1505
  537MOL0    Cl74013  11.211   6.310   4.508  0.1829  0.5346 -0.0558
  537MOL0     C74014  10.256   5.838   4.809 -0.2583  0.1419 -0.2729
  537MOL0     C74015  10.133   5.855   4.884 -0.9365 -0.1784 -0.1374
  537MOL0     O74016   9.795   6.076   4.770 -0.7342 -0.2403  0.1088
  537MOL0     C74017   9.748   6.071   5.120 -0.0561  0.4865  0.1825
  537MOL0     C74018   9.658   6.070   5.219 -0.5487 -0.5935  0.6197
  537MOL0     N74019   9.287   6.306   5.882  0.0822 -1.1163  0.0033
  537MOL0     N74020   9.179   6.340   5.946 -1.0601  0.1320  0.7148
  537MOL0     C74021   8.359   6.211   5.110  0.9487 -1.2345  0.7732
  537MOL0     C74022   8.344   6.094   5.031  0.3155 -0.2444 -0.7989
  537MOL0     C74023   8.553   5.790   4.702 -0.2382  0.4039  0.5794
  537MOL0     C74024   8.446   5.805   4.611  0.4825  0.8937 -0.1396
  537MOL0     C74025   8.433   5.725   4.501 -0.6162  0.1980 -0.3286
  537MOL0     C74026   8.547   5.637   4.458  0.4116 -0.1285 -0.2451
  537MOL0     O74027   8.544   5.542   4.361 -0.5690 -0.7217  0.2853
  537MOL0     C74028   8.468   5.577   4.236 -0.6201 -0.2332  0.5844
  537MOL0     C74029   8.555   5.547   4.114  1.0817 -0.0272 -0.0379
  537MOL0     C74030   8.618   5.403   4.119 -0.3725  0.2886 -0.5689
  537MOL0     C74031   8.700   5.370   3.993  0.6114 -0.0385  0.3417
  537MOL0     C74032   8.614   5.333   3.881  0.1476 -0.2260  0.1296
  537MOL0     C74033   8.533   5.285   3.797  0.0355 -0.6190 -0.4743
  537MOL0     C74034   8.660   5.632   4.548 -0.5605 -0.1989 -0.2675
  537MOL0     C74035   8.653   5.693   4.676  0.2504  1.0073  0.6988
  537MOL0     C74036   8.762   5.661   4.780  0.2606  0.2777  0.2918
  537MOL0     H74037   8.612   6.127   4.833 -0.6062 -2.8999  0.2965
  537MOL0     H74038   8.622   6.342   4.953 -1.9598  1.9866  1.8250
  537MOL0     H74039   8.597   6.562   5.122 -2.9409 -1.6777 -2.9007
  537MOL0     H74040   8.681   6.426   5.192  0.6529  0.5742 -1.8802
  537MOL0     H74041   8.669   6.624   5.359 -0.0189 -0.2069  1.9980
  537MOL0     H74042   8.505   6.631   5.335 -0.1353  0.6322  4.1673
  537MOL0     H74043   8.553   6.516   5.549  0.8955  2.6410 -1.5052
  537MOL0     H74044   8.447   6.420   5.442 -1.4164  1.6623  3.3444
  537MOL0     H74045   8.592   6.262   5.406 -1.8538  0.8684  1.5940
  537MOL0     H74046   8.738   6.355   5.412 -0.1250 -0.9969 -1.9876
  537MOL0     H74047   8.724   6.179   5.588  1.2134 -0.4472  2.4015
  537MOL0     H74048   8.593   6.264   5.668  1.3548 -0.5348 -0.1638
  537MOL0     H74049   8.883   6.373   5.609 -0.5929  0.5924 -0.1537
  537MOL0     H74050   8.766   6.452   5.702  0.4518 -0.0046  0.8897
  537MOL0     H74051   8.899   6.187   5.780 -1.1308 -0.5914 -1.9214
  537MOL0     H74052   8.768   6.248   5.867 -0.8001 -0.7535 -1.4469
  537MOL0     H74053   8.929   6.471   5.864 -1.1981 -0.4223 -1.5625
  537MOL0     H74054   8.930   6.344   5.999 -1.7053 -1.1922 -0.4251
  537MOL0     H74055   9.075   6.341   5.635  1.6347  0.6479 -0.7262
  537MOL0     H74056   9.444   6.275   5.680 -0.4915  0.9111  2.5232
  537MOL0     H74057   9.342   6.346   5.549 -3.4942 -1.7053 -0.2842
  537MOL0     H74058   9.421   6.080   5.553  1.2512  2.5206  0.0132
  537MOL0     H74059   9.281   6.079   5.659 -3.1611  2.8522  0.2635
  537MOL0     H74060   9.208   6.025   5.437  1.4251 -0.4563 -0.9842
  537MOL0     H74061   9.156   6.181   5.452 -0.9274 -1.1997  0.9018
  537MOL0     H74062   9.268   6.139   5.234 -0.0397  0.1579 -0.3332
  537MOL0     H74063   9.366   6.256   5.307  0.6973 -0.5361 -2.0969
  537MOL0     H74064   9.377   6.040   5.047  0.1005 -2.1219  0.6770
  537MOL0     H74065   9.550   6.104   4.755 -0.1242 -0.5187 -0.5008
  537MOL0     H74066   9.408   6.020   4.819 -1.0185 -3.5439  1.1365
  537MOL0     H74067   9.557   5.933   4.776  1.9614  2.1526 -2.3724
  537MOL0     H74068  10.009   6.094   4.664 -0.0895  0.1473  0.0530
  537MOL0     H74069  10.219   6.052   4.558 -2.3172 -1.8314 -0.9397
  537MOL0     H74070  10.521   5.802   4.769 -0.9037 -0.6800 -0.1475
  537MOL0     H74071  10.487   5.703   4.634  2.0599 -1.2714  2.4116
  537MOL0     H74072  10.709   5.782   4.587  0.4782  0.9260  2.3327
  537MOL0     H74073  10.614   5.876   4.479 -1.7706 -0.2282  0.6857
  537MOL0     H74074  10.763   5.960   4.723  0.6108 -3.0417 -1.5475
  537MOL0     H74075  10.608   6.049   4.693  1.0794  1.1874  2.2551
  537MOL0     H74076  10.684   6.110   4.469 -0.5651  2.7857  2.1038
  537MOL0     H74077  10.839   6.029   4.500  0.3896  0.6783 -1.7180
  537MOL0     H74078  10.731   6.240   4.684 -2.8168  0.2067 -3.8299
  537MOL0     H74079  10.892   6.164   4.690  1.8752 -0.2359 -1.5426
  537MOL0     H74080  10.782   6.367   4.483 -1.8947 -2.0913  0.8489
  537MOL0     H74081  10.928   6.264   4.452 -0.9888 -1.5891 -0.5714
  537MOL0     H74082  10.902   6.437   4.695 -2.4316  1.0504 -2.4638
  537MOL0     H74083  10.968   6.482   4.530 -2.1948 -1.9288 -2.1295
  537MOL0     H74084  11.097   6.283   4.718 -0.6874  1.6913  1.5129
  537MOL0     H74085  11.145   6.440   4.704 -2.3930  1.2017  1.2507
  537MOL0     H74086  10.326   5.770   4.856  0.2058  1.2603  0.7213
  537MOL0     H74087  10.111   5.788   4.966 -1.8327  0.8680  0.5018
  537MOL0     H74088   9.852   6.069   5.149  0.1594 -0.1980 -0.5773
  537MOL0     H74089   9.693   6.073   5.321  2.8156  1.2080 -0.4263
  537MOL0     H74090   8.278   6.244   5.174  0.1836 -0.0422 -0.7509
  537MOL0     H74091   8.250   6.042   5.049 -0.2576  1.1676  0.4912
  537MOL0     H74092   8.360   5.869   4.626  0.1505  0.6636 -0.9964
  537MOL0     H74093   8.339   5.719   4.448 -2.5800 -0.7343  2.9310
  537MOL0     H74094   8.379   5.514   4.231  0.6794 -2.0607 -1.0380
  537MOL0     H74095   8.433   5.681   4.245 -3.6381 -1.1969  1.0669
  537MOL0     H74096   8.627   5.626   4.092  1.4423  0.2885  1.9947
  537MOL0     H74097   8.490   5.545   4.026  2.1643 -2.2562 -0.8803
  537MOL0     H74098   8.690   5.400   4.201  1.9791 -2.2066 -2.5285
  537MOL0     H74099   8.546   5.325   4.146  2.5588 -2.5154 -0.2933
  537MOL0     H74100   8.777   5.294   4.006  4.2706  2.7241 -2.6540
  537MOL0     H74101   8.750   5.464   3.964 -1.5832  1.4279  1.0679
  537MOL0     H74102   8.463   5.249   3.723 -0.2870  2.1998 -1.6829
  537MOL0     H74103   8.729   5.550   4.530 -2.4373 -1.8527 -0.4360
  537MOL0     H74104   8.825   5.574   4.763 -0.3702 -0.0860 -0.2149
  537MOL0     H74105   8.824   5.749   4.800 -0.1790  0.5394  0.5216
  537MOL0     H74106   8.714   5.628   4.873 -0.6836 -0.2235 -0.3647
  538MOL0     O74107   2.555   6.349   3.370 -0.5426  0.0010 -0.4393
  538MOL0     C74108   2.632   6.281   3.438  0.3272  0.1677 -0.2288
  538MOL0     O74109   2.662   6.311   3.569 -0.0958 -0.5741 -0.0745
  538MOL0     C74110   2.731   6.211   3.641  0.0782  0.5898  0.6407
  538MOL0     C74111   2.666   6.161   3.757 -0.1094 -1.2796 -0.6539
  538MOL0     C74112   2.737   6.073   3.831  0.9452 -0.0282  1.2367
  538MOL0     C74113   2.862   6.027   3.800  1.2890  0.4096 -1.0957
  538MOL0     O74114   2.905   5.916   3.871  0.8785  0.3168  0.1831
  538MOL0     C74115   2.967   5.807   3.804 -1.3353 -0.0277  0.7738
  538MOL0     C74116   3.007   5.699   3.900 -0.1422 -0.2326  1.0958
  538MOL0     C74117   3.116   5.733   4.009  0.0261 -0.5648 -0.0824
  538MOL0     C74118   3.189   5.607   4.039 -0.1485  0.0541 -1.1291
  538MOL0     C74119   3.306   5.626   4.136 -0.3273  0.2410 -0.9923
  538MOL0     C74120   3.412   5.718   4.077 -0.1285  1.1272  0.2519
  538MOL0     C74121   3.537   5.758   4.162  0.5319  0.0204 -0.0625
  538MOL0     C74122   3.493   5.829   4.281 -0.2855 -0.4437 -0.2662
  538MOL0     N74123   3.590   5.901   4.357  0.5201  0.2291  0.6946
  538MOL0     C74124   3.716   5.860   4.392 -0.1588 -0.8772  0.2295
  538MOL0     C74125   3.766   5.951   4.486  0.0329 -0.1525 -0.6527
  538MOL0     C74126   3.886   5.960   4.572 -0.6223 -0.5495 -0.6933
  538MOL0     C74127   3.913   6.099   4.647  0.3035 -0.0908 -0.5333
  538MOL0     C74128   3.921   6.223   4.560  0.1595 -0.3525 -0.7893
  538MOL0     C74129   3.903   6.338   4.650  0.1353 -0.4493  0.3799
  538MOL0     O74130   3.945   6.452   4.577  0.3930  0.2640 -0.2612
  538MOL0     C74131   3.936   6.578   4.625  0.1806  0.6862  1.3535
  538MOL0     C74132   3.956   6.678   4.533 -0.0000 -0.3794  0.5059
  538MOL0     C74133   3.969   6.811   4.584 -0.3302 -0.2739  0.8736
  538MOL0     C74134   3.983   6.925   4.475 -0.0613 -0.3866  0.1622
  538MOL0     C74135   3.951   6.839   4.721 -0.2929 -0.9082  0.0379
  538MOL0     C74136   3.953   6.978   4.783 -0.3444  0.7277 -0.5675
  538MOL0     O74137   3.891   6.982   4.908  0.2239  0.0941 -0.1827
  538MOL0     C74138   3.913   7.089   4.997 -0.6306  0.4696 -0.5638
  538MOL0     C74139   3.812   7.132   5.075 -0.1062  0.4982  0.1763
  538MOL0     C74140   3.832   7.211   5.187 -0.4639 -0.5500  0.0953
  538MOL0     C74141   3.970   7.226   5.231 -0.0605 -0.1076 -0.2813
  538MOL0     O74142   4.020   7.274   5.347  0.6323 -0.0737 -0.7763
  538MOL0     C74143   3.918   7.267   5.455 -0.3471  0.5526 -0.2222
  538MOL0     C74144   3.990   7.250   5.589 -0.7012  0.3842  0.9995
  538MOL0     C74145   4.077   7.377   5.616 -0.4184 -0.9430 -0.0912
  538MOL0     C74146   4.124   7.374   5.759  0.1440 -1.0204  1.1519
  538MOL0     C74147   4.232   7.481   5.774 -0.4021  0.0681  0.1671
  538MOL0     C74148   4.300   7.496   5.905 -0.2739  0.4079  0.5475
  538MOL0     C74149   4.379   7.628   5.912 -0.5754  0.4449 -0.2693
  538MOL0     C74150   4.436   7.648   6.056  0.2072  0.4307  0.1052
  538MOL0    Cl74151   4.305   7.709   6.177 -0.2343 -0.1654  0.0285
  538MOL0     C74152   4.073   7.190   5.145  0.1330 -0.1694 -0.6683
  538MOL0     C74153   4.048   7.121   5.031  0.4372 -0.5568  0.1736
  538MOL0     O74154   4.012   7.072   4.726 -0.3599  0.0459  1.1217
  538MOL0     C74155   3.924   6.731   4.809  0.1994 -0.0065 -0.2918
  538MOL0     C74156   3.908   6.601   4.762 -1.0270  0.8394 -0.2787
  538MOL0     N74157   3.669   6.042   4.498  0.6930  1.2873 -0.5000
  538MOL0     N74158   3.574   6.014   4.417  1.1061  0.1353 -0.2926
  538MOL0     C74159   2.930   6.080   3.686  0.6193  0.1220 -1.2411
  538MOL0     C74160   2.863   6.174   3.605 -0.2422 -0.9250 -0.0008
  538MOL0     C74161   2.675   6.162   3.362 -0.0659 -0.2401 -0.1213
  538MOL0     C74162   2.786   6.171   3.282 -0.3131 -0.8612  0.1810
  538MOL0     C74163   2.853   6.059   3.243 -0.4899 -0.1585  0.8581
  538MOL0     C74164   2.808   5.934   3.259  0.2608  0.1474  0.8221
  538MOL0     O74165   2.875   5.834   3.199 -0.2475  0.4854  0.0151
  538MOL0     C74166   2.924   5.730   3.288  0.0321  0.1998 -0.4653
  538MOL0     C74167   3.045   5.769   3.369 -0.7013  0.1222  0.5598
  538MOL0     C74168   3.168   5.798   3.280 -0.3629  0.2074  0.1518
  538MOL0     C74169   3.284   5.881   3.344  0.1755 -0.4136 -0.1713
  538MOL0     C74170   3.348   5.813   3.458  0.0087  0.3593 -0.4259
  538MOL0     C74171   3.401   5.769   3.561  0.1514  1.3838  0.8082
  538MOL0     C74172   2.687   5.918   3.332  0.7313 -1.1561  0.1334
  538MOL0     C74173   2.612   6.034   3.374 -0.4763 -0.4927 -0.4182
  538MOL0     C74174   2.490   6.012   3.454  0.0365 -0.4276  0.7854
  538MOL0     H74175   2.565   6.193   3.784 -0.7570 -2.3716 -1.6872
  538MOL0     H74176   2.686   6.015   3.907 -2.4258  0.3980 -0.5157
  538MOL0     H74177   3.057   5.837   3.750 -1.5378  1.8973  1.4185
  538MOL0     H74178   2.901   5.757   3.733 -0.1888  0.3138 -0.5589
  538MOL0     H74179   2.921   5.655   3.952 -0.7426  2.4604  2.5512
  538MOL0     H74180   3.056   5.626   3.836  0.1137 -0.9413  2.0692
  538MOL0     H74181   3.184   5.812   3.977  1.4853 -0.8780  1.9939
  538MOL0     H74182   3.066   5.777   4.096  2.1821  3.6199 -0.6812
  538MOL0     H74183   3.115   5.535   4.076  1.2112 -0.6024  0.4668
  538MOL0     H74184   3.223   5.576   3.940  3.0203  0.2342 -0.2224
  538MOL0     H74185   3.358   5.531   4.154  3.4954  2.5592  1.7149
  538MOL0     H74186   3.268   5.656   4.234 -1.6757 -1.6226 -0.8851
  538MOL0     H74187   3.453   5.666   3.991  0.9660 -1.1559  2.0409
  538MOL0     H74188   3.367   5.810   4.037 -1.1741 -0.9841 -3.8681
  538MOL0     H74189   3.594   5.834   4.108  0.2933  1.4969  1.6380
  538MOL0     H74190   3.596   5.666   4.172  1.4084  0.1593 -3.0309
  538MOL0     H74191   3.414   5.896   4.245 -3.0696 -3.7881 -0.9089
  538MOL0     H74192   3.429   5.761   4.338 -0.8385 -0.5011 -0.9273
  538MOL0     H74193   3.765   5.767   4.366 -1.6384 -1.4120 -0.7940
  538MOL0     H74194   3.976   5.939   4.513  0.9892 -0.0711  1.4494
  538MOL0     H74195   3.883   5.875   4.640  1.9855 -0.9922 -1.0328
  538MOL0     H74196   3.844   6.117   4.730 -0.0180  1.1152 -1.0459
  538MOL0     H74197   4.007   6.088   4.702  0.4465 -2.0119 -1.0935
  538MOL0     H74198   4.022   6.209   4.520 -0.1202  1.4730 -2.3113
  538MOL0     H74199   3.857   6.220   4.471  0.8624 -2.7547 -1.2818
  538MOL0     H74200   3.797   6.357   4.668  0.1831  0.2123  0.0063
  538MOL0     H74201   3.958   6.325   4.743  3.3741 -0.7394 -1.4235
  538MOL0     H74202   3.972   6.648   4.430  2.2382  1.2139  0.3198
  538MOL0     H74203   4.088   6.955   4.475  0.6314 -2.4737  2.4954
  538MOL0     H74204   3.928   7.013   4.508  1.0295  0.3388  0.0960
  538MOL0     H74205   3.956   6.881   4.379 -0.4310  3.8172 -1.8965
  538MOL0     H74206   3.714   7.094   5.050 -0.6291  1.2258  1.0539
  538MOL0     H74207   3.748   7.223   5.255 -0.7515  0.8041 -0.4809
  538MOL0     H74208   3.849   7.351   5.448 -0.1449  0.8496  1.0409
  538MOL0     H74209   3.860   7.174   5.452  2.3813 -1.4126  1.9756
  538MOL0     H74210   3.919   7.235   5.671 -2.6650  1.2229 -0.4878
  538MOL0     H74211   4.052   7.160   5.589 -1.5564 -0.2180  0.4539
  538MOL0     H74212   4.021   7.470   5.607  0.3047  0.0125  3.6437
  538MOL0     H74213   4.163   7.372   5.548  0.5961 -0.9071  1.1465
  538MOL0     H74214   4.162   7.275   5.783 -1.3426 -1.5234  1.5327
  538MOL0     H74215   4.044   7.398   5.830 -0.2762 -2.9521  1.3868
  538MOL0     H74216   4.305   7.474   5.692 -2.7207 -2.3572 -1.8749
  538MOL0     H74217   4.188   7.577   5.745 -2.8845 -1.3934 -1.3102
  538MOL0     H74218   4.357   7.405   5.928 -3.3018 -1.3054  1.7872
  538MOL0     H74219   4.220   7.501   5.979 -2.0676  3.7491 -1.3637
  538MOL0     H74220   4.319   7.711   5.874 -1.1167  0.1796  0.0002
  538MOL0     H74221   4.459   7.624   5.837  1.4795 -1.6724  1.8382
  538MOL0     H74222   4.512   7.727   6.063  1.0354 -0.5157  3.0606
  538MOL0     H74223   4.482   7.556   6.091  1.7731  1.1623  0.0792
  538MOL0     H74224   4.176   7.200   5.178 -0.2527  1.8858  0.0688
  538MOL0     H74225   4.126   7.078   4.969  0.4229 -0.3717  0.0291
  538MOL0     H74226   3.904   6.742   4.915  0.9569 -1.3118  0.0193
  538MOL0     H74227   3.891   6.526   4.838  1.9025 -0.8325 -1.1055
  538MOL0     H74228   3.032   6.050   3.664  0.1489 -1.8302 -0.8920
  538MOL0     H74229   2.921   6.214   3.523  0.7476 -0.9802  0.6626
  538MOL0     H74230   2.831   6.270   3.271 -0.9835 -0.6499 -0.7495
  538MOL0     H74231   2.945   6.061   3.186 -2.1782 -1.8525 -2.2333
  538MOL0     H74232   2.843   5.698   3.354  0.1213  3.2945  1.3145
  538MOL0     H74233   2.958   5.642   3.233  2.6483  0.2322  0.9541
  538MOL0     H74234   3.079   5.684   3.429  0.9874  1.0146  0.9278
  538MOL0     H74235   3.024   5.860   3.425 -3.6918 -0.6862  0.9019
  538MOL0     H74236   3.208   5.703   3.244 -1.8711 -0.5874  0.4817
  538MOL0     H74237   3.129   5.857   3.197 -0.7864  1.7636  1.3875
  538MOL0     H74238   3.237   5.975   3.374  0.6511 -0.1632 -0.1950
  538MOL0     H74239   3.355   5.906   3.264  2.1761 -0.1854  1.5824
  538MOL0     H74240   3.457   5.756   3.651 -0.6525 -1.1352  1.0112
  538MOL0     H74241   2.657   5.816   3.355  1.7085 -1.3066  0.7988
  538MOL0     H74242   2.432   6.104   3.465  0.0224  0.3197 -3.7682
  538MOL0     H74243   2.420   5.951   3.396 -1.3501  0.4817  1.4437
  538MOL0     H74244   2.511   5.977   3.555 -1.0914 -0.4770  1.0167
  539MOL0     O74245   7.300   5.653  10.471 -0.6246  0.0472  0.5115
  539MOL0     C74246   7.251   5.543  10.477  0.1041 -0.5040  1.3043
  539MOL0     O74247   7.205   5.474  10.372  0.2319  1.0609 -0.3996
  539MOL0     C74248   7.188   5.509  10.241 -0.2824 -0.1701 -0.2737
  539MOL0     C74249   7.083   5.443  10.179 -0.8549  1.0773 -0.4801
  539MOL0     C74250   7.046   5.477  10.050  0.6322 -0.0622 -0.1190
  539MOL0     C74251   7.116   5.577   9.977 -0.5491 -0.1791 -0.5078
  539MOL0     O74252   7.070   5.602   9.851 -0.3926 -0.1056  0.1936
  539MOL0     C74253   7.175   5.622   9.749  0.1220  1.2493 -0.1167
  539MOL0     C74254   7.114   5.619   9.611  0.8662 -0.0306  0.2215
  539MOL0     C74255   7.019   5.738   9.573  0.2057  0.7014 -1.4454
  539MOL0     C74256   7.100   5.859   9.524 -0.2380  1.3755 -0.5574
  539MOL0     C74257   7.019   5.993   9.519 -0.1626 -0.2910 -0.7617
  539MOL0     C74258   7.109   6.108   9.530 -0.4562 -0.7668 -0.4648
  539MOL0     C74259   7.027   6.233   9.527 -0.3338 -0.9397  1.2435
  539MOL0     C74260   7.117   6.361   9.505 -0.1217  0.3419 -0.1878
  539MOL0     N74261   7.036   6.491   9.495 -0.8147 -1.0474  0.1121
  539MOL0     C74262   7.072   6.613   9.555 -0.0864  0.9959 -0.3927
  539MOL0     C74263   6.979   6.696   9.489 -0.6060 -0.7474  0.4662
  539MOL0     C74264   6.980   6.847   9.498 -0.0769 -0.3505 -0.5506
  539MOL0     C74265   6.838   6.899   9.518 -0.3922  0.2649  0.5351
  539MOL0     C74266   6.852   7.041   9.566  0.7675 -0.2299 -0.7610
  539MOL0     C74267   6.724   7.129   9.565  0.6219 -0.3264 -0.9681
  539MOL0     O74268   6.653   7.126   9.441  0.3680 -0.1326  0.3085
  539MOL0     C74269   6.528   7.184   9.423 -0.1322 -0.1325 -0.5467
  539MOL0     C74270   6.481   7.268   9.519  0.5617  0.3340 -0.0729
  539MOL0     C74271   6.356   7.327   9.511 -0.3883 -0.7136 -0.8394
  539MOL0     C74272   6.320   7.415   9.633 -0.6857  0.2929 -0.5749
  539MOL0     C74273   6.277   7.318   9.389  0.5157  0.0319 -0.1885
  539MOL0     C74274   6.140   7.379   9.374  0.8510  0.1653  0.0411
  539MOL0     O74275   6.090   7.459   9.474 -0.3845 -0.5515 -0.2240
  539MOL0     C74276   5.971   7.526   9.450  1.2810  1.0406  0.0841
  539MOL0     C74277   5.873   7.509   9.554 -1.1037  0.0536 -0.0046
  539MOL0     C74278   5.745   7.551   9.537 -0.9977  0.8548  0.5870
  539MOL0     C74279   5.708   7.619   9.425  0.1882  0.3557 -0.1488
  539MOL0     O74280   5.574   7.660   9.409 -0.3353  0.1100  0.2287
  539MOL0     C74281   5.553   7.800   9.384 -0.1431  0.0790 -0.0519
  539MOL0     C74282   5.404   7.832   9.407 -1.6690  0.2106 -0.4046
  539MOL0     C74283   5.324   7.831   9.276  0.9185  0.8246 -0.3472
  539MOL0     C74284   5.318   7.687   9.211 -0.6139 -1.1209  0.1107
  539MOL0     C74285   5.190   7.665   9.131  0.2333 -0.4836  0.2595
  539MOL0     C74286   5.212   7.539   9.051 -0.8097 -0.4829 -0.4395
  539MOL0     C74287   5.091   7.486   8.983  0.1435  0.4882  0.2667
  539MOL0     C74288   5.129   7.384   8.882  0.3417  0.6936 -0.0442
  539MOL0    Cl74289   5.209   7.459   8.741 -0.2388 -0.2247 -0.1621
  539MOL0     C74290   5.799   7.643   9.326  0.4861  0.1839  0.4810
  539MOL0     C74291   5.931   7.589   9.333  0.4241  0.3077  0.1049
  539MOL0     O74292   6.078   7.332   9.277  0.4571 -0.7050  0.3980
  539MOL0     C74293   6.328   7.229   9.298 -0.4541  0.2418 -0.5364
  539MOL0     C74294   6.451   7.158   9.310  0.0142 -0.6857 -0.5575
  539MOL0     N74295   6.884   6.627   9.415  0.0619 -0.4638  0.2747
  539MOL0     N74296   6.926   6.503   9.420 -0.5680 -0.0016 -0.7591
  539MOL0     C74297   7.233   5.638  10.040 -1.1481 -0.0208 -0.4446
  539MOL0     C74298   7.272   5.596  10.169 -0.0270 -0.8077  0.5663
  539MOL0     C74299   7.263   5.465  10.602 -0.2180 -0.5313 -0.2094
  539MOL0     C74300   7.310   5.337  10.586 -0.8585 -0.0891 -0.3106
  539MOL0     C74301   7.324   5.262  10.700  0.3316  0.0974 -0.1826
  539MOL0     C74302   7.289   5.308  10.826  0.3990  0.5271  0.8291
  539MOL0     O74303   7.307   5.232  10.934 -0.0988  0.3748 -0.3297
  539MOL0     C74304   7.253   5.104  10.921 -0.1933  0.0755  0.2243
  539MOL0     C74305   7.254   5.038  11.055 -0.5205 -0.0820 -0.3209
  539MOL0     C74306   7.382   5.060  11.143  0.5073 -0.0974 -0.1919
  539MOL0     C74307   7.507   5.020  11.083  0.4940 -0.0279 -0.2167
  539MOL0     C74308   7.484   4.894  11.021  0.1608 -0.0420 -0.4841
  539MOL0     C74309   7.455   4.783  10.982 -0.1999 -0.7199  0.6318
  539MOL0     C74310   7.243   5.431  10.843 -0.6943 -0.9360 -0.5065
  539MOL0     C74311   7.231   5.516  10.729  0.1747  0.3028 -0.2609
  539MOL0     C74312   7.165   5.652  10.746  0.3146 -0.2955  0.9499
  539MOL0     H74313   7.019   5.379  10.239 -0.3655  0.0638 -1.0008
  539MOL0     H74314   6.963   5.433   9.996  1.7310 -2.6715  0.2170
  539MOL0     H74315   7.251   5.544   9.752  0.1395  1.2597 -0.2625
  539MOL0     H74316   7.221   5.718   9.772  1.6479 -0.0579  2.7291
  539MOL0     H74317   7.199   5.623   9.541 -0.4611 -1.9066 -1.6294
  539MOL0     H74318   7.072   5.520   9.589  3.2813 -1.4428  1.4989
  539MOL0     H74319   6.951   5.705   9.494  0.6988  1.9829 -2.4316
  539MOL0     H74320   6.959   5.764   9.662  1.2917  0.5385 -0.6434
  539MOL0     H74321   7.185   5.870   9.592 -0.8939  0.0087  0.5153
  539MOL0     H74322   7.126   5.837   9.420 -0.8791  0.5804 -0.5518
  539MOL0     H74323   6.944   5.988   9.598 -0.1973 -1.6671 -0.8465
  539MOL0     H74324   6.959   6.002   9.428 -0.5161  0.5984 -0.4469
  539MOL0     H74325   7.157   6.099   9.628 -2.8279 -0.7331  0.7735
  539MOL0     H74326   7.192   6.119   9.459 -0.4069  1.3027 -0.1354
  539MOL0     H74327   6.961   6.243   9.614 -1.2897  2.7003  0.2422
  539MOL0     H74328   6.968   6.214   9.437  1.5792  1.1571 -0.5679
  539MOL0     H74329   7.192   6.363   9.584  0.7249 -0.1264 -0.9530
  539MOL0     H74330   7.177   6.347   9.414  0.1236 -1.4869  0.2244
  539MOL0     H74331   7.151   6.646   9.621  0.2766  0.2278 -0.4352
  539MOL0     H74332   7.026   6.894   9.411 -0.1437  3.6282  1.2943
  539MOL0     H74333   7.041   6.875   9.585  3.6009  0.6107 -3.2260
  539MOL0     H74334   6.794   6.921   9.420 -1.2167  1.1707  1.0833
  539MOL0     H74335   6.785   6.833   9.587  0.4468 -1.6771 -0.6194
  539MOL0     H74336   6.899   7.043   9.664  2.8692  0.5115 -1.7208
  539MOL0     H74337   6.921   7.090   9.496 -1.6160  0.9199 -2.4564
  539MOL0     H74338   6.663   7.093   9.648  2.9265 -1.4979  0.3034
  539MOL0     H74339   6.759   7.230   9.590  0.1445 -0.1597 -0.9635
  539MOL0     H74340   6.541   7.293   9.606 -2.8257  1.0470  2.2767
  539MOL0     H74341   6.376   7.406   9.727 -2.6090  2.0324  0.8475
  539MOL0     H74342   6.218   7.406   9.673  0.0685  0.0856  1.4408
  539MOL0     H74343   6.330   7.518   9.598 -1.2768 -0.0273 -1.7283
  539MOL0     H74344   5.906   7.458   9.644  1.2088  1.8683  0.2784
  539MOL0     H74345   5.662   7.530   9.603  0.6459 -0.1782  2.4268
  539MOL0     H74346   5.609   7.858   9.458  0.1878 -0.6617  0.2936
  539MOL0     H74347   5.591   7.831   9.286  1.2774  0.6238  0.6417
  539MOL0     H74348   5.363   7.757   9.475 -1.8354  0.4914 -0.1918
  539MOL0     H74349   5.397   7.930   9.455  0.5846  0.6053 -0.7633
  539MOL0     H74350   5.358   7.902   9.200 -2.2071  3.9335  0.8562
  539MOL0     H74351   5.219   7.852   9.299  0.8829 -0.9781  1.4514
  539MOL0     H74352   5.315   7.608   9.287  0.7573 -1.0646  0.2510
  539MOL0     H74353   5.408   7.675   9.150 -1.0044  1.0304 -0.9561
  539MOL0     H74354   5.105   7.657   9.199  0.2055  0.0704  0.2891
  539MOL0     H74355   5.171   7.742   9.056 -1.2203 -2.1630 -1.2180
  539MOL0     H74356   5.234   7.461   9.125 -0.9679  0.3663  0.5376
  539MOL0     H74357   5.292   7.563   8.981 -0.1421 -0.8728  0.1675
  539MOL0     H74358   5.030   7.562   8.934 -3.6066 -2.9064 -0.8628
  539MOL0     H74359   5.029   7.424   9.049  1.7293 -2.4214 -0.8221
  539MOL0     H74360   5.034   7.338   8.853  0.7927 -0.8438  0.8334
  539MOL0     H74361   5.203   7.317   8.926 -0.1271  1.0706  1.3605
  539MOL0     H74362   5.758   7.696   9.241 -0.9315  1.6755  2.0158
  539MOL0     H74363   5.993   7.605   9.245 -3.7663  1.5571 -2.9166
  539MOL0     H74364   6.288   7.198   9.202 -1.4373 -1.3648  0.3421
  539MOL0     H74365   6.485   7.087   9.236 -0.4355 -0.8281 -0.6313
  539MOL0     H74366   7.290   5.701   9.973 -1.1065 -0.1756 -0.5545
  539MOL0     H74367   7.360   5.641  10.213  2.5641 -0.1054 -4.5751
  539MOL0     H74368   7.353   5.297  10.494  5.9842 -1.6879  2.9645
  539MOL0     H74369   7.391   5.177  10.690 -1.3769 -1.1294 -2.0258
  539MOL0     H74370   7.150   5.111  10.887  0.1040  0.9697 -0.5456
  539MOL0     H74371   7.303   5.041  10.846  1.6006 -0.7401  1.9964
  539MOL0     H74372   7.222   4.933  11.048 -1.7914  0.1812  1.0557
  539MOL0     H74373   7.181   5.093  11.115 -0.7813  1.4003 -1.8941
  539MOL0     H74374   7.387   5.164  11.178  6.6159  1.0587 -3.1120
  539MOL0     H74375   7.381   5.016  11.243 -1.3849  1.5520  0.6054
  539MOL0     H74376   7.596   5.031  11.146  0.1080  2.8531 -0.0383
  539MOL0     H74377   7.528   5.096  11.007 -0.3484  1.4299  0.9649
  539MOL0     H74378   7.427   4.693  10.932 -1.1749 -0.0660 -0.0577
  539MOL0     H74379   7.223   5.479  10.939  1.0460 -2.5888  0.7538
  539MOL0     H74380   7.183   5.679  10.850  0.8818 -2.5021  1.4905
  539MOL0     H74381   7.201   5.720  10.668  0.2316 -4.4366 -3.1416
  539MOL0     H74382   7.056   5.649  10.734  0.2971  1.9827  0.1748
  540MOL0     O74383   8.466   2.625   9.044 -0.2997  0.3908  0.3577
  540MOL0     C74384   8.445   2.731   8.989 -0.1871  0.7878  0.0209
  540MOL0     O74385   8.542   2.810   8.935  0.6826 -0.3149 -0.7195
  540MOL0     C74386   8.676   2.792   8.979  0.2515  0.6769 -0.0927
  540MOL0     C74387   8.720   2.859   9.090  0.0442  0.6717  0.6120
  540MOL0     C74388   8.843   2.838   9.146 -0.7494 -0.3809 -0.2835
  540MOL0     C74389   8.938   2.755   9.080 -0.7336 -0.4026  0.8507
  540MOL0     O74390   9.059   2.726   9.138 -0.8696  0.4266  0.3174
  540MOL0     C74391   9.120   2.601   9.108 -0.2939 -0.4240 -0.0290
  540MOL0     C74392   9.202   2.563   9.235 -0.1217  0.0026  0.2227
  540MOL0     C74393   9.296   2.447   9.187  0.2504 -0.0911  0.4447
  540MOL0     C74394   9.392   2.402   9.292  0.4979 -0.2772 -0.8202
  540MOL0     C74395   9.525   2.467   9.289 -0.0148 -0.7586 -0.2016
  540MOL0     C74396   9.607   2.428   9.406 -0.1229  0.1622 -0.2350
  540MOL0     C74397   9.745   2.499   9.411  0.8757  0.2715  0.6129
  540MOL0     C74398   9.831   2.457   9.531 -0.1409 -0.0793  0.3039
  540MOL0     N74399   9.908   2.334   9.495 -0.6983  0.6471 -0.1073
  540MOL0     C74400  10.044   2.325   9.466  0.1810 -0.8278 -0.1311
  540MOL0     C74401  10.067   2.187   9.461 -0.5172 -0.8624  0.1524
  540MOL0     C74402  10.192   2.123   9.408  0.3281  0.2235 -0.1471
  540MOL0     C74403  10.228   2.000   9.490 -0.8862 -0.1423 -0.8086
  540MOL0     C74404  10.326   1.907   9.411  0.0367 -0.4011  0.2763
  540MOL0     C74405  10.412   1.816   9.499 -0.1856  0.5505  0.6148
  540MOL0     O74406  10.500   1.904   9.561  0.6483 -0.3266  0.2848
  540MOL0     C74407  10.592   1.869   9.657  0.0296 -0.6313  0.7371
  540MOL0     C74408  10.586   1.739   9.716 -0.4003 -0.0390 -0.2976
  540MOL0     C74409  10.667   1.702   9.825 -0.3784 -0.2779  0.4265
  540MOL0     C74410  10.649   1.556   9.884  0.1099 -0.1985  0.2805
  540MOL0     C74411  10.767   1.798   9.867 -0.0074 -0.6384 -0.5361
  540MOL0     C74412  10.869   1.770   9.973 -0.4605 -0.7759 -0.2934
  540MOL0     O74413  10.999   1.808   9.936 -0.1389  0.9163  0.1121
  540MOL0     C74414  11.101   1.796  10.032  0.0008 -0.0284  0.0673
  540MOL0     C74415  11.147   1.918  10.083  0.5164 -1.0543  1.0316
  540MOL0     C74416  11.243   1.924  10.180  0.3488  1.0111 -0.3239
  540MOL0     C74417  11.291   1.803  10.229 -1.0450 -0.1486 -0.5197
  540MOL0     O74418  11.389   1.823  10.326 -0.6692  0.7883 -0.2540
  540MOL0     C74419  11.475   1.710  10.352 -0.0495 -0.6981  0.2107
  540MOL0     C74420  11.580   1.755  10.456 -0.4669  0.0939  0.2180
  540MOL0     C74421  11.656   1.634  10.516  0.1915 -0.2095 -0.0723
  540MOL0     C74422  11.791   1.684  10.578  0.1516  0.3311 -0.5672
  540MOL0     C74423  11.859   1.578  10.664  0.1494 -0.0311  0.2285
  540MOL0     C74424  11.985   1.619  10.743  0.0174  0.5480  0.6627
  540MOL0     C74425  12.096   1.675  10.653 -0.6026  0.2249 -0.1459
  540MOL0     C74426  12.087   1.831  10.641 -0.9825  0.9834  0.1313
  540MOL0    Cl74427  12.182   1.880  10.795  0.3585  0.0644  0.1976
  540MOL0     C74428  11.254   1.680  10.174 -0.4423  0.3634 -0.2625
  540MOL0     C74429  11.153   1.676  10.078 -0.0157  0.6142 -0.1867
  540MOL0     O74430  10.834   1.709  10.074 -0.7580  0.6540  0.0278
  540MOL0     C74431  10.766   1.929   9.820  0.8054  0.0870  0.9705
  540MOL0     C74432  10.674   1.964   9.716 -0.2825  0.3587 -0.0657
  540MOL0     N74433   9.947   2.125   9.477 -0.1904 -0.5584 -1.0401
  540MOL0     N74434   9.855   2.211   9.502  0.1345  0.4086  0.5258
  540MOL0     C74435   8.903   2.696   8.961 -0.2987  0.3425  0.1147
  540MOL0     C74436   8.766   2.715   8.913  0.0991 -0.5337  0.1221
  540MOL0     C74437   8.302   2.753   8.955 -0.5931  0.2379 -0.1531
  540MOL0     C74438   8.279   2.785   8.821  0.8823 -0.0483 -0.0004
  540MOL0     C74439   8.149   2.801   8.773 -0.7207  0.2634 -0.3863
  540MOL0     C74440   8.043   2.783   8.863  0.4198 -0.7714 -0.3841
  540MOL0     O74441   7.910   2.808   8.818 -0.4902 -0.1609 -0.2324
  540MOL0     C74442   7.835   2.684   8.823 -0.3318  0.1503  0.0225
  540MOL0     C74443   7.711   2.690   8.730 -0.4396 -0.4656 -0.1762
  540MOL0     C74444   7.749   2.656   8.586 -0.6727  0.8403 -0.3262
  540MOL0     C74445   7.861   2.735   8.524 -0.3948  0.4186 -0.7433
  540MOL0     C74446   7.816   2.875   8.518 -0.7384 -0.5475  0.1099
  540MOL0     C74447   7.783   2.988   8.555 -1.3272  0.9531  0.9272
  540MOL0     C74448   8.068   2.752   8.996  0.1819  0.8820  0.7723
  540MOL0     C74449   8.200   2.734   9.046 -0.3940  0.3411  0.0618
  540MOL0     C74450   8.213   2.747   9.190 -0.0837  1.1508  0.3609
  540MOL0     H74451   8.663   2.915   9.164  1.4439  1.1283  1.3894
  540MOL0     H74452   8.872   2.890   9.236  1.8884 -2.7173  0.3646
  540MOL0     H74453   9.191   2.611   9.026 -2.6291  1.1475 -1.9935
  540MOL0     H74454   9.050   2.523   9.077  0.6507 -1.3979  0.2346
  540MOL0     H74455   9.256   2.653   9.266  2.3681 -1.0501 -0.7636
  540MOL0     H74456   9.137   2.514   9.309 -0.8839  0.5597 -0.0634
  540MOL0     H74457   9.246   2.361   9.143 -1.1492  0.3624  1.0952
  540MOL0     H74458   9.354   2.488   9.103 -0.3279 -0.6973 -0.2654
  540MOL0     H74459   9.344   2.416   9.389 -0.2488 -2.2971 -0.8340
  540MOL0     H74460   9.398   2.292   9.288 -2.1343 -0.4712 -2.0480
  540MOL0     H74461   9.507   2.575   9.282 -1.3673 -0.9924 -0.3942
  540MOL0     H74462   9.571   2.433   9.196  1.8036 -1.2042  0.8075
  540MOL0     H74463   9.551   2.453   9.497 -1.3742  0.3537 -1.0468
  540MOL0     H74464   9.624   2.320   9.397  0.0141  0.0702  0.8764
  540MOL0     H74465   9.723   2.606   9.408  2.1881  0.5365 -1.1457
  540MOL0     H74466   9.794   2.476   9.316 -0.5784 -0.9659  0.1232
  540MOL0     H74467   9.894   2.537   9.569  0.3540 -0.7646  0.9454
  540MOL0     H74468   9.765   2.441   9.616  0.6660  1.4419  1.2489
  540MOL0     H74469  10.116   2.400   9.435  1.3473 -1.9136 -0.1475
  540MOL0     H74470  10.279   2.190   9.408  0.0672  0.5739  0.5793
  540MOL0     H74471  10.166   2.097   9.305  0.8660  2.9224 -1.0559
  540MOL0     H74472  10.277   2.037   9.581  0.6973  0.2241 -1.7630
  540MOL0     H74473  10.136   1.948   9.516 -1.8992  1.7231 -0.5455
  540MOL0     H74474  10.284   1.849   9.328  0.4502 -0.1725 -0.0942
  540MOL0     H74475  10.393   1.972   9.355 -1.8285  1.5497  0.1806
  540MOL0     H74476  10.356   1.759   9.573  1.2260 -0.6248  0.8182
  540MOL0     H74477  10.475   1.742   9.449 -1.9262 -0.9115  0.5044
  540MOL0     H74478  10.511   1.667   9.685 -0.3898  0.6872 -2.0933
  540MOL0     H74479  10.754   1.532   9.906  0.4432  0.8698 -0.0682
  540MOL0     H74480  10.609   1.482   9.815  1.2184 -0.2372 -0.3499
  540MOL0     H74481  10.595   1.560   9.979  3.7357  0.5774  2.5022
  540MOL0     H74482  11.105   2.002  10.028  1.2580 -2.1370 -1.3021
  540MOL0     H74483  11.295   2.011  10.221  1.3558 -0.1111  0.8478
  540MOL0     H74484  11.409   1.631  10.388 -0.0765  0.1617  2.1685
  540MOL0     H74485  11.527   1.690  10.258 -1.1402  1.7652 -1.0137
  540MOL0     H74486  11.645   1.817  10.394 -0.5328  0.6345  0.6813
  540MOL0     H74487  11.527   1.818  10.529  0.7527 -0.4959  1.6657
  540MOL0     H74488  11.666   1.566  10.431 -0.3097 -1.3148  0.7385
  540MOL0     H74489  11.590   1.594  10.594  1.1958  0.6306  1.2565
  540MOL0     H74490  11.760   1.764  10.646 -0.9466 -0.4004 -0.1977
  540MOL0     H74491  11.861   1.718  10.501  1.9043 -0.2553  0.7051
  540MOL0     H74492  11.783   1.535  10.729 -1.2217  2.0677  0.1277
  540MOL0     H74493  11.889   1.512  10.582 -2.5975  0.5143 -1.3195
  540MOL0     H74494  12.024   1.541  10.809 -2.0022 -0.1558  1.0741
  540MOL0     H74495  11.953   1.698  10.812 -1.1511 -0.6075  1.4951
  540MOL0     H74496  12.080   1.627  10.556 -2.8366 -0.8223  0.6677
  540MOL0     H74497  12.196   1.664  10.694  0.1188  1.3121 -1.5330
  540MOL0     H74498  11.982   1.860  10.637 -0.5774  2.8688 -4.9366
  540MOL0     H74499  12.132   1.866  10.547  3.2439 -0.4353  1.4019
  540MOL0     H74500  11.290   1.584  10.210  0.5730  1.2347  1.1366
  540MOL0     H74501  11.119   1.575  10.061 -0.6449  0.3099  2.4156
  540MOL0     H74502  10.840   2.000   9.856  1.9765 -0.3330 -0.4957
  540MOL0     H74503  10.673   2.064   9.673 -0.6408  0.2931 -0.2119
  540MOL0     H74504   8.964   2.623   8.909  0.9360  0.8471  0.8188
  540MOL0     H74505   8.721   2.664   8.829  0.4159 -2.2107  0.9324
  540MOL0     H74506   8.363   2.808   8.756 -2.0543  0.0039 -4.2152
  540MOL0     H74507   8.126   2.816   8.668  0.4739 -1.5037 -0.9507
  540MOL0     H74508   7.893   2.602   8.780 -1.9453 -0.1238 -1.7768
  540MOL0     H74509   7.806   2.660   8.926 -3.8770 -0.8546 -1.0571
  540MOL0     H74510   7.669   2.790   8.741 -1.6833 -0.8986 -0.8639
  540MOL0     H74511   7.634   2.623   8.768 -2.8909  1.5180 -1.3703
  540MOL0     H74512   7.784   2.552   8.591  4.0161  2.1103 -1.5557
  540MOL0     H74513   7.659   2.643   8.525 -0.7808 -2.0479  0.2943
  540MOL0     H74514   7.881   2.709   8.420 -1.4274  2.0133 -1.3833
  540MOL0     H74515   7.953   2.707   8.576  0.0841 -0.2666 -1.9118
  540MOL0     H74516   7.761   3.092   8.570 -0.7781  1.5468 -1.8648
  540MOL0     H74517   7.993   2.765   9.073  0.4602  2.2679  0.8222
  540MOL0     H74518   8.119   2.722   9.240  0.4285  0.2099  0.8842
  540MOL0     H74519   8.291   2.684   9.232  0.2970  0.1856 -1.6884
  540MOL0     H74520   8.241   2.850   9.215 -0.8154  1.4333  0.0478
  541MOL0     O74521   9.608  11.275   4.247  0.5039 -0.3388 -0.5087
  541MOL0     C74522   9.577  11.165   4.205  0.1863 -0.1001 -0.0130
  541MOL0     O74523   9.637  11.046   4.230 -0.4876 -0.0537  0.1450
  541MOL0     C74524   9.757  11.051   4.292 -0.0480 -0.7973  0.0580
  541MOL0     C74525   9.764  11.107   4.426 -0.0354  0.2569 -0.1579
  541MOL0     C74526   9.883  11.125   4.488 -0.0686 -0.2840 -0.0277
  541MOL0     C74527   9.997  11.080   4.435  0.4476 -0.5131  0.6679
  541MOL0     O74528  10.119  11.089   4.498  0.4768  0.0678 -0.4394
  541MOL0     C74529  10.169  11.223   4.519  0.4062 -0.4921 -0.6311
  541MOL0     C74530  10.321  11.229   4.514 -0.2271 -0.1050  0.2126
  541MOL0     C74531  10.388  11.364   4.548  0.6639  0.3665 -0.0657
  541MOL0     C74532  10.533  11.354   4.503 -0.2218  0.0926  0.5722
  541MOL0     C74533  10.622  11.472   4.527 -0.4829  0.7927 -0.5128
  541MOL0     C74534  10.772  11.428   4.492  0.6406 -0.1964 -0.0250
  541MOL0     C74535  10.853  11.552   4.466  0.2121  0.1152  0.1473
  541MOL0     C74536  10.858  11.653   4.585 -0.6510  0.5262 -0.4664
  541MOL0     N74537  10.911  11.779   4.538  0.3700  0.0307  0.2678
  541MOL0     C74538  11.032  11.789   4.477  0.3551 -0.7709  0.1368
  541MOL0     C74539  11.033  11.891   4.392 -0.0395  0.0311  0.3752
  541MOL0     C74540  11.146  11.943   4.310 -0.3391 -0.4387 -0.1870
  541MOL0     C74541  11.249  12.037   4.385  0.1799 -0.0101  0.8213
  541MOL0     C74542  11.329  11.966   4.494 -0.0433 -0.3104 -0.1624
  541MOL0     C74543  11.427  12.070   4.561 -0.2332 -1.5113  0.4949
  541MOL0     O74544  11.510  12.148   4.468 -0.5302  0.4080  0.0529
  541MOL0     C74545  11.570  12.268   4.490  0.9411  1.3201  0.8606
  541MOL0     C74546  11.640  12.319   4.383  0.1182  1.4049 -0.1566
  541MOL0     C74547  11.706  12.440   4.389  0.4462 -0.2920 -0.6968
  541MOL0     C74548  11.737  12.503   4.258 -0.3603  0.7604  0.0769
  541MOL0     C74549  11.719  12.508   4.521 -0.3426 -0.6597  0.3640
  541MOL0     C74550  11.799  12.626   4.543  1.1438 -0.4196  0.3241
  541MOL0     O74551  11.779  12.696   4.656 -0.5997  0.2941  0.0237
  541MOL0     C74552  11.865  12.800   4.675  0.2597 -0.0620 -0.0513
  541MOL0     C74553  11.968  12.789   4.764 -0.3305 -0.4179  0.2765
  541MOL0     C74554  12.052  12.894   4.791  0.5226  0.4528 -0.8442
  541MOL0     C74555  12.025  13.021   4.735 -0.1496  0.2459 -0.4757
  541MOL0     O74556  12.128  13.118   4.756  0.3252  0.5912  0.1805
  541MOL0     C74557  12.138  13.218   4.655  0.8882  0.1648 -0.0288
  541MOL0     C74558  12.187  13.163   4.523  0.0960 -0.8887  0.8582
  541MOL0     C74559  12.344  13.179   4.522  0.3204 -0.0225 -0.0510
  541MOL0     C74560  12.405  13.046   4.576  0.0440  0.1322  0.0280
  541MOL0     C74561  12.558  13.047   4.569  0.5356  0.4064  0.3024
  541MOL0     C74562  12.623  12.916   4.630  0.1468  0.0742 -1.0137
  541MOL0     C74563  12.596  12.896   4.775  0.0707  0.4386 -0.5917
  541MOL0     C74564  12.734  12.882   4.860  0.2822  0.3160  0.6082
  541MOL0    Cl74565  12.686  12.858   5.022 -0.1865 -0.2527  0.1960
  541MOL0     C74566  11.917  13.037   4.655  0.2516 -0.1609 -0.1184
  541MOL0     C74567  11.838  12.931   4.626 -0.2862 -0.1628 -0.2660
  541MOL0     O74568  11.876  12.659   4.458 -0.2823 -0.4048 -0.2025
  541MOL0     C74569  11.656  12.448   4.629 -0.4578 -0.2286 -0.5572
  541MOL0     C74570  11.581  12.329   4.616  0.4464  0.0213 -0.1348
  541MOL0     N74571  10.909  11.946   4.401 -0.8392  0.6095  0.2401
  541MOL0     N74572  10.833  11.886   4.484 -0.2254  0.3465 -0.6302
  541MOL0     C74573   9.993  11.030   4.305  0.2735  0.4735 -0.3769
  541MOL0     C74574   9.877  11.010   4.238 -1.1407  1.2258  0.2918
  541MOL0     C74575   9.448  11.148   4.142  0.1310  0.6566  0.4647
  541MOL0     C74576   9.346  11.101   4.223  0.0665  0.8249  0.5054
  541MOL0     C74577   9.215  11.078   4.170  0.3539 -0.1744  0.9631
  541MOL0     C74578   9.181  11.125   4.041 -1.3386  0.4105  0.2538
  541MOL0     O74579   9.057  11.111   3.993  0.4826  0.5097 -0.5832
  541MOL0     C74580   8.995  11.226   3.943 -0.0609 -0.3019 -0.4996
  541MOL0     C74581   8.930  11.298   4.051 -1.2134 -0.9321 -0.9664
  541MOL0     C74582   8.826  11.396   3.998  0.1525  0.2474  0.0935
  541MOL0     C74583   8.794  11.519   4.086 -0.1432 -0.5359  0.5763
  541MOL0     C74584   8.722  11.496   4.207  0.3123 -0.6085  0.2566
  541MOL0     C74585   8.652  11.467   4.304  0.2493 -0.4184  0.0012
  541MOL0     C74586   9.287  11.178   3.961 -0.3464 -1.3109 -0.8421
  541MOL0     C74587   9.421  11.196   4.011 -0.3581  0.8443 -0.1529
  541MOL0     C74588   9.540  11.246   3.925 -0.6127  0.1072 -0.2666
  541MOL0     H74589   9.673  11.133   4.479 -1.7961 -2.6666 -1.5285
  541MOL0     H74590   9.902  11.179   4.581 -0.9221 -2.1232  1.2838
  541MOL0     H74591  10.130  11.254   4.617 -0.0595 -4.5175  0.6430
  541MOL0     H74592  10.137  11.290   4.439  0.8352  0.8064  0.2506
  541MOL0     H74593  10.366  11.151   4.576 -3.2372  0.3206  3.2203
  541MOL0     H74594  10.354  11.203   4.413  1.0428 -1.5689  0.9637
  541MOL0     H74595  10.341  11.454   4.506 -0.1328  0.8324  1.7429
  541MOL0     H74596  10.390  11.391   4.653  0.1747  2.9582 -0.6610
  541MOL0     H74597  10.572  11.269   4.560  0.6669  0.0971 -0.0244
  541MOL0     H74598  10.537  11.339   4.395 -3.3798 -1.2625  0.5310
  541MOL0     H74599  10.608  11.510   4.629  2.3703  1.3532 -0.2329
  541MOL0     H74600  10.590  11.553   4.462 -2.0702  1.6820  1.2611
  541MOL0     H74601  10.808  11.372   4.580 -1.0635 -1.0332  0.1843
  541MOL0     H74602  10.768  11.369   4.400 -1.9173 -2.1593  1.2249
  541MOL0     H74603  10.838  11.587   4.364  0.8373  1.9711  0.6653
  541MOL0     H74604  10.953  11.511   4.451 -0.3267 -0.1032 -3.8850
  541MOL0     H74605  10.763  11.661   4.638  0.9482 -0.0848  2.7008
  541MOL0     H74606  10.939  11.616   4.647  0.1685  1.3553 -1.0151
  541MOL0     H74607  11.113  11.718   4.485  1.3983 -0.0617 -2.7704
  541MOL0     H74608  11.113  12.008   4.228  0.3592  2.5792  1.7574
  541MOL0     H74609  11.207  11.861   4.270 -0.2254  0.5199 -2.0988
  541MOL0     H74610  11.319  12.066   4.306 -2.2007  1.8603 -0.7512
  541MOL0     H74611  11.199  12.124   4.430  0.5633  1.1469 -0.8746
  541MOL0     H74612  11.259  11.929   4.570 -0.8346  2.9717  0.8750
  541MOL0     H74613  11.395  11.886   4.460  1.7682  1.0581 -0.0172
  541MOL0     H74614  11.361  12.137   4.618 -3.0657 -1.2774 -2.7109
  541MOL0     H74615  11.492  12.022   4.635  0.9552  1.6659  1.6752
  541MOL0     H74616  11.648  12.261   4.292  1.0677  0.0573  0.7445
  541MOL0     H74617  11.842  12.521   4.230 -0.5599  0.8878 -0.6131
  541MOL0     H74618  11.680  12.597   4.260 -2.4308 -0.4524  0.9315
  541MOL0     H74619  11.699  12.441   4.177 -1.2249 -1.4676  2.0791
  541MOL0     H74620  11.983  12.693   4.812 -0.8201  0.3250  2.0016
  541MOL0     H74621  12.146  12.875   4.842  0.4047  0.0848 -0.7537
  541MOL0     H74622  12.045  13.270   4.629  0.6560 -0.2199  0.0231
  541MOL0     H74623  12.208  13.294   4.692 -0.0241 -0.0736  2.3498
  541MOL0     H74624  12.152  13.064   4.492  1.2553 -0.6447 -1.3872
  541MOL0     H74625  12.155  13.241   4.454  2.5434  3.7023  4.3356
  541MOL0     H74626  12.370  13.266   4.583 -2.8974  0.7049  0.4200
  541MOL0     H74627  12.381  13.199   4.421 -1.0741  0.6892 -0.4447
  541MOL0     H74628  12.369  12.959   4.520 -1.3863  0.6789  0.0387
  541MOL0     H74629  12.370  13.037   4.680 -0.1957  2.0068  0.1508
  541MOL0     H74630  12.589  13.052   4.464  2.6744 -0.1367  0.8477
  541MOL0     H74631  12.588  13.144   4.610  1.4751 -0.4334  1.7027
  541MOL0     H74632  12.731  12.932   4.624  0.4665  1.2243  3.6888
  541MOL0     H74633  12.597  12.825   4.576  0.0880 -0.7060  0.2948
  541MOL0     H74634  12.526  12.812   4.788 -1.7323  1.7532 -1.3875
  541MOL0     H74635  12.536  12.980   4.813  1.7805  0.9304  1.1863
  541MOL0     H74636  12.811  12.956   4.837  3.6728 -3.7016 -2.6406
  541MOL0     H74637  12.783  12.788   4.833 -1.4658 -0.7001  0.8423
  541MOL0     H74638  11.894  13.129   4.602 -1.0769 -0.6818 -0.4985
  541MOL0     H74639  11.760  12.946   4.552 -0.2311  1.8891  0.0354
  541MOL0     H74640  11.672  12.497   4.724 -0.8813 -1.2742  0.0766
  541MOL0     H74641  11.529  12.285   4.701  0.1524  0.2980 -0.1664
  541MOL0     H74642  10.089  10.999   4.265  1.6588  1.6675  1.8169
  541MOL0     H74643   9.862  10.956   4.145 -0.2015  0.0451  0.8008
  541MOL0     H74644   9.354  11.080   4.329 -1.0702 -1.2930  0.2405
  541MOL0     H74645   9.132  11.052   4.236  1.7680  2.8912  4.3106
  541MOL0     H74646   9.065  11.300   3.904 -0.5972  0.3850 -0.1650
  541MOL0     H74647   8.916  11.200   3.871  1.3071 -3.3076 -1.0971
  541MOL0     H74648   9.007  11.360   4.098  1.6429 -1.8381 -4.1012
  541MOL0     H74649   8.883  11.230   4.123  0.4277  0.2630  1.3820
  541MOL0     H74650   8.846  11.435   3.897 -0.2509 -1.3334 -0.6348
  541MOL0     H74651   8.736  11.336   3.988  0.0327 -0.0282  2.4166
  541MOL0     H74652   8.736  11.583   4.019 -0.0520 -3.5743 -2.7077
  541MOL0     H74653   8.889  11.574   4.098  0.0435 -0.0089 -2.4665
  541MOL0     H74654   8.578  11.458   4.381 -0.1502 -0.5563 -0.3924
  541MOL0     H74655   9.271  11.211   3.859 -2.5893 -3.0263 -1.1059
  541MOL0     H74656   9.581  11.336   3.971  1.6094 -2.1255  2.5097
  541MOL0     H74657   9.607  11.160   3.929 -0.8877 -0.0577  2.0682
  541MOL0     H74658   9.513  11.278   3.824  0.3358  1.3950 -0.1422
  542MOL0     O74659   9.304   1.399   5.714 -1.1495  1.1066 -0.0828
  542MOL0     C74660   9.289   1.275   5.697 -0.4837  0.0527 -0.3950
  542MOL0     O74661   9.224   1.219   5.585  0.0636 -0.0724 -0.2885
  542MOL0     C74662   9.181   1.296   5.483 -0.3128 -0.4790  1.1493
  542MOL0     C74663   9.245   1.405   5.428 -0.1956 -0.3424 -0.3316
  542MOL0     C74664   9.188   1.463   5.318  0.3044  0.7666 -1.4883
  542MOL0     C74665   9.065   1.419   5.264  0.6950  0.0832  0.1111
  542MOL0     O74666   8.985   1.474   5.168  0.4051 -0.3201  0.3675
  542MOL0     C74667   9.056   1.560   5.078  0.9037  0.3429  0.0411
  542MOL0     C74668   8.959   1.600   4.965  0.6656  0.7979 -0.8787
  542MOL0     C74669   8.904   1.477   4.888 -0.2787  0.9344 -0.0549
  542MOL0     C74670   9.012   1.387   4.825 -0.4720  0.1749  0.0754
  542MOL0     C74671   8.969   1.302   4.702  0.0681 -0.2797 -0.0160
  542MOL0     C74672   9.095   1.253   4.622 -1.5856  0.1782 -0.1336
  542MOL0     C74673   9.069   1.158   4.505  0.1343  0.2417  0.3058
  542MOL0     C74674   9.085   1.001   4.529  0.8277 -0.3147 -0.6170
  542MOL0     N74675   9.061   0.919   4.407  0.0792 -0.5048 -0.1908
  542MOL0     C74676   8.938   0.873   4.367 -1.3213 -0.3158  0.5006
  542MOL0     C74677   8.961   0.805   4.245 -0.3438 -0.0048 -0.1320
  542MOL0     C74678   8.874   0.722   4.160 -0.4219 -0.3230 -0.8968
  542MOL0     C74679   8.817   0.602   4.247 -0.4112  0.4239 -0.0621
  542MOL0     C74680   8.729   0.500   4.172 -0.1186 -0.3526 -0.0554
  542MOL0     C74681   8.702   0.371   4.257  0.1015 -0.4087  0.3929
  542MOL0     O74682   8.611   0.382   4.369 -0.5046  0.0639 -0.2098
  542MOL0     C74683   8.665   0.387   4.496 -0.1012  0.6773  0.2640
  542MOL0     C74684   8.749   0.288   4.544  0.5315 -0.2085 -0.8249
  542MOL0     C74685   8.794   0.294   4.677  0.1315  2.0583 -0.4322
  542MOL0     C74686   8.875   0.181   4.730  0.1907 -0.2223 -0.1416
  542MOL0     C74687   8.756   0.398   4.767 -1.0278 -0.6392  1.0754
  542MOL0     C74688   8.800   0.405   4.913 -0.1080  0.5461 -0.7530
  542MOL0     O74689   8.936   0.376   4.935  0.2673  0.3329 -0.0295
  542MOL0     C74690   8.972   0.350   5.066 -0.1689 -0.4916  0.5516
  542MOL0     C74691   9.012   0.222   5.097 -0.3520 -0.1995  0.8168
  542MOL0     C74692   9.046   0.191   5.228 -0.6788 -0.2280 -0.2281
  542MOL0     C74693   9.039   0.290   5.330  0.3491  0.6209  0.5589
  542MOL0     O74694   9.085   0.252   5.446  0.0537 -0.0574  0.0780
  542MOL0     C74695   9.078   0.339   5.556  0.5852  0.9059 -0.3609
  542MOL0     C74696   9.099   0.255   5.683 -0.3674  0.0248 -0.3200
  542MOL0     C74697   9.086   0.348   5.809 -0.6144  0.6494  0.1377
  542MOL0     C74698   9.087   0.264   5.939  0.1558  0.3296 -0.5788
  542MOL0     C74699   9.099   0.353   6.063 -0.2720 -0.4594  0.3973
  542MOL0     C74700   9.170   0.280   6.181  0.7325  0.2289  0.2164
  542MOL0     C74701   9.225   0.382   6.287  0.4371  0.3583  0.1694
  542MOL0     C74702   9.122   0.479   6.368 -0.5512  0.0484 -0.3966
  542MOL0    Cl74703   9.029   0.368   6.461  0.0130 -0.1459 -0.3579
  542MOL0     C74704   8.997   0.414   5.301  0.8670 -0.1771 -0.4475
  542MOL0     C74705   8.965   0.455   5.171  0.5863  0.4131  0.6965
  542MOL0     O74706   8.712   0.435   4.998 -0.1578  0.2164 -0.4063
  542MOL0     C74707   8.659   0.484   4.717 -0.2532 -0.8130 -0.0539
  542MOL0     C74708   8.620   0.487   4.582  0.2143  0.9476  0.6246
  542MOL0     N74709   9.103   0.809   4.225  0.2723 -0.1339 -0.8813
  542MOL0     N74710   9.159   0.886   4.313 -0.6607 -0.9585  1.0060
  542MOL0     C74711   9.000   1.314   5.323 -0.4185 -0.4331  0.3205
  542MOL0     C74712   9.066   1.251   5.431  0.5129 -0.3654  0.7687
  542MOL0     C74713   9.326   1.186   5.806  0.3432  0.9655 -0.1941
  542MOL0     C74714   9.356   1.054   5.769 -0.4155 -0.3318  0.5883
  542MOL0     C74715   9.390   0.956   5.858  0.3178 -0.0588  0.1425
  542MOL0     C74716   9.404   0.987   5.995 -0.3008  0.0452  0.0386
  542MOL0     O74717   9.446   0.888   6.081 -0.2008 -0.7151  1.3203
  542MOL0     C74718   9.447   0.892   6.225  0.3290  0.4068 -0.6003
  542MOL0     C74719   9.488   0.757   6.277 -0.7525 -0.4406 -0.3162
  542MOL0     C74720   9.518   0.753   6.428 -0.0700  0.1355  0.3284
  542MOL0     C74721   9.539   0.604   6.475 -0.3673 -0.5196  0.1150
  542MOL0     C74722   9.658   0.528   6.426 -0.1641 -0.1185 -0.1951
  542MOL0     C74723   9.749   0.456   6.391  0.9315  0.6468  0.1795
  542MOL0     C74724   9.380   1.118   6.036 -0.4132  0.1914 -0.1467
  542MOL0     C74725   9.345   1.215   5.947  0.1354 -0.1813  0.5151
  542MOL0     C74726   9.330   1.363   5.996 -0.0973 -0.0879 -0.1460
  542MOL0     H74727   9.349   1.423   5.451 -0.4546 -1.2121  1.7485
  542MOL0     H74728   9.251   1.546   5.288  1.6335  0.5710  0.5484
  542MOL0     H74729   9.140   1.512   5.026  1.2849  1.9126 -0.8471
  542MOL0     H74730   9.100   1.651   5.120  2.5829  0.2363 -1.3766
  542MOL0     H74731   8.878   1.661   5.008  1.4252  0.0898  1.8000
  542MOL0     H74732   9.006   1.667   4.892 -0.1499  1.6297 -0.6724
  542MOL0     H74733   8.857   1.415   4.965  2.0187  0.9707  1.4954
  542MOL0     H74734   8.829   1.504   4.814  0.2587 -3.6711 -2.6046
  542MOL0     H74735   9.091   1.455   4.790 -2.0818  1.0996 -2.0365
  542MOL0     H74736   9.048   1.309   4.892 -0.5282 -0.7874 -0.9886
  542MOL0     H74737   8.893   1.347   4.639 -2.4064 -0.5546  2.5533
  542MOL0     H74738   8.924   1.206   4.731  0.0061  0.2295  1.6811
  542MOL0     H74739   9.140   1.345   4.582 -0.7255 -1.3878 -3.0935
  542MOL0     H74740   9.169   1.199   4.681  0.8692 -1.1290 -4.0079
  542MOL0     H74741   9.152   1.174   4.435  0.4017  1.8349  0.9504
  542MOL0     H74742   8.978   1.194   4.457 -1.0496  1.4424  3.2394
  542MOL0     H74743   9.191   0.987   4.552  0.6499  0.4822  0.7638
  542MOL0     H74744   9.019   0.961   4.606  0.1175  1.0992 -0.4531
  542MOL0     H74745   8.847   0.896   4.423 -0.2397 -0.3520  2.3797
  542MOL0     H74746   8.942   0.685   4.082 -1.1501  2.3214 -2.9472
  542MOL0     H74747   8.790   0.776   4.116 -1.6270  0.5000  2.2047
  542MOL0     H74748   8.897   0.545   4.295  0.0240 -1.1922 -2.5189
  542MOL0     H74749   8.744   0.650   4.313 -0.0975  4.1073 -2.1370
  542MOL0     H74750   8.632   0.546   4.149  0.0811  0.2057  0.2057
  542MOL0     H74751   8.772   0.491   4.072 -0.4225  5.1110 -0.9880
  542MOL0     H74752   8.665   0.291   4.192  1.7093  1.9512 -3.8233
  542MOL0     H74753   8.798   0.330   4.290  1.8017  0.7556 -2.7210
  542MOL0     H74754   8.786   0.205   4.484  1.1995 -2.0974  1.9760
  542MOL0     H74755   8.978   0.211   4.750 -0.2360  1.4959 -0.3261
  542MOL0     H74756   8.874   0.089   4.671 -1.1222 -2.7145  3.4256
  542MOL0     H74757   8.854   0.147   4.832  1.7945 -0.2471  0.2080
  542MOL0     H74758   9.014   0.141   5.025 -1.0402  1.6998 -1.4713
  542MOL0     H74759   9.095   0.098   5.255 -1.4690 -0.6945 -0.3562
  542MOL0     H74760   9.148   0.422   5.561 -1.4484  2.7095 -0.4108
  542MOL0     H74761   8.976   0.379   5.558 -0.1889 -0.5224 -3.7326
  542MOL0     H74762   9.022   0.177   5.685  0.7968 -1.1368  0.5720
  542MOL0     H74763   9.198   0.208   5.683  0.2885  1.3489 -0.4473
  542MOL0     H74764   8.993   0.406   5.807 -0.1459  1.7016  3.1838
  542MOL0     H74765   9.163   0.425   5.802 -1.0187  0.9675 -0.9228
  542MOL0     H74766   9.171   0.194   5.945  0.1964  0.5099  2.1321
  542MOL0     H74767   8.996   0.204   5.942 -0.2475  0.9587  0.1126
  542MOL0     H74768   9.168   0.430   6.030  1.1988 -2.0978 -0.5202
  542MOL0     H74769   9.006   0.395   6.103 -0.4604  0.4483 -0.9153
  542MOL0     H74770   9.256   0.226   6.142  1.4951  2.2941 -1.1457
  542MOL0     H74771   9.105   0.202   6.223 -1.4024  1.1027 -1.2624
  542MOL0     H74772   9.301   0.439   6.233 -1.0384 -0.6451 -3.2418
  542MOL0     H74773   9.276   0.320   6.362 -1.5307  1.8323  2.9002
  542MOL0     H74774   9.056   0.543   6.308 -2.6362 -1.7807 -0.1918
  542MOL0     H74775   9.189   0.544   6.426 -0.8873 -1.6259  2.0217
  542MOL0     H74776   8.979   0.489   5.377  2.3341  0.5651 -0.7984
  542MOL0     H74777   8.929   0.555   5.147  1.4375  1.1578  2.3806
  542MOL0     H74778   8.614   0.565   4.773 -0.2776 -1.1162  0.3644
  542MOL0     H74779   8.558   0.564   4.538 -0.1678  0.6769  0.6910
  542MOL0     H74780   8.901   1.284   5.289 -0.7719  0.7577  0.2407
  542MOL0     H74781   9.020   1.172   5.489 -2.2137  1.8180  1.7781
  542MOL0     H74782   9.336   1.028   5.666 -0.3962  0.9656  0.2490
  542MOL0     H74783   9.417   0.856   5.826  1.7373  0.4081 -0.2165
  542MOL0     H74784   9.516   0.963   6.273 -0.8377  1.9941 -1.1756
  542MOL0     H74785   9.343   0.909   6.254 -0.1657 -2.3423 -0.4934
  542MOL0     H74786   9.577   0.731   6.219  0.6561  0.8123  1.1716
  542MOL0     H74787   9.407   0.687   6.256 -1.6815 -0.0239  1.6600
  542MOL0     H74788   9.610   0.807   6.451  0.1186 -0.8123  1.9750
  542MOL0     H74789   9.427   0.790   6.477 -1.2221  1.3577 -2.4641
  542MOL0     H74790   9.449   0.542   6.468 -1.2112  0.5247  1.2486
  542MOL0     H74791   9.562   0.609   6.582  1.0135 -2.6596 -0.0202
  542MOL0     H74792   9.815   0.381   6.352  0.1285  0.3016 -0.5308
  542MOL0     H74793   9.391   1.141   6.141  0.5384  1.0387 -0.4171
  542MOL0     H74794   9.243   1.415   5.953 -1.1797  0.5713  2.5948
  542MOL0     H74795   9.310   1.373   6.103 -0.0800  0.7646 -0.2138
  542MOL0     H74796   9.420   1.419   5.968 -0.7346  1.4205  0.6864
  543MOL0     O74797   5.776   4.142   4.810  0.1099  0.0262 -0.0432
  543MOL0     C74798   5.773   4.027   4.758 -0.7394  0.0100  0.4782
  543MOL0     O74799   5.784   3.991   4.627 -0.2090  0.1386 -0.2184
  543MOL0     C74800   5.790   4.094   4.537 -0.1290 -0.8410 -0.2178
  543MOL0     C74801   5.687   4.122   4.445  0.3506  0.2663  0.4874
  543MOL0     C74802   5.702   4.227   4.359 -0.0388 -0.7496  0.0942
  543MOL0     C74803   5.817   4.300   4.359 -0.0613 -0.0810 -0.6045
  543MOL0     O74804   5.848   4.392   4.267  0.9748 -0.2356  0.1299
  543MOL0     C74805   5.765   4.394   4.149 -0.0103  0.4327 -0.9996
  543MOL0     C74806   5.828   4.493   4.047 -1.2433 -0.7740  0.2916
  543MOL0     C74807   5.755   4.491   3.918 -0.8108  0.1929 -1.0064
  543MOL0     C74808   5.798   4.616   3.838  0.5963  0.7326  0.4136
  543MOL0     C74809   5.764   4.604   3.694  0.0338  0.7227  0.0458
  543MOL0     C74810   5.627   4.669   3.657  0.3507 -0.0988  0.5939
  543MOL0     C74811   5.496   4.591   3.698 -0.0055  0.4007 -0.0565
  543MOL0     C74812   5.371   4.666   3.644 -0.1822 -0.0925  0.3502
  543MOL0     N74813   5.245   4.586   3.654 -0.0441  0.2654  0.4121
  543MOL0     C74814   5.140   4.593   3.744  0.1241  0.4786 -0.1126
  543MOL0     C74815   5.055   4.501   3.700 -0.1721 -0.4378 -0.8484
  543MOL0     C74816   4.940   4.462   3.789 -0.5164  0.4380 -0.6854
  543MOL0     C74817   4.970   4.338   3.866  0.6474  0.0785  0.1665
  543MOL0     C74818   4.844   4.301   3.943  0.3747 -0.2961 -0.5237
  543MOL0     C74819   4.869   4.178   4.028  0.3823 -0.4102  0.4713
  543MOL0     O74820   4.982   4.178   4.105 -0.4864 -0.2824 -0.6357
  543MOL0     C74821   5.019   4.057   4.160 -0.0129 -1.0100  0.6219
  543MOL0     C74822   5.139   4.052   4.228  0.2220  0.0141 -0.9387
  543MOL0     C74823   5.196   3.932   4.267 -0.5445 -0.2991  0.5714
  543MOL0     C74824   5.345   3.922   4.324  0.1152 -0.1899 -0.1194
  543MOL0     C74825   5.128   3.811   4.254  1.5479 -0.4418 -1.3021
  543MOL0     C74826   5.170   3.680   4.302 -0.6468 -1.5247  0.2513
  543MOL0     O74827   5.143   3.584   4.220 -0.8104  0.5154 -0.0754
  543MOL0     C74828   5.220   3.473   4.226  0.6332  0.9411 -0.3193
  543MOL0     C74829   5.322   3.447   4.135 -0.4837 -0.2447 -0.8051
  543MOL0     C74830   5.389   3.323   4.154 -0.3835 -0.0762  0.7448
  543MOL0     C74831   5.362   3.228   4.253  0.2545 -1.8533  0.0117
  543MOL0     O74832   5.422   3.105   4.256 -1.1314  0.0909  0.1838
  543MOL0     C74833   5.416   3.041   4.131 -0.4577  0.0415 -0.1692
  543MOL0     C74834   5.414   2.888   4.153 -0.2236  0.3031 -0.0802
  543MOL0     C74835   5.372   2.817   4.020 -0.9438  0.9621 -0.2756
  543MOL0     C74836   5.369   2.665   4.043  0.2078 -0.2186 -0.9612
  543MOL0     C74837   5.284   2.600   3.928 -0.3519  0.5291  0.0474
  543MOL0     C74838   5.259   2.447   3.925  0.2527 -0.2555 -0.3089
  543MOL0     C74839   5.183   2.395   4.039 -0.1976 -0.2067  0.1175
  543MOL0     C74840   5.180   2.245   4.067  0.5767 -0.0319 -0.1416
  543MOL0    Cl74841   5.343   2.197   4.119 -0.8030 -0.1014 -0.5552
  543MOL0     C74842   5.259   3.262   4.341  0.7426  0.1299  0.2927
  543MOL0     C74843   5.184   3.375   4.318  0.5356 -0.2705 -0.9390
  543MOL0     O74844   5.222   3.681   4.415 -0.7009  0.0760  0.2785
  543MOL0     C74845   4.995   3.821   4.197  0.4425 -0.7736  0.9693
  543MOL0     C74846   4.941   3.937   4.152 -0.6013 -0.5598 -0.3323
  543MOL0     N74847   5.108   4.435   3.596 -0.6836 -0.3215  0.1267
  543MOL0     N74848   5.217   4.491   3.559 -0.1950  0.0591 -0.3597
  543MOL0     C74849   5.913   4.276   4.454 -0.3557 -0.4984 -0.2977
  543MOL0     C74850   5.905   4.176   4.541  0.4082  0.2195  0.7965
  543MOL0     C74851   5.756   3.910   4.857  0.5534  1.5974  0.0544
  543MOL0     C74852   5.730   3.778   4.811  0.6354 -0.9257 -0.2318
  543MOL0     C74853   5.715   3.666   4.897 -1.1928  0.6120  0.2385
  543MOL0     C74854   5.739   3.672   5.032 -1.1518  0.0501 -0.6032
  543MOL0     O74855   5.706   3.560   5.104 -0.5317 -0.1138  0.5044
  543MOL0     C74856   5.726   3.554   5.245 -0.5375 -0.9540 -0.2600
  543MOL0     C74857   5.732   3.419   5.295  0.4809 -0.0090  0.2425
  543MOL0     C74858   5.737   3.415   5.448  0.2054 -0.1633 -0.3203
  543MOL0     C74859   5.714   3.268   5.505 -0.7395  1.2983  0.0095
  543MOL0     C74860   5.808   3.168   5.438  0.8170 -0.7179  0.0073
  543MOL0     C74861   5.882   3.097   5.379  0.2504  0.2620 -0.4203
  543MOL0     C74862   5.779   3.799   5.082  0.3629 -1.2609 -0.2217
  543MOL0     C74863   5.790   3.918   4.995  0.1604  0.4318 -0.2653
  543MOL0     C74864   5.842   4.037   5.069 -0.3636  0.7065  0.3699
  543MOL0     H74865   5.602   4.055   4.457  1.5787 -0.9649  3.0652
  543MOL0     H74866   5.620   4.255   4.294 -0.3347 -0.5131  0.5602
  543MOL0     H74867   5.667   4.436   4.172  0.6279  2.6264 -2.0145
  543MOL0     H74868   5.758   4.291   4.112 -0.7581  0.5772 -1.2871
  543MOL0     H74869   5.804   4.592   4.087  1.6995  0.4116 -0.5497
  543MOL0     H74870   5.936   4.476   4.041 -1.5015 -3.0335  1.0876
  543MOL0     H74871   5.766   4.399   3.861  0.4369  0.0180 -0.5057
  543MOL0     H74872   5.649   4.504   3.945 -0.1700  1.4589  1.1784
  543MOL0     H74873   5.738   4.702   3.872 -2.8971 -1.3786  0.0777
  543MOL0     H74874   5.906   4.630   3.850  0.4680  2.4753 -0.1558
  543MOL0     H74875   5.762   4.504   3.650 -1.4940  0.7296  0.0518
  543MOL0     H74876   5.844   4.652   3.636  0.9002 -3.6974 -2.8729
  543MOL0     H74877   5.625   4.768   3.704 -2.4654 -0.9912  2.6583
  543MOL0     H74878   5.629   4.664   3.548  1.0676  4.1617  0.2399
  543MOL0     H74879   5.484   4.575   3.806  0.1237  0.7235  0.0079
  543MOL0     H74880   5.501   4.493   3.650  0.2989 -1.2367  3.0631
  543MOL0     H74881   5.366   4.768   3.684 -0.0307  0.5775 -1.2614
  543MOL0     H74882   5.402   4.691   3.543  2.7683 -0.3147  1.1193
  543MOL0     H74883   5.129   4.659   3.830 -0.8363 -1.6759  1.5196
  543MOL0     H74884   4.845   4.452   3.735  0.6934 -0.7663 -2.7466
  543MOL0     H74885   4.918   4.546   3.854 -0.2257  0.1220 -0.1698
  543MOL0     H74886   4.995   4.258   3.796 -0.3201  0.2463 -0.3910
  543MOL0     H74887   5.056   4.352   3.932 -1.2507  2.0395  2.4098
  543MOL0     H74888   4.825   4.382   4.013 -0.7711 -2.4873  1.8635
  543MOL0     H74889   4.755   4.287   3.880  1.8638  0.0213 -2.8253
  543MOL0     H74890   4.786   4.170   4.099  1.2994 -0.4866  1.5571
  543MOL0     H74891   4.856   4.097   3.955  1.7057 -0.0085 -0.2389
  543MOL0     H74892   5.191   4.147   4.239  1.4195 -0.8940  2.8042
  543MOL0     H74893   5.352   3.916   4.433  0.5369  1.1408 -0.0664
  543MOL0     H74894   5.394   4.015   4.297  0.0843  0.0813  0.7107
  543MOL0     H74895   5.409   3.836   4.301 -1.3164 -1.0623 -1.0179
  543MOL0     H74896   5.342   3.513   4.051 -1.2960 -1.1572 -1.7334
  543MOL0     H74897   5.474   3.304   4.089  1.1987  1.1768  2.3514
  543MOL0     H74898   5.326   3.077   4.081 -1.5352  1.8042  2.7917
  543MOL0     H74899   5.504   3.063   4.070 -0.0179  0.6389  0.6520
  543MOL0     H74900   5.511   2.848   4.182 -0.3617  0.1804  0.2081
  543MOL0     H74901   5.333   2.866   4.222 -2.3808  0.2269 -2.4733
  543MOL0     H74902   5.444   2.840   3.940 -1.5913 -2.6460 -2.1015
  543MOL0     H74903   5.281   2.855   3.972 -0.1756  2.2130 -0.8082
  543MOL0     H74904   5.322   2.658   4.141  1.3071  2.4261 -0.1731
  543MOL0     H74905   5.466   2.614   4.047  1.9996  2.9447  3.1402
  543MOL0     H74906   5.187   2.646   3.907 -0.7821 -0.7288 -0.8639
  543MOL0     H74907   5.328   2.610   3.828 -1.9544 -1.6428 -0.9750
  543MOL0     H74908   5.355   2.395   3.927 -1.6451 -4.4917  4.0440
  543MOL0     H74909   5.204   2.418   3.835 -0.4219  0.6408 -0.1994
  543MOL0     H74910   5.082   2.436   4.033 -0.2782 -0.6263 -3.8458
  543MOL0     H74911   5.224   2.447   4.126 -4.0269  2.5453  0.5356
  543MOL0     H74912   5.151   2.185   3.981  0.8221 -2.0502  1.1090
  543MOL0     H74913   5.106   2.225   4.146 -1.2127 -0.4395 -1.8537
  543MOL0     H74914   5.222   3.201   4.422 -0.4813 -1.6737 -1.5330
  543MOL0     H74915   5.100   3.397   4.383  0.2496 -0.2996 -1.2947
  543MOL0     H74916   4.920   3.743   4.191 -0.0416 -0.1973 -3.1317
  543MOL0     H74917   4.837   3.952   4.126 -1.0891 -0.1504  1.6553
  543MOL0     H74918   5.986   4.355   4.462 -2.9783  2.0313  0.0655
  543MOL0     H74919   5.979   4.175   4.620  1.8722 -3.8029 -0.3848
  543MOL0     H74920   5.707   3.759   4.707  0.8729 -2.2769 -0.0489
  543MOL0     H74921   5.695   3.567   4.857  2.1198 -0.1982  0.3534
  543MOL0     H74922   5.820   3.605   5.266 -1.2864  0.1633  0.4757
  543MOL0     H74923   5.640   3.610   5.285  0.1687 -1.5905  2.3450
  543MOL0     H74924   5.812   3.363   5.245 -0.0436  0.4352 -1.1208
  543MOL0     H74925   5.638   3.373   5.263  0.2880  0.1982  0.5019
  543MOL0     H74926   5.834   3.450   5.487  1.1244 -3.2435  0.4589
  543MOL0     H74927   5.655   3.464   5.500  2.2250  1.0275  1.9489
  543MOL0     H74928   5.618   3.223   5.476  0.1840  1.3523 -3.5313
  543MOL0     H74929   5.723   3.274   5.614 -1.0768 -1.5763  0.2894
  543MOL0     H74930   5.937   3.037   5.309 -1.9088 -3.4367  0.7629
  543MOL0     H74931   5.789   3.801   5.190 -2.9328 -2.2091  0.2024
  543MOL0     H74932   5.890   4.005   5.162  4.3946 -0.4801 -2.1640
  543MOL0     H74933   5.921   4.088   5.014 -1.0089 -2.3649 -3.9096
  543MOL0     H74934   5.751   4.095   5.086 -1.5092 -1.1616  0.9634
  544MOL0     O74935   8.428   2.834  10.396 -0.2559  0.4417 -0.5584
  544MOL0     C74936   8.394   2.749  10.319 -0.4318  0.4060  0.7251
  544MOL0     O74937   8.382   2.613  10.351 -0.6332 -0.5499  0.5070
  544MOL0     C74938   8.402   2.581  10.481  0.7111 -0.7125  0.5357
  544MOL0     C74939   8.522   2.588  10.544 -0.0205  0.9034 -0.4637
  544MOL0     C74940   8.529   2.571  10.680  0.0101 -0.0974 -0.1396
  544MOL0     C74941   8.420   2.542  10.763 -0.6509 -0.2251  1.6539
  544MOL0     O74942   8.409   2.530  10.897  0.2033  0.1444  0.0724
  544MOL0     C74943   8.521   2.450  10.947  0.3554 -0.0994  0.2053
  544MOL0     C74944   8.509   2.437  11.093 -0.2745  0.2872  0.0313
  544MOL0     C74945   8.516   2.572  11.165  0.2196 -0.8224 -0.6216
  544MOL0     C74946   8.477   2.584  11.313 -0.0987  0.4126  0.8699
  544MOL0     C74947   8.323   2.565  11.348  0.7095 -0.6296  0.3901
  544MOL0     C74948   8.227   2.681  11.318  0.1463 -0.6163  0.2560
  544MOL0     C74949   8.076   2.653  11.344  0.1264 -0.4644 -0.4631
  544MOL0     C74950   7.994   2.784  11.319 -0.1913 -0.0571  0.7853
  544MOL0     N74951   8.005   2.830  11.179  0.1366  0.4244 -0.3032
  544MOL0     C74952   8.092   2.915  11.132 -0.2590 -0.5285 -0.0905
  544MOL0     C74953   8.049   2.933  11.005 -0.3420  0.8786 -0.0663
  544MOL0     C74954   8.125   3.021  10.905  0.6358  0.1126  0.6932
  544MOL0     C74955   8.235   2.952  10.839 -1.2009 -0.2416 -0.1552
  544MOL0     C74956   8.363   2.940  10.925 -0.1887  0.5334  0.2690
  544MOL0     C74957   8.478   2.913  10.834 -0.4814 -0.4988 -0.1187
  544MOL0     O74958   8.586   2.863  10.916 -0.4959 -0.2846  0.5286
  544MOL0     C74959   8.710   2.848  10.858 -0.2867  0.2111 -0.0695
  544MOL0     C74960   8.742   2.887  10.727  0.0907 -1.1074 -0.1570
  544MOL0     C74961   8.872   2.877  10.686  0.1845 -0.8016  0.8214
  544MOL0     C74962   8.906   2.935  10.553  0.1051  0.6871 -0.0564
  544MOL0     C74963   8.967   2.805  10.763 -0.1405  0.1171 -0.0528
  544MOL0     C74964   9.104   2.770  10.727  0.8191 -0.8607  0.2793
  544MOL0     O74965   9.145   2.650  10.783  0.0082  0.8084 -0.2719
  544MOL0     C74966   9.279   2.624  10.793  0.3983  0.4929  0.3665
  544MOL0     C74967   9.364   2.719  10.832  0.3605 -0.3775  0.1586
  544MOL0     C74968   9.498   2.696  10.843  0.7491  0.5809 -0.3620
  544MOL0     C74969   9.550   2.574  10.812 -0.0859  0.6789  0.1831
  544MOL0     O74970   9.681   2.541  10.816  0.1891  0.3720  0.3680
  544MOL0     C74971   9.775   2.647  10.799 -0.5121 -1.6173 -0.9799
  544MOL0     C74972   9.907   2.579  10.803 -0.3218  0.2424 -0.8251
  544MOL0     C74973  10.023   2.677  10.791 -0.0064 -0.6664 -0.1941
  544MOL0     C74974  10.121   2.674  10.908  0.3688 -0.3963  0.4564
  544MOL0     C74975  10.231   2.793  10.896  0.4497 -0.4662 -0.5107
  544MOL0     C74976  10.327   2.797  11.019  1.0605  0.0063  0.0823
  544MOL0     C74977  10.443   2.892  11.017  0.6562  0.0003 -0.3588
  544MOL0     C74978  10.394   3.038  11.005  0.5745  0.7460  0.2349
  544MOL0    Cl74979  10.524   3.151  11.045 -0.5100 -0.5048  0.4431
  544MOL0     C74980   9.469   2.468  10.776 -0.4259  0.1126 -0.3291
  544MOL0     C74981   9.333   2.497  10.773 -0.5147 -0.5414  0.1097
  544MOL0     O74982   9.167   2.835  10.641  0.4115  0.1999  0.3173
  544MOL0     C74983   8.921   2.759  10.893 -0.3002  0.1997  0.9702
  544MOL0     C74984   8.796   2.789  10.939  0.3821 -0.0111  1.4081
  544MOL0     N74985   7.939   2.850  10.983 -0.1401  0.5634 -0.1599
  544MOL0     N74986   7.917   2.786  11.088 -0.3243 -0.2662 -0.0644
  544MOL0     C74987   8.297   2.531  10.694  0.9200 -1.4100  0.5032
  544MOL0     C74988   8.290   2.554  10.553  0.8936 -0.1607 -0.2403
  544MOL0     C74989   8.369   2.782  10.171  0.5137  0.3848 -0.4255
  544MOL0     C74990   8.334   2.674  10.077  0.2412  1.0198 -0.0208
  544MOL0     C74991   8.320   2.699   9.942 -0.3504 -0.0368  0.1811
  544MOL0     C74992   8.342   2.830   9.892 -0.7433 -0.3163  0.0541
  544MOL0     O74993   8.330   2.855   9.758  0.3040  0.6184  0.5296
  544MOL0     C74994   8.441   2.926   9.709  0.7499  0.2004  0.0035
  544MOL0     C74995   8.451   2.870   9.561 -0.0501 -0.4438 -0.3531
  544MOL0     C74996   8.538   2.945   9.459  0.1862  0.0439 -0.3495
  544MOL0     C74997   8.678   2.995   9.490 -0.2294  0.4942  0.2802
  544MOL0     C74998   8.762   2.900   9.560  0.1869  0.4433  0.1957
  544MOL0     C74999   8.834   2.830   9.632 -0.1828  0.1249 -0.2282
  544MOL0     C75000   8.380   2.931   9.977 -1.0863  0.1865  0.2095
  544MOL0     C75001   8.374   2.912  10.115 -0.2600  0.2288 -0.6462
  544MOL0     C75002   8.405   3.030  10.198  0.0087 -0.6151  0.0023
  544MOL0     H75003   8.611   2.603  10.484  1.8687 -2.6657  1.1199
  544MOL0     H75004   8.621   2.578  10.736 -0.8810  1.4807  1.1897
  544MOL0     H75005   8.619   2.492  10.922  0.4315 -0.8157 -0.7373
  544MOL0     H75006   8.513   2.354  10.896  2.8835 -0.1475 -0.2299
  544MOL0     H75007   8.415   2.383  11.110  0.2174 -1.4442 -2.2579
  544MOL0     H75008   8.585   2.374  11.138 -0.5544 -0.7476 -0.9042
  544MOL0     H75009   8.610   2.626  11.149 -0.8985  1.6238  0.6222
  544MOL0     H75010   8.454   2.646  11.116  1.0332  0.0028 -0.4366
  544MOL0     H75011   8.552   2.518  11.359  1.7119  0.9328 -1.1278
  544MOL0     H75012   8.501   2.686  11.342  0.1973  0.4122  0.6363
  544MOL0     H75013   8.318   2.547  11.456  3.1844 -0.7184  0.5467
  544MOL0     H75014   8.278   2.479  11.297 -0.9523  0.1660  0.4707
  544MOL0     H75015   8.259   2.765  11.380  0.0876 -0.6855  0.3812
  544MOL0     H75016   8.244   2.706  11.213 -0.7874 -0.5724  0.1080
  544MOL0     H75017   8.059   2.633  11.450  0.4462 -1.7375 -0.6354
  544MOL0     H75018   8.038   2.568  11.287  1.4300 -2.6578  1.7476
  544MOL0     H75019   7.897   2.750  11.354  0.5583 -0.6611  2.3823
  544MOL0     H75020   8.020   2.870  11.381 -0.2938  0.8551 -0.3980
  544MOL0     H75021   8.174   2.960  11.186 -2.8097  0.3692  3.3642
  544MOL0     H75022   8.154   3.109  10.964  0.0676  0.5018  0.3969
  544MOL0     H75023   8.055   3.061  10.831 -0.5080  1.7329  2.5583
  544MOL0     H75024   8.186   2.866  10.792 -0.4756 -0.3944 -0.6468
  544MOL0     H75025   8.262   3.009  10.750 -1.5993 -0.8514 -0.6720
  544MOL0     H75026   8.374   3.029  10.988  1.0603 -1.0948  2.5056
  544MOL0     H75027   8.344   2.854  10.989  0.3998 -0.1955 -0.5037
  544MOL0     H75028   8.451   2.840  10.758  0.3163  0.3004 -1.2085
  544MOL0     H75029   8.503   3.008  10.784  2.7901 -0.2887  1.6664
  544MOL0     H75030   8.669   2.936  10.664  0.0603 -1.6628 -0.5544
  544MOL0     H75031   8.979   3.016  10.562 -0.2410  0.9788  0.1875
  544MOL0     H75032   8.814   2.985  10.523 -0.2303  1.1366  1.5918
  544MOL0     H75033   8.948   2.869  10.477  2.1179  1.7491  0.0791
  544MOL0     H75034   9.327   2.813  10.870  2.3819  0.8827 -0.7768
  544MOL0     H75035   9.562   2.778  10.874  1.9400  0.0320 -1.3304
  544MOL0     H75036   9.770   2.708  10.708  4.7542  0.3495 -0.2976
  544MOL0     H75037   9.766   2.728  10.871 -1.7718 -2.9994  0.4950
  544MOL0     H75038   9.904   2.516  10.893 -0.3323  0.6801 -0.5114
  544MOL0     H75039   9.913   2.508  10.720  2.5081 -1.9652  1.0580
  544MOL0     H75040   9.979   2.776  10.778 -2.8675 -2.0913 -2.8899
  544MOL0     H75041  10.080   2.646  10.703  0.3956  1.2333 -0.6452
  544MOL0     H75042  10.180   2.583  10.923 -0.9721 -0.8871  3.4771
  544MOL0     H75043  10.055   2.681  10.995  1.1826  0.3849  1.0245
  544MOL0     H75044  10.283   2.778  10.801  1.8116 -2.0841  0.4183
  544MOL0     H75045  10.165   2.880  10.894  0.7094 -0.2719 -0.7531
  544MOL0     H75046  10.379   2.702  11.030 -0.2375 -0.4585  3.1802
  544MOL0     H75047  10.266   2.821  11.107 -1.6860 -3.4228 -0.6521
  544MOL0     H75048  10.509   2.869  10.934  1.3247 -1.2621  0.4993
  544MOL0     H75049  10.500   2.871  11.108  0.5929 -0.9790 -0.5397
  544MOL0     H75050  10.309   3.065  11.067 -1.8020 -1.5076 -1.8323
  544MOL0     H75051  10.360   3.058  10.903 -0.5198 -1.7123  0.0559
  544MOL0     H75052   9.518   2.373  10.759 -1.4370  0.0261 -3.5613
  544MOL0     H75053   9.270   2.410  10.760 -0.2364 -1.1236  2.2877
  544MOL0     H75054   8.983   2.703  10.962  3.2720  2.0910 -0.4407
  544MOL0     H75055   8.765   2.737  11.029 -0.7394 -2.0471 -0.0866
  544MOL0     H75056   8.207   2.508  10.751 -1.3957  4.1807 -0.1375
  544MOL0     H75057   8.196   2.560  10.497  0.6066 -0.9552  0.1497
  544MOL0     H75058   8.334   2.570  10.107 -0.7093  1.3906  1.3375
  544MOL0     H75059   8.291   2.627   9.866  2.4236 -0.6714 -0.3798
  544MOL0     H75060   8.421   3.033   9.704 -0.3659 -0.0077 -0.3276
  544MOL0     H75061   8.526   2.910   9.777 -0.7349 -4.4272  1.1444
  544MOL0     H75062   8.353   2.875   9.512 -0.3001 -0.4708  0.1397
  544MOL0     H75063   8.494   2.770   9.552 -0.8228 -0.6651 -1.9867
  544MOL0     H75064   8.536   2.889   9.365 -1.8278  0.4975 -0.6177
  544MOL0     H75065   8.489   3.039   9.432  2.2380  1.1783 -0.3372
  544MOL0     H75066   8.683   3.085   9.552 -2.2962 -0.1731  1.5057
  544MOL0     H75067   8.726   3.024   9.396  0.8407 -0.5802  0.4808
  544MOL0     H75068   8.902   2.773   9.691  0.6652  0.9543 -0.3798
  544MOL0     H75069   8.390   3.034   9.945  1.9749  1.1492  3.6719
  544MOL0     H75070   8.350   3.030  10.293 -0.6784 -1.7211 -0.3840
  544MOL0     H75071   8.513   3.036  10.214  0.3674 -1.0904 -2.0388
  544MOL0     H75072   8.397   3.129  10.151 -1.5450 -0.2334  0.9867
  545MOL0     O75073   6.104   4.917   2.838 -0.3661  0.0265 -0.0067
  545MOL0     C75074   6.064   4.875   2.730 -0.3144  0.2586  1.0059
  545MOL0     O75075   6.105   4.758   2.672  0.6818 -0.1262  0.0209
  545MOL0     C75076   6.226   4.710   2.717  0.2170  0.8699 -0.5085
  545MOL0     C75077   6.349   4.787   2.693  0.2386  1.3126 -0.6675
  545MOL0     C75078   6.473   4.737   2.736  0.9115  0.2242  0.7163
  545MOL0     C75079   6.480   4.615   2.802 -0.2203 -1.0924 -0.8473
  545MOL0     O75080   6.606   4.579   2.844 -0.2496  0.0952  0.1463
  545MOL0     C75081   6.628   4.438   2.876 -0.2119  0.3404 -0.1534
  545MOL0     C75082   6.772   4.409   2.865 -0.2637 -0.4300 -0.4172
  545MOL0     C75083   6.849   4.475   2.980 -0.2034  0.3166 -0.1529
  545MOL0     C75084   7.001   4.481   2.955 -0.4933  0.8697  0.2889
  545MOL0     C75085   7.094   4.518   3.079 -0.5626  0.3760 -0.1511
  545MOL0     C75086   7.243   4.532   3.039  0.2311 -0.6824  0.5134
  545MOL0     C75087   7.317   4.602   3.151  0.0451  0.6867 -0.3394
  545MOL0     C75088   7.465   4.593   3.143  0.0382  0.2918 -0.6320
  545MOL0     N75089   7.531   4.532   3.264 -0.4190 -0.8168  0.6086
  545MOL0     C75090   7.530   4.578   3.389  0.1000  0.5827 -0.0310
  545MOL0     C75091   7.604   4.489   3.461  0.1752 -0.3143 -0.4638
  545MOL0     C75092   7.603   4.501   3.615 -0.5048  0.0986 -0.5572
  545MOL0     C75093   7.730   4.449   3.679 -0.1777 -0.5435  0.9594
  545MOL0     C75094   7.716   4.440   3.830  0.8666  0.1482  0.8079
  545MOL0     C75095   7.854   4.425   3.896 -0.4332 -0.0511  0.5668
  545MOL0     O75096   7.904   4.305   3.828  0.3591  0.9042 -0.2348
  545MOL0     C75097   8.030   4.296   3.791 -0.4857  0.1129 -0.5337
  545MOL0     C75098   8.140   4.311   3.872  0.2885  0.2660 -0.2111
  545MOL0     C75099   8.267   4.303   3.811  0.3345 -0.2190  0.4204
  545MOL0     C75100   8.390   4.334   3.906  0.1448 -0.2029  0.4939
  545MOL0     C75101   8.277   4.264   3.671 -0.2332  0.6675 -0.0402
  545MOL0     C75102   8.411   4.258   3.596  0.0657 -0.9730  0.5924
  545MOL0     O75103   8.408   4.186   3.480 -0.1808 -0.3702  0.0699
  545MOL0     C75104   8.503   4.194   3.378 -0.5502  0.8701 -0.7619
  545MOL0     C75105   8.457   4.173   3.249  0.7163  0.3743 -0.5446
  545MOL0     C75106   8.543   4.189   3.143 -0.7043  0.2442  0.4129
  545MOL0     C75107   8.672   4.234   3.157 -0.2898  0.4853 -0.1857
  545MOL0     O75108   8.759   4.265   3.061  0.1863 -1.3066 -0.0311
  545MOL0     C75109   8.746   4.218   2.927 -0.1825 -0.2235 -0.4754
  545MOL0     C75110   8.715   4.324   2.824  0.2020 -0.2936 -0.2220
  545MOL0     C75111   8.829   4.415   2.806 -0.2634 -0.2248 -0.5819
  545MOL0     C75112   8.780   4.527   2.708 -0.6039  1.6154 -0.4292
  545MOL0     C75113   8.873   4.649   2.721  0.1331  0.2850  0.4550
  545MOL0     C75114   8.833   4.767   2.639  0.4603  1.0408  0.2982
  545MOL0     C75115   8.914   4.900   2.655 -0.4628 -0.7432 -0.0350
  545MOL0     C75116   8.860   5.001   2.556 -0.1056 -0.1968  0.5387
  545MOL0    Cl75117   8.696   5.043   2.612  0.0364 -1.0057 -0.7682
  545MOL0     C75118   8.724   4.240   3.284  0.4809 -0.4457 -0.8986
  545MOL0     C75119   8.642   4.228   3.396  0.6512  0.8775  1.1129
  545MOL0     O75120   8.513   4.320   3.634 -0.0024  0.1824  0.5531
  545MOL0     C75121   8.159   4.231   3.606 -0.3928 -0.1796  0.0466
  545MOL0     C75122   8.037   4.248   3.664 -0.0105  0.5891 -1.1420
  545MOL0     N75123   7.656   4.394   3.368  0.2790  0.5209  0.9391
  545MOL0     N75124   7.619   4.432   3.258  0.2298 -1.0930 -0.7363
  545MOL0     C75125   6.367   4.542   2.828  0.8510 -0.2026 -0.9481
  545MOL0     C75126   6.237   4.586   2.786 -0.8520 -0.5646 -1.1694
  545MOL0     C75127   5.958   4.957   2.667  0.1852  0.5372 -1.0757
  545MOL0     C75128   5.943   5.091   2.716  0.1170  0.6125 -0.3640
  545MOL0     C75129   5.862   5.179   2.639  0.8433  0.1489  0.5870
  545MOL0     C75130   5.781   5.139   2.534 -0.1895  0.6511 -0.3340
  545MOL0     O75131   5.717   5.227   2.459  0.1222 -0.1549  0.4048
  545MOL0     C75132   5.589   5.184   2.410 -0.0197  0.4468 -0.2418
  545MOL0     C75133   5.495   5.304   2.383 -0.4065 -0.2624 -0.5734
  545MOL0     C75134   5.348   5.264   2.399  0.9371  0.0506  0.4716
  545MOL0     C75135   5.272   5.222   2.269  1.0855 -0.6784 -0.2533
  545MOL0     C75136   5.225   5.337   2.187  0.6827  0.4070  0.0477
  545MOL0     C75137   5.173   5.426   2.124  0.4533  0.3170  0.3195
  545MOL0     C75138   5.792   5.008   2.499  0.4641  0.7118 -1.5868
  545MOL0     C75139   5.873   4.910   2.564 -0.6739  0.1288  0.5297
  545MOL0     C75140   5.868   4.765   2.508  0.5593  0.0978 -0.2583
  545MOL0     H75141   6.342   4.873   2.627 -2.0415  1.3730 -0.4434
  545MOL0     H75142   6.569   4.784   2.719  1.7323 -1.7671 -0.6233
  545MOL0     H75143   6.592   4.379   2.791  1.2017  1.5459 -1.6568
  545MOL0     H75144   6.566   4.401   2.959 -2.0017  0.5414 -1.3458
  545MOL0     H75145   6.786   4.300   2.866  0.7957 -0.3617  3.0535
  545MOL0     H75146   6.807   4.448   2.769 -0.8489 -0.2966 -0.5771
  545MOL0     H75147   6.811   4.576   2.998  0.0871  0.3687  0.1825
  545MOL0     H75148   6.829   4.414   3.069 -2.0821 -0.1387 -0.8554
  545MOL0     H75149   7.032   4.383   2.915  1.8403  1.1893  1.1151
  545MOL0     H75150   7.022   4.549   2.873  3.1453  0.4049  0.6402
  545MOL0     H75151   7.089   4.440   3.156  3.9838 -1.7601 -1.6274
  545MOL0     H75152   7.072   4.610   3.133  1.5139 -0.2341  1.9168
  545MOL0     H75153   7.285   4.437   3.005  0.3833  0.1267 -1.7290
  545MOL0     H75154   7.248   4.588   2.946 -0.8142 -2.3102 -0.5773
  545MOL0     H75155   7.282   4.556   3.244  0.4431  2.1939  0.5913
  545MOL0     H75156   7.285   4.707   3.155  0.7491  0.8966  2.6642
  545MOL0     H75157   7.488   4.524   3.061  0.6333 -1.6871  1.0859
  545MOL0     H75158   7.500   4.695   3.127 -0.0229  0.0370 -2.6001
  545MOL0     H75159   7.475   4.665   3.422 -2.6138 -1.5310  1.5099
  545MOL0     H75160   7.513   4.448   3.649 -1.3873  2.4365  1.0276
  545MOL0     H75161   7.576   4.602   3.647 -4.4345 -1.6890  2.7618
  545MOL0     H75162   7.744   4.346   3.645 -3.6505 -0.5053 -1.0587
  545MOL0     H75163   7.809   4.521   3.656 -1.8606  0.7804 -1.0518
  545MOL0     H75164   7.668   4.524   3.880 -1.2976 -0.7820  0.4124
  545MOL0     H75165   7.651   4.356   3.858  0.8430 -0.1794 -0.1721
  545MOL0     H75166   7.914   4.515   3.880  2.4076 -1.6418  1.5281
  545MOL0     H75167   7.858   4.408   4.005 -0.4844  3.5204  1.2364
  545MOL0     H75168   8.122   4.329   3.977 -1.9076  1.3807 -0.7290
  545MOL0     H75169   8.458   4.250   3.894  0.3297  0.2050 -1.7099
  545MOL0     H75170   8.350   4.352   4.007 -1.6839 -0.8151 -0.0695
  545MOL0     H75171   8.440   4.428   3.882 -2.8788  1.4798  0.2004
  545MOL0     H75172   8.350   4.154   3.240  0.4442  0.1288  2.2544
  545MOL0     H75173   8.488   4.161   3.053 -2.2148 -1.8003  1.8759
  545MOL0     H75174   8.843   4.179   2.897 -0.5706 -0.0220 -2.1140
  545MOL0     H75175   8.684   4.128   2.920  0.1888 -0.5364  0.2377
  545MOL0     H75176   8.696   4.279   2.726  1.0406 -1.2383  0.0285
  545MOL0     H75177   8.619   4.366   2.855 -1.0436 -2.4595 -0.9462
  545MOL0     H75178   8.923   4.369   2.773 -0.3282 -0.3759 -0.5554
  545MOL0     H75179   8.841   4.461   2.904  2.6175 -1.7563 -0.0986
  545MOL0     H75180   8.676   4.546   2.738 -0.8683 -1.4830  1.0832
  545MOL0     H75181   8.783   4.486   2.607  2.0750 -0.6354  0.4175
  545MOL0     H75182   8.901   4.671   2.824  1.9330 -1.6263  0.4354
  545MOL0     H75183   8.973   4.616   2.693  0.1354  1.7238 -1.4648
  545MOL0     H75184   8.735   4.789   2.682 -0.2113 -1.8084  0.4019
  545MOL0     H75185   8.816   4.743   2.534  3.5601 -1.1812  0.1969
  545MOL0     H75186   9.021   4.898   2.636 -0.4533  2.7398 -0.9816
  545MOL0     H75187   8.895   4.935   2.757  0.3254 -3.7893  1.2697
  545MOL0     H75188   8.853   4.950   2.459  2.5808 -1.5490  0.9553
  545MOL0     H75189   8.925   5.088   2.566 -0.7668  0.2139  1.3256
  545MOL0     H75190   8.822   4.288   3.289  0.2181  0.4421 -3.0609
  545MOL0     H75191   8.688   4.240   3.494  2.0747 -2.5870  0.9940
  545MOL0     H75192   8.163   4.203   3.502 -3.6789  1.0567 -0.5131
  545MOL0     H75193   7.950   4.217   3.608 -0.3835 -1.4958  0.4698
  545MOL0     H75194   6.388   4.452   2.885  3.1299  1.3764  0.8657
  545MOL0     H75195   6.146   4.526   2.788 -0.9650 -0.3821 -0.6927
  545MOL0     H75196   6.001   5.137   2.795  0.3593 -2.1004  1.1704
  545MOL0     H75197   5.853   5.282   2.671 -1.1624 -0.4621  2.2304
  545MOL0     H75198   5.586   5.126   2.317 -2.5375  0.5132 -0.2703
  545MOL0     H75199   5.541   5.121   2.486 -2.2318 -0.5148 -2.3118
  545MOL0     H75200   5.507   5.358   2.289 -1.1115 -0.2969 -0.6929
  545MOL0     H75201   5.506   5.373   2.467 -1.8783  0.4046 -0.8854
  545MOL0     H75202   5.351   5.169   2.454  1.4356  0.0990  0.5298
  545MOL0     H75203   5.290   5.332   2.461  1.2625  0.0583  0.7699
  545MOL0     H75204   5.183   5.165   2.295 -1.0040  3.0870  1.6204
  545MOL0     H75205   5.337   5.162   2.204  4.0119 -0.3050  2.0989
  545MOL0     H75206   5.128   5.506   2.069 -0.7749 -0.1464  0.6069
  545MOL0     H75207   5.733   4.965   2.419  0.0266 -1.7229 -0.0675
  545MOL0     H75208   5.858   4.705   2.599  2.0969  2.3679  1.4924
  545MOL0     H75209   5.785   4.739   2.441 -0.3759 -4.4177  2.2402
  545MOL0     H75210   5.959   4.736   2.456  0.5116  0.2308 -0.4170
  546MOL0     O75211   2.266  10.339   7.420  0.0015  0.2042  0.9109
  546MOL0     C75212   2.284  10.452   7.461 -0.4137  0.4567 -0.5673
  546MOL0     O75213   2.268  10.564   7.395 -0.3455 -0.4833  1.4792
  546MOL0     C75214   2.208  10.555   7.268 -0.6036 -0.0263  0.2238
  546MOL0     C75215   2.087  10.491   7.235 -0.0052  0.3568 -0.0573
  546MOL0     C75216   2.043  10.481   7.108 -0.2146  0.7357 -0.2161
  546MOL0     C75217   2.115  10.534   7.007 -0.5219  0.1328  0.3359
  546MOL0     O75218   2.080  10.505   6.880  0.2351  0.4057 -0.4968
  546MOL0     C75219   2.111  10.592   6.771  0.6796 -0.1422  0.2347
  546MOL0     C75220   2.059  10.529   6.639 -0.3393  0.0674 -0.0980
  546MOL0     C75221   1.921  10.465   6.658  0.4643 -0.2164 -0.1682
  546MOL0     C75222   1.936  10.316   6.701 -0.6271  0.0490 -0.5690
  546MOL0     C75223   1.807  10.273   6.767  0.0698 -0.6932  0.1262
  546MOL0     C75224   1.811  10.137   6.821 -0.1342  0.0336 -0.3019
  546MOL0     C75225   1.838  10.021   6.724 -0.4741  0.0725 -0.5667
  546MOL0     C75226   1.816   9.898   6.810 -0.3962  0.2651 -0.3582
  546MOL0     N75227   1.848   9.776   6.731  0.5702  0.8568 -0.8943
  546MOL0     C75228   1.763   9.682   6.675  0.1409 -0.7417 -0.6793
  546MOL0     C75229   1.845   9.571   6.649  1.2672 -0.4902  0.4278
  546MOL0     C75230   1.806   9.444   6.570  0.6933  0.2326 -0.0093
  546MOL0     C75231   1.773   9.320   6.656 -0.8889  0.4551  0.0884
  546MOL0     C75232   1.682   9.239   6.574 -0.6767 -0.3941 -0.2910
  546MOL0     C75233   1.633   9.108   6.636  0.3181  0.6178  0.2754
  546MOL0     O75234   1.562   9.030   6.545 -0.1576 -0.2171  0.1438
  546MOL0     C75235   1.643   8.926   6.498  0.1347 -0.6593 -0.1096
  546MOL0     C75236   1.703   8.834   6.589  0.2712 -0.2755  0.9759
  546MOL0     C75237   1.798   8.743   6.548 -0.0279  0.3725  0.4478
  546MOL0     C75238   1.859   8.658   6.656  0.1620 -0.5408 -0.9751
  546MOL0     C75239   1.807   8.715   6.404 -1.0850 -1.0943 -0.0595
  546MOL0     C75240   1.883   8.597   6.339 -0.0266  0.5072 -0.6687
  546MOL0     O75241   1.844   8.576   6.219 -0.7901 -0.4199 -0.1824
  546MOL0     C75242   1.876   8.457   6.156  0.7766  0.7734 -0.6450
  546MOL0     C75243   2.007   8.416   6.147 -0.1779 -0.3256 -0.3414
  546MOL0     C75244   2.036   8.298   6.071 -0.0981 -0.2239 -0.4830
  546MOL0     C75245   1.934   8.217   6.038  0.4186 -0.1866  0.4243
  546MOL0     O75246   1.981   8.107   5.973  0.4207  0.6095 -0.6143
  546MOL0     C75247   1.948   7.974   6.019 -0.5910  0.0698  0.7137
  546MOL0     C75248   2.056   7.874   5.966 -0.3786 -1.0176 -0.5768
  546MOL0     C75249   1.994   7.736   5.915 -0.3699  0.6712 -1.0318
  546MOL0     C75250   1.924   7.652   6.024 -0.0152 -0.1782  0.3977
  546MOL0     C75251   2.013   7.607   6.139 -0.4619  0.8336  0.5783
  546MOL0     C75252   1.953   7.502   6.229  0.2600  0.7421  0.1302
  546MOL0     C75253   1.816   7.540   6.290 -0.4148  0.2751 -0.5506
  546MOL0     C75254   1.765   7.456   6.406 -0.0232 -0.2680 -0.3402
  546MOL0    Cl75255   1.873   7.486   6.543 -0.6116 -0.2013  0.0114
  546MOL0     C75256   1.798   8.251   6.068  0.2026 -0.4718  1.1580
  546MOL0     C75257   1.774   8.380   6.112  1.1830  0.7422 -0.1509
  546MOL0     O75258   1.953   8.521   6.399  0.7795  0.1007  0.1032
  546MOL0     C75259   1.744   8.810   6.315  0.1776 -0.3528  0.1331
  546MOL0     C75260   1.661   8.913   6.362  0.0336 -0.1365  0.2320
  546MOL0     N75261   1.973   9.601   6.685  0.8723  0.8877 -0.3243
  546MOL0     N75262   1.966   9.720   6.737 -0.3225  0.0345  0.5653
  546MOL0     C75263   2.240  10.585   7.031 -0.4050 -0.0296  0.2332
  546MOL0     C75264   2.283  10.612   7.165 -0.6827  0.5411  0.2604
  546MOL0     C75265   2.339  10.456   7.593  0.3555 -0.3180  0.0116
  546MOL0     C75266   2.376  10.580   7.654 -0.0844 -0.2910  0.5022
  546MOL0     C75267   2.422  10.598   7.783 -0.2093  0.9445 -0.1642
  546MOL0     C75268   2.434  10.494   7.864  0.3689 -0.0706 -0.0481
  546MOL0     O75269   2.472  10.486   7.992 -0.1666  0.2634  0.2944
  546MOL0     C75270   2.548  10.589   8.061  0.3957 -0.0634 -0.1475
  546MOL0     C75271   2.449  10.703   8.119 -0.1332  0.6829  0.6449
  546MOL0     C75272   2.425  10.655   8.259 -0.6835 -0.1399  0.2126
  546MOL0     C75273   2.353  10.761   8.354 -0.3516 -0.4671  1.0838
  546MOL0     C75274   2.345  10.721   8.501  0.2108 -0.5706  0.0257
  546MOL0     C75275   2.351  10.679   8.612  0.8657  0.6076 -0.3633
  546MOL0     C75276   2.385  10.370   7.812  0.1434  0.1259 -0.4617
  546MOL0     C75277   2.340  10.342   7.678 -0.5699 -0.2533 -0.3264
  546MOL0     C75278   2.287  10.197   7.647 -0.8888 -0.1164  0.3696
  546MOL0     H75279   2.033  10.449   7.320  1.0968  1.9471  1.4855
  546MOL0     H75280   1.952  10.424   7.094  0.5176 -0.0725 -1.9669
  546MOL0     H75281   2.220  10.605   6.767  0.5719  0.4859 -0.9395
  546MOL0     H75282   2.067  10.691   6.787  0.2888  0.0528 -1.8081
  546MOL0     H75283   2.058  10.606   6.562 -1.2894  0.0002 -0.1765
  546MOL0     H75284   2.122  10.447   6.604 -1.6536 -0.9038 -0.3023
  546MOL0     H75285   1.871  10.523   6.737  0.5205  2.2754 -1.8645
  546MOL0     H75286   1.856  10.473   6.570 -0.5657  1.1700  0.6763
  546MOL0     H75287   1.951  10.264   6.606 -0.9769  1.3090 -1.3417
  546MOL0     H75288   2.023  10.299   6.765 -1.4337  3.0160  1.5334
  546MOL0     H75289   1.720  10.286   6.703  0.7691  1.3036 -0.4768
  546MOL0     H75290   1.782  10.339   6.850  0.3401 -2.5496  1.7603
  546MOL0     H75291   1.890  10.133   6.898 -0.1204  3.7738  0.0310
  546MOL0     H75292   1.715  10.125   6.872 -0.3623  1.5203 -0.3636
  546MOL0     H75293   1.936  10.019   6.675 -0.4029 -3.6737 -0.4968
  546MOL0     H75294   1.757  10.010   6.651 -1.7217  0.1245  0.7622
  546MOL0     H75295   1.881   9.895   6.898 -1.7408 -1.0887  0.6355
  546MOL0     H75296   1.715   9.891   6.853 -0.6630  4.8299  0.2495
  546MOL0     H75297   1.657   9.700   6.659  0.7726  1.2699 -3.5650
  546MOL0     H75298   1.897   9.412   6.519 -0.2446 -1.7165 -0.5212
  546MOL0     H75299   1.739   9.480   6.492  0.7435  0.3786  0.0127
  546MOL0     H75300   1.862   9.257   6.660 -0.2399  1.1495 -2.1047
  546MOL0     H75301   1.738   9.349   6.755 -2.0288  1.4174 -0.5679
  546MOL0     H75302   1.590   9.297   6.564  0.1040  1.0122  0.3703
  546MOL0     H75303   1.733   9.223   6.479  0.0625 -1.1219  0.2064
  546MOL0     H75304   1.726   9.062   6.669  0.3801 -0.9249 -1.8935
  546MOL0     H75305   1.571   9.133   6.723 -0.2447  0.5890 -0.1091
  546MOL0     H75306   1.691   8.857   6.694  2.3705 -0.3278  1.2519
  546MOL0     H75307   1.818   8.687   6.752  0.5198 -0.6067 -0.8000
  546MOL0     H75308   1.968   8.670   6.656 -0.1422  4.4290  1.2295
  546MOL0     H75309   1.842   8.551   6.643 -0.0919 -1.1689  3.1994
  546MOL0     H75310   2.093   8.473   6.182 -0.3460  0.8760 -1.7574
  546MOL0     H75311   2.134   8.270   6.035 -0.8756 -1.7163 -1.5660
  546MOL0     H75312   1.932   7.971   6.127  1.3366 -1.2781  1.0157
  546MOL0     H75313   1.852   7.943   5.975 -0.1110  0.1636 -0.4339
  546MOL0     H75314   2.121   7.918   5.890  3.1062 -0.2773  2.5860
  546MOL0     H75315   2.126   7.857   6.048  0.7514 -0.5328 -1.4160
  546MOL0     H75316   2.073   7.683   5.860  0.5755  2.0632 -1.0697
  546MOL0     H75317   1.920   7.767   5.840 -0.9625  0.9437 -0.3430
  546MOL0     H75318   1.880   7.566   5.974 -1.1339  1.0319 -0.7822
  546MOL0     H75319   1.842   7.717   6.058  2.2538  2.1237  1.8943
  546MOL0     H75320   2.105   7.561   6.102 -0.9646  0.4556 -0.2212
  546MOL0     H75321   2.041   7.694   6.199  0.0252  0.1607  1.3485
  546MOL0     H75322   2.025   7.489   6.311  1.4107  0.3582 -0.9165
  546MOL0     H75323   1.934   7.412   6.171 -1.8052  0.2794  1.4262
  546MOL0     H75324   1.739   7.532   6.213 -0.9906  1.0986 -0.0694
  546MOL0     H75325   1.825   7.646   6.316  1.3478  0.2118 -0.7848
  546MOL0     H75326   1.753   7.351   6.378  1.8240  0.0003 -2.4572
  546MOL0     H75327   1.664   7.485   6.435  0.3965 -0.3933  1.3671
  546MOL0     H75328   1.721   8.188   6.023  0.9576  0.8529 -2.3392
  546MOL0     H75329   1.677   8.426   6.129  1.4239  0.7803  1.1952
  546MOL0     H75330   1.761   8.798   6.208 -0.1334 -1.6762  0.2167
  546MOL0     H75331   1.610   8.989   6.303  1.6240 -1.9890 -3.9209
  546MOL0     H75332   2.315  10.606   6.955  1.4623 -0.1272  1.9439
  546MOL0     H75333   2.374  10.666   7.186 -0.1398  0.4246 -1.6603
  546MOL0     H75334   2.353  10.669   7.597  2.2712 -0.0085 -0.1151
  546MOL0     H75335   2.460  10.692   7.821  1.3204 -0.1954  1.2726
  546MOL0     H75336   2.612  10.541   8.135 -0.8733 -0.7181  0.5381
  546MOL0     H75337   2.622  10.636   7.995  0.9723  0.1649  0.6413
  546MOL0     H75338   2.355  10.699   8.062  0.4848 -2.1335 -0.3021
  546MOL0     H75339   2.496  10.801   8.109  3.6252 -1.0672 -0.4957
  546MOL0     H75340   2.367  10.563   8.268  1.9526 -1.8077  1.1690
  546MOL0     H75341   2.520  10.635   8.310  0.9429  0.0532 -2.5249
  546MOL0     H75342   2.256  10.755   8.305 -1.2322 -0.1671  2.7092
  546MOL0     H75343   2.402  10.859   8.352 -0.0420 -0.5910  2.0712
  546MOL0     H75344   2.365  10.643   8.713  0.3137  1.3012 -0.0321
  546MOL0     H75345   2.394  10.286   7.880  1.3347 -0.7019 -1.5718
  546MOL0     H75346   2.323  10.158   7.551 -1.4556 -0.7280  0.3969
  546MOL0     H75347   2.326  10.131   7.725  0.7651  2.7969  2.1947
  546MOL0     H75348   2.183  10.193   7.679  0.2858  1.1025  5.1702
  547MOL0     O75349   9.453   1.376   7.457  0.0907  0.1067 -0.9783
  547MOL0     C75350   9.399   1.389   7.347 -0.2359 -0.5252  0.2795
  547MOL0     O75351   9.264   1.403   7.328 -0.0984  0.2654  0.7061
  547MOL0     C75352   9.171   1.404   7.424  0.6668 -0.0263 -0.6951
  547MOL0     C75353   9.171   1.305   7.522 -0.2294 -0.4034 -0.1737
  547MOL0     C75354   9.087   1.304   7.635 -0.2394 -0.0109  0.0262
  547MOL0     C75355   8.996   1.413   7.656 -0.8595 -0.0156  0.6208
  547MOL0     O75356   8.908   1.417   7.761 -0.1771  0.3494  0.4418
  547MOL0     C75357   8.883   1.303   7.830 -0.0231  0.5967 -0.0367
  547MOL0     C75358   8.750   1.323   7.900  0.5425 -0.5173  0.5268
  547MOL0     C75359   8.788   1.425   8.016  0.0699  0.8211  0.2156
  547MOL0     C75360   8.687   1.426   8.133  0.0583  0.0745  0.1203
  547MOL0     C75361   8.549   1.488   8.092 -0.5539 -1.0480  0.2190
  547MOL0     C75362   8.475   1.539   8.215 -0.1732  0.7127  0.0978
  547MOL0     C75363   8.330   1.591   8.185  0.4840 -0.2214  0.5193
  547MOL0     C75364   8.329   1.727   8.119  0.0661 -0.4421  0.7502
  547MOL0     N75365   8.209   1.800   8.155  0.0814 -0.3651 -0.2199
  547MOL0     C75366   8.083   1.774   8.112  0.4473 -0.2892  0.1907
  547MOL0     C75367   7.997   1.829   8.210  0.3884  0.8753 -1.0124
  547MOL0     C75368   7.841   1.846   8.212 -0.2444 -0.3759 -0.2961
  547MOL0     C75369   7.770   1.774   8.328 -0.1274 -1.0118  0.2093
  547MOL0     C75370   7.763   1.629   8.283  0.1323 -0.3777  0.5811
  547MOL0     C75371   7.678   1.544   8.383  0.1958 -0.3602  0.0041
  547MOL0     O75372   7.747   1.518   8.507 -0.0747 -0.4424 -0.1342
  547MOL0     C75373   7.862   1.433   8.493 -0.0766 -0.4577 -0.5398
  547MOL0     C75374   7.838   1.302   8.474 -0.6477 -0.6801  0.7607
  547MOL0     C75375   7.946   1.216   8.451 -0.0703  0.1421 -0.2376
  547MOL0     C75376   7.911   1.077   8.414  0.5543  0.8823 -0.9010
  547MOL0     C75377   8.077   1.272   8.454  0.7741  0.3600  0.5703
  547MOL0     C75378   8.198   1.186   8.414 -0.7249 -0.1659  0.0206
  547MOL0     O75379   8.319   1.258   8.423 -0.2022 -0.4709  0.5044
  547MOL0     C75380   8.421   1.193   8.357  0.6529 -0.7204 -0.2148
  547MOL0     C75381   8.537   1.181   8.435 -0.1284  0.2501  0.1220
  547MOL0     C75382   8.649   1.102   8.389 -0.0824 -0.1146  0.2213
  547MOL0     C75383   8.641   1.041   8.261 -0.3611  0.4554  0.5731
  547MOL0     O75384   8.745   0.970   8.206 -0.3870 -0.3748  0.3295
  547MOL0     C75385   8.883   1.028   8.218  1.0559 -0.2481  0.0592
  547MOL0     C75386   8.946   1.007   8.089  0.0737  0.4210 -0.0828
  547MOL0     C75387   9.097   1.033   8.108  0.0159 -0.3855  0.0152
  547MOL0     C75388   9.152   1.046   7.965  0.4220 -0.0467  0.4424
  547MOL0     C75389   9.294   1.084   7.970 -0.0375  0.3880 -0.4041
  547MOL0     C75390   9.356   1.122   7.843 -0.2346  0.0176 -0.0438
  547MOL0     C75391   9.491   1.181   7.865 -0.0486 -0.4813  0.8392
  547MOL0     C75392   9.556   1.209   7.726 -0.7301 -0.5214  0.0625
  547MOL0    Cl75393   9.589   1.073   7.612  0.2396  0.3293  0.6146
  547MOL0     C75394   8.524   1.043   8.184 -0.2605 -0.2614 -0.5809
  547MOL0     C75395   8.415   1.118   8.233 -0.3289  0.0797  0.0081
  547MOL0     O75396   8.190   1.067   8.389 -0.2373  0.4924  0.2015
  547MOL0     C75397   8.098   1.409   8.478 -0.0391 -0.0029 -0.4650
  547MOL0     C75398   7.987   1.487   8.497 -0.0394 -0.8100 -0.7021
  547MOL0     N75399   8.087   1.886   8.302  0.6127  0.5444 -0.0520
  547MOL0     N75400   8.204   1.861   8.270 -0.5548  0.5302  0.2647
  547MOL0     C75401   8.985   1.510   7.547 -1.5584 -0.4405  0.0673
  547MOL0     C75402   9.070   1.505   7.439 -0.4208 -0.9074  0.9540
  547MOL0     C75403   9.476   1.402   7.221  0.0976  0.1126  0.3704
  547MOL0     C75404   9.402   1.427   7.099 -0.0640 -0.6832 -0.3422
  547MOL0     C75405   9.474   1.452   6.987 -0.2249 -0.1148 -0.1115
  547MOL0     C75406   9.609   1.470   6.985  0.6231  0.0032  0.8613
  547MOL0     O75407   9.655   1.517   6.854 -0.6620  0.4762 -0.4029
  547MOL0     C75408   9.799   1.517   6.822 -0.0809 -0.5275 -0.9768
  547MOL0     C75409   9.867   1.652   6.846  0.9616  0.4821  0.1047
  547MOL0     C75410   9.995   1.660   6.754  0.1630 -0.1394  0.1575
  547MOL0     C75411  10.039   1.805   6.755  0.4125 -0.2155 -0.0609
  547MOL0     C75412  10.174   1.818   6.701 -0.6695 -0.7638  0.2746
  547MOL0     C75413  10.273   1.846   6.638 -0.7935 -0.3150 -1.2996
  547MOL0     C75414   9.685   1.439   7.094 -0.0173 -1.0986 -0.1300
  547MOL0     C75415   9.619   1.398   7.213  0.0889 -0.0012 -0.1056
  547MOL0     C75416   9.715   1.375   7.329  0.4804  0.8599  0.5018
  547MOL0     H75417   9.244   1.224   7.521  2.0525  1.5626 -0.4388
  547MOL0     H75418   9.096   1.218   7.700 -2.0298 -0.7917 -0.6613
  547MOL0     H75419   8.971   1.291   7.895  0.5730  1.9630 -0.5479
  547MOL0     H75420   8.863   1.219   7.763 -2.1422  1.5282 -0.6481
  547MOL0     H75421   8.673   1.369   7.838  1.4000 -0.5760 -0.5981
  547MOL0     H75422   8.706   1.226   7.928  1.3874 -0.8725  0.6791
  547MOL0     H75423   8.881   1.404   8.070  1.3075  1.5504 -1.5303
  547MOL0     H75424   8.794   1.525   7.973 -3.1392  1.5053  1.1008
  547MOL0     H75425   8.654   1.326   8.164 -0.8140  1.6202  5.1329
  547MOL0     H75426   8.742   1.468   8.218  1.3848  2.4627 -1.8138
  547MOL0     H75427   8.497   1.411   8.034  3.2892 -3.7323 -0.0244
  547MOL0     H75428   8.560   1.580   8.033 -1.3849  0.4530  2.2823
  547MOL0     H75429   8.469   1.448   8.274 -3.4599  1.3809  0.9386
  547MOL0     H75430   8.540   1.607   8.271  3.4269 -1.8298 -0.6384
  547MOL0     H75431   8.278   1.599   8.281 -2.5581  1.4769 -1.1233
  547MOL0     H75432   8.285   1.508   8.130  1.2712 -2.1823  2.6380
  547MOL0     H75433   8.414   1.776   8.168  0.3215 -0.8241  0.6940
  547MOL0     H75434   8.339   1.716   8.011 -0.8026  0.0211  0.6157
  547MOL0     H75435   8.047   1.709   8.033 -3.0890  1.7468 -0.0855
  547MOL0     H75436   7.798   1.817   8.116 -1.7480  2.3226 -0.5429
  547MOL0     H75437   7.804   1.949   8.219 -2.5130 -1.2414  1.6833
  547MOL0     H75438   7.822   1.788   8.423 -0.7336 -0.1815  0.4277
  547MOL0     H75439   7.675   1.827   8.334  2.1200  3.2819  1.5990
  547MOL0     H75440   7.713   1.622   8.186 -0.9981 -0.7929  1.1876
  547MOL0     H75441   7.860   1.580   8.272  0.3858  0.3746 -0.8209
  547MOL0     H75442   7.579   1.591   8.389  1.2937  1.8903  2.7255
  547MOL0     H75443   7.658   1.445   8.341 -0.1658 -0.0084 -0.6757
  547MOL0     H75444   7.732   1.279   8.473 -1.0263  0.5677 -2.5812
  547MOL0     H75445   7.805   1.056   8.432  0.4626  3.2698  2.4342
  547MOL0     H75446   7.977   1.001   8.458 -1.1420 -1.6728 -2.5613
  547MOL0     H75447   7.931   1.072   8.307  0.3892  0.8521 -0.9297
  547MOL0     H75448   8.546   1.228   8.533  1.6499 -0.5315  0.3756
  547MOL0     H75449   8.730   1.093   8.461  0.4970 -0.5027 -0.4667
  547MOL0     H75450   8.882   1.137   8.230  1.0405 -0.0303 -1.6470
  547MOL0     H75451   8.931   0.972   8.298 -0.8767 -0.0698  1.4246
  547MOL0     H75452   8.937   0.901   8.063  0.9780  0.0688  0.9470
  547MOL0     H75453   8.914   1.075   8.010  1.6996  1.3892  0.0454
  547MOL0     H75454   9.148   0.948   8.154 -0.7919 -1.6858 -1.4028
  547MOL0     H75455   9.118   1.125   8.163 -1.0326  0.5133 -1.0377
  547MOL0     H75456   9.089   1.111   7.904 -1.5820 -1.9592  0.3223
  547MOL0     H75457   9.132   0.949   7.919  1.0007 -0.6748  1.4735
  547MOL0     H75458   9.301   1.172   8.035  0.1295  1.0868 -1.3388
  547MOL0     H75459   9.352   1.010   8.025 -2.5102  0.0313  1.9586
  547MOL0     H75460   9.286   1.196   7.801  0.9086  1.0155 -0.2325
  547MOL0     H75461   9.364   1.030   7.785 -1.5417  1.1246 -2.1380
  547MOL0     H75462   9.556   1.115   7.923  0.4031  0.4192  1.3748
  547MOL0     H75463   9.475   1.276   7.916 -2.7718 -0.3376 -0.1430
  547MOL0     H75464   9.651   1.261   7.745 -0.3400 -1.3663  0.4639
  547MOL0     H75465   9.498   1.285   7.673 -2.3197 -1.9168 -0.2786
  547MOL0     H75466   8.525   0.996   8.086 -0.7707 -0.9855 -0.2502
  547MOL0     H75467   8.319   1.115   8.183  0.3489 -0.7159 -1.2947
  547MOL0     H75468   8.198   1.452   8.472  0.2346 -0.5465  0.1609
  547MOL0     H75469   8.011   1.592   8.500  3.0450 -1.0938 -5.2742
  547MOL0     H75470   8.905   1.584   7.543 -2.9446 -1.8353  0.9608
  547MOL0     H75471   9.077   1.576   7.357  0.5585 -0.6712  1.2365
  547MOL0     H75472   9.294   1.418   7.091 -0.0574  0.4550 -2.2675
  547MOL0     H75473   9.428   1.463   6.889 -3.3214 -0.0314  1.2158
  547MOL0     H75474   9.852   1.444   6.884 -0.6836 -0.0465  0.1376
  547MOL0     H75475   9.804   1.487   6.717 -0.1848  0.3038 -1.2267
  547MOL0     H75476   9.888   1.668   6.952  2.1132 -1.1049  0.1516
  547MOL0     H75477   9.792   1.724   6.814  1.2317  0.4767 -0.5557
  547MOL0     H75478  10.079   1.595   6.779  1.7661  1.2802 -1.3116
  547MOL0     H75479   9.960   1.635   6.654  1.8491 -0.3717 -0.4047
  547MOL0     H75480  10.045   1.840   6.858 -0.2221  1.1847 -0.4678
  547MOL0     H75481   9.978   1.869   6.690  1.4323  0.7128 -0.1337
  547MOL0     H75482  10.374   1.871   6.610  0.9417 -1.3728  3.1235
  547MOL0     H75483   9.792   1.452   7.088 -0.1433 -0.5717 -1.7824
  547MOL0     H75484   9.683   1.292   7.393  1.1959 -0.1221 -0.3808
  547MOL0     H75485   9.808   1.341   7.283  0.0110  0.8871 -0.4930
  547MOL0     H75486   9.727   1.473   7.376 -0.9798  0.6415  1.3998
  548MOL0     O75487   6.964   4.413   7.928  0.1231  0.2765  0.6713
  548MOL0     C75488   7.081   4.417   7.976 -0.0654  0.4962 -0.9347
  548MOL0     O75489   7.182   4.501   7.943  0.6067 -0.4171 -0.3078
  548MOL0     C75490   7.151   4.596   7.843 -0.0802 -0.0765 -0.4114
  548MOL0     C75491   7.174   4.560   7.716  0.3997 -0.2736 -0.1789
  548MOL0     C75492   7.129   4.626   7.602  0.4036 -0.0465  0.5393
  548MOL0     C75493   7.056   4.749   7.627  0.2666 -0.2397 -1.0635
  548MOL0     O75494   6.988   4.823   7.534  0.1782  0.6029  0.1576
  548MOL0     C75495   7.066   4.891   7.442 -0.4158  0.0636 -0.5254
  548MOL0     C75496   7.143   5.020   7.489  0.0503  1.6083  0.8994
  548MOL0     C75497   7.204   5.085   7.367  0.6228 -0.4498 -0.2119
  548MOL0     C75498   7.293   4.998   7.285 -0.0723 -1.1439  0.3975
  548MOL0     C75499   7.375   5.057   7.164  0.3646 -0.2858 -0.2083
  548MOL0     C75500   7.449   4.944   7.103 -0.3711  0.6100  0.2233
  548MOL0     C75501   7.528   4.980   6.976 -0.1052 -0.9657 -0.3523
  548MOL0     C75502   7.577   4.867   6.893  0.5223  0.4839  0.2597
  548MOL0     N75503   7.660   4.779   6.978 -0.2066  0.1807  0.3310
  548MOL0     C75504   7.763   4.812   7.060  0.1853 -0.9535  0.4028
  548MOL0     C75505   7.783   4.704   7.127  0.7984 -0.2799 -0.8908
  548MOL0     C75506   7.887   4.683   7.235 -0.6287 -0.1027 -0.4484
  548MOL0     C75507   8.005   4.582   7.200  0.0093  0.2982  0.4530
  548MOL0     C75508   8.053   4.582   7.060 -0.0236  0.3078 -0.3196
  548MOL0     C75509   8.177   4.491   7.044 -0.6759  1.0408 -0.9387
  548MOL0     O75510   8.145   4.361   7.097  0.7199  0.4636  0.1535
  548MOL0     C75511   8.246   4.270   7.061  0.0234  0.2367 -0.2024
  548MOL0     C75512   8.206   4.134   7.036  0.4558 -0.7135 -0.2065
  548MOL0     C75513   8.299   4.034   7.005  0.8899  0.2765 -0.6606
  548MOL0     C75514   8.245   3.898   7.012 -0.0917 -0.4922 -0.2265
  548MOL0     C75515   8.443   4.062   7.013  0.5718  0.5573  0.3779
  548MOL0     C75516   8.555   3.959   7.013 -1.1496 -0.4698 -0.2283
  548MOL0     O75517   8.679   4.010   6.986 -0.0530 -0.0231  0.0583
  548MOL0     C75518   8.781   3.929   6.998 -0.3821 -0.4779  0.3484
  548MOL0     C75519   8.895   3.987   7.050 -0.5670 -0.2463  0.8994
  548MOL0     C75520   9.002   3.914   7.078  0.2109 -0.3427  0.4671
  548MOL0     C75521   9.009   3.776   7.052  0.4791 -0.8325 -1.0587
  548MOL0     O75522   9.125   3.710   7.091  0.5477  0.2616  0.9909
  548MOL0     C75523   9.128   3.569   7.076 -0.9398 -1.1839  0.7584
  548MOL0     C75524   9.246   3.516   7.154 -0.7083 -0.0109 -0.8395
  548MOL0     C75525   9.297   3.375   7.107 -0.0230  0.1324 -0.1067
  548MOL0     C75526   9.437   3.338   7.175 -1.2101 -0.0978  0.3761
  548MOL0     C75527   9.463   3.190   7.158  0.0054 -0.4143  0.4668
  548MOL0     C75528   9.378   3.095   7.236  0.7726  0.2810 -0.4348
  548MOL0     C75529   9.444   2.959   7.249  0.3019 -0.3029  0.7262
  548MOL0     C75530   9.367   2.865   7.341 -0.1902  0.2399  1.0088
  548MOL0    Cl75531   9.409   2.695   7.315  0.3522  0.0907 -0.0522
  548MOL0     C75532   8.902   3.721   6.979  0.1104 -0.5068  0.3486
  548MOL0     C75533   8.789   3.794   6.953  0.2956  0.5723  2.1694
  548MOL0     O75534   8.535   3.846   7.053  0.1140 -0.4158 -0.1097
  548MOL0     C75535   8.471   4.193   7.033 -0.7150 -0.2588 -0.3939
  548MOL0     C75536   8.385   4.304   7.043  0.5600  0.9751 -0.9668
  548MOL0     N75537   7.696   4.608   7.086  0.4411  0.6995 -0.7577
  548MOL0     N75538   7.619   4.657   7.001  0.1883 -0.4832  0.1907
  548MOL0     C75539   7.034   4.791   7.760  0.7833  0.4134  0.5086
  548MOL0     C75540   7.090   4.721   7.863 -0.0671 -0.5210  0.1787
  548MOL0     C75541   7.114   4.294   8.041  0.6536  0.2153  0.1361
  548MOL0     C75542   7.238   4.230   8.023 -0.1655 -0.1155 -0.1841
  548MOL0     C75543   7.265   4.109   8.083 -0.3266  0.2130 -0.3110
  548MOL0     C75544   7.174   4.052   8.174 -0.3355 -0.0999  0.0797
  548MOL0     O75545   7.211   3.931   8.235  0.2975 -0.0400 -0.1559
  548MOL0     C75546   7.100   3.861   8.314 -1.2114  0.1697 -0.3554
  548MOL0     C75547   7.158   3.734   8.376  0.5948  0.7381 -0.1503
  548MOL0     C75548   7.065   3.664   8.465 -0.1672 -0.2316  0.0662
  548MOL0     C75549   7.121   3.531   8.518 -0.3067  0.2539  0.3582
  548MOL0     C75550   7.238   3.544   8.600 -0.0884 -0.3001 -0.1003
  548MOL0     C75551   7.326   3.579   8.675  0.4046 -0.4629  0.0073
  548MOL0     C75552   7.041   4.105   8.184 -0.3625  0.2804  0.3117
  548MOL0     C75553   7.014   4.225   8.125  0.0771 -0.5124  0.1098
  548MOL0     C75554   6.883   4.293   8.163 -0.3737 -0.8718 -0.2222
  548MOL0     H75555   7.213   4.459   7.709 -0.1160 -0.4035 -1.4620
  548MOL0     H75556   7.138   4.573   7.508  3.0231  0.4325  0.4378
  548MOL0     H75557   6.991   4.914   7.366  0.0674 -0.8167 -1.2875
  548MOL0     H75558   7.138   4.816   7.407  1.7086  0.6473  2.2274
  548MOL0     H75559   7.067   5.087   7.531 -0.9119  0.0336  1.7624
  548MOL0     H75560   7.209   4.992   7.572  0.9882 -3.4903 -1.2097
  548MOL0     H75561   7.127   5.122   7.299  3.4452  1.5527 -2.5936
  548MOL0     H75562   7.257   5.175   7.400  0.6878 -0.6532  0.2397
  548MOL0     H75563   7.353   4.933   7.349 -0.4708 -1.3467  0.5661
  548MOL0     H75564   7.228   4.927   7.234 -0.8317 -1.5670  1.9115
  548MOL0     H75565   7.442   5.137   7.196  0.9535 -1.1695  0.8307
  548MOL0     H75566   7.311   5.098   7.085  1.6881 -3.4859 -3.2071
  548MOL0     H75567   7.515   4.903   7.181 -2.3717  0.8563  2.1402
  548MOL0     H75568   7.387   4.863   7.065 -1.0727  0.2294  2.0654
  548MOL0     H75569   7.619   5.028   7.013 -1.2374  0.2505  1.0386
  548MOL0     H75570   7.470   5.046   6.910  0.1908 -2.1010 -1.7916
  548MOL0     H75571   7.490   4.815   6.851  1.9266 -0.4385 -1.6954
  548MOL0     H75572   7.637   4.906   6.811  3.4205 -1.3489  1.3322
  548MOL0     H75573   7.823   4.902   7.059 -0.6412 -0.3845  0.8184
  548MOL0     H75574   7.825   4.644   7.316 -4.4484 -1.0384 -3.4983
  548MOL0     H75575   7.932   4.781   7.254  4.0288 -2.2188  0.7528
  548MOL0     H75576   8.089   4.603   7.267  0.3618  0.2120  0.0429
  548MOL0     H75577   7.971   4.482   7.229 -3.3893  1.4677  1.0043
  548MOL0     H75578   7.984   4.544   6.984 -0.6700  1.9444 -0.6136
  548MOL0     H75579   8.073   4.687   7.035  0.4678  0.1702 -0.5051
  548MOL0     H75580   8.203   4.501   6.939 -2.8560  0.2261 -1.6204
  548MOL0     H75581   8.259   4.534   7.102  1.5582 -4.3518  0.5865
  548MOL0     H75582   8.101   4.109   7.034 -0.0468  1.0599 -3.4021
  548MOL0     H75583   8.154   3.895   6.951  0.5216 -0.0471 -1.1907
  548MOL0     H75584   8.221   3.880   7.117  2.3969 -0.1095  0.4660
  548MOL0     H75585   8.310   3.822   6.966  1.4737  0.2357  0.7237
  548MOL0     H75586   8.899   4.092   7.075  0.9755  0.2254 -1.0852
  548MOL0     H75587   9.092   3.952   7.125  2.1679 -1.9099 -1.7566
  548MOL0     H75588   9.033   3.524   7.107 -0.8173 -2.2532 -0.3356
  548MOL0     H75589   9.134   3.537   6.972 -1.7972 -2.0071  0.9498
  548MOL0     H75590   9.331   3.581   7.135  0.6573 -2.2705 -3.1506
  548MOL0     H75591   9.217   3.501   7.259 -1.4151  1.3577 -0.8253
  548MOL0     H75592   9.317   3.372   7.000 -2.8662  1.6743 -0.7558
  548MOL0     H75593   9.215   3.305   7.126 -0.2770 -0.0088 -1.6432
  548MOL0     H75594   9.423   3.348   7.283  2.8947  0.2183  1.0117
  548MOL0     H75595   9.522   3.396   7.140 -0.7142 -0.7914  0.4087
  548MOL0     H75596   9.462   3.173   7.050  1.5699  3.2061 -0.2725
  548MOL0     H75597   9.565   3.183   7.198  1.1882 -1.6498 -2.4693
  548MOL0     H75598   9.284   3.082   7.182 -0.2560 -0.0006  1.3574
  548MOL0     H75599   9.354   3.146   7.330  1.4912  2.3583 -1.3050
  548MOL0     H75600   9.546   2.982   7.279  0.8286  0.5449 -1.4965
  548MOL0     H75601   9.458   2.914   7.150  0.5349 -1.2443  1.1731
  548MOL0     H75602   9.260   2.870   7.317 -0.0819 -1.2077  0.1237
  548MOL0     H75603   9.390   2.899   7.443  0.6232 -1.3011  1.3675
  548MOL0     H75604   8.907   3.618   6.943  3.3452 -0.1802 -0.4066
  548MOL0     H75605   8.705   3.762   6.892  2.4178  1.0089 -1.2903
  548MOL0     H75606   8.576   4.220   7.028 -1.2763  2.0541 -0.7145
  548MOL0     H75607   8.435   4.400   7.044  3.8709 -0.5647  1.2884
  548MOL0     H75608   6.979   4.881   7.782  0.2221  0.2982 -0.3607
  548MOL0     H75609   7.071   4.769   7.959 -0.5205  1.0270 -0.6542
  548MOL0     H75610   7.308   4.263   7.947 -0.0144  0.4746  0.2080
  548MOL0     H75611   7.352   4.051   8.055 -1.3868 -2.6137  1.8093
  548MOL0     H75612   7.072   3.918   8.403  1.2044  1.3157 -0.2528
  548MOL0     H75613   7.014   3.846   8.249 -2.5121  1.0401  1.0900
  548MOL0     H75614   7.251   3.760   8.428  0.0408  2.1772  0.1929
  548MOL0     H75615   7.185   3.661   8.300 -0.4403  0.0870  0.0911
  548MOL0     H75616   7.054   3.724   8.556 -0.1498  1.5684 -1.0636
  548MOL0     H75617   6.965   3.651   8.421 -0.2813  2.6813 -0.7297
  548MOL0     H75618   7.134   3.462   8.434 -0.8580 -2.3292  2.2662
  548MOL0     H75619   7.042   3.488   8.580  0.0657 -1.1106 -0.0789
  548MOL0     H75620   7.392   3.612   8.753 -2.7681  1.0690  2.2608
  548MOL0     H75621   6.970   4.056   8.250 -0.6919 -0.9374 -0.9017
  548MOL0     H75622   6.850   4.247   8.256 -0.3534  1.0549  0.7989
  548MOL0     H75623   6.893   4.401   8.179  0.6312 -0.9643 -0.1205
  548MOL0     H75624   6.808   4.276   8.086  0.4788 -0.8563 -1.0739
  549MOL0     O75625   0.004   0.072   4.280 -0.3901  0.1810 -0.4040
  549MOL0     C75626  -0.037   0.090   4.165  0.7986  0.9802 -0.1750
  549MOL0     O75627   0.033   0.063   4.049  0.0307  0.6859 -0.8130
  549MOL0     C75628   0.163   0.016   4.063 -0.5422  0.4775 -0.1443
  549MOL0     C75629   0.266   0.066   3.969  0.4529  0.3144 -0.1034
  549MOL0     C75630   0.385  -0.005   3.947  0.3340 -0.3773  0.3086
  549MOL0     C75631   0.410  -0.124   4.023  0.5865  0.6104  0.1717
  549MOL0     O75632   0.528  -0.189   4.005 -0.0189  0.7227 -0.5885
  549MOL0     C75633   0.595  -0.238   4.118  0.8606  1.1178 -0.2922
  549MOL0     C75634   0.743  -0.268   4.091 -0.1928 -0.8209 -0.8220
  549MOL0     C75635   0.771  -0.342   3.962 -0.1450  0.3290 -0.6333
  549MOL0     C75636   0.894  -0.435   3.964  0.6731  0.6175 -0.2765
  549MOL0     C75637   0.945  -0.481   3.824 -0.9091 -0.0377  0.7178
  549MOL0     C75638   1.053  -0.597   3.832  0.0636  0.1911 -1.0561
  549MOL0     C75639   1.193  -0.549   3.870  0.6326 -0.4323 -0.0254
  549MOL0     C75640   1.292  -0.658   3.862  0.2420  0.2014  0.4198
  549MOL0     N75641   1.422  -0.616   3.923 -1.3014  0.4500  0.0603
  549MOL0     C75642   1.447  -0.554   4.045  0.2803  0.1993 -0.4527
  549MOL0     C75643   1.572  -0.503   4.036 -0.4009 -0.1032  0.0376
  549MOL0     C75644   1.642  -0.416   4.143 -0.2314  1.0381  0.4949
  549MOL0     C75645   1.697  -0.511   4.260 -0.2890 -0.3797  0.3452
  549MOL0     C75646   1.817  -0.601   4.215  0.3450 -0.1265 -0.5668
  549MOL0     C75647   1.941  -0.514   4.189 -0.3233 -0.5308  0.1819
  549MOL0     O75648   2.023  -0.599   4.115  0.6305 -0.0723 -0.5589
  549MOL0     C75649   2.148  -0.561   4.091  0.2525  0.1514 -0.0724
  549MOL0     C75650   2.230  -0.661   4.050 -0.4545  0.5383  0.4445
  549MOL0     C75651   2.357  -0.643   3.991  0.8972 -0.1102  0.0365
  549MOL0     C75652   2.430  -0.765   3.934  0.0517  0.0937  0.2077
  549MOL0     C75653   2.413  -0.516   3.982 -0.7678 -0.1280 -0.5460
  549MOL0     C75654   2.540  -0.482   3.915  0.3360  0.1719 -0.6485
  549MOL0     O75655   2.532  -0.355   3.858 -0.3352  0.4915 -0.1861
  549MOL0     C75656   2.655  -0.296   3.832 -0.0207  0.0968 -0.4316
  549MOL0     C75657   2.756  -0.289   3.933  0.4894  0.7700 -0.8064
  549MOL0     C75658   2.880  -0.237   3.890  0.6311 -0.1180 -0.0814
  549MOL0     C75659   2.902  -0.189   3.761  0.0082 -0.4257 -0.6000
  549MOL0     O75660   3.008  -0.125   3.711  0.0248 -0.3378  0.4869
  549MOL0     C75661   3.125  -0.127   3.792 -0.0652 -0.1023 -0.2443
  549MOL0     C75662   3.242  -0.055   3.717 -0.0401  0.2479 -0.3438
  549MOL0     C75663   3.371  -0.061   3.801  0.3405 -0.7908 -0.2831
  549MOL0     C75664   3.451  -0.187   3.768 -0.8417  0.3735  0.7683
  549MOL0     C75665   3.599  -0.184   3.813  1.1070 -0.3616  0.0720
  549MOL0     C75666   3.629  -0.225   3.959  0.2625  0.9221  0.4100
  549MOL0     C75667   3.620  -0.377   3.977  0.4326 -0.0215 -0.5620
  549MOL0     C75668   3.666  -0.412   4.113  0.3400 -0.3377  0.0009
  549MOL0    Cl75669   3.687  -0.594   4.110 -0.0998  0.1478  0.0716
  549MOL0     C75670   2.799  -0.207   3.673  0.2249 -0.3028  0.2950
  549MOL0     C75671   2.677  -0.255   3.702  0.9534 -0.3669 -0.9216
  549MOL0     O75672   2.635  -0.562   3.914 -0.5479  0.1541  0.5154
  549MOL0     C75673   2.332  -0.410   4.035  0.7127  0.4403  0.2360
  549MOL0     C75674   2.205  -0.433   4.095 -0.6198  0.7441  0.4959
  549MOL0     N75675   1.637  -0.543   3.912  0.3353  0.0867  0.5861
  549MOL0     N75676   1.541  -0.606   3.846  0.2515 -0.0549 -0.2548
  549MOL0     C75677   0.315  -0.171   4.126  0.0529 -1.3838  0.8610
  549MOL0     C75678   0.191  -0.101   4.134  0.3803  0.3688  0.4172
  549MOL0     C75679  -0.176   0.119   4.142 -0.4606 -0.9383 -0.1315
  549MOL0     C75680  -0.209   0.208   4.036 -0.2461 -0.1190  0.5183
  549MOL0     C75681  -0.339   0.257   3.994  0.0689  0.0034  1.1795
  549MOL0     C75682  -0.443   0.207   4.072  0.0380 -0.0333 -0.1477
  549MOL0     O75683  -0.568   0.251   4.046 -0.3350 -0.4982 -0.3129
  549MOL0     C75684  -0.679   0.197   4.107  0.3628  0.7776 -0.8275
  549MOL0     C75685  -0.806   0.282   4.099  0.0532 -0.3157  0.0145
  549MOL0     C75686  -0.917   0.213   4.175 -0.3893 -0.7708  0.8699
  549MOL0     C75687  -1.047   0.301   4.184  0.2950  0.0226 -0.8877
  549MOL0     C75688  -1.156   0.231   4.258 -0.5618 -0.2650  0.4631
  549MOL0     C75689  -1.245   0.172   4.317  0.1209 -0.8100 -0.3173
  549MOL0     C75690  -0.411   0.107   4.169  1.2153  0.0698 -0.3104
  549MOL0     C75691  -0.285   0.059   4.208  0.2807  0.1348 -0.2532
  549MOL0     C75692  -0.274  -0.035   4.323  0.0447  0.7419  0.4334
  549MOL0     H75693   0.227   0.152   3.915  0.1856  1.9976  2.5877
  549MOL0     H75694   0.436   0.042   3.864 -0.2481  0.5362  0.4493
  549MOL0     H75695   0.547  -0.331   4.148 -0.6103  1.1007 -2.4883
  549MOL0     H75696   0.601  -0.164   4.198  3.7933  2.7043 -1.7825
  549MOL0     H75697   0.807  -0.179   4.100  0.5123 -1.4131  0.1643
  549MOL0     H75698   0.788  -0.337   4.162  0.3400 -0.6823 -1.0205
  549MOL0     H75699   0.687  -0.410   3.942 -0.3194  0.9757 -2.2352
  549MOL0     H75700   0.768  -0.272   3.878 -3.4988  0.3238 -0.6673
  549MOL0     H75701   0.973  -0.395   4.028  0.3587  1.6200 -0.4839
  549MOL0     H75702   0.857  -0.523   4.017 -0.6841  2.1803  1.5503
  549MOL0     H75703   0.976  -0.398   3.759 -0.3608 -0.5382  0.3431
  549MOL0     H75704   0.858  -0.526   3.774 -1.7146  0.5062  1.5883
  549MOL0     H75705   1.030  -0.669   3.911 -2.2824 -0.4894 -2.2526
  549MOL0     H75706   1.061  -0.657   3.741  1.7133  0.0681 -0.8536
  549MOL0     H75707   1.192  -0.508   3.972 -2.4464  0.4738 -0.3278
  549MOL0     H75708   1.219  -0.457   3.817  0.3454  2.2274  3.9671
  549MOL0     H75709   1.254  -0.744   3.918 -2.7145  1.6105  0.7275
  549MOL0     H75710   1.312  -0.685   3.758  0.7978  3.8932 -0.5715
  549MOL0     H75711   1.377  -0.518   4.120  0.9421  1.3643 -0.3709
  549MOL0     H75712   1.565  -0.352   4.186 -0.9480 -0.3936  1.4673
  549MOL0     H75713   1.715  -0.356   4.089  0.0118 -1.7472 -2.6498
  549MOL0     H75714   1.725  -0.451   4.347 -2.2118  0.9589  0.1085
  549MOL0     H75715   1.614  -0.575   4.293 -2.5537  2.5814  0.8030
  549MOL0     H75716   1.833  -0.674   4.295 -2.0380  1.2128  1.3010
  549MOL0     H75717   1.784  -0.642   4.119  1.0800  2.4267 -2.0107
  549MOL0     H75718   1.919  -0.428   4.125  0.7959 -0.9744 -0.8409
  549MOL0     H75719   1.979  -0.473   4.282 -0.9234 -3.3607  1.7832
  549MOL0     H75720   2.176  -0.756   4.050 -0.9267  0.7943  1.4363
  549MOL0     H75721   2.501  -0.750   3.853 -1.9340 -3.2386 -2.4222
  549MOL0     H75722   2.353  -0.834   3.899  1.7555 -2.1198  0.5802
  549MOL0     H75723   2.478  -0.827   4.011 -2.9923 -1.2469  1.1978
  549MOL0     H75724   2.735  -0.331   4.031 -3.2344 -0.4473 -1.9583
  549MOL0     H75725   2.964  -0.249   3.957  1.0756 -1.2351 -0.8269
  549MOL0     H75726   3.122  -0.077   3.889  0.8317 -3.5066  1.7054
  549MOL0     H75727   3.160  -0.229   3.807  1.0642  0.2578 -0.3919
  549MOL0     H75728   3.252  -0.106   3.621  0.7563 -0.0035 -0.1302
  549MOL0     H75729   3.214   0.047   3.690 -1.1938 -0.2285 -1.0214
  549MOL0     H75730   3.346  -0.058   3.908 -0.2941 -1.4839 -0.4003
  549MOL0     H75731   3.435   0.022   3.772  2.1819 -1.9492  0.3234
  549MOL0     H75732   3.452  -0.206   3.660  1.1209  2.2320  0.3823
  549MOL0     H75733   3.387  -0.267   3.806 -1.0788 -0.1978 -0.7600
  549MOL0     H75734   3.659  -0.252   3.752  1.9562 -2.7155  3.2247
  549MOL0     H75735   3.636  -0.082   3.805 -2.9156  1.2198 -0.2058
  549MOL0     H75736   3.557  -0.186   4.031  0.8712  1.7124  0.6008
  549MOL0     H75737   3.728  -0.192   3.992  0.0215  1.1969  0.8766
  549MOL0     H75738   3.686  -0.425   3.904  1.9755  2.0926 -0.6732
  549MOL0     H75739   3.521  -0.419   3.959 -0.5954  1.9558  0.1136
  549MOL0     H75740   3.594  -0.385   4.191  0.6440  1.9003 -0.4532
  549MOL0     H75741   3.763  -0.365   4.128  0.6270 -0.7434 -0.5606
  549MOL0     H75742   2.804  -0.190   3.566 -0.4794 -1.7834 -0.0030
  549MOL0     H75743   2.596  -0.264   3.629  1.9609 -3.9567 -1.7784
  549MOL0     H75744   2.359  -0.305   4.039 -1.0255  0.9130  0.3144
  549MOL0     H75745   2.147  -0.347   4.127 -1.0066 -0.0604  2.0230
  549MOL0     H75746   0.336  -0.266   4.173 -0.7614 -1.0109  2.0055
  549MOL0     H75747   0.110  -0.146   4.190 -0.3362 -2.2594 -2.4650
  549MOL0     H75748  -0.124   0.243   3.979 -0.8466 -1.4440 -1.2682
  549MOL0     H75749  -0.364   0.320   3.909 -1.3088 -2.9253 -0.7768
  549MOL0     H75750  -0.713   0.098   4.073 -0.6270  1.0226 -0.5920
  549MOL0     H75751  -0.658   0.189   4.214  3.0314 -4.0352 -1.4089
  549MOL0     H75752  -0.837   0.286   3.994 -0.8931 -1.2597  0.2431
  549MOL0     H75753  -0.779   0.383   4.132  2.5674 -0.6932 -0.7178
  549MOL0     H75754  -0.943   0.116   4.132  0.1028 -0.3275 -0.4800
  549MOL0     H75755  -0.884   0.200   4.279  0.3432 -0.8142  0.6375
  549MOL0     H75756  -1.068   0.345   4.086  0.6810  0.6738 -0.6811
  549MOL0     H75757  -1.026   0.388   4.247  1.8867  0.2450 -1.6711
  549MOL0     H75758  -1.330   0.130   4.368  0.6324 -2.4599 -0.7544
  549MOL0     H75759  -0.491   0.055   4.220  2.9883 -1.9896  0.5527
  549MOL0     H75760  -0.196  -0.111   4.314 -1.6439 -1.0246  0.0822
  549MOL0     H75761  -0.258   0.031   4.409  0.1803  1.3987 -0.0906
  549MOL0     H75762  -0.360  -0.100   4.343  0.4708 -0.3662 -1.1655
  550MOL0     O75763   3.903   9.426   8.160  0.0291  0.3718 -0.2668
  550MOL0     C75764   3.866   9.319   8.113 -0.0972  0.4188 -0.3856
  550MOL0     O75765   3.773   9.294   8.016 -0.9919  0.7968  0.1495
  550MOL0     C75766   3.713   9.399   7.957  0.3522  0.3640  0.1177
  550MOL0     C75767   3.715   9.414   7.815  0.0216  0.1605  0.3857
  550MOL0     C75768   3.621   9.512   7.774 -0.6179  1.1587  0.5785
  550MOL0     C75769   3.543   9.594   7.847  0.0166 -0.4771 -0.0849
  550MOL0     O75770   3.454   9.674   7.782 -0.1870  0.8433  0.7960
  550MOL0     C75771   3.336   9.716   7.852 -0.0406  0.9319 -0.0787
  550MOL0     C75772   3.245   9.758   7.737  0.0924  0.1200 -0.2419
  550MOL0     C75773   3.116   9.826   7.784  0.1941 -0.3598  0.2768
  550MOL0     C75774   3.029   9.742   7.876 -0.2328  0.6445  0.5870
  550MOL0     C75775   2.893   9.813   7.909  0.3353 -0.5509 -0.3546
  550MOL0     C75776   2.816   9.747   8.026 -0.0667  0.1242  1.0371
  550MOL0     C75777   2.674   9.785   8.041  0.2116  0.7979 -0.8145
  550MOL0     C75778   2.647   9.923   8.091  0.1778  0.0959 -0.1229
  550MOL0     N75779   2.686  10.031   8.003 -0.2398 -0.7230  0.8349
  550MOL0     C75780   2.650  10.043   7.871  0.4643  0.6489 -0.3939
  550MOL0     C75781   2.704  10.160   7.816 -0.7755 -0.6545  0.0052
  550MOL0     C75782   2.708  10.220   7.677 -0.0611 -0.5540  0.3505
  550MOL0     C75783   2.825  10.191   7.593 -0.3714 -0.0764  0.0521
  550MOL0     C75784   2.967  10.228   7.665 -0.0506  0.2245 -0.2019
  550MOL0     C75785   2.984  10.376   7.695 -0.7530  0.4656 -0.0199
  550MOL0     O75786   3.116  10.398   7.745  0.3065 -0.2208  0.1093
  550MOL0     C75787   3.171  10.523   7.778  0.2613 -0.0498 -0.6229
  550MOL0     C75788   3.274  10.520   7.873  0.3888  0.1670  0.1289
  550MOL0     C75789   3.329  10.638   7.916  0.2067 -0.3715 -0.4500
  550MOL0     C75790   3.403  10.621   8.035 -0.6208  0.6659  1.0065
  550MOL0     C75791   3.304  10.756   7.855 -0.3248  0.2858 -0.2061
  550MOL0     C75792   3.378  10.876   7.882  0.9136 -0.1810  0.1000
  550MOL0     O75793   3.373  10.968   7.776  0.0075 -0.2723  0.5473
  550MOL0     C75794   3.469  11.072   7.781 -0.5225  0.7623 -0.5899
  550MOL0     C75795   3.593  11.085   7.847  0.7030  0.0046 -0.0768
  550MOL0     C75796   3.661  11.209   7.857 -0.2839 -0.2069 -0.7263
  550MOL0     C75797   3.603  11.310   7.786  0.5790 -0.8905 -0.0415
  550MOL0     O75798   3.660  11.428   7.765 -0.2407  0.3004 -0.0268
  550MOL0     C75799   3.711  11.490   7.892 -0.1436 -0.7284  0.1543
  550MOL0     C75800   3.810  11.603   7.859 -0.0737 -0.0402 -0.4471
  550MOL0     C75801   3.929  11.555   7.783 -0.6394  0.1403  0.0924
  550MOL0     C75802   4.016  11.664   7.731  0.1972 -0.3155 -0.2403
  550MOL0     C75803   4.152  11.607   7.687  0.6428  0.8864  0.3452
  550MOL0     C75804   4.261  11.714   7.668  0.0673  0.0276  0.1077
  550MOL0     C75805   4.407  11.656   7.645  0.4003  0.5887  0.2523
  550MOL0     C75806   4.485  11.641   7.778 -0.2614  1.6346  0.1490
  550MOL0    Cl75807   4.637  11.531   7.760 -0.1005 -0.1231  0.5467
  550MOL0     C75808   3.479  11.303   7.720  0.0434 -0.4062  0.8037
  550MOL0     C75809   3.411  11.181   7.720 -0.1733 -0.4622  0.7663
  550MOL0     O75810   3.407  10.916   7.992  0.4405 -0.0564  0.2161
  550MOL0     C75811   3.219  10.748   7.738 -0.3092 -0.5650  0.1484
  550MOL0     C75812   3.151  10.638   7.711  0.5158 -0.1665 -0.1068
  550MOL0     N75813   2.785  10.204   7.920  0.0722  0.1808  0.4022
  550MOL0     N75814   2.775  10.132   8.021 -0.1819 -0.1626  1.0087
  550MOL0     C75815   3.539   9.568   7.983 -0.3584 -0.2569  0.2175
  550MOL0     C75816   3.628   9.473   8.041 -0.3377 -0.6934 -0.2011
  550MOL0     C75817   3.931   9.197   8.156  0.2895  0.0884 -0.0762
  550MOL0     C75818   3.860   9.074   8.132 -0.0632  0.0243  1.1301
  550MOL0     C75819   3.913   8.959   8.172 -0.8748  0.0754  0.3295
  550MOL0     C75820   4.027   8.950   8.250  0.6273  0.0506  0.4946
  550MOL0     O75821   4.081   8.839   8.299  0.6802  0.0095  0.7531
  550MOL0     C75822   3.983   8.760   8.372 -0.4401  0.3960  0.6835
  550MOL0     C75823   4.058   8.637   8.434  0.8898  0.7279  0.5122
  550MOL0     C75824   4.084   8.524   8.339 -0.2495 -0.5596 -0.3231
  550MOL0     C75825   4.206   8.438   8.375 -0.3246 -0.4500 -0.6937
  550MOL0     C75826   4.206   8.376   8.508 -0.3988 -1.0422 -0.5101
  550MOL0     C75827   4.188   8.322   8.610 -0.6819 -0.0728 -1.4292
  550MOL0     C75828   4.102   9.065   8.266 -0.3780 -1.0630  0.1398
  550MOL0     C75829   4.054   9.192   8.218 -0.3002 -0.3229 -0.8019
  550MOL0     C75830   4.155   9.308   8.237  0.0398 -0.2211 -0.6047
  550MOL0     H75831   3.769   9.353   7.743 -0.2156 -2.5037  2.3298
  550MOL0     H75832   3.603   9.531   7.668 -1.2019 -1.0910  0.2248
  550MOL0     H75833   3.360   9.799   7.919  0.2116  1.3840 -0.7187
  550MOL0     H75834   3.283   9.637   7.907 -2.5584  0.2392 -3.1993
  550MOL0     H75835   3.299   9.831   7.676  3.2894 -2.0692 -0.2974
  550MOL0     H75836   3.227   9.676   7.667 -0.5983  0.7093 -0.7757
  550MOL0     H75837   3.126   9.928   7.822 -0.0552 -0.6117  1.0453
  550MOL0     H75838   3.051   9.845   7.699  0.9489  2.6249  0.2335
  550MOL0     H75839   3.012   9.638   7.846  3.2429  0.1520 -0.1876
  550MOL0     H75840   3.080   9.743   7.973 -0.1576 -0.0405  0.5607
  550MOL0     H75841   2.821   9.806   7.827 -1.3670 -1.3676  1.1337
  550MOL0     H75842   2.917   9.912   7.949  1.8558 -1.1232  0.2571
  550MOL0     H75843   2.813   9.638   8.020 -0.7548  0.1825  0.2676
  550MOL0     H75844   2.876   9.761   8.117  2.4782 -1.9244 -0.1944
  550MOL0     H75845   2.635   9.719   8.119  0.3730  1.1177 -0.4564
  550MOL0     H75846   2.609   9.761   7.957 -0.5096  2.9369 -0.9269
  550MOL0     H75847   2.544   9.931   8.127  0.9168  0.5864  2.0191
  550MOL0     H75848   2.710   9.933   8.180 -1.9776  0.7039  1.4148
  550MOL0     H75849   2.583   9.975   7.820 -0.5802 -0.8833  2.7770
  550MOL0     H75850   2.717  10.328   7.691 -0.1472 -0.8225  2.8044
  550MOL0     H75851   2.616  10.191   7.625  0.3411  0.3919 -0.9408
  550MOL0     H75852   2.815  10.090   7.552  1.2016  0.9024 -3.0390
  550MOL0     H75853   2.814  10.249   7.501  3.1832  0.3650 -0.2272
  550MOL0     H75854   2.972  10.177   7.761  0.1793 -4.0216 -2.2188
  550MOL0     H75855   3.045  10.183   7.601 -0.4451 -0.1965 -0.3921
  550MOL0     H75856   2.973  10.435   7.603 -0.0300  1.1165  0.3001
  550MOL0     H75857   2.920  10.409   7.777  1.3693 -0.2213  2.0189
  550MOL0     H75858   3.299  10.424   7.917  1.5959  0.0232 -0.8221
  550MOL0     H75859   3.345  10.664   8.117  0.6943  0.2987  2.1586
  550MOL0     H75860   3.504  10.663   8.024  0.6059 -2.2204  0.1800
  550MOL0     H75861   3.416  10.517   8.065 -0.3973  0.1590 -0.7177
  550MOL0     H75862   3.624  10.997   7.903  1.3520 -0.2379 -0.8046
  550MOL0     H75863   3.758  11.216   7.904 -0.8572 -1.1031  0.6358
  550MOL0     H75864   3.633  11.537   7.953  1.1463  2.1251 -0.2447
  550MOL0     H75865   3.772  11.420   7.949  0.5620  0.2677  0.6447
  550MOL0     H75866   3.748  11.665   7.793  1.0313 -0.8272 -2.2965
  550MOL0     H75867   3.839  11.652   7.952 -2.3934  0.6454 -0.0071
  550MOL0     H75868   3.881  11.495   7.706 -2.6817 -2.5890  3.2189
  550MOL0     H75869   3.979  11.488   7.854 -0.4223  2.3507  2.2005
  550MOL0     H75870   4.037  11.740   7.807 -2.6180  1.6494 -1.2491
  550MOL0     H75871   3.973  11.712   7.642 -1.5989 -0.8230  0.3027
  550MOL0     H75872   4.188  11.531   7.757  0.1817  1.8150  1.6412
  550MOL0     H75873   4.140  11.554   7.592  2.3451 -0.7102  0.9523
  550MOL0     H75874   4.258  11.792   7.744  1.1277  1.6662 -1.4426
  550MOL0     H75875   4.231  11.766   7.576  1.4324  3.0083  1.2219
  550MOL0     H75876   4.462  11.737   7.595 -0.3595  1.4412  0.7819
  550MOL0     H75877   4.395  11.565   7.586 -2.6578  0.4066  1.0147
  550MOL0     H75878   4.412  11.592   7.844 -0.0931  1.1500 -0.0165
  550MOL0     H75879   4.513  11.736   7.823 -1.1274  0.3972  3.6660
  550MOL0     H75880   3.428  11.379   7.661 -1.3425 -1.4288  0.6203
  550MOL0     H75881   3.315  11.178   7.668 -1.0818  1.9416  2.1497
  550MOL0     H75882   3.194  10.835   7.678 -3.7514 -1.8766 -0.5479
  550MOL0     H75883   3.081  10.655   7.630 -0.6511  0.2391  0.9552
  550MOL0     H75884   3.475   9.625   8.049  0.4024  1.2804 -0.3105
  550MOL0     H75885   3.632   9.447   8.147 -1.3891  3.4143  1.0008
  550MOL0     H75886   3.767   9.068   8.077  1.3158 -0.0412 -1.3040
  550MOL0     H75887   3.867   8.865   8.142 -2.7745  1.0694 -0.0194
  550MOL0     H75888   3.937   8.822   8.449 -3.0451  0.3501 -0.6848
  550MOL0     H75889   3.909   8.714   8.306  0.7004 -2.2295  1.1340
  550MOL0     H75890   4.003   8.590   8.517  1.1212 -2.0809 -0.8307
  550MOL0     H75891   4.155   8.664   8.477  0.1265  0.4903  2.4889
  550MOL0     H75892   4.000   8.455   8.327 -0.4783 -0.2234 -0.6706
  550MOL0     H75893   4.101   8.567   8.240  1.7725 -0.4591  0.0259
  550MOL0     H75894   4.293   8.504   8.364 -1.0954  1.9026  4.3224
  550MOL0     H75895   4.210   8.355   8.304  2.2762  1.2929 -2.7421
  550MOL0     H75896   4.190   8.282   8.710  0.2344  1.1441 -0.9248
  550MOL0     H75897   4.202   9.060   8.306  0.0342 -2.0560 -0.9555
  550MOL0     H75898   4.142   9.379   8.154 -1.7458 -0.8471 -0.9097
  550MOL0     H75899   4.122   9.352   8.331  2.3143 -1.3631  0.8009
  550MOL0     H75900   4.260   9.281   8.250  0.2130  1.1975  1.3525
  551MOL0     O75901   0.655   3.983   6.455 -0.2893 -0.6657  0.3705
  551MOL0     C75902   0.702   4.030   6.345  1.1158  0.0095 -0.4638
  551MOL0     O75903   0.755   4.160   6.328 -0.2128 -0.2099  0.5641
  551MOL0     C75904   0.755   4.246   6.434  0.2710 -1.4549  0.1478
  551MOL0     C75905   0.872   4.330   6.438  0.4515 -0.1344  0.2271
  551MOL0     C75906   0.880   4.439   6.529  0.6582 -0.5965 -0.1886
  551MOL0     C75907   0.787   4.463   6.628  0.6889  0.3872  0.3583
  551MOL0     O75908   0.784   4.552   6.729 -0.4121 -0.0108  0.5266
  551MOL0     C75909   0.887   4.648   6.735 -0.5530  0.4297  0.6848
  551MOL0     C75910   0.858   4.756   6.850 -0.5096  0.9675 -0.9159
  551MOL0     C75911   0.978   4.855   6.886  0.3848 -0.3621  0.2579
  551MOL0     C75912   1.108   4.772   6.894  0.4272  0.2170  0.9822
  551MOL0     C75913   1.222   4.841   6.974 -0.2685  1.1608  0.3102
  551MOL0     C75914   1.279   4.969   6.918 -0.1163 -0.1826  0.7606
  551MOL0     C75915   1.364   4.936   6.786 -0.1846  0.2577 -0.1801
  551MOL0     C75916   1.405   5.066   6.719  0.6998  0.2802 -0.2260
  551MOL0     N75917   1.467   5.043   6.584 -0.5844 -0.1789 -0.4453
  551MOL0     C75918   1.599   5.002   6.561  0.2574 -0.2892 -0.7193
  551MOL0     C75919   1.595   4.990   6.425 -0.4808  0.1007 -0.2040
  551MOL0     C75920   1.730   4.937   6.359 -0.5842 -1.1447 -0.3868
  551MOL0     C75921   1.728   4.790   6.351 -0.3156 -0.7515  1.0458
  551MOL0     C75922   1.767   4.731   6.479 -0.6950  0.8589  0.2971
  551MOL0     C75923   1.824   4.588   6.478 -0.2391 -0.6982 -0.3288
  551MOL0     O75924   1.921   4.555   6.372 -0.6143  0.3917 -0.0815
  551MOL0     C75925   2.054   4.612   6.369  0.6665 -0.9281 -0.8954
  551MOL0     C75926   2.117   4.630   6.243 -0.8520  0.1206  0.0962
  551MOL0     C75927   2.256   4.660   6.242 -0.0077 -0.1286  0.2048
  551MOL0     C75928   2.305   4.652   6.097  0.9388  0.1226  0.2284
  551MOL0     C75929   2.335   4.674   6.363  0.5185  0.4128 -0.0209
  551MOL0     C75930   2.484   4.704   6.369  0.0005 -0.2906  0.1950
  551MOL0     O75931   2.542   4.758   6.253  0.0396 -0.0457 -1.0412
  551MOL0     C75932   2.665   4.812   6.278 -0.6020  0.3467  0.6909
  551MOL0     C75933   2.764   4.737   6.230 -0.6936  0.1384  0.1459
  551MOL0     C75934   2.892   4.777   6.271  0.4984  0.5364 -0.0240
  551MOL0     C75935   2.917   4.904   6.328 -0.3556 -0.6860 -1.0030
  551MOL0     O75936   3.042   4.956   6.352 -0.1700 -0.1312 -0.1906
  551MOL0     C75937   3.131   4.858   6.408 -0.5884  0.9240 -0.6473
  551MOL0     C75938   3.264   4.913   6.461 -1.2592 -0.4654 -0.0781
  551MOL0     C75939   3.247   5.038   6.555  1.1595 -0.3851 -0.1992
  551MOL0     C75940   3.368   5.104   6.624  0.1963  0.4652  0.5416
  551MOL0     C75941   3.435   5.009   6.716 -0.4335 -0.6780 -0.3892
  551MOL0     C75942   3.532   5.089   6.804 -0.6271  0.2468  0.5583
  551MOL0     C75943   3.565   4.999   6.922  0.2634 -0.1828 -0.0312
  551MOL0     C75944   3.718   4.996   6.953  0.0565  0.4999  1.0430
  551MOL0    Cl75945   3.788   5.148   7.051  0.4054 -0.3933  0.2516
  551MOL0     C75946   2.811   4.983   6.364 -0.3522  0.2403 -1.0954
  551MOL0     C75947   2.679   4.936   6.345 -0.1574 -0.7033  0.1111
  551MOL0     O75948   2.542   4.678   6.473 -0.5856 -0.9159 -0.0932
  551MOL0     C75949   2.262   4.661   6.485  0.0046 -0.7582 -0.0047
  551MOL0     C75950   2.131   4.620   6.485  0.0741  1.0971  0.5439
  551MOL0     N75951   1.468   5.010   6.374 -0.5549 -0.3938 -0.2276
  551MOL0     N75952   1.395   5.032   6.471  0.5353  0.1900 -0.3319
  551MOL0     C75953   0.669   4.387   6.612 -0.2895  0.3036 -1.0087
  551MOL0     C75954   0.655   4.283   6.521  0.3615  0.1559 -0.9503
  551MOL0     C75955   0.721   3.934   6.237 -0.7334  0.0302  0.6314
  551MOL0     C75956   0.754   3.799   6.266  0.0654 -0.5046 -0.0459
  551MOL0     C75957   0.772   3.698   6.180 -0.5029  0.1439  0.0350
  551MOL0     C75958   0.788   3.726   6.047  0.3251 -0.5560 -1.0507
  551MOL0     O75959   0.820   3.619   5.961 -0.0651  0.1044 -0.4994
  551MOL0     C75960   0.779   3.485   5.990 -0.3994 -0.2374 -0.0800
  551MOL0     C75961   0.744   3.415   5.861 -0.5795 -0.4110 -0.2283
  551MOL0     C75962   0.616   3.484   5.818 -0.4770 -0.1454 -0.6746
  551MOL0     C75963   0.597   3.479   5.663 -0.8496 -0.8802 -0.2679
  551MOL0     C75964   0.465   3.528   5.617 -0.4826  0.3659  0.8463
  551MOL0     C75965   0.359   3.557   5.571  0.0209 -0.1372  0.7840
  551MOL0     C75966   0.764   3.858   6.004 -0.1389  0.0544  0.3053
  551MOL0     C75967   0.721   3.963   6.097  0.8265 -0.4721  0.4772
  551MOL0     C75968   0.674   4.100   6.048  0.3547 -0.2248 -0.1281
  551MOL0     H75969   0.952   4.314   6.367 -0.9191 -0.1076 -1.3850
  551MOL0     H75970   0.969   4.499   6.542  0.9360 -0.9870 -0.2893
  551MOL0     H75971   0.898   4.686   6.633  3.0023 -1.5319  0.1832
  551MOL0     H75972   0.976   4.593   6.765 -0.1951  0.5465 -0.1403
  551MOL0     H75973   0.774   4.822   6.827  0.4544  1.7837 -2.2265
  551MOL0     H75974   0.828   4.699   6.939 -1.7026  1.1095 -1.2080
  551MOL0     H75975   0.990   4.945   6.825  0.7945  2.2150  3.8601
  551MOL0     H75976   0.947   4.887   6.986 -1.9201 -2.2130  0.2348
  551MOL0     H75977   1.088   4.677   6.943  0.1789 -0.8832 -1.1530
  551MOL0     H75978   1.140   4.748   6.793 -1.3976 -0.3721  0.5102
  551MOL0     H75979   1.300   4.767   6.996 -0.5458  0.2774 -1.4412
  551MOL0     H75980   1.198   4.882   7.072  1.4466  1.0029  0.8369
  551MOL0     H75981   1.191   5.031   6.900  0.1118 -0.0262  0.1277
  551MOL0     H75982   1.345   5.020   6.989  1.7133 -1.1177 -0.1760
  551MOL0     H75983   1.305   4.874   6.718 -2.2316 -0.3028  1.9519
  551MOL0     H75984   1.451   4.879   6.819 -1.9563 -3.6663 -1.6799
  551MOL0     H75985   1.324   5.140   6.714  0.1215  0.0562  3.3132
  551MOL0     H75986   1.474   5.117   6.787  0.4520 -0.2419  0.4267
  551MOL0     H75987   1.678   4.960   6.622 -2.3365  0.1276  3.3011
  551MOL0     H75988   1.817   4.968   6.417 -1.4601  0.4425  0.1332
  551MOL0     H75989   1.736   4.998   6.269 -2.4900  0.4133  0.4626
  551MOL0     H75990   1.634   4.749   6.312  0.1445 -3.5263  2.6229
  551MOL0     H75991   1.803   4.775   6.274 -0.5167 -1.6514  1.0160
  551MOL0     H75992   1.851   4.783   6.526  1.3239 -2.3264  0.5370
  551MOL0     H75993   1.682   4.730   6.549 -1.9313 -1.6556 -1.0974
  551MOL0     H75994   1.875   4.576   6.574  1.8946 -0.5416 -1.3939
  551MOL0     H75995   1.752   4.506   6.478  1.3129 -2.2990  3.2736
  551MOL0     H75996   2.076   4.604   6.146  3.6146 -4.2370 -1.0228
  551MOL0     H75997   2.229   4.624   6.024  2.3745  1.6334 -1.9599
  551MOL0     H75998   2.377   4.571   6.080  0.2535 -0.5059  0.2741
  551MOL0     H75999   2.346   4.747   6.064  0.0880 -0.4991 -2.9812
  551MOL0     H76000   2.730   4.646   6.181 -2.2505  0.3705  0.7366
  551MOL0     H76001   2.980   4.720   6.242 -0.4429 -1.6848  1.2718
  551MOL0     H76002   3.087   4.796   6.486 -1.4518  3.4522  1.0022
  551MOL0     H76003   3.163   4.794   6.325  1.4210 -0.1967  0.9012
  551MOL0     H76004   3.320   4.835   6.514  0.7111  1.3089  0.6147
  551MOL0     H76005   3.330   4.942   6.379 -0.7997  0.9224  0.7434
  551MOL0     H76006   3.176   5.030   6.637  1.7529  1.5749  0.5818
  551MOL0     H76007   3.202   5.116   6.493 -1.4669 -1.1132  0.6757
  551MOL0     H76008   3.322   5.188   6.676 -2.1455 -2.3097  3.3231
  551MOL0     H76009   3.423   5.151   6.542 -0.7067  2.1020  0.8330
  551MOL0     H76010   3.370   4.952   6.784  0.5808 -0.5165  0.7381
  551MOL0     H76011   3.485   4.927   6.663  2.8542  0.5595  0.5819
  551MOL0     H76012   3.487   5.180   6.847 -1.6615  0.8839 -1.7261
  551MOL0     H76013   3.620   5.137   6.761 -2.3170  3.6410  0.4791
  551MOL0     H76014   3.529   4.899   6.897  0.5894  0.4344 -3.5506
  551MOL0     H76015   3.513   5.031   7.013  0.5631 -0.8708  0.3831
  551MOL0     H76016   3.766   4.990   6.855 -2.2068  1.9757 -0.2413
  551MOL0     H76017   3.741   4.908   7.013 -0.2859  0.6398  1.3833
  551MOL0     H76018   2.830   5.072   6.423  1.8198 -1.0992  0.3414
  551MOL0     H76019   2.600   5.001   6.381 -2.5748 -2.3653 -1.8731
  551MOL0     H76020   2.307   4.669   6.584  0.2495 -3.2466  0.1485
  551MOL0     H76021   2.092   4.582   6.579 -0.8544 -3.0837 -1.3125
  551MOL0     H76022   0.588   4.413   6.680 -0.9563 -0.7755 -1.3554
  551MOL0     H76023   0.559   4.233   6.516  1.1109 -1.3408 -0.8042
  551MOL0     H76024   0.756   3.787   6.374  0.1589  1.0590  0.1537
  551MOL0     H76025   0.790   3.594   6.203 -0.1194 -0.6139 -3.2038
  551MOL0     H76026   0.850   3.423   6.046  0.0932  0.6364  0.2819
  551MOL0     H76027   0.686   3.480   6.048 -0.1260  1.7465  0.6008
  551MOL0     H76028   0.713   3.311   5.874 -2.2663  0.3322  2.3229
  551MOL0     H76029   0.830   3.423   5.793  0.3781  0.2157  1.0196
  551MOL0     H76030   0.529   3.449   5.874  0.1485 -0.6877 -0.0148
  551MOL0     H76031   0.626   3.590   5.843 -2.5968 -0.4272  1.8543
  551MOL0     H76032   0.609   3.375   5.630 -0.6997  0.0382 -3.4280
  551MOL0     H76033   0.680   3.528   5.612 -0.9380  0.3442  0.7356
  551MOL0     H76034   0.260   3.581   5.538  0.3982  0.0395 -0.2811
  551MOL0     H76035   0.778   3.876   5.898  2.6122 -0.4134  0.5119
  551MOL0     H76036   0.754   4.174   6.046  1.9308 -1.8711 -0.2014
  551MOL0     H76037   0.622   4.091   5.952  1.0292  4.2593 -1.1113
  551MOL0     H76038   0.602   4.145   6.117  0.5309  0.8531 -0.6225
  552MOL0     O76039   3.831   4.660   6.118  0.3561  0.7652 -0.7492
  552MOL0     C76040   3.729   4.620   6.163  0.6188  0.5480  0.5823
  552MOL0     O76041   3.700   4.529   6.260  0.6221 -0.0096 -0.5668
  552MOL0     C76042   3.810   4.478   6.323  0.5152 -0.6461  0.2307
  552MOL0     C76043   3.835   4.345   6.323 -0.5839  1.0261  0.4954
  552MOL0     C76044   3.926   4.278   6.398  0.3654 -0.6164 -0.1548
  552MOL0     C76045   4.011   4.352   6.487 -0.6833  0.8895  0.2829
  552MOL0     O76046   4.087   4.276   6.572 -0.6310  0.0754 -0.4005
  552MOL0     C76047   4.087   4.310   6.705  0.3771 -0.4636  0.3392
  552MOL0     C76048   4.168   4.210   6.794  0.1564 -0.0290  0.6705
  552MOL0     C76049   4.174   4.225   6.942  0.5059 -0.6894 -0.1254
  552MOL0     C76050   4.040   4.216   7.006 -0.5081 -0.5786  0.3275
  552MOL0     C76051   4.029   4.233   7.159 -0.1268  0.4878  0.2130
  552MOL0     C76052   4.127   4.131   7.223  0.1071 -0.3095 -0.4502
  552MOL0     C76053   4.102   4.127   7.368  0.4504  0.1747 -0.4764
  552MOL0     C76054   4.231   4.099   7.445  0.0988 -0.8846 -0.0019
  552MOL0     N76055   4.220   4.107   7.593  0.2038 -0.4838  1.0097
  552MOL0     C76056   4.298   4.042   7.680 -0.3746 -0.3326  0.4025
  552MOL0     C76057   4.256   4.075   7.806  0.0372 -0.1025  0.3088
  552MOL0     C76058   4.329   4.060   7.940  0.3442  1.2194  0.4396
  552MOL0     C76059   4.390   4.189   7.972  0.1317 -0.4836 -0.8923
  552MOL0     C76060   4.484   4.163   8.083 -0.4593  0.1158 -0.8294
  552MOL0     C76061   4.612   4.093   8.046  0.5890 -0.4666 -0.7822
  552MOL0     O76062   4.681   4.158   7.932  0.2779  0.9097 -0.8833
  552MOL0     C76063   4.816   4.129   7.943  0.1328  0.2571  0.6779
  552MOL0     C76064   4.884   4.016   7.985  1.1361  0.2286 -0.3079
  552MOL0     C76065   5.021   4.005   7.993 -1.3213 -0.3454 -0.0572
  552MOL0     C76066   5.085   3.887   8.058 -0.1565  0.4439  0.9638
  552MOL0     C76067   5.098   4.118   7.951  0.4489 -0.2624 -0.2742
  552MOL0     C76068   5.244   4.132   7.954 -0.8779  0.2971  1.0108
  552MOL0     O76069   5.310   4.177   7.838  0.3034 -0.3355 -0.3228
  552MOL0     C76070   5.456   4.187   7.840  0.7082  0.5761  0.1964
  552MOL0     C76071   5.541   4.073   7.805  0.5382  0.2445 -1.7255
  552MOL0     C76072   5.680   4.073   7.820 -0.2545  0.2637  0.4905
  552MOL0     C76073   5.741   4.189   7.872 -0.4406  0.0424 -0.2553
  552MOL0     O76074   5.881   4.189   7.868 -0.0604 -0.3024 -0.5270
  552MOL0     C76075   5.919   4.267   7.989 -0.6782 -0.7422  0.0438
  552MOL0     C76076   5.970   4.411   7.950 -0.2410  0.3902  0.3587
  552MOL0     C76077   6.109   4.396   7.884  0.6790 -1.0748 -0.3202
  552MOL0     C76078   6.208   4.505   7.941  0.5845  0.2076  1.5551
  552MOL0     C76079   6.325   4.490   7.841  0.1275 -1.1060 -0.3334
  552MOL0     C76080   6.450   4.546   7.900 -0.1690 -0.1056  0.3771
  552MOL0     C76081   6.564   4.545   7.798 -0.2757  0.9915 -0.1311
  552MOL0     C76082   6.693   4.604   7.850  0.5923  0.0288 -0.6758
  552MOL0    Cl76083   6.674   4.743   7.957 -0.0356 -0.6004  0.0732
  552MOL0     C76084   5.656   4.299   7.894 -0.4969  0.1334 -0.2537
  552MOL0     C76085   5.513   4.298   7.882 -0.4692 -0.2578  0.0667
  552MOL0     O76086   5.294   4.111   8.066  0.6132  0.0474 -0.0532
  552MOL0     C76087   5.034   4.231   7.904 -0.6651 -0.2737 -0.3110
  552MOL0     C76088   4.893   4.240   7.905 -0.2832  0.2862  0.2829
  552MOL0     N76089   4.139   4.150   7.785 -0.1279 -0.0779 -0.5482
  552MOL0     N76090   4.131   4.185   7.659  0.5233 -0.2605  0.0476
  552MOL0     C76091   3.999   4.491   6.490  0.5644  0.4151  0.5148
  552MOL0     C76092   3.904   4.556   6.400  0.6122  0.1317 -0.1851
  552MOL0     C76093   3.603   4.682   6.109 -0.8056 -0.3368 -1.0923
  552MOL0     C76094   3.506   4.595   6.059 -0.8570  0.6183 -0.6731
  552MOL0     C76095   3.380   4.634   6.017 -0.3655  0.1402 -0.5013
  552MOL0     C76096   3.351   4.774   6.011  0.3159  0.1884 -0.3941
  552MOL0     O76097   3.231   4.827   5.979  0.6375  0.0892 -0.2050
  552MOL0     C76098   3.115   4.741   5.956 -0.2772 -0.1193  0.4409
  552MOL0     C76099   2.984   4.820   5.919  0.5196 -0.4901  0.0169
  552MOL0     C76100   2.976   4.895   5.787 -0.3587  0.4450 -0.2438
  552MOL0     C76101   2.834   4.944   5.756 -0.1026  0.3008  0.3802
  552MOL0     C76102   2.831   5.053   5.654 -0.3869  0.3589 -0.9079
  552MOL0     C76103   2.793   5.140   5.586  0.6347  0.0604  0.9844
  552MOL0     C76104   3.449   4.861   6.066 -0.0520  0.7120  0.5222
  552MOL0     C76105   3.576   4.820   6.109  0.1297 -0.5557  0.5200
  552MOL0     C76106   3.695   4.916   6.130  0.6579  0.2275  0.4242
  552MOL0     H76107   3.764   4.287   6.266 -0.0374 -1.2270  1.9881
  552MOL0     H76108   3.934   4.170   6.411 -1.1596 -0.3948  4.8576
  552MOL0     H76109   3.983   4.322   6.738 -0.1178 -0.4531 -1.1795
  552MOL0     H76110   4.140   4.406   6.708 -0.1049 -0.1894  0.1204
  552MOL0     H76111   4.129   4.109   6.779 -1.4581  0.2969  2.2021
  552MOL0     H76112   4.273   4.210   6.763 -0.3934 -2.5712 -1.5493
  552MOL0     H76113   4.247   4.154   6.983  0.2298 -0.1375  1.3969
  552MOL0     H76114   4.225   4.320   6.963  3.1419 -2.2284  1.0482
  552MOL0     H76115   3.974   4.281   6.949  2.6706  1.3602 -1.4554
  552MOL0     H76116   4.026   4.108   6.998  2.8660 -1.0298 -1.7074
  552MOL0     H76117   3.929   4.223   7.201  0.9951 -2.3354  2.5804
  552MOL0     H76118   4.059   4.334   7.188 -1.7647  1.1338 -0.2247
  552MOL0     H76119   4.110   4.031   7.184 -1.9300 -1.3911  2.7897
  552MOL0     H76120   4.228   4.168   7.206  1.2120 -3.2965 -0.9087
  552MOL0     H76121   4.021   4.057   7.392 -1.0748  2.0444  0.0771
  552MOL0     H76122   4.069   4.226   7.399  1.0933  0.2646 -0.0620
  552MOL0     H76123   4.254   3.996   7.416 -0.0550 -1.0427  0.4231
  552MOL0     H76124   4.315   4.162   7.414 -1.3765  0.5451 -1.2883
  552MOL0     H76125   4.387   3.987   7.652 -0.9435 -0.4997 -1.1777
  552MOL0     H76126   4.396   3.975   7.927 -2.9014 -1.1944 -2.4495
  552MOL0     H76127   4.260   4.026   8.019  1.4180 -3.2139 -0.2477
  552MOL0     H76128   4.441   4.235   7.887  0.4040  1.9116  0.4762
  552MOL0     H76129   4.304   4.256   7.988 -1.0026 -1.9636 -0.5503
  552MOL0     H76130   4.512   4.261   8.122 -0.7996  0.8156 -2.2474
  552MOL0     H76131   4.439   4.110   8.167 -0.1110 -0.2256 -0.8566
  552MOL0     H76132   4.679   4.098   8.133  1.3768  1.1729 -1.4380
  552MOL0     H76133   4.583   3.990   8.026  0.9110 -0.9794  1.1842
  552MOL0     H76134   4.836   3.920   8.005  2.7731 -0.8062 -1.1968
  552MOL0     H76135   5.152   3.854   7.978 -1.6399  1.1111 -0.6132
  552MOL0     H76136   5.022   3.799   8.075  3.5749 -3.1839 -1.8699
  552MOL0     H76137   5.124   3.925   8.153 -2.2017  4.1786  0.4566
  552MOL0     H76138   5.498   3.977   7.774  1.6953 -0.4207 -1.3244
  552MOL0     H76139   5.731   3.979   7.803 -0.9646  0.1272 -0.9877
  552MOL0     H76140   5.851   4.263   8.074 -0.8539 -3.2914 -0.1272
  552MOL0     H76141   6.011   4.216   8.017 -0.9375 -0.3883  1.6049
  552MOL0     H76142   5.900   4.462   7.883  2.4641  3.5757 -0.3515
  552MOL0     H76143   5.971   4.475   8.038  0.2422  1.7029 -0.5589
  552MOL0     H76144   6.082   4.422   7.781 -0.2401 -2.0553 -0.3437
  552MOL0     H76145   6.163   4.301   7.889  3.4851  0.4820  2.2743
  552MOL0     H76146   6.251   4.487   8.039  5.3093  1.9937  0.1087
  552MOL0     H76147   6.168   4.607   7.935 -1.0539 -0.4579 -1.7073
  552MOL0     H76148   6.350   4.385   7.821 -0.9343 -1.5129  0.3535
  552MOL0     H76149   6.299   4.536   7.746  0.5004  4.3687  1.8815
  552MOL0     H76150   6.477   4.489   7.989  0.6211 -1.6291 -0.7879
  552MOL0     H76151   6.429   4.650   7.930 -0.0682  0.1485 -0.4104
  552MOL0     H76152   6.534   4.592   7.704  0.0328  0.0383 -0.7151
  552MOL0     H76153   6.586   4.439   7.781 -0.5432  0.9547 -0.2386
  552MOL0     H76154   6.751   4.633   7.761  0.0952  1.0117 -0.6940
  552MOL0     H76155   6.747   4.522   7.898  0.6187 -0.0809 -0.8886
  552MOL0     H76156   5.696   4.388   7.941  0.8146 -0.9456  0.8009
  552MOL0     H76157   5.463   4.393   7.897  1.5349  0.8636  0.0482
  552MOL0     H76158   5.103   4.310   7.877 -0.6860 -0.0452  0.2826
  552MOL0     H76159   4.835   4.325   7.873 -2.2299 -1.3997 -0.9217
  552MOL0     H76160   4.060   4.546   6.561  2.1937 -0.7920  0.0812
  552MOL0     H76161   3.882   4.662   6.409 -2.4692 -0.3578 -0.7400
  552MOL0     H76162   3.530   4.489   6.054 -0.8927  0.6148 -0.7605
  552MOL0     H76163   3.310   4.559   5.981 -1.1037  1.2453 -1.4506
  552MOL0     H76164   3.119   4.664   5.878 -2.0085 -0.3587  0.5471
  552MOL0     H76165   3.089   4.684   6.045  1.7079 -0.3914  0.8912
  552MOL0     H76166   2.982   4.889   6.004  1.2985 -0.8765  0.3606
  552MOL0     H76167   2.897   4.755   5.934  1.2943 -1.5854 -0.1243
  552MOL0     H76168   3.041   4.979   5.811  1.9008 -1.0449 -0.8991
  552MOL0     H76169   3.023   4.839   5.706  2.1675  3.2876 -0.9353
  552MOL0     H76170   2.783   4.980   5.846  0.8432  1.1608  0.5970
  552MOL0     H76171   2.775   4.861   5.716 -2.5595  0.8261  2.6283
  552MOL0     H76172   2.748   5.212   5.522  0.5825  0.8180  1.8567
  552MOL0     H76173   3.424   4.965   6.085 -3.1606  0.3501 -0.8749
  552MOL0     H76174   3.754   4.911   6.038 -0.6665  0.3022 -0.4495
  552MOL0     H76175   3.650   5.015   6.139  1.8727  0.6357  3.0555
  552MOL0     H76176   3.736   4.887   6.228 -1.1433  1.6436  1.6688
  553MOL0     O76177   5.485  10.149   1.794  0.2299 -0.9419 -0.5030
  553MOL0     C76178   5.436  10.076   1.708  0.1142  0.3575  0.3109
  553MOL0     O76179   5.376  10.114   1.591 -0.1732 -0.1213 -0.9716
  553MOL0     C76180   5.397  10.240   1.555 -0.1009 -0.4674  0.2852
  553MOL0     C76181   5.360  10.348   1.638 -0.0398 -0.7903 -0.8667
  553MOL0     C76182   5.390  10.478   1.590 -0.0400 -1.4518 -0.4437
  553MOL0     C76183   5.454  10.509   1.467 -0.5414  0.4997  0.1372
  553MOL0     O76184   5.458  10.636   1.422  0.2822  0.2703  0.0467
  553MOL0     C76185   5.523  10.696   1.308  0.2289 -1.5437  0.8365
  553MOL0     C76186   5.442  10.692   1.182  0.5828 -0.6483 -0.2630
  553MOL0     C76187   5.304  10.759   1.174  0.0386  0.1688 -1.0244
  553MOL0     C76188   5.317  10.912   1.176 -1.0478  0.5608 -0.2027
  553MOL0     C76189   5.186  10.977   1.139 -0.8434  0.3602 -0.0115
  553MOL0     C76190   5.199  11.129   1.105 -0.3077 -0.2423  0.8311
  553MOL0     C76191   5.276  11.202   1.217 -0.5401 -0.1258 -0.5825
  553MOL0     C76192   5.292  11.345   1.174 -0.0498  0.4753  0.9209
  553MOL0     N76193   5.165  11.416   1.153 -0.7625  0.3925 -0.1176
  553MOL0     C76194   5.074  11.447   1.260 -0.7946 -0.5339  0.1007
  553MOL0     C76195   4.977  11.526   1.203  0.1251  0.3411 -0.0862
  553MOL0     C76196   4.841  11.552   1.258 -0.2565 -0.7496  0.0846
  553MOL0     C76197   4.770  11.412   1.246  0.5732 -0.2066 -0.5073
  553MOL0     C76198   4.752  11.377   1.100  0.4637 -1.2262  0.0779
  553MOL0     C76199   4.667  11.253   1.073 -0.4074  0.6085  0.0829
  553MOL0     O76200   4.725  11.139   1.142  0.4425 -0.4815 -0.0152
  553MOL0     C76201   4.795  11.048   1.057  0.9423  0.7047 -1.0421
  553MOL0     C76202   4.861  11.081   0.939  0.1189  0.4235  0.6083
  553MOL0     C76203   4.917  10.985   0.849 -0.2035  0.0922 -0.1436
  553MOL0     C76204   4.981  11.035   0.724 -0.4707 -0.7934 -0.0160
  553MOL0     C76205   4.924  10.844   0.887 -0.3569  0.4558 -1.0144
  553MOL0     C76206   4.980  10.736   0.803  0.0744  0.1975 -0.3579
  553MOL0     O76207   5.071  10.763   0.703  0.3779 -0.7376 -0.6329
  553MOL0     C76208   5.104  10.667   0.620 -0.6988 -0.1267  0.0456
  553MOL0     C76209   5.081  10.685   0.479  0.6823  0.1898 -0.5217
  553MOL0     C76210   5.123  10.589   0.390 -0.8592  0.6612 -0.4733
  553MOL0     C76211   5.216  10.495   0.421  0.3203 -0.6139 -0.4583
  553MOL0     O76212   5.271  10.420   0.327 -0.4146 -0.3218  0.7780
  553MOL0     C76213   5.321  10.487   0.208 -0.1783  0.0039  0.2882
  553MOL0     C76214   5.242  10.451   0.082  0.1156  0.1582  0.6427
  553MOL0     C76215   5.257  10.294   0.040 -0.3466 -0.6374  0.4597
  553MOL0     C76216   5.165  10.260  -0.087 -0.3577  0.2346  0.3304
  553MOL0     C76217   5.181  10.119  -0.153  0.4880 -0.3851  0.4524
  553MOL0     C76218   5.091  10.096  -0.276 -0.6615  1.7232  0.5369
  553MOL0     C76219   5.102   9.958  -0.346  0.1668  0.0878 -0.0020
  553MOL0     C76220   5.016   9.947  -0.468  0.7583  0.4508 -0.0354
  553MOL0    Cl76221   4.847   9.956  -0.404 -0.2965 -0.5227 -0.1118
  553MOL0     C76222   5.248  10.476   0.559  0.8797  0.4350  0.4855
  553MOL0     C76223   5.187  10.554   0.655  1.2425 -1.2307  0.1694
  553MOL0     O76224   4.941  10.622   0.821  0.9442  0.0911  0.6768
  553MOL0     C76225   4.847  10.811   1.002  1.3897 -0.8363 -0.5811
  553MOL0     C76226   4.788  10.909   1.094 -0.4441  0.6955 -0.6054
  553MOL0     N76227   5.008  11.527   1.065 -0.0818 -0.0153  0.3763
  553MOL0     N76228   5.123  11.466   1.037  1.0804 -0.2148  0.3896
  553MOL0     C76229   5.509  10.398   1.401 -0.4097  0.4197  0.1720
  553MOL0     C76230   5.475  10.267   1.443 -0.4274 -0.1280 -0.1804
  553MOL0     C76231   5.435   9.930   1.728  0.9801  0.0984 -0.0069
  553MOL0     C76232   5.501   9.846   1.641 -0.1618 -0.4755 -0.1219
  553MOL0     C76233   5.501   9.706   1.659 -0.1197  0.5155 -0.3562
  553MOL0     C76234   5.445   9.649   1.781 -0.4518 -0.2769  0.5140
  553MOL0     O76235   5.437   9.516   1.811 -0.3675 -0.2430  0.0991
  553MOL0     C76236   5.519   9.431   1.723  0.2006  0.2561  0.3657
  553MOL0     C76237   5.501   9.282   1.751 -0.5082  0.3718 -0.5136
  553MOL0     C76238   5.537   9.234   1.891  0.7441  0.5938 -0.4622
  553MOL0     C76239   5.472   9.092   1.919 -0.3587 -0.1712  0.4140
  553MOL0     C76240   5.557   8.979   1.892 -0.3638  0.7428 -0.0092
  553MOL0     C76241   5.608   8.873   1.872 -1.1052 -0.7748 -0.8442
  553MOL0     C76242   5.377   9.742   1.862  0.2198  0.1755 -0.1595
  553MOL0     C76243   5.369   9.882   1.846 -0.1656  0.3394 -0.3330
  553MOL0     C76244   5.280   9.965   1.930 -0.4248  0.1133 -0.3250
  553MOL0     H76245   5.319  10.345   1.738 -0.5371  0.4204 -1.0122
  553MOL0     H76246   5.362  10.565   1.648  1.1328 -1.5513  0.2963
  553MOL0     H76247   5.615  10.640   1.284  0.7405 -0.4159  0.0434
  553MOL0     H76248   5.541  10.800   1.336 -2.3519 -0.4708 -1.0570
  553MOL0     H76249   5.513  10.742   1.115  1.7030 -0.3261  1.1297
  553MOL0     H76250   5.439  10.588   1.147 -0.6035 -0.3188 -1.1936
  553MOL0     H76251   5.251  10.715   1.088  0.5771  1.2929 -1.9543
  553MOL0     H76252   5.253  10.725   1.264 -1.2458  0.1862 -1.7165
  553MOL0     H76253   5.349  10.946   1.275 -1.5952  0.2156  0.1000
  553MOL0     H76254   5.392  10.938   1.101 -3.5327  0.2070 -2.9945
  553MOL0     H76255   5.114  10.954   1.219  2.2807  0.3929  3.0301
  553MOL0     H76256   5.139  10.926   1.054  0.5834 -2.0136  0.5434
  553MOL0     H76257   5.250  11.144   1.009  1.5562 -0.6236  1.7198
  553MOL0     H76258   5.100  11.159   1.070  1.0520 -1.5771 -5.3391
  553MOL0     H76259   5.379  11.166   1.224  0.5904  2.9327  0.2632
  553MOL0     H76260   5.212  11.199   1.305 -1.3582  2.4763 -0.9851
  553MOL0     H76261   5.355  11.397   1.246  2.0529 -0.0800 -0.4161
  553MOL0     H76262   5.356  11.349   1.085  1.5917  2.3426  2.0959
  553MOL0     H76263   5.078  11.414   1.364  2.7947  0.3782  0.3815
  553MOL0     H76264   4.793  11.634   1.204  4.6098  2.2209 -0.4078
  553MOL0     H76265   4.831  11.574   1.365 -3.3653 -2.3183  0.2130
  553MOL0     H76266   4.833  11.333   1.287 -0.5526  0.0524  1.8779
  553MOL0     H76267   4.672  11.411   1.295 -0.6967  1.7662 -2.7524
  553MOL0     H76268   4.706  11.462   1.049  0.2646 -0.7987  0.9639
  553MOL0     H76269   4.847  11.371   1.046  0.2407  1.2386 -0.7010
  553MOL0     H76270   4.576  11.279   1.129  0.5429  0.6138  1.6825
  553MOL0     H76271   4.649  11.240   0.966  3.4040  1.2970 -0.7694
  553MOL0     H76272   4.861  11.186   0.909  0.1206  0.4765  0.7872
  553MOL0     H76273   4.927  11.117   0.674  3.9470  1.9894 -0.7822
  553MOL0     H76274   4.986  10.953   0.651 -1.2832 -1.8143  1.0421
  553MOL0     H76275   5.077  11.082   0.748  0.2297 -1.1393 -1.9331
  553MOL0     H76276   5.017  10.768   0.449 -0.3276  0.7524  2.7053
  553MOL0     H76277   5.110  10.606   0.284  3.1868 -0.1677 -1.2643
  553MOL0     H76278   5.346  10.594   0.216 -2.3901  0.7410 -1.6004
  553MOL0     H76279   5.419  10.438   0.200  0.3229  0.9697  0.2198
  553MOL0     H76280   5.138  10.477   0.101 -0.7996 -3.1183  0.7378
  553MOL0     H76281   5.275  10.518   0.002 -1.2131 -0.7573 -0.7228
  553MOL0     H76282   5.221  10.234   0.124 -0.7661  0.1989  0.8854
  553MOL0     H76283   5.362  10.276   0.015 -0.9468 -0.7678 -2.3535
  553MOL0     H76284   5.183  10.335  -0.164  1.8264 -0.5657 -0.0024
  553MOL0     H76285   5.060  10.279  -0.062 -0.4735  0.5229 -0.3469
  553MOL0     H76286   5.284  10.101  -0.184 -0.2712 -1.0076 -1.8674
  553MOL0     H76287   5.149  10.050  -0.075  0.3633 -3.0558 -1.8277
  553MOL0     H76288   5.108  10.169  -0.356 -0.9766  0.4384 -0.7641
  553MOL0     H76289   4.986  10.111  -0.249 -0.7779  2.2895 -0.1807
  553MOL0     H76290   5.077   9.880  -0.274  0.1495  0.5945  0.5453
  553MOL0     H76291   5.202   9.934  -0.384  0.4549 -4.4246  2.8061
  553MOL0     H76292   5.024   9.849  -0.516  0.1688  1.0719 -1.4723
  553MOL0     H76293   5.044  10.023  -0.542 -1.3964  1.7168  0.3571
  553MOL0     H76294   5.318  10.398   0.586  0.5491  0.2195  0.7328
  553MOL0     H76295   5.212  10.540   0.759  1.5692 -0.9316  0.1335
  553MOL0     H76296   4.853  10.706   1.028  1.2211 -0.9744 -1.0923
  553MOL0     H76297   4.737  10.882   1.186 -0.0452 -0.4687 -0.7013
  553MOL0     H76298   5.578  10.413   1.319  0.6253 -2.5168  0.4095
  553MOL0     H76299   5.499  10.176   1.388 -1.7200  0.2571 -1.4630
  553MOL0     H76300   5.563   9.883   1.559  1.5027 -2.9632 -0.1128
  553MOL0     H76301   5.533   9.652   1.571 -0.9402  0.0975 -0.4096
  553MOL0     H76302   5.489   9.449   1.619 -1.6416 -0.9636  0.6377
  553MOL0     H76303   5.627   9.445   1.722  0.4530 -1.4807  0.9790
  553MOL0     H76304   5.570   9.232   1.682 -2.7785  0.0654 -2.7156
  553MOL0     H76305   5.408   9.242   1.709  1.1212 -3.0418 -1.2659
  553MOL0     H76306   5.647   9.232   1.895  0.7252  1.5457  1.7897
  553MOL0     H76307   5.506   9.310   1.963 -0.8342  1.0417 -1.5654
  553MOL0     H76308   5.384   9.082   1.855 -0.5332  1.1643  0.4230
  553MOL0     H76309   5.451   9.103   2.025  2.6175  2.5046  0.8618
  553MOL0     H76310   5.654   8.777   1.861  0.5803 -0.3921  1.8976
  553MOL0     H76311   5.317   9.700   1.942 -0.1217  0.3981 -0.2953
  553MOL0     H76312   5.327  10.058   1.964 -0.2096  0.1895 -0.8169
  553MOL0     H76313   5.187   9.994   1.880 -1.1332 -1.4602  0.0371
  553MOL0     H76314   5.252   9.898   2.012  0.8720 -2.0510 -1.5562
  554MOL0     O76315   0.781   8.782  10.873 -0.2811 -0.4819 -0.2071
  554MOL0     C76316   0.752   8.896  10.922  0.5675  0.4155  0.2995
  554MOL0     O76317   0.788   9.016  10.869 -0.0028 -0.6076 -0.0719
  554MOL0     C76318   0.888   9.009  10.773  0.0634  0.5041 -0.4315
  554MOL0     C76319   0.897   8.919  10.669 -0.6303 -0.4494 -0.1262
  554MOL0     C76320   0.999   8.920  10.579  0.0760  0.4213  0.6377
  554MOL0     C76321   1.117   9.001  10.598  0.5511  0.2349  0.2435
  554MOL0     O76322   1.237   9.003  10.522  0.0068  0.3929  0.6457
  554MOL0     C76323   1.217   9.097  10.422  0.5547  0.7740  0.8626
  554MOL0     C76324   1.315   9.208  10.443  0.2419  0.1242 -0.5467
  554MOL0     C76325   1.282   9.326  10.354  0.2670 -0.1032  0.1185
  554MOL0     C76326   1.155   9.406  10.420 -0.3919 -0.3508 -0.0988
  554MOL0     C76327   1.126   9.542  10.357  0.3754  0.1168 -0.7005
  554MOL0     C76328   1.025   9.623  10.440  1.0679 -0.0470  0.2044
  554MOL0     C76329   0.928   9.707  10.353  0.3550 -0.3147  0.2867
  554MOL0     C76330   0.825   9.761  10.457  0.3419 -0.0008  0.2303
  554MOL0     N76331   0.710   9.823  10.396 -0.1236  0.0919 -0.5341
  554MOL0     C76332   0.593   9.750  10.384  0.7582  1.1746 -0.4043
  554MOL0     C76333   0.492   9.841  10.366  0.0188  0.5841 -0.2791
  554MOL0     C76334   0.334   9.832  10.365  0.0052 -0.8103  0.2947
  554MOL0     C76335   0.284   9.822  10.501  0.5281  0.2964 -0.7494
  554MOL0     C76336   0.264   9.672  10.554  0.0955 -0.4015 -1.0100
  554MOL0     C76337   0.194   9.654  10.690 -0.4356 -0.8817 -0.7219
  554MOL0     O76338   0.065   9.717  10.677  0.3887 -0.1179 -0.8341
  554MOL0     C76339  -0.021   9.700  10.778  0.2388  0.5410  0.1878
  554MOL0     C76340   0.006   9.662  10.916 -0.3494  0.2235  1.4305
  554MOL0     C76341  -0.095   9.648  11.016  0.3792 -0.4286  0.4790
  554MOL0     C76342  -0.050   9.588  11.147 -0.0827  0.3208 -0.5012
  554MOL0     C76343  -0.230   9.664  10.983  0.5318  0.0400 -0.0630
  554MOL0     C76344  -0.340   9.672  11.085 -0.7412  0.3632 -0.1994
  554MOL0     O76345  -0.313   9.659  11.222  0.4462 -0.1760  0.0689
  554MOL0     C76346  -0.409   9.640  11.319  0.7840  0.1899 -0.2801
  554MOL0     C76347  -0.519   9.717  11.335 -0.1507 -0.4142 -0.1818
  554MOL0     C76348  -0.614   9.710  11.437  0.3692 -0.6402  0.3319
  554MOL0     C76349  -0.585   9.615  11.532  0.9181  0.0985  0.2460
  554MOL0     O76350  -0.676   9.599  11.634 -0.1745 -0.5477  0.8641
  554MOL0     C76351  -0.666   9.482  11.719  0.4172  0.8860 -0.0063
  554MOL0     C76352  -0.766   9.484  11.832  0.2187 -0.5205 -0.8058
  554MOL0     C76353  -0.907   9.496  11.764  0.1638 -0.1703  0.1961
  554MOL0     C76354  -1.010   9.516  11.874  0.6374 -0.6935  0.0057
  554MOL0     C76355  -1.146   9.496  11.815  0.2027 -0.1313  0.8399
  554MOL0     C76356  -1.255   9.519  11.914 -0.3941 -0.6675 -0.3471
  554MOL0     C76357  -1.402   9.504  11.865  0.5401 -0.8343  0.3915
  554MOL0     C76358  -1.511   9.544  11.969 -0.3445 -1.0841 -0.3158
  554MOL0    Cl76359  -1.528   9.396  12.078  0.1089 -0.0436 -0.3206
  554MOL0     C76360  -0.472   9.535  11.526 -0.1173  0.1303  0.0084
  554MOL0     C76361  -0.383   9.543  11.416  1.0703 -0.2620 -0.4946
  554MOL0     O76362  -0.446   9.708  11.040  0.0667 -0.0391  0.0364
  554MOL0     C76363  -0.263   9.691  10.850 -0.0156  0.1630  1.9010
  554MOL0     C76364  -0.159   9.701  10.745  0.3085 -0.2544  0.0655
  554MOL0     N76365   0.553   9.962  10.360 -0.1585 -0.8339  0.3678
  554MOL0     N76366   0.681   9.953  10.374 -0.5492 -0.2243  0.0453
  554MOL0     C76367   1.112   9.081  10.711  0.2733 -0.1990  0.0525
  554MOL0     C76368   1.006   9.086  10.800 -0.0219 -1.3068  0.3501
  554MOL0     C76369   0.659   8.900  11.041 -0.5203  0.5354  0.0018
  554MOL0     C76370   0.587   9.017  11.058 -0.7283  0.4971  0.8202
  554MOL0     C76371   0.491   9.029  11.163 -0.8043 -0.9757  0.3716
  554MOL0     C76372   0.481   8.925  11.249  0.3023 -0.5337 -0.1441
  554MOL0     O76373   0.377   8.945  11.344  0.6120  0.2948 -0.2240
  554MOL0     C76374   0.369   8.869  11.468 -0.2214 -0.3430  0.6349
  554MOL0     C76375   0.291   8.955  11.571  0.3306 -0.8382 -0.0849
  554MOL0     C76376   0.355   9.071  11.647  0.9091  0.1985  0.0194
  554MOL0     C76377   0.402   9.187  11.556 -0.2153  0.2702  0.3551
  554MOL0     C76378   0.450   9.292  11.651  1.0660  0.6151 -0.5285
  554MOL0     C76379   0.502   9.376  11.725  0.4455  0.3703 -0.4490
  554MOL0     C76380   0.549   8.805  11.230  0.4214 -0.5028  0.6954
  554MOL0     C76381   0.635   8.787  11.123 -0.1245 -0.2415 -0.4092
  554MOL0     C76382   0.697   8.651  11.109  0.1036 -0.3396 -0.1803
  554MOL0     H76383   0.814   8.857  10.635 -0.1568 -0.3075 -1.6518
  554MOL0     H76384   1.016   8.842  10.505  1.5397  1.3060 -0.0069
  554MOL0     H76385   1.116   9.138  10.416 -0.4239 -1.7525 -1.9766
  554MOL0     H76386   1.225   9.051  10.324  0.4436 -2.7301  2.3417
  554MOL0     H76387   1.334   9.234  10.547  2.1509  0.0298 -0.8322
  554MOL0     H76388   1.411   9.166  10.413 -0.6664 -1.8871 -0.8029
  554MOL0     H76389   1.370   9.389  10.363  1.9270 -2.4253  1.2752
  554MOL0     H76390   1.258   9.314  10.248  1.7284  0.1691 -0.2666
  554MOL0     H76391   1.060   9.353  10.415  0.8404 -2.8972  1.4020
  554MOL0     H76392   1.183   9.430  10.524 -0.5111 -4.2098  0.9690
  554MOL0     H76393   1.092   9.509  10.259 -3.8512  0.7236  0.3807
  554MOL0     H76394   1.216   9.603  10.347 -0.0607  0.8931 -0.0311
  554MOL0     H76395   0.966   9.544  10.489  0.7259 -2.2340 -3.3798
  554MOL0     H76396   1.068   9.673  10.528  0.1211  2.4548 -0.6718
  554MOL0     H76397   0.870   9.643  10.285 -1.5703 -1.1204  2.5378
  554MOL0     H76398   0.976   9.787  10.295 -3.0604  1.4433 -0.3896
  554MOL0     H76399   0.791   9.677  10.519 -1.8524  0.7600  0.1530
  554MOL0     H76400   0.891   9.823  10.519  1.6658  3.4135 -4.0931
  554MOL0     H76401   0.568   9.645  10.397 -1.8851  1.7712  0.0542
  554MOL0     H76402   0.305   9.740  10.312  0.6728  0.7497 -3.0794
  554MOL0     H76403   0.277   9.917  10.325  0.4623 -0.0066  1.3257
  554MOL0     H76404   0.365   9.874  10.554  0.3212 -2.2631  2.4258
  554MOL0     H76405   0.192   9.877  10.521  0.2569 -0.7040  1.0593
  554MOL0     H76406   0.192   9.625  10.485 -0.1667 -1.1461 -0.2455
  554MOL0     H76407   0.359   9.617  10.550  0.6978  0.6734 -2.0020
  554MOL0     H76408   0.175   9.548  10.709  2.0516 -0.9267  2.2453
  554MOL0     H76409   0.258   9.696  10.767  0.1001  1.6147 -2.4085
  554MOL0     H76410   0.105   9.630  10.946  0.7380  0.0970 -1.9374
  554MOL0     H76411  -0.096   9.493  11.173 -0.3256  0.3447 -0.8344
  554MOL0     H76412  -0.057   9.652  11.235  2.5373 -2.3581  1.8356
  554MOL0     H76413   0.052   9.548  11.150  0.0564  0.5035 -1.9909
  554MOL0     H76414  -0.532   9.803  11.270  5.3539  0.9458  0.0739
  554MOL0     H76415  -0.692   9.784  11.458  0.3813 -0.0188 -1.6286
  554MOL0     H76416  -0.678   9.390  11.663 -0.7749  0.1762  1.3504
  554MOL0     H76417  -0.562   9.486  11.754  0.5269  0.2914 -0.2620
  554MOL0     H76418  -0.764   9.396  11.896  0.8685 -0.1371 -0.2869
  554MOL0     H76419  -0.755   9.575  11.893 -1.4493 -0.1696 -0.9760
  554MOL0     H76420  -0.933   9.413  11.697  1.8364 -0.6727  0.1381
  554MOL0     H76421  -0.917   9.586  11.703 -2.6408  0.6435  1.6650
  554MOL0     H76422  -1.007   9.620  11.908 -2.0694 -1.3555  2.6701
  554MOL0     H76423  -0.993   9.445  11.956  1.7045  1.5918  1.9147
  554MOL0     H76424  -1.153   9.567  11.732  0.4175 -0.8591  0.1973
  554MOL0     H76425  -1.162   9.394  11.780  0.1861 -0.5800  2.1031
  554MOL0     H76426  -1.241   9.621  11.950 -0.0857 -0.7196 -0.3135
  554MOL0     H76427  -1.235   9.456  12.002  0.1759  1.6170  1.2561
  554MOL0     H76428  -1.426   9.405  11.826  0.4217 -1.5956  2.2574
  554MOL0     H76429  -1.406   9.573  11.780  0.1122 -1.1380  0.1640
  554MOL0     H76430  -1.604   9.563  11.913  0.1419  2.9026 -0.0833
  554MOL0     H76431  -1.489   9.635  12.026 -1.6352 -1.3504  0.6582
  554MOL0     H76432  -0.445   9.456  11.596 -0.8963 -0.9940 -0.9251
  554MOL0     H76433  -0.292   9.484  11.417  1.8142  0.8484 -0.5802
  554MOL0     H76434  -0.364   9.706  10.814  0.8631 -0.1586 -1.0020
  554MOL0     H76435  -0.177   9.714  10.639  0.7004  0.2569  0.0592
  554MOL0     H76436   1.205   9.133  10.727  0.9479 -1.8804  2.0899
  554MOL0     H76437   1.025   9.150  10.885 -2.6062  3.8341 -2.4972
  554MOL0     H76438   0.599   9.105  10.995  1.1513  0.8564  1.6119
  554MOL0     H76439   0.410   9.101  11.168 -0.9577 -0.9022 -1.9743
  554MOL0     H76440   0.317   8.775  11.453  1.3398 -1.1038 -0.2244
  554MOL0     H76441   0.469   8.851  11.509 -0.3564  0.2278  1.2474
  554MOL0     H76442   0.256   8.882  11.644 -0.2274  0.9704  1.5365
  554MOL0     H76443   0.196   8.989  11.528 -0.7250 -1.2382  1.8137
  554MOL0     H76444   0.278   9.107  11.716  2.3958  1.1414  1.2631
  554MOL0     H76445   0.439   9.032  11.705  1.4324  0.2871 -0.6666
  554MOL0     H76446   0.303   9.209  11.516 -0.4563  1.6138  1.6511
  554MOL0     H76447   0.479   9.151  11.486  1.4898  1.5822  1.4744
  554MOL0     H76448   0.547   9.449  11.789 -2.2540  0.4304  1.5811
  554MOL0     H76449   0.523   8.718  11.290 -2.7645  0.1706  0.4412
  554MOL0     H76450   0.654   8.575  11.175 -1.1851 -1.6922 -2.4589
  554MOL0     H76451   0.704   8.604  11.010  0.3870 -2.0378  0.6057
  554MOL0     H76452   0.804   8.660  11.131  0.0865 -1.7380  0.6274
  555MOL0     O76453   7.045   6.178   4.462 -0.4405  0.2019 -0.3286
  555MOL0     C76454   6.988   6.084   4.516  0.8110 -0.1023  0.4958
  555MOL0     O76455   7.032   6.023   4.628 -0.4632  0.6487 -0.0397
  555MOL0     C76456   7.135   6.081   4.702 -0.8451  0.3741  0.0809
  555MOL0     C76457   7.126   6.208   4.756 -1.6202 -0.3751  0.0381
  555MOL0     C76458   7.239   6.270   4.818  0.2130 -0.0905  0.0189
  555MOL0     C76459   7.355   6.190   4.845 -0.4790  0.0644  0.0163
  555MOL0     O76460   7.475   6.244   4.882  0.8720  0.8283  0.2891
  555MOL0     C76461   7.478   6.377   4.922 -0.1929  0.2346 -0.5151
  555MOL0     C76462   7.598   6.400   5.021 -0.1080 -0.4647 -0.1241
  555MOL0     C76463   7.564   6.511   5.119 -0.2192 -0.2154 -0.3570
  555MOL0     C76464   7.679   6.551   5.203 -0.4693 -0.3028 -0.5594
  555MOL0     C76465   7.727   6.438   5.294  0.1958  0.2522  1.0718
  555MOL0     C76466   7.870   6.458   5.356  0.5976 -0.3838 -0.3719
  555MOL0     C76467   7.885   6.407   5.502 -0.0750 -0.8587  0.2225
  555MOL0     C76468   7.825   6.502   5.600  0.8533 -0.4522 -0.0096
  555MOL0     N76469   7.795   6.441   5.736  0.4146  0.3054 -0.1351
  555MOL0     C76470   7.867   6.468   5.855 -0.7368 -0.2005  0.2482
  555MOL0     C76471   7.823   6.364   5.931 -0.1338 -0.0241 -0.7712
  555MOL0     C76472   7.899   6.321   6.061  0.2200 -0.2550  0.2868
  555MOL0     C76473   7.962   6.192   6.039 -0.0818  0.8485  0.0105
  555MOL0     C76474   8.042   6.144   6.154 -0.0788 -0.7658 -0.0825
  555MOL0     C76475   8.137   6.023   6.138  0.0124 -0.2091  0.6214
  555MOL0     O76476   8.264   6.065   6.080 -0.0480  0.0855 -0.2014
  555MOL0     C76477   8.367   6.109   6.162  0.4474  0.6559  0.2724
  555MOL0     C76478   8.358   6.123   6.300  0.1172 -0.4577  0.9145
  555MOL0     C76479   8.466   6.153   6.386  1.2219 -0.3513 -1.0823
  555MOL0     C76480   8.429   6.140   6.536 -0.1663  0.1773 -0.3306
  555MOL0     C76481   8.591   6.174   6.322 -0.5055 -0.2034 -0.7722
  555MOL0     C76482   8.715   6.176   6.404  0.3184 -0.8927  0.5435
  555MOL0     O76483   8.815   6.104   6.352 -0.0477 -0.8771  0.2999
  555MOL0     C76484   8.935   6.109   6.406 -0.4707 -0.5040 -0.0504
  555MOL0     C76485   8.961   6.090   6.547 -0.1872  0.0729 -0.1823
  555MOL0     C76486   9.087   6.055   6.591  0.2198  0.3206 -0.0849
  555MOL0     C76487   9.190   6.037   6.489 -0.2001  0.1532 -0.6471
  555MOL0     O76488   9.323   6.023   6.510  0.3766  0.5077 -0.1163
  555MOL0     C76489   9.375   6.066   6.638 -0.1617  0.4669 -0.0305
  555MOL0     C76490   9.530   6.091   6.620 -0.9823  0.8755 -0.6713
  555MOL0     C76491   9.616   6.084   6.752 -0.3097  0.4548  0.0662
  555MOL0     C76492   9.612   5.951   6.820 -0.0608  0.6809 -0.3955
  555MOL0     C76493   9.732   5.923   6.920 -0.7959  0.6460  0.3037
  555MOL0     C76494   9.730   6.016   7.047  0.4573  0.3013 -0.1981
  555MOL0     C76495   9.861   6.031   7.111 -0.6529 -0.5814 -1.2102
  555MOL0     C76496   9.925   5.899   7.162 -0.3157  0.7275 -0.3894
  555MOL0    Cl76497  10.096   5.902   7.180  0.0427  0.2240 -0.2909
  555MOL0     C76498   9.170   6.079   6.355  0.3170  0.2083 -0.3231
  555MOL0     C76499   9.039   6.106   6.317  0.2350  0.3150  0.0193
  555MOL0     O76500   8.718   6.231   6.516  0.0124 -0.3814  0.0957
  555MOL0     C76501   8.599   6.160   6.182 -0.4881  0.3739 -0.1532
  555MOL0     C76502   8.494   6.134   6.098  0.0426  0.0528 -0.5808
  555MOL0     N76503   7.733   6.283   5.865 -0.0366  0.0209  0.0000
  555MOL0     N76504   7.723   6.326   5.745  0.0650  0.3203  0.0110
  555MOL0     C76505   7.355   6.054   4.816  0.5521 -0.4067 -0.5446
  555MOL0     C76506   7.256   6.004   4.732  1.0534  0.9478  0.8125
  555MOL0     C76507   6.865   6.039   4.443 -0.1505 -1.1752 -0.6056
  555MOL0     C76508   6.831   5.906   4.447 -0.5993  0.2808  0.0312
  555MOL0     C76509   6.741   5.839   4.357 -0.3765 -0.7216 -0.0900
  555MOL0     C76510   6.674   5.921   4.262  0.2212  0.1686 -0.7539
  555MOL0     O76511   6.598   5.866   4.170  0.6347 -0.1800  0.6569
  555MOL0     C76512   6.587   5.718   4.167  0.4421 -0.3386 -0.2881
  555MOL0     C76513   6.524   5.667   4.041 -0.0735  0.9782  0.5639
  555MOL0     C76514   6.514   5.510   4.052 -1.2901 -0.0029 -0.2541
  555MOL0     C76515   6.646   5.450   4.005  0.0470  0.1327 -0.2886
  555MOL0     C76516   6.642   5.305   3.997  1.0173  0.1524  0.5400
  555MOL0     C76517   6.628   5.182   3.989 -0.4766 -0.7219  0.4826
  555MOL0     C76518   6.702   6.062   4.262 -0.5208 -0.2329 -0.2819
  555MOL0     C76519   6.789   6.122   4.348 -0.6882 -0.8748 -0.3563
  555MOL0     C76520   6.816   6.274   4.328 -0.1758  0.2611 -0.2682
  555MOL0     H76521   7.031   6.257   4.735 -1.3324 -0.2053 -0.9195
  555MOL0     H76522   7.238   6.378   4.829  1.5210 -0.2051  1.7684
  555MOL0     H76523   7.384   6.416   4.962  0.7065 -0.1166  2.1463
  555MOL0     H76524   7.501   6.443   4.837 -1.8591  3.7886  1.5344
  555MOL0     H76525   7.602   6.309   5.082  0.1123 -1.5717 -1.7344
  555MOL0     H76526   7.696   6.416   4.976  0.3591 -1.4719  0.4869
  555MOL0     H76527   7.526   6.598   5.064 -1.4263  1.0632  2.3239
  555MOL0     H76528   7.474   6.486   5.175 -0.2279 -0.7520 -0.6046
  555MOL0     H76529   7.758   6.577   5.131 -0.8881 -0.7085 -1.1765
  555MOL0     H76530   7.656   6.638   5.265 -0.7069 -0.4314 -0.4679
  555MOL0     H76531   7.734   6.341   5.245  0.0036  0.1078  1.3302
  555MOL0     H76532   7.654   6.436   5.375  0.4068  0.9818  1.2948
  555MOL0     H76533   7.942   6.407   5.290  0.3229 -1.6495  0.2721
  555MOL0     H76534   7.897   6.564   5.352 -1.7035  0.3298  1.0228
  555MOL0     H76535   7.993   6.400   5.517 -0.0326  1.3862  1.4129
  555MOL0     H76536   7.843   6.306   5.511 -1.8515 -0.3282 -1.4827
  555MOL0     H76537   7.901   6.580   5.608 -1.6225  2.1892 -0.5713
  555MOL0     H76538   7.739   6.550   5.551  0.0082 -2.1142 -0.2433
  555MOL0     H76539   7.944   6.541   5.876  0.1666 -0.7463 -1.0451
  555MOL0     H76540   7.834   6.318   6.149  2.0246  0.3834  1.7184
  555MOL0     H76541   7.978   6.386   6.098 -0.3412 -0.8316  2.6730
  555MOL0     H76542   7.887   6.116   6.013  0.4198  0.1199  0.6520
  555MOL0     H76543   8.022   6.199   5.948  1.4222 -2.2196  0.6166
  555MOL0     H76544   8.113   6.222   6.185  0.5048 -0.7608 -1.3528
  555MOL0     H76545   7.966   6.116   6.228  1.2821 -3.2971  0.4781
  555MOL0     H76546   8.146   5.983   6.239  1.8527  1.5506  1.2311
  555MOL0     H76547   8.089   5.942   6.083 -1.9049 -0.0208  1.9198
  555MOL0     H76548   8.258   6.116   6.342 -2.0870 -1.0574 -3.8300
  555MOL0     H76549   8.442   6.231   6.596 -0.6284  0.4851 -0.6936
  555MOL0     H76550   8.495   6.067   6.583 -0.4476  1.2488  1.8799
  555MOL0     H76551   8.327   6.103   6.545 -0.2249 -0.2557 -2.2578
  555MOL0     H76552   8.871   6.075   6.606 -1.3852 -1.1635 -2.1998
  555MOL0     H76553   9.101   6.034   6.696  0.0052 -0.1535 -0.1451
  555MOL0     H76554   9.329   6.156   6.679 -0.4580  1.3223 -2.0842
  555MOL0     H76555   9.360   5.978   6.701 -1.4148 -0.8108 -1.9942
  555MOL0     H76556   9.575   6.011   6.561  1.1934 -1.4359  3.5724
  555MOL0     H76557   9.537   6.189   6.572  3.6356  1.8773  1.4634
  555MOL0     H76558   9.581   6.160   6.822  1.4254  1.4851 -0.1108
  555MOL0     H76559   9.717   6.109   6.718 -0.0877 -1.4163 -0.7862
  555MOL0     H76560   9.606   5.877   6.739 -1.1167  0.3656 -0.0500
  555MOL0     H76561   9.519   5.933   6.875  0.1978  1.4898  0.3216
  555MOL0     H76562   9.718   5.820   6.952 -0.8049  1.2070  2.2280
  555MOL0     H76563   9.827   5.932   6.866 -0.2607  0.1062  1.1372
  555MOL0     H76564   9.650   5.985   7.115 -0.3419 -3.1129 -2.4844
  555MOL0     H76565   9.692   6.116   7.025  0.4561  0.4255  0.3488
  555MOL0     H76566   9.855   6.110   7.186 -2.0751  1.2136 -3.1019
  555MOL0     H76567   9.939   6.069   7.045  1.1391  2.4657  2.3337
  555MOL0     H76568   9.907   5.824   7.085  0.3729  1.0359 -0.8626
  555MOL0     H76569   9.879   5.868   7.256  2.1640 -1.6525  0.1797
  555MOL0     H76570   9.257   6.081   6.290 -1.7577 -1.2370 -3.3736
  555MOL0     H76571   9.010   6.125   6.215 -0.7997  2.1341  0.5988
  555MOL0     H76572   8.696   6.165   6.134 -1.0204 -1.4785 -1.5947
  555MOL0     H76573   8.506   6.144   5.990 -0.2222 -1.9369 -0.8344
  555MOL0     H76574   7.450   6.002   4.813 -0.4151 -2.1990 -2.2959
  555MOL0     H76575   7.260   5.901   4.697  6.0440  0.9118  0.8072
  555MOL0     H76576   6.879   5.848   4.526  2.5716  2.7934  0.1267
  555MOL0     H76577   6.733   5.732   4.371 -1.5279 -0.4909  1.1928
  555MOL0     H76578   6.680   5.663   4.183 -0.3764 -3.1596 -3.9507
  555MOL0     H76579   6.515   5.708   4.249  3.2009 -2.3966  2.1093
  555MOL0     H76580   6.594   5.687   3.960  0.7280 -3.2221 -0.0077
  555MOL0     H76581   6.423   5.707   4.026  0.5705  1.6923 -2.4664
  555MOL0     H76582   6.496   5.476   4.154 -0.6067  1.4318  0.3756
  555MOL0     H76583   6.431   5.468   3.995 -0.2748 -0.7566 -1.2218
  555MOL0     H76584   6.720   5.470   4.083  1.1437 -0.0489 -1.2421
  555MOL0     H76585   6.673   5.485   3.905 -0.2856  1.0427 -0.0698
  555MOL0     H76586   6.620   5.075   3.985  2.6112 -1.0040 -0.5458
  555MOL0     H76587   6.654   6.122   4.185  0.1632 -0.9581 -1.3019
  555MOL0     H76588   6.729   6.338   4.313 -0.1287  0.6745  1.1475
  555MOL0     H76589   6.867   6.317   4.414 -0.2047 -1.7273  0.8084
  555MOL0     H76590   6.890   6.274   4.248  0.4017  0.5362  0.2590
  556MOL0     O76591   8.835   9.070   6.629 -0.6611  0.4745 -0.2268
  556MOL0     C76592   8.888   8.956   6.628  0.6997  0.1905  1.2733
  556MOL0     O76593   9.004   8.911   6.695 -0.0421 -0.2080  0.6900
  556MOL0     C76594   9.016   8.983   6.805 -0.9445 -0.3811 -0.0441
  556MOL0     C76595   9.120   9.079   6.821 -0.5212 -0.8827 -1.0342
  556MOL0     C76596   9.152   9.138   6.944 -0.0148  0.6165 -0.3199
  556MOL0     C76597   9.054   9.108   7.056  0.2035 -0.2462  0.4628
  556MOL0     O76598   9.065   9.157   7.187 -0.0706  0.7832  0.0513
  556MOL0     C76599   9.157   9.269   7.204 -0.0166 -1.2401  0.9858
  556MOL0     C76600   9.138   9.324   7.350  0.7151  0.1050  0.8500
  556MOL0     C76601   8.996   9.383   7.363 -0.6110 -0.2759  0.3349
  556MOL0     C76602   9.009   9.538   7.374  0.0007 -0.5538  0.5067
  556MOL0     C76603   9.017   9.584   7.523  0.0587 -0.0885  0.7700
  556MOL0     C76604   9.034   9.734   7.547 -0.5632 -0.7130  0.2291
  556MOL0     C76605   9.169   9.796   7.499 -0.4645 -0.2241 -0.4583
  556MOL0     C76606   9.294   9.757   7.576  0.8997 -0.4156  0.7417
  556MOL0     N76607   9.280   9.779   7.723 -0.1164  0.0772  0.4181
  556MOL0     C76608   9.320   9.687   7.817  0.4493 -0.7302 -0.6090
  556MOL0     C76609   9.283   9.748   7.935 -0.3731  0.2622  0.3007
  556MOL0     C76610   9.306   9.691   8.075  0.3132  0.0373  0.1329
  556MOL0     C76611   9.460   9.697   8.104  0.3103 -0.9708  1.4356
  556MOL0     C76612   9.531   9.837   8.069 -0.3746  0.7392 -0.3176
  556MOL0     C76613   9.672   9.854   8.134  1.7031 -0.8939  0.4687
  556MOL0     O76614   9.698   9.995   8.108  0.0848 -0.0616  0.2583
  556MOL0     C76615   9.809  10.060   8.144 -0.6102 -0.7964 -0.0812
  556MOL0     C76616   9.905  10.003   8.225 -0.1616 -0.1726 -0.5235
  556MOL0     C76617  10.019  10.076   8.260 -1.0301 -0.0702  0.6835
  556MOL0     C76618  10.124  10.002   8.331  1.0135 -0.7151  0.0814
  556MOL0     C76619  10.037  10.205   8.227  1.1362  0.6839  0.4116
  556MOL0     C76620  10.161  10.292   8.266  0.6580 -0.1737 -1.0371
  556MOL0     O76621  10.186  10.413   8.203 -0.5705  0.1869  0.0438
  556MOL0     C76622  10.294  10.490   8.240  0.1831 -0.1774 -0.3328
  556MOL0     C76623  10.282  10.630   8.272  0.0184 -0.8182  0.4799
  556MOL0     C76624  10.392  10.693   8.329 -0.1289  0.2180  0.1860
  556MOL0     C76625  10.514  10.623   8.349 -0.4768  1.0850  0.0854
  556MOL0     O76626  10.622  10.667   8.424  0.8543 -0.0021  0.1756
  556MOL0     C76627  10.599  10.764   8.526  0.6773  0.1146  0.5660
  556MOL0     C76628  10.744  10.816   8.572 -0.8765 -0.9406 -0.7147
  556MOL0     C76629  10.835  10.703   8.622  0.9498 -0.0159 -0.8018
  556MOL0     C76630  10.798  10.656   8.763  0.0353  0.0745  0.4821
  556MOL0     C76631  10.893  10.552   8.828 -0.4595  0.1051  0.3714
  556MOL0     C76632  11.045  10.583   8.843 -0.2968  0.6377 -0.2377
  556MOL0     C76633  11.139  10.454   8.856 -0.1738  0.2040  0.5410
  556MOL0     C76634  11.133  10.341   8.755 -0.0010  0.3147 -0.3177
  556MOL0    Cl76635  11.257  10.211   8.769 -0.0258 -0.3446 -0.5420
  556MOL0     C76636  10.528  10.491   8.300  0.4410  0.5399 -0.6252
  556MOL0     C76637  10.421  10.423   8.246  0.6394 -0.2694  0.3428
  556MOL0     O76638  10.234  10.247   8.352  0.2999 -0.0665  0.1629
  556MOL0     C76639   9.934  10.262   8.155  0.1554  0.0778  0.6670
  556MOL0     C76640   9.823  10.192   8.110  0.2166  0.2055 -0.0513
  556MOL0     N76641   9.215   9.871   7.901  0.1228  0.3244 -0.4291
  556MOL0     N76642   9.228   9.896   7.778  0.4450  0.5733  0.7463
  556MOL0     C76643   8.956   9.014   7.044  0.4005 -0.5980 -0.4134
  556MOL0     C76644   8.937   8.947   6.921 -0.3084  0.2826 -0.9803
  556MOL0     C76645   8.819   8.868   6.530  0.4580  0.3458  0.3271
  556MOL0     C76646   8.915   8.785   6.460  0.5950 -0.3216 -0.2918
  556MOL0     C76647   8.863   8.708   6.346  0.2898 -0.4221 -0.8209
  556MOL0     C76648   8.729   8.715   6.314 -0.1327  0.0131 -0.5549
  556MOL0     O76649   8.679   8.665   6.193 -0.3317 -0.1619 -0.2281
  556MOL0     C76650   8.757   8.576   6.115 -0.9167 -0.1395 -0.2546
  556MOL0     C76651   8.670   8.516   6.003 -0.3435  0.3690  0.2843
  556MOL0     C76652   8.536   8.455   6.045 -0.3379 -1.4608 -1.1877
  556MOL0     C76653   8.439   8.419   5.931 -0.7958  1.3428 -0.6446
  556MOL0     C76654   8.390   8.540   5.861  0.1443  0.5031  1.0410
  556MOL0     C76655   8.350   8.641   5.795 -0.5300  0.0621 -0.1530
  556MOL0     C76656   8.636   8.783   6.394  0.7500  0.4163  0.1658
  556MOL0     C76657   8.684   8.863   6.497  0.7509 -0.6213 -0.1229
  556MOL0     C76658   8.575   8.917   6.585  0.2402 -0.1771  0.3057
  556MOL0     H76659   9.185   9.113   6.741  1.1386 -1.4968  0.0094
  556MOL0     H76660   9.232   9.211   6.951  0.5792  0.2758 -2.6776
  556MOL0     H76661   9.140   9.348   7.130  0.1414 -2.5497 -0.4870
  556MOL0     H76662   9.263   9.245   7.194  0.5254  0.7788  1.2938
  556MOL0     H76663   9.138   9.241   7.421  0.7174 -1.6948 -1.1491
  556MOL0     H76664   9.222   9.392   7.368  1.5848 -0.9152  0.6777
  556MOL0     H76665   8.938   9.363   7.272 -0.0754  4.4139 -1.3110
  556MOL0     H76666   8.936   9.350   7.448  0.6390  1.4973  1.9905
  556MOL0     H76667   9.102   9.556   7.320 -0.3630  1.7673  0.5727
  556MOL0     H76668   8.930   9.587   7.317  0.9626 -0.4794 -0.8214
  556MOL0     H76669   9.103   9.538   7.573  0.0410  0.6369  1.4779
  556MOL0     H76670   8.943   9.520   7.572  2.1585 -3.2413  0.1586
  556MOL0     H76671   8.960   9.788   7.488  1.2258 -0.3211 -1.7565
  556MOL0     H76672   9.019   9.763   7.652  0.2776  2.6403 -0.4495
  556MOL0     H76673   9.154   9.904   7.500 -1.3980 -0.3341 -1.0089
  556MOL0     H76674   9.176   9.768   7.393 -1.2240 -0.5555 -0.4202
  556MOL0     H76675   9.297   9.651   7.548 -2.4355 -0.1353 -1.1601
  556MOL0     H76676   9.384   9.796   7.529  0.8163 -0.4368  0.5617
  556MOL0     H76677   9.377   9.594   7.815  1.1588 -0.3279  0.1640
  556MOL0     H76678   9.273   9.587   8.073 -0.2019  0.2028 -0.2577
  556MOL0     H76679   9.248   9.739   8.154 -0.5761 -4.0358  2.2293
  556MOL0     H76680   9.478   9.676   8.210 -0.2684 -3.6277  1.0746
  556MOL0     H76681   9.515   9.623   8.045 -0.2502  0.3709 -0.8997
  556MOL0     H76682   9.538   9.845   7.960 -0.9751  1.7341 -0.2970
  556MOL0     H76683   9.468   9.914   8.115 -1.8698 -1.3007  1.3017
  556MOL0     H76684   9.644   9.844   8.240 -3.6487  1.3385 -0.4138
  556MOL0     H76685   9.752   9.788   8.101  1.5665 -0.0623 -1.6494
  556MOL0     H76686   9.883   9.909   8.276  1.5380 -0.9939 -1.2321
  556MOL0     H76687  10.228  10.003   8.297  1.8480 -2.6084  2.2510
  556MOL0     H76688  10.093   9.898   8.317 -5.0892  0.6688  0.5717
  556MOL0     H76689  10.114  10.033   8.436 -1.9811 -1.0785 -0.0149
  556MOL0     H76690  10.192  10.683   8.245  0.1789 -1.4404 -1.3651
  556MOL0     H76691  10.388  10.800   8.346 -1.2765  0.5964 -2.0658
  556MOL0     H76692  10.543  10.851   8.491  1.5865  0.8224  0.8310
  556MOL0     H76693  10.543  10.722   8.610 -1.7464  1.7692 -0.1037
  556MOL0     H76694  10.801  10.874   8.499  1.6674  0.3061  2.0728
  556MOL0     H76695  10.741  10.894   8.648  2.1244  0.0683 -1.5080
  556MOL0     H76696  10.921  10.769   8.640 -0.6575  1.8556  0.4543
  556MOL0     H76697  10.842  10.620   8.551 -1.5355 -0.4332 -0.6294
  556MOL0     H76698  10.695  10.620   8.767  0.4916 -1.1674  1.8396
  556MOL0     H76699  10.799  10.740   8.834 -0.5618 -1.8209  2.8909
  556MOL0     H76700  10.865  10.522   8.930  1.0707 -1.1346  0.4581
  556MOL0     H76701  10.890  10.466   8.760  2.0841 -0.3832  0.7776
  556MOL0     H76702  11.055  10.642   8.934  1.1119  3.9057 -2.3144
  556MOL0     H76703  11.076  10.650   8.763  1.1955  2.6116  1.8670
  556MOL0     H76704  11.121  10.406   8.953 -0.1721 -0.6658  0.1244
  556MOL0     H76705  11.239  10.498   8.852  0.2541 -0.6612  1.3434
  556MOL0     H76706  11.135  10.374   8.651 -3.1344  2.1086  0.0655
  556MOL0     H76707  11.035  10.292   8.761 -0.0317  0.4283  0.2094
  556MOL0     H76708  10.624  10.442   8.315 -0.5508 -1.4447 -0.3984
  556MOL0     H76709  10.429  10.317   8.224 -0.4773  0.0067 -1.6308
  556MOL0     H76710   9.948  10.366   8.126 -0.7310 -0.3127 -1.3432
  556MOL0     H76711   9.743  10.240   8.054 -2.3151  0.1679  3.2575
  556MOL0     H76712   8.891   8.994   7.129 -0.8561  0.6451 -1.0335
  556MOL0     H76713   8.867   8.865   6.913  1.5710 -1.5393  0.2030
  556MOL0     H76714   9.021   8.803   6.478 -0.0390  3.2707  0.7306
  556MOL0     H76715   8.936   8.658   6.283  0.5222 -2.2979  0.8477
  556MOL0     H76716   8.844   8.630   6.077  0.1745 -1.2234  0.6094
  556MOL0     H76717   8.797   8.495   6.177 -1.9349 -0.0282  0.5899
  556MOL0     H76718   8.714   8.424   5.965 -3.4686 -2.1577  2.2930
  556MOL0     H76719   8.655   8.596   5.929  0.3163 -0.2404 -0.5232
  556MOL0     H76720   8.555   8.373   6.114 -0.8074  0.7192  1.7573
  556MOL0     H76721   8.494   8.534   6.109 -0.3652 -2.3495 -0.0746
  556MOL0     H76722   8.352   8.362   5.966  0.6466 -0.8855 -0.5340
  556MOL0     H76723   8.480   8.355   5.853 -4.1192 -0.1628 -1.3570
  556MOL0     H76724   8.351   8.735   5.743 -3.9063 -0.2746 -1.0603
  556MOL0     H76725   8.531   8.778   6.367 -0.1217  0.6970  3.1851
  556MOL0     H76726   8.607   8.919   6.690 -0.4181  1.7650  0.5144
  556MOL0     H76727   8.555   9.020   6.554  0.0286 -0.3932 -0.2758
  556MOL0     H76728   8.480   8.864   6.584  0.2310 -0.2576  2.0184
  557MOL0     O76729   1.025   5.533   8.909  0.2466 -0.4151 -0.1274
  557MOL0     C76730   1.064   5.628   8.977  0.2475  0.2082  0.1619
  557MOL0     O76731   1.187   5.667   8.996 -0.1159 -0.8336 -0.5388
  557MOL0     C76732   1.282   5.599   8.929  0.3193  0.2072  0.1590
  557MOL0     C76733   1.336   5.479   8.965 -0.2272  0.3274 -0.7577
  557MOL0     C76734   1.436   5.418   8.885  0.9531 -1.1645  0.5915
  557MOL0     C76735   1.490   5.487   8.775 -0.1811  0.1313  0.3335
  557MOL0     O76736   1.591   5.436   8.706  0.2404 -0.5348 -0.2004
  557MOL0     C76737   1.704   5.405   8.797  0.8061  0.3459  0.3381
  557MOL0     C76738   1.823   5.413   8.708 -1.3511 -0.4678  0.2274
  557MOL0     C76739   1.949   5.331   8.763  0.2202 -0.2071  0.3221
  557MOL0     C76740   2.075   5.363   8.689  0.0254 -0.0624  0.8144
  557MOL0     C76741   2.205   5.304   8.749  0.2331 -0.0525  0.4396
  557MOL0     C76742   2.335   5.344   8.677 -0.2072 -0.3497  0.0924
  557MOL0     C76743   2.372   5.253   8.564 -0.2393  0.1111 -0.6085
  557MOL0     C76744   2.510   5.295   8.521 -0.0223  0.3444 -0.1963
  557MOL0     N76745   2.565   5.215   8.409  0.3849 -1.1788  0.4620
  557MOL0     C76746   2.508   5.193   8.288  0.4612  0.1578  0.0493
  557MOL0     C76747   2.588   5.100   8.231  0.7274 -0.3244  0.1311
  557MOL0     C76748   2.570   5.041   8.096 -0.0475  0.4523  0.3622
  557MOL0     C76749   2.554   5.148   7.987 -0.4733  0.0409 -0.2849
  557MOL0     C76750   2.578   5.076   7.855  0.6432  0.9394 -0.6580
  557MOL0     C76751   2.600   5.186   7.750  0.6844 -0.0454 -0.6898
  557MOL0     O76752   2.476   5.256   7.718 -0.3594  0.3725  0.3165
  557MOL0     C76753   2.416   5.270   7.595  0.6431  0.6560 -0.0219
  557MOL0     C76754   2.450   5.213   7.475  0.1203 -0.8428 -0.1326
  557MOL0     C76755   2.375   5.238   7.360  1.3001 -0.5687 -0.1660
  557MOL0     C76756   2.421   5.189   7.223  0.2682  0.4122  0.0099
  557MOL0     C76757   2.242   5.302   7.377 -0.1484  0.5950  0.4518
  557MOL0     C76758   2.142   5.311   7.265 -0.3319 -0.5731 -0.2668
  557MOL0     O76759   2.010   5.351   7.304  0.1206 -0.3424 -0.6351
  557MOL0     C76760   1.933   5.359   7.193  0.5284 -0.1305 -0.6413
  557MOL0     C76761   1.852   5.247   7.150 -0.4900  0.8010  0.1910
  557MOL0     C76762   1.768   5.253   7.039  1.0655  0.0236  0.1132
  557MOL0     C76763   1.751   5.380   6.974  0.1010 -0.4535 -0.2211
  557MOL0     O76764   1.651   5.376   6.881 -0.4241  0.2625 -0.2147
  557MOL0     C76765   1.678   5.443   6.753  0.1475 -0.4896 -0.4983
  557MOL0     C76766   1.785   5.384   6.667  0.1510 -0.2075  0.6834
  557MOL0     C76767   1.801   5.467   6.537 -0.1574  0.4408 -0.3358
  557MOL0     C76768   1.935   5.418   6.466 -0.6954  0.8811  0.6779
  557MOL0     C76769   1.957   5.489   6.334 -1.0785  0.3472 -0.3608
  557MOL0     C76770   1.853   5.484   6.224 -0.4045  0.3748 -0.5497
  557MOL0     C76771   1.904   5.550   6.093 -0.0472  0.3912 -0.4652
  557MOL0     C76772   1.848   5.492   5.958  0.2933  0.1321 -0.7397
  557MOL0    Cl76773   1.845   5.313   5.941 -0.0633 -0.4252  0.0722
  557MOL0     C76774   1.826   5.486   7.002 -0.6013  0.2677 -0.1808
  557MOL0     C76775   1.905   5.477   7.123 -0.2151  0.1876 -0.1480
  557MOL0     O76776   2.172   5.280   7.151  0.1583 -0.6425  0.0536
  557MOL0     C76777   2.211   5.353   7.501  0.3033 -0.2346 -0.5401
  557MOL0     C76778   2.298   5.341   7.603  0.1803 -0.4250 -0.0217
  557MOL0     N76779   2.681   5.056   8.320  0.1460 -0.3801 -0.3345
  557MOL0     N76780   2.666   5.132   8.423 -0.5136  0.3820  0.4059
  557MOL0     C76781   1.441   5.610   8.738  0.3453 -0.0308 -0.4787
  557MOL0     C76782   1.332   5.657   8.813  0.8600 -0.2120  0.0454
  557MOL0     C76783   0.954   5.712   9.029  0.3391 -0.1504  0.4095
  557MOL0     C76784   1.000   5.803   9.122  0.7738  0.0688  0.1371
  557MOL0     C76785   0.912   5.889   9.186 -0.1462 -0.0858  0.1585
  557MOL0     C76786   0.774   5.900   9.158  0.8668 -0.6543  0.7252
  557MOL0     O76787   0.679   5.982   9.206  0.0669 -0.2334  0.3523
  557MOL0     C76788   0.729   6.084   9.288 -0.3248 -0.2108 -0.2363
  557MOL0     C76789   0.749   6.044   9.443  0.1282  0.1269  1.3565
  557MOL0     C76790   0.746   6.169   9.541 -0.6108  0.3762  0.1339
  557MOL0     C76791   0.887   6.212   9.576  0.0592  0.3171 -0.3033
  557MOL0     C76792   0.884   6.329   9.665 -0.3363  0.1977  0.6442
  557MOL0     C76793   0.909   6.428   9.729 -0.4688 -0.3742 -0.5081
  557MOL0     C76794   0.730   5.808   9.063  0.5380 -0.4081  0.1438
  557MOL0     C76795   0.815   5.707   9.004  0.2197 -0.5545  0.0228
  557MOL0     C76796   0.759   5.612   8.901  0.1565  0.0441  0.3166
  557MOL0     H76797   1.301   5.422   9.050  0.5870  0.8918 -0.0237
  557MOL0     H76798   1.467   5.319   8.916 -0.3897 -1.9449 -0.4412
  557MOL0     H76799   1.696   5.304   8.840 -1.6967  0.1019 -0.5081
  557MOL0     H76800   1.715   5.480   8.876 -1.8495  1.0802  0.1121
  557MOL0     H76801   1.791   5.381   8.609 -1.8143  0.8065 -0.0677
  557MOL0     H76802   1.855   5.518   8.704 -0.5736 -0.6078  1.8324
  557MOL0     H76803   1.973   5.349   8.868  0.3463  1.4076  0.0397
  557MOL0     H76804   1.920   5.226   8.764 -0.7220  0.0324 -0.5366
  557MOL0     H76805   2.064   5.325   8.587  0.2336  0.2854  0.6628
  557MOL0     H76806   2.092   5.471   8.687 -1.7122  0.2480 -1.0779
  557MOL0     H76807   2.198   5.195   8.751 -0.1246 -0.1003 -1.2623
  557MOL0     H76808   2.209   5.332   8.854  0.0139 -1.4166  0.8298
  557MOL0     H76809   2.332   5.444   8.634 -0.2257 -0.7472 -0.8520
  557MOL0     H76810   2.404   5.342   8.762 -2.2191  1.8652  1.9089
  557MOL0     H76811   2.298   5.277   8.486 -1.0602  2.2036  0.7209
  557MOL0     H76812   2.368   5.146   8.585 -1.4698  0.3094  0.3238
  557MOL0     H76813   2.501   5.400   8.491  0.0922  0.3565 -0.1894
  557MOL0     H76814   2.573   5.295   8.611 -0.6136  3.6359  0.3605
  557MOL0     H76815   2.414   5.239   8.259  1.1933  0.8182 -1.3418
  557MOL0     H76816   2.480   4.979   8.090 -1.7514  2.8695 -0.7649
  557MOL0     H76817   2.647   4.966   8.078 -2.7179 -2.6911  1.1583
  557MOL0     H76818   2.462   5.206   7.984 -1.7823 -1.9478 -0.9144
  557MOL0     H76819   2.638   5.218   7.991 -0.7930  0.4129 -0.1602
  557MOL0     H76820   2.660   5.004   7.865 -0.6043 -0.3607  0.4686
  557MOL0     H76821   2.496   5.009   7.830  1.6322 -0.4459 -0.2887
  557MOL0     H76822   2.678   5.252   7.788 -0.2452  0.0719  1.1159
  557MOL0     H76823   2.631   5.136   7.658  0.2104 -2.2207  0.2640
  557MOL0     H76824   2.540   5.153   7.464 -1.2495 -2.5412 -4.2448
  557MOL0     H76825   2.348   5.133   7.164  1.2047  0.1974 -0.9904
  557MOL0     H76826   2.508   5.124   7.238 -1.5294 -1.9808  0.6514
  557MOL0     H76827   2.460   5.276   7.168  0.6493  1.7897  2.3386
  557MOL0     H76828   1.852   5.149   7.198  1.5750  0.7666  0.2236
  557MOL0     H76829   1.709   5.169   7.005 -4.0844  2.4252  2.1038
  557MOL0     H76830   1.588   5.432   6.693  0.7878  0.0480 -1.5815
  557MOL0     H76831   1.688   5.551   6.764 -0.3120 -0.2882 -1.9006
  557MOL0     H76832   1.888   5.392   6.705  0.2050  0.0041  0.5022
  557MOL0     H76833   1.763   5.279   6.646  0.0598  0.2223 -1.6905
  557MOL0     H76834   1.796   5.575   6.553  0.7888  0.1385  2.5995
  557MOL0     H76835   1.713   5.432   6.483 -2.5719 -2.5456  4.7125
  557MOL0     H76836   1.951   5.312   6.443  4.1022  2.0682 -3.2139
  557MOL0     H76837   2.023   5.442   6.527 -0.1260 -0.3693  0.3873
  557MOL0     H76838   1.970   5.597   6.345 -1.8462  0.9584 -4.0394
  557MOL0     H76839   2.043   5.444   6.284 -1.9110 -0.0106 -1.5195
  557MOL0     H76840   1.760   5.516   6.271  1.0264  0.7951  2.2382
  557MOL0     H76841   1.846   5.378   6.196 -0.7898  0.3398 -0.3196
  557MOL0     H76842   2.013   5.549   6.087 -0.0665  1.5875 -1.2680
  557MOL0     H76843   1.874   5.655   6.094  0.3648  0.5390  1.5299
  557MOL0     H76844   1.915   5.525   5.877  2.9982 -1.9184  0.5058
  557MOL0     H76845   1.748   5.533   5.941  0.5109  0.0849 -2.2811
  557MOL0     H76846   1.814   5.579   6.947  0.6022  0.5351 -0.0142
  557MOL0     H76847   1.945   5.573   7.154  1.7429  1.0724 -4.6514
  557MOL0     H76848   2.120   5.404   7.532 -0.4539 -1.3148 -0.9475
  557MOL0     H76849   2.269   5.391   7.695 -1.8184 -2.4575  0.5285
  557MOL0     H76850   1.497   5.671   8.668 -0.2654  0.9673 -0.1144
  557MOL0     H76851   1.292   5.757   8.798 -2.2979 -1.2322  0.9051
  557MOL0     H76852   1.105   5.810   9.148  0.9844  0.5426 -0.7759
  557MOL0     H76853   0.958   5.958   9.255  2.1533 -3.9347  2.8349
  557MOL0     H76854   0.815   6.140   9.249 -0.6169  0.2849 -0.1873
  557MOL0     H76855   0.648   6.158   9.291 -0.1780 -0.0776  1.4937
  557MOL0     H76856   0.845   5.992   9.446 -0.7058 -1.4664  1.3478
  557MOL0     H76857   0.663   5.979   9.457 -0.8948  0.3131 -2.7865
  557MOL0     H76858   0.691   6.245   9.483 -0.1468 -0.7158 -1.8384
  557MOL0     H76859   0.705   6.141   9.638  0.2049 -1.1523  0.0612
  557MOL0     H76860   0.945   6.239   9.487  0.2528  0.0933 -0.2471
  557MOL0     H76861   0.935   6.129   9.629  0.0643  0.7345  0.3445
  557MOL0     H76862   0.926   6.516   9.788 -0.6727 -0.0153 -0.9746
  557MOL0     H76863   0.626   5.799   9.032  0.2847  2.5827 -0.0915
  557MOL0     H76864   0.799   5.624   8.800 -1.7941  0.9382 -0.4064
  557MOL0     H76865   0.781   5.512   8.938 -2.5131 -0.8144 -0.2319
  557MOL0     H76866   0.651   5.612   8.888  0.3134 -2.0959 -1.4919
  558MOL0     O76867   7.804  10.418   1.007  0.2178  0.2062 -0.3094
  558MOL0     C76868   7.825  10.531   1.046  0.6763 -0.3921  0.2789
  558MOL0     O76869   7.887  10.627   0.979  0.5587 -0.3940  0.0329
  558MOL0     C76870   7.871  10.639   0.846  0.3075 -0.0530  0.2956
  558MOL0     C76871   7.964  10.714   0.770 -0.5551 -0.5603  0.3997
  558MOL0     C76872   7.962  10.724   0.631  0.1658  0.3059  0.4152
  558MOL0     C76873   7.857  10.667   0.558 -0.1950  0.2096 -0.0320
  558MOL0     O76874   7.844  10.675   0.417 -0.3917  0.2991  0.9747
  558MOL0     C76875   7.970  10.703   0.351 -0.8118 -0.8537  0.2473
  558MOL0     C76876   7.958  10.677   0.205 -0.4611 -0.2061 -0.6165
  558MOL0     C76877   8.098  10.640   0.151  0.4349  0.2100 -0.6261
  558MOL0     C76878   8.126  10.487   0.148  0.4085  0.0282 -0.1080
  558MOL0     C76879   8.257  10.452   0.081  0.8572 -0.0327 -0.1445
  558MOL0     C76880   8.253  10.472  -0.073  0.4164 -0.6786 -0.4926
  558MOL0     C76881   8.392  10.427  -0.123 -0.3740 -0.4448 -0.3160
  558MOL0     C76882   8.406  10.446  -0.272  0.6373  0.5164  0.1074
  558MOL0     N76883   8.526  10.378  -0.316  0.1419 -0.3898 -0.2541
  558MOL0     C76884   8.549  10.240  -0.332 -0.1822  0.4108 -0.1235
  558MOL0     C76885   8.682  10.242  -0.376  0.3091 -0.3976 -1.1066
  558MOL0     C76886   8.756  10.119  -0.416 -0.0217  0.3165  0.3383
  558MOL0     C76887   8.901  10.134  -0.385  0.6469  0.7488 -0.3761
  558MOL0     C76888   8.976  10.022  -0.448  0.1607  0.1990 -0.7323
  558MOL0     C76889   9.121  10.003  -0.397  0.2009 -0.0822 -0.2747
  558MOL0     O76890   9.185   9.899  -0.471  0.6892 -0.3743  0.7136
  558MOL0     C76891   9.325   9.880  -0.463  0.1927  0.2477  0.0090
  558MOL0     C76892   9.367   9.795  -0.557  0.3489  0.4464  0.0400
  558MOL0     C76893   9.507   9.754  -0.549  0.4563 -0.1300  0.5844
  558MOL0     C76894   9.556   9.699  -0.686 -0.1186 -0.4779 -0.9080
  558MOL0     C76895   9.586   9.792  -0.440  0.2754 -0.0305 -0.5041
  558MOL0     C76896   9.730   9.744  -0.421  0.0865 -0.0289 -0.6012
  558MOL0     O76897   9.806   9.705  -0.525 -0.1776 -0.0767  0.4311
  558MOL0     C76898   9.950   9.699  -0.517  0.1105 -0.0490  0.8446
  558MOL0     C76899  10.024   9.801  -0.465  0.3018  0.0764  0.0629
  558MOL0     C76900  10.158   9.780  -0.445 -0.9458  0.5947 -0.0617
  558MOL0     C76901  10.220   9.654  -0.480  0.2267 -0.2906  0.2411
  558MOL0     O76902  10.356   9.628  -0.492 -0.5371 -0.0988  0.3478
  558MOL0     C76903  10.440   9.706  -0.405 -0.1128  0.6643 -0.0562
  558MOL0     C76904  10.579   9.652  -0.416  0.2619 -0.4078  0.0277
  558MOL0     C76905  10.610   9.510  -0.365 -0.2302 -0.7927  0.7140
  558MOL0     C76906  10.751   9.466  -0.381 -0.0152  1.1091  0.0675
  558MOL0     C76907  10.777   9.349  -0.286 -0.2736 -0.0004  0.1477
  558MOL0     C76908  10.917   9.295  -0.306 -0.1887  0.4146 -0.2279
  558MOL0     C76909  10.943   9.170  -0.217 -0.6648  0.0588  1.3703
  558MOL0     C76910  11.095   9.146  -0.200  0.5037 -0.0175 -0.9378
  558MOL0    Cl76911  11.175   9.166  -0.360  0.0395 -0.4313  0.0627
  558MOL0     C76912  10.144   9.557  -0.549 -1.3727 -1.5227  0.2218
  558MOL0     C76913  10.004   9.576  -0.556  0.2682  0.6416  0.4752
  558MOL0     O76914   9.769   9.756  -0.303  0.1632  0.0238 -0.0008
  558MOL0     C76915   9.535   9.879  -0.340  0.1496  0.1036 -0.3405
  558MOL0     C76916   9.400   9.922  -0.361 -0.3393 -0.6357  0.1113
  558MOL0     N76917   8.735  10.369  -0.358 -0.3016 -0.8546 -0.3907
  558MOL0     N76918   8.639  10.452  -0.340  0.6250 -0.1468 -0.6237
  558MOL0     C76919   7.759  10.599   0.634 -0.6321  0.2714 -0.4815
  558MOL0     C76920   7.759  10.590   0.771 -0.5656 -0.6528  0.2849
  558MOL0     C76921   7.827  10.562   1.192 -1.0245  0.1246  0.0357
  558MOL0     C76922   7.918  10.655   1.243 -0.2181  0.7625 -0.0447
  558MOL0     C76923   7.935  10.667   1.384 -0.0259 -1.0833 -0.7326
  558MOL0     C76924   7.852  10.597   1.472  0.0924 -0.1814  0.5370
  558MOL0     O76925   7.870  10.626   1.605 -0.6906  0.0452 -0.3230
  558MOL0     C76926   7.803  10.564   1.715  0.1234  0.0685  0.4734
  558MOL0     C76927   7.872  10.422   1.736 -0.3056  0.0775  0.3580
  558MOL0     C76928   8.008  10.434   1.802  0.4767 -0.1384  0.1316
  558MOL0     C76929   8.128  10.476   1.711  1.1178  0.0952 -0.3230
  558MOL0     C76930   8.181  10.369   1.628 -0.1764  0.1569 -0.6336
  558MOL0     C76931   8.235  10.286   1.554 -0.6316  0.7607 -1.2733
  558MOL0     C76932   7.755  10.516   1.421 -0.0862 -0.4886  0.2127
  558MOL0     C76933   7.734  10.496   1.283 -0.0169 -0.6252  0.2120
  558MOL0     C76934   7.610  10.405   1.242  0.0262 -0.0275 -0.8896
  558MOL0     H76935   8.030  10.765   0.840 -1.5702  1.2500  0.1102
  558MOL0     H76936   8.043  10.781   0.587  2.4765 -1.2580  2.3739
  558MOL0     H76937   8.049  10.638   0.390  1.1662 -0.1362 -2.3264
  558MOL0     H76938   8.001  10.806   0.369  0.7537 -1.4866  1.3764
  558MOL0     H76939   7.888  10.595   0.187  1.5717 -1.8732 -1.3410
  558MOL0     H76940   7.917  10.767   0.159  0.1563 -0.2999 -1.3516
  558MOL0     H76941   8.092  10.672   0.046  1.7605  2.6860 -0.0075
  558MOL0     H76942   8.175  10.703   0.197  0.4440 -0.3177  0.0955
  558MOL0     H76943   8.122  10.454   0.253 -1.7980  0.0078 -0.1690
  558MOL0     H76944   8.043  10.435   0.100  0.3940 -1.7217  1.6821
  558MOL0     H76945   8.290  10.349   0.096 -1.9582 -1.2103 -1.3538
  558MOL0     H76946   8.337  10.513   0.124  2.0692 -1.2986 -0.5200
  558MOL0     H76947   8.168  10.416  -0.115  0.4168  0.1659 -1.6534
  558MOL0     H76948   8.233  10.575  -0.103  1.7820 -1.0014 -2.6884
  558MOL0     H76949   8.413  10.325  -0.089  1.5796  0.4640  1.4455
  558MOL0     H76950   8.471  10.481  -0.069 -0.9961 -0.2761  0.4347
  558MOL0     H76951   8.312  10.407  -0.314  1.0706  0.0148 -0.4181
  558MOL0     H76952   8.409  10.554  -0.289  3.0702  0.5043  0.1507
  558MOL0     H76953   8.488  10.153  -0.310  0.8472 -0.9800 -2.3983
  558MOL0     H76954   8.736  10.099  -0.522 -3.5749 -3.9132  1.4897
  558MOL0     H76955   8.713  10.038  -0.356 -0.2019  0.1996  0.0518
  558MOL0     H76956   8.947  10.225  -0.425  1.8889  0.3057  0.0260
  558MOL0     H76957   8.921  10.129  -0.277 -0.4543 -0.3695 -0.2059
  558MOL0     H76958   8.920   9.930  -0.431 -2.2582  1.7527  0.1987
  558MOL0     H76959   8.967  10.027  -0.557 -2.0492 -0.7594 -0.6325
  558MOL0     H76960   9.184  10.090  -0.417  0.9363 -1.1939 -3.3602
  558MOL0     H76961   9.119   9.982  -0.290 -0.7766 -1.2191 -0.4908
  558MOL0     H76962   9.300   9.765  -0.637 -1.5180  2.8629  0.5818
  558MOL0     H76963   9.474   9.697  -0.758  0.0167 -2.4886 -1.0857
  558MOL0     H76964   9.592   9.596  -0.676 -0.0552 -0.4687 -1.0420
  558MOL0     H76965   9.639   9.755  -0.730 -1.7384  1.1489 -2.0330
  558MOL0     H76966   9.990   9.901  -0.442  0.4730  0.3463 -0.8204
  558MOL0     H76967  10.224   9.849  -0.394 -0.7766  0.2547  0.1898
  558MOL0     H76968  10.434   9.812  -0.430  1.4783  0.9131  0.4961
  558MOL0     H76969  10.397   9.704  -0.304  0.1827 -0.6477  0.0593
  558MOL0     H76970  10.614   9.655  -0.520  0.9818 -1.5964  0.2153
  558MOL0     H76971  10.635   9.721  -0.351  5.7973 -2.1990 -2.2421
  558MOL0     H76972  10.533   9.444  -0.406 -0.7272  2.1446 -3.9006
  558MOL0     H76973  10.598   9.523  -0.257 -0.1746 -0.3208  0.6640
  558MOL0     H76974  10.825   9.546  -0.376  3.7041 -2.1204  1.9194
  558MOL0     H76975  10.763   9.438  -0.486  0.5969 -0.2907  0.4914
  558MOL0     H76976  10.766   9.379  -0.182  0.9075 -0.8496  0.5329
  558MOL0     H76977  10.712   9.261  -0.289 -0.2263 -0.0400  0.3252
  558MOL0     H76978  10.971   9.380  -0.263 -0.1363  0.4122 -0.2875
  558MOL0     H76979  10.949   9.292  -0.410  4.7015  0.3916  1.0224
  558MOL0     H76980  10.902   9.080  -0.264 -0.1470  1.8311 -2.9645
  558MOL0     H76981  10.903   9.191  -0.118 -0.8921  0.8008  1.1316
  558MOL0     H76982  11.102   9.043  -0.162  1.2530  0.6801  0.9442
  558MOL0     H76983  11.130   9.223  -0.130 -0.3508  0.9399 -1.5307
  558MOL0     H76984  10.210   9.476  -0.576 -1.2554 -1.1178 -0.7353
  558MOL0     H76985   9.936   9.506  -0.604  1.2491 -0.2353  0.3084
  558MOL0     H76986   9.591   9.920  -0.257 -1.4599  2.9690 -0.5318
  558MOL0     H76987   9.355   9.977  -0.279  0.9002  1.4336 -0.4985
  558MOL0     H76988   7.665  10.571   0.586 -1.1729  3.0422 -1.2036
  558MOL0     H76989   7.679  10.538   0.823 -0.7138 -2.4400 -1.6097
  558MOL0     H76990   7.983  10.712   1.177  2.5783 -0.6028  1.3681
  558MOL0     H76991   8.011  10.731   1.427  0.3403 -0.5110 -2.1637
  558MOL0     H76992   7.823  10.624   1.805  1.9743  1.9755 -1.1164
  558MOL0     H76993   7.696  10.566   1.696  0.3428 -0.9378 -1.0373
  558MOL0     H76994   7.881  10.359   1.647 -1.6068 -0.0803  0.3233
  558MOL0     H76995   7.806  10.358   1.795 -2.0218 -0.9073 -2.4449
  558MOL0     H76996   8.009  10.516   1.875 -0.4179  1.4175 -1.5289
  558MOL0     H76997   8.028  10.339   1.851 -4.5030 -1.0001  0.9414
  558MOL0     H76998   8.204  10.520   1.776  0.4632  0.6299  0.0914
  558MOL0     H76999   8.088  10.557   1.650 -0.2738  2.8520  3.7852
  558MOL0     H77000   8.283  10.221   1.484 -2.3503  0.2725 -2.0483
  558MOL0     H77001   7.696  10.463   1.495 -2.0428 -2.1216 -2.3596
  558MOL0     H77002   7.519  10.428   1.298  0.2839 -3.2641  1.1077
  558MOL0     H77003   7.589  10.394   1.135 -2.0420 -0.7921 -0.4388
  558MOL0     H77004   7.637  10.305   1.276  3.4244  0.2533 -2.3785
  559MOL0     O77005   1.002   8.090   0.504  0.5259 -0.2927  0.1683
  559MOL0     C77006   1.118   8.057   0.523 -0.7279  0.5639 -0.1981
  559MOL0     O77007   1.233   8.121   0.472 -0.1493 -0.3079 -0.1101
  559MOL0     C77008   1.204   8.179   0.344  0.1014 -0.2674  0.2326
  559MOL0     C77009   1.189   8.320   0.324  0.4225 -0.7134  0.0159
  559MOL0     C77010   1.149   8.369   0.198 -0.5710 -0.4474 -0.3233
  559MOL0     C77011   1.129   8.284   0.093  0.0125 -0.9576 -0.9337
  559MOL0     O77012   1.106   8.348  -0.024  0.5328 -0.7502  0.1364
  559MOL0     C77013   1.090   8.259  -0.140 -0.1991 -0.3931  0.2774
  559MOL0     C77014   1.074   8.340  -0.266 -0.2983 -0.6205 -0.7631
  559MOL0     C77015   1.201   8.420  -0.303 -0.2067 -0.0140  0.1919
  559MOL0     C77016   1.179   8.490  -0.445  0.4429 -0.3841 -0.2400
  559MOL0     C77017   1.298   8.555  -0.509 -0.1640  0.3500 -0.1415
  559MOL0     C77018   1.355   8.677  -0.432 -0.4887  0.0056  0.2668
  559MOL0     C77019   1.487   8.727  -0.495 -1.3473 -0.1045 -0.1154
  559MOL0     C77020   1.527   8.866  -0.437 -0.0898 -0.0194 -0.7614
  559MOL0     N77021   1.671   8.875  -0.407 -0.5283 -0.0873  0.0662
  559MOL0     C77022   1.749   8.798  -0.328 -0.1251  0.2738 -0.0575
  559MOL0     C77023   1.873   8.857  -0.314 -0.4484  0.7906  0.4795
  559MOL0     C77024   1.989   8.830  -0.224  0.9693  0.3038 -0.2713
  559MOL0     C77025   2.114   8.822  -0.319 -0.1836  0.0969 -0.1330
  559MOL0     C77026   2.223   8.722  -0.275  0.9530 -0.1768  0.0198
  559MOL0     C77027   2.269   8.756  -0.134 -1.1673  1.1246 -0.8963
  559MOL0     O77028   2.333   8.882  -0.130  0.0369  0.8002  0.0618
  559MOL0     C77029   2.342   8.956  -0.018  0.3513 -1.0644 -0.6221
  559MOL0     C77030   2.324   9.100  -0.016 -0.4951 -0.4229  0.0746
  559MOL0     C77031   2.340   9.178   0.097 -0.3513  0.1384 -0.4118
  559MOL0     C77032   2.332   9.327   0.086 -0.4091 -0.0769  0.4789
  559MOL0     C77033   2.351   9.113   0.224 -0.5323  0.0514 -0.1985
  559MOL0     C77034   2.372   9.184   0.357  0.7641  0.6218  0.3054
  559MOL0     O77035   2.316   9.125   0.462  0.3981  0.5731  0.1066
  559MOL0     C77036   2.312   9.190   0.581 -0.2423 -0.0240  0.4825
  559MOL0     C77037   2.367   9.125   0.701  0.1006 -0.8374  1.6261
  559MOL0     C77038   2.363   9.207   0.817  0.3311  0.3394 -0.6730
  559MOL0     C77039   2.297   9.328   0.825 -1.4223  1.0085 -0.4775
  559MOL0     O77040   2.301   9.407   0.934 -0.1254 -0.5634 -0.7027
  559MOL0     C77041   2.319   9.343   1.065 -0.4231  0.5673  0.3248
  559MOL0     C77042   2.246   9.442   1.156 -0.2227  0.3674 -0.3301
  559MOL0     C77043   2.236   9.386   1.297 -0.2505 -0.3472  0.6129
  559MOL0     C77044   2.112   9.442   1.362  0.0017  0.4148 -0.6508
  559MOL0     C77045   2.069   9.383   1.497 -0.0219 -0.2544 -0.3901
  559MOL0     C77046   2.197   9.356   1.583 -0.1690 -0.1195 -0.7430
  559MOL0     C77047   2.147   9.269   1.704 -0.5780 -0.8772 -0.2141
  559MOL0     C77048   2.083   9.345   1.823 -0.8477 -1.0945 -0.8269
  559MOL0    Cl77049   2.196   9.444   1.932  0.3604  0.1995  0.0196
  559MOL0     C77050   2.247   9.382   0.705 -0.0966  0.4820  0.6531
  559MOL0     C77051   2.256   9.316   0.580 -1.0236  0.4297  0.3109
  559MOL0     O77052   2.451   9.278   0.358  0.4215  0.9691  0.4331
  559MOL0     C77053   2.357   8.966   0.233  0.4835 -0.0176  1.4000
  559MOL0     C77054   2.351   8.890   0.111 -0.9232 -0.0420  0.3159
  559MOL0     N77055   1.870   8.965  -0.406  0.0603  0.8990 -0.4830
  559MOL0     N77056   1.751   8.973  -0.454  0.4945 -0.2834 -0.4918
  559MOL0     C77057   1.149   8.148   0.114 -0.3982  0.9024  0.7356
  559MOL0     C77058   1.183   8.095   0.234 -0.4121 -0.1907 -0.3010
  559MOL0     C77059   1.140   7.924   0.593 -0.5260 -0.2970 -0.2510
  559MOL0     C77060   1.257   7.855   0.566 -0.5350  0.6520  0.5981
  559MOL0     C77061   1.281   7.727   0.618 -0.6277  0.8294  0.1296
  559MOL0     C77062   1.198   7.665   0.708  0.2749 -0.6829  0.2265
  559MOL0     O77063   1.218   7.528   0.737  0.1037  1.1881 -0.2572
  559MOL0     C77064   1.115   7.451   0.795 -0.0465  0.3968  0.0920
  559MOL0     C77065   1.114   7.452   0.945  0.2158 -0.5109 -0.1194
  559MOL0     C77066   1.247   7.428   1.019 -0.5084 -0.4172  0.0930
  559MOL0     C77067   1.265   7.283   1.059  0.3185 -0.1357 -0.9221
  559MOL0     C77068   1.177   7.244   1.174 -0.6308 -0.0438  1.0907
  559MOL0     C77069   1.118   7.216   1.276 -0.4183 -0.2265 -0.0542
  559MOL0     C77070   1.083   7.737   0.749  0.8834 -0.1012  0.5182
  559MOL0     C77071   1.052   7.866   0.687 -0.6195 -0.8876  0.4616
  559MOL0     C77072   0.919   7.941   0.739 -0.4183  0.7312  0.5728
  559MOL0     H77073   1.202   8.375   0.417 -0.7834 -1.4115  0.6298
  559MOL0     H77074   1.130   8.475   0.183 -3.4550 -0.9992 -1.0945
  559MOL0     H77075   1.005   8.191  -0.126 -0.0370 -0.7090 -0.2619
  559MOL0     H77076   1.183   8.205  -0.159  0.9956  2.0344 -1.1806
  559MOL0     H77077   1.051   8.269  -0.345  0.7611 -2.9272  0.8788
  559MOL0     H77078   0.993   8.411  -0.242  1.0819  0.8006 -0.0682
  559MOL0     H77079   1.235   8.491  -0.227  1.8217 -0.5856 -0.1372
  559MOL0     H77080   1.279   8.346  -0.321 -0.4578  0.1867 -2.0729
  559MOL0     H77081   1.131   8.420  -0.514  2.0323 -0.2149 -1.5975
  559MOL0     H77082   1.112   8.575  -0.433 -0.2494 -1.0000  0.3831
  559MOL0     H77083   1.268   8.590  -0.609  1.1396  0.0716 -0.6518
  559MOL0     H77084   1.378   8.481  -0.521  1.1504  1.9900 -2.2281
  559MOL0     H77085   1.292   8.767  -0.428  2.9227  2.6226 -0.2361
  559MOL0     H77086   1.379   8.648  -0.329 -0.5759  2.5187  1.0675
  559MOL0     H77087   1.495   8.736  -0.604 -2.4191 -3.1916 -0.5291
  559MOL0     H77088   1.555   8.649  -0.461 -2.6959 -0.9138  0.7723
  559MOL0     H77089   1.498   8.948  -0.504 -2.5139 -1.8543 -2.1187
  559MOL0     H77090   1.466   8.869  -0.346 -0.8084 -2.1241 -1.1251
  559MOL0     H77091   1.723   8.712  -0.268 -0.5703  0.7259  0.4108
  559MOL0     H77092   1.958   8.740  -0.170 -3.2925  0.5060 -1.9137
  559MOL0     H77093   2.007   8.909  -0.151 -2.3726  0.2900  0.7377
  559MOL0     H77094   2.076   8.800  -0.419 -2.1667 -0.9295  0.7830
  559MOL0     H77095   2.148   8.923  -0.345 -0.1952 -0.1096 -0.9990
  559MOL0     H77096   2.167   8.629  -0.277 -0.6408  0.7288  0.4769
  559MOL0     H77097   2.310   8.725  -0.341  0.5384 -3.3610 -0.7921
  559MOL0     H77098   2.181   8.761  -0.068 -1.1958  1.6030 -0.9707
  559MOL0     H77099   2.325   8.670  -0.096 -3.4427 -0.9935 -2.0484
  559MOL0     H77100   2.302   9.157  -0.105 -0.0956 -0.5883 -0.1314
  559MOL0     H77101   2.333   9.364  -0.017  0.4990 -2.7590 -0.5566
  559MOL0     H77102   2.431   9.361   0.116  0.3663  0.6142 -2.4668
  559MOL0     H77103   2.248   9.369   0.142  0.5590 -0.1351  2.0307
  559MOL0     H77104   2.398   9.021   0.701 -3.2380 -1.9969 -0.3568
  559MOL0     H77105   2.407   9.170   0.909 -2.1557  3.3819  1.9654
  559MOL0     H77106   2.282   9.241   1.078  0.0166  0.6074  2.1449
  559MOL0     H77107   2.425   9.333   1.091 -0.5097 -0.5198  0.3066
  559MOL0     H77108   2.305   9.534   1.166  0.1452 -0.0280  1.6509
  559MOL0     H77109   2.145   9.451   1.115 -0.7204 -1.0111  0.4983
  559MOL0     H77110   2.331   9.408   1.347  0.7464 -2.0709 -0.4054
  559MOL0     H77111   2.234   9.276   1.294  2.8823 -0.5652  2.1668
  559MOL0     H77112   2.021   9.422   1.305 -1.6079  1.9754  1.2234
  559MOL0     H77113   2.123   9.551   1.370  1.4829  0.2251  0.2127
  559MOL0     H77114   2.001   9.444   1.557 -0.6899 -2.2776  1.0044
  559MOL0     H77115   2.006   9.296   1.478  1.8545 -1.9025  0.6236
  559MOL0     H77116   2.233   9.453   1.619  1.3680 -0.1019 -2.1763
  559MOL0     H77117   2.277   9.309   1.526  0.9027  1.7247 -0.8454
  559MOL0     H77118   2.231   9.225   1.759 -1.5340 -2.3504  0.1405
  559MOL0     H77119   2.072   9.192   1.685 -3.0885  1.5293 -0.6231
  559MOL0     H77120   2.046   9.268   1.892 -0.5621 -1.8655 -1.5229
  559MOL0     H77121   2.000   9.407   1.787 -2.1708 -2.2500  0.1123
  559MOL0     H77122   2.211   9.484   0.710  0.1090  0.5001  4.1401
  559MOL0     H77123   2.204   9.360   0.496 -1.1477  0.5434  0.4464
  559MOL0     H77124   2.374   8.916   0.328  0.9244 -1.6143  0.5107
  559MOL0     H77125   2.354   8.782   0.112 -1.2236 -0.2452 -3.7573
  559MOL0     H77126   1.132   8.080   0.031  1.7119  1.7932 -0.5121
  559MOL0     H77127   1.177   7.987   0.240 -2.2427 -0.3472 -3.0572
  559MOL0     H77128   1.332   7.905   0.506 -2.4051  0.9518 -1.6563
  559MOL0     H77129   1.368   7.674   0.578 -0.7437  1.2132 -0.6515
  559MOL0     H77130   1.021   7.500   0.767 -1.0987  0.3849  3.2572
  559MOL0     H77131   1.119   7.349   0.757 -1.5213  1.0533 -2.0397
  559MOL0     H77132   1.033   7.396   0.990  0.4469 -1.3163 -0.6830
  559MOL0     H77133   1.077   7.549   0.981  2.6370  0.0107  1.2132
  559MOL0     H77134   1.328   7.454   0.951  0.3979  0.4262  1.4307
  559MOL0     H77135   1.265   7.496   1.103 -1.4638 -0.5901  0.4441
  559MOL0     H77136   1.371   7.261   1.079 -0.3474 -2.9432 -0.0438
  559MOL0     H77137   1.239   7.217   0.976 -1.9307  0.6554 -0.8954
  559MOL0     H77138   1.066   7.207   1.369 -1.1153 -0.8308 -0.4831
  559MOL0     H77139   1.017   7.685   0.817 -0.5594 -1.9925 -2.1238
  559MOL0     H77140   0.901   7.910   0.842  0.5156 -1.6630  0.0908
  559MOL0     H77141   0.914   8.050   0.730 -3.3614  0.5102 -2.7104
  559MOL0     H77142   0.836   7.899   0.681  0.0881 -0.5620  0.7704
  560MOL0     O77143   8.712   4.754   8.557 -0.2646 -0.8271 -0.1008
  560MOL0     C77144   8.747   4.826   8.655  0.5671 -0.2016  0.2352
  560MOL0     O77145   8.668   4.929   8.701  0.3418 -0.5314  0.0298
  560MOL0     C77146   8.547   4.955   8.639  0.8697 -0.3442 -0.3653
  560MOL0     C77147   8.521   5.039   8.525  0.2501 -0.1621 -0.0247
  560MOL0     C77148   8.397   5.056   8.464 -0.6080  0.0586 -0.0446
  560MOL0     C77149   8.292   5.003   8.529  0.5102 -0.0987 -0.6512
  560MOL0     O77150   8.157   5.025   8.489  0.3251 -1.1511 -0.8540
  560MOL0     C77151   8.122   5.116   8.388 -0.6567 -0.0010 -0.0455
  560MOL0     C77152   7.989   5.093   8.326 -0.5625 -0.3710  0.4181
  560MOL0     C77153   7.871   5.071   8.416  0.7595  0.2071 -0.7715
  560MOL0     C77154   7.869   4.917   8.455  0.4669 -0.0224  0.0888
  560MOL0     C77155   7.758   4.894   8.554  0.3651 -0.0288  0.0491
  560MOL0     C77156   7.776   4.940   8.702  0.5477  0.2977  0.4548
  560MOL0     C77157   7.887   4.868   8.773 -0.5313  0.1497  0.4059
  560MOL0     C77158   7.958   4.972   8.854  0.5600 -0.5478 -0.4769
  560MOL0     N77159   8.002   4.923   8.983  0.2388  0.2907 -0.6563
  560MOL0     C77160   7.935   4.962   9.095 -0.1815  0.3972 -0.6297
  560MOL0     C77161   7.990   4.879   9.183 -0.2627  0.3234  0.5942
  560MOL0     C77162   7.940   4.837   9.321 -0.1633  0.3426 -0.0885
  560MOL0     C77163   7.815   4.750   9.307 -0.5202  0.2789 -0.2353
  560MOL0     C77164   7.724   4.755   9.434  0.5944 -0.1424 -0.1654
  560MOL0     C77165   7.767   4.675   9.558 -0.4871  0.6413 -0.1672
  560MOL0     O77166   7.886   4.727   9.618 -0.2329 -0.7215  0.7444
  560MOL0     C77167   7.980   4.643   9.671 -0.2900  0.0703  0.5168
  560MOL0     C77168   8.046   4.551   9.585  0.2268  0.1160  0.4287
  560MOL0     C77169   8.144   4.456   9.623  0.1784 -0.0520 -0.5104
  560MOL0     C77170   8.185   4.355   9.509  0.6210  0.7518  0.9889
  560MOL0     C77171   8.174   4.459   9.759  0.6380  0.1149 -0.5450
  560MOL0     C77172   8.254   4.356   9.821 -0.6693 -0.2375 -0.9017
  560MOL0     O77173   8.238   4.318   9.944  0.7074 -0.0330 -0.7357
  560MOL0     C77174   8.347   4.262  10.006  0.2403  0.4461 -0.6783
  560MOL0     C77175   8.364   4.119   9.994 -0.0993 -0.1929  0.0576
  560MOL0     C77176   8.468   4.053  10.060  0.0794 -0.2193 -1.0664
  560MOL0     C77177   8.547   4.116  10.161  0.5115  0.0114 -0.1801
  560MOL0     O77178   8.639   4.057  10.241  0.1230 -0.3981  0.0085
  560MOL0     C77179   8.589   3.930  10.298  0.3769 -0.7846 -0.2017
  560MOL0     C77180   8.691   3.870  10.391  0.3560  0.6840 -0.2381
  560MOL0     C77181   8.831   3.891  10.352 -0.2566  0.9035 -0.6698
  560MOL0     C77182   8.903   3.798  10.448  0.2424 -1.0782  0.3550
  560MOL0     C77183   9.054   3.830  10.448  0.8085  0.2723  0.0754
  560MOL0     C77184   9.124   3.821  10.306 -0.3300  0.2473 -0.4092
  560MOL0     C77185   9.278   3.813  10.326  0.0557 -0.1166  0.3064
  560MOL0     C77186   9.360   3.846  10.192  0.1188  0.0675 -1.0528
  560MOL0    Cl77187   9.342   3.699  10.091  0.0684 -0.5384  0.6171
  560MOL0     C77188   8.519   4.255  10.181 -0.2450 -0.5505 -0.8094
  560MOL0     C77189   8.420   4.326  10.107  0.0906  0.3333 -0.1098
  560MOL0     O77190   8.350   4.320   9.753  0.2606 -0.0021  0.2463
  560MOL0     C77191   8.114   4.555   9.848 -0.2172 -0.9897  0.6941
  560MOL0     C77192   8.016   4.640   9.803  1.3132 -0.2080  0.0204
  560MOL0     N77193   8.088   4.802   9.134 -0.5973 -0.4449  0.9167
  560MOL0     N77194   8.096   4.835   9.014  0.1907  0.3655 -0.5497
  560MOL0     C77195   8.301   4.923   8.643  0.9216 -0.6629 -0.6440
  560MOL0     C77196   8.428   4.909   8.699  1.5124 -0.6117 -0.9760
  560MOL0     C77197   8.859   4.791   8.742  0.2046  0.3714 -0.3282
  560MOL0     C77198   8.848   4.820   8.884 -1.2573  0.0413 -0.6631
  560MOL0     C77199   8.952   4.786   8.973 -1.2110  0.1196 -0.3167
  560MOL0     C77200   9.076   4.743   8.919  0.3349 -0.6261 -0.3173
  560MOL0     O77201   9.182   4.742   9.010 -0.3975 -0.0623 -0.3319
  560MOL0     C77202   9.208   4.613   9.068 -0.0088  0.9426  0.2274
  560MOL0     C77203   9.290   4.609   9.196 -0.1310  0.1834 -0.4517
  560MOL0     C77204   9.439   4.645   9.170 -0.1661  1.3563 -0.0547
  560MOL0     C77205   9.518   4.522   9.136 -0.7805 -0.2732 -0.3788
  560MOL0     C77206   9.657   4.559   9.114  0.7144 -0.8611 -0.3576
  560MOL0     C77207   9.768   4.595   9.086  0.0217 -0.4338 -0.0312
  560MOL0     C77208   9.084   4.720   8.785 -0.9873 -0.0073  0.3714
  560MOL0     C77209   8.980   4.742   8.693  1.3556  0.0777  0.9340
  560MOL0     C77210   9.017   4.729   8.550 -0.3802  0.3409  0.7447
  560MOL0     H77211   8.608   5.077   8.473  0.6173 -2.1984 -0.9691
  560MOL0     H77212   8.391   5.123   8.378 -1.1575  0.9909  0.7025
  560MOL0     H77213   8.191   5.103   8.304 -1.6822  0.1650 -0.9457
  560MOL0     H77214   8.107   5.218   8.424 -3.3452  0.5742 -2.4292
  560MOL0     H77215   7.960   5.174   8.259 -1.0873 -1.1990 -0.3838
  560MOL0     H77216   7.995   5.008   8.256 -3.7983 -0.2425 -0.1642
  560MOL0     H77217   7.869   5.141   8.499  0.7969 -0.7881  0.0888
  560MOL0     H77218   7.779   5.093   8.360 -0.3390 -2.4187 -0.1525
  560MOL0     H77219   7.867   4.861   8.362  1.0038 -0.5562  0.3931
  560MOL0     H77220   7.965   4.887   8.499  0.8839 -0.5423 -1.1382
  560MOL0     H77221   7.727   4.789   8.554  0.0875  0.0518  0.0876
  560MOL0     H77222   7.664   4.938   8.519  0.0135 -1.1079 -0.3961
  560MOL0     H77223   7.800   5.045   8.684 -0.3153  0.4661  0.2592
  560MOL0     H77224   7.680   4.935   8.754 -0.1988  0.1035 -0.8997
  560MOL0     H77225   7.959   4.822   8.705 -0.6983 -1.4009  1.2166
  560MOL0     H77226   7.850   4.790   8.841 -1.4706 -0.3280 -0.6170
  560MOL0     H77227   8.047   5.004   8.798 -0.3650  2.7865 -0.2641
  560MOL0     H77228   7.896   5.061   8.868  1.2124 -0.2264  0.5310
  560MOL0     H77229   7.847   5.025   9.098  0.0867  0.7690  1.8370
  560MOL0     H77230   7.932   4.916   9.395  5.2847 -0.0271  1.3176
  560MOL0     H77231   8.014   4.775   9.372  0.0645 -2.0256 -2.9989
  560MOL0     H77232   7.759   4.789   9.222 -1.0824  0.3012  0.1344
  560MOL0     H77233   7.834   4.644   9.289 -2.2794 -0.0010 -0.6529
  560MOL0     H77234   7.720   4.860   9.463  0.3522  0.2365 -1.5233
  560MOL0     H77235   7.620   4.741   9.403  0.7230 -0.3300 -0.5201
  560MOL0     H77236   7.681   4.666   9.626 -1.2616 -0.7003 -1.2908
  560MOL0     H77237   7.786   4.574   9.521 -1.5728  1.5122 -3.3769
  560MOL0     H77238   8.016   4.540   9.482 -2.6518 -2.3726  1.3638
  560MOL0     H77239   8.234   4.263   9.542 -4.4218 -2.2389  1.3398
  560MOL0     H77240   8.252   4.405   9.438  0.1387 -3.1310 -2.6649
  560MOL0     H77241   8.101   4.327   9.443  3.4966  0.8187 -3.0747
  560MOL0     H77242   8.296   4.075   9.922  0.3044  3.0187 -2.5240
  560MOL0     H77243   8.485   3.946  10.052 -0.0776 -0.2128 -1.4702
  560MOL0     H77244   8.495   3.950  10.351  1.2950  0.5643  0.9777
  560MOL0     H77245   8.573   3.851  10.223  1.2346 -0.0569 -1.1746
  560MOL0     H77246   8.670   3.914  10.489  4.0724 -1.0603  1.5279
  560MOL0     H77247   8.667   3.763  10.389  2.3432  0.0908  2.6250
  560MOL0     H77248   8.855   3.996  10.373 -0.2795  0.4927  1.6666
  560MOL0     H77249   8.838   3.856  10.249  0.3670 -0.9038 -0.0391
  560MOL0     H77250   8.883   3.693  10.426  3.4182 -1.7330  0.1629
  560MOL0     H77251   8.868   3.812  10.551 -2.4110 -0.9118 -0.4846
  560MOL0     H77252   9.066   3.930  10.490 -0.6178  0.2868  0.4966
  560MOL0     H77253   9.111   3.767  10.516  2.7065  1.1583 -0.6151
  560MOL0     H77254   9.096   3.910  10.248 -0.1234  1.2608  0.9949
  560MOL0     H77255   9.100   3.734  10.244 -2.4737  2.0889 -2.3373
  560MOL0     H77256   9.320   3.715  10.348  0.9364 -0.6321 -3.1274
  560MOL0     H77257   9.310   3.886  10.402  2.6515 -0.0004 -0.8035
  560MOL0     H77258   9.463   3.861  10.225 -0.9652  1.1976  2.1998
  560MOL0     H77259   9.328   3.939  10.144  1.7062  0.6706 -1.0175
  560MOL0     H77260   8.562   4.312  10.263 -2.0649 -2.4708  1.6493
  560MOL0     H77261   8.388   4.425  10.138  0.7914 -0.6672  4.4901
  560MOL0     H77262   8.154   4.559   9.949  3.4398  0.2267 -0.6256
  560MOL0     H77263   7.961   4.704   9.872  1.3307 -0.9396  0.7269
  560MOL0     H77264   8.209   4.886   8.688  1.3269  1.0531  1.7897
  560MOL0     H77265   8.431   4.841   8.783 -0.8560 -0.4566 -0.7075
  560MOL0     H77266   8.777   4.889   8.927  0.3152  0.9230  0.6520
  560MOL0     H77267   8.933   4.811   9.077  3.3570 -0.1345  0.7890
  560MOL0     H77268   9.112   4.567   9.093  0.6472  0.0962  1.2698
  560MOL0     H77269   9.248   4.548   8.990 -0.6639 -1.9126  2.1333
  560MOL0     H77270   9.287   4.510   9.244  1.9480 -1.0737 -2.6988
  560MOL0     H77271   9.250   4.680   9.269  2.1494  1.7764 -0.6412
  560MOL0     H77272   9.450   4.720   9.092 -2.2881  0.1096 -1.6542
  560MOL0     H77273   9.475   4.690   9.263  0.5658 -2.1138  1.4959
  560MOL0     H77274   9.489   4.480   9.039  0.0723 -0.6298 -0.4897
  560MOL0     H77275   9.514   4.450   9.219  1.7326  1.0962  1.0496
  560MOL0     H77276   9.854   4.649   9.052  0.8026 -0.9405  1.0732
  560MOL0     H77277   9.184   4.695   8.750 -0.7808  1.9985 -0.6166
  560MOL0     H77278   8.951   4.667   8.488  0.1400 -0.3449  0.8714
  560MOL0     H77279   9.026   4.832   8.513 -0.4473  0.3802  0.8371
  560MOL0     H77280   9.112   4.677   8.538 -0.2766  0.8582 -0.9934
  561MOL0     O77281   8.170   3.692   2.455  0.6137  0.4188 -0.2842
  561MOL0     C77282   8.240   3.604   2.496 -0.2005  1.1008  0.8825
  561MOL0     O77283   8.205   3.524   2.603 -0.9532  0.2398 -0.0197
  561MOL0     C77284   8.082   3.542   2.665  0.0465 -0.0746 -0.4050
  561MOL0     C77285   8.053   3.666   2.722  0.2788 -1.3188  0.0803
  561MOL0     C77286   7.928   3.688   2.790  0.0225 -0.5018 -0.5557
  561MOL0     C77287   7.849   3.580   2.816 -0.1930  0.9885  0.5110
  561MOL0     O77288   7.727   3.581   2.874  0.2226  0.7267  0.1454
  561MOL0     C77289   7.670   3.699   2.929 -0.1630  0.0908 -0.4899
  561MOL0     C77290   7.539   3.681   3.001 -0.6862  0.3343  1.5326
  561MOL0     C77291   7.434   3.612   2.909 -0.7551 -0.5920 -0.3106
  561MOL0     C77292   7.351   3.714   2.828  0.3430 -0.1405 -0.2166
  561MOL0     C77293   7.276   3.658   2.709 -0.0092  0.3377  0.5113
  561MOL0     C77294   7.162   3.751   2.661 -0.8688 -0.8510 -0.0956
  561MOL0     C77295   7.085   3.678   2.550 -0.6089  1.2136 -0.8698
  561MOL0     C77296   6.979   3.766   2.486 -0.0900  0.5729  0.0878
  561MOL0     N77297   6.923   3.694   2.365  0.4046 -0.4050  0.4681
  561MOL0     C77298   6.930   3.726   2.232  0.7797 -0.4005 -0.6540
  561MOL0     C77299   6.863   3.627   2.166  0.5760  0.8033  1.0917
  561MOL0     C77300   6.836   3.629   2.018  0.0519  0.0276 -0.4999
  561MOL0     C77301   6.690   3.570   1.980  0.6159 -0.3121 -0.2103
  561MOL0     C77302   6.668   3.573   1.822  0.0921 -0.5781  0.1060
  561MOL0     C77303   6.527   3.546   1.768 -0.0353  0.0952 -0.3466
  561MOL0     O77304   6.512   3.410   1.811  0.6175  0.3358  0.6027
  561MOL0     C77305   6.385   3.358   1.827  0.6108  0.2537 -0.4836
  561MOL0     C77306   6.374   3.225   1.863 -0.4986 -0.1038 -0.0530
  561MOL0     C77307   6.250   3.157   1.863  0.0224 -0.4134  0.4297
  561MOL0     C77308   6.252   3.019   1.915  0.5774 -0.9234 -0.1833
  561MOL0     C77309   6.130   3.235   1.836 -0.9857  0.2706 -0.2499
  561MOL0     C77310   5.991   3.179   1.844 -0.4860  0.6265 -0.1037
  561MOL0     O77311   5.977   3.050   1.892  0.6597  0.3166 -0.4702
  561MOL0     C77312   5.852   2.980   1.886 -0.6533  0.3258 -0.1231
  561MOL0     C77313   5.766   2.980   1.773 -0.0495 -0.7524 -0.0384
  561MOL0     C77314   5.661   2.889   1.769  0.7674  0.5259 -0.1550
  561MOL0     C77315   5.637   2.801   1.874 -0.2257 -0.1813 -0.6229
  561MOL0     O77316   5.547   2.704   1.878 -0.5271 -0.6449 -0.0401
  561MOL0     C77317   5.410   2.744   1.838 -0.2042 -0.8854  0.1102
  561MOL0     C77318   5.298   2.645   1.865 -0.7330 -0.5897 -0.2813
  561MOL0     C77319   5.261   2.612   2.017 -0.8391 -0.1484 -0.7898
  561MOL0     C77320   5.139   2.514   2.032  0.2059 -0.2696 -0.2303
  561MOL0     C77321   5.125   2.467   2.176 -0.8714 -0.0902 -0.8985
  561MOL0     C77322   5.194   2.334   2.201  0.1939  1.0730 -0.4496
  561MOL0     C77323   5.246   2.300   2.347  0.2361 -0.3034  0.3230
  561MOL0     C77324   5.324   2.172   2.346  0.7143 -0.6281 -0.2187
  561MOL0    Cl77325   5.231   2.040   2.281  0.3444  0.2279 -0.3319
  561MOL0     C77326   5.709   2.808   1.983 -0.5050  0.8170 -0.8140
  561MOL0     C77327   5.824   2.889   1.990  1.0388 -0.0862  0.5243
  561MOL0     O77328   5.905   3.263   1.819 -0.5881  0.9223  0.0432
  561MOL0     C77329   6.149   3.374   1.801  0.1060  0.9494  0.1513
  561MOL0     C77330   6.273   3.435   1.792 -0.2338  0.0662 -0.5960
  561MOL0     N77331   6.832   3.525   2.257  0.2234 -0.4877  0.0247
  561MOL0     N77332   6.867   3.573   2.373 -0.9065  0.3750 -0.3955
  561MOL0     C77333   7.876   3.459   2.752  0.1792  0.1636  0.4130
  561MOL0     C77334   7.986   3.442   2.675 -0.9470 -0.6382 -0.1046
  561MOL0     C77335   8.375   3.569   2.433  0.1867 -0.6859 -0.6349
  561MOL0     C77336   8.409   3.434   2.440 -0.2817  0.7473  0.0084
  561MOL0     C77337   8.524   3.388   2.381  0.5485 -0.2764  0.0207
  561MOL0     C77338   8.597   3.466   2.294  0.3185 -0.3000  0.2962
  561MOL0     O77339   8.685   3.408   2.212  0.4017  0.2238  0.6202
  561MOL0     C77340   8.674   3.428   2.070  0.4850 -0.0665 -0.8200
  561MOL0     C77341   8.684   3.300   1.996 -0.1707 -0.0906  0.6043
  561MOL0     C77342   8.721   3.318   1.843  0.1677  0.6937  0.6419
  561MOL0     C77343   8.616   3.405   1.776  0.9460  0.6930 -1.0319
  561MOL0     C77344   8.632   3.375   1.635  0.0390 -0.6059  0.9477
  561MOL0     C77345   8.637   3.360   1.513  0.6173  1.1686  0.2692
  561MOL0     C77346   8.565   3.609   2.288  1.3948  0.3167 -1.0996
  561MOL0     C77347   8.458   3.658   2.366  0.3780 -0.3169 -0.6149
  561MOL0     C77348   8.421   3.808   2.377  0.6081 -0.2087  0.2892
  561MOL0     H77349   8.125   3.748   2.726 -0.6501 -0.5013  0.3785
  561MOL0     H77350   7.897   3.789   2.814 -3.4682 -1.5431 -0.2261
  561MOL0     H77351   7.656   3.769   2.846  0.1095 -0.2705 -0.8403
  561MOL0     H77352   7.739   3.758   2.990  1.6908 -1.7520 -0.7198
  561MOL0     H77353   7.548   3.623   3.093  1.9999  0.4487  1.4276
  561MOL0     H77354   7.501   3.781   3.020 -1.9521  0.3620 -0.8083
  561MOL0     H77355   7.480   3.524   2.863 -2.1231 -1.7079  0.3588
  561MOL0     H77356   7.365   3.559   2.975 -1.1667 -0.4757 -0.6428
  561MOL0     H77357   7.282   3.763   2.896  1.5201 -2.5657  3.0094
  561MOL0     H77358   7.420   3.794   2.800  1.0676 -0.7930 -0.3419
  561MOL0     H77359   7.230   3.560   2.724  1.2016 -0.6098 -1.5112
  561MOL0     H77360   7.346   3.655   2.625 -1.4466  0.2332 -0.7237
  561MOL0     H77361   7.096   3.772   2.746 -0.0843  1.9812 -0.0954
  561MOL0     H77362   7.196   3.846   2.620 -1.2217 -0.2803  0.9091
  561MOL0     H77363   7.030   3.594   2.592 -1.8219  1.2029 -2.3772
  561MOL0     H77364   7.145   3.659   2.461  1.4558  0.2076  0.6632
  561MOL0     H77365   6.900   3.783   2.560  0.7980  2.6478  0.6308
  561MOL0     H77366   7.019   3.862   2.453  2.4004 -1.0323 -1.9211
  561MOL0     H77367   6.960   3.814   2.177 -0.0843  0.2405 -0.1345
  561MOL0     H77368   6.909   3.568   1.964 -1.3599 -1.3154 -0.9540
  561MOL0     H77369   6.838   3.733   1.985 -0.9319  0.2334  0.0464
  561MOL0     H77370   6.681   3.463   2.000  0.9926 -0.3076 -0.0114
  561MOL0     H77371   6.609   3.620   2.035 -0.5920 -3.2737  0.8659
  561MOL0     H77372   6.686   3.676   1.790 -4.1549 -0.5356 -3.0563
  561MOL0     H77373   6.735   3.511   1.763 -2.0036 -0.9498 -2.0579
  561MOL0     H77374   6.443   3.610   1.795 -1.5971 -1.7375 -0.5782
  561MOL0     H77375   6.535   3.559   1.659 -0.8688  2.6223 -0.1530
  561MOL0     H77376   6.467   3.171   1.883 -1.0205 -0.9198  0.2232
  561MOL0     H77377   6.349   2.989   1.954  2.2691  4.2782  0.4147
  561MOL0     H77378   6.213   2.955   1.835 -2.7444  0.6101 -0.0022
  561MOL0     H77379   6.192   3.017   2.007 -0.1475 -0.7793 -0.6448
  561MOL0     H77380   5.785   3.033   1.680  1.9266  1.2750  1.3962
  561MOL0     H77381   5.588   2.898   1.690 -1.4676 -0.8114  1.6262
  561MOL0     H77382   5.389   2.846   1.874  0.6602 -0.5763 -0.2260
  561MOL0     H77383   5.402   2.751   1.729 -2.2880  0.9217  0.2914
  561MOL0     H77384   5.207   2.665   1.808 -0.9107  0.7868  0.4573
  561MOL0     H77385   5.337   2.549   1.829  0.9359  0.5863 -1.8253
  561MOL0     H77386   5.260   2.705   2.074 -1.8350 -1.5479  1.6954
  561MOL0     H77387   5.339   2.559   2.074 -0.7332  1.3487  0.5244
  561MOL0     H77388   5.147   2.435   1.957 -1.3592 -0.1945 -0.5055
  561MOL0     H77389   5.051   2.571   2.000 -0.4742 -0.6911  0.8202
  561MOL0     H77390   5.149   2.540   2.254 -1.4524 -0.4868 -0.3384
  561MOL0     H77391   5.019   2.438   2.180 -0.2570 -2.5822 -0.7597
  561MOL0     H77392   5.273   2.331   2.126 -1.1730 -0.6747 -1.9232
  561MOL0     H77393   5.126   2.254   2.172  3.5349 -1.0128 -3.2496
  561MOL0     H77394   5.171   2.290   2.427  0.1976  0.7626  0.4351
  561MOL0     H77395   5.309   2.382   2.385 -1.8663  0.2330  3.0594
  561MOL0     H77396   5.353   2.128   2.442 -1.8700 -0.4360  0.7416
  561MOL0     H77397   5.412   2.191   2.284  0.8721  0.4723  0.3175
  561MOL0     H77398   5.702   2.736   2.063  1.5555  1.1289 -0.3029
  561MOL0     H77399   5.888   2.888   2.078 -1.1611  2.8892  2.3335
  561MOL0     H77400   6.059   3.432   1.785 -0.4917 -0.1331 -0.5446
  561MOL0     H77401   6.259   3.537   1.759 -0.9366 -0.4612 -2.0111
  561MOL0     H77402   7.812   3.372   2.756  0.2050  0.1518  0.5724
  561MOL0     H77403   8.001   3.346   2.628 -2.6653 -1.4630  0.9336
  561MOL0     H77404   8.357   3.355   2.494 -1.8246  0.4402 -1.8132
  561MOL0     H77405   8.551   3.284   2.391  0.2231 -0.4505 -0.7647
  561MOL0     H77406   8.590   3.493   2.043  1.9254  1.8457 -0.8190
  561MOL0     H77407   8.760   3.484   2.034  0.5845  0.8501  0.7536
  561MOL0     H77408   8.593   3.240   2.000 -0.6869  0.6609  0.3853
  561MOL0     H77409   8.766   3.248   2.046  1.6996  0.1819 -1.9334
  561MOL0     H77410   8.819   3.365   1.835  1.2847 -1.5126  0.6262
  561MOL0     H77411   8.727   3.220   1.794  0.2043  1.2179 -0.4354
  561MOL0     H77412   8.607   3.512   1.796  0.7102  0.6926 -1.1322
  561MOL0     H77413   8.526   3.353   1.810  1.7218 -0.4271 -0.6218
  561MOL0     H77414   8.614   3.336   1.411  1.9404 -0.3611  0.2782
  561MOL0     H77415   8.629   3.671   2.226  2.5464  0.4845  0.2015
  561MOL0     H77416   8.506   3.869   2.345  1.1530 -0.5242  1.1115
  561MOL0     H77417   8.329   3.819   2.319 -0.2596 -1.2722  1.3961
  561MOL0     H77418   8.401   3.839   2.480 -1.3237 -1.0789  0.2145
  562MOL0     O77419   7.564  10.362   4.896 -0.5070  0.5753 -0.4003
  562MOL0     C77420   7.542  10.363   5.016  0.0182  0.1905 -0.2776
  562MOL0     O77421   7.589  10.271   5.103 -0.1639 -0.3346 -0.3026
  562MOL0     C77422   7.653  10.166   5.043 -0.1003  0.1782 -1.0164
  562MOL0     C77423   7.787  10.168   4.999  1.1000  0.2247  0.2840
  562MOL0     C77424   7.848  10.056   4.949 -0.0252  0.0779 -0.4982
  562MOL0     C77425   7.776   9.929   4.942 -0.1013 -0.2091 -0.4010
  562MOL0     O77426   7.835   9.828   4.883  0.1956  0.0027 -0.2743
  562MOL0     C77427   7.805   9.699   4.930 -0.1119  0.1538 -0.2224
  562MOL0     C77428   7.883   9.590   4.860 -0.1980  0.6036 -0.5191
  562MOL0     C77429   8.035   9.603   4.903 -0.0700  0.3849 -0.2929
  562MOL0     C77430   8.138   9.529   4.832  0.1081  0.4953 -0.6712
  562MOL0     C77431   8.121   9.381   4.842  0.2062 -0.0782 -0.0113
  562MOL0     C77432   8.180   9.330   4.979 -0.1722 -0.1799 -0.3295
  562MOL0     C77433   8.230   9.188   4.964 -0.5102 -0.0450  0.0134
  562MOL0     C77434   8.126   9.082   4.931  0.6994 -0.4265 -0.0297
  562MOL0     N77435   8.175   8.980   4.834 -0.4364  0.2710  0.1045
  562MOL0     C77436   8.128   8.848   4.813 -0.0078 -0.6103  0.1129
  562MOL0     C77437   8.194   8.809   4.703 -0.4493 -0.3542  0.4585
  562MOL0     C77438   8.183   8.686   4.613  1.3055  0.0631 -0.2736
  562MOL0     C77439   8.061   8.684   4.523  0.6422 -0.2889  0.2055
  562MOL0     C77440   8.023   8.556   4.450  0.7305  0.3667 -0.7202
  562MOL0     C77441   8.123   8.494   4.352 -0.1346 -0.9576  0.8096
  562MOL0     O77442   8.156   8.589   4.246  0.4001 -1.0252  0.1830
  562MOL0     C77443   8.204   8.527   4.135 -0.6376 -0.2038 -0.0395
  562MOL0     C77444   8.328   8.465   4.146 -0.5451 -0.9780 -0.3898
  562MOL0     C77445   8.373   8.376   4.046  0.1459 -0.4966  0.3982
  562MOL0     C77446   8.504   8.298   4.067  0.3133  0.6321 -0.4287
  562MOL0     C77447   8.310   8.379   3.918 -1.1168  0.2378  0.6034
  562MOL0     C77448   8.362   8.314   3.793  0.2758  0.4210 -0.0424
  562MOL0     O77449   8.302   8.347   3.679 -0.7794 -0.2167  0.1012
  562MOL0     C77450   8.360   8.319   3.557 -0.3634 -0.0353 -1.1061
  562MOL0     C77451   8.278   8.286   3.452 -0.1981  1.0407  0.3026
  562MOL0     C77452   8.327   8.244   3.329 -0.3198  0.2139  0.7085
  562MOL0     C77453   8.460   8.246   3.304 -0.7594  0.8316  0.4980
  562MOL0     O77454   8.515   8.210   3.181 -0.0287  1.2286  0.6688
  562MOL0     C77455   8.445   8.120   3.101 -0.2487  0.3480  0.0068
  562MOL0     C77456   8.540   8.041   3.008 -0.5172  0.3889 -0.2868
  562MOL0     C77457   8.497   7.891   2.990  0.5316 -0.1739 -0.3701
  562MOL0     C77458   8.388   7.869   2.880  0.1312 -0.3514 -0.5396
  562MOL0     C77459   8.347   7.712   2.883 -0.2387 -0.1864  0.3503
  562MOL0     C77460   8.248   7.682   2.993 -0.9302  0.1824  1.2861
  562MOL0     C77461   8.232   7.528   3.001  0.9880 -0.1718  0.4376
  562MOL0     C77462   8.147   7.483   3.106  0.2957  0.2183 -0.0450
  562MOL0    Cl77463   8.000   7.566   3.125  0.0596  0.3781  0.6171
  562MOL0     C77464   8.544   8.300   3.409 -0.6575  0.0492  0.0270
  562MOL0     C77465   8.499   8.329   3.536 -0.4282  0.3861  0.1672
  562MOL0     O77466   8.449   8.228   3.807  0.3519  0.6815 -0.0541
  562MOL0     C77467   8.199   8.466   3.906  0.6944 -0.5051  0.8142
  562MOL0     C77468   8.139   8.534   4.016  0.0018  0.2175 -0.2016
  562MOL0     N77469   8.278   8.917   4.657 -0.2736  0.9043  0.2853
  562MOL0     N77470   8.256   9.019   4.732  0.0936 -0.2882  0.3094
  562MOL0     C77471   7.645   9.931   4.999  0.8192 -0.5845  0.7892
  562MOL0     C77472   7.590  10.048   5.044  0.6427  0.2022 -0.5138
  562MOL0     C77473   7.470  10.485   5.055  0.6079  0.7279  0.0391
  562MOL0     C77474   7.527  10.602   5.022  0.5027 -1.4428 -0.2465
  562MOL0     C77475   7.458  10.727   5.047 -0.0112 -0.0092  0.4795
  562MOL0     C77476   7.331  10.726   5.103 -0.0877 -0.1797  0.4441
  562MOL0     O77477   7.267  10.849   5.120 -0.3631  0.5457  0.2686
  562MOL0     C77478   7.127  10.859   5.131  0.3724  0.1202  0.3613
  562MOL0     C77479   7.034  10.790   5.026 -0.0235  0.9947 -0.4785
  562MOL0     C77480   7.079  10.825   4.887 -0.2597  0.4045  0.5299
  562MOL0     C77481   7.143  10.706   4.804  0.6354 -0.4280 -0.4969
  562MOL0     C77482   7.041  10.604   4.782  0.4850  0.1145  0.3334
  562MOL0     C77483   6.960  10.516   4.764  0.7556  0.5705 -0.5592
  562MOL0     C77484   7.274  10.596   5.136 -0.0306  0.3789 -0.3832
  562MOL0     C77485   7.342  10.482   5.114  0.0875  0.5794 -0.9659
  562MOL0     C77486   7.274  10.347   5.147  0.6205 -0.2499  0.0665
  562MOL0     H77487   7.842  10.260   5.016 -1.3672  1.3477  3.2616
  562MOL0     H77488   7.950  10.055   4.910  0.8512 -1.4724  1.6622
  562MOL0     H77489   7.699   9.684   4.909  0.0392 -0.2550 -0.6967
  562MOL0     H77490   7.819   9.703   5.039 -3.5614 -1.5251  0.4130
  562MOL0     H77491   7.839   9.493   4.888 -1.8595  1.5089  0.1618
  562MOL0     H77492   7.876   9.598   4.751 -0.6506 -1.9589 -0.7491
  562MOL0     H77493   8.061   9.706   4.877 -1.7009  1.3228  1.5454
  562MOL0     H77494   8.042   9.596   5.012 -2.9505  0.5885 -0.0183
  562MOL0     H77495   8.124   9.554   4.727 -2.0562  0.9387 -0.3278
  562MOL0     H77496   8.239   9.552   4.867  0.0748  1.8280 -1.3747
  562MOL0     H77497   8.171   9.341   4.753 -0.7227  0.1070 -0.6305
  562MOL0     H77498   8.018   9.346   4.826  0.5653 -0.7483 -0.9374
  562MOL0     H77499   8.265   9.389   5.016 -0.4308  0.0765 -0.1427
  562MOL0     H77500   8.105   9.330   5.058 -0.2433  1.7528 -0.3552
  562MOL0     H77501   8.283   9.173   5.059  2.3452  3.0186 -0.9130
  562MOL0     H77502   8.304   9.199   4.884 -1.3254 -0.4560 -0.8125
  562MOL0     H77503   8.097   9.024   5.019 -0.4230  0.9674  0.5650
  562MOL0     H77504   8.032   9.122   4.892  0.1161 -0.6426  1.1145
  562MOL0     H77505   8.049   8.793   4.864 -1.7080  2.1439  0.6715
  562MOL0     H77506   8.180   8.606   4.687  0.4694  2.4956  2.5159
  562MOL0     H77507   8.278   8.680   4.560  2.2802 -4.2720  1.4863
  562MOL0     H77508   7.968   8.716   4.572  0.2152  1.0074 -1.3656
  562MOL0     H77509   8.078   8.756   4.442  0.0963  0.8512  1.0703
  562MOL0     H77510   7.985   8.483   4.522  2.1611  1.5199  1.3024
  562MOL0     H77511   7.941   8.580   4.381  0.8781 -0.8536 -1.3472
  562MOL0     H77512   8.215   8.459   4.399 -0.9245 -0.1851  3.0851
  562MOL0     H77513   8.072   8.411   4.303  1.1856 -0.0901 -2.2325
  562MOL0     H77514   8.374   8.470   4.244 -2.9448 -0.1415  0.7806
  562MOL0     H77515   8.556   8.327   4.159  2.1443  3.1306 -2.1345
  562MOL0     H77516   8.570   8.313   3.981 -1.5755  1.3308 -1.8239
  562MOL0     H77517   8.480   8.192   4.083 -4.4704  1.5849  0.3465
  562MOL0     H77518   8.173   8.272   3.475  0.4979 -0.6370  2.9291
  562MOL0     H77519   8.261   8.206   3.251  0.0660  0.5666  0.2057
  562MOL0     H77520   8.407   8.052   3.178 -0.2913 -1.4830 -1.5480
  562MOL0     H77521   8.374   8.177   3.041 -1.6197  0.1305  1.3458
  562MOL0     H77522   8.542   8.091   2.911 -0.8845  0.0489 -0.4725
  562MOL0     H77523   8.635   8.056   3.060 -0.0272  3.6456 -1.8972
  562MOL0     H77524   8.448   7.866   3.085 -1.5358  0.5608 -1.1805
  562MOL0     H77525   8.577   7.817   2.981 -0.9255 -1.8725  0.1281
  562MOL0     H77526   8.442   7.891   2.788  2.5110  2.3799  1.3142
  562MOL0     H77527   8.306   7.938   2.901  1.3707  0.9756  0.2366
  562MOL0     H77528   8.289   7.695   2.792  1.4367  1.5349 -1.1259
  562MOL0     H77529   8.432   7.643   2.883 -0.1513 -0.0820  0.5594
  562MOL0     H77530   8.150   7.728   2.973 -1.0908 -0.3727  0.7675
  562MOL0     H77531   8.277   7.711   3.095 -0.1901 -0.5981  1.3006
  562MOL0     H77532   8.327   7.483   3.030  1.6659  2.5964  3.0608
  562MOL0     H77533   8.183   7.500   2.908 -1.2606  0.9885  1.1978
  562MOL0     H77534   8.205   7.489   3.199  2.9900  1.5261 -1.7147
  562MOL0     H77535   8.127   7.376   3.096  5.0323 -0.8941 -0.1567
  562MOL0     H77536   8.651   8.299   3.387 -0.7657 -0.1195 -0.5042
  562MOL0     H77537   8.566   8.359   3.616  0.9605 -1.4211 -0.2722
  562MOL0     H77538   8.148   8.482   3.812  0.2462  0.5928  1.2341
  562MOL0     H77539   8.051   8.596   4.005  0.2904  0.2992 -2.5207
  562MOL0     H77540   7.575   9.849   4.983  0.1253 -0.1884  1.7168
  562MOL0     H77541   7.484  10.053   5.070  1.3027 -1.9074  3.3688
  562MOL0     H77542   7.626  10.618   4.982  0.9279  2.7638  1.9180
  562MOL0     H77543   7.507  10.821   5.023 -0.5606 -0.0129 -0.7574
  562MOL0     H77544   7.090  10.814   5.224 -2.9126  0.1548 -0.7685
  562MOL0     H77545   7.107  10.966   5.125 -0.8675 -0.1521 -0.8991
  562MOL0     H77546   6.932  10.828   5.042 -0.3453 -0.3248  0.8026
  562MOL0     H77547   7.036  10.682   5.043  1.2941  1.0662 -0.1234
  562MOL0     H77548   7.009  10.887   4.831  0.3499  0.1224 -0.5730
  562MOL0     H77549   7.160  10.898   4.891 -2.3407  2.9866 -1.6887
  562MOL0     H77550   7.235  10.668   4.849  0.4954  0.3891  0.5097
  562MOL0     H77551   7.175  10.757   4.712  1.5921 -0.6610 -0.2975
  562MOL0     H77552   6.892  10.433   4.755  0.5874  0.8508 -2.2859
  562MOL0     H77553   7.181  10.587   5.192  0.6977  0.3270  0.8445
  562MOL0     H77554   7.165  10.357   5.152  0.5257  0.8051 -2.6942
  562MOL0     H77555   7.300  10.282   5.062 -0.3397 -0.4718 -0.0682
  562MOL0     H77556   7.304  10.308   5.245  1.3265  0.6880  0.2401
  563MOL0     O77557   9.634   3.957   5.274 -0.8748 -0.2400  0.3314
  563MOL0     C77558   9.559   3.880   5.214 -0.8316 -0.3852 -1.2256
  563MOL0     O77559   9.542   3.753   5.254 -0.1257  0.3115  0.2188
  563MOL0     C77560   9.641   3.697   5.334 -0.3054 -0.0497 -0.4800
  563MOL0     C77561   9.718   3.590   5.289  0.0597  0.0593 -0.0460
  563MOL0     C77562   9.820   3.526   5.355  0.6223 -0.6644 -0.6882
  563MOL0     C77563   9.847   3.580   5.482 -0.5789 -0.2115 -0.4201
  563MOL0     O77564   9.935   3.506   5.561  0.4773  0.0504 -0.0798
  563MOL0     C77565   9.995   3.553   5.680  0.0637  1.4010 -0.2181
  563MOL0     C77566  10.084   3.436   5.739 -0.6967 -0.0375  0.9135
  563MOL0     C77567  10.188   3.374   5.642  0.5998  0.3986  0.3816
  563MOL0     C77568  10.290   3.283   5.714 -0.1203 -0.2090  0.8536
  563MOL0     C77569  10.404   3.240   5.619  0.0665 -0.0939  0.0156
  563MOL0     C77570  10.504   3.162   5.710 -0.1232 -0.2221  0.2503
  563MOL0     C77571  10.614   3.095   5.621  0.5304  0.4391  0.2447
  563MOL0     C77572  10.741   3.170   5.612 -0.1384 -0.5083 -0.1215
  563MOL0     N77573  10.742   3.280   5.509 -0.2182 -0.3707  0.7473
  563MOL0     C77574  10.723   3.268   5.372 -0.6110 -0.2426 -0.4516
  563MOL0     C77575  10.779   3.379   5.321 -0.4231  0.1921  0.3641
  563MOL0     C77576  10.776   3.425   5.177 -0.6142  0.0437  0.6994
  563MOL0     C77577  10.634   3.473   5.131  0.1994  0.3331  0.2008
  563MOL0     C77578  10.616   3.566   5.010  0.8568 -0.2011 -0.5100
  563MOL0     C77579  10.660   3.500   4.876 -0.2901 -1.0697 -1.1195
  563MOL0     O77580  10.792   3.449   4.876 -0.6895  0.1914  0.4538
  563MOL0     C77581  10.906   3.534   4.853  0.6394  0.3823 -0.5918
  563MOL0     C77582  11.036   3.476   4.863 -0.0299  1.0447 -0.4401
  563MOL0     C77583  11.153   3.547   4.833  0.0265 -0.4661  0.4362
  563MOL0     C77584  11.285   3.478   4.855 -0.4378  0.1929  0.3995
  563MOL0     C77585  11.140   3.692   4.797  0.6589  0.3250  0.1404
  563MOL0     C77586  11.242   3.788   4.783 -0.4089  0.0796  1.5620
  563MOL0     O77587  11.373   3.740   4.772  0.0222 -0.2254 -0.4704
  563MOL0     C77588  11.471   3.806   4.697 -0.4371 -0.1130 -0.3654
  563MOL0     C77589  11.490   3.940   4.721 -0.0752 -0.4451  0.2473
  563MOL0     C77590  11.580   4.020   4.642  0.3121  0.9787 -0.1576
  563MOL0     C77591  11.648   3.960   4.539 -0.9364  0.1503  0.5595
  563MOL0     O77592  11.742   4.034   4.474 -0.4998 -0.2454 -0.4927
  563MOL0     C77593  11.700   4.158   4.410  0.3905 -0.4118  0.2115
  563MOL0     C77594  11.774   4.278   4.484  0.0206 -0.1049 -0.1781
  563MOL0     C77595  11.923   4.248   4.522  0.3821  0.4492  0.6238
  563MOL0     C77596  11.985   4.378   4.574 -0.0227  0.0508  0.1196
  563MOL0     C77597  12.139   4.368   4.612 -0.5366  0.2866  0.2316
  563MOL0     C77598  12.177   4.242   4.687 -0.0055  0.4481 -0.7191
  563MOL0     C77599  12.322   4.265   4.730  0.4565 -0.8447 -0.5502
  563MOL0     C77600  12.387   4.167   4.833 -0.2961 -0.1336  0.8539
  563MOL0    Cl77601  12.304   4.170   4.989 -0.3983 -0.2594 -0.1459
  563MOL0     C77602  11.619   3.827   4.503 -0.2540  0.5168 -0.6416
  563MOL0     C77603  11.541   3.750   4.589  0.5394 -0.0161 -1.0623
  563MOL0     O77604  11.218   3.912   4.799 -0.2759  0.5903 -0.0887
  563MOL0     C77605  11.004   3.751   4.790 -0.4630  0.1476 -0.2507
  563MOL0     C77606  10.891   3.671   4.831  0.4611 -0.1250  0.4629
  563MOL0     N77607  10.808   3.464   5.425  0.3177 -0.1831  0.5131
  563MOL0     N77608  10.776   3.410   5.537  0.4798  0.3170 -0.1149
  563MOL0     C77609   9.774   3.682   5.536 -0.2844 -0.3395 -0.0516
  563MOL0     C77610   9.674   3.746   5.462  1.0406  0.0192 -0.7429
  563MOL0     C77611   9.479   3.937   5.103  0.3676 -0.5444 -0.4790
  563MOL0     C77612   9.342   3.882   5.094  0.1294 -0.1688 -0.6119
  563MOL0     C77613   9.268   3.915   4.989  0.2017 -0.2484  0.6136
  563MOL0     C77614   9.309   4.011   4.892  0.2406  0.8762  0.2123
  563MOL0     O77615   9.216   4.031   4.787  0.9445 -0.4571 -0.8326
  563MOL0     C77616   9.254   4.132   4.692 -0.2634  0.3105  0.4475
  563MOL0     C77617   9.356   4.088   4.586  0.1852  0.3029 -0.0588
  563MOL0     C77618   9.316   3.961   4.507  0.2705  0.5986 -0.7112
  563MOL0     C77619   9.430   3.922   4.408 -0.1599 -0.5132 -0.8778
  563MOL0     C77620   9.539   3.856   4.481  0.0485  0.5630 -1.6234
  563MOL0     C77621   9.637   3.815   4.543  0.1003  0.0343  0.1960
  563MOL0     C77622   9.439   4.078   4.901  0.3240  0.1753 -0.0037
  563MOL0     C77623   9.519   4.039   5.010 -0.3139  0.8339 -0.9819
  563MOL0     C77624   9.648   4.098   5.021  0.0026 -0.5811 -0.1686
  563MOL0     H77625   9.698   3.566   5.185  1.5331 -0.2206 -0.2828
  563MOL0     H77626   9.881   3.441   5.325 -1.4945 -1.9613 -1.5308
  563MOL0     H77627   9.914   3.568   5.752 -0.3070 -0.3254 -0.2289
  563MOL0     H77628  10.055   3.640   5.654  4.2779 -1.3011 -0.4795
  563MOL0     H77629  10.135   3.485   5.822 -1.8966  4.9486 -0.9677
  563MOL0     H77630  10.022   3.349   5.763 -0.2437 -0.1716  1.6134
  563MOL0     H77631  10.143   3.324   5.556  1.2646 -0.4083  0.4825
  563MOL0     H77632  10.257   3.448   5.600  2.9529 -2.4529 -1.1439
  563MOL0     H77633  10.329   3.334   5.803 -0.2833 -1.6783  1.7963
  563MOL0     H77634  10.242   3.196   5.760  1.6447 -1.4433  0.4486
  563MOL0     H77635  10.448   3.331   5.576  0.0513 -0.0572  0.0778
  563MOL0     H77636  10.371   3.178   5.535  3.7740 -0.8869 -1.0397
  563MOL0     H77637  10.547   3.221   5.791 -0.6325  1.2630 -0.5383
  563MOL0     H77638  10.449   3.080   5.757  2.1598 -1.8706  0.2305
  563MOL0     H77639  10.573   3.055   5.528  0.4679 -0.7482  0.7673
  563MOL0     H77640  10.653   3.006   5.671  0.1895  0.6664  0.9203
  563MOL0     H77641  10.758   3.217   5.710  0.6569  0.3708 -0.6715
  563MOL0     H77642  10.821   3.101   5.585  0.7695  0.1926  0.7050
  563MOL0     H77643  10.680   3.181   5.323 -0.0587 -0.7142 -0.1000
  563MOL0     H77644  10.808   3.343   5.112 -3.6759 -1.1921  0.5482
  563MOL0     H77645  10.853   3.502   5.171  0.4730 -1.1296 -1.3008
  563MOL0     H77646  10.561   3.392   5.125 -1.5318  1.6151  2.1803
  563MOL0     H77647  10.603   3.528   5.220 -0.2279  1.6340 -0.7278
  563MOL0     H77648  10.510   3.590   4.999  0.7556  0.1830  1.1250
  563MOL0     H77649  10.664   3.659   5.042 -1.2596  0.2152  1.7307
  563MOL0     H77650  10.595   3.413   4.861 -2.3906  0.4335 -1.1700
  563MOL0     H77651  10.650   3.577   4.800 -1.7274  0.3944  0.4959
  563MOL0     H77652  11.042   3.374   4.900  1.0135  1.6651  1.1608
  563MOL0     H77653  11.284   3.389   4.918 -1.9017  1.6973  2.6614
  563MOL0     H77654  11.353   3.545   4.907 -0.1586 -1.1838  1.8537
  563MOL0     H77655  11.321   3.453   4.755 -0.4215  0.1654  0.4128
  563MOL0     H77656  11.434   3.971   4.808 -1.0526  1.0218 -0.8362
  563MOL0     H77657  11.587   4.124   4.674 -4.4624  1.4731  0.1095
  563MOL0     H77658  11.724   4.149   4.303  2.3398 -3.0979  0.7609
  563MOL0     H77659  11.592   4.174   4.419  0.0986  2.8815 -4.9465
  563MOL0     H77660  11.764   4.366   4.420 -3.5391  0.9096  1.5283
  563MOL0     H77661  11.719   4.301   4.576  0.6777 -0.0125  0.1990
  563MOL0     H77662  11.973   4.214   4.431 -0.3962  0.3356  0.2258
  563MOL0     H77663  11.924   4.171   4.600  1.4943  0.4602  0.6365
  563MOL0     H77664  11.929   4.377   4.668  1.3242 -0.3761  0.9538
  563MOL0     H77665  11.963   4.461   4.507 -1.4185 -0.1378  0.3203
  563MOL0     H77666  12.197   4.363   4.519 -0.8031 -1.1810  0.1187
  563MOL0     H77667  12.165   4.463   4.660  1.1406  1.3577 -2.5680
  563MOL0     H77668  12.162   4.157   4.620 -0.5059  0.4105 -0.5678
  563MOL0     H77669  12.110   4.228   4.772  2.9146  2.6521  2.2216
  563MOL0     H77670  12.327   4.362   4.781 -2.4229 -0.7678 -0.2768
  563MOL0     H77671  12.375   4.270   4.634 -0.3695 -0.9028 -1.0115
  563MOL0     H77672  12.489   4.204   4.849 -0.2567 -0.4610  1.4232
  563MOL0     H77673  12.385   4.065   4.792 -0.1910 -0.4971  1.7130
  563MOL0     H77674  11.658   3.800   4.405 -0.2571  0.4471 -0.6237
  563MOL0     H77675  11.522   3.646   4.568  0.9934 -0.5740  0.9748
  563MOL0     H77676  10.981   3.853   4.764 -2.1542 -0.0823  0.2382
  563MOL0     H77677  10.794   3.719   4.832  0.1373 -0.7698  0.8820
  563MOL0     H77678   9.788   3.692   5.644  1.4213 -1.9277 -0.0671
  563MOL0     H77679   9.612   3.829   5.495  2.9671  2.0363 -1.9691
  563MOL0     H77680   9.293   3.817   5.165 -0.7324 -1.3928 -2.2799
  563MOL0     H77681   9.175   3.863   4.966  0.5856 -0.8912  0.4936
  563MOL0     H77682   9.160   4.155   4.641 -0.3553 -1.1125 -0.0795
  563MOL0     H77683   9.292   4.224   4.739  1.8573  0.6762 -1.7444
  563MOL0     H77684   9.444   4.064   4.646 -2.0418  0.9450  3.8204
  563MOL0     H77685   9.356   4.175   4.520  0.9016 -0.5284 -1.1782
  563MOL0     H77686   9.299   3.878   4.576 -1.6649  0.2352 -1.5677
  563MOL0     H77687   9.224   3.982   4.451  0.6707  0.1555 -1.5651
  563MOL0     H77688   9.462   4.017   4.365 -0.8282 -0.2435 -0.7991
  563MOL0     H77689   9.401   3.850   4.330 -1.3458 -0.9194 -0.0919
  563MOL0     H77690   9.724   3.772   4.586 -1.0257 -1.7099  0.8583
  563MOL0     H77691   9.462   4.161   4.835 -2.5043  1.2494  0.2391
  563MOL0     H77692   9.683   4.143   4.928 -2.5951 -2.9701 -2.5015
  563MOL0     H77693   9.648   4.168   5.105 -0.0076 -1.1830  0.3407
  563MOL0     H77694   9.728   4.031   5.052  2.2369  1.7630 -0.5634
  564MOL0     O77695  10.946   3.263   2.223 -0.1107 -0.5097  0.1896
  564MOL0     C77696  10.918   3.205   2.117 -0.7246  0.4033 -0.5911
  564MOL0     O77697  10.831   3.093   2.106 -0.8023  0.3760  0.2396
  564MOL0     C77698  10.726   3.058   2.186  0.6144 -0.2569 -0.3884
  564MOL0     C77699  10.668   2.935   2.156 -0.6694  1.3000 -0.8041
  564MOL0     C77700  10.559   2.901   2.234 -0.2026  0.0493  0.8076
  564MOL0     C77701  10.502   2.978   2.338 -0.7315 -0.3892 -0.7660
  564MOL0     O77702  10.406   2.929   2.412 -0.6333  0.6583 -0.4835
  564MOL0     C77703  10.322   3.019   2.488 -0.3648 -0.5149 -0.5554
  564MOL0     C77704  10.193   2.953   2.513 -0.0510 -0.4403 -0.4489
  564MOL0     C77705  10.198   2.837   2.617 -0.5992 -0.1901  0.0029
  564MOL0     C77706  10.075   2.755   2.601  0.1648  1.0652  1.3171
  564MOL0     C77707  10.043   2.645   2.707  0.7822 -1.2377 -0.3067
  564MOL0     C77708   9.900   2.596   2.714 -0.3392 -0.1218 -0.2850
  564MOL0     C77709   9.844   2.529   2.586 -0.7280  1.0983 -0.0105
  564MOL0     C77710   9.699   2.462   2.607 -0.0558 -0.1995 -0.0216
  564MOL0     N77711   9.691   2.341   2.533  0.3405 -0.2338 -0.1911
  564MOL0     C77712   9.642   2.319   2.407 -0.8687  0.2173 -0.0414
  564MOL0     C77713   9.664   2.183   2.389 -0.5940 -0.9357  0.0359
  564MOL0     C77714   9.621   2.123   2.269  0.1226 -0.6638  0.3151
  564MOL0     C77715   9.738   2.069   2.195 -0.1183  0.7699 -0.1438
  564MOL0     C77716   9.702   2.005   2.067 -0.4070  0.1603  0.5536
  564MOL0     C77717   9.827   1.965   1.976 -0.1952 -1.1440  0.2687
  564MOL0     O77718   9.895   2.092   1.944 -0.2436 -0.9170 -0.7720
  564MOL0     C77719   9.845   2.166   1.844 -0.5099  0.0700 -0.0563
  564MOL0     C77720   9.889   2.296   1.829  0.1942 -0.0003  0.3004
  564MOL0     C77721   9.825   2.383   1.733 -0.8523 -1.2552  0.0049
  564MOL0     C77722   9.873   2.525   1.722  0.3938  0.4595  0.1555
  564MOL0     C77723   9.719   2.332   1.652  0.2592  0.3318  0.2301
  564MOL0     C77724   9.647   2.411   1.551 -0.1658  0.1910  0.8414
  564MOL0     O77725   9.647   2.551   1.558  0.6525 -0.2762 -0.3933
  564MOL0     C77726   9.573   2.625   1.467 -0.1782 -0.5471 -0.1136
  564MOL0     C77727   9.463   2.695   1.518  0.1172  0.0454  0.3299
  564MOL0     C77728   9.395   2.785   1.437 -0.2045 -0.5450  0.4419
  564MOL0     C77729   9.437   2.804   1.298 -0.7606  0.0514 -0.4037
  564MOL0     O77730   9.385   2.903   1.212  1.1317  0.1803 -0.0239
  564MOL0     C77731   9.366   3.025   1.274 -0.8301 -0.2143 -0.0318
  564MOL0     C77732   9.452   3.134   1.205 -0.4005 -0.7146  0.7310
  564MOL0     C77733   9.599   3.115   1.259  0.5606 -0.0678  0.2197
  564MOL0     C77734   9.687   3.225   1.206  0.0704 -0.9144  0.5749
  564MOL0     C77735   9.674   3.352   1.294  0.7481  0.3008 -0.0841
  564MOL0     C77736   9.549   3.449   1.273 -0.3775 -0.3318 -0.2281
  564MOL0     C77737   9.576   3.595   1.331 -0.3649  0.9977  0.7929
  564MOL0     C77738   9.571   3.595   1.480 -0.8113 -0.3414 -0.5962
  564MOL0    Cl77739   9.572   3.770   1.553  0.0710 -0.5550 -0.1068
  564MOL0     C77740   9.545   2.728   1.252 -1.1879  0.2801  0.4851
  564MOL0     C77741   9.611   2.636   1.333 -0.3952 -0.0589 -0.0421
  564MOL0     O77742   9.590   2.339   1.464 -0.1795 -0.9686  0.3581
  564MOL0     C77743   9.679   2.206   1.677  0.1031  0.0612  0.3511
  564MOL0     C77744   9.752   2.116   1.754  0.1453 -0.8484  0.5944
  564MOL0     N77745   9.686   2.124   2.510 -0.2769 -0.1910 -0.1169
  564MOL0     N77746   9.705   2.218   2.592  0.1606 -0.0138 -0.1235
  564MOL0     C77747  10.562   3.106   2.352  0.7028  0.3286 -0.6098
  564MOL0     C77748  10.668   3.147   2.273  0.4973  0.1151  0.9545
  564MOL0     C77749  11.000   3.224   1.997 -1.0619  0.7738  0.2211
  564MOL0     C77750  10.947   3.202   1.865 -0.0277  0.3370 -0.3803
  564MOL0     C77751  11.025   3.215   1.751  0.1103 -1.1065 -1.3545
  564MOL0     C77752  11.162   3.244   1.757 -0.1216 -0.5375 -0.1083
  564MOL0     O77753  11.241   3.236   1.646  0.0854 -0.5073 -0.5145
  564MOL0     C77754  11.177   3.238   1.518 -0.1323 -0.0296 -0.0765
  564MOL0     C77755  11.282   3.257   1.412 -1.2860  0.2278 -0.2354
  564MOL0     C77756  11.242   3.262   1.273 -0.5470  0.2218 -0.0130
  564MOL0     C77757  11.356   3.292   1.180  1.3177  0.2151 -0.5570
  564MOL0     C77758  11.293   3.305   1.039 -0.1753  0.3397  0.1152
  564MOL0     C77759  11.255   3.335   0.925 -0.1540  0.3361 -0.3585
  564MOL0     C77760  11.217   3.267   1.883  0.5244 -0.0006  0.0415
  564MOL0     C77761  11.144   3.252   2.002  0.4294 -0.2650 -0.7969
  564MOL0     C77762  11.212   3.289   2.134 -1.2576  0.2337  0.0748
  564MOL0     H77763  10.717   2.865   2.089  0.9769  2.4949 -0.9180
  564MOL0     H77764  10.506   2.810   2.211  0.2151  0.5602 -2.6935
  564MOL0     H77765  10.312   3.113   2.432  0.2143 -1.2133 -1.8661
  564MOL0     H77766  10.364   3.047   2.586 -2.7057  0.1067  0.3384
  564MOL0     H77767  10.119   3.032   2.530  0.6896  0.3649 -0.8460
  564MOL0     H77768  10.179   2.903   2.417  2.6654 -2.0902 -0.0978
  564MOL0     H77769  10.285   2.772   2.601 -0.5763 -0.5043  1.3068
  564MOL0     H77770  10.201   2.881   2.717 -3.5018  0.2546 -0.0258
  564MOL0     H77771   9.995   2.828   2.614 -0.1107  1.0250 -0.0816
  564MOL0     H77772  10.065   2.714   2.500  3.0080  1.0552  0.9565
  564MOL0     H77773  10.055   2.685   2.808 -2.7091 -0.9665  0.1172
  564MOL0     H77774  10.107   2.559   2.686 -0.3086 -2.1276 -0.0744
  564MOL0     H77775   9.907   2.514   2.786  0.6089  0.5061  0.3727
  564MOL0     H77776   9.828   2.671   2.746  1.1428  1.2908 -0.0876
  564MOL0     H77777   9.910   2.447   2.559 -0.8613  1.4225 -1.3823
  564MOL0     H77778   9.838   2.601   2.504  0.7987 -0.0821 -1.2199
  564MOL0     H77779   9.681   2.440   2.713 -2.0529  1.0452 -0.0568
  564MOL0     H77780   9.625   2.537   2.578  1.1628  0.8313 -0.5323
  564MOL0     H77781   9.615   2.386   2.326 -0.0906  1.6160  0.8149
  564MOL0     H77782   9.574   2.192   2.198  0.9611 -0.3982  0.0084
  564MOL0     H77783   9.539   2.056   2.298 -0.7941  0.6951  0.9467
  564MOL0     H77784   9.817   2.143   2.182  0.6147 -0.1443 -1.0648
  564MOL0     H77785   9.787   1.993   2.257 -2.8017 -1.2432 -0.2673
  564MOL0     H77786   9.642   1.915   2.085  2.0114 -1.1212  2.9299
  564MOL0     H77787   9.641   2.072   2.006 -3.4545 -1.7240  1.3429
  564MOL0     H77788   9.893   1.903   2.038  1.8023 -1.3783 -1.9645
  564MOL0     H77789   9.803   1.899   1.892  0.9933 -1.2836  0.0240
  564MOL0     H77790   9.979   2.329   1.880  0.8424  0.4536 -1.0807
  564MOL0     H77791   9.905   2.547   1.619 -0.1344  3.9406  0.6145
  564MOL0     H77792   9.966   2.545   1.775 -0.6359  0.0628  2.1928
  564MOL0     H77793   9.812   2.606   1.761 -1.6085 -0.4891 -0.8268
  564MOL0     H77794   9.435   2.694   1.623 -0.5595 -2.0909  0.1763
  564MOL0     H77795   9.300   2.820   1.476 -0.4436 -2.0072  1.2340
  564MOL0     H77796   9.261   3.045   1.248 -0.6093 -0.2256 -0.9982
  564MOL0     H77797   9.383   3.030   1.382 -0.2966 -1.2064 -0.0531
  564MOL0     H77798   9.439   3.138   1.096  0.4308  1.8361  0.6636
  564MOL0     H77799   9.412   3.227   1.248  1.3743 -0.5906  2.2240
  564MOL0     H77800   9.626   3.029   1.198 -1.7006  0.1851 -1.2599
  564MOL0     H77801   9.602   3.089   1.366 -0.3975  0.7294  0.4587
  564MOL0     H77802   9.667   3.240   1.099 -2.1081 -1.4187  0.8771
  564MOL0     H77803   9.789   3.186   1.218  0.5304  0.4189  1.1661
  564MOL0     H77804   9.663   3.327   1.400  3.1090  0.3880  0.2293
  564MOL0     H77805   9.766   3.407   1.272  0.2937  2.4205  2.7610
  564MOL0     H77806   9.462   3.402   1.321  1.2059 -1.8035  1.3635
  564MOL0     H77807   9.527   3.457   1.166 -2.2715 -0.4233  0.1177
  564MOL0     H77808   9.493   3.654   1.293  0.8743  1.6292 -1.0391
  564MOL0     H77809   9.676   3.628   1.301  0.5469 -2.0761  0.1459
  564MOL0     H77810   9.655   3.533   1.513 -2.3316 -2.5854 -0.7385
  564MOL0     H77811   9.476   3.548   1.505 -0.2507  0.2971  3.3362
  564MOL0     H77812   9.595   2.749   1.159 -1.6275 -2.0572 -0.3648
  564MOL0     H77813   9.694   2.571   1.309  0.0362  0.9507 -1.4616
  564MOL0     H77814   9.593   2.174   1.620  2.3497 -0.1217 -3.2671
  564MOL0     H77815   9.707   2.017   1.759 -0.2595 -0.9767 -2.9598
  564MOL0     H77816  10.513   3.175   2.420 -0.3372 -0.5750 -0.4043
  564MOL0     H77817  10.714   3.245   2.279 -1.8258  1.4582 -1.3058
  564MOL0     H77818  10.841   3.182   1.854  0.3808 -4.2019  1.7248
  564MOL0     H77819  10.976   3.174   1.663  0.1780  2.5194 -3.2543
  564MOL0     H77820  11.105   3.160   1.491  0.0361 -0.3818  0.4738
  564MOL0     H77821  11.109   3.323   1.509  0.3263  0.3276 -0.2121
  564MOL0     H77822  11.337   3.164   1.430 -1.1259  0.4515  0.4765
  564MOL0     H77823  11.335   3.351   1.428 -1.2669  0.7893 -3.0832
  564MOL0     H77824  11.196   3.166   1.250 -1.3868  0.8020 -0.8179
  564MOL0     H77825  11.168   3.339   1.252  1.2463  0.9636 -4.9467
  564MOL0     H77826  11.431   3.214   1.191  1.7926  0.9151  1.7789
  564MOL0     H77827  11.417   3.381   1.198  0.0341  1.2371 -1.0107
  564MOL0     H77828  11.245   3.330   0.819  1.6153 -0.5578 -0.5232
  564MOL0     H77829  11.316   3.311   1.890 -0.3394  2.0627  0.0918
  564MOL0     H77830  11.319   3.312   2.127 -0.8090 -1.9343 -1.5503
  564MOL0     H77831  11.183   3.390   2.164  2.7911  2.2557 -1.9573
  564MOL0     H77832  11.219   3.213   2.213  0.7374 -0.7334 -0.9446
  565MOL0     O77833   9.677   8.662   8.741 -0.1786 -0.8540 -0.4815
  565MOL0     C77834   9.627   8.550   8.751  0.4299 -0.7287 -1.4703
  565MOL0     O77835   9.682   8.436   8.715 -0.0877  0.2826 -0.7460
  565MOL0     C77836   9.797   8.428   8.642 -0.2715  0.5151  0.7960
  565MOL0     C77837   9.841   8.300   8.603  0.3224 -0.3897  0.2915
  565MOL0     C77838   9.954   8.273   8.525 -0.4186 -0.3908 -0.2260
  565MOL0     C77839  10.040   8.375   8.488  0.0582  0.3437 -0.2785
  565MOL0     O77840  10.160   8.357   8.430  0.1257  0.4958 -0.2684
  565MOL0     C77841  10.201   8.225   8.391 -0.7776  0.0769 -0.1723
  565MOL0     C77842  10.149   8.185   8.249  0.1653 -0.1013  0.5497
  565MOL0     C77843  10.208   8.045   8.199  0.1991 -0.1998 -0.1539
  565MOL0     C77844  10.361   8.018   8.224 -0.1277  0.2046  0.3383
  565MOL0     C77845  10.388   7.881   8.157  0.1458 -0.8657 -0.1716
  565MOL0     C77846  10.530   7.821   8.177  1.0586  0.6359  0.3861
  565MOL0     C77847  10.557   7.675   8.138 -0.1261  0.7764  0.8933
  565MOL0     C77848  10.574   7.656   7.983  0.8517  0.3898  0.1916
  565MOL0     N77849  10.608   7.509   7.937  0.1557 -0.2687  0.7247
  565MOL0     C77850  10.529   7.394   7.952  0.2059 -0.1785  0.6282
  565MOL0     C77851  10.587   7.296   7.877  0.3336 -0.4423 -0.2987
  565MOL0     C77852  10.517   7.165   7.849 -0.3712  0.7344 -0.3602
  565MOL0     C77853  10.463   7.147   7.707 -0.6685 -0.3843 -0.0163
  565MOL0     C77854  10.390   7.274   7.641  0.3940  0.2173 -0.5696
  565MOL0     C77855  10.347   7.251   7.496 -0.3594  0.5855 -0.0698
  565MOL0     O77856  10.335   7.371   7.420  0.3647 -0.1101 -0.0318
  565MOL0     C77857  10.313   7.356   7.280  0.9479 -0.0683  0.7347
  565MOL0     C77858  10.377   7.451   7.196 -0.3796 -0.0521  0.1417
  565MOL0     C77859  10.360   7.456   7.057 -0.3257 -0.2068 -0.5695
  565MOL0     C77860  10.436   7.574   6.993  0.2590  0.4732  0.1354
  565MOL0     C77861  10.263   7.373   6.994 -0.1862  0.5590 -0.7423
  565MOL0     C77862  10.233   7.372   6.858  0.2960  0.1014  0.1212
  565MOL0     O77863  10.204   7.252   6.803  0.0690 -0.2538 -0.1013
  565MOL0     C77864  10.147   7.244   6.677  1.4921 -0.0030 -1.5582
  565MOL0     C77865  10.182   7.132   6.605 -0.2961  0.2291 -0.4979
  565MOL0     C77866  10.146   7.114   6.469  0.3687  0.3300  0.0025
  565MOL0     C77867  10.051   7.197   6.415 -0.1346 -0.4225 -0.0082
  565MOL0     O77868  10.005   7.171   6.289  0.2833 -0.3353 -0.3943
  565MOL0     C77869  10.070   7.075   6.205  0.9844  0.2344  0.4207
  565MOL0     C77870  10.036   7.098   6.063  0.4461 -0.4056  0.2232
  565MOL0     C77871   9.899   7.178   6.044  0.0374 -0.8901  0.5040
  565MOL0     C77872   9.875   7.197   5.898 -0.3203  0.0534  0.0524
  565MOL0     C77873   9.748   7.267   5.873 -0.4626 -1.1947  0.6860
  565MOL0     C77874   9.714   7.247   5.724  0.3141 -0.0919 -0.4733
  565MOL0     C77875   9.580   7.317   5.693 -0.9118  0.2460 -0.3087
  565MOL0     C77876   9.516   7.264   5.563 -1.1382 -0.0848  0.1509
  565MOL0    Cl77877   9.371   7.350   5.519 -0.1067 -0.1453 -0.1358
  565MOL0     C77878   9.987   7.302   6.494 -0.4484  0.7154  0.1546
  565MOL0     C77879  10.043   7.326   6.623 -0.1639  0.2326 -0.7498
  565MOL0     O77880  10.226   7.479   6.797  0.7676  0.5514  0.2439
  565MOL0     C77881  10.204   7.272   7.070  0.3162 -0.0408 -0.1411
  565MOL0     C77882  10.224   7.272   7.208 -0.6407  0.1592 -0.1195
  565MOL0     N77883  10.707   7.350   7.830 -0.1079  0.2012  0.3301
  565MOL0     N77884  10.712   7.476   7.860  0.4980 -0.3639 -0.0959
  565MOL0     C77885  10.005   8.507   8.530 -0.0843 -0.0674  0.0791
  565MOL0     C77886   9.882   8.532   8.599 -0.1745 -0.3316  0.4000
  565MOL0     C77887   9.489   8.543   8.834  0.2805  0.0781  0.6153
  565MOL0     C77888   9.462   8.638   8.929  0.4041  0.0885  0.1220
  565MOL0     C77889   9.347   8.632   8.997 -0.0969 -0.3515  0.4267
  565MOL0     C77890   9.249   8.532   8.976 -0.3909  1.0308 -0.3381
  565MOL0     O77891   9.121   8.543   9.020 -0.7056  0.0548 -0.0088
  565MOL0     C77892   9.091   8.618   9.134  0.3891  0.5276 -0.6610
  565MOL0     C77893   9.045   8.749   9.084 -0.2340  0.3255  0.0637
  565MOL0     C77894   9.041   8.864   9.196 -0.1656  0.7256  0.3503
  565MOL0     C77895   9.030   8.988   9.113 -0.3815  0.6958  1.0921
  565MOL0     C77896   8.886   8.997   9.072 -1.2144  0.3410  1.3478
  565MOL0     C77897   8.767   8.974   9.035 -0.4016  0.5684 -0.7409
  565MOL0     C77898   9.270   8.441   8.876 -0.1905  0.4678  0.2250
  565MOL0     C77899   9.395   8.438   8.805 -0.1765  1.3935  0.5048
  565MOL0     C77900   9.403   8.334   8.691 -0.9377 -0.1427  0.3562
  565MOL0     H77901   9.775   8.217   8.626 -0.6948  0.8650  2.1367
  565MOL0     H77902   9.963   8.170   8.492 -0.9028 -0.4578 -0.1646
  565MOL0     H77903  10.169   8.149   8.463  0.2513  1.4854  1.8611
  565MOL0     H77904  10.309   8.217   8.384 -0.8434 -0.0423 -1.2182
  565MOL0     H77905  10.042   8.162   8.245  0.7677 -3.2414 -2.4431
  565MOL0     H77906  10.195   8.261   8.184  0.7764 -0.8790  0.0570
  565MOL0     H77907  10.161   7.965   8.257  0.1935 -1.5654 -1.9510
  565MOL0     H77908  10.195   8.023   8.093 -0.3042 -3.0469  0.4225
  565MOL0     H77909  10.424   8.101   8.193 -0.8350  1.4742  2.1330
  565MOL0     H77910  10.380   7.998   8.330  0.6755  5.0821  1.3596
  565MOL0     H77911  10.385   7.895   8.049  1.4828  0.8742 -0.0293
  565MOL0     H77912  10.321   7.804   8.198  1.2326 -0.7112  2.0970
  565MOL0     H77913  10.607   7.885   8.132  1.8938 -2.1921 -2.6346
  565MOL0     H77914  10.554   7.822   8.284 -3.5125 -4.4495  1.9464
  565MOL0     H77915  10.474   7.619   8.182  0.0142 -1.0632 -1.0248
  565MOL0     H77916  10.654   7.649   8.181 -0.2368  0.2816  0.8433
  565MOL0     H77917  10.485   7.694   7.932  0.1213 -2.6112 -0.9762
  565MOL0     H77918  10.652   7.727   7.958  0.2883  0.6939 -0.7381
  565MOL0     H77919  10.435   7.391   8.007  1.3572 -1.3121  2.6380
  565MOL0     H77920  10.445   7.139   7.927  1.4331 -3.1857  0.2571
  565MOL0     H77921  10.594   7.088   7.859 -0.5103  0.5500 -0.7086
  565MOL0     H77922  10.555   7.128   7.650  0.0057  0.8843  0.6185
  565MOL0     H77923  10.401   7.057   7.706 -1.1024 -0.0892 -0.6754
  565MOL0     H77924  10.301   7.303   7.697  2.0064  0.0667  2.2621
  565MOL0     H77925  10.462   7.356   7.640 -0.2658  0.8842  1.6107
  565MOL0     H77926  10.422   7.182   7.456  1.6094  0.9565  2.6606
  565MOL0     H77927  10.254   7.194   7.502 -0.4413  0.7735  0.5605
  565MOL0     H77928  10.441   7.523   7.245 -3.9596  2.6326  1.3624
  565MOL0     H77929  10.535   7.583   7.038  0.2270 -0.4311  0.4112
  565MOL0     H77930  10.382   7.666   7.017 -1.1034 -0.8431  2.5763
  565MOL0     H77931  10.453   7.563   6.885  1.2285  0.2349  0.2991
  565MOL0     H77932  10.255   7.070   6.655 -2.0087 -2.6081 -1.2590
  565MOL0     H77933  10.180   7.027   6.413 -2.5006 -2.0479  1.6479
  565MOL0     H77934  10.179   7.085   6.213  0.9323  1.3165 -0.0465
  565MOL0     H77935  10.038   6.974   6.230  2.2334 -0.3961 -0.3692
  565MOL0     H77936  10.124   7.142   6.014  3.5393 -3.2887  2.6402
  565MOL0     H77937  10.041   7.000   6.015  1.4244  1.4591 -3.9095
  565MOL0     H77938   9.932   7.272   6.088  2.3632 -1.5106  0.2366
  565MOL0     H77939   9.818   7.126   6.095  1.4207 -1.9030  1.7773
  565MOL0     H77940   9.886   7.101   5.845  1.6788  1.2896 -1.9267
  565MOL0     H77941   9.953   7.255   5.848  0.4537 -1.3446 -0.4422
  565MOL0     H77942   9.668   7.231   5.938 -1.4697 -0.2489  0.0215
  565MOL0     H77943   9.761   7.373   5.898  1.7578 -1.3108  0.2067
  565MOL0     H77944   9.707   7.140   5.706  1.3813 -0.2119 -0.2236
  565MOL0     H77945   9.792   7.286   5.659  1.0641  0.1220  0.5359
  565MOL0     H77946   9.598   7.425   5.692 -0.7026  0.2247 -2.1210
  565MOL0     H77947   9.505   7.297   5.770 -0.3258 -0.5147  0.0836
  565MOL0     H77948   9.482   7.161   5.570 -0.3912 -0.3126  0.5079
  565MOL0     H77949   9.594   7.261   5.486  2.3869  2.8817  3.1924
  565MOL0     H77950   9.901   7.353   6.453 -0.8497 -0.4250 -0.4609
  565MOL0     H77951  10.005   7.409   6.683  1.4991  0.4898  0.0116
  565MOL0     H77952  10.146   7.185   7.039  2.7817 -1.7994 -0.0548
  565MOL0     H77953  10.171   7.199   7.268 -0.6133  1.2093  1.2358
  565MOL0     H77954  10.068   8.585   8.492 -0.3484  0.3458  0.4724
  565MOL0     H77955   9.865   8.638   8.616 -0.0900 -0.0402 -1.1427
  565MOL0     H77956   9.528   8.716   8.965  1.1045  0.1560 -1.2372
  565MOL0     H77957   9.323   8.704   9.074 -3.6452  0.7434 -1.4891
  565MOL0     H77958   9.012   8.567   9.190 -0.6881  1.6791 -1.1145
  565MOL0     H77959   9.177   8.618   9.202 -0.3323  0.6040  0.2797
  565MOL0     H77960   8.950   8.733   9.032 -0.0730  0.1981 -0.1901
  565MOL0     H77961   9.118   8.784   9.011  1.4392 -1.5131  0.7854
  565MOL0     H77962   8.949   8.848   9.253 -0.1347  2.8566  1.1131
  565MOL0     H77963   9.134   8.861   9.254  0.6709 -2.6138 -0.9641
  565MOL0     H77964   9.090   9.003   9.023  0.0757 -0.6400  1.1481
  565MOL0     H77965   9.045   9.068   9.186  2.3356  0.1741  1.1975
  565MOL0     H77966   8.674   8.973   8.982  0.1309  0.8535 -1.7157
  565MOL0     H77967   9.191   8.370   8.858  1.2221 -1.5206  1.4887
  565MOL0     H77968   9.300   8.304   8.671 -1.3808  0.6475  1.3410
  565MOL0     H77969   9.446   8.381   8.603 -2.4168  0.7705  0.0793
  565MOL0     H77970   9.463   8.247   8.717  0.4694  1.1405  1.6146
  566MOL0     O77971   9.816   7.341   4.312 -0.2679 -0.3189 -0.7650
  566MOL0     C77972   9.930   7.321   4.277 -0.3514  0.3936 -0.2569
  566MOL0     O77973   9.999   7.401   4.192  0.2533 -0.4512  0.3538
  566MOL0     C77974   9.938   7.500   4.114 -0.1180 -0.0482 -0.3053
  566MOL0     C77975   9.984   7.631   4.125 -0.0488 -0.6024  0.0062
  566MOL0     C77976   9.934   7.725   4.037 -0.0727 -0.4441 -0.0107
  566MOL0     C77977   9.828   7.694   3.950 -0.0501  1.0054 -0.1072
  566MOL0     O77978   9.764   7.795   3.872  0.6305  0.1345  0.6359
  566MOL0     C77979   9.834   7.917   3.840 -0.6215  0.3458 -0.1968
  566MOL0     C77980   9.750   7.976   3.731 -0.2615  0.4214 -0.0829
  566MOL0     C77981   9.811   8.097   3.656 -0.1731  0.0309  0.2631
  566MOL0     C77982   9.741   8.140   3.526  0.6884 -0.3800  1.3347
  566MOL0     C77983   9.841   8.218   3.433  0.2202  0.2078 -0.4751
  566MOL0     C77984   9.804   8.245   3.287 -0.8463 -0.0157  0.3318
  566MOL0     C77985   9.913   8.317   3.210  0.3502 -0.4438  0.6435
  566MOL0     C77986   9.891   8.466   3.179 -0.4116 -0.6037 -0.1502
  566MOL0     N77987   9.990   8.529   3.093 -0.0335 -0.0279  0.9595
  566MOL0     C77988  10.065   8.638   3.113  0.6871 -0.7265  0.4524
  566MOL0     C77989  10.133   8.667   3.000  0.2569 -0.2796  0.6612
  566MOL0     C77990  10.234   8.780   2.984  0.4793 -0.0348 -0.7402
  566MOL0     C77991  10.364   8.770   3.066 -0.0071 -0.2476 -0.1818
  566MOL0     C77992  10.439   8.901   3.077 -0.8877  0.3990  0.8303
  566MOL0     C77993  10.571   8.897   3.155  0.6089  0.1674 -1.0462
  566MOL0     O77994  10.641   9.022   3.153  0.5431  0.0342 -0.7664
  566MOL0     C77995  10.774   9.031   3.178  0.0470 -0.7541  1.1117
  566MOL0     C77996  10.859   8.934   3.209  0.0779  0.6964  0.2099
  566MOL0     C77997  10.999   8.956   3.243  0.0240 -0.2874  0.3406
  566MOL0     C77998  11.079   8.833   3.278 -0.2970 -0.1656  0.3213
  566MOL0     C77999  11.049   9.084   3.211 -0.6554 -0.2217 -0.7734
  566MOL0     C78000  11.198   9.124   3.221  0.4850 -0.7340  0.1632
  566MOL0     O78001  11.279   9.045   3.290 -0.1174 -0.4480  0.2313
  566MOL0     C78002  11.409   9.075   3.295 -0.6813  0.2772  0.0372
  566MOL0     C78003  11.501   8.986   3.239 -0.5516  0.8627 -0.4237
  566MOL0     C78004  11.638   9.008   3.257  0.6961 -0.3105 -0.0980
  566MOL0     C78005  11.691   9.121   3.325  0.4125 -0.3385  0.7076
  566MOL0     O78006  11.828   9.140   3.344 -0.4965 -0.7606  0.2167
  566MOL0     C78007  11.878   9.273   3.372  0.0274  0.0017 -0.1615
  566MOL0     C78008  12.030   9.283   3.338 -0.6667  0.3526 -0.1767
  566MOL0     C78009  12.079   9.238   3.189  0.2109  0.8057  0.2480
  566MOL0     C78010  12.217   9.300   3.146 -0.0431 -0.3147 -0.1777
  566MOL0     C78011  12.223   9.455   3.147  0.0678  0.0320 -0.5815
  566MOL0     C78012  12.325   9.521   3.058 -0.9473  0.0986 -1.4037
  566MOL0     C78013  12.470   9.512   3.104  0.0353  0.7141 -0.5917
  566MOL0     C78014  12.578   9.560   3.008  0.5750  0.7777  0.1201
  566MOL0    Cl78015  12.549   9.740   2.988 -0.0203 -0.0016  0.3177
  566MOL0     C78016  11.596   9.214   3.377  0.5284 -0.8004  0.3282
  566MOL0     C78017  11.458   9.188   3.359  0.1296  0.2598  0.0825
  566MOL0     O78018  11.230   9.234   3.168 -0.3257  0.1545 -0.2386
  566MOL0     C78019  10.958   9.189   3.175  0.4373  0.3374 -0.4896
  566MOL0     C78020  10.816   9.161   3.186  0.6526 -0.9115  0.6825
  566MOL0     N78021  10.097   8.566   2.914 -1.0872 -0.0209  0.3010
  566MOL0     N78022  10.007   8.485   2.963  0.4228  0.3656 -0.5033
  566MOL0     C78023   9.779   7.562   3.946 -0.2732  0.3796 -0.4107
  566MOL0     C78024   9.839   7.464   4.019 -0.3299  0.2312 -1.3242
  566MOL0     C78025  10.009   7.211   4.332  0.4087 -1.4125 -1.0211
  566MOL0     C78026  10.113   7.162   4.262 -0.1993  0.9407  0.0471
  566MOL0     C78027  10.198   7.058   4.302 -0.6117 -0.8495 -0.2582
  566MOL0     C78028  10.158   6.983   4.412 -0.0403 -0.5241 -0.0828
  566MOL0     O78029  10.247   6.882   4.444 -0.2104  0.9098  0.6287
  566MOL0     C78030  10.234   6.816   4.560 -0.6480  0.0106 -0.9952
  566MOL0     C78031  10.369   6.736   4.583 -0.6200  0.4532  0.8768
  566MOL0     C78032  10.498   6.816   4.598  0.2900 -0.7805  0.3560
  566MOL0     C78033  10.499   6.908   4.718 -1.7062 -1.2159  0.5105
  566MOL0     C78034  10.493   6.821   4.838 -0.4209 -0.7681  0.0036
  566MOL0     C78035  10.490   6.739   4.929 -0.3157  0.3506 -0.0163
  566MOL0     C78036  10.047   7.027   4.487  0.2401  0.5243  0.3671
  566MOL0     C78037   9.969   7.135   4.447  0.5544 -0.4260  0.2987
  566MOL0     C78038   9.856   7.157   4.545  0.1661  1.6694  0.4606
  566MOL0     H78039  10.065   7.654   4.194 -1.1571  1.2108  0.7587
  566MOL0     H78040   9.985   7.821   4.043 -1.3202  0.2292 -0.0510
  566MOL0     H78041   9.935   7.896   3.802 -1.0127 -0.4678 -0.8311
  566MOL0     H78042   9.833   7.980   3.929  0.9049  0.4208 -0.2080
  566MOL0     H78043   9.748   7.904   3.649 -1.2921 -1.2192  1.3224
  566MOL0     H78044   9.643   7.983   3.754  0.1083  0.9343  1.6150
  566MOL0     H78045   9.799   8.183   3.722 -1.0336  2.0351 -2.3486
  566MOL0     H78046   9.914   8.066   3.634  0.3977  3.4035 -2.7827
  566MOL0     H78047   9.698   8.054   3.474 -2.2160 -0.1840  3.1701
  566MOL0     H78048   9.658   8.212   3.531  0.7005 -0.3478  1.0837
  566MOL0     H78049   9.922   8.145   3.423  0.2849  0.4322 -1.6823
  566MOL0     H78050   9.882   8.297   3.497 -4.4840  0.3692  2.8469
  566MOL0     H78051   9.775   8.158   3.228  0.8030  0.9551 -2.0942
  566MOL0     H78052   9.723   8.318   3.286 -0.2542  0.6561 -0.4492
  566MOL0     H78053   9.903   8.273   3.110 -1.2559 -1.7005  1.3105
  566MOL0     H78054  10.011   8.299   3.256  0.3452  0.8975  1.2182
  566MOL0     H78055   9.792   8.491   3.140  0.6048  3.9540 -0.3085
  566MOL0     H78056   9.891   8.521   3.273 -1.3282 -0.0666 -0.4424
  566MOL0     H78057  10.067   8.703   3.200  0.0350 -0.3867  0.2212
  566MOL0     H78058  10.181   8.871   3.013 -0.4014 -0.9708  0.7205
  566MOL0     H78059  10.259   8.787   2.878  0.1134 -3.4939 -1.1759
  566MOL0     H78060  10.331   8.741   3.166 -1.1102  0.4123 -0.3411
  566MOL0     H78061  10.424   8.692   3.019 -0.2355 -0.2521 -0.4751
  566MOL0     H78062  10.457   8.950   2.981  0.9522 -2.1657 -0.2213
  566MOL0     H78063  10.380   8.974   3.134 -0.4755  1.7023 -0.3628
  566MOL0     H78064  10.559   8.865   3.259 -1.4907  1.3740 -0.8665
  566MOL0     H78065  10.618   8.804   3.121 -0.4223 -1.1312  0.8948
  566MOL0     H78066  10.827   8.831   3.204  3.6340 -1.0090  4.9501
  566MOL0     H78067  11.025   8.746   3.317  1.1272 -0.3224  2.0389
  566MOL0     H78068  11.160   8.857   3.346  1.2642 -1.6629 -0.9214
  566MOL0     H78069  11.131   8.802   3.187  0.0263  0.5204  0.2738
  566MOL0     H78070  11.476   8.890   3.193  1.9690 -0.6443  1.1265
  566MOL0     H78071  11.714   8.936   3.229  0.4611  0.0016 -1.5810
  566MOL0     H78072  11.833   9.353   3.312  1.8510  1.0650 -0.1850
  566MOL0     H78073  11.864   9.303   3.476 -5.1431  0.9037 -0.8327
  566MOL0     H78074  12.063   9.386   3.355 -1.8327  0.6374  0.4741
  566MOL0     H78075  12.089   9.218   3.404  1.2209  2.9907  0.9306
  566MOL0     H78076  12.007   9.265   3.112 -0.7990 -1.6573  0.2338
  566MOL0     H78077  12.086   9.129   3.183 -0.2735  0.5526  2.8059
  566MOL0     H78078  12.223   9.281   3.039 -1.6461  1.9531 -0.7461
  566MOL0     H78079  12.300   9.255   3.202 -0.9254  0.1754  1.6286
  566MOL0     H78080  12.130   9.488   3.099  1.9434  2.6804 -2.6268
  566MOL0     H78081  12.227   9.486   3.252 -2.1582  1.4708 -0.8581
  566MOL0     H78082  12.285   9.622   3.042 -0.6320  0.6271  0.7466
  566MOL0     H78083  12.321   9.468   2.963  0.6827  1.6449 -2.3870
  566MOL0     H78084  12.501   9.409   3.126  0.8488  1.1590  0.4416
  566MOL0     H78085  12.464   9.558   3.202 -2.3024 -0.6245 -0.0435
  566MOL0     H78086  12.578   9.519   2.907 -0.8926  3.7390 -1.2043
  566MOL0     H78087  12.676   9.551   3.055  1.8573 -1.2420 -2.6505
  566MOL0     H78088  11.622   9.299   3.439 -0.2779 -0.7922  0.6674
  566MOL0     H78089  11.396   9.255   3.417  0.1912  1.9901 -1.7474
  566MOL0     H78090  11.001   9.289   3.172 -0.2257  0.6269 -0.4982
  566MOL0     H78091  10.751   9.246   3.172 -0.8328 -2.0989  0.0459
  566MOL0     H78092   9.692   7.538   3.885 -0.4508  1.7171 -0.6953
  566MOL0     H78093   9.803   7.362   4.011 -1.0257 -0.1050  3.4485
  566MOL0     H78094  10.136   7.220   4.173  0.7763  2.1798  1.0592
  566MOL0     H78095  10.271   7.023   4.229  1.0360 -0.4557  1.1317
  566MOL0     H78096  10.221   6.894   4.635  1.0068  0.2364 -0.8984
  566MOL0     H78097  10.150   6.746   4.565 -0.3069 -0.3500 -0.0469
  566MOL0     H78098  10.382   6.687   4.486  2.7003  2.2113  0.2781
  566MOL0     H78099  10.370   6.662   4.663  0.3425 -1.4131 -0.7794
  566MOL0     H78100  10.594   6.763   4.598  3.5785  4.3641 -0.2192
  566MOL0     H78101  10.492   6.881   4.511  2.8491  1.0561  1.3978
  566MOL0     H78102  10.419   6.982   4.710 -1.9398 -1.4431  0.7488
  566MOL0     H78103  10.590   6.968   4.709 -1.8395 -1.2105 -0.9079
  566MOL0     H78104  10.490   6.674   5.015 -1.5684  0.0140 -0.2580
  566MOL0     H78105  10.026   6.975   4.580  1.8706 -2.5233 -0.8082
  566MOL0     H78106   9.768   7.198   4.495 -2.7188 -0.0294  3.7347
  566MOL0     H78107   9.825   7.068   4.600  2.5991  1.3339  1.4148
  566MOL0     H78108   9.888   7.228   4.623  0.9575 -0.5073  2.2174
  567MOL0     O78109   4.515   0.104   8.696  0.1239  0.0058  0.4203
  567MOL0     C78110   4.602   0.087   8.786 -0.3920 -0.4361  0.8741
  567MOL0     O78111   4.589   0.007   8.897 -0.4471  0.0459  0.0651
  567MOL0     C78112   4.486  -0.087   8.898 -0.2068  0.5086  0.6269
  567MOL0     C78113   4.407  -0.085   9.010  1.5896  0.9503  0.3258
  567MOL0     C78114   4.291  -0.174   9.016 -0.2071  0.5751  0.7902
  567MOL0     C78115   4.277  -0.284   8.928  0.5256 -0.7350 -0.8952
  567MOL0     O78116   4.166  -0.357   8.945 -0.2858  0.1782 -0.3541
  567MOL0     C78117   4.167  -0.484   8.887  0.0195  0.1503 -0.0728
  567MOL0     C78118   4.068  -0.565   8.972  0.2695  0.1072 -0.0442
  567MOL0     C78119   3.929  -0.489   8.985  0.2101 -0.4182 -0.0098
  567MOL0     C78120   3.813  -0.570   9.035  0.0092  0.8027 -0.0503
  567MOL0     C78121   3.739  -0.640   8.922  0.0903 -0.5232  0.2945
  567MOL0     C78122   3.605  -0.699   8.967 -0.7095 -0.8683  0.7541
  567MOL0     C78123   3.512  -0.689   8.847 -0.6732 -0.4015 -0.2060
  567MOL0     C78124   3.383  -0.756   8.872 -0.5007  0.6149 -0.1016
  567MOL0     N78125   3.294  -0.724   8.759  0.9275  0.5562 -0.4505
  567MOL0     C78126   3.207  -0.619   8.757 -0.4033 -0.5020  0.6745
  567MOL0     C78127   3.144  -0.631   8.637  0.0626 -0.7024 -0.4855
  567MOL0     C78128   3.022  -0.557   8.583  0.0121  0.6766  0.4579
  567MOL0     C78129   3.063  -0.425   8.515 -0.8804 -0.1624 -1.1422
  567MOL0     C78130   3.113  -0.432   8.369 -0.2456  0.9003 -0.1108
  567MOL0     C78131   3.113  -0.305   8.289 -0.0434  0.9311 -0.4805
  567MOL0     O78132   3.132  -0.190   8.371  0.2289 -0.4076  0.2548
  567MOL0     C78133   3.139  -0.068   8.310 -0.2799  0.0563 -0.8580
  567MOL0     C78134   3.235  -0.032   8.208 -0.0143 -1.2650 -0.3852
  567MOL0     C78135   3.239   0.092   8.150 -0.9087 -0.2230 -0.0606
  567MOL0     C78136   3.350   0.115   8.046 -0.1015  0.1483 -0.4704
  567MOL0     C78137   3.151   0.191   8.200 -0.2720  0.8751  0.1311
  567MOL0     C78138   3.143   0.325   8.149  1.1135 -0.2898  0.1707
  567MOL0     O78139   3.027   0.385   8.189 -0.2566  0.0968  0.0172
  567MOL0     C78140   3.005   0.518   8.160  0.1300 -0.3225 -0.6280
  567MOL0     C78141   3.047   0.615   8.259 -0.6740  0.0836  0.6375
  567MOL0     C78142   3.020   0.745   8.234 -0.0108 -1.1851 -0.1251
  567MOL0     C78143   2.941   0.792   8.128 -0.7150  0.4058  0.3288
  567MOL0     O78144   2.917   0.927   8.121  0.6221  0.3719  0.6118
  567MOL0     C78145   2.882   0.987   7.992 -0.3049  0.8072 -0.5546
  567MOL0     C78146   2.856   1.136   8.006 -1.5053 -0.6210 -0.0114
  567MOL0     C78147   2.974   1.221   8.045  0.0905 -0.5336 -0.1907
  567MOL0     C78148   3.017   1.300   7.920 -0.7398 -0.1169 -0.4174
  567MOL0     C78149   3.156   1.380   7.939 -0.4597 -0.0211  1.0638
  567MOL0     C78150   3.170   1.445   7.803  0.2367 -0.7331  0.2617
  567MOL0     C78151   3.299   1.528   7.791  0.4449  0.2286 -0.1619
  567MOL0     C78152   3.304   1.600   7.658  0.3525  0.5766 -0.4623
  567MOL0    Cl78153   3.423   1.726   7.675  0.0377  0.5701 -0.4310
  567MOL0     C78154   2.897   0.694   8.042  0.3487  0.3955  0.3134
  567MOL0     C78155   2.936   0.562   8.053 -0.3618  0.2930  0.5073
  567MOL0     O78156   3.226   0.381   8.079 -0.4803 -0.0065  0.2922
  567MOL0     C78157   3.069   0.154   8.308 -0.2077 -0.7429  0.0372
  567MOL0     C78158   3.053   0.032   8.361 -0.2613  0.1696 -0.3626
  567MOL0     N78159   3.202  -0.735   8.580  0.1683  0.0004  0.1280
  567MOL0     N78160   3.294  -0.793   8.651 -1.2900  0.6486  0.3334
  567MOL0     C78161   4.361  -0.284   8.814  0.0465 -0.0980  0.0485
  567MOL0     C78162   4.460  -0.181   8.802  0.4136  0.2650 -0.3442
  567MOL0     C78163   4.725   0.171   8.784 -0.1024 -1.7933  0.3807
  567MOL0     C78164   4.788   0.189   8.906 -0.4373  0.5975  0.9056
  567MOL0     C78165   4.914   0.253   8.912 -0.2949 -0.0308  0.2293
  567MOL0     C78166   4.972   0.310   8.803 -0.3119 -0.6597 -0.0875
  567MOL0     O78167   5.099   0.351   8.823 -1.0831  0.5909 -0.0520
  567MOL0     C78168   5.174   0.391   8.710 -0.2092 -1.1852 -0.4942
  567MOL0     C78169   5.325   0.425   8.742  0.8250 -0.2516  0.1356
  567MOL0     C78170   5.402   0.445   8.609 -1.2180 -1.0437  0.5074
  567MOL0     C78171   5.524   0.533   8.640  0.1109  0.2463 -0.1154
  567MOL0     C78172   5.625   0.498   8.736  0.6271  0.5172 -0.7087
  567MOL0     C78173   5.728   0.458   8.787  0.8061  0.6197  0.2943
  567MOL0     C78174   4.902   0.300   8.677  0.0394 -0.0990 -1.1059
  567MOL0     C78175   4.786   0.227   8.666 -0.3949 -0.1370  0.5107
  567MOL0     C78176   4.736   0.203   8.530  0.3162 -0.0392 -0.5432
  567MOL0     H78177   4.408   0.001   9.076  0.1682  1.6121 -0.4488
  567MOL0     H78178   4.215  -0.174   9.094 -0.9518  1.4357  0.0814
  567MOL0     H78179   4.264  -0.532   8.879 -0.0614  0.1320 -1.0817
  567MOL0     H78180   4.136  -0.470   8.782  2.3738  1.3137 -0.6724
  567MOL0     H78181   4.048  -0.663   8.929 -1.8937 -0.2516  1.6010
  567MOL0     H78182   4.119  -0.582   9.067  2.0130  2.9910 -0.3308
  567MOL0     H78183   3.944  -0.413   9.062  1.1879 -0.2574 -0.3437
  567MOL0     H78184   3.909  -0.443   8.888 -2.4339  0.9414  1.0910
  567MOL0     H78185   3.844  -0.638   9.115 -3.5083 -0.7297  0.2239
  567MOL0     H78186   3.738  -0.510   9.088 -0.1980  1.1864 -0.7650
  567MOL0     H78187   3.807  -0.706   8.868 -3.1199 -2.1257 -2.0737
  567MOL0     H78188   3.712  -0.559   8.854  1.8034  0.4895  0.7618
  567MOL0     H78189   3.617  -0.803   9.001 -0.3661 -0.2809  2.5123
  567MOL0     H78190   3.572  -0.633   9.047  3.7243  0.9087  1.4203
  567MOL0     H78191   3.558  -0.741   8.763 -1.3082 -0.3438 -0.5946
  567MOL0     H78192   3.489  -0.588   8.811 -3.6479 -1.6271 -2.1345
  567MOL0     H78193   3.397  -0.862   8.851  0.8585  1.3006 -3.2866
  567MOL0     H78194   3.353  -0.742   8.976  3.0119 -1.3913  1.3694
  567MOL0     H78195   3.170  -0.556   8.837  0.9956  1.2639 -0.0075
  567MOL0     H78196   2.957  -0.535   8.668  0.6089  1.6912  0.6708
  567MOL0     H78197   2.973  -0.622   8.510 -0.1874  3.0317 -1.6528
  567MOL0     H78198   2.971  -0.370   8.493 -0.4502  0.0705 -2.4959
  567MOL0     H78199   3.122  -0.362   8.583 -0.9299  1.4358 -2.5023
  567MOL0     H78200   3.218  -0.465   8.372 -0.6670 -0.4727  0.8794
  567MOL0     H78201   3.054  -0.512   8.323  3.1183 -1.6103 -0.4814
  567MOL0     H78202   3.182  -0.311   8.205  2.2049  1.0874  1.2382
  567MOL0     H78203   3.013  -0.293   8.246 -0.9623 -1.9140  0.5919
  567MOL0     H78204   3.309  -0.112   8.202  3.1134  1.2638  1.4217
  567MOL0     H78205   3.408   0.207   8.053 -1.1817  0.8221 -0.0543
  567MOL0     H78206   3.299   0.118   7.949  2.0260 -0.2244 -1.6419
  567MOL0     H78207   3.424   0.035   8.053  1.0453  1.2651  0.7626
  567MOL0     H78208   3.115   0.584   8.338  0.0487  0.7410  0.2876
  567MOL0     H78209   3.057   0.827   8.295  0.0515  0.7282 -2.5902
  567MOL0     H78210   2.964   0.964   7.924  2.1900  0.3149  2.4339
  567MOL0     H78211   2.788   0.940   7.960  0.8771 -0.9526 -1.5562
  567MOL0     H78212   2.804   1.175   7.918  0.2283 -0.5943 -1.0758
  567MOL0     H78213   2.793   1.137   8.096  1.0714  1.2093  1.9367
  567MOL0     H78214   3.052   1.163   8.095  0.0120 -0.0542  0.5034
  567MOL0     H78215   2.944   1.293   8.121 -2.7948  0.0130 -1.6736
  567MOL0     H78216   2.940   1.374   7.897 -0.1544  0.8538  0.6253
  567MOL0     H78217   3.023   1.229   7.837 -3.8534 -1.3204  0.2541
  567MOL0     H78218   3.147   1.450   8.022 -0.2862  0.4563  0.6857
  567MOL0     H78219   3.243   1.321   7.968 -0.4427  1.4255  4.4309
  567MOL0     H78220   3.081   1.506   7.786  2.3391  2.2209 -0.7383
  567MOL0     H78221   3.166   1.361   7.733 -0.8761 -1.5310  1.2273
  567MOL0     H78222   3.380   1.454   7.780  1.6244  1.5965 -1.0284
  567MOL0     H78223   3.312   1.588   7.882  2.5491  0.6856 -0.7104
  567MOL0     H78224   3.212   1.658   7.641  0.5783  1.6973  1.7350
  567MOL0     H78225   3.339   1.536   7.577 -0.3366 -1.6488  0.9248
  567MOL0     H78226   2.833   0.704   7.955  1.1488 -3.8699 -1.0166
  567MOL0     H78227   2.906   0.484   7.984 -0.5874  0.5558  0.3083
  567MOL0     H78228   3.004   0.230   8.349  1.3087  0.3770  0.4273
  567MOL0     H78229   2.974   0.001   8.429 -0.3805 -0.3668 -0.7302
  567MOL0     H78230   4.354  -0.354   8.732  0.1041 -0.5388  0.4192
  567MOL0     H78231   4.524  -0.177   8.714  1.8478  1.7170  0.7064
  567MOL0     H78232   4.738   0.168   9.000  0.4711  1.1891  1.5382
  567MOL0     H78233   4.966   0.250   9.007 -0.7832  0.3327  0.5130
  567MOL0     H78234   5.173   0.313   8.634 -0.4606 -0.3505 -1.3590
  567MOL0     H78235   5.146   0.489   8.670 -1.1298 -0.5224  1.5951
  567MOL0     H78236   5.362   0.343   8.806 -0.0995  0.3346  1.4574
  567MOL0     H78237   5.340   0.514   8.803  0.5663 -0.8193  1.0528
  567MOL0     H78238   5.442   0.350   8.574  0.3067 -0.2979  0.1413
  567MOL0     H78239   5.345   0.488   8.526  0.0491  0.1950  0.2428
  567MOL0     H78240   5.481   0.629   8.670 -2.5723 -0.9001  0.0107
  567MOL0     H78241   5.575   0.550   8.544 -0.8711 -0.3914 -0.7763
  567MOL0     H78242   5.810   0.413   8.840  1.0799 -2.0286 -2.1459
  567MOL0     H78243   4.937   0.357   8.591 -2.6150  2.0330 -0.9054
  567MOL0     H78244   4.646   0.265   8.529  0.0649 -0.3926 -1.8093
  567MOL0     H78245   4.801   0.243   8.452 -0.7277  1.4420 -0.6939
  567MOL0     H78246   4.707   0.099   8.513  1.6763 -0.2678 -1.6488
  568MOL0     O78247   3.122   6.967   8.785 -0.1434  0.4292  0.7478
  568MOL0     C78248   3.077   6.926   8.887  0.4531 -0.2402  0.5543
  568MOL0     O78249   2.941   6.918   8.915  0.4602 -0.0344 -0.6277
  568MOL0     C78250   2.846   6.991   8.850 -0.7038  0.9759 -0.2131
  568MOL0     C78251   2.724   6.926   8.817 -0.4169 -0.6286 -0.0155
  568MOL0     C78252   2.625   6.993   8.744 -0.1932  0.3864 -0.2099
  568MOL0     C78253   2.644   7.126   8.711  0.1747 -0.6309  0.6872
  568MOL0     O78254   2.525   7.177   8.665 -0.3513  0.2456  0.0359
  568MOL0     C78255   2.529   7.291   8.571 -0.2019 -0.6718  0.6011
  568MOL0     C78256   2.392   7.339   8.517 -0.7362 -0.2193  1.3630
  568MOL0     C78257   2.285   7.342   8.625  0.0177 -0.2524 -0.2444
  568MOL0     C78258   2.163   7.412   8.578 -0.6124 -0.8959 -0.4354
  568MOL0     C78259   2.089   7.327   8.470  0.0110 -0.1516 -0.4989
  568MOL0     C78260   1.987   7.400   8.378 -0.5078  0.8138  0.1934
  568MOL0     C78261   1.838   7.380   8.436 -0.1004  0.5252  0.3050
  568MOL0     C78262   1.756   7.265   8.379 -1.5167 -0.4279  0.0648
  568MOL0     N78263   1.747   7.274   8.230 -0.1365 -0.2066  0.2587
  568MOL0     C78264   1.679   7.367   8.152  0.4338 -1.1890 -0.4639
  568MOL0     C78265   1.696   7.349   8.021 -0.1168  0.4384  0.3631
  568MOL0     C78266   1.649   7.425   7.903 -0.4927  0.5246 -0.5379
  568MOL0     C78267   1.759   7.405   7.800  0.1807  0.5603 -0.4064
  568MOL0     C78268   1.711   7.486   7.678  0.1828  0.4413 -0.5028
  568MOL0     C78269   1.825   7.512   7.581  0.5673  0.1131 -0.0917
  568MOL0     O78270   1.865   7.395   7.512 -0.6177 -0.0511 -0.1842
  568MOL0     C78271   1.945   7.401   7.404 -0.2765 -0.0395  0.8829
  568MOL0     C78272   1.914   7.341   7.281  0.1538  0.1328 -0.0043
  568MOL0     C78273   2.011   7.335   7.174  0.8831 -0.0600 -0.1591
  568MOL0     C78274   1.974   7.270   7.045 -0.4957 -0.2511 -0.3943
  568MOL0     C78275   2.141   7.386   7.199  0.0776  0.5859 -0.6202
  568MOL0     C78276   2.248   7.377   7.100 -0.4019  0.9164 -0.6537
  568MOL0     O78277   2.375   7.368   7.151 -0.4290  0.0250 -0.0265
  568MOL0     C78278   2.469   7.301   7.088  0.0675  1.2741  0.8869
  568MOL0     C78279   2.435   7.211   6.980 -0.1593 -0.4924 -0.0664
  568MOL0     C78280   2.535   7.138   6.921  0.3605  0.2477 -0.1938
  568MOL0     C78281   2.661   7.132   6.977 -0.6826  0.7055 -0.7285
  568MOL0     O78282   2.773   7.058   6.941  1.1266  0.5111  0.2390
  568MOL0     C78283   2.767   7.017   6.802  0.9864 -0.6932 -0.3460
  568MOL0     C78284   2.887   6.931   6.764 -0.2276 -0.6692  0.8864
  568MOL0     C78285   2.959   6.848   6.876 -0.7734  0.2457 -1.2377
  568MOL0     C78286   3.054   6.744   6.818  0.1403 -0.2228  0.4731
  568MOL0     C78287   3.174   6.696   6.890  0.5918  0.6163  0.6833
  568MOL0     C78288   3.140   6.603   7.005  0.2376 -0.3888  0.0192
  568MOL0     C78289   3.096   6.670   7.138  0.5408 -0.2743  0.9460
  568MOL0     C78290   3.032   6.562   7.233  0.7052  0.4392 -0.0010
  568MOL0    Cl78291   2.876   6.501   7.148  0.2258 -0.0666 -0.1037
  568MOL0     C78292   2.687   7.210   7.095  0.6475 -0.4157 -0.4100
  568MOL0     C78293   2.592   7.288   7.144 -0.9908 -0.6439  0.0376
  568MOL0     O78294   2.222   7.397   6.986  0.0907 -0.3292  0.5095
  568MOL0     C78295   2.162   7.461   7.313 -0.4496 -0.0127  0.5276
  568MOL0     C78296   2.068   7.467   7.411 -0.2568  0.4085 -0.1343
  568MOL0     N78297   1.753   7.218   8.017 -1.2265 -1.0924 -0.5851
  568MOL0     N78298   1.782   7.180   8.138  0.2606 -0.3026  0.2062
  568MOL0     C78299   2.765   7.197   8.738  0.1098  0.0739 -0.8702
  568MOL0     C78300   2.863   7.120   8.799 -0.5578 -0.2304 -0.0728
  568MOL0     C78301   3.169   6.863   8.984  0.2402  1.0742 -0.1611
  568MOL0     C78302   3.121   6.782   9.091 -0.7736 -0.4512 -0.2273
  568MOL0     C78303   3.200   6.703   9.169 -0.8179  0.2751  0.7460
  568MOL0     C78304   3.341   6.728   9.164  0.3718  0.0598 -0.2002
  568MOL0     O78305   3.413   6.658   9.248  0.4955  0.2855  0.3518
  568MOL0     C78306   3.553   6.637   9.229  0.0754  0.5265  0.3624
  568MOL0     C78307   3.620   6.609   9.093  0.3344  1.6514 -0.5559
  568MOL0     C78308   3.593   6.477   9.027 -0.1651  0.3036  0.1159
  568MOL0     C78309   3.447   6.477   8.971  1.1598  0.0696  1.1663
  568MOL0     C78310   3.449   6.363   8.872 -0.2990 -0.9379  0.0152
  568MOL0     C78311   3.440   6.276   8.791 -0.6820  0.2184 -0.2097
  568MOL0     C78312   3.389   6.821   9.073  0.8958  0.5679  0.6712
  568MOL0     C78313   3.307   6.883   8.976  0.2293 -0.2108  0.8314
  568MOL0     C78314   3.382   6.969   8.873  0.3677  0.2792  0.6680
  568MOL0     H78315   2.713   6.823   8.850  0.1440 -1.6755 -2.8298
  568MOL0     H78316   2.529   6.946   8.724  0.6042 -1.5896  0.3496
  568MOL0     H78317   2.591   7.256   8.488  1.4296  1.4372  0.8240
  568MOL0     H78318   2.576   7.380   8.616 -1.3591  0.4459 -0.3449
  568MOL0     H78319   2.409   7.438   8.474  0.9093 -1.4033 -0.9298
  568MOL0     H78320   2.358   7.269   8.440  0.4181  1.2069 -0.5112
  568MOL0     H78321   2.269   7.234   8.635  0.7532 -0.3622 -0.2105
  568MOL0     H78322   2.324   7.393   8.714  1.9001 -0.7654 -0.7387
  568MOL0     H78323   2.094   7.445   8.656 -1.5465 -0.3402 -1.4620
  568MOL0     H78324   2.197   7.506   8.535  0.5652 -1.5175 -0.9199
  568MOL0     H78325   2.039   7.238   8.512 -1.1909  0.6894 -0.0755
  568MOL0     H78326   2.168   7.283   8.409  0.5214  0.4601 -0.2877
  568MOL0     H78327   2.011   7.507   8.381 -0.6474  0.8326  1.7817
  568MOL0     H78328   1.984   7.368   8.274 -3.4640 -1.5039  0.8695
  568MOL0     H78329   1.783   7.466   8.397 -0.9202 -0.1456 -0.0437
  568MOL0     H78330   1.828   7.379   8.545  0.5599 -3.4041  0.4504
  568MOL0     H78331   1.803   7.173   8.413 -2.1264 -0.9026 -0.3732
  568MOL0     H78332   1.654   7.276   8.417 -1.1757  3.1545  0.3485
  568MOL0     H78333   1.623   7.453   8.187  0.8857 -0.3038 -1.8552
  568MOL0     H78334   1.640   7.533   7.919  2.3641  0.9369 -1.2874
  568MOL0     H78335   1.553   7.381   7.871 -0.7678 -0.9038  1.9799
  568MOL0     H78336   1.856   7.434   7.840  1.1027  0.7843 -2.6142
  568MOL0     H78337   1.770   7.301   7.767 -2.7757 -0.8993  2.5438
  568MOL0     H78338   1.627   7.431   7.634  0.3605 -1.0246  0.9174
  568MOL0     H78339   1.662   7.582   7.700  0.5975  1.1671 -2.5136
  568MOL0     H78340   1.799   7.581   7.501  1.0616 -0.3697 -0.6720
  568MOL0     H78341   1.899   7.552   7.652 -0.8801 -0.1769  1.6644
  568MOL0     H78342   1.822   7.283   7.276 -0.4342  0.5126  3.6957
  568MOL0     H78343   2.050   7.220   6.985  0.6890  0.4788  0.4640
  568MOL0     H78344   1.924   7.343   6.980  2.9437  2.0977 -0.6812
  568MOL0     H78345   1.911   7.183   7.068 -1.0194 -0.9224 -3.7392
  568MOL0     H78346   2.333   7.205   6.944 -0.7969 -1.0031  1.7147
  568MOL0     H78347   2.499   7.087   6.832 -1.6777  2.7038 -0.8750
  568MOL0     H78348   2.686   6.947   6.785 -0.5243  0.9345 -0.1737
  568MOL0     H78349   2.756   7.104   6.737 -0.0489 -0.8249 -0.3506
  568MOL0     H78350   2.860   6.862   6.684 -1.6918 -1.3524  1.9210
  568MOL0     H78351   2.965   6.996   6.724  0.5247 -1.2773  1.3045
  568MOL0     H78352   2.881   6.802   6.938  0.1857  1.9587  1.4226
  568MOL0     H78353   3.031   6.907   6.933  1.5629 -3.8302  0.4708
  568MOL0     H78354   3.079   6.784   6.720 -1.8750 -0.1895 -0.0733
  568MOL0     H78355   2.989   6.657   6.800 -0.5211  0.4568 -0.4447
  568MOL0     H78356   3.236   6.643   6.816 -0.4089 -1.0895  1.0220
  568MOL0     H78357   3.230   6.786   6.917  0.8907  1.0933 -1.3945
  568MOL0     H78358   3.231   6.547   7.027  0.9501  1.4626  2.1943
  568MOL0     H78359   3.073   6.521   6.976  1.6757 -1.4960 -0.2868
  568MOL0     H78360   3.023   6.750   7.122 -2.1877 -2.9891 -1.5336
  568MOL0     H78361   3.185   6.718   7.181  0.2691  2.8438 -1.5894
  568MOL0     H78362   3.000   6.607   7.327 -2.8353  1.9816 -1.7552
  568MOL0     H78363   3.106   6.484   7.251  0.1911 -0.5324 -1.7986
  568MOL0     H78364   2.778   7.218   7.153  0.9411 -0.9760 -0.7841
  568MOL0     H78365   2.622   7.349   7.228  2.2622  0.6622 -1.8786
  568MOL0     H78366   2.261   7.503   7.332 -0.4646  0.9295 -1.3182
  568MOL0     H78367   2.092   7.519   7.503 -0.6670 -1.1834  0.9167
  568MOL0     H78368   2.790   7.299   8.709  1.9145  0.1580  0.8204
  568MOL0     H78369   2.958   7.166   8.823 -0.0124 -0.0701 -2.3383
  568MOL0     H78370   3.013   6.769   9.094 -1.0430  1.6080  0.5537
  568MOL0     H78371   3.157   6.648   9.253  1.1267  0.9119  2.2597
  568MOL0     H78372   3.610   6.725   9.259  1.4379  0.0357 -0.6770
  568MOL0     H78373   3.584   6.568   9.309  1.5865  3.1879  2.2206
  568MOL0     H78374   3.728   6.608   9.107  0.3555 -2.0539 -0.0440
  568MOL0     H78375   3.599   6.690   9.023  0.8900  0.1890 -2.5250
  568MOL0     H78376   3.669   6.468   8.948 -0.5049  1.6586 -0.3763
  568MOL0     H78377   3.611   6.395   9.098  3.4539  0.9007  0.1090
  568MOL0     H78378   3.437   6.570   8.915  2.9818 -2.0850 -3.3099
  568MOL0     H78379   3.359   6.459   9.032 -1.0589  0.3714 -1.7430
  568MOL0     H78380   3.411   6.205   8.716  0.2297 -0.1258 -0.2539
  568MOL0     H78381   3.495   6.843   9.082  0.8953  1.6090 -1.3912
  568MOL0     H78382   3.486   6.972   8.906  1.6271  0.2765 -2.8683
  568MOL0     H78383   3.385   6.923   8.774  1.0156 -0.1436  0.8707
  568MOL0     H78384   3.339   7.069   8.867 -0.5357 -0.1574 -4.0253
  569MOL0     O78385   6.495   1.397   8.263  0.0704 -0.3167  0.2242
  569MOL0     C78386   6.578   1.360   8.346  1.8858 -0.2286  0.8927
  569MOL0     O78387   6.535   1.334   8.473 -0.0306  0.6788 -1.1996
  569MOL0     C78388   6.396   1.301   8.495  1.1204  0.0883  0.9451
  569MOL0     C78389   6.292   1.405   8.485 -0.2843 -0.7245  0.5536
  569MOL0     C78390   6.165   1.374   8.528 -0.3573  0.6123  0.6054
  569MOL0     C78391   6.129   1.245   8.558 -0.3488 -0.5313 -0.5301
  569MOL0     O78392   6.001   1.197   8.564  0.3542 -0.2010  0.0002
  569MOL0     C78393   5.905   1.302   8.574 -0.3212  0.3596  1.0405
  569MOL0     C78394   5.768   1.252   8.587  0.1536  0.2387  0.1154
  569MOL0     C78395   5.727   1.165   8.466  0.1713  0.0722  0.2617
  569MOL0     C78396   5.578   1.115   8.466  0.6646  0.1286  0.1713
  569MOL0     C78397   5.473   1.220   8.466  0.6472  0.2947  0.1063
  569MOL0     C78398   5.329   1.175   8.493 -0.4877 -0.3908  0.2088
  569MOL0     C78399   5.228   1.286   8.476 -0.5577  0.3818  0.9520
  569MOL0     C78400   5.092   1.228   8.464  0.3231 -0.6223 -0.1691
  569MOL0     N78401   4.998   1.310   8.400  0.2958 -0.6040  0.3230
  569MOL0     C78402   4.906   1.391   8.465  0.2215 -0.5490 -0.4778
  569MOL0     C78403   4.838   1.447   8.368  0.6055 -0.6237  0.0592
  569MOL0     C78404   4.741   1.563   8.395 -0.1547  0.4737  0.1639
  569MOL0     C78405   4.673   1.605   8.266 -0.4340  1.1206  0.1107
  569MOL0     C78406   4.598   1.740   8.283 -0.3051 -0.1782  0.8138
  569MOL0     C78407   4.556   1.787   8.140  1.1417 -0.1312  0.8307
  569MOL0     O78408   4.534   1.928   8.152  0.1104  0.4207  0.2213
  569MOL0     C78409   4.631   2.008   8.101 -0.1052  0.2081 -0.4801
  569MOL0     C78410   4.582   2.109   8.017 -0.0476  0.3255  0.1863
  569MOL0     C78411   4.670   2.193   7.940  0.0724  0.4655 -0.6032
  569MOL0     C78412   4.605   2.293   7.853 -0.6708  0.6319  0.2600
  569MOL0     C78413   4.812   2.183   7.972  0.1565 -0.4322 -0.7175
  569MOL0     C78414   4.914   2.270   7.915  0.0934  0.2272 -0.2881
  569MOL0     O78415   4.876   2.355   7.819 -0.4641 -0.3741  0.8804
  569MOL0     C78416   4.982   2.425   7.762 -0.3781 -0.3560 -0.5150
  569MOL0     C78417   5.049   2.376   7.655 -0.4474  0.2645  1.2598
  569MOL0     C78418   5.161   2.440   7.607  0.3140  0.1721 -0.2355
  569MOL0     C78419   5.222   2.548   7.679  0.6098  0.0559 -0.2869
  569MOL0     O78420   5.332   2.603   7.620 -0.8849  0.3497 -1.0068
  569MOL0     C78421   5.405   2.709   7.685  0.2658 -0.3537  0.1900
  569MOL0     C78422   5.508   2.770   7.584  0.9250  0.3807 -0.1657
  569MOL0     C78423   5.564   2.897   7.649  1.1550  0.5604 -0.0067
  569MOL0     C78424   5.711   2.910   7.598  0.1041 -0.3655 -0.7204
  569MOL0     C78425   5.774   3.039   7.665 -0.5926  0.7131 -0.0001
  569MOL0     C78426   5.880   3.097   7.566 -0.4986  0.4578  0.0529
  569MOL0     C78427   5.945   3.228   7.605  0.1810  0.2643  0.1214
  569MOL0     C78428   6.018   3.219   7.744  0.3500 -0.1830 -0.1370
  569MOL0    Cl78429   6.172   3.129   7.751 -0.5896  0.2254  0.3391
  569MOL0     C78430   5.167   2.595   7.796  0.1067 -0.3886  0.2511
  569MOL0     C78431   5.047   2.529   7.841  0.2618  0.9727  0.6847
  569MOL0     O78432   5.024   2.250   7.964 -0.3767  0.1007 -0.5462
  569MOL0     C78433   4.858   2.081   8.065  0.6095 -0.5811 -0.6743
  569MOL0     C78434   4.763   1.999   8.121 -0.3186  0.7404  0.3982
  569MOL0     N78435   4.866   1.381   8.249  0.4889  0.0570 -0.1114
  569MOL0     N78436   4.975   1.311   8.263 -0.5621 -0.4817  0.2481
  569MOL0     C78437   6.229   1.150   8.559 -0.6850 -0.5966 -0.7039
  569MOL0     C78438   6.362   1.170   8.535 -0.1906 -0.2071  0.6100
  569MOL0     C78439   6.720   1.397   8.322 -0.3731  0.0719  0.2867
  569MOL0     C78440   6.804   1.372   8.433 -0.1573  0.8138  0.7791
  569MOL0     C78441   6.938   1.408   8.421 -0.3768  0.6305  0.1019
  569MOL0     C78442   6.979   1.479   8.312 -0.1212 -0.2550 -0.5929
  569MOL0     O78443   7.107   1.531   8.323 -0.0456 -0.4136  0.2665
  569MOL0     C78444   7.141   1.629   8.229  0.3881  0.7344 -0.4925
  569MOL0     C78445   7.267   1.716   8.269  0.0577 -0.4151 -0.4782
  569MOL0     C78446   7.268   1.764   8.414  0.3655 -0.0547  0.8826
  569MOL0     C78447   7.150   1.857   8.442 -0.3946 -0.5293 -0.1235
  569MOL0     C78448   7.183   1.950   8.555 -1.0714  0.3712 -0.3588
  569MOL0     C78449   7.208   2.032   8.640  0.6692  0.1916 -0.0219
  569MOL0     C78450   6.903   1.494   8.198  0.4069  1.2209  0.0540
  569MOL0     C78451   6.778   1.431   8.199 -0.7737  0.0521  1.0964
  569MOL0     C78452   6.717   1.435   8.066  0.1627 -0.6187  0.6666
  569MOL0     H78453   6.326   1.504   8.458  0.4071 -0.6229  1.7727
  569MOL0     H78454   6.097   1.457   8.516  0.7247  1.3516 -0.6251
  569MOL0     H78455   5.918   1.367   8.487  0.3740 -1.7204 -0.4876
  569MOL0     H78456   5.922   1.372   8.656  2.3660  1.5808 -0.4327
  569MOL0     H78457   5.761   1.191   8.678  1.6772  0.1176  0.1858
  569MOL0     H78458   5.700   1.335   8.609  0.2896  0.0581  1.2898
  569MOL0     H78459   5.750   1.220   8.375  2.0654  0.3362  0.8625
  569MOL0     H78460   5.793   1.080   8.487 -0.0191 -0.4227 -1.0394
  569MOL0     H78461   5.547   1.045   8.388 -0.3817 -0.7864  1.3747
  569MOL0     H78462   5.563   1.069   8.565 -1.2910 -0.6804 -0.4477
  569MOL0     H78463   5.468   1.254   8.363  2.0918  0.7380  0.1630
  569MOL0     H78464   5.500   1.310   8.524 -0.6381  1.2272 -0.6814
  569MOL0     H78465   5.311   1.093   8.424  1.4784 -0.0920 -0.7439
  569MOL0     H78466   5.317   1.146   8.598 -0.0658  0.1715  0.4191
  569MOL0     H78467   5.248   1.336   8.381 -1.1304  1.3213  1.3130
  569MOL0     H78468   5.229   1.339   8.572  4.1271 -1.0129  1.9323
  569MOL0     H78469   5.083   1.134   8.408 -3.0291  0.8349 -2.3876
  569MOL0     H78470   5.062   1.201   8.566  0.2125  0.2382  0.0304
  569MOL0     H78471   4.903   1.406   8.573 -0.3525 -0.1394 -0.5443
  569MOL0     H78472   4.799   1.643   8.443 -1.0039  1.1579  0.0901
  569MOL0     H78473   4.669   1.536   8.473  0.8812  0.6580  1.2018
  569MOL0     H78474   4.747   1.615   8.186  0.3537 -0.6903  0.5561
  569MOL0     H78475   4.602   1.522   8.254  0.1581  0.3124  1.7961
  569MOL0     H78476   4.510   1.725   8.347 -2.0323  4.8594  0.0700
  569MOL0     H78477   4.659   1.809   8.340 -1.7989  0.7480  1.3551
  569MOL0     H78478   4.630   1.766   8.062  0.9727  1.6703  0.1294
  569MOL0     H78479   4.463   1.736   8.113  1.6732 -1.7703  1.9252
  569MOL0     H78480   4.478   2.111   7.989  0.2586 -1.0301 -1.1579
  569MOL0     H78481   4.621   2.266   7.748  1.9101 -0.8012  0.9137
  569MOL0     H78482   4.651   2.390   7.875  0.4110 -0.2720  2.2733
  569MOL0     H78483   4.498   2.314   7.862 -0.5929  1.5052 -0.6389
  569MOL0     H78484   5.011   2.291   7.600 -0.5835  1.1298 -0.0268
  569MOL0     H78485   5.197   2.396   7.515  1.3271  1.4273 -0.4692
  569MOL0     H78486   5.336   2.786   7.721 -0.9445 -1.5947  0.6063
  569MOL0     H78487   5.459   2.664   7.769 -1.3660 -0.4237  1.2476
  569MOL0     H78488   5.585   2.701   7.549 -1.3004 -1.7192 -1.2058
  569MOL0     H78489   5.446   2.799   7.499 -0.0502 -2.5424 -0.5628
  569MOL0     H78490   5.561   2.900   7.759 -1.3614  1.0333 -0.0234
  569MOL0     H78491   5.502   2.979   7.611 -0.3579 -1.6688 -2.7496
  569MOL0     H78492   5.712   2.917   7.488  0.0580  1.2461 -0.6441
  569MOL0     H78493   5.762   2.819   7.629 -0.1412 -0.2383  0.0770
  569MOL0     H78494   5.696   3.107   7.700 -0.9310 -0.5035  1.7235
  569MOL0     H78495   5.837   3.009   7.749  2.8310  0.1633 -2.5512
  569MOL0     H78496   5.831   3.108   7.469 -0.7363  1.0839  0.2425
  569MOL0     H78497   5.965   3.029   7.548 -0.0912  1.7851 -3.9992
  569MOL0     H78498   5.865   3.302   7.599 -2.0793 -2.1419 -2.9719
  569MOL0     H78499   6.025   3.251   7.535 -2.1684 -0.5535 -3.0634
  569MOL0     H78500   5.958   3.169   7.820  1.1606  2.1618  2.1693
  569MOL0     H78501   6.048   3.319   7.774  4.6102 -2.2964  3.9571
  569MOL0     H78502   5.205   2.675   7.858  1.3200 -0.5649 -0.2441
  569MOL0     H78503   4.995   2.558   7.931  1.5861  2.0669  1.1368
  569MOL0     H78504   4.962   2.063   8.091  0.9199  0.5427 -1.0849
  569MOL0     H78505   4.802   1.930   8.196  0.5989 -0.8334 -1.4155
  569MOL0     H78506   6.200   1.046   8.572 -0.1836 -0.8829 -1.7551
  569MOL0     H78507   6.436   1.092   8.524  1.1916  0.9778  1.1282
  569MOL0     H78508   6.772   1.330   8.528  1.7135 -1.6059  0.4237
  569MOL0     H78509   7.014   1.398   8.498 -0.6885 -0.1785  0.3089
  569MOL0     H78510   7.165   1.574   8.137  0.0095 -0.2788 -0.0039
  569MOL0     H78511   7.062   1.697   8.196 -2.1980 -0.2366  3.0988
  569MOL0     H78512   7.273   1.795   8.194 -2.6892  0.0696 -0.2944
  569MOL0     H78513   7.355   1.653   8.253  2.3259  2.0141  1.5654
  569MOL0     H78514   7.273   1.679   8.482  0.3862  1.1474  2.4346
  569MOL0     H78515   7.362   1.816   8.433  0.5307 -0.0768  0.1755
  569MOL0     H78516   7.071   1.790   8.476 -0.6753 -0.3671 -0.4467
  569MOL0     H78517   7.129   1.915   8.352  1.7853  0.5519 -0.0107
  569MOL0     H78518   7.237   2.092   8.724  0.2824  3.0791 -1.8049
  569MOL0     H78519   6.934   1.543   8.106 -0.4893  0.2596 -0.7827
  569MOL0     H78520   6.649   1.521   8.061 -1.0427 -1.5074  1.1847
  569MOL0     H78521   6.791   1.436   7.985 -1.0984  0.9069 -0.5333
  569MOL0     H78522   6.653   1.347   8.054 -1.7880  0.9201 -0.8873
  570MOL0     O78523   9.262   8.382   0.614 -0.5049  0.2200  0.1132
  570MOL0     C78524   9.275   8.341   0.725  0.3520 -0.1782 -0.9665
  570MOL0     O78525   9.224   8.411   0.831 -0.4107  0.7356  0.6799
  570MOL0     C78526   9.163   8.522   0.807 -0.2107 -0.5226 -0.4032
  570MOL0     C78527   9.221   8.646   0.775 -0.6914 -0.3591 -1.6490
  570MOL0     C78528   9.144   8.763   0.744  0.0641  0.5076 -0.0811
  570MOL0     C78529   9.009   8.753   0.763 -0.0825 -0.7592  0.5829
  570MOL0     O78530   8.935   8.867   0.740  0.4803  0.6028 -0.0784
  570MOL0     C78531   8.866   8.909   0.863 -0.3457  0.8019  0.7237
  570MOL0     C78532   8.922   9.008   0.962  0.0711  0.2339  0.9929
  570MOL0     C78533   9.056   8.959   1.015  0.2225  0.2691  0.6003
  570MOL0     C78534   9.076   9.014   1.162 -0.6682  0.5516  0.7655
  570MOL0     C78535   9.210   8.972   1.217 -0.0430 -0.5402 -0.0266
  570MOL0     C78536   9.197   8.942   1.372 -0.0341  0.5246 -0.1497
  570MOL0     C78537   9.164   9.062   1.447  0.6237 -1.2460 -0.7394
  570MOL0     C78538   9.265   9.109   1.554  0.3404  0.0743 -0.4724
  570MOL0     N78539   9.388   9.157   1.502 -0.7085 -0.2862  0.2062
  570MOL0     C78540   9.490   9.071   1.461  0.1868 -0.1281 -1.0168
  570MOL0     C78541   9.572   9.157   1.395 -0.5966 -0.6327  0.0404
  570MOL0     C78542   9.698   9.108   1.320  0.4709 -0.4393 -0.2171
  570MOL0     C78543   9.701   9.186   1.193 -0.0432 -0.3862 -0.4811
  570MOL0     C78544   9.840   9.159   1.127 -0.1465 -0.3800  0.2628
  570MOL0     C78545   9.870   9.256   1.003 -0.4240 -0.9445 -0.2053
  570MOL0     O78546   9.897   9.382   1.064 -0.0182  0.6054  0.0576
  570MOL0     C78547  10.004   9.461   1.014  0.1500 -0.0163  0.1091
  570MOL0     C78548  10.063   9.558   1.096  0.8342  0.4223 -0.1082
  570MOL0     C78549  10.177   9.631   1.059 -0.3111  0.1448  0.3613
  570MOL0     C78550  10.225   9.742   1.153 -0.1913  0.2401 -0.2250
  570MOL0     C78551  10.242   9.602   0.939 -0.0109  0.6158  0.4205
  570MOL0     C78552  10.379   9.651   0.901 -0.0984  0.1616  0.1664
  570MOL0     O78553  10.403   9.626   0.767 -0.3788 -0.0683 -0.4458
  570MOL0     C78554  10.533   9.645   0.729 -0.8357 -0.2515 -0.2352
  570MOL0     C78555  10.583   9.771   0.697  1.3395  0.3159  0.0541
  570MOL0     C78556  10.719   9.778   0.663 -0.1306  0.2044  0.3701
  570MOL0     C78557  10.805   9.670   0.638 -0.5359  0.2532 -0.8635
  570MOL0     O78558  10.940   9.666   0.606 -0.4815  0.1834 -0.4291
  570MOL0     C78559  11.010   9.785   0.570  0.2632  0.0905 -0.1789
  570MOL0     C78560  11.142   9.764   0.487 -0.3716  0.6050 -1.0966
  570MOL0     C78561  11.133   9.671   0.370  0.2485  0.6108 -0.1290
  570MOL0     C78562  11.253   9.658   0.283 -0.3900  0.1544 -0.7151
  570MOL0     C78563  11.250   9.764   0.169  0.0111 -0.5561 -0.2187
  570MOL0     C78564  11.381   9.788   0.092  0.5851  0.1866 -0.8883
  570MOL0     C78565  11.376   9.907   0.012  0.2524 -0.2115 -0.2554
  570MOL0     C78566  11.483   9.910  -0.089  0.1860  0.3093  0.2357
  570MOL0    Cl78567  11.648   9.935  -0.028  0.3902 -0.2578 -0.7973
  570MOL0     C78568  10.750   9.549   0.661 -0.1686  0.5322 -1.0501
  570MOL0     C78569  10.623   9.535   0.712 -0.3616  0.0342 -0.1410
  570MOL0     O78570  10.458   9.700   0.977 -0.0118 -0.2401 -0.3221
  570MOL0     C78571  10.179   9.512   0.842 -0.1287 -0.4305  0.3461
  570MOL0     C78572  10.063   9.448   0.887  0.4017  0.9347 -0.2753
  570MOL0     N78573   9.527   9.289   1.401 -0.7404 -0.0002 -0.2511
  570MOL0     N78574   9.412   9.284   1.458  1.2451  0.5380 -0.5170
  570MOL0     C78575   8.943   8.632   0.781  0.2309 -0.0791  0.4489
  570MOL0     C78576   9.023   8.521   0.818  0.2144  0.1112 -0.1745
  570MOL0     C78577   9.334   8.204   0.761 -0.2706  0.1471  0.1349
  570MOL0     C78578   9.381   8.130   0.657 -0.4636 -0.0080 -0.0805
  570MOL0     C78579   9.456   8.011   0.665 -0.6306 -0.2723 -0.7851
  570MOL0     C78580   9.472   7.947   0.794  0.1247  0.3161 -0.4646
  570MOL0     O78581   9.551   7.839   0.811  0.2558 -0.1730 -0.0335
  570MOL0     C78582   9.656   7.844   0.913 -0.1425  0.5523 -0.5296
  570MOL0     C78583   9.745   7.724   0.889 -0.3634 -0.3230  0.5064
  570MOL0     C78584   9.665   7.587   0.909 -0.0791 -0.1768  0.0008
  570MOL0     C78585   9.771   7.472   0.896 -0.5970  0.2064 -0.5336
  570MOL0     C78586   9.698   7.367   0.969  0.6356 -0.4048  0.7589
  570MOL0     C78587   9.645   7.269   1.028 -0.1324  0.2332 -0.2235
  570MOL0     C78588   9.408   8.013   0.907 -0.3344 -0.1461  0.2334
  570MOL0     C78589   9.332   8.136   0.892 -0.5258  0.3752  0.2253
  570MOL0     C78590   9.253   8.182   1.013 -0.3540  0.2107  0.2073
  570MOL0     H78591   9.327   8.659   0.756 -0.5764  0.9665 -0.3131
  570MOL0     H78592   9.183   8.863   0.726 -0.0119  1.0469  2.4057
  570MOL0     H78593   8.838   8.824   0.925 -0.5742 -0.6060 -1.2302
  570MOL0     H78594   8.769   8.947   0.828  0.3722  0.6307 -1.6404
  570MOL0     H78595   8.932   9.101   0.906  0.0340  0.3486  1.1764
  570MOL0     H78596   8.847   9.014   1.041 -2.5861  1.4888 -1.4608
  570MOL0     H78597   9.065   8.850   1.010  0.7780  0.3535 -1.8893
  570MOL0     H78598   9.132   8.992   0.944  0.4207 -1.5150 -0.0686
  570MOL0     H78599   9.059   9.121   1.172  1.5602  0.7994  2.6925
  570MOL0     H78600   9.008   8.970   1.236  0.7677  2.5637  3.4621
  570MOL0     H78601   9.291   9.044   1.204  0.2117 -0.2213  2.7231
  570MOL0     H78602   9.246   8.883   1.164 -0.5331 -0.6859 -0.1229
  570MOL0     H78603   9.123   8.864   1.389  0.3646  0.2001  0.1230
  570MOL0     H78604   9.296   8.910   1.406 -0.8525 -1.5403  0.4312
  570MOL0     H78605   9.072   9.028   1.495  1.3428 -2.2600 -0.0547
  570MOL0     H78606   9.145   9.147   1.381  0.9365 -0.0594  0.6362
  570MOL0     H78607   9.221   9.184   1.620 -1.4568 -1.9609  0.7812
  570MOL0     H78608   9.283   9.021   1.617 -2.0544 -1.2845 -1.5390
  570MOL0     H78609   9.498   8.964   1.476  3.8427  0.3204  1.3872
  570MOL0     H78610   9.696   9.004   1.286  2.2885 -0.0333 -1.6975
  570MOL0     H78611   9.787   9.113   1.382 -0.9330 -4.4936  2.5363
  570MOL0     H78612   9.622   9.166   1.120  0.7339 -0.6203 -1.2802
  570MOL0     H78613   9.692   9.292   1.218  3.8738 -0.5169  2.3013
  570MOL0     H78614   9.922   9.173   1.199  1.3923 -0.7795 -1.3407
  570MOL0     H78615   9.840   9.059   1.083  0.5461 -0.1964 -0.1580
  570MOL0     H78616   9.953   9.222   0.940  1.0199  1.0378  0.5169
  570MOL0     H78617   9.780   9.270   0.941 -1.6375  1.0178  1.8281
  570MOL0     H78618  10.021   9.580   1.194  1.8504 -0.1364  0.4711
  570MOL0     H78619  10.206   9.832   1.094  0.3211 -1.1413 -2.6752
  570MOL0     H78620  10.328   9.739   1.190  1.1712  1.1359 -3.5532
  570MOL0     H78621  10.165   9.732   1.244 -0.4361  0.6925 -0.3380
  570MOL0     H78622  10.521   9.859   0.711 -1.1135 -0.7790 -2.7436
  570MOL0     H78623  10.758   9.879   0.657 -1.7649  0.7696 -1.9624
  570MOL0     H78624  10.945   9.848   0.508  0.7784  0.7449 -0.0567
  570MOL0     H78625  11.028   9.834   0.665  0.8922 -1.6160  0.6246
  570MOL0     H78626  11.174   9.862   0.450  0.8677  1.1863  1.3071
  570MOL0     H78627  11.218   9.720   0.552 -0.1496 -1.8635 -2.9140
  570MOL0     H78628  11.051   9.708   0.308  1.2108  0.7569 -1.3398
  570MOL0     H78629  11.105   9.571   0.405  0.4748  0.0432 -1.5075
  570MOL0     H78630  11.263   9.557   0.242  1.1804 -0.5821  1.3188
  570MOL0     H78631  11.348   9.657   0.337 -1.2293 -3.0383  0.9792
  570MOL0     H78632  11.178   9.737   0.091  0.6923  3.3559 -2.4725
  570MOL0     H78633  11.203   9.857   0.201  2.0993  0.8461 -1.0076
  570MOL0     H78634  11.398   9.703   0.026 -1.0386 -1.5213  0.7942
  570MOL0     H78635  11.473   9.799   0.151  1.0558 -0.0536 -1.5642
  570MOL0     H78636  11.386   9.996   0.075  0.3707 -0.1930 -0.2991
  570MOL0     H78637  11.281   9.910  -0.041  0.5827  3.4315 -0.9027
  570MOL0     H78638  11.470   9.988  -0.165  0.5196  0.2394  0.1060
  570MOL0     H78639  11.489   9.815  -0.143  0.7502  1.0119 -0.9749
  570MOL0     H78640  10.811   9.463   0.638 -2.2640 -1.3651  0.0931
  570MOL0     H78641  10.579   9.438   0.734  1.6739 -0.9262 -0.0299
  570MOL0     H78642  10.205   9.517   0.737 -1.5775 -0.0556 -0.0162
  570MOL0     H78643  10.021   9.377   0.816  2.6698 -1.5291  0.6871
  570MOL0     H78644   8.836   8.626   0.765  0.5681 -0.5610 -1.9371
  570MOL0     H78645   8.970   8.427   0.828  0.5450 -0.1407 -0.7595
  570MOL0     H78646   9.369   8.161   0.554 -4.1671 -1.6918 -0.3001
  570MOL0     H78647   9.500   7.960   0.580  2.6625 -1.0763  1.2304
  570MOL0     H78648   9.702   7.943   0.910 -0.1589  0.5610 -0.5186
  570MOL0     H78649   9.602   7.835   1.008 -1.4493  1.4741 -1.1471
  570MOL0     H78650   9.830   7.737   0.956  0.1234  0.6842 -0.2781
  570MOL0     H78651   9.792   7.726   0.790  0.0861 -2.4622  0.6202
  570MOL0     H78652   9.622   7.589   1.009 -0.5125  0.4834 -0.1909
  570MOL0     H78653   9.585   7.575   0.836 -1.5326  0.0936  1.5000
  570MOL0     H78654   9.862   7.498   0.950  0.1914  1.9796 -2.5577
  570MOL0     H78655   9.789   7.437   0.794 -2.9149 -0.4968 -0.7619
  570MOL0     H78656   9.605   7.189   1.087  0.9256  1.2054  1.9114
  570MOL0     H78657   9.414   7.979   1.010 -0.1325  1.8947  0.9219
  570MOL0     H78658   9.276   8.132   1.108 -0.8608 -0.5857 -0.0799
  570MOL0     H78659   9.286   8.285   1.032 -0.5735  0.3048  0.0686
  570MOL0     H78660   9.148   8.180   0.985  0.0657 -1.0807 -1.3928
  571MOL0     O78661   9.863   7.332   7.126  0.6537 -1.1530 -0.4784
  571MOL0     C78662   9.876   7.235   7.199 -0.3453 -0.2052 -0.1332
  571MOL0     O78663   9.868   7.105   7.158 -0.5103 -0.9031 -0.6076
  571MOL0     C78664   9.819   7.088   7.039  0.1018 -0.3857 -0.6935
  571MOL0     C78665   9.875   7.127   6.915  0.0446 -0.3804  0.5048
  571MOL0     C78666   9.814   7.095   6.801  0.1525 -0.3366 -0.3291
  571MOL0     C78667   9.686   7.038   6.793  0.1375 -0.2871  0.1012
  571MOL0     O78668   9.613   7.010   6.677  0.5065 -0.0494 -0.0609
  571MOL0     C78669   9.674   7.026   6.543  0.3518 -0.6421 -0.6095
  571MOL0     C78670   9.581   6.955   6.452 -0.4047 -0.1685 -0.2443
  571MOL0     C78671   9.616   6.985   6.307  0.7252  0.2434  0.4191
  571MOL0     C78672   9.536   6.891   6.204 -0.5853 -0.5880  0.4183
  571MOL0     C78673   9.561   6.964   6.068  0.6508 -0.6631  0.5169
  571MOL0     C78674   9.524   6.866   5.954  0.0677  0.7052 -0.3253
  571MOL0     C78675   9.514   6.936   5.820  0.2391 -0.9208  0.3759
  571MOL0     C78676   9.425   6.862   5.707 -1.1521  0.2461 -0.0936
  571MOL0     N78677   9.486   6.748   5.638 -0.6208  0.1674 -0.3042
  571MOL0     C78678   9.547   6.752   5.515  0.1278  0.0985  0.2055
  571MOL0     C78679   9.581   6.625   5.488  0.6020  0.1216 -0.2868
  571MOL0     C78680   9.669   6.578   5.373 -0.2329 -0.2973  0.3850
  571MOL0     C78681   9.597   6.524   5.260  0.2954  0.5380  0.7524
  571MOL0     C78682   9.701   6.496   5.151  0.0337 -0.0953 -0.4862
  571MOL0     C78683   9.640   6.424   5.027 -0.0571  0.2037 -0.0038
  571MOL0     O78684   9.570   6.524   4.950 -0.1823 -0.0351  0.8241
  571MOL0     C78685   9.583   6.537   4.817  0.1795 -0.3182  0.3008
  571MOL0     C78686   9.548   6.656   4.752 -0.1521 -0.4085 -0.1748
  571MOL0     C78687   9.571   6.690   4.620  0.5509 -0.6036  0.4119
  571MOL0     C78688   9.519   6.825   4.577 -0.2311  0.1178 -0.7281
  571MOL0     C78689   9.627   6.599   4.532 -0.0702  1.1289 -1.1177
  571MOL0     C78690   9.639   6.618   4.390 -0.3051 -0.2174 -0.1556
  571MOL0     O78691   9.636   6.506   4.306  0.1121  0.4191 -0.3308
  571MOL0     C78692   9.652   6.516   4.166 -0.0891  0.4951  0.5921
  571MOL0     C78693   9.597   6.407   4.089 -0.4897  0.0715 -0.2912
  571MOL0     C78694   9.622   6.407   3.955  0.4817  0.8425 -0.5144
  571MOL0     C78695   9.693   6.503   3.888  0.0590 -0.2731 -0.2511
  571MOL0     O78696   9.704   6.489   3.756 -0.4027  0.0440  0.2825
  571MOL0     C78697   9.804   6.562   3.692  0.7061  0.4799 -0.1420
  571MOL0     C78698   9.789   6.543   3.539 -0.4912  1.1977  0.5570
  571MOL0     C78699   9.799   6.394   3.491 -0.1162 -1.2364 -0.3683
  571MOL0     C78700   9.699   6.355   3.384  0.0569  0.0340 -0.7798
  571MOL0     C78701   9.708   6.208   3.340  0.3365  0.1692  0.2519
  571MOL0     C78702   9.606   6.167   3.239 -0.1754  0.3107 -0.7888
  571MOL0     C78703   9.642   6.045   3.153 -0.3093 -1.0984 -0.0097
  571MOL0     C78704   9.672   5.929   3.250  0.5466  0.0571 -0.3851
  571MOL0    Cl78705   9.847   5.929   3.305 -0.4762  0.2857 -0.3352
  571MOL0     C78706   9.742   6.610   3.965 -0.3186 -0.0365  1.4136
  571MOL0     C78707   9.730   6.608   4.104  0.7377  0.1101  0.8873
  571MOL0     O78708   9.668   6.734   4.359 -0.8564  0.0320 -0.7184
  571MOL0     C78709   9.666   6.474   4.590  0.0206 -0.5117  0.1260
  571MOL0     C78710   9.644   6.446   4.729 -0.9962  0.1245  0.1265
  571MOL0     N78711   9.537   6.545   5.594 -0.3190 -0.1488 -0.0720
  571MOL0     N78712   9.487   6.619   5.686 -0.3032 -0.2886  0.3210
  571MOL0     C78713   9.626   7.005   6.916  0.0142  0.0062  0.3688
  571MOL0     C78714   9.687   7.024   7.035 -1.0673  0.2653 -0.3771
  571MOL0     C78715   9.884   7.251   7.345 -1.1022 -0.7090  0.1640
  571MOL0     C78716   9.924   7.146   7.424 -0.7477  0.3593  0.5104
  571MOL0     C78717   9.950   7.151   7.562  0.3268 -0.3514 -0.1128
  571MOL0     C78718   9.939   7.276   7.623 -0.7106  0.1104 -0.7322
  571MOL0     O78719   9.968   7.295   7.764 -0.2775  0.1775  0.4715
  571MOL0     C78720  10.014   7.187   7.842 -0.4226 -0.0859  0.1557
  571MOL0     C78721  10.087   7.256   7.959 -0.4865 -0.0144  0.6723
  571MOL0     C78722   9.998   7.310   8.068 -0.0688 -0.7253  1.0253
  571MOL0     C78723  10.066   7.409   8.166 -0.1906  0.0566 -0.3093
  571MOL0     C78724  10.107   7.523   8.092  0.1160 -0.0521 -0.2816
  571MOL0     C78725  10.156   7.620   8.034  0.4502  0.0702  0.1140
  571MOL0     C78726   9.903   7.386   7.542 -0.2219 -0.7064 -0.3458
  571MOL0     C78727   9.873   7.380   7.409  0.0022  1.2402 -0.0085
  571MOL0     C78728   9.798   7.498   7.367 -0.5727 -0.4294 -0.6954
  571MOL0     H78729   9.973   7.174   6.922  0.4479 -1.3685  2.3387
  571MOL0     H78730   9.870   7.114   6.710 -0.8485  1.9092 -0.5537
  571MOL0     H78731   9.775   6.984   6.543 -0.4331 -2.7078 -2.1594
  571MOL0     H78732   9.692   7.128   6.508  0.5678 -1.0262 -1.6643
  571MOL0     H78733   9.576   6.845   6.459  1.4954 -0.3927 -1.5393
  571MOL0     H78734   9.480   6.988   6.477 -0.0185  4.2092 -3.3948
  571MOL0     H78735   9.580   7.082   6.273 -1.2966  0.2358  2.2958
  571MOL0     H78736   9.721   6.968   6.283 -0.3952 -2.9362 -3.3036
  571MOL0     H78737   9.579   6.790   6.203  1.2940  0.1833  0.0961
  571MOL0     H78738   9.429   6.900   6.222 -0.0383  0.9964  3.4391
  571MOL0     H78739   9.668   6.980   6.054  1.1465 -3.4459  0.3846
  571MOL0     H78740   9.497   7.052   6.071 -2.0456 -2.5269  1.2970
  571MOL0     H78741   9.593   6.781   5.948 -2.2244 -1.1874 -1.4644
  571MOL0     H78742   9.429   6.816   5.974  1.4209 -0.8357  3.3724
  571MOL0     H78743   9.610   6.966   5.778 -0.4207  0.3193 -0.3220
  571MOL0     H78744   9.458   7.028   5.840  0.2864 -0.6547 -0.6397
  571MOL0     H78745   9.338   6.819   5.758 -0.7767 -2.5207 -1.5924
  571MOL0     H78746   9.400   6.941   5.635 -0.5032  0.5641  0.0163
  571MOL0     H78747   9.573   6.847   5.472 -0.8565  0.6456  0.7754
  571MOL0     H78748   9.741   6.503   5.404 -1.8996 -1.7957  0.8255
  571MOL0     H78749   9.720   6.668   5.336  3.3125 -2.8355 -1.4415
  571MOL0     H78750   9.539   6.435   5.287 -2.2206  2.2175  1.2166
  571MOL0     H78751   9.523   6.593   5.218  2.3790  1.2877 -1.9614
  571MOL0     H78752   9.758   6.586   5.128  0.2087  0.3610  1.5727
  571MOL0     H78753   9.765   6.420   5.197 -1.3319 -1.5249 -0.8570
  571MOL0     H78754   9.726   6.384   4.973  0.5141 -0.3010  1.2346
  571MOL0     H78755   9.575   6.340   5.054 -0.0118  0.2081  0.1219
  571MOL0     H78756   9.498   6.730   4.814  1.6677  1.5369 -0.8965
  571MOL0     H78757   9.464   6.814   4.482  0.6322 -0.9274 -1.1279
  571MOL0     H78758   9.602   6.896   4.577 -0.1549  0.1667  2.6411
  571MOL0     H78759   9.448   6.858   4.653 -2.4486  1.5133 -3.2208
  571MOL0     H78760   9.562   6.322   4.146  2.3761  0.1143  1.7495
  571MOL0     H78761   9.589   6.318   3.903  0.0051 -0.0365  1.2197
  571MOL0     H78762   9.796   6.670   3.707  0.3190  0.3411  0.7245
  571MOL0     H78763   9.905   6.529   3.720 -0.6593 -1.8389  2.5062
  571MOL0     H78764   9.694   6.587   3.507  0.4572  2.3914 -0.8173
  571MOL0     H78765   9.864   6.611   3.497 -0.2038  2.6620  3.2513
  571MOL0     H78766   9.794   6.333   3.582  1.2054  0.0125  0.5832
  571MOL0     H78767   9.896   6.370   3.448  0.3878 -1.6625  0.9439
  571MOL0     H78768   9.715   6.421   3.298  3.4501 -0.5456 -0.7433
  571MOL0     H78769   9.595   6.367   3.416 -0.5890 -2.3275 -1.7797
  571MOL0     H78770   9.808   6.191   3.298  1.6703 -2.1600  3.8576
  571MOL0     H78771   9.700   6.137   3.423  0.6408  1.9741  1.8939
  571MOL0     H78772   9.591   6.242   3.161  0.7760  1.2052 -0.1499
  571MOL0     H78773   9.513   6.164   3.296  0.3770 -0.6008  0.0884
  571MOL0     H78774   9.729   6.055   3.088 -0.0705  0.7508  0.5408
  571MOL0     H78775   9.558   6.028   3.084  0.3478 -0.7213 -0.9228
  571MOL0     H78776   9.650   5.841   3.189  0.2870  0.8651 -1.4736
  571MOL0     H78777   9.600   5.933   3.332 -2.8736 -2.6487 -2.9436
  571MOL0     H78778   9.810   6.681   3.919 -0.2849  0.6506  2.4997
  571MOL0     H78779   9.769   6.683   4.171 -3.8986  3.4773  0.3203
  571MOL0     H78780   9.711   6.388   4.540  0.1078 -0.6743  0.4807
  571MOL0     H78781   9.674   6.349   4.767 -2.1991 -0.6507 -0.8503
  571MOL0     H78782   9.528   6.959   6.912 -0.3599  0.8569 -1.0783
  571MOL0     H78783   9.641   7.009   7.133  0.7736  1.2064  0.6902
  571MOL0     H78784   9.955   7.050   7.384  1.9144  0.3953  2.2399
  571MOL0     H78785   9.976   7.063   7.620 -0.8757  2.1004  4.6687
  571MOL0     H78786   9.933   7.130   7.887 -1.6040 -1.9730 -3.8660
  571MOL0     H78787  10.079   7.119   7.786  0.1964 -0.8866  1.7797
  571MOL0     H78788  10.158   7.330   7.922  1.0588 -2.2191 -1.0548
  571MOL0     H78789  10.153   7.179   8.000  0.5546 -0.5348 -1.7786
  571MOL0     H78790   9.907   7.353   8.024  0.9022 -0.8156 -1.1615
  571MOL0     H78791   9.968   7.232   8.139 -1.2639 -0.2356  1.0918
  571MOL0     H78792  10.151   7.365   8.220 -0.1872 -0.0574 -0.4069
  571MOL0     H78793  10.003   7.453   8.244  0.8230 -0.1107  0.6401
  571MOL0     H78794  10.181   7.714   7.989 -1.1847  1.5714  2.1653
  571MOL0     H78795   9.882   7.475   7.600 -3.6354  1.1326 -3.9399
  571MOL0     H78796   9.864   7.565   7.310 -0.9923  3.6472  3.0508
  571MOL0     H78797   9.707   7.462   7.319 -0.9351 -0.3338 -0.0866
  571MOL0     H78798   9.746   7.558   7.443  2.4532  0.7288  0.6374
  572MOL0     O78799   3.196   7.366   2.093 -0.0647  0.6274 -0.3842
  572MOL0     C78800   3.071   7.381   2.115  0.0450 -0.3300 -1.0415
  572MOL0     O78801   3.020   7.494   2.171 -0.7540  0.3547  0.2731
  572MOL0     C78802   3.097   7.609   2.183 -0.5224  0.1350 -0.1470
  572MOL0     C78803   3.178   7.627   2.293 -0.1303  0.2070  0.5574
  572MOL0     C78804   3.261   7.739   2.294 -0.3032  0.9554 -0.0022
  572MOL0     C78805   3.289   7.809   2.180  0.8999 -0.4163 -0.5583
  572MOL0     O78806   3.378   7.914   2.177  0.1880 -0.8605  0.3649
  572MOL0     C78807   3.320   8.047   2.163  0.0254  0.3616 -0.2299
  572MOL0     C78808   3.265   8.105   2.298  0.5323 -0.1709  0.1775
  572MOL0     C78809   3.363   8.091   2.409  0.0457 -0.1398  0.2817
  572MOL0     C78810   3.308   8.151   2.535  0.0447  0.6378  1.0792
  572MOL0     C78811   3.390   8.119   2.659  0.3569 -1.3210 -0.2432
  572MOL0     C78812   3.338   8.192   2.781  0.2351  0.1889 -0.0040
  572MOL0     C78813   3.440   8.187   2.898 -0.8164 -0.1106  0.3899
  572MOL0     C78814   3.396   8.280   3.008 -0.5756 -0.2600 -0.4807
  572MOL0     N78815   3.389   8.425   2.980  0.0402  0.2053  0.2476
  572MOL0     C78816   3.280   8.495   2.932 -0.4417 -0.4769  0.3655
  572MOL0     C78817   3.327   8.622   2.903 -0.0498 -0.9692 -0.3550
  572MOL0     C78818   3.248   8.736   2.840  0.3199 -0.0892  0.1791
  572MOL0     C78819   3.287   8.870   2.890 -0.0453 -0.2293 -0.4525
  572MOL0     C78820   3.204   8.975   2.814  0.0234 -0.2719 -0.4996
  572MOL0     C78821   3.273   9.107   2.806 -0.3291 -0.9834  1.1681
  572MOL0     O78822   3.372   9.096   2.700  0.0653 -0.6082  0.1150
  572MOL0     C78823   3.496   9.146   2.716 -0.8423  0.4232 -0.9578
  572MOL0     C78824   3.533   9.250   2.812  0.2076  0.0791  0.3353
  572MOL0     C78825   3.669   9.296   2.830 -0.0613  0.2751  0.9292
  572MOL0     C78826   3.692   9.371   2.955  0.3331 -0.0019 -0.0929
  572MOL0     C78827   3.772   9.233   2.742 -0.2669  0.2955 -0.2059
  572MOL0     C78828   3.920   9.260   2.760 -0.5056  0.0243  0.4072
  572MOL0     O78829   4.008   9.203   2.666  0.2767 -0.2271  0.2809
  572MOL0     C78830   4.144   9.208   2.689  0.3874  0.1192 -0.0263
  572MOL0     C78831   4.195   9.146   2.806 -0.3512 -0.3789  0.1237
  572MOL0     C78832   4.335   9.129   2.817  0.3458  0.4630 -0.2725
  572MOL0     C78833   4.418   9.189   2.721 -0.4935 -0.1509  0.4175
  572MOL0     O78834   4.555   9.174   2.739  0.3202 -0.0340 -0.1901
  572MOL0     C78835   4.648   9.263   2.675 -0.2771  0.3565 -0.1835
  572MOL0     C78836   4.770   9.283   2.775 -0.2914  0.4355  0.5264
  572MOL0     C78837   4.844   9.149   2.804 -1.4762 -0.3710 -0.7665
  572MOL0     C78838   4.906   9.101   2.681 -0.0534  0.2151 -0.3302
  572MOL0     C78839   4.998   8.984   2.722  0.3381  0.1418  0.4677
  572MOL0     C78840   5.030   8.900   2.597 -0.0240 -0.2844 -0.1595
  572MOL0     C78841   5.109   8.777   2.644 -0.4160 -0.5335 -0.1676
  572MOL0     C78842   5.235   8.805   2.733 -0.2330 -0.7902  0.1485
  572MOL0    Cl78843   5.313   8.956   2.664 -0.1711  0.0195  0.6194
  572MOL0     C78844   4.366   9.243   2.598  0.0743 -0.0172  0.8061
  572MOL0     C78845   4.224   9.253   2.582  0.2807  0.2165 -0.4867
  572MOL0     O78846   3.951   9.326   2.854 -1.2285  0.5157 -0.3623
  572MOL0     C78847   3.737   9.151   2.631 -0.5564  0.3397  0.4150
  572MOL0     C78848   3.602   9.099   2.630  0.2809  0.0282  0.1928
  572MOL0     N78849   3.463   8.623   2.934 -0.2230  0.1434  0.1160
  572MOL0     N78850   3.500   8.507   2.971  0.1696 -0.0307  1.1803
  572MOL0     C78851   3.212   7.784   2.064  0.5567  1.3931  0.2310
  572MOL0     C78852   3.118   7.677   2.063 -0.3266  0.2222 -0.6150
  572MOL0     C78853   2.975   7.265   2.084  0.1128 -1.5864  0.2262
  572MOL0     C78854   2.858   7.302   2.013  0.4626  0.3704 -0.5808
  572MOL0     C78855   2.768   7.208   1.972 -0.2910  0.2242  0.2473
  572MOL0     C78856   2.802   7.071   2.003  0.4855 -0.4085 -0.8092
  572MOL0     O78857   2.710   6.989   1.958  0.5882  0.0586 -0.0855
  572MOL0     C78858   2.714   6.844   1.968 -0.0582 -0.5834  0.1290
  572MOL0     C78859   2.824   6.791   1.879 -0.0862  0.1529 -0.1065
  572MOL0     C78860   2.883   6.649   1.927  0.0066  0.1203  0.6319
  572MOL0     C78861   2.946   6.564   1.809 -0.1918 -1.0596 -0.2282
  572MOL0     C78862   3.047   6.477   1.869 -0.4788  1.2080  0.6813
  572MOL0     C78863   3.146   6.421   1.919  0.4291 -1.0918 -0.0207
  572MOL0     C78864   2.920   7.040   2.071  0.1999 -0.0949  0.3598
  572MOL0     C78865   3.005   7.137   2.125 -0.4664  0.3694 -0.1352
  572MOL0     C78866   3.121   7.087   2.214  0.5114 -1.0422  0.4983
  572MOL0     H78867   3.145   7.564   2.375 -2.3527  0.6965  0.1142
  572MOL0     H78868   3.307   7.769   2.387  1.2488  1.5690 -0.9160
  572MOL0     H78869   3.234   8.055   2.095  0.8210  2.8407 -1.0340
  572MOL0     H78870   3.400   8.113   2.128 -1.4654  1.8182 -1.0308
  572MOL0     H78871   3.243   8.209   2.269  0.1541  0.4819  2.6063
  572MOL0     H78872   3.166   8.062   2.314  0.6782 -0.9925 -1.0143
  572MOL0     H78873   3.393   7.987   2.428 -0.1369 -0.1960  0.2684
  572MOL0     H78874   3.455   8.147   2.393  0.2807 -0.4554  0.5159
  572MOL0     H78875   3.288   8.258   2.524  1.4431  0.8736  0.6509
  572MOL0     H78876   3.209   8.107   2.549 -0.5229  2.2306  2.2853
  572MOL0     H78877   3.491   8.158   2.644  0.1260 -0.5851  0.0719
  572MOL0     H78878   3.396   8.011   2.676 -2.4730 -1.4382  0.4035
  572MOL0     H78879   3.317   8.296   2.756  0.5889  0.5432  1.1082
  572MOL0     H78880   3.245   8.146   2.818 -0.7434  0.3615 -2.1031
  572MOL0     H78881   3.537   8.220   2.859 -0.4865 -0.5190  0.8502
  572MOL0     H78882   3.446   8.087   2.943  0.1464  0.2617  1.1066
  572MOL0     H78883   3.295   8.245   3.031 -0.9818  0.3435 -1.2926
  572MOL0     H78884   3.457   8.276   3.099  0.3216  3.1489 -0.7881
  572MOL0     H78885   3.184   8.446   2.919 -1.0817  0.8799 -0.1985
  572MOL0     H78886   3.141   8.723   2.861 -0.0472  2.4817  0.1665
  572MOL0     H78887   3.262   8.729   2.732 -2.5922  1.5809 -0.4058
  572MOL0     H78888   3.264   8.883   2.996 -5.4277  0.5945 -1.4395
  572MOL0     H78889   3.393   8.886   2.866  0.2043 -2.1557 -0.8328
  572MOL0     H78890   3.181   8.942   2.712 -0.9685  0.4997 -0.5409
  572MOL0     H78891   3.115   8.993   2.876  1.3119  2.3325  0.7678
  572MOL0     H78892   3.197   9.182   2.781  0.3549 -0.7378 -0.2845
  572MOL0     H78893   3.313   9.137   2.903 -2.4675  5.1321  0.5466
  572MOL0     H78894   3.466   9.301   2.879  0.1513 -0.1145  0.4261
  572MOL0     H78895   3.725   9.471   2.926 -0.0309  0.8390  2.1677
  572MOL0     H78896   3.769   9.330   3.022  0.5632  1.5840  0.6429
  572MOL0     H78897   3.608   9.389   3.023  0.4561  1.0316 -0.2090
  572MOL0     H78898   4.134   9.100   2.883 -1.3096 -2.3194 -1.7203
  572MOL0     H78899   4.378   9.069   2.897 -1.0235 -0.7605 -0.4222
  572MOL0     H78900   4.682   9.230   2.576  4.2986  1.7155  0.7363
  572MOL0     H78901   4.599   9.359   2.654 -3.2573 -1.2006 -1.0408
  572MOL0     H78902   4.835   9.360   2.733 -0.9697  0.4197 -0.6040
  572MOL0     H78903   4.736   9.317   2.873  1.5404  1.0786  0.9649
  572MOL0     H78904   4.784   9.077   2.860  3.7969 -3.4110  1.7655
  572MOL0     H78905   4.927   9.171   2.872 -2.4671  0.3063  0.2534
  572MOL0     H78906   4.955   9.177   2.619  2.7958 -2.7896 -2.0862
  572MOL0     H78907   4.828   9.064   2.614  1.6012  0.2401 -2.3773
  572MOL0     H78908   5.088   9.026   2.769  0.1555  2.0157 -0.7658
  572MOL0     H78909   4.948   8.916   2.792  0.3737  1.9406  2.3250
  572MOL0     H78910   5.077   8.958   2.517 -3.1596  2.9133  0.0796
  572MOL0     H78911   4.935   8.865   2.556  0.2831 -1.2420 -0.0909
  572MOL0     H78912   5.152   8.717   2.563 -1.7556 -0.4964 -0.9424
  572MOL0     H78913   5.038   8.719   2.703  0.4617 -1.6650 -0.1936
  572MOL0     H78914   5.304   8.720   2.734  2.0253  0.9743  1.6160
  572MOL0     H78915   5.185   8.829   2.827 -0.8019 -0.5152 -0.2195
  572MOL0     H78916   4.420   9.273   2.509 -2.0709 -0.1628 -0.6193
  572MOL0     H78917   4.179   9.305   2.498  2.3340  2.7712 -0.1484
  572MOL0     H78918   3.813   9.131   2.557 -1.1655 -3.0115  0.5446
  572MOL0     H78919   3.567   9.037   2.547  1.0568  2.4488 -2.0801
  572MOL0     H78920   3.237   7.837   1.973  2.1479 -1.5781 -1.1946
  572MOL0     H78921   3.066   7.647   1.972  0.5631  0.8264 -1.3352
  572MOL0     H78922   2.858   7.404   1.974  1.9192  1.0638  1.0874
  572MOL0     H78923   2.679   7.250   1.927  0.1445  2.7133  1.4985
  572MOL0     H78924   2.741   6.811   2.068  2.2830  3.5359  1.1023
  572MOL0     H78925   2.614   6.810   1.940 -0.1071  2.8972 -5.6505
  572MOL0     H78926   2.908   6.862   1.876 -2.2300  2.8313 -2.4466
  572MOL0     H78927   2.784   6.791   1.777  1.0263 -1.2746 -0.5752
  572MOL0     H78928   2.955   6.660   2.009  0.2215  1.4114  0.2927
  572MOL0     H78929   2.801   6.587   1.963  0.2774 -2.1201 -2.2801
  572MOL0     H78930   2.984   6.627   1.728 -3.3212 -1.8640 -2.4838
  572MOL0     H78931   2.869   6.505   1.759 -0.6292 -1.3870  0.8017
  572MOL0     H78932   3.236   6.381   1.961  1.2210  1.2722  0.6461
  572MOL0     H78933   2.926   6.934   2.091 -1.1422 -0.1456  0.6507
  572MOL0     H78934   3.213   7.120   2.165 -0.6424 -0.9352 -1.7221
  572MOL0     H78935   3.125   7.136   2.312  1.1325  2.1015 -0.9651
  572MOL0     H78936   3.120   6.978   2.227  3.5511 -1.2590 -0.3411
  573MOL0     O78937  11.266   6.496  10.347 -0.4494 -0.2049 -0.1728
  573MOL0     C78938  11.272   6.480  10.221 -0.7867  1.0287 -0.4015
  573MOL0     O78939  11.169   6.458  10.139  0.0281 -0.4592  0.0003
  573MOL0     C78940  11.042   6.468  10.189  0.4855 -0.7077 -0.0967
  573MOL0     C78941  11.004   6.580  10.255 -0.4169  0.6473  0.8550
  573MOL0     C78942  10.872   6.600  10.291 -0.1597  0.0452  0.5372
  573MOL0     C78943  10.785   6.487  10.295  0.0439 -0.2297 -0.3177
  573MOL0     O78944  10.658   6.499  10.334 -0.3153  0.4736  0.1957
  573MOL0     C78945  10.629   6.582  10.443 -0.0198 -0.4117 -0.5287
  573MOL0     C78946  10.524   6.518  10.540  0.1505 -0.4444  0.0740
  573MOL0     C78947  10.492   6.603  10.667  0.0747 -0.2100  0.5950
  573MOL0     C78948  10.347   6.567  10.713  0.4699 -0.8977 -0.0777
  573MOL0     C78949  10.311   6.638  10.847  0.8924 -0.0081 -0.1713
  573MOL0     C78950  10.168   6.681  10.854 -0.7784  0.5605  0.3488
  573MOL0     C78951  10.125   6.766  10.973  0.0118  0.1171  0.7831
  573MOL0     C78952  10.177   6.907  10.979 -1.1795 -1.0190  0.6160
  573MOL0     N78953  10.161   6.984  10.864  0.7393  0.3490  0.9086
  573MOL0     C78954  10.042   7.013  10.802  0.1319 -0.4352 -0.6701
  573MOL0     C78955  10.085   7.087  10.697  0.4390  0.3031 -0.0991
  573MOL0     C78956   9.991   7.168  10.604 -0.2731  0.1952 -0.5452
  573MOL0     C78957   9.990   7.102  10.467  0.5405 -0.3520 -0.1967
  573MOL0     C78958   9.862   7.126  10.393  0.7169 -0.3671 -0.2453
  573MOL0     C78959   9.862   7.107  10.236 -0.4226 -0.5083 -0.3132
  573MOL0     O78960   9.740   7.167  10.191  0.4458  0.9666  0.4556
  573MOL0     C78961   9.655   7.110  10.100 -0.0586  0.2412  0.0261
  573MOL0     C78962   9.573   7.196  10.033  0.0602  0.1244 -0.0363
  573MOL0     C78963   9.483   7.151   9.929 -0.2834  0.1275  0.1036
  573MOL0     C78964   9.423   7.253   9.838  0.2118 -0.5350  0.0183
  573MOL0     C78965   9.472   7.016   9.910 -0.4867  0.0024 -0.4419
  573MOL0     C78966   9.386   6.951   9.810 -0.3179 -0.5867  0.1103
  573MOL0     O78967   9.308   6.849   9.862  0.5222  0.6394 -0.1796
  573MOL0     C78968   9.252   6.765   9.770  0.7276  0.3644 -0.9972
  573MOL0     C78969   9.295   6.633   9.751 -0.4041 -0.0924 -0.0319
  573MOL0     C78970   9.225   6.546   9.671 -0.7521  0.4277  0.0348
  573MOL0     C78971   9.113   6.583   9.605  0.3366  0.1902  0.0107
  573MOL0     O78972   9.030   6.498   9.533 -0.0400 -0.1387  0.3923
  573MOL0     C78973   9.082   6.379   9.478  0.3589  0.9021  0.3980
  573MOL0     C78974   9.159   6.388   9.343 -0.3004 -0.0889 -1.1017
  573MOL0     C78975   9.064   6.430   9.225  0.0675 -0.4133 -0.1751
  573MOL0     C78976   9.129   6.397   9.088 -0.3093  0.2156 -0.1094
  573MOL0     C78977   9.048   6.446   8.963 -0.1317  0.0807  0.0513
  573MOL0     C78978   9.111   6.395   8.836  0.2033 -0.8933  0.4168
  573MOL0     C78979   9.031   6.430   8.713 -0.1674 -0.0868  0.8387
  573MOL0     C78980   8.914   6.339   8.705  0.0471 -0.7405 -0.1534
  573MOL0    Cl78981   8.844   6.358   8.550 -0.1043 -0.0218  0.0103
  573MOL0     C78982   9.066   6.719   9.626  0.0483  0.5406  0.5696
  573MOL0     C78983   9.139   6.810   9.705  0.5885 -0.3919  1.0569
  573MOL0     O78984   9.393   6.996   9.692  0.5273 -0.2055  0.2118
  573MOL0     C78985   9.554   6.926   9.982  0.3392 -0.3171  0.7059
  573MOL0     C78986   9.645   6.970  10.073 -0.1024 -0.7505 -0.0569
  573MOL0     N78987  10.221   7.101  10.693  0.1975  0.2092  0.2386
  573MOL0     N78988  10.258   7.040  10.795  0.3576 -0.2699 -0.3131
  573MOL0     C78989  10.831   6.366  10.240 -0.1195  0.0561 -0.0309
  573MOL0     C78990  10.954   6.359  10.177 -0.1935 -0.4163  0.0924
  573MOL0     C78991  11.405   6.443  10.169 -1.0205 -0.8439 -0.1105
  573MOL0     C78992  11.421   6.323  10.108  0.5549  1.7773  1.0610
  573MOL0     C78993  11.543   6.286  10.053  0.5281 -0.6151  0.3294
  573MOL0     C78994  11.661   6.370  10.069 -1.0067  0.0034  0.6559
  573MOL0     O78995  11.780   6.331   9.999 -0.2825  0.1286  0.1592
  573MOL0     C78996  11.897   6.412  10.024 -0.9389  0.6731 -0.6739
  573MOL0     C78997  12.009   6.303  10.022  0.4542 -0.3936 -0.1924
  573MOL0     C78998  12.151   6.349   9.964  0.1587 -0.6275  0.5421
  573MOL0     C78999  12.231   6.438  10.056 -0.1998 -0.3051 -0.0988
  573MOL0     C79000  12.184   6.578  10.040 -0.3633 -0.1205  0.4999
  573MOL0     C79001  12.125   6.689  10.022  0.0611 -0.1031 -0.5843
  573MOL0     C79002  11.644   6.495  10.133  0.4584 -0.7349  0.2609
  573MOL0     C79003  11.520   6.528  10.186 -0.6418  0.4094 -0.0741
  573MOL0     C79004  11.513   6.670  10.243  0.0275  0.9839 -0.0523
  573MOL0     H79005  11.069   6.667  10.254 -0.3704  0.6154 -0.7107
  573MOL0     H79006  10.843   6.699  10.325  1.3839  0.3596  1.0418
  573MOL0     H79007  10.588   6.680  10.417 -1.8389 -0.7884  0.6925
  573MOL0     H79008  10.719   6.614  10.495 -0.2686  1.6913 -1.2943
  573MOL0     H79009  10.438   6.510  10.472  2.0484  2.1488 -2.8833
  573MOL0     H79010  10.545   6.416  10.575 -0.2280 -0.0010  1.6775
  573MOL0     H79011  10.569   6.585  10.743  1.0048 -1.2056 -0.5377
  573MOL0     H79012  10.497   6.706  10.630 -0.7161 -0.1891  0.5259
  573MOL0     H79013  10.279   6.602  10.635 -0.7292 -1.3919  0.6994
  573MOL0     H79014  10.342   6.458  10.721 -0.3935 -0.9099 -0.5983
  573MOL0     H79015  10.382   6.717  10.873 -0.9380  0.7977  3.0253
  573MOL0     H79016  10.315   6.573  10.935 -1.0872  1.7281  1.3220
  573MOL0     H79017  10.142   6.723  10.756 -2.7810 -0.8586  0.2100
  573MOL0     H79018  10.110   6.588  10.844  3.3015 -2.2391  0.1480
  573MOL0     H79019  10.167   6.712  11.059  1.1254 -1.7606 -0.8358
  573MOL0     H79020  10.016   6.764  10.971  0.0080 -2.2085 -0.6709
  573MOL0     H79021  10.137   6.948  11.072  0.3458 -0.7384  1.1806
  573MOL0     H79022  10.285   6.915  10.990 -1.3329 -1.6427  3.1073
  573MOL0     H79023   9.941   6.988  10.834 -0.1298 -2.3636 -2.6840
  573MOL0     H79024  10.033   7.266  10.581  4.1416 -1.0082  1.2424
  573MOL0     H79025   9.893   7.170  10.652  0.9843  0.2659  2.1536
  573MOL0     H79026  10.071   7.148  10.411  1.6058  0.7466  2.0909
  573MOL0     H79027   9.999   6.993  10.476  1.6779 -0.3402 -1.0104
  573MOL0     H79028   9.785   7.055  10.423 -0.9212 -0.2470 -3.6592
  573MOL0     H79029   9.828   7.227  10.419  2.3309 -0.6150  3.5034
  573MOL0     H79030   9.934   7.168  10.182 -0.7457 -1.4318 -1.8409
  573MOL0     H79031   9.883   7.004  10.207 -1.3599 -0.5559 -0.8714
  573MOL0     H79032   9.575   7.302  10.053  0.3540  0.1685 -0.3009
  573MOL0     H79033   9.501   7.296   9.775 -0.7233  1.2210 -0.0212
  573MOL0     H79034   9.380   7.336   9.896  0.0260  0.7597 -1.8699
  573MOL0     H79035   9.341   7.208   9.781 -0.4727 -1.4804  1.6777
  573MOL0     H79036   9.390   6.609   9.798  0.5315  2.6572 -0.2920
  573MOL0     H79037   9.279   6.453   9.656 -0.0985  0.9296 -0.8302
  573MOL0     H79038   9.142   6.331   9.556  2.2077  2.9723  0.3205
  573MOL0     H79039   9.008   6.301   9.456  2.5382 -1.0987 -0.2408
  573MOL0     H79040   9.245   6.453   9.359 -0.1624 -0.5940  0.4467
  573MOL0     H79041   9.196   6.288   9.320 -0.0895 -0.7937  1.9219
  573MOL0     H79042   9.035   6.535   9.232 -2.9168 -1.0995 -0.6033
  573MOL0     H79043   8.974   6.367   9.235  1.4332 -2.9131 -2.2874
  573MOL0     H79044   9.138   6.288   9.088 -0.9194  0.1623  0.3750
  573MOL0     H79045   9.229   6.442   9.094  0.5871 -1.5477 -0.8573
  573MOL0     H79046   8.943   6.414   8.972  0.4694 -1.7735  0.9640
  573MOL0     H79047   9.033   6.554   8.953 -0.4773  0.0608  0.2937
  573MOL0     H79048   9.133   6.289   8.856 -1.1656 -1.5604 -1.3638
  573MOL0     H79049   9.209   6.443   8.822 -1.4814  2.3984 -1.0250
  573MOL0     H79050   9.091   6.426   8.621 -1.1810 -0.2845  0.1778
  573MOL0     H79051   9.001   6.534   8.724 -0.1097  0.0319 -0.0992
  573MOL0     H79052   8.844   6.354   8.787 -1.1360  0.6137 -1.3550
  573MOL0     H79053   8.944   6.234   8.710 -1.7854 -1.3131 -0.5237
  573MOL0     H79054   8.967   6.737   9.586  0.0976  0.4148  0.3921
  573MOL0     H79055   9.095   6.908   9.720  3.8075  1.2859  0.2597
  573MOL0     H79056   9.551   6.818   9.966  0.3481 -0.1155 -0.7912
  573MOL0     H79057   9.722   6.910  10.119  0.9859 -0.6293 -1.6442
  573MOL0     H79058  10.769   6.277  10.233 -4.5219  2.8854 -1.5628
  573MOL0     H79059  10.993   6.264  10.141 -1.5446 -0.7559 -0.5405
  573MOL0     H79060  11.345   6.245  10.101  0.7884  1.5734  0.7609
  573MOL0     H79061  11.541   6.193   9.997  0.1088 -0.4878  0.1302
  573MOL0     H79062  11.916   6.481   9.942 -2.3373  0.4610 -1.2049
  573MOL0     H79063  11.905   6.460  10.122  1.5639  3.0178 -1.9111
  573MOL0     H79064  11.981   6.227   9.950 -0.3065 -0.9153  0.6335
  573MOL0     H79065  12.007   6.267  10.126  0.9381  0.3787  0.0962
  573MOL0     H79066  12.204   6.254   9.959 -1.6710 -1.7154  1.0108
  573MOL0     H79067  12.136   6.382   9.861 -3.4865 -0.4512  0.9913
  573MOL0     H79068  12.333   6.437  10.018 -0.1194 -1.8900  0.1124
  573MOL0     H79069  12.226   6.399  10.158  3.8954  1.1671  0.8301
  573MOL0     H79070  12.075   6.783  10.013  1.3675  0.8974  1.7335
  573MOL0     H79071  11.729   6.562  10.141  1.0251 -1.5589  1.3661
  573MOL0     H79072  11.569   6.740  10.179  4.9738 -0.6655  1.9851
  573MOL0     H79073  11.410   6.705  10.256  0.0603  1.5343 -1.1034
  573MOL0     H79074  11.571   6.675  10.335  0.5835 -2.1864 -0.1242
  574MOL0     O79075   6.288   9.994   1.314  0.4605 -0.1309 -0.0289
  574MOL0     C79076   6.332   9.979   1.430  0.4499  1.0120  0.9295
  574MOL0     O79077   6.371  10.082   1.514 -0.7631 -0.0866  0.8118
  574MOL0     C79078   6.361  10.214   1.477  0.5402  0.8741 -0.1707
  574MOL0     C79079   6.277  10.292   1.551  0.5759  0.4504  0.6882
  574MOL0     C79080   6.270  10.433   1.520 -0.2429 -0.1153 -0.2078
  574MOL0     C79081   6.349  10.479   1.414 -0.4482 -0.5277 -0.3670
  574MOL0     O79082   6.342  10.615   1.379  0.5985 -0.3048  0.4056
  574MOL0     C79083   6.224  10.687   1.419 -0.2233  0.4141 -0.2667
  574MOL0     C79084   6.203  10.815   1.346 -0.3459 -0.4520 -0.7133
  574MOL0     C79085   6.291  10.911   1.410  0.2300 -0.0630 -0.2940
  574MOL0     C79086   6.244  11.047   1.357  0.4091  0.0173  0.9147
  574MOL0     C79087   6.339  11.149   1.420 -0.0170  0.5140  0.3826
  574MOL0     C79088   6.300  11.179   1.562  0.4439 -0.1003 -0.7442
  574MOL0     C79089   6.358  11.300   1.635 -0.1379 -1.1714 -0.1416
  574MOL0     C79090   6.391  11.428   1.550  0.6249  0.7349  0.2736
  574MOL0     N79091   6.271  11.504   1.541  0.7195  0.9187 -0.5459
  574MOL0     C79092   6.225  11.585   1.643 -0.1540  0.0652 -0.1231
  574MOL0     C79093   6.128  11.658   1.588 -0.1983 -0.6138 -0.1074
  574MOL0     C79094   6.062  11.770   1.654  0.0447 -1.3286 -1.4059
  574MOL0     C79095   5.938  11.737   1.740 -0.0518 -0.1626  0.1616
  574MOL0     C79096   5.829  11.661   1.663 -1.0553  0.4453  0.1893
  574MOL0     C79097   5.725  11.586   1.745  0.2492 -1.0426 -0.2028
  574MOL0     O79098   5.612  11.666   1.755 -0.0609  0.5066  0.0395
  574MOL0     C79099   5.504  11.610   1.821  0.1058 -0.4424 -0.4511
  574MOL0     C79100   5.486  11.478   1.850  1.1914 -0.6013 -0.8263
  574MOL0     C79101   5.379  11.432   1.920  0.4661  0.6342  0.6872
  574MOL0     C79102   5.365  11.273   1.948 -0.9519  0.0745  0.8865
  574MOL0     C79103   5.280  11.525   1.972 -0.3831 -0.0552 -0.1169
  574MOL0     C79104   5.165  11.494   2.067 -0.1526  0.7609  0.2786
  574MOL0     O79105   5.069  11.589   2.078  0.3123  0.0248  0.2921
  574MOL0     C79106   4.959  11.574   2.166 -0.4497 -0.8020 -1.1815
  574MOL0     C79107   4.923  11.694   2.238  0.5024 -0.2471 -0.4355
  574MOL0     C79108   4.801  11.693   2.316 -0.2219  0.6430 -0.1711
  574MOL0     C79109   4.720  11.578   2.318 -0.6488  0.3840 -0.0587
  574MOL0     O79110   4.604  11.599   2.397 -0.1197  0.1047 -0.0306
  574MOL0     C79111   4.507  11.493   2.401 -0.7321 -0.3823 -0.2787
  574MOL0     C79112   4.367  11.558   2.440 -1.1136  0.4674 -0.1869
  574MOL0     C79113   4.267  11.445   2.500 -0.4660  0.4915  0.2329
  574MOL0     C79114   4.142  11.506   2.561  0.8417  0.1962 -0.3551
  574MOL0     C79115   4.081  11.416   2.663  0.3921  0.1072  0.1468
  574MOL0     C79116   4.156  11.412   2.801  0.8838  0.3631 -1.1571
  574MOL0     C79117   4.074  11.314   2.882 -0.2158 -0.4175  0.0982
  574MOL0     C79118   4.137  11.282   3.020 -0.9599 -0.1672  0.1157
  574MOL0    Cl79119   4.280  11.181   3.011 -0.0758  0.0776  0.1367
  574MOL0     C79120   4.757  11.461   2.248 -0.4098 -0.0081  0.0212
  574MOL0     C79121   4.878  11.458   2.172 -0.2949 -0.0477 -0.8997
  574MOL0     O79122   5.176  11.403   2.139  0.6266 -0.0623 -1.4150
  574MOL0     C79123   5.306  11.660   1.947 -0.8495  0.5741  0.0754
  574MOL0     C79124   5.411  11.698   1.868  0.5454 -0.0284 -0.6949
  574MOL0     N79125   6.107  11.614   1.459  0.4843  0.4337 -0.6328
  574MOL0     N79126   6.189  11.516   1.431  0.2580 -0.3051  0.2636
  574MOL0     C79127   6.438  10.398   1.340  0.8581  0.0077  0.3076
  574MOL0     C79128   6.448  10.265   1.377  0.1147 -0.1679  0.1433
  574MOL0     C79129   6.352   9.832   1.482 -0.5734 -1.5096 -0.3372
  574MOL0     C79130   6.297   9.725   1.404 -0.2707  0.1010  0.0577
  574MOL0     C79131   6.298   9.598   1.453 -0.4705 -0.4982  0.0917
  574MOL0     C79132   6.364   9.567   1.571  0.0260  1.0155  0.7251
  574MOL0     O79133   6.377   9.439   1.624  0.2394 -0.9553  0.7366
  574MOL0     C79134   6.285   9.342   1.587  0.2252  0.3873 -0.2779
  574MOL0     C79135   6.131   9.373   1.608 -0.0846  0.2861 -0.1401
  574MOL0     C79136   6.037   9.249   1.595  0.2008  0.4487 -0.4251
  574MOL0     C79137   5.876   9.281   1.603  0.2245 -1.0697 -0.4911
  574MOL0     C79138   5.858   9.382   1.504  1.0414  0.1185  0.4029
  574MOL0     C79139   5.860   9.464   1.413  0.5545  1.1929 -0.1773
  574MOL0     C79140   6.435   9.660   1.638 -0.3464 -0.9074  0.5482
  574MOL0     C79141   6.434   9.795   1.599  0.3345 -0.3782  0.4170
  574MOL0     C79142   6.509   9.883   1.686  0.2617 -0.1968 -0.1619
  574MOL0     H79143   6.224  10.253   1.637 -2.7475  3.2965  0.2098
  574MOL0     H79144   6.202  10.497   1.575  3.5274  2.8811  1.3768
  574MOL0     H79145   6.226  10.695   1.528  1.4075  0.8672 -0.3014
  574MOL0     H79146   6.135  10.627   1.405  1.6989 -3.2531  1.7255
  574MOL0     H79147   6.218  10.813   1.237  0.8897  2.2864 -0.6732
  574MOL0     H79148   6.101  10.847   1.370  1.4193  4.4701  1.5220
  574MOL0     H79149   6.284  10.909   1.519  2.3195  1.6773 -0.0737
  574MOL0     H79150   6.398  10.901   1.389  0.5093  2.4361 -0.3231
  574MOL0     H79151   6.255  11.055   1.248  0.5004  1.7531  1.0189
  574MOL0     H79152   6.139  11.066   1.380  0.6226 -0.3642  2.3055
  574MOL0     H79153   6.358  11.237   1.358 -0.5602 -0.5106 -1.3129
  574MOL0     H79154   6.441  11.111   1.411 -0.9394 -2.0142 -0.2237
  574MOL0     H79155   6.191  11.178   1.560  0.3975 -2.6872 -1.3732
  574MOL0     H79156   6.329  11.098   1.631  2.2526 -0.1844 -1.5387
  574MOL0     H79157   6.453  11.262   1.673  1.4207  1.6080 -1.0305
  574MOL0     H79158   6.303  11.325   1.726  1.7169  1.4045  0.3670
  574MOL0     H79159   6.475  11.487   1.587  1.6780 -0.0738 -0.7471
  574MOL0     H79160   6.418  11.383   1.454 -0.3108 -0.7401  0.6633
  574MOL0     H79161   6.266  11.601   1.742  1.8775  2.1905 -1.2209
  574MOL0     H79162   6.039  11.846   1.578  0.5929 -0.7578 -1.0130
  574MOL0     H79163   6.119  11.829   1.727 -3.4161 -0.6392  0.9722
  574MOL0     H79164   5.977  11.685   1.828  2.1595 -2.0006 -1.7553
  574MOL0     H79165   5.896  11.832   1.772  0.6422  0.6051 -1.1204
  574MOL0     H79166   5.787  11.705   1.573 -0.3863 -1.1662 -0.9498
  574MOL0     H79167   5.887  11.583   1.613 -0.1085  1.5811 -0.5275
  574MOL0     H79168   5.709  11.486   1.704  0.5329 -0.6573 -1.2833
  574MOL0     H79169   5.760  11.554   1.844 -1.7229  0.6484  1.1009
  574MOL0     H79170   5.557  11.400   1.825  2.0227 -0.5109  1.0142
  574MOL0     H79171   5.389  11.250   2.053  0.8657 -0.6020  0.3697
  574MOL0     H79172   5.441  11.217   1.892  1.3224  2.7428  1.1112
  574MOL0     H79173   5.267  11.226   1.933  0.3300 -1.9463 -2.2412
  574MOL0     H79174   4.989  11.781   2.243 -2.8251  2.4851  3.9818
  574MOL0     H79175   4.774  11.774   2.383  2.8794 -0.7925  3.0998
  574MOL0     H79176   4.491  11.433   2.311 -0.0983 -2.1047  0.7105
  574MOL0     H79177   4.542  11.427   2.481  3.0083 -0.3611 -1.6812
  574MOL0     H79178   4.381  11.650   2.498  0.3269  1.0094 -1.3361
  574MOL0     H79179   4.323  11.596   2.348  0.2709  1.7280 -0.3655
  574MOL0     H79180   4.316  11.389   2.580 -2.0862 -1.1758  0.1309
  574MOL0     H79181   4.236  11.371   2.426 -2.7618 -0.5766  2.1251
  574MOL0     H79182   4.069  11.528   2.482 -2.0089  1.8018  2.5076
  574MOL0     H79183   4.170  11.599   2.610 -2.8295  0.4809  1.6030
  574MOL0     H79184   3.982  11.458   2.684  0.1273  0.2814 -1.3369
  574MOL0     H79185   4.067  11.319   2.614  0.5211  0.1983 -0.0720
  574MOL0     H79186   4.139  11.514   2.837 -2.2427 -0.5713  0.4176
  574MOL0     H79187   4.263  11.390   2.804  1.0053  0.9607 -0.9761
  574MOL0     H79188   4.056  11.220   2.830  0.8974 -0.2101 -0.6988
  574MOL0     H79189   3.976  11.361   2.892  0.1836  0.1753  1.4849
  574MOL0     H79190   4.062  11.242   3.089 -0.5519  1.1861  1.4134
  574MOL0     H79191   4.163  11.373   3.076  0.2801 -1.6235  2.0470
  574MOL0     H79192   4.699  11.369   2.252  0.2491 -0.4470 -0.1858
  574MOL0     H79193   4.923  11.371   2.126  3.1747  2.2602 -2.2517
  574MOL0     H79194   5.236  11.734   1.983 -1.3363  0.6647 -1.0041
  574MOL0     H79195   5.425  11.805   1.858  2.3164 -0.0089  1.2987
  574MOL0     H79196   6.495  10.455   1.268  2.0426 -2.3550 -0.7308
  574MOL0     H79197   6.517  10.202   1.320  0.9506  0.8275  0.0132
  574MOL0     H79198   6.245   9.743   1.310  0.2122 -1.4644 -0.5397
  574MOL0     H79199   6.243   9.522   1.398 -0.7611 -0.0771 -0.1980
  574MOL0     H79200   6.297   9.317   1.481 -2.6676 -3.2615  0.0452
  574MOL0     H79201   6.301   9.253   1.648 -3.0866  1.4282  2.4579
  574MOL0     H79202   6.099   9.457   1.546 -3.1639 -0.0633  0.8372
  574MOL0     H79203   6.120   9.402   1.713 -0.1833  1.6191 -0.5008
  574MOL0     H79204   6.065   9.197   1.503 -2.0331 -0.2066 -0.7877
  574MOL0     H79205   6.066   9.183   1.677 -0.0547  1.1016  0.2051
  574MOL0     H79206   5.861   9.319   1.704 -2.5111 -0.5886 -0.9952
  574MOL0     H79207   5.810   9.195   1.591 -0.8267 -0.4649  0.7339
  574MOL0     H79208   5.868   9.532   1.330  0.7805 -0.9739 -2.0453
  574MOL0     H79209   6.491   9.631   1.726  3.8924  0.6866 -1.3013
  574MOL0     H79210   6.581   9.949   1.635 -1.0633  3.1835  1.9875
  574MOL0     H79211   6.438   9.953   1.730  0.6348  0.8328 -1.1552
  574MOL0     H79212   6.571   9.839   1.765  2.6722  1.7319 -0.8527
  575MOL0     O79213  10.996   2.424   0.664  0.3747 -0.3819 -0.2702
  575MOL0     C79214  11.106   2.368   0.662 -0.0583 -0.1611 -0.8376
  575MOL0     O79215  11.137   2.243   0.688  1.0610  0.1258 -0.8654
  575MOL0     C79216  11.044   2.165   0.743  0.2625  0.4884  0.2479
  575MOL0     C79217  10.984   2.188   0.870 -0.6321 -0.1004 -0.1493
  575MOL0     C79218  10.886   2.088   0.921  0.3752  0.2156  0.2946
  575MOL0     C79219  10.843   1.978   0.848 -0.2969  0.2649  0.6156
  575MOL0     O79220  10.741   1.896   0.898  0.0613 -0.2283  0.0942
  575MOL0     C79221  10.665   1.796   0.833  0.7572 -0.3046 -0.0230
  575MOL0     C79222  10.534   1.751   0.901  0.1047  0.6467  0.0619
  575MOL0     C79223  10.544   1.699   1.046  0.1084  0.2648 -0.1771
  575MOL0     C79224  10.406   1.689   1.113  0.1653  0.1546 -0.0153
  575MOL0     C79225  10.405   1.628   1.248 -0.2190  0.1352  0.0641
  575MOL0     C79226  10.478   1.711   1.363 -0.9285  0.1466 -0.3494
  575MOL0     C79227  10.464   1.867   1.353  0.4855  0.3826 -0.0203
  575MOL0     C79228  10.488   1.927   1.485  0.5539  0.3362 -1.2674
  575MOL0     N79229  10.599   1.893   1.570  0.3736  0.0759 -0.4831
  575MOL0     C79230  10.600   1.805   1.670  0.0186  0.1341 -0.0988
  575MOL0     C79231  10.719   1.829   1.736  0.4093  0.5200  0.4169
  575MOL0     C79232  10.776   1.754   1.854 -0.8753 -0.4897 -0.0139
  575MOL0     C79233  10.683   1.705   1.961  0.4749  0.1470 -0.0054
  575MOL0     C79234  10.765   1.656   2.084  0.3780 -0.0731  0.3079
  575MOL0     C79235  10.676   1.635   2.204 -0.7538  0.6331  0.2882
  575MOL0     O79236  10.557   1.546   2.171 -0.0611 -0.8185 -0.6514
  575MOL0     C79237  10.464   1.527   2.266  0.0188 -0.1346  0.2256
  575MOL0     C79238  10.467   1.595   2.389  0.6280 -0.6534  0.3020
  575MOL0     C79239  10.361   1.584   2.484 -0.6248 -0.5126 -0.0480
  575MOL0     C79240  10.355   1.686   2.593 -0.6344 -0.2175 -0.1649
  575MOL0     C79241  10.257   1.485   2.457 -0.0080 -0.0507  0.1603
  575MOL0     C79242  10.161   1.428   2.558 -0.2942 -0.8424 -0.0568
  575MOL0     O79243  10.072   1.335   2.503 -0.5508  0.0405 -0.4500
  575MOL0     C79244   9.956   1.323   2.564 -0.1361  0.9497  0.1638
  575MOL0     C79245   9.924   1.299   2.706 -0.5742 -0.2237 -0.3928
  575MOL0     C79246   9.797   1.283   2.759  1.0588 -0.1696  0.7200
  575MOL0     C79247   9.687   1.299   2.674  0.2304  0.1535 -0.2632
  575MOL0     O79248   9.561   1.294   2.733  0.2708  0.1856 -0.0127
  575MOL0     C79249   9.448   1.320   2.654 -0.7927  0.9532  0.4697
  575MOL0     C79250   9.334   1.256   2.730  0.1438 -0.0809 -0.0516
  575MOL0     C79251   9.315   1.112   2.712  0.2562 -0.0961 -1.0112
  575MOL0     C79252   9.250   1.038   2.832 -0.4040  0.1552 -0.5585
  575MOL0     C79253   9.260   0.884   2.838 -0.0247  0.4459  0.6075
  575MOL0     C79254   9.187   0.812   2.949 -0.0450  0.3946 -0.4883
  575MOL0     C79255   9.275   0.788   3.071 -0.5368 -0.1901  1.0098
  575MOL0     C79256   9.195   0.714   3.165 -0.5085 -0.4184  0.2619
  575MOL0    Cl79257   9.190   0.540   3.122  0.5858 -0.0160 -0.4994
  575MOL0     C79258   9.712   1.316   2.531 -0.6239 -1.1081  1.3115
  575MOL0     C79259   9.845   1.317   2.483 -0.1487  0.4643  0.7575
  575MOL0     O79260  10.170   1.466   2.677  0.2407  0.0935 -0.3496
  575MOL0     C79261  10.258   1.424   2.331 -0.2024 -0.5088 -0.2724
  575MOL0     C79262  10.357   1.444   2.234  0.0484 -0.2416  1.2131
  575MOL0     N79263  10.791   1.929   1.663 -1.6198  0.1564  0.2338
  575MOL0     N79264  10.714   1.972   1.572 -0.2401 -0.2605  0.8764
  575MOL0     C79265  10.904   1.957   0.724 -0.5426  0.0510 -0.5119
  575MOL0     C79266  10.999   2.048   0.673 -0.6915  1.2320 -0.6884
  575MOL0     C79267  11.224   2.454   0.626  0.2073  0.3534  0.2293
  575MOL0     C79268  11.333   2.381   0.580  0.2972  0.4611  0.7300
  575MOL0     C79269  11.453   2.444   0.528  0.7519 -0.2641 -0.3105
  575MOL0     C79270  11.468   2.585   0.530 -0.1208 -0.6010 -0.3830
  575MOL0     O79271  11.591   2.637   0.490 -0.4510  0.4369 -0.7144
  575MOL0     C79272  11.625   2.780   0.508  0.6316  0.3561  0.2238
  575MOL0     C79273  11.736   2.829   0.406  0.3862 -0.5645 -0.1772
  575MOL0     C79274  11.748   2.984   0.411 -0.1515  0.2771 -0.0814
  575MOL0     C79275  11.876   3.016   0.325 -0.3239 -0.3778  0.4890
  575MOL0     C79276  11.883   3.157   0.312  0.1548  0.2871  0.6801
  575MOL0     C79277  11.892   3.272   0.284 -0.6470 -1.2938 -0.0693
  575MOL0     C79278  11.362   2.658   0.590  0.1240  0.0025 -0.5303
  575MOL0     C79279  11.242   2.595   0.637  0.1551  0.2062  0.2620
  575MOL0     C79280  11.140   2.687   0.680  0.4106  0.1844 -1.0597
  575MOL0     H79281  11.019   2.259   0.945 -1.0209 -0.5185  0.4333
  575MOL0     H79282  10.851   2.086   1.024  2.7545  0.5489  1.1655
  575MOL0     H79283  10.726   1.706   0.847  1.1710  0.0987  0.8336
  575MOL0     H79284  10.637   1.817   0.729  1.1855  0.5354  0.0190
  575MOL0     H79285  10.459   1.830   0.910 -1.4269 -0.6440 -0.7953
  575MOL0     H79286  10.484   1.670   0.846  2.6530  0.0061 -1.4504
  575MOL0     H79287  10.587   1.599   1.055  2.4300  1.2169 -0.0004
  575MOL0     H79288  10.609   1.759   1.110 -1.0865  0.0949  1.2529
  575MOL0     H79289  10.366   1.789   1.134  1.6021  0.7332  0.0943
  575MOL0     H79290  10.343   1.631   1.045 -0.5222 -1.5390  1.9701
  575MOL0     H79291  10.454   1.530   1.248 -1.7411 -0.6391  0.1703
  575MOL0     H79292  10.300   1.621   1.276  0.2320  2.4993  2.9390
  575MOL0     H79293  10.434   1.677   1.457  0.5574 -1.6773 -0.2423
  575MOL0     H79294  10.585   1.690   1.360 -1.1766 -1.2698  0.0151
  575MOL0     H79295  10.367   1.902   1.316  1.5664 -0.1753 -3.8128
  575MOL0     H79296  10.532   1.902   1.275 -2.5429 -0.3040 -3.2351
  575MOL0     H79297  10.491   2.036   1.480 -2.3290  0.6231  0.9699
  575MOL0     H79298  10.394   1.904   1.535  0.1952  2.1416 -1.0414
  575MOL0     H79299  10.521   1.733   1.688 -1.4020  1.6767  0.0778
  575MOL0     H79300  10.847   1.817   1.908 -0.7745 -0.3337 -0.3214
  575MOL0     H79301  10.831   1.669   1.813  0.8976  0.1384  0.9238
  575MOL0     H79302  10.628   1.796   1.985  1.0706  1.4279 -3.0418
  575MOL0     H79303  10.614   1.634   1.913 -0.6198  0.9295  0.3734
  575MOL0     H79304  10.831   1.572   2.061  1.2097  0.2168  1.5176
  575MOL0     H79305  10.828   1.738   2.121 -0.2663  0.3989  0.3880
  575MOL0     H79306  10.728   1.588   2.288 -0.7908 -0.3687 -0.2327
  575MOL0     H79307  10.645   1.735   2.236  0.8134  1.2702 -0.0817
  575MOL0     H79308  10.546   1.665   2.415 -0.6604  1.0835 -0.1940
  575MOL0     H79309  10.456   1.729   2.603 -0.3028 -0.9792 -0.1701
  575MOL0     H79310  10.325   1.644   2.689  0.3617 -1.0701 -0.2055
  575MOL0     H79311  10.288   1.768   2.566  0.6665  1.2710  0.9170
  575MOL0     H79312  10.003   1.288   2.779 -1.5441  0.6803  0.8259
  575MOL0     H79313   9.784   1.261   2.864  0.0550  0.1678  0.6776
  575MOL0     H79314   9.436   1.429   2.645  2.5296  1.3561 -0.2433
  575MOL0     H79315   9.462   1.275   2.555 -0.5632  0.3360  0.7815
  575MOL0     H79316   9.346   1.278   2.836 -2.3100 -0.6176  0.3979
  575MOL0     H79317   9.236   1.291   2.695 -1.0245 -2.9332  0.0605
  575MOL0     H79318   9.409   1.062   2.689  0.4992 -0.5419  0.7490
  575MOL0     H79319   9.253   1.089   2.625 -2.5378 -0.8696  1.0473
  575MOL0     H79320   9.146   1.069   2.841 -0.7342 -0.5123 -1.8253
  575MOL0     H79321   9.296   1.071   2.925  0.4887 -0.1175 -0.8916
  575MOL0     H79322   9.215   0.853   2.743 -1.7845 -0.7180  1.7678
  575MOL0     H79323   9.363   0.847   2.840 -0.9867 -2.4631  1.3782
  575MOL0     H79324   9.151   0.712   2.923 -0.5854  0.4688 -0.0551
  575MOL0     H79325   9.101   0.877   2.969  0.5026  1.8934 -2.7003
  575MOL0     H79326   9.298   0.887   3.112  3.6380 -0.2525 -0.6898
  575MOL0     H79327   9.372   0.738   3.069 -1.0765 -1.4547  3.3510
  575MOL0     H79328   9.090   0.742   3.176 -0.3922 -0.1972  0.8296
  575MOL0     H79329   9.228   0.714   3.270 -0.1012  1.6535  0.1616
  575MOL0     H79330   9.635   1.339   2.457  0.2807  0.9147  0.9529
  575MOL0     H79331   9.861   1.331   2.376  0.1005  1.1077  0.8729
  575MOL0     H79332  10.179   1.355   2.305 -1.9156  0.8741  1.0493
  575MOL0     H79333  10.336   1.392   2.141 -0.9797  0.2880  1.1335
  575MOL0     H79334  10.890   1.863   0.672  2.6573  0.2618 -2.0177
  575MOL0     H79335  11.039   2.029   0.574 -1.1580  0.9886 -0.8321
  575MOL0     H79336  11.339   2.273   0.566 -0.7409  0.4760  0.1093
  575MOL0     H79337  11.518   2.371   0.480 -2.4760 -2.0960 -2.2603
  575MOL0     H79338  11.538   2.842   0.486 -0.1262  0.6969  3.6602
  575MOL0     H79339  11.667   2.806   0.605  1.1361 -1.5393  0.5561
  575MOL0     H79340  11.716   2.791   0.306  0.0895  1.8772 -1.1331
  575MOL0     H79341  11.836   2.800   0.438  0.4206  1.1575  1.5219
  575MOL0     H79342  11.658   3.037   0.380  0.1582  0.1656 -1.2131
  575MOL0     H79343  11.769   3.022   0.511 -2.2741  0.8686  0.1725
  575MOL0     H79344  11.869   2.974   0.224  0.5779 -2.3696  1.2063
  575MOL0     H79345  11.966   2.985   0.378 -1.0044 -3.5597 -0.0220
  575MOL0     H79346  11.888   3.377   0.266  1.7685 -0.2912  4.0379
  575MOL0     H79347  11.366   2.766   0.598 -1.3747  0.0510 -0.2389
  575MOL0     H79348  11.072   2.715   0.599 -0.4700 -0.1522 -0.4625
  575MOL0     H79349  11.075   2.650   0.761 -0.6304  0.4487 -1.7512
  575MOL0     H79350  11.186   2.783   0.708  2.2422 -1.0187  0.2370
  576MOL0     O79351   2.640   8.652   0.535 -0.2316 -1.0732  0.0938
  576MOL0     C79352   2.655   8.740   0.619  0.0619 -0.1063  0.5170
  576MOL0     O79353   2.673   8.866   0.586  0.2108 -0.0975 -0.0022
  576MOL0     C79354   2.714   8.918   0.467 -0.0555 -0.1174  0.1858
  576MOL0     C79355   2.695   9.046   0.448  0.8706  0.4618  0.0226
  576MOL0     C79356   2.738   9.109   0.330  0.4106  0.0304  0.2767
  576MOL0     C79357   2.822   9.044   0.235  0.3475  0.2559 -0.0806
  576MOL0     O79358   2.857   9.111   0.125 -0.1841  0.0262 -0.3494
  576MOL0     C79359   2.998   9.111   0.100  0.2666 -0.2953  0.6565
  576MOL0     C79360   3.007   9.171  -0.042 -0.5900  0.2211  0.3009
  576MOL0     C79361   3.150   9.185  -0.098  0.1560 -0.5181  0.8317
  576MOL0     C79362   3.145   9.245  -0.236  0.2811 -0.4257  0.0206
  576MOL0     C79363   3.289   9.231  -0.306 -0.9017  0.4861 -0.6686
  576MOL0     C79364   3.269   9.275  -0.451 -0.9013 -0.9063 -0.1740
  576MOL0     C79365   3.403   9.282  -0.528  0.2294 -0.0050  0.1036
  576MOL0     C79366   3.425   9.430  -0.568  0.6875  0.0389  0.9958
  576MOL0     N79367   3.559   9.464  -0.619  0.4865 -0.4058 -1.0150
  576MOL0     C79368   3.617   9.413  -0.729  0.4095 -0.1277  0.1474
  576MOL0     C79369   3.721   9.496  -0.765  0.3011 -0.7121  0.4898
  576MOL0     C79370   3.808   9.467  -0.891 -0.8925 -0.5585  0.3685
  576MOL0     C79371   3.959   9.455  -0.839 -0.3880  0.5157  0.8141
  576MOL0     C79372   4.047   9.501  -0.953 -0.2964 -0.5682  0.3264
  576MOL0     C79373   4.070   9.406  -1.064  0.3198  0.1336 -0.0627
  576MOL0     O79374   4.130   9.458  -1.184 -0.4179 -0.2945  0.3612
  576MOL0     C79375   4.131   9.388  -1.304 -0.2810  0.4831  0.1340
  576MOL0     C79376   4.093   9.247  -1.325  0.0976 -0.2115 -0.5558
  576MOL0     C79377   4.114   9.189  -1.451  0.1464  0.4432  0.5274
  576MOL0     C79378   4.074   9.044  -1.459  0.3943 -0.2279 -0.0256
  576MOL0     C79379   4.165   9.258  -1.564 -0.4767  0.6344 -0.7563
  576MOL0     C79380   4.188   9.200  -1.698  0.1359 -0.0619 -0.4481
  576MOL0     O79381   4.162   9.281  -1.799 -0.4554  0.7008  0.2627
  576MOL0     C79382   4.217   9.254  -1.926 -0.6175 -0.3973 -0.3787
  576MOL0     C79383   4.134   9.275  -2.034  0.9598 -0.2168  0.7690
  576MOL0     C79384   4.178   9.251  -2.164 -0.3815 -0.5529  0.8072
  576MOL0     C79385   4.308   9.192  -2.189 -0.2695 -0.3043 -1.2904
  576MOL0     O79386   4.359   9.160  -2.309  0.4720  0.9403 -1.1225
  576MOL0     C79387   4.271   9.153  -2.421  0.8534 -0.1696 -0.9588
  576MOL0     C79388   4.279   9.303  -2.479  0.2248  0.4037  0.7130
  576MOL0     C79389   4.195   9.330  -2.600  0.7561  0.3710 -0.3537
  576MOL0     C79390   4.225   9.243  -2.721 -0.3504  0.0048 -0.2593
  576MOL0     C79391   4.181   9.307  -2.851 -0.4867 -1.0409  0.4097
  576MOL0     C79392   4.029   9.333  -2.872 -0.0884  0.1933  0.2849
  576MOL0     C79393   3.958   9.205  -2.921  1.1356  0.0678  0.6249
  576MOL0     C79394   3.817   9.203  -2.859  0.2343 -0.0789  0.5433
  576MOL0    Cl79395   3.722   9.316  -2.962  0.6107 -0.0718 -0.2938
  576MOL0     C79396   4.389   9.152  -2.077 -1.1674 -0.0278  0.7995
  576MOL0     C79397   4.347   9.186  -1.944 -0.0631  0.2272  0.3894
  576MOL0     O79398   4.237   9.090  -1.710 -0.7013 -0.3899 -0.6237
  576MOL0     C79399   4.210   9.389  -1.539  0.2415 -0.5683 -0.8717
  576MOL0     C79400   4.191   9.448  -1.411  0.0561  0.2405  0.1934
  576MOL0     N79401   3.728   9.599  -0.667 -0.5647  0.6046  0.2745
  576MOL0     N79402   3.624   9.583  -0.594 -0.8132 -0.0438  0.3307
  576MOL0     C79403   2.838   8.903   0.252  0.2427 -0.0593  1.0866
  576MOL0     C79404   2.786   8.842   0.367  0.6658  0.7904 -0.9374
  576MOL0     C79405   2.630   8.725   0.766  0.4322 -0.2854 -0.1199
  576MOL0     C79406   2.578   8.833   0.840  0.0818 -0.0383  0.3439
  576MOL0     C79407   2.550   8.830   0.977 -0.1337  0.5909  0.8303
  576MOL0     C79408   2.574   8.713   1.043 -0.1508 -0.4788 -0.1391
  576MOL0     O79409   2.561   8.716   1.182  0.3629  0.2436  0.1805
  576MOL0     C79410   2.678   8.725   1.253  0.1267  0.0383 -0.5058
  576MOL0     C79411   2.679   8.679   1.400 -0.0448 -0.2831 -1.5266
  576MOL0     C79412   2.807   8.724   1.474  0.0050  0.9585  0.1493
  576MOL0     C79413   2.804   8.685   1.623 -0.4754  0.2918  0.2108
  576MOL0     C79414   2.713   8.774   1.701  0.4409 -1.2083 -0.8536
  576MOL0     C79415   2.635   8.859   1.743  0.3482  0.7826 -1.3677
  576MOL0     C79416   2.616   8.594   0.971  0.2148  0.4021  0.2932
  576MOL0     C79417   2.649   8.599   0.835  0.6449  0.1644 -0.0636
  576MOL0     C79418   2.726   8.480   0.776 -0.2127 -0.1761 -1.1460
  576MOL0     H79419   2.637   9.098   0.523  0.6610  0.0181  0.1699
  576MOL0     H79420   2.716   9.214   0.310 -0.2176 -0.1605 -0.0420
  576MOL0     H79421   3.020   9.004   0.101 -0.5332 -0.4650  1.1226
  576MOL0     H79422   3.057   9.162   0.178 -2.5205  0.0675  2.6814
  576MOL0     H79423   2.963   9.101  -0.114  0.6038  0.6268 -0.8539
  576MOL0     H79424   2.948   9.262  -0.050  0.8534  1.2294  0.7457
  576MOL0     H79425   3.213   9.246  -0.034 -0.8507  1.3724  0.1198
  576MOL0     H79426   3.200   9.089  -0.111  2.4315  0.3800  2.3093
  576MOL0     H79427   3.072   9.194  -0.300  1.8594  0.0377 -2.2679
  576MOL0     H79428   3.118   9.351  -0.225 -0.2509 -0.8046  3.2941
  576MOL0     H79429   3.330   9.130  -0.312 -2.4927 -0.1565 -1.1924
  576MOL0     H79430   3.369   9.289  -0.258 -0.6274 -0.3027 -0.1434
  576MOL0     H79431   3.204   9.211  -0.512  2.1962 -0.2089 -4.6788
  576MOL0     H79432   3.219   9.372  -0.446  1.1861  0.1601  2.7741
  576MOL0     H79433   3.396   9.222  -0.619  0.1817 -0.8958  0.6922
  576MOL0     H79434   3.488   9.244  -0.472  1.5209  1.6986 -0.5965
  576MOL0     H79435   3.347   9.457  -0.640  2.9019  2.1423 -0.7752
  576MOL0     H79436   3.415   9.503  -0.487 -0.7034  0.2663  0.6533
  576MOL0     H79437   3.585   9.327  -0.786  1.2639 -0.0512 -0.4612
  576MOL0     H79438   3.787   9.541  -0.969 -1.1865 -0.5447  0.4614
  576MOL0     H79439   3.775   9.371  -0.931 -5.0045 -1.8312  5.7770
  576MOL0     H79440   3.967   9.529  -0.759  0.4558  3.2578 -1.6361
  576MOL0     H79441   3.983   9.351  -0.813 -0.6240 -0.7135 -3.2560
  576MOL0     H79442   4.015   9.602  -0.980 -0.5162 -0.8135 -0.3715
  576MOL0     H79443   4.144   9.516  -0.905 -1.9796  3.5796  2.9581
  576MOL0     H79444   4.131   9.322  -1.029 -3.9491 -3.7488 -0.9934
  576MOL0     H79445   3.972   9.365  -1.090 -0.5949  2.3132 -0.2874
  576MOL0     H79446   4.060   9.189  -1.239  0.2918  3.1882  2.0366
  576MOL0     H79447   4.001   9.033  -1.540  2.6742 -1.5830 -2.0382
  576MOL0     H79448   4.035   9.005  -1.365 -1.1300  0.2543 -0.4257
  576MOL0     H79449   4.158   8.978  -1.479  0.8872 -0.9142  3.5716
  576MOL0     H79450   4.034   9.310  -2.008 -0.0600 -2.2720 -0.1774
  576MOL0     H79451   4.112   9.277  -2.246  0.3378  0.6772  0.5977
  576MOL0     H79452   4.320   9.070  -2.474  3.2323  0.2895  0.3706
  576MOL0     H79453   4.173   9.108  -2.402  1.7806 -2.3630 -1.0627
  576MOL0     H79454   4.254   9.374  -2.400  1.2460  2.4898 -0.7401
  576MOL0     H79455   4.383   9.321  -2.509 -0.6122 -0.3184 -3.0657
  576MOL0     H79456   4.202   9.439  -2.614  0.2083  0.0956 -3.6219
  576MOL0     H79457   4.091   9.321  -2.566  1.7703  0.7098  3.2047
  576MOL0     H79458   4.178   9.147  -2.697  0.4370  0.4394  3.6813
  576MOL0     H79459   4.332   9.218  -2.720 -0.0084  1.3630  1.6132
  576MOL0     H79460   4.236   9.402  -2.860 -4.1432  1.2839  0.4322
  576MOL0     H79461   4.215   9.247  -2.936  2.3502  0.7837  0.1013
  576MOL0     H79462   4.033   9.411  -2.948  0.6518 -0.1115  0.0004
  576MOL0     H79463   3.990   9.361  -2.774  0.5194 -0.2432  0.6619
  576MOL0     H79464   4.007   9.126  -2.864  1.2608  0.5209  1.1616
  576MOL0     H79465   3.962   9.201  -3.030  0.1540  0.2611  0.5681
  576MOL0     H79466   3.809   9.222  -2.752  2.1550 -2.9126  1.2747
  576MOL0     H79467   3.773   9.103  -2.860 -0.5013  0.2082  1.6043
  576MOL0     H79468   4.483   9.098  -2.090 -2.5474 -2.5656  0.7105
  576MOL0     H79469   4.413   9.184  -1.858  1.1345 -0.4057 -0.4972
  576MOL0     H79470   4.255   9.446  -1.620  1.4865  0.2394  0.3286
  576MOL0     H79471   4.229   9.548  -1.393 -1.0630  0.7846 -0.3556
  576MOL0     H79472   2.884   8.832   0.184 -0.6566  0.0519  0.3547
  576MOL0     H79473   2.797   8.734   0.358 -1.3840  0.3264  1.2898
  576MOL0     H79474   2.574   8.934   0.799 -1.8858 -0.1959  0.0437
  576MOL0     H79475   2.514   8.916   1.033 -2.6771 -0.9588  1.7303
  576MOL0     H79476   2.760   8.676   1.198  0.8308  2.2337 -1.4983
  576MOL0     H79477   2.701   8.832   1.252  0.8766 -0.1136 -1.4498
  576MOL0     H79478   2.682   8.570   1.398 -3.0083 -0.4530 -1.1330
  576MOL0     H79479   2.595   8.721   1.456  1.1565  0.7979 -0.4788
  576MOL0     H79480   2.890   8.667   1.429  0.8661  2.4447 -0.1985
  576MOL0     H79481   2.823   8.830   1.456 -0.7644  0.9544 -0.5742
  576MOL0     H79482   2.906   8.694   1.661 -0.4297 -2.7011  1.0962
  576MOL0     H79483   2.774   8.581   1.639  1.2217 -0.3807 -0.7350
  576MOL0     H79484   2.563   8.932   1.773 -1.6895 -2.0488  1.2350
  576MOL0     H79485   2.631   8.505   1.031  0.0804  0.8549  1.0075
  576MOL0     H79486   2.673   8.385   0.794 -0.0489 -0.0215  0.2883
  576MOL0     H79487   2.725   8.481   0.667  0.5815  0.4723 -1.1557
  576MOL0     H79488   2.828   8.462   0.811  0.5302 -0.3479 -3.2433
  577MOL0     O79489   1.069   4.094   9.296 -0.4459 -0.1321  0.4687
  577MOL0     C79490   1.102   3.983   9.251  1.0159 -0.9544  0.7973
  577MOL0     O79491   1.175   3.971   9.139 -0.7903 -0.2522 -0.0232
  577MOL0     C79492   1.246   4.082   9.108 -0.1179 -0.0864 -0.3797
  577MOL0     C79493   1.201   4.199   9.047 -0.1011  0.2932  0.4694
  577MOL0     C79494   1.289   4.311   9.019 -0.8903  1.0831  0.3109
  577MOL0     C79495   1.417   4.302   9.065 -0.7334 -0.3362 -0.4609
  577MOL0     O79496   1.502   4.408   9.022  0.6638  0.7251  0.2245
  577MOL0     C79497   1.628   4.410   9.083 -0.2552 -0.3658  0.0131
  577MOL0     C79498   1.701   4.540   9.046 -0.8875  0.2420  0.2370
  577MOL0     C79499   1.857   4.531   9.057 -0.9111  0.3188  0.3094
  577MOL0     C79500   1.890   4.515   9.206  0.1328 -0.9036 -0.1680
  577MOL0     C79501   2.044   4.519   9.229  0.5882 -0.5826  0.0412
  577MOL0     C79502   2.113   4.403   9.160  0.2520 -0.5452  1.1491
  577MOL0     C79503   2.262   4.374   9.211  0.7809  0.1185  0.9888
  577MOL0     C79504   2.265   4.312   9.354  0.0214 -0.3020  0.8586
  577MOL0     N79505   2.401   4.279   9.396 -0.0568 -0.1868  0.2393
  577MOL0     C79506   2.499   4.372   9.419 -0.1921 -0.6035 -0.1620
  577MOL0     C79507   2.595   4.303   9.485 -0.6406  0.0846 -0.8820
  577MOL0     C79508   2.727   4.360   9.525  0.0799  0.1559 -0.0530
  577MOL0     C79509   2.747   4.335   9.676  0.7188  0.7085  0.2871
  577MOL0     C79510   2.894   4.345   9.722 -1.1374  0.0869 -0.2938
  577MOL0     C79511   2.956   4.489   9.685  0.1469  1.1394 -0.2104
  577MOL0     O79512   3.070   4.510   9.774  0.1540 -0.5856 -0.3271
  577MOL0     C79513   3.094   4.637   9.827 -0.6481 -0.6224  0.1614
  577MOL0     C79514   3.171   4.648   9.948 -0.1073 -0.1209  0.1594
  577MOL0     C79515   3.212   4.770  10.000 -0.1713 -0.3346  0.1664
  577MOL0     C79516   3.301   4.761  10.120  0.0160 -0.2973  0.3680
  577MOL0     C79517   3.169   4.886   9.944  0.5353 -0.8171  0.1080
  577MOL0     C79518   3.202   5.026   9.989 -0.2668 -0.3040 -0.3203
  577MOL0     O79519   3.089   5.115   9.989 -0.6433  0.4152  0.5252
  577MOL0     C79520   3.083   5.233  10.059  0.4124 -0.6325  0.3328
  577MOL0     C79521   3.139   5.347   9.996 -0.5120 -0.4496 -0.7866
  577MOL0     C79522   3.118   5.474  10.057  0.3160 -0.0974  0.2262
  577MOL0     C79523   3.049   5.484  10.180 -0.5838  0.6464 -0.2968
  577MOL0     O79524   3.025   5.599  10.256  0.3161  0.1811  0.7359
  577MOL0     C79525   3.001   5.724  10.183 -0.4785 -0.4947 -0.1857
  577MOL0     C79526   2.959   5.821  10.291  0.3782  0.1969 -0.6017
  577MOL0     C79527   2.918   5.964  10.245 -0.1685  0.6015 -0.2663
  577MOL0     C79528   2.843   6.027  10.358  0.0323  0.5143 -0.2863
  577MOL0     C79529   2.818   6.170  10.318 -0.1236  1.6745  0.9178
  577MOL0     C79530   2.747   6.237  10.425  0.0102 -0.8433  0.1917
  577MOL0     C79531   2.832   6.265  10.553  0.9781  0.1048 -0.2726
  577MOL0     C79532   2.771   6.389  10.630 -0.7532  0.3698  0.4065
  577MOL0    Cl79533   2.613   6.347  10.714 -0.1163  0.0276 -0.1916
  577MOL0     C79534   3.007   5.368  10.242 -0.6599 -0.1380 -0.5090
  577MOL0     C79535   3.014   5.242  10.180  0.4140  0.4724 -0.0409
  577MOL0     O79536   3.310   5.055  10.030  0.7130 -1.2482  0.6158
  577MOL0     C79537   3.076   4.878   9.839 -0.1194  0.1383  1.2257
  577MOL0     C79538   3.057   4.757   9.768  0.0002  0.2303  0.4351
  577MOL0     N79539   2.552   4.174   9.499 -0.1081  0.0373  0.4829
  577MOL0     N79540   2.437   4.165   9.452  0.0810  1.0045 -0.1140
  577MOL0     C79541   1.465   4.180   9.123  0.4745 -0.4293 -0.3109
  577MOL0     C79542   1.377   4.075   9.144  0.0318 -0.6159  0.2722
  577MOL0     C79543   1.037   3.868   9.321  0.4238  0.4223  1.2667
  577MOL0     C79544   0.917   3.889   9.384  0.6100  0.4894 -0.9127
  577MOL0     C79545   0.836   3.780   9.438 -1.2052 -0.4549 -0.8885
  577MOL0     C79546   0.885   3.645   9.435 -0.0309  0.2182  0.5420
  577MOL0     O79547   0.814   3.532   9.476 -0.5178  0.3240  1.1655
  577MOL0     C79548   0.672   3.539   9.505  0.2615 -0.0322 -0.5042
  577MOL0     C79549   0.594   3.441   9.415 -0.0091 -0.3552  0.1711
  577MOL0     C79550   0.664   3.412   9.280  1.1771  0.1731  0.0637
  577MOL0     C79551   0.580   3.358   9.171 -0.2472  0.5819 -0.2030
  577MOL0     C79552   0.476   3.451   9.128  0.2408  1.4908 -0.6032
  577MOL0     C79553   0.380   3.525   9.106 -1.2706 -0.0688  0.9608
  577MOL0     C79554   1.006   3.631   9.370  0.0067  0.5245  0.5330
  577MOL0     C79555   1.080   3.738   9.318 -0.1581 -0.4527 -0.8988
  577MOL0     C79556   1.212   3.694   9.259  0.4328  0.5083  0.0744
  577MOL0     H79557   1.096   4.206   9.022 -0.3016 -1.9693  0.4775
  577MOL0     H79558   1.258   4.399   8.964 -0.4065  0.7808 -0.4622
  577MOL0     H79559   1.685   4.320   9.058 -1.6860 -0.6402 -2.7372
  577MOL0     H79560   1.610   4.409   9.191 -6.3495  0.4398 -0.6476
  577MOL0     H79561   1.692   4.557   8.938 -0.1440 -1.1056 -0.0596
  577MOL0     H79562   1.661   4.616   9.114  0.6268 -1.0306  2.6653
  577MOL0     H79563   1.894   4.448   8.996 -0.6841 -0.1380  1.0512
  577MOL0     H79564   1.903   4.619   9.012  0.0052 -0.5087 -0.4298
  577MOL0     H79565   1.839   4.590   9.266  0.8072 -0.0964 -0.5877
  577MOL0     H79566   1.845   4.418   9.232 -1.0346 -1.1682 -2.7901
  577MOL0     H79567   2.070   4.506   9.335 -0.5564 -1.0355  0.2817
  577MOL0     H79568   2.086   4.616   9.202  2.2662 -0.1287  3.6082
  577MOL0     H79569   2.045   4.317   9.159  0.2752 -0.5830 -0.1659
  577MOL0     H79570   2.121   4.435   9.055 -1.9581 -1.1705  0.7380
  577MOL0     H79571   2.323   4.465   9.211 -0.9904  1.4786 -2.5015
  577MOL0     H79572   2.313   4.303   9.145 -0.2830  1.9401 -1.9780
  577MOL0     H79573   2.209   4.361   9.435  1.2445 -0.8382  2.0634
  577MOL0     H79574   2.223   4.214   9.331 -1.9820  0.8400 -0.7357
  577MOL0     H79575   2.513   4.474   9.385  2.6233 -0.9534 -0.3088
  577MOL0     H79576   2.731   4.469   9.520  0.1461  0.2100  0.9804
  577MOL0     H79577   2.810   4.316   9.467 -2.0974 -3.3712 -0.8118
  577MOL0     H79578   2.690   4.401   9.742  0.4305 -0.6692  1.4515
  577MOL0     H79579   2.705   4.235   9.691  0.2831  0.0483 -4.0272
  577MOL0     H79580   2.892   4.341   9.831  0.4036 -1.4574 -0.2716
  577MOL0     H79581   2.950   4.262   9.676 -1.7666 -1.2600  1.2755
  577MOL0     H79582   2.985   4.510   9.581  0.4479 -0.9487 -0.5971
  577MOL0     H79583   2.879   4.561   9.715 -0.7913  0.8080 -1.6852
  577MOL0     H79584   3.204   4.554   9.992  1.6267 -1.1313 -2.9992
  577MOL0     H79585   3.289   4.659  10.158 -0.0200 -1.3854 -2.3242
  577MOL0     H79586   3.257   4.827  10.195 -0.2675  1.0119 -0.9061
  577MOL0     H79587   3.408   4.778  10.106  0.2257 -1.3984  0.5221
  577MOL0     H79588   3.195   5.338   9.904  0.2172 -0.0032 -0.4058
  577MOL0     H79589   3.158   5.560  10.005 -1.7761  0.1074 -1.1866
  577MOL0     H79590   3.092   5.771  10.146  3.3371 -3.2564  4.4814
  577MOL0     H79591   2.927   5.714  10.103 -2.0500  2.2277  0.7406
  577MOL0     H79592   2.863   5.770  10.307  1.0875 -0.8476  0.5873
  577MOL0     H79593   3.015   5.807  10.384 -0.5559  1.3430  0.1592
  577MOL0     H79594   2.860   5.942  10.155 -0.7611  3.2107 -0.6183
  577MOL0     H79595   3.008   6.018  10.215  1.5475 -1.1554  1.4288
  577MOL0     H79596   2.906   6.016  10.447 -0.5773 -1.7579 -0.0626
  577MOL0     H79597   2.744   5.979  10.364 -0.8780  2.2395 -0.7202
  577MOL0     H79598   2.913   6.223  10.306 -0.3729  1.6644 -1.6982
  577MOL0     H79599   2.765   6.166  10.223  0.4259 -2.9102  0.5438
  577MOL0     H79600   2.657   6.179  10.443  1.7681 -3.5681  0.7841
  577MOL0     H79601   2.729   6.335  10.381  0.5824 -1.0764 -0.5760
  577MOL0     H79602   2.933   6.299  10.528  2.3481 -2.8071  0.8436
  577MOL0     H79603   2.848   6.175  10.613  2.3088  0.9637  0.7054
  577MOL0     H79604   2.759   6.472  10.560 -0.1922  0.0314 -0.1055
  577MOL0     H79605   2.852   6.419  10.697  2.2958 -0.8422 -2.4632
  577MOL0     H79606   2.978   5.380  10.345  1.9111  1.2794  0.1066
  577MOL0     H79607   2.961   5.159  10.226 -2.1762  2.7065  1.3435
  577MOL0     H79608   3.031   4.963   9.788 -0.4253 -0.7452 -0.0311
  577MOL0     H79609   3.001   4.760   9.675  0.0088  5.1484  0.3182
  577MOL0     H79610   1.569   4.180   9.151  0.4771 -5.0069  0.5217
  577MOL0     H79611   1.419   3.979   9.172  0.1596 -0.0048  2.3752
  577MOL0     H79612   0.866   3.984   9.392  1.2639  0.7398  0.6127
  577MOL0     H79613   0.747   3.811   9.492  1.6960  1.6860  3.2877
  577MOL0     H79614   0.665   3.513   9.611  0.0610  0.9838 -0.2598
  577MOL0     H79615   0.622   3.634   9.484 -1.4794 -0.7891  0.0172
  577MOL0     H79616   0.492   3.473   9.395  0.1508 -0.7334 -1.4364
  577MOL0     H79617   0.587   3.348   9.471  1.8842 -0.3708  0.4598
  577MOL0     H79618   0.710   3.506   9.249  1.3555  0.6988  1.7955
  577MOL0     H79619   0.745   3.338   9.280 -0.0283 -1.2211  1.2715
  577MOL0     H79620   0.525   3.273   9.212 -1.2421  1.7017  0.9010
  577MOL0     H79621   0.645   3.323   9.091 -0.6127 -0.2944 -0.1201
  577MOL0     H79622   0.297   3.592   9.100 -3.1459 -2.3949 -1.3377
  577MOL0     H79623   1.055   3.535   9.360  3.0084  2.0932 -0.9271
  577MOL0     H79624   1.251   3.608   9.315 -0.5583  1.9190  3.1751
  577MOL0     H79625   1.189   3.668   9.156  2.0358  3.5512 -1.1762
  577MOL0     H79626   1.298   3.761   9.263  1.0936 -0.2088 -1.3485
  578MOL0     O79627   1.328  10.941   7.638 -0.0870 -0.1909  0.0992
  578MOL0     C79628   1.445  10.922   7.682 -0.0180 -0.1059  0.9446
  578MOL0     O79629   1.557  10.995   7.648  0.2684 -0.2530 -0.1627
  578MOL0     C79630   1.549  11.111   7.580  0.7344 -0.5424  0.0453
  578MOL0     C79631   1.612  11.231   7.642  0.6706 -0.9227 -0.3692
  578MOL0     C79632   1.596  11.343   7.558  0.4340  0.2468 -0.1881
  578MOL0     C79633   1.534  11.346   7.429 -0.4939  0.2035  0.1562
  578MOL0     O79634   1.530  11.463   7.348 -0.2439  0.2701 -0.1786
  578MOL0     C79635   1.590  11.588   7.378 -0.0937 -0.4756 -0.9153
  578MOL0     C79636   1.741  11.587   7.400  0.3841 -1.0885 -0.4349
  578MOL0     C79637   1.814  11.531   7.277  0.4149  1.4882 -0.9391
  578MOL0     C79638   1.914  11.422   7.326  1.0014  0.0910 -0.3517
  578MOL0     C79639   2.008  11.384   7.205  0.1867 -0.5528 -0.5437
  578MOL0     C79640   2.087  11.259   7.226  0.7433  0.2452 -0.3737
  578MOL0     C79641   2.182  11.257   7.346 -0.0950  0.7484  0.0731
  578MOL0     C79642   2.281  11.136   7.329 -0.1086  0.1606  0.2214
  578MOL0     N79643   2.360  11.106   7.450  0.4942  0.8069  0.0009
  578MOL0     C79644   2.359  11.164   7.577 -0.8977 -0.1997  0.7727
  578MOL0     C79645   2.432  11.073   7.650  0.9817  0.8853 -0.5014
  578MOL0     C79646   2.466  11.082   7.798  0.5845  0.4398 -0.1678
  578MOL0     C79647   2.595  11.157   7.824  0.8197  0.4741 -0.5159
  578MOL0     C79648   2.664  11.104   7.951  0.7117 -0.4200  0.0500
  578MOL0     C79649   2.576  11.110   8.068 -0.1617 -0.3111  0.1247
  578MOL0     O79650   2.518  11.239   8.065 -0.0600  0.1458  0.7293
  578MOL0     C79651   2.424  11.267   8.163 -0.0403 -0.1128 -0.3192
  578MOL0     C79652   2.357  11.182   8.257  0.1392  0.4320  0.6043
  578MOL0     C79653   2.259  11.233   8.337  0.9347 -0.5007 -0.1858
  578MOL0     C79654   2.192  11.126   8.425  0.9092 -0.7126  1.6286
  578MOL0     C79655   2.223  11.374   8.335 -0.5784 -0.5128  0.4963
  578MOL0     C79656   2.103  11.427   8.409  0.1713 -0.0266  0.3375
  578MOL0     O79657   2.079  11.568   8.394 -0.4055  0.3951  0.0204
  578MOL0     C79658   1.958  11.617   8.409 -0.5767 -0.5434  0.2298
  578MOL0     C79659   1.843  11.556   8.367  0.8046  0.3230 -0.0589
  578MOL0     C79660   1.721  11.627   8.378 -0.1281  0.2332  0.0272
  578MOL0     C79661   1.719  11.759   8.428 -0.6467  0.4441 -0.5357
  578MOL0     O79662   1.600  11.830   8.441  0.5384  0.2654 -0.0835
  578MOL0     C79663   1.504  11.762   8.521 -0.9170 -0.0185 -0.3893
  578MOL0     C79664   1.400  11.855   8.584  0.7997 -0.4021  0.5243
  578MOL0     C79665   1.443  11.912   8.722  0.0643  0.3220  0.1525
  578MOL0     C79666   1.354  12.026   8.769 -0.1784  0.0656 -0.2145
  578MOL0     C79667   1.415  12.106   8.893 -0.0840  0.2973  0.5208
  578MOL0     C79668   1.315  12.194   8.959  0.1162  0.5251  0.2993
  578MOL0     C79669   1.254  12.296   8.866  0.9602 -0.2063  0.2794
  578MOL0     C79670   1.220  12.432   8.932  0.1966 -0.0231  0.0172
  578MOL0    Cl79671   1.177  12.559   8.811  0.2215  0.2863  0.2073
  578MOL0     C79672   1.840  11.820   8.461 -0.3198  0.3992 -0.2403
  578MOL0     C79673   1.958  11.745   8.461 -0.0905 -0.3905  0.1787
  578MOL0     O79674   2.032  11.349   8.477  0.4679 -0.3275  0.4118
  578MOL0     C79675   2.293  11.457   8.244  0.4266  1.5166 -0.2812
  578MOL0     C79676   2.377  11.400   8.159 -1.2779  0.1718 -0.4883
  578MOL0     N79677   2.464  10.962   7.572 -0.2643  0.0517  0.5532
  578MOL0     N79678   2.418  10.978   7.461  0.3600 -0.0897 -0.6669
  578MOL0     C79679   1.500  11.223   7.373  0.1841  0.8639 -0.1461
  578MOL0     C79680   1.496  11.107   7.453  1.1597 -0.1361 -0.5604
  578MOL0     C79681   1.463  10.804   7.767 -0.1755 -0.9595 -0.6498
  578MOL0     C79682   1.422  10.682   7.725  0.8555  0.6247  0.1274
  578MOL0     C79683   1.433  10.569   7.812 -0.5036 -1.2636  0.1824
  578MOL0     C79684   1.497  10.587   7.929 -0.5132  0.2303 -0.4478
  578MOL0     O79685   1.510  10.493   8.028  0.1000  0.1106  0.0203
  578MOL0     C79686   1.508  10.357   7.994 -1.4897  1.0447  0.1723
  578MOL0     C79687   1.502  10.284   8.129 -1.4605  0.2429  0.7097
  578MOL0     C79688   1.379  10.302   8.206 -0.5711  0.1657  0.2224
  578MOL0     C79689   1.361  10.219   8.336 -0.5228 -0.2191 -0.1622
  578MOL0     C79690   1.437  10.282   8.446  0.5264 -1.1776  0.4266
  578MOL0     C79691   1.513  10.333   8.518 -0.1461 -0.2559 -0.7251
  578MOL0     C79692   1.552  10.706   7.968  1.1013 -0.4629 -0.1363
  578MOL0     C79693   1.524  10.822   7.895  0.0869  0.3257  0.5517
  578MOL0     C79694   1.564  10.960   7.955  0.7567  0.0121  0.0350
  578MOL0     H79695   1.639  11.227   7.747 -2.1893 -1.1359  0.4305
  578MOL0     H79696   1.614  11.438   7.607  2.0382  0.5265 -1.2385
  578MOL0     H79697   1.538  11.626   7.467  0.0105 -0.8859 -0.6771
  578MOL0     H79698   1.557  11.660   7.302 -0.7453  0.2487  0.0314
  578MOL0     H79699   1.779  11.682   7.439 -0.7046 -1.4244  1.6004
  578MOL0     H79700   1.758  11.525   7.488  1.1179 -0.1391  0.1118
  578MOL0     H79701   1.746  11.466   7.222  0.5798 -1.1013  1.6425
  578MOL0     H79702   1.864  11.614   7.225  0.4718  1.2248 -1.3019
  578MOL0     H79703   1.973  11.452   7.413  0.0467  3.3009 -0.7056
  578MOL0     H79704   1.859  11.332   7.356 -1.0394  1.4842  0.2418
  578MOL0     H79705   2.081  11.466   7.206 -3.3960  2.9183  1.1477
  578MOL0     H79706   1.956  11.380   7.109  0.1857  1.7009 -0.6975
  578MOL0     H79707   2.015  11.177   7.230  0.1660  0.7806  0.7509
  578MOL0     H79708   2.151  11.243   7.139 -0.7210 -4.2691 -0.8816
  578MOL0     H79709   2.117  11.232   7.430 -3.6234 -1.7775 -3.0685
  578MOL0     H79710   2.245  11.343   7.369  3.3252 -1.6276  0.3751
  578MOL0     H79711   2.219  11.047   7.317  0.2808 -0.5276  2.7712
  578MOL0     H79712   2.348  11.148   7.243  0.7997  0.7209  0.9975
  578MOL0     H79713   2.314  11.250   7.626  1.5354  0.8952  1.2402
  578MOL0     H79714   2.475  10.977   7.829 -1.9438 -0.3034 -1.6622
  578MOL0     H79715   2.382  11.130   7.850 -0.2349  0.0189 -1.0762
  578MOL0     H79716   2.650  11.134   7.733 -1.6708  1.9838 -2.5151
  578MOL0     H79717   2.570  11.263   7.816 -3.9177 -0.4991 -2.0215
  578MOL0     H79718   2.698  11.003   7.928 -1.1442 -1.0536 -0.0764
  578MOL0     H79719   2.741  11.180   7.971  1.0101 -0.3142 -1.3730
  578MOL0     H79720   2.508  11.025   8.062  0.6831 -1.0184  0.3147
  578MOL0     H79721   2.642  11.109   8.155 -0.3946  3.2969  0.4789
  578MOL0     H79722   2.384  11.077   8.265 -3.4636 -0.8134 -1.4337
  578MOL0     H79723   2.226  11.027   8.397 -1.5701 -0.8214 -1.7018
  578MOL0     H79724   2.082  11.122   8.425  0.7965  1.1713  1.6334
  578MOL0     H79725   2.223  11.150   8.527 -1.3723 -1.7078  2.6256
  578MOL0     H79726   1.837  11.455   8.327  0.0502 -0.5583  2.1429
  578MOL0     H79727   1.628  11.579   8.349 -0.4363  1.4048 -1.0122
  578MOL0     H79728   1.457  11.688   8.454  0.3822 -0.4749 -0.8282
  578MOL0     H79729   1.555  11.708   8.601  2.1640  1.6212 -1.1211
  578MOL0     H79730   1.355  11.930   8.518  1.4821  0.1141  0.6344
  578MOL0     H79731   1.315  11.795   8.617  1.0174 -0.0959  1.6746
  578MOL0     H79732   1.545  11.948   8.709  1.7449 -3.2278  2.0348
  578MOL0     H79733   1.446  11.827   8.790  0.8085 -0.1823 -0.4877
  578MOL0     H79734   1.253  11.997   8.801 -0.8077  0.0344 -2.0772
  578MOL0     H79735   1.349  12.095   8.684 -1.0717  2.0460  1.3760
  578MOL0     H79736   1.444  12.022   8.957 -2.7828  0.3433  1.9149
  578MOL0     H79737   1.501  12.166   8.861 -0.1495  0.7964  1.2704
  578MOL0     H79738   1.369  12.237   9.044 -0.6988 -0.7875  1.5123
  578MOL0     H79739   1.230  12.133   8.990  0.5360 -0.5924 -0.6848
  578MOL0     H79740   1.156  12.278   8.820  0.7860  1.0674  0.1017
  578MOL0     H79741   1.332  12.323   8.795  0.9027 -0.1220  0.2481
  578MOL0     H79742   1.316  12.459   8.977  1.2330 -1.8297 -1.0146
  578MOL0     H79743   1.143  12.439   9.010  2.4767  1.6720  2.2991
  578MOL0     H79744   1.850  11.919   8.504  0.2802 -0.6568  2.1867
  578MOL0     H79745   2.058  11.777   8.490  0.3894 -1.1567 -0.5899
  578MOL0     H79746   2.288  11.565   8.243  0.3152  1.6694  3.1277
  578MOL0     H79747   2.440  11.464   8.099 -1.7959  4.1113  2.7493
  578MOL0     H79748   1.465  11.206   7.272 -2.2211  2.1990  0.3855
  578MOL0     H79749   1.459  11.017   7.405  1.1468 -1.4252  1.7528
  578MOL0     H79750   1.367  10.683   7.632  0.6637  0.7015  0.2413
  578MOL0     H79751   1.402  10.471   7.780 -0.6043 -0.3593 -2.8085
  578MOL0     H79752   1.419  10.323   7.940  0.4159 -4.4681 -0.1501
  578MOL0     H79753   1.594  10.325   7.936 -1.4479  0.8191  0.3532
  578MOL0     H79754   1.587  10.317   8.190 -2.2092 -0.6762  2.3080
  578MOL0     H79755   1.515  10.180   8.099 -2.0148 -0.2782  2.1848
  578MOL0     H79756   1.356  10.406   8.233  1.3754 -0.0043  3.0244
  578MOL0     H79757   1.297  10.263   8.145 -0.4528  0.8656 -0.4093
  578MOL0     H79758   1.394  10.117   8.316 -1.4825 -0.2345 -1.8511
  578MOL0     H79759   1.257  10.210   8.368 -0.0130  0.5249  1.9068
  578MOL0     H79760   1.582  10.381   8.585 -2.5659  1.4300  0.7288
  578MOL0     H79761   1.603  10.715   8.063  0.8314 -1.0743  0.0744
  578MOL0     H79762   1.493  11.042   7.942 -0.2939 -1.1250 -2.0264
  578MOL0     H79763   1.586  10.951   8.061 -0.7094  2.5017  0.6303
  578MOL0     H79764   1.667  10.976   7.920  1.6244 -0.3081  2.2906
  579MOL0     O79765   6.026   5.908   4.450  1.0010 -0.2835 -0.1228
  579MOL0     C79766   6.054   6.018   4.397  0.0711 -0.7285  0.6107
  579MOL0     O79767   5.977   6.084   4.300 -0.4963 -0.0322  0.3064
  579MOL0     C79768   5.857   6.026   4.264  0.4964 -0.5574 -0.3116
  579MOL0     C79769   5.852   5.924   4.173 -0.0854  0.4990 -0.1012
  579MOL0     C79770   5.730   5.883   4.111 -0.9607 -0.4526 -0.3785
  579MOL0     C79771   5.607   5.936   4.160  0.3969 -0.5949  0.2355
  579MOL0     O79772   5.483   5.902   4.108 -0.3375 -0.5456 -0.4924
  579MOL0     C79773   5.444   5.927   3.974 -0.3689  0.9842 -0.1029
  579MOL0     C79774   5.421   6.071   3.946 -0.4774 -0.0396 -0.2349
  579MOL0     C79775   5.347   6.096   3.814 -1.1930  0.7284  0.1081
  579MOL0     C79776   5.431   6.061   3.694 -0.9522 -0.7865  1.5256
  579MOL0     C79777   5.355   6.104   3.562 -0.3345  0.5035  0.1690
  579MOL0     C79778   5.449   6.087   3.437 -0.1012  1.0361  0.4602
  579MOL0     C79779   5.354   6.098   3.314 -0.5557  0.1330  0.1854
  579MOL0     C79780   5.302   6.241   3.303 -0.7979 -0.4552 -0.1997
  579MOL0     N79781   5.232   6.269   3.180  0.2030 -0.6764 -0.0774
  579MOL0     C79782   5.290   6.276   3.057 -0.0913  0.1765  0.6397
  579MOL0     C79783   5.193   6.332   2.977 -0.2869 -0.0796 -0.5114
  579MOL0     C79784   5.202   6.363   2.829  0.4373  0.7738 -0.3380
  579MOL0     C79785   5.245   6.508   2.801  0.7009  0.3673 -0.1209
  579MOL0     C79786   5.397   6.531   2.822  0.0167 -0.4494  0.6173
  579MOL0     C79787   5.429   6.687   2.804 -0.1935  1.4348 -0.1250
  579MOL0     O79788   5.568   6.710   2.808  0.7316  0.1201  0.5799
  579MOL0     C79789   5.616   6.834   2.778  1.2010  0.5869 -0.5982
  579MOL0     C79790   5.532   6.947   2.736 -0.0887  0.0114  0.4486
  579MOL0     C79791   5.579   7.077   2.733  0.1186  0.5899 -0.4890
  579MOL0     C79792   5.469   7.175   2.727  0.4630 -0.2402 -1.2434
  579MOL0     C79793   5.719   7.104   2.747 -0.0245 -0.8303  0.1788
  579MOL0     C79794   5.780   7.241   2.750 -0.5336 -0.8763  0.7603
  579MOL0     O79795   5.909   7.242   2.714  0.0113  0.9589 -0.4193
  579MOL0     C79796   5.956   7.343   2.633  0.3859  0.1491 -0.8681
  579MOL0     C79797   6.063   7.306   2.550  0.9601  0.4226  0.0271
  579MOL0     C79798   6.135   7.399   2.479  0.3369  0.4082  1.1047
  579MOL0     C79799   6.119   7.535   2.489  0.4095  0.4334 -0.0968
  579MOL0     O79800   6.194   7.635   2.434  0.2191 -0.1117  0.2930
  579MOL0     C79801   6.335   7.626   2.416  0.0436  0.4220  0.8880
  579MOL0     C79802   6.390   7.772   2.411 -0.1509 -0.1503 -1.1711
  579MOL0     C79803   6.310   7.860   2.301 -0.5404 -0.4779 -0.6347
  579MOL0     C79804   6.182   7.934   2.343 -0.2030  0.7068  0.7971
  579MOL0     C79805   6.149   8.025   2.219 -0.7910  0.4514  0.6303
  579MOL0     C79806   6.075   8.143   2.271  0.6619 -0.5193  0.1684
  579MOL0     C79807   5.944   8.115   2.347  0.1817  0.0925  0.7910
  579MOL0     C79808   5.862   8.237   2.353 -0.0147  0.1638 -0.3749
  579MOL0    Cl79809   5.934   8.340   2.482  0.2035 -0.6205  0.1220
  579MOL0     C79810   6.016   7.574   2.579  0.0824  0.8464  0.1530
  579MOL0     C79811   5.941   7.481   2.651  0.6365 -0.0067 -0.3157
  579MOL0     O79812   5.719   7.345   2.776  0.0336  0.3023 -0.0893
  579MOL0     C79813   5.806   6.994   2.755 -0.1518  0.4916  0.4597
  579MOL0     C79814   5.756   6.863   2.780 -0.6406  0.1335  0.3267
  579MOL0     N79815   5.093   6.380   3.054  0.5453  0.6590  0.6192
  579MOL0     N79816   5.115   6.335   3.172 -0.4892 -0.3954 -1.0792
  579MOL0     C79817   5.612   6.033   4.267 -0.7785 -0.2544  0.4726
  579MOL0     C79818   5.737   6.085   4.308  0.0164 -1.3200 -0.5443
  579MOL0     C79819   6.188   6.089   4.425 -0.4487  0.0178  0.1380
  579MOL0     C79820   6.203   6.218   4.375  0.9668 -0.1019 -1.3858
  579MOL0     C79821   6.312   6.298   4.390  0.1943 -0.1814  0.5358
  579MOL0     C79822   6.426   6.247   4.446 -0.9253  0.2710  0.7735
  579MOL0     O79823   6.538   6.311   4.477 -0.4613  0.2138  0.6289
  579MOL0     C79824   6.512   6.445   4.527 -0.2977  0.3915 -0.5494
  579MOL0     C79825   6.645   6.515   4.566 -0.1890  0.4463 -0.3981
  579MOL0     C79826   6.696   6.502   4.708 -0.4880  0.1040  0.1150
  579MOL0     C79827   6.733   6.359   4.741  0.0596  0.1787  0.1704
  579MOL0     C79828   6.609   6.284   4.781  0.0539 -0.3946 -0.0303
  579MOL0     C79829   6.506   6.239   4.810 -0.3516  0.6540 -0.1462
  579MOL0     C79830   6.419   6.110   4.483 -0.7184  0.1027 -0.2646
  579MOL0     C79831   6.296   6.034   4.488 -0.1320  0.3712  0.4086
  579MOL0     C79832   6.311   5.889   4.545  0.1228 -0.2830  0.4595
  579MOL0     H79833   5.948   5.885   4.139 -0.4704  0.2605 -0.9332
  579MOL0     H79834   5.736   5.808   4.032 -2.3473 -1.6240  0.5775
  579MOL0     H79835   5.351   5.871   3.963 -0.3298  1.2633 -2.5986
  579MOL0     H79836   5.515   5.873   3.910 -0.5027 -2.3788  2.3410
  579MOL0     H79837   5.356   6.113   4.024  1.0355 -1.2714  1.7745
  579MOL0     H79838   5.520   6.118   3.945 -0.8930  0.9937  1.9152
  579MOL0     H79839   5.251   6.045   3.817  0.1134 -1.8564  0.7765
  579MOL0     H79840   5.319   6.201   3.805  0.3661  1.4308  2.4644
  579MOL0     H79841   5.527   6.114   3.692 -2.1285  1.4962  2.2599
  579MOL0     H79842   5.439   5.953   3.685 -0.6315 -0.9765  3.6547
  579MOL0     H79843   5.331   6.210   3.565  3.4020  1.5569 -0.9934
  579MOL0     H79844   5.268   6.041   3.544 -2.1077  2.2630  2.1618
  579MOL0     H79845   5.533   6.157   3.441 -0.2472  1.5537 -3.0574
  579MOL0     H79846   5.490   5.985   3.431  0.7839  1.4669 -1.8231
  579MOL0     H79847   5.275   6.022   3.321  0.2196 -0.8432 -1.2245
  579MOL0     H79848   5.411   6.074   3.224 -0.2495 -0.7052  0.5947
  579MOL0     H79849   5.229   6.271   3.379  2.1243 -0.2368  2.7351
  579MOL0     H79850   5.383   6.315   3.305  1.7503 -3.0623  2.3121
  579MOL0     H79851   5.387   6.244   3.019  0.0641  2.4744 -1.1034
  579MOL0     H79852   5.112   6.328   2.779  0.4898 -0.9105  0.6434
  579MOL0     H79853   5.276   6.305   2.773 -3.0838 -3.7369 -0.8536
  579MOL0     H79854   5.210   6.529   2.700 -2.0988 -3.0275 -0.0886
  579MOL0     H79855   5.188   6.576   2.864 -0.5356  0.7098 -1.5581
  579MOL0     H79856   5.429   6.495   2.920 -0.3371  0.7343  1.1930
  579MOL0     H79857   5.451   6.470   2.750  2.6870  1.0576  1.2011
  579MOL0     H79858   5.390   6.722   2.708 -1.6410  3.2927  1.0673
  579MOL0     H79859   5.376   6.742   2.882 -2.1549  0.9706 -1.0674
  579MOL0     H79860   5.424   6.942   2.731 -0.0706 -1.1820  0.7756
  579MOL0     H79861   5.505   7.252   2.658  3.3995  0.7528  1.1686
  579MOL0     H79862   5.465   7.218   2.828  1.6912 -0.8762 -0.9093
  579MOL0     H79863   5.371   7.137   2.698  0.4089  0.7355 -2.4543
  579MOL0     H79864   6.091   7.201   2.544 -2.0110 -0.6751  2.4783
  579MOL0     H79865   6.215   7.376   2.410 -0.7099  0.4018 -0.1531
  579MOL0     H79866   6.376   7.570   2.501 -1.0786 -2.0191 -0.0875
  579MOL0     H79867   6.364   7.594   2.316  0.6689  1.3267  0.7685
  579MOL0     H79868   6.387   7.821   2.508 -1.1898  1.7197 -2.0796
  579MOL0     H79869   6.494   7.779   2.379 -0.3164  0.4950 -1.6006
  579MOL0     H79870   6.286   7.795   2.216  0.3314 -2.2340  0.3989
  579MOL0     H79871   6.386   7.926   2.259  1.6968 -0.5105  2.9244
  579MOL0     H79872   6.197   7.998   2.431  0.1108 -0.2349  1.4479
  579MOL0     H79873   6.100   7.864   2.357 -1.1238  1.5173 -0.3790
  579MOL0     H79874   6.233   8.061   2.159 -0.8277 -3.1172 -1.8594
  579MOL0     H79875   6.084   7.972   2.149 -3.7139  0.2773  3.2392
  579MOL0     H79876   6.044   8.207   2.188  1.8042  3.5019  2.5638
  579MOL0     H79877   6.137   8.209   2.332  0.3156  0.9067 -0.9417
  579MOL0     H79878   5.950   8.054   2.438 -2.3824  0.0360  0.9797
  579MOL0     H79879   5.887   8.051   2.279 -1.5402 -1.7196  3.7574
  579MOL0     H79880   5.760   8.213   2.383  0.2207 -1.6465 -0.9407
  579MOL0     H79881   5.861   8.284   2.254 -2.1340 -1.7550 -1.3357
  579MOL0     H79882   6.004   7.680   2.600 -0.5148  0.6658  0.7525
  579MOL0     H79883   5.871   7.523   2.723  2.1247  0.8373  0.6809
  579MOL0     H79884   5.914   7.009   2.755 -0.0852  0.0572 -0.2557
  579MOL0     H79885   5.831   6.792   2.814  0.7078  2.0900  1.6549
  579MOL0     H79886   5.520   6.068   4.312 -0.1592  1.3316  0.5781
  579MOL0     H79887   5.752   6.172   4.371  0.4321 -0.4119 -1.8634
  579MOL0     H79888   6.123   6.269   4.322  1.5758  3.3665  0.7159
  579MOL0     H79889   6.306   6.401   4.359 -1.9322 -0.0061  1.3866
  579MOL0     H79890   6.467   6.499   4.443 -0.7850 -0.0524 -0.5760
  579MOL0     H79891   6.443   6.450   4.611 -0.3106  0.6833 -0.5764
  579MOL0     H79892   6.625   6.622   4.556  0.8235  0.5246 -1.9542
  579MOL0     H79893   6.726   6.489   4.497  1.8935  0.4929  1.9209
  579MOL0     H79894   6.781   6.569   4.722 -1.3675  2.1960 -3.4040
  579MOL0     H79895   6.618   6.536   4.776 -0.3480  1.4533 -0.3726
  579MOL0     H79896   6.803   6.352   4.824 -0.2292 -0.2560  0.3829
  579MOL0     H79897   6.786   6.314   4.657  2.8080 -0.2579  2.0029
  579MOL0     H79898   6.406   6.205   4.830 -0.5764  1.0237 -0.6177
  579MOL0     H79899   6.507   6.074   4.536 -1.9039 -1.0793  1.0072
  579MOL0     H79900   6.300   5.892   4.654 -0.8010  5.5906  0.5624
  579MOL0     H79901   6.265   5.808   4.490 -1.5965 -0.4217  2.0122
  579MOL0     H79902   6.417   5.864   4.536 -0.4575 -1.9942 -2.8756
  580MOL0     O79903  10.744   9.399   6.242 -0.2695  0.0241  0.1423
  580MOL0     C79904  10.777   9.418   6.126  0.7372 -1.0770  0.4664
  580MOL0     O79905  10.695   9.455   6.025  0.1203 -0.4183  0.2916
  580MOL0     C79906  10.571   9.501   6.075 -0.7725  0.5217  0.9446
  580MOL0     C79907  10.478   9.416   6.132 -0.1712 -0.1276 -0.8752
  580MOL0     C79908  10.348   9.461   6.166 -0.1070 -0.0281 -0.5462
  580MOL0     C79909  10.313   9.596   6.161  0.4009  0.1468 -0.3284
  580MOL0     O79910  10.182   9.639   6.167 -0.2885  0.1367  0.4324
  580MOL0     C79911  10.081   9.558   6.232  0.6608  0.9487 -0.0856
  580MOL0     C79912   9.940   9.629   6.224 -0.0631  0.2512 -0.6614
  580MOL0     C79913   9.847   9.561   6.320 -1.0183 -0.1489 -0.0648
  580MOL0     C79914   9.723   9.651   6.329  1.1530 -0.2351  0.8272
  580MOL0     C79915   9.598   9.566   6.374 -0.8750 -0.0826 -0.1341
  580MOL0     C79916   9.597   9.563   6.532 -0.1656  0.8366  0.0834
  580MOL0     C79917   9.725   9.501   6.605  0.1279  0.3719  0.5813
  580MOL0     C79918   9.682   9.436   6.734  0.9746  0.1178 -0.4408
  580MOL0     N79919   9.607   9.311   6.703  0.7058 -0.8391  0.0265
  580MOL0     C79920   9.661   9.208   6.649 -0.4603  0.3812  0.0746
  580MOL0     C79921   9.562   9.122   6.640 -1.0898  0.1857  1.1607
  580MOL0     C79922   9.586   8.993   6.561 -0.5144  0.8267 -0.1836
  580MOL0     C79923   9.578   8.862   6.644 -0.4036  0.0666 -1.0592
  580MOL0     C79924   9.435   8.840   6.704 -1.2817 -0.1147  0.5382
  580MOL0     C79925   9.417   8.708   6.790 -0.5658  0.0640  0.3396
  580MOL0     O79926   9.518   8.707   6.888  0.8579  0.1311 -0.6057
  580MOL0     C79927   9.499   8.788   7.002  0.0675  0.2259 -0.5335
  580MOL0     C79928   9.607   8.792   7.098  0.1944  0.1407  0.7242
  580MOL0     C79929   9.605   8.876   7.210  0.6151  0.0236 -0.7252
  580MOL0     C79930   9.725   8.870   7.294  0.4878 -0.8072  0.3672
  580MOL0     C79931   9.493   8.953   7.238  0.2341 -0.3062  0.1932
  580MOL0     C79932   9.479   9.053   7.343  0.5557 -0.8957 -0.1074
  580MOL0     O79933   9.583   9.110   7.386  0.1923  0.1541  0.7149
  580MOL0     C79934   9.578   9.198   7.491  0.8344 -0.2957 -0.1497
  580MOL0     C79935   9.677   9.182   7.588  0.6056  0.7767  0.3587
  580MOL0     C79936   9.716   9.279   7.682 -0.4706  0.2921  0.1765
  580MOL0     C79937   9.644   9.400   7.682 -0.5295  0.3795  0.7327
  580MOL0     O79938   9.679   9.512   7.765  0.8875 -0.3714  0.0919
  580MOL0     C79939   9.813   9.535   7.808 -0.4004  0.6219 -0.6501
  580MOL0     C79940   9.886   9.629   7.715 -1.1735  0.2236 -0.2157
  580MOL0     C79941   9.851   9.773   7.751  0.4887 -0.3718 -0.5498
  580MOL0     C79942   9.728   9.835   7.668  0.7917 -0.7541 -0.7262
  580MOL0     C79943   9.693   9.979   7.733 -0.2857 -0.6255  0.0591
  580MOL0     C79944   9.676  10.090   7.618  0.5626  0.3437  0.0882
  580MOL0     C79945   9.569  10.053   7.506 -0.7937  0.3911  0.4098
  580MOL0     C79946   9.523  10.178   7.424  0.4687 -0.0526  0.5667
  580MOL0    Cl79947   9.608  10.192   7.267 -0.5111 -0.0883 -0.2197
  580MOL0     C79948   9.528   9.421   7.590 -0.2848  0.8203  0.2905
  580MOL0     C79949   9.507   9.325   7.495  0.9389 -0.3231 -0.1603
  580MOL0     O79950   9.365   9.083   7.376 -0.3271  0.3769  0.6510
  580MOL0     C79951   9.384   8.937   7.148 -1.0480 -0.8475 -0.5182
  580MOL0     C79952   9.382   8.855   7.038  0.7980  0.7127  0.3003
  580MOL0     N79953   9.449   9.175   6.679 -0.2055 -0.6067 -0.4049
  580MOL0     N79954   9.466   9.300   6.711 -0.8230  0.0493 -0.6044
  580MOL0     C79955  10.407   9.686   6.097  0.7125  0.2051  0.1056
  580MOL0     C79956  10.531   9.634   6.055 -0.0125 -0.6403  0.4903
  580MOL0     C79957  10.908   9.380   6.087 -0.5396 -0.0739 -0.0674
  580MOL0     C79958  10.939   9.331   5.961  0.2525  0.4249 -0.4135
  580MOL0     C79959  11.060   9.274   5.934  0.2235  0.1229  0.8186
  580MOL0     C79960  11.159   9.259   6.029  0.2279  0.6970  0.4037
  580MOL0     O79961  11.262   9.175   5.997  0.7141  0.8106  0.3832
  580MOL0     C79962  11.336   9.122   6.110  0.2654  0.5747  0.1385
  580MOL0     C79963  11.364   8.972   6.079  0.2005 -0.7089 -0.4328
  580MOL0     C79964  11.451   8.950   5.954 -0.0983  0.2454  0.5052
  580MOL0     C79965  11.542   8.832   5.981  0.5546  0.9840  0.6871
  580MOL0     C79966  11.472   8.703   5.968 -0.2361 -0.6776  0.5931
  580MOL0     C79967  11.404   8.608   5.957  0.5798 -0.3157  0.3811
  580MOL0     C79968  11.137   9.329   6.156  0.5265  0.6915  1.2091
  580MOL0     C79969  11.011   9.394   6.183  1.1861  1.0556 -0.0443
  580MOL0     C79970  11.001   9.473   6.308  0.5210 -0.1636 -0.7183
  580MOL0     H79971  10.511   9.316   6.159  2.1906  1.4500  3.0992
  580MOL0     H79972  10.277   9.394   6.214 -0.8986  1.3539  0.2975
  580MOL0     H79973  10.101   9.546   6.339 -1.1987  1.7699  0.3972
  580MOL0     H79974  10.066   9.465   6.177 -0.3014  0.8751  0.2807
  580MOL0     H79975   9.954   9.726   6.272  0.5897  0.0916 -0.5158
  580MOL0     H79976   9.911   9.629   6.118  1.3540 -1.2167 -1.0951
  580MOL0     H79977   9.832   9.460   6.281 -0.2534  0.8362 -3.1634
  580MOL0     H79978   9.902   9.567   6.415 -1.2443 -0.3082  0.0758
  580MOL0     H79979   9.730   9.742   6.389 -1.9800  0.5958  0.1216
  580MOL0     H79980   9.689   9.685   6.231 -1.0239 -2.5263  0.6908
  580MOL0     H79981   9.627   9.465   6.344  1.0708  0.6819 -1.0535
  580MOL0     H79982   9.501   9.600   6.338  0.0263  0.6608 -2.0426
  580MOL0     H79983   9.583   9.665   6.567 -0.1622  1.3390 -1.3305
  580MOL0     H79984   9.513   9.497   6.554  2.5904 -3.9990 -2.1800
  580MOL0     H79985   9.802   9.579   6.611  2.0530 -1.2596 -1.1230
  580MOL0     H79986   9.765   9.427   6.534 -2.2400  0.5290 -1.0376
  580MOL0     H79987   9.769   9.424   6.799 -0.5973 -1.2672  1.5395
  580MOL0     H79988   9.618   9.503   6.792  1.1726  1.4689 -1.7364
  580MOL0     H79989   9.764   9.181   6.630 -0.6584 -0.4040  0.0752
  580MOL0     H79990   9.688   8.991   6.523 -0.3040  0.8797  0.3748
  580MOL0     H79991   9.521   8.981   6.474 -0.1533  2.8646 -0.7973
  580MOL0     H79992   9.602   8.771   6.587  1.0291  0.5878 -1.3188
  580MOL0     H79993   9.635   8.858   6.737  2.1377 -4.3681 -2.4811
  580MOL0     H79994   9.418   8.922   6.775 -0.9030  1.2635 -0.9161
  580MOL0     H79995   9.369   8.840   6.617 -1.4439  1.8076  0.6260
  580MOL0     H79996   9.315   8.693   6.828 -1.9080 -0.3227 -3.0788
  580MOL0     H79997   9.438   8.630   6.718  1.9536  0.8488  0.1472
  580MOL0     H79998   9.697   8.740   7.066 -0.1111  0.0524 -0.0142
  580MOL0     H79999   9.690   8.840   7.393 -0.9110  1.3341  0.5952
  580MOL0     H80000   9.772   8.969   7.295 -0.6681 -0.1765 -1.8077
  580MOL0     H80001   9.793   8.793   7.258  1.7163  0.4579 -0.0781
  580MOL0     H80002   9.739   9.093   7.578  4.6049  3.1974  1.0144
  580MOL0     H80003   9.781   9.247   7.762 -1.2692 -2.8249 -0.2926
  580MOL0     H80004   9.799   9.579   7.907 -2.7853  1.9990 -1.5247
  580MOL0     H80005   9.872   9.442   7.805 -1.8189 -0.3674  0.4336
  580MOL0     H80006   9.993   9.616   7.735 -1.2682  1.3681  1.2288
  580MOL0     H80007   9.874   9.603   7.609 -1.6136 -1.6822  0.2770
  580MOL0     H80008   9.950   9.818   7.742  2.5021 -4.0820  0.9095
  580MOL0     H80009   9.817   9.782   7.855  1.4272 -1.9296 -0.0740
  580MOL0     H80010   9.637   9.775   7.677  0.0326  0.1818 -1.8445
  580MOL0     H80011   9.759   9.849   7.564 -0.7888  0.7847 -1.0370
  580MOL0     H80012   9.603   9.969   7.794  0.4905 -2.4549  0.9831
  580MOL0     H80013   9.785  10.007   7.784  0.3562  0.6139 -1.6809
  580MOL0     H80014   9.772  10.097   7.566  0.4592 -0.4981 -0.2228
  580MOL0     H80015   9.644  10.190   7.651 -1.5222 -0.4090  0.5264
  580MOL0     H80016   9.482  10.016   7.562 -0.5259 -1.1378 -0.1270
  580MOL0     H80017   9.597   9.978   7.432 -1.2445  1.8630 -1.3208
  580MOL0     H80018   9.530  10.270   7.483 -1.6578  0.9782 -0.6398
  580MOL0     H80019   9.416  10.163   7.405  0.2333  2.1501 -0.1804
  580MOL0     H80020   9.467   9.511   7.589 -0.0614  0.9684 -0.1826
  580MOL0     H80021   9.427   9.337   7.422 -2.7141  0.9050  3.6254
  580MOL0     H80022   9.294   8.993   7.169 -1.1797 -0.1170 -2.7617
  580MOL0     H80023   9.297   8.858   6.971 -0.7728  0.1464  2.1976
  580MOL0     H80024  10.380   9.782   6.055  0.5503 -0.4715 -1.4124
  580MOL0     H80025  10.599   9.705   6.010 -0.2248  0.7981  2.3276
  580MOL0     H80026  10.866   9.327   5.881  2.2650 -4.7107 -2.3470
  580MOL0     H80027  11.054   9.217   5.842 -1.4970  0.5206  0.6518
  580MOL0     H80028  11.420   9.187   6.136  1.1139 -0.0144 -1.0442
  580MOL0     H80029  11.270   9.114   6.197  0.4856 -2.8093  0.1382
  580MOL0     H80030  11.266   8.925   6.076 -0.6636  0.9036  0.6950
  580MOL0     H80031  11.416   8.931   6.167  1.1544  0.5001 -0.4018
  580MOL0     H80032  11.400   8.928   5.860  3.8366 -0.5811 -1.6425
  580MOL0     H80033  11.509   9.041   5.938 -1.0241  0.2948 -3.6437
  580MOL0     H80034  11.594   8.837   6.077  2.1628 -0.9669 -0.0015
  580MOL0     H80035  11.623   8.832   5.907 -1.7186  0.5621 -1.9520
  580MOL0     H80036  11.339   8.524   5.967  0.4171 -0.2653 -0.2169
  580MOL0     H80037  11.216   9.324   6.230  0.0021 -1.9494  1.6961
  580MOL0     H80038  11.099   9.498   6.348 -0.1277  0.0756  0.8012
  580MOL0     H80039  10.947   9.563   6.277 -1.6894 -1.1209  0.1344
  580MOL0     H80040  10.943   9.428   6.389  3.3363 -0.8026  1.0553
  581MOL0     O80041   1.837   7.151   5.409  0.4242  0.0604 -0.2066
  581MOL0     C80042   1.953   7.195   5.409  0.2099  0.5237  0.7043
  581MOL0     O80043   2.035   7.216   5.526  0.4477 -0.2924 -0.5494
  581MOL0     C80044   1.975   7.183   5.643  0.9391 -0.4399  0.0459
  581MOL0     C80045   1.953   7.052   5.682  0.9190 -0.1864 -0.0860
  581MOL0     C80046   1.892   7.026   5.804  0.1149  0.1369 -0.3609
  581MOL0     C80047   1.844   7.133   5.891  0.0422  0.1714  0.2102
  581MOL0     O80048   1.765   7.097   6.002  0.3786 -0.4029 -0.4743
  581MOL0     C80049   1.674   7.200   6.056 -0.0195 -0.1757 -1.1620
  581MOL0     C80050   1.579   7.134   6.164 -1.4351  0.7286  0.0082
  581MOL0     C80051   1.489   7.021   6.111 -0.1737 -0.6509 -0.8076
  581MOL0     C80052   1.558   6.888   6.121 -1.0362  0.3839 -1.0556
  581MOL0     C80053   1.460   6.768   6.121  0.3082 -0.0506 -0.0238
  581MOL0     C80054   1.525   6.631   6.162 -0.3392  0.6569  0.9335
  581MOL0     C80055   1.642   6.587   6.074  0.2868  0.6942  0.6071
  581MOL0     C80056   1.618   6.577   5.920  0.1386  0.0218 -0.2397
  581MOL0     N80057   1.517   6.484   5.880 -0.4245  0.6297  0.2491
  581MOL0     C80058   1.496   6.450   5.753  0.5874 -0.5203  0.2544
  581MOL0     C80059   1.402   6.351   5.743  0.2972  1.0560  0.2435
  581MOL0     C80060   1.346   6.288   5.620  0.2377 -0.7076 -0.1369
  581MOL0     C80061   1.410   6.163   5.594  0.0383  0.5746  0.4451
  581MOL0     C80062   1.557   6.171   5.553  0.6789  0.9256  0.2885
  581MOL0     C80063   1.568   6.250   5.424  0.3944 -0.6177  0.3668
  581MOL0     O80064   1.668   6.198   5.342 -0.4510  0.0365 -0.3780
  581MOL0     C80065   1.795   6.242   5.370 -0.3649 -0.2902  0.1259
  581MOL0     C80066   1.890   6.157   5.412  0.1075 -0.4605  0.0131
  581MOL0     C80067   2.020   6.207   5.444  0.0084  0.6311  0.0524
  581MOL0     C80068   2.111   6.106   5.492  0.0582  1.4160 -0.1337
  581MOL0     C80069   2.057   6.348   5.426  0.0636  0.0988 -0.6464
  581MOL0     C80070   2.194   6.405   5.450 -0.6309 -0.3598 -0.0402
  581MOL0     O80071   2.289   6.318   5.482 -0.2604  0.7710  0.1194
  581MOL0     C80072   2.423   6.357   5.469  0.7508 -1.0840  0.3816
  581MOL0     C80073   2.478   6.460   5.545  0.1264 -0.3427 -0.1475
  581MOL0     C80074   2.612   6.486   5.545 -1.4378 -0.8435  0.4027
  581MOL0     C80075   2.706   6.409   5.470  0.1953 -1.2828 -0.1975
  581MOL0     O80076   2.841   6.441   5.490 -0.2442 -0.7063 -0.4866
  581MOL0     C80077   2.938   6.402   5.391  0.1420 -0.1229  0.1422
  581MOL0     C80078   2.922   6.514   5.285 -0.8057  0.8347  0.4714
  581MOL0     C80079   3.003   6.492   5.152 -0.1091  0.9452 -0.2834
  581MOL0     C80080   3.145   6.540   5.160  0.2588 -0.3775 -0.2399
  581MOL0     C80081   3.229   6.514   5.049  0.3025 -0.4084 -0.1088
  581MOL0     C80082   3.254   6.367   5.005 -0.5107 -0.7311  0.8021
  581MOL0     C80083   3.374   6.373   4.901 -0.4229  0.5760  0.7506
  581MOL0     C80084   3.410   6.226   4.878 -0.0223 -1.0155 -0.3830
  581MOL0    Cl80085   3.538   6.221   4.756 -0.4700  0.1537 -0.5248
  581MOL0     C80086   2.646   6.314   5.383  0.1110 -0.0505  0.2969
  581MOL0     C80087   2.512   6.280   5.388 -0.3695 -0.7070  0.2931
  581MOL0     O80088   2.210   6.526   5.446  0.4434 -0.1226  0.4991
  581MOL0     C80089   1.955   6.435   5.391  0.2680  0.1343 -0.0039
  581MOL0     C80090   1.827   6.383   5.360 -0.6073 -0.2137 -0.2463
  581MOL0     N80091   1.381   6.307   5.871 -0.3375  0.6174 -0.4284
  581MOL0     N80092   1.454   6.381   5.950 -0.2807  0.9412  0.7079
  581MOL0     C80093   1.875   7.265   5.855 -0.2237 -0.0311 -0.4190
  581MOL0     C80094   1.936   7.289   5.731 -0.5493 -0.6855 -0.3088
  581MOL0     C80095   2.010   7.235   5.275  0.7488  0.5357  1.3095
  581MOL0     C80096   1.926   7.242   5.163 -0.2111 -0.0167  0.2022
  581MOL0     C80097   1.965   7.285   5.038 -0.2367 -0.2890 -0.4618
  581MOL0     C80098   2.092   7.339   5.021 -0.1222 -0.2968  1.3309
  581MOL0     O80099   2.141   7.387   4.901  0.0789 -0.4720  0.1146
  581MOL0     C80100   2.048   7.403   4.786 -0.0605 -0.2632 -0.6533
  581MOL0     C80101   2.128   7.469   4.670 -0.5008  0.0661 -0.7846
  581MOL0     C80102   2.267   7.406   4.659 -0.2279  0.1626  0.0218
  581MOL0     C80103   2.277   7.259   4.649  0.2009  0.0076  0.3157
  581MOL0     C80104   2.210   7.204   4.526  0.0210  0.2328  0.2845
  581MOL0     C80105   2.155   7.159   4.424 -0.0322 -0.1152  0.4279
  581MOL0     C80106   2.178   7.321   5.128  0.4932  0.4539 -0.7430
  581MOL0     C80107   2.144   7.256   5.249 -0.2222 -0.2847  0.6070
  581MOL0     C80108   2.255   7.222   5.337 -0.1721  0.2795  0.2628
  581MOL0     H80109   1.973   6.975   5.609  2.0773 -0.0440  0.0487
  581MOL0     H80110   1.862   6.924   5.823  0.5961  0.3072  1.6071
  581MOL0     H80111   1.599   7.232   5.983 -1.0247  0.2406  0.0107
  581MOL0     H80112   1.744   7.277   6.090  1.6907 -2.4387  0.8104
  581MOL0     H80113   1.630   7.092   6.251  0.0750 -0.4245 -1.3747
  581MOL0     H80114   1.519   7.220   6.196  1.0593  2.9904 -1.0355
  581MOL0     H80115   1.397   7.013   6.171 -1.9729  0.4574 -3.2486
  581MOL0     H80116   1.468   7.047   6.007  0.1167 -0.1178 -0.7374
  581MOL0     H80117   1.635   6.878   6.044 -2.1194  1.3538 -2.3121
  581MOL0     H80118   1.606   6.891   6.219 -3.0562  1.1594 -0.0296
  581MOL0     H80119   1.433   6.765   6.015  0.0413  0.3282  0.0300
  581MOL0     H80120   1.373   6.785   6.184 -0.2374  1.4187 -1.1135
  581MOL0     H80121   1.555   6.641   6.267  1.6876  2.3731  0.2824
  581MOL0     H80122   1.443   6.560   6.168 -0.3244  0.3452 -1.5386
  581MOL0     H80123   1.681   6.494   6.117  1.2213 -0.1385 -1.8270
  581MOL0     H80124   1.729   6.652   6.071  0.6262  0.2290 -0.1853
  581MOL0     H80125   1.596   6.676   5.879  1.5005  0.2815 -0.3787
  581MOL0     H80126   1.713   6.547   5.875 -0.8794 -1.1693 -1.7127
  581MOL0     H80127   1.528   6.506   5.665  3.0639 -0.2123  1.2588
  581MOL0     H80128   1.356   6.362   5.539 -1.3968 -1.3810 -1.0001
  581MOL0     H80129   1.242   6.266   5.647 -0.3648  2.1040  0.2217
  581MOL0     H80130   1.414   6.110   5.689  1.5161  1.2673  0.7881
  581MOL0     H80131   1.357   6.106   5.517  1.8163  0.2341 -0.5862
  581MOL0     H80132   1.616   6.206   5.638 -0.1938 -1.4213  1.9917
  581MOL0     H80133   1.587   6.067   5.533 -0.0899  1.1613 -2.5528
  581MOL0     H80134   1.475   6.242   5.366  0.6424  3.0237 -0.8163
  581MOL0     H80135   1.584   6.356   5.445 -2.3954 -0.3425  1.5252
  581MOL0     H80136   1.863   6.052   5.412 -0.8231 -0.2853 -3.0048
  581MOL0     H80137   2.069   6.005   5.489  2.2180  0.4548 -0.0507
  581MOL0     H80138   2.133   6.131   5.596 -2.5966  1.4163  0.4795
  581MOL0     H80139   2.201   6.102   5.430  1.0878 -0.7417  1.3695
  581MOL0     H80140   2.406   6.524   5.595 -1.5210 -1.6298 -0.7658
  581MOL0     H80141   2.648   6.569   5.606 -2.6437  1.8303 -2.2656
  581MOL0     H80142   3.039   6.400   5.433 -0.9775 -1.4183  3.0215
  581MOL0     H80143   2.925   6.307   5.338  1.7609 -0.8000  0.8937
  581MOL0     H80144   2.819   6.536   5.255 -0.4589  0.2530 -1.2802
  581MOL0     H80145   2.961   6.606   5.330  1.7707  0.1075 -0.1046
  581MOL0     H80146   2.951   6.542   5.070 -1.6439  0.5624  0.4177
  581MOL0     H80147   3.008   6.384   5.137 -0.8058  0.5539  1.8696
  581MOL0     H80148   3.186   6.483   5.244  0.6478 -0.0834 -0.2263
  581MOL0     H80149   3.144   6.646   5.188  0.7097 -0.0119 -1.5300
  581MOL0     H80150   3.193   6.575   4.965  0.4996 -0.0760  0.0448
  581MOL0     H80151   3.325   6.552   5.084  0.8781  1.0881 -2.9509
  581MOL0     H80152   3.163   6.332   4.956 -0.5413  2.1675 -1.5218
  581MOL0     H80153   3.281   6.305   5.091 -0.0768 -2.1199 -0.2976
  581MOL0     H80154   3.456   6.420   4.955  0.3025 -2.5794  2.7273
  581MOL0     H80155   3.348   6.423   4.808  0.3040  0.0215  0.2418
  581MOL0     H80156   3.324   6.168   4.844  0.6914 -1.5113 -1.3876
  581MOL0     H80157   3.440   6.187   4.976 -2.5706  2.6315  2.1298
  581MOL0     H80158   2.701   6.259   5.307 -1.3693  0.8005 -1.4569
  581MOL0     H80159   2.474   6.204   5.321 -0.3895 -0.1930 -0.2886
  581MOL0     H80160   1.986   6.539   5.385  1.2275  0.0360  2.3276
  581MOL0     H80161   1.747   6.448   5.326 -0.7449  0.1270  0.6921
  581MOL0     H80162   1.837   7.346   5.917 -2.7683 -0.1857 -1.6581
  581MOL0     H80163   1.952   7.391   5.697  1.7951 -0.6147  0.8190
  581MOL0     H80164   1.825   7.205   5.177 -0.7272 -0.2243 -3.2930
  581MOL0     H80165   1.886   7.297   4.965 -1.0512  0.0645  0.4542
  581MOL0     H80166   1.997   7.312   4.755 -1.6174 -1.6314  4.7936
  581MOL0     H80167   1.964   7.470   4.807  1.8275  1.9167  0.5026
  581MOL0     H80168   2.142   7.575   4.693 -1.7051 -0.0270  0.5043
  581MOL0     H80169   2.072   7.474   4.576 -1.7664 -0.7591 -0.1053
  581MOL0     H80170   2.318   7.454   4.575 -0.9535  1.5176  0.3238
  581MOL0     H80171   2.323   7.444   4.746  0.5585  0.1059 -0.4510
  581MOL0     H80172   2.236   7.206   4.735 -1.6407 -1.4733 -1.3910
  581MOL0     H80173   2.383   7.232   4.647  0.9585  2.7029 -1.7407
  581MOL0     H80174   2.129   7.114   4.330  2.5230  0.8508 -0.8424
  581MOL0     H80175   2.283   7.340   5.108  0.3985  3.6148  1.1631
  581MOL0     H80176   2.257   7.301   5.413 -0.4072  1.0512 -0.5152
  581MOL0     H80177   2.229   7.126   5.382 -0.3659  0.2605  0.1095
  581MOL0     H80178   2.353   7.218   5.287  0.3563  1.1284  1.1940
  582MOL0     O80179   7.554  11.112  10.213 -0.3288 -0.1301 -0.6101
  582MOL0     C80180   7.603  11.155  10.314 -1.0630  0.0858  0.3595
  582MOL0     O80181   7.545  11.239  10.404 -0.3972 -0.2258 -0.5206
  582MOL0     C80182   7.410  11.260  10.386 -0.0881 -0.4498 -1.4253
  582MOL0     C80183   7.375  11.382  10.328  0.1255  0.1742 -0.3205
  582MOL0     C80184   7.234  11.393  10.301 -0.3995 -1.1301 -0.3025
  582MOL0     C80185   7.148  11.284  10.317  0.2204 -0.0518  0.7979
  582MOL0     O80186   7.018  11.293  10.283  0.2695 -0.1702  0.0714
  582MOL0     C80187   6.980  11.343  10.149 -0.6606 -0.9097  0.0542
  582MOL0     C80188   6.843  11.304  10.094  0.3654  0.1864 -0.2485
  582MOL0     C80189   6.825  11.162  10.055 -0.1456 -0.1518 -0.1898
  582MOL0     C80190   6.818  11.064  10.160 -0.2178 -0.3061 -0.5313
  582MOL0     C80191   6.676  11.068  10.229 -0.8494 -0.4619 -0.6050
  582MOL0     C80192   6.647  10.930  10.286 -0.0647  0.2404  0.3697
  582MOL0     C80193   6.512  10.927  10.349  0.0887 -0.0718 -0.2551
  582MOL0     C80194   6.506  10.823  10.464  0.1258  0.1085  0.2793
  582MOL0     N80195   6.517  10.680  10.435  0.3954  0.4418 -0.1842
  582MOL0     C80196   6.502  10.616  10.316 -0.6334 -0.9284  0.2194
  582MOL0     C80197   6.530  10.490  10.341  0.1070  0.0668  0.4446
  582MOL0     C80198   6.549  10.378  10.238  0.4508 -0.6975 -0.1496
  582MOL0     C80199   6.418  10.342  10.168 -0.1915  0.3357  0.1111
  582MOL0     C80200   6.328  10.266  10.269 -0.0083  0.4813 -0.4927
  582MOL0     C80201   6.189  10.248  10.231  0.0530 -0.4165 -0.0384
  582MOL0     O80202   6.189  10.196  10.101 -0.6359  0.2553  0.7537
  582MOL0     C80203   6.067  10.150  10.052 -0.3961 -0.8469 -0.4755
  582MOL0     C80204   6.061  10.064   9.946  0.5846 -0.6630  0.5154
  582MOL0     C80205   5.936  10.012   9.902  0.3438 -0.0851  0.2184
  582MOL0     C80206   5.953   9.894   9.804  0.2577  0.8506  0.2863
  582MOL0     C80207   5.815  10.057   9.957  0.5406 -0.1907  0.3411
  582MOL0     C80208   5.683   9.996   9.930 -0.7249 -0.9482 -0.2651
  582MOL0     O80209   5.586  10.078   9.981  0.5199 -0.2912  0.4793
  582MOL0     C80210   5.471  10.019   9.954  0.6077  0.0850 -0.4765
  582MOL0     C80211   5.417  10.027   9.823 -1.3332 -0.2370  0.0761
  582MOL0     C80212   5.287   9.986   9.804 -0.4021  0.9606 -0.8237
  582MOL0     C80213   5.215   9.933   9.913  0.1993 -0.0761  1.1452
  582MOL0     O80214   5.086   9.889   9.896  0.5262  0.5018  0.0964
  582MOL0     C80215   5.048   9.753   9.939 -0.6125  0.0179  0.1007
  582MOL0     C80216   4.922   9.717   9.853  0.2339  0.2980  0.0164
  582MOL0     C80217   4.957   9.680   9.711  0.4715  0.4285 -0.5211
  582MOL0     C80218   5.011   9.539   9.688  0.8061  0.3683  0.0218
  582MOL0     C80219   5.056   9.519   9.538  0.0040 -0.3302 -0.6536
  582MOL0     C80220   5.069   9.367   9.513  0.0449  0.4855  1.1484
  582MOL0     C80221   5.104   9.339   9.357  0.5263  0.0344 -0.5128
  582MOL0     C80222   4.996   9.371   9.256  1.0438 -0.7832  0.4011
  582MOL0    Cl80223   5.076   9.374   9.103 -0.0262 -0.0763 -0.0138
  582MOL0     C80224   5.271   9.921  10.036 -0.0943  0.5351  0.0389
  582MOL0     C80225   5.401   9.978  10.060  1.2763 -0.3277 -0.8863
  582MOL0     O80226   5.676   9.901   9.855 -0.2163  0.0492 -0.2603
  582MOL0     C80227   5.824  10.156  10.062 -0.5935  0.3145 -0.1300
  582MOL0     C80228   5.952  10.202  10.105  0.2080 -0.5220  0.0809
  582MOL0     N80229   6.555  10.478  10.471  0.0010 -0.3423 -0.3352
  582MOL0     N80230   6.557  10.594  10.528 -0.1658 -0.3515 -0.2758
  582MOL0     C80231   7.193  11.164  10.371  0.9792  0.1010 -0.1019
  582MOL0     C80232   7.325  11.152  10.418  0.7529  0.3558  0.9527
  582MOL0     C80233   7.753  11.134  10.348 -0.3905  0.5645 -0.4760
  582MOL0     C80234   7.797  11.185  10.471 -0.5284 -0.5026  0.0690
  582MOL0     C80235   7.935  11.181  10.514 -0.4553  0.4069  0.5156
  582MOL0     C80236   8.030  11.126  10.431  0.0603  0.4987 -0.5452
  582MOL0     O80237   8.154  11.098  10.483 -0.3574  0.3982 -0.0175
  582MOL0     C80238   8.266  11.108  10.393  0.8155  0.3937  0.1811
  582MOL0     C80239   8.399  11.109  10.465  0.2290  0.1033 -0.5131
  582MOL0     C80240   8.517  11.156  10.376  0.4357  0.6327  0.4501
  582MOL0     C80241   8.646  11.155  10.456 -0.1307 -0.4158 -0.3330
  582MOL0     C80242   8.645  11.207  10.589  0.1960  0.0943 -0.1405
  582MOL0     C80243   8.640  11.244  10.696  1.0371 -0.2374 -0.0822
  582MOL0     C80244   7.987  11.074  10.303 -0.7040  0.0523  0.7202
  582MOL0     C80245   7.851  11.078  10.259 -0.2173 -0.7938  0.4248
  582MOL0     C80246   7.829  11.039  10.116 -1.1276 -0.0942  0.1653
  582MOL0     H80247   7.456  11.451  10.304 -1.2415  3.0884  2.6633
  582MOL0     H80248   7.202  11.483  10.250 -0.1304 -1.4183 -0.9965
  582MOL0     H80249   7.060  11.325  10.077 -0.5888  2.5714 -0.9279
  582MOL0     H80250   6.968  11.452  10.152 -0.7374 -0.9066 -0.3689
  582MOL0     H80251   6.762  11.327  10.164  2.7699  2.0029  2.1555
  582MOL0     H80252   6.824  11.361  10.003  0.4124 -0.2702 -0.5466
  582MOL0     H80253   6.734  11.157   9.995 -1.5263 -0.8485  1.8588
  582MOL0     H80254   6.904  11.136   9.984 -0.4206 -4.0283  0.6847
  582MOL0     H80255   6.837  10.967  10.112 -0.4968 -0.4528 -0.3417
  582MOL0     H80256   6.894  11.076  10.238 -1.1688  0.3070  0.3185
  582MOL0     H80257   6.597  11.100  10.160 -0.0568  2.9029 -0.1485
  582MOL0     H80258   6.683  11.141  10.311  2.3203  2.0345 -2.8306
  582MOL0     H80259   6.657  10.866  10.198 -0.3207 -0.1499  0.6253
  582MOL0     H80260   6.713  10.894  10.365  0.2863 -0.9873 -0.4613
  582MOL0     H80261   6.423  10.932  10.285  0.4465 -1.2511 -0.8717
  582MOL0     H80262   6.525  11.020  10.406  2.5406 -0.7770  0.4374
  582MOL0     H80263   6.581  10.844  10.541  2.5576 -0.9523 -1.6595
  582MOL0     H80264   6.416  10.842  10.524  0.8232  0.7206  1.1561
  582MOL0     H80265   6.493  10.668  10.221 -2.4042 -1.9995 -0.2361
  582MOL0     H80266   6.585  10.291  10.293 -0.1773 -0.7200  0.2359
  582MOL0     H80267   6.626  10.411  10.167  0.7929 -0.1121  0.4785
  582MOL0     H80268   6.364  10.426  10.124  2.1579 -0.2766 -4.5379
  582MOL0     H80269   6.438  10.280  10.080 -1.9472  3.3083 -2.5992
  582MOL0     H80270   6.367  10.163  10.271  1.6031  1.0454 -1.0667
  582MOL0     H80271   6.333  10.304  10.371  0.3614 -1.1921  0.1573
  582MOL0     H80272   6.134  10.185  10.301 -2.8595  0.3214 -1.4747
  582MOL0     H80273   6.145  10.348  10.243 -1.5129 -1.3860  3.6571
  582MOL0     H80274   6.155  10.026   9.907  0.9814 -0.5140  1.3065
  582MOL0     H80275   5.942   9.794   9.848 -1.2187  0.0891 -1.7115
  582MOL0     H80276   6.053   9.889   9.760  1.0496  0.0221  2.0612
  582MOL0     H80277   5.872   9.904   9.732 -2.8138 -2.4448  2.8749
  582MOL0     H80278   5.488  10.068   9.752 -2.5526  0.7583 -0.5985
  582MOL0     H80279   5.247   9.985   9.703 -1.0070 -1.0897 -0.6188
  582MOL0     H80280   5.128   9.680   9.921 -0.7184  0.0640 -0.5918
  582MOL0     H80281   5.020   9.758  10.044  0.4014 -0.7744  0.4258
  582MOL0     H80282   4.877   9.630   9.902  0.4529  0.3524  0.3163
  582MOL0     H80283   4.850   9.799   9.843  1.9519  1.6883 -1.4557
  582MOL0     H80284   5.027   9.750   9.666  0.3498  0.2472 -0.9969
  582MOL0     H80285   4.870   9.683   9.644 -0.2555  0.1665  0.3933
  582MOL0     H80286   4.932   9.467   9.711 -0.3017  1.7056  0.4987
  582MOL0     H80287   5.106   9.520   9.740  1.7149  1.9180 -0.9816
  582MOL0     H80288   4.975   9.558   9.476 -0.5403 -1.6506 -0.8186
  582MOL0     H80289   5.151   9.570   9.520  0.5933 -1.3290 -0.4490
  582MOL0     H80290   4.974   9.316   9.533  1.1264 -1.0014  2.6932
  582MOL0     H80291   5.147   9.318   9.571  1.8225 -1.4261 -2.4919
  582MOL0     H80292   5.119   9.234   9.330 -1.9480  0.1829 -2.9207
  582MOL0     H80293   5.195   9.399   9.347 -2.1738  4.9244  0.5920
  582MOL0     H80294   4.943   9.467   9.269  3.4623  1.2713 -3.1481
  582MOL0     H80295   4.922   9.292   9.268  1.0512 -0.7603  0.5961
  582MOL0     H80296   5.230   9.877  10.126  2.9207 -1.8489  0.4117
  582MOL0     H80297   5.442   9.993  10.159 -1.2065 -0.1486  0.2061
  582MOL0     H80298   5.734  10.173  10.121 -1.6462 -2.5708 -0.7152
  582MOL0     H80299   5.944  10.284  10.176  0.5982 -3.0680  3.3531
  582MOL0     H80300   7.128  11.077  10.378  2.0308 -0.5470  5.0295
  582MOL0     H80301   7.359  11.052  10.443 -0.9903 -0.3992  0.4378
  582MOL0     H80302   7.736  11.241  10.541  0.6741  0.4948  0.3503
  582MOL0     H80303   7.963  11.223  10.610 -4.8976  2.0226  1.3189
  582MOL0     H80304   8.272  11.015  10.336 -0.0690  0.3548  0.1408
  582MOL0     H80305   8.263  11.192  10.323  0.6372 -2.5574 -3.6911
  582MOL0     H80306   8.427  11.012  10.508 -2.3341 -1.4357 -2.0807
  582MOL0     H80307   8.385  11.177  10.550  1.5356 -0.1522 -0.0619
  582MOL0     H80308   8.522  11.103  10.281 -0.3920  1.8617 -0.3064
  582MOL0     H80309   8.500  11.260  10.346  2.8735  1.9009  2.9884
  582MOL0     H80310   8.728  11.208  10.406 -0.6864 -0.0713 -0.8917
  582MOL0     H80311   8.665  11.049  10.471 -0.0861 -0.2645  0.7555
  582MOL0     H80312   8.634  11.268  10.800  0.3678  1.0482 -0.3977
  582MOL0     H80313   8.056  11.021  10.238  0.0515  1.2310  0.5414
  582MOL0     H80314   7.901  10.964  10.080 -1.4936  0.1930 -1.2152
  582MOL0     H80315   7.729  10.996  10.109 -1.1419 -0.2842  1.3233
  582MOL0     H80316   7.848  11.129  10.057 -1.2790  0.2404  0.6206
  583MOL0     O80317  10.585  10.765   2.787 -0.1576  0.1534 -0.1803
  583MOL0     C80318  10.559  10.851   2.701 -0.4164  0.7600 -0.4776
  583MOL0     O80319  10.620  10.970   2.698 -0.2804 -0.2777  0.0693
  583MOL0     C80320  10.688  11.016   2.809  0.1935 -0.3894  0.6435
  583MOL0     C80321  10.635  11.005   2.939  0.0004 -0.1973 -0.1445
  583MOL0     C80322  10.696  11.072   3.049 -0.1941  0.8774  0.2356
  583MOL0     C80323  10.808  11.162   3.027 -0.5892 -0.0649  0.2475
  583MOL0     O80324  10.860  11.242   3.130  0.0554  0.2947  0.7108
  583MOL0     C80325  10.990  11.298   3.121 -0.1448  0.9712 -1.0699
  583MOL0     C80326  10.978  11.443   3.092  0.0992 -0.6862  0.8482
  583MOL0     C80327  11.101  11.528   3.149 -0.6397  0.7541  0.2584
  583MOL0     C80328  11.076  11.677   3.115 -0.1732  0.9838 -0.0500
  583MOL0     C80329  11.145  11.777   3.214 -0.2215  0.0691  0.7860
  583MOL0     C80330  11.131  11.927   3.171 -0.3991  1.2557 -0.0722
  583MOL0     C80331  11.242  12.025   3.225  0.0772 -0.5100 -0.9694
  583MOL0     C80332  11.377  12.028   3.154  0.3402 -0.0482  0.5443
  583MOL0     N80333  11.436  11.895   3.120  0.8233  0.5050  0.8875
  583MOL0     C80334  11.544  11.842   3.179 -0.5649  0.2476  0.3862
  583MOL0     C80335  11.575  11.730   3.115 -0.4281  0.1190  0.7251
  583MOL0     C80336  11.691  11.641   3.140 -1.1127  0.9645  0.0006
  583MOL0     C80337  11.651  11.526   3.233  0.3075 -0.6801  0.2313
  583MOL0     C80338  11.752  11.403   3.222  0.6179 -0.4289 -0.3280
  583MOL0     C80339  11.771  11.333   3.093 -0.1853 -0.5509 -0.5148
  583MOL0     O80340  11.822  11.200   3.106  0.4250  0.2416 -0.9741
  583MOL0     C80341  11.858  11.128   2.983 -0.3695 -0.8196  0.3003
  583MOL0     C80342  11.998  11.093   2.965  0.3077 -0.6960 -0.5853
  583MOL0     C80343  12.034  11.004   2.862 -0.5160 -0.6233  0.3267
  583MOL0     C80344  12.185  10.981   2.847  0.5746 -0.1270 -0.3809
  583MOL0     C80345  11.931  10.950   2.771  0.4252  0.9367  0.2453
  583MOL0     C80346  11.955  10.857   2.656  0.2322  0.0318 -0.2119
  583MOL0     O80347  11.849  10.781   2.609  0.3507  0.1431 -0.5836
  583MOL0     C80348  11.872  10.698   2.505  0.4923  0.5198  0.4181
  583MOL0     C80349  11.892  10.563   2.528 -0.1270  0.4589 -0.1837
  583MOL0     C80350  11.912  10.475   2.422 -0.8786  0.1698 -0.9259
  583MOL0     C80351  11.924  10.520   2.299  1.0465 -0.0086  0.3610
  583MOL0     O80352  11.955  10.428   2.198  0.3639 -0.1011  0.4093
  583MOL0     C80353  11.986  10.482   2.065 -0.2977  0.7851 -0.1684
  583MOL0     C80354  12.081  10.382   2.004 -0.6694  0.5864 -0.5336
  583MOL0     C80355  12.209  10.375   2.080  0.0193  0.7190 -0.2378
  583MOL0     C80356  12.317  10.333   1.991  0.5104  0.5994 -1.0072
  583MOL0     C80357  12.449  10.391   2.038  1.0649  0.4050 -0.7473
  583MOL0     C80358  12.476  10.524   1.976 -0.2882 -0.0196  0.2267
  583MOL0     C80359  12.600  10.592   2.022 -0.2596 -1.1539  0.6530
  583MOL0     C80360  12.644  10.719   1.933  0.4094 -0.6555 -0.4270
  583MOL0    Cl80361  12.806  10.772   1.988 -0.1968  0.3996 -0.0385
  583MOL0     C80362  11.907  10.658   2.272 -0.2889  0.0657  0.1569
  583MOL0     C80363  11.884  10.749   2.378 -0.4404  0.6593  0.4165
  583MOL0     O80364  12.068  10.864   2.604  0.1256  0.1840 -0.4324
  583MOL0     C80365  11.794  10.996   2.787  0.1995 -0.3536 -0.6272
  583MOL0     C80366  11.756  11.088   2.887 -0.1834  0.1463 -0.5327
  583MOL0     N80367  11.480  11.723   3.018  0.6471 -0.4237  0.5808
  583MOL0     N80368  11.404  11.832   3.012  0.1062 -0.4295  0.5719
  583MOL0     C80369  10.856  11.178   2.895  0.3053 -0.4657 -0.7936
  583MOL0     C80370  10.795  11.106   2.789  0.4838 -1.0121  0.0779
  583MOL0     C80371  10.482  10.800   2.583  0.0598  0.1740 -0.6778
  583MOL0     C80372  10.514  10.855   2.454  0.3377  0.2889 -0.3743
  583MOL0     C80373  10.466  10.791   2.337  0.5853  0.5277 -0.5395
  583MOL0     C80374  10.382  10.677   2.342 -0.3170 -0.7150  0.8170
  583MOL0     O80375  10.345  10.607   2.232  0.7894  0.3500 -0.3252
  583MOL0     C80376  10.347  10.664   2.098 -0.8974  0.4751 -0.2242
  583MOL0     C80377  10.225  10.754   2.081  0.2033 -0.2130 -0.0293
  583MOL0     C80378  10.212  10.806   1.936  0.3597 -0.1037 -0.3971
  583MOL0     C80379  10.330  10.895   1.876 -0.1714 -0.4402  0.0087
  583MOL0     C80380  10.360  11.009   1.958 -0.1267 -0.0094 -0.4677
  583MOL0     C80381  10.369  11.101   2.040 -0.2660 -0.0878  0.0049
  583MOL0     C80382  10.355  10.628   2.473 -0.4005 -0.3396 -0.1844
  583MOL0     C80383  10.401  10.682   2.597  0.0773  0.0514 -0.2042
  583MOL0     C80384  10.355  10.623   2.734  0.2870  0.2873 -0.0064
  583MOL0     H80385  10.545  10.945   2.951 -0.0780 -0.4198 -1.6734
  583MOL0     H80386  10.666  11.057   3.152  0.2841  1.0419  0.4005
  583MOL0     H80387  11.048  11.241   3.048 -1.2898 -1.7981  0.0202
  583MOL0     H80388  11.047  11.288   3.214 -1.4270  1.4131 -0.2022
  583MOL0     H80389  10.964  11.459   2.985  3.8953  1.4280  0.4731
  583MOL0     H80390  10.889  11.482   3.142  0.2522  0.8328  0.0258
  583MOL0     H80391  11.095  11.513   3.257  0.0136 -0.3612  0.1430
  583MOL0     H80392  11.192  11.500   3.096  0.2845  4.9774 -0.7774
  583MOL0     H80393  11.116  11.704   3.017 -1.0585  1.5015 -0.2802
  583MOL0     H80394  10.970  11.705   3.124 -0.4212 -0.0435  0.3830
  583MOL0     H80395  11.253  11.762   3.214 -0.1234  0.1654 -2.1541
  583MOL0     H80396  11.115  11.760   3.317 -0.1008 -0.1889  0.7802
  583MOL0     H80397  11.145  11.933   3.063  1.0672 -0.2579 -0.0163
  583MOL0     H80398  11.032  11.961   3.202 -0.8203 -1.7430  2.3802
  583MOL0     H80399  11.258  12.012   3.332 -0.2277  1.3534 -0.6530
  583MOL0     H80400  11.196  12.124   3.222 -3.2039 -1.9138 -0.8802
  583MOL0     H80401  11.362  12.093   3.067 -1.0233  0.1227  0.8820
  583MOL0     H80402  11.445  12.084   3.218 -2.0602 -0.6768  3.8822
  583MOL0     H80403  11.606  11.889   3.255  0.2523 -1.6016  0.9266
  583MOL0     H80404  11.775  11.689   3.192  0.4591 -1.7980  0.2245
  583MOL0     H80405  11.736  11.610   3.046  0.6614  0.9363  0.8171
  583MOL0     H80406  11.669  11.572   3.330 -1.7369 -0.1521  0.3877
  583MOL0     H80407  11.547  11.493   3.225  1.4728 -4.3682 -2.4890
  583MOL0     H80408  11.852  11.434   3.253  1.4239 -2.8449 -0.3093
  583MOL0     H80409  11.728  11.328   3.298  0.2592  0.8874  0.8925
  583MOL0     H80410  11.676  11.339   3.039 -1.7789 -0.4566  2.1254
  583MOL0     H80411  11.850  11.388   3.041  1.2136 -1.6220  0.4084
  583MOL0     H80412  12.076  11.129   3.031 -0.9624  1.7605 -0.3162
  583MOL0     H80413  12.215  10.876   2.845  0.5566 -0.2274  1.6520
  583MOL0     H80414  12.240  11.020   2.933 -1.3154 -1.5115  1.5820
  583MOL0     H80415  12.222  11.032   2.758  3.3345 -2.0229 -0.4576
  583MOL0     H80416  11.882  10.536   2.632 -0.8550  1.7658  0.1113
  583MOL0     H80417  11.929  10.371   2.448  0.2590  0.8153  1.1004
  583MOL0     H80418  11.901  10.503   2.000 -0.5402  0.4323  0.0302
  583MOL0     H80419  12.053  10.567   2.082  1.8074 -0.7975 -0.1173
  583MOL0     H80420  12.027  10.287   1.991 -0.3886  0.5772 -1.7004
  583MOL0     H80421  12.096  10.423   1.904 -0.8552  0.8118 -0.4717
  583MOL0     H80422  12.198  10.297   2.156  1.8793  0.3904 -0.2716
  583MOL0     H80423  12.235  10.469   2.130 -0.8306  0.9414 -0.1881
  583MOL0     H80424  12.301  10.357   1.886  0.8080 -2.5261 -1.8795
  583MOL0     H80425  12.325  10.224   1.994  0.1077  0.5876 -0.0549
  583MOL0     H80426  12.456  10.395   2.147  1.4607  2.2334 -0.8123
  583MOL0     H80427  12.528  10.316   2.019  0.6642 -0.1972 -0.0949
  583MOL0     H80428  12.404  10.601   2.005 -1.4674  0.0960 -2.6636
  583MOL0     H80429  12.463  10.508   1.868 -0.8568  0.5270  0.2109
  583MOL0     H80430  12.682  10.520   2.028  0.5914 -0.2203  0.4966
  583MOL0     H80431  12.583  10.632   2.122  3.5063 -1.2180  1.4665
  583MOL0     H80432  12.573  10.801   1.947  0.3424 -0.3178 -2.5000
  583MOL0     H80433  12.656  10.697   1.827  0.6017 -0.2181 -0.4979
  583MOL0     H80434  11.921  10.711   2.179 -0.6336  0.5350  0.3656
  583MOL0     H80435  11.891  10.856   2.360  3.1017  0.2722 -1.3111
  583MOL0     H80436  11.700  10.967   2.742  1.1942 -0.6379 -2.6079
  583MOL0     H80437  11.651  11.106   2.906 -0.1429 -0.9484  0.9328
  583MOL0     H80438  10.946  11.231   2.865  0.2729 -0.5256 -0.9942
  583MOL0     H80439  10.815  11.115   2.683  0.6494 -0.2428  0.1730
  583MOL0     H80440  10.569  10.948   2.457  0.7731  0.0921 -1.5760
  583MOL0     H80441  10.501  10.841   2.248  2.1474  0.7922  0.1925
  583MOL0     H80442  10.441  10.717   2.079  0.1647 -1.2750 -0.0829
  583MOL0     H80443  10.341  10.575   2.035 -1.1136 -2.4812  3.6228
  583MOL0     H80444  10.235  10.833   2.156  2.6251 -2.0117  1.7098
  583MOL0     H80445  10.142  10.687   2.105 -0.0801  0.4158  0.7652
  583MOL0     H80446  10.197  10.713   1.881 -2.3657 -1.9017  2.9276
  583MOL0     H80447  10.115  10.856   1.927  0.4275 -0.0866 -1.0452
  583MOL0     H80448  10.307  10.931   1.775  0.6808  0.0997 -0.0098
  583MOL0     H80449  10.428  10.851   1.859  0.7610  1.4242  0.2496
  583MOL0     H80450  10.366  11.187   2.105 -0.5792  0.1603 -0.3302
  583MOL0     H80451  10.292  10.540   2.480 -1.4166  0.4538  1.1433
  583MOL0     H80452  10.414  10.544   2.781  0.1775 -0.2482 -0.7479
  583MOL0     H80453  10.336  10.703   2.806  0.5636  2.8620 -2.6442
  583MOL0     H80454  10.259  10.573   2.717  1.2854 -2.0567  0.7988
  584MOL0     O80455  10.387   0.890   9.075 -0.0261  1.0304 -0.2393
  584MOL0     C80456  10.426   0.828   8.984 -0.1954  0.1583 -0.2266
  584MOL0     O80457  10.351   0.740   8.916  0.2505  0.1809  0.0295
  584MOL0     C80458  10.230   0.707   8.955 -0.8263  0.1374 -0.2757
  584MOL0     C80459  10.184   0.699   9.089 -0.2722  0.1436 -0.0991
  584MOL0     C80460  10.050   0.673   9.116  0.9651 -0.0934 -0.3320
  584MOL0     C80461   9.953   0.652   9.016 -0.1056 -0.3087 -0.1492
  584MOL0     O80462   9.826   0.617   9.052 -0.8610  0.1519  0.0579
  584MOL0     C80463   9.713   0.689   9.014  0.0915 -0.2218 -0.2309
  584MOL0     C80464   9.594   0.684   9.111  0.0717  1.0540  0.4818
  584MOL0     C80465   9.619   0.793   9.213  0.7321  0.1748 -0.0369
  584MOL0     C80466   9.514   0.811   9.328  0.1072  1.1860  0.0703
  584MOL0     C80467   9.534   0.941   9.393  0.7518  0.2454  0.2876
  584MOL0     C80468   9.447   0.965   9.510  0.0000  0.7571 -0.5841
  584MOL0     C80469   9.301   1.001   9.485  0.6308  0.1429 -1.0718
  584MOL0     C80470   9.224   1.042   9.618  0.0132  0.9995 -0.1477
  584MOL0     N80471   9.091   1.080   9.595 -0.5834  0.7934 -0.1638
  584MOL0     C80472   9.051   1.181   9.519 -0.7160  0.3903 -0.2480
  584MOL0     C80473   8.917   1.177   9.510  0.5016 -0.2239  0.6457
  584MOL0     C80474   8.826   1.237   9.401 -0.7230 -0.0959  0.1989
  584MOL0     C80475   8.707   1.308   9.466  0.3032 -0.0291  0.1260
  584MOL0     C80476   8.617   1.379   9.368 -0.0729 -0.9405 -1.0498
  584MOL0     C80477   8.499   1.439   9.441  0.1641  0.2169  0.1410
  584MOL0     O80478   8.403   1.507   9.357  0.7330 -0.0292  1.1380
  584MOL0     C80479   8.284   1.439   9.355 -0.3751 -0.2277  0.6148
  584MOL0     C80480   8.173   1.523   9.340  0.3017 -0.2896  0.6464
  584MOL0     C80481   8.037   1.481   9.326  0.3230 -0.1485 -0.6775
  584MOL0     C80482   7.935   1.591   9.323  0.3878  0.9514 -0.1109
  584MOL0     C80483   8.023   1.341   9.312  0.4821 -0.2509 -0.0879
  584MOL0     C80484   7.894   1.274   9.301  0.0778 -0.0657 -0.0698
  584MOL0     O80485   7.908   1.143   9.292 -0.0263  0.1039  0.0132
  584MOL0     C80486   7.804   1.049   9.278 -0.2090 -0.3042 -0.3458
  584MOL0     C80487   7.846   0.917   9.292 -0.3289  0.7347  0.5850
  584MOL0     C80488   7.757   0.812   9.264  0.0793 -0.7374  0.4303
  584MOL0     C80489   7.620   0.838   9.243 -0.3692  0.8779  0.1829
  584MOL0     O80490   7.527   0.734   9.226  0.4266  0.5735  0.8353
  584MOL0     C80491   7.391   0.767   9.228  0.4950 -0.2049 -0.3046
  584MOL0     C80492   7.317   0.647   9.277 -0.1696 -0.2021 -0.1691
  584MOL0     C80493   7.343   0.614   9.420 -0.5335  0.7183  0.1403
  584MOL0     C80494   7.274   0.472   9.448 -1.0016 -0.3121 -1.1730
  584MOL0     C80495   7.266   0.441   9.593 -0.3369 -0.5748  0.5144
  584MOL0     C80496   7.210   0.296   9.617 -0.0120 -0.4773  0.8401
  584MOL0     C80497   7.060   0.281   9.603  0.5336 -0.1211  0.3452
  584MOL0     C80498   7.014   0.149   9.661  0.1005  0.1423  0.3902
  584MOL0    Cl80499   6.841   0.135   9.624 -0.1530  0.6847  0.0790
  584MOL0     C80500   7.579   0.968   9.235 -0.1497  0.0756 -0.4163
  584MOL0     C80501   7.667   1.069   9.246  0.5322  0.6153  0.1406
  584MOL0     O80502   7.788   1.338   9.278 -0.3362  0.5825 -0.2953
  584MOL0     C80503   8.141   1.258   9.311 -0.2717 -0.1663  0.3119
  584MOL0     C80504   8.265   1.307   9.350 -1.4137  0.4831  0.5221
  584MOL0     N80505   8.878   1.073   9.583 -0.2215  0.5550 -0.4912
  584MOL0     N80506   8.982   1.019   9.639 -0.2083 -0.4183 -0.3736
  584MOL0     C80507   9.998   0.649   8.882 -0.9359  0.1471 -0.0291
  584MOL0     C80508  10.137   0.673   8.858  0.2166 -1.1233 -0.3102
  584MOL0     C80509  10.574   0.850   8.947  0.2357  0.6318 -0.2391
  584MOL0     C80510  10.641   0.964   8.990  0.9524  0.4034 -0.2205
  584MOL0     C80511  10.779   0.991   8.952  0.6976 -0.3242 -0.5075
  584MOL0     C80512  10.862   0.895   8.896  0.8320 -0.3592 -0.5910
  584MOL0     O80513  10.998   0.915   8.886 -0.0273 -0.1466 -0.2045
  584MOL0     C80514  11.070   0.846   8.774  0.4015 -0.8960 -0.4101
  584MOL0     C80515  11.212   0.893   8.762 -0.6809  0.3237 -0.8372
  584MOL0     C80516  11.231   1.045   8.782  0.1431  0.1335  0.2674
  584MOL0     C80517  11.380   1.082   8.766  1.4420 -0.0170  0.2286
  584MOL0     C80518  11.448   1.047   8.888  0.3274 -0.2421  0.2765
  584MOL0     C80519  11.496   0.983   8.981 -0.0982 -0.2979 -0.6058
  584MOL0     C80520  10.795   0.786   8.849  0.9175 -0.5300 -0.1441
  584MOL0     C80521  10.659   0.760   8.870  0.2226 -0.7069 -0.2400
  584MOL0     C80522  10.602   0.642   8.805 -0.7612 -0.1328  0.6075
  584MOL0     H80523  10.262   0.720   9.161 -1.0286  0.1644  0.7444
  584MOL0     H80524  10.018   0.667   9.220  1.0600  1.4649 -0.1867
  584MOL0     H80525   9.693   0.651   8.913  1.4443 -0.9301 -0.2509
  584MOL0     H80526   9.736   0.795   8.999  0.5534 -0.4350 -1.1286
  584MOL0     H80527   9.506   0.707   9.050  2.5196  0.3479 -3.7004
  584MOL0     H80528   9.591   0.584   9.157 -1.6723  0.6161 -0.4899
  584MOL0     H80529   9.717   0.774   9.259  1.5828  1.0396 -1.4035
  584MOL0     H80530   9.619   0.884   9.153  0.0342 -1.9851 -3.6238
  584MOL0     H80531   9.414   0.827   9.286 -1.2646  0.3517  2.8012
  584MOL0     H80532   9.516   0.727   9.397  2.3458  0.9408 -0.2385
  584MOL0     H80533   9.518   1.029   9.330  0.7591 -0.3533 -0.5648
  584MOL0     H80534   9.634   0.933   9.436 -0.2515 -1.8245  2.5366
  584MOL0     H80535   9.462   0.875   9.570  1.8625  1.2679 -0.2412
  584MOL0     H80536   9.489   1.055   9.558 -2.5481  1.9794 -0.4628
  584MOL0     H80537   9.258   0.911   9.439  0.5759 -0.3956 -0.0146
  584MOL0     H80538   9.299   1.082   9.412  0.0700 -1.3297 -2.7782
  584MOL0     H80539   9.232   0.952   9.681 -0.7607  0.9886 -0.0627
  584MOL0     H80540   9.279   1.120   9.671  0.6481 -1.5475  3.3303
  584MOL0     H80541   9.111   1.249   9.458 -1.3068 -0.6457 -2.0711
  584MOL0     H80542   8.785   1.162   9.333  2.8404 -0.9651 -1.1764
  584MOL0     H80543   8.882   1.307   9.339 -4.7482  0.6373 -3.1278
  584MOL0     H80544   8.659   1.231   9.528 -0.5470 -0.7376 -1.3586
  584MOL0     H80545   8.746   1.377   9.541  0.4467 -1.9589  1.9304
  584MOL0     H80546   8.667   1.457   9.309  2.3594  0.4154  2.4798
  584MOL0     H80547   8.586   1.295   9.304 -2.6287 -1.5238  0.7902
  584MOL0     H80548   8.460   1.358   9.504 -2.8856  1.9133  0.6575
  584MOL0     H80549   8.527   1.514   9.515  2.7631  1.3998 -1.9012
  584MOL0     H80550   8.200   1.628   9.344 -0.4802 -0.0999  1.1738
  584MOL0     H80551   7.872   1.588   9.234 -1.7981 -0.4192  1.3869
  584MOL0     H80552   7.987   1.687   9.331  0.0450  0.9784  2.8888
  584MOL0     H80553   7.861   1.583   9.403 -1.1952 -0.1443 -1.6219
  584MOL0     H80554   7.950   0.896   9.315 -0.1292  2.3500  1.3090
  584MOL0     H80555   7.779   0.706   9.258 -0.6886 -0.8310 -4.3729
  584MOL0     H80556   7.375   0.846   9.302 -2.0918  0.3073 -1.2897
  584MOL0     H80557   7.350   0.790   9.129  0.5755  0.6387 -0.1507
  584MOL0     H80558   7.209   0.653   9.259 -0.5002  3.1787  2.1905
  584MOL0     H80559   7.346   0.558   9.220 -0.2917 -1.2935  1.4062
  584MOL0     H80560   7.310   0.691   9.490 -0.5658 -0.8734  1.9477
  584MOL0     H80561   7.451   0.607   9.436 -0.2759  0.3763 -1.5205
  584MOL0     H80562   7.326   0.396   9.388  1.0255  0.4309 -0.4322
  584MOL0     H80563   7.171   0.485   9.411 -0.7157  0.8036 -1.6352
  584MOL0     H80564   7.370   0.442   9.627  0.6283 -0.3881 -2.1401
  584MOL0     H80565   7.195   0.510   9.638 -3.5308 -3.4111  0.2671
  584MOL0     H80566   7.237   0.278   9.721  1.4248  4.1157  1.4585
  584MOL0     H80567   7.256   0.223   9.548  0.5751  0.7756 -0.1290
  584MOL0     H80568   7.024   0.277   9.499 -1.0253 -1.0391  0.8799
  584MOL0     H80569   7.007   0.364   9.649  1.0709  0.7017 -0.4918
  584MOL0     H80570   7.029   0.148   9.770 -0.4213 -0.9503  0.4590
  584MOL0     H80571   7.070   0.062   9.624  0.8816  0.5818  0.4975
  584MOL0     H80572   7.480   1.002   9.208 -0.0654  0.9211  0.2847
  584MOL0     H80573   7.629   1.168   9.223  1.1974  0.3257 -2.4799
  584MOL0     H80574   8.133   1.150   9.296 -1.2929 -0.0629  0.0577
  584MOL0     H80575   8.345   1.236   9.368  0.4753  1.7174 -2.3026
  584MOL0     H80576   9.927   0.629   8.802 -1.4672  3.1547 -0.4146
  584MOL0     H80577  10.177   0.692   8.759  2.7835 -1.0491  0.6576
  584MOL0     H80578  10.576   1.045   9.023 -0.2213  0.4929 -2.5647
  584MOL0     H80579  10.810   1.085   8.997 -0.9170  1.2701 -2.5154
  584MOL0     H80580  11.068   0.738   8.789  3.2765 -0.7139  2.5186
  584MOL0     H80581  11.034   0.860   8.672  1.1269  0.8858 -0.4638
  584MOL0     H80582  11.252   0.861   8.665  2.5029 -0.9977  0.7484
  584MOL0     H80583  11.276   0.848   8.839 -0.8258 -0.4425 -1.1535
  584MOL0     H80584  11.175   1.098   8.705 -0.5522 -0.9398  0.0138
  584MOL0     H80585  11.200   1.077   8.881  2.4680  0.0395  1.0880
  584MOL0     H80586  11.399   1.189   8.765  0.0804  0.2441 -1.1247
  584MOL0     H80587  11.423   1.044   8.672  2.8564 -3.9124  2.2183
  584MOL0     H80588  11.545   0.940   9.065 -1.6677  1.1078  1.1160
  584MOL0     H80589  10.860   0.706   8.814  0.1413 -2.2130  2.0580
  584MOL0     H80590  10.547   0.595   8.887  1.4809 -1.0034  1.6872
  584MOL0     H80591  10.532   0.660   8.723 -1.1949  0.4704  1.1075
  584MOL0     H80592  10.678   0.574   8.765 -1.8486 -0.4537 -0.9907
  585MOL0     O80593  10.167   8.802   4.785 -0.7254  0.7337  0.1567
  585MOL0     C80594  10.139   8.919   4.776 -0.1976 -1.5100  0.0384
  585MOL0     O80595  10.233   9.022   4.757  0.2576 -0.2594  0.2691
  585MOL0     C80596  10.356   8.971   4.738 -1.0808  0.2233  0.1255
  585MOL0     C80597  10.438   8.933   4.852  0.3689 -0.6344  0.3611
  585MOL0     C80598  10.546   8.847   4.828  0.2575 -0.4666 -0.2969
  585MOL0     C80599  10.583   8.812   4.698  0.3710  0.1941 -0.2530
  585MOL0     O80600  10.696   8.746   4.660 -0.3512 -0.3843  0.4001
  585MOL0     C80601  10.761   8.648   4.748  0.0819 -0.2721  0.2699
  585MOL0     C80602  10.831   8.532   4.665 -0.6282  0.6919  0.5514
  585MOL0     C80603  10.939   8.449   4.738  0.0605 -0.1041 -1.0092
  585MOL0     C80604  10.956   8.320   4.665  1.0474 -0.8027  0.2224
  585MOL0     C80605  11.073   8.240   4.723  0.5221 -0.3970 -0.1995
  585MOL0     C80606  11.147   8.144   4.626 -0.1473  0.1993 -0.3739
  585MOL0     C80607  11.050   8.039   4.580 -0.8250 -0.0102 -0.1007
  585MOL0     C80608  11.070   7.995   4.434  0.2086 -0.0307  0.3738
  585MOL0     N80609  11.026   8.100   4.342  0.4609  0.4605  0.3209
  585MOL0     C80610  10.910   8.119   4.265  0.1186 -0.3474  1.2166
  585MOL0     C80611  10.940   8.185   4.157 -0.6208 -0.1926  0.8661
  585MOL0     C80612  10.862   8.226   4.034 -0.4816  0.2030 -0.2754
  585MOL0     C80613  10.779   8.116   3.972 -0.1231 -0.5507 -0.3605
  585MOL0     C80614  10.739   8.153   3.827 -0.7297  0.1141 -0.3071
  585MOL0     C80615  10.718   8.025   3.758 -0.2162  0.0460  0.3201
  585MOL0     O80616  10.671   8.062   3.625 -0.0110  0.5471  0.7075
  585MOL0     C80617  10.627   7.969   3.540 -0.8247  0.1642 -0.4487
  585MOL0     C80618  10.579   8.012   3.414 -0.2825 -0.3732  0.4729
  585MOL0     C80619  10.543   7.916   3.317 -1.0342 -0.4163  0.5125
  585MOL0     C80620  10.492   7.966   3.184 -0.8296 -0.1530 -0.1383
  585MOL0     C80621  10.552   7.771   3.351  0.3609 -0.0836  0.8876
  585MOL0     C80622  10.521   7.662   3.257 -0.3030 -0.2333  0.2371
  585MOL0     O80623  10.569   7.670   3.129  0.3832  0.4799  0.6783
  585MOL0     C80624  10.524   7.586   3.032 -0.0075  0.8371  0.0421
  585MOL0     C80625  10.443   7.619   2.917  0.4240  0.2846  0.2475
  585MOL0     C80626  10.369   7.527   2.839  0.6902 -0.6567 -0.1819
  585MOL0     C80627  10.401   7.386   2.864 -0.3349 -0.7830  0.0162
  585MOL0     O80628  10.338   7.293   2.782 -0.7391 -0.0713 -0.7329
  585MOL0     C80629  10.297   7.167   2.840  0.0779  0.0951 -0.5012
  585MOL0     C80630  10.216   7.089   2.739 -0.4563 -0.0214  0.3579
  585MOL0     C80631  10.188   6.943   2.787  0.1068  0.0255  0.6314
  585MOL0     C80632  10.044   6.909   2.759 -0.2051 -0.4056 -0.7761
  585MOL0     C80633  10.027   6.899   2.608 -0.1234 -1.3317 -0.2766
  585MOL0     C80634   9.876   6.879   2.568 -0.7478  0.8703  0.1956
  585MOL0     C80635   9.830   6.738   2.604  0.0543  0.2331 -0.1964
  585MOL0     C80636   9.703   6.688   2.527 -0.4083  0.4322 -0.3120
  585MOL0    Cl80637   9.662   6.755   2.371  0.0444 -0.3502 -0.3335
  585MOL0     C80638  10.504   7.349   2.955 -0.3078 -0.6322  0.0838
  585MOL0     C80639  10.556   7.450   3.047  0.4333  0.4191  1.6918
  585MOL0     O80640  10.460   7.564   3.303 -0.2554  0.2100  0.5405
  585MOL0     C80641  10.589   7.738   3.478 -0.6368  0.0747 -0.1118
  585MOL0     C80642  10.633   7.836   3.568  0.2980  0.4908 -0.1329
  585MOL0     N80643  11.078   8.221   4.175  0.7715 -0.7363 -0.1527
  585MOL0     N80644  11.127   8.177   4.283  0.7761 -0.0348 -0.4021
  585MOL0     C80645  10.510   8.868   4.590  0.3702  0.0655 -0.0461
  585MOL0     C80646  10.396   8.942   4.606 -0.4767 -0.6344 -0.3779
  585MOL0     C80647  10.002   8.965   4.771 -0.4823 -0.1627 -0.3082
  585MOL0     C80648   9.984   9.098   4.727  0.3947  0.0362 -0.2389
  585MOL0     C80649   9.857   9.159   4.732  0.2580 -0.8391  0.7123
  585MOL0     C80650   9.742   9.093   4.778 -0.0620 -0.2262  0.7238
  585MOL0     O80651   9.627   9.167   4.765  0.8852  0.1579  0.7459
  585MOL0     C80652   9.521   9.106   4.834  0.4598 -0.0240 -0.2874
  585MOL0     C80653   9.399   9.195   4.826  0.8467  1.2138  0.2103
  585MOL0     C80654   9.417   9.303   4.936  0.6161  0.3445 -0.1462
  585MOL0     C80655   9.294   9.389   4.956 -0.3957  0.0280  0.7990
  585MOL0     C80656   9.171   9.319   5.005  0.2024 -0.0473  0.2968
  585MOL0     C80657   9.066   9.262   5.041  0.1226 -0.0054 -0.0467
  585MOL0     C80658   9.764   8.962   4.817  0.6171  0.1033  0.4279
  585MOL0     C80659   9.890   8.898   4.821  0.7638 -0.9393  0.0916
  585MOL0     C80660   9.894   8.757   4.873  0.3441 -0.3683  1.2045
  585MOL0     H80661  10.418   8.969   4.952 -0.7454  2.0512 -0.7207
  585MOL0     H80662  10.605   8.821   4.915  0.8653  1.1819 -0.1880
  585MOL0     H80663  10.692   8.606   4.822  1.3820 -3.2303 -0.0852
  585MOL0     H80664  10.839   8.703   4.801  0.7869  1.9685 -2.7953
  585MOL0     H80665  10.748   8.474   4.624  0.7610 -2.1431  1.5275
  585MOL0     H80666  10.884   8.577   4.581  0.0505 -2.4520 -0.8268
  585MOL0     H80667  11.036   8.499   4.746 -0.2354  0.5363 -1.3548
  585MOL0     H80668  10.903   8.424   4.839 -3.0603 -3.0643 -2.6220
  585MOL0     H80669  10.865   8.262   4.674  2.3141 -3.1461 -1.1047
  585MOL0     H80670  10.966   8.344   4.559  0.6136  0.6037  0.4783
  585MOL0     H80671  11.054   8.190   4.818  4.0682 -2.0174 -0.1793
  585MOL0     H80672  11.151   8.307   4.760 -0.1257  0.4050 -0.2578
  585MOL0     H80673  11.188   8.209   4.548 -0.8214  1.4211  0.2469
  585MOL0     H80674  11.235   8.101   4.673 -0.4761  0.8085  0.8416
  585MOL0     H80675  10.945   8.062   4.601 -1.1322 -0.4511 -1.0778
  585MOL0     H80676  11.060   7.956   4.650 -2.2113  0.1875  0.3691
  585MOL0     H80677  11.164   7.945   4.411 -0.4359  0.2137 -3.3612
  585MOL0     H80678  10.998   7.914   4.416  0.8205 -0.7078  0.8725
  585MOL0     H80679  10.817   8.065   4.281 -1.4523  0.3841 -3.8713
  585MOL0     H80680  10.944   8.249   3.966  0.2472 -3.4090 -0.8472
  585MOL0     H80681  10.795   8.312   4.037 -0.9453 -0.0486 -2.2360
  585MOL0     H80682  10.821   8.015   3.980 -3.2114 -2.5637 -4.9737
  585MOL0     H80683  10.692   8.100   4.037  1.6220 -0.6304  2.1060
  585MOL0     H80684  10.649   8.214   3.840  0.0198  0.7868  2.4247
  585MOL0     H80685  10.820   8.207   3.778  3.3151 -3.2931  1.9943
  585MOL0     H80686  10.807   7.961   3.755 -0.6954 -0.6204  0.2175
  585MOL0     H80687  10.640   7.965   3.804  0.0501  0.2231  1.0132
  585MOL0     H80688  10.569   8.120   3.416 -0.3752 -0.3825  0.4794
  585MOL0     H80689  10.424   8.052   3.191  3.9834  4.0066  2.7123
  585MOL0     H80690  10.443   7.882   3.134 -0.4066 -1.3237  1.3764
  585MOL0     H80691  10.578   7.996   3.123 -1.3394  1.7148 -0.0201
  585MOL0     H80692  10.430   7.722   2.886  2.1941 -0.4322 -3.4924
  585MOL0     H80693  10.305   7.565   2.760  2.0640 -1.8029 -1.9561
  585MOL0     H80694  10.381   7.111   2.883 -0.7315  0.5030  1.6957
  585MOL0     H80695  10.233   7.204   2.920  2.9581  6.2134 -0.4451
  585MOL0     H80696  10.133   7.156   2.712  1.8897  3.0978  0.3248
  585MOL0     H80697  10.263   7.090   2.641 -1.1847 -1.0635 -0.0138
  585MOL0     H80698  10.201   6.937   2.896  0.1270 -1.7247  0.5549
  585MOL0     H80699  10.255   6.866   2.748 -0.9804 -0.1704 -0.9317
  585MOL0     H80700   9.978   6.982   2.806 -1.2734 -1.5634 -0.4237
  585MOL0     H80701  10.023   6.816   2.812  1.1460  0.9600  2.4171
  585MOL0     H80702  10.062   6.993   2.563 -2.7569  0.2111  0.6414
  585MOL0     H80703  10.090   6.819   2.569  1.2808 -1.0476  1.2801
  585MOL0     H80704   9.882   6.899   2.461 -1.2668 -3.1398 -0.7165
  585MOL0     H80705   9.817   6.953   2.623 -1.9007  0.9277 -1.0694
  585MOL0     H80706   9.808   6.724   2.710  2.0931 -5.6485 -0.1841
  585MOL0     H80707   9.905   6.663   2.576 -0.1493 -0.1117  0.1724
  585MOL0     H80708   9.618   6.712   2.592  0.3533 -1.5800  1.5391
  585MOL0     H80709   9.716   6.582   2.504  2.0091  0.3669  1.0682
  585MOL0     H80710  10.542   7.248   2.968 -1.7795 -1.1448  0.6829
  585MOL0     H80711  10.611   7.404   3.129  0.9672 -1.6821  0.2297
  585MOL0     H80712  10.597   7.635   3.512  0.1291 -0.5399 -2.0336
  585MOL0     H80713  10.688   7.800   3.655 -1.3641  0.6577  1.0433
  585MOL0     H80714  10.539   8.835   4.491  0.7494  1.0542 -0.2700
  585MOL0     H80715  10.330   8.959   4.521 -0.3060  0.2034 -0.3549
  585MOL0     H80716  10.063   9.166   4.698  1.0714  0.9983  3.4203
  585MOL0     H80717   9.846   9.264   4.709 -0.1804 -1.1844 -0.7785
  585MOL0     H80718   9.499   9.019   4.771 -1.3471 -0.8892  1.4359
  585MOL0     H80719   9.540   9.065   4.933 -0.7399 -0.9511 -0.4077
  585MOL0     H80720   9.310   9.139   4.855  1.1240 -0.6516 -2.2046
  585MOL0     H80721   9.378   9.247   4.732  0.5869 -0.5669 -0.7506
  585MOL0     H80722   9.441   9.255   5.032  1.9529  0.1342 -0.5730
  585MOL0     H80723   9.499   9.371   4.913  0.0843  0.2366 -2.5966
  585MOL0     H80724   9.273   9.438   4.860  3.9931 -0.7110 -0.7264
  585MOL0     H80725   9.317   9.464   5.032  0.2141  0.7882 -0.1094
  585MOL0     H80726   8.971   9.227   5.073 -1.0399  2.0592 -1.0432
  585MOL0     H80727   9.676   8.904   4.843  0.4400  0.1431 -0.0732
  585MOL0     H80728   9.800   8.740   4.925 -2.6063 -0.0382 -3.4120
  585MOL0     H80729   9.893   8.680   4.795 -1.8197 -1.0915  1.8919
  585MOL0     H80730   9.969   8.739   4.950 -0.7663 -1.0248  2.1685
  586MOL0     O80731   3.808   6.612   8.760 -1.1388  0.6548  0.4875
  586MOL0     C80732   3.863   6.570   8.658  1.0261  0.9278 -0.1371
  586MOL0     O80733   3.808   6.577   8.529  0.4816  0.3836  0.5653
  586MOL0     C80734   3.690   6.647   8.517 -0.0871  1.5288 -0.2461
  586MOL0     C80735   3.672   6.779   8.491  0.4288  0.3351  0.4778
  586MOL0     C80736   3.547   6.834   8.493 -0.6213  0.3741  0.6090
  586MOL0     C80737   3.432   6.759   8.519 -0.5992 -0.1033  0.0660
  586MOL0     O80738   3.310   6.822   8.530  0.1124 -0.1788 -0.1865
  586MOL0     C80739   3.182   6.755   8.528  0.3724  0.7074 -0.1531
  586MOL0     C80740   3.070   6.852   8.489  0.3964 -0.1077 -0.5147
  586MOL0     C80741   3.048   6.853   8.339  0.1398  0.0786  0.8660
  586MOL0     C80742   2.967   6.971   8.283  0.0396 -0.2606 -0.1394
  586MOL0     C80743   3.005   7.117   8.320  0.5018 -0.1238 -0.2453
  586MOL0     C80744   2.894   7.220   8.312  1.2289  0.1376 -0.1554
  586MOL0     C80745   2.951   7.352   8.367  0.2641 -0.0229 -0.1574
  586MOL0     C80746   2.836   7.450   8.397 -0.5576 -1.0343 -0.2729
  586MOL0     N80747   2.772   7.478   8.266  0.1449 -0.1791 -0.0088
  586MOL0     C80748   2.817   7.547   8.162 -1.1468 -0.0931  0.4658
  586MOL0     C80749   2.749   7.521   8.062  0.0423  0.2165  1.2403
  586MOL0     C80750   2.791   7.574   7.927 -0.0105 -0.5150 -0.0214
  586MOL0     C80751   2.727   7.713   7.888  0.3160  0.3796  0.0351
  586MOL0     C80752   2.803   7.828   7.968  0.6520 -1.1172 -0.4250
  586MOL0     C80753   2.713   7.950   7.928  0.1383  0.0717  0.5767
  586MOL0     O80754   2.771   8.079   7.967  0.3293 -0.1563  0.2868
  586MOL0     C80755   2.823   8.157   7.872 -0.4216 -0.2565 -0.2967
  586MOL0     C80756   2.958   8.184   7.869  0.3114 -0.0518 -0.2267
  586MOL0     C80757   3.025   8.264   7.774  0.3393  0.0318 -0.0658
  586MOL0     C80758   3.177   8.269   7.789 -0.4505  0.3435 -0.4961
  586MOL0     C80759   2.949   8.312   7.672  0.4017  0.6624  0.3015
  586MOL0     C80760   3.016   8.381   7.555 -0.1428  0.0657 -0.6277
  586MOL0     O80761   3.132   8.443   7.576  0.0920 -0.2827 -0.4461
  586MOL0     C80762   3.189   8.500   7.465 -1.6251 -0.3692  0.6683
  586MOL0     C80763   3.303   8.437   7.408  0.2145  0.1466  0.1520
  586MOL0     C80764   3.341   8.485   7.282 -0.4655 -0.4360  0.4276
  586MOL0     C80765   3.288   8.598   7.215 -0.0851  0.6850 -1.5968
  586MOL0     O80766   3.336   8.660   7.105 -0.0665 -0.1236 -0.0611
  586MOL0     C80767   3.433   8.596   7.021  0.8735  0.0866 -0.6450
  586MOL0     C80768   3.481   8.703   6.926 -0.5043 -0.6470 -0.2513
  586MOL0     C80769   3.603   8.663   6.841  0.4665 -0.4184  0.0968
  586MOL0     C80770   3.727   8.676   6.918  0.4173 -0.0864  0.0926
  586MOL0     C80771   3.850   8.654   6.831  0.2561  0.1249 -0.0802
  586MOL0     C80772   3.882   8.500   6.834  0.0403  0.5451 -0.3759
  586MOL0     C80773   4.010   8.443   6.755  0.1483 -0.2286  0.4824
  586MOL0     C80774   4.146   8.472   6.806 -0.5947 -0.3890 -0.1539
  586MOL0    Cl80775   4.177   8.401   6.970  0.1050 -0.0004 -0.0833
  586MOL0     C80776   3.172   8.652   7.281  0.7929 -0.6396  0.4068
  586MOL0     C80777   3.124   8.611   7.406  0.4171  0.2682  0.1547
  586MOL0     O80778   2.955   8.379   7.449  0.2209  0.1515 -0.2579
  586MOL0     C80779   2.805   8.286   7.665  0.8961 -0.7795  0.2995
  586MOL0     C80780   2.743   8.211   7.764  0.5426 -0.3617  0.6647
  586MOL0     N80781   2.656   7.423   8.092  0.0771 -0.2113 -0.3789
  586MOL0     N80782   2.664   7.414   8.222  0.7799  0.9220 -0.5721
  586MOL0     C80783   3.450   6.616   8.549  0.1232 -0.3761  0.3453
  586MOL0     C80784   3.581   6.567   8.546  0.1318 -0.4586 -0.1024
  586MOL0     C80785   3.991   6.489   8.675 -0.0769 -0.0018 -0.0691
  586MOL0     C80786   4.115   6.551   8.675  0.2478 -0.0562 -0.3335
  586MOL0     C80787   4.225   6.480   8.683 -0.3237  0.0982 -0.4627
  586MOL0     C80788   4.227   6.338   8.694 -0.7559 -0.5307 -0.2423
  586MOL0     O80789   4.339   6.262   8.698 -0.1439 -0.6623 -0.0630
  586MOL0     C80790   4.429   6.305   8.586 -0.1143 -0.8115 -0.5512
  586MOL0     C80791   4.485   6.169   8.528  0.1890 -0.1552  0.8145
  586MOL0     C80792   4.377   6.087   8.447  0.5536 -0.4313 -0.0877
  586MOL0     C80793   4.437   5.983   8.355 -0.0577  0.2054 -0.5584
  586MOL0     C80794   4.345   5.869   8.344  0.4726 -0.1116 -0.6073
  586MOL0     C80795   4.262   5.776   8.343  1.2554  0.8774 -0.0978
  586MOL0     C80796   4.110   6.275   8.681  0.3412 -0.0626  0.9391
  586MOL0     C80797   3.993   6.347   8.668  0.9872 -0.3407  0.0021
  586MOL0     C80798   3.866   6.273   8.651  0.1810  0.1593  0.1269
  586MOL0     H80799   3.761   6.838   8.474  1.6984 -1.4864  0.4902
  586MOL0     H80800   3.542   6.942   8.489 -0.0096  0.3966 -3.3864
  586MOL0     H80801   3.165   6.701   8.621 -1.6707  1.2205 -0.1825
  586MOL0     H80802   3.182   6.671   8.458 -0.0174  1.0605 -0.5857
  586MOL0     H80803   2.973   6.822   8.528  2.3110 -2.9088  2.7482
  586MOL0     H80804   3.095   6.951   8.529  2.3027  0.0441 -1.9272
  586MOL0     H80805   3.136   6.851   8.273  1.5720 -0.0032  2.6878
  586MOL0     H80806   3.005   6.760   8.302  1.2989 -0.0410 -0.2463
  586MOL0     H80807   2.965   6.965   8.173 -0.5629 -1.4640 -0.0888
  586MOL0     H80808   2.864   6.959   8.317 -0.1562 -2.1826 -1.2460
  586MOL0     H80809   3.085   7.154   8.255 -0.7109 -1.9238 -2.8930
  586MOL0     H80810   3.028   7.121   8.427 -0.1883 -0.1310 -0.0927
  586MOL0     H80811   2.851   7.224   8.211 -0.2204 -0.6163  0.4012
  586MOL0     H80812   2.813   7.194   8.380  0.8774 -0.7938 -0.9053
  586MOL0     H80813   3.023   7.404   8.304 -1.6726 -0.4675 -2.9553
  586MOL0     H80814   2.988   7.317   8.463 -2.1501 -0.2968  0.7438
  586MOL0     H80815   2.765   7.415   8.473 -1.1967 -0.9759 -0.8322
  586MOL0     H80816   2.866   7.549   8.431 -2.4801 -0.8440  1.0445
  586MOL0     H80817   2.898   7.618   8.171 -0.9507 -0.4896  2.1836
  586MOL0     H80818   2.752   7.504   7.853 -1.9262 -0.0834  0.5234
  586MOL0     H80819   2.900   7.586   7.921  0.1899  2.6357  4.6346
  586MOL0     H80820   2.727   7.726   7.779 -2.5963 -3.3043 -0.6127
  586MOL0     H80821   2.623   7.704   7.918  0.3645 -3.8290 -0.4938
  586MOL0     H80822   2.811   7.805   8.075  0.9551 -2.0277 -0.6307
  586MOL0     H80823   2.905   7.833   7.929  0.2565 -0.8355 -1.4455
  586MOL0     H80824   2.680   7.959   7.824 -1.2869 -0.8773  0.9108
  586MOL0     H80825   2.620   7.933   7.983 -1.1347  1.5783 -0.9712
  586MOL0     H80826   3.016   8.154   7.955  1.5160 -1.4404 -1.4495
  586MOL0     H80827   3.210   8.182   7.847 -0.4316 -0.9960 -2.4289
  586MOL0     H80828   3.219   8.359   7.835  4.3732 -1.0253 -1.6387
  586MOL0     H80829   3.224   8.254   7.692  1.6696 -1.2664  0.7032
  586MOL0     H80830   3.352   8.354   7.458 -1.1559 -0.6887  0.1374
  586MOL0     H80831   3.426   8.431   7.242 -0.8470 -1.3704  0.8413
  586MOL0     H80832   3.521   8.556   7.073  0.4351 -1.7310 -1.2272
  586MOL0     H80833   3.379   8.513   6.974  1.9180 -0.8503 -0.2542
  586MOL0     H80834   3.408   8.730   6.849  1.8876 -1.6137 -3.0157
  586MOL0     H80835   3.503   8.798   6.976 -0.9898 -0.6411 -0.0394
  586MOL0     H80836   3.620   8.735   6.760 -1.7661  2.2261  1.7741
  586MOL0     H80837   3.587   8.562   6.802 -0.7105  0.4519 -1.8307
  586MOL0     H80838   3.722   8.607   7.003  0.1496 -2.4481 -1.7466
  586MOL0     H80839   3.744   8.780   6.948 -2.6295  0.6392 -0.3676
  586MOL0     H80840   3.837   8.690   6.729  1.8902  0.7082 -0.1195
  586MOL0     H80841   3.934   8.712   6.870  1.5965 -0.7004 -1.6077
  586MOL0     H80842   3.791   8.457   6.790  0.1948 -0.0810 -0.0888
  586MOL0     H80843   3.883   8.477   6.940  1.3704  4.6498  0.7024
  586MOL0     H80844   4.007   8.467   6.649  0.6630 -0.6826  0.3631
  586MOL0     H80845   4.005   8.334   6.750  0.4114 -0.2356  0.3757
  586MOL0     H80846   4.166   8.577   6.827 -1.0074 -0.2900 -0.2474
  586MOL0     H80847   4.210   8.431   6.728  1.9445  0.1802  1.5233
  586MOL0     H80848   3.103   8.716   7.226  0.3919 -0.9291  0.5630
  586MOL0     H80849   3.037   8.662   7.446 -1.5816 -1.7571 -1.3315
  586MOL0     H80850   2.739   8.327   7.588  0.6154  0.5475  1.2032
  586MOL0     H80851   2.636   8.196   7.755  0.0768  2.1259  1.4982
  586MOL0     H80852   3.357   6.564   8.571 -0.5007  0.1658 -0.9313
  586MOL0     H80853   3.605   6.466   8.574 -1.0836 -0.7271  0.0220
  586MOL0     H80854   4.135   6.657   8.661  0.7502  0.0534  1.0271
  586MOL0     H80855   4.316   6.539   8.686 -1.8015  2.8476 -3.5388
  586MOL0     H80856   4.371   6.361   8.513 -1.1293 -2.3842 -0.9970
  586MOL0     H80857   4.515   6.365   8.618 -2.4468  0.9807  3.1326
  586MOL0     H80858   4.538   6.108   8.603  1.3884  1.2000  1.1173
  586MOL0     H80859   4.561   6.210   8.460 -0.5817  0.6043  0.3941
  586MOL0     H80860   4.308   6.042   8.520 -2.3160 -0.6596 -2.7392
  586MOL0     H80861   4.317   6.156   8.386  1.6547  0.5739 -0.0620
  586MOL0     H80862   4.536   5.951   8.389 -0.6377  0.8648  1.9616
  586MOL0     H80863   4.454   6.030   8.258  0.1047 -0.3568 -0.8079
  586MOL0     H80864   4.213   5.681   8.354  3.9052 -0.6641 -0.6375
  586MOL0     H80865   4.105   6.167   8.692  1.5183 -0.4589 -1.6216
  586MOL0     H80866   3.781   6.316   8.703  3.4277  4.3228  2.6003
  586MOL0     H80867   3.843   6.261   8.544  0.0832 -0.1319  0.1790
  586MOL0     H80868   3.876   6.180   8.707 -2.2556 -0.0366  0.3285
  587MOL0     O80869   4.845   1.179   3.331 -0.2220  0.4138 -0.0399
  587MOL0     C80870   4.947   1.129   3.277  0.1201  0.2031  0.6841
  587MOL0     O80871   5.075   1.132   3.328 -0.6149  0.1593 -0.2551
  587MOL0     C80872   5.090   1.200   3.446 -1.0116 -1.5432 -0.3060
  587MOL0     C80873   5.002   1.201   3.559 -0.5387 -0.7822 -0.4886
  587MOL0     C80874   5.024   1.274   3.676  0.3886 -0.4000  0.1982
  587MOL0     C80875   5.150   1.345   3.696 -0.3131 -1.0840 -0.0875
  587MOL0     O80876   5.152   1.405   3.818  0.3522  0.5455 -0.2582
  587MOL0     C80877   5.274   1.479   3.848  0.0163  0.6729 -0.2506
  587MOL0     C80878   5.244   1.623   3.794 -0.5275  0.1265  0.4304
  587MOL0     C80879   5.357   1.719   3.829 -0.0006  0.2130  0.2785
  587MOL0     C80880   5.322   1.866   3.810 -0.5648  0.9118  0.6887
  587MOL0     C80881   5.447   1.943   3.757 -0.2518 -0.1773 -0.4611
  587MOL0     C80882   5.420   2.086   3.705  0.0106  0.2366 -0.4653
  587MOL0     C80883   5.539   2.179   3.699  0.3595  0.6629  0.1101
  587MOL0     C80884   5.512   2.322   3.665  0.4852 -0.0047  0.8639
  587MOL0     N80885   5.637   2.392   3.709  0.0142 -0.1178  1.0419
  587MOL0     C80886   5.742   2.426   3.626 -0.2267  0.5831 -0.4388
  587MOL0     C80887   5.835   2.484   3.703  0.3220  0.0947  0.7162
  587MOL0     C80888   5.971   2.529   3.654 -0.4150  0.2220 -0.0013
  587MOL0     C80889   6.018   2.674   3.684 -0.5290  0.1894  0.0453
  587MOL0     C80890   6.019   2.703   3.841 -0.4518  0.7631  0.1889
  587MOL0     C80891   6.104   2.821   3.886 -0.7102  0.0393 -0.6141
  587MOL0     O80892   6.239   2.774   3.884  0.1536 -0.4144  0.4574
  587MOL0     C80893   6.310   2.818   3.995 -0.4989 -0.0748 -0.8501
  587MOL0     C80894   6.406   2.741   4.056 -0.8695 -0.2731 -0.0131
  587MOL0     C80895   6.472   2.776   4.172 -0.7390  0.6435 -0.4475
  587MOL0     C80896   6.564   2.665   4.226  0.3929  0.5821  0.2688
  587MOL0     C80897   6.446   2.895   4.236  0.0048 -0.1255  0.1846
  587MOL0     C80898   6.518   2.943   4.362  0.5551  0.1037  0.2297
  587MOL0     O80899   6.481   3.069   4.404 -0.3598  0.1233 -0.5555
  587MOL0     C80900   6.578   3.134   4.468  0.3229 -0.8545 -0.7946
  587MOL0     C80901   6.628   3.088   4.597  0.6536 -0.0695  0.2291
  587MOL0     C80902   6.738   3.141   4.652 -0.0986 -0.5807 -0.9812
  587MOL0     C80903   6.791   3.262   4.612  0.2695 -0.1847  0.5712
  587MOL0     O80904   6.908   3.313   4.668  0.0996  0.1492 -0.1916
  587MOL0     C80905   6.948   3.445   4.641  0.7345 -0.2623 -0.0751
  587MOL0     C80906   7.055   3.463   4.532  0.1171 -0.0738 -0.6030
  587MOL0     C80907   7.180   3.382   4.583  0.2912 -0.1815 -0.0466
  587MOL0     C80908   7.310   3.426   4.511  1.2445 -0.4541  0.4417
  587MOL0     C80909   7.428   3.328   4.548 -0.4497 -0.3331 -0.0075
  587MOL0     C80910   7.542   3.327   4.445 -0.1215  0.4560  0.4821
  587MOL0     C80911   7.658   3.259   4.506 -0.1578 -0.0791  0.1192
  587MOL0     C80912   7.752   3.202   4.396 -0.6290  0.0297  0.9796
  587MOL0    Cl80913   7.921   3.188   4.440  0.1520 -0.1225 -0.2153
  587MOL0     C80914   6.739   3.316   4.495 -0.4517 -0.5349 -0.1291
  587MOL0     C80915   6.631   3.252   4.422 -0.0927  0.0772 -0.6320
  587MOL0     O80916   6.598   2.871   4.421  0.1282  0.2569 -0.5815
  587MOL0     C80917   6.355   2.988   4.175  0.4059  0.0027 -0.0466
  587MOL0     C80918   6.288   2.947   4.056 -0.0251  0.1804  0.0541
  587MOL0     N80919   5.790   2.469   3.834 -0.5823  0.0202  0.3889
  587MOL0     N80920   5.661   2.439   3.829 -0.7894  0.8655 -0.3795
  587MOL0     C80921   5.244   1.345   3.594  0.1075 -0.5031  0.0306
  587MOL0     C80922   5.213   1.273   3.469 -0.3616  0.2221  0.2278
  587MOL0     C80923   4.923   1.066   3.149 -0.0054 -0.2629 -0.7564
  587MOL0     C80924   5.021   0.985   3.099 -0.3663 -0.2233  0.5372
  587MOL0     C80925   5.017   0.923   2.979 -0.1767 -0.0288 -0.3714
  587MOL0     C80926   4.906   0.938   2.902  0.0433  0.0485  1.2346
  587MOL0     O80927   4.905   0.868   2.781  0.5704 -0.8802 -0.4908
  587MOL0     C80928   4.782   0.838   2.719 -0.0125  0.0672 -0.7277
  587MOL0     C80929   4.798   0.799   2.579  0.6595 -0.5223  0.5228
  587MOL0     C80930   4.868   0.673   2.553 -0.3790  0.5022  0.6824
  587MOL0     C80931   4.831   0.592   2.424  0.4776 -0.2233 -0.0821
  587MOL0     C80932   4.806   0.670   2.310  0.0038 -0.2775 -0.3123
  587MOL0     C80933   4.792   0.741   2.212 -0.7697 -0.1848 -0.0096
  587MOL0     C80934   4.799   1.018   2.946  0.1229 -0.3470 -0.2507
  587MOL0     C80935   4.802   1.076   3.073 -0.4795  0.2431  1.0991
  587MOL0     C80936   4.666   1.147   3.106  0.6555 -0.0118 -0.3640
  587MOL0     H80937   4.904   1.154   3.555 -0.1811 -1.6902  0.6679
  587MOL0     H80938   4.951   1.258   3.754  0.2208  0.9848  0.3497
  587MOL0     H80939   5.369   1.443   3.808  0.4745  1.4679  0.0817
  587MOL0     H80940   5.295   1.484   3.955  0.7184 -1.1362 -0.2718
  587MOL0     H80941   5.233   1.623   3.685  3.5523 -2.2603 -0.1889
  587MOL0     H80942   5.152   1.663   3.838 -2.4080 -1.8555 -1.4684
  587MOL0     H80943   5.397   1.700   3.929  1.3589 -1.5793 -0.5262
  587MOL0     H80944   5.444   1.703   3.764  1.0579  3.0029  0.8547
  587MOL0     H80945   5.246   1.898   3.738  1.0812  0.9798 -1.0934
  587MOL0     H80946   5.302   1.918   3.905 -1.1727  3.8042 -0.9058
  587MOL0     H80947   5.500   1.880   3.685  1.9210  0.6835  0.3180
  587MOL0     H80948   5.517   1.945   3.841 -1.4239  1.7927  0.5177
  587MOL0     H80949   5.375   2.084   3.605  4.3838  2.4095 -2.7712
  587MOL0     H80950   5.341   2.123   3.771  1.2633 -1.1048  1.9011
  587MOL0     H80951   5.607   2.136   3.624 -0.8200 -0.2046 -0.5028
  587MOL0     H80952   5.584   2.172   3.798  1.6755 -0.5548 -0.5334
  587MOL0     H80953   5.468   2.338   3.566  0.3110 -2.2061  0.5320
  587MOL0     H80954   5.436   2.358   3.735 -1.4628 -0.7928 -0.7172
  587MOL0     H80955   5.759   2.421   3.519  4.1822  1.5056  0.0084
  587MOL0     H80956   5.980   2.503   3.548  1.9401 -0.6714  0.3440
  587MOL0     H80957   6.040   2.459   3.703  0.3419 -0.0772 -1.4360
  587MOL0     H80958   6.119   2.700   3.651  0.3807  0.3126  2.6186
  587MOL0     H80959   5.961   2.746   3.625  0.3006  0.8730  0.0413
  587MOL0     H80960   5.913   2.723   3.858 -0.1802  3.1332 -0.5641
  587MOL0     H80961   6.055   2.608   3.881  0.8405  0.8753 -0.6259
  587MOL0     H80962   6.077   2.905   3.820 -1.5830  0.6447  0.4796
  587MOL0     H80963   6.074   2.846   3.988 -0.9595 -1.4642 -0.2989
  587MOL0     H80964   6.443   2.647   4.016  2.2385  0.3320  1.2099
  587MOL0     H80965   6.551   2.569   4.175  0.1835  1.0139 -0.5194
  587MOL0     H80966   6.537   2.640   4.329 -2.7259  1.1611 -0.3213
  587MOL0     H80967   6.670   2.691   4.226  0.8553 -0.4953  4.6945
  587MOL0     H80968   6.575   3.007   4.645  0.1324  0.0747 -0.0903
  587MOL0     H80969   6.777   3.112   4.749 -0.1655  0.4956 -0.6167
  587MOL0     H80970   6.859   3.506   4.620 -0.8052 -1.7423  1.8221
  587MOL0     H80971   6.975   3.489   4.738 -1.0206  1.6793 -0.3763
  587MOL0     H80972   7.016   3.436   4.433 -0.1978 -0.8213 -0.2879
  587MOL0     H80973   7.077   3.569   4.542 -1.7450  0.3866 -1.0417
  587MOL0     H80974   7.158   3.277   4.560 -0.8966  0.3827 -1.6258
  587MOL0     H80975   7.189   3.394   4.692 -1.0733  1.5607 -0.0829
  587MOL0     H80976   7.339   3.531   4.524 -1.0423  0.2590  0.1372
  587MOL0     H80977   7.297   3.414   4.403  3.2993 -3.1380  0.3659
  587MOL0     H80978   7.469   3.366   4.642 -2.1974 -0.6537  0.9174
  587MOL0     H80979   7.398   3.225   4.567  0.6683 -0.8095 -0.7649
  587MOL0     H80980   7.568   3.428   4.409  0.9180 -0.1835 -0.6466
  587MOL0     H80981   7.511   3.269   4.358 -1.7573 -2.0165  2.5644
  587MOL0     H80982   7.633   3.177   4.575  2.4318 -0.9741  0.1238
  587MOL0     H80983   7.712   3.337   4.561 -0.7001  0.4358 -0.0647
  587MOL0     H80984   7.749   3.274   4.313 -2.4138  0.6838  1.5552
  587MOL0     H80985   7.713   3.109   4.354  0.3687 -0.6784  1.5812
  587MOL0     H80986   6.795   3.394   4.445  1.5066  0.0838  2.7716
  587MOL0     H80987   6.602   3.302   4.330  1.2914  0.8581 -0.6769
  587MOL0     H80988   6.332   3.081   4.225  0.3754  0.3001 -0.6029
  587MOL0     H80989   6.231   3.025   4.005  2.9786  2.3518 -0.2938
  587MOL0     H80990   5.337   1.399   3.609 -0.6670  1.7193 -2.4712
  587MOL0     H80991   5.295   1.273   3.398 -0.1314 -1.4335  0.4695
  587MOL0     H80992   5.112   0.963   3.155  0.9685  2.3790 -0.4828
  587MOL0     H80993   5.093   0.856   2.940  0.6523  0.7120 -0.0468
  587MOL0     H80994   4.739   0.752   2.771 -1.0311  0.4992 -0.8384
  587MOL0     H80995   4.700   0.908   2.739  0.8197  0.3813  2.0973
  587MOL0     H80996   4.833   0.883   2.517 -1.1440  0.4267  0.7226
  587MOL0     H80997   4.696   0.795   2.539  0.9323  1.6688 -0.5604
  587MOL0     H80998   4.975   0.695   2.558 -0.6972  1.8397  3.3233
  587MOL0     H80999   4.843   0.607   2.637 -0.2197 -0.1445  0.2334
  587MOL0     H81000   4.736   0.544   2.450 -0.8076  1.8358 -0.7378
  587MOL0     H81001   4.904   0.515   2.399  2.6313  0.4740  3.3693
  587MOL0     H81002   4.776   0.819   2.140 -3.5165  0.7501  1.4905
  587MOL0     H81003   4.697   1.008   2.911 -0.9755  1.6871  2.0279
  587MOL0     H81004   4.633   1.117   3.206  0.9675 -1.5145 -0.6883
  587MOL0     H81005   4.688   1.254   3.109 -1.7088  0.5177  1.4347
  587MOL0     H81006   4.582   1.122   3.040 -0.5275  2.9297 -0.1512
  588MOL0     O81007   3.515   8.740   1.037 -0.5314 -0.3146 -0.7372
  588MOL0     C81008   3.481   8.667   1.127  0.6970  0.2832  0.1607
  588MOL0     O81009   3.374   8.688   1.206  1.0621 -0.1167 -0.1965
  588MOL0     C81010   3.281   8.792   1.190 -0.4600  0.2773 -0.5799
  588MOL0     C81011   3.152   8.749   1.210 -0.2293 -0.7542 -0.9353
  588MOL0     C81012   3.037   8.834   1.171 -0.7933  0.5303  0.1588
  588MOL0     C81013   3.059   8.965   1.132  0.6573  0.0838 -0.1769
  588MOL0     O81014   2.962   9.058   1.089 -0.5191 -0.1858  0.7985
  588MOL0     C81015   2.849   9.015   1.008 -0.7713  0.3084  0.0895
  588MOL0     C81016   2.759   9.134   0.989 -0.4128 -0.1762 -0.1461
  588MOL0     C81017   2.784   9.193   0.846  0.0117  0.3238  0.5747
  588MOL0     C81018   2.718   9.332   0.829 -0.4612  1.3479  1.3341
  588MOL0     C81019   2.700   9.387   0.685  0.2488  0.9566 -0.8275
  588MOL0     C81020   2.830   9.365   0.602 -0.2061  0.7492  0.0431
  588MOL0     C81021   2.807   9.458   0.484 -0.3664 -0.1788 -0.1737
  588MOL0     C81022   2.914   9.457   0.377 -0.7598 -0.4650 -0.2415
  588MOL0     N81023   2.847   9.526   0.261  0.6148  0.0779 -0.0912
  588MOL0     C81024   2.803   9.469   0.145  0.4182 -0.6214  1.0987
  588MOL0     C81025   2.768   9.586   0.073 -0.0995  0.0684  0.8054
  588MOL0     C81026   2.713   9.595  -0.075 -0.3631  0.2765 -0.1735
  588MOL0     C81027   2.566   9.621  -0.074  0.0988  0.1152  0.6404
  588MOL0     C81028   2.514   9.614  -0.221 -0.1218 -0.0306  0.2653
  588MOL0     C81029   2.588   9.694  -0.326 -0.0841 -0.1682  0.2755
  588MOL0     O81030   2.590   9.833  -0.301  0.1209 -0.1588  0.2355
  588MOL0     C81031   2.582   9.920  -0.411  0.5310  0.1408  0.2148
  588MOL0     C81032   2.648   9.898  -0.526  0.1764  0.1212 -0.5541
  588MOL0     C81033   2.646   9.997  -0.627  0.5336 -0.7475 -0.6780
  588MOL0     C81034   2.730   9.959  -0.753 -0.4290  0.3853 -0.7994
  588MOL0     C81035   2.578  10.126  -0.612 -0.1136  0.2860 -0.1249
  588MOL0     C81036   2.573  10.251  -0.699  0.4645  0.1111  0.1031
  588MOL0     O81037   2.522  10.362  -0.647  0.1185 -0.1880  0.1382
  588MOL0     C81038   2.475  10.452  -0.745 -0.9097  0.0657 -0.2058
  588MOL0     C81039   2.402  10.412  -0.848 -0.1555  0.9045  0.9168
  588MOL0     C81040   2.338  10.502  -0.937 -0.2769 -0.4514 -0.5275
  588MOL0     C81041   2.350  10.647  -0.909  0.1766 -0.0441 -0.0578
  588MOL0     O81042   2.277  10.742  -0.988 -0.2373 -0.2267  0.0938
  588MOL0     C81043   2.251  10.876  -0.937  0.5189 -0.6607 -0.7699
  588MOL0     C81044   2.375  10.951  -0.983  0.7283 -0.6402  1.2416
  588MOL0     C81045   2.381  10.982  -1.138 -0.6855  0.4142  0.5544
  588MOL0     C81046   2.489  11.094  -1.175 -1.1127  0.3819  0.4564
  588MOL0     C81047   2.500  11.128  -1.325 -0.0337  0.1055  0.4319
  588MOL0     C81048   2.628  11.211  -1.349  0.1010 -0.1908 -0.1904
  588MOL0     C81049   2.637  11.243  -1.504 -0.8717  1.1084  0.5751
  588MOL0     C81050   2.738  11.340  -1.556 -0.0333 -0.4397 -0.5294
  588MOL0    Cl81051   2.710  11.501  -1.482  0.0269 -0.4050 -0.1969
  588MOL0     C81052   2.431  10.683  -0.796  0.0948  0.1555  0.9195
  588MOL0     C81053   2.489  10.589  -0.719  0.6866  0.0766 -0.3255
  588MOL0     O81054   2.642  10.237  -0.800 -0.2863 -0.2359  0.0583
  588MOL0     C81055   2.511  10.139  -0.493 -0.0018 -0.1504  0.4862
  588MOL0     C81056   2.514  10.045  -0.389 -0.1699 -0.4718  0.1635
  588MOL0     N81057   2.798   9.700   0.141 -0.3965 -0.7952 -0.1562
  588MOL0     N81058   2.834   9.660   0.259 -0.3791 -1.2869 -0.3902
  588MOL0     C81059   3.184   9.015   1.122  0.2507 -0.4883  0.1103
  588MOL0     C81060   3.294   8.929   1.144  0.2154 -1.3263  0.2225
  588MOL0     C81061   3.534   8.529   1.126 -0.1776  0.0872 -0.3427
  588MOL0     C81062   3.467   8.428   1.197  0.1805 -0.6633  0.5040
  588MOL0     C81063   3.513   8.298   1.199  0.1890  0.1870  0.6286
  588MOL0     C81064   3.627   8.267   1.130 -0.7671 -0.6109  0.5107
  588MOL0     O81065   3.680   8.138   1.137  0.2901  0.3361 -0.1254
  588MOL0     C81066   3.639   8.043   1.238  0.0439 -0.6012 -0.3415
  588MOL0     C81067   3.516   7.970   1.190 -0.4898 -0.0789 -0.4207
  588MOL0     C81068   3.551   7.895   1.069  0.1790 -0.4454  0.9239
  588MOL0     C81069   3.432   7.889   0.953 -0.4947  0.8236 -0.6192
  588MOL0     C81070   3.400   8.028   0.917 -0.1945  0.8833  1.5647
  588MOL0     C81071   3.410   8.144   0.913 -0.5600 -0.3896 -0.8311
  588MOL0     C81072   3.703   8.361   1.065  0.0758  0.3458  0.2454
  588MOL0     C81073   3.653   8.492   1.056 -0.3978  0.1454  0.6610
  588MOL0     C81074   3.739   8.586   0.968 -0.5717 -1.0943 -0.7030
  588MOL0     H81075   3.137   8.646   1.238 -0.1802 -0.2406  1.0867
  588MOL0     H81076   2.932   8.809   1.183 -0.4951 -1.9353 -1.7778
  588MOL0     H81077   2.796   8.931   1.054 -0.6169 -1.8063 -3.2016
  588MOL0     H81078   2.879   8.978   0.909  0.3916  0.0278  0.5338
  588MOL0     H81079   2.661   9.095   1.018 -0.1293 -1.0464 -0.3067
  588MOL0     H81080   2.794   9.216   1.053  3.6105 -1.0045 -0.9873
  588MOL0     H81081   2.890   9.194   0.822 -0.2460  0.4195 -0.6206
  588MOL0     H81082   2.736   9.126   0.774 -0.2732  1.1858 -0.0578
  588MOL0     H81083   2.620   9.316   0.876 -0.3838 -3.2975  0.3965
  588MOL0     H81084   2.786   9.399   0.882 -0.3558  3.1021 -0.8782
  588MOL0     H81085   2.674   9.492   0.696  0.1018  0.7974  0.6448
  588MOL0     H81086   2.620   9.333   0.633  0.9118  1.3657 -2.3153
  588MOL0     H81087   2.928   9.390   0.645  1.0011 -3.0182 -0.1536
  588MOL0     H81088   2.831   9.260   0.573 -1.3536  0.8482 -0.3891
  588MOL0     H81089   2.798   9.561   0.520  0.4820  0.4523 -1.6646
  588MOL0     H81090   2.722   9.416   0.430  1.6205 -0.9956 -2.8836
  588MOL0     H81091   3.005   9.512   0.406 -0.1946 -0.9144 -1.0965
  588MOL0     H81092   2.949   9.358   0.347  3.9431  0.9514 -0.3113
  588MOL0     H81093   2.806   9.367   0.107 -1.8789  0.0261 -1.0995
  588MOL0     H81094   2.735   9.506  -0.136  0.6028  0.7513 -0.5421
  588MOL0     H81095   2.767   9.678  -0.121 -1.0663  1.3378  0.8795
  588MOL0     H81096   2.512   9.559  -0.003  0.3607 -0.3299  0.4512
  588MOL0     H81097   2.564   9.723  -0.035 -0.1481  0.4338 -0.1808
  588MOL0     H81098   2.487   9.517  -0.263  0.1833  0.7747 -1.8962
  588MOL0     H81099   2.418   9.665  -0.216 -2.0387 -3.3178  0.0866
  588MOL0     H81100   2.693   9.662  -0.324 -0.5020 -1.5561  0.5772
  588MOL0     H81101   2.546   9.679  -0.426  0.5080  0.6583 -0.1147
  588MOL0     H81102   2.701   9.804  -0.539  0.2380 -0.2817  2.1548
  588MOL0     H81103   2.652   9.923  -0.821  0.8588  0.4475 -2.3629
  588MOL0     H81104   2.797   9.875  -0.734  0.0941  1.2735  1.6762
  588MOL0     H81105   2.781  10.044  -0.799  1.6280 -1.1641 -1.5002
  588MOL0     H81106   2.386  10.314  -0.891  3.3685  0.3302  0.6002
  588MOL0     H81107   2.273  10.470  -1.018  0.1588 -1.2249 -0.5753
  588MOL0     H81108   2.172  10.922  -0.998  0.1248  1.1721  1.0245
  588MOL0     H81109   2.237  10.889  -0.830 -0.9547 -2.0962 -0.7454
  588MOL0     H81110   2.366  11.053  -0.943 -0.1895  1.0397 -2.7929
  588MOL0     H81111   2.468  10.905  -0.949  3.0484  1.6613 -1.4580
  588MOL0     H81112   2.287  11.007  -1.188 -0.4099 -0.2460 -0.3267
  588MOL0     H81113   2.416  10.890  -1.186 -1.5378  0.6402 -0.5518
  588MOL0     H81114   2.584  11.052  -1.140 -1.4440 -0.1256  0.7584
  588MOL0     H81115   2.465  11.189  -1.126 -0.9929  0.2602  0.7495
  588MOL0     H81116   2.497  11.040  -1.391  1.7540  0.6125 -0.3649
  588MOL0     H81117   2.406  11.184  -1.337 -1.0044 -1.1281  1.9006
  588MOL0     H81118   2.721  11.155  -1.336  0.2802 -0.1580 -1.2487
  588MOL0     H81119   2.636  11.293  -1.277  2.7645  1.7876 -2.5357
  588MOL0     H81120   2.539  11.290  -1.518 -2.1980 -2.1350 -2.6442
  588MOL0     H81121   2.646  11.152  -1.564 -2.2029  1.6100 -0.4477
  588MOL0     H81122   2.726  11.350  -1.664 -5.3239 -2.7735 -0.4341
  588MOL0     H81123   2.839  11.312  -1.523 -0.6922 -1.2018  0.9372
  588MOL0     H81124   2.450  10.789  -0.777  4.2729 -0.3627  0.5082
  588MOL0     H81125   2.546  10.627  -0.635 -0.7771 -0.1277  0.7995
  588MOL0     H81126   2.448  10.222  -0.465  2.9156  1.4248  3.0051
  588MOL0     H81127   2.454  10.082  -0.306 -2.5332  5.7498 -3.6579
  588MOL0     H81128   3.193   9.122   1.106  0.0458 -0.5735 -0.5921
  588MOL0     H81129   3.392   8.963   1.113  0.2198 -0.8548  0.7296
  588MOL0     H81130   3.369   8.457   1.236  0.1743  3.5031 -1.9827
  588MOL0     H81131   3.452   8.238   1.266 -0.7920  0.7061  0.2293
  588MOL0     H81132   3.727   7.980   1.252  0.6031  0.2417  0.0140
  588MOL0     H81133   3.616   8.094   1.332  1.9631 -0.6515  0.2051
  588MOL0     H81134   3.434   8.042   1.180  0.2022  1.3460  2.8884
  588MOL0     H81135   3.498   7.891   1.263  1.6293 -2.0237 -1.8532
  588MOL0     H81136   3.640   7.939   1.024 -0.3694  1.3920  1.5602
  588MOL0     H81137   3.568   7.791   1.097  1.6898 -0.6512 -0.6460
  588MOL0     H81138   3.340   7.841   0.987  0.6117 -2.9878 -2.3940
  588MOL0     H81139   3.468   7.835   0.865 -2.5033  0.9949 -1.6014
  588MOL0     H81140   3.426   8.249   0.920  1.3636 -0.7635  2.1139
  588MOL0     H81141   3.791   8.327   1.011  1.4443 -0.2885  2.7237
  588MOL0     H81142   3.691   8.614   0.873  1.6553  0.0027 -1.5732
  588MOL0     H81143   3.747   8.671   1.036  1.9737 -2.9933  1.6077
  588MOL0     H81144   3.840   8.545   0.961  0.0899  0.1558  0.9876
  589MOL0     O81145   4.237   4.023   0.400  0.9573 -0.3943 -0.0936
  589MOL0     C81146   4.164   3.941   0.342 -0.2846  0.4234  0.3022
  589MOL0     O81147   4.209   3.819   0.309  0.1063  0.1067  0.0078
  589MOL0     C81148   4.342   3.801   0.286  0.3895 -0.9704  0.8143
  589MOL0     C81149   4.391   3.679   0.340  0.7604 -1.3972 -0.0921
  589MOL0     C81150   4.523   3.646   0.343 -1.0773  0.7714 -0.1231
  589MOL0     C81151   4.611   3.712   0.262  0.3899  0.5338 -0.5719
  589MOL0     O81152   4.741   3.682   0.243 -0.0094 -0.3313 -0.6915
  589MOL0     C81153   4.766   3.551   0.202 -0.8226 -0.6788  0.3436
  589MOL0     C81154   4.915   3.513   0.207 -0.8105 -0.3969  0.0061
  589MOL0     C81155   4.979   3.562   0.343  0.1957  0.6525 -0.1277
  589MOL0     C81156   5.122   3.511   0.370 -0.9095 -0.2729 -0.4012
  589MOL0     C81157   5.189   3.575   0.491  1.3469  0.2639  0.4747
  589MOL0     C81158   5.080   3.590   0.602  0.0259 -0.3009 -0.0834
  589MOL0     C81159   5.139   3.634   0.737 -0.7442  0.8844  0.4440
  589MOL0     C81160   5.216   3.760   0.724 -0.4710 -0.5889 -0.4302
  589MOL0     N81161   5.264   3.808   0.855 -0.0904 -0.4497  0.1234
  589MOL0     C81162   5.225   3.925   0.917  1.2954  0.3995  0.0646
  589MOL0     C81163   5.287   3.922   1.043  0.5200  0.4259  0.0412
  589MOL0     C81164   5.263   4.034   1.148  0.3834 -0.5974 -0.1186
  589MOL0     C81165   5.117   4.018   1.191 -0.0827 -0.1951  0.3360
  589MOL0     C81166   5.079   4.128   1.297 -0.4926 -0.3901  0.4096
  589MOL0     C81167   5.117   4.092   1.443 -0.9258  0.5635  0.8350
  589MOL0     O81168   5.262   4.094   1.464  0.5472  0.2086  0.1593
  589MOL0     C81169   5.335   4.205   1.476 -0.4770 -0.0380  0.7542
  589MOL0     C81170   5.288   4.338   1.453  0.6276 -0.2448 -0.5890
  589MOL0     C81171   5.365   4.445   1.491  0.5776  0.1077 -0.5244
  589MOL0     C81172   5.304   4.585   1.468  0.2898 -0.4246  0.3769
  589MOL0     C81173   5.493   4.421   1.544 -0.1507  0.1315 -0.1377
  589MOL0     C81174   5.585   4.531   1.586 -0.1615 -0.0269 -0.3223
  589MOL0     O81175   5.708   4.484   1.632 -0.2296  0.1940 -0.2018
  589MOL0     C81176   5.797   4.580   1.668 -0.3611 -0.5446 -0.3418
  589MOL0     C81177   5.820   4.692   1.590 -0.6588  0.5170 -0.1724
  589MOL0     C81178   5.920   4.788   1.623  0.9192 -0.2100  0.3127
  589MOL0     C81179   6.011   4.767   1.732  0.0043  0.6931  0.6518
  589MOL0     O81180   6.108   4.850   1.776 -0.5070  0.2134 -0.0480
  589MOL0     C81181   6.169   4.939   1.681  0.7043  0.5220  0.3821
  589MOL0     C81182   6.283   5.036   1.733  0.4738  0.1303 -0.5212
  589MOL0     C81183   6.402   4.963   1.789  0.0489 -0.0700 -0.9348
  589MOL0     C81184   6.540   5.040   1.781  0.4138  0.7733 -0.1383
  589MOL0     C81185   6.535   5.162   1.880  0.6943 -0.6927  0.4217
  589MOL0     C81186   6.666   5.242   1.904 -0.1558  0.0527 -0.8132
  589MOL0     C81187   6.629   5.353   2.004  0.3082  0.8094 -0.4699
  589MOL0     C81188   6.753   5.412   2.066  0.5117  0.3900 -0.1529
  589MOL0    Cl81189   6.888   5.451   1.942  0.4756  0.4214 -0.2080
  589MOL0     C81190   5.985   4.654   1.809  0.0143  0.0804 -0.3316
  589MOL0     C81191   5.883   4.559   1.780  0.5895  0.6017 -0.5652
  589MOL0     O81192   5.545   4.644   1.592 -0.5941  0.5074 -0.3161
  589MOL0     C81193   5.547   4.293   1.556 -0.9237  1.1256 -0.4951
  589MOL0     C81194   5.470   4.176   1.521  0.6500 -0.3787  0.0171
  589MOL0     N81195   5.363   3.800   1.049 -0.6411  0.5698 -1.0233
  589MOL0     N81196   5.355   3.742   0.935  0.8505 -0.8087 -0.0498
  589MOL0     C81197   4.567   3.835   0.207 -0.0007 -0.0903  0.3155
  589MOL0     C81198   4.437   3.880   0.216  0.6458  0.2146  0.4180
  589MOL0     C81199   4.022   3.980   0.304  0.3146  0.2039 -0.0145
  589MOL0     C81200   3.955   3.909   0.200 -0.6598 -0.1027 -0.4070
  589MOL0     C81201   3.832   3.943   0.152  0.2210 -0.3584 -0.8940
  589MOL0     C81202   3.768   4.060   0.211  0.1629  0.3176  0.2294
  589MOL0     O81203   3.654   4.107   0.163  0.7344  0.2402 -0.4522
  589MOL0     C81204   3.671   4.172   0.034  0.0858 -0.5015 -0.7732
  589MOL0     C81205   3.690   4.325   0.059 -0.0921  0.5291 -0.0856
  589MOL0     C81206   3.558   4.379   0.127  0.0080  0.3037 -0.0114
  589MOL0     C81207   3.562   4.529   0.095 -0.5793  0.1735  0.4942
  589MOL0     C81208   3.444   4.588   0.151  0.1025 -0.3578 -0.2095
  589MOL0     C81209   3.342   4.636   0.185  0.7242 -0.0215  0.1735
  589MOL0     C81210   3.825   4.119   0.324  0.8506 -0.5270  0.3857
  589MOL0     C81211   3.945   4.083   0.374 -0.3312  0.3930 -0.6808
  589MOL0     C81212   3.988   4.146   0.504 -0.6949 -0.0325 -0.2986
  589MOL0     H81213   4.316   3.609   0.376 -0.9077 -0.7269 -2.0925
  589MOL0     H81214   4.558   3.557   0.395  2.9828  2.6528  0.7653
  589MOL0     H81215   4.742   3.536   0.096 -0.7617  0.0264  0.2231
  589MOL0     H81216   4.722   3.465   0.255  0.1961 -2.1989 -1.1829
  589MOL0     H81217   4.923   3.406   0.190  1.3068 -0.2999  0.0753
  589MOL0     H81218   4.960   3.553   0.116  0.3283  0.6177  0.9712
  589MOL0     H81219   4.978   3.671   0.335  1.4810  0.7279  0.5377
  589MOL0     H81220   4.916   3.530   0.427 -0.6597  5.4064  1.3315
  589MOL0     H81221   5.116   3.404   0.392 -3.9803 -0.4960 -1.8762
  589MOL0     H81222   5.181   3.526   0.279  0.1993  0.7355  0.4355
  589MOL0     H81223   5.246   3.666   0.472 -0.6370  1.1072 -1.9980
  589MOL0     H81224   5.248   3.502   0.547 -0.6470  0.1550  2.6096
  589MOL0     H81225   5.008   3.670   0.584  3.3075  2.4722 -2.2786
  589MOL0     H81226   5.039   3.491   0.625  0.9986 -0.3790  1.4047
  589MOL0     H81227   5.208   3.558   0.775 -1.5936 -1.0625 -1.6510
  589MOL0     H81228   5.056   3.653   0.805 -0.8436  2.0241  0.0193
  589MOL0     H81229   5.306   3.749   0.663 -0.1771  4.0654 -1.2439
  589MOL0     H81230   5.159   3.833   0.665  0.8790 -1.2757 -2.6979
  589MOL0     H81231   5.167   4.001   0.866  1.4357 -1.0271 -2.3813
  589MOL0     H81232   5.278   4.132   1.104 -2.8928 -0.7367 -1.7907
  589MOL0     H81233   5.326   4.018   1.237 -2.6520 -1.3245  2.0834
  589MOL0     H81234   5.049   4.013   1.105  1.2969  1.9498 -0.9624
  589MOL0     H81235   5.104   3.920   1.237  2.5480  0.3157  2.3633
  589MOL0     H81236   5.115   4.225   1.261 -0.5907 -0.5755 -0.1989
  589MOL0     H81237   4.970   4.139   1.285 -0.4513 -2.2301 -2.8438
  589MOL0     H81238   5.066   4.160   1.513 -1.9813 -0.8031  1.4331
  589MOL0     H81239   5.097   3.988   1.468  1.0605  0.4242  2.1362
  589MOL0     H81240   5.195   4.353   1.399 -0.0369 -0.4765  0.4528
  589MOL0     H81241   5.207   4.571   1.419 -0.3722 -1.0602  1.8235
  589MOL0     H81242   5.366   4.632   1.391  0.7380 -0.5547  0.6568
  589MOL0     H81243   5.297   4.643   1.560  1.5499  0.4879 -0.0829
  589MOL0     H81244   5.770   4.686   1.494 -0.7884 -1.1349 -0.0289
  589MOL0     H81245   5.933   4.876   1.562 -2.4928 -0.5463 -1.0822
  589MOL0     H81246   6.198   4.890   1.587  1.0625 -0.2878  0.9045
  589MOL0     H81247   6.091   5.011   1.655  3.5850  2.6606 -3.1316
  589MOL0     H81248   6.308   5.096   1.645 -1.3350  2.0568  0.1961
  589MOL0     H81249   6.237   5.110   1.799 -1.2061 -2.8713  1.9159
  589MOL0     H81250   6.412   4.863   1.745  1.3672  0.7494 -2.6578
  589MOL0     H81251   6.379   4.952   1.895 -0.7808 -1.3163 -1.2258
  589MOL0     H81252   6.560   5.072   1.678  2.2640  0.2460  0.0184
  589MOL0     H81253   6.622   4.980   1.821  0.4918  0.0349 -1.3524
  589MOL0     H81254   6.461   5.231   1.839  0.8426  0.0904  1.4330
  589MOL0     H81255   6.512   5.139   1.984  1.3257  0.1266  0.7590
  589MOL0     H81256   6.716   5.290   1.819  3.7538  2.2031  2.3456
  589MOL0     H81257   6.740   5.173   1.944 -0.8552  0.2530  0.9163
  589MOL0     H81258   6.572   5.306   2.085  0.1878 -0.8101 -1.4563
  589MOL0     H81259   6.563   5.429   1.963 -0.2611  2.2952  2.8922
  589MOL0     H81260   6.796   5.343   2.138  3.1190  3.4787  1.5280
  589MOL0     H81261   6.710   5.502   2.110  0.9048  0.4456  0.1209
  589MOL0     H81262   6.046   4.625   1.893  1.0143 -1.0512 -1.3988
  589MOL0     H81263   5.881   4.468   1.839 -2.3280 -1.0774 -2.9246
  589MOL0     H81264   5.641   4.258   1.597 -1.9201 -2.6484 -0.9843
  589MOL0     H81265   5.496   4.072   1.537 -1.2646 -1.0016 -0.6387
  589MOL0     H81266   4.644   3.896   0.160  0.7316  0.7779  2.5009
  589MOL0     H81267   4.418   3.975   0.166  0.8314 -0.6842 -1.4209
  589MOL0     H81268   4.003   3.823   0.155  3.0867  1.6688 -0.2649
  589MOL0     H81269   3.797   3.903   0.057  2.1899 -0.9645 -1.4159
  589MOL0     H81270   3.750   4.140  -0.034  1.4645  3.6206 -1.4416
  589MOL0     H81271   3.581   4.162  -0.027 -0.1494 -1.7175 -0.2488
  589MOL0     H81272   3.699   4.376  -0.038  1.5345  0.2862 -0.0883
  589MOL0     H81273   3.783   4.333   0.117  1.7394 -3.1295 -2.1349
  589MOL0     H81274   3.459   4.338   0.102 -0.4634  0.8698  0.8392
  589MOL0     H81275   3.558   4.366   0.236 -0.3213 -0.2075 -0.0651
  589MOL0     H81276   3.562   4.542  -0.014  0.2925 -0.3046  0.4337
  589MOL0     H81277   3.657   4.570   0.130  0.4090 -0.8119 -0.9052
  589MOL0     H81278   3.251   4.685   0.215  2.4425  2.2979  1.9457
  589MOL0     H81279   3.766   4.190   0.381  1.9444 -0.7973  1.8864
  589MOL0     H81280   4.013   4.065   0.574 -0.7303 -0.6439 -0.9776
  589MOL0     H81281   4.070   4.217   0.492  1.7865 -1.9368  3.3203
  589MOL0     H81282   3.903   4.205   0.537  0.7986  2.1243 -0.1291
  590MOL0     O81283   0.083   7.725   9.638  0.3300  0.4730  0.4113
  590MOL0     C81284   0.001   7.698   9.546  0.6535 -0.6024 -0.6827
  590MOL0     O81285   0.035   7.677   9.417  1.0478  0.0356  0.3528
  590MOL0     C81286   0.168   7.698   9.382 -0.0327  0.2330  0.4387
  590MOL0     C81287   0.262   7.587   9.390  0.1834  1.0602 -0.2270
  590MOL0     C81288   0.391   7.591   9.337 -0.0844 -0.9149  0.1900
  590MOL0     C81289   0.431   7.710   9.267 -0.6555 -1.0122  0.7954
  590MOL0     O81290   0.554   7.726   9.209  0.2016  0.1683 -0.0039
  590MOL0     C81291   0.665   7.647   9.254  0.1089 -0.1242 -0.5580
  590MOL0     C81292   0.773   7.678   9.150 -0.7178 -0.3496 -0.4438
  590MOL0     C81293   0.823   7.822   9.158  1.0160  0.7934  0.0982
  590MOL0     C81294   0.946   7.846   9.066  0.4738 -0.2871 -0.8660
  590MOL0     C81295   0.966   7.999   9.060 -0.4623 -0.4879 -0.2850
  590MOL0     C81296   1.097   8.008   8.965  0.0421  0.1214  0.2039
  590MOL0     C81297   1.123   8.162   8.949 -0.4062  0.1053 -0.1149
  590MOL0     C81298   1.261   8.194   8.909 -0.1408 -0.1769  0.9683
  590MOL0     N81299   1.298   8.135   8.777  0.4792  0.2602  0.2555
  590MOL0     C81300   1.381   8.028   8.769  0.5254  0.8312  0.2326
  590MOL0     C81301   1.395   7.994   8.638  0.3991 -0.6912 -0.6125
  590MOL0     C81302   1.473   7.886   8.579 -0.0206  0.0835 -0.1224
  590MOL0     C81303   1.493   7.913   8.419 -0.9269 -0.5676 -0.0093
  590MOL0     C81304   1.572   7.794   8.358 -0.3992  0.4777 -0.2103
  590MOL0     C81305   1.588   7.819   8.215 -0.7135 -0.0839  0.6457
  590MOL0     O81306   1.687   7.719   8.168  0.4741 -0.4066  0.2400
  590MOL0     C81307   1.757   7.750   8.062 -0.3688 -0.2008 -0.0121
  590MOL0     C81308   1.710   7.841   7.968  0.1325 -0.4225 -0.5030
  590MOL0     C81309   1.789   7.872   7.851 -0.9709  0.4681  0.6076
  590MOL0     C81310   1.733   7.961   7.748 -0.0176 -0.8395 -0.5545
  590MOL0     C81311   1.916   7.808   7.837  0.9632  0.2903 -0.2078
  590MOL0     C81312   2.018   7.850   7.736  1.0376  0.0012 -0.4407
  590MOL0     O81313   2.022   7.982   7.690 -0.3430 -0.2731  0.2921
  590MOL0     C81314   2.139   8.029   7.626  0.3617  0.4529  1.0974
  590MOL0     C81315   2.230   8.093   7.706  0.8262 -0.0041  0.4135
  590MOL0     C81316   2.358   8.121   7.660  0.7547 -0.3608  0.0690
  590MOL0     C81317   2.399   8.092   7.530  0.7277  0.7415  0.4199
  590MOL0     O81318   2.533   8.116   7.508 -0.0437  0.2837 -0.8982
  590MOL0     C81319   2.592   8.059   7.390 -0.3473  0.2177  0.2008
  590MOL0     C81320   2.747   8.066   7.395  0.4359 -0.4395  0.8104
  590MOL0     C81321   2.799   7.982   7.506  0.1490 -0.0765  0.3338
  590MOL0     C81322   2.949   7.991   7.514 -0.7327  0.0298 -0.5318
  590MOL0     C81323   2.992   7.877   7.608  0.2919  0.3617 -0.4132
  590MOL0     C81324   3.142   7.879   7.644  0.0783 -0.6830  0.3141
  590MOL0     C81325   3.177   7.779   7.753 -0.4244  0.0467  0.3559
  590MOL0     C81326   3.173   7.633   7.707  0.5170 -0.1592  0.5999
  590MOL0    Cl81327   3.290   7.609   7.574 -0.1575  0.1437 -0.0421
  590MOL0     C81328   2.303   8.030   7.443  0.4037 -0.0237  0.2148
  590MOL0     C81329   2.174   8.004   7.491 -0.1375 -1.1466  0.8381
  590MOL0     O81330   2.100   7.763   7.709 -0.0097  0.2474  0.6625
  590MOL0     C81331   1.954   7.708   7.929 -0.4938  1.0591 -0.3483
  590MOL0     C81332   1.878   7.682   8.047  0.1571  0.2577  0.5435
  590MOL0     N81333   1.325   8.098   8.572  0.5416  1.0553  0.5649
  590MOL0     N81334   1.259   8.176   8.653 -0.5549  0.6499  0.5240
  590MOL0     C81335   0.333   7.816   9.252 -0.3961  0.8604 -0.2242
  590MOL0     C81336   0.204   7.810   9.300  0.3478 -0.2318 -0.2409
  590MOL0     C81337  -0.141   7.742   9.562  0.8889  0.4847 -0.5959
  590MOL0     C81338  -0.209   7.785   9.440 -0.0112  0.7452 -0.8975
  590MOL0     C81339  -0.351   7.811   9.429 -0.8628  0.0628 -0.8507
  590MOL0     C81340  -0.427   7.789   9.549  0.2299  0.4602 -0.1235
  590MOL0     O81341  -0.568   7.794   9.551 -0.1229 -0.2790  0.5350
  590MOL0     C81342  -0.637   7.753   9.663 -1.2695 -0.6199  0.0374
  590MOL0     C81343  -0.780   7.704   9.646  0.5914 -0.4843  0.1186
  590MOL0     C81344  -0.830   7.642   9.783 -0.7840 -1.0584  0.6640
  590MOL0     C81345  -0.980   7.650   9.787  0.3036  0.0704  0.3366
  590MOL0     C81346  -1.050   7.581   9.683  0.4205  0.9396 -1.0044
  590MOL0     C81347  -1.090   7.521   9.585 -0.6470 -0.8660  0.0616
  590MOL0     C81348  -0.358   7.754   9.658  0.2207  0.3015 -0.5243
  590MOL0     C81349  -0.222   7.732   9.676 -0.2726  0.1332  0.6318
  590MOL0     C81350  -0.162   7.691   9.810 -0.8523  0.3713 -0.9520
  590MOL0     H81351   0.239   7.501   9.451  3.5710 -2.8332 -3.7556
  590MOL0     H81352   0.455   7.503   9.345  3.1029  1.1868 -0.2418
  590MOL0     H81353   0.643   7.540   9.259  3.7069 -0.9760  0.0555
  590MOL0     H81354   0.697   7.686   9.351 -1.6511 -0.9113  0.3954
  590MOL0     H81355   0.862   7.615   9.154 -0.4868 -0.1267 -1.7044
  590MOL0     H81356   0.730   7.656   9.052 -0.2832 -4.4318  0.1126
  590MOL0     H81357   0.743   7.894   9.136  1.5759  1.5687  0.5335
  590MOL0     H81358   0.865   7.837   9.258  0.5859 -0.5522  0.5080
  590MOL0     H81359   1.039   7.804   9.104  0.0068 -0.0344  0.6017
  590MOL0     H81360   0.938   7.808   8.963 -1.0278 -0.4521 -0.7169
  590MOL0     H81361   1.001   8.050   9.150  1.8252 -2.4212  0.0216
  590MOL0     H81362   0.885   8.056   9.013  0.9653  2.1715  0.2990
  590MOL0     H81363   1.183   7.963   9.015  0.5627  0.7680 -0.0942
  590MOL0     H81364   1.093   7.961   8.866  0.4696 -0.2566  0.3693
  590MOL0     H81365   1.122   8.193   9.054  1.5828  1.0698 -0.3330
  590MOL0     H81366   1.052   8.218   8.888 -2.3931  0.7215  2.5977
  590MOL0     H81367   1.286   8.300   8.912  2.9190 -0.7822  0.2746
  590MOL0     H81368   1.322   8.145   8.985  0.2486 -0.1695  0.6634
  590MOL0     H81369   1.408   7.959   8.848 -2.2353  1.1857  1.5922
  590MOL0     H81370   1.429   7.788   8.597  3.1031 -1.2585  0.9170
  590MOL0     H81371   1.570   7.885   8.630  0.8829 -0.2619 -1.7832
  590MOL0     H81372   1.394   7.920   8.372 -1.7243 -2.4703  1.2594
  590MOL0     H81373   1.549   8.006   8.410 -2.0258 -0.0111 -1.5677
  590MOL0     H81374   1.663   7.775   8.416  0.2248  0.1950 -1.2405
  590MOL0     H81375   1.505   7.709   8.375  0.4076  0.2015  1.7461
  590MOL0     H81376   1.502   7.818   8.148 -0.6763  0.7247  0.5797
  590MOL0     H81377   1.625   7.922   8.213 -1.8906  0.3554  0.6630
  590MOL0     H81378   1.617   7.895   7.979  1.3212  1.8587 -1.0589
  590MOL0     H81379   1.625   7.966   7.734 -0.3403 -2.4459  1.0516
  590MOL0     H81380   1.765   7.938   7.646 -2.8878 -0.7470 -1.5742
  590MOL0     H81381   1.763   8.063   7.774 -3.1714  0.0793 -0.1164
  590MOL0     H81382   2.204   8.102   7.811  1.4982  2.8571  0.4214
  590MOL0     H81383   2.433   8.168   7.722  0.1128  0.9854 -0.1345
  590MOL0     H81384   2.572   7.952   7.375  0.6626 -0.0220  0.4673
  590MOL0     H81385   2.558   8.117   7.304 -0.6233  4.3851  2.8630
  590MOL0     H81386   2.781   8.029   7.297 -2.1323  1.0718 -0.7669
  590MOL0     H81387   2.768   8.173   7.399 -3.1767  0.4611 -0.3023
  590MOL0     H81388   2.769   7.877   7.498 -1.6388  0.4355 -0.2625
  590MOL0     H81389   2.750   8.007   7.601 -1.1869 -0.6762 -0.1672
  590MOL0     H81390   2.986   8.086   7.554 -1.3041 -0.1149  0.3545
  590MOL0     H81391   2.998   7.984   7.416  0.3881  1.3627 -0.1036
  590MOL0     H81392   2.938   7.894   7.701  0.3451 -2.4515  0.2292
  590MOL0     H81393   2.954   7.780   7.572  0.3279  0.9873 -2.2688
  590MOL0     H81394   3.172   7.974   7.689 -1.4152 -0.0620  0.0360
  590MOL0     H81395   3.190   7.850   7.550 -0.8956  0.3913 -0.5420
  590MOL0     H81396   3.099   7.792   7.829 -0.8581  3.4603 -0.4806
  590MOL0     H81397   3.269   7.811   7.802  0.0926 -0.3539 -0.3401
  590MOL0     H81398   3.070   7.619   7.673  0.2222  2.6751  0.1517
  590MOL0     H81399   3.183   7.575   7.799 -5.1390 -1.6849  0.6223
  590MOL0     H81400   2.336   7.997   7.345  1.7920  2.7754 -0.3748
  590MOL0     H81401   2.105   7.948   7.429 -2.3933  1.5134  0.7120
  590MOL0     H81402   2.044   7.648   7.929 -1.0542  0.0799  2.1559
  590MOL0     H81403   1.912   7.612   8.121  0.3819  0.1472  0.3361
  590MOL0     H81404   0.380   7.903   9.207  2.6091 -1.3617 -1.7354
  590MOL0     H81405   0.141   7.897   9.286  0.0735 -0.5630 -1.1062
  590MOL0     H81406  -0.163   7.797   9.342 -1.9188  0.0423 -1.9476
  590MOL0     H81407  -0.400   7.823   9.333 -1.6536 -1.5258 -0.6855
  590MOL0     H81408  -0.579   7.669   9.701 -1.9095 -0.2893  1.8211
  590MOL0     H81409  -0.636   7.839   9.730  2.5139  3.2144 -4.2673
  590MOL0     H81410  -0.778   7.634   9.562 -0.0248 -0.0310 -0.2856
  590MOL0     H81411  -0.847   7.784   9.613  2.0125 -0.3377 -2.6685
  590MOL0     H81412  -0.799   7.537   9.791 -0.7317 -1.2449 -1.4140
  590MOL0     H81413  -0.789   7.697   9.868 -1.1564  0.3267 -0.0336
  590MOL0     H81414  -1.009   7.755   9.791 -0.5292 -0.1866  1.5099
  590MOL0     H81415  -1.015   7.594   9.874  0.2340  0.8237  0.7958
  590MOL0     H81416  -1.126   7.469   9.498  0.1482 -3.0439  0.9673
  590MOL0     H81417  -0.406   7.750   9.755 -1.7346  1.7542 -1.3712
  590MOL0     H81418  -0.098   7.603   9.806  1.8900  2.1716 -0.2429
  590MOL0     H81419  -0.099   7.773   9.847 -4.6031  2.6087  1.1242
  590MOL0     H81420  -0.237   7.675   9.887  0.7200  1.4667  0.9291
  591MOL0     O81421   1.288   5.913   7.274 -0.4183  0.1069 -0.0323
  591MOL0     C81422   1.359   5.995   7.339  0.4608  0.3103 -0.1486
  591MOL0     O81423   1.390   6.121   7.298 -0.4939  0.1221 -0.1203
  591MOL0     C81424   1.320   6.186   7.200 -0.3437  0.6430  0.1030
  591MOL0     C81425   1.179   6.202   7.187 -0.0817  1.0606  0.7450
  591MOL0     C81426   1.115   6.278   7.083 -0.6962  0.7974  0.7618
  591MOL0     C81427   1.193   6.333   6.973  0.1538 -0.7275  1.3272
  591MOL0     O81428   1.137   6.401   6.860  0.8518 -0.3758 -0.3035
  591MOL0     C81429   1.007   6.458   6.868  0.9491 -0.5705  1.0673
  591MOL0     C81430   0.972   6.539   6.744  0.1667 -0.3564 -0.1043
  591MOL0     C81431   1.013   6.679   6.770 -1.4108 -0.3832  0.7182
  591MOL0     C81432   0.999   6.772   6.642  0.9585 -0.4562 -0.3892
  591MOL0     C81433   1.090   6.893   6.653  0.4398 -0.6811  0.2993
  591MOL0     C81434   1.079   6.970   6.527  0.3875  0.4150  0.0051
  591MOL0     C81435   1.184   7.087   6.518 -0.4265  0.1316 -0.7158
  591MOL0     C81436   1.152   7.164   6.386 -0.2821 -0.4371 -1.3470
  591MOL0     N81437   1.221   7.296   6.388 -0.1401  0.1725 -0.9481
  591MOL0     C81438   1.180   7.394   6.477 -0.0008 -0.1557 -0.2733
  591MOL0     C81439   1.268   7.493   6.448  0.7605  0.3090 -0.1883
  591MOL0     C81440   1.245   7.624   6.517  0.4470 -0.3036 -1.3670
  591MOL0     C81441   1.223   7.747   6.428 -0.4200  0.2286  0.2332
  591MOL0     C81442   1.159   7.861   6.507  0.5776 -0.4535  0.2673
  591MOL0     C81443   1.121   7.996   6.440 -0.2157 -0.9196 -0.4193
  591MOL0     O81444   1.002   7.980   6.352 -0.7931  0.7173  0.1384
  591MOL0     C81445   0.881   8.015   6.400  0.2306 -0.0575 -0.1716
  591MOL0     C81446   0.775   8.030   6.314 -0.0683  0.2556 -0.0451
  591MOL0     C81447   0.640   8.058   6.359 -0.3722  0.0383  0.7011
  591MOL0     C81448   0.534   8.075   6.254 -0.7843 -0.1853  0.6441
  591MOL0     C81449   0.621   8.085   6.501 -0.7162 -0.4285 -0.0179
  591MOL0     C81450   0.492   8.120   6.570 -0.6077 -1.1396 -0.5352
  591MOL0     O81451   0.497   8.209   6.665 -0.3986  0.0880  0.0804
  591MOL0     C81452   0.385   8.218   6.746  0.1971  0.4544  0.1378
  591MOL0     C81453   0.329   8.338   6.743 -0.1648 -0.3196  0.4204
  591MOL0     C81454   0.202   8.365   6.791 -0.0098  1.0186 -0.7798
  591MOL0     C81455   0.145   8.262   6.868 -1.0414  0.3115  0.6141
  591MOL0     O81456   0.033   8.284   6.937 -0.1705 -0.1924  0.0277
  591MOL0     C81457   0.020   8.395   7.022  0.4602 -0.9459 -0.7946
  591MOL0     C81458  -0.123   8.400   7.088 -0.1006  0.1040 -0.7154
  591MOL0     C81459  -0.155   8.528   7.164 -1.1033 -0.5567  0.3682
  591MOL0     C81460  -0.082   8.538   7.303  0.9256  0.5680 -0.2237
  591MOL0     C81461  -0.106   8.672   7.377  0.3998 -0.0380  0.4969
  591MOL0     C81462  -0.255   8.710   7.402 -0.2985 -0.0367  0.0944
  591MOL0     C81463  -0.325   8.607   7.496  0.9869 -0.0236  0.0860
  591MOL0     C81464  -0.256   8.575   7.626  0.8725  0.4323 -0.2543
  591MOL0    Cl81465  -0.231   8.717   7.729 -0.3810  0.1577  0.1658
  591MOL0     C81466   0.210   8.139   6.888  0.2486 -0.0499 -0.3346
  591MOL0     C81467   0.329   8.115   6.824  0.5605  0.5906  0.6902
  591MOL0     O81468   0.389   8.071   6.525 -0.4963  0.3706 -0.4857
  591MOL0     C81469   0.728   8.077   6.585 -0.3415 -0.0705  0.6480
  591MOL0     C81470   0.858   8.041   6.540 -0.9383 -0.9002 -0.5878
  591MOL0     N81471   1.359   7.454   6.346  0.0026  0.5651  0.5513
  591MOL0     N81472   1.318   7.332   6.307  0.1274 -0.3386 -1.1772
  591MOL0     C81473   1.329   6.299   6.979  0.0090 -0.1931  0.9805
  591MOL0     C81474   1.397   6.240   7.091 -0.3019 -1.2099 -0.0223
  591MOL0     C81475   1.404   5.960   7.482  0.9550  0.5037  0.2688
  591MOL0     C81476   1.517   6.036   7.536  0.1609  0.0453 -0.1612
  591MOL0     C81477   1.568   6.009   7.664 -0.0446 -0.0553 -0.3205
  591MOL0     C81478   1.508   5.915   7.750  0.0080  0.0581 -0.4160
  591MOL0     O81479   1.575   5.894   7.867  0.4245 -0.2119  0.3090
  591MOL0     C81480   1.544   5.782   7.947 -0.4752  0.5450 -0.7515
  591MOL0     C81481   1.642   5.786   8.071  0.1165  0.4518 -0.5019
  591MOL0     C81482   1.783   5.819   8.024  0.6122  0.3336  0.6897
  591MOL0     C81483   1.866   5.855   8.147  0.0593 -0.2987  0.6279
  591MOL0     C81484   1.997   5.899   8.102 -0.0569 -0.2576 -0.6116
  591MOL0     C81485   2.109   5.931   8.064  1.0516 -0.4056  0.3662
  591MOL0     C81486   1.405   5.840   7.697  0.5169 -0.1786 -0.6969
  591MOL0     C81487   1.348   5.855   7.568  0.4515 -0.4565  1.0027
  591MOL0     C81488   1.222   5.783   7.538  0.4370 -0.4602 -0.3351
  591MOL0     H81489   1.116   6.159   7.264 -3.4630  1.0816 -1.7678
  591MOL0     H81490   1.007   6.289   7.084 -0.6262  1.7481  2.6841
  591MOL0     H81491   0.987   6.518   6.958 -2.9175  1.0899 -0.6587
  591MOL0     H81492   0.940   6.371   6.867  0.7791 -0.4379 -0.4114
  591MOL0     H81493   1.032   6.494   6.664  3.0317  0.8481  1.2364
  591MOL0     H81494   0.864   6.534   6.725  0.1550  0.8253 -0.3707
  591MOL0     H81495   0.954   6.718   6.854 -1.9443  0.8169 -0.1910
  591MOL0     H81496   1.112   6.694   6.816 -1.9598 -0.4324  1.9701
  591MOL0     H81497   1.021   6.715   6.551  1.8233  0.9772 -1.1040
  591MOL0     H81498   0.893   6.798   6.632  1.0088 -0.9882 -3.5207
  591MOL0     H81499   1.187   6.844   6.664  0.6493 -0.0697  1.2138
  591MOL0     H81500   1.070   6.950   6.744  1.4346 -0.9475  0.7046
  591MOL0     H81501   1.091   6.904   6.440  0.0429  0.9785 -0.4821
  591MOL0     H81502   0.981   7.017   6.513 -0.1220 -0.3286  0.9683
  591MOL0     H81503   1.287   7.051   6.527 -0.5908  0.2263  2.3024
  591MOL0     H81504   1.170   7.143   6.610 -0.7547  0.5958 -1.0420
  591MOL0     H81505   1.181   7.104   6.299  0.3819 -1.4076 -0.4809
  591MOL0     H81506   1.046   7.192   6.385  0.1440  1.7953  1.5288
  591MOL0     H81507   1.100   7.404   6.549 -1.0080  1.6823 -1.5660
  591MOL0     H81508   1.335   7.640   6.577 -0.7537 -0.1759  0.5001
  591MOL0     H81509   1.172   7.606   6.597  0.5892 -1.3334 -1.4561
  591MOL0     H81510   1.319   7.772   6.382  0.1092 -1.2235  0.5150
  591MOL0     H81511   1.156   7.724   6.345 -0.3358  1.1332 -0.0967
  591MOL0     H81512   1.062   7.822   6.541  1.0897 -0.8198  1.3601
  591MOL0     H81513   1.229   7.885   6.588  1.8992 -0.9978 -0.6826
  591MOL0     H81514   1.120   8.083   6.506  0.0661  1.7760 -3.6746
  591MOL0     H81515   1.213   8.021   6.386 -0.2285 -1.1854 -0.5646
  591MOL0     H81516   0.793   8.000   6.211  0.3596 -2.9874  0.8600
  591MOL0     H81517   0.537   8.180   6.222  0.8469 -0.3249  0.2202
  591MOL0     H81518   0.433   8.064   6.295 -1.6239  1.1752 -0.9103
  591MOL0     H81519   0.535   8.002   6.173  0.4209  1.5528 -0.9851
  591MOL0     H81520   0.386   8.413   6.690  2.6951 -1.1977  2.0392
  591MOL0     H81521   0.157   8.464   6.790 -2.7927 -0.0088  2.7528
  591MOL0     H81522   0.096   8.394   7.101  2.2301  0.6817 -2.3443
  591MOL0     H81523   0.030   8.488   6.964  1.2760  1.2817  2.6340
  591MOL0     H81524  -0.192   8.387   7.004  0.2182 -2.5147 -0.6415
  591MOL0     H81525  -0.150   8.318   7.155  0.1441  0.9004  0.3926
  591MOL0     H81526  -0.263   8.542   7.166 -1.1509 -0.0651 -2.2546
  591MOL0     H81527  -0.116   8.606   7.097  0.8225 -3.5475 -2.3033
  591MOL0     H81528   0.024   8.516   7.291  0.4824 -1.2720 -1.0554
  591MOL0     H81529  -0.120   8.460   7.370  1.1505 -1.1096 -1.9660
  591MOL0     H81530  -0.048   8.671   7.470  1.8464 -3.3233 -0.3170
  591MOL0     H81531  -0.056   8.748   7.315  2.0924 -0.5301  1.2019
  591MOL0     H81532  -0.305   8.712   7.305 -1.9168 -1.3530  0.8660
  591MOL0     H81533  -0.259   8.809   7.449 -1.7775 -0.8829  1.8288
  591MOL0     H81534  -0.338   8.514   7.439 -0.7512  0.1603  0.1282
  591MOL0     H81535  -0.426   8.643   7.517  1.2027  0.5817  0.0896
  591MOL0     H81536  -0.164   8.522   7.602  0.9923 -0.2125  1.4284
  591MOL0     H81537  -0.319   8.506   7.683  2.8145  0.0730  1.6036
  591MOL0     H81538   0.161   8.062   6.948  3.0188 -1.4544  0.3201
  591MOL0     H81539   0.372   8.015   6.831 -0.1018  0.4074  3.2898
  591MOL0     H81540   0.714   8.090   6.692  3.2540 -0.0308  1.2506
  591MOL0     H81541   0.936   8.036   6.616 -0.3229 -3.0829 -1.2660
  591MOL0     H81542   1.386   6.326   6.891 -2.1671  1.5552  0.0228
  591MOL0     H81543   1.505   6.229   7.089 -0.0748  0.7363 -0.6057
  591MOL0     H81544   1.561   6.111   7.471 -4.0468  3.0837  0.0406
  591MOL0     H81545   1.652   6.064   7.704  0.1308  1.1955 -2.2614
  591MOL0     H81546   1.441   5.776   7.982  0.0454  1.7540  1.1497
  591MOL0     H81547   1.553   5.686   7.895 -0.6769 -0.2358  0.6189
  591MOL0     H81548   1.638   5.694   8.129 -0.6983  0.2382 -0.8787
  591MOL0     H81549   1.601   5.865   8.134  2.9071  0.3753  1.5793
  591MOL0     H81550   1.834   5.737   7.972 -2.2584 -0.6253 -0.8252
  591MOL0     H81551   1.785   5.902   7.953  0.0249 -0.6266 -0.4930
  591MOL0     H81552   1.882   5.772   8.216  0.8026  0.4820  1.4165
  591MOL0     H81553   1.822   5.941   8.199 -0.1949  0.7853 -1.2646
  591MOL0     H81554   2.202   5.969   8.029  0.3936  0.2310 -0.7439
  591MOL0     H81555   1.363   5.766   7.764  1.1553  0.4142  0.3977
  591MOL0     H81556   1.161   5.760   7.625  0.5116 -1.8035 -0.6037
  591MOL0     H81557   1.158   5.832   7.465  0.1989 -0.2025  0.0471
  591MOL0     H81558   1.246   5.688   7.488  0.7192 -0.7118  0.2691
  592MOL0     O81559   8.298   4.871  10.760 -0.1216 -0.1662  0.1965
  592MOL0     C81560   8.312   4.819  10.868  0.1920 -0.2069 -0.0873
  592MOL0     O81561   8.316   4.685  10.896 -0.4351 -0.2593 -0.6074
  592MOL0     C81562   8.347   4.591  10.801  0.2862 -1.3555 -0.3003
  592MOL0     C81563   8.403   4.614  10.670 -0.5660  0.3071  0.5952
  592MOL0     C81564   8.453   4.508  10.589  0.1799  0.1923  0.8680
  592MOL0     C81565   8.444   4.384  10.645  1.1383  0.9543 -0.2759
  592MOL0     O81566   8.497   4.275  10.583 -0.1927  0.2146  0.0288
  592MOL0     C81567   8.639   4.265  10.595 -0.2251 -0.3412  0.4148
  592MOL0     C81568   8.674   4.216  10.733  0.2023 -0.2047 -0.2848
  592MOL0     C81569   8.827   4.209  10.752  0.0563 -0.6853  0.2115
  592MOL0     C81570   8.855   4.114  10.870  0.4007 -0.3006 -0.0508
  592MOL0     C81571   9.007   4.105  10.896  1.2616 -0.0254  0.2829
  592MOL0     C81572   9.072   4.004  10.798  0.8603  0.9347 -0.4544
  592MOL0     C81573   9.225   4.007  10.805 -0.8142  0.1248 -0.0565
  592MOL0     C81574   9.304   4.049  10.682 -0.1461  0.0860  0.7283
  592MOL0     N81575   9.291   4.195  10.655  0.0940 -0.5239 -0.3914
  592MOL0     C81576   9.356   4.289  10.723 -0.0474  0.2480 -0.2730
  592MOL0     C81577   9.301   4.399  10.680 -0.0127 -0.5148  1.0975
  592MOL0     C81578   9.318   4.539  10.739 -0.8982  0.2458  0.4675
  592MOL0     C81579   9.346   4.646  10.631 -0.4745 -0.7384  0.1957
  592MOL0     C81580   9.320   4.781  10.695 -0.2783  0.2224 -0.4532
  592MOL0     C81581   9.329   4.896  10.602  0.1159  0.4383  0.1272
  592MOL0     O81582   9.222   4.880  10.506  0.0964 -0.7899 -0.3448
  592MOL0     C81583   9.181   4.988  10.429  0.0619 -0.8718 -0.2895
  592MOL0     C81584   9.061   4.980  10.362 -0.1283  0.4687  0.6642
  592MOL0     C81585   9.008   5.083  10.277 -0.0932 -1.2726 -0.0810
  592MOL0     C81586   8.886   5.055  10.204  0.1824  0.0854  0.2478
  592MOL0     C81587   9.078   5.209  10.270  0.4364  0.0712 -0.2962
  592MOL0     C81588   9.046   5.325  10.183 -0.0359 -0.6659  0.2886
  592MOL0     O81589   8.932   5.331  10.116  0.5314 -0.7764 -0.1664
  592MOL0     C81590   8.898   5.438  10.041 -0.1453  0.2513 -0.3914
  592MOL0     C81591   8.948   5.471   9.920 -0.0110  0.3968 -0.4863
  592MOL0     C81592   8.890   5.569   9.840 -0.3572  0.1224 -0.2044
  592MOL0     C81593   8.769   5.629   9.884 -0.2455  0.0705 -0.5015
  592MOL0     O81594   8.715   5.732   9.825  0.1434  0.5142 -0.4485
  592MOL0     C81595   8.778   5.785   9.706 -0.2754  0.3903  0.4872
  592MOL0     C81596   8.721   5.922   9.675 -0.3898  0.9049  1.2510
  592MOL0     C81597   8.775   6.028   9.776  0.0668 -0.0900  0.4883
  592MOL0     C81598   8.912   6.079   9.743  0.1214 -0.1346  0.5889
  592MOL0     C81599   8.968   6.196   9.825 -0.7299 -0.2474 -0.0414
  592MOL0     C81600   8.893   6.328   9.805  0.1066 -0.0139 -0.3853
  592MOL0     C81601   8.955   6.437   9.885 -1.1467 -0.2913  0.6040
  592MOL0     C81602   8.909   6.433  10.023  0.0106 -0.3484  1.0133
  592MOL0    Cl81603   9.015   6.544  10.112  0.8376 -0.1539  0.2505
  592MOL0     C81604   8.712   5.586  10.001 -0.4368 -0.1067 -0.3850
  592MOL0     C81605   8.774   5.488  10.076 -0.0751 -0.8464 -0.3278
  592MOL0     O81606   9.127   5.417  10.180 -0.7370  0.6960 -0.0721
  592MOL0     C81607   9.195   5.210  10.345 -0.8992  0.4971  0.0992
  592MOL0     C81608   9.248   5.113  10.421 -0.0616 -1.2849  1.4464
  592MOL0     N81609   9.213   4.375  10.572 -0.5979  0.6949 -0.3400
  592MOL0     N81610   9.208   4.239  10.553  0.3495 -0.2752  0.0698
  592MOL0     C81611   8.384   4.367  10.773 -0.3400  0.6147 -0.5839
  592MOL0     C81612   8.335   4.468  10.850 -0.5954  0.1294 -0.3965
  592MOL0     C81613   8.286   4.907  10.980  0.6808  0.4913  1.1731
  592MOL0     C81614   8.233   4.850  11.097  0.9059 -0.6730  0.6050
  592MOL0     C81615   8.215   4.922  11.208 -0.3698 -0.3741 -0.2050
  592MOL0     C81616   8.241   5.059  11.210  1.1678  0.7084  0.2319
  592MOL0     O81617   8.226   5.134  11.328  0.0289 -0.0286 -0.1066
  592MOL0     C81618   8.298   5.080  11.431  0.9578  0.5301  0.2948
  592MOL0     C81619   8.325   5.188  11.530 -0.3305  0.1856 -0.4100
  592MOL0     C81620   8.428   5.305  11.494  0.0815  0.9840 -0.2937
  592MOL0     C81621   8.571   5.255  11.470  0.3732  0.3036  0.2808
  592MOL0     C81622   8.630   5.166  11.567  0.7034 -0.1934  0.1678
  592MOL0     C81623   8.680   5.085  11.646 -0.5689 -0.2246  0.8531
  592MOL0     C81624   8.282   5.122  11.097  0.1809  0.0398 -0.2470
  592MOL0     C81625   8.317   5.046  10.977  0.2169 -0.1769  0.4930
  592MOL0     C81626   8.366   5.129  10.856  0.7085  0.0974 -0.6536
  592MOL0     H81627   8.416   4.714  10.629  1.7913 -0.3072 -0.3400
  592MOL0     H81628   8.496   4.524  10.490  2.0718 -0.6307  1.5061
  592MOL0     H81629   8.687   4.363  10.604 -1.0437 -0.0782  2.5367
  592MOL0     H81630   8.696   4.214  10.517 -0.9403  1.6168 -1.5012
  592MOL0     H81631   8.632   4.274  10.816 -0.3166 -1.4687  0.3536
  592MOL0     H81632   8.639   4.114  10.748  2.2720 -0.6945  1.7411
  592MOL0     H81633   8.880   4.177  10.662  0.6635 -0.5606  0.5237
  592MOL0     H81634   8.869   4.306  10.778  0.9239 -0.2286 -2.5600
  592MOL0     H81635   8.805   4.162  10.954 -1.0978  2.6641 -2.4185
  592MOL0     H81636   8.807   4.017  10.881  2.4918 -1.3524  0.4743
  592MOL0     H81637   9.036   4.070  10.995  1.4817  0.2953  0.3340
  592MOL0     H81638   9.055   4.202  10.882  2.9733 -1.0347 -1.3591
  592MOL0     H81639   9.042   3.900  10.813  3.1680  0.5061  1.9615
  592MOL0     H81640   9.040   4.041  10.700  1.3041 -0.6522 -1.2411
  592MOL0     H81641   9.262   3.909  10.836  3.1217  1.7910  1.0759
  592MOL0     H81642   9.271   4.073  10.878 -0.8651 -0.7930  0.8361
  592MOL0     H81643   9.408   4.024  10.703 -0.6225 -2.1287  0.7491
  592MOL0     H81644   9.270   3.987  10.598 -0.3987 -0.5200  1.2715
  592MOL0     H81645   9.439   4.281  10.793  0.3794  0.1041 -0.7861
  592MOL0     H81646   9.409   4.536  10.800  1.2081  2.1873 -2.3177
  592MOL0     H81647   9.231   4.561  10.801 -2.0559 -4.1695  0.8063
  592MOL0     H81648   9.450   4.640  10.599  0.3164  3.0256  1.4938
  592MOL0     H81649   9.288   4.636  10.539 -0.1410  0.8842 -0.2258
  592MOL0     H81650   9.226   4.780  10.751 -0.5313 -3.4180 -0.7292
  592MOL0     H81651   9.389   4.790  10.779  0.8504  1.4542 -1.4726
  592MOL0     H81652   9.336   4.990  10.656 -1.0692 -0.3014  1.6456
  592MOL0     H81653   9.417   4.880  10.539  0.1413  1.1388 -0.0269
  592MOL0     H81654   9.010   4.886  10.380  1.2271 -0.1253  1.6043
  592MOL0     H81655   8.799   5.109  10.242  1.3917  2.3977 -0.0546
  592MOL0     H81656   8.869   4.947  10.205  2.3498 -0.3028  0.5058
  592MOL0     H81657   8.887   5.089  10.100 -3.7559  1.2430  0.4329
  592MOL0     H81658   9.034   5.417   9.881 -1.4963 -1.9408 -0.6947
  592MOL0     H81659   8.946   5.587   9.749  1.8210  1.8732  1.3834
  592MOL0     H81660   8.888   5.790   9.709 -0.1357 -1.9951  1.4706
  592MOL0     H81661   8.751   5.717   9.625  0.7005  0.0013  0.4741
  592MOL0     H81662   8.747   5.959   9.575 -2.0199 -0.0028  0.4570
  592MOL0     H81663   8.612   5.915   9.678 -0.3505  0.4688  1.7765
  592MOL0     H81664   8.766   5.976   9.872 -0.2991 -3.4958 -1.2316
  592MOL0     H81665   8.710   6.116   9.770 -0.6053 -0.5982  0.1319
  592MOL0     H81666   8.913   6.127   9.645  1.4365  3.1495  2.0683
  592MOL0     H81667   8.979   5.993   9.738 -1.3575 -1.2848 -0.4663
  592MOL0     H81668   8.962   6.168   9.931  1.8624  0.1265  0.2612
  592MOL0     H81669   9.073   6.210   9.799 -0.3339 -4.4922 -1.5564
  592MOL0     H81670   8.790   6.328   9.842  0.4017  3.4104  0.7072
  592MOL0     H81671   8.893   6.348   9.698 -0.6185  0.9485 -0.2067
  592MOL0     H81672   8.930   6.530   9.834 -0.6648  0.1365  1.1365
  592MOL0     H81673   9.064   6.426   9.876 -1.3622 -1.4922 -1.0477
  592MOL0     H81674   8.918   6.336  10.074  2.0944  0.1190  1.6134
  592MOL0     H81675   8.804   6.462  10.031  0.1552  0.3071  0.5837
  592MOL0     H81676   8.627   5.641  10.040 -1.6447 -2.6573  0.8201
  592MOL0     H81677   8.738   5.474  10.177  3.0119  1.4980  1.2669
  592MOL0     H81678   9.250   5.303  10.335 -1.7110  1.4478  3.4216
  592MOL0     H81679   9.334   5.123  10.487 -0.5911 -1.0178  2.1158
  592MOL0     H81680   8.380   4.264  10.808 -0.9436  0.7910 -0.1295
  592MOL0     H81681   8.308   4.446  10.953  1.2031  1.2872  0.3683
  592MOL0     H81682   8.208   4.744  11.099  0.4346 -0.5694  2.8029
  592MOL0     H81683   8.185   4.868  11.297  1.9575  0.7106  1.3340
  592MOL0     H81684   8.238   4.995  11.465 -3.0132  1.6183 -3.0889
  592MOL0     H81685   8.394   5.043  11.394  1.5041  0.6917  1.5102
  592MOL0     H81686   8.355   5.148  11.627 -6.1666  0.6243  1.9580
  592MOL0     H81687   8.230   5.237  11.553 -2.0742 -3.2502  0.3235
  592MOL0     H81688   8.395   5.358  11.404  1.3316 -0.9693 -2.0182
  592MOL0     H81689   8.430   5.373  11.579  2.1692  0.3209  0.2476
  592MOL0     H81690   8.630   5.347  11.469 -1.4849  1.5799  0.9971
  592MOL0     H81691   8.567   5.207  11.372  2.6944  0.4235  0.0829
  592MOL0     H81692   8.728   5.025  11.721 -0.5682 -2.2104 -0.6463
  592MOL0     H81693   8.286   5.231  11.100 -4.0249  0.4388  3.8586
  592MOL0     H81694   8.307   5.118  10.764 -2.1670 -0.9737  1.1911
  592MOL0     H81695   8.376   5.233  10.889 -0.6905 -0.3432  1.3392
  592MOL0     H81696   8.466   5.086  10.840  0.9527 -0.0672  1.1397
  593MOL0     O81697   7.202   7.088  11.328  0.7875 -0.1636  0.2153
  593MOL0     C81698   7.322   7.123  11.358 -0.3117  0.4684 -0.6612
  593MOL0     O81699   7.431   7.049  11.335  0.2832 -0.1675 -1.3090
  593MOL0     C81700   7.441   6.935  11.261 -0.2197 -0.1272  0.7868
  593MOL0     C81701   7.352   6.885  11.165  0.8070  0.5927  0.3415
  593MOL0     C81702   7.382   6.771  11.078  0.0623  0.2468 -1.2135
  593MOL0     C81703   7.513   6.709  11.098 -0.0872 -0.2061  0.4931
  593MOL0     O81704   7.559   6.607  11.018 -0.6441  0.0279 -0.2491
  593MOL0     C81705   7.491   6.573  10.904 -0.3810  0.3192  0.4198
  593MOL0     C81706   7.585   6.476  10.821  0.5490  0.5139  1.0253
  593MOL0     C81707   7.597   6.325  10.866  0.5724  0.3740  0.5037
  593MOL0     C81708   7.714   6.264  10.787 -0.2518 -0.1820 -0.8297
  593MOL0     C81709   7.756   6.120  10.827  0.2338  0.0345  0.9024
  593MOL0     C81710   7.778   6.087  10.972 -0.2086  0.0404 -0.2617
  593MOL0     C81711   7.872   5.969  10.998  0.3195 -0.4488  0.1469
  593MOL0     C81712   7.852   5.908  11.132 -0.1444  0.0123  0.5112
  593MOL0     N81713   7.920   5.789  11.153 -0.4937 -0.5257 -0.5719
  593MOL0     C81714   8.052   5.767  11.143  0.2244  0.1787 -0.3214
  593MOL0     C81715   8.084   5.642  11.190 -0.1642 -0.2082 -0.1628
  593MOL0     C81716   8.215   5.570  11.194  0.1951  0.0189 -0.5483
  593MOL0     C81717   8.310   5.640  11.294 -0.1693  0.0959 -0.5585
  593MOL0     C81718   8.383   5.766  11.244 -0.2302 -0.6317 -0.3736
  593MOL0     C81719   8.506   5.814  11.338  0.6393 -0.4583  0.8662
  593MOL0     O81720   8.596   5.699  11.353 -0.7007 -0.1123 -0.8347
  593MOL0     C81721   8.709   5.711  11.437 -0.2552  1.0379  0.1253
  593MOL0     C81722   8.727   5.811  11.526  0.4647  0.0147 -0.5320
  593MOL0     C81723   8.845   5.805  11.603  0.3848 -0.3922 -0.3940
  593MOL0     C81724   8.856   5.932  11.696 -0.8192  0.3273 -0.9299
  593MOL0     C81725   8.929   5.692  11.611  0.8181 -0.2315  0.7324
  593MOL0     C81726   9.033   5.686  11.698  0.3780 -0.2515 -0.4908
  593MOL0     O81727   9.042   5.571  11.763 -0.9240  0.3729 -0.8524
  593MOL0     C81728   9.144   5.544  11.855  0.6987 -0.8595 -0.7648
  593MOL0     C81729   9.214   5.639  11.936 -0.2197  0.2593 -0.3685
  593MOL0     C81730   9.313   5.593  12.026 -0.0544  0.1053 -0.3510
  593MOL0     C81731   9.350   5.458  12.030  0.1191 -0.2912  0.3000
  593MOL0     O81732   9.466   5.439  12.102  0.7481  0.0101  0.4005
  593MOL0     C81733   9.490   5.312  12.166 -1.1560 -0.1335  0.5236
  593MOL0     C81734   9.636   5.278  12.126  0.6247  0.1151  0.4751
  593MOL0     C81735   9.694   5.149  12.203  0.3089 -0.7827 -0.1605
  593MOL0     C81736   9.647   5.001  12.174 -0.5120  0.3021  0.3050
  593MOL0     C81737   9.683   4.953  12.033  0.3037  0.5477 -0.5966
  593MOL0     C81738   9.611   4.821  12.003 -0.1045 -0.2315  0.3561
  593MOL0     C81739   9.625   4.718  12.115 -0.0541  0.8941  0.3180
  593MOL0     C81740   9.589   4.576  12.063  0.9301  0.0060 -0.4886
  593MOL0    Cl81741   9.730   4.480  12.027  0.1633 -0.1357 -0.1622
  593MOL0     C81742   9.280   5.362  11.951  0.4813  0.0068 -0.3830
  593MOL0     C81743   9.177   5.408  11.872  0.8826 -0.1409  0.4374
  593MOL0     O81744   9.104   5.785  11.704 -0.6732 -0.4715 -0.1244
  593MOL0     C81745   8.901   5.586  11.522 -0.4591 -0.3954  0.4967
  593MOL0     C81746   8.797   5.598  11.435  0.0972 -0.4678 -0.4697
  593MOL0     N81747   7.956   5.590  11.225 -0.0894  0.9460 -0.9536
  593MOL0     N81748   7.862   5.673  11.195 -0.7374 -0.0584  0.2691
  593MOL0     C81749   7.603   6.757  11.191  0.0592  0.0317 -0.0924
  593MOL0     C81750   7.567   6.867  11.278 -0.2812  0.4990 -0.0012
  593MOL0     C81751   7.343   7.243  11.432 -0.3548  0.0007 -0.5324
  593MOL0     C81752   7.449   7.253  11.525  0.1678  0.1724  0.5625
  593MOL0     C81753   7.460   7.376  11.600  0.3622  0.3473 -0.3585
  593MOL0     C81754   7.378   7.487  11.588 -0.5919 -0.7596 -0.6586
  593MOL0     O81755   7.385   7.594  11.670  0.7367 -0.8066  0.0280
  593MOL0     C81756   7.268   7.614  11.757 -0.4088  0.2152 -0.3978
  593MOL0     C81757   7.284   7.519  11.875 -0.3839 -0.4220  0.5585
  593MOL0     C81758   7.184   7.558  11.978  0.5370  0.7249 -1.0022
  593MOL0     C81759   7.161   7.449  12.080 -0.0936 -0.6870  0.2266
  593MOL0     C81760   7.050   7.497  12.157 -0.1632 -0.2676 -0.3540
  593MOL0     C81761   6.950   7.546  12.209  0.2608 -0.5417  1.0892
  593MOL0     C81762   7.280   7.478  11.485 -0.5275 -0.4057 -0.2329
  593MOL0     C81763   7.266   7.364  11.409  0.4082  0.4689  0.6850
  593MOL0     C81764   7.159   7.376  11.304  0.9207 -0.0802  0.1064
  593MOL0     H81765   7.255   6.928  11.140  2.0177  2.3105 -1.8249
  593MOL0     H81766   7.305   6.727  11.015 -1.2972 -0.5324  0.8906
  593MOL0     H81767   7.468   6.669  10.857 -0.4733  0.4448  0.7179
  593MOL0     H81768   7.401   6.517  10.931  1.3772 -2.0376  1.7019
  593MOL0     H81769   7.546   6.474  10.719  0.0714 -0.7937  1.2051
  593MOL0     H81770   7.686   6.519  10.822 -1.0631  4.8818 -0.8375
  593MOL0     H81771   7.616   6.314  10.973  0.6043  0.3683  0.4975
  593MOL0     H81772   7.515   6.265  10.826  2.0294 -1.1799 -0.3256
  593MOL0     H81773   7.671   6.246  10.688 -0.8336 -6.4879  0.1413
  593MOL0     H81774   7.798   6.333  10.795 -1.7885  2.0785 -2.8040
  593MOL0     H81775   7.846   6.085  10.775 -0.6970 -4.7517  2.0516
  593MOL0     H81776   7.678   6.054  10.790  0.8916 -1.2555  1.7232
  593MOL0     H81777   7.827   6.176  11.014  1.4113 -0.2925 -1.3280
  593MOL0     H81778   7.683   6.071  11.024  0.4717 -1.3382  0.6101
  593MOL0     H81779   7.972   6.012  10.993 -0.4265  1.9752  3.0042
  593MOL0     H81780   7.846   5.898  10.919 -4.1829 -0.3100  1.2263
  593MOL0     H81781   7.886   5.971  11.214 -0.1630 -3.1601  3.1562
  593MOL0     H81782   7.744   5.892  11.142 -0.1993 -0.2035 -0.3272
  593MOL0     H81783   8.127   5.836  11.108  0.7443  0.7814  1.7957
  593MOL0     H81784   8.260   5.566  11.095  0.7402  1.2320 -0.3679
  593MOL0     H81785   8.197   5.470  11.235 -0.6502  0.3714 -0.0364
  593MOL0     H81786   8.255   5.645  11.389  0.2039  1.0539 -0.3817
  593MOL0     H81787   8.396   5.578  11.319 -1.0513 -0.4230  1.3901
  593MOL0     H81788   8.420   5.732  11.147  3.8959 -0.7912  1.0575
  593MOL0     H81789   8.320   5.854  11.227 -3.9454 -3.4074 -2.2731
  593MOL0     H81790   8.557   5.904  11.302 -0.7393  0.7709  1.8608
  593MOL0     H81791   8.464   5.829  11.438 -1.0066  2.7439 -0.1628
  593MOL0     H81792   8.660   5.897  11.527  0.3329 -0.0587 -1.5275
  593MOL0     H81793   8.762   5.967  11.738 -0.2001  2.2698 -1.0658
  593MOL0     H81794   8.893   6.015  11.634  0.0508  1.2956  0.8159
  593MOL0     H81795   8.932   5.916  11.773 -1.4317  0.6115 -0.2596
  593MOL0     H81796   9.191   5.744  11.927 -0.5620  0.2981  0.7905
  593MOL0     H81797   9.377   5.665  12.076  0.7104  0.4402 -1.7494
  593MOL0     H81798   9.495   5.319  12.276  2.4260 -0.9998  0.5576
  593MOL0     H81799   9.426   5.230  12.133 -0.9124 -0.3817  0.6631
  593MOL0     H81800   9.652   5.256  12.020 -0.8928  0.8178  0.0815
  593MOL0     H81801   9.700   5.363  12.153  1.8741  0.2217 -2.4587
  593MOL0     H81802   9.676   5.158  12.311  3.2108  2.7084  0.2159
  593MOL0     H81803   9.803   5.156  12.198  0.2410  1.2681  0.3256
  593MOL0     H81804   9.540   4.996  12.193 -0.6719 -0.8536 -0.7607
  593MOL0     H81805   9.715   4.943  12.238  0.3913  1.5021  0.4837
  593MOL0     H81806   9.656   5.030  11.960  1.9467  0.9098 -0.8529
  593MOL0     H81807   9.790   4.932  12.027  0.0135 -2.4525  1.9961
  593MOL0     H81808   9.653   4.780  11.911 -2.1130 -1.6181  0.0018
  593MOL0     H81809   9.504   4.845  12.005 -0.7779 -2.9765  0.7345
  593MOL0     H81810   9.568   4.750  12.202 -0.6972  0.8186 -0.0741
  593MOL0     H81811   9.724   4.705  12.160  1.2722  1.3884 -2.2610
  593MOL0     H81812   9.522   4.590  11.978  1.4389  3.6831 -0.4545
  593MOL0     H81813   9.535   4.521  12.141  0.8322  0.2466 -0.3862
  593MOL0     H81814   9.300   5.256  11.946 -2.1900 -0.4793 -2.4401
  593MOL0     H81815   9.116   5.330  11.826  0.6123 -0.9196  2.0577
  593MOL0     H81816   8.963   5.498  11.508 -0.6741 -0.6070  0.8366
  593MOL0     H81817   8.776   5.526  11.357 -2.8762  0.9830 -1.1585
  593MOL0     H81818   7.700   6.708  11.202 -1.0095 -3.1985 -2.9943
  593MOL0     H81819   7.636   6.909  11.350 -0.2870  1.6634 -0.6557
  593MOL0     H81820   7.520   7.174  11.548 -0.9141 -0.5148  1.6915
  593MOL0     H81821   7.542   7.377  11.671  0.5778 -0.0655 -0.5976
  593MOL0     H81822   7.282   7.715  11.796  2.6271 -1.2274  2.8432
  593MOL0     H81823   7.170   7.599  11.711 -2.5460 -1.8695  4.2626
  593MOL0     H81824   7.385   7.532  11.916  0.6539 -0.0578 -1.9322
  593MOL0     H81825   7.285   7.419  11.832  0.7969  0.3936 -1.4752
  593MOL0     H81826   7.220   7.648  12.030 -0.0921  1.1388 -1.2801
  593MOL0     H81827   7.091   7.579  11.925  1.2614  3.7575 -1.2637
  593MOL0     H81828   7.250   7.421  12.138 -0.1404  1.0568  1.1943
  593MOL0     H81829   7.132   7.362  12.020 -0.4557 -0.4870  0.1132
  593MOL0     H81830   6.862   7.588  12.253 -0.2959  0.9083 -1.2201
  593MOL0     H81831   7.215   7.563  11.470  2.1410  1.5195 -1.7098
  593MOL0     H81832   7.201   7.348  11.207 -0.2667  0.7618 -0.6873
  593MOL0     H81833   7.070   7.315  11.324  0.3339 -0.2214 -2.6167
  593MOL0     H81834   7.118   7.477  11.308  0.5090 -0.2738  2.0294
  594MOL0     O81835   5.042   2.942   8.739 -0.4661  0.5274 -0.6119
  594MOL0     C81836   5.085   3.025   8.657  0.3655  0.0225 -0.7627
  594MOL0     O81837   5.097   3.007   8.532  0.2522  0.4352  0.2612
  594MOL0     C81838   5.070   2.883   8.474  0.4446 -0.0644 -0.4923
  594MOL0     C81839   4.946   2.835   8.480 -0.1049  0.1057 -0.4301
  594MOL0     C81840   4.911   2.719   8.415 -0.1008  0.0635  0.0366
  594MOL0     C81841   5.007   2.644   8.352  0.5749  0.4520 -0.5127
  594MOL0     O81842   4.969   2.529   8.282 -0.3225  0.8844 -1.0301
  594MOL0     C81843   4.851   2.522   8.217  0.2375 -0.5802 -0.8591
  594MOL0     C81844   4.731   2.465   8.291  0.0115 -0.2460 -0.0566
  594MOL0     C81845   4.788   2.329   8.351 -0.8970  0.1550 -0.6748
  594MOL0     C81846   4.683   2.233   8.416  0.6796 -1.0280  0.7071
  594MOL0     C81847   4.754   2.125   8.493 -0.3400 -0.3714  0.3426
  594MOL0     C81848   4.654   2.029   8.577 -0.7481  0.0197  0.5001
  594MOL0     C81849   4.565   2.097   8.693 -0.0995 -0.2899  0.1056
  594MOL0     C81850   4.515   1.973   8.780  0.0145  0.5425 -0.1939
  594MOL0     N81851   4.605   1.948   8.887  0.8425  0.0846 -0.3307
  594MOL0     C81852   4.613   2.016   9.007  0.5979  0.0975 -0.1998
  594MOL0     C81853   4.700   1.939   9.079  0.6155 -0.5100  0.0657
  594MOL0     C81854   4.756   1.957   9.216 -0.7599 -0.0245  0.1455
  594MOL0     C81855   4.773   1.815   9.278  0.2905 -0.3390 -0.1664
  594MOL0     C81856   4.813   1.813   9.427  0.7094 -0.7325 -0.1589
  594MOL0     C81857   4.803   1.670   9.487  0.4866 -1.0923  1.2766
  594MOL0     O81858   4.885   1.590   9.421 -0.2457  0.1814  0.3093
  594MOL0     C81859   5.004   1.554   9.484  0.2352  0.5057 -0.5327
  594MOL0     C81860   5.071   1.613   9.588 -1.5467 -0.1047 -1.2454
  594MOL0     C81861   5.187   1.564   9.651  0.4159  0.1233  1.1461
  594MOL0     C81862   5.238   1.631   9.765  0.2367 -0.1750  0.5072
  594MOL0     C81863   5.246   1.449   9.595 -0.2372 -0.6223 -0.0964
  594MOL0     C81864   5.379   1.396   9.641 -0.2333 -1.1572  0.1303
  594MOL0     O81865   5.463   1.469   9.724  0.2929 -0.3418 -0.4895
  594MOL0     C81866   5.599   1.481   9.711 -0.4638 -0.0336  0.3796
  594MOL0     C81867   5.675   1.392   9.645  0.2671  0.1662 -1.4429
  594MOL0     C81868   5.809   1.402   9.623 -0.1759 -0.2163 -0.5792
  594MOL0     C81869   5.875   1.517   9.671 -1.1530 -0.1068  0.0517
  594MOL0     O81870   6.005   1.552   9.657  0.8442 -0.3536 -0.2934
  594MOL0     C81871   6.072   1.511   9.537 -0.2868 -1.1532  0.3739
  594MOL0     C81872   6.216   1.571   9.561  0.1473  0.7810  0.5055
  594MOL0     C81873   6.297   1.566   9.426 -0.1929 -0.2757 -0.7008
  594MOL0     C81874   6.422   1.646   9.426  0.5913  0.2468 -0.3351
  594MOL0     C81875   6.503   1.643   9.302  0.3802  0.2212  0.2514
  594MOL0     C81876   6.594   1.519   9.294  0.6056  1.1732 -0.3554
  594MOL0     C81877   6.705   1.524   9.185  0.5937  0.6636  0.5004
  594MOL0     C81878   6.834   1.601   9.224  0.0776  0.4260  0.2155
  594MOL0    Cl81879   6.928   1.495   9.341  0.1900  0.3215  0.0497
  594MOL0     C81880   5.804   1.605   9.750  1.0901 -0.0721 -0.5288
  594MOL0     C81881   5.662   1.590   9.767 -0.0444  0.0503  1.0752
  594MOL0     O81882   5.398   1.278   9.602 -0.4913 -0.4169  0.7904
  594MOL0     C81883   5.184   1.388   9.476 -0.9083 -0.0838 -1.3959
  594MOL0     C81884   5.073   1.448   9.423 -0.0646 -0.8619  0.0482
  594MOL0     N81885   4.748   1.835   8.999 -0.0226 -0.2366 -0.0265
  594MOL0     N81886   4.691   1.839   8.887  0.7220 -0.4175  0.2208
  594MOL0     C81887   5.133   2.690   8.340 -0.2002 -1.3038 -0.0338
  594MOL0     C81888   5.172   2.817   8.398 -1.2773  0.2083 -0.2539
  594MOL0     C81889   5.120   3.160   8.718  0.8663  0.9799  0.0719
  594MOL0     C81890   5.121   3.168   8.863 -0.1236  0.2940 -1.0395
  594MOL0     C81891   5.152   3.294   8.919 -0.4733  0.1113 -1.5771
  594MOL0     C81892   5.185   3.409   8.851 -0.2710  0.0679 -0.7158
  594MOL0     O81893   5.206   3.524   8.919 -0.4084 -0.2832  0.9509
  594MOL0     C81894   5.313   3.602   8.871  0.4478 -0.0657  0.6701
  594MOL0     C81895   5.404   3.646   8.981  0.0639 -0.8046 -0.1318
  594MOL0     C81896   5.356   3.778   9.052 -0.7884  0.4125 -0.6597
  594MOL0     C81897   5.208   3.768   9.093 -0.8047  0.8454 -0.9623
  594MOL0     C81898   5.190   3.862   9.201  1.1533  0.3206 -0.7896
  594MOL0     C81899   5.179   3.944   9.292  0.0986  0.1806  0.9657
  594MOL0     C81900   5.189   3.395   8.713  0.5420 -0.5854  0.4564
  594MOL0     C81901   5.149   3.273   8.646  0.1431  0.4333 -0.6697
  594MOL0     C81902   5.156   3.270   8.495  0.6447 -0.9053 -0.3901
  594MOL0     H81903   4.874   2.894   8.535  0.8010  1.5305 -0.7187
  594MOL0     H81904   4.809   2.686   8.432  0.0504 -0.3513  0.1354
  594MOL0     H81905   4.859   2.482   8.115 -0.8789  1.4975 -1.8420
  594MOL0     H81906   4.825   2.625   8.190 -0.0583 -0.4462 -0.0741
  594MOL0     H81907   4.697   2.534   8.369  1.0538 -1.6849  1.7368
  594MOL0     H81908   4.644   2.424   8.238  1.2596  1.0069 -3.3201
  594MOL0     H81909   4.847   2.272   8.278 -0.3101  2.5325 -2.1650
  594MOL0     H81910   4.861   2.351   8.430 -0.7259 -2.5062  0.0069
  594MOL0     H81911   4.615   2.289   8.480  1.4339  3.8242 -2.3051
  594MOL0     H81912   4.627   2.185   8.336  0.6846 -0.8558  0.6005
  594MOL0     H81913   4.830   2.160   8.564  1.4056 -1.8986 -0.6752
  594MOL0     H81914   4.810   2.059   8.426 -1.2091  0.5122 -1.3032
  594MOL0     H81915   4.592   1.977   8.503 -0.5936  0.9786 -0.3267
  594MOL0     H81916   4.721   1.952   8.616  1.4442  2.5658  2.1376
  594MOL0     H81917   4.490   2.145   8.630  2.8402  0.3150 -3.2665
  594MOL0     H81918   4.620   2.167   8.757 -0.9102  0.1364  0.3531
  594MOL0     H81919   4.417   2.006   8.817 -1.2827 -2.4076 -0.6992
  594MOL0     H81920   4.495   1.888   8.715  1.1814 -1.6360  2.1210
  594MOL0     H81921   4.555   2.103   9.034 -1.3300 -0.9938 -0.6425
  594MOL0     H81922   4.691   2.027   9.270  1.2311  2.5522 -0.5905
  594MOL0     H81923   4.856   2.001   9.218 -0.3369 -0.9457 -0.3542
  594MOL0     H81924   4.677   1.763   9.266  0.4383 -1.0138  1.3778
  594MOL0     H81925   4.852   1.763   9.224  0.9020 -1.4646  1.7405
  594MOL0     H81926   4.918   1.838   9.441  1.3332 -1.8020 -2.3848
  594MOL0     H81927   4.752   1.876   9.492  2.1275 -0.4303  0.9090
  594MOL0     H81928   4.818   1.679   9.595  2.3092  2.2003  0.9035
  594MOL0     H81929   4.705   1.629   9.463 -0.1488  1.2955 -0.5463
  594MOL0     H81930   5.014   1.696   9.627 -2.1932 -1.4462  0.8459
  594MOL0     H81931   5.173   1.716   9.789  1.5900  1.2022 -0.4799
  594MOL0     H81932   5.329   1.684   9.735 -0.4473 -0.8523 -3.2021
  594MOL0     H81933   5.252   1.559   9.846  0.6065  2.0888  2.5660
  594MOL0     H81934   5.627   1.318   9.581 -0.7230  1.5910 -2.4111
  594MOL0     H81935   5.856   1.321   9.569  4.8556 -0.6002  3.5226
  594MOL0     H81936   6.087   1.402   9.529 -2.6926 -1.3922 -2.5372
  594MOL0     H81937   6.022   1.551   9.448  0.2141  1.1572  1.0731
  594MOL0     H81938   6.200   1.676   9.588  0.8503  1.1833 -0.6078
  594MOL0     H81939   6.273   1.514   9.635  0.2632 -1.1105 -0.9729
  594MOL0     H81940   6.238   1.592   9.338  1.1896 -2.9536 -2.5436
  594MOL0     H81941   6.337   1.465   9.409 -1.0639 -0.5361 -1.2497
  594MOL0     H81942   6.493   1.625   9.507  4.0412 -0.1623 -3.2121
  594MOL0     H81943   6.384   1.748   9.436  0.6029  0.3592 -1.2947
  594MOL0     H81944   6.450   1.643   9.207  1.7679 -0.8828 -0.5595
  594MOL0     H81945   6.561   1.735   9.309 -0.7720  0.9027  1.6058
  594MOL0     H81946   6.525   1.436   9.279  2.1904 -0.0988 -0.8933
  594MOL0     H81947   6.640   1.506   9.393 -0.1537  2.6641  0.2265
  594MOL0     H81948   6.657   1.569   9.098 -1.0933 -1.1182  0.4404
  594MOL0     H81949   6.735   1.419   9.173  3.5798  0.7275  4.8739
  594MOL0     H81950   6.823   1.698   9.274  2.3255  1.6985 -1.5599
  594MOL0     H81951   6.897   1.622   9.137 -2.3836 -0.5256 -1.8821
  594MOL0     H81952   5.862   1.686   9.792 -0.1651  1.6377 -1.9386
  594MOL0     H81953   5.611   1.663   9.829  0.5398 -0.3956  2.1047
  594MOL0     H81954   5.216   1.295   9.429  0.7134 -0.1451 -0.2466
  594MOL0     H81955   5.028   1.421   9.328 -0.2344  1.7915 -0.7053
  594MOL0     H81956   5.199   2.629   8.280  2.5747  0.0346  1.4581
  594MOL0     H81957   5.273   2.854   8.384 -2.1814  1.7077 -4.2294
  594MOL0     H81958   5.097   3.081   8.922  0.0942 -2.1317 -4.2500
  594MOL0     H81959   5.154   3.306   9.027  0.3988  1.4412 -1.7161
  594MOL0     H81960   5.379   3.549   8.802  0.3928  1.1361 -0.3201
  594MOL0     H81961   5.276   3.684   8.810  1.9653  1.9540  2.3122
  594MOL0     H81962   5.505   3.670   8.948 -0.2732  0.2791 -0.4134
  594MOL0     H81963   5.403   3.562   9.052 -2.9655 -1.8160 -1.1974
  594MOL0     H81964   5.421   3.792   9.139 -2.2740 -0.5149  0.6551
  594MOL0     H81965   5.377   3.859   8.981  0.7141  1.9313  1.3884
  594MOL0     H81966   5.193   3.668   9.135  2.3679  0.3141 -0.8114
  594MOL0     H81967   5.145   3.788   9.006 -0.0915 -1.0291 -1.9723
  594MOL0     H81968   5.187   4.012   9.374 -0.8225  2.9648 -1.1134
  594MOL0     H81969   5.230   3.474   8.650 -1.2380 -0.1621 -0.2368
  594MOL0     H81970   5.237   3.199   8.475  1.7361 -0.3236  1.6641
  594MOL0     H81971   5.058   3.241   8.458  1.3088  0.6026 -3.7502
  594MOL0     H81972   5.195   3.369   8.466 -0.2986 -0.1256  0.8933
  595MOL0     O81973   0.326   2.296   1.305 -0.1815 -0.2502 -0.0258
  595MOL0     C81974   0.279   2.260   1.196 -0.4834 -0.1783  0.4225
  595MOL0     O81975   0.289   2.329   1.085 -0.5960  0.0439  0.4042
  595MOL0     C81976   0.317   2.468   1.090 -0.2618 -0.4532  1.5913
  595MOL0     C81977   0.403   2.513   0.986  0.1997  0.3710  0.5556
  595MOL0     C81978   0.437   2.648   0.978 -0.5943 -0.0431  0.1530
  595MOL0     C81979   0.381   2.739   1.074  0.4664  0.2826  0.3869
  595MOL0     O81980   0.402   2.870   1.060 -0.1227 -0.0630 -0.0669
  595MOL0     C81981   0.547   2.900   1.046  0.1183 -0.2341 -0.6795
  595MOL0     C81982   0.612   2.871   1.183 -0.0173  0.0488  0.0141
  595MOL0     C81983   0.545   2.958   1.298  0.0251 -0.4398  1.1679
  595MOL0     C81984   0.558   2.883   1.424  0.6984 -0.0163  0.4588
  595MOL0     C81985   0.486   2.960   1.534  0.4504  0.1397 -0.2414
  595MOL0     C81986   0.467   2.882   1.662 -0.3972 -0.7489 -0.6260
  595MOL0     C81987   0.405   2.969   1.779 -0.6399  0.5901 -0.7030
  595MOL0     C81988   0.319   2.876   1.869 -0.7100  0.5912  0.9581
  595MOL0     N81989   0.282   2.945   1.994 -0.1968  0.4711 -0.0021
  595MOL0     C81990   0.350   2.916   2.109  0.0231  0.1768  0.9551
  595MOL0     C81991   0.307   3.016   2.199  0.1160 -0.6235  1.3509
  595MOL0     C81992   0.355   3.048   2.340  0.1539  0.2429 -1.0792
  595MOL0     C81993   0.502   3.084   2.366 -0.0081 -0.8991 -0.1692
  595MOL0     C81994   0.550   3.177   2.263  0.6051  0.2139 -0.1023
  595MOL0     C81995   0.701   3.181   2.264  0.9259 -0.7366  0.2135
  595MOL0     O81996   0.760   3.056   2.228  0.3768 -0.3578  0.2147
  595MOL0     C81997   0.817   3.033   2.106 -0.1169  0.7750  0.2253
  595MOL0     C81998   0.943   2.969   2.107 -0.2522  0.0899 -0.5012
  595MOL0     C81999   1.002   2.950   1.987  0.4449 -0.1576  0.6519
  595MOL0     C82000   1.143   2.894   1.987  0.0739 -0.1531 -0.6236
  595MOL0     C82001   0.935   2.982   1.865 -0.3904  0.0429  0.9176
  595MOL0     C82002   0.989   2.968   1.724 -0.3238  0.3711 -0.0197
  595MOL0     O82003   0.903   2.969   1.619  0.0398 -0.9223  0.5500
  595MOL0     C82004   0.946   2.933   1.497  0.1833  0.5332  0.0406
  595MOL0     C82005   0.965   3.027   1.393  0.9435  0.1405  0.1891
  595MOL0     C82006   1.021   2.974   1.275 -0.5516  0.3384  0.4291
  595MOL0     C82007   1.062   2.834   1.259 -0.9335  0.0813  0.0238
  595MOL0     O82008   1.120   2.794   1.137  0.2315  0.9661  0.5561
  595MOL0     C82009   1.187   2.662   1.153  0.2907  0.3620 -0.5865
  595MOL0     C82010   1.278   2.642   1.033  0.0834 -0.4127 -0.4081
  595MOL0     C82011   1.413   2.722   1.040 -0.1340 -0.6833  0.3380
  595MOL0     C82012   1.489   2.697   0.915 -0.0128 -0.5587 -0.5807
  595MOL0     C82013   1.609   2.786   0.869 -0.3100  0.2545 -0.0131
  595MOL0     C82014   1.706   2.806   0.980 -0.6262  0.6475 -1.5126
  595MOL0     C82015   1.801   2.926   0.965 -0.1253  0.8473  0.6827
  595MOL0     C82016   1.880   2.942   1.086  0.1172 -0.9164  0.3076
  595MOL0    Cl82017   2.019   2.831   1.072  0.0228  0.5219 -0.1989
  595MOL0     C82018   1.028   2.747   1.366 -1.0806  0.1247 -0.5419
  595MOL0     C82019   0.976   2.800   1.486  0.1119 -0.0227  0.5793
  595MOL0     O82020   1.103   2.945   1.709 -0.4400  0.6087 -0.4664
  595MOL0     C82021   0.798   3.028   1.878  0.1679  0.1776  0.1411
  595MOL0     C82022   0.734   3.047   1.994  0.1848  0.9125 -0.7762
  595MOL0     N82023   0.208   3.087   2.135  1.0367  0.0112  0.5277
  595MOL0     N82024   0.186   3.039   2.016  0.6095  0.2563  0.1203
  595MOL0     C82025   0.290   2.683   1.173  0.1590  0.0935 -0.1218
  595MOL0     C82026   0.255   2.551   1.184 -0.1071 -0.2202 -0.7614
  595MOL0     C82027   0.217   2.120   1.194 -0.2764 -0.4347 -0.5845
  595MOL0     C82028   0.232   2.051   1.311  0.1174  0.1461 -0.0297
  595MOL0     C82029   0.166   1.929   1.334  0.6934  0.2861  0.7523
  595MOL0     C82030   0.104   1.868   1.220  0.3959 -0.6131 -1.1050
  595MOL0     O82031   0.065   1.735   1.218  0.4464 -0.8372 -0.3694
  595MOL0     C82032   0.118   1.654   1.316 -0.5378  0.1228  0.5036
  595MOL0     C82033   0.254   1.605   1.285  0.5917 -0.4106 -0.4191
  595MOL0     C82034   0.269   1.577   1.130 -0.1611 -0.7108 -0.6830
  595MOL0     C82035   0.411   1.575   1.074 -0.0181 -0.3541 -0.5852
  595MOL0     C82036   0.516   1.510   1.161  0.2572  0.9420 -0.5129
  595MOL0     C82037   0.594   1.443   1.223 -0.0366  1.0043 -0.3343
  595MOL0     C82038   0.091   1.938   1.095  0.1754  0.6631 -0.6836
  595MOL0     C82039   0.157   2.052   1.076  0.6675 -0.7136 -0.2689
  595MOL0     C82040   0.161   2.100   0.935  0.3714 -1.0443 -0.1945
  595MOL0     H82041   0.446   2.434   0.926 -0.5075 -0.3653  0.9917
  595MOL0     H82042   0.513   2.681   0.907 -0.3821  1.7711  1.1548
  595MOL0     H82043   0.553   3.009   1.035 -1.5800 -0.0536 -0.1345
  595MOL0     H82044   0.604   2.845   0.971 -0.8739 -1.6493 -0.4342
  595MOL0     H82045   0.603   2.766   1.211  2.2138  0.1259  1.2148
  595MOL0     H82046   0.719   2.893   1.171  1.1755 -4.1235  1.4769
  595MOL0     H82047   0.600   3.053   1.290 -3.0622  1.3246 -1.7672
  595MOL0     H82048   0.440   2.978   1.276  0.3340 -0.7828 -0.8151
  595MOL0     H82049   0.515   2.782   1.418 -2.4921  1.0422  2.6573
  595MOL0     H82050   0.661   2.864   1.456  0.5171  0.5773  1.4348
  595MOL0     H82051   0.381   2.966   1.507  0.2846  4.0360  0.7177
  595MOL0     H82052   0.535   3.057   1.548  0.9699 -0.4450  2.8594
  595MOL0     H82053   0.412   2.792   1.633 -1.2282  0.1191 -1.9065
  595MOL0     H82054   0.565   2.847   1.695  0.7702 -0.0565 -3.0602
  595MOL0     H82055   0.342   3.044   1.731 -0.2901  2.8835  2.1526
  595MOL0     H82056   0.483   3.027   1.830 -1.9318  2.0992 -0.3790
  595MOL0     H82057   0.223   2.873   1.818 -0.1196  2.3940 -0.3609
  595MOL0     H82058   0.366   2.777   1.879 -0.1630  0.9452  2.0450
  595MOL0     H82059   0.418   2.833   2.127 -0.7541 -1.0005 -1.2282
  595MOL0     H82060   0.330   2.962   2.403 -1.5626 -0.6681 -2.8838
  595MOL0     H82061   0.294   3.130   2.378 -1.3424 -2.0403  1.8256
  595MOL0     H82062   0.523   3.128   2.463  0.8215  0.9689 -1.1327
  595MOL0     H82063   0.558   2.990   2.362 -2.9269 -2.7144 -1.8311
  595MOL0     H82064   0.511   3.156   2.163  2.2738 -2.6567 -0.2576
  595MOL0     H82065   0.523   3.280   2.289  1.8922  0.7615 -0.8101
  595MOL0     H82066   0.735   3.261   2.197  2.4883 -1.1063  0.5122
  595MOL0     H82067   0.723   3.213   2.366 -0.3263 -0.1381  0.3111
  595MOL0     H82068   0.983   2.941   2.204  0.4707  0.5569 -0.6526
  595MOL0     H82069   1.213   2.975   1.966  0.5413 -0.5698 -0.7087
  595MOL0     H82070   1.165   2.813   1.916  2.4233 -1.2029  1.1415
  595MOL0     H82071   1.168   2.856   2.086  1.6110 -0.9863 -1.2829
  595MOL0     H82072   0.946   3.134   1.403 -1.8547 -0.2515 -0.0359
  595MOL0     H82073   1.039   3.038   1.189 -0.7017  1.6793  1.3756
  595MOL0     H82074   1.237   2.659   1.250 -0.6221  2.9585  0.0625
  595MOL0     H82075   1.120   2.576   1.149  0.5811  0.1481 -0.9976
  595MOL0     H82076   1.299   2.535   1.044 -0.1812 -0.2935  1.6735
  595MOL0     H82077   1.215   2.656   0.944 -0.0250  1.2373 -0.1078
  595MOL0     H82078   1.479   2.691   1.121 -0.4724 -1.2666  0.4015
  595MOL0     H82079   1.405   2.831   1.049 -1.2387 -0.7934  0.8888
  595MOL0     H82080   1.418   2.700   0.832 -0.7670  2.2009  0.0533
  595MOL0     H82081   1.537   2.600   0.928  1.2724  0.3490  2.1857
  595MOL0     H82082   1.664   2.739   0.787 -2.1237 -3.7368  0.8584
  595MOL0     H82083   1.581   2.887   0.837  3.1798  1.4689  0.3009
  595MOL0     H82084   1.755   2.710   0.997  1.2762  1.9939  1.5744
  595MOL0     H82085   1.652   2.821   1.074  1.7559  0.6923 -0.0700
  595MOL0     H82086   1.737   3.012   0.947 -0.5472  1.2440  3.6022
  595MOL0     H82087   1.866   2.914   0.877  0.4628  3.7124  0.6479
  595MOL0     H82088   1.824   2.917   1.177  2.3348  0.5860  2.1887
  595MOL0     H82089   1.911   3.047   1.083  3.1292 -1.7421 -0.7746
  595MOL0     H82090   1.048   2.641   1.377  1.4456  0.7925  3.3389
  595MOL0     H82091   0.964   2.727   1.565 -4.1221 -2.6749 -2.1139
  595MOL0     H82092   0.744   3.065   1.792 -0.8028  0.8866  1.0325
  595MOL0     H82093   0.634   3.087   1.992  0.0704  0.8471  1.4044
  595MOL0     H82094   0.241   2.759   1.234  0.7636  0.9907 -0.7183
  595MOL0     H82095   0.183   2.520   1.259 -0.6938 -0.7996 -1.5481
  595MOL0     H82096   0.270   2.081   1.408  0.8931 -2.3015  0.4878
  595MOL0     H82097   0.170   1.878   1.429 -1.1085  0.5152  0.9791
  595MOL0     H82098   0.103   1.681   1.421 -0.8018 -0.8090  0.7156
  595MOL0     H82099   0.056   1.564   1.310  0.0536 -0.1706 -3.2429
  595MOL0     H82100   0.269   1.516   1.347 -0.7296 -1.7533 -1.9157
  595MOL0     H82101   0.336   1.675   1.303  1.1101  0.0399 -3.9195
  595MOL0     H82102   0.213   1.484   1.114 -0.5338 -0.4381 -0.9883
  595MOL0     H82103   0.211   1.646   1.068 -0.5435 -1.3785 -1.0827
  595MOL0     H82104   0.443   1.679   1.068  1.1449 -0.7384 -1.6444
  595MOL0     H82105   0.407   1.523   0.978 -0.1831 -5.0228  1.6846
  595MOL0     H82106   0.658   1.390   1.290  1.0278  1.4798 -0.9500
  595MOL0     H82107   0.042   1.881   1.017 -0.3735 -0.1450  0.2302
  595MOL0     H82108   0.116   2.199   0.928 -5.1777 -3.1890  0.0021
  595MOL0     H82109   0.267   2.095   0.908  0.9721  0.8710  1.5171
  595MOL0     H82110   0.102   2.037   0.868  0.3205  0.5887 -1.7713
  596MOL0     O82111   3.779   8.623   9.097 -0.9062 -1.1794 -0.8236
  596MOL0     C82112   3.707   8.533   9.116 -0.2917  0.0636 -0.5990
  596MOL0     O82113   3.573   8.540   9.104 -1.0131  0.1788  0.2655
  596MOL0     C82114   3.508   8.657   9.144  0.0283  0.1532 -0.2456
  596MOL0     C82115   3.547   8.758   9.242 -0.5056  0.5905  0.0339
  596MOL0     C82116   3.472   8.874   9.257  0.1482 -0.5216  0.0404
  596MOL0     C82117   3.346   8.888   9.193 -0.2323 -0.1353 -0.6257
  596MOL0     O82118   3.265   9.000   9.207  0.3254 -0.1099 -0.0133
  596MOL0     C82119   3.282   9.082   9.323 -0.0636 -0.5983 -0.3388
  596MOL0     C82120   3.191   9.212   9.313 -0.1405 -0.2057 -0.1407
  596MOL0     C82121   3.230   9.286   9.183 -0.3093 -0.4243  1.2126
  596MOL0     C82122   3.167   9.426   9.191  0.6688 -0.0923  0.4342
  596MOL0     C82123   3.016   9.407   9.168 -0.1229  0.8870 -0.3132
  596MOL0     C82124   2.935   9.536   9.131 -0.3591  0.5293 -0.9253
  596MOL0     C82125   2.781   9.491   9.123  0.0703 -0.5502 -0.0163
  596MOL0     C82126   2.706   9.569   9.015 -0.0585 -0.1357  0.1601
  596MOL0     N82127   2.556   9.526   9.003  0.1060 -0.1427  0.3103
  596MOL0     C82128   2.455   9.591   9.066  0.7750 -0.0565 -1.0822
  596MOL0     C82129   2.350   9.510   9.055 -0.0516  0.8148  0.5123
  596MOL0     C82130   2.225   9.540   9.132  1.1825 -0.1893 -0.0462
  596MOL0     C82131   2.230   9.489   9.278 -0.5677  0.0806 -0.3781
  596MOL0     C82132   2.288   9.347   9.296 -0.1779  0.0640  1.0990
  596MOL0     C82133   2.195   9.241   9.243  0.7386 -0.1184 -0.4794
  596MOL0     O82134   2.070   9.247   9.320 -0.8171 -0.6967 -0.2488
  596MOL0     C82135   2.051   9.186   9.446 -0.3488  0.0519 -0.3718
  596MOL0     C82136   1.917   9.169   9.494  1.1759  0.4545 -0.2211
  596MOL0     C82137   1.889   9.110   9.617 -0.3684 -0.5424 -0.2549
  596MOL0     C82138   1.748   9.091   9.656  0.2495  0.0056 -0.3146
  596MOL0     C82139   1.999   9.066   9.696  1.7144  0.3046  0.3268
  596MOL0     C82140   1.985   9.017   9.825  0.5381  0.5676  0.3056
  596MOL0     O82141   1.947   9.114   9.906 -0.5864  0.5307  0.9368
  596MOL0     C82142   1.909   9.096  10.035 -0.7821 -0.4671  0.5451
  596MOL0     C82143   1.827   9.201  10.085  0.2818  0.1214 -0.1623
  596MOL0     C82144   1.802   9.219  10.223  0.7331  1.0282 -0.5453
  596MOL0     C82145   1.831   9.114  10.309  0.4326 -0.1960 -0.5259
  596MOL0     O82146   1.795   9.145  10.439 -0.1046  0.1889  0.2829
  596MOL0     C82147   1.758   9.037  10.528 -0.2233 -1.0035  0.4588
  596MOL0     C82148   1.623   8.967  10.489 -0.1420  1.0791 -0.8021
  596MOL0     C82149   1.599   8.846  10.580 -0.0536 -0.1009  0.1680
  596MOL0     C82150   1.656   8.710  10.521 -0.4322  0.1942 -0.5217
  596MOL0     C82151   1.576   8.589  10.580  0.6143 -0.5348  0.6690
  596MOL0     C82152   1.653   8.457  10.538 -0.3575  0.4714 -0.2110
  596MOL0     C82153   1.555   8.338  10.521  0.9598  0.1263 -0.7279
  596MOL0     C82154   1.462   8.338  10.398  0.5009 -0.6503  0.4497
  596MOL0    Cl82155   1.528   8.402  10.241  0.4813 -0.2394  0.6926
  596MOL0     C82156   1.906   9.003  10.264  0.4203  0.1513  0.5292
  596MOL0     C82157   1.953   8.998  10.130  0.1142 -0.2238  1.5672
  596MOL0     O82158   2.007   8.899   9.852 -0.8249 -0.4540 -0.4759
  596MOL0     C82159   2.128   9.078   9.651  0.4840 -1.0275 -0.2742
  596MOL0     C82160   2.158   9.139   9.532  0.4492 -0.5049 -0.0487
  596MOL0     N82161   2.378   9.408   8.963 -1.0062  0.0806 -0.3512
  596MOL0     N82162   2.505   9.410   8.945  1.2858 -0.6864  0.5490
  596MOL0     C82163   3.301   8.792   9.105  1.2515 -0.4658 -0.3846
  596MOL0     C82164   3.384   8.682   9.073  0.2977 -0.4029 -0.3436
  596MOL0     C82165   3.776   8.404   9.119  0.1983 -0.1302  0.1595
  596MOL0     C82166   3.889   8.375   9.036  0.2721 -0.3285 -0.2209
  596MOL0     C82167   3.943   8.245   9.024  0.3794  0.0358 -0.4088
  596MOL0     C82168   3.887   8.145   9.106 -0.0596 -0.3529  0.0719
  596MOL0     O82169   3.954   8.023   9.108  0.2430  0.1638 -1.0027
  596MOL0     C82170   3.921   7.913   9.192  0.7418 -0.5964  0.6512
  596MOL0     C82171   3.977   7.793   9.123  0.2360  0.1896  0.4577
  596MOL0     C82172   3.959   7.669   9.202  0.7229  1.0145  0.2418
  596MOL0     C82173   4.036   7.550   9.145  0.5107  0.3339  0.1924
  596MOL0     C82174   4.184   7.551   9.165  0.7341 -0.4068 -0.2864
  596MOL0     C82175   4.305   7.523   9.161 -0.0131  0.5091  0.2364
  596MOL0     C82176   3.772   8.178   9.180  0.7227  0.0986  0.2938
  596MOL0     C82177   3.716   8.306   9.200  0.0839  0.1691 -0.4824
  596MOL0     C82178   3.585   8.309   9.274 -0.5017  0.3925 -0.8706
  596MOL0     H82179   3.639   8.741   9.296 -0.0981 -1.4817 -1.1932
  596MOL0     H82180   3.508   8.943   9.332  0.6934  2.2281 -2.5196
  596MOL0     H82181   3.380   9.130   9.327 -0.1534 -0.3964 -0.5278
  596MOL0     H82182   3.256   9.023   9.411  0.4813  0.6868  0.7235
  596MOL0     H82183   3.085   9.187   9.306 -0.1976 -0.1557  0.4405
  596MOL0     H82184   3.207   9.266   9.407  0.3344 -2.9318  1.4730
  596MOL0     H82185   3.336   9.292   9.158 -0.5638 -2.8065 -0.8325
  596MOL0     H82186   3.190   9.230   9.098 -1.9389 -0.2549  1.8296
  596MOL0     H82187   3.194   9.468   9.288  3.5982  0.1671 -0.4091
  596MOL0     H82188   3.202   9.489   9.108  4.4291 -1.7910  0.5219
  596MOL0     H82189   2.966   9.364   9.255 -0.2436 -1.7158 -1.5671
  596MOL0     H82190   3.005   9.331   9.089  1.5257  1.7805 -1.4595
  596MOL0     H82191   2.945   9.609   9.212  0.0851 -0.3219 -0.1888
  596MOL0     H82192   2.969   9.574   9.034 -0.2924  1.2054 -0.6399
  596MOL0     H82193   2.729   9.505   9.218 -1.1083  2.2725 -0.9773
  596MOL0     H82194   2.766   9.386   9.098  1.1233 -0.3592 -1.5966
  596MOL0     H82195   2.701   9.677   9.030 -2.6070 -0.0692 -0.7447
  596MOL0     H82196   2.753   9.542   8.920 -2.4907 -2.4416 -0.5146
  596MOL0     H82197   2.461   9.692   9.105  1.7999 -0.8351  0.9259
  596MOL0     H82198   2.141   9.499   9.074 -0.1186  2.6853 -0.3843
  596MOL0     H82199   2.203   9.647   9.133  0.1345 -0.3792 -1.0705
  596MOL0     H82200   2.302   9.558   9.324 -0.5897 -0.1848  0.0630
  596MOL0     H82201   2.136   9.487   9.335  1.1579 -1.4634  2.7076
  596MOL0     H82202   2.385   9.341   9.246 -0.1508 -0.9652  1.2661
  596MOL0     H82203   2.297   9.330   9.404 -0.6564 -2.4771  0.7992
  596MOL0     H82204   2.178   9.254   9.136  2.8701  1.8907 -0.6473
  596MOL0     H82205   2.244   9.144   9.259  3.1241  1.1780  0.6002
  596MOL0     H82206   1.834   9.187   9.427  1.7680 -1.0200 -1.4138
  596MOL0     H82207   1.714   8.987   9.645  0.7305 -0.1504 -0.3724
  596MOL0     H82208   1.684   9.153   9.593  1.6629 -0.7867 -2.6559
  596MOL0     H82209   1.729   9.106   9.763  2.3308 -3.1633  0.6551
  596MOL0     H82210   1.794   9.282  10.020 -0.1309 -0.2101 -0.3762
  596MOL0     H82211   1.758   9.314  10.254 -0.2055  0.0863  1.1482
  596MOL0     H82212   1.838   8.963  10.532  0.3083 -0.3776  2.1628
  596MOL0     H82213   1.760   9.076  10.630 -2.1690  2.8155 -0.7543
  596MOL0     H82214   1.542   9.041  10.493 -0.1482  1.2658 -3.1317
  596MOL0     H82215   1.618   8.931  10.386 -1.7008 -2.1759  0.2645
  596MOL0     H82216   1.490   8.838  10.578  0.0278 -1.3262 -2.6571
  596MOL0     H82217   1.639   8.877  10.678  0.9827  2.1064 -0.8656
  596MOL0     H82218   1.763   8.702  10.544 -0.3353  0.7550 -0.7461
  596MOL0     H82219   1.641   8.705  10.413 -4.9575  1.8047 -0.1554
  596MOL0     H82220   1.565   8.604  10.688 -1.4361 -0.9605  0.5535
  596MOL0     H82221   1.471   8.588  10.549  0.7955  0.2566  0.0072
  596MOL0     H82222   1.729   8.437  10.614  0.9516 -1.3250 -1.8962
  596MOL0     H82223   1.704   8.462  10.441 -2.2223  1.1371 -1.2154
  596MOL0     H82224   1.505   8.327  10.618  0.1824 -1.2441 -1.2734
  596MOL0     H82225   1.623   8.252  10.519  0.3461 -0.3380 -2.4270
  596MOL0     H82226   1.386   8.416  10.410 -0.0389 -1.2955  1.3670
  596MOL0     H82227   1.410   8.245  10.370 -1.3102  1.1115 -2.5940
  596MOL0     H82228   1.933   8.928  10.338 -1.9713  0.0851  1.4196
  596MOL0     H82229   2.026   8.925  10.098  1.1010 -0.0012  3.1753
  596MOL0     H82230   2.214   9.039   9.704  1.1768 -2.4755 -2.3260
  596MOL0     H82231   2.260   9.163   9.503 -0.4429  1.5935 -1.6665
  596MOL0     H82232   3.211   8.815   9.049  0.6135  0.1382  0.8468
  596MOL0     H82233   3.352   8.612   8.996  0.8846 -0.1433 -0.8291
  596MOL0     H82234   3.913   8.448   8.959  2.0952  1.4981  1.9168
  596MOL0     H82235   4.020   8.219   8.953 -0.6150 -0.4652 -1.3283
  596MOL0     H82236   3.954   7.930   9.295 -0.7383 -0.6075  1.1633
  596MOL0     H82237   3.816   7.888   9.213  1.3651 -2.8912  1.3679
  596MOL0     H82238   4.084   7.817   9.114 -0.3830  2.7827 -1.1069
  596MOL0     H82239   3.947   7.785   9.019  1.0016  0.8910  0.1758
  596MOL0     H82240   3.996   7.682   9.304 -2.2375 -0.6453  1.6654
  596MOL0     H82241   3.851   7.653   9.212  1.0055 -0.9914  0.5547
  596MOL0     H82242   4.024   7.534   9.037  1.2977  0.7107  0.0443
  596MOL0     H82243   3.999   7.465   9.203  0.8835  0.2327  0.2829
  596MOL0     H82244   4.407   7.488   9.154 -0.6650 -1.6774  0.7476
  596MOL0     H82245   3.723   8.089   9.218 -2.5505  0.4549 -2.5620
  596MOL0     H82246   3.591   8.387   9.351 -0.2169 -0.2646 -0.2094
  596MOL0     H82247   3.493   8.311   9.215 -1.7521 -2.1436  0.8290
  596MOL0     H82248   3.576   8.221   9.339 -0.9677  0.7240 -0.4710
  597MOL0     O82249   2.997   5.386   8.468 -0.3383  0.5736  0.4462
  597MOL0     C82250   3.089   5.342   8.526  0.2373 -0.5615 -0.9554
  597MOL0     O82251   3.183   5.261   8.481 -0.7263  0.0463  0.1703
  597MOL0     C82252   3.175   5.212   8.352 -0.1465 -0.2421 -0.1255
  597MOL0     C82253   3.272   5.249   8.257 -0.0883 -0.2873  0.3069
  597MOL0     C82254   3.273   5.185   8.131 -0.4627 -0.5515  0.3673
  597MOL0     C82255   3.171   5.099   8.088  0.4255 -0.4437 -0.5315
  597MOL0     O82256   3.163   5.058   7.957  0.1411 -1.1092  0.2257
  597MOL0     C82257   3.254   5.104   7.855  0.2889 -0.0436  0.1320
  597MOL0     C82258   3.205   5.057   7.713  0.0238 -0.9231 -0.3834
  597MOL0     C82259   3.193   4.911   7.707  0.1101  1.0101 -0.5593
  597MOL0     C82260   3.254   4.850   7.581  0.2706  0.4158 -0.1394
  597MOL0     C82261   3.276   4.699   7.606 -0.2212  0.2828 -0.2805
  597MOL0     C82262   3.159   4.608   7.558  0.5817 -1.2695 -0.0506
  597MOL0     C82263   3.190   4.466   7.511  0.7055 -0.3147 -0.9551
  597MOL0     C82264   3.236   4.375   7.623 -0.5665 -0.5929  0.3910
  597MOL0     N82265   3.381   4.394   7.660 -0.3430  0.0301 -0.6659
  597MOL0     C82266   3.476   4.381   7.562  0.3193  0.2465 -0.0828
  597MOL0     C82267   3.582   4.429   7.626  0.3369 -0.0869 -0.5450
  597MOL0     C82268   3.727   4.423   7.571  0.5245 -0.0221  0.2284
  597MOL0     C82269   3.838   4.403   7.685  0.5779 -0.4449 -0.0840
  597MOL0     C82270   3.817   4.275   7.765  0.6010  0.0071 -0.4043
  597MOL0     C82271   3.860   4.292   7.912  1.0980  0.1037 -0.2981
  597MOL0     O82272   3.768   4.391   7.978 -0.9806  0.0888  0.4399
  597MOL0     C82273   3.746   4.393   8.118 -1.3065 -0.5515  0.8253
  597MOL0     C82274   3.835   4.332   8.203  0.1935 -0.1731 -0.1228
  597MOL0     C82275   3.800   4.317   8.336 -0.1144 -0.1756  0.2078
  597MOL0     C82276   3.886   4.217   8.408 -0.3633 -0.4226 -0.5725
  597MOL0     C82277   3.685   4.375   8.391 -0.0402  0.1812  0.7328
  597MOL0     C82278   3.648   4.351   8.537 -0.5628 -0.9548 -0.1136
  597MOL0     O82279   3.662   4.230   8.589 -0.3049  0.3733  0.1672
  597MOL0     C82280   3.643   4.206   8.718 -0.5925  0.2918 -1.7448
  597MOL0     C82281   3.528   4.138   8.767  0.0635 -0.4413  0.3606
  597MOL0     C82282   3.511   4.127   8.906  0.4438  0.2788 -0.8324
  597MOL0     C82283   3.615   4.160   8.996 -0.3789  0.1590 -0.4615
  597MOL0     O82284   3.620   4.128   9.126 -0.0456 -0.6292 -0.4491
  597MOL0     C82285   3.547   4.212   9.216  1.1422  0.1407 -0.3774
  597MOL0     C82286   3.396   4.203   9.197 -0.2604  0.5156 -0.7486
  597MOL0     C82287   3.317   4.272   9.309  0.7351 -0.2465  0.4229
  597MOL0     C82288   3.296   4.422   9.289  0.5399  0.6416  0.4256
  597MOL0     C82289   3.255   4.485   9.424 -0.6352 -0.4739 -1.0538
  597MOL0     C82290   3.231   4.641   9.420 -0.0787 -0.1350 -1.2738
  597MOL0     C82291   3.154   4.695   9.291  0.2337 -0.0858 -0.8202
  597MOL0     C82292   3.144   4.843   9.304  0.4836 -0.5102 -0.0900
  597MOL0    Cl82293   3.019   4.868   9.442  0.1402  0.0858  0.0252
  597MOL0     C82294   3.732   4.210   8.946 -0.1049  0.3676  1.3627
  597MOL0     C82295   3.748   4.233   8.808 -0.8904  0.6418  0.1228
  597MOL0     O82296   3.602   4.452   8.590 -0.3961  0.1976 -0.0038
  597MOL0     C82297   3.602   4.453   8.303 -0.5214 -0.2732  0.1193
  597MOL0     C82298   3.635   4.462   8.170 -0.5247  0.5225  0.2432
  597MOL0     N82299   3.555   4.450   7.762 -0.0337 -0.8845  0.1184
  597MOL0     N82300   3.427   4.440   7.785  0.3900  0.2904 -0.2487
  597MOL0     C82301   3.068   5.064   8.173 -0.0205  0.6463  0.1776
  597MOL0     C82302   3.077   5.109   8.309  0.1461  0.4419 -0.1474
  597MOL0     C82303   3.098   5.357   8.677  0.0785 -0.0179  0.7216
  597MOL0     C82304   3.225   5.360   8.727 -0.1757  0.2120  0.3276
  597MOL0     C82305   3.254   5.360   8.870  0.9233 -0.2375  0.1700
  597MOL0     C82306   3.145   5.363   8.954  0.6619 -0.6744  1.1397
  597MOL0     O82307   3.133   5.365   9.091  0.4199  0.1091 -0.5948
  597MOL0     C82308   3.242   5.307   9.164  0.4789 -0.5813  0.6981
  597MOL0     C82309   3.319   5.419   9.241 -0.6372  0.2193 -0.7140
  597MOL0     C82310   3.241   5.539   9.300 -0.6086  0.4341 -0.3257
  597MOL0     C82311   3.139   5.508   9.398  0.1176  0.1545  0.0197
  597MOL0     C82312   3.218   5.474   9.516 -0.3165  0.4414  0.0113
  597MOL0     C82313   3.286   5.433   9.607 -0.5112  0.7957 -0.5563
  597MOL0     C82314   3.013   5.363   8.899 -0.5906  0.3822 -0.3313
  597MOL0     C82315   2.989   5.365   8.761  0.5123  0.6063 -0.7196
  597MOL0     C82316   2.836   5.364   8.718  0.0224 -0.8543  0.0349
  597MOL0     H82317   3.346   5.324   8.286 -0.8920  1.9465 -2.8959
  597MOL0     H82318   3.354   5.204   8.061 -1.8920  3.1820 -0.5105
  597MOL0     H82319   3.356   5.065   7.866 -0.4323 -1.6157  1.9166
  597MOL0     H82320   3.254   5.213   7.854 -1.0191 -0.0303 -0.7797
  597MOL0     H82321   3.106   5.103   7.699 -0.8396 -2.7478 -0.6040
  597MOL0     H82322   3.266   5.098   7.633 -1.2511  1.4916 -0.2210
  597MOL0     H82323   3.257   4.872   7.787  0.1908  0.3205 -0.9499
  597MOL0     H82324   3.091   4.883   7.734 -0.2614  1.0072 -1.9360
  597MOL0     H82325   3.195   4.857   7.489 -0.0754 -1.7807 -0.1338
  597MOL0     H82326   3.350   4.900   7.565  0.4982  0.0064 -0.0531
  597MOL0     H82327   3.279   4.679   7.713 -0.1792 -0.2602 -0.3834
  597MOL0     H82328   3.367   4.671   7.553 -2.4438  0.2379 -4.5038
  597MOL0     H82329   3.095   4.591   7.645  0.6552  0.1227  0.3003
  597MOL0     H82330   3.105   4.661   7.478  1.7326 -0.2322 -0.1725
  597MOL0     H82331   3.267   4.474   7.434  2.6736  3.1538  1.1094
  597MOL0     H82332   3.091   4.430   7.480  0.3179  1.8351 -2.4790
  597MOL0     H82333   3.179   4.403   7.712 -0.3756  0.7324  0.1064
  597MOL0     H82334   3.214   4.273   7.589  0.7218 -0.0025 -2.5564
  597MOL0     H82335   3.476   4.340   7.462 -1.9113 -0.7156  0.2443
  597MOL0     H82336   3.756   4.515   7.520  5.3616 -1.0050  0.7189
  597MOL0     H82337   3.730   4.336   7.504 -0.4387 -0.9125  1.3056
  597MOL0     H82338   3.943   4.402   7.652  1.9762 -3.1237  3.6938
  597MOL0     H82339   3.830   4.494   7.746 -1.6065 -0.7126  0.0907
  597MOL0     H82340   3.713   4.244   7.755 -0.3530  0.9347  4.3552
  597MOL0     H82341   3.882   4.196   7.725 -0.8394 -1.2168 -0.4182
  597MOL0     H82342   3.844   4.201   7.971  0.9319 -0.1690 -0.7617
  597MOL0     H82343   3.963   4.323   7.936 -0.0650  3.8582  0.4863
  597MOL0     H82344   3.923   4.281   8.166  1.5293 -0.2972  2.8878
  597MOL0     H82345   3.964   4.175   8.344 -1.3338 -0.5002 -1.7330
  597MOL0     H82346   3.838   4.141   8.470 -0.8045  0.6331  0.4316
  597MOL0     H82347   3.947   4.276   8.478 -1.8528  2.1849 -1.3224
  597MOL0     H82348   3.448   4.104   8.701 -0.3506  2.0156 -0.5357
  597MOL0     H82349   3.419   4.079   8.937  1.5246 -0.2502  1.8287
  597MOL0     H82350   3.570   4.178   9.317  2.1594  2.5250  0.2545
  597MOL0     H82351   3.594   4.310   9.211  2.1159 -0.2613  0.4939
  597MOL0     H82352   3.362   4.247   9.102  0.4721  0.7043 -0.9279
  597MOL0     H82353   3.370   4.097   9.207 -0.2344  0.5724 -0.0336
  597MOL0     H82354   3.368   4.257   9.405 -1.1592 -0.4290  1.4576
  597MOL0     H82355   3.219   4.223   9.320 -0.2961  1.7324  0.4379
  597MOL0     H82356   3.224   4.433   9.207  0.1398  0.2301  0.7153
  597MOL0     H82357   3.393   4.464   9.262  0.2439 -0.3460 -2.6188
  597MOL0     H82358   3.167   4.431   9.459  0.0719 -1.1539 -0.2624
  597MOL0     H82359   3.328   4.463   9.503 -1.6265 -0.1034 -0.0081
  597MOL0     H82360   3.327   4.694   9.422 -0.2310  0.1328  0.1652
  597MOL0     H82361   3.181   4.669   9.513 -0.6712  0.8535 -1.8817
  597MOL0     H82362   3.053   4.661   9.269 -0.6374  1.7972  0.0800
  597MOL0     H82363   3.221   4.669   9.208 -1.3347 -1.4594 -1.7324
  597MOL0     H82364   3.108   4.887   9.210 -0.0753 -4.8310 -2.1304
  597MOL0     H82365   3.241   4.888   9.325  1.0501 -1.4261 -0.6833
  597MOL0     H82366   3.817   4.232   9.010  0.2545  0.0163  1.0160
  597MOL0     H82367   3.842   4.276   8.775  0.2906  0.2560  2.6966
  597MOL0     H82368   3.526   4.500   8.364 -0.7025 -0.5484  0.1077
  597MOL0     H82369   3.598   4.519   8.086  1.4586  3.6694  1.3153
  597MOL0     H82370   2.983   5.004   8.141  0.4158  0.3967 -0.5175
  597MOL0     H82371   3.001   5.075   8.379  1.7361 -3.1873  0.0009
  597MOL0     H82372   3.303   5.359   8.651 -0.7462  3.4865 -0.4723
  597MOL0     H82373   3.357   5.370   8.903  0.8145  1.3387  0.1249
  597MOL0     H82374   3.198   5.232   9.231  0.8782 -1.7059 -0.2641
  597MOL0     H82375   3.317   5.255   9.103 -0.3246  0.5104 -1.3337
  597MOL0     H82376   3.384   5.461   9.164  0.3368  2.1379  1.0501
  597MOL0     H82377   3.377   5.370   9.319 -0.3437  2.3264  0.4509
  597MOL0     H82378   3.314   5.610   9.340  0.9779 -0.1545 -2.0232
  597MOL0     H82379   3.196   5.594   9.217 -0.3590  0.3742 -0.5008
  597MOL0     H82380   3.077   5.422   9.372 -0.5903  1.1519 -1.7621
  597MOL0     H82381   3.074   5.595   9.413  0.4576  0.6479 -1.2319
  597MOL0     H82382   3.353   5.408   9.687 -2.0545 -0.7968  0.3058
  597MOL0     H82383   2.933   5.360   8.972 -0.0618 -1.2257  0.2244
  597MOL0     H82384   2.813   5.471   8.710 -1.5561 -1.1898 -0.2048
  597MOL0     H82385   2.805   5.309   8.629 -2.0945  1.3279 -0.6862
  597MOL0     H82386   2.770   5.335   8.800 -2.2085 -0.3598 -1.5045
  598MOL0     O82387   0.553   9.864   2.258 -0.2469  0.1985 -0.6140
  598MOL0     C82388   0.480   9.954   2.220 -0.7171  0.0155 -1.2430
  598MOL0     O82389   0.492  10.007   2.091 -0.2482  0.6109 -0.0982
  598MOL0     C82390   0.594   9.994   2.001 -0.1806  0.4477  0.4019
  598MOL0     C82391   0.727   9.947   2.027  0.3102 -0.2167  0.3689
  598MOL0     C82392   0.828   9.927   1.936  0.0015  0.7125 -0.2917
  598MOL0     C82393   0.799   9.969   1.798  0.2871  0.0128 -0.7867
  598MOL0     O82394   0.892   9.962   1.690  0.7780 -0.8606 -0.7394
  598MOL0     C82395   0.993  10.069   1.682 -0.2223 -0.4232 -0.2584
  598MOL0     C82396   1.135  10.026   1.732 -0.5657 -0.4632 -0.1955
  598MOL0     C82397   1.214  10.150   1.783 -0.1964  0.4847 -0.1456
  598MOL0     C82398   1.253  10.245   1.665 -0.4519  0.3486  0.2440
  598MOL0     C82399   1.295  10.393   1.704 -0.0292  1.2870  0.7245
  598MOL0     C82400   1.411  10.381   1.796 -0.2085 -0.2205 -0.1262
  598MOL0     C82401   1.478  10.517   1.803  0.4019 -0.6271  0.1959
  598MOL0     C82402   1.615  10.495   1.854 -0.9357 -0.4173 -0.1240
  598MOL0     N82403   1.606  10.434   1.989  0.0561  1.1215  0.2442
  598MOL0     C82404   1.592  10.501   2.107  0.3958  0.8031  0.1160
  598MOL0     C82405   1.576  10.414   2.202 -0.5787 -0.2661 -0.0587
  598MOL0     C82406   1.541  10.451   2.344  0.4912  0.4780  0.0406
  598MOL0     C82407   1.398  10.510   2.369 -0.8701  0.2596  0.2797
  598MOL0     C82408   1.401  10.551   2.519  0.1832 -0.1582  0.8489
  598MOL0     C82409   1.433  10.438   2.618 -0.3123 -0.4571 -0.4822
  598MOL0     O82410   1.435  10.484   2.749  0.2374 -0.4693  0.0777
  598MOL0     C82411   1.310  10.516   2.802 -0.2918 -0.6042  0.4777
  598MOL0     C82412   1.277  10.658   2.810  0.3403  0.8226 -0.0805
  598MOL0     C82413   1.150  10.691   2.861 -0.2098  0.2883  0.5910
  598MOL0     C82414   1.124  10.835   2.854  1.2281 -0.3651  0.0992
  598MOL0     C82415   1.065  10.587   2.910 -0.2952  0.8470 -0.5674
  598MOL0     C82416   0.920  10.611   2.961 -0.0201  0.3824  1.3077
  598MOL0     O82417   0.837  10.504   2.963  0.6835 -0.1483 -0.4367
  598MOL0     C82418   0.710  10.536   3.000 -0.4120 -0.9313  0.2480
  598MOL0     C82419   0.616  10.575   2.908 -0.6562 -0.7867  0.3495
  598MOL0     C82420   0.494  10.624   2.947 -0.3778 -0.2899 -0.8636
  598MOL0     C82421   0.454  10.619   3.082  0.3050 -0.1812  0.2139
  598MOL0     O82422   0.323  10.648   3.123 -0.3942 -0.1638  0.6709
  598MOL0     C82423   0.274  10.789   3.112  0.1012  0.0467  0.3981
  598MOL0     C82424   0.236  10.854   3.249  0.2189  0.1028  0.8874
  598MOL0     C82425   0.152  10.764   3.344 -0.4829  0.2116  1.0296
  598MOL0     C82426   0.036  10.712   3.276  0.2561 -0.1046  0.6110
  598MOL0     C82427  -0.046  10.610   3.360  0.9772 -0.4194 -0.0716
  598MOL0     C82428  -0.189  10.593   3.305 -0.1882 -0.7523  0.1441
  598MOL0     C82429  -0.271  10.482   3.380 -0.4243 -0.8189  0.1883
  598MOL0     C82430  -0.421  10.508   3.338 -0.7583 -0.3454 -0.6831
  598MOL0    Cl82431  -0.522  10.406   3.442  0.1773 -0.3366  0.1650
  598MOL0     C82432   0.553  10.595   3.176 -0.2492  1.6165  0.0874
  598MOL0     C82433   0.683  10.555   3.134 -0.6424  0.5418 -1.0050
  598MOL0     O82434   0.895  10.728   2.989  0.0114  0.1483 -0.2649
  598MOL0     C82435   1.116  10.456   2.914 -0.4725 -0.9134 -0.9010
  598MOL0     C82436   1.228  10.421   2.847 -0.0413  0.5308 -0.8137
  598MOL0     N82437   1.597  10.291   2.145 -0.5348 -0.5025 -0.4255
  598MOL0     N82438   1.609  10.304   2.019 -0.5752 -0.1991  0.0004
  598MOL0     C82439   0.665  10.006   1.763 -0.5226 -0.3127 -0.6100
  598MOL0     C82440   0.571  10.026   1.870 -0.1256  0.4362  0.5756
  598MOL0     C82441   0.360  10.005   2.296  0.5485  0.0020 -0.3542
  598MOL0     C82442   0.319  10.136   2.273  0.1410 -0.1530 -0.1746
  598MOL0     C82443   0.209  10.198   2.340 -0.3012  0.1134 -0.0024
  598MOL0     C82444   0.139  10.125   2.439  0.5157 -0.1746 -0.2750
  598MOL0     O82445   0.034  10.171   2.508 -0.1795  0.4546  0.5764
  598MOL0     C82446  -0.042  10.290   2.481 -0.5238 -0.4711 -0.8238
  598MOL0     C82447   0.032  10.417   2.524 -0.7338  0.2974 -0.0686
  598MOL0     C82448  -0.075  10.528   2.565 -0.7778  0.6174  0.8491
  598MOL0     C82449  -0.025  10.663   2.613  0.4200 -1.3015  0.4782
  598MOL0     C82450   0.048  10.648   2.740 -0.7521 -0.8103 -0.2179
  598MOL0     C82451   0.119  10.618   2.841 -0.0907 -0.3889 -0.3935
  598MOL0     C82452   0.177   9.990   2.463  0.2201 -0.4679 -0.3828
  598MOL0     C82453   0.292   9.936   2.400 -0.0747  0.2616  0.1344
  598MOL0     C82454   0.333   9.795   2.438 -0.3170 -0.0060  0.3580
  598MOL0     H82455   0.754   9.922   2.129 -0.1580  0.9672  0.8070
  598MOL0     H82456   0.929   9.907   1.971 -0.3084  2.6536  1.9637
  598MOL0     H82457   0.950  10.150   1.742 -0.3750 -1.5582  1.2223
  598MOL0     H82458   1.001  10.107   1.580  0.9762  1.8412  0.5978
  598MOL0     H82459   1.127   9.962   1.821 -2.3932  0.7048  0.5319
  598MOL0     H82460   1.198   9.975   1.659  2.8434  1.3508  1.2425
  598MOL0     H82461   1.164  10.218   1.853 -0.9619 -1.0762  0.8976
  598MOL0     H82462   1.306  10.116   1.832 -0.0630 -0.0894 -0.7953
  598MOL0     H82463   1.337  10.197   1.614 -1.4106  1.0053 -2.0814
  598MOL0     H82464   1.173  10.244   1.591  0.4078  1.5224 -0.7528
  598MOL0     H82465   1.213  10.446   1.752 -1.6173  1.5343 -2.0283
  598MOL0     H82466   1.313  10.458   1.618  2.9851  4.0428  3.1808
  598MOL0     H82467   1.374  10.350   1.895 -0.9184 -0.4012 -0.4447
  598MOL0     H82468   1.481  10.307   1.756  0.6944 -2.3019  4.5921
  598MOL0     H82469   1.427  10.585   1.871  2.2922  0.4824  0.5882
  598MOL0     H82470   1.490  10.555   1.700 -0.9535 -0.3939  0.1076
  598MOL0     H82471   1.674  10.435   1.785  0.1034 -0.9320  1.1697
  598MOL0     H82472   1.672  10.587   1.870  1.8510 -1.6923 -1.9762
  598MOL0     H82473   1.569  10.606   2.121 -2.1519  0.2272  0.7454
  598MOL0     H82474   1.613  10.530   2.368  0.4097 -0.2885  3.3667
  598MOL0     H82475   1.549  10.361   2.407 -2.3054  1.7197  2.4369
  598MOL0     H82476   1.373  10.596   2.305 -2.0823  1.4419  2.2481
  598MOL0     H82477   1.324  10.431   2.355 -0.5672  0.1089 -0.5508
  598MOL0     H82478   1.473  10.634   2.521  1.7128 -1.2528 -1.9960
  598MOL0     H82479   1.298  10.587   2.531  0.3494  2.1409 -2.8741
  598MOL0     H82480   1.361  10.356   2.612  0.6668 -1.3944  0.0202
  598MOL0     H82481   1.533  10.395   2.604  0.3957  1.2795 -0.9886
  598MOL0     H82482   1.342  10.730   2.760 -0.5700  1.1328 -0.8491
  598MOL0     H82483   1.143  10.867   2.957 -1.3931 -1.7072  1.1039
  598MOL0     H82484   1.020  10.864   2.832  0.6137 -1.9571  0.7360
  598MOL0     H82485   1.190  10.900   2.796  1.3964  1.1830  1.8976
  598MOL0     H82486   0.652  10.589   2.806 -1.8038  1.4809  0.2088
  598MOL0     H82487   0.424  10.662   2.874  2.4936  2.2260 -2.5505
  598MOL0     H82488   0.351  10.850   3.063 -0.6312  1.2513  0.7128
  598MOL0     H82489   0.178  10.794   3.060 -1.3681  1.4890  3.0435
  598MOL0     H82490   0.333  10.871   3.296 -0.1654  0.2187  1.6442
  598MOL0     H82491   0.183  10.949   3.234  0.9521  0.5644  1.1345
  598MOL0     H82492   0.117  10.821   3.430 -2.4135 -0.6512  0.8741
  598MOL0     H82493   0.202  10.674   3.383 -2.7877  0.0305  3.8701
  598MOL0     H82494   0.054  10.668   3.177 -2.9413 -0.5775  0.1384
  598MOL0     H82495  -0.024  10.800   3.251  0.4319 -0.5176 -1.4751
  598MOL0     H82496   0.006  10.515   3.375  0.6482 -0.4899  0.6930
  598MOL0     H82497  -0.065  10.664   3.453  1.3739  2.3531 -1.5058
  598MOL0     H82498  -0.180  10.555   3.203  0.0670  3.9997 -1.8328
  598MOL0     H82499  -0.243  10.688   3.303  0.2256 -0.5225 -0.2960
  598MOL0     H82500  -0.266  10.483   3.489 -0.2046  2.0581  0.2317
  598MOL0     H82501  -0.247  10.382   3.343 -1.2703 -1.3471  1.0377
  598MOL0     H82502  -0.441  10.492   3.232 -2.8769  1.4131 -0.6254
  598MOL0     H82503  -0.452  10.611   3.358  2.3035  0.5495  0.0434
  598MOL0     H82504   0.543  10.598   3.284  0.8428  1.5598  0.2110
  598MOL0     H82505   0.763  10.533   3.203 -1.5011  2.6168  0.7798
  598MOL0     H82506   1.072  10.383   2.981 -1.4019  1.2764  1.0048
  598MOL0     H82507   1.259  10.318   2.857  1.8335  0.8375 -2.7162
  598MOL0     H82508   0.627  10.042   1.667 -0.2405 -0.9717 -0.9751
  598MOL0     H82509   0.468  10.052   1.846 -0.2957 -0.8080 -0.1382
  598MOL0     H82510   0.361  10.206   2.202  1.5234 -0.7499  0.0273
  598MOL0     H82511   0.187  10.300   2.309 -2.1238 -0.4046 -0.5470
  598MOL0     H82512  -0.084  10.299   2.380  0.7623  2.2052 -1.2057
  598MOL0     H82513  -0.126  10.275   2.549 -1.0318  1.8322 -0.8582
  598MOL0     H82514   0.079  10.462   2.436 -1.6655  1.7290  0.1396
  598MOL0     H82515   0.108  10.398   2.600 -1.2343 -2.8392 -0.2075
  598MOL0     H82516  -0.147  10.541   2.484  0.8972  2.8532 -0.3764
  598MOL0     H82517  -0.135  10.479   2.642 -0.8627 -2.2438 -0.8845
  598MOL0     H82518  -0.115  10.719   2.639  0.7653 -0.5170  0.0231
  598MOL0     H82519   0.030  10.712   2.532  0.6262  0.5683  1.7076
  598MOL0     H82520   0.186  10.592   2.919  0.5765 -3.6856 -1.8989
  598MOL0     H82521   0.119   9.936   2.537 -1.0279 -0.4706 -1.3444
  598MOL0     H82522   0.265   9.765   2.518  2.7961 -0.0024  3.2140
  598MOL0     H82523   0.315   9.731   2.351 -0.7545  0.0707  0.3893
  598MOL0     H82524   0.432   9.777   2.481 -0.4808  1.4746  1.4044
  599MOL0     O82525   2.652   8.593   9.256  0.0757  0.4628 -0.5889
  599MOL0     C82526   2.669   8.681   9.336  0.1701 -1.1760  0.0409
  599MOL0     O82527   2.573   8.756   9.385 -0.5971  0.2663 -0.3431
  599MOL0     C82528   2.460   8.780   9.310 -0.4422 -0.6870  0.2043
  599MOL0     C82529   2.350   8.826   9.380 -0.5760 -0.0875  0.3368
  599MOL0     C82530   2.238   8.872   9.312  0.5339  0.3150  0.1839
  599MOL0     C82531   2.223   8.865   9.178 -0.4543 -0.7212 -1.0752
  599MOL0     O82532   2.113   8.926   9.124  0.9042 -0.6486  0.0672
  599MOL0     C82533   2.091   8.937   8.980  0.1258  1.1316 -0.3080
  599MOL0     C82534   1.955   8.988   8.950  0.8422  0.0178 -0.0668
  599MOL0     C82535   1.935   9.138   9.000  0.0797  0.4240  0.4781
  599MOL0     C82536   1.802   9.177   8.954  1.2721  0.3563 -0.2199
  599MOL0     C82537   1.760   9.325   8.999  0.4306  0.0450  1.2800
  599MOL0     C82538   1.731   9.345   9.151 -0.5146  0.1673  0.5498
  599MOL0     C82539   1.602   9.415   9.178  0.4159  0.0295 -0.0902
  599MOL0     C82540   1.578   9.438   9.333 -0.6987  0.5744  0.3516
  599MOL0     N82541   1.684   9.498   9.407 -0.3247 -0.9565  0.3905
  599MOL0     C82542   1.758   9.460   9.519  1.0105 -0.5833 -0.5549
  599MOL0     C82543   1.851   9.562   9.538  0.3583  0.2472  0.5276
  599MOL0     C82544   1.948   9.559   9.645 -0.0368  0.0063  0.3697
  599MOL0     C82545   1.883   9.584   9.777 -1.4867 -0.1761 -0.7700
  599MOL0     C82546   1.994   9.577   9.889 -1.0132  0.2477 -0.0741
  599MOL0     C82547   2.082   9.446   9.895  0.3701  0.2376  0.2414
  599MOL0     O82548   2.184   9.447   9.790 -0.7223  0.0079 -0.8074
  599MOL0     C82549   2.278   9.344   9.800  0.6346 -0.0149  0.1239
  599MOL0     C82550   2.286   9.260   9.914  0.1167  0.8110  0.2592
  599MOL0     C82551   2.382   9.152   9.922  0.5049 -1.0229  0.2851
  599MOL0     C82552   2.367   9.078  10.056  0.3318  0.0524  0.3516
  599MOL0     C82553   2.476   9.125   9.815  1.2019  0.5426  0.2651
  599MOL0     C82554   2.588   9.017   9.808  0.8023 -0.2244 -0.7317
  599MOL0     O82555   2.571   8.938   9.918  0.8114  0.6512 -0.2588
  599MOL0     C82556   2.666   8.835   9.959 -0.4906  0.2028 -0.5547
  599MOL0     C82557   2.672   8.805  10.099 -0.0274  0.0963 -0.2296
  599MOL0     C82558   2.758   8.706  10.151  0.0308  1.0273 -0.3303
  599MOL0     C82559   2.846   8.640  10.059  0.0223 -0.1373  0.0383
  599MOL0     O82560   2.944   8.552  10.104  0.9082 -0.1867  0.1045
  599MOL0     C82561   2.984   8.562  10.248  0.8194  0.5801 -0.2914
  599MOL0     C82562   3.105   8.489  10.296 -0.2278  0.0859 -0.2060
  599MOL0     C82563   3.121   8.449  10.447  0.1155 -0.4636  0.0230
  599MOL0     C82564   3.100   8.582  10.523  0.1202  0.4293  0.3462
  599MOL0     C82565   3.110   8.557  10.674  0.3591  1.1681  0.2353
  599MOL0     C82566   3.019   8.450  10.734 -0.2867 -0.1293  0.3124
  599MOL0     C82567   3.025   8.464  10.881  0.2557  0.1643  0.5355
  599MOL0     C82568   3.161   8.427  10.944  0.2367  0.1272  0.6218
  599MOL0    Cl82569   3.230   8.277  10.888  0.2252 -0.2464 -0.0125
  599MOL0     C82570   2.840   8.669   9.917  0.6663  0.2513 -0.8795
  599MOL0     C82571   2.766   8.779   9.874 -0.2683  1.0478 -0.0841
  599MOL0     O82572   2.662   9.005   9.714 -1.2300 -0.4654  0.0094
  599MOL0     C82573   2.464   9.221   9.708 -0.2664  1.0389  0.2375
  599MOL0     C82574   2.362   9.323   9.696  0.2825  1.3060 -0.7400
  599MOL0     N82575   1.838   9.647   9.432  0.2212 -0.5879  0.1625
  599MOL0     N82576   1.733   9.618   9.358 -0.0357  0.3822 -1.0751
  599MOL0     C82577   2.328   8.807   9.106 -0.2671 -0.2747  0.0829
  599MOL0     C82578   2.446   8.762   9.162 -0.6607 -0.3815 -0.0906
  599MOL0     C82579   2.811   8.718   9.381 -0.1891  0.0762 -0.1576
  599MOL0     C82580   2.828   8.832   9.467 -0.1804 -0.9742  0.0460
  599MOL0     C82581   2.951   8.877   9.527  0.2896  0.2674 -0.2818
  599MOL0     C82582   3.064   8.794   9.514  0.8427  1.4613 -0.5603
  599MOL0     O82583   3.167   8.827   9.607 -0.6269 -0.0405 -0.1695
  599MOL0     C82584   3.240   8.723   9.661  0.9044  0.6843  0.0099
  599MOL0     C82585   3.362   8.708   9.559 -0.2138 -0.5917 -0.3015
  599MOL0     C82586   3.473   8.613   9.612  0.1899  0.4481  0.6219
  599MOL0     C82587   3.426   8.467   9.601  0.0295  0.6360  0.0171
  599MOL0     C82588   3.506   8.364   9.663  0.0593 -1.0013  0.6271
  599MOL0     C82589   3.559   8.277   9.726 -0.0712 -0.3356  0.3524
  599MOL0     C82590   3.052   8.676   9.424  0.1953  0.1101  0.8371
  599MOL0     C82591   2.927   8.639   9.351  0.0464 -0.9132  0.2351
  599MOL0     C82592   2.932   8.529   9.252  0.1247 -0.5057  1.0964
  599MOL0     H82593   2.365   8.853   9.484  2.6190  1.5690 -0.4257
  599MOL0     H82594   2.150   8.915   9.360 -2.0581 -0.5942 -3.3597
  599MOL0     H82595   2.096   8.841   8.928 -2.2451 -0.5806  2.2933
  599MOL0     H82596   2.157   9.015   8.941 -1.7493  1.7017 -2.5316
  599MOL0     H82597   1.948   8.976   8.842  1.1675 -0.4153 -0.0400
  599MOL0     H82598   1.884   8.929   9.009  0.2579  0.0537 -0.7255
  599MOL0     H82599   1.933   9.139   9.109  1.2288 -0.8716  0.5494
  599MOL0     H82600   2.013   9.201   8.956 -1.8786  1.8731 -1.1350
  599MOL0     H82601   1.797   9.169   8.845 -0.5258 -1.1767 -0.0554
  599MOL0     H82602   1.728   9.109   8.996 -0.7296  1.4859 -1.7062
  599MOL0     H82603   1.679   9.362   8.936  1.7768  0.9195  0.0106
  599MOL0     H82604   1.846   9.388   8.978 -0.4362  1.7538  2.6070
  599MOL0     H82605   1.742   9.252   9.207  2.3565  0.8346  1.2560
  599MOL0     H82606   1.809   9.411   9.190 -1.0910  0.3785  1.3829
  599MOL0     H82607   1.525   9.347   9.142  0.5199 -0.6598  0.9305
  599MOL0     H82608   1.591   9.512   9.130  1.7142 -0.2183 -0.9419
  599MOL0     H82609   1.483   9.492   9.341 -0.0893  1.7642 -0.1165
  599MOL0     H82610   1.569   9.340   9.380  1.7345 -0.4412 -1.0730
  599MOL0     H82611   1.747   9.369   9.577  0.5023 -0.8088 -0.9967
  599MOL0     H82612   2.022   9.639   9.629  1.4645 -1.6595 -1.6192
  599MOL0     H82613   1.991   9.459   9.641 -0.8721 -0.3674  0.5160
  599MOL0     H82614   1.844   9.686   9.773 -2.1080 -0.4442 -1.6123
  599MOL0     H82615   1.796   9.523   9.802 -2.1661  0.6325 -1.1016
  599MOL0     H82616   2.069   9.657   9.883 -1.7109  0.9780  0.6834
  599MOL0     H82617   1.929   9.588   9.976  0.6802 -0.1904  1.2999
  599MOL0     H82618   2.123   9.443   9.996  2.5233 -3.7607 -0.5355
  599MOL0     H82619   2.017   9.360   9.876 -2.1998  2.2368 -0.5058
  599MOL0     H82620   2.215   9.259   9.995  0.5275  1.8128  0.6414
  599MOL0     H82621   2.446   9.100  10.128 -1.2019  2.5096  1.4082
  599MOL0     H82622   2.353   8.971  10.035 -2.7964  0.1919  1.1430
  599MOL0     H82623   2.276   9.102  10.112 -0.3822 -2.5469  0.4602
  599MOL0     H82624   2.603   8.864  10.159  0.4289  1.4391 -0.9929
  599MOL0     H82625   2.762   8.703  10.260  0.7775  0.6037 -0.3618
  599MOL0     H82626   3.003   8.665  10.280 -2.2106  0.1636  3.5479
  599MOL0     H82627   2.891   8.538  10.299  0.5925  1.0176 -0.4901
  599MOL0     H82628   3.118   8.393  10.245 -0.0759 -0.5694  1.0186
  599MOL0     H82629   3.187   8.539  10.244 -0.2279 -0.6463 -0.9352
  599MOL0     H82630   3.225   8.417  10.459  1.5814  2.7680 -2.5319
  599MOL0     H82631   3.049   8.372  10.476  1.2470 -0.9653  1.6140
  599MOL0     H82632   2.999   8.618  10.501  0.6120  1.7331  0.1451
  599MOL0     H82633   3.169   8.664  10.498  0.2046 -0.3030 -2.0627
  599MOL0     H82634   3.216   8.544  10.700  0.7628  1.0674 -1.3466
  599MOL0     H82635   3.090   8.654  10.721 -0.1616  2.0316 -1.6597
  599MOL0     H82636   3.037   8.348  10.698  2.1335  0.4550 -0.3172
  599MOL0     H82637   2.916   8.474  10.708 -0.8494 -0.6459  1.9349
  599MOL0     H82638   2.952   8.398  10.929  0.4678  2.6025  4.8011
  599MOL0     H82639   2.985   8.563  10.903  0.3147  0.7589 -1.8035
  599MOL0     H82640   3.153   8.416  11.053  0.3693 -0.7880  0.5468
  599MOL0     H82641   3.226   8.512  10.922 -1.7363  1.7085  0.5275
  599MOL0     H82642   2.897   8.625   9.836  0.2513  2.5365 -2.5017
  599MOL0     H82643   2.760   8.803   9.768 -2.1988 -3.0545 -1.0764
  599MOL0     H82644   2.541   9.215   9.632 -1.0241 -0.0629 -0.4754
  599MOL0     H82645   2.365   9.388   9.609  2.6703 -0.6361 -2.2639
  599MOL0     H82646   2.317   8.799   8.998 -1.1784  0.8311  0.0612
  599MOL0     H82647   2.537   8.733   9.111 -0.5428  0.5153 -0.4159
  599MOL0     H82648   2.742   8.895   9.486  0.7315 -0.5112  3.0445
  599MOL0     H82649   2.949   8.952   9.605  0.5722 -1.8211  1.8410
  599MOL0     H82650   3.262   8.752   9.765 -2.8062  0.3274  1.0189
  599MOL0     H82651   3.176   8.634   9.656 -0.7042  1.8680 -3.4418
  599MOL0     H82652   3.395   8.809   9.533 -2.8151  0.6651  0.9097
  599MOL0     H82653   3.328   8.667   9.464 -1.8233  0.0230 -0.0247
  599MOL0     H82654   3.552   8.627   9.537 -2.3197 -0.5477 -2.4605
  599MOL0     H82655   3.502   8.650   9.711  0.0812 -1.3679  1.3604
  599MOL0     H82656   3.415   8.441   9.495  0.7777 -2.3576  0.5573
  599MOL0     H82657   3.324   8.470   9.638  0.3098 -0.3004  0.9075
  599MOL0     H82658   3.616   8.197   9.769  1.7739  1.3447  1.1779
  599MOL0     H82659   3.134   8.608   9.407 -1.6648 -1.7943 -1.2957
  599MOL0     H82660   3.035   8.496   9.235  0.7339  2.3026 -1.5918
  599MOL0     H82661   2.870   8.447   9.288 -3.2688  0.9231 -0.9403
  599MOL0     H82662   2.885   8.564   9.159  2.0047 -0.7862 -0.0128
  600MOL0     O82663   7.225   3.749   7.590  1.1198 -0.2958 -0.5256
  600MOL0     C82664   7.179   3.759   7.708 -0.5691 -0.4287  0.5587
  600MOL0     O82665   7.247   3.816   7.813  0.0582 -0.0342  0.0476
  600MOL0     C82666   7.386   3.832   7.806 -0.0010  0.7580 -0.0169
  600MOL0     C82667   7.472   3.736   7.873  0.0098 -0.4278 -0.8265
  600MOL0     C82668   7.612   3.751   7.863  0.7865  0.2907 -0.4736
  600MOL0     C82669   7.669   3.845   7.781  0.1464  0.1890  0.0796
  600MOL0     O82670   7.806   3.869   7.759  0.3989  0.5629  0.1386
  600MOL0     C82671   7.904   3.819   7.857  0.3430  0.0740 -0.0914
  600MOL0     C82672   8.007   3.941   7.867  0.4263  0.4932 -0.1253
  600MOL0     C82673   8.090   3.959   7.745  0.5105  0.1593  0.4168
  600MOL0     C82674   8.207   3.872   7.716 -0.0754 -0.0106 -0.2011
  600MOL0     C82675   8.309   3.939   7.619 -0.7034  0.5959 -0.6144
  600MOL0     C82676   8.265   3.936   7.466 -1.1526  0.3196  0.4209
  600MOL0     C82677   8.389   3.996   7.389 -0.0224  0.1162  0.8639
  600MOL0     C82678   8.397   4.150   7.417 -0.3076 -0.3590 -0.0016
  600MOL0     N82679   8.529   4.209   7.381  0.7366 -0.1746  0.1523
  600MOL0     C82680   8.647   4.148   7.424 -0.5184 -0.6683 -0.5496
  600MOL0     C82681   8.735   4.230   7.376  0.9464 -1.4982  0.4584
  600MOL0     C82682   8.882   4.209   7.379  0.4467  0.3204  0.5856
  600MOL0     C82683   8.963   4.292   7.479 -0.3847 -0.1434  0.0395
  600MOL0     C82684   9.095   4.339   7.432 -0.4307 -0.0094  0.0342
  600MOL0     C82685   9.191   4.220   7.403  0.1526 -0.0832  0.0239
  600MOL0     O82686   9.308   4.258   7.337  0.6553 -0.0661  0.4062
  600MOL0     C82687   9.398   4.174   7.280 -0.4025  0.9347  0.0340
  600MOL0     C82688   9.490   4.217   7.183 -1.4965 -0.5575  0.6226
  600MOL0     C82689   9.581   4.138   7.107  0.4855  0.5598 -0.1834
  600MOL0     C82690   9.670   4.199   7.003  0.1176 -0.7042 -0.6914
  600MOL0     C82691   9.576   3.999   7.133 -0.5768  0.2642 -0.5079
  600MOL0     C82692   9.662   3.900   7.068  0.3819 -0.2780  0.8266
  600MOL0     O82693   9.603   3.776   7.037  0.0948 -0.0372  0.2451
  600MOL0     C82694   9.682   3.670   6.995  0.2245 -0.1838 -0.1525
  600MOL0     C82695   9.649   3.622   6.873  0.0572  0.1799  1.3908
  600MOL0     C82696   9.698   3.493   6.826 -0.4582 -0.8848  0.1420
  600MOL0     C82697   9.777   3.424   6.917  0.6104  1.0275 -0.1986
  600MOL0     O82698   9.798   3.297   6.877 -0.2653  0.3196 -0.3403
  600MOL0     C82699   9.912   3.227   6.938 -0.3345 -0.4088  0.5856
  600MOL0     C82700   9.988   3.142   6.840 -1.0906 -0.3608  0.0152
  600MOL0     C82701  10.122   3.096   6.901 -0.1643  0.5218  0.0684
  600MOL0     C82702  10.217   3.204   6.958  0.1176  0.4856  0.4445
  600MOL0     C82703  10.342   3.154   7.033 -0.5153 -0.5708  0.7862
  600MOL0     C82704  10.428   3.281   7.040  0.0459  0.3647  0.4794
  600MOL0     C82705  10.543   3.278   7.136 -0.3106  0.2873  0.0184
  600MOL0     C82706  10.639   3.173   7.112 -0.7096 -0.2129  0.6612
  600MOL0    Cl82707  10.679   3.193   6.947 -0.3438  0.3432  0.1019
  600MOL0     C82708   9.806   3.476   7.043  0.2555  0.4101 -0.2127
  600MOL0     C82709   9.758   3.596   7.091  0.1226  0.3800 -0.9072
  600MOL0     O82710   9.776   3.933   7.041  0.1755 -0.0896 -0.0005
  600MOL0     C82711   9.483   3.946   7.230  0.3692 -0.3986  0.5654
  600MOL0     C82712   9.385   4.028   7.292 -0.1745  0.0130 -0.2126
  600MOL0     N82713   8.675   4.340   7.313  0.1041  0.0302 -0.6835
  600MOL0     N82714   8.543   4.332   7.320 -0.0404 -0.4557 -0.1248
  600MOL0     C82715   7.589   3.930   7.717 -0.2550  0.3813 -0.4150
  600MOL0     C82716   7.451   3.923   7.717 -0.1227 -0.0729 -0.2765
  600MOL0     C82717   7.042   3.714   7.727  0.4904 -0.8968 -0.3611
  600MOL0     C82718   6.987   3.615   7.641 -0.1469 -0.2494 -0.0924
  600MOL0     C82719   6.846   3.571   7.637 -0.3903  0.3183 -0.8408
  600MOL0     C82720   6.769   3.606   7.745 -0.5747 -0.3678 -1.2029
  600MOL0     O82721   6.642   3.562   7.763  0.0277  0.1980  0.5825
  600MOL0     C82722   6.595   3.465   7.678  0.1203 -0.6589  0.0694
  600MOL0     C82723   6.445   3.453   7.718 -0.7565 -0.0900 -0.4178
  600MOL0     C82724   6.353   3.392   7.617 -0.0015  0.8668  0.1489
  600MOL0     C82725   6.333   3.464   7.476 -0.4668  0.8166 -0.0901
  600MOL0     C82726   6.264   3.584   7.482  0.8050 -0.8156  0.3970
  600MOL0     C82727   6.211   3.690   7.495 -0.6979  0.0127  0.2489
  600MOL0     C82728   6.826   3.689   7.847  0.4081  0.0276  0.3615
  600MOL0     C82729   6.954   3.737   7.840  0.2134 -0.5731  0.3276
  600MOL0     C82730   6.997   3.836   7.944  0.0966  0.9258 -0.4131
  600MOL0     H82731   7.440   3.664   7.948 -2.0433  1.6149  0.3745
  600MOL0     H82732   7.679   3.696   7.928  0.9557 -0.6741 -1.4456
  600MOL0     H82733   7.950   3.723   7.832  2.3381  1.4142 -1.9421
  600MOL0     H82734   7.848   3.809   7.951 -0.1973 -0.4310 -0.4596
  600MOL0     H82735   7.948   4.033   7.869 -0.9075 -0.1925 -2.9185
  600MOL0     H82736   8.069   3.929   7.956 -2.3949  1.2657  2.0892
  600MOL0     H82737   8.012   3.958   7.668 -0.2877 -3.4952  1.0998
  600MOL0     H82738   8.122   4.064   7.746  1.6554 -0.1713  1.8480
  600MOL0     H82739   8.249   3.846   7.814  0.8069 -0.9252 -0.7905
  600MOL0     H82740   8.176   3.778   7.668 -1.9224 -1.4902  3.5120
  600MOL0     H82741   8.403   3.883   7.616 -3.4117 -4.5792  0.0263
  600MOL0     H82742   8.319   4.040   7.660  0.3821  1.4527 -2.8670
  600MOL0     H82743   8.243   3.834   7.434 -1.1891  0.8194 -1.2302
  600MOL0     H82744   8.177   4.000   7.453 -0.3289  1.6259  1.0214
  600MOL0     H82745   8.375   3.975   7.282  1.2838 -0.1645  0.7251
  600MOL0     H82746   8.482   3.943   7.414 -0.5483  0.0792  2.8545
  600MOL0     H82747   8.318   4.209   7.369  1.0252  0.6056 -1.1028
  600MOL0     H82748   8.388   4.168   7.524  0.4701  0.0778 -0.0001
  600MOL0     H82749   8.656   4.059   7.486 -0.4045 -0.3169 -0.0573
  600MOL0     H82750   8.903   4.228   7.273 -1.4704 -0.5709  0.0035
  600MOL0     H82751   8.899   4.101   7.389 -1.4630  0.0063  0.6945
  600MOL0     H82752   8.901   4.377   7.508 -0.6225 -0.6178  0.9420
  600MOL0     H82753   8.980   4.232   7.569 -1.4188 -0.9063 -0.2572
  600MOL0     H82754   9.080   4.405   7.346  0.4353 -0.6001 -0.5933
  600MOL0     H82755   9.150   4.405   7.500 -0.2459  0.5865 -0.6771
  600MOL0     H82756   9.208   4.189   7.507 -0.9655 -1.5432 -0.2039
  600MOL0     H82757   9.144   4.137   7.350 -5.2740  2.2563  0.5326
  600MOL0     H82758   9.484   4.321   7.153  0.2524 -0.3862  0.7609
  600MOL0     H82759   9.771   4.197   7.045 -0.3420 -0.3812  0.4596
  600MOL0     H82760   9.658   4.301   6.966  0.6284 -1.5807 -3.5186
  600MOL0     H82761   9.664   4.138   6.913  1.6327 -0.1058 -1.2235
  600MOL0     H82762   9.585   3.679   6.807  0.8017 -0.3091  0.2127
  600MOL0     H82763   9.653   3.449   6.738  0.2140 -1.0837 -0.1074
  600MOL0     H82764   9.969   3.312   6.976 -1.8931  1.0162 -0.1205
  600MOL0     H82765   9.881   3.161   7.020  0.8518 -0.0008  1.3821
  600MOL0     H82766   9.923   3.057   6.821 -2.3087  1.2042 -3.8228
  600MOL0     H82767  10.016   3.187   6.745  2.8576 -1.0833  0.6734
  600MOL0     H82768  10.181   3.040   6.827 -0.2720  0.8881 -0.2966
  600MOL0     H82769  10.103   3.026   6.983  1.9802  0.0858  0.2710
  600MOL0     H82770  10.162   3.258   7.035 -1.2947 -0.6729  0.2983
  600MOL0     H82771  10.244   3.268   6.873  2.0142  0.0014  0.6264
  600MOL0     H82772  10.319   3.113   7.132 -3.4467  0.1439  0.4933
  600MOL0     H82773  10.391   3.078   6.973 -5.0128 -2.0581 -1.4557
  600MOL0     H82774  10.360   3.358   7.077 -2.0073 -0.7435 -0.7985
  600MOL0     H82775  10.466   3.316   6.944 -0.3841  1.4538  0.6921
  600MOL0     H82776  10.503   3.264   7.237  2.0448  1.8993  1.2703
  600MOL0     H82777  10.598   3.372   7.142  1.3421 -0.7342  2.1908
  600MOL0     H82778  10.602   3.074   7.138  2.3919 -1.3780  0.9846
  600MOL0     H82779  10.731   3.188   7.169  0.6619 -0.9770 -1.2768
  600MOL0     H82780   9.862   3.423   7.120 -0.3827  2.2855  1.6250
  600MOL0     H82781   9.770   3.629   7.194 -0.8373 -0.6257 -0.4584
  600MOL0     H82782   9.482   3.840   7.251  1.9835  0.0690  3.8033
  600MOL0     H82783   9.323   3.989   7.371 -1.7470 -0.2130 -1.5007
  600MOL0     H82784   7.634   4.003   7.651  1.3169  2.5936  2.8612
  600MOL0     H82785   7.389   3.995   7.664  0.6263  1.8896  1.3527
  600MOL0     H82786   7.047   3.576   7.559 -0.1458 -1.7512  0.5808
  600MOL0     H82787   6.817   3.494   7.565 -1.2868  1.0972 -1.3383
  600MOL0     H82788   6.611   3.487   7.572  1.7661  0.8067  0.5712
  600MOL0     H82789   6.647   3.373   7.707  3.2247  0.3938 -1.7092
  600MOL0     H82790   6.406   3.555   7.725  0.6458  0.6298 -2.1680
  600MOL0     H82791   6.425   3.397   7.810  0.2126 -1.3052 -0.9242
  600MOL0     H82792   6.390   3.290   7.616 -1.5441  0.2741 -0.0190
  600MOL0     H82793   6.254   3.371   7.659 -0.7010 -1.9992 -2.5967
  600MOL0     H82794   6.287   3.399   7.402  0.1670  1.6510 -1.2582
  600MOL0     H82795   6.427   3.503   7.435 -1.8099  1.4879 -2.7703
  600MOL0     H82796   6.154   3.778   7.518  1.8723  1.7090  0.5133
  600MOL0     H82797   6.776   3.717   7.939  1.3974  1.9020  0.3868
  600MOL0     H82798   7.077   3.790   8.003  0.8478  0.3342 -1.8329
  600MOL0     H82799   7.038   3.928   7.903 -2.4364  1.0813 -2.9270
  600MOL0     H82800   6.922   3.869   8.016  1.0682  1.1115  0.5448
  601MOL0     O82801   6.823   3.514   5.124  0.1909 -0.1474 -1.0941
  601MOL0     C82802   6.746   3.601   5.160 -0.3206  0.6367  0.2416
  601MOL0     O82803   6.609   3.598   5.156 -0.1365 -0.0737 -0.4979
  601MOL0     C82804   6.543   3.514   5.070 -0.9911  0.3815 -0.5239
  601MOL0     C82805   6.450   3.413   5.112  0.8038  0.5611 -0.3852
  601MOL0     C82806   6.393   3.327   5.011 -0.1696 -0.0611 -0.0694
  601MOL0     C82807   6.420   3.344   4.875  0.0181 -0.4452 -0.4275
  601MOL0     O82808   6.355   3.264   4.784 -0.4983  0.1706  0.0179
  601MOL0     C82809   6.315   3.318   4.659 -0.6136 -0.7816  0.9122
  601MOL0     C82810   6.230   3.210   4.602 -1.0300  0.0832 -0.4863
  601MOL0     C82811   6.183   3.242   4.457 -0.2754  0.3092  0.9532
  601MOL0     C82812   6.044   3.201   4.429 -0.4798 -0.3564 -0.1993
  601MOL0     C82813   6.028   3.044   4.430  0.2822 -0.4706  0.7314
  601MOL0     C82814   5.890   3.012   4.381  1.1575  0.3848  0.1510
  601MOL0     C82815   5.779   3.043   4.479 -0.4135 -0.5975  0.1613
  601MOL0     C82816   5.662   3.098   4.396  0.0820 -0.2737 -0.1365
  601MOL0     N82817   5.678   3.239   4.372  0.2962  0.0635  0.8650
  601MOL0     C82818   5.648   3.344   4.457  0.1227 -0.1118 -0.5004
  601MOL0     C82819   5.690   3.453   4.392  0.2799  0.3202 -0.9391
  601MOL0     C82820   5.668   3.595   4.455 -0.4396  0.2673  0.5480
  601MOL0     C82821   5.765   3.700   4.385  0.0578 -0.5955 -0.6526
  601MOL0     C82822   5.901   3.724   4.452  0.4367 -0.1294 -0.8738
  601MOL0     C82823   5.977   3.829   4.366 -1.0919  0.2669 -0.0834
  601MOL0     O82824   5.997   3.795   4.225 -0.5197  0.1474 -0.5200
  601MOL0     C82825   6.064   3.894   4.163  0.4575 -0.5051 -0.0972
  601MOL0     C82826   6.173   3.865   4.073 -0.6394 -0.5298  0.3980
  601MOL0     C82827   6.223   3.966   3.989  0.9793 -0.0694 -0.8386
  601MOL0     C82828   6.336   3.931   3.904  0.0583  0.2672 -0.0255
  601MOL0     C82829   6.167   4.098   3.999 -1.6633  0.4629 -0.2749
  601MOL0     C82830   6.233   4.208   3.925 -0.2470  0.1271  0.1563
  601MOL0     O82831   6.152   4.268   3.826 -0.1663  0.1606 -1.2514
  601MOL0     C82832   6.202   4.380   3.765  0.7617 -0.1684  0.1786
  601MOL0     C82833   6.287   4.377   3.662 -0.6646  0.0455  0.6848
  601MOL0     C82834   6.316   4.500   3.594 -0.2114 -0.5424 -0.1770
  601MOL0     C82835   6.264   4.623   3.631 -0.0516 -0.6689  0.0195
  601MOL0     O82836   6.284   4.736   3.568 -0.2360  0.1942  0.2355
  601MOL0     C82837   6.320   4.856   3.642 -0.4382 -0.4749 -0.2682
  601MOL0     C82838   6.406   4.956   3.554 -0.0656 -1.1278  0.2790
  601MOL0     C82839   6.545   4.930   3.527 -0.2648 -0.2398  0.4699
  601MOL0     C82840   6.619   4.945   3.660 -0.1604  0.1902  1.4901
  601MOL0     C82841   6.744   4.856   3.659  0.0136  0.3421  0.1478
  601MOL0     C82842   6.844   4.894   3.552 -0.1739  0.0304  0.5600
  601MOL0     C82843   6.961   4.790   3.539  0.1445  0.1147  0.0214
  601MOL0     C82844   7.080   4.836   3.454  0.7983  0.0327  0.1750
  601MOL0    Cl82845   7.190   4.697   3.468  0.5067  0.8090 -0.1162
  601MOL0     C82846   6.176   4.614   3.742  0.2406 -0.4037 -1.4175
  601MOL0     C82847   6.153   4.495   3.814  0.0860 -0.5130 -0.3127
  601MOL0     O82848   6.346   4.248   3.956 -0.0587  0.1138 -0.0770
  601MOL0     C82849   6.047   4.121   4.071  0.8267 -0.3975  0.2672
  601MOL0     C82850   6.002   4.021   4.160 -0.4593  0.3542 -0.2296
  601MOL0     N82851   5.741   3.417   4.267  0.3272 -0.2943 -0.3930
  601MOL0     N82852   5.734   3.284   4.257 -0.4785 -0.9261  0.7195
  601MOL0     C82853   6.521   3.433   4.848  0.2197  0.2881 -0.0814
  601MOL0     C82854   6.580   3.521   4.941  0.0798 -0.1442  0.0012
  601MOL0     C82855   6.802   3.727   5.227 -0.6192 -0.8532  0.3478
  601MOL0     C82856   6.737   3.799   5.325  0.6462  0.5409  0.1008
  601MOL0     C82857   6.784   3.923   5.367 -0.4800 -0.3674 -0.5429
  601MOL0     C82858   6.905   3.973   5.320  0.4242  0.0355 -0.1162
  601MOL0     O82859   6.955   4.092   5.361  0.2189 -0.6697 -0.1345
  601MOL0     C82860   6.992   4.197   5.275 -0.6950  0.5680 -0.5039
  601MOL0     C82861   6.915   4.222   5.142 -1.1236  1.5474  0.1903
  601MOL0     C82862   6.940   4.358   5.091  0.1419 -0.3832  0.2784
  601MOL0     C82863   6.851   4.465   5.152 -0.2843 -0.0574 -0.9151
  601MOL0     C82864   6.860   4.600   5.089 -0.2026 -0.6189  0.1960
  601MOL0     C82865   6.855   4.707   5.035  0.3321  0.0304  0.6824
  601MOL0     C82866   6.969   3.901   5.220 -0.3776 -0.1098  0.5513
  601MOL0     C82867   6.923   3.776   5.179 -0.0444  0.0953 -0.5173
  601MOL0     C82868   7.001   3.713   5.067 -0.4468 -0.2453 -0.4971
  601MOL0     H82869   6.422   3.393   5.215  1.4496 -0.4478 -0.3845
  601MOL0     H82870   6.309   3.265   5.041 -1.3032  2.8595  3.6874
  601MOL0     H82871   6.391   3.345   4.585 -4.1503  2.3614 -1.9680
  601MOL0     H82872   6.251   3.407   4.665  0.7842  0.3920 -0.5112
  601MOL0     H82873   6.295   3.123   4.612  1.8061  2.0164 -1.0522
  601MOL0     H82874   6.145   3.197   4.670 -0.4447  1.9900  0.6642
  601MOL0     H82875   6.190   3.349   4.434 -0.2339 -0.1059 -1.1922
  601MOL0     H82876   6.255   3.199   4.387 -0.5737 -1.0001  1.4122
  601MOL0     H82877   5.981   3.252   4.503 -0.1957 -1.5168  0.8756
  601MOL0     H82878   6.019   3.239   4.330 -0.3984  0.5947  0.1320
  601MOL0     H82879   6.039   3.015   4.535 -0.5345  0.9588  1.2501
  601MOL0     H82880   6.099   2.994   4.364 -1.5584 -0.5714 -1.2712
  601MOL0     H82881   5.867   3.052   4.282  0.2684 -2.3574 -0.8592
  601MOL0     H82882   5.883   2.907   4.353  0.3283  0.0673  1.4521
  601MOL0     H82883   5.808   3.116   4.555  1.5010 -0.6438 -0.4813
  601MOL0     H82884   5.742   2.946   4.516  0.0398 -0.4369  1.0783
  601MOL0     H82885   5.657   3.037   4.306 -1.2186  0.9795 -0.9457
  601MOL0     H82886   5.577   3.088   4.464  1.9754  2.7979  3.1067
  601MOL0     H82887   5.603   3.346   4.556  0.0857  1.6104 -0.5314
  601MOL0     H82888   5.691   3.595   4.562  1.9977  0.6504  0.0912
  601MOL0     H82889   5.563   3.624   4.448 -0.7897  0.5187  4.6358
  601MOL0     H82890   5.783   3.670   4.282 -1.5027  1.1793 -1.4995
  601MOL0     H82891   5.708   3.793   4.395 -0.1219 -0.6933 -0.7747
  601MOL0     H82892   5.885   3.764   4.553  0.8744  3.4611 -2.0878
  601MOL0     H82893   5.945   3.625   4.463 -0.7725 -0.6180 -0.2403
  601MOL0     H82894   5.927   3.925   4.379  1.6605  1.6997  0.8735
  601MOL0     H82895   6.080   3.838   4.402  0.2985 -0.5235 -3.5127
  601MOL0     H82896   6.221   3.768   4.070  0.6369  0.0982 -0.8363
  601MOL0     H82897   6.427   3.953   3.959 -0.2346  1.2764  0.0735
  601MOL0     H82898   6.337   3.984   3.809  1.9788 -1.6731 -1.1858
  601MOL0     H82899   6.331   3.822   3.890  0.3128  0.1677  0.6102
  601MOL0     H82900   6.318   4.281   3.622  1.4902  0.8561  0.2675
  601MOL0     H82901   6.392   4.502   3.516 -2.4372  0.4845 -2.5038
  601MOL0     H82902   6.226   4.907   3.666 -1.0000 -1.9166  0.7534
  601MOL0     H82903   6.374   4.834   3.734 -1.2163 -0.3545  0.2293
  601MOL0     H82904   6.368   4.978   3.454  2.1293 -1.1360 -0.6173
  601MOL0     H82905   6.395   5.051   3.607  1.4813 -2.9746  4.3360
  601MOL0     H82906   6.583   4.996   3.449 -1.8111  0.1774  0.0337
  601MOL0     H82907   6.554   4.828   3.489 -0.6593  0.3798 -1.3844
  601MOL0     H82908   6.561   4.917   3.749 -1.0676  2.5130  1.6855
  601MOL0     H82909   6.658   5.046   3.673  1.0246  0.1549 -1.1640
  601MOL0     H82910   6.783   4.854   3.761 -2.8991 -1.2241  1.3489
  601MOL0     H82911   6.722   4.752   3.637 -1.2516  0.8984 -1.4584
  601MOL0     H82912   6.875   4.995   3.582 -1.0034  0.6367 -0.5169
  601MOL0     H82913   6.798   4.895   3.452 -0.8533 -0.7471  0.8570
  601MOL0     H82914   6.925   4.696   3.495  2.1695 -1.0460  0.6744
  601MOL0     H82915   6.996   4.758   3.638 -2.0679  0.0565  0.8354
  601MOL0     H82916   7.135   4.922   3.494  0.1650  0.4613  0.1341
  601MOL0     H82917   7.049   4.855   3.350 -0.9930 -2.2282  0.2156
  601MOL0     H82918   6.113   4.697   3.774 -0.5366 -0.5099 -2.6273
  601MOL0     H82919   6.073   4.489   3.886 -0.1646 -0.1844 -0.5587
  601MOL0     H82920   5.996   4.217   4.066  1.3592  0.1493  3.3297
  601MOL0     H82921   5.903   4.034   4.203  0.3760  2.4701  1.2322
  601MOL0     H82922   6.564   3.448   4.749 -1.7315  0.9703 -0.8813
  601MOL0     H82923   6.650   3.599   4.911  1.6640 -1.1524  0.9382
  601MOL0     H82924   6.638   3.763   5.352  0.6624 -0.2350 -0.8210
  601MOL0     H82925   6.722   3.980   5.435  1.2519  0.2337  0.6014
  601MOL0     H82926   6.979   4.281   5.343 -2.0032 -1.6401  2.1743
  601MOL0     H82927   7.094   4.177   5.241  0.0345  0.9157  1.3853
  601MOL0     H82928   6.810   4.195   5.158 -0.4825 -1.9678 -0.8368
  601MOL0     H82929   6.947   4.154   5.063 -1.3601  1.9168 -0.2273
  601MOL0     H82930   7.046   4.380   5.098  0.4594 -1.8787  0.5345
  601MOL0     H82931   6.911   4.348   4.986  0.9971 -1.2882  0.1162
  601MOL0     H82932   6.894   4.474   5.253 -1.4446 -2.1095 -0.1866
  601MOL0     H82933   6.747   4.431   5.162 -0.3787  0.6405  0.8560
  601MOL0     H82934   6.837   4.798   4.981 -0.6076 -1.4186 -1.5799
  601MOL0     H82935   7.043   3.952   5.160 -0.4039 -1.2452 -0.4673
  601MOL0     H82936   7.086   3.779   5.047  1.5186 -2.1130  1.0266
  601MOL0     H82937   7.049   3.617   5.091  0.2297  0.1768 -0.1212
  601MOL0     H82938   6.939   3.705   4.978 -0.8756  2.7744 -0.5804
  602MOL0     O82939   7.524   8.745   9.884  0.0636  0.4395 -0.0992
  602MOL0     C82940   7.531   8.817   9.788  0.2038 -0.9122  0.6105
  602MOL0     O82941   7.522   8.788   9.644  0.2859  0.0255 -0.6123
  602MOL0     C82942   7.520   8.655   9.610 -0.2794 -0.4070 -0.1471
  602MOL0     C82943   7.403   8.601   9.552  0.2286 -0.4466  0.0823
  602MOL0     C82944   7.401   8.463   9.535 -0.3220  0.8382  1.2284
  602MOL0     C82945   7.517   8.387   9.551  0.5045 -0.5522  0.2552
  602MOL0     O82946   7.521   8.252   9.525  0.3096  2.0134 -0.1684
  602MOL0     C82947   7.632   8.207   9.442  1.2373  0.7746  0.0262
  602MOL0     C82948   7.588   8.094   9.357 -0.2401 -0.3978  0.4666
  602MOL0     C82949   7.474   8.123   9.276  1.2118  0.6188  0.3846
  602MOL0     C82950   7.388   7.999   9.234 -0.5231  0.1924 -0.4442
  602MOL0     C82951   7.455   7.874   9.179  0.8952  0.2722  0.5025
  602MOL0     C82952   7.359   7.754   9.139 -0.1961 -0.4836  0.4318
  602MOL0     C82953   7.435   7.658   9.047  0.0111  1.0644 -0.2208
  602MOL0     C82954   7.358   7.528   9.016 -0.6858  0.2964  0.2297
  602MOL0     N82955   7.256   7.543   8.906 -0.3000 -0.0675  0.5988
  602MOL0     C82956   7.227   7.454   8.806  0.5837 -0.4685 -0.1035
  602MOL0     C82957   7.117   7.506   8.741 -0.0732  1.1534  0.5680
  602MOL0     C82958   7.042   7.447   8.619 -0.1297  0.4742  0.2951
  602MOL0     C82959   6.893   7.458   8.656  0.9724 -0.5021 -0.1548
  602MOL0     C82960   6.825   7.393   8.540  1.1218 -0.9503  0.2917
  602MOL0     C82961   6.670   7.424   8.542 -1.1491 -0.0782 -0.0625
  602MOL0     O82962   6.601   7.387   8.422 -0.6068  0.3437  0.2943
  602MOL0     C82963   6.585   7.254   8.388  1.4779 -0.1171 -0.5347
  602MOL0     C82964   6.464   7.190   8.423 -0.0324 -0.6513 -0.7124
  602MOL0     C82965   6.422   7.061   8.383  0.7516 -0.0337 -0.3582
  602MOL0     C82966   6.277   7.017   8.416  0.9151  0.3188 -0.6737
  602MOL0     C82967   6.518   6.987   8.312  0.9804 -0.2442 -1.1763
  602MOL0     C82968   6.490   6.848   8.286 -0.0248 -0.4812 -0.1832
  602MOL0     O82969   6.442   6.767   8.376  0.0637  0.0403  0.0460
  602MOL0     C82970   6.426   6.634   8.361  0.1158 -0.0772  1.2405
  602MOL0     C82971   6.502   6.550   8.439  0.6267 -0.2453 -0.0238
  602MOL0     C82972   6.505   6.413   8.424 -0.1039 -0.1694  1.6360
  602MOL0     C82973   6.427   6.352   8.327 -0.6878 -0.5604 -0.1168
  602MOL0     O82974   6.426   6.216   8.324  0.7230  0.4328  0.5941
  602MOL0     C82975   6.317   6.157   8.249  0.1419 -0.1399  1.0959
  602MOL0     C82976   6.290   6.009   8.284 -0.0384 -0.6873  0.2178
  602MOL0     C82977   6.243   6.003   8.429 -0.2554  0.3520 -0.3092
  602MOL0     C82978   6.221   5.861   8.493  0.6908  0.4321 -0.1614
  602MOL0     C82979   6.093   5.793   8.439 -0.7058  0.0561 -0.5702
  602MOL0     C82980   6.057   5.650   8.501  0.0211 -1.4436 -0.0984
  602MOL0     C82981   6.119   5.543   8.415  0.8119 -0.1013 -0.1548
  602MOL0     C82982   6.091   5.403   8.469 -1.6402  0.2452  0.3131
  602MOL0    Cl82983   6.124   5.278   8.344 -0.3262  0.1626 -0.6259
  602MOL0     C82984   6.344   6.434   8.242  0.5229 -0.6756 -0.0939
  602MOL0     C82985   6.342   6.574   8.258 -0.0880  0.3266 -0.8249
  602MOL0     O82986   6.527   6.814   8.172  0.4652  0.0885 -0.6125
  602MOL0     C82987   6.635   7.049   8.274 -0.5299 -0.1798 -0.5961
  602MOL0     C82988   6.667   7.181   8.304 -0.4083 -0.5812 -0.2834
  602MOL0     N82989   7.094   7.629   8.803  0.2062 -0.1989  0.2813
  602MOL0     N82990   7.167   7.644   8.906 -0.1120 -0.0498 -0.5597
  602MOL0     C82991   7.631   8.443   9.604  0.4804 -0.9181 -0.0458
  602MOL0     C82992   7.636   8.578   9.637 -0.7273  0.3324 -0.0324
  602MOL0     C82993   7.515   8.962   9.821  0.5124  0.7191  0.1706
  602MOL0     C82994   7.426   9.043   9.751  0.2930  0.2333 -0.6872
  602MOL0     C82995   7.416   9.177   9.798 -0.3681 -0.5395  0.9565
  602MOL0     C82996   7.481   9.236   9.899  0.7272  0.1874  0.1311
  602MOL0     O82997   7.440   9.366   9.923 -0.5552  0.4637 -0.1125
  602MOL0     C82998   7.512   9.436  10.015 -0.0022  0.0055 -0.2748
  602MOL0     C82999   7.414   9.541  10.077 -0.5409 -0.1632  0.6164
  602MOL0     C83000   7.300   9.477  10.145  0.6960 -0.1529 -0.1272
  602MOL0     C83001   7.241   9.567  10.253 -0.2519 -0.2157 -0.1048
  602MOL0     C83002   7.327   9.587  10.366  0.3197 -0.1856 -0.7964
  602MOL0     C83003   7.399   9.620  10.454 -0.5066  0.1536 -0.4089
  602MOL0     C83004   7.573   9.153   9.966  0.8164 -1.0523  0.1329
  602MOL0     C83005   7.590   9.015   9.931 -0.0225 -0.1365 -0.0745
  602MOL0     C83006   7.692   8.943  10.004 -0.2568  0.2184  0.5676
  602MOL0     H83007   7.325   8.665   9.512  2.3387  2.2800 -0.0073
  602MOL0     H83008   7.305   8.426   9.500  1.7391 -3.0678 -0.9309
  602MOL0     H83009   7.718   8.171   9.499  0.9578  1.8096  1.1465
  602MOL0     H83010   7.659   8.288   9.374  1.3151  1.5383  0.9455
  602MOL0     H83011   7.668   8.057   9.291 -0.3879  0.6000 -0.2902
  602MOL0     H83012   7.559   8.003   9.411 -0.4590 -1.1519 -0.8818
  602MOL0     H83013   7.403   8.191   9.324 -0.2569 -1.5317  1.4303
  602MOL0     H83014   7.515   8.165   9.183  0.5790  4.3821  1.6148
  602MOL0     H83015   7.307   7.984   9.306 -0.2902 -0.7252 -0.3629
  602MOL0     H83016   7.331   8.032   9.147  1.3137 -0.5618 -2.0081
  602MOL0     H83017   7.530   7.839   9.249  1.4840 -1.2712 -0.8300
  602MOL0     H83018   7.517   7.896   9.092  2.9355 -2.0576  1.2631
  602MOL0     H83019   7.331   7.705   9.233  1.7587  1.5998  2.2114
  602MOL0     H83020   7.266   7.786   9.091  0.8912  0.5871 -1.0089
  602MOL0     H83021   7.535   7.639   9.088 -0.7533  0.2961  1.3643
  602MOL0     H83022   7.442   7.709   8.951 -2.1469 -2.3488 -2.4225
  602MOL0     H83023   7.435   7.461   8.977  0.2100  1.7023 -0.5077
  602MOL0     H83024   7.306   7.490   9.104 -1.3305  1.2165  0.2698
  602MOL0     H83025   7.281   7.364   8.780  2.7300  1.5584 -3.3940
  602MOL0     H83026   7.063   7.340   8.613  0.5130  0.6067  0.1883
  602MOL0     H83027   7.071   7.494   8.526  0.5038 -1.1122 -0.3440
  602MOL0     H83028   6.868   7.419   8.755 -0.5950  2.2023  0.6318
  602MOL0     H83029   6.877   7.566   8.662  1.8605 -0.1416 -2.7481
  602MOL0     H83030   6.871   7.425   8.446  1.0663 -3.5113 -0.6940
  602MOL0     H83031   6.834   7.284   8.544 -2.3968 -1.4598 -1.5303
  602MOL0     H83032   6.627   7.373   8.628 -0.0600 -0.9829 -0.0182
  602MOL0     H83033   6.663   7.532   8.551 -2.5242 -0.3292  3.1909
  602MOL0     H83034   6.387   7.250   8.470  2.1589 -0.2798  2.7570
  602MOL0     H83035   6.229   6.972   8.329  1.7234 -0.4722 -0.7333
  602MOL0     H83036   6.207   7.095   8.446 -1.5750 -1.1604 -2.2304
  602MOL0     H83037   6.289   6.939   8.492  2.6728 -0.8169 -2.0138
  602MOL0     H83038   6.566   6.607   8.506 -0.7512  0.0066  1.1169
  602MOL0     H83039   6.575   6.345   8.472 -0.5912 -2.3969 -0.6245
  602MOL0     H83040   6.226   6.211   8.278  0.6924  0.8519  1.0323
  602MOL0     H83041   6.342   6.184   8.146 -1.2665  0.7834  0.9655
  602MOL0     H83042   6.208   5.979   8.218  0.9217  1.6580 -2.2266
  602MOL0     H83043   6.373   5.938   8.278 -0.4204 -1.6174  3.7036
  602MOL0     H83044   6.148   6.058   8.431 -0.6612 -0.3068 -0.7533
  602MOL0     H83045   6.323   6.050   8.486 -0.0226  1.1122 -1.2378
  602MOL0     H83046   6.220   5.875   8.602  0.8170  0.4795 -0.1665
  602MOL0     H83047   6.304   5.794   8.468  0.6971  1.2327 -2.4433
  602MOL0     H83048   5.998   5.848   8.445 -0.3720  1.1470 -3.4799
  602MOL0     H83049   6.114   5.786   8.332  1.6031  1.7974 -0.2932
  602MOL0     H83050   5.948   5.639   8.491 -0.4421  2.8211 -1.7319
  602MOL0     H83051   6.086   5.652   8.606  0.4681  0.5781 -0.2271
  602MOL0     H83052   6.226   5.565   8.422  0.8122 -0.3808  0.8454
  602MOL0     H83053   6.081   5.548   8.312  1.3041 -1.8495 -0.4494
  602MOL0     H83054   5.983   5.403   8.485 -1.7570  0.2846 -0.4552
  602MOL0     H83055   6.129   5.390   8.571  2.4606  3.1674 -0.5783
  602MOL0     H83056   6.275   6.403   8.164  1.5292 -2.6560 -0.2699
  602MOL0     H83057   6.288   6.639   8.189 -1.5801  1.4171  1.2625
  602MOL0     H83058   6.693   6.992   8.203 -0.1617  2.2003 -2.3215
  602MOL0     H83059   6.764   7.219   8.272 -0.4385  0.6863  1.0297
  602MOL0     H83060   7.715   8.379   9.632  3.0638  2.6112  0.9609
  602MOL0     H83061   7.715   8.628   9.692 -1.4892  0.8543  0.6054
  602MOL0     H83062   7.373   9.013   9.660  0.8068  2.4501 -1.7933
  602MOL0     H83063   7.356   9.249   9.744 -2.1137  0.2173  3.7230
  602MOL0     H83064   7.554   9.384  10.102  1.9841  1.1705 -0.4969
  602MOL0     H83065   7.588   9.492   9.959  0.2164 -0.6731 -0.6711
  602MOL0     H83066   7.370   9.602   9.997 -2.1276 -0.8384  0.9305
  602MOL0     H83067   7.458   9.605  10.154 -0.6958 -2.4746  2.7497
  602MOL0     H83068   7.222   9.445  10.075  1.6301 -0.5353 -1.0187
  602MOL0     H83069   7.327   9.380  10.189 -2.4759 -0.9552  0.2993
  602MOL0     H83070   7.150   9.516  10.284 -1.8621 -1.7621 -6.0476
  602MOL0     H83071   7.227   9.672  10.225 -0.0810 -0.2773 -0.4361
  602MOL0     H83072   7.438   9.650  10.549 -2.6557  0.1652  0.5376
  602MOL0     H83073   7.617   9.207  10.049 -2.2281  1.8062  0.0999
  602MOL0     H83074   7.751   8.882   9.935 -1.6453 -1.0872  0.4986
  602MOL0     H83075   7.769   9.010  10.046 -1.2305 -0.6269  3.9952
  602MOL0     H83076   7.652   8.877  10.081  2.6717 -1.6701  0.6552
  603MOL0     O83077   1.078   6.287   6.389 -0.5224  0.2900 -0.3656
  603MOL0     C83078   1.015   6.179   6.399  0.0154 -0.3354  0.4011
  603MOL0     O83079   0.962   6.100   6.298 -0.0144  0.2083 -0.9585
  603MOL0     C83080   0.943   6.159   6.177 -0.4656  0.3156  0.3742
  603MOL0     C83081   1.051   6.197   6.100 -0.3949 -0.5342 -0.8626
  603MOL0     C83082   1.048   6.257   5.976  0.1735 -0.8819 -0.6599
  603MOL0     C83083   0.914   6.278   5.925 -0.4198 -0.7536  0.0192
  603MOL0     O83084   0.884   6.325   5.801 -0.3992 -0.3506  0.9971
  603MOL0     C83085   0.977   6.337   5.692 -0.0000 -0.6396 -0.7806
  603MOL0     C83086   0.896   6.379   5.568 -0.6731  0.5686  0.7704
  603MOL0     C83087   0.850   6.523   5.584 -0.4878 -0.0739  0.0762
  603MOL0     C83088   0.746   6.563   5.477 -0.3045  0.6691  0.3173
  603MOL0     C83089   0.741   6.707   5.431 -0.1387 -0.0900  0.0405
  603MOL0     C83090   0.619   6.738   5.340 -0.1378  0.0266  0.5694
  603MOL0     C83091   0.612   6.883   5.296 -0.3169 -0.8648  0.6196
  603MOL0     C83092   0.727   6.938   5.210 -0.5979 -0.0031  0.8987
  603MOL0     N83093   0.837   6.985   5.297  0.3948  0.0928  0.3472
  603MOL0     C83094   0.830   7.100   5.378 -0.0311  1.6962  0.2100
  603MOL0     C83095   0.954   7.122   5.424  0.2385  0.5186 -1.0656
  603MOL0     C83096   0.995   7.236   5.508 -0.0371  0.6597 -1.0779
  603MOL0     C83097   1.009   7.371   5.442  0.4455  1.1772  0.2711
  603MOL0     C83098   1.093   7.466   5.527 -0.3492  0.1286 -0.8518
  603MOL0     C83099   1.096   7.607   5.470 -0.0572 -0.9724  0.3550
  603MOL0     O83100   1.169   7.593   5.345  0.1327 -0.2232 -0.1490
  603MOL0     C83101   1.207   7.699   5.271  0.2337  0.4343 -0.7173
  603MOL0     C83102   1.176   7.829   5.305 -0.0710  0.2247  0.0414
  603MOL0     C83103   1.220   7.947   5.243 -0.6944  1.0952 -0.6871
  603MOL0     C83104   1.179   8.077   5.310  0.3385 -0.4680  0.5460
  603MOL0     C83105   1.312   7.934   5.138 -0.0426  0.0830  0.2110
  603MOL0     C83106   1.344   8.041   5.038  0.1229  0.2922 -0.7073
  603MOL0     O83107   1.396   7.994   4.918  0.0317  0.3822 -0.4533
  603MOL0     C83108   1.412   8.099   4.825 -0.0702  0.5587 -0.6259
  603MOL0     C83109   1.320   8.128   4.721  0.3058  0.6005  0.1321
  603MOL0     C83110   1.350   8.221   4.624  0.3111  0.6083 -0.1236
  603MOL0     C83111   1.470   8.296   4.626 -0.2871  1.2177  0.8603
  603MOL0     O83112   1.496   8.367   4.526 -0.0759  0.1674  0.6813
  603MOL0     C83113   1.543   8.499   4.563 -0.0035 -0.9342 -0.1790
  603MOL0     C83114   1.539   8.587   4.440  0.8135  0.8172  0.0563
  603MOL0     C83115   1.555   8.735   4.477  0.2213 -0.1511 -0.3842
  603MOL0     C83116   1.713   8.780   4.502  0.6122  0.5774  0.1772
  603MOL0     C83117   1.729   8.920   4.563  0.1813  0.6843 -0.0393
  603MOL0     C83118   1.647   8.937   4.694 -0.2265 -0.4342 -0.4375
  603MOL0     C83119   1.677   9.059   4.778  0.0011  0.5162  0.2739
  603MOL0     C83120   1.780   9.035   4.892 -0.4317 -0.1105  1.3597
  603MOL0    Cl83121   1.709   8.916   5.011 -0.1582  0.1521  0.1844
  603MOL0     C83122   1.566   8.270   4.726  0.2980 -0.2102  0.8182
  603MOL0     C83123   1.545   8.162   4.811 -0.3644 -0.7972 -0.0285
  603MOL0     O83124   1.321   8.157   5.064  0.2796 -0.0459  0.2841
  603MOL0     C83125   1.360   7.800   5.113 -0.1791 -0.8170 -0.0513
  603MOL0     C83126   1.304   7.685   5.169 -0.1801  0.2217 -0.2426
  603MOL0     N83127   1.030   7.012   5.382  0.0626  0.2586 -0.5093
  603MOL0     N83128   0.968   6.940   5.296 -0.6471  0.5013 -0.2401
  603MOL0     C83129   0.804   6.240   5.997  0.5687  0.0483  0.0540
  603MOL0     C83130   0.816   6.188   6.129 -0.2365 -0.4180  0.1693
  603MOL0     C83131   1.011   6.121   6.533  1.0122  0.1049  0.2787
  603MOL0     C83132   1.129   6.122   6.611  0.4710  0.6942  1.1422
  603MOL0     C83133   1.134   6.069   6.741 -0.0632  0.3942  0.6718
  603MOL0     C83134   1.012   6.027   6.798 -0.0162  0.1911  0.1282
  603MOL0     O83135   0.998   5.983   6.923  0.6249 -0.0796  0.1760
  603MOL0     C83136   1.127   5.925   6.976  0.1504 -0.7698  0.4958
  603MOL0     C83137   1.082   5.808   7.066  0.1751 -1.0592  0.2145
  603MOL0     C83138   0.987   5.720   6.996  0.2154 -0.0701 -0.2874
  603MOL0     C83139   0.970   5.594   7.074 -0.2304  0.2214  0.0261
  603MOL0     C83140   0.869   5.520   7.007  0.2127 -1.1993 -0.5861
  603MOL0     C83141   0.779   5.465   6.950 -0.2815 -0.6205 -0.2893
  603MOL0     C83142   0.896   6.036   6.724  0.8604 -0.6062  0.5008
  603MOL0     C83143   0.890   6.078   6.593  0.0426 -0.7368 -0.0533
  603MOL0     C83144   0.766   6.082   6.514 -0.8755 -0.4933  0.2546
  603MOL0     H83145   1.147   6.174   6.146  0.1606  0.3870 -1.5399
  603MOL0     H83146   1.138   6.287   5.923  0.3646 -1.8697 -0.9224
  603MOL0     H83147   1.004   6.232   5.677 -0.7794 -0.6906 -1.9721
  603MOL0     H83148   1.056   6.409   5.717 -3.0265  1.7733  2.7767
  603MOL0     H83149   0.964   6.354   5.486  0.6022  1.1617  1.6081
  603MOL0     H83150   0.815   6.307   5.561 -0.5835  0.4582  0.8639
  603MOL0     H83151   0.799   6.550   5.676 -4.6701  0.6796 -2.2227
  603MOL0     H83152   0.937   6.584   5.556 -0.9061 -0.4435 -2.2646
  603MOL0     H83153   0.778   6.509   5.388  2.3469  0.6179  1.2379
  603MOL0     H83154   0.650   6.524   5.513  0.7139 -2.8075 -0.3985
  603MOL0     H83155   0.834   6.726   5.377 -1.0930  1.5348 -1.1123
  603MOL0     H83156   0.742   6.767   5.523 -0.6216  0.2636 -0.1819
  603MOL0     H83157   0.638   6.674   5.253 -0.5824  1.2277 -0.4384
  603MOL0     H83158   0.531   6.711   5.398  0.2470 -0.4314  0.9578
  603MOL0     H83159   0.605   6.950   5.381  1.3348 -0.1326  0.2099
  603MOL0     H83160   0.518   6.901   5.243 -0.3332 -0.4252  0.7987
  603MOL0     H83161   0.779   6.855   5.163 -0.7012  0.4328 -0.0017
  603MOL0     H83162   0.693   7.009   5.134  0.8805  0.3547  0.5524
  603MOL0     H83163   0.738   7.153   5.401 -1.5214 -0.4924 -0.3394
  603MOL0     H83164   1.081   7.208   5.570 -0.0110  2.1692 -0.3895
  603MOL0     H83165   0.918   7.242   5.586 -0.5366  0.9729 -1.5924
  603MOL0     H83166   1.058   7.368   5.344 -1.4055  0.5508 -0.6764
  603MOL0     H83167   0.909   7.413   5.430  0.2355  0.2590 -1.5400
  603MOL0     H83168   1.050   7.476   5.627  1.0595 -3.2622  0.2385
  603MOL0     H83169   1.195   7.431   5.543 -0.8815 -1.6277 -1.1485
  603MOL0     H83170   0.992   7.637   5.452 -1.1406 -3.9780  0.9520
  603MOL0     H83171   1.162   7.658   5.541  0.8423 -2.2860  0.4931
  603MOL0     H83172   1.102   7.838   5.385  1.2352 -1.5139  1.5527
  603MOL0     H83173   1.121   8.132   5.236  1.5422  0.1651  0.0465
  603MOL0     H83174   1.261   8.144   5.336  0.8334 -0.1542 -1.5959
  603MOL0     H83175   1.128   8.065   5.406  2.4334  2.0632  2.0928
  603MOL0     H83176   1.226   8.075   4.733 -0.2856  2.2783  6.5319
  603MOL0     H83177   1.276   8.234   4.546  0.4208  0.8070 -0.1964
  603MOL0     H83178   1.487   8.548   4.643  0.3054 -0.5539 -0.1983
  603MOL0     H83179   1.648   8.503   4.590  0.3242 -2.0542 -1.1820
  603MOL0     H83180   1.622   8.565   4.372  0.8764 -3.2658  1.1770
  603MOL0     H83181   1.446   8.574   4.384  1.2236  1.5859 -0.8232
  603MOL0     H83182   1.488   8.761   4.560 -1.1352 -1.4150 -1.0297
  603MOL0     H83183   1.521   8.795   4.392 -5.2270 -1.3240  0.5998
  603MOL0     H83184   1.756   8.778   4.401  0.7248  0.4656  0.2263
  603MOL0     H83185   1.768   8.703   4.557 -1.2830 -0.2391  1.0510
  603MOL0     H83186   1.835   8.940   4.576  0.1399  2.1923 -1.5875
  603MOL0     H83187   1.683   9.003   4.508 -0.8487  1.9201  2.5389
  603MOL0     H83188   1.658   8.854   4.765  0.9968 -0.5090 -0.6872
  603MOL0     H83189   1.540   8.944   4.672 -0.8677  1.3439  2.6470
  603MOL0     H83190   1.597   9.094   4.844  1.6333 -0.8112  3.1722
  603MOL0     H83191   1.710   9.132   4.704  2.4746  0.0930  0.8641
  603MOL0     H83192   1.807   9.129   4.940 -2.1328 -0.0601  2.2986
  603MOL0     H83193   1.865   8.987   4.842 -2.0642 -3.6919  1.6990
  603MOL0     H83194   1.658   8.326   4.739  1.3572 -1.8472  0.6821
  603MOL0     H83195   1.620   8.152   4.889  0.6701  1.3121 -0.6830
  603MOL0     H83196   1.424   7.779   5.027  1.7511  1.1856  0.7895
  603MOL0     H83197   1.327   7.585   5.135 -0.7289 -0.3546  1.0355
  603MOL0     H83198   0.705   6.244   5.952  1.1160 -0.0188 -1.1926
  603MOL0     H83199   0.724   6.173   6.184 -1.2622  0.6250 -1.1677
  603MOL0     H83200   1.221   6.162   6.569  1.4527  0.1140  2.6630
  603MOL0     H83201   1.224   6.074   6.801  2.4617  1.2501 -2.8213
  603MOL0     H83202   1.186   5.877   6.898  3.8268  2.5272  0.9534
  603MOL0     H83203   1.192   5.992   7.032 -2.1018 -0.1362  2.5429
  603MOL0     H83204   1.030   5.845   7.156  0.6348  1.0135 -0.3142
  603MOL0     H83205   1.170   5.755   7.103  1.8467  1.1206 -0.4475
  603MOL0     H83206   0.898   5.779   6.970  1.2531  1.0414 -1.4605
  603MOL0     H83207   1.040   5.689   6.905  2.9306  3.2308 -0.0425
  603MOL0     H83208   0.948   5.629   7.175 -0.3342  1.2016 -0.3290
  603MOL0     H83209   1.061   5.534   7.087  0.8721  1.9745  0.8140
  603MOL0     H83210   0.704   5.421   6.889  0.2967  1.2632 -2.5004
  603MOL0     H83211   0.799   6.006   6.762 -0.1855  1.8465 -0.0450
  603MOL0     H83212   0.776   6.001   6.441  1.4400 -0.2229  0.1870
  603MOL0     H83213   0.677   6.081   6.578 -2.8660  1.8667 -2.2603
  603MOL0     H83214   0.757   6.178   6.464 -1.5676 -0.7788 -0.1784
  604MOL0     O83215   8.430   1.851   4.013  0.0800 -1.1576 -0.2188
  604MOL0     C83216   8.408   1.925   3.915 -0.3026  0.0748 -0.3202
  604MOL0     O83217   8.298   1.937   3.848 -0.2085  0.5141  0.2283
  604MOL0     C83218   8.179   1.916   3.918  0.1960 -0.1943  1.5869
  604MOL0     C83219   8.098   2.019   3.966 -0.9517 -0.6015 -0.9746
  604MOL0     C83220   7.981   1.984   4.037 -0.0177 -0.3459  0.1115
  604MOL0     C83221   7.928   1.854   4.041 -0.0486  0.3124  0.4808
  604MOL0     O83222   7.827   1.829   4.120  0.1733 -0.0861  0.0621
  604MOL0     C83223   7.729   1.733   4.072 -0.7463 -0.4218 -1.3002
  604MOL0     C83224   7.606   1.737   4.161 -0.0958  0.0675  0.1179
  604MOL0     C83225   7.619   1.706   4.316  0.2191 -0.2545 -0.4403
  604MOL0     C83226   7.655   1.560   4.326 -0.2620  1.0130  0.0031
  604MOL0     C83227   7.609   1.507   4.464 -0.3364  0.1448 -1.3134
  604MOL0     C83228   7.616   1.352   4.484 -0.1089  0.1734 -0.5230
  604MOL0     C83229   7.570   1.313   4.629 -0.4421 -0.1251  0.1012
  604MOL0     C83230   7.665   1.373   4.733 -1.4584  0.5748 -0.3336
  604MOL0     N83231   7.638   1.311   4.869 -0.1262  0.2574  0.2658
  604MOL0     C83232   7.540   1.344   4.953  0.1707  0.3204  0.2429
  604MOL0     C83233   7.561   1.265   5.063  0.7103 -0.4243 -0.7767
  604MOL0     C83234   7.487   1.267   5.191  0.4766 -0.2018 -0.1932
  604MOL0     C83235   7.564   1.341   5.298 -0.1905 -0.0959  0.6704
  604MOL0     C83236   7.515   1.289   5.438 -0.1917  0.4694  0.0235
  604MOL0     C83237   7.577   1.379   5.545  0.5244 -0.5165 -0.3723
  604MOL0     O83238   7.540   1.328   5.675  0.0878  0.8464  0.7106
  604MOL0     C83239   7.608   1.375   5.786  0.4103  0.7529  0.5694
  604MOL0     C83240   7.714   1.470   5.784  0.2016 -0.0020 -0.0582
  604MOL0     C83241   7.779   1.503   5.902 -0.6563 -0.4274 -0.3555
  604MOL0     C83242   7.892   1.603   5.882 -0.5065  0.0961  0.2673
  604MOL0     C83243   7.739   1.448   6.030 -0.9295 -1.1450 -0.0721
  604MOL0     C83244   7.812   1.469   6.159  0.3465  0.4006 -0.5147
  604MOL0     O83245   7.791   1.369   6.258 -0.6905 -0.6619 -0.8329
  604MOL0     C83246   7.895   1.351   6.350  0.0463 -0.0935  0.1502
  604MOL0     C83247   7.855   1.329   6.485 -0.7278 -0.4823  0.4730
  604MOL0     C83248   7.949   1.318   6.583  0.5800  0.1370  0.1336
  604MOL0     C83249   8.087   1.326   6.557 -0.0977  0.3187  0.6341
  604MOL0     O83250   8.185   1.304   6.647 -0.1750  0.5870 -0.3858
  604MOL0     C83251   8.145   1.325   6.786 -0.1642  0.2280 -0.7560
  604MOL0     C83252   8.259   1.338   6.893  0.3849  0.1482  0.3082
  604MOL0     C83253   8.389   1.261   6.858 -0.4852  0.3874 -0.0444
  604MOL0     C83254   8.505   1.352   6.825 -0.9752  0.4053  0.0528
  604MOL0     C83255   8.626   1.263   6.793  0.2907  0.0789  0.1961
  604MOL0     C83256   8.686   1.172   6.902 -0.2860 -0.6030  0.0124
  604MOL0     C83257   8.779   1.066   6.845 -0.7959 -1.4694  0.8312
  604MOL0     C83258   8.848   0.980   6.956  1.0149  0.3408 -0.7958
  604MOL0    Cl83259   8.742   0.930   7.090 -0.2439  0.0634 -0.3283
  604MOL0     C83260   8.125   1.359   6.431 -0.4891 -0.4771  0.4301
  604MOL0     C83261   8.033   1.363   6.327 -0.5178  0.0482  0.5232
  604MOL0     O83262   7.888   1.562   6.162 -0.7502 -0.4813  0.6219
  604MOL0     C83263   7.639   1.351   6.024  0.7302 -0.2154 -0.0979
  604MOL0     C83264   7.569   1.319   5.909 -0.0664 -0.2326 -1.5060
  604MOL0     N83265   7.665   1.186   5.036 -0.0991 -0.3867  0.9654
  604MOL0     N83266   7.719   1.221   4.924 -0.5288 -0.2263  0.8386
  604MOL0     C83267   8.015   1.756   3.977 -0.2419 -0.0777  0.1595
  604MOL0     C83268   8.134   1.790   3.919 -0.1577  0.3379 -0.2668
  604MOL0     C83269   8.525   1.993   3.851  0.3510 -1.0238  0.7734
  604MOL0     C83270   8.510   2.035   3.714  0.7492 -1.2270 -0.6187
  604MOL0     C83271   8.613   2.091   3.643  0.0145  0.1081 -0.1580
  604MOL0     C83272   8.737   2.111   3.695  0.0920 -0.5025 -1.2672
  604MOL0     O83273   8.836   2.172   3.629 -0.2456  0.5273 -0.5010
  604MOL0     C83274   8.974   2.169   3.680  0.9052  0.4735 -0.3881
  604MOL0     C83275   9.059   2.220   3.572  0.3439 -0.3951 -0.9137
  604MOL0     C83276   9.058   2.130   3.457 -0.7310  0.8160  0.5083
  604MOL0     C83277   9.163   2.171   3.348  0.2158 -0.7998 -0.4694
  604MOL0     C83278   9.127   2.303   3.297  0.2150 -0.1510 -0.1720
  604MOL0     C83279   9.076   2.397   3.243 -0.1775  0.9669  0.7233
  604MOL0     C83280   8.757   2.070   3.829  0.3901  0.2596 -0.8444
  604MOL0     C83281   8.654   2.013   3.909  0.2727  0.7832 -0.4887
  604MOL0     C83282   8.698   1.972   4.045  0.3447 -0.5782 -0.4864
  604MOL0     H83283   8.128   2.122   3.947 -0.9726 -0.3270  0.3472
  604MOL0     H83284   7.921   2.061   4.085 -3.3084 -3.0315  0.7039
  604MOL0     H83285   7.771   1.633   4.079  1.5448  0.5026 -1.1488
  604MOL0     H83286   7.711   1.765   3.968  0.2281  0.0421 -1.3375
  604MOL0     H83287   7.551   1.832   4.155  1.7764  1.2394  0.6950
  604MOL0     H83288   7.536   1.665   4.118 -4.3409  3.5236  0.4179
  604MOL0     H83289   7.696   1.767   4.364 -1.4741  1.9261 -0.3461
  604MOL0     H83290   7.524   1.741   4.359  0.8504  1.2018 -0.1549
  604MOL0     H83291   7.591   1.504   4.257  2.1718 -0.9530 -0.8063
  604MOL0     H83292   7.757   1.534   4.298 -1.1068 -1.3642 -1.0475
  604MOL0     H83293   7.504   1.530   4.483 -0.3495 -1.3342  0.7268
  604MOL0     H83294   7.668   1.559   4.540 -1.6226  0.1058 -0.2537
  604MOL0     H83295   7.550   1.297   4.417 -1.2732 -0.4053  1.0299
  604MOL0     H83296   7.720   1.321   4.474  0.1157  1.3772 -2.2471
  604MOL0     H83297   7.558   1.204   4.634  3.5793 -0.6829  0.6206
  604MOL0     H83298   7.477   1.366   4.650  1.5877  2.0818  5.1878
  604MOL0     H83299   7.764   1.339   4.701 -1.8398  1.1834 -2.2938
  604MOL0     H83300   7.677   1.481   4.742  0.6185  0.2736  1.2824
  604MOL0     H83301   7.462   1.420   4.944  0.7645  0.8786 -0.2684
  604MOL0     H83302   7.461   1.163   5.212  0.7106 -0.6233 -1.8382
  604MOL0     H83303   7.392   1.320   5.179 -0.1870 -1.2453  0.3436
  604MOL0     H83304   7.666   1.302   5.295 -0.5934 -1.2874  1.4430
  604MOL0     H83305   7.565   1.449   5.284  1.1645 -0.0957  0.6355
  604MOL0     H83306   7.406   1.283   5.442 -0.2691  2.1010  1.7135
  604MOL0     H83307   7.551   1.188   5.460  2.4269  1.0441 -1.2947
  604MOL0     H83308   7.686   1.374   5.535  0.6189  2.6263 -2.4207
  604MOL0     H83309   7.559   1.486   5.531  1.0892 -0.6745 -2.7930
  604MOL0     H83310   7.743   1.520   5.692  2.6557  1.2086  1.2797
  604MOL0     H83311   7.986   1.549   5.900  0.0445  0.2125 -1.9940
  604MOL0     H83312   7.896   1.694   5.944 -1.6550 -0.1907  0.7889
  604MOL0     H83313   7.903   1.644   5.781  2.6715 -2.2933 -0.5310
  604MOL0     H83314   7.748   1.315   6.496 -0.7317 -3.0385 -1.7819
  604MOL0     H83315   7.904   1.290   6.678 -1.7297  1.8370 -0.3914
  604MOL0     H83316   8.068   1.403   6.795  0.2235  0.3791  2.3397
  604MOL0     H83317   8.098   1.235   6.824  0.4430 -0.4649 -1.6045
  604MOL0     H83318   8.279   1.444   6.910 -1.7884  0.6897 -0.1634
  604MOL0     H83319   8.221   1.293   6.985  0.1039  0.1209  0.1804
  604MOL0     H83320   8.371   1.179   6.789 -0.1106 -0.8968  1.3295
  604MOL0     H83321   8.412   1.210   6.952  0.8634  0.0869 -0.5157
  604MOL0     H83322   8.522   1.422   6.908  3.2586  0.5766 -0.7290
  604MOL0     H83323   8.474   1.405   6.735  0.2745 -1.9411 -1.8676
  604MOL0     H83324   8.571   1.190   6.733 -0.5091  2.7646 -2.5668
  604MOL0     H83325   8.703   1.311   6.732 -0.5897  0.9685 -0.2375
  604MOL0     H83326   8.602   1.115   6.943  0.9364 -2.9116 -0.5442
  604MOL0     H83327   8.732   1.226   6.985  0.1470  0.2312 -0.7590
  604MOL0     H83328   8.856   1.111   6.782  0.3946 -1.1564  2.4426
  604MOL0     H83329   8.726   0.991   6.787  1.6268 -2.0927 -0.6977
  604MOL0     H83330   8.938   1.029   6.993  0.8907  1.3353 -1.7470
  604MOL0     H83331   8.872   0.880   6.920 -1.1797 -0.8801  0.9148
  604MOL0     H83332   8.232   1.360   6.414 -0.6268  1.5612 -0.6290
  604MOL0     H83333   8.050   1.389   6.223 -1.0549  2.2019  0.9117
  604MOL0     H83334   7.621   1.302   6.119  3.7583 -3.3610 -0.9377
  604MOL0     H83335   7.497   1.238   5.919  0.6256 -0.9744 -2.3167
  604MOL0     H83336   7.973   1.659   4.000 -0.6725 -0.1817 -1.0082
  604MOL0     H83337   8.202   1.718   3.875  0.8638  0.5886  0.8615
  604MOL0     H83338   8.415   2.040   3.661 -2.2943  2.2903  4.3576
  604MOL0     H83339   8.614   2.120   3.539  0.0540  0.0570 -0.1718
  604MOL0     H83340   8.991   2.232   3.768  0.8399 -0.8466  0.5865
  604MOL0     H83341   8.991   2.067   3.714 -0.3219  0.8240  1.3981
  604MOL0     H83342   9.164   2.216   3.604  0.7489  1.8560 -1.7895
  604MOL0     H83343   9.028   2.322   3.546 -2.0340 -1.7263 -3.9245
  604MOL0     H83344   9.085   2.029   3.491 -1.2226  0.3205 -0.5217
  604MOL0     H83345   8.956   2.130   3.416 -0.8300 -0.3373  0.7187
  604MOL0     H83346   9.161   2.106   3.260 -0.3129 -0.8567 -0.4167
  604MOL0     H83347   9.266   2.174   3.384 -0.1133  0.4493  0.4554
  604MOL0     H83348   9.048   2.485   3.189  0.9040  2.1564  1.9994
  604MOL0     H83349   8.852   2.086   3.880  0.9901  2.0033 -2.3644
  604MOL0     H83350   8.666   2.040   4.125  0.5489  0.1500 -1.0114
  604MOL0     H83351   8.660   1.872   4.064 -1.8938  0.4722  1.0404
  604MOL0     H83352   8.807   1.969   4.051  0.2925 -0.1079  1.3230
  605MOL0     O83353   8.900   2.456   8.685  0.0990 -0.3068  1.0600
  605MOL0     C83354   8.779   2.447   8.690  0.0622 -0.3598 -0.4225
  605MOL0     O83355   8.716   2.384   8.793 -0.2555  0.3146  0.7869
  605MOL0     C83356   8.773   2.335   8.909 -0.6302  0.4079 -0.4697
  605MOL0     C83357   8.848   2.214   8.901  0.9368  0.3054 -0.4099
  605MOL0     C83358   8.889   2.152   9.023 -0.3900  0.2841  0.3795
  605MOL0     C83359   8.885   2.229   9.143  0.1846  0.4582  0.4652
  605MOL0     O83360   8.947   2.187   9.258 -0.5983  0.2349 -0.8291
  605MOL0     C83361   9.075   2.116   9.242  0.3480  0.2995 -0.9429
  605MOL0     C83362   9.157   2.151   9.362  0.1432  0.3460  0.3363
  605MOL0     C83363   9.279   2.050   9.358 -0.8440 -0.4649  0.1869
  605MOL0     C83364   9.383   2.068   9.473  0.2623 -0.1950  0.2288
  605MOL0     C83365   9.513   1.995   9.449  0.6364  0.3414  0.1592
  605MOL0     C83366   9.511   1.836   9.455  0.5601  0.2189  0.2475
  605MOL0     C83367   9.424   1.777   9.568 -0.4096  0.1197 -1.6304
  605MOL0     C83368   9.473   1.807   9.714  0.5028 -1.7219  0.1438
  605MOL0     N83369   9.615   1.795   9.728  0.3617  0.2258 -0.2934
  605MOL0     C83370   9.686   1.675   9.701  0.1328  0.0807  0.8234
  605MOL0     C83371   9.812   1.716   9.729  0.7312  0.6049  0.4121
  605MOL0     C83372   9.923   1.620   9.722  0.3807 -0.0091 -0.2692
  605MOL0     C83373  10.009   1.648   9.598 -0.0618  0.4302 -0.5928
  605MOL0     C83374   9.935   1.589   9.474 -0.4666  0.4562  0.1671
  605MOL0     C83375  10.025   1.607   9.347  0.2238 -1.2257 -0.1767
  605MOL0     O83376  10.007   1.739   9.289 -0.4036  0.0601 -0.6907
  605MOL0     C83377   9.894   1.769   9.227 -0.1630  0.3978  0.3915
  605MOL0     C83378   9.873   1.902   9.211  0.5608 -0.2267 -0.0922
  605MOL0     C83379   9.749   1.953   9.147 -0.5030  0.4718 -0.4276
  605MOL0     C83380   9.739   2.099   9.128 -0.1923 -0.5759  0.9305
  605MOL0     C83381   9.657   1.860   9.094 -0.6271 -0.4871 -0.5238
  605MOL0     C83382   9.528   1.901   9.027  0.4256  0.2924 -0.6602
  605MOL0     O83383   9.503   2.031   8.994  0.3124 -0.0016 -0.1250
  605MOL0     C83384   9.408   2.066   8.904  0.1552 -1.0711 -0.5862
  605MOL0     C83385   9.330   2.176   8.934 -0.2728  0.1689  0.4314
  605MOL0     C83386   9.238   2.217   8.831 -0.4052  0.3449 -0.8733
  605MOL0     C83387   9.214   2.146   8.714  0.0585 -0.1514  0.2367
  605MOL0     O83388   9.124   2.200   8.624 -0.1000 -0.1867 -0.0387
  605MOL0     C83389   9.159   2.179   8.489  0.1737  0.3982  0.3051
  605MOL0     C83390   9.065   2.261   8.410 -0.9808  0.0469  0.7186
  605MOL0     C83391   9.034   2.197   8.279 -0.2571  0.2106 -0.3445
  605MOL0     C83392   8.950   2.277   8.185 -0.0907 -0.0174 -0.0889
  605MOL0     C83393   8.806   2.224   8.194 -1.0806 -1.0693  0.3093
  605MOL0     C83394   8.716   2.285   8.088  0.1653 -1.1966  0.5230
  605MOL0     C83395   8.569   2.295   8.134 -0.3575  0.2749 -0.9306
  605MOL0     C83396   8.472   2.340   8.024 -0.1367 -0.2264  0.3981
  605MOL0    Cl83397   8.303   2.362   8.085 -0.2331  0.0011 -0.0727
  605MOL0     C83398   9.291   2.030   8.695  0.0440  0.1496  0.8322
  605MOL0     C83399   9.389   1.994   8.788 -0.1929 -0.3987  0.4699
  605MOL0     O83400   9.447   1.810   9.016 -0.5588 -0.7700  0.8250
  605MOL0     C83401   9.680   1.727   9.118 -0.5825 -0.8613  0.1818
  605MOL0     C83402   9.785   1.683   9.197  0.4925  0.5087 -0.0736
  605MOL0     N83403   9.820   1.848   9.768  0.9111 -0.5414 -0.2288
  605MOL0     N83404   9.699   1.895   9.772 -0.0533 -1.0797  1.0448
  605MOL0     C83405   8.814   2.353   9.142  0.3203  0.8120 -0.2267
  605MOL0     C83406   8.754   2.401   9.036  0.9052  0.0145 -0.5497
  605MOL0     C83407   8.702   2.523   8.585  0.3215 -0.3915  0.4059
  605MOL0     C83408   8.772   2.553   8.467 -0.3725 -0.1720 -0.2029
  605MOL0     C83409   8.708   2.637   8.371 -0.8330 -0.1096  0.0262
  605MOL0     C83410   8.571   2.669   8.383  1.0651  0.0202  0.9619
  605MOL0     O83411   8.509   2.740   8.288  0.1986 -1.0934  0.2289
  605MOL0     C83412   8.371   2.782   8.291 -0.0406 -0.3861  0.5887
  605MOL0     C83413   8.360   2.862   8.161 -0.3591 -0.3150 -0.2664
  605MOL0     C83414   8.261   2.812   8.054 -0.3358 -0.0615 -0.2136
  605MOL0     C83415   8.313   2.696   7.966 -0.2638 -0.4775  0.2078
  605MOL0     C83416   8.210   2.645   7.874  0.1939 -0.5440 -0.0098
  605MOL0     C83417   8.123   2.634   7.793  0.5621  0.3933 -0.0867
  605MOL0     C83418   8.497   2.626   8.499 -0.6471  1.0739  0.5311
  605MOL0     C83419   8.567   2.559   8.600  0.0047 -0.2388  0.1792
  605MOL0     C83420   8.477   2.517   8.714 -0.0096  0.5861  0.2824
  605MOL0     H83421   8.854   2.168   8.803 -5.5804 -2.7060  0.0053
  605MOL0     H83422   8.927   2.051   9.030 -1.0916  0.1179  2.2067
  605MOL0     H83423   9.121   2.152   9.150 -0.3729 -2.7703 -2.6423
  605MOL0     H83424   9.059   2.009   9.231 -0.1148  0.2354  0.2533
  605MOL0     H83425   9.188   2.255   9.361  2.6217 -0.2893  1.8081
  605MOL0     H83426   9.097   2.131   9.452 -1.1077 -4.0870 -1.2055
  605MOL0     H83427   9.243   1.947   9.366  2.0178 -1.8195 -2.2967
  605MOL0     H83428   9.332   2.075   9.265 -3.5374  1.9474 -0.8535
  605MOL0     H83429   9.397   2.176   9.475 -0.8132 -0.0480  1.8731
  605MOL0     H83430   9.338   2.036   9.568  0.0619  1.8307  0.8692
  605MOL0     H83431   9.590   2.021   9.523  2.3546 -1.3968 -0.9221
  605MOL0     H83432   9.554   2.020   9.351  0.7840 -1.4398 -0.2667
  605MOL0     H83433   9.460   1.806   9.362 -1.3707  0.2387  1.2550
  605MOL0     H83434   9.614   1.801   9.455  0.8674  0.9170 -1.9067
  605MOL0     H83435   9.425   1.668   9.561 -0.2972 -0.1052  0.8977
  605MOL0     H83436   9.316   1.797   9.559 -0.4983  4.5005  3.9558
  605MOL0     H83437   9.445   1.907   9.748  3.7651 -1.4772  2.6603
  605MOL0     H83438   9.414   1.739   9.776  0.4066 -2.0666 -0.3218
  605MOL0     H83439   9.634   1.582   9.683 -2.6443  1.1658  2.4741
  605MOL0     H83440   9.897   1.514   9.731 -0.7517  0.2888  0.0497
  605MOL0     H83441   9.983   1.649   9.809 -0.1229  0.9225 -0.2273
  605MOL0     H83442  10.022   1.756   9.596  0.4783  0.5369  2.9196
  605MOL0     H83443  10.111   1.610   9.599 -0.5564 -1.1628  3.1672
  605MOL0     H83444   9.920   1.482   9.487  3.1618  0.0707  2.6525
  605MOL0     H83445   9.838   1.640   9.465  0.0077  1.0304 -2.2674
  605MOL0     H83446  10.132   1.597   9.367  0.8262  0.1783 -2.4013
  605MOL0     H83447  10.007   1.526   9.277 -0.5011 -1.8210  0.6706
  605MOL0     H83448   9.939   1.978   9.252 -1.1515  0.2463  1.9461
  605MOL0     H83449   9.708   2.131   9.029 -0.3039  0.7683  1.3762
  605MOL0     H83450   9.838   2.142   9.149  0.7420 -2.6021  0.8497
  605MOL0     H83451   9.673   2.150   9.199  0.5973  2.2661 -0.2297
  605MOL0     H83452   9.337   2.232   9.027  0.2350  0.9235 -0.0602
  605MOL0     H83453   9.182   2.309   8.846  2.0494  1.5956  1.6984
  605MOL0     H83454   9.262   2.207   8.466  0.0897  0.2337 -0.2785
  605MOL0     H83455   9.139   2.077   8.455  2.9689  0.5420 -2.2209
  605MOL0     H83456   8.963   2.266   8.448 -1.6313  0.8388 -1.0066
  605MOL0     H83457   9.099   2.365   8.400 -0.8688  0.0254  0.8646
  605MOL0     H83458   9.001   2.093   8.277  3.6833 -1.2199 -0.8662
  605MOL0     H83459   9.131   2.186   8.229 -1.0311 -2.0457 -1.5033
  605MOL0     H83460   8.992   2.268   8.084  3.0845  1.4111  0.9836
  605MOL0     H83461   8.955   2.380   8.221 -0.7375 -1.3851  4.5803
  605MOL0     H83462   8.807   2.115   8.188  2.3620 -1.0637 -1.6195
  605MOL0     H83463   8.775   2.258   8.294 -1.1533 -0.3368  0.0482
  605MOL0     H83464   8.727   2.228   7.995  3.7551  2.3139 -1.5311
  605MOL0     H83465   8.754   2.388   8.082 -1.1490 -0.5199  2.9242
  605MOL0     H83466   8.574   2.368   8.215  0.1427 -0.0425 -0.6740
  605MOL0     H83467   8.527   2.205   8.179 -0.3337 -0.1463 -1.7362
  605MOL0     H83468   8.490   2.264   7.947 -1.3155 -0.4913  0.3662
  605MOL0     H83469   8.494   2.439   7.982 -1.5394 -0.3278 -0.6388
  605MOL0     H83470   9.274   1.959   8.616 -0.9379 -0.9544  2.0054
  605MOL0     H83471   9.445   1.904   8.764  0.5542  0.6973 -2.2085
  605MOL0     H83472   9.603   1.661   9.079 -1.0924 -0.1985  0.0500
  605MOL0     H83473   9.792   1.575   9.196 -1.5586  0.3252 -1.7785
  605MOL0     H83474   8.813   2.414   9.231 -0.4998  1.0720 -0.4093
  605MOL0     H83475   8.698   2.493   9.051  2.0438  0.9989 -2.1114
  605MOL0     H83476   8.875   2.523   8.453  0.0928 -0.2499  2.6902
  605MOL0     H83477   8.778   2.659   8.291  2.2100 -0.3947  2.4206
  605MOL0     H83478   8.295   2.703   8.297 -0.7815  0.3711  1.3641
  605MOL0     H83479   8.351   2.845   8.378 -0.0495 -2.2344  2.0032
  605MOL0     H83480   8.457   2.881   8.113  0.7650 -1.9469  1.2262
  605MOL0     H83481   8.327   2.963   8.187  0.1078 -0.2616  0.1354
  605MOL0     H83482   8.164   2.793   8.102 -0.0555  2.3355  1.4599
  605MOL0     H83483   8.239   2.900   7.993 -0.9015  1.3955  1.9615
  605MOL0     H83484   8.363   2.619   8.026  0.3968 -1.4328 -1.5034
  605MOL0     H83485   8.390   2.725   7.894  0.3438 -0.2901  0.9191
  605MOL0     H83486   8.044   2.633   7.720  0.3469 -1.9011  0.1329
  605MOL0     H83487   8.389   2.633   8.499 -0.8054 -0.2198 -1.6000
  605MOL0     H83488   8.377   2.560   8.703 -0.3574 -0.6375 -1.9413
  605MOL0     H83489   8.461   2.408   8.714  1.2067  0.3242  3.1059
  605MOL0     H83490   8.525   2.543   8.809  1.8637  1.1727 -0.7693
  606MOL0     O83491   8.327  11.307   4.311  0.2379  0.1666 -0.6284
  606MOL0     C83492   8.340  11.193   4.346  0.2031  0.4620 -0.6271
  606MOL0     O83493   8.257  11.127   4.440  0.3240  0.3062 -0.6876
  606MOL0     C83494   8.142  11.186   4.495  0.7462 -0.1658  0.4984
  606MOL0     C83495   8.150  11.309   4.564  0.1206  0.4056  1.0147
  606MOL0     C83496   8.041  11.365   4.624 -0.5367  0.1001  0.0161
  606MOL0     C83497   7.918  11.300   4.623 -0.9975  1.3683 -0.5263
  606MOL0     O83498   7.819  11.374   4.677 -0.2280  0.7674 -0.0367
  606MOL0     C83499   7.712  11.303   4.747 -0.4002  0.5095  0.2085
  606MOL0     C83500   7.637  11.386   4.848  0.0588  0.0154  0.1791
  606MOL0     C83501   7.564  11.492   4.770  0.4296 -0.4132 -0.0479
  606MOL0     C83502   7.435  11.550   4.831  0.0395  0.4728 -0.4235
  606MOL0     C83503   7.352  11.634   4.735 -0.0552 -1.2330 -0.1019
  606MOL0     C83504   7.423  11.770   4.688 -0.1162  0.6743 -0.1750
  606MOL0     C83505   7.457  11.856   4.811 -0.4021 -0.2122 -0.3649
  606MOL0     C83506   7.468  12.007   4.770  0.3096  0.3083  0.5958
  606MOL0     N83507   7.424  12.095   4.881 -0.2311 -0.1762  0.3783
  606MOL0     C83508   7.522  12.151   4.961  0.5727  0.8245  0.1808
  606MOL0     C83509   7.454  12.245   5.027 -0.0971 -0.0600 -0.3787
  606MOL0     C83510   7.499  12.347   5.124 -0.3061  0.9160  1.0227
  606MOL0     C83511   7.487  12.291   5.263  0.3315 -0.3715 -0.0557
  606MOL0     C83512   7.517  12.393   5.373 -0.7858  0.8768 -0.9519
  606MOL0     C83513   7.560  12.330   5.501  0.7638  0.7132 -0.6055
  606MOL0     O83514   7.571  12.433   5.607  0.6383 -0.1466  0.2222
  606MOL0     C83515   7.653  12.412   5.713  0.7676 -0.5626  0.3781
  606MOL0     C83516   7.653  12.290   5.777 -0.6723  0.2261  0.1141
  606MOL0     C83517   7.738  12.265   5.887 -1.0467  1.0266  0.4376
  606MOL0     C83518   7.755  12.118   5.926  0.1726  0.6727 -0.7500
  606MOL0     C83519   7.823  12.367   5.938  0.1649  0.7259 -0.5732
  606MOL0     C83520   7.930  12.344   6.027 -0.2442  0.3135  0.3430
  606MOL0     O83521   7.943  12.432   6.129  0.2006 -0.1259 -0.7000
  606MOL0     C83522   7.979  12.399   6.256 -0.1596 -0.0216  0.5646
  606MOL0     C83523   8.041  12.503   6.334  0.4603  0.0124  0.0681
  606MOL0     C83524   8.092  12.467   6.460  0.1711  0.3491 -0.0272
  606MOL0     C83525   8.077  12.331   6.506 -0.7720 -0.2541  0.1861
  606MOL0     O83526   8.139  12.303   6.624 -0.5804  0.4166  0.1740
  606MOL0     C83527   8.280  12.304   6.614 -0.2332  0.2545  0.7182
  606MOL0     C83528   8.332  12.353   6.740 -0.1775 -0.5174  0.6864
  606MOL0     C83529   8.483  12.329   6.771 -0.0307 -0.0164  0.1026
  606MOL0     C83530   8.534  12.185   6.786  0.6492 -0.4493 -0.5891
  606MOL0     C83531   8.679  12.160   6.829 -0.1955 -0.3855 -0.3471
  606MOL0     C83532   8.725  12.016   6.805  0.2562  0.1932 -0.3027
  606MOL0     C83533   8.863  11.983   6.867  0.3973  0.0521 -0.3667
  606MOL0     C83534   8.873  11.978   7.017  0.6815  0.0729 -0.3842
  606MOL0    Cl83535   9.015  11.876   7.069 -0.4043  0.7467 -0.2922
  606MOL0     C83536   8.009  12.243   6.436 -0.5331 -0.0755 -0.4787
  606MOL0     C83537   7.954  12.267   6.308 -0.2417  0.9877 -0.0984
  606MOL0     O83538   8.018  12.269   5.991  0.2819  0.3909 -0.0653
  606MOL0     C83539   7.802  12.496   5.885 -0.7353  0.1788 -1.2602
  606MOL0     C83540   7.722  12.519   5.776 -0.4876  0.0911  0.4953
  606MOL0     N83541   7.314  12.242   4.994  0.1268  0.3414  0.1170
  606MOL0     N83542   7.296  12.151   4.907 -0.8862 -0.1580  0.3734
  606MOL0     C83543   7.905  11.172   4.556 -0.3920  0.3261 -0.7461
  606MOL0     C83544   8.018  11.124   4.487  0.0468  0.6913 -0.1245
  606MOL0     C83545   8.462  11.118   4.301 -0.8501  0.4568  0.2145
  606MOL0     C83546   8.525  11.037   4.393 -0.1270 -0.6542  0.1640
  606MOL0     C83547   8.625  10.948   4.358  0.2247 -0.2866  0.1548
  606MOL0     C83548   8.669  10.944   4.227 -0.2621 -0.9073  1.7050
  606MOL0     O83549   8.779  10.865   4.206 -0.4999 -0.3700 -0.2631
  606MOL0     C83550   8.838  10.846   4.081  0.5050  0.5702  0.0221
  606MOL0     C83551   8.956  10.743   4.090 -0.6895  0.5390  0.1574
  606MOL0     C83552   9.002  10.723   3.950 -0.4646 -0.4323 -0.1112
  606MOL0     C83553   9.146  10.675   3.934  0.4980  0.1548 -0.5170
  606MOL0     C83554   9.183  10.672   3.790 -0.5223  0.1243 -0.2627
  606MOL0     C83555   9.237  10.688   3.686  0.1275 -0.4390  0.2287
  606MOL0     C83556   8.609  11.024   4.125 -0.2052 -0.1234 -0.8060
  606MOL0     C83557   8.506  11.112   4.165  0.6881 -0.0287  0.4860
  606MOL0     C83558   8.453  11.206   4.064 -0.6835  0.5615 -0.6650
  606MOL0     H83559   8.248  11.356   4.569  1.6192 -2.3746  0.3132
  606MOL0     H83560   8.049  11.458   4.678  1.0527 -0.0049  0.0137
  606MOL0     H83561   7.756  11.221   4.803  2.1459  2.7494  1.7212
  606MOL0     H83562   7.637  11.263   4.678 -1.5414  0.8126  1.2262
  606MOL0     H83563   7.580  11.314   4.907 -1.0227 -2.0329 -3.1261
  606MOL0     H83564   7.716  11.429   4.911 -0.0728 -1.6164  1.5026
  606MOL0     H83565   7.623  11.583   4.753 -0.4196  0.2153  0.2891
  606MOL0     H83566   7.535  11.452   4.673  1.0046  1.5290 -1.0772
  606MOL0     H83567   7.372  11.467   4.862 -1.4111 -0.2559 -4.6204
  606MOL0     H83568   7.462  11.625   4.907 -0.4706  4.1189 -3.5122
  606MOL0     H83569   7.262  11.644   4.796  1.6865 -0.2015  2.4465
  606MOL0     H83570   7.336  11.568   4.648  1.1138 -3.2554  1.1317
  606MOL0     H83571   7.513  11.757   4.626 -0.3409  2.4592 -0.9484
  606MOL0     H83572   7.355  11.828   4.625 -0.7828 -0.0330 -0.1162
  606MOL0     H83573   7.553  11.826   4.853 -0.4942  0.2117  0.1636
  606MOL0     H83574   7.378  11.855   4.887  2.0612  0.6010  2.3821
  606MOL0     H83575   7.571  12.028   4.740  0.9429 -1.5948  1.2622
  606MOL0     H83576   7.417  12.026   4.675  4.9144 -3.3826 -3.1923
  606MOL0     H83577   7.630  12.147   4.973  0.6963  4.4469  1.6322
  606MOL0     H83578   7.446  12.441   5.111 -3.8041 -0.8880  1.0172
  606MOL0     H83579   7.603  12.362   5.094  0.2804 -3.0704  0.4699
  606MOL0     H83580   7.381  12.272   5.283 -0.1870  3.7083  2.0922
  606MOL0     H83581   7.554  12.204   5.267 -1.0417 -1.4469  0.5919
  606MOL0     H83582   7.598  12.455   5.333 -1.6016  1.8636 -1.0991
  606MOL0     H83583   7.430  12.458   5.386  1.4862  4.0853 -0.6744
  606MOL0     H83584   7.480  12.267   5.540  2.0719  1.3574  3.6312
  606MOL0     H83585   7.650  12.271   5.480  0.0392 -1.3867  1.7751
  606MOL0     H83586   7.609  12.201   5.733  0.2753  1.4587 -3.7259
  606MOL0     H83587   7.743  12.102   6.034 -0.6936 -1.5730 -1.1230
  606MOL0     H83588   7.853  12.079   5.895 -0.2738 -0.6142 -0.5937
  606MOL0     H83589   7.678  12.051   5.888  0.8151 -0.7774  0.3667
  606MOL0     H83590   8.042  12.601   6.288  0.0624  1.2594  2.5751
  606MOL0     H83591   8.147  12.533   6.526 -0.9866  0.6750  0.6378
  606MOL0     H83592   8.320  12.202   6.608  0.0946  0.4399 -0.8402
  606MOL0     H83593   8.314  12.365   6.529 -1.1821 -0.7500 -0.4219
  606MOL0     H83594   8.303  12.456   6.759  0.9206 -0.1057  0.2336
  606MOL0     H83595   8.272  12.308   6.820 -1.8297  1.7279  0.7806
  606MOL0     H83596   8.513  12.382   6.862  1.3090  0.3463 -0.5137
  606MOL0     H83597   8.541  12.366   6.686 -1.1083 -2.0407 -1.6039
  606MOL0     H83598   8.517  12.130   6.694 -0.0094  1.3952 -1.6295
  606MOL0     H83599   8.467  12.149   6.864  3.0648 -1.7771  1.0085
  606MOL0     H83600   8.752  12.223   6.777  0.9345 -1.6980 -0.4136
  606MOL0     H83601   8.682  12.186   6.935  1.4099  3.2449 -1.1257
  606MOL0     H83602   8.737  12.000   6.698  0.2823 -0.0311 -0.2662
  606MOL0     H83603   8.637  11.958   6.834  0.8417  0.5578  2.5220
  606MOL0     H83604   8.938  12.047   6.820 -0.6640 -0.1712 -2.4796
  606MOL0     H83605   8.873  11.876   6.845  0.6479  0.1930 -0.9370
  606MOL0     H83606   8.787  11.937   7.071 -1.2958  0.7671 -2.8343
  606MOL0     H83607   8.887  12.071   7.074  0.8224 -1.4484  2.2239
  606MOL0     H83608   7.994  12.152   6.493  2.7281 -0.3143  0.1754
  606MOL0     H83609   7.889  12.193   6.262  0.9826 -0.5421  0.5552
  606MOL0     H83610   7.861  12.578   5.924 -1.9634  0.6951 -0.4147
  606MOL0     H83611   7.697  12.618   5.739 -4.8938 -1.0588 -0.2369
  606MOL0     H83612   7.811  11.118   4.561  0.3444 -0.8961  1.2187
  606MOL0     H83613   8.017  11.029   4.436  3.6017 -1.1555  2.7575
  606MOL0     H83614   8.496  11.041   4.497 -3.5037 -0.5306 -0.6361
  606MOL0     H83615   8.682  10.878   4.419  0.5384  0.3606  0.6074
  606MOL0     H83616   8.763  10.821   4.005  0.0224  1.6156  0.1325
  606MOL0     H83617   8.884  10.942   4.056  0.7286  0.1519 -1.2751
  606MOL0     H83618   8.919  10.649   4.130  1.9274 -0.7765 -0.2912
  606MOL0     H83619   9.037  10.781   4.153  0.6241 -0.2074 -1.0326
  606MOL0     H83620   8.943  10.640   3.910  0.4020 -1.7065  1.1729
  606MOL0     H83621   8.994  10.817   3.894  1.2031 -1.2518 -1.8167
  606MOL0     H83622   9.167  10.578   3.980 -2.4263 -0.7673 -0.9392
  606MOL0     H83623   9.216  10.731   3.997 -0.3557 -1.7645  2.3401
  606MOL0     H83624   9.275  10.704   3.587 -1.2047  1.9767  0.0162
  606MOL0     H83625   8.652  11.020   4.026 -0.2078  1.3987 -0.8896
  606MOL0     H83626   8.466  11.174   3.960 -1.0506 -2.0217  0.0155
  606MOL0     H83627   8.344  11.198   4.065 -0.7017  0.2562 -2.1759
  606MOL0     H83628   8.471  11.313   4.075  0.1088  0.4937 -1.1717
  607MOL0     O83629  11.484   2.366   1.161  0.0057 -0.4068 -0.2250
  607MOL0     C83630  11.408   2.313   1.088  0.4695 -0.9355  0.0690
  607MOL0     O83631  11.382   2.371   0.966  0.3617  0.2727  0.1192
  607MOL0     C83632  11.402   2.506   0.954 -0.8041 -0.7408 -0.0895
  607MOL0     C83633  11.517   2.545   0.886 -0.3871  0.5154  0.5341
  607MOL0     C83634  11.541   2.680   0.867 -0.0667 -0.4226  1.6322
  607MOL0     C83635  11.461   2.784   0.928 -0.4377  0.3418  0.1789
  607MOL0     O83636  11.503   2.917   0.934  0.5525  1.0259 -0.7916
  607MOL0     C83637  11.575   2.968   0.814  0.5225  0.7528 -0.1558
  607MOL0     C83638  11.584   3.119   0.819 -0.0602 -1.0777 -0.9063
  607MOL0     C83639  11.588   3.178   0.686 -0.3756  0.0424  0.0221
  607MOL0     C83640  11.463   3.158   0.600  0.1957 -0.4906 -0.5781
  607MOL0     C83641  11.469   3.264   0.480 -0.5251 -0.2187  0.0164
  607MOL0     C83642  11.328   3.294   0.434  0.3891 -0.3442  0.1020
  607MOL0     C83643  11.317   3.391   0.318  0.4558  0.6893 -0.1176
  607MOL0     C83644  11.360   3.533   0.339  0.1248 -0.5968  0.0802
  607MOL0     N83645  11.253   3.619   0.389  0.4908 -0.7518 -0.8368
  607MOL0     C83646  11.213   3.730   0.338  0.8333 -0.2065  0.1368
  607MOL0     C83647  11.108   3.777   0.412  0.5561 -0.4288  1.1658
  607MOL0     C83648  11.042   3.909   0.387  0.3266  0.0256  0.5191
  607MOL0     C83649  10.904   3.910   0.467  1.2284 -0.0498 -0.1451
  607MOL0     C83650  10.812   4.029   0.425 -0.3257  0.3098  0.6840
  607MOL0     C83651  10.850   4.157   0.505 -0.1415  0.4272 -0.6299
  607MOL0     O83652  10.871   4.133   0.648 -0.2193 -0.1757  0.0321
  607MOL0     C83653  10.767   4.132   0.728  1.1090  0.0981  0.4236
  607MOL0     C83654  10.794   4.109   0.866 -0.4965  0.7997  0.7001
  607MOL0     C83655  10.694   4.102   0.969 -0.6408 -0.3224  0.9239
  607MOL0     C83656  10.735   4.066   1.109 -0.2125  0.0407 -0.9598
  607MOL0     C83657  10.554   4.116   0.923  0.0585  0.9739 -0.5189
  607MOL0     C83658  10.434   4.087   1.014 -0.2630  0.2128 -0.5541
  607MOL0     O83659  10.318   4.113   0.958 -0.6437  0.0062 -0.3239
  607MOL0     C83660  10.202   4.082   1.029  0.1602  0.2695  0.7102
  607MOL0     C83661  10.100   4.177   1.047 -0.5877  0.8300  1.0558
  607MOL0     C83662   9.979   4.145   1.114 -0.6787 -0.5319 -0.6434
  607MOL0     C83663   9.966   4.024   1.177 -0.1491  0.1387 -0.4967
  607MOL0     O83664   9.849   3.984   1.244 -0.8018  0.0831 -0.3214
  607MOL0     C83665   9.725   4.055   1.220 -0.1300 -1.4310  0.9603
  607MOL0     C83666   9.601   3.979   1.283 -0.0993  0.4987  0.2897
  607MOL0     C83667   9.465   4.046   1.253  0.1021  0.2540 -0.4777
  607MOL0     C83668   9.372   3.957   1.337 -0.1283  0.0992 -0.0782
  607MOL0     C83669   9.223   3.991   1.314  0.7002  0.4528 -0.5332
  607MOL0     C83670   9.184   3.975   1.167 -0.5195 -0.1836 -0.2510
  607MOL0     C83671   9.040   3.959   1.147  1.0898  0.5072  0.2665
  607MOL0     C83672   9.010   3.919   0.998 -0.5521 -1.3861  0.4431
  607MOL0    Cl83673   9.035   4.054   0.887  0.3373  0.0531 -0.0072
  607MOL0     C83674  10.071   3.935   1.169  0.1293  0.8376 -0.4533
  607MOL0     C83675  10.176   3.960   1.091  0.0483  0.0652  0.4447
  607MOL0     O83676  10.449   4.027   1.122 -0.7481  0.6090  0.6172
  607MOL0     C83677  10.534   4.146   0.788 -0.8187 -0.5796  0.9696
  607MOL0     C83678  10.628   4.146   0.695 -0.2754 -0.1571 -0.0269
  607MOL0     N83679  11.082   3.685   0.511 -0.3830 -0.6063 -0.4118
  607MOL0     N83680  11.162   3.583   0.488  0.4351 -0.7885 -0.0169
  607MOL0     C83681  11.348   2.739   1.002 -0.0393 -0.3952  0.2457
  607MOL0     C83682  11.325   2.600   1.017 -0.2251  0.5007 -0.6236
  607MOL0     C83683  11.355   2.179   1.125  0.3612  0.1173  1.1765
  607MOL0     C83684  11.301   2.099   1.018  0.2612 -0.4578  0.1089
  607MOL0     C83685  11.237   1.979   1.037  0.3482  0.7128 -0.0359
  607MOL0     C83686  11.227   1.933   1.161  0.2167  0.2438  0.0288
  607MOL0     O83687  11.154   1.817   1.170  0.2084 -0.3654  0.5125
  607MOL0     C83688  11.016   1.807   1.214  0.6981 -0.0425 -0.1560
  607MOL0     C83689  11.010   1.675   1.308  0.2664 -1.0638 -0.3143
  607MOL0     C83690  10.878   1.694   1.390  0.3051  0.0632 -0.1483
  607MOL0     C83691  10.865   1.568   1.496  0.0997  0.1708  0.0355
  607MOL0     C83692  10.965   1.572   1.603  0.4360 -0.7802 -0.4105
  607MOL0     C83693  11.045   1.569   1.687  0.6302  0.6727 -0.0953
  607MOL0     C83694  11.271   2.013   1.270 -0.0535  0.7019 -0.4134
  607MOL0     C83695  11.339   2.132   1.252 -0.3602 -0.1697  0.1611
  607MOL0     C83696  11.379   2.201   1.383  0.1001  0.2200  0.8358
  607MOL0     H83697  11.596   2.477   0.856  0.6623  0.8883  2.3265
  607MOL0     H83698  11.635   2.699   0.817 -2.8348  3.5940 -2.9087
  607MOL0     H83699  11.517   2.937   0.727  0.0524 -2.7354  1.2441
  607MOL0     H83700  11.672   2.920   0.807 -0.7939 -1.9822 -1.1342
  607MOL0     H83701  11.500   3.160   0.875 -0.9055 -1.1401 -2.0906
  607MOL0     H83702  11.673   3.145   0.878 -0.8186  0.6792 -0.5030
  607MOL0     H83703  11.604   3.285   0.704  1.8435 -0.6204  2.5404
  607MOL0     H83704  11.677   3.144   0.632  0.4794 -1.9637  2.4964
  607MOL0     H83705  11.453   3.060   0.552 -0.4094 -1.3154  1.1286
  607MOL0     H83706  11.374   3.185   0.658 -1.0098 -0.7432 -2.2104
  607MOL0     H83707  11.531   3.229   0.397 -2.6778 -2.8300 -0.6560
  607MOL0     H83708  11.517   3.355   0.516 -0.1532 -0.3254 -0.1940
  607MOL0     H83709  11.274   3.205   0.399  0.4255 -0.4367  0.2837
  607MOL0     H83710  11.271   3.331   0.520  0.2697  0.8343 -0.4655
  607MOL0     H83711  11.219   3.369   0.276  0.8798 -2.0407  0.1514
  607MOL0     H83712  11.377   3.350   0.236 -1.1527 -2.3088  0.0913
  607MOL0     H83713  11.455   3.546   0.393  0.3544  2.5556 -0.8911
  607MOL0     H83714  11.390   3.574   0.241  1.2344  1.3794  1.1836
  607MOL0     H83715  11.248   3.773   0.244  0.6603 -3.0471 -1.3381
  607MOL0     H83716  11.014   3.914   0.282 -0.6494 -3.8053  0.4391
  607MOL0     H83717  11.123   3.983   0.392  3.5785 -3.3125  1.7477
  607MOL0     H83718  10.859   3.811   0.462  2.4812 -0.6171 -0.4927
  607MOL0     H83719  10.946   3.918   0.567  0.0380 -1.4680  0.5056
  607MOL0     H83720  10.817   4.048   0.318  1.4008 -0.9585  0.5001
  607MOL0     H83721  10.714   3.985   0.444  1.1034 -2.4040  2.4332
  607MOL0     H83722  10.949   4.184   0.467  0.6878 -1.5422  0.0131
  607MOL0     H83723  10.781   4.240   0.484 -0.6951  0.2882  0.5623
  607MOL0     H83724  10.899   4.099   0.893  0.3121  1.8070 -1.8186
  607MOL0     H83725  10.679   4.124   1.182 -1.7740 -1.5346 -0.8135
  607MOL0     H83726  10.841   4.084   1.127 -0.3619  1.3824 -1.3486
  607MOL0     H83727  10.708   3.960   1.118  0.9428 -0.2381 -0.6640
  607MOL0     H83728  10.116   4.275   1.003 -1.2901  0.1389 -0.8126
  607MOL0     H83729   9.901   4.216   1.138 -2.5285 -2.6907  0.0183
  607MOL0     H83730   9.723   4.158   1.257  0.0252 -2.4656  4.0929
  607MOL0     H83731   9.717   4.071   1.112  1.0917  1.0568  1.1679
  607MOL0     H83732   9.589   3.881   1.235 -1.7869  0.3370  0.9584
  607MOL0     H83733   9.609   3.976   1.392  1.0164  2.3596  0.3024
  607MOL0     H83734   9.448   4.059   1.145 -3.2743  1.3806  0.0544
  607MOL0     H83735   9.458   4.147   1.295 -0.7997  1.5480 -3.4292
  607MOL0     H83736   9.389   3.970   1.444 -3.5204  0.7097  0.5155
  607MOL0     H83737   9.380   3.853   1.305 -1.3341  0.0098 -0.1311
  607MOL0     H83738   9.175   3.910   1.369  0.5864  1.5943  1.1417
  607MOL0     H83739   9.209   4.087   1.364  0.9857 -0.1599  0.7651
  607MOL0     H83740   9.249   3.894   1.133  1.4019  1.3676 -0.4840
  607MOL0     H83741   9.223   4.066   1.121  1.7650 -0.3526  1.1963
  607MOL0     H83742   8.994   4.052   1.182  2.1397  0.4393  1.9466
  607MOL0     H83743   9.005   3.880   1.215  1.1866 -1.8277 -2.2225
  607MOL0     H83744   8.907   3.882   0.997 -0.1535 -2.7432  3.0077
  607MOL0     H83745   9.081   3.842   0.966  1.0066 -0.3878  1.3611
  607MOL0     H83746  10.074   3.837   1.215  2.8804  0.6051 -0.9964
  607MOL0     H83747  10.250   3.880   1.085  0.8613  0.5629  2.7352
  607MOL0     H83748  10.434   4.158   0.748 -0.7708 -0.8371  0.7657
  607MOL0     H83749  10.604   4.167   0.591  0.1916  2.9179  0.3978
  607MOL0     H83750  11.294   2.825   1.038  0.5948  0.1484 -0.0803
  607MOL0     H83751  11.256   2.559   1.090  0.8624 -0.3875 -0.0530
  607MOL0     H83752  11.294   2.144   0.919  0.5093 -1.3966 -0.3415
  607MOL0     H83753  11.185   1.921   0.961 -1.5553 -1.6321  2.8027
  607MOL0     H83754  10.973   1.902   1.246 -1.7154 -0.3412 -2.1150
  607MOL0     H83755  10.966   1.766   1.125  0.7970  1.3688 -0.8821
  607MOL0     H83756  11.101   1.681   1.369  1.4511  1.6202 -2.1276
  607MOL0     H83757  11.009   1.576   1.261 -1.5452 -2.2722  2.0559
  607MOL0     H83758  10.870   1.785   1.451 -1.7830 -1.2880  1.7660
  607MOL0     H83759  10.790   1.698   1.326  1.3553  1.1763 -1.5806
  607MOL0     H83760  10.894   1.477   1.442  2.9788  0.5556  0.7769
  607MOL0     H83761  10.764   1.561   1.538  0.8648 -1.9391  1.7196
  607MOL0     H83762  11.132   1.538   1.741 -0.0923 -2.6924 -0.6464
  607MOL0     H83763  11.257   1.975   1.371 -2.8892 -1.1771 -1.3794
  607MOL0     H83764  11.366   2.309   1.393  1.2273  0.5581 -0.8745
  607MOL0     H83765  11.338   2.142   1.465  1.6625 -2.4119 -0.1721
  607MOL0     H83766  11.488   2.192   1.388 -0.0003 -1.0491  0.9981
  608MOL0     O83767   6.871   2.181   8.620 -0.6466 -0.0011  0.2370
  608MOL0     C83768   6.929   2.291   8.633  0.7162 -0.2941 -0.3293
  608MOL0     O83769   6.947   2.391   8.540  0.0694  0.0902 -0.3992
  608MOL0     C83770   6.932   2.364   8.407  0.3587 -1.0977  0.5294
  608MOL0     C83771   6.834   2.443   8.343  0.4852  0.4139  1.1630
  608MOL0     C83772   6.822   2.406   8.205  0.8514 -0.5647 -0.6877
  608MOL0     C83773   6.899   2.306   8.142 -0.3515 -0.4818  1.1068
  608MOL0     O83774   6.894   2.273   8.010  0.3776  0.1813  0.4150
  608MOL0     C83775   6.798   2.330   7.923 -0.9100 -0.8544  0.6540
  608MOL0     C83776   6.813   2.260   7.784  0.4816 -0.1764  0.0599
  608MOL0     C83777   6.718   2.292   7.665  0.2428 -0.3541  0.0057
  608MOL0     C83778   6.669   2.434   7.663 -0.5892  0.5557 -1.0224
  608MOL0     C83779   6.609   2.466   7.522 -0.2503 -0.0785  0.4649
  608MOL0     C83780   6.551   2.610   7.520 -0.4951 -0.3579 -0.5563
  608MOL0     C83781   6.426   2.634   7.427  0.8521  1.0416 -0.5327
  608MOL0     C83782   6.477   2.673   7.283  0.7295  0.2430 -0.1462
  608MOL0     N83783   6.389   2.629   7.175  0.3346 -0.2623  0.6889
  608MOL0     C83784   6.431   2.607   7.047  0.9264  0.0710  0.2599
  608MOL0     C83785   6.320   2.607   6.976 -0.3346 -0.0445 -0.5005
  608MOL0     C83786   6.325   2.608   6.827 -0.3709 -0.6479 -0.6225
  608MOL0     C83787   6.273   2.743   6.763  0.7973 -0.0234 -0.2533
  608MOL0     C83788   6.321   2.782   6.623 -0.3777 -0.3311  0.7022
  608MOL0     C83789   6.471   2.810   6.626  1.0221 -0.1080 -0.3696
  608MOL0     O83790   6.494   2.910   6.730  0.4451 -0.3111  0.7985
  608MOL0     C83791   6.618   2.896   6.790  0.0027  0.2804  0.7677
  608MOL0     C83792   6.732   2.851   6.718  0.0865 -0.4546 -0.2970
  608MOL0     C83793   6.858   2.820   6.773 -0.4405  0.0527 -0.6245
  608MOL0     C83794   6.965   2.772   6.672 -0.3067  0.3907 -0.2072
  608MOL0     C83795   6.880   2.857   6.907  0.1562  0.4196  0.1836
  608MOL0     C83796   7.004   2.834   6.985 -0.6054 -0.4057 -0.7039
  608MOL0     O83797   7.009   2.882   7.115  0.8210 -0.1785 -0.1038
  608MOL0     C83798   7.115   2.862   7.207  0.2121  0.1602 -1.0504
  608MOL0     C83799   7.116   2.958   7.314 -0.5217 -0.5351 -0.0982
  608MOL0     C83800   7.226   2.963   7.401 -0.7503  1.2513  0.2493
  608MOL0     C83801   7.331   2.881   7.374  0.2412  0.4277 -0.8230
  608MOL0     O83802   7.429   2.896   7.473  0.0722  0.0311  0.2126
  608MOL0     C83803   7.549   2.815   7.460 -0.6254  0.4856 -0.3963
  608MOL0     C83804   7.643   2.842   7.581  1.0905 -0.7348 -0.6466
  608MOL0     C83805   7.781   2.778   7.577  0.1361 -0.2927  0.2817
  608MOL0     C83806   7.882   2.848   7.487 -0.4919  0.1453  0.1751
  608MOL0     C83807   7.924   2.990   7.534 -0.5971  0.2601  0.6979
  608MOL0     C83808   8.009   2.988   7.655 -0.5362 -1.0581  0.0549
  608MOL0     C83809   8.046   3.131   7.684  0.2596 -0.2794 -0.8046
  608MOL0     C83810   8.136   3.137   7.813 -0.1063 -0.0265  0.0865
  608MOL0    Cl83811   8.052   3.088   7.955 -0.8634  0.2034 -0.4073
  608MOL0     C83812   7.326   2.782   7.276 -0.1396 -0.3655  0.7305
  608MOL0     C83813   7.211   2.769   7.197 -0.7306 -0.2847 -0.5762
  608MOL0     O83814   7.096   2.776   6.928  0.5653 -0.3148  0.0065
  608MOL0     C83815   6.769   2.897   6.978  0.0487 -0.0359 -1.1929
  608MOL0     C83816   6.642   2.926   6.928  0.7464 -0.0367 -0.2033
  608MOL0     N83817   6.207   2.623   7.059 -0.1308  0.2124  0.1154
  608MOL0     N83818   6.253   2.625   7.179  0.2974  0.3204  0.4005
  608MOL0     C83819   7.001   2.242   8.212  0.3087  0.6851 -0.6899
  608MOL0     C83820   7.007   2.261   8.351  0.2642 -0.1882 -0.2004
  608MOL0     C83821   6.948   2.322   8.782 -0.1018  0.6946  0.7833
  608MOL0     C83822   6.997   2.224   8.860 -0.1706  0.5412  0.0016
  608MOL0     C83823   7.033   2.251   8.997 -0.0275  0.6030  0.8699
  608MOL0     C83824   7.023   2.380   9.052  0.7775  0.5241  0.5780
  608MOL0     O83825   7.075   2.389   9.180  0.1058 -0.3114  0.6360
  608MOL0     C83826   7.016   2.494   9.265 -0.9844  0.2541 -0.3928
  608MOL0     C83827   7.114   2.622   9.281 -0.4215  0.9486  0.4261
  608MOL0     C83828   7.068   2.718   9.388  1.0902 -0.0946  0.1074
  608MOL0     C83829   6.917   2.725   9.390  0.4377 -0.1327 -0.4900
  608MOL0     C83830   6.889   2.853   9.451  0.5810  0.1018 -0.1850
  608MOL0     C83831   6.862   2.958   9.502  0.3004  0.1225 -0.2042
  608MOL0     C83832   6.972   2.480   8.971  0.2331  0.5715 -0.3315
  608MOL0     C83833   6.926   2.450   8.838 -0.4905 -0.7010 -0.9209
  608MOL0     C83834   6.884   2.568   8.756  0.4679 -0.4809  0.5010
  608MOL0     H83835   6.762   2.505   8.395 -1.1254 -1.0208  0.7448
  608MOL0     H83836   6.739   2.454   8.156  1.2143 -0.2110 -0.9658
  608MOL0     H83837   6.810   2.438   7.910 -2.9473 -0.4421  1.7493
  608MOL0     H83838   6.698   2.313   7.963 -1.4301  1.1493  0.3196
  608MOL0     H83839   6.913   2.280   7.745  0.9960 -1.2648  0.7654
  608MOL0     H83840   6.810   2.151   7.798 -0.4128 -0.0755  0.7467
  608MOL0     H83841   6.776   2.273   7.574  2.2431 -1.4113  1.4275
  608MOL0     H83842   6.632   2.225   7.653  2.3684 -3.1572 -0.4816
  608MOL0     H83843   6.604   2.457   7.748  2.2443 -0.6905  1.6661
  608MOL0     H83844   6.758   2.496   7.678 -0.4842  0.8720 -2.7106
  608MOL0     H83845   6.532   2.395   7.491 -1.5924  2.0216 -1.2465
  608MOL0     H83846   6.688   2.452   7.447 -0.1640  1.0512  0.3255
  608MOL0     H83847   6.515   2.632   7.621  1.9836  1.4671  0.0119
  608MOL0     H83848   6.634   2.680   7.506 -0.0554 -0.7603 -0.0009
  608MOL0     H83849   6.366   2.717   7.463 -2.4686 -1.1844 -0.4821
  608MOL0     H83850   6.352   2.554   7.419  1.2276  0.7789 -1.5261
  608MOL0     H83851   6.493   2.781   7.288  0.0385  0.3269  3.8428
  608MOL0     H83852   6.573   2.622   7.270  0.3252 -0.8017  0.8364
  608MOL0     H83853   6.531   2.606   7.004  0.7166 -4.5563 -0.6368
  608MOL0     H83854   6.267   2.525   6.787  1.0735 -0.9720 -2.1694
  608MOL0     H83855   6.425   2.586   6.789  0.1182 -2.3437  1.4262
  608MOL0     H83856   6.166   2.734   6.741  1.0540  1.0510 -2.1474
  608MOL0     H83857   6.289   2.828   6.831 -1.8909 -0.2521  0.7978
  608MOL0     H83858   6.304   2.693   6.561 -2.3391 -1.0080  2.1222
  608MOL0     H83859   6.270   2.873   6.589 -1.2287 -0.3944  1.7763
  608MOL0     H83860   6.533   2.724   6.654 -0.1044  0.3022  4.2851
  608MOL0     H83861   6.498   2.851   6.529 -0.6486 -1.8637 -1.6438
  608MOL0     H83862   6.710   2.828   6.614 -1.7630  1.2951 -0.3586
  608MOL0     H83863   6.920   2.755   6.574 -0.8564  1.5754 -0.1772
  608MOL0     H83864   7.014   2.679   6.701 -0.4833  1.0382  2.4667
  608MOL0     H83865   7.048   2.844   6.674  0.4978 -0.3808  3.9578
  608MOL0     H83866   7.034   3.027   7.330  1.2165  1.5559  0.3171
  608MOL0     H83867   7.243   3.038   7.478  0.7073 -0.1998  1.4063
  608MOL0     H83868   7.533   2.707   7.451  2.2736  0.1036 -2.3473
  608MOL0     H83869   7.596   2.845   7.365 -1.0595 -0.4550 -0.9175
  608MOL0     H83870   7.642   2.950   7.597  0.2038 -0.3578 -2.8275
  608MOL0     H83871   7.595   2.800   7.669  0.1984 -0.7969 -1.1425
  608MOL0     H83872   7.777   2.673   7.548 -1.1771  0.2041 -1.4959
  608MOL0     H83873   7.822   2.780   7.678  4.3273  0.4125 -1.2303
  608MOL0     H83874   7.832   2.859   7.390  1.1792 -1.5688 -0.9478
  608MOL0     H83875   7.971   2.785   7.487  0.0633  0.8100  2.6954
  608MOL0     H83876   7.979   3.038   7.452  0.2711 -1.8367 -0.0105
  608MOL0     H83877   7.830   3.041   7.556  0.4599  2.3389  0.7175
  608MOL0     H83878   8.097   2.934   7.621  0.5221  0.2037  0.7278
  608MOL0     H83879   7.967   2.935   7.741  0.8851  2.4842  3.2089
  608MOL0     H83880   7.955   3.188   7.706 -0.1919 -0.9799 -0.8406
  608MOL0     H83881   8.086   3.179   7.594  1.6613  2.2342  1.0487
  608MOL0     H83882   8.168   3.242   7.822 -0.0489 -0.0977  0.7196
  608MOL0     H83883   8.229   3.080   7.802 -1.5387 -2.1122 -2.1891
  608MOL0     H83884   7.417   2.728   7.250 -0.4284 -0.1064 -0.9400
  608MOL0     H83885   7.204   2.692   7.121 -0.9128 -2.9161  1.9038
  608MOL0     H83886   6.777   2.931   7.081 -0.0627 -0.5922 -0.9978
  608MOL0     H83887   6.554   2.964   6.979  0.0968  1.2897 -2.1805
  608MOL0     H83888   7.050   2.163   8.156 -1.6435 -0.6025 -0.6566
  608MOL0     H83889   7.079   2.201   8.407 -0.4499 -0.9681 -0.0980
  608MOL0     H83890   6.998   2.120   8.828  0.9512  0.5699 -0.1054
  608MOL0     H83891   7.061   2.175   9.069 -0.7020 -0.5847 -0.0971
  608MOL0     H83892   6.915   2.530   9.241 -1.3967  0.9913  2.1196
  608MOL0     H83893   7.012   2.451   9.365  0.9499  0.5883 -0.1355
  608MOL0     H83894   7.114   2.670   9.183  1.4444 -2.7611 -1.6383
  608MOL0     H83895   7.214   2.580   9.295 -0.8550 -1.5026 -2.7060
  608MOL0     H83896   7.095   2.688   9.489 -0.0689 -4.0413 -0.5810
  608MOL0     H83897   7.116   2.814   9.368 -0.4665  0.8643  0.7072
  608MOL0     H83898   6.869   2.642   9.443 -1.4806  1.3510  0.2118
  608MOL0     H83899   6.869   2.730   9.292 -0.9563  1.4248  0.2257
  608MOL0     H83900   6.832   3.053   9.540 -0.9477  0.6112 -2.2384
  608MOL0     H83901   6.966   2.585   8.998 -1.6685  0.4744 -0.2168
  608MOL0     H83902   6.954   2.589   8.675  0.1393  1.9173  0.7843
  608MOL0     H83903   6.780   2.549   8.728  0.3389 -1.2882  1.4521
  608MOL0     H83904   6.884   2.662   8.811 -0.1109  0.1420 -0.5348
  609MOL0     O83905   3.882   2.075   3.256 -0.6519  0.3116  0.4994
  609MOL0     C83906   3.826   2.063   3.155 -0.6264  0.4893  0.1233
  609MOL0     O83907   3.714   2.126   3.124 -0.4129 -1.0642  0.1835
  609MOL0     C83908   3.672   2.236   3.195 -0.3455 -0.9562  0.0331
  609MOL0     C83909   3.634   2.234   3.322 -0.3348 -0.1978  0.4050
  609MOL0     C83910   3.601   2.350   3.391  0.6409  0.3233 -0.2902
  609MOL0     C83911   3.582   2.475   3.314  0.1266  0.7700  0.3532
  609MOL0     O83912   3.548   2.597   3.366 -0.7559 -0.2296  0.2345
  609MOL0     C83913   3.507   2.613   3.500 -0.0557 -0.1042  1.2447
  609MOL0     C83914   3.434   2.750   3.503 -0.3564 -0.3391  0.0886
  609MOL0     C83915   3.319   2.754   3.606  0.1369  0.1600 -0.6640
  609MOL0     C83916   3.199   2.680   3.552  0.3435  0.4113 -0.1430
  609MOL0     C83917   3.093   2.681   3.658 -0.4584  0.4157  0.0354
  609MOL0     C83918   2.948   2.640   3.612  0.1918  0.2995  1.4453
  609MOL0     C83919   2.958   2.500   3.545  0.1378  0.0624  0.3364
  609MOL0     C83920   2.834   2.409   3.548  0.2051 -0.5514 -0.0633
  609MOL0     N83921   2.868   2.274   3.489 -0.4635  0.5899  0.4531
  609MOL0     C83922   2.820   2.147   3.528 -0.6994 -1.4448  0.4250
  609MOL0     C83923   2.848   2.061   3.433 -0.3718  0.1283  0.3574
  609MOL0     C83924   2.811   1.919   3.417  0.3829 -0.4814 -1.3707
  609MOL0     C83925   2.672   1.910   3.355 -0.2312  0.4615 -0.0488
  609MOL0     C83926   2.680   1.937   3.205  0.8882 -0.6477 -0.2128
  609MOL0     C83927   2.560   2.018   3.164  0.0018 -0.3454  0.1214
  609MOL0     O83928   2.597   2.155   3.205 -0.6651  0.4780 -0.7610
  609MOL0     C83929   2.499   2.253   3.205  0.1120  0.5379 -0.7315
  609MOL0     C83930   2.373   2.247   3.146  0.2400  0.1717 -0.0706
  609MOL0     C83931   2.269   2.339   3.172 -0.5395  0.0316 -0.0580
  609MOL0     C83932   2.138   2.306   3.111 -0.1926  0.8884 -0.2045
  609MOL0     C83933   2.297   2.444   3.269 -0.4805 -0.2313  0.1302
  609MOL0     C83934   2.203   2.549   3.323 -0.7423 -0.0271 -1.2882
  609MOL0     O83935   2.236   2.608   3.445 -0.0726  0.0581  0.0565
  609MOL0     C83936   2.149   2.707   3.490 -0.5587  0.2962 -0.0872
  609MOL0     C83937   2.141   2.834   3.425 -0.7493  0.2382  0.0126
  609MOL0     C83938   2.038   2.923   3.441 -0.1026 -0.4924  0.7040
  609MOL0     C83939   1.944   2.899   3.548  0.4626  0.1244 -0.9407
  609MOL0     O83940   1.846   2.987   3.575  0.5799 -0.5646  0.5808
  609MOL0     C83941   1.883   3.126   3.579  0.1552  0.0418  0.3522
  609MOL0     C83942   1.957   3.156   3.711 -0.0881  0.8638 -0.4484
  609MOL0     C83943   2.113   3.119   3.712 -0.2485 -0.9008  0.5877
  609MOL0     C83944   2.208   3.214   3.631  0.4898 -0.4914 -0.0367
  609MOL0     C83945   2.342   3.210   3.702  0.2783  0.2829  0.3900
  609MOL0     C83946   2.418   3.077   3.700 -0.3585  0.3775 -0.4228
  609MOL0     C83947   2.439   3.026   3.544 -0.1132 -0.9495 -0.0021
  609MOL0     C83948   2.540   2.916   3.518 -0.1525  0.1701 -0.7332
  609MOL0    Cl83949   2.704   2.957   3.567 -0.4102  0.6783  0.0463
  609MOL0     C83950   1.960   2.789   3.631 -0.3590 -0.0125 -0.3196
  609MOL0     C83951   2.054   2.688   3.598 -0.1018  0.6514  0.0085
  609MOL0     O83952   2.112   2.583   3.249 -0.2028 -0.0365  0.1008
  609MOL0     C83953   2.432   2.447   3.321  0.8424  0.0160 -0.1732
  609MOL0     C83954   2.529   2.358   3.289 -0.1668  0.1765 -0.0778
  609MOL0     N83955   2.931   2.128   3.339 -0.0265  0.5366  0.9147
  609MOL0     N83956   2.949   2.246   3.386  0.1741 -0.8293  0.4199
  609MOL0     C83957   3.608   2.472   3.176 -0.1046 -0.3779  0.8774
  609MOL0     C83958   3.654   2.350   3.119 -0.7052  0.6996 -0.1779
  609MOL0     C83959   3.873   1.953   3.063  0.9161 -0.9989 -0.1004
  609MOL0     C83960   3.935   1.840   3.110 -0.7412 -0.8720 -0.5391
  609MOL0     C83961   3.993   1.749   3.031 -0.5763 -0.5479  0.4352
  609MOL0     C83962   3.977   1.761   2.889  0.1939  0.1568  0.7774
  609MOL0     O83963   4.023   1.686   2.785 -0.1949 -0.2112  0.3793
  609MOL0     C83964   4.073   1.554   2.819 -0.3641  0.3801 -0.3765
  609MOL0     C83965   4.151   1.474   2.703  0.8687 -0.3528  0.3261
  609MOL0     C83966   4.284   1.523   2.662  0.2304 -0.0643  0.4487
  609MOL0     C83967   4.335   1.448   2.536  0.0835 -0.6899 -0.6468
  609MOL0     C83968   4.453   1.529   2.495 -0.7850  0.5392  0.6321
  609MOL0     C83969   4.532   1.620   2.473  0.6215 -0.5366  0.6288
  609MOL0     C83970   3.907   1.875   2.848 -0.3630  0.3230  0.3900
  609MOL0     C83971   3.858   1.980   2.925 -0.2412 -0.1096 -0.4651
  609MOL0     C83972   3.791   2.095   2.851 -0.0798  0.4084  0.0790
  609MOL0     H83973   3.633   2.138   3.371  2.0613 -0.5692 -0.1670
  609MOL0     H83974   3.582   2.367   3.497  2.5318  3.6241 -0.3428
  609MOL0     H83975   3.593   2.617   3.566  1.4774  2.3839 -0.7145
  609MOL0     H83976   3.447   2.524   3.520 -0.2391 -0.6238 -1.2862
  609MOL0     H83977   3.512   2.821   3.531  2.6448 -3.6780  0.9600
  609MOL0     H83978   3.388   2.775   3.407 -0.9366 -1.2641  0.1065
  609MOL0     H83979   3.340   2.717   3.707 -2.5690  0.9061  0.2455
  609MOL0     H83980   3.280   2.854   3.626 -2.2977 -0.4834 -1.8809
  609MOL0     H83981   3.167   2.734   3.462  1.2875 -0.3141 -0.9375
  609MOL0     H83982   3.227   2.580   3.518  1.9843  1.3482 -1.7369
  609MOL0     H83983   3.088   2.789   3.674 -2.1365  0.5343 -1.0202
  609MOL0     H83984   3.127   2.617   3.740  0.0159 -0.6103 -0.9321
  609MOL0     H83985   2.885   2.634   3.701  1.0082  1.2212  2.1057
  609MOL0     H83986   2.912   2.709   3.535  0.7630 -1.7544 -0.7875
  609MOL0     H83987   3.034   2.448   3.603  2.6729  3.2772  0.1815
  609MOL0     H83988   3.001   2.508   3.445  2.5678 -1.8003  1.1329
  609MOL0     H83989   2.789   2.406   3.648  1.7242 -1.6127  0.6254
  609MOL0     H83990   2.759   2.464   3.490  0.5416  2.4686  2.1384
  609MOL0     H83991   2.759   2.119   3.614  1.4462 -1.8856  1.8938
  609MOL0     H83992   2.818   1.869   3.515  0.0328  2.8831  0.5229
  609MOL0     H83993   2.877   1.869   3.345  4.2794  2.7737 -0.4701
  609MOL0     H83994   2.625   1.811   3.361 -0.1075  0.4308  0.4965
  609MOL0     H83995   2.596   1.976   3.398  0.4813  0.1981  1.6725
  609MOL0     H83996   2.776   1.981   3.176  1.1057 -0.1172  1.2276
  609MOL0     H83997   2.678   1.838   3.159  2.2926  0.1002 -2.0058
  609MOL0     H83998   2.540   2.010   3.056 -0.2673 -0.2125  0.1603
  609MOL0     H83999   2.462   1.994   3.204 -1.8554  2.0677 -2.5554
  609MOL0     H84000   2.350   2.162   3.083  0.9305  0.9878 -1.4669
  609MOL0     H84001   2.164   2.231   3.036  1.8015  0.9168  0.4168
  609MOL0     H84002   2.094   2.396   3.065 -2.2328  1.2572  2.2323
  609MOL0     H84003   2.059   2.278   3.181  0.6760 -1.4894 -0.0857
  609MOL0     H84004   2.222   2.852   3.355  0.2131  0.9498  1.2532
  609MOL0     H84005   2.026   2.996   3.361 -0.3703 -1.7510 -0.4242
  609MOL0     H84006   1.933   3.167   3.490 -1.4882  1.5725  0.0718
  609MOL0     H84007   1.786   3.174   3.593 -1.0288 -2.4885  1.4911
  609MOL0     H84008   1.933   3.261   3.728 -0.3580  1.1065 -2.1451
  609MOL0     H84009   1.909   3.086   3.780  4.3699 -1.1720  0.9151
  609MOL0     H84010   2.139   3.017   3.680 -0.4699 -0.9237  0.4811
  609MOL0     H84011   2.134   3.106   3.819  0.0994 -1.0473  0.5028
  609MOL0     H84012   2.175   3.318   3.637  0.8775 -0.4037  0.9536
  609MOL0     H84013   2.199   3.182   3.527 -0.6223 -0.3294  0.0034
  609MOL0     H84014   2.397   3.293   3.657 -0.3899  1.0357  0.9275
  609MOL0     H84015   2.325   3.247   3.803  0.0696 -1.0320  0.8617
  609MOL0     H84016   2.369   2.998   3.757  1.4565 -0.2937  0.2784
  609MOL0     H84017   2.515   3.100   3.746 -0.0850  0.1601 -0.8873
  609MOL0     H84018   2.480   3.113   3.493 -2.0359 -0.0646 -0.1025
  609MOL0     H84019   2.344   2.996   3.499 -0.1102 -1.4408  0.3108
  609MOL0     H84020   2.546   2.899   3.411  0.9321 -0.7046 -0.5497
  609MOL0     H84021   2.498   2.832   3.574 -2.1699  1.2929 -0.4545
  609MOL0     H84022   1.894   2.779   3.717 -0.1422  0.7476 -0.0543
  609MOL0     H84023   2.053   2.606   3.669  0.1647  0.9012  0.3052
  609MOL0     H84024   2.463   2.527   3.388 -2.4171 -0.7634  2.5159
  609MOL0     H84025   2.624   2.378   3.335  0.0996  1.1719 -1.0072
  609MOL0     H84026   3.597   2.558   3.111 -1.0278  0.9685  2.7429
  609MOL0     H84027   3.687   2.338   3.016 -2.7421 -1.2103 -0.6826
  609MOL0     H84028   3.943   1.818   3.216  0.8064 -1.2712 -0.7090
  609MOL0     H84029   4.054   1.672   3.078 -0.0773 -1.3984 -1.4972
  609MOL0     H84030   4.145   1.561   2.901  0.5699  0.2106 -1.1730
  609MOL0     H84031   3.986   1.494   2.848  0.7595 -1.2253 -0.2079
  609MOL0     H84032   4.093   1.487   2.611  0.1537 -0.2431  0.7834
  609MOL0     H84033   4.152   1.367   2.725 -1.8789 -1.0085 -2.0153
  609MOL0     H84034   4.273   1.627   2.630  1.2433 -0.3550 -0.9463
  609MOL0     H84035   4.348   1.516   2.751 -4.2225 -0.2605  3.9959
  609MOL0     H84036   4.267   1.451   2.450  0.0821  0.3370 -0.6215
  609MOL0     H84037   4.371   1.348   2.562  3.0010  1.3719  4.7694
  609MOL0     H84038   4.603   1.692   2.436  0.3341  1.3901  3.4859
  609MOL0     H84039   3.882   1.889   2.743 -0.9126 -3.9967 -0.2177
  609MOL0     H84040   3.684   2.086   2.872  0.2679 -3.6966  0.9449
  609MOL0     H84041   3.827   2.196   2.873  0.1363  0.2237  0.5770
  609MOL0     H84042   3.816   2.081   2.745  2.8822 -1.3701  0.8967
  610MOL0     O84043   1.004   8.235  10.028  0.1849 -0.1549 -0.2155
  610MOL0     C84044   0.885   8.208   9.988  0.5308 -0.2389 -0.0988
  610MOL0     O84045   0.806   8.105  10.029  0.3909 -0.2974 -0.6014
  610MOL0     C84046   0.848   8.046  10.143  0.3658 -0.2534  1.1322
  610MOL0     C84047   0.894   7.914  10.145 -2.1262 -0.8594  0.6385
  610MOL0     C84048   0.910   7.841  10.264 -0.0682  0.3080 -0.0312
  610MOL0     C84049   0.883   7.897  10.389  0.6550 -0.1583 -0.0724
  610MOL0     O84050   0.879   7.827  10.514  0.8458 -0.2084  0.0536
  610MOL0     C84051   0.901   7.691  10.507 -0.0592 -0.7140  0.2672
  610MOL0     C84052   0.901   7.607  10.643  0.3857  0.5554 -0.6061
  610MOL0     C84053   0.995   7.664  10.742  0.7038 -0.2385  0.3638
  610MOL0     C84054   0.987   7.596  10.888  0.4268  0.0365  0.7106
  610MOL0     C84055   1.103   7.639  10.980  0.7383 -0.7270 -0.1247
  610MOL0     C84056   1.097   7.792  11.018  0.4641 -0.5177 -0.8256
  610MOL0     C84057   1.207   7.822  11.116  0.2423 -1.4444  0.0588
  610MOL0     C84058   1.212   7.967  11.173  0.0273 -0.1186  0.2400
  610MOL0     N84059   1.311   7.981  11.277 -0.4392 -0.0515 -0.1525
  610MOL0     C84060   1.348   7.881  11.369  0.3346 -1.2941  0.4362
  610MOL0     C84061   1.467   7.923  11.406  0.6361  0.0339  0.8976
  610MOL0     C84062   1.548   7.850  11.508 -0.3116 -0.7491  0.2252
  610MOL0     C84063   1.548   7.915  11.653 -0.2435 -0.1899 -1.5666
  610MOL0     C84064   1.523   7.813  11.762  0.2501  0.1001 -0.3355
  610MOL0     C84065   1.646   7.726  11.777  0.4073  0.4099  0.2639
  610MOL0     O84066   1.634   7.645  11.893  0.4183 -0.8764  0.3421
  610MOL0     C84067   1.721   7.541  11.918 -0.5763  0.1350 -0.2452
  610MOL0     C84068   1.675   7.442  12.005 -0.2482  0.8897  1.0369
  610MOL0     C84069   1.747   7.322  12.038 -0.6535  0.3901  0.1311
  610MOL0     C84070   1.694   7.227  12.143  0.5237 -0.5759  0.4812
  610MOL0     C84071   1.870   7.303  11.966  0.1911 -0.4141 -0.2638
  610MOL0     C84072   1.968   7.205  12.014 -0.3074 -0.4031  0.1603
  610MOL0     O84073   2.002   7.108  11.919 -0.0441 -0.5466  0.0103
  610MOL0     C84074   2.103   7.017  11.945  0.5148 -0.2910  0.1159
  610MOL0     C84075   2.231   7.048  12.001  0.5424  0.0234 -0.2969
  610MOL0     C84076   2.334   6.952  12.016 -0.0275 -0.0247 -0.0549
  610MOL0     C84077   2.304   6.819  11.993 -0.8915  0.3853  0.0280
  610MOL0     O84078   2.400   6.741  12.032  0.0055 -0.1034 -0.2859
  610MOL0     C84079   2.361   6.601  12.050 -0.0436 -0.5686 -0.1045
  610MOL0     C84080   2.468   6.509  12.092 -0.1565 -0.2392 -0.1752
  610MOL0     C84081   2.428   6.356  12.100 -0.0580  0.1058  0.4811
  610MOL0     C84082   2.310   6.335  12.192 -0.3468 -1.1205 -0.1370
  610MOL0     C84083   2.277   6.182  12.210  0.1584  0.0381  0.1978
  610MOL0     C84084   2.151   6.162  12.290  0.7695 -0.3411  0.3110
  610MOL0     C84085   2.096   6.017  12.289 -0.4417 -0.5767  0.3738
  610MOL0     C84086   2.051   5.969  12.157 -0.7013  0.3240 -0.3671
  610MOL0    Cl84087   1.930   6.074  12.084  0.1735 -0.2804  0.2882
  610MOL0     C84088   2.184   6.784  11.932 -0.7374  0.0331  0.6193
  610MOL0     C84089   2.081   6.878  11.919  0.3755  0.2704 -0.4532
  610MOL0     O84090   2.011   7.208  12.126 -0.2179  0.1569 -0.8810
  610MOL0     C84091   1.902   7.404  11.874 -0.3250 -0.8787  0.1479
  610MOL0     C84092   1.833   7.519  11.846  0.3668 -0.5409  0.1352
  610MOL0     N84093   1.500   8.038  11.341  0.6078 -0.3169 -0.8526
  610MOL0     N84094   1.402   8.075  11.269 -0.1601 -0.3279  0.5772
  610MOL0     C84095   0.844   8.029  10.384  0.1660  0.0039  0.2458
  610MOL0     C84096   0.817   8.097  10.266 -0.0512 -0.2894 -1.0062
  610MOL0     C84097   0.840   8.303   9.885 -0.5397  0.4513  0.5483
  610MOL0     C84098   0.701   8.310   9.871  0.2855 -0.9967 -0.2369
  610MOL0     C84099   0.641   8.406   9.787  0.3718  0.4890 -0.2476
  610MOL0     C84100   0.717   8.487   9.709  0.3526  0.0511 -0.9268
  610MOL0     O84101   0.668   8.585   9.630 -0.2695 -0.1076  0.3331
  610MOL0     C84102   0.613   8.693   9.709  0.7428 -0.1231 -0.3406
  610MOL0     C84103   0.560   8.805   9.617  0.6133  0.0983 -0.2156
  610MOL0     C84104   0.488   8.899   9.715  0.3179 -0.4896  1.2301
  610MOL0     C84105   0.425   9.022   9.639 -0.4567  0.1061 -1.0076
  610MOL0     C84106   0.361   9.127   9.726 -0.8289 -0.1375  0.5193
  610MOL0     C84107   0.297   9.200   9.803 -0.4476 -0.1883  0.6774
  610MOL0     C84108   0.859   8.477   9.711 -0.3232 -0.5899 -0.4328
  610MOL0     C84109   0.921   8.385   9.801  0.5657  0.5673 -0.7393
  610MOL0     C84110   1.067   8.387   9.815 -0.3341 -0.2020  0.1915
  610MOL0     H84111   0.908   7.870  10.047 -3.2522 -1.2998  0.6590
  610MOL0     H84112   0.943   7.738  10.258 -1.1618  0.0110 -1.3790
  610MOL0     H84113   0.994   7.682  10.450 -0.5604  2.9681 -1.4655
  610MOL0     H84114   0.817   7.656  10.447 -0.9866  2.7155 -0.6872
  610MOL0     H84115   0.802   7.614  10.690  1.3765  2.6644  1.3118
  610MOL0     H84116   0.934   7.503  10.629  0.5196  0.6761 -1.2396
  610MOL0     H84117   1.096   7.651  10.702  0.6288 -1.7903  0.6117
  610MOL0     H84118   0.964   7.769  10.754 -0.7230 -0.5524 -0.3501
  610MOL0     H84119   0.891   7.615  10.938 -0.0702 -0.4955 -0.0064
  610MOL0     H84120   0.998   7.489  10.869 -1.4152 -0.1710  0.6509
  610MOL0     H84121   1.200   7.639  10.929 -0.2369  1.9395 -2.2107
  610MOL0     H84122   1.099   7.573  11.067 -0.2193 -1.1252 -0.4557
  610MOL0     H84123   1.107   7.856  10.930  0.5480  0.5777 -0.0325
  610MOL0     H84124   1.003   7.811  11.070  0.0535 -0.0895 -1.7016
  610MOL0     H84125   1.297   7.804  11.057  0.3963 -0.7805  0.0792
  610MOL0     H84126   1.202   7.743  11.191  0.1066  0.7110  2.4991
  610MOL0     H84127   1.250   8.029  11.092 -1.1515  0.1837 -0.1115
  610MOL0     H84128   1.111   7.997  11.204 -1.0798 -3.6082  0.5119
  610MOL0     H84129   1.295   7.800  11.416 -3.3852  1.2314  0.9976
  610MOL0     H84130   1.646   7.845  11.461 -0.3451 -0.2487  0.0954
  610MOL0     H84131   1.521   7.746  11.525 -0.4398 -1.0763 -1.8097
  610MOL0     H84132   1.649   7.956  11.660 -0.6780  1.0982 -2.4060
  610MOL0     H84133   1.463   7.984  11.663 -2.0246 -2.3556 -0.8299
  610MOL0     H84134   1.497   7.852  11.861  2.3843 -1.0796  0.7485
  610MOL0     H84135   1.436   7.751  11.737 -2.4922  3.4816 -0.0231
  610MOL0     H84136   1.647   7.657  11.693 -3.1881 -1.2059  1.3626
  610MOL0     H84137   1.739   7.784  11.775  0.1008  0.9038 -0.7439
  610MOL0     H84138   1.584   7.450  12.064  0.5050 -2.5993  3.0343
  610MOL0     H84139   1.733   7.262  12.240 -1.0778 -1.3340  1.4477
  610MOL0     H84140   1.720   7.121  12.143  0.7308 -0.5651 -1.5853
  610MOL0     H84141   1.585   7.228  12.140  0.5054 -0.4255  1.0819
  610MOL0     H84142   2.251   7.150  12.033  0.1636  0.2519 -0.7799
  610MOL0     H84143   2.423   6.976  12.073 -1.1253 -0.8336  2.1070
  610MOL0     H84144   2.293   6.597  12.136 -0.6511 -1.7444 -0.6186
  610MOL0     H84145   2.306   6.557  11.966 -2.7660 -0.4611  1.5026
  610MOL0     H84146   2.564   6.509  12.039  1.3764  2.4602  2.2608
  610MOL0     H84147   2.507   6.545  12.188  2.0482 -0.4028 -0.9491
  610MOL0     H84148   2.512   6.289  12.125 -0.0242 -1.5857 -3.4919
  610MOL0     H84149   2.391   6.334  12.000  0.0427  1.8342  0.0320
  610MOL0     H84150   2.226   6.391  12.151 -0.8037 -0.2403  1.8445
  610MOL0     H84151   2.340   6.384  12.286 -2.3749  0.4212 -0.2234
  610MOL0     H84152   2.258   6.143  12.110  0.3530  2.2696 -0.7593
  610MOL0     H84153   2.360   6.132  12.260  0.5132  3.0620  3.0269
  610MOL0     H84154   2.080   6.230  12.242  1.1432 -0.5785 -0.6066
  610MOL0     H84155   2.155   6.202  12.391  0.5882 -2.1576  1.0707
  610MOL0     H84156   2.006   6.015  12.352 -0.5951 -1.6636  0.1348
  610MOL0     H84157   2.170   5.947  12.329 -1.1024 -0.9995  0.8699
  610MOL0     H84158   2.025   5.866  12.185 -1.9246  0.7465  0.1119
  610MOL0     H84159   2.137   5.963  12.090 -0.9307  1.9839 -0.8521
  610MOL0     H84160   2.172   6.692  11.877 -0.2436  0.5574 -0.3921
  610MOL0     H84161   1.995   6.846  11.860  1.6221 -1.7778 -1.2626
  610MOL0     H84162   1.999   7.392  11.826  0.0196  0.0402  0.5808
  610MOL0     H84163   1.883   7.592  11.784  1.9417 -0.6016  1.2564
  610MOL0     H84164   0.818   8.084  10.474 -3.1274 -2.3059  0.8659
  610MOL0     H84165   0.778   8.198  10.272  1.7081  0.3494  1.8006
  610MOL0     H84166   0.631   8.250   9.929  1.4324 -0.9110  1.2851
  610MOL0     H84167   0.536   8.431   9.786  0.0392 -0.2342  3.3115
  610MOL0     H84168   0.523   8.662   9.763  2.0229 -0.7080  1.5562
  610MOL0     H84169   0.679   8.718   9.793  0.0633  0.4733  0.0224
  610MOL0     H84170   0.484   8.762   9.552 -1.9554  2.2415  1.1225
  610MOL0     H84171   0.647   8.851   9.570  2.6334  1.7430  4.5157
  610MOL0     H84172   0.400   8.861   9.767  0.5525 -2.6983  0.1377
  610MOL0     H84173   0.565   8.942   9.780  0.3630  2.3755 -0.5265
  610MOL0     H84174   0.347   8.969   9.583 -2.6916  1.8475  0.2851
  610MOL0     H84175   0.496   9.073   9.573  2.8730  2.2432  3.6547
  610MOL0     H84176   0.247   9.259   9.877 -2.5395  0.6939 -1.3348
  610MOL0     H84177   0.931   8.539   9.660  1.4503 -2.3727 -0.1762
  610MOL0     H84178   1.099   8.414   9.714  1.0133  0.2512  0.7173
  610MOL0     H84179   1.103   8.465   9.883 -0.3843  0.2794 -0.3300
  610MOL0     H84180   1.120   8.297   9.847  0.3030  0.3497  0.7144
  611MOL0     O84181   1.729   1.726   1.179 -0.9181  0.1551 -0.0242
  611MOL0     C84182   1.657   1.651   1.245  0.2494  0.6054 -0.3155
  611MOL0     O84183   1.702   1.554   1.327 -0.3579  0.6687  0.0240
  611MOL0     C84184   1.821   1.507   1.289  0.0966 -0.0149 -0.3550
  611MOL0     C84185   1.947   1.561   1.333  0.3141 -0.4678 -0.3810
  611MOL0     C84186   2.071   1.507   1.297 -0.9678  0.8147 -0.9633
  611MOL0     C84187   2.076   1.397   1.200  0.5245 -0.1374  0.4823
  611MOL0     O84188   2.184   1.332   1.157 -0.1355  0.7051 -0.2104
  611MOL0     C84189   2.318   1.371   1.203 -0.0923  0.0598  1.1074
  611MOL0     C84190   2.355   1.512   1.128  0.1743 -0.4098  0.0825
  611MOL0     C84191   2.509   1.551   1.108  0.3663  1.2173  0.2902
  611MOL0     C84192   2.555   1.629   1.227 -0.6675  0.0761  0.1223
  611MOL0     C84193   2.707   1.640   1.246 -0.3279 -0.2782 -0.3123
  611MOL0     C84194   2.797   1.508   1.248 -0.4521 -0.2308 -0.3571
  611MOL0     C84195   2.947   1.534   1.272 -0.2303 -0.1007 -0.3265
  611MOL0     C84196   3.007   1.615   1.155  0.1838 -0.7857 -0.7261
  611MOL0     N84197   3.122   1.699   1.201 -0.7502 -0.1475  0.3963
  611MOL0     C84198   3.243   1.655   1.255 -0.0216 -0.1640 -0.3388
  611MOL0     C84199   3.320   1.772   1.263 -0.7781 -0.3903  0.4149
  611MOL0     C84200   3.455   1.778   1.334  0.1066  0.1369  0.0664
  611MOL0     C84201   3.542   1.862   1.238 -0.4209 -0.8540 -0.3682
  611MOL0     C84202   3.688   1.854   1.290 -0.1413 -0.0131 -0.5670
  611MOL0     C84203   3.785   1.946   1.209 -0.3240  0.7975  0.9366
  611MOL0     O84204   3.754   2.079   1.242  0.4546 -0.3102  0.5920
  611MOL0     C84205   3.806   2.135   1.359  0.7569  0.0303  0.3969
  611MOL0     C84206   3.927   2.104   1.405 -0.2514 -0.0064  0.2039
  611MOL0     C84207   3.979   2.154   1.523 -0.2449 -0.5542  0.1375
  611MOL0     C84208   4.120   2.110   1.547 -0.2197 -0.1371 -0.2486
  611MOL0     C84209   3.897   2.246   1.597  0.2566  0.2263  0.8178
  611MOL0     C84210   3.940   2.306   1.726 -0.2455 -1.3407  0.1424
  611MOL0     O84211   3.941   2.214   1.824  0.4223  0.5366  0.0261
  611MOL0     C84212   3.974   2.257   1.951  0.0671 -0.2079 -0.0432
  611MOL0     C84213   3.919   2.361   2.032 -0.0143 -0.1553  0.5557
  611MOL0     C84214   3.985   2.405   2.152 -0.5752  0.3384  1.4770
  611MOL0     C84215   4.101   2.325   2.200  0.9735 -0.5077 -0.2655
  611MOL0     O84216   4.173   2.352   2.317  0.1177 -0.0028  0.8465
  611MOL0     C84217   4.116   2.439   2.415  0.4208  0.3864 -0.3234
  611MOL0     C84218   4.194   2.416   2.542 -0.1186 -0.0962  0.2176
  611MOL0     C84219   4.332   2.476   2.543  0.6967  0.7163 -0.4863
  611MOL0     C84220   4.332   2.629   2.564 -0.0324 -0.1052  0.2790
  611MOL0     C84221   4.260   2.686   2.687 -0.0695  0.1554 -0.7630
  611MOL0     C84222   4.343   2.688   2.814 -0.0967 -0.6454  0.3747
  611MOL0     C84223   4.283   2.747   2.937 -0.5202  0.5354 -0.7946
  611MOL0     C84224   4.395   2.736   3.048  0.3279 -0.4878 -0.6396
  611MOL0    Cl84225   4.474   2.580   3.078 -0.0186  0.5860 -0.3607
  611MOL0     C84226   4.141   2.212   2.124 -0.7191 -1.2786 -0.3284
  611MOL0     C84227   4.079   2.192   2.003  0.1120 -0.5282 -0.0229
  611MOL0     O84228   3.980   2.420   1.741  0.0910  0.7162 -0.1625
  611MOL0     C84229   3.769   2.287   1.554  0.3363  0.8310  0.4130
  611MOL0     C84230   3.725   2.232   1.433  0.1445  0.8533  1.0440
  611MOL0     N84231   3.245   1.874   1.213  0.0739 -0.4142 -0.8368
  611MOL0     N84232   3.132   1.827   1.176  0.9038 -0.0350 -0.1604
  611MOL0     C84233   1.954   1.338   1.165  0.3227 -0.5694 -0.0301
  611MOL0     C84234   1.827   1.397   1.203 -1.4836 -0.2677  0.0820
  611MOL0     C84235   1.513   1.674   1.230 -0.3447 -0.7967  0.4144
  611MOL0     C84236   1.424   1.597   1.312  0.0101 -0.2146  0.0843
  611MOL0     C84237   1.289   1.604   1.305 -1.0476 -0.2759 -0.4569
  611MOL0     C84238   1.231   1.690   1.221 -0.0686  1.0906  0.0772
  611MOL0     O84239   1.093   1.713   1.218  0.0197 -0.2264 -0.6533
  611MOL0     C84240   0.996   1.606   1.230 -0.7284 -0.6829  0.1142
  611MOL0     C84241   0.984   1.542   1.087 -0.2242 -1.2300  0.1787
  611MOL0     C84242   0.973   1.644   0.974 -0.4740 -0.6740 -0.0692
  611MOL0     C84243   0.974   1.582   0.834 -0.4521 -0.4851 -0.4530
  611MOL0     C84244   0.840   1.515   0.808  0.4748  0.2650 -1.0135
  611MOL0     C84245   0.721   1.481   0.790  0.2303 -0.7751 -0.6478
  611MOL0     C84246   1.311   1.776   1.145  0.1077 -0.3103 -0.0452
  611MOL0     C84247   1.448   1.766   1.141 -0.0230 -0.2807 -1.1377
  611MOL0     C84248   1.520   1.862   1.044  0.5890  0.7651 -0.3370
  611MOL0     H84249   1.950   1.649   1.396  1.9771  0.2346 -1.3653
  611MOL0     H84250   2.160   1.542   1.349 -1.3751 -1.5085  1.5358
  611MOL0     H84251   2.387   1.289   1.181 -0.6030  0.5749 -3.1416
  611MOL0     H84252   2.312   1.374   1.313  1.3108 -1.3369  1.2647
  611MOL0     H84253   2.324   1.503   1.023 -2.9586 -1.1209  0.9722
  611MOL0     H84254   2.293   1.595   1.162  0.3941  1.9381 -4.5089
  611MOL0     H84255   2.553   1.452   1.097 -1.6585 -0.2037  3.4167
  611MOL0     H84256   2.526   1.621   1.026  0.3683  2.0156  0.9577
  611MOL0     H84257   2.513   1.730   1.228  0.4435  0.7599 -4.0221
  611MOL0     H84258   2.517   1.584   1.319 -3.2108 -0.5306 -1.1603
  611MOL0     H84259   2.723   1.693   1.340 -1.4182  1.9130 -1.3016
  611MOL0     H84260   2.749   1.702   1.166 -1.9230 -0.8617 -1.6469
  611MOL0     H84261   2.765   1.445   1.331  0.3676  2.8897  2.5465
  611MOL0     H84262   2.789   1.457   1.152 -0.2945  2.5452 -1.9460
  611MOL0     H84263   2.998   1.439   1.289 -1.4808 -0.6155  0.6681
  611MOL0     H84264   2.970   1.590   1.363 -0.0411 -0.4984 -0.1271
  611MOL0     H84265   3.027   1.545   1.073 -3.3032 -1.6492 -0.9836
  611MOL0     H84266   2.938   1.691   1.118  0.5371 -1.0004 -1.8677
  611MOL0     H84267   3.275   1.559   1.295 -0.8454 -0.1553  0.3715
  611MOL0     H84268   3.500   1.680   1.355  0.1563  0.5237  1.9361
  611MOL0     H84269   3.438   1.840   1.422 -1.2034  2.6824 -1.8253
  611MOL0     H84270   3.524   1.837   1.133 -0.9509 -4.0321  0.3684
  611MOL0     H84271   3.513   1.967   1.248  2.3294 -0.0420 -0.1613
  611MOL0     H84272   3.685   1.879   1.396 -0.3485 -0.2197 -0.5224
  611MOL0     H84273   3.716   1.749   1.279 -0.9361 -0.1519 -1.4826
  611MOL0     H84274   3.889   1.916   1.224 -0.2622 -1.4872 -2.7612
  611MOL0     H84275   3.773   1.929   1.102  3.7037 -0.2634  0.5141
  611MOL0     H84276   3.994   2.041   1.346 -0.3476 -0.1744  0.2752
  611MOL0     H84277   4.124   2.000   1.555 -0.9342 -0.0234  2.7146
  611MOL0     H84278   4.146   2.137   1.650  0.4680  0.8495 -0.6625
  611MOL0     H84279   4.187   2.152   1.472  0.5702 -1.0180 -0.0656
  611MOL0     H84280   3.836   2.419   1.992  0.6523  1.2632  1.1633
  611MOL0     H84281   3.948   2.480   2.221 -4.0619 -1.0416  1.3245
  611MOL0     H84282   4.123   2.542   2.378 -1.7341  0.3365 -1.0495
  611MOL0     H84283   4.008   2.422   2.424  0.6612 -1.9099 -1.0141
  611MOL0     H84284   4.139   2.445   2.632  1.9392 -0.8329  1.7881
  611MOL0     H84285   4.208   2.308   2.544  0.0161 -0.0779  1.6893
  611MOL0     H84286   4.386   2.453   2.451 -2.0827  0.6580 -2.2243
  611MOL0     H84287   4.401   2.430   2.615  3.7575  1.2958 -2.8442
  611MOL0     H84288   4.287   2.684   2.480 -1.3027  0.8738  1.5589
  611MOL0     H84289   4.432   2.673   2.570 -0.3270  1.0870 -2.1516
  611MOL0     H84290   4.261   2.793   2.664  3.6845  0.6668  0.9666
  611MOL0     H84291   4.162   2.640   2.703  1.3658 -2.0434  3.1934
  611MOL0     H84292   4.432   2.750   2.802 -1.0246  1.1100  2.1715
  611MOL0     H84293   4.393   2.592   2.830  3.4288  1.1132  0.8258
  611MOL0     H84294   4.198   2.689   2.974 -1.4175  1.8504 -0.7160
  611MOL0     H84295   4.247   2.850   2.930 -1.5957  0.5038  2.6614
  611MOL0     H84296   4.352   2.756   3.147  0.4500 -1.3573 -0.4028
  611MOL0     H84297   4.477   2.802   3.019  0.5872  0.2703  1.5836
  611MOL0     H84298   4.224   2.150   2.157 -0.4830 -0.9568 -0.3051
  611MOL0     H84299   4.103   2.106   1.942 -0.8558 -0.3459 -0.6859
  611MOL0     H84300   3.714   2.356   1.617 -0.9138  3.3062 -3.0979
  611MOL0     H84301   3.628   2.260   1.392 -0.9825  1.2937  3.8192
  611MOL0     H84302   1.946   1.249   1.103  1.5160  0.3526 -1.6044
  611MOL0     H84303   1.745   1.335   1.171  1.1954 -3.7994 -0.5798
  611MOL0     H84304   1.468   1.530   1.386 -0.3793 -1.7649 -1.0193
  611MOL0     H84305   1.227   1.562   1.384 -0.1919  4.7888  3.4281
  611MOL0     H84306   1.018   1.527   1.302  0.5305 -0.0914  0.4056
  611MOL0     H84307   0.901   1.647   1.267  0.6861  3.7155 -0.5159
  611MOL0     H84308   0.893   1.482   1.086 -0.4360 -1.1255  3.5735
  611MOL0     H84309   1.068   1.475   1.064 -0.2619 -0.5679 -2.1197
  611MOL0     H84310   0.885   1.708   0.989  0.2237 -0.0971  1.7588
  611MOL0     H84311   1.058   1.713   0.970 -1.2811  0.3061 -0.7557
  611MOL0     H84312   1.052   1.506   0.829 -0.3175 -0.3151 -1.0838
  611MOL0     H84313   0.993   1.659   0.758 -1.7111 -0.1980 -0.5094
  611MOL0     H84314   0.621   1.455   0.762  1.1553 -0.7466 -4.6709
  611MOL0     H84315   1.256   1.848   1.085  0.5615 -0.9261 -1.2476
  611MOL0     H84316   1.533   1.794   0.959 -4.1412  0.1865 -0.9041
  611MOL0     H84317   1.461   1.945   1.005  1.4484  0.7055 -1.8254
  611MOL0     H84318   1.606   1.914   1.086  1.1268 -0.4345  0.0994
  612MOL0     O84319   1.119   1.657   7.963  0.3022 -0.4736 -0.0299
  612MOL0     C84320   1.042   1.754   7.961  0.0021 -0.0498 -0.6287
  612MOL0     O84321   1.087   1.887   7.972  0.2105  0.1715 -0.1067
  612MOL0     C84322   1.214   1.901   8.020 -0.0421 -0.6600 -0.2394
  612MOL0     C84323   1.313   1.952   7.935  0.3944 -1.0938 -0.3120
  612MOL0     C84324   1.442   1.973   7.983  1.2547 -0.2229 -0.0493
  612MOL0     C84325   1.476   1.927   8.109 -0.4021  0.5239  0.4604
  612MOL0     O84326   1.607   1.943   8.147 -0.0126  0.7874  0.3089
  612MOL0     C84327   1.662   1.849   8.245 -0.1951 -0.4355  0.6014
  612MOL0     C84328   1.817   1.862   8.245 -1.1811 -0.4500 -0.3597
  612MOL0     C84329   1.870   1.812   8.116 -0.2880  0.9245 -0.7393
  612MOL0     C84330   1.861   1.659   8.105  0.3343 -0.4319  0.2414
  612MOL0     C84331   1.930   1.589   7.987  0.4850  0.1317  0.2572
  612MOL0     C84332   1.899   1.442   7.988 -0.2615  0.7708 -0.0027
  612MOL0     C84333   1.991   1.368   8.091  0.1519 -0.3247 -0.3166
  612MOL0     C84334   1.949   1.223   8.105 -0.0618 -0.4172  0.4909
  612MOL0     N84335   1.957   1.149   7.977  0.3453 -0.2711  0.1129
  612MOL0     C84336   1.852   1.111   7.902  0.5369 -0.9067  0.5217
  612MOL0     C84337   1.896   1.058   7.791  0.3050  1.0339 -0.4262
  612MOL0     C84338   1.807   0.972   7.706  0.3305  0.7320 -1.0155
  612MOL0     C84339   1.703   1.062   7.643  0.2248 -0.0006  0.5460
  612MOL0     C84340   1.745   1.191   7.574 -0.0420 -0.2593  0.6991
  612MOL0     C84341   1.858   1.161   7.466  0.1763  0.7502  0.2505
  612MOL0     O84342   1.904   1.281   7.389  0.6627  0.5297 -0.3141
  612MOL0     C84343   1.987   1.381   7.444 -0.4680  0.5291  0.6084
  612MOL0     C84344   2.046   1.369   7.565  0.3209 -0.3322  0.4812
  612MOL0     C84345   2.123   1.462   7.630 -0.0644 -0.0372 -0.9004
  612MOL0     C84346   2.182   1.430   7.770  0.3890 -0.2486  0.9015
  612MOL0     C84347   2.144   1.587   7.565  0.5202  0.3081  0.3110
  612MOL0     C84348   2.227   1.703   7.606 -0.4450  0.1212  0.5664
  612MOL0     O84349   2.277   1.705   7.725  0.3659  0.4274 -0.2481
  612MOL0     C84350   2.369   1.795   7.774 -0.3115 -0.8520  0.2890
  612MOL0     C84351   2.345   1.867   7.890  0.0864 -0.6690 -0.2479
  612MOL0     C84352   2.440   1.967   7.935 -0.7478 -0.3760 -0.4229
  612MOL0     C84353   2.554   1.997   7.860 -0.2473  0.2848  0.1707
  612MOL0     O84354   2.645   2.094   7.900  0.4034  0.4948  0.2325
  612MOL0     C84355   2.758   2.127   7.819  0.1217 -0.7615 -0.6411
  612MOL0     C84356   2.886   2.039   7.831  0.1772 -0.5880  0.4206
  612MOL0     C84357   3.002   2.072   7.731  1.0489  1.1262  0.4598
  612MOL0     C84358   3.075   2.187   7.788  0.4023  0.4776  0.8690
  612MOL0     C84359   3.191   2.224   7.694  0.8440  0.0794  0.6143
  612MOL0     C84360   3.318   2.140   7.729 -1.0013 -0.1310  0.1639
  612MOL0     C84361   3.421   2.139   7.610 -0.2978  0.1047 -0.2229
  612MOL0     C84362   3.523   2.260   7.613 -0.5315 -0.6627  0.0337
  612MOL0    Cl84363   3.681   2.204   7.538  0.3217  0.1345 -0.1089
  612MOL0     C84364   2.582   1.908   7.750  0.2211 -0.4698 -0.1340
  612MOL0     C84365   2.493   1.817   7.714 -0.1268  0.2711  0.6315
  612MOL0     O84366   2.258   1.779   7.519 -0.1536  0.0813 -0.2249
  612MOL0     C84367   2.089   1.595   7.431 -0.0757 -0.1752  0.0115
  612MOL0     C84368   2.013   1.490   7.374  0.2614  0.5812  0.7987
  612MOL0     N84369   2.031   1.083   7.789 -0.4586 -0.9629 -0.0593
  612MOL0     N84370   2.063   1.134   7.902  0.4905  0.4867  0.6897
  612MOL0     C84371   1.382   1.873   8.191 -0.5043 -0.6545  0.3488
  612MOL0     C84372   1.251   1.864   8.151  0.5907 -1.0610  0.2715
  612MOL0     C84373   0.911   1.733   7.901  0.2849  1.0121  0.7208
  612MOL0     C84374   0.861   1.823   7.810  0.4613  0.3664  0.8465
  612MOL0     C84375   0.752   1.805   7.729  0.1316 -0.8326  1.2607
  612MOL0     C84376   0.696   1.684   7.732  0.4854  0.4323  0.2482
  612MOL0     O84377   0.590   1.664   7.637 -0.8124  0.1019 -0.3567
  612MOL0     C84378   0.560   1.522   7.600  0.4097  0.1581 -0.1207
  612MOL0     C84379   0.433   1.523   7.509 -1.1183  0.8599 -0.2378
  612MOL0     C84380   0.323   1.622   7.553 -0.2080  1.1241  0.5571
  612MOL0     C84381   0.213   1.648   7.456 -0.4524  0.1682 -0.1140
  612MOL0     C84382   0.106   1.736   7.508 -0.0754  0.4422  0.2583
  612MOL0     C84383   0.016   1.793   7.561 -0.2357  0.1475  0.4697
  612MOL0     C84384   0.747   1.586   7.816  0.2383 -0.4549  0.6447
  612MOL0     C84385   0.851   1.613   7.905 -0.6684 -1.0758  0.9774
  612MOL0     C84386   0.877   1.517   8.015  1.2328  0.2400  0.4328
  612MOL0     H84387   1.281   1.962   7.832 -0.7232  0.6700  0.1485
  612MOL0     H84388   1.515   2.024   7.921  0.5322  2.3382  1.0615
  612MOL0     H84389   1.628   1.746   8.229  1.2033 -0.9751  0.9035
  612MOL0     H84390   1.631   1.880   8.345  1.1631 -1.1705  1.2824
  612MOL0     H84391   1.841   1.967   8.267  1.6779 -1.4551  1.9083
  612MOL0     H84392   1.855   1.810   8.333 -3.4551  0.4154  1.2479
  612MOL0     H84393   1.829   1.864   8.029  0.5492  1.8954 -0.5731
  612MOL0     H84394   1.977   1.830   8.129 -0.4956  0.4840  2.3586
  612MOL0     H84395   1.896   1.620   8.201 -1.5960 -1.9419  0.3983
  612MOL0     H84396   1.753   1.641   8.108  0.3095 -0.1469  1.1367
  612MOL0     H84397   2.039   1.599   7.992  0.6139 -1.4495  1.4792
  612MOL0     H84398   1.900   1.634   7.892  1.2591 -0.0282 -0.0656
  612MOL0     H84399   1.793   1.424   8.009  0.3500 -3.4601  0.3804
  612MOL0     H84400   1.908   1.401   7.887 -1.1655 -1.1012  0.6236
  612MOL0     H84401   1.983   1.410   8.192 -1.7508  1.6803 -1.2123
  612MOL0     H84402   2.096   1.376   8.061  0.2245 -1.6145 -0.4484
  612MOL0     H84403   2.017   1.170   8.172  0.3459 -1.4923 -0.7043
  612MOL0     H84404   1.847   1.200   8.136 -0.5553 -1.5837 -1.7408
  612MOL0     H84405   1.747   1.111   7.928  1.0637  0.4969  2.9125
  612MOL0     H84406   1.761   0.894   7.768 -1.1156  2.4992  0.2405
  612MOL0     H84407   1.867   0.909   7.640  1.7165 -0.8666  1.5977
  612MOL0     H84408   1.636   1.000   7.583  2.4244 -1.2716 -0.7239
  612MOL0     H84409   1.648   1.096   7.732  1.3298 -0.5040  1.4420
  612MOL0     H84410   1.663   1.243   7.524 -0.1889  1.0511  2.2202
  612MOL0     H84411   1.780   1.262   7.650  3.1502 -1.6581  0.6832
  612MOL0     H84412   1.954   1.126   7.506  0.5754  3.1684  1.5760
  612MOL0     H84413   1.803   1.100   7.394 -1.5909 -0.7564  2.7151
  612MOL0     H84414   2.032   1.274   7.617  0.2248 -0.4611  0.2176
  612MOL0     H84415   2.180   1.321   7.778  0.5142 -0.4836 -1.6754
  612MOL0     H84416   2.127   1.474   7.854  3.2161 -0.1075  2.7952
  612MOL0     H84417   2.283   1.469   7.779  0.3168  0.2449 -0.3064
  612MOL0     H84418   2.252   1.852   7.944  1.0195  0.3760  1.7452
  612MOL0     H84419   2.427   2.029   8.023 -1.5337  0.8080 -1.3268
  612MOL0     H84420   2.724   2.148   7.718 -0.7295  1.5006  0.0536
  612MOL0     H84421   2.792   2.222   7.862  0.7126  0.4785 -3.5937
  612MOL0     H84422   2.918   2.035   7.936 -2.3843 -1.2053  1.2658
  612MOL0     H84423   2.854   1.936   7.812  1.6203 -0.8822 -0.6218
  612MOL0     H84424   2.960   2.096   7.633  0.4276 -0.2180  0.3689
  612MOL0     H84425   3.075   1.991   7.728  0.4820  0.3713  3.3954
  612MOL0     H84426   3.112   2.174   7.890  1.2014  0.6938  0.6128
  612MOL0     H84427   3.006   2.272   7.795 -1.1882 -0.7112  0.3912
  612MOL0     H84428   3.173   2.213   7.587  2.1341 -0.6809  0.4523
  612MOL0     H84429   3.205   2.332   7.703 -0.1920  0.1713  1.2315
  612MOL0     H84430   3.291   2.035   7.744  3.2006 -1.4969 -0.5738
  612MOL0     H84431   3.359   2.181   7.821  1.2621  1.3021 -1.3795
  612MOL0     H84432   3.367   2.132   7.515  1.8454 -0.4193 -1.4561
  612MOL0     H84433   3.489   2.054   7.623  1.1018  1.3426  0.8702
  612MOL0     H84434   3.532   2.310   7.710 -4.1299 -2.4728  1.4837
  612MOL0     H84435   3.471   2.334   7.551  1.0222  1.7404  1.4166
  612MOL0     H84436   2.679   1.913   7.701 -0.0714 -0.0996 -0.6892
  612MOL0     H84437   2.523   1.753   7.632  0.5047 -1.1045  1.8932
  612MOL0     H84438   2.116   1.669   7.357 -0.0620 -1.1244 -0.9604
  612MOL0     H84439   1.978   1.507   7.272 -0.9929  4.9060  1.7570
  612MOL0     H84440   1.411   1.855   8.294 -0.4889  1.6729  0.8080
  612MOL0     H84441   1.181   1.832   8.228  0.9738 -2.2790  0.1453
  612MOL0     H84442   0.918   1.915   7.801  0.8357  0.1074  0.5303
  612MOL0     H84443   0.721   1.877   7.655  2.7808 -0.6535  0.2322
  612MOL0     H84444   0.642   1.465   7.554 -0.4099  1.6354 -3.7405
  612MOL0     H84445   0.526   1.472   7.692  0.4425  0.2250 -0.0724
  612MOL0     H84446   0.401   1.420   7.489 -2.7093  0.8601  1.9411
  612MOL0     H84447   0.470   1.563   7.414  4.0755  2.5818  2.1763
  612MOL0     H84448   0.274   1.591   7.647 -2.7568  0.3766 -0.9149
  612MOL0     H84449   0.371   1.718   7.574 -0.1403  1.5226 -1.2848
  612MOL0     H84450   0.161   1.553   7.438  2.7700 -1.4681 -1.4626
  612MOL0     H84451   0.258   1.672   7.359 -0.6040 -1.4251 -0.6080
  612MOL0     H84452  -0.047   1.862   7.614 -0.6388  0.4986 -0.4486
  612MOL0     H84453   0.709   1.484   7.823 -1.9770  0.0701 -1.9515
  612MOL0     H84454   0.884   1.577   8.106  0.6327 -2.4930  2.4195
  612MOL0     H84455   0.795   1.446   8.025  0.4708  0.6418 -2.1124
  612MOL0     H84456   0.969   1.462   7.990  1.1256 -0.9150  2.3782
  613MOL0     O84457  10.748   2.718   3.779 -0.3441 -0.2266 -0.6622
  613MOL0     C84458  10.739   2.773   3.668 -0.1769 -0.7466  0.1862
  613MOL0     O84459  10.712   2.701   3.556 -0.5403  0.1989 -0.1488
  613MOL0     C84460  10.709   2.562   3.545 -0.4072  0.0620 -0.1808
  613MOL0     C84461  10.633   2.491   3.639  0.2482  0.4836 -0.1332
  613MOL0     C84462  10.608   2.355   3.608  0.7502  0.2412 -0.8125
  613MOL0     C84463  10.649   2.293   3.488  0.0170  0.0775  0.8679
  613MOL0     O84464  10.607   2.169   3.445  0.3132  0.3493  0.5584
  613MOL0     C84465  10.514   2.111   3.536 -0.8965  0.2943  0.7525
  613MOL0     C84466  10.450   1.989   3.458  0.1090  0.6517  0.5605
  613MOL0     C84467  10.335   2.031   3.370 -0.4777  0.1431 -0.0423
  613MOL0     C84468  10.293   1.914   3.288 -0.7531 -0.3619  0.2555
  613MOL0     C84469  10.389   1.885   3.166 -0.2196 -0.3469  0.1906
  613MOL0     C84470  10.319   1.810   3.055 -0.1266 -0.0900 -0.0935
  613MOL0     C84471  10.306   1.666   3.100  0.1725 -0.7942 -0.4375
  613MOL0     C84472  10.213   1.589   3.010 -0.3967 -0.2532  0.2186
  613MOL0     N84473  10.198   1.444   3.058  0.6704 -0.0586 -0.8162
  613MOL0     C84474  10.202   1.334   2.973 -0.9830 -0.3636 -0.4862
  613MOL0     C84475  10.173   1.230   3.050 -0.0980 -0.1806  0.3245
  613MOL0     C84476  10.192   1.098   2.998 -0.4472  0.8376  0.5390
  613MOL0     C84477  10.342   1.061   2.999 -0.0255  0.4460 -0.5644
  613MOL0     C84478  10.365   0.924   2.907  0.9422 -0.1443  0.7152
  613MOL0     C84479  10.300   0.800   2.974  0.7160  0.5241 -0.9144
  613MOL0     O84480  10.363   0.676   2.925  0.3829  0.1438  0.8361
  613MOL0     C84481  10.290   0.566   2.892 -0.0777  0.2233  0.0150
  613MOL0     C84482  10.161   0.530   2.948  0.9678  0.7419 -0.2756
  613MOL0     C84483  10.078   0.428   2.895  0.0970 -0.7923  0.3619
  613MOL0     C84484   9.941   0.412   2.948 -0.2567 -0.5123 -0.1413
  613MOL0     C84485  10.133   0.347   2.793 -0.6275  0.7280 -0.6116
  613MOL0     C84486  10.065   0.234   2.733 -0.4504 -0.0371 -0.6639
  613MOL0     O84487  10.082   0.203   2.599  0.3387  0.3042  0.4332
  613MOL0     C84488  10.008   0.092   2.561 -0.6350  0.2849  0.4370
  613MOL0     C84489  10.064  -0.034   2.581  0.2462  0.5817 -0.4880
  613MOL0     C84490   9.993  -0.150   2.553 -0.0702  0.3431 -0.1812
  613MOL0     C84491   9.867  -0.153   2.502 -0.0041  0.7955  0.2812
  613MOL0     O84492   9.797  -0.271   2.473 -0.2753  0.3640 -0.3202
  613MOL0     C84493   9.871  -0.394   2.451  0.2951 -0.3130  0.1735
  613MOL0     C84494   9.943  -0.397   2.318 -0.0553 -0.6520 -0.2779
  613MOL0     C84495   9.847  -0.387   2.202  0.5243  0.1532  0.7897
  613MOL0     C84496   9.923  -0.401   2.065  0.2865  0.2257 -0.9100
  613MOL0     C84497   9.832  -0.375   1.948 -1.0073  0.6642 -0.6620
  613MOL0     C84498   9.787  -0.229   1.935 -0.7322  0.3591  0.3116
  613MOL0     C84499   9.712  -0.221   1.794 -0.2573 -0.5466 -0.1579
  613MOL0     C84500   9.596  -0.116   1.792 -0.2692  0.1193 -0.3741
  613MOL0    Cl84501   9.519  -0.133   1.634  0.1892  0.5757  0.4790
  613MOL0     C84502   9.808  -0.026   2.476 -0.5194  1.0703  1.2472
  613MOL0     C84503   9.874   0.087   2.505 -0.6944 -0.1770 -0.5419
  613MOL0     O84504   9.995   0.167   2.806  0.7946 -0.2406  0.1270
  613MOL0     C84505  10.267   0.372   2.756 -0.4973 -0.0375 -0.1029
  613MOL0     C84506  10.340   0.478   2.806 -0.3907  0.4385  1.2075
  613MOL0     N84507  10.151   1.281   3.183 -0.6493 -0.0293  0.6019
  613MOL0     N84508  10.152   1.414   3.185 -0.4327  0.0163  1.1070
  613MOL0     C84509  10.731   2.358   3.405  0.9992 -0.3290 -0.0801
  613MOL0     C84510  10.749   2.497   3.427 -0.2962  0.0325  0.8117
  613MOL0     C84511  10.735   2.923   3.661 -0.3417  0.1483  0.0497
  613MOL0     C84512  10.718   2.979   3.533 -0.3549 -0.5755 -0.7816
  613MOL0     C84513  10.723   3.116   3.510 -0.3770  0.0028  0.1120
  613MOL0     C84514  10.751   3.203   3.607  0.5883 -0.6295 -0.2587
  613MOL0     O84515  10.746   3.338   3.574  0.0778  0.2064  0.0226
  613MOL0     C84516  10.758   3.441   3.678  1.0492  0.8595  0.8600
  613MOL0     C84517  10.783   3.578   3.609 -0.0111  0.7008 -0.7433
  613MOL0     C84518  10.938   3.581   3.593  0.3725 -0.1092 -0.4192
  613MOL0     C84519  10.973   3.697   3.504 -0.3425 -0.6383 -1.0519
  613MOL0     C84520  10.994   3.824   3.583  0.1626 -0.1399 -0.4810
  613MOL0     C84521  10.986   3.933   3.632 -0.8477  0.5361  0.4182
  613MOL0     C84522  10.758   3.150   3.740  0.3104 -0.9551  0.7627
  613MOL0     C84523  10.756   3.013   3.771 -0.4634  0.4784 -0.7440
  613MOL0     C84524  10.771   2.973   3.917 -0.0916 -0.1966  0.0379
  613MOL0     H84525  10.587   2.531   3.729 -1.8974  0.2359 -1.0588
  613MOL0     H84526  10.541   2.315   3.684 -1.5531 -0.8503 -3.2601
  613MOL0     H84527  10.442   2.183   3.577 -0.2052 -0.1040  2.8244
  613MOL0     H84528  10.564   2.061   3.620 -1.7338  0.4657  1.3682
  613MOL0     H84529  10.525   1.945   3.391  1.8215 -0.8220  3.2484
  613MOL0     H84530  10.420   1.914   3.532 -0.9670  0.5766  0.0586
  613MOL0     H84531  10.252   2.072   3.428  0.5815 -1.7179  3.0113
  613MOL0     H84532  10.376   2.109   3.306  2.6716 -1.4281 -0.1239
  613MOL0     H84533  10.268   1.825   3.347  1.1960 -0.1762  1.4685
  613MOL0     H84534  10.193   1.944   3.256 -1.1081  0.7299  2.2398
  613MOL0     H84535  10.478   1.825   3.188 -1.5917 -2.3806  0.5110
  613MOL0     H84536  10.414   1.978   3.114 -1.3668 -0.5127 -0.6998
  613MOL0     H84537  10.230   1.868   3.030  0.7395  0.5188 -1.9074
  613MOL0     H84538  10.375   1.818   2.962  0.5358  1.1433  0.3799
  613MOL0     H84539  10.292   1.657   3.208  1.0734 -0.3584 -0.2785
  613MOL0     H84540  10.402   1.616   3.081  0.9230  0.6556 -0.6209
  613MOL0     H84541  10.114   1.634   3.013  0.4189  1.5665  0.7773
  613MOL0     H84542  10.245   1.617   2.909  0.2098  2.1164  1.0186
  613MOL0     H84543  10.238   1.326   2.871  0.4478 -2.6178  0.1285
  613MOL0     H84544  10.155   1.100   2.895  1.9424  0.1032 -0.4114
  613MOL0     H84545  10.133   1.023   3.052  0.7186 -1.6292 -1.4102
  613MOL0     H84546  10.394   1.143   2.949  0.5061  0.6624  0.3293
  613MOL0     H84547  10.371   1.051   3.104 -3.0075 -0.5237  0.2544
  613MOL0     H84548  10.318   0.930   2.808  1.5260  0.7239  0.4758
  613MOL0     H84549  10.473   0.912   2.893  0.6903 -2.4670  0.4060
  613MOL0     H84550  10.315   0.810   3.082  2.3318 -0.7359 -0.9851
  613MOL0     H84551  10.191   0.804   2.959  0.6456  3.5684 -0.2096
  613MOL0     H84552  10.122   0.598   3.022 -1.2210 -0.3242 -0.3790
  613MOL0     H84553   9.907   0.504   2.997  0.9973 -0.3588  0.4528
  613MOL0     H84554   9.934   0.338   3.028  0.3256 -1.2821 -0.7858
  613MOL0     H84555   9.877   0.398   2.860  0.2593  2.1878 -1.0535
  613MOL0     H84556  10.158  -0.055   2.631 -0.6560 -1.3577  0.4777
  613MOL0     H84557  10.040  -0.243   2.582 -2.7390 -0.9307  0.3754
  613MOL0     H84558   9.943  -0.414   2.531  1.2313  1.5470 -0.1539
  613MOL0     H84559   9.797  -0.474   2.459  0.7317 -0.8995 -1.3170
  613MOL0     H84560  10.022  -0.322   2.312  1.0556 -1.6077  1.4873
  613MOL0     H84561   9.998  -0.492   2.318 -2.9743 -2.4675 -0.7885
  613MOL0     H84562   9.800  -0.288   2.201  1.6358  0.7226 -1.1914
  613MOL0     H84563   9.770  -0.464   2.209  0.3744  0.4819  3.7354
  613MOL0     H84564   9.954  -0.506   2.070 -1.4124 -0.3152 -1.3757
  613MOL0     H84565  10.005  -0.328   2.065 -0.6761  1.4737  2.0889
  613MOL0     H84566   9.878  -0.404   1.853 -1.1685  1.7468 -1.0847
  613MOL0     H84567   9.734  -0.425   1.950 -2.2511  2.8581 -2.0139
  613MOL0     H84568   9.880  -0.174   1.918  0.9568 -2.6338 -0.8638
  613MOL0     H84569   9.729  -0.189   2.019 -0.1763 -0.5601  1.1552
  613MOL0     H84570   9.665  -0.316   1.767 -1.6100 -0.1666  0.7780
  613MOL0     H84571   9.779  -0.196   1.711 -2.9190 -1.2557 -2.6926
  613MOL0     H84572   9.631  -0.013   1.797  3.0515 -0.9555  1.4434
  613MOL0     H84573   9.528  -0.128   1.877  2.1495 -0.6856  1.5859
  613MOL0     H84574   9.706  -0.021   2.437  0.3392  0.1370 -1.3642
  613MOL0     H84575   9.828   0.184   2.489 -2.4261 -0.9326 -0.4142
  613MOL0     H84576  10.305   0.322   2.667 -1.2392  0.2744 -0.6009
  613MOL0     H84577  10.427   0.498   2.745 -0.5402  1.0240  1.1866
  613MOL0     H84578  10.766   2.308   3.315  0.9678 -1.9503  0.7771
  613MOL0     H84579  10.797   2.547   3.344 -3.0300 -3.9753 -3.7339
  613MOL0     H84580  10.728   2.924   3.439  2.8617  1.7651 -1.9917
  613MOL0     H84581  10.699   3.156   3.412 -0.5032 -1.2315 -0.3729
  613MOL0     H84582  10.657   3.453   3.720  0.7302  2.4083 -0.2701
  613MOL0     H84583  10.832   3.402   3.748 -0.1173 -0.2224  1.5441
  613MOL0     H84584  10.746   3.659   3.672 -1.5610 -1.0965  0.7630
  613MOL0     H84585  10.728   3.579   3.514 -1.4587  0.9755  0.0663
  613MOL0     H84586  10.986   3.571   3.691 -0.1940 -0.1050 -0.1352
  613MOL0     H84587  10.969   3.485   3.550 -0.1607  0.0971 -1.2936
  613MOL0     H84588  10.909   3.711   3.417  2.3306 -0.8876 -3.2155
  613MOL0     H84589  11.070   3.675   3.458 -0.9894 -0.0186 -2.7714
  613MOL0     H84590  10.981   4.034   3.668 -1.7532  0.2512  1.1212
  613MOL0     H84591  10.784   3.213   3.825 -3.5924 -1.9374  2.9548
  613MOL0     H84592  10.689   2.904   3.938 -2.0900  2.2158  0.5961
  613MOL0     H84593  10.872   2.934   3.934  0.6815  2.0316  1.0038
  613MOL0     H84594  10.764   3.060   3.983  2.6903  2.3567 -2.6791
  614MOL0     O84595   2.858   7.504   4.174 -0.0159 -0.1023 -0.6800
  614MOL0     C84596   2.778   7.416   4.182 -0.0244 -0.1930  0.9253
  614MOL0     O84597   2.813   7.287   4.159 -0.7824 -0.1856  0.3618
  614MOL0     C84598   2.943   7.238   4.168 -0.0082  0.3130  0.6834
  614MOL0     C84599   3.009   7.243   4.291  0.7746  0.0779 -1.0281
  614MOL0     C84600   3.146   7.195   4.310 -0.6111  0.2786  0.1727
  614MOL0     C84601   3.213   7.144   4.197  0.0139 -0.1244  0.0026
  614MOL0     O84602   3.342   7.097   4.187 -0.0230  0.5598  0.0936
  614MOL0     C84603   3.443   7.130   4.279 -0.3957 -0.0374 -0.0494
  614MOL0     C84604   3.575   7.065   4.233 -0.0652  0.4988 -0.3713
  614MOL0     C84605   3.602   7.064   4.079  0.5893 -0.0312 -0.1123
  614MOL0     C84606   3.744   7.005   4.051  0.4566 -0.1636 -0.7195
  614MOL0     C84607   3.775   6.990   3.901  0.2220  0.1053 -0.8231
  614MOL0     C84608   3.915   6.938   3.892  0.0933  0.5692 -0.3516
  614MOL0     C84609   4.025   7.046   3.897 -0.8022  0.5306  0.2653
  614MOL0     C84610   4.151   6.993   3.830  0.4810 -0.3327 -0.7437
  614MOL0     N84611   4.254   7.085   3.849 -0.8454 -0.3937 -0.1243
  614MOL0     C84612   4.287   7.188   3.756  0.1156  0.0985 -0.1226
  614MOL0     C84613   4.379   7.259   3.812 -0.3220 -0.4825 -0.3473
  614MOL0     C84614   4.450   7.379   3.758 -1.1985  0.0051  0.5702
  614MOL0     C84615   4.538   7.325   3.643 -0.0963 -0.0906 -0.3790
  614MOL0     C84616   4.620   7.439   3.579  0.5702 -0.1348 -0.6812
  614MOL0     C84617   4.753   7.457   3.643  0.0495  0.4348 -1.1167
  614MOL0     O84618   4.819   7.564   3.584  0.0778  0.7489  0.9098
  614MOL0     C84619   4.951   7.541   3.573  0.0499 -0.0396 -0.0864
  614MOL0     C84620   5.004   7.608   3.465  0.1238 -0.2310 -0.5399
  614MOL0     C84621   5.136   7.621   3.442  0.8196 -0.4948 -0.2783
  614MOL0     C84622   5.183   7.710   3.335  0.2764 -0.5517 -0.2074
  614MOL0     C84623   5.224   7.556   3.532  0.5388 -0.5227 -0.5835
  614MOL0     C84624   5.374   7.553   3.512 -0.5276  0.4501  0.1960
  614MOL0     O84625   5.426   7.601   3.395  0.5770  0.8332 -0.1077
  614MOL0     C84626   5.564   7.606   3.361 -0.2211 -0.7338 -0.2410
  614MOL0     C84627   5.678   7.589   3.438 -1.2236 -0.0281  0.0423
  614MOL0     C84628   5.809   7.569   3.378  0.1258  0.5813 -0.6027
  614MOL0     C84629   5.823   7.568   3.246 -0.4741 -0.5081  0.2410
  614MOL0     O84630   5.947   7.537   3.189  0.1608  0.7731  0.0188
  614MOL0     C84631   5.984   7.563   3.058  0.4797  0.0687 -0.6133
  614MOL0     C84632   6.032   7.439   2.984 -0.6135  0.2150  0.1745
  614MOL0     C84633   6.118   7.345   3.063 -0.6234  0.4837  1.1688
  614MOL0     C84634   6.145   7.223   2.974 -0.3907 -0.3131 -0.1216
  614MOL0     C84635   6.248   7.124   3.035  0.5638 -0.3968  0.2373
  614MOL0     C84636   6.243   6.984   2.963  0.0179 -0.2191 -0.0225
  614MOL0     C84637   6.123   6.909   3.033  0.1893 -0.3503  0.0849
  614MOL0     C84638   6.096   6.776   2.967 -0.0978 -0.4533  0.6856
  614MOL0    Cl84639   5.970   6.683   3.045 -0.2524  0.5291 -0.2484
  614MOL0     C84640   5.711   7.606   3.168  0.0418 -0.0763  0.8798
  614MOL0     C84641   5.591   7.631   3.222  0.0178 -0.7758  0.4396
  614MOL0     O84642   5.448   7.526   3.608  1.1813 -0.0386  0.5741
  614MOL0     C84643   5.171   7.476   3.638 -0.5203  0.0344  0.6879
  614MOL0     C84644   5.039   7.476   3.661 -0.6749  1.1909 -0.6421
  614MOL0     N84645   4.401   7.207   3.936  0.6114 -1.2457 -0.1971
  614MOL0     N84646   4.329   7.102   3.965  0.2609 -0.3379  0.5833
  614MOL0     C84647   3.148   7.143   4.078  0.1508  0.2475 -0.4093
  614MOL0     C84648   3.017   7.191   4.061  0.5131  0.7868  0.0076
  614MOL0     C84649   2.636   7.454   4.203 -0.7403 -0.0798 -0.4003
  614MOL0     C84650   2.605   7.595   4.198 -0.1796 -0.8419 -0.0817
  614MOL0     C84651   2.471   7.640   4.199  0.2379 -0.5537  0.4697
  614MOL0     C84652   2.359   7.552   4.216 -1.1954  0.0538 -0.0373
  614MOL0     O84653   2.225   7.595   4.210  0.8491  0.6774  0.9678
  614MOL0     C84654   2.174   7.585   4.077 -0.3131  0.3727  0.0290
  614MOL0     C84655   2.126   7.444   4.053  0.0377  0.5120  0.4558
  614MOL0     C84656   2.028   7.429   3.940  0.4469 -0.4812  0.0026
  614MOL0     C84657   2.105   7.482   3.810  0.4834 -0.5185  0.8571
  614MOL0     C84658   2.046   7.418   3.694  0.5143  0.0693 -0.3293
  614MOL0     C84659   1.984   7.366   3.606  0.3103 -0.5329 -0.3177
  614MOL0     C84660   2.400   7.419   4.222 -0.0965 -0.9686  0.1481
  614MOL0     C84661   2.531   7.365   4.232  0.7465  0.1686  0.4027
  614MOL0     C84662   2.556   7.217   4.270  0.2751 -1.2133  0.4726
  614MOL0     H84663   2.961   7.291   4.376  0.2004 -0.4654 -1.0353
  614MOL0     H84664   3.197   7.212   4.404 -0.0271  2.8249 -0.5413
  614MOL0     H84665   3.412   7.084   4.373  0.5371 -0.1988  0.1880
  614MOL0     H84666   3.472   7.235   4.280  2.1986 -0.2267 -6.4487
  614MOL0     H84667   3.662   7.093   4.292  0.1505  2.7678 -1.6421
  614MOL0     H84668   3.558   6.960   4.260 -1.6297  0.6392 -0.7200
  614MOL0     H84669   3.526   7.005   4.026 -0.7347  0.3195  1.3054
  614MOL0     H84670   3.601   7.165   4.037  0.1494 -0.4325 -1.0962
  614MOL0     H84671   3.820   7.059   4.107  1.1205 -0.1262 -1.6334
  614MOL0     H84672   3.759   6.904   4.091 -1.5532 -1.3892 -2.8211
  614MOL0     H84673   3.761   7.084   3.846 -0.6144  1.5718  1.7099
  614MOL0     H84674   3.706   6.915   3.862 -1.9354  2.0237 -0.9575
  614MOL0     H84675   3.925   6.860   3.968 -2.7177  0.3260 -0.1580
  614MOL0     H84676   3.920   6.890   3.794  3.0116 -1.0789  0.4706
  614MOL0     H84677   4.041   7.084   3.998  1.3339  0.1153  0.1283
  614MOL0     H84678   3.989   7.130   3.837 -1.4694  2.5182  3.2627
  614MOL0     H84679   4.173   6.891   3.863  0.5814  0.6213  2.4526
  614MOL0     H84680   4.134   6.975   3.723  2.7463 -4.3129 -0.6433
  614MOL0     H84681   4.233   7.209   3.664 -2.4630 -1.0599  1.0449
  614MOL0     H84682   4.512   7.419   3.839  0.4891  0.5899 -0.9532
  614MOL0     H84683   4.365   7.435   3.717 -1.4638 -0.6963  0.1359
  614MOL0     H84684   4.605   7.250   3.686 -1.2839 -0.8981  0.0914
  614MOL0     H84685   4.485   7.277   3.561  3.8109 -0.8731 -2.7276
  614MOL0     H84686   4.624   7.423   3.471 -2.1945  1.5965 -1.1506
  614MOL0     H84687   4.558   7.530   3.580 -0.4837 -0.8349  0.2658
  614MOL0     H84688   4.760   7.482   3.749  0.6957 -0.1458 -1.0150
  614MOL0     H84689   4.798   7.359   3.627  2.2796  1.2368 -0.1075
  614MOL0     H84690   4.934   7.655   3.397 -1.5612  1.0162  1.9051
  614MOL0     H84691   5.106   7.772   3.289 -1.0005 -1.8132  0.1408
  614MOL0     H84692   5.228   7.654   3.252 -0.9081 -0.0814 -1.1988
  614MOL0     H84693   5.259   7.777   3.375 -2.0855  0.1506  3.5499
  614MOL0     H84694   5.666   7.568   3.544 -4.1863 -2.0402 -0.5717
  614MOL0     H84695   5.891   7.538   3.442  0.3640  0.1680 -1.1003
  614MOL0     H84696   5.901   7.604   3.001 -0.7872 -2.7306 -0.9167
  614MOL0     H84697   6.055   7.644   3.077  1.1920 -0.5722 -0.4537
  614MOL0     H84698   5.942   7.386   2.952 -1.4065 -0.8756  3.7482
  614MOL0     H84699   6.096   7.485   2.908  0.5982 -0.0528  0.9990
  614MOL0     H84700   6.075   7.311   3.158 -2.5657  1.0573  0.5335
  614MOL0     H84701   6.216   7.388   3.087 -0.5788  2.1379 -1.5384
  614MOL0     H84702   6.181   7.261   2.879 -1.1947  0.7051 -0.0431
  614MOL0     H84703   6.054   7.166   2.950  0.7929 -1.5882 -1.7593
  614MOL0     H84704   6.343   7.176   3.020 -0.6817  2.3240  1.0350
  614MOL0     H84705   6.239   7.111   3.143  0.4883 -3.4139 -0.0648
  614MOL0     H84706   6.330   6.929   3.000  0.5384 -0.7997 -2.0033
  614MOL0     H84707   6.253   6.987   2.854  1.5210  0.7270  0.1093
  614MOL0     H84708   6.031   6.968   3.027  1.2681  1.2675 -1.8730
  614MOL0     H84709   6.141   6.890   3.139  2.3511 -3.0441 -0.6369
  614MOL0     H84710   6.183   6.711   2.977 -1.2308 -2.2672 -0.4840
  614MOL0     H84711   6.077   6.779   2.859  2.8243  1.1481  0.1349
  614MOL0     H84712   5.714   7.590   3.060 -1.2431 -0.0192  0.8214
  614MOL0     H84713   5.500   7.645   3.164  0.8873 -1.8898 -1.2755
  614MOL0     H84714   5.240   7.429   3.707  1.2871  1.8474  0.1848
  614MOL0     H84715   5.003   7.405   3.734  1.4832  1.4032  0.6812
  614MOL0     H84716   3.193   7.096   3.991  1.0261 -0.8140  0.5941
  614MOL0     H84717   2.966   7.180   3.966 -2.5250 -0.4992  1.6650
  614MOL0     H84718   2.676   7.676   4.194 -0.6188 -0.5093 -1.5081
  614MOL0     H84719   2.444   7.745   4.190 -0.0599 -0.7509 -1.1270
  614MOL0     H84720   2.089   7.654   4.084  1.3273  2.3789  3.7651
  614MOL0     H84721   2.240   7.620   3.996  1.1293 -0.8336  0.6242
  614MOL0     H84722   2.085   7.397   4.143 -1.8229 -0.1424 -0.6814
  614MOL0     H84723   2.209   7.381   4.020 -1.1515 -1.0856  0.4205
  614MOL0     H84724   1.997   7.324   3.945  1.4949 -0.7657  1.1252
  614MOL0     H84725   1.940   7.491   3.956 -0.0225 -1.1930  0.2199
  614MOL0     H84726   2.210   7.451   3.815  2.1417  4.3483  0.9482
  614MOL0     H84727   2.112   7.591   3.805  3.6788 -0.6926 -0.7490
  614MOL0     H84728   1.920   7.336   3.526 -1.7996 -1.9726  1.8020
  614MOL0     H84729   2.315   7.352   4.237  0.8071 -2.1718  0.0860
  614MOL0     H84730   2.643   7.214   4.336  1.7819  2.4337 -1.0677
  614MOL0     H84731   2.466   7.184   4.323 -0.5567 -0.2265 -0.2664
  614MOL0     H84732   2.581   7.163   4.179  0.8636  1.1910 -0.8940
  615MOL0     O84733   7.010   3.958   4.142 -0.3388 -0.4088  0.1947
  615MOL0     C84734   6.907   4.001   4.088  0.5311 -0.7756 -0.7881
  615MOL0     O84735   6.863   3.982   3.958 -0.3710 -0.0840  0.2440
  615MOL0     C84736   6.951   3.914   3.876 -0.1165  0.4982 -0.8661
  615MOL0     C84737   6.914   3.788   3.828  0.2959  0.5323  0.8486
  615MOL0     C84738   6.994   3.723   3.732 -0.4716  0.9717  0.6443
  615MOL0     C84739   7.108   3.787   3.689 -0.8018  0.0301 -0.7312
  615MOL0     O84740   7.176   3.720   3.583 -0.3780 -0.2991 -0.2050
  615MOL0     C84741   7.309   3.750   3.552 -0.9224 -0.0904  0.2690
  615MOL0     C84742   7.371   3.650   3.447 -0.5609 -0.2178 -0.7188
  615MOL0     C84743   7.525   3.651   3.457 -0.6406  0.0449 -0.3243
  615MOL0     C84744   7.594   3.787   3.446 -0.0294  0.7432 -1.4612
  615MOL0     C84745   7.751   3.777   3.420  0.8623 -0.0775 -0.5248
  615MOL0     C84746   7.772   3.697   3.287 -0.1194 -0.3763 -0.9352
  615MOL0     C84747   7.921   3.718   3.254 -0.3117 -0.5015 -0.3875
  615MOL0     C84748   7.962   3.630   3.132  0.9580 -0.0532  0.1747
  615MOL0     N84749   8.108   3.604   3.118  0.6498  0.7380  0.1215
  615MOL0     C84750   8.152   3.474   3.146  0.5473 -1.2415 -0.6144
  615MOL0     C84751   8.279   3.482   3.093  0.5238  1.1903  0.3676
  615MOL0     C84752   8.380   3.357   3.094  0.8566  0.4577  0.0099
  615MOL0     C84753   8.478   3.350   3.211  0.5769  0.7739  0.0878
  615MOL0     C84754   8.613   3.425   3.192  0.3496 -0.6261  0.1785
  615MOL0     C84755   8.604   3.578   3.191 -0.5449 -0.6098 -0.2709
  615MOL0     O84756   8.738   3.637   3.216 -0.2807 -0.0242  0.6115
  615MOL0     C84757   8.807   3.674   3.111  0.1783  0.1397  0.2685
  615MOL0     C84758   8.886   3.589   3.042 -0.1991  0.3058  0.0469
  615MOL0     C84759   8.968   3.638   2.934 -0.0495  0.3587  0.2505
  615MOL0     C84760   9.053   3.538   2.860 -0.7151 -0.0902 -0.0814
  615MOL0     C84761   8.960   3.777   2.903  0.0378  0.0691 -0.3059
  615MOL0     C84762   9.042   3.849   2.805  0.0127  1.0230  0.6852
  615MOL0     O84763   8.983   3.928   2.704 -0.5205  0.5192 -0.8037
  615MOL0     C84764   9.052   4.033   2.647  1.0059 -0.2861 -0.0838
  615MOL0     C84765   9.150   4.109   2.720 -0.3132  0.1077 -0.7327
  615MOL0     C84766   9.225   4.206   2.652 -0.2005  0.2020  0.1338
  615MOL0     C84767   9.179   4.250   2.527  0.7767 -0.0672  0.3168
  615MOL0     O84768   9.243   4.346   2.450 -0.1113 -0.4560 -0.3232
  615MOL0     C84769   9.381   4.384   2.483  0.5776  0.4037  0.4133
  615MOL0     C84770   9.479   4.326   2.376  0.5650 -0.0282 -0.9958
  615MOL0     C84771   9.488   4.166   2.401 -0.1884 -0.0607  0.1034
  615MOL0     C84772   9.601   4.133   2.500  0.3519  0.3957 -0.6897
  615MOL0     C84773   9.646   3.990   2.506  0.2836  0.4001 -0.5582
  615MOL0     C84774   9.529   3.906   2.569  1.2486  0.0598  0.1946
  615MOL0     C84775   9.581   3.770   2.613  0.5799 -0.0218 -0.6275
  615MOL0     C84776   9.588   3.678   2.498 -0.1284  0.5655 -0.3653
  615MOL0    Cl84777   9.688   3.533   2.545  0.1871  0.1155 -0.0412
  615MOL0     C84778   9.071   4.195   2.468  0.0361  0.4546  1.0546
  615MOL0     C84779   9.017   4.084   2.524  0.1114 -0.0990  1.3600
  615MOL0     O84780   9.165   3.817   2.807 -0.6054 -0.6546  0.1838
  615MOL0     C84781   8.876   3.855   2.983 -0.1769  0.1025 -0.0104
  615MOL0     C84782   8.802   3.805   3.084  0.7175  0.0489  0.4448
  615MOL0     N84783   8.300   3.601   3.033  0.2169  0.0942  0.4105
  615MOL0     N84784   8.204   3.681   3.057 -0.2293 -0.1257  0.4199
  615MOL0     C84785   7.156   3.906   3.753  0.5347  0.5533  0.3769
  615MOL0     C84786   7.076   3.966   3.848 -0.2751 -0.7244  0.0890
  615MOL0     C84787   6.805   4.086   4.166 -0.4267 -0.8037  0.3591
  615MOL0     C84788   6.668   4.063   4.136 -0.1252  0.4796 -0.3842
  615MOL0     C84789   6.571   4.152   4.190 -0.2133 -0.6840  1.1739
  615MOL0     C84790   6.608   4.269   4.258  0.9365  0.6868  0.0018
  615MOL0     O84791   6.519   4.369   4.292  0.4956 -0.1505 -0.1938
  615MOL0     C84792   6.382   4.334   4.284 -0.3460  0.5965  0.0191
  615MOL0     C84793   6.285   4.431   4.352  0.4024  0.0159 -0.5618
  615MOL0     C84794   6.316   4.580   4.338 -0.4342  0.3480 -0.3295
  615MOL0     C84795   6.201   4.663   4.402 -0.5467 -0.4862 -0.1414
  615MOL0     C84796   6.151   4.629   4.533 -0.3112 -0.6382 -0.4681
  615MOL0     C84797   6.106   4.577   4.630  0.2724 -0.0979  0.1845
  615MOL0     C84798   6.738   4.286   4.292 -0.2484  0.4827  0.0362
  615MOL0     C84799   6.837   4.198   4.244 -0.8227 -0.6584  0.1363
  615MOL0     C84800   6.985   4.229   4.269 -0.4599 -0.0196 -0.8869
  615MOL0     H84801   6.816   3.745   3.848  0.4756  0.1702  0.9689
  615MOL0     H84802   6.972   3.632   3.677 -0.0330  0.9567  0.4875
  615MOL0     H84803   7.384   3.740   3.631  1.0588  2.7968 -1.0706
  615MOL0     H84804   7.314   3.856   3.523  0.6301 -0.2229 -0.0440
  615MOL0     H84805   7.345   3.555   3.494 -3.1186  1.8191  2.4165
  615MOL0     H84806   7.336   3.654   3.343 -2.6423 -2.2910 -0.1909
  615MOL0     H84807   7.562   3.608   3.550 -2.3140 -1.2359 -0.2068
  615MOL0     H84808   7.553   3.600   3.365 -0.1700  2.9062 -1.8980
  615MOL0     H84809   7.553   3.854   3.370  2.6020  0.1901 -3.5313
  615MOL0     H84810   7.571   3.847   3.535  0.6232 -2.5632  1.1497
  615MOL0     H84811   7.806   3.727   3.501  2.8173 -1.8301 -2.7808
  615MOL0     H84812   7.799   3.875   3.413  2.0931 -0.6695 -0.6698
  615MOL0     H84813   7.744   3.594   3.309 -0.0250  0.1289  1.9253
  615MOL0     H84814   7.709   3.736   3.206  0.1143 -1.6500 -1.7480
  615MOL0     H84815   7.983   3.672   3.331  1.7997 -0.8131 -2.1603
  615MOL0     H84816   7.949   3.823   3.246  1.9663 -0.9621  0.8100
  615MOL0     H84817   7.906   3.537   3.150 -1.0183  1.3395  1.6717
  615MOL0     H84818   7.917   3.681   3.046  0.1955  2.1824  1.8032
  615MOL0     H84819   8.089   3.398   3.191  0.7191  0.3475  2.5911
  615MOL0     H84820   8.438   3.373   3.003 -0.5498  1.1067 -0.8002
  615MOL0     H84821   8.328   3.263   3.077 -0.0632  0.9165  0.2354
  615MOL0     H84822   8.435   3.398   3.299 -0.1966  0.8128 -0.3045
  615MOL0     H84823   8.503   3.246   3.238  2.1958  0.7610 -1.2975
  615MOL0     H84824   8.683   3.390   3.269  0.5356 -0.4992  0.0688
  615MOL0     H84825   8.651   3.388   3.097 -2.2234 -1.7524 -0.4648
  615MOL0     H84826   8.548   3.609   3.102 -4.6683 -1.5968  1.7099
  615MOL0     H84827   8.531   3.600   3.270  1.5680  1.7533  1.1723
  615MOL0     H84828   8.881   3.485   3.073 -0.1962  0.3550  0.2093
  615MOL0     H84829   9.019   3.437   2.884 -0.6182  0.1785  1.2751
  615MOL0     H84830   9.159   3.548   2.886 -0.2331  0.4931 -2.0304
  615MOL0     H84831   9.040   3.549   2.752 -3.9901  0.7603  0.2828
  615MOL0     H84832   9.161   4.078   2.823 -1.9543 -2.1649 -1.1737
  615MOL0     H84833   9.318   4.242   2.695  0.4690 -1.1912 -0.1141
  615MOL0     H84834   9.402   4.491   2.466  3.2427 -0.3071 -1.4598
  615MOL0     H84835   9.421   4.357   2.581 -0.1091  0.1070  0.6118
  615MOL0     H84836   9.454   4.364   2.277  0.1161  0.0240 -0.8660
  615MOL0     H84837   9.578   4.365   2.400  0.4839 -0.1831 -0.3748
  615MOL0     H84838   9.513   4.116   2.307  0.3628 -1.3390  0.9030
  615MOL0     H84839   9.391   4.122   2.428  0.8355 -2.5287 -0.0096
  615MOL0     H84840   9.580   4.169   2.601  2.0398  0.6494 -0.4028
  615MOL0     H84841   9.694   4.187   2.476  3.3114 -4.5086 -1.6549
  615MOL0     H84842   9.666   3.953   2.405  0.9722  0.1967 -0.3495
  615MOL0     H84843   9.734   3.969   2.568  0.1671 -1.6734 -0.9973
  615MOL0     H84844   9.456   3.890   2.489  1.7686 -1.2883 -0.0301
  615MOL0     H84845   9.467   3.958   2.643 -2.3875 -2.2479 -0.9548
  615MOL0     H84846   9.502   3.743   2.683  1.6601  1.7133  1.3693
  615MOL0     H84847   9.674   3.769   2.670 -0.3249 -0.6524  0.8690
  615MOL0     H84848   9.627   3.720   2.405  0.5864  0.1130 -0.2860
  615MOL0     H84849   9.484   3.658   2.472 -0.9132  2.8742  0.7657
  615MOL0     H84850   9.033   4.244   2.379  0.2566  3.3124  2.3990
  615MOL0     H84851   8.940   4.039   2.463  1.2053  0.5701 -0.5920
  615MOL0     H84852   8.884   3.960   2.959 -0.4536  0.8238  2.7780
  615MOL0     H84853   8.736   3.868   3.142  0.3599 -0.2853  0.4055
  615MOL0     H84854   7.255   3.946   3.733  0.9255 -0.0806  0.9764
  615MOL0     H84855   7.113   4.052   3.902  0.9512 -1.4290  0.3993
  615MOL0     H84856   6.621   3.981   4.082 -0.5342  0.2021  0.3732
  615MOL0     H84857   6.474   4.115   4.158  0.6668 -1.2147 -1.0865
  615MOL0     H84858   6.375   4.349   4.176 -0.1414 -0.1640 -0.1011
  615MOL0     H84859   6.359   4.231   4.312 -2.5938  1.2216  0.7287
  615MOL0     H84860   6.279   4.401   4.457  0.1634 -3.3709 -1.4049
  615MOL0     H84861   6.189   4.412   4.303 -0.1619  4.6175 -1.7413
  615MOL0     H84862   6.404   4.603   4.399  0.2510 -0.2163 -1.0768
  615MOL0     H84863   6.338   4.598   4.233 -3.3449 -1.7250 -1.4195
  615MOL0     H84864   6.120   4.661   4.328  0.0825 -1.4945 -0.8296
  615MOL0     H84865   6.236   4.767   4.405 -1.3706 -0.1628 -1.2402
  615MOL0     H84866   6.083   4.534   4.725  1.4193 -0.3761  0.3587
  615MOL0     H84867   6.769   4.376   4.343  1.7087  0.9259 -1.8189
  615MOL0     H84868   7.031   4.141   4.314 -0.1953  1.0333  1.0229
  615MOL0     H84869   7.048   4.263   4.185  1.5171 -1.6977 -0.1666
  615MOL0     H84870   6.993   4.307   4.345 -0.7068 -0.2467 -0.6285
  616MOL0     O84871   8.650   4.576   4.311 -0.1532 -0.0475  0.3246
  616MOL0     C84872   8.696   4.688   4.286  0.8109 -1.3097 -0.2066
  616MOL0     O84873   8.805   4.751   4.327  0.3896 -0.1419  0.1108
  616MOL0     C84874   8.854   4.705   4.442  0.8634  1.0148 -0.7714
  616MOL0     C84875   8.925   4.595   4.451  0.6427  0.6726  0.5515
  616MOL0     C84876   8.964   4.555   4.581  0.4706 -0.1857 -0.4087
  616MOL0     C84877   8.914   4.622   4.694 -0.2239 -0.2911  0.0360
  616MOL0     O84878   8.934   4.596   4.831 -0.4901  1.1920 -0.1118
  616MOL0     C84879   9.046   4.515   4.859  0.8378 -0.5574 -0.3145
  616MOL0     C84880   9.098   4.533   4.999  0.7024  0.4588 -0.2644
  616MOL0     C84881   9.201   4.424   5.026 -0.0524 -0.4906 -0.0977
  616MOL0     C84882   9.271   4.460   5.154  0.2775 -0.9814 -0.5231
  616MOL0     C84883   9.355   4.347   5.218 -0.0184 -0.3372 -0.1009
  616MOL0     C84884   9.388   4.379   5.366  0.3707 -0.0585 -0.8457
  616MOL0     C84885   9.462   4.253   5.430  0.9254 -0.2086  0.1640
  616MOL0     C84886   9.496   4.267   5.576  0.6244  0.2210 -0.7176
  616MOL0     N84887   9.384   4.273   5.670 -0.1680  0.6554 -0.1941
  616MOL0     C84888   9.309   4.169   5.697  0.3288 -0.1111  0.0426
  616MOL0     C84889   9.215   4.219   5.777  0.5513  0.3916 -0.5550
  616MOL0     C84890   9.098   4.129   5.835 -0.1848  0.5900  0.1604
  616MOL0     C84891   9.144   4.009   5.923 -0.9583 -0.2790  0.8168
  616MOL0     C84892   9.037   3.962   6.016 -0.3147  0.1057 -0.1297
  616MOL0     C84893   8.919   3.901   5.947  0.1677 -0.6130  0.6136
  616MOL0     O84894   8.828   4.002   5.896  0.0336 -0.3498 -0.0644
  616MOL0     C84895   8.692   3.973   5.890 -1.0044  0.1250 -0.0718
  616MOL0     C84896   8.606   4.077   5.890 -0.0789 -1.0364 -0.6339
  616MOL0     C84897   8.471   4.059   5.897  0.2180 -0.2346 -0.4132
  616MOL0     C84898   8.390   4.191   5.872  0.4575  1.3712  0.1408
  616MOL0     C84899   8.421   3.931   5.919  0.3045  0.6086  0.5285
  616MOL0     C84900   8.274   3.897   5.959 -0.3422  0.6786  0.2611
  616MOL0     O84901   8.200   4.000   6.021  0.5120  0.6483 -0.1054
  616MOL0     C84902   8.070   3.990   6.068 -0.6269 -0.7900 -0.2655
  616MOL0     C84903   7.970   3.894   6.027 -0.5789  0.1278  0.8432
  616MOL0     C84904   7.842   3.894   6.083  0.4774 -1.2904 -0.1615
  616MOL0     C84905   7.812   4.000   6.178  0.1586  0.6793  1.2828
  616MOL0     O84906   7.691   4.027   6.231  0.0946  0.0837  0.3451
  616MOL0     C84907   7.579   3.939   6.221  0.4674 -0.3744  0.2781
  616MOL0     C84908   7.491   3.961   6.094  0.5624  0.0720 -0.1881
  616MOL0     C84909   7.438   4.109   6.083 -0.0304 -0.3723  0.2485
  616MOL0     C84910   7.332   4.118   5.970 -0.1614  0.4017 -0.3375
  616MOL0     C84911   7.236   4.240   5.983 -0.0711 -0.0057  0.6061
  616MOL0     C84912   7.116   4.235   5.899  0.3983 -0.1711 -0.0191
  616MOL0     C84913   7.042   4.366   5.904  0.1112 -0.2375  0.4259
  616MOL0     C84914   6.913   4.357   5.822 -0.5876 -0.0102  0.2226
  616MOL0    Cl84915   6.964   4.339   5.645 -0.8880 -0.8882  0.4774
  616MOL0     C84916   7.902   4.098   6.207  0.3698  0.5244 -0.2020
  616MOL0     C84917   8.033   4.098   6.156 -0.8731 -0.4387 -0.1339
  616MOL0     O84918   8.238   3.785   5.948  0.2368  0.1228  0.3391
  616MOL0     C84919   8.504   3.823   5.908 -0.7468 -0.3377 -0.4306
  616MOL0     C84920   8.643   3.845   5.886 -0.5148 -0.6567 -0.2591
  616MOL0     N84921   9.245   4.356   5.800  0.0633  0.5765  0.2702
  616MOL0     N84922   9.342   4.387   5.729 -0.3426  0.1995 -0.5845
  616MOL0     C84923   8.832   4.730   4.676  1.1282  0.6832 -0.1989
  616MOL0     C84924   8.812   4.779   4.551 -0.3852 -0.8294  0.4462
  616MOL0     C84925   8.630   4.758   4.172  0.0832  0.3806 -0.2917
  616MOL0     C84926   8.605   4.680   4.056  0.2159  0.9791 -0.0935
  616MOL0     C84927   8.539   4.732   3.947  0.7832 -0.2513 -0.1230
  616MOL0     C84928   8.483   4.865   3.946  0.0142  0.4524  0.5650
  616MOL0     O84929   8.418   4.907   3.829 -0.8537  0.5527  0.1661
  616MOL0     C84930   8.298   4.978   3.855 -0.0745  0.1049  0.6097
  616MOL0     C84931   8.189   4.902   3.777 -1.2220  1.0557  0.5682
  616MOL0     C84932   8.056   4.900   3.852  0.0102  0.1753 -0.0188
  616MOL0     C84933   7.961   4.826   3.766  0.9461  0.2484  1.0620
  616MOL0     C84934   7.835   4.797   3.830  0.7419 -0.2994 -1.5350
  616MOL0     C84935   7.728   4.789   3.888  0.4956  0.4128 -0.0391
  616MOL0     C84936   8.515   4.950   4.059 -0.2195 -0.3366 -0.1738
  616MOL0     C84937   8.594   4.896   4.165 -0.0359 -0.1604 -0.2721
  616MOL0     C84938   8.638   4.991   4.270  0.0665  0.6266 -0.3143
  616MOL0     H84939   8.954   4.537   4.363  2.0042  1.7437  0.2514
  616MOL0     H84940   9.025   4.466   4.593 -0.7761 -1.0734 -0.4869
  616MOL0     H84941   9.125   4.564   4.802  0.3254 -1.5688 -1.9953
  616MOL0     H84942   9.039   4.408   4.839 -0.6260 -1.4296  3.9680
  616MOL0     H84943   9.132   4.636   5.012  1.0516  0.3433 -0.2619
  616MOL0     H84944   9.011   4.527   5.066  1.3145  0.7737  0.5715
  616MOL0     H84945   9.164   4.321   5.026 -3.0300  0.4433 -1.8267
  616MOL0     H84946   9.272   4.435   4.944  0.2255 -0.4619  0.1463
  616MOL0     H84947   9.339   4.543   5.136  1.0513 -1.1482  1.3454
  616MOL0     H84948   9.204   4.505   5.228  1.6753 -0.3305  0.3881
  616MOL0     H84949   9.442   4.349   5.153  0.5765  1.2421  0.6949
  616MOL0     H84950   9.309   4.247   5.218  2.7488 -1.7547 -2.6130
  616MOL0     H84951   9.462   4.460   5.371  2.7393 -2.0640  4.7617
  616MOL0     H84952   9.299   4.413   5.418  0.3786  0.4453 -1.1462
  616MOL0     H84953   9.554   4.232   5.374  1.7421  1.3325  0.8616
  616MOL0     H84954   9.399   4.164   5.432  2.2163 -1.1345  0.5922
  616MOL0     H84955   9.564   4.185   5.601 -1.4263 -1.8949 -1.6524
  616MOL0     H84956   9.545   4.364   5.583 -2.4456  2.1814 -3.4308
  616MOL0     H84957   9.306   4.066   5.661 -2.3725  0.3652 -1.4302
  616MOL0     H84958   9.054   4.085   5.744  1.5357  0.9852 -0.9066
  616MOL0     H84959   9.019   4.189   5.881 -0.4633 -1.3507  2.3695
  616MOL0     H84960   9.197   3.930   5.869 -3.6699 -0.4631 -1.8840
  616MOL0     H84961   9.216   4.056   5.990  0.0392 -4.3368  2.9267
  616MOL0     H84962   9.090   3.880   6.065 -0.1876  0.1823 -0.1390
  616MOL0     H84963   9.006   4.041   6.085  0.9324  1.3916 -0.9798
  616MOL0     H84964   8.959   3.832   5.873  1.2927  0.5742  0.0873
  616MOL0     H84965   8.867   3.844   6.025  0.9235 -0.3304  1.3419
  616MOL0     H84966   8.649   4.177   5.885  1.0748 -1.0031  4.7032
  616MOL0     H84967   8.399   4.257   5.959 -2.3010 -0.4938  2.0322
  616MOL0     H84968   8.284   4.167   5.861  0.8807 -2.1105  2.1859
  616MOL0     H84969   8.431   4.244   5.786  0.2452  0.8453 -0.2845
  616MOL0     H84970   7.994   3.826   5.945  1.7921  1.0202  0.7385
  616MOL0     H84971   7.769   3.832   6.034  2.7157 -0.1848 -5.5810
  616MOL0     H84972   7.619   3.837   6.225  1.4834 -0.0157 -0.3387
  616MOL0     H84973   7.513   3.963   6.305 -0.4547  1.4305 -0.8987
  616MOL0     H84974   7.552   3.941   6.006 -0.2732  0.3427 -0.8441
  616MOL0     H84975   7.405   3.893   6.098 -0.5181  1.3066  4.7347
  616MOL0     H84976   7.521   4.178   6.063 -1.2503  0.8788 -0.7527
  616MOL0     H84977   7.400   4.136   6.182 -1.5615  0.2260 -0.4657
  616MOL0     H84978   7.277   4.024   5.975  1.7873 -0.7951 -0.4986
  616MOL0     H84979   7.384   4.113   5.873  1.8961 -0.1500  0.7462
  616MOL0     H84980   7.202   4.241   6.087  0.9728 -0.8179  0.9798
  616MOL0     H84981   7.285   4.331   5.949 -1.2748 -0.3609 -2.3172
  616MOL0     H84982   7.040   4.166   5.936  0.7873 -0.2892  0.5736
  616MOL0     H84983   7.153   4.207   5.800  1.5966  0.1799  0.3112
  616MOL0     H84984   7.101   4.447   5.859 -2.2771  1.9551  0.9894
  616MOL0     H84985   7.015   4.376   6.009 -0.0355 -0.3893  0.4022
  616MOL0     H84986   6.867   4.455   5.829  2.2022  1.7270 -2.9792
  616MOL0     H84987   6.850   4.273   5.854 -0.6017  0.9943  3.1211
  616MOL0     H84988   7.878   4.182   6.272  1.4925  0.9777 -0.3448
  616MOL0     H84989   8.110   4.174   6.163 -0.6634 -0.2680 -2.9580
  616MOL0     H84990   8.464   3.722   5.910 -0.5929 -0.3889  1.7875
  616MOL0     H84991   8.701   3.754   5.883 -1.5686 -1.3747  0.2817
  616MOL0     H84992   8.787   4.770   4.766 -0.4953 -0.0358 -0.6701
  616MOL0     H84993   8.748   4.865   4.535 -2.8792 -2.5969  0.3612
  616MOL0     H84994   8.649   4.581   4.051 -0.6763  0.6343 -2.3165
  616MOL0     H84995   8.517   4.668   3.863 -0.7558 -0.6489  0.5556
  616MOL0     H84996   8.266   4.984   3.959 -0.5642  0.2656  0.4542
  616MOL0     H84997   8.307   5.075   3.805 -0.2438 -0.5717 -0.7850
  616MOL0     H84998   8.217   4.796   3.773  1.1667  1.6529  0.2911
  616MOL0     H84999   8.173   4.938   3.674  0.3250 -1.8285 -0.7913
  616MOL0     H85000   8.074   4.855   3.950  0.4846 -0.9328 -0.6006
  616MOL0     H85001   8.024   5.004   3.863 -1.6465 -0.2971 -0.1481
  616MOL0     H85002   8.007   4.731   3.739  0.9858  0.0647  1.7473
  616MOL0     H85003   7.938   4.889   3.680  0.5296  2.1224  2.4681
  616MOL0     H85004   7.641   4.793   3.950  0.0304 -0.6536 -0.5997
  616MOL0     H85005   8.477   5.052   4.053 -0.8029 -0.5553 -0.2886
  616MOL0     H85006   8.737   4.980   4.316 -1.3607  1.5563  3.4035
  616MOL0     H85007   8.650   5.085   4.215  3.1790  0.6894  0.2749
  616MOL0     H85008   8.562   5.006   4.347 -1.2299  0.8499 -1.5984
  617MOL0     O85009   8.465   0.778   2.275 -0.0620 -0.1005  0.5379
  617MOL0     C85010   8.346   0.798   2.306  0.5306 -0.0925 -0.0907
  617MOL0     O85011   8.263   0.709   2.366  0.4906  0.6900  0.7051
  617MOL0     C85012   8.276   0.578   2.393  0.4387  1.0089 -0.4449
  617MOL0     C85013   8.398   0.500   2.394  0.0728 -0.3845 -0.6059
  617MOL0     C85014   8.393   0.364   2.426  0.3199 -0.2496 -0.5929
  617MOL0     C85015   8.269   0.306   2.456  0.1023  0.0930 -0.0055
  617MOL0     O85016   8.250   0.174   2.498 -0.8232 -0.4606  0.3957
  617MOL0     C85017   8.360   0.081   2.449  0.0039 -0.0643 -0.8743
  617MOL0     C85018   8.359  -0.058   2.500  0.9976  0.1007 -0.7211
  617MOL0     C85019   8.418  -0.073   2.647  0.3995  0.3475 -0.3979
  617MOL0     C85020   8.427  -0.203   2.710  0.1858  0.3452  0.5631
  617MOL0     C85021   8.449  -0.196   2.859 -0.2623  0.3551  0.0138
  617MOL0     C85022   8.599  -0.164   2.886 -0.7047 -0.9108  0.8317
  617MOL0     C85023   8.618  -0.177   3.045 -0.8850 -0.0534  0.1101
  617MOL0     C85024   8.764  -0.143   3.086 -0.7499  0.7701  0.9826
  617MOL0     N85025   8.786  -0.115   3.231  0.5319  0.7522 -0.5670
  617MOL0     C85026   8.744  -0.010   3.306 -0.5414  0.3252  0.4256
  617MOL0     C85027   8.783  -0.038   3.435  0.4620  1.2793  1.0985
  617MOL0     C85028   8.739   0.028   3.560 -0.5360  0.5338 -0.9289
  617MOL0     C85029   8.839   0.135   3.591 -0.4609  0.1730 -0.1201
  617MOL0     C85030   8.805   0.179   3.738 -0.6425  1.0333  0.0138
  617MOL0     C85031   8.926   0.247   3.803 -0.1533 -0.6337 -0.2321
  617MOL0     O85032   9.032   0.147   3.839  0.0008 -0.1543  0.3480
  617MOL0     C85033   9.124   0.185   3.939  0.8374 -0.1768  0.6766
  617MOL0     C85034   9.181   0.088   4.020 -0.4525 -0.2771 -0.6448
  617MOL0     C85035   9.262   0.126   4.123 -0.9615 -1.0859 -0.7216
  617MOL0     C85036   9.304   0.015   4.222 -0.5616  0.8844  0.0816
  617MOL0     C85037   9.292   0.268   4.151  0.3470  0.2121 -0.3158
  617MOL0     C85038   9.386   0.322   4.253  0.1832  0.4679 -0.3114
  617MOL0     O85039   9.398   0.458   4.259 -0.4663 -0.8902  0.1707
  617MOL0     C85040   9.480   0.522   4.357  0.6342 -0.7574  0.2437
  617MOL0     C85041   9.456   0.647   4.420 -0.5741  0.3005  0.0447
  617MOL0     C85042   9.559   0.710   4.503  0.0173  0.1586  0.4591
  617MOL0     C85043   9.679   0.639   4.526  0.1501  0.8179 -0.0820
  617MOL0     O85044   9.777   0.673   4.616  0.5880 -0.0544  0.3950
  617MOL0     C85045   9.752   0.774   4.720 -0.1528 -0.0516  0.8530
  617MOL0     C85046   9.651   0.731   4.816 -0.0802  0.2257  0.9635
  617MOL0     C85047   9.663   0.794   4.951 -0.2695 -0.2978  0.6672
  617MOL0     C85048   9.643   0.945   4.947 -0.2675  0.2355  0.3798
  617MOL0     C85049   9.647   1.014   5.090 -0.6629  0.0968 -0.5189
  617MOL0     C85050   9.635   1.165   5.063  0.0767  1.1785  0.4397
  617MOL0     C85051   9.616   1.236   5.195  0.6590  0.3956  0.0450
  617MOL0     C85052   9.709   1.348   5.226  0.1799  0.5341  0.0830
  617MOL0    Cl85053   9.873   1.291   5.244  0.2319 -0.0135  0.1540
  617MOL0     C85054   9.701   0.525   4.459 -0.0392 -0.0454  0.4104
  617MOL0     C85055   9.607   0.479   4.365 -0.3714  0.1305  0.5203
  617MOL0     O85056   9.442   0.242   4.335  0.0440  0.3112 -0.7877
  617MOL0     C85057   9.234   0.359   4.068 -0.8868  0.5022 -0.6574
  617MOL0     C85058   9.148   0.326   3.968 -0.6483 -0.5477  0.0771
  617MOL0     N85059   8.847  -0.156   3.432 -0.3353 -0.1717  0.8648
  617MOL0     N85060   8.861  -0.199   3.307  0.1245 -0.5845 -0.3511
  617MOL0     C85061   8.152   0.385   2.468 -0.0161  0.1327 -0.6619
  617MOL0     C85062   8.156   0.518   2.426 -0.1512  0.0413  0.3377
  617MOL0     C85063   8.284   0.927   2.278  0.2513  0.5335  0.4348
  617MOL0     C85064   8.186   0.981   2.364  0.2812  0.5455 -0.5531
  617MOL0     C85065   8.101   1.087   2.335  0.9376 -0.9098 -0.6941
  617MOL0     C85066   8.120   1.159   2.215  0.4168  0.2447  0.4681
  617MOL0     O85067   8.034   1.258   2.175 -0.9310 -0.9626 -0.6764
  617MOL0     C85068   7.910   1.278   2.241  0.3389 -0.6912  1.5141
  617MOL0     C85069   7.822   1.377   2.161 -0.0389  1.3046 -0.5360
  617MOL0     C85070   7.692   1.390   2.241 -0.2151  0.4139  1.5463
  617MOL0     C85071   7.607   1.486   2.164 -0.4208 -0.0890  1.3435
  617MOL0     C85072   7.653   1.623   2.177 -0.6831 -0.7938  0.1995
  617MOL0     C85073   7.674   1.745   2.181  0.4861  0.8599  0.0764
  617MOL0     C85074   8.218   1.114   2.127 -0.2200  0.8201  0.3573
  617MOL0     C85075   8.297   1.000   2.148 -1.9086  0.0022  0.8010
  617MOL0     C85076   8.397   0.958   2.042 -0.0419 -0.8605 -1.0214
  617MOL0     H85077   8.495   0.543   2.372  1.3562 -1.6463  2.1176
  617MOL0     H85078   8.493   0.323   2.434  0.1117 -0.9669 -1.5476
  617MOL0     H85079   8.460   0.114   2.479  0.7859 -3.3020  0.5262
  617MOL0     H85080   8.368   0.078   2.340  1.3405  1.3976 -0.8531
  617MOL0     H85081   8.257  -0.092   2.523  1.4781  0.3704  2.2403
  617MOL0     H85082   8.416  -0.123   2.433  2.5817  1.0760 -0.3566
  617MOL0     H85083   8.521  -0.036   2.651 -0.2886  3.2962 -4.1141
  617MOL0     H85084   8.357  -0.008   2.710  1.7930  2.1461 -0.7854
  617MOL0     H85085   8.327  -0.245   2.693  0.2848  0.0144  0.7781
  617MOL0     H85086   8.500  -0.266   2.657 -0.7070  1.0663 -1.6784
  617MOL0     H85087   8.426  -0.299   2.888  0.4671  0.2833  0.3511
  617MOL0     H85088   8.379  -0.129   2.911 -1.1942 -1.5178  1.3052
  617MOL0     H85089   8.669  -0.229   2.834  1.0987 -0.4334  2.5490
  617MOL0     H85090   8.610  -0.060   2.856  0.1040 -1.2756 -0.1891
  617MOL0     H85091   8.599  -0.278   3.081 -2.8336  0.6251  1.1429
  617MOL0     H85092   8.548  -0.110   3.096  0.6612  0.2859  1.8629
  617MOL0     H85093   8.832  -0.223   3.056 -1.6310  0.6840 -0.9004
  617MOL0     H85094   8.791  -0.055   3.027 -0.9613 -0.4391 -0.9922
  617MOL0     H85095   8.686   0.069   3.259  0.9068  0.8980 -0.4760
  617MOL0     H85096   8.734  -0.056   3.630 -3.9576 -1.4687 -3.2356
  617MOL0     H85097   8.639   0.072   3.553 -1.0894 -0.8413 -2.4090
  617MOL0     H85098   8.938   0.095   3.568  1.4455  3.1543  2.1841
  617MOL0     H85099   8.836   0.225   3.529 -0.5114  1.1254  1.2114
  617MOL0     H85100   8.716   0.243   3.732 -1.3091  0.0488 -0.8249
  617MOL0     H85101   8.775   0.086   3.786 -2.3609  1.4817 -0.1370
  617MOL0     H85102   8.964   0.322   3.734 -1.4534  2.2331  1.9630
  617MOL0     H85103   8.887   0.289   3.896  0.0998 -2.4249  0.7216
  617MOL0     H85104   9.169  -0.016   3.992 -1.5562 -1.3784  3.1769
  617MOL0     H85105   9.246  -0.074   4.194 -0.1554  0.9536 -1.0205
  617MOL0     H85106   9.264   0.037   4.321 -2.1323 -0.9684 -0.0764
  617MOL0     H85107   9.409  -0.015   4.226 -0.1218  1.3093 -3.8861
  617MOL0     H85108   9.362   0.700   4.412 -0.1688  0.8104 -2.1974
  617MOL0     H85109   9.536   0.799   4.560  3.1067  1.0503  0.5012
  617MOL0     H85110   9.848   0.797   4.769  1.8975 -2.6720 -1.6166
  617MOL0     H85111   9.727   0.870   4.674  1.5652 -0.8792 -2.0214
  617MOL0     H85112   9.546   0.746   4.789 -0.6977 -0.3463  2.8613
  617MOL0     H85113   9.659   0.624   4.835 -0.7110 -0.2349 -1.0962
  617MOL0     H85114   9.754   0.770   5.006  1.5199 -0.1690 -2.0248
  617MOL0     H85115   9.578   0.748   5.002 -2.0014  1.4245 -0.4995
  617MOL0     H85116   9.544   0.955   4.899 -1.3696 -4.0872  1.3089
  617MOL0     H85117   9.710   0.988   4.872 -0.9722  2.4502  0.9674
  617MOL0     H85118   9.570   0.969   5.153 -2.1722 -2.1766 -3.6685
  617MOL0     H85119   9.748   0.998   5.129  0.1266  3.4504 -0.9373
  617MOL0     H85120   9.539   1.179   5.011 -2.0037 -1.2350  3.2326
  617MOL0     H85121   9.722   1.210   5.015  1.0286 -1.2816 -0.2999
  617MOL0     H85122   9.625   1.159   5.272  2.6729 -0.1601 -0.6949
  617MOL0     H85123   9.515   1.279   5.196  1.3400  2.1265 -0.7049
  617MOL0     H85124   9.681   1.393   5.321  3.4041  0.7617  1.0387
  617MOL0     H85125   9.711   1.429   5.152  3.3515 -1.4323 -2.2122
  617MOL0     H85126   9.788   0.464   4.482 -0.1641  0.0059  1.0309
  617MOL0     H85127   9.632   0.389   4.309 -1.8016 -0.2846  0.5065
  617MOL0     H85128   9.240   0.465   4.093  4.0951  0.3388 -0.2886
  617MOL0     H85129   9.098   0.408   3.918 -1.0799  0.2086  1.6675
  617MOL0     H85130   8.058   0.336   2.488  0.3737  0.5454  2.8196
  617MOL0     H85131   8.064   0.575   2.423 -1.2898 -1.6252  1.5245
  617MOL0     H85132   8.200   0.931   2.459  3.0270 -0.9734 -1.6334
  617MOL0     H85133   8.025   1.124   2.404 -0.1496  2.4045 -3.3902
  617MOL0     H85134   7.864   1.180   2.259 -0.9389 -0.9505 -2.3158
  617MOL0     H85135   7.931   1.335   2.332  0.2752 -0.8521  1.6320
  617MOL0     H85136   7.818   1.346   2.056  0.7538  0.5820 -0.3641
  617MOL0     H85137   7.877   1.472   2.151  3.3310 -0.6101 -2.0923
  617MOL0     H85138   7.641   1.295   2.259  0.9183 -0.7908 -1.0185
  617MOL0     H85139   7.709   1.420   2.345  0.9930  1.7031  1.0099
  617MOL0     H85140   7.505   1.472   2.199 -1.0488 -2.3243 -1.0148
  617MOL0     H85141   7.611   1.466   2.056  0.0091  1.5510  1.0237
  617MOL0     H85142   7.692   1.850   2.178  1.3532  0.7396 -3.9448
  617MOL0     H85143   8.226   1.157   2.027 -1.2204 -1.5680 -0.8199
  617MOL0     H85144   8.492   0.940   2.093 -1.3625 -3.1609  0.8188
  617MOL0     H85145   8.376   0.873   1.977 -0.8779 -0.4602 -1.2922
  617MOL0     H85146   8.413   1.048   1.981  2.6669 -0.4709  0.1141
  618MOL0     O85147   2.276   6.150   6.642  0.6581  0.7001  0.7209
  618MOL0     C85148   2.283   6.174   6.517  0.1210 -0.2839 -0.9308
  618MOL0     O85149   2.251   6.296   6.460  0.7376  0.2097 -0.3590
  618MOL0     C85150   2.201   6.407   6.524 -0.8268  0.6126  0.1913
  618MOL0     C85151   2.152   6.503   6.445 -0.0864  0.1465  0.8224
  618MOL0     C85152   2.109   6.620   6.486  1.0862  0.1539 -0.7879
  618MOL0     C85153   2.091   6.648   6.622 -0.8572  1.1653 -0.2316
  618MOL0     O85154   2.055   6.774   6.652 -0.7591 -0.0726 -0.9180
  618MOL0     C85155   1.998   6.803   6.780  0.9905  0.5507  0.1513
  618MOL0     C85156   1.947   6.949   6.785 -0.2239  0.0706  0.4437
  618MOL0     C85157   1.800   6.952   6.740  0.7062 -0.0674  0.5359
  618MOL0     C85158   1.717   7.071   6.793 -0.4992  1.3956  0.2876
  618MOL0     C85159   1.749   7.209   6.755 -0.2830 -1.0643  0.5116
  618MOL0     C85160   1.654   7.294   6.835  0.4049  0.4578  0.5637
  618MOL0     C85161   1.679   7.452   6.832 -0.5310  0.5882 -0.0263
  618MOL0     C85162   1.556   7.539   6.788 -0.8385  0.1146 -0.4964
  618MOL0     N85163   1.569   7.682   6.823 -1.2801 -0.2704 -0.7846
  618MOL0     C85164   1.657   7.779   6.762  0.4319  0.5196  1.2383
  618MOL0     C85165   1.639   7.890   6.832 -0.8425 -0.4328 -0.3022
  618MOL0     C85166   1.665   8.018   6.773  0.3034  0.0257 -0.2333
  618MOL0     C85167   1.779   8.108   6.823 -0.1634 -0.4356  0.3851
  618MOL0     C85168   1.759   8.162   6.968 -0.2227 -0.6169  0.3057
  618MOL0     C85169   1.627   8.239   6.990 -0.8476 -0.1440  0.4057
  618MOL0     O85170   1.616   8.348   6.901  0.3753  0.1562  0.3661
  618MOL0     C85171   1.510   8.427   6.937  0.3510  0.4421  0.3430
  618MOL0     C85172   1.516   8.559   6.881 -0.2777 -0.2084 -0.1977
  618MOL0     C85173   1.409   8.651   6.889 -0.2109  0.2349  0.3120
  618MOL0     C85174   1.420   8.768   6.795  0.8435 -0.3227  0.4529
  618MOL0     C85175   1.293   8.613   6.961 -0.7300  0.4876  0.5877
  618MOL0     C85176   1.174   8.702   6.963 -0.1608 -0.1351  0.8522
  618MOL0     O85177   1.049   8.648   6.978  0.9382 -0.6491  0.5028
  618MOL0     C85178   0.930   8.718   6.963 -0.1439 -0.1851  0.0062
  618MOL0     C85179   0.808   8.654   7.003 -0.2358 -1.0255 -0.3212
  618MOL0     C85180   0.681   8.716   6.999  0.5742 -0.2678 -0.5201
  618MOL0     C85181   0.673   8.838   6.948 -0.2376 -0.2106 -0.0745
  618MOL0     O85182   0.555   8.901   6.928  0.1301 -0.1618 -0.7528
  618MOL0     C85183   0.544   9.045   6.910  0.6980  0.7127  0.2821
  618MOL0     C85184   0.573   9.128   7.040 -0.5515 -0.1336  0.2671
  618MOL0     C85185   0.578   9.273   6.988 -0.3826  0.3467 -0.7984
  618MOL0     C85186   0.550   9.375   7.098 -0.1367  0.5163  0.2611
  618MOL0     C85187   0.590   9.519   7.075 -1.3942 -0.2688 -0.1655
  618MOL0     C85188   0.512   9.613   7.177 -0.1247  0.1181 -0.1502
  618MOL0     C85189   0.553   9.759   7.160  1.3817 -1.4321  0.3090
  618MOL0     C85190   0.444   9.854   7.222 -1.2077 -0.4204 -0.7902
  618MOL0    Cl85191   0.449   9.853   7.404 -0.0666 -0.1688  0.3790
  618MOL0     C85192   0.795   8.905   6.906 -0.2800  1.3329 -0.1968
  618MOL0     C85193   0.924   8.851   6.913  0.3742  0.1685 -0.0016
  618MOL0     O85194   1.203   8.818   6.992 -0.0483 -0.2053  0.0747
  618MOL0     C85195   1.292   8.491   7.026  0.0760  0.2984 -0.8097
  618MOL0     C85196   1.391   8.395   7.014 -0.5940 -0.2879  0.0855
  618MOL0     N85197   1.546   7.861   6.932 -0.1685 -0.6617  0.0461
  618MOL0     N85198   1.509   7.739   6.929 -0.9498  0.1223  0.6800
  618MOL0     C85199   2.140   6.548   6.711 -0.1053 -0.8154 -0.5841
  618MOL0     C85200   2.208   6.436   6.660  0.4229  0.5301 -0.0494
  618MOL0     C85201   2.361   6.094   6.429  0.4072 -0.0441 -0.0567
  618MOL0     C85202   2.479   6.035   6.475  0.2686 -0.2938 -0.5652
  618MOL0     C85203   2.570   5.959   6.399  0.1115 -0.3434 -0.4547
  618MOL0     C85204   2.545   5.950   6.261  0.4866 -0.0834 -0.0437
  618MOL0     O85205   2.621   5.882   6.171  0.1181  0.8915  0.0596
  618MOL0     C85206   2.736   5.800   6.227 -0.0922  0.1033 -0.2659
  618MOL0     C85207   2.825   5.748   6.110 -1.1027  0.0563 -0.4126
  618MOL0     C85208   2.761   5.659   6.009 -0.3780  0.4723  0.5212
  618MOL0     C85209   2.860   5.623   5.896 -0.1500 -0.0576  0.2987
  618MOL0     C85210   2.797   5.512   5.823  0.2768  0.5675  0.3715
  618MOL0     C85211   2.735   5.424   5.766 -0.3585 -0.2645  0.6675
  618MOL0     C85212   2.421   6.001   6.215 -0.2912  0.0788  0.7957
  618MOL0     C85213   2.329   6.071   6.292  0.0431 -0.1267 -0.0049
  618MOL0     C85214   2.199   6.122   6.225  0.3892 -0.1251 -0.5677
  618MOL0     H85215   2.164   6.498   6.338  1.6355 -0.4277  1.0186
  618MOL0     H85216   2.086   6.700   6.417 -0.4594  1.3356  0.9803
  618MOL0     H85217   2.078   6.792   6.854 -0.2659 -0.6249  1.3924
  618MOL0     H85218   1.917   6.736   6.809  2.2365 -1.2447 -0.3843
  618MOL0     H85219   1.965   6.988   6.885 -0.1404 -0.7490  0.7558
  618MOL0     H85220   2.007   7.013   6.719  1.2957 -2.1799 -0.4661
  618MOL0     H85221   1.795   6.939   6.632  1.1047  0.6190  0.4315
  618MOL0     H85222   1.750   6.865   6.784  0.8161  0.3266  1.4603
  618MOL0     H85223   1.611   7.056   6.771 -0.3706  1.7228 -0.5986
  618MOL0     H85224   1.715   7.064   6.902  0.4873  0.8229  0.2798
  618MOL0     H85225   1.735   7.209   6.646 -0.6690 -1.3997  0.5583
  618MOL0     H85226   1.853   7.237   6.773 -0.8552 -0.7819  4.1527
  618MOL0     H85227   1.552   7.277   6.801  1.1306 -0.6843 -1.1938
  618MOL0     H85228   1.665   7.259   6.938 -2.0697 -1.5165  0.2415
  618MOL0     H85229   1.774   7.479   6.784  0.3485 -0.6949  0.9504
  618MOL0     H85230   1.698   7.480   6.936  0.2653  1.8442 -0.4888
  618MOL0     H85231   1.537   7.529   6.680  0.1719  0.3617 -0.7115
  618MOL0     H85232   1.465   7.504   6.837  0.6238 -1.0382  1.5664
  618MOL0     H85233   1.709   7.764   6.667 -0.7149 -0.2251  0.6949
  618MOL0     H85234   1.571   8.073   6.780  1.5432  2.1572  0.4830
  618MOL0     H85235   1.688   7.989   6.670  0.6840  1.3128 -0.5273
  618MOL0     H85236   1.866   8.042   6.831 -1.2604 -2.4318 -2.7797
  618MOL0     H85237   1.799   8.186   6.750 -1.4824  0.9015  1.3875
  618MOL0     H85238   1.759   8.077   7.036  1.1659 -1.0622 -0.2225
  618MOL0     H85239   1.848   8.221   6.990 -0.6013  1.1850 -2.4322
  618MOL0     H85240   1.542   8.174   6.968 -0.4144 -0.3623 -0.6885
  618MOL0     H85241   1.629   8.280   7.092 -1.6845  1.5855 -0.2233
  618MOL0     H85242   1.613   8.582   6.838  0.3208  1.1501  1.7258
  618MOL0     H85243   1.461   8.735   6.700 -1.7727 -0.7547 -0.5951
  618MOL0     H85244   1.484   8.844   6.842  1.4236 -0.3470 -0.2872
  618MOL0     H85245   1.319   8.805   6.776  1.8478  2.3436 -0.2509
  618MOL0     H85246   0.816   8.559   7.055  0.3900 -0.6726  0.2493
  618MOL0     H85247   0.590   8.673   7.039  1.8591 -2.7172  0.0435
  618MOL0     H85248   0.612   9.086   6.835  0.4227  1.4984  0.4522
  618MOL0     H85249   0.448   9.084   6.875  1.2099  1.4118 -0.3724
  618MOL0     H85250   0.501   9.113   7.121  0.9268 -0.1282  1.6335
  618MOL0     H85251   0.670   9.103   7.083  2.0653  2.0568 -3.7745
  618MOL0     H85252   0.494   9.289   6.920 -0.9835 -0.1210 -0.1877
  618MOL0     H85253   0.668   9.289   6.929  0.8916 -4.0926 -0.4094
  618MOL0     H85254   0.579   9.348   7.200 -1.3701  1.5885  0.9298
  618MOL0     H85255   0.441   9.378   7.104 -0.0794  0.8486  1.6171
  618MOL0     H85256   0.697   9.538   7.069 -1.5515  0.1543 -3.1286
  618MOL0     H85257   0.568   9.550   6.972  1.5407  2.5402 -0.1114
  618MOL0     H85258   0.553   9.572   7.269  2.4579 -2.4999 -2.2729
  618MOL0     H85259   0.405   9.598   7.161  0.1635  0.4864 -3.0311
  618MOL0     H85260   0.550   9.785   7.054 -2.0508  2.2441  1.0908
  618MOL0     H85261   0.647   9.794   7.206  0.5589  0.4810  0.6277
  618MOL0     H85262   0.346   9.821   7.186 -1.7366 -0.4945  0.6618
  618MOL0     H85263   0.453   9.958   7.188 -0.6957 -0.4391 -0.7295
  618MOL0     H85264   0.785   8.996   6.846  1.9259  0.4121 -2.1068
  618MOL0     H85265   1.007   8.914   6.882  1.4301  0.7597  3.5109
  618MOL0     H85266   1.206   8.460   7.085  0.1763 -0.9262 -1.2794
  618MOL0     H85267   1.381   8.309   7.079  0.1998 -0.3032  0.1944
  618MOL0     H85268   2.144   6.559   6.818  1.3315 -0.7926 -0.6294
  618MOL0     H85269   2.239   6.354   6.724 -0.1908 -1.8667 -2.6063
  618MOL0     H85270   2.516   6.037   6.577  3.2588 -2.5430 -1.4733
  618MOL0     H85271   2.665   5.937   6.446 -0.7213  1.1789  2.1749
  618MOL0     H85272   2.807   5.868   6.275  1.7048 -2.0203  0.2587
  618MOL0     H85273   2.710   5.715   6.290 -1.0380 -0.7229 -1.7259
  618MOL0     H85274   2.911   5.702   6.160 -0.1527 -0.0083 -2.0543
  618MOL0     H85275   2.883   5.829   6.064  3.7116 -2.1787  0.9925
  618MOL0     H85276   2.721   5.568   6.054  3.6334 -1.2661  1.0051
  618MOL0     H85277   2.680   5.717   5.965 -0.6655 -1.1246 -1.1862
  618MOL0     H85278   2.954   5.592   5.943 -1.9041  0.3746  4.5815
  618MOL0     H85279   2.877   5.707   5.829  1.8667 -0.1431  0.6490
  618MOL0     H85280   2.660   5.363   5.721 -2.2215  0.6544  2.3722
  618MOL0     H85281   2.399   5.984   6.110 -2.9398  2.5712  0.7903
  618MOL0     H85282   2.189   6.231   6.224  1.7176  0.1183  2.5280
  618MOL0     H85283   2.183   6.083   6.124 -1.5100  0.0111 -0.3666
  618MOL0     H85284   2.121   6.080   6.289  1.9848 -3.3701 -0.5686
  619MOL0     O85285   5.556   5.160   1.984  0.8067 -1.3103 -0.3625
  619MOL0     C85286   5.586   5.191   1.869  0.6965 -0.9402 -0.2916
  619MOL0     O85287   5.498   5.174   1.768 -0.8343 -0.8621 -1.0105
  619MOL0     C85288   5.379   5.108   1.780 -0.4714 -0.2435 -0.5601
  619MOL0     C85289   5.286   5.128   1.884  0.2836  1.2188  0.3142
  619MOL0     C85290   5.163   5.065   1.876 -0.4463  0.4861  0.0466
  619MOL0     C85291   5.121   4.994   1.765 -0.3629 -1.0053  0.0128
  619MOL0     O85292   4.996   4.937   1.750  0.0908 -0.2628  0.2647
  619MOL0     C85293   4.990   4.807   1.684 -0.1769 -0.0758  0.2817
  619MOL0     C85294   4.940   4.813   1.535 -0.7233  0.7869 -0.0457
  619MOL0     C85295   4.819   4.901   1.523  0.1884 -0.1878  0.5794
  619MOL0     C85296   4.764   4.903   1.381 -0.3252  0.9059  0.4402
  619MOL0     C85297   4.853   4.969   1.274  0.2937  0.5447  0.1813
  619MOL0     C85298   4.845   5.125   1.272  0.6855  0.2442  0.5699
  619MOL0     C85299   4.952   5.186   1.170 -0.1676 -0.0326 -0.4326
  619MOL0     C85300   4.951   5.340   1.147  0.6901  0.3996  0.1252
  619MOL0     N85301   4.978   5.407   1.267  0.3711 -0.1640 -0.4312
  619MOL0     C85302   5.096   5.397   1.326  0.9193  0.2951 -0.6291
  619MOL0     C85303   5.073   5.455   1.447 -0.4635 -0.2325 -0.2861
  619MOL0     C85304   5.166   5.457   1.574  0.0180  0.0297 -0.0226
  619MOL0     C85305   5.088   5.358   1.676  0.7904  0.0722 -0.0283
  619MOL0     C85306   4.972   5.411   1.754 -0.7032 -0.4079  0.8458
  619MOL0     C85307   4.988   5.559   1.769  0.4478  0.5931 -0.0456
  619MOL0     O85308   4.913   5.602   1.883  0.0568 -0.9050 -0.0233
  619MOL0     C85309   4.780   5.584   1.891  0.1001 -0.6337 -0.4452
  619MOL0     C85310   4.719   5.520   2.002  0.5195 -0.0316  0.9561
  619MOL0     C85311   4.578   5.486   2.010 -0.2678 -0.4815  0.1165
  619MOL0     C85312   4.525   5.384   2.113 -0.0492  0.9272  1.1581
  619MOL0     C85313   4.497   5.536   1.908 -0.4444  0.1224  0.5142
  619MOL0     C85314   4.354   5.522   1.914 -0.2130 -0.1604 -0.1111
  619MOL0     O85315   4.294   5.509   2.034  0.4462  0.4130 -0.5965
  619MOL0     C85316   4.157   5.512   2.057 -0.2022 -0.2022  0.6697
  619MOL0     C85317   4.069   5.612   2.009 -0.4575 -0.0617 -0.4884
  619MOL0     C85318   3.941   5.604   2.049 -0.5544 -0.1183 -0.0379
  619MOL0     C85319   3.896   5.505   2.136  0.2197  0.5651 -0.1174
  619MOL0     O85320   3.773   5.496   2.182 -0.4790  0.0844 -0.1890
  619MOL0     C85321   3.650   5.534   2.115 -1.1647 -0.1028 -0.1541
  619MOL0     C85322   3.611   5.679   2.175  0.4854  1.0264  0.6292
  619MOL0     C85323   3.519   5.742   2.083  0.5172 -0.5092  0.3551
  619MOL0     C85324   3.489   5.888   2.124  0.1662  1.0642  0.5840
  619MOL0     C85325   3.370   5.955   2.078  0.3478 -1.2440  0.9310
  619MOL0     C85326   3.378   5.970   1.928  0.2274 -0.3240  0.3821
  619MOL0     C85327   3.268   6.072   1.890  0.8689  0.2005  1.3004
  619MOL0     C85328   3.124   6.032   1.901 -0.6502 -0.4606  0.9316
  619MOL0    Cl85329   3.078   5.875   1.809  0.3182 -0.6890 -0.2638
  619MOL0     C85330   3.985   5.410   2.193 -0.1752 -0.0846  1.3400
  619MOL0     C85331   4.109   5.421   2.150  0.1832  0.6876 -0.2193
  619MOL0     O85332   4.300   5.526   1.804  0.6087 -0.2552 -0.0411
  619MOL0     C85333   4.558   5.619   1.807  0.6635 -0.3402  0.9712
  619MOL0     C85334   4.698   5.639   1.790 -0.4071  0.1362  0.2511
  619MOL0     N85335   4.945   5.509   1.451  0.8901  0.3628  0.8351
  619MOL0     N85336   4.893   5.482   1.333 -0.1964 -0.3271 -0.5900
  619MOL0     C85337   5.214   4.986   1.655  0.2059  0.0239 -0.0132
  619MOL0     C85338   5.342   5.047   1.664  0.3211  0.4749 -0.1760
  619MOL0     C85339   5.725   5.234   1.844  0.2967 -0.1879 -0.0980
  619MOL0     C85340   5.776   5.233   1.712  0.2858  0.7165 -0.2074
  619MOL0     C85341   5.905   5.265   1.678  0.2671 -0.0044 -1.2431
  619MOL0     C85342   5.987   5.311   1.778 -0.0386 -0.0844  0.1454
  619MOL0     O85343   6.119   5.352   1.751  0.7337  1.1287  0.3898
  619MOL0     C85344   6.155   5.413   1.625 -0.4582 -0.4501 -0.9117
  619MOL0     C85345   6.307   5.442   1.617 -0.2022 -0.4219 -0.0515
  619MOL0     C85346   6.351   5.551   1.720 -1.1675 -0.1004  1.4958
  619MOL0     C85347   6.483   5.597   1.654 -0.2953 -0.3115 -0.2692
  619MOL0     C85348   6.558   5.671   1.760 -0.5187 -0.1442  0.2555
  619MOL0     C85349   6.604   5.713   1.863  0.1323 -0.1188  0.4015
  619MOL0     C85350   5.944   5.319   1.907  0.2183  0.3925  0.2357
  619MOL0     C85351   5.815   5.287   1.944  0.6711  0.3701  0.4601
  619MOL0     C85352   5.786   5.302   2.088  0.9500  0.6477 -0.3196
  619MOL0     H85353   5.306   5.185   1.974 -0.3788  0.3852  1.0209
  619MOL0     H85354   5.089   5.068   1.955  1.1921 -4.7808  2.2220
  619MOL0     H85355   4.917   4.760   1.750  0.0055  1.0151  1.2928
  619MOL0     H85356   5.078   4.745   1.702 -0.8015 -0.5940  1.6401
  619MOL0     H85357   5.016   4.856   1.469 -0.8442  0.4952 -0.3795
  619MOL0     H85358   4.909   4.716   1.495  2.7742  0.5727 -2.6647
  619MOL0     H85359   4.743   4.851   1.584  0.0316 -1.2734 -0.4627
  619MOL0     H85360   4.825   4.996   1.577 -0.7381  0.3524 -0.2352
  619MOL0     H85361   4.745   4.798   1.358 -2.3764  1.1548  0.8187
  619MOL0     H85362   4.665   4.949   1.380 -0.5799  0.3684  0.8563
  619MOL0     H85363   4.815   4.927   1.181  0.7123 -0.0982  0.2905
  619MOL0     H85364   4.956   4.932   1.268 -0.5770 -1.6895 -3.9289
  619MOL0     H85365   4.746   5.153   1.236  0.9077  1.9926  1.2187
  619MOL0     H85366   4.857   5.163   1.373 -1.0490  0.5208  0.6924
  619MOL0     H85367   4.947   5.132   1.075 -1.2650 -1.1602  0.2403
  619MOL0     H85368   5.047   5.154   1.213 -1.3180  0.1658  2.4706
  619MOL0     H85369   5.030   5.368   1.077 -0.2496  2.7833 -0.0793
  619MOL0     H85370   4.856   5.373   1.105  1.3833  0.5721 -1.3545
  619MOL0     H85371   5.183   5.338   1.303  1.4995  0.0702  1.8453
  619MOL0     H85372   5.188   5.559   1.607 -0.1254  0.0102  0.1383
  619MOL0     H85373   5.264   5.415   1.553  2.5428  5.1663  0.1492
  619MOL0     H85374   5.054   5.271   1.620 -0.1007  1.5462 -1.9060
  619MOL0     H85375   5.163   5.332   1.751 -1.1237  2.1106  2.7917
  619MOL0     H85376   4.881   5.400   1.694  0.8218 -0.3607 -1.6471
  619MOL0     H85377   4.956   5.363   1.851 -2.3512 -0.1938  0.7210
  619MOL0     H85378   5.090   5.575   1.804  0.4480 -1.3159  0.9202
  619MOL0     H85379   4.961   5.616   1.679 -0.8552  0.1032  0.0164
  619MOL0     H85380   4.794   5.467   2.059 -0.2666 -1.0025  1.0891
  619MOL0     H85381   4.457   5.428   2.187 -1.6648  1.8793 -0.7822
  619MOL0     H85382   4.601   5.325   2.165  0.9433  1.7277  0.6610
  619MOL0     H85383   4.468   5.316   2.048  1.6707  1.2510 -0.7927
  619MOL0     H85384   4.096   5.693   1.941 -1.1700 -0.4110 -1.2131
  619MOL0     H85385   3.880   5.686   2.011  0.5610  0.8789  0.2586
  619MOL0     H85386   3.670   5.550   2.009  1.5591  0.5469  0.3898
  619MOL0     H85387   3.573   5.456   2.120 -1.6307  0.3355 -0.4585
  619MOL0     H85388   3.563   5.666   2.272  0.3745 -0.3448  0.4120
  619MOL0     H85389   3.702   5.737   2.190  1.8658 -0.8887  0.0429
  619MOL0     H85390   3.431   5.677   2.085 -0.0669  0.1859 -1.3913
  619MOL0     H85391   3.562   5.748   1.983  2.4300  0.8457  1.2002
  619MOL0     H85392   3.576   5.952   2.106  1.2842 -0.5130  0.0836
  619MOL0     H85393   3.482   5.882   2.233  4.3807  1.6849  1.0632
  619MOL0     H85394   3.279   5.898   2.099 -1.1683  0.3455 -0.9224
  619MOL0     H85395   3.375   6.046   2.139  1.7032  0.7752 -1.9553
  619MOL0     H85396   3.362   5.878   1.871  0.6127 -0.1165 -0.0756
  619MOL0     H85397   3.474   6.018   1.906  1.2423 -0.7212  3.5663
  619MOL0     H85398   3.275   6.099   1.784  0.7465  0.2630  1.3087
  619MOL0     H85399   3.286   6.163   1.949  2.6476 -0.9394  2.6326
  619MOL0     H85400   3.062   6.114   1.867 -3.2919 -2.5966  0.2616
  619MOL0     H85401   3.081   6.022   2.001 -2.4015 -0.0635  0.2381
  619MOL0     H85402   3.949   5.342   2.269 -0.7488 -2.5744 -0.9689
  619MOL0     H85403   4.177   5.350   2.195 -2.0819  0.8278  3.8442
  619MOL0     H85404   4.493   5.650   1.726 -0.8591 -0.4154  2.1158
  619MOL0     H85405   4.738   5.679   1.697  2.4030 -0.8163  0.9598
  619MOL0     H85406   5.190   4.941   1.560  0.1232  0.7302 -0.3309
  619MOL0     H85407   5.414   5.048   1.583 -1.4455 -0.2603 -1.8450
  619MOL0     H85408   5.723   5.187   1.630 -1.4953 -0.5150  1.5193
  619MOL0     H85409   5.931   5.258   1.573 -3.0155  0.8782 -2.2517
  619MOL0     H85410   6.132   5.342   1.545  3.4344 -3.6205  0.4255
  619MOL0     H85411   6.101   5.507   1.618  0.4042  0.0345 -1.1701
  619MOL0     H85412   6.327   5.468   1.513 -1.6188 -0.6008 -0.3930
  619MOL0     H85413   6.358   5.346   1.630  2.8294  1.3332  2.4862
  619MOL0     H85414   6.290   5.641   1.730  3.3435  3.5819 -0.4699
  619MOL0     H85415   6.358   5.504   1.819  2.5011  0.0207  1.4523
  619MOL0     H85416   6.475   5.649   1.557  0.4121  1.4163  0.5560
  619MOL0     H85417   6.538   5.504   1.639 -2.5683 -1.6174 -1.1215
  619MOL0     H85418   6.637   5.765   1.950 -0.3736  0.1623  0.4267
  619MOL0     H85419   6.018   5.358   1.975  0.3442 -1.4182  1.2098
  619MOL0     H85420   5.699   5.366   2.104 -1.2237 -2.4642  1.4051
  619MOL0     H85421   5.756   5.202   2.120 -0.9727  1.4247  0.4719
  619MOL0     H85422   5.859   5.344   2.157  1.6611 -2.6793  1.1717
  620MOL0     O85423   1.264   5.920   1.209  0.9576  0.0755 -0.1764
  620MOL0     C85424   1.336   5.941   1.304  0.2423 -0.1114  0.4463
  620MOL0     O85425   1.329   6.064   1.371  0.6339  0.2615 -0.8341
  620MOL0     C85426   1.267   6.177   1.331 -0.0921  0.0095  0.5377
  620MOL0     C85427   1.182   6.256   1.414  0.0412 -0.0736 -0.1609
  620MOL0     C85428   1.145   6.389   1.375 -0.5395 -0.5781 -0.0958
  620MOL0     C85429   1.196   6.443   1.258 -0.3707  1.0285  0.3912
  620MOL0     O85430   1.140   6.564   1.229  0.0677 -0.0380 -0.6637
  620MOL0     C85431   1.191   6.626   1.114  0.2055  0.2395  0.0822
  620MOL0     C85432   1.111   6.582   0.989  0.7346 -0.0058  0.1754
  620MOL0     C85433   1.108   6.675   0.859  0.6109  0.0006 -0.3126
  620MOL0     C85434   1.244   6.664   0.783  0.3347  0.1844  0.2273
  620MOL0     C85435   1.341   6.771   0.828 -0.2574 -0.6302 -1.0055
  620MOL0     C85436   1.451   6.783   0.728 -0.9604  0.9111  0.6327
  620MOL0     C85437   1.417   6.855   0.600 -0.3759  0.1778  0.1346
  620MOL0     C85438   1.536   6.843   0.495  1.8864  0.6952 -1.1528
  620MOL0     N85439   1.504   6.913   0.375  0.5014  0.3537  0.2627
  620MOL0     C85440   1.554   7.027   0.337  0.2942 -0.5287  0.4566
  620MOL0     C85441   1.477   7.076   0.242 -0.4364 -0.2241 -0.0106
  620MOL0     C85442   1.486   7.221   0.181 -0.5287 -0.0628  0.3683
  620MOL0     C85443   1.348   7.288   0.168 -0.5312  0.4573 -0.4963
  620MOL0     C85444   1.348   7.433   0.171 -1.0985 -0.0547  0.3082
  620MOL0     C85445   1.205   7.482   0.151 -0.5653 -0.4823 -1.0503
  620MOL0     O85446   1.206   7.625   0.135  0.2889 -0.7867  0.0589
  620MOL0     C85447   1.100   7.692   0.072  0.3003  0.8554  1.1920
  620MOL0     C85448   1.028   7.789   0.145 -0.4750 -0.2490 -0.0310
  620MOL0     C85449   0.915   7.853   0.090 -0.9665  0.2801 -0.5299
  620MOL0     C85450   0.862   7.967   0.188  0.2827  0.2872  0.1412
  620MOL0     C85451   0.882   7.830  -0.043  1.0826 -0.8364  0.3359
  620MOL0     C85452   0.792   7.925  -0.113  1.1381 -0.2071  0.2718
  620MOL0     O85453   0.667   7.947  -0.066  1.0135 -0.2103 -1.1760
  620MOL0     C85454   0.605   8.063  -0.110  0.8002  0.5465 -0.6699
  620MOL0     C85455   0.479   8.041  -0.161 -0.4741  0.3460  0.1156
  620MOL0     C85456   0.402   8.143  -0.212  0.0199  0.1690  0.0870
  620MOL0     C85457   0.462   8.274  -0.220  0.3967  0.1774  0.7100
  620MOL0     O85458   0.408   8.378  -0.282 -0.5251  0.0487 -0.1415
  620MOL0     C85459   0.273   8.403  -0.261  0.3816 -0.7078 -0.4637
  620MOL0     C85460   0.230   8.454  -0.127 -0.4527  0.3450  0.2656
  620MOL0     C85461   0.079   8.481  -0.118 -0.2663  0.0292 -0.2470
  620MOL0     C85462   0.029   8.578  -0.225  0.0544 -0.5910 -0.2816
  620MOL0     C85463  -0.119   8.608  -0.196 -0.4457 -0.1991  0.7788
  620MOL0     C85464  -0.189   8.708  -0.297  0.2527 -0.1360  0.6907
  620MOL0     C85465  -0.266   8.611  -0.392  0.0749  0.1515 -0.0228
  620MOL0     C85466  -0.343   8.697  -0.501 -0.1739 -0.2375 -0.0813
  620MOL0    Cl85467  -0.469   8.783  -0.422 -0.4000  0.1497  0.4145
  620MOL0     C85468   0.588   8.302  -0.158 -0.6702 -0.3615 -0.0074
  620MOL0     C85469   0.660   8.197  -0.096  0.7435 -0.1994 -0.1342
  620MOL0     O85470   0.828   7.958  -0.230  0.8203  0.1149 -0.1871
  620MOL0     C85471   0.953   7.733  -0.118  0.2949 -1.1224  0.5111
  620MOL0     C85472   1.063   7.672  -0.062 -0.1747  0.1091 -0.3085
  620MOL0     N85473   1.389   6.976   0.202 -0.3859  0.6109  0.5255
  620MOL0     N85474   1.405   6.876   0.289  0.4244 -0.2903 -0.4723
  620MOL0     C85475   1.289   6.368   1.184  0.6086  0.0614  0.5513
  620MOL0     C85476   1.324   6.240   1.222  1.1503  0.9765  0.3907
  620MOL0     C85477   1.416   5.830   1.358  0.4958  1.0218 -0.0950
  620MOL0     C85478   1.471   5.746   1.265 -0.8085  0.4209  0.0779
  620MOL0     C85479   1.570   5.653   1.305 -0.0986  0.6320 -0.2821
  620MOL0     C85480   1.606   5.624   1.436 -0.0930 -0.0006  0.3126
  620MOL0     O85481   1.707   5.536   1.456  0.7127  0.0319  0.1682
  620MOL0     C85482   1.693   5.453   1.576 -0.0592 -0.0087 -0.3047
  620MOL0     C85483   1.771   5.314   1.559  0.0649  0.3275  0.2480
  620MOL0     C85484   1.914   5.328   1.516 -0.7405  0.0156  0.0668
  620MOL0     C85485   1.988   5.199   1.481  0.0673 -0.1806  0.4766
  620MOL0     C85486   2.122   5.235   1.432  0.9737 -0.3805  0.6953
  620MOL0     C85487   2.230   5.264   1.400 -0.0390 -0.2386  0.9466
  620MOL0     C85488   1.552   5.706   1.530 -0.0543 -0.2215 -0.5312
  620MOL0     C85489   1.449   5.806   1.493 -0.1625  1.0544  0.2749
  620MOL0     C85490   1.406   5.895   1.608  0.6590 -0.0220 -0.5621
  620MOL0     H85491   1.151   6.225   1.514 -0.5471  0.7696 -0.0708
  620MOL0     H85492   1.077   6.456   1.428  0.1239  0.0629 -0.0479
  620MOL0     H85493   1.297   6.606   1.092  0.7941  3.0496 -0.0211
  620MOL0     H85494   1.189   6.733   1.135 -3.1390 -0.0335  1.8792
  620MOL0     H85495   1.136   6.478   0.964  2.6902  0.8985 -1.9734
  620MOL0     H85496   1.007   6.581   1.020  0.1159  3.1287 -1.4126
  620MOL0     H85497   1.027   6.646   0.792  2.7756  1.9808 -4.0782
  620MOL0     H85498   1.077   6.777   0.887 -1.6814 -0.7759  0.1863
  620MOL0     H85499   1.294   6.569   0.806  0.5235  0.3795  0.6332
  620MOL0     H85500   1.229   6.673   0.675 -0.6824 -1.4749  0.1894
  620MOL0     H85501   1.378   6.736   0.925  2.0258  1.9946 -0.7763
  620MOL0     H85502   1.291   6.868   0.838  1.4482  0.3564 -1.4307
  620MOL0     H85503   1.530   6.849   0.767  1.1734 -1.0132 -0.1693
  620MOL0     H85504   1.519   6.697   0.722  1.4579  2.7519 -0.1122
  620MOL0     H85505   1.401   6.961   0.624  1.6075  1.2504 -2.7758
  620MOL0     H85506   1.330   6.823   0.542 -0.4849  1.5431 -0.4881
  620MOL0     H85507   1.627   6.869   0.551  1.8548 -2.1940  0.4220
  620MOL0     H85508   1.564   6.741   0.468  1.9640  0.2791  0.4010
  620MOL0     H85509   1.629   7.083   0.392  0.7311  0.3755 -1.0169
  620MOL0     H85510   1.535   7.220   0.083 -0.4544 -0.4647  0.4106
  620MOL0     H85511   1.546   7.278   0.253 -0.8818  2.0039 -0.8764
  620MOL0     H85512   1.321   7.246   0.071  4.5447 -1.7262 -1.2846
  620MOL0     H85513   1.279   7.246   0.241  1.3137  2.1496  2.4128
  620MOL0     H85514   1.383   7.472   0.267 -2.3197  1.5025  0.1522
  620MOL0     H85515   1.417   7.469   0.094 -1.2481 -1.5553 -0.5873
  620MOL0     H85516   1.150   7.429   0.072 -1.1964 -2.1642  0.4580
  620MOL0     H85517   1.142   7.480   0.240 -1.1891  4.8271 -1.0627
  620MOL0     H85518   1.064   7.802   0.247  1.1809 -0.7510 -0.5258
  620MOL0     H85519   0.887   7.964   0.294  0.0166  0.3981  0.2080
  620MOL0     H85520   0.753   7.960   0.179  0.3483 -0.4138 -0.1293
  620MOL0     H85521   0.889   8.059   0.134 -0.5795  1.2447  1.2916
  620MOL0     H85522   0.444   7.939  -0.176  1.8493 -0.3767 -0.9478
  620MOL0     H85523   0.311   8.129  -0.270 -1.4523 -0.6847  2.4740
  620MOL0     H85524   0.245   8.473  -0.340  0.8454 -0.3027 -0.2696
  620MOL0     H85525   0.220   8.310  -0.285  2.0703 -1.4638 -1.4335
  620MOL0     H85526   0.246   8.375  -0.053  3.7777 -1.3693 -2.1224
  620MOL0     H85527   0.280   8.547  -0.101  0.3095 -0.6589  2.6508
  620MOL0     H85528   0.067   8.531  -0.022  0.5071 -0.0929 -0.0752
  620MOL0     H85529   0.019   8.390  -0.127  1.8886 -1.4866 -0.1458
  620MOL0     H85530   0.041   8.532  -0.324 -0.2634  0.2353 -0.7152
  620MOL0     H85531   0.087   8.671  -0.213 -0.0692 -0.5139 -0.2830
  620MOL0     H85532  -0.175   8.514  -0.197  0.5439 -0.8091  0.8288
  620MOL0     H85533  -0.134   8.641  -0.093  0.8239  2.7043  0.1520
  620MOL0     H85534  -0.112   8.768  -0.346 -0.7389  0.4354 -0.2295
  620MOL0     H85535  -0.256   8.773  -0.239  0.3119  1.7783 -1.2352
  620MOL0     H85536  -0.338   8.550  -0.337 -0.7237  1.0931 -0.0170
  620MOL0     H85537  -0.194   8.543  -0.440 -1.7843  0.4167 -3.4789
  620MOL0     H85538  -0.365   8.637  -0.590  3.6696 -2.3430  0.1471
  620MOL0     H85539  -0.274   8.775  -0.533 -1.3724  2.2945  2.9420
  620MOL0     H85540   0.636   8.400  -0.160 -0.3018 -0.5277 -2.0217
  620MOL0     H85541   0.753   8.225  -0.047  2.0537 -0.3045 -2.4410
  620MOL0     H85542   0.914   7.697  -0.213 -0.4861 -2.8862  1.4607
  620MOL0     H85543   1.130   7.602  -0.110  2.3663  0.1678  2.8082
  620MOL0     H85544   1.329   6.408   1.092  1.3826 -0.6670  0.5563
  620MOL0     H85545   1.398   6.199   1.154  1.6152 -0.4819  1.7152
  620MOL0     H85546   1.455   5.771   1.161 -3.0517  0.0727  0.2868
  620MOL0     H85547   1.621   5.598   1.226  0.0801 -1.2752  1.0900
  620MOL0     H85548   1.745   5.502   1.658 -0.0073  0.4502 -0.6057
  620MOL0     H85549   1.585   5.445   1.595  0.1244  1.5596  1.6692
  620MOL0     H85550   1.725   5.250   1.483  0.4942  1.6027 -1.1627
  620MOL0     H85551   1.767   5.283   1.663  1.7366 -0.8294  0.0109
  620MOL0     H85552   1.914   5.394   1.429 -1.2077  0.4537  0.3927
  620MOL0     H85553   1.963   5.378   1.600 -1.5696  1.0384 -0.0408
  620MOL0     H85554   1.929   5.139   1.411 -3.4721  0.6997  2.4897
  620MOL0     H85555   2.003   5.139   1.572  1.0988 -1.9917 -0.8056
  620MOL0     H85556   2.333   5.279   1.377  0.9258 -4.6855  1.3890
  620MOL0     H85557   1.573   5.712   1.636 -3.0047  3.3586  0.0507
  620MOL0     H85558   1.402   5.836   1.700 -1.6858  0.5383 -0.2273
  620MOL0     H85559   1.472   5.982   1.617  1.6292 -0.9027  1.3367
  620MOL0     H85560   1.304   5.933   1.594  0.5911  0.6460  1.3324
  621MOL0     O85561   5.663   3.149   1.136  0.1659  0.0184  0.7349
  621MOL0     C85562   5.772   3.173   1.097 -0.3811 -0.4985  0.9550
  621MOL0     O85563   5.831   3.296   1.114  0.3439  1.2372 -0.8521
  621MOL0     C85564   5.813   3.347   1.245 -0.1351  0.4124  0.4315
  621MOL0     C85565   5.814   3.487   1.259  0.4476  0.3139  0.4024
  621MOL0     C85566   5.787   3.547   1.387 -0.2580 -0.3705 -0.1022
  621MOL0     C85567   5.763   3.473   1.495 -0.0823  0.0787  0.0642
  621MOL0     O85568   5.744   3.520   1.620  0.4534  0.2709 -0.2797
  621MOL0     C85569   5.632   3.612   1.636 -0.1582  0.1531  0.1555
  621MOL0     C85570   5.633   3.660   1.777 -0.3215 -0.2388  0.2685
  621MOL0     C85571   5.511   3.727   1.836  0.2486 -0.5442 -0.1450
  621MOL0     C85572   5.432   3.645   1.929  0.3104 -0.0876 -0.2113
  621MOL0     C85573   5.314   3.716   2.004  0.7280  0.0946  0.6918
  621MOL0     C85574   5.251   3.635   2.120 -0.2505  0.4725  0.1454
  621MOL0     C85575   5.159   3.720   2.200  0.6473  0.3346 -0.1170
  621MOL0     C85576   5.034   3.759   2.112 -0.6597  0.8130 -0.6571
  621MOL0     N85577   4.916   3.794   2.182  0.0352 -0.8567 -0.4756
  621MOL0     C85578   4.834   3.700   2.251 -1.1814  0.1659  0.6524
  621MOL0     C85579   4.709   3.744   2.217 -0.8933  0.2397 -0.9430
  621MOL0     C85580   4.582   3.668   2.249  0.9374  0.7390 -0.1179
  621MOL0     C85581   4.472   3.699   2.147  0.8126 -0.2741 -0.2808
  621MOL0     C85582   4.340   3.621   2.179  0.3551 -0.4122  0.2787
  621MOL0     C85583   4.224   3.664   2.087  0.1039  0.4856  0.4386
  621MOL0     O85584   4.105   3.650   2.170 -0.7964 -0.0459  0.3704
  621MOL0     C85585   3.993   3.715   2.132 -0.3304  0.2155  0.7679
  621MOL0     C85586   3.909   3.761   2.235 -0.3577 -0.7451 -0.4457
  621MOL0     C85587   3.789   3.831   2.217 -0.0504 -0.9897 -0.6433
  621MOL0     C85588   3.710   3.852   2.345  0.2754  0.2109 -0.2730
  621MOL0     C85589   3.752   3.854   2.083  0.0344 -0.0760 -0.4926
  621MOL0     C85590   3.618   3.912   2.042  0.5649 -0.4847  0.4279
  621MOL0     O85591   3.568   3.854   1.924 -0.6916  0.3069  0.2073
  621MOL0     C85592   3.441   3.884   1.881 -0.1109 -0.1074 -0.4738
  621MOL0     C85593   3.327   3.815   1.938 -0.6418  1.1671 -0.3982
  621MOL0     C85594   3.198   3.843   1.895 -0.3583  0.8380  0.3803
  621MOL0     C85595   3.171   3.938   1.792  0.3429 -0.8416  0.7951
  621MOL0     O85596   3.048   3.974   1.739  0.4024 -0.1026  0.5149
  621MOL0     C85597   2.938   3.886   1.754 -0.5435  0.4844  0.0406
  621MOL0     C85598   2.805   3.977   1.714 -0.0101  0.6274 -1.4194
  621MOL0     C85599   2.794   4.024   1.568 -0.1281  0.6217 -0.2832
  621MOL0     C85600   2.647   4.074   1.541 -0.0574 -0.1255 -0.3137
  621MOL0     C85601   2.605   4.083   1.391  0.6725  0.1906 -0.1246
  621MOL0     C85602   2.677   4.202   1.322  0.0234  0.2570 -0.0414
  621MOL0     C85603   2.610   4.261   1.192 -0.2251  0.1891  0.2136
  621MOL0     C85604   2.687   4.377   1.129  0.2011  0.6435 -0.2473
  621MOL0    Cl85605   2.648   4.529   1.217  0.1724 -0.3794 -0.1153
  621MOL0     C85606   3.282   4.008   1.737  0.4374  0.0378 -0.3312
  621MOL0     C85607   3.408   3.985   1.784 -0.2578  0.2753 -0.0190
  621MOL0     O85608   3.553   3.989   2.110 -0.3398  0.2533  0.0880
  621MOL0     C85609   3.841   3.829   1.974 -0.2475 -0.2623 -1.3000
  621MOL0     C85610   3.950   3.748   2.000 -0.6770  0.0484  0.1324
  621MOL0     N85611   4.708   3.864   2.157  0.0341  0.1480  0.6447
  621MOL0     N85612   4.831   3.888   2.136 -0.6162 -0.6504  0.2411
  621MOL0     C85613   5.764   3.332   1.484  0.9764  0.0118  0.5739
  621MOL0     C85614   5.794   3.266   1.363  0.7602 -0.6256  0.5795
  621MOL0     C85615   5.847   3.067   1.020 -0.3759 -0.9138 -0.1892
  621MOL0     C85616   5.960   3.108   0.957  0.9995 -0.6121  0.1989
  621MOL0     C85617   6.028   3.008   0.887 -0.4716 -1.1041 -0.0574
  621MOL0     C85618   5.989   2.879   0.873  0.6973  0.5522 -0.5875
  621MOL0     O85619   6.068   2.795   0.797  0.0343 -0.1439 -0.0221
  621MOL0     C85620   6.050   2.653   0.821 -0.3826  0.2808 -0.1423
  621MOL0     C85621   6.133   2.570   0.724  1.1878  0.8599  0.0584
  621MOL0     C85622   6.286   2.592   0.760  0.4692  0.5661 -1.1491
  621MOL0     C85623   6.377   2.558   0.644  0.7266  0.8668  0.7282
  621MOL0     C85624   6.517   2.585   0.679 -0.0193 -0.8997  0.4706
  621MOL0     C85625   6.639   2.618   0.694  0.6273 -0.5848  0.1532
  621MOL0     C85626   5.874   2.837   0.939 -0.2415 -0.2275  0.1666
  621MOL0     C85627   5.807   2.926   1.016  0.9709 -0.2095  0.7264
  621MOL0     C85628   5.675   2.874   1.076 -0.0839  1.2905 -0.3926
  621MOL0     H85629   5.834   3.542   1.168  1.6011 -2.1179 -0.9285
  621MOL0     H85630   5.811   3.651   1.407 -0.4813 -0.9513  4.1441
  621MOL0     H85631   5.540   3.556   1.613 -0.0166 -0.2429  0.5318
  621MOL0     H85632   5.635   3.700   1.572  0.0680  0.8897  1.1679
  621MOL0     H85633   5.657   3.574   1.840 -0.8511  0.6313  1.7395
  621MOL0     H85634   5.718   3.728   1.788 -1.2344  0.6599  2.4956
  621MOL0     H85635   5.540   3.822   1.882  2.6615 -0.8433 -0.9562
  621MOL0     H85636   5.456   3.764   1.748  0.4931 -1.8448 -0.8616
  621MOL0     H85637   5.396   3.563   1.867 -1.1928  0.3310  0.0775
  621MOL0     H85638   5.498   3.611   2.010  0.6734 -1.6726 -1.1342
  621MOL0     H85639   5.237   3.742   1.931  1.5273  0.4518 -0.0447
  621MOL0     H85640   5.364   3.807   2.040 -1.3722  2.1515 -1.2730
  621MOL0     H85641   5.196   3.549   2.079  0.1414 -1.2439  2.9291
  621MOL0     H85642   5.325   3.590   2.187 -1.2616 -0.0210  0.9621
  621MOL0     H85643   5.209   3.813   2.230 -0.9930  2.0067 -2.1960
  621MOL0     H85644   5.122   3.670   2.290 -0.0682  2.1709  0.6685
  621MOL0     H85645   5.069   3.853   2.067 -2.2413  2.2143  0.8940
  621MOL0     H85646   4.999   3.685   2.040  0.4092 -0.1347 -0.2378
  621MOL0     H85647   4.862   3.604   2.293 -1.0745 -0.8581 -1.5694
  621MOL0     H85648   4.544   3.696   2.348 -1.2924  0.0103 -0.7057
  621MOL0     H85649   4.600   3.560   2.248  0.9818  0.7389  0.4462
  621MOL0     H85650   4.453   3.806   2.147  0.6978 -0.2939  0.0347
  621MOL0     H85651   4.508   3.672   2.047  2.0319 -0.7004  0.2534
  621MOL0     H85652   4.363   3.515   2.171  2.6707 -0.0680  1.4531
  621MOL0     H85653   4.300   3.637   2.280 -2.4303 -0.2249 -0.7661
  621MOL0     H85654   4.249   3.768   2.067  2.1890 -0.0932 -0.2561
  621MOL0     H85655   4.214   3.615   1.990 -2.3909  0.1088  0.8230
  621MOL0     H85656   3.950   3.752   2.335 -1.8564  1.5511  0.4713
  621MOL0     H85657   3.732   3.951   2.386 -2.2537 -0.1964  2.3280
  621MOL0     H85658   3.724   3.787   2.432  0.1418  0.7491  0.1602
  621MOL0     H85659   3.606   3.843   2.315  0.0995 -1.0345  0.6342
  621MOL0     H85660   3.359   3.747   2.017  0.4853  2.1322  0.0021
  621MOL0     H85661   3.109   3.818   1.951 -0.6606  0.3208 -0.3187
  621MOL0     H85662   2.938   3.795   1.693 -1.2568 -0.2867  1.1754
  621MOL0     H85663   2.934   3.845   1.855  2.4746 -1.2971 -0.4401
  621MOL0     H85664   2.720   3.915   1.744  0.7727  1.3045  2.9088
  621MOL0     H85665   2.809   4.057   1.789  0.8783 -0.7153  0.0330
  621MOL0     H85666   2.818   3.938   1.504 -0.9960 -1.0296  1.4876
  621MOL0     H85667   2.864   4.106   1.552  0.6087 -0.2872 -1.8978
  621MOL0     H85668   2.635   4.175   1.578 -1.6462  0.0070 -1.0921
  621MOL0     H85669   2.577   4.004   1.587 -1.3214  0.9443 -0.5684
  621MOL0     H85670   2.621   3.993   1.330 -0.1201 -0.3018  0.3729
  621MOL0     H85671   2.497   4.095   1.393  0.4035 -1.5817 -1.3937
  621MOL0     H85672   2.782   4.181   1.300  0.1626  1.2317 -0.3968
  621MOL0     H85673   2.683   4.287   1.390 -0.8541 -0.8652  1.5029
  621MOL0     H85674   2.506   4.289   1.215 -0.7315 -0.1055 -1.5599
  621MOL0     H85675   2.602   4.179   1.121  0.3455  2.5697 -2.7990
  621MOL0     H85676   2.641   4.383   1.030 -0.6655  2.3492  0.2165
  621MOL0     H85677   2.794   4.367   1.109  0.1109  1.1184 -1.0150
  621MOL0     H85678   3.270   4.079   1.656  0.4221  0.2393 -0.1531
  621MOL0     H85679   3.490   4.044   1.745  0.2051 -0.3657 -0.0419
  621MOL0     H85680   3.808   3.850   1.873  0.0213  4.4205 -0.6441
  621MOL0     H85681   4.012   3.709   1.920 -0.9251 -0.2631  0.0905
  621MOL0     H85682   5.759   3.275   1.576  0.8506 -0.3734  0.3342
  621MOL0     H85683   5.820   3.161   1.368  5.0961  0.2179  0.1481
  621MOL0     H85684   6.011   3.204   0.964 -1.8742  0.8759  3.8704
  621MOL0     H85685   6.127   3.031   0.847 -0.8397 -0.2442 -0.4965
  621MOL0     H85686   6.076   2.625   0.923 -2.7433  0.3247  0.5184
  621MOL0     H85687   5.952   2.616   0.790 -0.6947 -1.2878  2.4584
  621MOL0     H85688   6.107   2.584   0.618  1.7211 -1.3570 -0.4121
  621MOL0     H85689   6.114   2.466   0.751 -1.9576  1.6891  1.5200
  621MOL0     H85690   6.298   2.699   0.776  1.8900  0.6929 -2.7964
  621MOL0     H85691   6.301   2.545   0.858 -0.0903 -2.6947 -2.4705
  621MOL0     H85692   6.340   2.623   0.565 -0.9471  0.6153  1.2490
  621MOL0     H85693   6.367   2.454   0.612  1.9726  0.6079  1.1067
  621MOL0     H85694   6.745   2.615   0.704  0.4718 -0.9261  1.9237
  621MOL0     H85695   5.829   2.741   0.916 -1.6211  0.3236  0.4563
  621MOL0     H85696   5.579   2.913   1.041 -3.1334 -3.1640  2.0162
  621MOL0     H85697   5.658   2.774   1.034  0.0553  0.6166  1.0645
  621MOL0     H85698   5.669   2.877   1.185 -1.6911 -0.2332 -0.3908
  622MOL0     O85699   3.192   9.738   6.306  0.4209 -0.2610 -0.4074
  622MOL0     C85700   3.288   9.803   6.345  0.6413 -0.9473  1.0030
  622MOL0     O85701   3.354   9.795   6.467 -0.3133 -0.2353 -0.9109
  622MOL0     C85702   3.299   9.738   6.584 -0.4509  0.1560  0.4275
  622MOL0     C85703   3.380   9.712   6.690 -0.9247  0.3896  0.1794
  622MOL0     C85704   3.332   9.661   6.816 -0.3839 -0.0594 -0.3292
  622MOL0     C85705   3.197   9.620   6.828  0.0892 -0.4520 -0.5059
  622MOL0     O85706   3.150   9.560   6.943  0.9285 -0.5197 -0.2175
  622MOL0     C85707   3.064   9.441   6.925  0.9572 -1.0094  0.1378
  622MOL0     C85708   3.151   9.323   6.960  0.1547  0.0887  0.1381
  622MOL0     C85709   3.287   9.317   6.893 -0.1926 -0.3691 -0.8160
  622MOL0     C85710   3.362   9.195   6.940 -0.3261  0.5286 -0.1574
  622MOL0     C85711   3.498   9.160   6.878 -0.7440  0.3952  0.5933
  622MOL0     C85712   3.498   9.146   6.729  1.6926  0.0299  0.8467
  622MOL0     C85713   3.616   9.054   6.680 -0.0778 -0.6980 -0.0687
  622MOL0     C85714   3.745   9.110   6.724 -0.4219  0.3301  0.4135
  622MOL0     N85715   3.863   9.050   6.652  0.1719  0.2850  0.2844
  622MOL0     C85716   3.893   9.070   6.521 -0.2073  0.0969 -0.4683
  622MOL0     C85717   4.003   9.003   6.496 -0.2381 -0.2537  0.3981
  622MOL0     C85718   4.082   9.001   6.358 -0.7549  0.3898 -0.0534
  622MOL0     C85719   4.022   8.908   6.264 -0.4033 -1.0804  0.1647
  622MOL0     C85720   3.990   8.771   6.317 -0.2330 -0.2331 -0.2241
  622MOL0     C85721   3.988   8.651   6.215 -0.2692 -0.9071  0.3261
  622MOL0     O85722   4.128   8.618   6.171 -0.3911  0.4496  0.1624
  622MOL0     C85723   4.185   8.544   6.264  0.0607  0.3745  0.3128
  622MOL0     C85724   4.138   8.415   6.306  0.1388  0.4429 -1.4327
  622MOL0     C85725   4.213   8.338   6.401  0.4154  0.3203 -0.5044
  622MOL0     C85726   4.162   8.200   6.435  0.2737  1.5659 -0.8794
  622MOL0     C85727   4.330   8.384   6.458 -0.0022 -0.0024  0.7669
  622MOL0     C85728   4.413   8.312   6.559  1.3513  0.1268 -0.6154
  622MOL0     O85729   4.541   8.348   6.584 -0.6057 -0.4838 -0.5493
  622MOL0     C85730   4.600   8.359   6.714  0.5109  0.2444  0.2288
  622MOL0     C85731   4.518   8.373   6.825  0.4584  0.2047  0.4143
  622MOL0     C85732   4.565   8.433   6.942 -0.7300 -0.5570 -0.2025
  622MOL0     C85733   4.708   8.455   6.947  0.0397 -0.0044 -1.0283
  622MOL0     O85734   4.763   8.491   7.068  0.6258 -0.3610 -0.5794
  622MOL0     C85735   4.705   8.605   7.140 -0.3785  0.0906  0.6676
  622MOL0     C85736   4.831   8.696   7.155  0.8396  0.0548 -0.5911
  622MOL0     C85737   4.823   8.821   7.061 -1.4189 -0.4902 -0.0715
  622MOL0     C85738   4.942   8.903   7.067 -0.7453  0.1345  1.7498
  622MOL0     C85739   4.980   8.944   7.208  0.9535  0.4183 -0.6171
  622MOL0     C85740   5.090   9.055   7.203 -0.1199 -0.3755 -0.2791
  622MOL0     C85741   5.236   9.005   7.164  0.3026  0.4658 -0.1979
  622MOL0     C85742   5.289   8.898   7.263  0.2869 -0.2143 -0.6059
  622MOL0    Cl85743   5.275   8.740   7.184 -0.2526 -0.1450 -0.1892
  622MOL0     C85744   4.794   8.426   6.839 -0.1806 -0.5376  0.6279
  622MOL0     C85745   4.738   8.374   6.719 -0.4675  0.2980 -0.3139
  622MOL0     O85746   4.351   8.231   6.629 -0.6140 -0.1611 -0.1606
  622MOL0     C85747   4.371   8.518   6.414  0.0790 -0.4597  0.1937
  622MOL0     C85748   4.297   8.593   6.325  0.3371 -0.0213  0.3258
  622MOL0     N85749   4.041   8.930   6.604 -0.0101 -0.9070  1.2473
  622MOL0     N85750   3.949   8.955   6.699 -0.5741  0.0543 -0.3275
  622MOL0     C85751   3.111   9.646   6.715 -0.0632  0.9919  0.5347
  622MOL0     C85752   3.160   9.701   6.597 -0.0123  0.1411  0.3126
  622MOL0     C85753   3.374   9.867   6.248 -0.3353  0.5628  0.1521
  622MOL0     C85754   3.506   9.887   6.269  1.0560  0.2106 -0.3704
  622MOL0     C85755   3.591   9.938   6.175 -0.6933  0.4023 -0.1544
  622MOL0     C85756   3.543   9.973   6.050 -0.2950  0.3710 -0.4860
  622MOL0     O85757   3.634  10.018   5.967 -0.9868  0.1567 -0.0731
  622MOL0     C85758   3.590  10.069   5.843 -0.1772  0.0351 -0.2371
  622MOL0     C85759   3.696  10.144   5.765  1.3291  0.3662  0.3372
  622MOL0     C85760   3.806  10.047   5.726 -0.8112 -0.0695  0.0111
  622MOL0     C85761   3.760   9.930   5.634  0.7881  0.3379  0.0928
  622MOL0     C85762   3.865   9.898   5.543 -0.2124  0.0667  0.7686
  622MOL0     C85763   3.952   9.878   5.465 -0.1101  0.4409  0.4662
  622MOL0     C85764   3.405   9.970   6.033  0.9247  0.2543  0.1838
  622MOL0     C85765   3.318   9.913   6.130  0.5856  0.3165 -0.0641
  622MOL0     C85766   3.168   9.921   6.092  0.4417  0.8721  0.1468
  622MOL0     H85767   3.484   9.727   6.663 -1.3146  1.0541 -1.0429
  622MOL0     H85768   3.381   9.638   6.910  1.3760  0.8830 -0.9681
  622MOL0     H85769   3.000   9.431   6.836 -1.0291 -0.6394  1.4699
  622MOL0     H85770   2.995   9.458   7.008  2.4914  0.9441  1.0945
  622MOL0     H85771   3.171   9.333   7.067  2.0732  0.4167 -0.2101
  622MOL0     H85772   3.105   9.228   6.932  0.9317 -0.2781  0.0637
  622MOL0     H85773   3.281   9.301   6.785  4.1470 -1.8728 -1.0038
  622MOL0     H85774   3.356   9.400   6.912  0.5081 -0.8631 -1.1884
  622MOL0     H85775   3.391   9.204   7.045  1.2949  1.8954 -0.6753
  622MOL0     H85776   3.292   9.111   6.940  1.4811 -1.0439 -0.9716
  622MOL0     H85777   3.516   9.059   6.917 -3.7223 -0.6282 -0.4123
  622MOL0     H85778   3.578   9.232   6.897 -0.4291  0.8521 -2.0614
  622MOL0     H85779   3.405   9.101   6.692  1.2984  1.2247  0.3371
  622MOL0     H85780   3.504   9.248   6.689 -0.5892  0.6521  1.9365
  622MOL0     H85781   3.617   9.062   6.571  1.0587 -0.2705 -0.0396
  622MOL0     H85782   3.597   8.949   6.704 -3.0467 -0.1354  0.4497
  622MOL0     H85783   3.741   9.218   6.705 -3.1011  0.1908 -0.3165
  622MOL0     H85784   3.764   9.091   6.830  4.6791 -0.4325 -0.4032
  622MOL0     H85785   3.836   9.131   6.451 -1.4089  1.7074  1.7913
  622MOL0     H85786   4.188   8.977   6.367 -0.8624 -1.1154 -2.0838
  622MOL0     H85787   4.086   9.100   6.311  0.9993  0.4530  0.1500
  622MOL0     H85788   3.931   8.947   6.215  0.3246  0.3939 -0.0863
  622MOL0     H85789   4.095   8.901   6.182  0.3318  1.4418  0.5119
  622MOL0     H85790   4.054   8.751   6.404  2.8412 -0.7696 -2.4263
  622MOL0     H85791   3.885   8.762   6.344  0.4107 -2.0184  1.9564
  622MOL0     H85792   3.935   8.562   6.249  0.0159 -1.3227 -0.3020
  622MOL0     H85793   3.932   8.687   6.128 -2.1449 -1.8561  1.0875
  622MOL0     H85794   4.053   8.360   6.267  0.5731 -2.6213  1.5024
  622MOL0     H85795   4.115   8.204   6.533  3.6559  2.0841  0.8479
  622MOL0     H85796   4.241   8.124   6.431  1.1231  2.3707  0.1550
  622MOL0     H85797   4.077   8.164   6.376  0.4952 -1.2139  0.3443
  622MOL0     H85798   4.411   8.354   6.825  0.6241 -0.7806  1.2161
  622MOL0     H85799   4.499   8.452   7.026  0.9332  1.3389  0.7677
  622MOL0     H85800   4.635   8.655   7.073  0.5852 -1.1476 -1.3768
  622MOL0     H85801   4.660   8.574   7.234 -2.4219  0.7291 -0.0399
  622MOL0     H85802   4.829   8.712   7.263  0.8108 -2.2643 -0.1806
  622MOL0     H85803   4.927   8.649   7.129  1.3543  0.7805 -0.0536
  622MOL0     H85804   4.733   8.881   7.078 -2.6281 -2.3315  0.4464
  622MOL0     H85805   4.812   8.793   6.955  3.6565  1.4201 -1.3922
  622MOL0     H85806   4.925   8.981   6.992 -0.8593  1.6173  3.2547
  622MOL0     H85807   5.022   8.845   7.020 -0.6953 -0.1649  2.1938
  622MOL0     H85808   4.893   8.986   7.259  1.4983 -0.4051  1.0737
  622MOL0     H85809   5.014   8.856   7.263 -0.8685 -0.1852 -0.3706
  622MOL0     H85810   5.093   9.107   7.299 -1.2341 -0.0590 -0.4018
  622MOL0     H85811   5.060   9.129   7.129  1.5646  1.6178  0.9389
  622MOL0     H85812   5.300   9.094   7.161  1.8471 -0.6291 -1.8826
  622MOL0     H85813   5.233   8.968   7.061  0.7033  1.0345 -0.4195
  622MOL0     H85814   5.223   8.897   7.351  0.6099  1.1094 -0.3236
  622MOL0     H85815   5.392   8.920   7.294 -0.9821 -0.6169  5.1093
  622MOL0     H85816   4.900   8.449   6.840 -0.4752  0.9145  2.0950
  622MOL0     H85817   4.794   8.373   6.626 -0.1156  3.2051 -0.2345
  622MOL0     H85818   4.464   8.567   6.442  0.8733 -0.4401 -2.2327
  622MOL0     H85819   4.332   8.694   6.309 -1.8484  0.4245 -2.4600
  622MOL0     H85820   3.004   9.629   6.722 -0.1803  1.9964  1.5818
  622MOL0     H85821   3.094   9.739   6.520 -1.0800 -2.5198 -0.1893
  622MOL0     H85822   3.562   9.847   6.353 -3.2186 -2.6991  1.4621
  622MOL0     H85823   3.694   9.949   6.209 -1.0285  2.9469  0.2328
  622MOL0     H85824   3.558   9.983   5.785  2.9351 -1.6845  0.4061
  622MOL0     H85825   3.507  10.138   5.865  0.0737 -0.4182  2.5414
  622MOL0     H85826   3.747  10.218   5.827  2.5197 -1.3263  1.4568
  622MOL0     H85827   3.653  10.191   5.676  1.4695 -1.0880 -0.5416
  622MOL0     H85828   3.871  10.111   5.666 -0.7960 -0.2184 -0.1352
  622MOL0     H85829   3.859  10.008   5.813  0.7027  0.0047 -0.8372
  622MOL0     H85830   3.669   9.966   5.585  0.8872  0.8204  0.2670
  622MOL0     H85831   3.729   9.847   5.699 -0.4320  0.8940  0.2373
  622MOL0     H85832   4.041   9.864   5.406 -1.4173 -1.1808 -1.2360
  622MOL0     H85833   3.358  10.010   5.944  2.8807  1.1543 -0.5153
  622MOL0     H85834   3.098   9.900   6.173 -1.2679 -1.5520 -1.8301
  622MOL0     H85835   3.141  10.026   6.073 -2.6790  0.3613  1.2486
  622MOL0     H85836   3.129   9.865   6.006 -2.0897  1.1638  1.0122
  623MOL0     O85837   1.667  10.180   6.391 -0.1420 -0.3027 -0.2811
  623MOL0     C85838   1.682  10.120   6.286 -0.7430 -0.0730  0.5681
  623MOL0     O85839   1.785  10.149   6.192  0.3907 -0.7723  0.8085
  623MOL0     C85840   1.884  10.235   6.224  0.8327  0.2557  0.5836
  623MOL0     C85841   1.996  10.183   6.284  0.0146  0.0665  0.6631
  623MOL0     C85842   2.105  10.268   6.311  0.0901 -0.7059  0.5243
  623MOL0     C85843   2.119  10.397   6.255  0.1802 -1.2134 -0.0521
  623MOL0     O85844   2.232  10.470   6.255 -0.0055 -0.0883 -0.1773
  623MOL0     C85845   2.358  10.409   6.304 -0.1843 -0.6097  0.2168
  623MOL0     C85846   2.474  10.496   6.258 -0.3736  0.9441 -0.2786
  623MOL0     C85847   2.601  10.461   6.341  0.3770 -0.3169 -0.8323
  623MOL0     C85848   2.735  10.465   6.269 -0.0156 -0.5205 -0.2184
  623MOL0     C85849   2.762  10.613   6.224  0.3196  0.7606  0.1512
  623MOL0     C85850   2.760  10.728   6.322 -0.2792 -0.9945  1.0918
  623MOL0     C85851   2.875  10.709   6.425 -0.2630 -0.7278  0.7037
  623MOL0     C85852   3.005  10.743   6.351 -0.2489  0.3273  0.8724
  623MOL0     N85853   3.075  10.624   6.292  0.7696 -0.8179  0.1573
  623MOL0     C85854   3.104  10.505   6.344  0.1428  0.1726  0.0751
  623MOL0     C85855   3.188  10.442   6.255  0.4637 -0.2086  0.3699
  623MOL0     C85856   3.238  10.304   6.275 -0.1223  0.6169  0.2177
  623MOL0     C85857   3.379  10.300   6.350 -0.5351  0.1914 -1.4259
  623MOL0     C85858   3.503  10.353   6.267 -0.4220 -0.8483 -0.1270
  623MOL0     C85859   3.638  10.318   6.333  0.5082  0.3078  0.3598
  623MOL0     O85860   3.612  10.228   6.448 -0.3517  0.5944  0.4799
  623MOL0     C85861   3.720  10.170   6.512 -0.0268  0.1229  0.4677
  623MOL0     C85862   3.701  10.066   6.598 -0.0397 -0.2046  0.0508
  623MOL0     C85863   3.803  10.000   6.671 -0.9695 -0.5173 -0.8679
  623MOL0     C85864   3.766   9.877   6.759  0.0364 -0.5386  0.6376
  623MOL0     C85865   3.933  10.049   6.664 -0.7917 -0.3259 -0.1075
  623MOL0     C85866   4.048  10.008   6.737 -0.2113  1.2055  0.5185
  623MOL0     O85867   4.164  10.076   6.701 -0.2394  0.2296 -0.3437
  623MOL0     C85868   4.285  10.029   6.740  0.1920 -1.1472 -0.4822
  623MOL0     C85869   4.325   9.894   6.718 -0.4246 -0.8692  0.3073
  623MOL0     C85870   4.451   9.841   6.760 -0.3812  0.1381 -0.6013
  623MOL0     C85871   4.554   9.932   6.808  0.2555  0.2550  0.2593
  623MOL0     O85872   4.668   9.873   6.842 -0.1866 -0.3415 -0.1866
  623MOL0     C85873   4.778   9.961   6.887  0.1689 -0.6598 -0.9513
  623MOL0     C85874   4.775   9.974   7.043  0.1655  0.0509  0.0368
  623MOL0     C85875   4.896  10.053   7.091 -0.4942 -0.1166  0.3260
  623MOL0     C85876   4.912  10.035   7.242 -0.0980  0.3569 -0.4442
  623MOL0     C85877   5.035  10.098   7.311  0.6715  0.6603 -0.0883
  623MOL0     C85878   5.171  10.084   7.243 -0.2905  0.9361  0.3031
  623MOL0     C85879   5.280  10.110   7.342 -0.7563 -0.4889  0.4509
  623MOL0     C85880   5.419  10.114   7.279  0.0884 -0.7837 -1.2020
  623MOL0    Cl85881   5.456   9.951   7.216  0.0657 -0.4120  0.5479
  623MOL0     C85882   4.521  10.065   6.822 -0.0073  0.7435  0.6166
  623MOL0     C85883   4.389  10.112   6.790 -0.5215  0.0632 -0.0152
  623MOL0     O85884   4.047   9.921   6.826 -0.4871 -0.0972 -0.3519
  623MOL0     C85885   3.953  10.163   6.581  0.0407  0.4368  0.2258
  623MOL0     C85886   3.846  10.223   6.510  0.1399  0.4237  0.9561
  623MOL0     N85887   3.204  10.530   6.145 -0.2328  0.8494  0.1949
  623MOL0     N85888   3.131  10.633   6.170 -0.1722  0.2588  0.4222
  623MOL0     C85889   1.991  10.443   6.208 -0.7757 -0.2498  0.0592
  623MOL0     C85890   1.877  10.363   6.193 -0.5571 -0.7543 -0.4288
  623MOL0     C85891   1.610   9.990   6.274  0.2941  0.2064  0.3937
  623MOL0     C85892   1.476  10.009   6.231  0.4412  0.5117 -0.5417
  623MOL0     C85893   1.396   9.892   6.236 -0.2591 -0.4903 -0.5941
  623MOL0     C85894   1.445   9.762   6.268 -0.6347  0.3698 -0.5940
  623MOL0     O85895   1.351   9.664   6.272 -0.9817  0.2373  0.7532
  623MOL0     C85896   1.392   9.529   6.276 -0.3652 -0.5558 -0.5344
  623MOL0     C85897   1.465   9.482   6.143 -0.1860 -0.3983  0.7251
  623MOL0     C85898   1.517   9.338   6.164  0.9726  0.0229 -0.6108
  623MOL0     C85899   1.676   9.333   6.138  0.5342 -0.5208 -0.1366
  623MOL0     C85900   1.714   9.368   6.000  0.5124  0.3282  0.4113
  623MOL0     C85901   1.733   9.387   5.881  0.3482 -0.3886  0.0202
  623MOL0     C85902   1.587   9.753   6.277 -0.6628  0.1190 -0.9622
  623MOL0     C85903   1.665   9.863   6.292  0.7766  0.7034  0.3995
  623MOL0     C85904   1.804   9.849   6.338  0.3126  0.0287  0.4952
  623MOL0     H85905   2.001  10.078   6.311 -2.0914 -0.3137 -0.1689
  623MOL0     H85906   2.191  10.218   6.354  1.1457 -0.2729 -1.0150
  623MOL0     H85907   2.380  10.315   6.253 -0.0601  0.4109 -1.7170
  623MOL0     H85908   2.359  10.399   6.413  1.0107 -2.8416  0.0689
  623MOL0     H85909   2.487  10.470   6.153 -1.1870  0.6626 -0.3185
  623MOL0     H85910   2.459  10.604   6.267 -0.9097  1.0288 -1.9446
  623MOL0     H85911   2.602  10.532   6.424 -0.3293  0.4335 -1.4483
  623MOL0     H85912   2.592  10.360   6.382  0.2863  0.4909  1.2769
  623MOL0     H85913   2.812  10.422   6.335 -1.8227 -0.0376  2.3306
  623MOL0     H85914   2.732  10.395   6.185  0.8831 -3.1043  1.7512
  623MOL0     H85915   2.691  10.644   6.146  0.8204 -0.1204 -0.6795
  623MOL0     H85916   2.858  10.607   6.172 -0.8990 -0.6020 -2.1077
  623MOL0     H85917   2.784  10.818   6.265 -0.3672 -0.7543  1.4362
  623MOL0     H85918   2.662  10.736   6.369 -1.5066  0.5408 -1.4852
  623MOL0     H85919   2.862  10.607   6.465 -3.4576 -0.6174  0.2173
  623MOL0     H85920   2.855  10.787   6.499 -2.2416  1.6352 -2.1253
  623MOL0     H85921   2.985  10.815   6.271 -1.6279 -2.5162 -1.5380
  623MOL0     H85922   3.079  10.790   6.416  1.0895  1.5680 -1.4508
  623MOL0     H85923   3.064  10.463   6.436  1.6862 -1.6999 -0.0269
  623MOL0     H85924   3.246  10.255   6.178  4.2302 -2.8507  1.9879
  623MOL0     H85925   3.162  10.252   6.334  0.8064 -0.6378  0.3377
  623MOL0     H85926   3.383  10.358   6.443  1.0814  1.4049 -2.1975
  623MOL0     H85927   3.389  10.193   6.369 -2.6108  0.1777 -0.0561
  623MOL0     H85928   3.501  10.304   6.169  0.9015 -1.7503  0.2662
  623MOL0     H85929   3.501  10.459   6.244 -2.2443  0.0433  3.4330
  623MOL0     H85930   3.705  10.275   6.258  1.7594 -0.9294  2.0928
  623MOL0     H85931   3.689  10.411   6.356 -1.7415  2.3279 -2.2143
  623MOL0     H85932   3.597  10.036   6.603 -0.6856  1.2673 -2.8127
  623MOL0     H85933   3.789   9.887   6.865 -1.2669 -0.3328  0.9229
  623MOL0     H85934   3.826   9.804   6.705 -0.3626  0.4062 -1.1716
  623MOL0     H85935   3.659   9.858   6.751  0.0980 -1.0991  1.1358
  623MOL0     H85936   4.256   9.824   6.672 -0.8807 -0.0452 -0.2921
  623MOL0     H85937   4.465   9.734   6.756  0.5095  0.1503  1.1931
  623MOL0     H85938   4.868   9.912   6.847  0.8256  1.4397 -2.1870
  623MOL0     H85939   4.784  10.062   6.846  0.5600  1.0228  2.7896
  623MOL0     H85940   4.677  10.012   7.074  0.0560 -0.4459  0.3135
  623MOL0     H85941   4.787   9.875   7.089  2.1993  0.4530  0.4436
  623MOL0     H85942   4.897  10.159   7.066 -1.4660 -0.2235 -0.1859
  623MOL0     H85943   4.980  10.011   7.034 -1.9374 -2.0047 -0.5135
  623MOL0     H85944   4.922   9.928   7.261 -2.2931  0.5755  2.6102
  623MOL0     H85945   4.821  10.056   7.299  0.3173  1.0345 -0.0142
  623MOL0     H85946   5.006  10.202   7.330 -1.6273 -0.0634  0.7696
  623MOL0     H85947   5.032  10.053   7.411 -1.8597  1.8845  0.4603
  623MOL0     H85948   5.196  10.161   7.169  3.7656  0.3424  0.8434
  623MOL0     H85949   5.170   9.984   7.201 -2.7891  0.8227  0.4563
  623MOL0     H85950   5.278  10.026   7.413 -0.2127 -1.2808 -0.4611
  623MOL0     H85951   5.270  10.212   7.381  0.5780  1.1873 -3.1723
  623MOL0     H85952   5.493  10.134   7.356 -0.9161 -1.6819  0.0264
  623MOL0     H85953   5.421  10.195   7.205  0.4559  2.2214  1.8342
  623MOL0     H85954   4.593  10.139   6.856 -0.6688  1.7226 -0.0585
  623MOL0     H85955   4.361  10.213   6.818  1.3049  0.3315  0.9923
  623MOL0     H85956   4.054  10.194   6.557 -0.4819 -0.4543 -3.6656
  623MOL0     H85957   3.857  10.307   6.442  2.6845 -0.8786 -0.3744
  623MOL0     H85958   1.989  10.538   6.155 -1.5716 -0.4993 -0.3728
  623MOL0     H85959   1.789  10.404   6.144 -1.8600 -1.5826  1.1059
  623MOL0     H85960   1.445  10.104   6.187  4.0023  2.1732  0.1952
  623MOL0     H85961   1.289   9.900   6.219 -0.1471  1.0485 -0.7437
  623MOL0     H85962   1.460   9.507   6.359  1.9763 -0.4896 -2.3185
  623MOL0     H85963   1.304   9.465   6.286 -0.8289  0.3484  1.5932
  623MOL0     H85964   1.545   9.556   6.127 -0.1074 -0.0973  2.3395
  623MOL0     H85965   1.403   9.502   6.055 -0.4555  2.8823  1.5178
  623MOL0     H85966   1.503   9.309   6.269  1.6922  1.1024 -0.1945
  623MOL0     H85967   1.479   9.256   6.103 -0.2061 -1.8632  2.3835
  623MOL0     H85968   1.718   9.235   6.159  0.7234  0.3705  4.7606
  623MOL0     H85969   1.727   9.404   6.204  1.7240 -1.3263 -0.1641
  623MOL0     H85970   1.777   9.397   5.784 -1.0516 -0.6864 -0.6679
  623MOL0     H85971   1.635   9.656   6.285 -3.6324 -1.5745 -2.0064
  623MOL0     H85972   1.870   9.909   6.274 -0.6209 -0.7378 -1.2433
  623MOL0     H85973   1.810   9.884   6.442 -3.6177  0.7140  0.6611
  623MOL0     H85974   1.833   9.744   6.340  0.2865 -0.0233 -0.9937
  624MOL0     O85975   6.092   1.431  10.855  1.1512  0.0202 -0.0415
  624MOL0     C85976   6.113   1.536  10.924 -0.2984 -0.0133 -0.3802
  624MOL0     O85977   6.075   1.662  10.884 -0.1896 -0.1929  0.9180
  624MOL0     C85978   5.998   1.684  10.761 -0.7748 -0.6311 -0.0491
  624MOL0     C85979   6.010   1.809  10.704  0.9011  0.2104 -0.0439
  624MOL0     C85980   5.943   1.847  10.584  0.4261 -0.4571 -0.0266
  624MOL0     C85981   5.844   1.766  10.533 -0.4567  0.1472  0.3969
  624MOL0     O85982   5.784   1.804  10.414 -0.0705 -0.2823 -0.5328
  624MOL0     C85983   5.717   1.931  10.401 -0.3043 -0.4093 -0.4639
  624MOL0     C85984   5.593   1.920  10.313  1.1199  0.1925 -0.1803
  624MOL0     C85985   5.471   1.853  10.386 -0.7679 -0.1332 -0.5386
  624MOL0     C85986   5.402   1.947  10.493  0.8575 -0.1324  0.6579
  624MOL0     C85987   5.251   1.923  10.516 -0.2726  0.8629 -0.0837
  624MOL0     C85988   5.223   1.779  10.571 -0.6346 -0.2302  0.5822
  624MOL0     C85989   5.074   1.780  10.611  0.1635 -0.9877 -0.0156
  624MOL0     C85990   5.027   1.641  10.629  0.4089 -0.4548  0.1042
  624MOL0     N85991   4.882   1.623  10.640 -0.6590 -0.1817 -0.1476
  624MOL0     C85992   4.806   1.647  10.746  0.3323  0.3930 -0.5148
  624MOL0     C85993   4.684   1.665  10.701  0.9234  0.1675  0.6978
  624MOL0     C85994   4.557   1.703  10.764  0.9272 -0.1963 -0.6738
  624MOL0     C85995   4.572   1.779  10.898  0.5937  0.0278 -0.0676
  624MOL0     C85996   4.435   1.794  10.973 -0.3638 -0.3902  0.3157
  624MOL0     C85997   4.454   1.873  11.099  0.0801 -0.4373  0.0619
  624MOL0     O85998   4.549   1.821  11.184 -0.1345  0.2611 -0.2267
  624MOL0     C85999   4.614   1.916  11.256  0.4607 -0.3376  0.1106
  624MOL0     C86000   4.747   1.892  11.295 -0.0344 -0.7446 -0.3082
  624MOL0     C86001   4.822   1.992  11.360  0.7348 -0.1240 -0.2101
  624MOL0     C86002   4.963   1.965  11.386  0.0873 -0.1953 -0.0806
  624MOL0     C86003   4.756   2.108  11.409 -1.3772 -0.3894  0.8125
  624MOL0     C86004   4.826   2.204  11.496  0.5956  0.0889  0.3826
  624MOL0     O86005   4.812   2.179  11.631  0.2818  0.1857  0.0048
  624MOL0     C86006   4.900   2.249  11.715  0.2001  0.5799 -0.1996
  624MOL0     C86007   4.911   2.390  11.724 -0.5714 -0.5117 -0.5538
  624MOL0     C86008   4.997   2.454  11.828  0.1984  1.0338  0.0285
  624MOL0     C86009   5.067   2.372  11.915  0.0827  0.2890  0.8709
  624MOL0     O86010   5.148   2.437  12.004  0.4798 -0.3725  0.0772
  624MOL0     C86011   5.209   2.362  12.111 -0.5349  1.2306 -0.3394
  624MOL0     C86012   5.109   2.335  12.222 -0.0882 -0.1369 -0.1782
  624MOL0     C86013   5.168   2.244  12.332 -0.2662  0.0992 -0.5174
  624MOL0     C86014   5.318   2.255  12.372 -0.4012  0.2065  0.1305
  624MOL0     C86015   5.352   2.385  12.427  0.0101  0.2205  0.6789
  624MOL0     C86016   5.493   2.415  12.417 -0.7123 -0.0039  0.3846
  624MOL0     C86017   5.580   2.294  12.479  0.4566  0.4803  0.0825
  624MOL0     C86018   5.732   2.318  12.476  0.0075 -0.0107 -0.1192
  624MOL0    Cl86019   5.788   2.491  12.520  0.0615 -0.1993 -0.1930
  624MOL0     C86020   5.058   2.233  11.900 -0.5468  0.2947 -0.2837
  624MOL0     C86021   4.964   2.167  11.821 -0.4046 -0.1630  0.1649
  624MOL0     O86022   4.899   2.286  11.447  0.4850 -0.3960  0.5063
  624MOL0     C86023   4.628   2.136  11.366 -0.7716  0.9286 -0.5244
  624MOL0     C86024   4.549   2.038  11.297  0.7038 -0.5947  0.2014
  624MOL0     N86025   4.691   1.649  10.563 -0.2269 -0.5894  0.4929
  624MOL0     N86026   4.811   1.628  10.529  0.4475  0.0293  0.4631
  624MOL0     C86027   5.822   1.637  10.582 -0.8873 -0.8715 -0.6017
  624MOL0     C86028   5.908   1.598  10.698  0.5892  0.8887  0.4030
  624MOL0     C86029   6.212   1.526  11.048 -0.0597  0.2863  0.7782
  624MOL0     C86030   6.195   1.636  11.132  0.1027 -0.7972 -0.0030
  624MOL0     C86031   6.282   1.658  11.238  0.0261 -0.0755  0.7289
  624MOL0     C86032   6.389   1.568  11.258  0.4362  0.1617 -0.6637
  624MOL0     O86033   6.495   1.584  11.351  0.4213  0.0137  0.3607
  624MOL0     C86034   6.507   1.719  11.403 -0.6563  0.1455 -0.5696
  624MOL0     C86035   6.645   1.727  11.474  0.4692 -0.6390  0.6049
  624MOL0     C86036   6.758   1.789  11.383 -1.1060  0.4617  1.0561
  624MOL0     C86037   6.883   1.833  11.467  0.5669 -0.5735  0.6421
  624MOL0     C86038   6.955   1.933  11.387  0.1232 -0.3180  0.0388
  624MOL0     C86039   7.015   2.019  11.329  0.5227  0.1726 -0.6784
  624MOL0     C86040   6.394   1.451  11.178  0.0819  0.0394 -0.4471
  624MOL0     C86041   6.307   1.427  11.071  0.5562 -0.1234  0.6316
  624MOL0     C86042   6.330   1.304  10.989 -0.5589 -0.0337  0.2177
  624MOL0     H86043   6.073   1.879  10.759 -0.3199  1.0386  0.3247
  624MOL0     H86044   5.949   1.944  10.535 -0.8501  0.9256  2.3867
  624MOL0     H86045   5.782   1.993  10.339 -1.3422  1.1122 -0.1213
  624MOL0     H86046   5.702   1.984  10.496 -0.0367  2.4154 -1.8826
  624MOL0     H86047   5.567   2.025  10.292  2.1257  2.6980  7.5970
  624MOL0     H86048   5.614   1.856  10.228  0.0952 -0.4399  0.0251
  624MOL0     H86049   5.388   1.823  10.321 -2.5296  0.6577  1.2618
  624MOL0     H86050   5.498   1.759  10.434 -1.3472 -0.5578 -1.0301
  624MOL0     H86051   5.445   1.921  10.590  0.5683 -0.5950  0.6698
  624MOL0     H86052   5.436   2.050  10.480  4.0827 -1.1774 -0.2506
  624MOL0     H86053   5.204   1.922  10.417  0.7650 -1.5727 -0.6203
  624MOL0     H86054   5.213   2.001  10.583  2.0199  1.0745  1.0483
  624MOL0     H86055   5.238   1.698  10.498 -0.6418  0.1351  0.1698
  624MOL0     H86056   5.280   1.760  10.662  1.3385 -2.5627 -1.0234
  624MOL0     H86057   5.016   1.837  10.538 -1.6906  0.6746  2.5337
  624MOL0     H86058   5.062   1.840  10.703 -0.0299  0.0926 -0.7255
  624MOL0     H86059   5.061   1.574  10.549  1.4755 -1.0466  1.0138
  624MOL0     H86060   5.066   1.610  10.726 -2.2638  0.6519  1.6318
  624MOL0     H86061   4.849   1.660  10.845 -3.3743  1.8394  1.0889
  624MOL0     H86062   4.496   1.615  10.785 -2.7876  2.6597  1.8164
  624MOL0     H86063   4.502   1.767  10.694 -2.1399 -0.2463  1.4745
  624MOL0     H86064   4.648   1.730  10.959  2.6261 -0.5834 -2.8890
  624MOL0     H86065   4.601   1.884  10.886 -0.0075  1.0302  4.8574
  624MOL0     H86066   4.361   1.838  10.905  1.5022 -2.1802 -3.1810
  624MOL0     H86067   4.400   1.694  10.998 -0.2050 -1.0276 -1.7790
  624MOL0     H86068   4.480   1.973  11.066  2.6666 -2.1033 -3.6594
  624MOL0     H86069   4.361   1.884  11.156  0.6989 -1.9356  1.4577
  624MOL0     H86070   4.801   1.800  11.276  3.2817  0.6508  1.5438
  624MOL0     H86071   5.024   1.942  11.298  0.3639 -2.6164  0.6708
  624MOL0     H86072   4.970   1.876  11.449 -0.7618 -1.6205 -1.9116
  624MOL0     H86073   5.014   2.044  11.442 -1.5330 -0.3471  1.6918
  624MOL0     H86074   4.857   2.454  11.656 -2.7582 -1.0379  0.6129
  624MOL0     H86075   5.003   2.561  11.842  0.8071  1.1414 -0.9427
  624MOL0     H86076   5.268   2.273  12.085  2.6230  3.2910 -0.7681
  624MOL0     H86077   5.287   2.432  12.142 -0.2417  1.5873 -1.7789
  624MOL0     H86078   5.085   2.433  12.265 -0.0954  0.2045 -0.9282
  624MOL0     H86079   5.018   2.285  12.187  1.5083 -4.8079  1.6044
  624MOL0     H86080   5.144   2.144  12.296  3.6688 -1.2140  0.0790
  624MOL0     H86081   5.102   2.265  12.416  2.1860  1.2969  1.2279
  624MOL0     H86082   5.378   2.216  12.289 -1.2695  0.1814 -0.4885
  624MOL0     H86083   5.335   2.190  12.458  1.6100 -0.3305 -0.5957
  624MOL0     H86084   5.303   2.467  12.374  1.2739  0.5736 -0.0037
  624MOL0     H86085   5.328   2.380  12.533 -2.3284 -2.1911  0.1321
  624MOL0     H86086   5.511   2.510  12.468 -1.0923  0.7072 -0.7703
  624MOL0     H86087   5.527   2.424  12.313  0.2878 -0.8488  0.6172
  624MOL0     H86088   5.552   2.199  12.432  1.1675  0.6009 -0.6082
  624MOL0     H86089   5.557   2.266  12.582  1.3843  0.3097  0.2507
  624MOL0     H86090   5.751   2.304  12.369 -0.9386  0.5635 -0.3785
  624MOL0     H86091   5.788   2.245  12.535  1.5319  2.0688  1.1120
  624MOL0     H86092   5.116   2.169  11.967  2.4124  0.1060 -2.7744
  624MOL0     H86093   4.964   2.059  11.812  2.7970 -0.1474 -1.4610
  624MOL0     H86094   4.574   2.218  11.412 -2.4747  1.2567 -2.9314
  624MOL0     H86095   4.446   2.062  11.276  1.0550  2.3631  1.4036
  624MOL0     H86096   5.748   1.578  10.529 -3.2398  1.2732  0.0862
  624MOL0     H86097   5.896   1.495  10.730  0.8142  0.5177 -0.6633
  624MOL0     H86098   6.114   1.706  11.116 -1.1387 -2.3834 -0.8902
  624MOL0     H86099   6.258   1.744  11.299 -2.3637  0.4182 -0.7949
  624MOL0     H86100   6.494   1.800  11.331  0.1165 -0.5049 -1.4636
  624MOL0     H86101   6.429   1.731  11.478  0.8177 -0.2891  1.0990
  624MOL0     H86102   6.657   1.626  11.514 -3.9387 -1.3761  0.4868
  624MOL0     H86103   6.639   1.793  11.561  0.3127  1.1784 -0.7075
  624MOL0     H86104   6.792   1.725  11.301  0.7322  3.2115 -0.5011
  624MOL0     H86105   6.720   1.876  11.328  0.7355 -0.4010 -1.8408
  624MOL0     H86106   6.951   1.747  11.476  3.3549  1.2294 -1.5101
  624MOL0     H86107   6.856   1.864  11.568  0.7824  1.8819 -0.0052
  624MOL0     H86108   7.077   2.102  11.300 -0.3387  0.7264 -1.0180
  624MOL0     H86109   6.461   1.372  11.209 -1.1567 -1.5273 -1.5833
  624MOL0     H86110   6.289   1.217  11.041  0.2551  1.0565  2.8519
  624MOL0     H86111   6.287   1.310  10.889 -1.8136 -1.5012  0.6233
  624MOL0     H86112   6.439   1.303  10.978 -0.4511  3.0810  0.1136
  625MOL0     O86113   5.104   8.290   8.173  0.3833  0.9173 -0.1854
  625MOL0     C86114   5.103   8.373   8.269 -0.0916  0.6094  0.2655
  625MOL0     O86115   5.061   8.501   8.249  0.2619  0.8352  0.3250
  625MOL0     C86116   4.977   8.512   8.145 -0.2145 -0.7056 -0.4152
  625MOL0     C86117   4.840   8.495   8.166 -0.1977 -0.3543  0.4411
  625MOL0     C86118   4.754   8.513   8.051 -0.0906  0.0394 -1.2714
  625MOL0     C86119   4.799   8.565   7.925 -0.0585  0.0812 -0.7772
  625MOL0     O86120   4.707   8.585   7.824 -0.3733 -0.3473 -0.4645
  625MOL0     C86121   4.719   8.503   7.707  0.1093  0.1163  0.6759
  625MOL0     C86122   4.605   8.550   7.614 -0.5582 -0.4427 -0.7796
  625MOL0     C86123   4.610   8.701   7.577  0.7551 -0.2722 -0.1720
  625MOL0     C86124   4.503   8.760   7.466 -0.1881  0.2498  0.9201
  625MOL0     C86125   4.523   8.911   7.463  0.8219 -0.5266  0.2486
  625MOL0     C86126   4.456   8.984   7.349  0.3834  0.0978  0.5713
  625MOL0     C86127   4.484   9.130   7.343  0.2534  0.1758 -0.0296
  625MOL0     C86128   4.384   9.187   7.240  0.0810  0.1090 -0.1226
  625MOL0     N86129   4.431   9.311   7.185 -0.5514  0.5636 -0.1253
  625MOL0     C86130   4.410   9.439   7.232 -0.2124  0.6239 -0.4051
  625MOL0     C86131   4.468   9.520   7.150  0.2217 -0.1534  0.7864
  625MOL0     C86132   4.480   9.681   7.142  1.0555 -0.2926  0.7011
  625MOL0     C86133   4.345   9.750   7.132 -0.3674  0.8776  0.1289
  625MOL0     C86134   4.364   9.898   7.124  0.6985  0.5292 -0.5269
  625MOL0     C86135   4.224   9.957   7.132  0.7638  0.0211 -0.2958
  625MOL0     O86136   4.242  10.099   7.153 -0.0366 -0.0296  0.3964
  625MOL0     C86137   4.139  10.185   7.122 -0.5912 -0.6363 -0.4323
  625MOL0     C86138   4.012  10.149   7.096  1.5191  0.0771  0.7221
  625MOL0     C86139   3.909  10.242   7.056  0.0723  0.5928 -0.1597
  625MOL0     C86140   3.772  10.189   7.008 -0.0598 -0.1765  0.6325
  625MOL0     C86141   3.939  10.379   7.054 -0.2089  1.1453 -0.6356
  625MOL0     C86142   3.850  10.489   7.012 -0.3001  0.1552 -0.4279
  625MOL0     O86143   3.764  10.532   7.113 -0.0555 -0.1792 -0.5443
  625MOL0     C86144   3.699  10.652   7.089 -0.3945  0.6081 -0.3091
  625MOL0     C86145   3.564  10.657   7.059  0.1739  0.2956 -0.6592
  625MOL0     C86146   3.496  10.772   7.037  0.4172 -0.8118  0.6959
  625MOL0     C86147   3.560  10.897   7.046 -0.4190  0.2558 -0.6007
  625MOL0     O86148   3.510  11.017   7.031 -0.9803 -0.0468 -0.1686
  625MOL0     C86149   3.386  11.028   6.962 -0.3979  0.1865  0.0140
  625MOL0     C86150   3.351  11.179   6.939  0.6998  1.0176  0.0550
  625MOL0     C86151   3.201  11.202   6.901 -0.5470  0.1390  0.9281
  625MOL0     C86152   3.175  11.355   6.879  0.8753 -0.8139 -0.5213
  625MOL0     C86153   3.030  11.402   6.884  0.7954 -0.9862 -0.3832
  625MOL0     C86154   2.950  11.379   6.755  0.4182  0.1432  0.2343
  625MOL0     C86155   2.804  11.429   6.761  0.1529 -0.2397  0.0662
  625MOL0     C86156   2.708  11.327   6.813 -0.1513  0.1342  0.0052
  625MOL0    Cl86157   2.701  11.162   6.734  0.0438 -0.0662 -0.3241
  625MOL0     C86158   3.700  10.894   7.073  0.4437 -0.4343  0.3724
  625MOL0     C86159   3.765  10.775   7.100  0.6320 -0.1622 -0.4346
  625MOL0     O86160   3.874  10.541   6.905 -0.4498  0.4864 -0.3366
  625MOL0     C86161   4.071  10.415   7.104 -0.2049  0.2793 -0.0052
  625MOL0     C86162   4.171  10.322   7.119  0.0565  0.8591  0.0493
  625MOL0     N86163   4.523   9.440   7.051 -0.3286 -0.4828  0.0369
  625MOL0     N86164   4.514   9.316   7.080 -0.6626 -0.5099 -0.0925
  625MOL0     C86165   4.934   8.598   7.918 -0.0871  0.6844  0.3937
  625MOL0     C86166   5.025   8.572   8.021  0.4372  0.5064 -0.6228
  625MOL0     C86167   5.131   8.342   8.409  0.5525 -0.2114  0.3773
  625MOL0     C86168   5.209   8.228   8.438 -0.0317 -0.3203  0.3092
  625MOL0     C86169   5.248   8.200   8.573  0.6681 -0.4380  0.9086
  625MOL0     C86170   5.201   8.272   8.684 -0.2774  0.9848  0.0229
  625MOL0     O86171   5.226   8.225   8.813  0.0873 -0.8499  0.0345
  625MOL0     C86172   5.236   8.312   8.923  1.6258  0.2468 -0.4609
  625MOL0     C86173   5.372   8.368   8.935 -1.3050 -0.2381  0.4640
  625MOL0     C86174   5.478   8.263   8.910  0.1357 -0.3067 -0.3313
  625MOL0     C86175   5.613   8.331   8.951  1.4722 -0.8186  0.5612
  625MOL0     C86176   5.724   8.296   8.862 -0.0758  0.1978 -0.0510
  625MOL0     C86177   5.809   8.269   8.780  0.4979  0.1972 -0.2915
  625MOL0     C86178   5.128   8.383   8.652 -0.7525  0.5613 -0.0080
  625MOL0     C86179   5.090   8.427   8.524  0.0655 -0.1464  0.3328
  625MOL0     C86180   5.000   8.548   8.520 -0.2703 -1.0344 -0.5292
  625MOL0     H86181   4.803   8.466   8.264  3.1676 -2.2005  1.3531
  625MOL0     H86182   4.651   8.486   8.068  0.5374 -2.0613 -0.5183
  625MOL0     H86183   4.703   8.398   7.730  0.5807  0.1808  1.3448
  625MOL0     H86184   4.814   8.517   7.654 -1.2190 -0.7668 -2.0971
  625MOL0     H86185   4.600   8.495   7.519 -3.9295 -0.9425 -0.4604
  625MOL0     H86186   4.505   8.530   7.655 -1.3347  3.3020 -0.4500
  625MOL0     H86187   4.611   8.763   7.667  0.6396 -0.4693 -0.0322
  625MOL0     H86188   4.708   8.722   7.533  1.5528  1.5453  2.2201
  625MOL0     H86189   4.527   8.715   7.369 -4.2205  3.3097 -1.8070
  625MOL0     H86190   4.398   8.742   7.489  0.3373 -4.5268  0.7062
  625MOL0     H86191   4.626   8.948   7.468 -0.1299  2.1942  0.9022
  625MOL0     H86192   4.486   8.948   7.559  0.5708  0.7782 -0.3291
  625MOL0     H86193   4.499   8.940   7.258  1.4210 -0.9616  1.5264
  625MOL0     H86194   4.349   8.959   7.349  0.5541 -0.6871  0.2700
  625MOL0     H86195   4.580   9.154   7.295  0.6962  0.0241  0.7561
  625MOL0     H86196   4.484   9.181   7.440  0.9672 -0.4281  0.3032
  625MOL0     H86197   4.363   9.115   7.160  1.6373  2.4143 -2.7813
  625MOL0     H86198   4.283   9.202   7.280 -0.4818  1.3473 -1.8852
  625MOL0     H86199   4.353   9.456   7.324  3.0347 -2.3602  2.4410
  625MOL0     H86200   4.521   9.701   7.043  0.0470  0.2052  0.3710
  625MOL0     H86201   4.551   9.708   7.221  1.9321  1.6048 -0.6531
  625MOL0     H86202   4.292   9.718   7.042 -0.4731  0.2780  0.3924
  625MOL0     H86203   4.284   9.718   7.218 -0.6229  1.4535  0.1634
  625MOL0     H86204   4.436   9.924   7.202  2.1135 -1.4427 -1.0837
  625MOL0     H86205   4.402   9.922   7.024  2.4107  0.0894 -0.0152
  625MOL0     H86206   4.168   9.926   7.043 -1.5541  1.9759  0.3806
  625MOL0     H86207   4.170   9.919   7.220  0.5747  1.7556  0.3714
  625MOL0     H86208   3.979  10.045   7.091 -2.5406  1.1836  1.3086
  625MOL0     H86209   3.769  10.080   7.018  0.5789 -0.3664 -0.8852
  625MOL0     H86210   3.751  10.220   6.905 -0.4850  0.8524  1.0181
  625MOL0     H86211   3.693  10.244   7.059 -0.6478  2.3671 -2.6870
  625MOL0     H86212   3.516  10.562   7.037 -0.4378  1.0529 -2.8664
  625MOL0     H86213   3.394  10.766   7.002  0.4500 -2.6657  0.8373
  625MOL0     H86214   3.391  10.984   6.862  0.7131 -0.8422  0.5080
  625MOL0     H86215   3.315  10.971   7.023 -0.9891  1.0638  0.1619
  625MOL0     H86216   3.366  11.229   7.035  1.1760 -0.3997  0.7409
  625MOL0     H86217   3.427  11.220   6.872  2.5081  0.7958  1.8938
  625MOL0     H86218   3.146  11.159   6.986 -1.2031  1.9162  1.4491
  625MOL0     H86219   3.186  11.152   6.806  1.9180 -0.9156  1.0280
  625MOL0     H86220   3.226  11.370   6.784  1.8414  0.5063  0.1638
  625MOL0     H86221   3.226  11.414   6.956 -1.3758  0.6434 -0.0309
  625MOL0     H86222   2.977  11.365   6.972 -0.3166  0.4428 -0.4185
  625MOL0     H86223   3.054  11.508   6.891  1.5186 -0.8732 -3.1749
  625MOL0     H86224   2.952  11.277   6.714  1.0158  1.2721 -2.7834
  625MOL0     H86225   2.998  11.421   6.666 -2.2237  0.9486 -0.8873
  625MOL0     H86226   2.783  11.460   6.659  3.4335  0.7646 -0.4340
  625MOL0     H86227   2.802  11.511   6.834  4.2559  1.3881 -1.3223
  625MOL0     H86228   2.609  11.374   6.818  0.3034  1.0166  3.6420
  625MOL0     H86229   2.728  11.313   6.920 -1.3090  1.5807  0.4545
  625MOL0     H86230   3.741  10.994   7.073 -3.3475  1.3441 -1.6144
  625MOL0     H86231   3.871  10.782   7.123  0.8066 -1.4846 -0.7708
  625MOL0     H86232   4.098  10.518   7.125 -0.6953  0.1580  1.3296
  625MOL0     H86233   4.270  10.361   7.142  1.0647  0.3944 -3.0327
  625MOL0     H86234   4.979   8.640   7.828  1.9674 -0.0908  1.0075
  625MOL0     H86235   5.117   8.625   7.997  1.9969 -1.6314  0.2761
  625MOL0     H86236   5.245   8.160   8.361 -1.1108 -2.5072  1.6191
  625MOL0     H86237   5.309   8.110   8.571  0.7480 -0.3947 -1.4124
  625MOL0     H86238   5.165   8.394   8.933  1.2880  0.0279 -1.0519
  625MOL0     H86239   5.215   8.254   9.014  2.9899  0.4547  0.0123
  625MOL0     H86240   5.394   8.405   9.035  1.6487 -1.3080  0.2953
  625MOL0     H86241   5.386   8.456   8.872  1.1729 -1.2631 -0.5237
  625MOL0     H86242   5.446   8.171   8.959 -3.4352  0.9420  0.0087
  625MOL0     H86243   5.482   8.247   8.802 -0.2781  2.0092 -0.7471
  625MOL0     H86244   5.645   8.296   9.049  1.5835 -0.2047  0.7497
  625MOL0     H86245   5.597   8.439   8.953  0.1866 -0.9921  2.3351
  625MOL0     H86246   5.888   8.253   8.710  0.1600  1.7099 -1.0738
  625MOL0     H86247   5.111   8.460   8.727  2.8612  1.8863 -0.3489
  625MOL0     H86248   4.978   8.580   8.623 -1.1364 -0.7003 -0.8085
  625MOL0     H86249   5.049   8.632   8.470 -1.7228 -1.7474 -3.3605
  625MOL0     H86250   4.904   8.530   8.469 -0.4703  0.2135 -0.6145
  626MOL0     O86251   0.662   8.508   8.508 -0.1315  0.4484 -0.1824
  626MOL0     C86252   0.610   8.445   8.603 -0.5954 -0.6454  0.2762
  626MOL0     O86253   0.671   8.416   8.718  0.6620 -0.7702  0.7244
  626MOL0     C86254   0.798   8.464   8.738  0.1441 -0.3454  1.0373
  626MOL0     C86255   0.908   8.383   8.723 -0.0749  0.2180 -0.0385
  626MOL0     C86256   1.032   8.436   8.741  0.0316  0.5146  0.1294
  626MOL0     C86257   1.061   8.568   8.777  1.0342  0.4009  0.1735
  626MOL0     O86258   1.186   8.605   8.821  0.2758  0.5382 -0.0846
  626MOL0     C86259   1.224   8.733   8.783  0.9744 -0.2017  0.1327
  626MOL0     C86260   1.369   8.723   8.757  0.3530  0.5940  0.2173
  626MOL0     C86261   1.451   8.707   8.882  0.2748  0.0000  0.2274
  626MOL0     C86262   1.582   8.649   8.847  0.2293  0.6491 -0.3711
  626MOL0     C86263   1.679   8.648   8.973 -0.5048 -0.6018 -1.5583
  626MOL0     C86264   1.814   8.586   8.934  0.0117 -0.6105  0.8708
  626MOL0     C86265   1.918   8.578   9.049 -0.6887  0.6819  0.2431
  626MOL0     C86266   2.064   8.546   9.002 -0.2590  1.2042 -0.0438
  626MOL0     N86267   2.115   8.435   9.095  0.2820 -0.9430 -0.2597
  626MOL0     C86268   2.173   8.462   9.218 -0.3818  0.0583 -0.3394
  626MOL0     C86269   2.222   8.345   9.272  1.0497  1.2526  0.7637
  626MOL0     C86270   2.281   8.316   9.405 -0.0747  0.1287  0.1945
  626MOL0     C86271   2.400   8.413   9.425 -0.0507 -0.4600  0.8909
  626MOL0     C86272   2.452   8.366   9.562 -0.2577 -0.2836  0.0794
  626MOL0     C86273   2.558   8.470   9.596  0.6809 -0.7791 -0.3669
  626MOL0     O86274   2.605   8.448   9.736  0.2408  0.0475  0.4004
  626MOL0     C86275   2.528   8.483   9.841  0.4277 -0.4908  0.4330
  626MOL0     C86276   2.413   8.558   9.851  0.4982 -0.2979  0.6337
  626MOL0     C86277   2.368   8.613   9.972 -0.1817  0.4066 -0.1611
  626MOL0     C86278   2.255   8.719   9.966 -0.4774  0.3254 -0.0196
  626MOL0     C86279   2.430   8.573  10.097  0.8606  0.3025  0.5183
  626MOL0     C86280   2.376   8.603  10.239  0.2596 -0.2877 -0.1604
  626MOL0     O86281   2.470   8.663  10.320 -0.3342 -0.4297  0.2519
  626MOL0     C86282   2.437   8.726  10.434 -0.2856  0.0327 -0.3552
  626MOL0     C86283   2.339   8.680  10.534 -0.6571  0.6796  0.4707
  626MOL0     C86284   2.308   8.754  10.643  0.7271 -0.1499  0.7555
  626MOL0     C86285   2.376   8.872  10.672 -0.1871 -0.1853 -0.0178
  626MOL0     O86286   2.344   8.935  10.786 -0.0170 -0.5215  0.1501
  626MOL0     C86287   2.219   9.012  10.790  0.5754  0.8493  0.5805
  626MOL0     C86288   2.226   9.147  10.714 -0.4972 -0.5634 -0.8246
  626MOL0     C86289   2.251   9.154  10.564  0.3056  0.6737  0.5466
  626MOL0     C86290   2.185   9.282  10.499 -0.2565 -0.5310 -1.2143
  626MOL0     C86291   2.238   9.292  10.358  0.1081  0.8806 -0.4826
  626MOL0     C86292   2.194   9.416  10.278 -0.1251  0.4739 -1.0075
  626MOL0     C86293   2.241   9.536  10.352 -0.6792  0.4143  0.5994
  626MOL0     C86294   2.235   9.655  10.262 -0.6747 -0.3924 -0.8679
  626MOL0    Cl86295   2.316   9.656  10.096  0.1528  0.1373 -0.1795
  626MOL0     C86296   2.478   8.914  10.591  0.5146  0.6699 -0.4176
  626MOL0     C86297   2.515   8.842  10.477 -0.4038 -0.1711  0.0656
  626MOL0     O86298   2.257   8.591  10.264  0.1052 -0.0904 -0.5952
  626MOL0     C86299   2.539   8.484  10.081 -0.1811  0.0502 -0.6502
  626MOL0     C86300   2.592   8.439   9.959  0.2412  0.1719 -0.5870
  626MOL0     N86301   2.196   8.245   9.175  0.8060  0.7577  0.3467
  626MOL0     N86302   2.140   8.298   9.078  0.5374 -0.4314 -0.0778
  626MOL0     C86303   0.943   8.643   8.807 -1.0545 -1.0235 -0.4317
  626MOL0     C86304   0.818   8.601   8.772  0.1965  1.0216 -0.3164
  626MOL0     C86305   0.469   8.407   8.574 -0.6430 -0.0176  0.1124
  626MOL0     C86306   0.413   8.328   8.673  0.5867 -0.4265  0.3960
  626MOL0     C86307   0.291   8.271   8.656  1.9670 -0.4772 -0.2636
  626MOL0     C86308   0.215   8.271   8.537  0.4171 -0.2453  0.8279
  626MOL0     O86309   0.094   8.205   8.524  0.7989 -0.1370  0.9356
  626MOL0     C86310  -0.012   8.289   8.470  0.5761  1.4850 -0.1243
  626MOL0     C86311  -0.147   8.222   8.503 -0.4581  0.6259  0.3668
  626MOL0     C86312  -0.198   8.122   8.393  0.0114 -0.3942 -0.0442
  626MOL0     C86313  -0.298   8.172   8.292  0.3963  0.4943 -0.3207
  626MOL0     C86314  -0.245   8.248   8.178  0.3994  0.3706  0.5163
  626MOL0     C86315  -0.191   8.309   8.085  0.4547 -0.1303  0.4171
  626MOL0     C86316   0.270   8.343   8.433 -0.5447 -0.5843  0.2315
  626MOL0     C86317   0.393   8.408   8.446  0.5355  0.6612 -0.2081
  626MOL0     C86318   0.442   8.491   8.328 -0.1968  0.3987 -1.2988
  626MOL0     H86319   0.902   8.278   8.695 -1.9778  0.9458 -2.7114
  626MOL0     H86320   1.120   8.378   8.714 -0.5350  0.6611 -2.2299
  626MOL0     H86321   1.207   8.803   8.865 -0.1247  0.7117 -0.8389
  626MOL0     H86322   1.176   8.758   8.688 -0.3290  1.2419  1.1094
  626MOL0     H86323   1.384   8.641   8.686 -4.3049  0.7979 -1.3651
  626MOL0     H86324   1.401   8.810   8.699  1.1132  0.5325  0.5443
  626MOL0     H86325   1.450   8.805   8.930 -1.5005  1.0338 -1.7733
  626MOL0     H86326   1.407   8.627   8.943  1.1556  0.3245  1.3273
  626MOL0     H86327   1.562   8.550   8.805 -4.3313  1.1086  0.2860
  626MOL0     H86328   1.622   8.710   8.764  1.1755 -2.2127 -2.1937
  626MOL0     H86329   1.631   8.595   9.055  2.2491  0.6851  1.0740
  626MOL0     H86330   1.682   8.754   9.003  2.9190 -1.2530  1.0492
  626MOL0     H86331   1.803   8.494   8.876 -2.4282 -0.3204  0.7726
  626MOL0     H86332   1.859   8.659   8.867 -0.7068  0.8355  1.9160
  626MOL0     H86333   1.885   8.502   9.120 -0.0141  0.4671  0.3421
  626MOL0     H86334   1.915   8.673   9.104  1.1110  1.8517 -1.5227
  626MOL0     H86335   2.060   8.510   8.899  0.1913 -1.4362  0.7816
  626MOL0     H86336   2.124   8.637   9.011 -1.3223  2.3544 -3.1001
  626MOL0     H86337   2.183   8.563   9.258  3.0036  1.1802 -3.4571
  626MOL0     H86338   2.313   8.212   9.417  0.8910  0.5286  1.2146
  626MOL0     H86339   2.200   8.326   9.478  0.3835  0.6509  0.6338
  626MOL0     H86340   2.473   8.393   9.346 -1.0560 -2.4797  0.4082
  626MOL0     H86341   2.373   8.519   9.420  2.4957  0.3281  1.7206
  626MOL0     H86342   2.371   8.362   9.635 -1.7951 -0.7891 -1.5864
  626MOL0     H86343   2.500   8.268   9.555  2.0060  0.8470 -2.6240
  626MOL0     H86344   2.641   8.456   9.526  1.2130 -1.7916  0.4454
  626MOL0     H86345   2.523   8.573   9.603 -2.1848 -1.7275  0.8736
  626MOL0     H86346   2.355   8.587   9.764  1.9762  2.1906  0.3987
  626MOL0     H86347   2.259   8.769  10.063  0.7549  1.1382 -0.4648
  626MOL0     H86348   2.158   8.670   9.953 -2.7545  4.4698 -0.4255
  626MOL0     H86349   2.267   8.788   9.883 -1.5247 -1.4903 -1.7847
  626MOL0     H86350   2.304   8.581  10.509 -2.4264  1.1283  1.0128
  626MOL0     H86351   2.230   8.718  10.709 -0.7311  1.0878 -0.2146
  626MOL0     H86352   2.134   8.953  10.756  0.9215  0.6579  0.0271
  626MOL0     H86353   2.193   9.038  10.893 -3.9560 -0.2908 -0.0915
  626MOL0     H86354   2.134   9.202  10.737 -0.0033  0.6037 -1.5747
  626MOL0     H86355   2.302   9.210  10.762 -2.1241  1.0655 -0.2502
  626MOL0     H86356   2.210   9.067  10.513  0.1778  2.4334 -2.5742
  626MOL0     H86357   2.360   9.152  10.554  0.3524  1.0560  0.9344
  626MOL0     H86358   2.209   9.369  10.561 -5.3484 -0.7615  1.6321
  626MOL0     H86359   2.076   9.288  10.495 -0.3294 -0.3596  0.3536
  626MOL0     H86360   2.347   9.296  10.350  0.0971  2.2675 -0.2525
  626MOL0     H86361   2.211   9.203  10.301  1.3658 -1.0150  1.6775
  626MOL0     H86362   2.089   9.408  10.246  0.1622 -1.1411 -1.6220
  626MOL0     H86363   2.244   9.404  10.181  1.9664 -0.0636  0.0800
  626MOL0     H86364   2.345   9.528  10.385 -0.0884  3.9433  0.0099
  626MOL0     H86365   2.187   9.542  10.447  2.1055  0.6755  2.2832
  626MOL0     H86366   2.282   9.740  10.311  1.5119 -0.2068 -3.1070
  626MOL0     H86367   2.128   9.676  10.256 -0.5301  0.7268  0.1550
  626MOL0     H86368   2.532   9.003  10.623  2.0578 -0.9343  1.7635
  626MOL0     H86369   2.596   8.874  10.412  1.6427 -2.2315  1.4473
  626MOL0     H86370   2.592   8.448  10.168 -1.0590  0.7245  0.1945
  626MOL0     H86371   2.686   8.386   9.954  0.0654 -0.3489  0.9703
  626MOL0     H86372   0.968   8.738   8.852  1.7609 -1.0629 -1.6739
  626MOL0     H86373   0.729   8.659   8.795 -0.7819 -0.3991 -0.3834
  626MOL0     H86374   0.465   8.315   8.767  0.3338 -2.3382  0.3166
  626MOL0     H86375   0.248   8.213   8.737 -0.4155  0.4393 -0.7937
  626MOL0     H86376  -0.008   8.386   8.521 -1.4539  1.5190  0.0627
  626MOL0     H86377  -0.003   8.306   8.362  0.4891  0.2377 -0.3491
  626MOL0     H86378  -0.220   8.300   8.528  1.2455  1.7478  2.0729
  626MOL0     H86379  -0.141   8.183   8.605 -0.2855  1.9277  0.8712
  626MOL0     H86380  -0.113   8.077   8.343 -0.6066 -1.1361 -0.4479
  626MOL0     H86381  -0.247   8.039   8.446  0.3398 -2.0413 -2.2074
  626MOL0     H86382  -0.377   8.233   8.337 -0.7597  0.3201 -2.0304
  626MOL0     H86383  -0.337   8.076   8.258  0.0877 -0.5869  2.7440
  626MOL0     H86384  -0.161   8.384   8.014 -1.8788 -1.6516 -2.3788
  626MOL0     H86385   0.223   8.352   8.336 -2.2594 -0.4033  1.0464
  626MOL0     H86386   0.485   8.585   8.361 -2.1415  1.3093 -1.1986
  626MOL0     H86387   0.520   8.438   8.273  1.0049 -0.7600  1.3662
  626MOL0     H86388   0.373   8.514   8.247  0.2995  1.4861 -1.4216
  627MOL0     O86389   7.516   1.696   3.643  0.5385 -0.5251 -0.1721
  627MOL0     C86390   7.451   1.782   3.592 -0.0895  0.3454 -0.3670
  627MOL0     O86391   7.486   1.849   3.475  0.0168  0.4264 -0.0996
  627MOL0     C86392   7.613   1.848   3.428 -1.0208  0.0366 -0.3579
  627MOL0     C86393   7.713   1.882   3.508  0.1018  0.3030 -0.3127
  627MOL0     C86394   7.845   1.886   3.469  0.3025  0.1949  0.2119
  627MOL0     C86395   7.881   1.860   3.337  0.0485  0.5471 -0.6393
  627MOL0     O86396   8.014   1.882   3.301 -0.4736  0.3656 -0.3210
  627MOL0     C86397   8.108   1.800   3.370 -0.4384  1.0045 -0.0835
  627MOL0     C86398   8.246   1.811   3.308 -0.1188  0.3364  0.1351
  627MOL0     C86399   8.358   1.749   3.395 -0.5517  0.6558  0.0484
  627MOL0     C86400   8.489   1.712   3.316  0.0251 -0.6869  0.5108
  627MOL0     C86401   8.602   1.696   3.418 -0.7252  0.2882  0.0992
  627MOL0     C86402   8.742   1.724   3.355  0.0225 -0.4779  0.5775
  627MOL0     C86403   8.850   1.701   3.455  0.6674  0.3777 -0.1791
  627MOL0     C86404   8.895   1.819   3.534  0.4663  0.4291 -0.0804
  627MOL0     N86405   9.001   1.770   3.631  0.0859 -0.0537  0.0079
  627MOL0     C86406   9.130   1.732   3.608 -0.1040  0.8530  0.3276
  627MOL0     C86407   9.182   1.674   3.720 -0.7986  0.3817 -1.2749
  627MOL0     C86408   9.325   1.614   3.716  1.0692  0.2845 -0.2941
  627MOL0     C86409   9.322   1.491   3.626 -0.5991 -0.3653  1.1352
  627MOL0     C86410   9.474   1.466   3.598 -0.1545  0.2032  0.5135
  627MOL0     C86411   9.548   1.414   3.720  0.3633  0.2031 -0.1494
  627MOL0     O86412   9.686   1.417   3.696  0.1507  0.0987 -0.3665
  627MOL0     C86413   9.770   1.376   3.798  0.0523 -0.3349  0.8122
  627MOL0     C86414   9.728   1.317   3.917  0.1907  0.1659 -0.5448
  627MOL0     C86415   9.825   1.283   4.019 -0.5093  0.3550  1.2711
  627MOL0     C86416   9.771   1.234   4.144 -0.4836  0.1792  0.1698
  627MOL0     C86417   9.960   1.327   4.011 -0.5444 -0.6911 -1.4758
  627MOL0     C86418  10.063   1.313   4.122  0.6806  0.7260 -0.1927
  627MOL0     O86419  10.023   1.256   4.243 -0.7436 -0.1016  0.5711
  627MOL0     C86420  10.132   1.239   4.325  0.4518  0.6106  0.4195
  627MOL0     C86421  10.158   1.327   4.422 -0.1008  0.3430 -0.1217
  627MOL0     C86422  10.257   1.299   4.523  0.2831 -0.5821  0.0613
  627MOL0     C86423  10.352   1.194   4.505 -0.1309 -0.3040 -0.7101
  627MOL0     O86424  10.458   1.190   4.595  0.0543 -0.2444 -0.0683
  627MOL0     C86425  10.555   1.094   4.573 -0.3327 -0.2836 -0.1741
  627MOL0     C86426  10.678   1.145   4.656  0.5576 -0.3654  0.5358
  627MOL0     C86427  10.722   1.285   4.605 -0.5498 -0.3770 -0.1357
  627MOL0     C86428  10.874   1.301   4.612  0.2445 -0.4541  0.3637
  627MOL0     C86429  10.921   1.430   4.538 -0.3702 -0.4594  0.4551
  627MOL0     C86430  10.865   1.562   4.599  0.0033  0.4427  0.6247
  627MOL0     C86431  10.933   1.684   4.527 -0.1320 -0.8432 -0.2584
  627MOL0     C86432  10.885   1.827   4.566  0.5323  0.8669  0.0200
  627MOL0    Cl86433  10.988   1.945   4.483  0.6178  0.0824 -0.4102
  627MOL0     C86434  10.333   1.105   4.395  0.1024 -0.5656  0.7927
  627MOL0     C86435  10.218   1.128   4.306 -0.5316 -0.3904 -0.7457
  627MOL0     O86436  10.171   1.361   4.099 -0.3922  0.1997 -0.8614
  627MOL0     C86437   9.995   1.380   3.886  0.2669 -1.0708  0.0227
  627MOL0     C86438   9.903   1.400   3.784 -0.7395  0.9300  0.4528
  627MOL0     N86439   9.094   1.684   3.825 -0.0165  0.0158  0.0439
  627MOL0     N86440   8.982   1.731   3.765  0.1491 -0.7324 -0.0465
  627MOL0     C86441   7.785   1.822   3.253  0.6747  0.4350  0.6980
  627MOL0     C86442   7.643   1.822   3.292 -0.5034 -0.0998 -1.2118
  627MOL0     C86443   7.319   1.816   3.644 -1.1907  0.4516 -0.4223
  627MOL0     C86444   7.225   1.875   3.549 -0.1871 -0.0822  0.2358
  627MOL0     C86445   7.099   1.913   3.588  0.3344  0.0563 -1.0614
  627MOL0     C86446   7.062   1.882   3.721 -0.4654  0.8727 -0.0275
  627MOL0     O86447   6.928   1.895   3.771 -0.2001  0.4973  0.4529
  627MOL0     C86448   6.817   1.949   3.697 -0.5303  0.7072  1.3249
  627MOL0     C86449   6.833   2.104   3.679 -0.5240 -0.2925 -0.2120
  627MOL0     C86450   6.768   2.137   3.544  0.6608 -0.4064  1.0660
  627MOL0     C86451   6.616   2.160   3.555 -0.5195  0.5928  0.5932
  627MOL0     C86452   6.542   2.176   3.432  0.6176 -0.2703  0.4382
  627MOL0     C86453   6.469   2.192   3.337  0.0925 -0.6124  0.5578
  627MOL0     C86454   7.157   1.832   3.821 -0.0581  0.3252  0.0131
  627MOL0     C86455   7.285   1.803   3.778  0.4948 -0.0143 -0.2653
  627MOL0     C86456   7.378   1.743   3.878  0.7976 -0.3196 -0.0863
  627MOL0     H86457   7.695   1.906   3.613 -3.0272 -1.4576 -0.3386
  627MOL0     H86458   7.909   1.897   3.555  0.1568  3.1370  0.0535
  627MOL0     H86459   8.079   1.697   3.346 -0.2126  0.8797  0.1726
  627MOL0     H86460   8.117   1.821   3.477 -1.3941 -2.7645  0.9136
  627MOL0     H86461   8.247   1.772   3.206 -3.8586 -0.6311  0.3237
  627MOL0     H86462   8.272   1.917   3.297  1.0767  0.2159  1.5444
  627MOL0     H86463   8.371   1.805   3.488 -0.7997  0.4063  0.2349
  627MOL0     H86464   8.317   1.654   3.431  2.0352  0.1309  1.8844
  627MOL0     H86465   8.483   1.629   3.245  0.8205 -0.2845 -0.0520
  627MOL0     H86466   8.517   1.803   3.262 -0.4963 -0.0597  1.2902
  627MOL0     H86467   8.603   1.594   3.460  0.7476  0.3479  0.2832
  627MOL0     H86468   8.591   1.768   3.500  0.8435 -0.5064  1.0675
  627MOL0     H86469   8.753   1.663   3.264 -1.4478 -0.0190  0.0622
  627MOL0     H86470   8.747   1.828   3.320  0.0629 -0.8166 -0.4783
  627MOL0     H86471   8.939   1.654   3.411  0.7625  1.1472 -0.8339
  627MOL0     H86472   8.807   1.629   3.525  2.9293 -1.0676 -0.1701
  627MOL0     H86473   8.938   1.885   3.459  3.1473 -0.7965  0.2726
  627MOL0     H86474   8.824   1.868   3.601  0.5789 -0.1016  0.4353
  627MOL0     H86475   9.191   1.744   3.519 -0.9020 -0.3759 -0.4163
  627MOL0     H86476   9.349   1.588   3.820  0.4354  0.8941  0.0182
  627MOL0     H86477   9.405   1.684   3.690  1.5599  0.3708  1.3175
  627MOL0     H86478   9.296   1.405   3.688 -0.6549  1.4019  3.7114
  627MOL0     H86479   9.263   1.506   3.535 -0.9679  1.2536  1.5952
  627MOL0     H86480   9.476   1.388   3.521 -0.2933  1.1391 -0.4509
  627MOL0     H86481   9.529   1.544   3.544 -0.4079 -0.0597 -0.1390
  627MOL0     H86482   9.533   1.488   3.799  2.5864  2.4238 -1.6636
  627MOL0     H86483   9.512   1.314   3.747  0.6134  0.6185  1.8925
  627MOL0     H86484   9.625   1.285   3.927 -0.7578  2.0904 -2.9932
  627MOL0     H86485   9.829   1.142   4.147 -0.6740  0.0972  2.1488
  627MOL0     H86486   9.664   1.208   4.142 -0.4205 -0.0884  0.2989
  627MOL0     H86487   9.790   1.305   4.225 -1.8587  2.0059 -1.0141
  627MOL0     H86488  10.082   1.404   4.429  0.8963  1.7176 -3.1247
  627MOL0     H86489  10.272   1.365   4.608 -1.0146  1.2818 -1.0621
  627MOL0     H86490  10.524   1.000   4.617 -1.0632 -0.3596 -0.8336
  627MOL0     H86491  10.587   1.067   4.472  4.8484 -1.3104  1.4440
  627MOL0     H86492  10.648   1.152   4.761 -0.8510  2.6937  0.0198
  627MOL0     H86493  10.754   1.066   4.651  0.4381 -0.4203 -2.4375
  627MOL0     H86494  10.681   1.370   4.660  0.4269  1.8832 -2.6737
  627MOL0     H86495  10.684   1.302   4.503  1.1585  1.5263 -0.5122
  627MOL0     H86496  10.902   1.214   4.552 -2.0251 -1.7874  1.1233
  627MOL0     H86497  10.914   1.281   4.712  0.6968  1.1160  0.5206
  627MOL0     H86498  11.031   1.433   4.536 -0.3062  0.2252 -3.8272
  627MOL0     H86499  10.897   1.425   4.432  1.3896  1.0578 -0.0620
  627MOL0     H86500  10.881   1.559   4.707 -0.4848  1.1041  0.7233
  627MOL0     H86501  10.758   1.561   4.578 -0.1720 -1.7659  1.4266
  627MOL0     H86502  10.932   1.682   4.417  2.6746  4.5141 -0.7170
  627MOL0     H86503  11.041   1.674   4.545  0.1977  1.5871 -0.5257
  627MOL0     H86504  10.888   1.846   4.674 -3.1098 -0.6508  0.5615
  627MOL0     H86505  10.781   1.843   4.535  0.1240  1.2185  1.4735
  627MOL0     H86506  10.398   1.020   4.377  0.5516 -0.2858  1.0786
  627MOL0     H86507  10.196   1.055   4.229 -2.5644 -1.1341  0.4643
  627MOL0     H86508  10.099   1.408   3.869  0.6993 -3.2879 -1.3989
  627MOL0     H86509   9.925   1.435   3.683 -1.0056  1.0304  0.4285
  627MOL0     H86510   7.816   1.806   3.150 -0.6946  2.3857 -0.0775
  627MOL0     H86511   7.561   1.829   3.220  0.1030  1.9637 -1.7609
  627MOL0     H86512   7.250   1.903   3.448 -1.9542  4.3760  0.8011
  627MOL0     H86513   7.036   1.958   3.512 -1.1326  0.6114  0.3954
  627MOL0     H86514   6.809   1.897   3.601  0.1056  3.8295 -0.5617
  627MOL0     H86515   6.721   1.919   3.740 -1.5844 -0.6784 -1.7124
  627MOL0     H86516   6.939   2.125   3.661 -0.7088  0.6640 -0.2455
  627MOL0     H86517   6.803   2.168   3.763  1.0148  1.0338 -0.6150
  627MOL0     H86518   6.810   2.233   3.515  1.2352  0.0544  3.2818
  627MOL0     H86519   6.790   2.073   3.458  0.2151  0.8222 -0.0046
  627MOL0     H86520   6.587   2.236   3.627 -0.0361  2.1927 -0.8310
  627MOL0     H86521   6.560   2.074   3.595 -0.6243 -0.0005 -0.7549
  627MOL0     H86522   6.389   2.188   3.266  0.5035 -2.0113  0.1381
  627MOL0     H86523   7.130   1.825   3.926 -2.1909 -1.6040 -0.5868
  627MOL0     H86524   7.398   1.639   3.852 -4.0209 -0.8296 -2.8435
  627MOL0     H86525   7.474   1.796   3.879  1.0922 -0.6163 -3.0312
  627MOL0     H86526   7.328   1.731   3.975  0.4921 -0.4891 -0.2619
  628MOL0     O86527   6.009   6.908   8.695 -0.2690 -0.6116 -0.3699
  628MOL0     C86528   5.902   6.967   8.703  0.0873 -0.1895  0.2889
  628MOL0     O86529   5.787   6.927   8.768  0.1496  0.1425  0.5876
  628MOL0     C86530   5.774   6.808   8.827  1.3100  0.9262 -0.2104
  628MOL0     C86531   5.748   6.689   8.753 -0.6443 -0.1984 -0.5321
  628MOL0     C86532   5.757   6.566   8.811 -0.4747 -0.6133 -0.0498
  628MOL0     C86533   5.762   6.546   8.945  0.1449 -0.1502  0.0259
  628MOL0     O86534   5.762   6.421   9.006 -0.0797  0.6022  0.1237
  628MOL0     C86535   5.676   6.321   8.964 -0.1748 -0.4778  0.5479
  628MOL0     C86536   5.680   6.211   9.068  0.7286 -0.0217  0.0717
  628MOL0     C86537   5.605   6.233   9.193 -0.1679 -0.3235 -0.0658
  628MOL0     C86538   5.655   6.335   9.290 -1.5269 -0.3235  0.2256
  628MOL0     C86539   5.561   6.351   9.415  1.2082  0.2228  0.0152
  628MOL0     C86540   5.630   6.432   9.515  1.1276  0.6748  0.2064
  628MOL0     C86541   5.676   6.576   9.470  0.8363  0.5830  1.1309
  628MOL0     C86542   5.724   6.658   9.578 -1.0440 -0.8760 -0.7932
  628MOL0     N86543   5.827   6.586   9.651  0.8192 -0.1747  0.5335
  628MOL0     C86544   5.826   6.503   9.762 -0.0552  0.7398 -0.2324
  628MOL0     C86545   5.949   6.434   9.746 -0.7403  0.2521 -1.1910
  628MOL0     C86546   6.014   6.330   9.834 -0.1670 -0.3807  0.0739
  628MOL0     C86547   6.143   6.267   9.767  0.1440 -0.0685  0.2212
  628MOL0     C86548   6.201   6.151   9.840 -0.6769 -0.3953  0.9585
  628MOL0     C86549   6.258   6.193   9.978 -0.3129 -0.3595 -1.1045
  628MOL0     O86550   6.326   6.319   9.975 -0.1116  0.0294 -0.0149
  628MOL0     C86551   6.354   6.383  10.097 -0.1577  0.3857  0.3359
  628MOL0     C86552   6.353   6.524  10.094  0.0628 -0.2776  0.9647
  628MOL0     C86553   6.367   6.592  10.218  0.3055 -0.2357  0.9124
  628MOL0     C86554   6.411   6.736  10.205  1.2019 -0.4392 -0.1983
  628MOL0     C86555   6.375   6.525  10.345  0.7842 -0.1037  0.0438
  628MOL0     C86556   6.386   6.588  10.473  0.1230 -0.5107 -1.8172
  628MOL0     O86557   6.338   6.718  10.508 -0.4560  0.2720 -1.5852
  628MOL0     C86558   6.417   6.777  10.607 -0.9164  0.5805  0.5494
  628MOL0     C86559   6.512   6.867  10.575  0.3402  0.1197  0.1046
  628MOL0     C86560   6.579   6.938  10.678 -0.0735 -0.4905 -0.3956
  628MOL0     C86561   6.546   6.917  10.809  0.6199 -0.2751  0.0666
  628MOL0     O86562   6.598   6.983  10.920 -0.5547 -0.8878  0.7387
  628MOL0     C86563   6.735   6.962  10.937  1.1995  0.2309 -0.0362
  628MOL0     C86564   6.758   7.060  11.046 -0.3375 -0.6824 -0.1954
  628MOL0     C86565   6.754   7.209  11.008 -0.2116  0.9831 -0.4049
  628MOL0     C86566   6.818   7.287  11.121 -0.2195  0.6495  0.2499
  628MOL0     C86567   6.832   7.440  11.099  0.1811  0.5696  0.8234
  628MOL0     C86568   6.926   7.465  10.981 -0.2511 -0.3449  0.7149
  628MOL0     C86569   6.945   7.619  10.959  0.4681  0.2314 -0.4393
  628MOL0     C86570   7.008   7.647  10.825 -0.0621  0.4244 -0.0527
  628MOL0    Cl86571   7.031   7.816  10.806 -0.1299  0.0758  0.3492
  628MOL0     C86572   6.442   6.828  10.841  0.2507 -0.1652  1.0675
  628MOL0     C86573   6.375   6.761  10.744 -0.3915 -0.8288  0.7762
  628MOL0     O86574   6.470   6.522  10.543  0.1885  0.1432 -0.2706
  628MOL0     C86575   6.364   6.383  10.343  1.2837 -0.3287 -0.4268
  628MOL0     C86576   6.349   6.314  10.225  0.2458  0.4174  1.0430
  628MOL0     N86577   6.032   6.501   9.661  0.1484 -0.5702 -0.1443
  628MOL0     N86578   5.950   6.581   9.597  0.1529  0.2696 -0.0321
  628MOL0     C86579   5.771   6.662   9.026 -0.3733  0.6910  0.6731
  628MOL0     C86580   5.780   6.791   8.966  0.6996  0.2257  0.0549
  628MOL0     C86581   5.897   7.095   8.659 -0.3869 -0.2869 -0.0162
  628MOL0     C86582   5.912   7.137   8.528  0.3786  0.1861  0.2572
  628MOL0     C86583   5.898   7.273   8.487  0.0882  1.3274 -1.0527
  628MOL0     C86584   5.876   7.369   8.576  0.6972  0.1097  0.2929
  628MOL0     O86585   5.856   7.498   8.535 -0.2373 -0.0311 -0.9384
  628MOL0     C86586   5.723   7.551   8.532  0.2662  0.7209  0.7744
  628MOL0     C86587   5.701   7.617   8.659  0.8493 -0.4212  0.1666
  628MOL0     C86588   5.629   7.542   8.772  1.0563  0.2407 -0.3041
  628MOL0     C86589   5.677   7.588   8.913  0.2310 -0.4189  0.6307
  628MOL0     C86590   5.638   7.500   9.025 -0.3598 -0.5417 -0.4231
  628MOL0     C86591   5.584   7.434   9.115 -0.1026  0.4322  0.3993
  628MOL0     C86592   5.864   7.335   8.706  0.3286  0.0906 -0.8023
  628MOL0     C86593   5.872   7.204   8.753 -0.1632 -1.1531  0.5579
  628MOL0     C86594   5.856   7.179   8.910  0.1655 -0.1478 -0.4236
  628MOL0     H86595   5.743   6.709   8.646  2.2227  1.6939 -0.4199
  628MOL0     H86596   5.746   6.481   8.744 -2.0785 -0.6145  0.1890
  628MOL0     H86597   5.712   6.273   8.873  2.1019 -1.6225  1.9571
  628MOL0     H86598   5.579   6.368   8.945  0.5263  0.8303  0.0597
  628MOL0     H86599   5.628   6.126   9.023 -1.2782 -0.0564  2.2662
  628MOL0     H86600   5.780   6.180   9.100 -1.1461 -2.2483  4.5768
  628MOL0     H86601   5.501   6.254   9.167  0.4823  1.3439 -1.5075
  628MOL0     H86602   5.608   6.136   9.244 -0.2050  0.4293  1.4064
  628MOL0     H86603   5.755   6.302   9.319 -0.7117  0.7954 -1.1563
  628MOL0     H86604   5.674   6.426   9.232  0.1255 -1.3185 -0.8868
  628MOL0     H86605   5.514   6.259   9.450 -2.3257  1.1986 -1.6804
  628MOL0     H86606   5.467   6.393   9.376  0.0495 -1.2809  1.0466
  628MOL0     H86607   5.563   6.435   9.602 -1.1764 -1.2119 -1.3675
  628MOL0     H86608   5.714   6.367   9.545  0.9488  0.2688 -0.1570
  628MOL0     H86609   5.591   6.623   9.419  0.4906  1.1325  2.1983
  628MOL0     H86610   5.751   6.571   9.390  0.2151 -2.3814  0.5828
  628MOL0     H86611   5.768   6.738   9.517 -2.9621  0.5710 -0.3807
  628MOL0     H86612   5.649   6.702   9.644 -1.3204 -2.6361  0.1285
  628MOL0     H86613   5.758   6.487   9.845  2.8089  1.6874  2.4876
  628MOL0     H86614   5.934   6.264   9.866 -0.5530  0.3123  0.5715
  628MOL0     H86615   6.049   6.392   9.917 -2.2004  1.8477 -0.6248
  628MOL0     H86616   6.116   6.236   9.666 -2.5334  1.4117  0.3899
  628MOL0     H86617   6.230   6.330   9.748  1.8014 -0.8645  4.0585
  628MOL0     H86618   6.130   6.069   9.855  0.1741 -1.2700  0.3566
  628MOL0     H86619   6.285   6.121   9.777 -1.5505  0.5649 -0.7487
  628MOL0     H86620   6.177   6.187  10.051  1.2074 -0.1363  0.6782
  628MOL0     H86621   6.326   6.110   9.999 -1.0841 -0.8707 -0.5941
  628MOL0     H86622   6.358   6.579  10.001  2.1596 -0.0720  1.1313
  628MOL0     H86623   6.514   6.751  10.240  0.4293  1.3113  1.4788
  628MOL0     H86624   6.343   6.801  10.260  2.0139  0.7983 -0.5897
  628MOL0     H86625   6.411   6.785  10.107  0.3766  0.4697  0.2393
  628MOL0     H86626   6.533   6.871  10.469  1.0477 -0.2477  0.2247
  628MOL0     H86627   6.655   7.011  10.654  1.6224 -0.7677  3.3554
  628MOL0     H86628   6.745   6.861  10.978 -2.8192 -0.0691  0.5854
  628MOL0     H86629   6.808   6.972  10.856  0.1996  0.7443 -0.8912
  628MOL0     H86630   6.678   7.049  11.121  0.1011  3.5236  1.1809
  628MOL0     H86631   6.851   7.042  11.100 -1.1339  1.8119  2.2838
  628MOL0     H86632   6.651   7.242  10.991 -1.1872 -1.3454  0.5986
  628MOL0     H86633   6.819   7.219  10.921  0.7786 -0.1627  0.1909
  628MOL0     H86634   6.925   7.264  11.130 -0.5165 -0.9433 -0.0623
  628MOL0     H86635   6.766   7.270  11.216  2.0463  0.9385  1.6315
  628MOL0     H86636   6.739   7.498  11.090 -0.2185 -0.2216 -0.3442
  628MOL0     H86637   6.895   7.483  11.177  1.4279  1.5835 -0.6637
  628MOL0     H86638   6.873   7.418  10.898 -0.1266 -2.6008  1.8109
  628MOL0     H86639   7.019   7.417  11.014  1.3248  1.0917 -1.4060
  628MOL0     H86640   7.009   7.659  11.039 -0.3177 -3.1153  2.1081
  628MOL0     H86641   6.849   7.672  10.961  0.0569 -0.4214 -1.8613
  628MOL0     H86642   6.953   7.609  10.738 -0.4917 -1.0954  0.8511
  628MOL0     H86643   7.107   7.602  10.829  0.0479 -0.2966 -4.7253
  628MOL0     H86644   6.405   6.806  10.941 -0.8637  1.3629  1.0399
  628MOL0     H86645   6.299   6.688  10.768 -1.5061 -0.6286 -1.8111
  628MOL0     H86646   6.354   6.316  10.427  2.5771 -0.6019 -0.4766
  628MOL0     H86647   6.329   6.208  10.238  0.9508  0.4010  2.2169
  628MOL0     H86648   5.787   6.659   9.133 -0.1485 -1.4178  0.6303
  628MOL0     H86649   5.791   6.878   9.030  1.0982  0.0034  0.2958
  628MOL0     H86650   5.918   7.062   8.449 -0.4535  1.1370 -0.7368
  628MOL0     H86651   5.903   7.306   8.384  0.5053 -0.9369 -1.8044
  628MOL0     H86652   5.710   7.623   8.450 -1.2122 -0.1407  0.2023
  628MOL0     H86653   5.647   7.477   8.505 -0.6325  0.8314  2.7786
  628MOL0     H86654   5.645   7.708   8.634  0.4592  0.2034  2.9801
  628MOL0     H86655   5.799   7.650   8.694  0.9919 -0.2049 -0.4298
  628MOL0     H86656   5.523   7.567   8.778  1.4478  1.6026  2.6738
  628MOL0     H86657   5.632   7.434   8.752 -1.1323  0.6595 -3.7418
  628MOL0     H86658   5.650   7.691   8.937  1.7283  0.0642  0.3556
  628MOL0     H86659   5.786   7.581   8.913  0.2743  0.1726  1.2980
  628MOL0     H86660   5.537   7.387   9.198  1.0971 -0.2472  0.7282
  628MOL0     H86661   5.839   7.401   8.788 -2.9186 -0.7056 -1.0285
  628MOL0     H86662   5.747   7.182   8.920 -0.0840 -1.5829 -2.0777
  628MOL0     H86663   5.898   7.080   8.927 -0.6677 -0.9568 -2.6078
  628MOL0     H86664   5.893   7.255   8.979 -0.8382  0.2954 -0.3589
  629MOL0     O86665   7.474   0.825   2.415  0.8420  0.0904  0.4219
  629MOL0     C86666   7.580   0.852   2.349 -0.3780 -0.2896 -0.3946
  629MOL0     O86667   7.703   0.809   2.383  0.9678  0.3045  0.3064
  629MOL0     C86668   7.729   0.706   2.476  0.7607 -0.2614 -0.3448
  629MOL0     C86669   7.650   0.596   2.480  0.0613  1.4415 -0.0458
  629MOL0     C86670   7.681   0.485   2.558 -0.0357  1.2057 -0.1724
  629MOL0     C86671   7.800   0.489   2.636 -0.4668  0.5274 -0.1304
  629MOL0     O86672   7.825   0.376   2.711 -0.1357 -0.1035 -0.2540
  629MOL0     C86673   7.905   0.373   2.835  0.0000  0.8149  0.2232
  629MOL0     C86674   7.856   0.472   2.942 -0.1988  0.3270 -0.3752
  629MOL0     C86675   7.942   0.485   3.075 -0.7502  0.2564  0.0747
  629MOL0     C86676   7.888   0.376   3.162 -0.2048 -0.6824  0.1174
  629MOL0     C86677   7.978   0.317   3.279 -0.2836  0.2086  1.0499
  629MOL0     C86678   7.903   0.206   3.363 -0.1872 -0.5243  0.5125
  629MOL0     C86679   7.993   0.112   3.453  0.7706  0.0853  0.4057
  629MOL0     C86680   8.074   0.182   3.560 -0.3474  0.1542 -0.7966
  629MOL0     N86681   8.211   0.206   3.512 -0.0243 -0.7605 -0.0425
  629MOL0     C86682   8.262   0.333   3.484  0.3777  0.6316  0.5577
  629MOL0     C86683   8.398   0.305   3.473 -0.9058  0.3815 -0.7166
  629MOL0     C86684   8.512   0.402   3.443  0.2321 -1.4303 -0.4744
  629MOL0     C86685   8.487   0.535   3.504 -0.0400  0.2118 -0.2487
  629MOL0     C86686   8.620   0.601   3.562  0.3077 -0.7341 -0.6174
  629MOL0     C86687   8.593   0.717   3.669  0.1114  0.4714  0.8990
  629MOL0     O86688   8.720   0.755   3.726  0.4968 -0.3663 -0.3553
  629MOL0     C86689   8.727   0.869   3.804 -0.9842  0.4157  0.1890
  629MOL0     C86690   8.617   0.956   3.831 -0.4464 -0.1257  0.5160
  629MOL0     C86691   8.625   1.046   3.937  0.2535  0.3793  0.3436
  629MOL0     C86692   8.497   1.123   3.976 -0.3369  0.5037 -0.4786
  629MOL0     C86693   8.741   1.054   4.010  0.4505 -0.6439 -0.0545
  629MOL0     C86694   8.748   1.148   4.126 -0.1434  0.2396 -0.8721
  629MOL0     O86695   8.645   1.238   4.159 -0.4749  0.9038  0.0360
  629MOL0     C86696   8.645   1.281   4.283 -0.5348  0.2991 -0.3562
  629MOL0     C86697   8.638   1.190   4.387 -0.2845 -0.3722 -0.3259
  629MOL0     C86698   8.628   1.226   4.521 -0.4316  0.5564 -0.2438
  629MOL0     C86699   8.623   1.361   4.551  0.5996 -0.0691 -0.5278
  629MOL0     O86700   8.600   1.385   4.680  0.0594 -0.8299 -0.1961
  629MOL0     C86701   8.540   1.518   4.706 -0.7386  0.4794 -0.2123
  629MOL0     C86702   8.478   1.512   4.844 -0.3387  0.5491 -0.6026
  629MOL0     C86703   8.563   1.489   4.962 -0.8714  0.7009  0.2214
  629MOL0     C86704   8.490   1.514   5.088 -0.5194 -0.0252 -0.8739
  629MOL0     C86705   8.592   1.507   5.203 -1.1197  0.5947 -0.0701
  629MOL0     C86706   8.537   1.507   5.344  0.1091 -0.0236  1.0683
  629MOL0     C86707   8.494   1.650   5.399 -0.2264  0.0182  1.0676
  629MOL0     C86708   8.429   1.627   5.524  1.3028  0.3489 -0.8371
  629MOL0    Cl86709   8.533   1.623   5.667  0.1748 -0.4896  0.5022
  629MOL0     C86710   8.623   1.457   4.447 -0.2006 -0.4929  0.2403
  629MOL0     C86711   8.640   1.414   4.314  0.6339 -1.1565  0.1134
  629MOL0     O86712   8.850   1.131   4.196 -0.5698  0.4417 -0.9260
  629MOL0     C86713   8.860   0.977   3.968  0.3559  0.1154 -0.5409
  629MOL0     C86714   8.839   0.882   3.867 -0.7388  0.0201 -0.4589
  629MOL0     N86715   8.423   0.173   3.502  0.9185  0.0710  1.0706
  629MOL0     N86716   8.313   0.113   3.515 -0.1949  0.4946  0.0892
  629MOL0     C86717   7.883   0.596   2.636  1.2519 -0.4232  0.8111
  629MOL0     C86718   7.848   0.709   2.558  0.7066  0.1022 -0.5121
  629MOL0     C86719   7.575   0.941   2.236  0.0693  0.0246 -0.4945
  629MOL0     C86720   7.689   0.968   2.168 -0.1090 -0.9980 -0.0975
  629MOL0     C86721   7.697   1.058   2.056 -0.0273 -0.6680 -0.9793
  629MOL0     C86722   7.577   1.119   2.023  0.3103 -0.0628  0.1092
  629MOL0     O86723   7.590   1.209   1.918  0.0232  0.5371  1.3379
  629MOL0     C86724   7.474   1.248   1.844 -0.0708  0.6079  0.7795
  629MOL0     C86725   7.428   1.139   1.743 -0.0863 -1.0028  0.2849
  629MOL0     C86726   7.335   1.193   1.629 -0.1993  0.4784  0.1740
  629MOL0     C86727   7.198   1.240   1.684 -0.1091  0.0100 -0.8768
  629MOL0     C86728   7.203   1.375   1.739 -0.3715  0.1144  0.2840
  629MOL0     C86729   7.195   1.492   1.780  0.5286 -0.8654 -0.6917
  629MOL0     C86730   7.459   1.085   2.093 -0.2588 -0.8220 -0.3636
  629MOL0     C86731   7.449   0.991   2.194 -0.3256  0.7692  0.1888
  629MOL0     C86732   7.318   0.967   2.255 -1.2870 -0.2809 -0.5569
  629MOL0     H86733   7.560   0.582   2.421  1.1525 -1.6672 -1.1572
  629MOL0     H86734   7.618   0.397   2.569  0.4695  0.9698  0.9392
  629MOL0     H86735   8.013   0.379   2.815  0.0480  0.8535  0.4930
  629MOL0     H86736   7.891   0.273   2.876 -1.1662  1.2038  0.8102
  629MOL0     H86737   7.856   0.572   2.898 -0.4542 -0.0667 -1.2919
  629MOL0     H86738   7.753   0.437   2.958  0.2557 -3.2433 -3.8062
  629MOL0     H86739   8.050   0.471   3.063 -0.6842 -0.4449  1.3654
  629MOL0     H86740   7.931   0.585   3.119 -0.7112  0.2218  0.1621
  629MOL0     H86741   7.792   0.412   3.202 -0.5998 -1.2051 -0.3424
  629MOL0     H86742   7.862   0.291   3.098  1.0062  0.2891 -1.7535
  629MOL0     H86743   8.006   0.402   3.343 -1.1843  1.4476 -0.1554
  629MOL0     H86744   8.062   0.271   3.227 -1.4816  1.0956 -1.8221
  629MOL0     H86745   7.829   0.254   3.427 -0.2021 -1.2609  1.0620
  629MOL0     H86746   7.842   0.147   3.294  0.4649  0.0174 -0.5560
  629MOL0     H86747   8.060   0.050   3.393  1.2933 -0.4016  1.4694
  629MOL0     H86748   7.924   0.039   3.497 -0.8856  1.6945  0.6121
  629MOL0     H86749   8.028   0.274   3.599 -1.2398 -1.0486  1.1205
  629MOL0     H86750   8.094   0.109   3.639  2.2592  1.7756  0.1920
  629MOL0     H86751   8.211   0.427   3.462  0.0326  0.1293 -0.8699
  629MOL0     H86752   8.532   0.409   3.335 -0.1052 -0.2432 -0.4724
  629MOL0     H86753   8.608   0.363   3.478 -0.0297 -0.9885  0.7732
  629MOL0     H86754   8.460   0.604   3.425  2.9910 -1.1119 -2.6331
  629MOL0     H86755   8.427   0.533   3.596 -1.4556  0.3942 -1.1552
  629MOL0     H86756   8.680   0.524   3.611 -0.5825 -0.5199  0.8680
  629MOL0     H86757   8.687   0.643   3.487 -0.4014  1.5439 -0.0436
  629MOL0     H86758   8.542   0.801   3.621  3.8063  0.5114 -3.7821
  629MOL0     H86759   8.536   0.673   3.751  0.7481  1.0136  1.6477
  629MOL0     H86760   8.522   0.956   3.780  0.4271  1.6271 -1.2752
  629MOL0     H86761   8.414   1.105   3.907 -1.1434  1.8450  0.0946
  629MOL0     H86762   8.519   1.229   3.963 -1.9934  0.7741 -1.4333
  629MOL0     H86763   8.458   1.092   4.073 -0.3270 -0.5880 -0.8066
  629MOL0     H86764   8.637   1.087   4.352  0.8815 -0.5321  0.0898
  629MOL0     H86765   8.602   1.145   4.589  0.8140 -0.2195 -0.6735
  629MOL0     H86766   8.612   1.597   4.683 -0.1665  0.0025 -0.0993
  629MOL0     H86767   8.458   1.531   4.635 -1.4635 -3.4702 -0.3638
  629MOL0     H86768   8.433   1.611   4.854 -0.1630  0.5133  0.9056
  629MOL0     H86769   8.404   1.432   4.846  0.2166  0.0205 -0.8054
  629MOL0     H86770   8.656   1.546   4.958  0.3345 -1.2345 -0.3223
  629MOL0     H86771   8.591   1.384   4.973 -0.7463  0.7227  0.1146
  629MOL0     H86772   8.416   1.435   5.104  0.7866 -1.2268 -0.4943
  629MOL0     H86773   8.441   1.611   5.086 -0.4873 -0.0156 -2.6380
  629MOL0     H86774   8.643   1.412   5.186 -1.6343 -0.2458  2.6244
  629MOL0     H86775   8.663   1.591   5.199 -0.2898 -0.1272 -1.2176
  629MOL0     H86776   8.608   1.456   5.410  0.0430 -0.4303  0.8275
  629MOL0     H86777   8.454   1.436   5.350  1.4310 -1.4933  2.7641
  629MOL0     H86778   8.421   1.684   5.326  0.7104 -0.1344  0.0323
  629MOL0     H86779   8.568   1.729   5.412 -0.4701 -0.1044  3.7284
  629MOL0     H86780   8.371   1.535   5.524  0.5917  0.5798  3.4435
  629MOL0     H86781   8.358   1.709   5.539 -2.0948 -2.2193 -1.7503
  629MOL0     H86782   8.624   1.565   4.454 -1.9303 -0.4012 -0.4425
  629MOL0     H86783   8.651   1.493   4.241 -1.6762  2.5611  3.3712
  629MOL0     H86784   8.950   0.979   4.029 -0.3244  2.4077  0.5269
  629MOL0     H86785   8.923   0.815   3.847  1.4790  1.8629  1.9361
  629MOL0     H86786   7.966   0.596   2.706  1.6765  2.1498  0.4193
  629MOL0     H86787   7.909   0.798   2.552  3.4546 -1.7194 -1.4273
  629MOL0     H86788   7.785   0.928   2.198 -0.3481 -0.2966  1.7299
  629MOL0     H86789   7.790   1.087   2.009  0.5632  0.4771  0.8060
  629MOL0     H86790   7.392   1.271   1.913 -1.1315 -2.1406  0.5743
  629MOL0     H86791   7.491   1.344   1.794 -1.6261 -0.8534 -2.9199
  629MOL0     H86792   7.389   1.050   1.794  0.2090 -0.1818  2.0231
  629MOL0     H86793   7.520   1.111   1.691  0.9362  3.6830 -0.8282
  629MOL0     H86794   7.387   1.275   1.579 -0.5060  1.2084  1.0435
  629MOL0     H86795   7.311   1.117   1.553  1.5041  1.1436 -1.0951
  629MOL0     H86796   7.172   1.175   1.768 -1.3447  1.1345 -0.3575
  629MOL0     H86797   7.121   1.241   1.607  0.2483  0.5356 -1.2269
  629MOL0     H86798   7.182   1.594   1.812  3.2574 -0.2936 -1.1396
  629MOL0     H86799   7.379   1.157   2.084  2.2893  2.3031  0.0132
  629MOL0     H86800   7.315   1.007   2.357  0.7051  0.7535 -0.8477
  629MOL0     H86801   7.238   1.014   2.197 -3.7776 -0.3272  2.5451
  629MOL0     H86802   7.304   0.859   2.258 -0.8567 -0.3207  0.5852
  630MOL0     O86803   9.434   6.670   7.440  0.6818 -0.1692  0.6663
  630MOL0     C86804   9.341   6.646   7.517  0.3187 -0.5283 -0.7436
  630MOL0     O86805   9.360   6.631   7.658 -0.5593  0.1992 -0.5831
  630MOL0     C86806   9.482   6.605   7.712  0.5676 -0.2860  0.5129
  630MOL0     C86807   9.502   6.651   7.834 -0.1329  0.1475  0.4246
  630MOL0     C86808   9.613   6.603   7.900 -0.7567 -0.2200 -0.0674
  630MOL0     C86809   9.715   6.528   7.838  0.0477 -0.0462  0.3140
  630MOL0     O86810   9.823   6.495   7.917 -0.2952 -0.1619 -0.2348
  630MOL0     C86811   9.924   6.398   7.863 -0.3913 -0.1262 -0.1271
  630MOL0     C86812  10.030   6.376   7.953 -0.6814  0.7274  0.4042
  630MOL0     C86813  10.119   6.264   7.904 -0.7175  0.2541 -0.4090
  630MOL0     C86814  10.191   6.210   8.031 -0.4987  0.0735 -0.3314
  630MOL0     C86815  10.276   6.079   8.004 -0.0325  1.0050  0.7493
  630MOL0     C86816  10.376   6.087   7.880 -0.6570 -0.8438  0.6260
  630MOL0     C86817  10.519   6.095   7.929 -0.0596 -1.2720 -0.5623
  630MOL0     C86818  10.631   6.064   7.831  0.3804  0.3840  0.5618
  630MOL0     N86819  10.628   6.150   7.709  0.4638  0.0591  0.1155
  630MOL0     C86820  10.602   6.100   7.580  0.1697 -0.6606 -0.2308
  630MOL0     C86821  10.630   6.202   7.503  0.3416 -0.5549 -0.3998
  630MOL0     C86822  10.641   6.203   7.354 -0.0812 -0.2771 -0.6184
  630MOL0     C86823  10.730   6.321   7.310  0.4783  0.2884  0.2913
  630MOL0     C86824  10.657   6.455   7.299 -0.4222 -0.2237 -0.0455
  630MOL0     C86825  10.742   6.554   7.218  0.3434  0.1733 -0.7460
  630MOL0     O86826  10.760   6.511   7.079 -0.3071 -0.7868 -0.1080
  630MOL0     C86827  10.852   6.589   7.015 -0.0771 -0.0509  0.6466
  630MOL0     C86828  10.984   6.577   7.056 -0.0959  0.1649  0.8200
  630MOL0     C86829  11.086   6.647   6.995  0.0754  0.2065  0.1758
  630MOL0     C86830  11.233   6.612   7.015  0.4862  0.1973 -0.4561
  630MOL0     C86831  11.043   6.742   6.889  0.3759 -0.1928 -0.1796
  630MOL0     C86832  11.132   6.828   6.808  0.3163  0.1796 -0.4241
  630MOL0     O86833  11.073   6.878   6.688  0.6286  0.0895 -0.5999
  630MOL0     C86834  11.169   6.920   6.607  0.1835  0.8653 -0.5900
  630MOL0     C86835  11.163   7.049   6.559 -0.0343  0.4634 -0.5526
  630MOL0     C86836  11.268   7.095   6.486  0.1048  0.2472 -0.5315
  630MOL0     C86837  11.384   7.030   6.457 -0.1602  0.0052 -0.8716
  630MOL0     O86838  11.495   7.081   6.386 -0.3224  0.0767  0.0684
  630MOL0     C86839  11.618   7.078   6.466 -0.5606 -0.7672 -0.3672
  630MOL0     C86840  11.650   7.208   6.542  0.0549  0.2732 -0.1518
  630MOL0     C86841  11.792   7.191   6.601  0.8053 -0.6009  0.6290
  630MOL0     C86842  11.821   7.310   6.695  0.7270  0.0057 -0.3687
  630MOL0     C86843  11.958   7.302   6.776  0.5213 -0.4598  0.6756
  630MOL0     C86844  12.067   7.282   6.670  0.0269  0.4095 -0.5351
  630MOL0     C86845  12.200   7.309   6.722 -0.3729 -0.2962 -0.1325
  630MOL0     C86846  12.318   7.267   6.625  1.1863  0.3430 -0.0876
  630MOL0    Cl86847  12.466   7.292   6.721  0.4957  0.4803  0.1464
  630MOL0     C86848  11.384   6.894   6.494 -1.1691 -0.0324 -0.4330
  630MOL0     C86849  11.281   6.839   6.571 -0.5546 -0.0021  0.8642
  630MOL0     O86850  11.246   6.847   6.855  0.3070 -0.2886 -0.2249
  630MOL0     C86851  10.906   6.755   6.850  0.3490  0.5186  0.0281
  630MOL0     C86852  10.807   6.672   6.908 -0.1050 -0.6906 -1.6820
  630MOL0     N86853  10.646   6.322   7.578 -0.2583  0.0599 -0.2339
  630MOL0     N86854  10.655   6.288   7.703 -0.0130  0.2968  0.0163
  630MOL0     C86855   9.703   6.504   7.704  0.3629 -0.2596 -0.9450
  630MOL0     C86856   9.583   6.542   7.642 -0.1267 -0.0122 -0.3273
  630MOL0     C86857   9.210   6.614   7.460 -0.1965  0.0032 -0.4175
  630MOL0     C86858   9.131   6.535   7.548  1.1389 -1.2082 -0.1077
  630MOL0     C86859   9.003   6.500   7.502 -0.8350 -1.1394  0.3802
  630MOL0     C86860   8.962   6.515   7.366 -0.0312 -0.4922 -0.4521
  630MOL0     O86861   8.849   6.471   7.314 -0.2613 -0.5338  0.5256
  630MOL0     C86862   8.792   6.348   7.342 -0.5559 -0.3061 -0.3698
  630MOL0     C86863   8.665   6.349   7.266 -0.1310 -0.0917  0.2996
  630MOL0     C86864   8.594   6.214   7.257 -0.3394  0.5474 -0.4111
  630MOL0     C86865   8.451   6.236   7.210 -0.1172 -0.2463 -0.4732
  630MOL0     C86866   8.437   6.220   7.069  0.1891 -0.8144 -0.1411
  630MOL0     C86867   8.437   6.225   6.948 -0.5656 -0.2980 -0.3547
  630MOL0     C86868   9.041   6.592   7.286  0.0433 -0.5629  0.4912
  630MOL0     C86869   9.165   6.652   7.332 -1.4513 -0.3996 -0.3654
  630MOL0     C86870   9.254   6.711   7.220  0.6605 -0.4817  0.5059
  630MOL0     H86871   9.431   6.715   7.885 -0.2136  0.1022  0.3674
  630MOL0     H86872   9.622   6.633   8.004 -2.1031 -0.3326  0.1071
  630MOL0     H86873   9.975   6.448   7.780  0.0122 -0.1065  0.1324
  630MOL0     H86874   9.885   6.305   7.820 -0.2702  0.8845 -2.5874
  630MOL0     H86875  10.094   6.464   7.959 -1.1182  1.1994 -1.4038
  630MOL0     H86876   9.998   6.342   8.052  3.7298 -2.2090  1.0923
  630MOL0     H86877  10.064   6.186   7.850 -0.6491 -0.5399  0.6440
  630MOL0     H86878  10.192   6.303   7.832 -1.8547  3.5392  0.0878
  630MOL0     H86879  10.266   6.284   8.057 -2.3689  1.5179  1.2588
  630MOL0     H86880  10.129   6.195   8.121  0.6524 -0.8578  0.3352
  630MOL0     H86881  10.210   5.992   7.991  0.1389  1.1507 -1.4250
  630MOL0     H86882  10.328   6.061   8.099 -1.0484 -2.6210  0.7916
  630MOL0     H86883  10.357   6.000   7.817 -2.2559 -0.4796  0.5581
  630MOL0     H86884  10.366   6.180   7.822  0.1395 -0.8825  0.4188
  630MOL0     H86885  10.533   6.020   8.007  1.1853 -1.0545 -0.5541
  630MOL0     H86886  10.542   6.195   7.967  0.2880 -0.9268 -1.6427
  630MOL0     H86887  10.724   6.080   7.886  0.3532 -0.6331  0.9124
  630MOL0     H86888  10.611   5.962   7.795 -0.9529  1.7831 -3.1992
  630MOL0     H86889  10.580   5.999   7.546  2.8138 -1.0147 -1.0963
  630MOL0     H86890  10.543   6.228   7.313  0.1932  1.1155 -0.4838
  630MOL0     H86891  10.678   6.107   7.315 -1.7358 -0.5388 -1.6222
  630MOL0     H86892  10.816   6.320   7.378  0.8931  1.0518 -0.2123
  630MOL0     H86893  10.763   6.292   7.211 -0.5379 -1.0702  0.3176
  630MOL0     H86894  10.562   6.438   7.247 -1.0052  0.9806  0.5719
  630MOL0     H86895  10.652   6.495   7.401  1.4000 -2.2346  0.8926
  630MOL0     H86896  10.689   6.650   7.218  1.9524  1.1974  2.4301
  630MOL0     H86897  10.832   6.563   7.279 -0.6573  1.4960  0.6181
  630MOL0     H86898  11.015   6.512   7.136  0.4812 -0.1668  0.3348
  630MOL0     H86899  11.287   6.596   6.922  0.4943  1.3747 -0.6679
  630MOL0     H86900  11.241   6.529   7.086  1.8557  0.5543 -0.1678
  630MOL0     H86901  11.285   6.699   7.055  2.7282 -0.9569 -0.7406
  630MOL0     H86902  11.072   7.108   6.570  1.0457  2.0729  0.2830
  630MOL0     H86903  11.269   7.197   6.448  4.0035 -0.1775 -2.0428
  630MOL0     H86904  11.617   6.995   6.538  1.5012 -3.7162 -3.4005
  630MOL0     H86905  11.704   7.048   6.406  2.8297  3.5833  1.7066
  630MOL0     H86906  11.647   7.294   6.474  2.2641 -0.5532 -1.3870
  630MOL0     H86907  11.582   7.228   6.626  3.2558  0.9681  2.4881
  630MOL0     H86908  11.865   7.195   6.519 -0.2976 -1.3613 -0.4240
  630MOL0     H86909  11.815   7.095   6.648 -0.5173 -2.5325 -2.3842
  630MOL0     H86910  11.743   7.305   6.771  0.8693  1.3783 -0.1063
  630MOL0     H86911  11.831   7.401   6.634 -0.3739  0.3069 -0.1241
  630MOL0     H86912  11.971   7.397   6.828 -1.8785  0.2298  0.1444
  630MOL0     H86913  11.972   7.223   6.850  0.8478  0.5534  1.7322
  630MOL0     H86914  12.051   7.355   6.590 -4.0839 -1.4237 -1.6855
  630MOL0     H86915  12.052   7.185   6.620 -0.7675  1.9411 -3.5210
  630MOL0     H86916  12.223   7.259   6.816  0.1114  1.0656  0.4899
  630MOL0     H86917  12.206   7.418   6.733 -1.1008 -0.0544 -1.7985
  630MOL0     H86918  12.315   7.328   6.534  1.8367 -1.3337 -1.2784
  630MOL0     H86919  12.299   7.163   6.596 -0.4604 -0.0866  2.2325
  630MOL0     H86920  11.463   6.822   6.474  1.5445  2.0624  1.8645
  630MOL0     H86921  11.291   6.736   6.603  3.3637 -1.2803 -3.4375
  630MOL0     H86922  10.875   6.840   6.789 -0.5018 -1.8148 -3.0679
  630MOL0     H86923  10.701   6.669   6.887 -0.2755 -2.0665 -0.7272
  630MOL0     H86924   9.781   6.458   7.643  0.0531 -2.8530  0.4826
  630MOL0     H86925   9.588   6.518   7.536  1.6225 -0.4317 -0.1764
  630MOL0     H86926   9.157   6.512   7.651  2.2020  0.9472  0.1721
  630MOL0     H86927   8.930   6.446   7.561 -0.3603 -3.2371 -0.8479
  630MOL0     H86928   8.859   6.271   7.305 -3.5017 -2.3960 -1.7444
  630MOL0     H86929   8.768   6.325   7.446  0.1183 -0.2664 -0.2022
  630MOL0     H86930   8.703   6.386   7.170  4.0843 -1.2891  1.2986
  630MOL0     H86931   8.592   6.423   7.299  0.2821  0.0396  0.9297
  630MOL0     H86932   8.646   6.145   7.189 -1.9661  0.4688 -1.6283
  630MOL0     H86933   8.587   6.166   7.355 -0.9291  0.6216 -0.4147
  630MOL0     H86934   8.423   6.338   7.241  0.2522 -0.2507 -0.1204
  630MOL0     H86935   8.388   6.169   7.269  0.6544  0.5645  1.3532
  630MOL0     H86936   8.456   6.248   6.845  2.3852 -1.4107 -0.1238
  630MOL0     H86937   9.012   6.616   7.185  1.5926  2.0522  0.5796
  630MOL0     H86938   9.290   6.810   7.250 -1.1999  0.3179  0.1937
  630MOL0     H86939   9.346   6.654   7.202  1.8701  1.1911  1.1725
  630MOL0     H86940   9.193   6.722   7.130  1.1796 -0.9822  0.0793
  631MOL0     O86941   2.894  11.486   5.171 -1.1955  0.2740 -0.0934
  631MOL0     C86942   2.848  11.587   5.214 -0.3468  0.7180  0.4021
  631MOL0     O86943   2.902  11.657   5.319  0.4590 -0.5269 -0.5735
  631MOL0     C86944   3.031  11.621   5.360  0.2827 -0.0370 -0.2947
  631MOL0     C86945   3.146  11.646   5.280  1.0341  0.1538 -0.1134
  631MOL0     C86946   3.273  11.586   5.296  0.6188  0.0283 -0.3527
  631MOL0     C86947   3.299  11.512   5.412  0.7589  0.3190  0.3433
  631MOL0     O86948   3.427  11.469   5.422  0.1222 -0.0880 -0.3386
  631MOL0     C86949   3.506  11.517   5.535  0.5689  0.5472 -0.1037
  631MOL0     C86950   3.571  11.650   5.500  0.7035 -1.0378  0.6422
  631MOL0     C86951   3.676  11.631   5.394  1.0166 -0.3768  0.7333
  631MOL0     C86952   3.765  11.756   5.382 -0.0553  0.3385 -0.4322
  631MOL0     C86953   3.796  11.784   5.233  0.9172  1.0626  0.2825
  631MOL0     C86954   3.827  11.924   5.202 -0.0411 -0.0639 -0.7515
  631MOL0     C86955   3.863  11.955   5.057  1.0473 -0.8642  0.0496
  631MOL0     C86956   3.906  12.096   5.045 -0.5966  0.0264  0.0152
  631MOL0     N86957   3.916  12.150   4.903  0.2091  0.1618  0.8096
  631MOL0     C86958   4.033  12.156   4.830  1.2120  0.6110  1.1689
  631MOL0     C86959   4.010  12.234   4.718  0.1481 -0.0255  0.7046
  631MOL0     C86960   4.103  12.264   4.602  0.7555  1.1754  0.8087
  631MOL0     C86961   4.239  12.322   4.648  0.9230 -0.3908  0.9281
  631MOL0     C86962   4.340  12.300   4.534  0.3953  0.6069 -0.1750
  631MOL0     C86963   4.471  12.369   4.559 -0.3348  0.0130  0.4518
  631MOL0     O86964   4.562  12.313   4.460 -0.7068  0.4869 -0.2741
  631MOL0     C86965   4.693  12.336   4.494  0.0369  0.0453 -0.0958
  631MOL0     C86966   4.748  12.290   4.612  0.7634 -0.1018  0.1469
  631MOL0     C86967   4.882  12.309   4.635  0.1887 -0.0867  0.7173
  631MOL0     C86968   4.934  12.240   4.764  0.1428  0.3113 -0.5769
  631MOL0     C86969   4.964  12.376   4.547 -0.2191 -0.0616 -0.5611
  631MOL0     C86970   5.108  12.406   4.558  0.1254  0.4883  0.7263
  631MOL0     O86971   5.150  12.534   4.505  0.3409 -0.0522  0.2028
  631MOL0     C86972   5.280  12.569   4.499 -0.8245 -0.8056  0.4010
  631MOL0     C86973   5.379  12.494   4.431 -1.1212  0.0014  0.0358
  631MOL0     C86974   5.517  12.535   4.433 -1.2233  0.4009 -0.1010
  631MOL0     C86975   5.554  12.658   4.492  0.1415 -0.8488  0.5247
  631MOL0     O86976   5.681  12.717   4.495  0.4942  0.3720  0.1101
  631MOL0     C86977   5.791  12.646   4.427  1.0326  0.5573  0.6433
  631MOL0     C86978   5.888  12.739   4.391  0.3332 -0.9886  0.9964
  631MOL0     C86979   5.854  12.824   4.262  0.7130  0.0279  0.0249
  631MOL0     C86980   5.968  12.931   4.250 -0.6006 -1.2024 -0.2057
  631MOL0     C86981   5.934  13.026   4.142 -0.5012 -0.0468 -0.4134
  631MOL0     C86982   6.046  13.128   4.108  1.0736  0.7201  0.2534
  631MOL0     C86983   6.090  13.207   4.233 -0.3526  0.3999 -0.3349
  631MOL0     C86984   6.188  13.313   4.196 -0.1525  0.3869 -0.5281
  631MOL0    Cl86985   6.178  13.417   4.335 -0.3627 -0.0309  0.3945
  631MOL0     C86986   5.456  12.729   4.552 -0.6894  0.7181  0.0698
  631MOL0     C86987   5.320  12.690   4.561 -1.2656  0.7819 -0.5538
  631MOL0     O86988   5.181  12.320   4.601 -0.3362  0.3951 -0.1305
  631MOL0     C86989   4.906  12.412   4.426  0.9111  0.0263  0.5766
  631MOL0     C86990   4.769  12.395   4.392  0.4521 -0.0886  0.0123
  631MOL0     N86991   3.879  12.266   4.726  0.4014  0.0936  0.3909
  631MOL0     N86992   3.822  12.223   4.836 -0.7406  0.2575 -0.1363
  631MOL0     C86993   3.185  11.485   5.497 -0.1625 -0.6589 -0.0365
  631MOL0     C86994   3.053  11.543   5.475 -0.3517  0.0270 -0.2483
  631MOL0     C86995   2.741  11.650   5.136  0.1282  0.3403 -0.8204
  631MOL0     C86996   2.703  11.586   5.012 -1.0012  0.3195  0.9556
  631MOL0     C86997   2.595  11.635   4.931  0.6754 -0.8710  0.4134
  631MOL0     C86998   2.517  11.738   4.984 -0.4548 -0.9407 -0.1931
  631MOL0     O86999   2.415  11.775   4.903 -0.0839  0.0876  0.0643
  631MOL0     C87000   2.414  11.913   4.850 -0.3799  0.1689 -0.1124
  631MOL0     C87001   2.546  11.952   4.777  0.5296  0.9224 -0.3163
  631MOL0     C87002   2.521  12.081   4.701  0.5268 -0.1142  0.0896
  631MOL0     C87003   2.560  12.192   4.798 -0.2836  0.7560  0.1915
  631MOL0     C87004   2.550  12.329   4.748  0.4535 -0.4609  0.1257
  631MOL0     C87005   2.548  12.446   4.714  0.6769 -0.5836 -0.7827
  631MOL0     C87006   2.548  11.802   5.105  0.3424 -0.1068 -0.5859
  631MOL0     C87007   2.661  11.763   5.182  0.0162  0.2185  0.2679
  631MOL0     C87008   2.677  11.828   5.314 -0.1863 -0.5883  0.6689
  631MOL0     H87009   3.116  11.712   5.199 -1.9686 -0.5307  0.3145
  631MOL0     H87010   3.353  11.599   5.225 -0.0264  2.3455 -0.7246
  631MOL0     H87011   3.586  11.447   5.557 -0.1853 -0.6549 -1.0807
  631MOL0     H87012   3.451  11.532   5.629  0.8096  0.6815  0.0155
  631MOL0     H87013   3.503  11.732   5.475  0.3475 -1.0289  1.5775
  631MOL0     H87014   3.629  11.687   5.585  3.8265 -2.6111 -0.6361
  631MOL0     H87015   3.738  11.550   5.435 -0.6096 -0.9713  2.1266
  631MOL0     H87016   3.632  11.593   5.301 -1.0131  0.5768  1.2664
  631MOL0     H87017   3.711  11.841   5.425  1.0506  0.0978  1.5753
  631MOL0     H87018   3.859  11.751   5.439  1.5084 -0.6278 -2.9112
  631MOL0     H87019   3.719  11.742   5.169  1.2343 -1.4508  1.4014
  631MOL0     H87020   3.874  11.709   5.213 -1.9071 -2.1792  0.5685
  631MOL0     H87021   3.748  11.994   5.231 -1.4031 -1.1475 -1.7287
  631MOL0     H87022   3.919  11.951   5.255  0.9301 -3.5691 -0.4459
  631MOL0     H87023   3.771  11.950   4.997  0.9355  2.2558 -0.2078
  631MOL0     H87024   3.941  11.887   5.024 -0.3458 -2.9838  0.9251
  631MOL0     H87025   3.822  12.156   5.080 -2.3101 -0.4294 -2.9434
  631MOL0     H87026   3.994  12.116   5.106 -0.5041  2.7155 -0.8830
  631MOL0     H87027   4.126  12.114   4.868  0.2808 -0.9171  1.8704
  631MOL0     H87028   4.047  12.329   4.534 -2.0274 -0.1573  1.6404
  631MOL0     H87029   4.107  12.169   4.548  1.0984  0.7416  1.5775
  631MOL0     H87030   4.228  12.425   4.682  1.2128 -0.2225  0.5165
  631MOL0     H87031   4.266  12.277   4.744 -1.4548  0.6009  2.1657
  631MOL0     H87032   4.360  12.193   4.539 -2.2642  0.0896  2.2752
  631MOL0     H87033   4.297  12.323   4.436  0.3790 -1.2326 -0.6356
  631MOL0     H87034   4.442  12.472   4.538  2.3185  0.5893 -0.6789
  631MOL0     H87035   4.497  12.353   4.664  0.8234 -1.5965 -0.0430
  631MOL0     H87036   4.683  12.235   4.680 -0.1170  1.3128  0.4898
  631MOL0     H87037   5.017  12.300   4.803  0.5345  1.0437 -2.4204
  631MOL0     H87038   4.956  12.136   4.737  0.8384  1.0526 -3.0614
  631MOL0     H87039   4.858  12.242   4.843  0.6587 -1.3435  0.0027
  631MOL0     H87040   5.342  12.404   4.383 -0.3971 -1.8718  2.7180
  631MOL0     H87041   5.589  12.476   4.377  1.5170  1.0882  2.4043
  631MOL0     H87042   5.825  12.572   4.501 -4.8356 -2.2085  1.1712
  631MOL0     H87043   5.764  12.591   4.336  0.1972 -0.4635  1.4741
  631MOL0     H87044   5.908  12.804   4.476 -0.9202  1.1371 -0.2532
  631MOL0     H87045   5.980  12.686   4.365  0.0203 -1.4179  0.7326
  631MOL0     H87046   5.756  12.873   4.263  1.2949  1.2180  0.3757
  631MOL0     H87047   5.851  12.760   4.173 -0.6012  0.6509 -0.4114
  631MOL0     H87048   6.069  12.889   4.240 -0.1002 -0.0386 -0.2261
  631MOL0     H87049   5.958  12.998   4.335 -0.0062  0.2814 -1.2720
  631MOL0     H87050   5.910  12.981   4.045  1.6927  0.1272 -1.1083
  631MOL0     H87051   5.846  13.083   4.172 -1.2165 -0.0730 -2.3329
  631MOL0     H87052   6.011  13.189   4.025 -1.2861 -2.9845 -1.7887
  631MOL0     H87053   6.130  13.075   4.063 -1.0185 -0.0345 -3.1726
  631MOL0     H87054   6.133  13.143   4.310  0.5980 -0.0380 -1.1986
  631MOL0     H87055   6.001  13.259   4.270 -0.4297 -0.6885  1.1000
  631MOL0     H87056   6.152  13.360   4.103 -0.3792  1.5658  0.1347
  631MOL0     H87057   6.289  13.273   4.188 -0.3877 -1.2574  2.9106
  631MOL0     H87058   5.477  12.822   4.604  0.8214 -0.5494  1.8735
  631MOL0     H87059   5.242  12.744   4.612 -1.6267 -1.7375  1.7550
  631MOL0     H87060   4.959  12.467   4.348 -0.6595  2.1183  0.8966
  631MOL0     H87061   4.731  12.434   4.298 -3.5734 -1.7005  0.7533
  631MOL0     H87062   3.197  11.431   5.590  3.0470  2.2455  1.4922
  631MOL0     H87063   2.975  11.525   5.549 -0.2086  1.3951  0.2708
  631MOL0     H87064   2.755  11.495   4.987  0.7276  1.5329 -0.0874
  631MOL0     H87065   2.567  11.592   4.836 -3.8288  2.2252  0.0546
  631MOL0     H87066   2.330  11.935   4.785 -1.8703  0.6772  1.8850
  631MOL0     H87067   2.391  11.979   4.934 -1.0776 -2.2556  1.7349
  631MOL0     H87068   2.572  11.881   4.698 -2.5266  1.7327 -2.2514
  631MOL0     H87069   2.624  11.960   4.853  0.8195  0.1608 -0.5263
  631MOL0     H87070   2.574  12.093   4.606  1.3047 -1.3407  0.3399
  631MOL0     H87071   2.418  12.108   4.678  0.3527  1.8630  2.7019
  631MOL0     H87072   2.665  12.171   4.819  0.0126 -0.3995 -2.1717
  631MOL0     H87073   2.493  12.184   4.885 -0.8467  0.5789 -0.2535
  631MOL0     H87074   2.557  12.548   4.682 -1.5079 -0.6367 -1.7305
  631MOL0     H87075   2.480  11.878   5.143  0.2288 -0.9634  1.0238
  631MOL0     H87076   2.675  11.760   5.399 -1.2000  1.0616  2.0304
  631MOL0     H87077   2.767  11.890   5.310 -2.0008  2.3379  1.8148
  631MOL0     H87078   2.593  11.893   5.340 -0.4752 -1.5005  2.0833
  632MOL0     O87079   2.219   4.511  11.003 -0.1256 -0.2656 -0.4658
  632MOL0     C87080   2.188   4.562  11.114  0.0067  1.0375  0.9562
  632MOL0     O87081   2.274   4.572  11.215 -0.0737  0.9574 -0.0270
  632MOL0     C87082   2.406   4.530  11.191 -0.6270  0.3260 -0.2534
  632MOL0     C87083   2.509   4.619  11.216  0.1293 -0.1180  0.6534
  632MOL0     C87084   2.644   4.579  11.199 -0.0643  1.2942 -0.9426
  632MOL0     C87085   2.668   4.446  11.154  0.4246 -0.9467 -0.6716
  632MOL0     O87086   2.790   4.402  11.125 -0.3145  0.0122 -0.0084
  632MOL0     C87087   2.901   4.484  11.099 -0.2498 -0.0308  0.3881
  632MOL0     C87088   2.902   4.540  10.955 -0.3901  0.2887  0.6918
  632MOL0     C87089   3.008   4.642  10.916 -0.9489 -0.0115  0.3782
  632MOL0     C87090   2.994   4.769  10.999  0.5382 -0.6047  0.1405
  632MOL0     C87091   3.063   4.881  10.916 -0.2590  0.8148 -0.4455
  632MOL0     C87092   3.083   5.007  10.999  0.1983 -1.1797  0.0907
  632MOL0     C87093   3.145   5.116  10.910  0.5657  0.5365 -0.4777
  632MOL0     C87094   3.298   5.097  10.883  0.7362  0.9419 -0.0159
  632MOL0     N87095   3.386   5.193  10.832 -0.7346  0.0310  0.3647
  632MOL0     C87096   3.375   5.326  10.863 -0.8520 -0.6237  0.5564
  632MOL0     C87097   3.447   5.378  10.774 -0.2974  1.0012  0.0018
  632MOL0     C87098   3.453   5.529  10.775  0.6916  0.2032  0.3768
  632MOL0     C87099   3.601   5.576  10.750  1.2947 -0.4174  0.1744
  632MOL0     C87100   3.711   5.511  10.836 -0.0208 -0.1543 -0.0151
  632MOL0     C87101   3.733   5.574  10.972  0.1784  0.2340  0.1250
  632MOL0     O87102   3.763   5.714  10.963 -0.4958  0.4456 -0.1420
  632MOL0     C87103   3.671   5.813  11.004 -0.2608  0.4824 -0.2817
  632MOL0     C87104   3.700   5.944  10.962 -0.4297 -0.2570 -0.1001
  632MOL0     C87105   3.621   6.053  11.002  0.1549  0.5713 -0.2287
  632MOL0     C87106   3.666   6.192  10.963 -0.6526 -0.8150  0.7768
  632MOL0     C87107   3.498   6.026  11.061  0.3642 -0.2394  0.1471
  632MOL0     C87108   3.396   6.128  11.111  0.4692  0.1244 -0.2166
  632MOL0     O87109   3.448   6.254  11.118  1.1891 -0.7651 -0.6275
  632MOL0     C87110   3.368   6.351  11.175  0.1224  0.0714 -0.5412
  632MOL0     C87111   3.337   6.344  11.311 -0.8963  0.2276 -1.5487
  632MOL0     C87112   3.263   6.452  11.368 -0.8651 -0.1689 -0.4956
  632MOL0     C87113   3.226   6.554  11.284 -0.0935 -0.4764 -0.8258
  632MOL0     O87114   3.157   6.659  11.339 -0.3334 -0.3820  0.5272
  632MOL0     C87115   3.069   6.639  11.452 -0.5370 -0.1776 -0.2774
  632MOL0     C87116   2.974   6.752  11.461  0.1624  0.0558 -0.6134
  632MOL0     C87117   2.862   6.738  11.348 -0.1755 -0.0965  0.8248
  632MOL0     C87118   2.753   6.835  11.338  0.3852  0.0714 -0.6570
  632MOL0     C87119   2.805   6.981  11.324 -0.2337 -0.4950 -0.2899
  632MOL0     C87120   2.718   7.070  11.245  0.2378  0.6094 -0.1359
  632MOL0     C87121   2.711   7.050  11.093 -0.4432  0.4406 -0.8396
  632MOL0     C87122   2.599   7.123  11.017 -0.1865  0.3735  0.3908
  632MOL0    Cl87123   2.639   7.123  10.843 -0.6066 -0.0733  0.4828
  632MOL0     C87124   3.253   6.560  11.149 -0.0402  0.6258  0.4359
  632MOL0     C87125   3.325   6.456  11.098 -0.0280  0.0258  0.4721
  632MOL0     O87126   3.273   6.100  11.120  0.1334  0.3942 -0.5822
  632MOL0     C87127   3.466   5.889  11.105 -0.4662  0.6150  0.2920
  632MOL0     C87128   3.558   5.788  11.080  0.1595 -0.8382  0.4274
  632MOL0     N87129   3.515   5.290  10.688 -0.3245  0.1740 -0.5528
  632MOL0     N87130   3.485   5.170  10.729 -0.2442  0.3352 -0.2651
  632MOL0     C87131   2.559   4.354  11.133  0.2759  0.0308 -0.4978
  632MOL0     C87132   2.431   4.397  11.144 -0.1426  1.2215 -0.0648
  632MOL0     C87133   2.058   4.631  11.125 -0.0948 -0.1942  0.0394
  632MOL0     C87134   2.065   4.750  11.194 -0.2684 -0.3277  0.1281
  632MOL0     C87135   1.955   4.835  11.198 -0.5343  0.1344 -0.2276
  632MOL0     C87136   1.835   4.811  11.137  0.1349  0.0422  0.9759
  632MOL0     O87137   1.725   4.876  11.166  0.8056  0.7014  0.3757
  632MOL0     C87138   1.714   4.985  11.262 -0.5828  0.0320  0.3447
  632MOL0     C87139   1.723   4.940  11.407 -0.1557  0.1809 -0.2487
  632MOL0     C87140   1.608   4.860  11.465  0.4008 -0.0508  0.7657
  632MOL0     C87141   1.521   4.929  11.566  0.7984 -0.0757 -0.2350
  632MOL0     C87142   1.592   4.979  11.687 -0.4560 -0.5168  0.1413
  632MOL0     C87143   1.639   5.027  11.787  0.1266 -0.6094 -0.3172
  632MOL0     C87144   1.828   4.685  11.066  0.1689 -0.7618  1.0124
  632MOL0     C87145   1.938   4.594  11.062 -0.3397 -0.1110  0.3539
  632MOL0     C87146   1.915   4.469  10.982  0.0660  0.3508  0.1139
  632MOL0     H87147   2.495   4.719  11.255  1.6552 -0.2254  1.5779
  632MOL0     H87148   2.716   4.655  11.227 -0.1100  0.6997  0.9457
  632MOL0     H87149   2.984   4.416  11.117 -0.7534 -0.2009  2.3272
  632MOL0     H87150   2.915   4.568  11.168  0.9033  0.3173 -0.2515
  632MOL0     H87151   2.904   4.456  10.885  0.3629  1.3308 -0.5833
  632MOL0     H87152   2.811   4.593  10.925 -1.5762 -1.9322  0.1524
  632MOL0     H87153   3.112   4.611  10.928 -0.8949  0.8991  3.0077
  632MOL0     H87154   2.991   4.667  10.811  1.4430 -0.5362 -0.1994
  632MOL0     H87155   2.890   4.800  11.010  0.8209  2.3617 -3.5180
  632MOL0     H87156   3.035   4.750  11.099  0.1136 -1.5442  0.1452
  632MOL0     H87157   3.013   4.908  10.822 -0.2539 -1.1909 -1.0689
  632MOL0     H87158   3.158   4.844  10.877  0.1375  0.4469  0.8207
  632MOL0     H87159   2.986   5.041  11.036  0.1702  1.4111 -1.9895
  632MOL0     H87160   3.145   4.990  11.088  0.0415 -0.9839  0.2386
  632MOL0     H87161   3.152   5.216  10.954 -2.8904 -0.5205  3.0374
  632MOL0     H87162   3.088   5.120  10.817  0.5973 -1.4795 -0.6163
  632MOL0     H87163   3.351   5.068  10.974  1.8063  0.1593 -0.8611
  632MOL0     H87164   3.308   5.012  10.816  0.6518  1.2714 -0.4496
  632MOL0     H87165   3.331   5.381  10.946  0.3088 -1.0372  1.4693
  632MOL0     H87166   3.416   5.561  10.873 -0.8654  0.2021 -0.1833
  632MOL0     H87167   3.395   5.578  10.697  1.6327  1.0035  0.1573
  632MOL0     H87168   3.630   5.550  10.648 -1.4862 -0.0902 -0.7749
  632MOL0     H87169   3.603   5.686  10.754  1.7345 -0.1788 -3.4329
  632MOL0     H87170   3.686   5.405  10.853 -1.0628  0.2610  1.2561
  632MOL0     H87171   3.806   5.506  10.783 -0.0209 -0.9386  0.0382
  632MOL0     H87172   3.636   5.563  11.020 -0.2321  1.9242 -0.2535
  632MOL0     H87173   3.814   5.527  11.029  3.4217  2.9105 -1.8830
  632MOL0     H87174   3.794   5.967  10.912  0.9335 -0.7220  2.0847
  632MOL0     H87175   3.700   6.266  11.036  0.8680 -3.4684  2.9402
  632MOL0     H87176   3.579   6.242  10.917 -0.3921 -0.2844  0.8496
  632MOL0     H87177   3.745   6.174  10.889  0.7085  3.4158  0.9411
  632MOL0     H87178   3.391   6.277  11.377  1.1478  1.2948 -2.0564
  632MOL0     H87179   3.228   6.456  11.471  3.8368  1.5492  1.3530
  632MOL0     H87180   3.013   6.545  11.446 -1.8124  0.4697  0.9118
  632MOL0     H87181   3.134   6.634  11.539 -1.3746  1.1392  0.4599
  632MOL0     H87182   2.934   6.752  11.562  4.6839 -2.3308  1.4433
  632MOL0     H87183   3.035   6.841  11.440 -3.4282  2.1822 -3.4544
  632MOL0     H87184   2.817   6.641  11.372  0.0851 -0.3379  0.3407
  632MOL0     H87185   2.915   6.750  11.254 -0.8637  2.9323  0.7335
  632MOL0     H87186   2.689   6.837  11.427  0.8710  1.0089 -0.3216
  632MOL0     H87187   2.679   6.806  11.263  0.5085 -4.4380  0.6758
  632MOL0     H87188   2.809   7.028  11.422  1.6236  0.0902 -0.6102
  632MOL0     H87189   2.908   6.983  11.288 -0.3863  1.4924 -0.7078
  632MOL0     H87190   2.746   7.174  11.265 -0.6962  0.3189  3.4487
  632MOL0     H87191   2.617   7.064  11.288 -1.0783 -0.5702 -3.0937
  632MOL0     H87192   2.713   6.942  11.077 -3.2390  0.5115 -2.2353
  632MOL0     H87193   2.807   7.084  11.053 -1.2398  3.7196 -0.2856
  632MOL0     H87194   2.605   7.221  11.065  0.8502 -0.1590  1.3769
  632MOL0     H87195   2.506   7.073  11.042  0.2280  0.2925  1.8256
  632MOL0     H87196   3.222   6.648  11.094  0.7540 -0.2129 -1.4240
  632MOL0     H87197   3.350   6.454  10.992 -2.4209 -0.6544 -0.1224
  632MOL0     H87198   3.384   5.861  11.169 -0.4825 -1.7563 -0.6800
  632MOL0     H87199   3.528   5.700  11.137  0.1456 -1.0662  0.0743
  632MOL0     H87200   2.581   4.255  11.096  2.4750 -0.2226  1.2817
  632MOL0     H87201   2.362   4.328  11.098  1.1496  0.3641 -0.7843
  632MOL0     H87202   2.159   4.772  11.243 -1.4328  0.6154  2.0428
  632MOL0     H87203   1.972   4.924  11.258 -0.6584 -0.0050  0.0142
  632MOL0     H87204   1.790   5.057  11.229 -0.9021  0.4471  0.5086
  632MOL0     H87205   1.618   5.034  11.245 -0.8510  0.0661  1.8324
  632MOL0     H87206   1.734   5.023  11.478  0.4727 -1.4816  1.6759
  632MOL0     H87207   1.817   4.884  11.417 -0.6888 -0.3605  2.3355
  632MOL0     H87208   1.548   4.827  11.380  0.4121  0.2508  0.6383
  632MOL0     H87209   1.656   4.775  11.514  1.3158 -0.6987 -1.1214
  632MOL0     H87210   1.452   4.848  11.589  0.3530 -1.1130 -4.3304
  632MOL0     H87211   1.466   5.008  11.514 -2.8038 -1.6834  0.8516
  632MOL0     H87212   1.668   5.083  11.873 -1.7537 -0.1284  0.0291
  632MOL0     H87213   1.734   4.650  11.024  0.8838  0.0167 -1.3758
  632MOL0     H87214   2.004   4.440  10.925 -0.1087 -0.7099  0.3577
  632MOL0     H87215   1.897   4.391  11.056 -0.0779  0.3431  0.0696
  632MOL0     H87216   1.834   4.476  10.909  0.0203 -1.2926 -0.0418
  633MOL0     O87217   0.191   0.285   1.724 -0.3044  0.0399 -0.3171
  633MOL0     C87218   0.231   0.383   1.663 -0.7772  0.5673 -0.2465
  633MOL0     O87219   0.227   0.515   1.703 -0.6146  0.3885 -0.4694
  633MOL0     C87220   0.181   0.544   1.830  0.1187  0.8622 -0.5267
  633MOL0     C87221   0.049   0.577   1.840  0.4255 -0.5476  0.2986
  633MOL0     C87222  -0.012   0.608   1.963  0.5705  0.4745  0.2256
  633MOL0     C87223   0.058   0.608   2.082  0.0274 -0.3520  0.2995
  633MOL0     O87224   0.011   0.654   2.201  0.5149 -0.0121 -0.4683
  633MOL0     C87225  -0.127   0.682   2.214  0.2453  0.2674 -0.0289
  633MOL0     C87226  -0.129   0.801   2.311 -0.1627 -0.9992  0.4512
  633MOL0     C87227  -0.105   0.943   2.246 -0.0417 -0.3433 -0.4628
  633MOL0     C87228  -0.117   1.061   2.341  0.7047 -0.6835  0.0011
  633MOL0     C87229  -0.024   1.169   2.288  0.5939  0.0801 -0.1509
  633MOL0     C87230  -0.057   1.219   2.151 -0.3843  0.5604  0.4968
  633MOL0     C87231   0.041   1.342   2.115 -0.0936  0.3238  0.3169
  633MOL0     C87232   0.170   1.290   2.049  0.4026 -0.0067  0.2313
  633MOL0     N87233   0.250   1.386   1.972 -0.8947  0.2800 -1.0301
  633MOL0     C87234   0.262   1.397   1.840  0.1271 -0.3733  0.4918
  633MOL0     C87235   0.352   1.494   1.825  0.0929  0.2274  0.5864
  633MOL0     C87236   0.410   1.555   1.702 -0.5067 -0.0503  1.0644
  633MOL0     C87237   0.467   1.442   1.615 -0.5309  0.2989  0.1689
  633MOL0     C87238   0.582   1.357   1.683 -0.7192  0.4129  0.3169
  633MOL0     C87239   0.626   1.238   1.588  0.9242  0.1710  0.3992
  633MOL0     O87240   0.723   1.157   1.653  0.3500 -0.1236 -0.1271
  633MOL0     C87241   0.852   1.200   1.613 -0.2662  0.6238  0.4048
  633MOL0     C87242   0.888   1.208   1.479 -0.2212  0.0085 -0.3792
  633MOL0     C87243   1.020   1.214   1.435 -0.0561  0.2422  0.0303
  633MOL0     C87244   1.046   1.203   1.286  0.6509 -0.5391  0.4660
  633MOL0     C87245   1.122   1.235   1.536 -0.7318  0.1804 -0.2682
  633MOL0     C87246   1.267   1.244   1.498  0.2897  1.1534 -1.5310
  633MOL0     O87247   1.353   1.220   1.601 -0.5235 -0.5607 -0.5338
  633MOL0     C87248   1.480   1.222   1.567 -0.7025  0.1259  0.0493
  633MOL0     C87249   1.573   1.327   1.574  0.6716  0.3325  1.1432
  633MOL0     C87250   1.707   1.307   1.548  0.2506 -0.2306  0.0443
  633MOL0     C87251   1.759   1.190   1.506  0.0334  0.2853  0.9945
  633MOL0     O87252   1.889   1.197   1.465 -0.1719  0.7016  0.6321
  633MOL0     C87253   1.970   1.081   1.435 -0.4194  0.1774 -0.1244
  633MOL0     C87254   2.116   1.100   1.500 -0.4707 -1.1074  0.1762
  633MOL0     C87255   2.207   0.985   1.445 -0.2949 -0.4525 -0.5047
  633MOL0     C87256   2.315   0.948   1.544  0.4428 -0.3468  0.5929
  633MOL0     C87257   2.421   0.848   1.498  0.5344  0.3284  0.4857
  633MOL0     C87258   2.534   0.906   1.401  0.5803  0.1867  0.0976
  633MOL0     C87259   2.601   1.030   1.462  0.2014  0.8295  0.2413
  633MOL0     C87260   2.710   1.085   1.371  0.1324  0.0011  0.5510
  633MOL0    Cl87261   2.626   1.159   1.242 -0.2072 -0.0441  0.2188
  633MOL0     C87262   1.670   1.084   1.491  0.0231 -0.4929  0.8337
  633MOL0     C87263   1.534   1.102   1.527  0.5275  0.0399 -0.3293
  633MOL0     O87264   1.304   1.271   1.387  0.0836  0.2268 -0.7791
  633MOL0     C87265   1.086   1.243   1.673 -0.2677 -0.5905  0.0395
  633MOL0     C87266   0.955   1.219   1.709  0.3471 -0.0801  0.0514
  633MOL0     N87267   0.380   1.558   1.943 -0.1971 -0.3274 -0.0134
  633MOL0     N87268   0.309   1.500   2.030 -0.3818 -0.1221  0.2320
  633MOL0     C87269   0.196   0.581   2.070 -0.7532 -0.9119  0.6720
  633MOL0     C87270   0.254   0.542   1.946  0.0554 -0.1968  0.0163
  633MOL0     C87271   0.288   0.361   1.534  0.3972  0.5375  0.2287
  633MOL0     C87272   0.429   0.379   1.511  0.0238 -0.1445 -0.4274
  633MOL0     C87273   0.494   0.350   1.392 -0.1314  0.4670 -0.9693
  633MOL0     C87274   0.421   0.301   1.284  0.0635  0.8506 -0.1118
  633MOL0     O87275   0.477   0.263   1.166  0.1010 -0.1177  0.2395
  633MOL0     C87276   0.583   0.351   1.121 -0.5493 -0.2091 -0.9484
  633MOL0     C87277   0.561   0.506   1.111 -0.8349 -0.3811  0.3892
  633MOL0     C87278   0.435   0.540   1.018  0.2637 -0.6323 -0.4872
  633MOL0     C87279   0.443   0.680   0.964  1.1446 -0.1335 -0.5325
  633MOL0     C87280   0.321   0.726   0.885  0.3970  0.0362 -0.6261
  633MOL0     C87281   0.206   0.738   0.843 -0.2830 -0.2136  1.5429
  633MOL0     C87282   0.282   0.264   1.302  0.4861 -0.0000  0.3808
  633MOL0     C87283   0.219   0.295   1.429 -1.4193 -0.0793 -0.5904
  633MOL0     C87284   0.077   0.251   1.439 -0.4811 -1.3923 -0.7571
  633MOL0     H87285  -0.014   0.582   1.752  0.6740  0.6511  0.1629
  633MOL0     H87286  -0.117   0.630   1.952  0.7869  1.9530  0.8662
  633MOL0     H87287  -0.186   0.597   2.250 -0.1322  0.3024 -0.5467
  633MOL0     H87288  -0.186   0.717   2.129 -1.8830 -0.8532  0.9028
  633MOL0     H87289  -0.233   0.815   2.340 -0.3971  2.3267 -1.4438
  633MOL0     H87290  -0.062   0.781   2.395  2.1742 -0.0487 -1.0718
  633MOL0     H87291  -0.004   0.938   2.204  0.1497  0.7463 -0.1683
  633MOL0     H87292  -0.171   0.954   2.160 -2.5926  1.2460  1.5435
  633MOL0     H87293  -0.218   1.100   2.351  0.0589 -2.6412  1.9879
  633MOL0     H87294  -0.094   1.027   2.443 -1.0757 -2.1539 -0.0421
  633MOL0     H87295   0.079   1.133   2.291  0.6303  0.2220  2.4259
  633MOL0     H87296  -0.027   1.256   2.354 -0.5567 -0.0965  0.0603
  633MOL0     H87297  -0.054   1.142   2.073  2.9524  2.5061 -1.4744
  633MOL0     H87298  -0.159   1.259   2.155 -0.6213  0.3568 -1.8512
  633MOL0     H87299   0.069   1.382   2.213 -2.5246 -5.0132  3.6605
  633MOL0     H87300  -0.006   1.414   2.048 -1.0622  1.8451  2.5053
  633MOL0     H87301   0.233   1.242   2.125  3.2015  2.3523 -0.4325
  633MOL0     H87302   0.129   1.214   1.982 -0.2382  0.4237  0.1321
  633MOL0     H87303   0.222   1.332   1.763  2.0041  0.1828 -1.0046
  633MOL0     H87304   0.490   1.625   1.727  2.5783 -2.9003 -0.0844
  633MOL0     H87305   0.334   1.613   1.648  0.1899 -0.9384 -1.0087
  633MOL0     H87306   0.383   1.375   1.593 -0.1893  0.1249 -0.6214
  633MOL0     H87307   0.512   1.494   1.530  1.5236 -0.0081  1.0014
  633MOL0     H87308   0.661   1.431   1.699 -0.3471 -0.3748  2.4186
  633MOL0     H87309   0.550   1.325   1.782  1.1761 -0.6318  0.6362
  633MOL0     H87310   0.539   1.174   1.571  2.2187 -1.3162 -0.8385
  633MOL0     H87311   0.648   1.274   1.487  2.5483  0.7722  0.9425
  633MOL0     H87312   0.818   1.190   1.398  1.0000 -1.1076 -1.2372
  633MOL0     H87313   1.105   1.115   1.259 -0.3030 -0.6758 -1.3209
  633MOL0     H87314   1.100   1.292   1.253 -1.2968  0.7920  0.6920
  633MOL0     H87315   0.947   1.200   1.240 -0.0910 -0.2654  1.9619
  633MOL0     H87316   1.520   1.419   1.598 -0.4853 -0.5892  2.2104
  633MOL0     H87317   1.779   1.388   1.556  0.6880 -0.2329 -2.9307
  633MOL0     H87318   1.923   0.987   1.463  0.1618 -0.1151 -0.1056
  633MOL0     H87319   1.976   1.094   1.326 -0.0813  1.0695 -0.0144
  633MOL0     H87320   2.157   1.194   1.462 -0.6587  0.3148  3.2272
  633MOL0     H87321   2.119   1.108   1.609 -0.3858  1.3374  0.0613
  633MOL0     H87322   2.259   1.019   1.355  2.1714 -1.6777  0.3555
  633MOL0     H87323   2.160   0.888   1.426  3.6040 -2.2677 -1.9494
  633MOL0     H87324   2.276   0.892   1.630  1.7589  0.6542  1.8856
  633MOL0     H87325   2.362   1.042   1.573 -0.0850  0.1006  0.0003
  633MOL0     H87326   2.477   0.817   1.586 -0.8577  2.4104  2.2147
  633MOL0     H87327   2.368   0.758   1.466  1.5234  0.2087 -0.8817
  633MOL0     H87328   2.498   0.922   1.299 -0.1935  1.5174  0.5533
  633MOL0     H87329   2.620   0.838   1.405 -0.7958 -1.6259  0.5684
  633MOL0     H87330   2.643   0.997   1.558 -4.3758  0.9995  2.6094
  633MOL0     H87331   2.546   1.121   1.485  1.8052  1.2818  2.7399
  633MOL0     H87332   2.775   1.009   1.328 -0.3305  0.7618 -1.6598
  633MOL0     H87333   2.771   1.165   1.414  1.4500 -1.1202  0.8083
  633MOL0     H87334   1.707   0.987   1.461  0.6794  0.4124 -1.5786
  633MOL0     H87335   1.466   1.018   1.517  1.0444 -0.5982  1.2330
  633MOL0     H87336   1.171   1.249   1.741  0.0071  0.3889 -0.3700
  633MOL0     H87337   0.929   1.221   1.814  0.6398  3.9059  0.1784
  633MOL0     H87338   0.259   0.574   2.158 -1.6365  0.0414  1.4214
  633MOL0     H87339   0.358   0.513   1.935 -0.2480 -2.4214  2.1457
  633MOL0     H87340   0.485   0.417   1.596 -0.7341  1.9802 -0.8016
  633MOL0     H87341   0.596   0.385   1.383 -0.7445  1.8202 -3.7049
  633MOL0     H87342   0.666   0.339   1.192 -0.5918  1.2131 -0.6399
  633MOL0     H87343   0.624   0.319   1.025  0.3931 -0.5781 -0.4356
  633MOL0     H87344   0.652   0.552   1.073 -2.2422  1.0473 -1.5127
  633MOL0     H87345   0.543   0.555   1.207 -1.7494 -0.8141  0.4562
  633MOL0     H87346   0.444   0.470   0.935 -3.4270 -1.6599 -0.1696
  633MOL0     H87347   0.338   0.516   1.061 -0.5430 -3.6522 -3.5532
  633MOL0     H87348   0.532   0.689   0.902 -0.0429 -1.9205 -2.6568
  633MOL0     H87349   0.444   0.736   1.058 -3.5266 -2.4418  1.2295
  633MOL0     H87350   0.106   0.759   0.813 -0.0503  1.2042  1.6849
  633MOL0     H87351   0.209   0.218   1.238 -1.9845 -0.3251  3.2016
  633MOL0     H87352   0.059   0.202   1.535  0.1673 -2.0576 -0.9714
  633MOL0     H87353   0.007   0.336   1.438  0.2737 -0.7240 -2.6596
  633MOL0     H87354   0.049   0.171   1.370 -0.4837 -3.1128  1.1560
  634MOL0     O87355  10.922   8.660   6.223  0.4991  0.2395 -0.3953
  634MOL0     C87356  11.040   8.622   6.250 -0.4345 -0.0691  0.2857
  634MOL0     O87357  11.136   8.695   6.320 -0.1327  0.1260  0.2540
  634MOL0     C87358  11.107   8.822   6.367 -0.9630  0.1330 -0.1192
  634MOL0     C87359  11.046   8.915   6.286 -0.7085 -0.7987  0.0533
  634MOL0     C87360  11.018   9.042   6.338 -0.1061  0.1995  0.0110
  634MOL0     C87361  11.065   9.074   6.464  0.3166  0.1880 -0.0149
  634MOL0     O87362  11.040   9.204   6.493 -0.1646  0.0829 -0.3000
  634MOL0     C87363  10.993   9.226   6.631  0.0936  1.2239  0.6627
  634MOL0     C87364  10.842   9.188   6.650 -0.1339  0.2279 -0.4710
  634MOL0     C87365  10.741   9.264   6.555  0.4038  0.4035 -0.7602
  634MOL0     C87366  10.699   9.405   6.609  0.5554  0.6463  0.5947
  634MOL0     C87367  10.573   9.463   6.542  1.4245  0.0031 -0.3089
  634MOL0     C87368  10.452   9.463   6.635 -0.7408  0.7076 -0.0644
  634MOL0     C87369  10.332   9.539   6.571  0.1561 -1.4269  0.1289
  634MOL0     C87370  10.213   9.538   6.654 -0.2379  0.1572  0.0484
  634MOL0     N87371  10.155   9.413   6.668 -0.1357  0.5090  0.3315
  634MOL0     C87372  10.195   9.296   6.735  0.2202 -0.0233  0.5807
  634MOL0     C87373  10.087   9.212   6.710  0.1302 -0.6777  0.9075
  634MOL0     C87374  10.088   9.069   6.762  0.1517  0.5739  0.0268
  634MOL0     C87375  10.077   9.042   6.918 -0.0835 -0.0262  0.3953
  634MOL0     C87376   9.932   9.043   6.975  0.0482 -1.0401  0.2523
  634MOL0     C87377   9.903   9.182   7.030 -0.6496  1.0135 -0.2063
  634MOL0     O87378   9.790   9.146   7.113 -1.0071  0.7560  0.7504
  634MOL0     C87379   9.708   9.255   7.144 -0.7108 -0.0075  0.7217
  634MOL0     C87380   9.760   9.366   7.219  0.3120 -0.2541  0.2129
  634MOL0     C87381   9.674   9.473   7.247  0.2620 -0.0194  0.6524
  634MOL0     C87382   9.738   9.580   7.340 -0.0849 -0.1426 -1.0355
  634MOL0     C87383   9.543   9.477   7.201 -0.4198 -0.3128  0.9830
  634MOL0     C87384   9.457   9.598   7.213  0.0954  0.5367 -0.0769
  634MOL0     O87385   9.336   9.601   7.137  0.1613 -0.5285 -0.7616
  634MOL0     C87386   9.250   9.716   7.113 -0.9154  1.0176  0.4306
  634MOL0     C87387   9.296   9.846   7.122  0.0893 -0.8500 -0.3565
  634MOL0     C87388   9.216   9.949   7.071 -0.6400  0.4824 -0.0984
  634MOL0     C87389   9.085   9.923   7.024 -0.4847  0.4039  0.2195
  634MOL0     O87390   9.010  10.020   6.968  0.1012 -0.2208 -0.0333
  634MOL0     C87391   9.046  10.165   6.970 -0.1387 -0.7384  0.5830
  634MOL0     C87392   9.151  10.210   6.868 -0.0471  0.3607 -1.5469
  634MOL0     C87393   9.089  10.207   6.736 -0.1231  0.2172  0.7892
  634MOL0     C87394   9.187  10.248   6.624 -0.1806 -0.2734  0.7801
  634MOL0     C87395   9.115  10.335   6.518 -0.1940 -0.1669 -0.6023
  634MOL0     C87396   9.215  10.350   6.407 -0.3834  0.2391  0.5052
  634MOL0     C87397   9.182  10.464   6.304 -0.8125 -0.0420 -0.0646
  634MOL0     C87398   9.294  10.443   6.204 -0.1708 -0.4422 -0.2820
  634MOL0    Cl87399   9.287  10.576   6.085 -0.5236  0.2905  0.1533
  634MOL0     C87400   9.041   9.791   7.015  0.2988 -0.0832 -0.5067
  634MOL0     C87401   9.119   9.693   7.064 -0.0867 -0.2596  0.2078
  634MOL0     O87402   9.478   9.676   7.299 -0.0810  0.1313 -0.5169
  634MOL0     C87403   9.502   9.371   7.118  0.2433 -0.3764  0.1860
  634MOL0     C87404   9.579   9.261   7.099 -0.0346  0.5583  0.7366
  634MOL0     N87405   9.997   9.275   6.626  0.4762 -0.0221  0.1822
  634MOL0     N87406  10.038   9.391   6.598 -0.0080  0.3142 -0.1274
  634MOL0     C87407  11.121   8.978   6.546  0.4276  0.3773 -0.0177
  634MOL0     C87408  11.151   8.852   6.496  0.8678  0.4114  0.2856
  634MOL0     C87409  11.085   8.497   6.188  0.2971 -0.5515  0.3499
  634MOL0     C87410  11.144   8.399   6.268  0.5547 -0.0081 -0.2933
  634MOL0     C87411  11.159   8.262   6.225 -0.9786 -0.3072  0.1586
  634MOL0     C87412  11.122   8.235   6.093 -0.3909  1.2010 -0.3745
  634MOL0     O87413  11.150   8.101   6.054  0.1196 -1.4684 -0.1144
  634MOL0     C87414  11.104   8.068   5.918 -0.6944 -0.7491 -0.0447
  634MOL0     C87415  11.131   7.920   5.885  1.1685  0.6956  0.3827
  634MOL0     C87416  11.036   7.833   5.970  0.6671  0.9228 -0.3197
  634MOL0     C87417  11.092   7.682   5.986  0.7110 -0.2449  0.1098
  634MOL0     C87418  11.066   7.616   5.854  0.5632 -0.1433 -0.4977
  634MOL0     C87419  11.048   7.542   5.755 -0.0316 -0.1954  0.5063
  634MOL0     C87420  11.083   8.339   6.005  0.2808 -0.1789 -0.6262
  634MOL0     C87421  11.045   8.471   6.057 -0.0378  0.1286 -0.0890
  634MOL0     C87422  10.986   8.575   5.969 -0.7333 -0.7221  0.7283
  634MOL0     H87423  11.043   8.889   6.181  0.8925  0.7995 -0.4344
  634MOL0     H87424  10.978   9.120   6.274  1.5678  0.1377 -1.1626
  634MOL0     H87425  10.998   9.336   6.632 -1.6347  1.3476 -0.2165
  634MOL0     H87426  11.049   9.164   6.701  1.3597  3.3405  1.6378
  634MOL0     H87427  10.834   9.082   6.626  0.6146  0.1395 -0.3672
  634MOL0     H87428  10.837   9.208   6.757  1.4689  0.3477 -0.3974
  634MOL0     H87429  10.776   9.277   6.452 -1.4677 -3.4824 -2.0897
  634MOL0     H87430  10.652   9.201   6.543 -0.9250  1.3847  2.6343
  634MOL0     H87431  10.692   9.404   6.718  0.9861 -1.3397  0.6286
  634MOL0     H87432  10.782   9.464   6.569  1.6112 -0.1783  1.5105
  634MOL0     H87433  10.555   9.405   6.452  0.1295  1.1113 -0.8027
  634MOL0     H87434  10.581   9.570   6.519 -0.0794  0.4334  0.9559
  634MOL0     H87435  10.421   9.361   6.658 -2.8714  1.9009  2.9948
  634MOL0     H87436  10.489   9.510   6.726  0.2417 -2.1695  1.1257
  634MOL0     H87437  10.307   9.507   6.469 -0.0662  0.6310 -0.4915
  634MOL0     H87438  10.367   9.642   6.563 -3.5925  0.1458  1.6612
  634MOL0     H87439  10.239   9.555   6.759 -1.0388 -2.5685  0.7641
  634MOL0     H87440  10.132   9.605   6.620 -1.9482 -0.0474  3.3065
  634MOL0     H87441  10.290   9.279   6.785  0.9153 -1.0092 -0.9917
  634MOL0     H87442  10.183   9.024   6.735 -0.8830 -2.9695  1.6990
  634MOL0     H87443  10.003   9.016   6.719 -0.0016 -0.4041  1.4424
  634MOL0     H87444  10.115   8.940   6.923  0.9730  0.2031 -1.7405
  634MOL0     H87445  10.140   9.112   6.973  1.5522 -0.2410 -1.1258
  634MOL0     H87446   9.843   9.023   6.914 -1.0077 -4.8864  2.6894
  634MOL0     H87447   9.925   8.969   7.055 -2.1669 -1.1095  0.0496
  634MOL0     H87448   9.983   9.212   7.097  3.0119 -3.7575 -1.8884
  634MOL0     H87449   9.876   9.252   6.950  1.2279  1.6421 -0.3163
  634MOL0     H87450   9.858   9.372   7.265 -0.6614  0.4487  2.3052
  634MOL0     H87451   9.838   9.557   7.376 -0.9871  0.0299  1.8059
  634MOL0     H87452   9.673   9.601   7.425 -1.3647  0.3092 -2.0801
  634MOL0     H87453   9.743   9.675   7.285  0.2280  2.2200  2.7209
  634MOL0     H87454   9.400   9.862   7.146 -0.6025  1.4805  1.5270
  634MOL0     H87455   9.259  10.048   7.089 -1.6687  0.4201  3.6678
  634MOL0     H87456   8.954  10.220   6.949  0.6134 -0.1613 -1.5091
  634MOL0     H87457   9.077  10.196   7.070 -0.4838 -2.2381  1.1824
  634MOL0     H87458   9.176  10.314   6.892 -1.1444  0.7905 -2.2034
  634MOL0     H87459   9.241  10.148   6.872 -0.3246  0.0293  0.3677
  634MOL0     H87460   9.008  10.282   6.740 -1.3712 -0.9415 -1.2009
  634MOL0     H87461   9.044  10.110   6.715 -2.4523  1.2269  0.7835
  634MOL0     H87462   9.223  10.161   6.568  0.4826  0.7920 -0.4954
  634MOL0     H87463   9.271  10.308   6.661 -1.9859  2.8736  0.1840
  634MOL0     H87464   9.030  10.284   6.472 -0.4740  0.3929 -0.7223
  634MOL0     H87465   9.096  10.437   6.554  0.0990 -0.2711 -0.1551
  634MOL0     H87466   9.217  10.255   6.352  2.5852  0.4981  0.0088
  634MOL0     H87467   9.315  10.376   6.444 -0.5070  3.0821 -0.9404
  634MOL0     H87468   9.190  10.563   6.349 -1.7631 -1.0219  2.4358
  634MOL0     H87469   9.087  10.436   6.256 -1.7460 -1.8425  2.5848
  634MOL0     H87470   9.282  10.342   6.163  2.8364 -2.3165  2.8510
  634MOL0     H87471   9.396  10.447   6.245  0.0946  1.7300 -1.0540
  634MOL0     H87472   8.945   9.764   6.975  0.4902 -2.9409  0.7204
  634MOL0     H87473   9.083   9.591   7.074  0.2219 -0.5929 -1.7096
  634MOL0     H87474   9.402   9.375   7.077  0.6649  0.1151 -0.8566
  634MOL0     H87475   9.548   9.181   7.033 -0.2562 -0.9957  2.6466
  634MOL0     H87476  11.150   9.005   6.647  0.0425  2.1103 -0.3357
  634MOL0     H87477  11.207   8.772   6.543 -0.9934 -2.7270 -2.4172
  634MOL0     H87478  11.164   8.429   6.370 -0.9441  2.2850 -0.6231
  634MOL0     H87479  11.202   8.190   6.294  1.4102  3.1693  2.6129
  634MOL0     H87480  10.996   8.083   5.910 -0.9953 -3.0425 -1.2490
  634MOL0     H87481  11.157   8.130   5.844 -2.7325  1.0951 -0.0460
  634MOL0     H87482  11.235   7.901   5.912  0.6658  0.0939  2.0144
  634MOL0     H87483  11.116   7.900   5.779  1.8486  2.6071 -0.1170
  634MOL0     H87484  11.023   7.887   6.064  1.5761  0.1908  0.2453
  634MOL0     H87485  10.939   7.814   5.923  0.8922 -0.7047 -0.1870
  634MOL0     H87486  11.033   7.628   6.060 -3.0781  3.5766  0.2260
  634MOL0     H87487  11.197   7.692   6.018  0.7630  0.3108 -0.2381
  634MOL0     H87488  11.038   7.456   5.693 -0.1397  1.6646 -2.2287
  634MOL0     H87489  11.077   8.321   5.898 -1.4634 -0.1581 -0.5490
  634MOL0     H87490  10.883   8.608   5.987 -0.5785  0.9841 -1.1808
  634MOL0     H87491  11.040   8.670   5.982  0.8667 -1.4053 -0.5083
  634MOL0     H87492  10.994   8.542   5.865 -1.7474 -0.7190  0.6440
  635MOL0     O87493  10.590   9.091   4.406 -0.1061 -0.5551  0.1244
  635MOL0     C87494  10.636   9.211   4.414  0.3204  0.4087 -0.8294
  635MOL0     O87495  10.574   9.327   4.363 -0.6968  0.2681  0.0792
  635MOL0     C87496  10.442   9.315   4.317 -0.3831 -0.4109  0.5409
  635MOL0     C87497  10.408   9.355   4.189  0.3979  0.2363  0.0070
  635MOL0     C87498  10.274   9.366   4.156 -0.3110 -0.2949 -0.3779
  635MOL0     C87499  10.170   9.330   4.241  0.1122  0.4763  0.0900
  635MOL0     O87500  10.042   9.350   4.193  0.7775 -0.2950  0.3242
  635MOL0     C87501   9.937   9.323   4.289  0.0678 -0.6628 -0.1464
  635MOL0     C87502   9.795   9.372   4.244  0.4267  0.4571 -0.1672
  635MOL0     C87503   9.691   9.306   4.330  0.5756 -0.4480 -0.0045
  635MOL0     C87504   9.551   9.368   4.290 -0.2649 -0.8820  0.6658
  635MOL0     C87505   9.429   9.283   4.347 -0.1778  0.0594 -0.9873
  635MOL0     C87506   9.287   9.322   4.299  0.0643 -0.7027  0.0315
  635MOL0     C87507   9.244   9.454   4.350  0.1908  0.6611  0.5217
  635MOL0     C87508   9.235   9.468   4.497 -0.4467 -0.2226  0.9708
  635MOL0     N87509   9.187   9.599   4.537  0.2479  0.1414  0.1086
  635MOL0     C87510   9.116   9.632   4.651  0.3978 -0.8040  0.1227
  635MOL0     C87511   9.097   9.770   4.643 -0.8700 -0.4218 -0.0167
  635MOL0     C87512   9.017   9.852   4.739 -0.2267 -0.1739 -0.7913
  635MOL0     C87513   9.103   9.927   4.847 -0.2512 -0.1707  0.2790
  635MOL0     C87514   9.151   9.824   4.959 -0.5944  0.1263 -0.7682
  635MOL0     C87515   9.299   9.780   4.942 -0.0557 -0.4043  0.9817
  635MOL0     O87516   9.386   9.889   4.959 -0.6691  0.1810  0.3646
  635MOL0     C87517   9.517   9.868   4.916  0.1546  0.8201  0.0031
  635MOL0     C87518   9.575   9.738   4.903 -0.7595 -0.3725 -0.3629
  635MOL0     C87519   9.711   9.715   4.896 -0.8947 -0.4957  0.8376
  635MOL0     C87520   9.767   9.577   4.924 -1.1211  0.1042 -0.0096
  635MOL0     C87521   9.798   9.824   4.888  0.0659  0.3734 -0.0959
  635MOL0     C87522   9.942   9.812   4.875 -0.5989 -0.0561  1.1600
  635MOL0     O87523  10.004   9.928   4.924  0.5517 -0.0257 -0.1071
  635MOL0     C87524  10.141   9.934   4.941 -0.1591  0.9856  0.7451
  635MOL0     C87525  10.219   9.842   5.015 -0.0728 -0.3791 -0.5513
  635MOL0     C87526  10.354   9.848   5.009 -0.0824 -0.6972 -0.6306
  635MOL0     C87527  10.418   9.946   4.938  0.0949 -0.0972  0.0725
  635MOL0     O87528  10.556   9.944   4.949  0.5990 -0.3656 -0.2880
  635MOL0     C87529  10.629  10.014   4.847  0.2268  0.3270  0.4143
  635MOL0     C87530  10.778  10.022   4.871 -0.1853 -0.3268  0.6137
  635MOL0     C87531  10.851  10.112   4.763 -0.6839  0.0897 -0.1345
  635MOL0     C87532  10.846  10.262   4.806  0.2226  0.5037 -0.2652
  635MOL0     C87533  10.844  10.362   4.691  0.3365 -0.2297  0.3928
  635MOL0     C87534  10.971  10.445   4.696  0.3142 -0.4973  0.7543
  635MOL0     C87535  10.944  10.563   4.787 -0.8803 -1.1414 -0.6150
  635MOL0     C87536  11.071  10.635   4.833  0.4314  0.4606  0.0258
  635MOL0    Cl87537  11.130  10.550   4.972 -0.0758  0.0546  0.1803
  635MOL0     C87538  10.344  10.045   4.869 -0.8748 -0.0795  0.3230
  635MOL0     C87539  10.209  10.033   4.872 -0.2280 -0.2917  0.4289
  635MOL0     O87540  10.009   9.716   4.834  0.3840  0.5328 -0.9437
  635MOL0     C87541   9.730   9.950   4.866 -0.2277  0.6573 -0.0822
  635MOL0     C87542   9.596   9.975   4.891 -0.7381 -0.3176 -0.1662
  635MOL0     N87543   9.175   9.821   4.537  0.0120  0.3886  0.5386
  635MOL0     N87544   9.222   9.715   4.471 -0.5261 -0.3011 -0.1747
  635MOL0     C87545  10.207   9.269   4.364  0.0237  0.6395  1.4035
  635MOL0     C87546  10.345   9.261   4.397  0.8847 -0.3758  0.2290
  635MOL0     C87547  10.770   9.241   4.478 -0.7544 -0.1183 -0.2836
  635MOL0     C87548  10.835   9.366   4.444 -0.4056 -0.9072 -0.2461
  635MOL0     C87549  10.958   9.395   4.488 -0.9005 -0.3875 -0.0397
  635MOL0     C87550  11.031   9.308   4.566  0.2588 -0.5809 -0.4823
  635MOL0     O87551  11.166   9.344   4.576  0.1737  0.7410 -0.4206
  635MOL0     C87552  11.220   9.318   4.709 -0.0393 -0.1379  0.9836
  635MOL0     C87553  11.330   9.214   4.681  0.2606  0.4185  0.3111
  635MOL0     C87554  11.427   9.186   4.796 -0.6872 -0.1435 -0.1704
  635MOL0     C87555  11.567   9.148   4.753 -0.3319  0.3320 -0.2026
  635MOL0     C87556  11.563   9.016   4.689  0.0326  0.5484 -0.5155
  635MOL0     C87557  11.570   8.905   4.634  0.3206 -0.8110  0.1361
  635MOL0     C87558  10.972   9.192   4.610 -1.1419 -0.2833 -0.0386
  635MOL0     C87559  10.845   9.153   4.564  0.0010 -0.0896 -0.8499
  635MOL0     C87560  10.784   9.020   4.602 -0.2008 -0.4160  0.2210
  635MOL0     H87561  10.487   9.386   4.121 -0.6015 -0.8601 -1.7393
  635MOL0     H87562  10.250   9.410   4.060  0.0312 -1.5923 -1.0774
  635MOL0     H87563   9.960   9.371   4.384 -1.4018  0.8036 -0.4874
  635MOL0     H87564   9.935   9.213   4.294 -0.4421 -0.6203  0.6372
  635MOL0     H87565   9.799   9.480   4.262 -0.9507  0.1651  2.4285
  635MOL0     H87566   9.773   9.349   4.139 -0.8762 -2.0026  0.5633
  635MOL0     H87567   9.695   9.203   4.294  0.8274  0.6513 -3.5009
  635MOL0     H87568   9.703   9.306   4.438 -1.2011  1.5128  0.2748
  635MOL0     H87569   9.537   9.474   4.310 -0.2503 -0.8373  0.4346
  635MOL0     H87570   9.532   9.359   4.183 -3.6690 -0.9782  1.1675
  635MOL0     H87571   9.434   9.278   4.456 -1.3481 -2.6319 -0.9736
  635MOL0     H87572   9.432   9.177   4.319  2.1391 -0.9513  2.4910
  635MOL0     H87573   9.271   9.337   4.192  0.0459  0.2104  0.1564
  635MOL0     H87574   9.206   9.251   4.318 -0.4633 -0.8290 -2.3938
  635MOL0     H87575   9.147   9.479   4.306  1.2570  1.5153 -1.5022
  635MOL0     H87576   9.314   9.527   4.309  1.7118 -1.0799 -0.1270
  635MOL0     H87577   9.168   9.388   4.529  0.5824 -1.7347 -0.4973
  635MOL0     H87578   9.334   9.445   4.538  0.0395 -1.1944 -0.6658
  635MOL0     H87579   9.070   9.562   4.720  0.3004 -0.6483  0.2161
  635MOL0     H87580   8.937   9.788   4.778  1.7406 -2.3859 -0.1607
  635MOL0     H87581   8.962   9.931   4.686 -0.1428  1.5847  1.5925
  635MOL0     H87582   9.189   9.969   4.794  0.3459 -1.5561  0.0897
  635MOL0     H87583   9.040  10.002   4.895 -2.1287 -2.7723  2.1442
  635MOL0     H87584   9.133   9.870   5.056  2.6898  1.6507 -0.7724
  635MOL0     H87585   9.092   9.732   4.947  3.1518 -2.4852 -1.0954
  635MOL0     H87586   9.330   9.700   5.010  2.3521  1.3873  2.1448
  635MOL0     H87587   9.310   9.725   4.848  1.2125  3.6704 -1.4698
  635MOL0     H87588   9.518   9.650   4.929  2.2747 -2.2554  0.3787
  635MOL0     H87589   9.812   9.539   4.832  0.9907  1.3330  0.4267
  635MOL0     H87590   9.686   9.508   4.949  0.5123 -0.7857  3.5035
  635MOL0     H87591   9.843   9.563   5.002 -1.3998 -1.6446 -0.0102
  635MOL0     H87592  10.167   9.762   5.066 -0.1187  1.6544  2.8541
  635MOL0     H87593  10.405   9.768   5.063 -5.5568 -3.7950  0.7051
  635MOL0     H87594  10.618   9.952   4.757 -1.7751 -0.2696  1.0206
  635MOL0     H87595  10.590  10.114   4.825  1.1182  0.3016 -1.5376
  635MOL0     H87596  10.794  10.053   4.975  1.6384 -2.8424  1.1685
  635MOL0     H87597  10.826   9.925   4.888 -0.1152 -0.4570 -0.2946
  635MOL0     H87598  10.801  10.091   4.668 -1.2067 -0.5244  0.2684
  635MOL0     H87599  10.957  10.092   4.745 -1.0023  0.7789 -3.6385
  635MOL0     H87600  10.937  10.278   4.863  1.2169  1.4358 -2.0301
  635MOL0     H87601  10.760  10.265   4.873  0.4567 -0.8191  0.1171
  635MOL0     H87602  10.845  10.310   4.596  2.4790  0.6527 -0.1166
  635MOL0     H87603  10.760  10.432   4.701  1.7674  1.5719  0.2605
  635MOL0     H87604  10.989  10.483   4.596 -1.8715  1.2472  0.9538
  635MOL0     H87605  11.056  10.388   4.734 -1.7945 -2.0599  3.5810
  635MOL0     H87606  10.883  10.539   4.875 -0.9142  1.5086  0.1758
  635MOL0     H87607  10.872  10.636   4.749 -1.7023 -0.0663  2.7078
  635MOL0     H87608  11.069  10.742   4.854 -0.5064  0.0589  2.1723
  635MOL0     H87609  11.137  10.624   4.747  1.5400 -0.9254  0.9963
  635MOL0     H87610  10.380  10.134   4.819  0.0751 -0.4456  0.3262
  635MOL0     H87611  10.163  10.104   4.804  4.7848  2.0078 -1.0335
  635MOL0     H87612   9.797  10.028   4.830 -1.2789  2.0728  0.9029
  635MOL0     H87613   9.564  10.079   4.888  3.4077  1.1689  0.8045
  635MOL0     H87614  10.148   9.229   4.446 -0.6655  1.8698  1.5353
  635MOL0     H87615  10.355   9.215   4.495  0.4211 -2.1446 -0.5102
  635MOL0     H87616  10.793   9.443   4.380  3.0447 -0.0817 -1.7572
  635MOL0     H87617  11.000   9.493   4.470 -0.4598 -0.2143  1.7030
  635MOL0     H87618  11.270   9.408   4.745  3.0390 -0.6503 -1.5763
  635MOL0     H87619  11.159   9.281   4.791  3.0616  0.2409  3.6748
  635MOL0     H87620  11.381   9.253   4.593  3.4149 -2.3144  0.7132
  635MOL0     H87621  11.281   9.120   4.651  1.5472 -0.3680  0.6002
  635MOL0     H87622  11.440   9.275   4.858  0.7349  1.1795 -2.2176
  635MOL0     H87623  11.392   9.102   4.856 -0.3077  0.7768  1.4067
  635MOL0     H87624  11.636   9.143   4.837  2.6513  0.3293 -2.4908
  635MOL0     H87625  11.609   9.226   4.688  0.5379 -1.6017 -2.0865
  635MOL0     H87626  11.593   8.815   4.580 -0.5808  0.9852 -3.6296
  635MOL0     H87627  11.033   9.122   4.667  0.3355  1.9078  1.2582
  635MOL0     H87628  10.818   8.985   4.700  0.8405 -2.6951 -0.8668
  635MOL0     H87629  10.678   9.039   4.623  0.4993  1.7491  2.1239
  635MOL0     H87630  10.806   8.948   4.522  0.4675 -1.2738  1.1551
  636MOL0     O87631   8.357   0.172   6.459 -0.7904 -0.2938 -0.0786
  636MOL0     C87632   8.463   0.235   6.445 -0.1082  0.3398 -0.3527
  636MOL0     O87633   8.583   0.185   6.467 -0.4734  0.3889 -0.0050
  636MOL0     C87634   8.592   0.061   6.516  0.0307  0.5378 -1.1732
  636MOL0     C87635   8.702  -0.018   6.483  0.9440  0.3341 -0.7250
  636MOL0     C87636   8.746  -0.140   6.547  0.3238 -0.0460 -0.0752
  636MOL0     C87637   8.677  -0.187   6.659  0.1794 -0.3016  0.4950
  636MOL0     O87638   8.712  -0.289   6.741 -0.1567 -0.4982  0.5470
  636MOL0     C87639   8.847  -0.337   6.740 -0.1400 -0.1178  0.9146
  636MOL0     C87640   8.956  -0.263   6.819  0.5350 -0.1832  0.2041
  636MOL0     C87641   9.098  -0.298   6.769  0.0542 -0.7366  0.0691
  636MOL0     C87642   9.211  -0.217   6.834 -0.2788  0.7054 -0.9472
  636MOL0     C87643   9.355  -0.249   6.773  0.4416 -1.0803 -0.3506
  636MOL0     C87644   9.448  -0.150   6.835  0.7492 -0.1587  0.2912
  636MOL0     C87645   9.599  -0.148   6.792 -0.5978  0.5489 -0.5090
  636MOL0     C87646   9.699  -0.243   6.865  0.0766 -0.5030  0.5229
  636MOL0     N87647   9.806  -0.277   6.779  0.2415  0.2960 -0.0949
  636MOL0     C87648   9.937  -0.237   6.800 -0.6848 -0.6943 -0.5307
  636MOL0     C87649  10.006  -0.313   6.717  0.2689  0.2079 -0.2584
  636MOL0     C87650  10.161  -0.309   6.698  0.0149 -0.1987 -0.6749
  636MOL0     C87651  10.212  -0.217   6.585  0.7072 -0.2941  0.4145
  636MOL0     C87652  10.363  -0.211   6.574 -0.4411  0.1581  0.2725
  636MOL0     C87653  10.414  -0.139   6.690 -0.9521  0.4770 -0.2894
  636MOL0     O87654  10.543  -0.093   6.664 -0.5031 -0.1119  0.1325
  636MOL0     C87655  10.594   0.009   6.744  0.0412 -0.6619  0.3722
  636MOL0     C87656  10.578   0.029   6.878 -0.4250  0.8038  0.0370
  636MOL0     C87657  10.622   0.148   6.940  0.3335 -1.1348  1.0144
  636MOL0     C87658  10.600   0.150   7.091 -0.1898  0.9300 -0.1359
  636MOL0     C87659  10.677   0.259   6.866  0.1084  0.9386  0.2717
  636MOL0     C87660  10.708   0.390   6.920  0.7424 -0.5657 -0.0374
  636MOL0     O87661  10.717   0.402   7.055 -0.7277 -0.8697  0.2466
  636MOL0     C87662  10.800   0.498   7.115  0.8084 -1.0506  0.3703
  636MOL0     C87663  10.755   0.534   7.247 -0.1445  0.4371  0.1109
  636MOL0     C87664  10.824   0.637   7.321 -0.5391 -0.1037 -0.0190
  636MOL0     C87665  10.929   0.702   7.249  1.3349 -0.7193  0.0989
  636MOL0     O87666  10.999   0.800   7.305  0.4681 -0.8172  0.5872
  636MOL0     C87667  10.986   0.852   7.445  0.9405 -0.4786 -0.2847
  636MOL0     C87668  11.031   0.996   7.456  0.8337 -0.4013  0.4182
  636MOL0     C87669  10.967   1.089   7.352 -0.4148 -0.0774 -0.4653
  636MOL0     C87670  11.025   1.229   7.351  0.1558 -0.7570  0.0501
  636MOL0     C87671  10.953   1.338   7.274  0.5080 -0.4897  0.0511
  636MOL0     C87672  10.981   1.325   7.125 -0.4102 -0.6278 -0.6450
  636MOL0     C87673  10.906   1.437   7.047 -0.4054  0.0023 -0.1896
  636MOL0     C87674  10.931   1.454   6.899  0.5846 -0.6849 -0.1729
  636MOL0    Cl87675  10.831   1.335   6.793  0.0687 -0.2424 -0.6814
  636MOL0     C87676  10.961   0.670   7.115  0.4320 -0.2131 -0.0503
  636MOL0     C87677  10.896   0.568   7.044 -0.2986 -0.4043  0.5351
  636MOL0     O87678  10.714   0.480   6.840 -0.0641 -0.1035 -0.1795
  636MOL0     C87679  10.696   0.230   6.727 -0.0414  0.7461 -0.1981
  636MOL0     C87680  10.665   0.105   6.671  0.2780  0.1145  0.4174
  636MOL0     N87681   9.913  -0.387   6.634 -0.1174  0.2242 -0.5720
  636MOL0     N87682   9.798  -0.366   6.684  0.1604  0.6840 -0.3850
  636MOL0     C87683   8.569  -0.106   6.701 -0.3252 -0.0096  0.6592
  636MOL0     C87684   8.522   0.009   6.629  0.3527 -0.3802 -0.8173
  636MOL0     C87685   8.464   0.366   6.387  0.6521 -0.3322  0.1874
  636MOL0     C87686   8.335   0.409   6.349 -0.3807 -0.7016 -0.0153
  636MOL0     C87687   8.325   0.532   6.290  0.6353 -0.5372  0.9776
  636MOL0     C87688   8.434   0.618   6.262  0.2829  0.1377  1.1264
  636MOL0     O87689   8.423   0.746   6.206 -0.7226 -0.4391  0.2852
  636MOL0     C87690   8.299   0.811   6.199 -0.3874  0.1073 -0.3327
  636MOL0     C87691   8.318   0.947   6.116  0.4286  0.5197 -1.0193
  636MOL0     C87692   8.349   1.066   6.208  0.7129 -0.4738  0.1939
  636MOL0     C87693   8.498   1.079   6.250  0.7278 -0.6573 -0.2206
  636MOL0     C87694   8.510   1.178   6.356  0.2758 -0.4312  0.3697
  636MOL0     C87695   8.530   1.265   6.437  0.3805 -0.5328  0.0175
  636MOL0     C87696   8.562   0.569   6.288 -0.6076 -0.4148 -0.4732
  636MOL0     C87697   8.582   0.445   6.356  0.0187  0.0173 -0.1721
  636MOL0     C87698   8.716   0.408   6.393  0.1437  0.0570 -0.6574
  636MOL0     H87699   8.760   0.019   6.399  1.9277 -0.7078 -0.5238
  636MOL0     H87700   8.831  -0.187   6.499 -0.8650  0.5458 -2.9904
  636MOL0     H87701   8.882  -0.343   6.636 -0.7746  1.5481  0.5733
  636MOL0     H87702   8.834  -0.442   6.769  2.3881 -1.6576 -2.7474
  636MOL0     H87703   8.944  -0.157   6.797 -0.6960 -0.6101 -1.3917
  636MOL0     H87704   8.945  -0.277   6.927  1.2513 -1.4438  0.1323
  636MOL0     H87705   9.132  -0.402   6.781 -1.4223 -0.9935  2.6611
  636MOL0     H87706   9.102  -0.272   6.663 -0.1217 -2.6604 -0.4587
  636MOL0     H87707   9.192  -0.109   6.828  0.5763  0.9282  0.1736
  636MOL0     H87708   9.203  -0.239   6.941  0.1864 -1.6145 -1.3448
  636MOL0     H87709   9.347  -0.243   6.664 -1.1492 -0.3060 -0.2206
  636MOL0     H87710   9.391  -0.351   6.792  3.0223 -0.8981 -3.3839
  636MOL0     H87711   9.403  -0.053   6.810  1.4625 -0.1526 -1.0487
  636MOL0     H87712   9.452  -0.155   6.944  0.9404 -0.3362  0.2759
  636MOL0     H87713   9.631  -0.045   6.805 -2.2241  0.8122  2.3807
  636MOL0     H87714   9.593  -0.174   6.686 -2.2622 -2.1897  0.1317
  636MOL0     H87715   9.720  -0.192   6.959 -3.4696  0.5530  0.9006
  636MOL0     H87716   9.637  -0.331   6.888 -1.0819  0.0242 -0.4470
  636MOL0     H87717   9.976  -0.172   6.878 -0.9706 -1.0902 -0.0516
  636MOL0     H87718  10.193  -0.412   6.679  0.9576 -0.0076 -0.1901
  636MOL0     H87719  10.201  -0.258   6.786  0.7362  0.0849 -1.1631
  636MOL0     H87720  10.176  -0.260   6.491 -1.4391 -0.4758  1.2581
  636MOL0     H87721  10.182  -0.112   6.597 -0.7395 -0.8832  2.3441
  636MOL0     H87722  10.414  -0.306   6.561 -0.2208  0.4708 -1.4107
  636MOL0     H87723  10.384  -0.160   6.479 -1.2285 -2.8281 -1.6632
  636MOL0     H87724  10.349  -0.053   6.710  0.4709  1.7386 -0.9234
  636MOL0     H87725  10.421  -0.213   6.769  0.0296 -2.4227 -2.9073
  636MOL0     H87726  10.532  -0.053   6.931  2.4350  0.4684  2.2429
  636MOL0     H87727  10.546   0.060   7.120 -1.0930  1.6587  0.5187
  636MOL0     H87728  10.553   0.244   7.122 -2.6007 -0.0114 -0.7686
  636MOL0     H87729  10.694   0.151   7.148 -0.4615 -0.3097  0.3674
  636MOL0     H87730  10.660   0.497   7.284 -0.2057  0.6888  0.2099
  636MOL0     H87731  10.791   0.672   7.418 -1.7027 -2.1228  0.3604
  636MOL0     H87732  10.883   0.844   7.481  1.9502  0.1827  3.0366
  636MOL0     H87733  11.038   0.791   7.520 -1.8951  0.3632  2.5787
  636MOL0     H87734  11.021   1.033   7.559  4.6864 -1.1329  1.2274
  636MOL0     H87735  11.137   1.010   7.434  0.4358  0.1588 -1.2444
  636MOL0     H87736  10.862   1.100   7.383 -0.4443  1.4928 -1.0105
  636MOL0     H87737  10.958   1.042   7.254 -3.1184  0.4856 -0.5754
  636MOL0     H87738  11.132   1.239   7.329  0.1437  1.0923  0.6813
  636MOL0     H87739  11.008   1.264   7.453  0.5720 -0.7070  0.1062
  636MOL0     H87740  10.848   1.319   7.298  0.1183  1.7118  0.2835
  636MOL0     H87741  10.985   1.436   7.309  2.3931 -1.2268  0.5087
  636MOL0     H87742  10.956   1.230   7.077  0.4296 -1.5959  0.7549
  636MOL0     H87743  11.089   1.335   7.112 -0.3477 -1.8404 -1.1579
  636MOL0     H87744  10.946   1.528   7.094 -3.1771  0.3695  1.6739
  636MOL0     H87745  10.798   1.428   7.063 -0.4129  1.1482  0.5209
  636MOL0     H87746  11.034   1.423   6.880  0.1262 -3.7702  1.8227
  636MOL0     H87747  10.898   1.555   6.869  1.8854 -0.7612 -2.0224
  636MOL0     H87748  11.032   0.740   7.072  0.3867  0.6145  1.1781
  636MOL0     H87749  10.925   0.550   6.941 -1.0604 -2.0330  0.5731
  636MOL0     H87750  10.723   0.308   6.656 -1.5469  1.2797 -0.2237
  636MOL0     H87751  10.701   0.078   6.572 -0.7007 -2.5787  0.7111
  636MOL0     H87752   8.505  -0.134   6.784 -2.0529 -0.3087 -0.7284
  636MOL0     H87753   8.441   0.066   6.674 -1.1765  0.0930 -3.9347
  636MOL0     H87754   8.249   0.344   6.357 -1.4140  0.4558 -1.1239
  636MOL0     H87755   8.230   0.576   6.262 -0.1266 -0.8467  2.8675
  636MOL0     H87756   8.226   0.753   6.141  0.2585  0.6085 -1.6880
  636MOL0     H87757   8.255   0.820   6.299 -1.0402 -4.3513 -0.0455
  636MOL0     H87758   8.222   0.964   6.066 -0.9251  0.3419  1.3600
  636MOL0     H87759   8.397   0.939   6.041  0.2424 -2.3085 -1.0484
  636MOL0     H87760   8.305   1.158   6.167 -0.9885 -1.4699 -0.3112
  636MOL0     H87761   8.294   1.054   6.302 -3.9926  1.3165 -2.0117
  636MOL0     H87762   8.555   1.114   6.163 -0.1459 -1.5068 -1.1609
  636MOL0     H87763   8.546   0.990   6.289  0.3238 -0.5856  0.4610
  636MOL0     H87764   8.544   1.341   6.511 -1.4124  0.9811 -1.1039
  636MOL0     H87765   8.645   0.636   6.267  0.2493 -1.8014 -1.6782
  636MOL0     H87766   8.788   0.489   6.374  0.2470  0.2027  0.2978
  636MOL0     H87767   8.711   0.393   6.501 -2.6329  0.7883 -0.6076
  636MOL0     H87768   8.760   0.328   6.333 -2.1032  1.0183 -3.8452
  637MOL0     O87769   5.361   9.898   8.918  0.1701  0.3109  0.4931
  637MOL0     C87770   5.248   9.880   8.866  0.3522 -0.2744 -0.1732
  637MOL0     O87771   5.225   9.765   8.793  0.2281 -0.6501  1.3991
  637MOL0     C87772   5.326   9.680   8.768 -0.2851  1.1817  0.4592
  637MOL0     C87773   5.432   9.707   8.681  0.4063  0.1627 -0.4416
  637MOL0     C87774   5.544   9.621   8.680 -0.1477  0.4366 -0.0832
  637MOL0     C87775   5.543   9.501   8.753  1.1097  0.4558  0.7341
  637MOL0     O87776   5.636   9.397   8.744  0.9843 -0.8707  0.4101
  637MOL0     C87777   5.768   9.451   8.731 -0.0296 -0.1716  0.4075
  637MOL0     C87778   5.874   9.350   8.764 -0.4385  0.1244 -0.3263
  637MOL0     C87779   6.006   9.419   8.740  0.3417  0.8918  0.2098
  637MOL0     C87780   6.120   9.326   8.766 -0.6263 -0.5972  0.8895
  637MOL0     C87781   6.249   9.384   8.712 -1.0550 -1.1767  0.2847
  637MOL0     C87782   6.387   9.315   8.745  0.6588 -0.3905  0.1266
  637MOL0     C87783   6.503   9.419   8.749 -0.1492  0.5507 -0.2452
  637MOL0     C87784   6.528   9.482   8.608 -0.2430  1.0700  0.5507
  637MOL0     N87785   6.552   9.389   8.497 -0.3461  0.4075  0.0920
  637MOL0     C87786   6.466   9.359   8.396 -0.2962 -0.8485 -0.5495
  637MOL0     C87787   6.524   9.251   8.340  0.2673  0.3889 -0.6837
  637MOL0     C87788   6.472   9.178   8.225  0.0647  0.0240  0.0722
  637MOL0     C87789   6.542   9.227   8.092  0.2608 -0.2577  0.1181
  637MOL0     C87790   6.505   9.156   7.962  0.1396 -0.1335 -0.0259
  637MOL0     C87791   6.460   9.252   7.863 -0.4935 -1.3584  0.5651
  637MOL0     O87792   6.377   9.191   7.761 -0.3717 -0.0783  0.0697
  637MOL0     C87793   6.440   9.114   7.666  0.6182 -0.2205  1.0067
  637MOL0     C87794   6.364   9.039   7.581  0.9966  1.0442  0.3407
  637MOL0     C87795   6.423   8.966   7.478  1.3156 -0.2808  0.7726
  637MOL0     C87796   6.313   8.915   7.379  0.9692 -0.1059  0.2755
  637MOL0     C87797   6.558   8.946   7.474  0.3357 -0.1382  0.2103
  637MOL0     C87798   6.636   8.848   7.394  0.1952 -0.7249 -0.0360
  637MOL0     O87799   6.766   8.840   7.419 -0.2157  0.3493  0.0590
  637MOL0     C87800   6.858   8.782   7.334  0.1770  1.0756  0.8078
  637MOL0     C87801   6.895   8.849   7.216 -0.1205  0.5399  0.0104
  637MOL0     C87802   6.990   8.795   7.128 -0.6195  0.3468  0.2809
  637MOL0     C87803   7.034   8.659   7.146  0.8329  0.1034  0.5673
  637MOL0     O87804   7.107   8.601   7.048  0.3403 -0.0714 -0.1891
  637MOL0     C87805   7.206   8.495   7.077 -1.0409  0.2716  0.3916
  637MOL0     C87806   7.348   8.556   7.077 -0.6859  0.2790  0.5072
  637MOL0     C87807   7.441   8.471   7.160 -0.7104  0.7596  0.3604
  637MOL0     C87808   7.586   8.492   7.127 -0.2116 -0.6952 -0.7107
  637MOL0     C87809   7.634   8.396   7.004 -0.6800 -1.0872  0.0859
  637MOL0     C87810   7.769   8.436   6.941 -0.3938  0.7052 -0.4127
  637MOL0     C87811   7.791   8.337   6.829  0.2272  0.5649  0.3037
  637MOL0     C87812   7.939   8.338   6.778 -0.5825 -0.1343  0.0788
  637MOL0    Cl87813   7.983   8.503   6.718  0.4309  0.0489  0.5056
  637MOL0     C87814   6.976   8.589   7.247 -0.0012 -0.2092  0.5899
  637MOL0     C87815   6.904   8.649   7.352 -0.3142  0.9084 -0.0522
  637MOL0     O87816   6.575   8.775   7.316  0.5750 -0.1513 -0.0397
  637MOL0     C87817   6.636   9.028   7.555  0.0725  0.2221  0.4588
  637MOL0     C87818   6.574   9.117   7.645 -0.5838  0.6007  0.2953
  637MOL0     N87819   6.645   9.223   8.398 -0.2260 -0.5934  0.0330
  637MOL0     N87820   6.665   9.317   8.486  0.0876 -0.4838  0.0336
  637MOL0     C87821   5.429   9.469   8.830  0.1396 -0.0127  0.4781
  637MOL0     C87822   5.329   9.566   8.842 -0.3953  0.2555  0.0168
  637MOL0     C87823   5.130   9.962   8.895  0.4953  0.0401  0.4165
  637MOL0     C87824   4.999   9.933   8.830 -0.5283  0.2164 -0.1007
  637MOL0     C87825   4.887  10.005   8.864  0.1980 -0.4562  0.2148
  637MOL0     C87826   4.897  10.118   8.950 -0.8508  0.4268 -1.2022
  637MOL0     O87827   4.794  10.200   8.998  0.3818  0.5832 -0.2127
  637MOL0     C87828   4.663  10.193   8.942 -0.0223 -1.0930 -1.0836
  637MOL0     C87829   4.569  10.200   9.065  0.1761 -0.0194 -0.1718
  637MOL0     C87830   4.574  10.335   9.139 -0.5542  0.0753  0.5352
  637MOL0     C87831   4.685  10.350   9.248 -0.1855 -0.0836 -0.8793
  637MOL0     C87832   4.650  10.276   9.371 -0.1676 -0.1710  0.1487
  637MOL0     C87833   4.628  10.211   9.471  0.0606  0.0015 -0.0789
  637MOL0     C87834   5.018  10.147   9.008 -0.0449  0.8833 -0.2491
  637MOL0     C87835   5.133  10.074   8.983  0.1246 -0.1097 -0.4258
  637MOL0     C87836   5.242  10.107   9.066  0.8423 -0.0583 -0.4281
  637MOL0     H87837   5.438   9.798   8.622 -0.7750  0.1703 -0.5766
  637MOL0     H87838   5.629   9.633   8.614 -0.5502 -2.2220 -1.2061
  637MOL0     H87839   5.778   9.528   8.808 -3.3438 -0.5736  1.4110
  637MOL0     H87840   5.781   9.487   8.629  0.4128 -0.2987  0.4148
  637MOL0     H87841   5.876   9.314   8.867 -0.4473 -1.1330 -0.7474
  637MOL0     H87842   5.863   9.263   8.698  4.0218 -1.3882  0.6259
  637MOL0     H87843   6.005   9.458   8.638  0.7165  0.0602 -0.1184
  637MOL0     H87844   6.026   9.507   8.803 -0.5543  0.4579  1.1348
  637MOL0     H87845   6.124   9.307   8.873 -1.9666 -1.1617  0.8528
  637MOL0     H87846   6.106   9.231   8.714 -6.9008  0.0210  0.7376
  637MOL0     H87847   6.244   9.490   8.736 -2.3251 -1.0618 -0.4279
  637MOL0     H87848   6.247   9.389   8.603 -2.7394  0.4928  0.3441
  637MOL0     H87849   6.378   9.283   8.849 -1.6055  1.2002  0.4843
  637MOL0     H87850   6.402   9.239   8.668 -0.7216  1.2720 -1.9226
  637MOL0     H87851   6.589   9.357   8.777 -1.7680 -2.2718 -1.1194
  637MOL0     H87852   6.475   9.491   8.827 -0.7978 -0.4874  0.5067
  637MOL0     H87853   6.437   9.534   8.577 -1.1466 -0.3719  0.6726
  637MOL0     H87854   6.610   9.552   8.624 -0.6959  1.4709  1.2084
  637MOL0     H87855   6.369   9.408   8.391 -0.6835 -0.8391  3.3964
  637MOL0     H87856   6.366   9.197   8.207 -0.7842 -1.6768  2.6219
  637MOL0     H87857   6.504   9.074   8.236  4.7159  1.3499  1.0728
  637MOL0     H87858   6.519   9.334   8.084  0.4697 -0.3052 -1.5371
  637MOL0     H87859   6.648   9.212   8.112  0.2814  0.9002  0.9371
  637MOL0     H87860   6.596   9.110   7.923  2.9091  1.1996  4.1174
  637MOL0     H87861   6.425   9.081   7.975  0.4836 -0.4785  0.1267
  637MOL0     H87862   6.391   9.320   7.912  2.1133  1.3219  0.7867
  637MOL0     H87863   6.537   9.320   7.824  0.8702 -0.7089  4.0804
  637MOL0     H87864   6.257   9.050   7.599  0.8381 -2.2274  2.1104
  637MOL0     H87865   6.257   8.833   7.426  2.8424  0.1772  3.2778
  637MOL0     H87866   6.349   8.890   7.279  1.4183  0.9136  0.1734
  637MOL0     H87867   6.237   8.993   7.375 -0.8557 -1.6383  2.5370
  637MOL0     H87868   6.852   8.944   7.186  2.0610  1.6320  0.1568
  637MOL0     H87869   7.035   8.856   7.051 -2.9048 -0.6581 -1.9695
  637MOL0     H87870   7.171   8.445   7.168 -3.1322 -0.5382 -0.7626
  637MOL0     H87871   7.192   8.420   6.999 -0.0055  2.7610 -2.3608
  637MOL0     H87872   7.382   8.563   6.973  0.3194  2.7855  0.9085
  637MOL0     H87873   7.354   8.656   7.121  1.5921 -0.7195  2.7193
  637MOL0     H87874   7.422   8.367   7.130  3.2283  0.2929 -1.1230
  637MOL0     H87875   7.424   8.487   7.267  0.6464  0.5767  0.6201
  637MOL0     H87876   7.654   8.472   7.209 -1.1687  1.0110  0.5785
  637MOL0     H87877   7.608   8.591   7.085 -1.0139 -0.2754 -0.1716
  637MOL0     H87878   7.619   8.290   7.027 -4.5239 -0.6194  0.3971
  637MOL0     H87879   7.561   8.406   6.924 -1.4051 -0.6710  0.7853
  637MOL0     H87880   7.837   8.428   7.026 -1.3321 -1.8052  0.1727
  637MOL0     H87881   7.770   8.537   6.899  0.4138 -0.2855 -3.0133
  637MOL0     H87882   7.721   8.359   6.748  1.8202 -2.0027 -1.9681
  637MOL0     H87883   7.767   8.232   6.852  1.8157 -0.3409 -1.8214
  637MOL0     H87884   7.958   8.270   6.694  3.2852 -1.5032  1.8308
  637MOL0     H87885   8.008   8.301   6.854  2.2843  0.2596 -2.1746
  637MOL0     H87886   6.997   8.483   7.249  1.5514  0.0888  1.5701
  637MOL0     H87887   6.867   8.598   7.440 -1.7395 -0.7736 -1.5443
  637MOL0     H87888   6.744   9.027   7.558  0.0482 -0.6589  1.5712
  637MOL0     H87889   6.645   9.170   7.708  0.0526  0.6047 -0.4111
  637MOL0     H87890   5.419   9.380   8.890 -0.3429 -0.9902 -0.9892
  637MOL0     H87891   5.254   9.536   8.915 -0.2137  0.6488  0.3700
  637MOL0     H87892   4.992   9.843   8.771 -0.9870  0.8740 -1.0715
  637MOL0     H87893   4.788   9.974   8.831 -0.2373 -0.1307  1.1758
  637MOL0     H87894   4.633  10.282   8.886  1.8438  2.3488  2.8344
  637MOL0     H87895   4.643  10.102   8.886 -0.9937  0.8306 -4.1350
  637MOL0     H87896   4.577  10.105   9.118 -3.0629 -0.0111  0.5575
  637MOL0     H87897   4.472  10.204   9.013 -0.0059  3.0857  0.1942
  637MOL0     H87898   4.574  10.422   9.073  1.8551 -1.5892 -1.8595
  637MOL0     H87899   4.474  10.347   9.182  1.2925  0.0992  5.3929
  637MOL0     H87900   4.696  10.456   9.271  0.6589 -0.6918  1.9239
  637MOL0     H87901   4.780  10.311   9.212  0.6111  2.2143 -1.3942
  637MOL0     H87902   4.623  10.164   9.567  1.5555 -0.5662 -0.2435
  637MOL0     H87903   5.035  10.223   9.084  0.2172 -0.1947  0.7982
  637MOL0     H87904   5.229  10.200   9.122  0.5133 -0.5172  0.2669
  637MOL0     H87905   5.272  10.036   9.144 -0.9562  0.9641  1.2769
  637MOL0     H87906   5.317  10.137   8.992  1.9637 -0.2420  0.5926
  638MOL0     O87907   4.103   4.945   2.058 -0.5356 -0.3081  0.2040
  638MOL0     C87908   4.174   4.990   2.153  0.9301  0.7536 -0.3216
  638MOL0     O87909   4.307   5.003   2.150  0.1645 -0.3286 -0.4924
  638MOL0     C87910   4.369   5.021   2.025 -0.3870 -0.6506  0.0577
  638MOL0     C87911   4.306   5.072   1.907  0.0692  0.0129 -0.5423
  638MOL0     C87912   4.382   5.088   1.789  0.6927 -0.0275 -0.3148
  638MOL0     C87913   4.523   5.089   1.787 -0.3289  0.8556 -0.2971
  638MOL0     O87914   4.593   5.128   1.681  0.3146 -0.3768  0.9652
  638MOL0     C87915   4.668   5.248   1.693 -0.3953 -0.2748  0.2868
  638MOL0     C87916   4.600   5.355   1.602  0.3708  0.5353 -0.8699
  638MOL0     C87917   4.592   5.310   1.460  0.4248 -0.5916  0.4603
  638MOL0     C87918   4.541   5.420   1.367  0.2711 -0.5417  0.8979
  638MOL0     C87919   4.504   5.361   1.235  0.5469 -0.1564 -0.6469
  638MOL0     C87920   4.494   5.459   1.107  0.4477  0.2881 -0.1960
  638MOL0     C87921   4.467   5.392   0.976  0.6168  0.4842  0.2298
  638MOL0     C87922   4.421   5.502   0.873  0.3585  0.3753 -0.0371
  638MOL0     N87923   4.373   5.449   0.740  0.4557  0.1891 -0.0924
  638MOL0     C87924   4.240   5.452   0.696  0.3517  0.0139 -0.2245
  638MOL0     C87925   4.246   5.409   0.576 -0.1839 -0.2873  0.0682
  638MOL0     C87926   4.131   5.393   0.477 -0.7137 -0.4461 -1.4228
  638MOL0     C87927   4.114   5.521   0.393 -0.0199  0.6461 -0.1924
  638MOL0     C87928   4.010   5.492   0.275 -0.0252  0.0761  0.2971
  638MOL0     C87929   3.993   5.609   0.186  0.2908 -0.0985  0.3430
  638MOL0     O87930   3.912   5.711   0.254  0.5872  0.5297  0.0507
  638MOL0     C87931   3.894   5.820   0.172 -1.0203 -0.0328  0.6708
  638MOL0     C87932   3.937   5.845   0.038 -0.4203 -0.3734 -0.6681
  638MOL0     C87933   3.913   5.970  -0.020 -0.6296 -0.3156  0.7140
  638MOL0     C87934   3.974   5.976  -0.162  0.3196  0.6731  0.5216
  638MOL0     C87935   3.846   6.074   0.046  0.1076 -0.4526 -0.2015
  638MOL0     C87936   3.830   6.209  -0.018  0.3820 -1.2604  0.1369
  638MOL0     O87937   3.739   6.299   0.043  0.4379  0.0270  0.0387
  638MOL0     C87938   3.729   6.424  -0.016 -0.2262 -0.4083 -0.7099
  638MOL0     C87939   3.783   6.541   0.057  0.6552 -0.0568  0.3458
  638MOL0     C87940   3.740   6.668   0.017 -0.2237 -0.6633 -0.2528
  638MOL0     C87941   3.683   6.685  -0.108  0.1817  0.2083 -0.4456
  638MOL0     O87942   3.674   6.813  -0.169 -0.0063  0.1637 -0.4334
  638MOL0     C87943   3.710   6.818  -0.311  0.2750 -0.3950  0.0633
  638MOL0     C87944   3.759   6.964  -0.340 -0.3311  0.0663  0.0921
  638MOL0     C87945   3.649   7.075  -0.318  0.2497  0.4262 -1.1560
  638MOL0     C87946   3.690   7.203  -0.396 -0.3842  1.1339 -0.5293
  638MOL0     C87947   3.593   7.320  -0.376 -0.5986 -0.5266 -0.5305
  638MOL0     C87948   3.616   7.432  -0.481 -0.1411  0.4478 -0.4273
  638MOL0     C87949   3.590   7.381  -0.618 -0.5234  1.5927  0.8144
  638MOL0     C87950   3.516   7.482  -0.703  1.2105  0.0156 -0.7111
  638MOL0    Cl87951   3.604   7.636  -0.750 -0.4539  0.5333 -0.2023
  638MOL0     C87952   3.640   6.566  -0.178  0.6475 -0.0683  0.1748
  638MOL0     C87953   3.657   6.440  -0.133 -0.8426 -0.2282  0.1329
  638MOL0     O87954   3.895   6.241  -0.113  0.2220 -0.4401 -0.3830
  638MOL0     C87955   3.787   6.043   0.173 -0.7884  0.3720  0.2082
  638MOL0     C87956   3.812   5.917   0.229 -0.4781 -0.0276 -0.5556
  638MOL0     N87957   4.376   5.372   0.543  0.1063  0.3487 -0.5447
  638MOL0     N87958   4.454   5.398   0.641 -0.0225  0.6128 -0.4225
  638MOL0     C87959   4.582   5.064   1.916 -0.3544  0.9171  0.3342
  638MOL0     C87960   4.511   5.008   2.032 -0.6358 -0.1759  0.4621
  638MOL0     C87961   4.101   5.041   2.276  0.2017 -1.2764  0.3921
  638MOL0     C87962   4.183   5.092   2.382  0.8212 -0.6457  0.1362
  638MOL0     C87963   4.119   5.160   2.487 -0.6495 -1.1927 -0.0900
  638MOL0     C87964   3.982   5.165   2.495  0.4613 -0.1609  0.5211
  638MOL0     O87965   3.936   5.226   2.610  0.5047  0.6391  0.0870
  638MOL0     C87966   3.818   5.185   2.680  0.1955 -0.2159 -0.7918
  638MOL0     C87967   3.716   5.308   2.682 -0.4177 -1.3108 -0.0815
  638MOL0     C87968   3.710   5.396   2.549  0.6132 -0.0356 -1.3419
  638MOL0     C87969   3.598   5.354   2.448 -0.1576 -0.6502 -0.0010
  638MOL0     C87970   3.468   5.382   2.507 -0.5462  0.0492  0.1070
  638MOL0     C87971   3.355   5.401   2.546  0.1563 -0.0692  0.1610
  638MOL0     C87972   3.904   5.111   2.397 -0.0393 -0.3310  0.0310
  638MOL0     C87973   3.960   5.043   2.290 -0.3323  0.2647 -0.0688
  638MOL0     C87974   3.859   4.971   2.202 -0.0718 -0.7192  0.2514
  638MOL0     H87975   4.201   5.092   1.894  0.2029  0.0972 -1.5261
  638MOL0     H87976   4.344   5.107   1.689 -0.2227 -0.1500  0.0087
  638MOL0     H87977   4.765   5.223   1.650 -1.1163 -0.5979 -1.2175
  638MOL0     H87978   4.675   5.289   1.794 -0.6786  0.2686  0.0873
  638MOL0     H87979   4.503   5.374   1.650  1.4030 -0.2121  1.6328
  638MOL0     H87980   4.661   5.446   1.598  0.3062  0.5872 -4.5418
  638MOL0     H87981   4.692   5.281   1.428  1.5543  2.5757  0.8171
  638MOL0     H87982   4.530   5.222   1.444  0.7805 -0.7927  0.1845
  638MOL0     H87983   4.447   5.456   1.410 -0.6393  0.7339 -1.9236
  638MOL0     H87984   4.613   5.502   1.358  1.2800 -1.6816 -3.2191
  638MOL0     H87985   4.414   5.306   1.265  0.3058  1.1735  1.2180
  638MOL0     H87986   4.575   5.285   1.203  2.1707  0.0307  2.2123
  638MOL0     H87987   4.405   5.519   1.128 -1.2500 -2.7411  2.1048
  638MOL0     H87988   4.579   5.526   1.101  0.2265  0.4807 -1.4762
  638MOL0     H87989   4.393   5.311   0.979 -0.3386  1.3089 -0.5474
  638MOL0     H87990   4.565   5.353   0.945  0.1675  2.6047 -4.6497
  638MOL0     H87991   4.336   5.561   0.910  0.2002 -0.3980  0.8832
  638MOL0     H87992   4.509   5.564   0.855  0.9193 -0.0016  1.2336
  638MOL0     H87993   4.154   5.475   0.758  0.1483 -1.1165 -0.0560
  638MOL0     H87994   4.043   5.368   0.535  2.1038 -0.4684  3.3558
  638MOL0     H87995   4.147   5.312   0.406 -0.3021 -0.9985 -0.7151
  638MOL0     H87996   4.093   5.609   0.455  2.8581  0.3852  1.2930
  638MOL0     H87997   4.205   5.535   0.334  0.3762  1.1856  0.5375
  638MOL0     H87998   4.047   5.403   0.222  3.6176  0.5030  1.8263
  638MOL0     H87999   3.907   5.472   0.306 -0.7441  1.2722 -1.1903
  638MOL0     H88000   4.087   5.647   0.147  0.3291 -1.2818 -0.7487
  638MOL0     H88001   3.933   5.571   0.103  3.3248 -4.5389 -0.1694
  638MOL0     H88002   3.990   5.763  -0.009  2.1601  0.2766  0.8973
  638MOL0     H88003   4.045   6.059  -0.170  3.1435 -1.5601  0.9608
  638MOL0     H88004   3.890   5.983  -0.232  0.2838  0.5370  0.5517
  638MOL0     H88005   4.025   5.890  -0.206  0.3007  0.8262  0.1905
  638MOL0     H88006   3.822   6.522   0.157  0.1535  0.0028  0.5568
  638MOL0     H88007   3.755   6.752   0.084 -2.6561  0.5288 -1.1000
  638MOL0     H88008   3.803   6.765  -0.331 -0.8732 -2.2048 -0.7725
  638MOL0     H88009   3.632   6.775  -0.375  2.7073  1.8181 -4.9794
  638MOL0     H88010   3.852   6.986  -0.286  1.0795  0.4711 -2.3564
  638MOL0     H88011   3.781   6.965  -0.447 -2.7310  2.3149 -0.4642
  638MOL0     H88012   3.641   7.098  -0.211 -0.0461  0.2499 -1.1391
  638MOL0     H88013   3.551   7.048  -0.357  0.1999  1.7651 -2.0298
  638MOL0     H88014   3.696   7.174  -0.502 -2.3459 -2.8091  0.2678
  638MOL0     H88015   3.794   7.236  -0.385  0.3948 -0.3215 -2.6934
  638MOL0     H88016   3.498   7.269  -0.396 -1.4769  0.9170 -0.2591
  638MOL0     H88017   3.607   7.344  -0.270 -0.4847  0.6254 -0.7930
  638MOL0     H88018   3.721   7.459  -0.464 -0.7201  0.7281  3.7159
  638MOL0     H88019   3.551   7.516  -0.454  1.1104  1.0329  0.9463
  638MOL0     H88020   3.541   7.284  -0.627  2.3718  0.1821 -2.2196
  638MOL0     H88021   3.682   7.374  -0.678 -0.9175  0.1122  0.3441
  638MOL0     H88022   3.433   7.510  -0.638  3.0171 -0.5690  1.9961
  638MOL0     H88023   3.477   7.435  -0.794 -1.7510  0.5652  0.1662
  638MOL0     H88024   3.588   6.575  -0.273  4.1939  1.7892 -1.7960
  638MOL0     H88025   3.613   6.367  -0.200 -2.1257  0.8678 -0.2606
  638MOL0     H88026   3.734   6.116   0.233 -3.2995 -1.7479  0.7446
  638MOL0     H88027   3.766   5.899   0.326  0.7167  0.0358  0.0363
  638MOL0     H88028   4.690   5.073   1.923 -0.4293  2.5862 -0.0798
  638MOL0     H88029   4.562   4.974   2.122  2.0657 -1.4413 -1.4150
  638MOL0     H88030   4.291   5.092   2.371  0.6313 -0.0824 -2.0843
  638MOL0     H88031   4.178   5.205   2.566 -0.0176  0.1880 -1.2835
  638MOL0     H88032   3.762   5.104   2.632 -0.6531 -0.8166  1.1340
  638MOL0     H88033   3.847   5.155   2.781  0.1162  1.5179 -0.2191
  638MOL0     H88034   3.748   5.378   2.759 -0.6061  3.0543 -3.5213
  638MOL0     H88035   3.616   5.272   2.708 -0.1085 -2.1764 -0.0596
  638MOL0     H88036   3.688   5.498   2.584  0.4042 -0.1786 -1.0553
  638MOL0     H88037   3.805   5.398   2.494  1.5775  1.5633  0.2586
  638MOL0     H88038   3.611   5.251   2.413  0.0889 -0.3408 -0.8481
  638MOL0     H88039   3.613   5.418   2.361 -0.5118 -0.3981  0.1224
  638MOL0     H88040   3.258   5.428   2.581  0.8702  0.1545  2.1078
  638MOL0     H88041   3.795   5.119   2.400  0.0287  0.5826  0.8688
  638MOL0     H88042   3.868   5.023   2.106  1.4161 -0.3357  0.5685
  638MOL0     H88043   3.881   4.864   2.193  0.7926 -0.9126  3.6072
  638MOL0     H88044   3.759   4.989   2.242 -1.1182 -1.3585 -1.8866
  639MOL0     O88045   4.961   2.460   3.766 -0.2239  0.5981  0.1259
  639MOL0     C88046   4.990   2.374   3.680 -0.0851 -0.2089 -0.6042
  639MOL0     O88047   5.075   2.401   3.570 -0.0017 -0.1086 -1.0339
  639MOL0     C88048   5.086   2.528   3.531 -0.4536 -0.1892  0.4528
  639MOL0     C88049   5.199   2.587   3.504 -0.0999  0.4242 -0.6839
  639MOL0     C88050   5.204   2.709   3.440  0.8099  0.4517 -0.3006
  639MOL0     C88051   5.083   2.776   3.393 -0.2815 -0.1399  0.1093
  639MOL0     O88052   5.076   2.900   3.326 -0.1797 -0.1778  0.7189
  639MOL0     C88053   5.197   2.943   3.270 -0.3566  0.0730  0.4519
  639MOL0     C88054   5.213   2.873   3.135 -0.0315  0.2034 -0.4716
  639MOL0     C88055   5.354   2.839   3.092 -0.5750  0.4786 -0.6079
  639MOL0     C88056   5.362   2.766   2.952  0.4831 -0.2303 -0.6511
  639MOL0     C88057   5.507   2.754   2.902 -0.0484  0.5348  0.6861
  639MOL0     C88058   5.591   2.652   2.977 -0.7297 -0.1202 -0.3807
  639MOL0     C88059   5.726   2.633   2.910  0.4449 -0.9579 -0.1389
  639MOL0     C88060   5.819   2.538   2.983  0.4162  0.1818 -0.4223
  639MOL0     N88061   5.908   2.599   3.078  0.4838 -0.0758 -0.1882
  639MOL0     C88062   6.040   2.563   3.081  0.6220  0.5743 -0.7085
  639MOL0     C88063   6.089   2.599   3.201  0.2181  0.1876  0.2219
  639MOL0     C88064   6.235   2.584   3.259 -0.2540 -0.0979 -0.1976
  639MOL0     C88065   6.235   2.548   3.404 -0.5566  1.0173 -0.0263
  639MOL0     C88066   6.368   2.514   3.476  0.2955  0.3924  0.2070
  639MOL0     C88067   6.356   2.487   3.623 -0.1396 -0.4568  0.3746
  639MOL0     O88068   6.478   2.460   3.696  0.4188  0.5936 -0.1766
  639MOL0     C88069   6.562   2.550   3.746 -0.2714 -0.1878 -1.0828
  639MOL0     C88070   6.541   2.687   3.760  0.5458 -0.2144 -0.3232
  639MOL0     C88071   6.640   2.774   3.800 -0.1337  0.8389 -0.7169
  639MOL0     C88072   6.589   2.923   3.826 -0.1752 -0.4538  0.3205
  639MOL0     C88073   6.771   2.731   3.826 -0.8474  0.4355  0.0338
  639MOL0     C88074   6.896   2.817   3.860  0.5612 -0.3798  0.5214
  639MOL0     O88075   7.016   2.755   3.886 -0.4593 -0.5414  0.5614
  639MOL0     C88076   7.120   2.824   3.950  0.3092 -0.3288 -0.5531
  639MOL0     C88077   7.129   2.971   3.976  0.4290 -0.1297 -0.7921
  639MOL0     C88078   7.254   3.024   4.041  0.8219 -0.1115  0.0012
  639MOL0     C88079   7.354   2.932   4.086 -0.1554 -0.1052 -0.4902
  639MOL0     O88080   7.469   2.979   4.148 -0.3230  0.1459 -0.1516
  639MOL0     C88081   7.590   2.933   4.083  0.3805  0.4479 -0.2750
  639MOL0     C88082   7.671   3.051   4.048 -1.0522  0.6682  0.2683
  639MOL0     C88083   7.597   3.139   3.939  0.5362 -0.0537  0.5668
  639MOL0     C88084   7.663   3.259   3.878 -0.1557 -0.5512  0.3742
  639MOL0     C88085   7.784   3.219   3.799 -0.1125 -0.9852  0.8671
  639MOL0     C88086   7.837   3.318   3.696 -0.0928 -0.8700  0.1448
  639MOL0     C88087   7.973   3.256   3.644  0.7935 -0.4710 -0.0610
  639MOL0     C88088   8.054   3.370   3.572  0.9366  0.0686  0.0213
  639MOL0    Cl88089   7.943   3.415   3.429 -0.4411  0.1982 -0.3052
  639MOL0     C88090   7.342   2.795   4.054  0.8465  0.5654 -0.6325
  639MOL0     C88091   7.227   2.743   3.993  0.7172  0.0059  0.6289
  639MOL0     O88092   6.872   2.936   3.870 -0.2015 -0.4746 -0.3676
  639MOL0     C88093   6.793   2.591   3.820  0.2852 -0.1693 -0.2089
  639MOL0     C88094   6.690   2.511   3.783  0.4500 -0.3246 -0.1782
  639MOL0     N88095   5.978   2.654   3.268 -0.0821 -0.7411 -0.3215
  639MOL0     N88096   5.876   2.663   3.198  0.2586  0.0289  0.1093
  639MOL0     C88097   4.963   2.702   3.418  0.3373  0.7062  0.0906
  639MOL0     C88098   4.964   2.583   3.484 -0.7354 -0.0999  0.0563
  639MOL0     C88099   4.931   2.240   3.703  0.2755  0.2966 -0.6507
  639MOL0     C88100   5.014   2.128   3.689 -0.5650  0.6502  1.3403
  639MOL0     C88101   4.947   1.999   3.705  0.3083 -0.5948  0.4675
  639MOL0     C88102   4.810   1.982   3.737  0.2944 -0.7515  0.1107
  639MOL0     O88103   4.762   1.857   3.756 -0.3137  0.0215 -0.2112
  639MOL0     C88104   4.627   1.838   3.742  0.2771 -0.0127  0.9517
  639MOL0     C88105   4.604   1.717   3.646 -0.0880 -0.0521 -0.4991
  639MOL0     C88106   4.589   1.785   3.501  0.2447 -0.6527 -0.2118
  639MOL0     C88107   4.574   1.693   3.382  0.3949  0.0585  0.6735
  639MOL0     C88108   4.674   1.584   3.376 -0.4244  0.2526 -0.1262
  639MOL0     C88109   4.767   1.503   3.369  0.4589  1.3682  0.5215
  639MOL0     C88110   4.728   2.099   3.753  0.4333 -0.0949 -0.0944
  639MOL0     C88111   4.793   2.228   3.738  0.1128  1.4568 -0.1368
  639MOL0     C88112   4.704   2.339   3.766 -0.4129 -1.2207  0.2795
  639MOL0     H88113   5.286   2.533   3.541 -0.7555 -0.0906  0.1486
  639MOL0     H88114   5.304   2.743   3.417  1.2141 -2.0082 -2.7201
  639MOL0     H88115   5.286   2.926   3.331  1.3018  0.6092 -1.6556
  639MOL0     H88116   5.180   3.050   3.256  0.7059 -0.0140 -2.0766
  639MOL0     H88117   5.173   2.772   3.146  2.4108 -0.5808  3.6251
  639MOL0     H88118   5.164   2.926   3.053 -1.7950 -2.4121 -1.2421
  639MOL0     H88119   5.407   2.934   3.087  1.0023 -0.3888 -1.1270
  639MOL0     H88120   5.397   2.771   3.167 -0.9024  2.9711  2.0319
  639MOL0     H88121   5.322   2.665   2.960  0.3184 -0.1486 -0.4362
  639MOL0     H88122   5.289   2.815   2.888 -1.3663 -2.4706 -0.3674
  639MOL0     H88123   5.561   2.849   2.898  1.8750 -0.5444 -2.8899
  639MOL0     H88124   5.498   2.726   2.797  1.0665  0.6347  0.5597
  639MOL0     H88125   5.612   2.696   3.075  0.4649  0.4420 -0.8706
  639MOL0     H88126   5.542   2.555   2.992 -1.1476  0.0813 -0.4134
  639MOL0     H88127   5.777   2.729   2.914 -0.0669 -0.6124 -1.3173
  639MOL0     H88128   5.712   2.604   2.805 -1.5252 -1.2939  0.1772
  639MOL0     H88129   5.768   2.455   3.033  0.4613  0.9556  0.9621
  639MOL0     H88130   5.873   2.493   2.899 -1.8524 -3.3592 -0.1930
  639MOL0     H88131   6.089   2.523   2.993 -3.4060 -1.4362 -2.2833
  639MOL0     H88132   6.284   2.681   3.246 -1.4337  0.5025 -0.3362
  639MOL0     H88133   6.288   2.505   3.204 -0.7156  0.8844 -2.1562
  639MOL0     H88134   6.186   2.629   3.457 -0.1395  0.5356  1.1265
  639MOL0     H88135   6.177   2.456   3.413  1.5426 -0.1751  2.8658
  639MOL0     H88136   6.406   2.420   3.434 -0.1289 -0.1426  0.9846
  639MOL0     H88137   6.438   2.595   3.457  2.4174 -1.6961 -1.5583
  639MOL0     H88138   6.303   2.571   3.669  0.6003  0.3511 -0.2144
  639MOL0     H88139   6.277   2.411   3.630 -1.0356  0.6165  4.2400
  639MOL0     H88140   6.443   2.726   3.732  0.3535  0.3307  1.0701
  639MOL0     H88141   6.482   2.930   3.807 -0.7510 -2.4376  2.3482
  639MOL0     H88142   6.645   2.993   3.763 -0.3799 -2.5013 -2.2866
  639MOL0     H88143   6.603   2.936   3.934 -2.9560  0.6192  0.6422
  639MOL0     H88144   7.060   3.053   3.958 -0.2731 -0.2183  1.3170
  639MOL0     H88145   7.276   3.129   4.057 -0.9602  0.3360 -0.2759
  639MOL0     H88146   7.652   2.865   4.142 -0.7953  0.4685  1.0426
  639MOL0     H88147   7.563   2.887   3.988  1.0600 -2.2685  0.7569
  639MOL0     H88148   7.694   3.110   4.137  2.6159 -1.6044  1.0336
  639MOL0     H88149   7.769   3.027   4.006 -0.3563 -1.3816  2.7982
  639MOL0     H88150   7.496   3.162   3.975  0.3946 -0.2881  0.3171
  639MOL0     H88151   7.577   3.079   3.850  0.0569  1.1338 -0.1546
  639MOL0     H88152   7.694   3.320   3.963  0.4558 -3.6380  2.5488
  639MOL0     H88153   7.599   3.316   3.810  0.0745 -3.1113 -2.1863
  639MOL0     H88154   7.866   3.207   3.872  0.1440  1.3707  1.0417
  639MOL0     H88155   7.766   3.129   3.739  0.6559  0.8155 -2.2410
  639MOL0     H88156   7.850   3.419   3.736  3.5097 -1.1205 -0.0786
  639MOL0     H88157   7.769   3.324   3.611  0.4013 -0.3890 -0.2243
  639MOL0     H88158   7.945   3.180   3.571  0.3269 -0.1984 -0.1758
  639MOL0     H88159   8.037   3.222   3.725 -1.6454  2.0849  3.2207
  639MOL0     H88160   8.151   3.342   3.530 -0.4718 -0.5308 -3.1882
  639MOL0     H88161   8.065   3.455   3.640  0.3548 -1.0758  1.6023
  639MOL0     H88162   7.425   2.732   4.084  0.3894  0.0978 -0.3306
  639MOL0     H88163   7.220   2.638   3.970 -2.2483 -0.3657  2.5937
  639MOL0     H88164   6.889   2.550   3.851 -0.1282 -0.5661  0.5839
  639MOL0     H88165   6.705   2.403   3.785 -1.6115 -0.8231 -3.7444
  639MOL0     H88166   4.866   2.735   3.383 -0.0488 -1.0007 -0.5190
  639MOL0     H88167   4.868   2.537   3.503 -0.2710 -0.8282  0.7123
  639MOL0     H88168   5.122   2.135   3.677 -0.6328 -0.9260 -0.8190
  639MOL0     H88169   5.014   1.914   3.696 -1.3256 -1.9006  0.2570
  639MOL0     H88170   4.602   1.811   3.845  0.2542 -1.9177  0.5001
  639MOL0     H88171   4.569   1.924   3.708  1.5811  0.3731 -0.4377
  639MOL0     H88172   4.515   1.662   3.676 -0.1877 -0.5192 -1.6275
  639MOL0     H88173   4.695   1.657   3.641 -0.9599 -1.5290  0.5895
  639MOL0     H88174   4.514   1.865   3.497 -0.0842 -0.9443  0.0764
  639MOL0     H88175   4.684   1.837   3.487 -0.8347  1.5099  0.0028
  639MOL0     H88176   4.585   1.749   3.289 -1.3208 -1.8265 -0.7517
  639MOL0     H88177   4.473   1.651   3.389 -0.1579  1.3150  0.4941
  639MOL0     H88178   4.857   1.446   3.358 -0.5251  0.1438 -2.0054
  639MOL0     H88179   4.622   2.095   3.776  0.4611  1.7597  0.5299
  639MOL0     H88180   4.611   2.297   3.805  1.0442 -3.3446  1.7465
  639MOL0     H88181   4.746   2.416   3.832 -1.0785  0.5962 -1.3261
  639MOL0     H88182   4.675   2.398   3.679 -1.2178  0.7017  1.7902
  640MOL0     O88183   6.179   4.575   9.085  0.6423  0.5862 -0.2266
  640MOL0     C88184   6.110   4.575   8.990  0.7069 -0.4145  0.3812
  640MOL0     O88185   6.085   4.683   8.903 -0.2957  0.0116  0.5489
  640MOL0     C88186   6.160   4.802   8.902 -0.1797  0.5094  0.3216
  640MOL0     C88187   6.098   4.920   8.862 -0.0893 -0.1669 -0.0961
  640MOL0     C88188   6.169   5.043   8.830  0.3021  0.5194 -0.6470
  640MOL0     C88189   6.307   5.029   8.826 -0.3070  0.3116  1.5514
  640MOL0     O88190   6.392   5.123   8.777  0.0004  0.6770 -1.0302
  640MOL0     C88191   6.338   5.247   8.741 -0.5034 -0.4476  0.3326
  640MOL0     C88192   6.352   5.349   8.852 -0.1942 -0.1554 -0.3631
  640MOL0     C88193   6.324   5.495   8.806 -0.6675 -0.1436 -0.4588
  640MOL0     C88194   6.332   5.589   8.926  0.4598  1.0215 -0.4229
  640MOL0     C88195   6.292   5.734   8.896  0.6010 -0.6066  0.2211
  640MOL0     C88196   6.268   5.805   9.031  0.3919 -0.3158 -0.1651
  640MOL0     C88197   6.384   5.821   9.130 -0.1390 -0.7436 -0.5022
  640MOL0     C88198   6.383   5.699   9.223  0.0143  0.1602  0.2650
  640MOL0     N88199   6.471   5.714   9.339 -0.7031 -1.1528 -0.0872
  640MOL0     C88200   6.463   5.825   9.423  0.1595 -0.1977  0.1572
  640MOL0     C88201   6.571   5.815   9.506 -0.0175  0.9970  0.0462
  640MOL0     C88202   6.592   5.905   9.625 -0.1058  0.2778 -0.5375
  640MOL0     C88203   6.648   6.038   9.583  0.3216  0.0619  0.5209
  640MOL0     C88204   6.686   6.116   9.714  0.3028 -0.4240  0.2544
  640MOL0     C88205   6.648   6.262   9.717  0.4187 -0.7054  0.0454
  640MOL0     O88206   6.749   6.334   9.790  0.7838  0.2422  0.3056
  640MOL0     C88207   6.756   6.476   9.806 -0.2974 -0.0483  0.5913
  640MOL0     C88208   6.879   6.535   9.824 -0.1761  0.9423  0.7369
  640MOL0     C88209   6.897   6.667   9.864  1.0628  0.2558  0.4093
  640MOL0     C88210   7.028   6.722   9.871 -0.4004  1.1230  0.4174
  640MOL0     C88211   6.776   6.743   9.891 -0.1774 -0.3875  0.8746
  640MOL0     C88212   6.773   6.886   9.932 -0.2549  0.0314 -0.3347
  640MOL0     O88213   6.680   6.914  10.029  0.5789  0.0986 -0.4295
  640MOL0     C88214   6.663   7.043  10.066  0.1667  0.6064  0.1338
  640MOL0     C88215   6.640   7.145   9.970  0.7905  0.1575  0.2454
  640MOL0     C88216   6.605   7.270  10.016 -0.1406 -0.1115  0.2118
  640MOL0     C88217   6.571   7.287  10.146  0.0146  0.3380 -0.3821
  640MOL0     O88218   6.516   7.409  10.179  0.1837  0.6818  0.0789
  640MOL0     C88219   6.525   7.464  10.320 -0.6452 -0.6333  0.7019
  640MOL0     C88220   6.496   7.617  10.314  0.6186  0.2074 -0.4007
  640MOL0     C88221   6.354   7.665  10.264 -0.5353  0.8938  0.3575
  640MOL0     C88222   6.254   7.623  10.376  0.3283 -1.0557  0.2318
  640MOL0     C88223   6.119   7.679  10.358  0.6917 -0.9807  0.0370
  640MOL0     C88224   6.049   7.684  10.213  0.3631  0.3726 -0.5058
  640MOL0     C88225   6.028   7.550  10.147 -0.2581 -0.2395 -0.8043
  640MOL0     C88226   5.987   7.569  10.003 -0.2447  0.0715  0.3479
  640MOL0    Cl88227   5.889   7.436   9.954  0.1712 -0.1635  0.3611
  640MOL0     C88228   6.601   7.191  10.245 -0.2449 -0.8119 -0.8990
  640MOL0     C88229   6.658   7.073  10.201 -0.6996 -0.9883  0.4091
  640MOL0     O88230   6.852   6.970   9.881  0.2457 -0.2309  0.0061
  640MOL0     C88231   6.647   6.686   9.859  0.5062 -0.4896  0.2386
  640MOL0     C88232   6.638   6.553   9.818  0.3242 -0.6371  0.4958
  640MOL0     N88233   6.639   5.693   9.464  0.2682 -0.5980  0.3778
  640MOL0     N88234   6.581   5.635   9.364  0.4436 -0.6272  0.2068
  640MOL0     C88235   6.376   4.914   8.880 -0.4150 -0.4099  0.1533
  640MOL0     C88236   6.300   4.796   8.914 -0.9556 -0.2342 -0.0684
  640MOL0     C88237   6.046   4.455   8.947  0.5669 -0.2973 -0.4564
  640MOL0     C88238   5.909   4.464   8.885  0.0297 -0.6655 -0.2696
  640MOL0     C88239   5.838   4.350   8.844 -0.0391 -0.3830  0.3579
  640MOL0     C88240   5.898   4.226   8.862 -0.6786  0.4913 -0.9512
  640MOL0     O88241   5.830   4.119   8.814  0.2182  0.0555 -0.5197
  640MOL0     C88242   5.842   3.982   8.872  0.4611 -0.6652  0.0039
  640MOL0     C88243   5.786   3.977   9.012 -1.0012 -0.3788  0.0173
  640MOL0     C88244   5.803   3.838   9.079 -0.3842  0.3742 -0.7026
  640MOL0     C88245   5.805   3.846   9.233  0.2512  0.2878 -1.0998
  640MOL0     C88246   5.802   3.708   9.293 -0.0318  0.1900 -0.2704
  640MOL0     C88247   5.783   3.611   9.366  0.6729  0.5413  0.2034
  640MOL0     C88248   6.021   4.212   8.918  0.0288 -0.1378  0.7097
  640MOL0     C88249   6.091   4.324   8.964 -0.8452 -1.1102  0.2741
  640MOL0     C88250   6.236   4.297   9.012  0.1869 -0.0682 -0.4716
  640MOL0     H88251   5.990   4.922   8.856 -0.1954  0.3431  1.4960
  640MOL0     H88252   6.112   5.129   8.798  2.1882  1.8235 -0.6220
  640MOL0     H88253   6.242   5.254   8.688  1.4628 -0.5290 -3.6494
  640MOL0     H88254   6.403   5.284   8.661  0.1072 -0.0655  0.9891
  640MOL0     H88255   6.281   5.329   8.933  0.0915  1.6295  0.3715
  640MOL0     H88256   6.455   5.359   8.886 -1.5361  3.1288  3.4938
  640MOL0     H88257   6.405   5.527   8.739  0.1883 -3.0324 -0.9526
  640MOL0     H88258   6.226   5.500   8.757 -2.6327 -2.2990  2.8489
  640MOL0     H88259   6.274   5.545   9.008 -0.4012  2.5077 -0.2102
  640MOL0     H88260   6.435   5.591   8.964  0.5525  0.5198 -0.6352
  640MOL0     H88261   6.212   5.751   8.823  0.7270  0.3755  0.3059
  640MOL0     H88262   6.379   5.769   8.840  0.1314  0.4795  0.1562
  640MOL0     H88263   6.242   5.907   9.004  1.2901 -0.3762 -1.3037
  640MOL0     H88264   6.181   5.769   9.087  0.8989  1.4283  1.8456
  640MOL0     H88265   6.349   5.901   9.195 -1.3594 -1.0061 -0.8103
  640MOL0     H88266   6.488   5.842   9.100 -0.1353  3.3705  1.6964
  640MOL0     H88267   6.281   5.666   9.242 -0.5010  0.7184 -1.3704
  640MOL0     H88268   6.430   5.616   9.169 -1.2737  2.2698 -4.5955
  640MOL0     H88269   6.386   5.901   9.431 -0.5411 -0.6178 -1.9423
  640MOL0     H88270   6.663   5.863   9.698  2.7145  1.9247 -2.1636
  640MOL0     H88271   6.497   5.921   9.675  0.6964 -0.0094  1.1618
  640MOL0     H88272   6.729   6.015   9.513  0.7959 -0.7975  1.3383
  640MOL0     H88273   6.562   6.083   9.531 -0.3568 -4.0468 -2.4481
  640MOL0     H88274   6.630   6.075   9.798  0.9050 -0.5005  0.6192
  640MOL0     H88275   6.793   6.105   9.729  0.6263 -1.6795 -2.3278
  640MOL0     H88276   6.635   6.304   9.617  1.7639 -0.0227  0.1417
  640MOL0     H88277   6.551   6.279   9.765 -0.6740 -0.6703 -2.0763
  640MOL0     H88278   6.963   6.466   9.820  0.5857  1.9256 -1.1143
  640MOL0     H88279   7.036   6.758   9.974  0.7387 -2.1029  1.5880
  640MOL0     H88280   7.041   6.804   9.800  0.9510  0.7413  0.1983
  640MOL0     H88281   7.101   6.644   9.846 -0.3427  1.5795 -0.9151
  640MOL0     H88282   6.609   7.122   9.869 -0.6149  1.4985  0.3265
  640MOL0     H88283   6.579   7.344   9.941 -0.2216 -0.5490 -0.1968
  640MOL0     H88284   6.454   7.411  10.385  3.3395 -2.5585  3.9872
  640MOL0     H88285   6.623   7.453  10.367  0.3915  1.6629 -0.7707
  640MOL0     H88286   6.513   7.658  10.414  1.0627  0.2463 -0.4934
  640MOL0     H88287   6.553   7.670  10.238  0.2896 -2.8655 -3.0117
  640MOL0     H88288   6.330   7.624  10.165  0.4466  0.9060  0.1040
  640MOL0     H88289   6.353   7.774  10.261  0.0970  0.9403  1.3663
  640MOL0     H88290   6.301   7.661  10.468  0.4685 -0.6865  0.0082
  640MOL0     H88291   6.254   7.515  10.395  1.1533 -1.0182  0.4711
  640MOL0     H88292   6.056   7.628  10.431  1.3008  1.6862  2.6291
  640MOL0     H88293   6.123   7.783  10.390 -1.1934 -0.2613 -1.8258
  640MOL0     H88294   6.099   7.747  10.138 -3.2059  2.0288 -1.7190
  640MOL0     H88295   5.948   7.726  10.219 -0.6295 -1.7891 -1.2519
  640MOL0     H88296   5.950   7.501  10.204 -1.0183  2.8858  1.1048
  640MOL0     H88297   6.117   7.487  10.159  0.0627  0.6541  2.4021
  640MOL0     H88298   6.072   7.573   9.933 -1.6179  1.2363 -1.3385
  640MOL0     H88299   5.939   7.665   9.984  1.1283  0.3351 -2.2678
  640MOL0     H88300   6.587   7.211  10.351  1.6127 -0.0291 -0.7638
  640MOL0     H88301   6.695   7.006  10.277  1.0471  0.0938  0.5765
  640MOL0     H88302   6.560   6.749   9.873 -0.5718 -1.9449  0.3463
  640MOL0     H88303   6.540   6.513   9.794  0.2205 -0.9389  1.3930
  640MOL0     H88304   6.485   4.907   8.882 -0.1566 -4.9034 -5.2944
  640MOL0     H88305   6.361   4.711   8.939 -0.2743 -0.6143 -2.6933
  640MOL0     H88306   5.864   4.562   8.879  0.2046 -0.4060  1.8501
  640MOL0     H88307   5.734   4.366   8.817 -0.0800 -1.7861 -0.4514
  640MOL0     H88308   5.795   3.906   8.809 -4.6480  2.1740 -0.1842
  640MOL0     H88309   5.950   3.965   8.882  0.7259 -1.4886 -3.2138
  640MOL0     H88310   5.681   4.007   9.017 -1.7536 -2.6488 -0.8486
  640MOL0     H88311   5.845   4.050   9.069 -0.8351 -1.6433  1.5293
  640MOL0     H88312   5.721   3.775   9.045 -0.8202  0.8037 -0.4786
  640MOL0     H88313   5.898   3.797   9.044  2.2058  5.2542 -0.2611
  640MOL0     H88314   5.718   3.894   9.279  0.3421  0.7346 -1.3883
  640MOL0     H88315   5.889   3.904   9.272 -0.4932 -0.8385  2.6071
  640MOL0     H88316   5.771   3.530   9.435 -0.9898 -1.4799 -2.2233
  640MOL0     H88317   6.066   4.114   8.933 -1.2455 -1.1156 -1.4237
  640MOL0     H88318   6.300   4.337   8.933  2.0173  1.5658  1.6980
  640MOL0     H88319   6.260   4.342   9.109 -2.4079  2.3580 -0.8430
  640MOL0     H88320   6.255   4.190   9.027 -3.2494 -1.2035 -2.8715
  641MOL0     O88321  10.757   1.176   5.833  0.7168 -0.5016  0.6990
  641MOL0     C88322  10.697   1.090   5.765  0.6329  0.3492 -0.9000
  641MOL0     O88323  10.747   1.032   5.651 -0.8327  0.0616 -0.0514
  641MOL0     C88324  10.882   1.027   5.632 -1.0840  0.5980 -0.2583
  641MOL0     C88325  10.970   0.992   5.723 -1.6001  0.3137 -0.0929
  641MOL0     C88326  11.115   0.991   5.695  0.7245 -0.5186  0.0884
  641MOL0     C88327  11.162   1.038   5.571 -0.3544  0.5041 -0.2258
  641MOL0     O88328  11.296   1.048   5.531  0.3097 -0.1235 -0.5654
  641MOL0     C88329  11.404   1.005   5.614 -0.5710  0.3034 -0.4987
  641MOL0     C88330  11.534   1.009   5.538 -0.2686 -0.4358  0.7935
  641MOL0     C88331  11.538   0.919   5.419  1.4467  0.0714  0.7479
  641MOL0     C88332  11.679   0.926   5.349  0.3825  0.4435 -0.4135
  641MOL0     C88333  11.777   0.825   5.419 -0.0664 -0.5098 -0.1968
  641MOL0     C88334  11.817   0.703   5.335  0.1158  0.4462  1.0106
  641MOL0     C88335  11.918   0.609   5.397  0.9835  0.0530 -0.1299
  641MOL0     C88336  11.977   0.516   5.294  0.5870 -0.7762  0.8764
  641MOL0     N88337  12.076   0.434   5.369  0.4981  0.2852  0.1859
  641MOL0     C88338  12.202   0.476   5.415  0.2412  0.4068  0.2099
  641MOL0     C88339  12.251   0.370   5.488 -0.2538  0.6069 -0.7212
  641MOL0     C88340  12.385   0.346   5.562  0.3473 -0.1367 -0.1259
  641MOL0     C88341  12.404   0.219   5.648  0.7388 -0.3891  0.8871
  641MOL0     C88342  12.520   0.228   5.748 -0.0582  0.4768  0.0609
  641MOL0     C88343  12.478   0.246   5.896 -0.1922 -0.2940  1.0073
  641MOL0     O88344  12.440   0.380   5.913  0.2495 -0.3198  0.3659
  641MOL0     C88345  12.419   0.438   6.036  0.5970  0.4094 -1.1067
  641MOL0     C88346  12.383   0.574   6.042 -0.3600  0.1674 -0.5237
  641MOL0     C88347  12.362   0.643   6.166  0.3118 -0.2233 -0.5399
  641MOL0     C88348  12.349   0.790   6.167  0.0871  0.0014 -0.7507
  641MOL0     C88349  12.365   0.566   6.284  0.2895  0.9097 -0.3401
  641MOL0     C88350  12.336   0.628   6.413 -0.9018  0.3178 -0.7798
  641MOL0     O88351  12.233   0.719   6.425  0.1803 -1.0430 -0.0255
  641MOL0     C88352  12.191   0.769   6.545  0.0632  0.4253 -0.0471
  641MOL0     C88353  12.126   0.895   6.542 -0.2946  0.0768  0.2996
  641MOL0     C88354  12.060   0.949   6.651 -0.1076 -0.1958 -0.7103
  641MOL0     C88355  12.050   0.877   6.765 -0.6346  0.2568  0.1591
  641MOL0     O88356  11.981   0.922   6.878  0.3534 -0.7361 -1.1124
  641MOL0     C88357  11.943   1.059   6.884  0.3939 -0.2817 -0.1426
  641MOL0     C88358  11.862   1.084   7.025  0.2711 -0.4852  0.1841
  641MOL0     C88359  11.740   0.995   7.038  0.1919 -0.3933  0.5799
  641MOL0     C88360  11.642   1.010   6.929 -0.3841  1.0983  0.6234
  641MOL0     C88361  11.507   0.941   6.952 -0.0668 -1.2106 -0.0653
  641MOL0     C88362  11.521   0.797   6.933  0.1319  0.5018 -0.8231
  641MOL0     C88363  11.398   0.712   6.965  0.1123  1.0304 -0.3927
  641MOL0     C88364  11.444   0.565   6.980 -0.3287  0.7446  0.2229
  641MOL0    Cl88365  11.303   0.459   6.989  0.3060 -0.0733  0.7167
  641MOL0     C88366  12.115   0.749   6.775 -0.0481 -0.7548  0.4786
  641MOL0     C88367  12.191   0.699   6.665 -0.1798  0.5532 -1.1505
  641MOL0     O88368  12.407   0.592   6.508  0.1126  0.5336  0.2998
  641MOL0     C88369  12.411   0.430   6.284  0.2215 -0.3122 -0.2109
  641MOL0     C88370  12.430   0.364   6.159 -0.5324  0.0336  0.2554
  641MOL0     N88371  12.157   0.265   5.468 -0.4417  0.0292  0.2410
  641MOL0     N88372  12.055   0.302   5.395  0.5823 -0.2043 -0.0757
  641MOL0     C88373  11.065   1.074   5.474  0.4925 -0.5895  0.1603
  641MOL0     C88374  10.929   1.070   5.504 -0.0513  0.0701  0.5285
  641MOL0     C88375  10.550   1.049   5.796  0.6754 -0.3234 -0.4499
  641MOL0     C88376  10.480   0.972   5.701  0.3416 -0.0094 -0.1649
  641MOL0     C88377  10.349   0.924   5.731 -0.2158  0.3971 -0.0351
  641MOL0     C88378  10.278   0.961   5.845 -0.3706 -0.0819  0.6487
  641MOL0     O88379  10.153   0.906   5.855  0.1032 -0.0534 -0.0897
  641MOL0     C88380  10.079   0.957   5.967 -0.2391 -0.0649 -0.0324
  641MOL0     C88381   9.932   0.911   5.963  0.1244  0.2627 -0.1805
  641MOL0     C88382   9.858   0.926   6.097 -0.0584 -0.8419  0.3664
  641MOL0     C88383   9.855   0.800   6.184  0.3018  0.1080 -0.2449
  641MOL0     C88384   9.807   0.683   6.112 -0.1836  0.4704  0.3796
  641MOL0     C88385   9.791   0.584   6.044 -0.5613 -1.3146 -0.9738
  641MOL0     C88386  10.347   1.050   5.934  0.3961  0.2863  0.4768
  641MOL0     C88387  10.481   1.086   5.911 -0.7733 -0.5284  0.0622
  641MOL0     C88388  10.541   1.149   6.024 -0.8430  0.5507  0.1618
  641MOL0     H88389  10.928   0.939   5.808  1.1168 -1.0988  0.4975
  641MOL0     H88390  11.191   0.949   5.760 -0.5569 -1.0539  1.3193
  641MOL0     H88391  11.396   0.900   5.644  0.6241  0.4698  0.4680
  641MOL0     H88392  11.419   1.056   5.710 -0.2027 -3.0503  1.3959
  641MOL0     H88393  11.534   1.112   5.499 -3.2957 -1.1741 -1.5540
  641MOL0     H88394  11.614   0.989   5.609 -1.3967 -0.3373  2.1502
  641MOL0     H88395  11.506   0.817   5.443  0.0516  0.5818  1.1892
  641MOL0     H88396  11.463   0.949   5.345  0.3420  0.4094  1.9587
  641MOL0     H88397  11.678   0.918   5.240  3.6578 -2.8349 -0.3919
  641MOL0     H88398  11.713   1.027   5.374  3.0267 -1.0155  2.3612
  641MOL0     H88399  11.725   0.792   5.509  0.1536 -0.6654 -0.1268
  641MOL0     H88400  11.873   0.867   5.452  1.6799 -2.9586 -1.7790
  641MOL0     H88401  11.729   0.643   5.311  1.0038 -0.3891 -0.2941
  641MOL0     H88402  11.860   0.749   5.246 -2.1044  1.3503  0.3359
  641MOL0     H88403  11.864   0.545   5.468  1.4828 -0.6604 -0.3779
  641MOL0     H88404  11.993   0.664   5.454  1.5048  1.0196 -1.6869
  641MOL0     H88405  11.897   0.452   5.255 -0.1041  0.0107  0.9795
  641MOL0     H88406  12.016   0.568   5.205 -0.0681 -0.2086  0.9151
  641MOL0     H88407  12.242   0.577   5.415  0.5476  0.3206 -1.6795
  641MOL0     H88408  12.384   0.441   5.616 -0.5121  0.8514 -1.7861
  641MOL0     H88409  12.460   0.346   5.482 -1.1138 -1.3560 -1.5683
  641MOL0     H88410  12.311   0.204   5.703  0.5811 -0.2158  0.6722
  641MOL0     H88411  12.411   0.132   5.582 -2.5118  0.0393 -0.1770
  641MOL0     H88412  12.580   0.137   5.737 -1.5464 -0.2325 -4.8597
  641MOL0     H88413  12.588   0.311   5.726  3.7220 -1.7543  2.1645
  641MOL0     H88414  12.394   0.184   5.928 -3.1108  1.7686 -1.9378
  641MOL0     H88415  12.564   0.225   5.959 -0.4462 -2.0929  0.8045
  641MOL0     H88416  12.402   0.625   5.948 -1.4218  1.3615 -0.1103
  641MOL0     H88417  12.247   0.830   6.176  0.2455  0.8480 -2.3944
  641MOL0     H88418  12.397   0.833   6.078  1.2473 -1.0910 -0.6732
  641MOL0     H88419  12.397   0.831   6.256 -0.6067 -0.7715 -0.0020
  641MOL0     H88420  12.123   0.952   6.450 -1.6749 -0.6689 -0.1415
  641MOL0     H88421  12.019   1.050   6.642 -1.4872 -0.7594 -0.9763
  641MOL0     H88422  12.036   1.117   6.887 -0.0455  0.7426 -3.0327
  641MOL0     H88423  11.885   1.092   6.797 -2.5706 -0.4729  1.6259
  641MOL0     H88424  11.935   1.072   7.106  1.5691 -1.8703 -1.1121
  641MOL0     H88425  11.816   1.182   7.039 -0.6315 -0.8550 -0.1452
  641MOL0     H88426  11.687   1.010   7.132  1.8760  0.4306  1.4526
  641MOL0     H88427  11.774   0.892   7.050 -3.0029 -1.4558  1.3496
  641MOL0     H88428  11.688   0.964   6.840 -1.5815 -0.0070  0.5575
  641MOL0     H88429  11.619   1.116   6.912  1.4388  1.3906 -0.2764
  641MOL0     H88430  11.470   0.959   7.053  1.3976 -2.2259  0.6821
  641MOL0     H88431  11.440   0.969   6.870 -0.9612 -0.4909  0.8904
  641MOL0     H88432  11.594   0.764   7.006 -4.8956 -0.0984  4.7125
  641MOL0     H88433  11.561   0.782   6.832  1.8794 -0.9906  0.0433
  641MOL0     H88434  11.339   0.726   6.874 -1.2563  1.7987  0.5703
  641MOL0     H88435  11.352   0.745   7.059  0.2244  0.8261 -0.2675
  641MOL0     H88436  11.501   0.555   7.073  1.1928  0.3168 -0.7159
  641MOL0     H88437  11.502   0.526   6.896 -1.3272  2.1167 -1.1764
  641MOL0     H88438  12.111   0.693   6.868 -1.9882  0.0185  0.9059
  641MOL0     H88439  12.229   0.598   6.671 -1.3077 -0.1155 -3.8310
  641MOL0     H88440  12.433   0.380   6.378  0.5206  0.4853  0.1569
  641MOL0     H88441  12.461   0.261   6.158 -0.6141  0.0141 -1.0308
  641MOL0     H88442  11.100   1.097   5.374  1.2818 -0.3305  0.4919
  641MOL0     H88443  10.865   1.110   5.425  2.3032 -0.3716 -1.7508
  641MOL0     H88444  10.520   0.958   5.601 -0.9519 -1.6324 -0.5047
  641MOL0     H88445  10.293   0.862   5.662 -2.1350  2.7115 -0.6931
  641MOL0     H88446  10.128   0.919   6.057  2.7742 -2.4958 -2.4566
  641MOL0     H88447  10.080   1.066   5.977 -0.9682 -0.1900  1.9879
  641MOL0     H88448   9.924   0.811   5.919  2.1739 -0.3447  0.7023
  641MOL0     H88449   9.885   0.972   5.885 -1.8005  0.0272  0.7446
  641MOL0     H88450   9.905   1.010   6.148  1.7749 -2.1223  0.9020
  641MOL0     H88451   9.754   0.955   6.080 -0.0497  0.0539  1.7071
  641MOL0     H88452   9.798   0.829   6.273  1.1397 -0.4891  0.5091
  641MOL0     H88453   9.958   0.775   6.211  1.3566  1.1962 -2.9512
  641MOL0     H88454   9.802   0.495   5.985 -1.1680 -2.6856  0.8718
  641MOL0     H88455  10.297   1.072   6.028 -2.1412  1.5616 -1.0703
  641MOL0     H88456  10.554   1.256   6.005 -2.9436  1.0421  1.1392
  641MOL0     H88457  10.472   1.157   6.109  0.5017 -2.5761  1.7302
  641MOL0     H88458  10.639   1.109   6.053 -1.0002 -0.6765 -0.9156
  642MOL0     O88459   2.754   9.349   4.628  0.5221 -0.2512 -0.4271
  642MOL0     C88460   2.763   9.321   4.745  0.1706 -1.0045  0.1954
  642MOL0     O88461   2.808   9.201   4.793  0.2472 -0.3234  0.2235
  642MOL0     C88462   2.827   9.105   4.700  0.6340 -0.0024 -0.2996
  642MOL0     C88463   2.937   9.019   4.718 -0.3824  0.3894  0.0525
  642MOL0     C88464   2.961   8.917   4.625 -0.9347 -0.0103  0.4234
  642MOL0     C88465   2.869   8.873   4.535  0.0465 -0.0078 -1.2906
  642MOL0     O88466   2.899   8.765   4.456 -0.4058 -0.1134 -0.2785
  642MOL0     C88467   2.863   8.767   4.321 -0.4319 -0.5113 -0.8803
  642MOL0     C88468   2.923   8.642   4.253 -0.5922  0.1536 -0.6389
  642MOL0     C88469   2.896   8.640   4.100 -0.0783  0.8755  0.1866
  642MOL0     C88470   3.003   8.558   4.023  0.8750  0.9796  0.9357
  642MOL0     C88471   2.961   8.569   3.873  0.8251 -0.0284 -0.9399
  642MOL0     C88472   3.039   8.486   3.783 -0.2978  0.2006 -0.3599
  642MOL0     C88473   2.954   8.482   3.654  0.7653 -0.2269 -0.1186
  642MOL0     C88474   3.030   8.460   3.524  0.1214 -0.4175  0.4747
  642MOL0     N88475   3.099   8.329   3.524  0.6551 -0.2102 -0.6721
  642MOL0     C88476   3.218   8.296   3.589  0.0662 -0.1016  0.1162
  642MOL0     C88477   3.217   8.166   3.608 -0.4488 -0.0804 -0.3803
  642MOL0     C88478   3.301   8.106   3.716  0.4530  0.5213  0.4529
  642MOL0     C88479   3.404   8.002   3.657  0.4017 -1.2408 -0.0484
  642MOL0     C88480   3.382   7.857   3.703  0.2603  0.0392  0.2136
  642MOL0     C88481   3.489   7.763   3.655  1.2481  0.3088 -0.7780
  642MOL0     O88482   3.624   7.810   3.688  0.7787 -0.3323 -0.4055
  642MOL0     C88483   3.666   7.801   3.822  0.6897 -0.3567  0.2242
  642MOL0     C88484   3.783   7.866   3.853  1.1683  0.6407  0.1291
  642MOL0     C88485   3.830   7.883   3.988 -0.6843  0.3978  0.6736
  642MOL0     C88486   3.953   7.970   4.015  1.0295 -0.3551 -0.4811
  642MOL0     C88487   3.762   7.818   4.090 -0.1338  0.2566 -0.7222
  642MOL0     C88488   3.801   7.820   4.234 -0.4034 -0.0903 -0.1106
  642MOL0     O88489   3.708   7.766   4.311 -0.2551  0.7371  0.5113
  642MOL0     C88490   3.722   7.750   4.450 -0.8180  0.4816 -0.0690
  642MOL0     C88491   3.601   7.726   4.516 -1.1064 -0.2745  0.0585
  642MOL0     C88492   3.598   7.706   4.654  1.2829  0.1664 -0.3311
  642MOL0     C88493   3.715   7.697   4.733  0.6288  0.4418 -0.0891
  642MOL0     O88494   3.705   7.667   4.869  0.2642 -0.4111  0.8720
  642MOL0     C88495   3.820   7.608   4.927 -0.1424 -0.1770  1.0897
  642MOL0     C88496   3.798   7.552   5.062  0.4078 -0.5022 -0.2387
  642MOL0     C88497   3.733   7.646   5.163 -0.2245 -0.1219  0.1327
  642MOL0     C88498   3.825   7.760   5.213  0.4830  0.0136  0.7147
  642MOL0     C88499   3.772   7.845   5.332 -0.2575  0.1649  0.1100
  642MOL0     C88500   3.719   7.780   5.460  0.0300 -0.5333 -0.0890
  642MOL0     C88501   3.832   7.700   5.530 -0.4945 -0.2721 -0.3284
  642MOL0     C88502   3.804   7.653   5.671 -0.0614 -0.1088  1.4754
  642MOL0    Cl88503   3.716   7.489   5.668  0.2465  0.3324 -0.2198
  642MOL0     C88504   3.838   7.724   4.667 -0.2408  0.3799  0.8306
  642MOL0     C88505   3.843   7.751   4.530  0.1284  0.5502 -0.2185
  642MOL0     O88506   3.899   7.877   4.279 -0.0272  0.5498  0.0801
  642MOL0     C88507   3.647   7.748   4.051 -0.1254 -0.4846  0.2816
  642MOL0     C88508   3.595   7.753   3.923  0.8622  0.7962 -0.9535
  642MOL0     N88509   3.131   8.108   3.518 -0.2028 -1.3630 -0.1104
  642MOL0     N88510   3.053   8.208   3.476  0.7207  0.2060 -0.1431
  642MOL0     C88511   2.752   8.957   4.525 -0.4713 -0.5814 -0.6099
  642MOL0     C88512   2.733   9.063   4.605  0.0879 -0.1531 -0.3377
  642MOL0     C88513   2.682   9.412   4.836 -0.1364  0.1713  0.1655
  642MOL0     C88514   2.546   9.406   4.835 -0.7967 -0.2950  0.1730
  642MOL0     C88515   2.467   9.494   4.909  0.0127 -0.5106  0.3278
  642MOL0     C88516   2.526   9.592   4.991  0.0708  0.0764  0.3547
  642MOL0     O88517   2.434   9.668   5.050  0.4994  0.6569  0.6365
  642MOL0     C88518   2.479   9.804   5.073  0.8779 -0.0807  0.0783
  642MOL0     C88519   2.361   9.873   5.122 -0.8626  0.2539  0.0529
  642MOL0     C88520   2.370  10.019   5.093  0.2726 -0.0357  0.6254
  642MOL0     C88521   2.364  10.103   5.219 -0.2348 -0.4074 -0.2125
  642MOL0     C88522   2.229  10.108   5.278  0.1802 -0.6394 -0.6836
  642MOL0     C88523   2.135  10.110   5.356 -0.9438 -0.3301 -0.6294
  642MOL0     C88524   2.671   9.593   4.992  0.4017 -0.4452 -0.3415
  642MOL0     C88525   2.741   9.498   4.923  0.5519 -0.8731  0.0032
  642MOL0     C88526   2.892   9.509   4.929  0.1157 -0.6515 -0.5565
  642MOL0     H88527   3.016   9.040   4.789  0.0382 -0.4689 -0.1579
  642MOL0     H88528   3.060   8.872   4.624  1.0795  3.9438 -1.6060
  642MOL0     H88529   2.912   8.856   4.279  0.2902  0.3730  1.6835
  642MOL0     H88530   2.755   8.768   4.299 -1.2146  0.1002  2.4464
  642MOL0     H88531   3.032   8.646   4.263 -0.7309  2.3249  0.7302
  642MOL0     H88532   2.888   8.553   4.307 -1.6674  0.4874 -0.7578
  642MOL0     H88533   2.797   8.599   4.078  0.8577  0.1517 -3.1108
  642MOL0     H88534   2.891   8.737   4.050  2.8626  0.6321 -0.7169
  642MOL0     H88535   3.097   8.614   4.030  0.4477  2.0869 -1.2132
  642MOL0     H88536   3.014   8.453   4.049 -1.7450 -0.2130 -2.1213
  642MOL0     H88537   2.971   8.675   3.849  0.5800  0.6590  1.7021
  642MOL0     H88538   2.857   8.536   3.871  1.3622 -2.5405  2.7694
  642MOL0     H88539   3.138   8.531   3.767 -0.2127  0.0643 -0.2160
  642MOL0     H88540   3.048   8.379   3.803  2.9402 -0.1636 -2.8466
  642MOL0     H88541   2.892   8.572   3.654  0.7478 -0.2340 -1.2038
  642MOL0     H88542   2.882   8.401   3.670  0.5347  0.2581  1.5357
  642MOL0     H88543   2.963   8.459   3.437 -0.6528  0.7076  1.0356
  642MOL0     H88544   3.109   8.534   3.509  0.3751 -1.0359 -1.4992
  642MOL0     H88545   3.268   8.371   3.650  0.4424 -0.8764  0.7933
  642MOL0     H88546   3.240   8.071   3.799 -0.1873  1.7747  0.5392
  642MOL0     H88547   3.366   8.183   3.759  0.6187 -0.4808  2.0725
  642MOL0     H88548   3.395   8.013   3.548  2.4445  0.6160 -0.0965
  642MOL0     H88549   3.504   8.022   3.695  1.2676 -2.5841 -1.4835
  642MOL0     H88550   3.370   7.854   3.812  2.9968  1.0029  0.6247
  642MOL0     H88551   3.286   7.828   3.661 -1.2258  1.2779  2.5432
  642MOL0     H88552   3.480   7.664   3.702  1.7769  0.2282 -0.8485
  642MOL0     H88553   3.480   7.757   3.546  1.1686  0.1858 -0.7651
  642MOL0     H88554   3.835   7.912   3.770 -0.9059  0.1750 -1.5206
  642MOL0     H88555   4.030   7.908   4.062  1.7686  0.7403 -0.1860
  642MOL0     H88556   3.921   8.051   4.081  1.2280 -1.2779  0.7985
  642MOL0     H88557   3.992   8.026   3.929 -0.1684  0.0287 -0.7910
  642MOL0     H88558   3.508   7.729   4.461 -0.3550  1.2547 -1.1853
  642MOL0     H88559   3.499   7.684   4.695  1.5079 -1.1601 -0.4376
  642MOL0     H88560   3.854   7.521   4.871 -2.3879 -0.8411  0.6527
  642MOL0     H88561   3.904   7.678   4.936  0.1863 -0.2975 -0.5970
  642MOL0     H88562   3.728   7.471   5.040 -2.5002  2.1565 -1.4635
  642MOL0     H88563   3.895   7.521   5.103 -0.2047 -0.5104  1.2583
  642MOL0     H88564   3.723   7.580   5.249 -0.4653 -3.6739 -2.3912
  642MOL0     H88565   3.634   7.684   5.135 -1.5567 -1.3805  2.7822
  642MOL0     H88566   3.830   7.820   5.122  3.3765 -0.0376  0.7398
  642MOL0     H88567   3.922   7.721   5.248  1.0556 -1.3821 -2.0684
  642MOL0     H88568   3.849   7.917   5.363  1.2029 -1.3056  0.0578
  642MOL0     H88569   3.687   7.899   5.289 -2.4303 -2.3235  1.0220
  642MOL0     H88570   3.642   7.705   5.440  0.5027 -0.9823 -0.2485
  642MOL0     H88571   3.683   7.860   5.526 -1.4906 -1.2286 -0.0480
  642MOL0     H88572   3.916   7.770   5.527  1.3636 -2.3985 -0.7781
  642MOL0     H88573   3.866   7.616   5.469  4.3159  0.2118  1.3086
  642MOL0     H88574   3.750   7.736   5.716 -0.6701  0.9669 -1.0945
  642MOL0     H88575   3.899   7.626   5.719  1.5414  1.3413 -0.7051
  642MOL0     H88576   3.930   7.727   4.724 -0.2166  0.1731  0.8033
  642MOL0     H88577   3.938   7.750   4.478 -0.4425 -0.8572 -1.3154
  642MOL0     H88578   3.580   7.706   4.126 -1.3122  1.4218  0.3509
  642MOL0     H88579   3.497   7.709   3.906  0.3163  2.0184 -1.0736
  642MOL0     H88580   2.677   8.938   4.448  0.9660 -0.6613 -2.0402
  642MOL0     H88581   2.642   9.122   4.597 -3.8120 -5.4302 -0.3993
  642MOL0     H88582   2.497   9.331   4.773 -0.3336  0.4420 -1.1455
  642MOL0     H88583   2.360   9.479   4.920  0.1640 -2.4583 -0.4112
  642MOL0     H88584   2.560   9.814   5.146  2.1703 -1.0566 -1.1641
  642MOL0     H88585   2.508   9.834   4.972 -1.1499 -1.0361 -0.8377
  642MOL0     H88586   2.345   9.851   5.228  1.0818  2.8216  0.9927
  642MOL0     H88587   2.271   9.842   5.068 -1.7468  1.3286  0.8714
  642MOL0     H88588   2.464  10.034   5.040 -0.1843 -2.8630 -1.1730
  642MOL0     H88589   2.294  10.039   5.017  0.4027  1.1267  0.7766
  642MOL0     H88590   2.397  10.203   5.190 -1.2866  0.5913  1.8379
  642MOL0     H88591   2.435  10.059   5.289 -0.0802 -2.1301 -1.3799
  642MOL0     H88592   2.055  10.091   5.425  0.3408  1.5201  1.5181
  642MOL0     H88593   2.733   9.659   5.052 -2.1896 -0.1534  2.2856
  642MOL0     H88594   2.954   9.419   4.922 -1.2351 -1.9471  2.4564
  642MOL0     H88595   2.925   9.581   4.854  6.1083  0.1736  2.2819
  642MOL0     H88596   2.924   9.551   5.024 -0.3943  1.6737 -1.3470
  643MOL0     O88597   9.411   5.257   3.403 -0.0649 -0.5310  0.3060
  643MOL0     C88598   9.408   5.288   3.283 -0.2440 -0.3434  0.2249
  643MOL0     O88599   9.420   5.205   3.180 -0.0093  0.1794 -0.6163
  643MOL0     C88600   9.489   5.087   3.200  0.0012  0.3754  0.2473
  643MOL0     C88601   9.615   5.069   3.263 -1.1218  0.3535 -0.5813
  643MOL0     C88602   9.670   4.932   3.269 -0.0886  0.4059 -0.0061
  643MOL0     C88603   9.605   4.831   3.201  0.9017  0.6496  0.3945
  643MOL0     O88604   9.671   4.708   3.196 -0.6297  0.1449 -0.2138
  643MOL0     C88605   9.582   4.601   3.243 -0.3189 -0.3238  0.0077
  643MOL0     C88606   9.653   4.501   3.339 -0.2376 -0.6986 -0.1530
  643MOL0     C88607   9.783   4.446   3.276  0.6690 -0.8681 -0.0556
  643MOL0     C88608   9.853   4.340   3.365  0.6767  0.1924  0.2041
  643MOL0     C88609   9.994   4.307   3.305 -0.7149  0.0274  0.0898
  643MOL0     C88610  10.065   4.199   3.381 -0.2500 -1.0674 -1.1363
  643MOL0     C88611  10.217   4.182   3.333 -0.5589 -0.4442  0.1458
  643MOL0     C88612  10.231   4.140   3.188 -0.0308  0.4626 -0.1189
  643MOL0     N88613  10.211   3.996   3.170 -0.1523  0.0736 -0.7613
  643MOL0     C88614  10.205   3.888   3.262 -0.1511  0.1194 -0.3815
  643MOL0     C88615  10.246   3.779   3.198  0.0227 -1.1119 -0.2470
  643MOL0     C88616  10.249   3.634   3.240 -0.1521  0.3515 -0.4168
  643MOL0     C88617  10.128   3.577   3.314 -0.1164  0.2272 -0.4439
  643MOL0     C88618  10.163   3.433   3.360  0.0629  0.5944  0.8734
  643MOL0     C88619  10.058   3.371   3.443  1.4113 -0.9458 -0.2886
  643MOL0     O88620   9.937   3.389   3.367  0.6668  0.4516 -0.5384
  643MOL0     C88621   9.813   3.371   3.441 -0.9340 -1.1970  0.0473
  643MOL0     C88622   9.691   3.387   3.375  0.6279  0.0198  1.2655
  643MOL0     C88623   9.571   3.376   3.452 -0.7453  0.5615  0.6568
  643MOL0     C88624   9.441   3.402   3.385 -0.3468 -0.2048  0.0753
  643MOL0     C88625   9.577   3.335   3.590 -0.8775 -0.8866  0.5772
  643MOL0     C88626   9.464   3.325   3.684 -0.1431 -0.3726  0.2444
  643MOL0     O88627   9.477   3.234   3.787 -0.1765 -0.0902 -0.1233
  643MOL0     C88628   9.381   3.229   3.884  0.0340  0.0461 -0.7863
  643MOL0     C88629   9.412   3.227   4.020 -1.2330  0.7217  0.6121
  643MOL0     C88630   9.318   3.217   4.119  0.4252  0.9620 -0.3599
  643MOL0     C88631   9.187   3.203   4.089 -0.1955 -0.3714  1.0969
  643MOL0     O88632   9.103   3.211   4.194  0.2461  0.4350 -0.0153
  643MOL0     C88633   8.962   3.190   4.180 -0.1263  0.0061  0.0184
  643MOL0     C88634   8.922   3.038   4.159 -0.2242  0.8324 -0.9113
  643MOL0     C88635   8.781   3.003   4.207  0.3245 -0.0152  0.3541
  643MOL0     C88636   8.682   3.020   4.097 -0.5443  0.2475  0.4758
  643MOL0     C88637   8.536   3.014   4.130 -0.1945  0.2311 -0.7760
  643MOL0     C88638   8.493   2.874   4.201  0.1329  0.2129 -1.0035
  643MOL0     C88639   8.337   2.865   4.203 -0.0783  0.4115  0.5783
  643MOL0     C88640   8.296   2.735   4.291 -1.2198  0.3122 -0.2827
  643MOL0    Cl88641   8.378   2.745   4.449 -0.2421 -0.2996  0.1473
  643MOL0     C88642   9.141   3.190   3.953  0.2228  0.2898  1.0507
  643MOL0     C88643   9.247   3.205   3.854  0.5780 -0.3396 -0.3933
  643MOL0     O88644   9.367   3.400   3.667 -0.6121 -1.3639 -0.5971
  643MOL0     C88645   9.702   3.332   3.650  0.3850  0.1576  0.2243
  643MOL0     C88646   9.817   3.338   3.577  0.9021 -0.7801 -0.2099
  643MOL0     N88647  10.252   3.822   3.067 -0.4875  0.4393 -0.3816
  643MOL0     N88648  10.235   3.953   3.048 -0.3994 -0.3301  0.1069
  643MOL0     C88649   9.484   4.845   3.135 -0.2013 -0.1491  0.1893
  643MOL0     C88650   9.419   4.971   3.152 -0.1679  0.3943  0.2487
  643MOL0     C88651   9.363   5.430   3.261 -0.4785 -0.5969 -0.2512
  643MOL0     C88652   9.296   5.505   3.369 -0.0502  0.1619  0.8979
  643MOL0     C88653   9.241   5.631   3.365  0.8818 -0.0265 -0.2897
  643MOL0     C88654   9.243   5.697   3.243  0.5089  0.7710  0.7124
  643MOL0     O88655   9.178   5.821   3.238 -0.0387  0.4492 -0.4032
  643MOL0     C88656   9.208   5.917   3.140 -0.7274  0.4517  0.0955
  643MOL0     C88657   9.186   6.063   3.180  0.3320  0.2236  0.4534
  643MOL0     C88658   9.189   6.155   3.054 -0.0737  0.2197 -0.0099
  643MOL0     C88659   9.180   6.298   3.081  0.3699 -0.1275  0.0701
  643MOL0     C88660   9.298   6.363   3.057 -0.4886 -0.4483  0.6339
  643MOL0     C88661   9.408   6.420   3.071  0.6981 -0.3658 -0.5925
  643MOL0     C88662   9.325   5.638   3.137  0.4462  0.2342 -0.9425
  643MOL0     C88663   9.383   5.506   3.143 -0.9065  0.1456  0.2207
  643MOL0     C88664   9.473   5.459   3.032  0.6906  0.5965 -0.9483
  643MOL0     H88665   9.655   5.148   3.324  2.0019 -2.0692  0.7832
  643MOL0     H88666   9.757   4.898   3.323  0.5629 -1.8194 -2.2671
  643MOL0     H88667   9.552   4.544   3.154 -2.0957  2.7052 -1.5136
  643MOL0     H88668   9.496   4.637   3.299  0.6178  1.6525  0.2553
  643MOL0     H88669   9.682   4.567   3.421  0.5158  0.3182 -1.1885
  643MOL0     H88670   9.573   4.430   3.361 -2.7923  2.6037  2.2860
  643MOL0     H88671   9.762   4.381   3.190  3.0084 -3.1650  0.9968
  643MOL0     H88672   9.851   4.530   3.261  0.0432 -0.2094  0.6755
  643MOL0     H88673   9.845   4.375   3.469 -3.0891 -2.2226  0.9557
  643MOL0     H88674   9.782   4.256   3.357 -1.6752  1.9834  1.0573
  643MOL0     H88675  10.053   4.399   3.303 -0.9258  0.1570 -1.8814
  643MOL0     H88676   9.979   4.296   3.198 -0.9898  4.7560 -0.5684
  643MOL0     H88677  10.067   4.231   3.486 -1.7462  1.2797 -1.7453
  643MOL0     H88678  10.007   4.107   3.369 -0.4822 -0.9296 -1.0904
  643MOL0     H88679  10.255   4.106   3.402 -0.2080  1.1057  1.7354
  643MOL0     H88680  10.282   4.269   3.346 -0.3333 -0.7118  0.8946
  643MOL0     H88681  10.162   4.198   3.125  1.3302  0.8604 -1.3177
  643MOL0     H88682  10.332   4.164   3.154 -0.6348  0.4445 -2.0588
  643MOL0     H88683  10.180   3.894   3.367 -0.0616 -1.6567 -0.2371
  643MOL0     H88684  10.332   3.635   3.311  0.4474  1.1428 -1.1062
  643MOL0     H88685  10.286   3.583   3.150  3.0346  2.3952 -0.4533
  643MOL0     H88686  10.114   3.643   3.401 -0.0701  0.8823 -0.9222
  643MOL0     H88687  10.037   3.571   3.255 -0.2502  0.5045 -0.2714
  643MOL0     H88688  10.183   3.362   3.279 -0.7471 -0.7718  1.8231
  643MOL0     H88689  10.252   3.445   3.421 -0.1174 -0.1523  1.2943
  643MOL0     H88690  10.073   3.270   3.483  0.4719 -0.3259  1.7130
  643MOL0     H88691  10.061   3.433   3.532 -0.2285  1.9525 -2.1170
  643MOL0     H88692   9.681   3.402   3.267 -0.1733  0.6125  1.4053
  643MOL0     H88693   9.454   3.445   3.286 -3.4342  1.5752  0.3094
  643MOL0     H88694   9.393   3.481   3.444  0.1653 -0.7184  1.2202
  643MOL0     H88695   9.368   3.321   3.381  0.1837 -0.6301 -2.2597
  643MOL0     H88696   9.510   3.252   4.059 -1.2897 -0.5944  1.6787
  643MOL0     H88697   9.349   3.240   4.221  1.4308  1.8966 -0.8481
  643MOL0     H88698   8.924   3.231   4.274  2.7072  0.8426  0.8940
  643MOL0     H88699   8.915   3.240   4.095 -0.1003 -3.7245 -2.4552
  643MOL0     H88700   8.930   3.015   4.052  1.4795  0.8157 -0.8213
  643MOL0     H88701   9.000   2.986   4.215  1.6861  3.9190 -0.4366
  643MOL0     H88702   8.752   3.055   4.299 -2.5044 -3.8639  1.8880
  643MOL0     H88703   8.792   2.899   4.239 -2.7134 -0.2207  1.0679
  643MOL0     H88704   8.706   2.938   4.029 -1.5137  1.7285 -1.7708
  643MOL0     H88705   8.703   3.103   4.029 -2.6033 -2.3260 -3.7670
  643MOL0     H88706   8.498   3.088   4.201 -0.9914 -1.6381  0.8474
  643MOL0     H88707   8.481   3.037   4.038 -1.8609  1.6735  0.5134
  643MOL0     H88708   8.524   2.878   4.306 -0.8788 -2.3496 -0.5439
  643MOL0     H88709   8.547   2.790   4.157 -0.3832 -3.0349  3.8197
  643MOL0     H88710   8.288   2.858   4.106 -0.0549 -0.4155  0.6239
  643MOL0     H88711   8.294   2.957   4.245 -1.2881  1.0947 -1.9822
  643MOL0     H88712   8.332   2.643   4.244  0.0174  1.9464 -2.7667
  643MOL0     H88713   8.188   2.721   4.301 -1.2275 -1.4956 -2.2805
  643MOL0     H88714   9.036   3.183   3.927 -0.3991  2.7448  2.5395
  643MOL0     H88715   9.232   3.200   3.747 -0.9076 -0.6230 -0.2011
  643MOL0     H88716   9.711   3.305   3.754 -3.2865  2.4781  1.3418
  643MOL0     H88717   9.911   3.332   3.631  1.5241  0.6165 -1.0886
  643MOL0     H88718   9.438   4.769   3.072  1.3545  0.7376 -2.1474
  643MOL0     H88719   9.316   4.986   3.121 -0.4321 -1.3846  0.1680
  643MOL0     H88720   9.277   5.457   3.464 -1.9612 -0.3367  0.3093
  643MOL0     H88721   9.204   5.668   3.461  2.3842  0.7136  0.0347
  643MOL0     H88722   9.312   5.913   3.106 -0.5701  0.7078  0.5362
  643MOL0     H88723   9.144   5.899   3.054 -1.0262 -1.3787  0.6696
  643MOL0     H88724   9.265   6.111   3.238 -0.7097  0.7426  1.4963
  643MOL0     H88725   9.091   6.081   3.232 -0.0549  1.8628 -0.7302
  643MOL0     H88726   9.280   6.131   2.998  1.1794  1.6993  1.3218
  643MOL0     H88727   9.104   6.129   2.990  0.0473  1.1397 -0.5645
  643MOL0     H88728   9.152   6.308   3.186 -1.4877  2.5019 -0.5828
  643MOL0     H88729   9.095   6.342   3.028 -0.8728 -2.5004 -0.0877
  643MOL0     H88730   9.499   6.473   3.089  0.6166 -0.0745 -1.0425
  643MOL0     H88731   9.341   5.697   3.047  0.5954 -0.0357 -1.0912
  643MOL0     H88732   9.527   5.537   2.978  4.4526 -0.1335  1.3557
  643MOL0     H88733   9.557   5.413   3.085  1.8225  1.9877 -1.4833
  643MOL0     H88734   9.419   5.382   2.975 -1.4392  3.1484 -2.6452
  644MOL0     O88735   6.811   0.772  11.433 -0.5583 -0.6597  0.1710
  644MOL0     C88736   6.843   0.867  11.357 -0.6141  1.3477  0.2699
  644MOL0     O88737   6.937   0.959  11.392  0.7712  0.2873 -0.0043
  644MOL0     C88738   7.001   0.925  11.510  0.2722 -0.8616 -0.1892
  644MOL0     C88739   7.080   0.821  11.525 -0.2157 -0.3385 -0.2403
  644MOL0     C88740   7.163   0.819  11.638  0.4278 -0.5397  0.9621
  644MOL0     C88741   7.148   0.919  11.740 -0.0704  0.3121  0.9424
  644MOL0     O88742   7.207   0.902  11.860  0.4359  0.0522 -0.8869
  644MOL0     C88743   7.162   0.790  11.933 -0.7034  0.4341 -0.4973
  644MOL0     C88744   7.234   0.774  12.065 -0.0175 -0.1092 -0.6109
  644MOL0     C88745   7.392   0.741  12.049 -0.6985 -0.0257 -0.4261
  644MOL0     C88746   7.419   0.583  12.008 -0.8571 -0.9206  0.0630
  644MOL0     C88747   7.547   0.584  11.928  0.1266  1.1933  0.7812
  644MOL0     C88748   7.673   0.611  12.011 -0.3414  0.3367 -0.0837
  644MOL0     C88749   7.796   0.678  11.928 -0.0336  0.4025 -0.6807
  644MOL0     C88750   7.786   0.829  11.907  0.7091 -0.9782  0.5355
  644MOL0     N88751   7.907   0.888  11.845 -0.8191  0.2433  0.5850
  644MOL0     C88752   7.964   1.008  11.872  0.0233  0.1197 -0.0817
  644MOL0     C88753   8.052   1.035  11.778  0.1228  1.1960  0.1368
  644MOL0     C88754   8.140   1.145  11.776  0.3876  0.2594  0.5935
  644MOL0     C88755   8.113   1.247  11.661  0.4416  0.0479  0.4120
  644MOL0     C88756   8.180   1.381  11.671 -0.3458  0.1969  0.1719
  644MOL0     C88757   8.161   1.472  11.795  0.4565  0.2713 -0.7232
  644MOL0     O88758   8.041   1.443  11.876 -0.9845  0.0023  0.6601
  644MOL0     C88759   7.920   1.482  11.817  0.0956 -0.3730  0.1293
  644MOL0     C88760   7.908   1.560  11.701 -0.8016  0.1510 -0.4307
  644MOL0     C88761   7.784   1.587  11.649 -0.7164 -0.5292  0.8580
  644MOL0     C88762   7.759   1.668  11.518  0.0420 -0.1731 -0.0863
  644MOL0     C88763   7.672   1.532  11.713  0.1201 -0.0733  0.2273
  644MOL0     C88764   7.536   1.547  11.658  0.1359  0.4585 -0.5027
  644MOL0     O88765   7.449   1.442  11.693  0.2705  0.5133 -0.5990
  644MOL0     C88766   7.342   1.438  11.606  0.2340  0.4353 -0.5997
  644MOL0     C88767   7.324   1.333  11.519 -0.4712 -0.6718  0.2890
  644MOL0     C88768   7.202   1.308  11.456  0.5214 -0.0866 -0.1029
  644MOL0     C88769   7.101   1.399  11.469  0.6063  1.4609 -0.1195
  644MOL0     O88770   6.978   1.379  11.401  0.1645 -0.5163 -0.7563
  644MOL0     C88771   6.989   1.365  11.257  0.5291 -1.4840  0.6739
  644MOL0     C88772   6.884   1.454  11.192  0.3948 -0.2738 -1.4356
  644MOL0     C88773   6.871   1.462  11.035  0.4232  0.2041 -0.3730
  644MOL0     C88774   6.738   1.541  11.000 -0.2169  0.6623 -0.2661
  644MOL0     C88775   6.724   1.551  10.853  0.4472  1.5171  0.8557
  644MOL0     C88776   6.654   1.677  10.812 -0.1865  0.4165  0.2167
  644MOL0     C88777   6.509   1.683  10.864 -0.6851  0.7896 -0.6058
  644MOL0     C88778   6.416   1.787  10.792  0.3065  0.5277  0.2066
  644MOL0    Cl88779   6.471   1.961  10.802  0.0213  0.3917 -0.0662
  644MOL0     C88780   7.113   1.511  11.548  0.2259  0.1375  0.2629
  644MOL0     C88781   7.225   1.527  11.617  0.1650 -0.1783  1.8622
  644MOL0     O88782   7.504   1.659  11.608  0.3230  0.2124 -0.5446
  644MOL0     C88783   7.688   1.465  11.837 -0.2330  1.0937  0.5299
  644MOL0     C88784   7.818   1.441  11.888 -0.3098 -0.0553 -0.3930
  644MOL0     N88785   8.055   0.931  11.687  0.4252 -0.2765 -0.4542
  644MOL0     N88786   7.967   0.838  11.735 -0.3677 -0.4848 -0.2246
  644MOL0     C88787   7.058   1.023  11.723 -0.2395 -0.1796  1.2757
  644MOL0     C88788   6.984   1.025  11.604 -0.7378 -0.5412  0.0315
  644MOL0     C88789   6.763   0.887  11.241  0.0793  0.4385 -0.4961
  644MOL0     C88790   6.678   1.000  11.256 -0.0747 -0.2013  0.5378
  644MOL0     C88791   6.593   1.034  11.150 -0.4771  0.7036  0.4281
  644MOL0     C88792   6.585   0.948  11.042  1.3003 -0.6412 -1.2340
  644MOL0     O88793   6.491   0.981  10.948 -0.5536 -0.7084  1.4113
  644MOL0     C88794   6.476   0.906  10.825  0.3761  1.2649  0.5001
  644MOL0     C88795   6.399   0.983  10.712  0.9904 -0.0578 -0.8658
  644MOL0     C88796   6.475   1.117  10.683 -0.0798 -0.0874 -0.2815
  644MOL0     C88797   6.445   1.183  10.542 -0.7040 -0.4613 -0.0894
  644MOL0     C88798   6.346   1.292  10.555  0.2905  0.3118  0.2779
  644MOL0     C88799   6.255   1.370  10.564  0.2958  0.2932  0.1007
  644MOL0     C88800   6.662   0.828  11.035  0.8184  0.2066  0.5386
  644MOL0     C88801   6.759   0.801  11.134  0.2569 -0.3275 -0.5403
  644MOL0     C88802   6.863   0.690  11.112  0.2747 -0.3417 -0.3570
  644MOL0     H88803   7.076   0.740  11.452  0.5244  0.5216 -1.2541
  644MOL0     H88804   7.229   0.737  11.667 -0.3486 -1.5531 -0.0826
  644MOL0     H88805   7.170   0.694  11.883 -0.9087 -0.2333  0.7084
  644MOL0     H88806   7.055   0.793  11.957 -0.2340  2.4867  1.7664
  644MOL0     H88807   7.199   0.860  12.124 -0.4164 -0.1840 -0.7358
  644MOL0     H88808   7.192   0.693  12.126  1.4338 -1.8864 -1.8845
  644MOL0     H88809   7.439   0.809  11.977  2.2017  0.7340  2.0172
  644MOL0     H88810   7.445   0.765  12.141 -1.8469 -1.2267  0.5971
  644MOL0     H88811   7.433   0.524  12.099 -3.2958 -0.3886  0.8477
  644MOL0     H88812   7.343   0.538  11.943 -1.2459 -1.2296  0.7237
  644MOL0     H88813   7.535   0.667  11.857  0.4343  0.4940 -0.1070
  644MOL0     H88814   7.554   0.492  11.870 -1.2992  0.9305  0.9804
  644MOL0     H88815   7.659   0.680  12.095  1.4321  1.2253 -0.4720
  644MOL0     H88816   7.702   0.518  12.061  0.6164  1.1530  0.9209
  644MOL0     H88817   7.810   0.623  11.834 -0.6290 -0.1898 -0.4376
  644MOL0     H88818   7.887   0.664  11.987  1.2256  1.3419 -2.3084
  644MOL0     H88819   7.717   0.852  11.825  2.0370  1.3420 -0.0278
  644MOL0     H88820   7.770   0.876  12.004  1.5474 -4.3125  2.4272
  644MOL0     H88821   7.942   1.068  11.959  0.7349 -1.7428  1.4390
  644MOL0     H88822   8.240   1.101  11.780 -0.8256 -3.2210 -2.1850
  644MOL0     H88823   8.109   1.210  11.859 -2.8537 -1.0258  0.5359
  644MOL0     H88824   8.149   1.194  11.573 -0.1788 -1.0733  0.8247
  644MOL0     H88825   8.008   1.274  11.650  0.8806  2.9640  2.1531
  644MOL0     H88826   8.288   1.365  11.664 -0.3425  0.9872 -2.8634
  644MOL0     H88827   8.158   1.440  11.582 -1.1153  0.5191  0.5662
  644MOL0     H88828   8.250   1.454  11.857 -0.6393 -0.3569  0.7344
  644MOL0     H88829   8.177   1.574  11.760 -1.2062  0.9539  0.3592
  644MOL0     H88830   7.993   1.605  11.649 -1.6434  0.2605 -1.7637
  644MOL0     H88831   7.707   1.615  11.437  1.4182 -0.1185 -1.0434
  644MOL0     H88832   7.855   1.702  11.478  0.0874  1.3308  1.2205
  644MOL0     H88833   7.699   1.756  11.541 -1.9517 -1.8089  1.3184
  644MOL0     H88834   7.403   1.260  11.505  0.9768  0.7589  0.6791
  644MOL0     H88835   7.180   1.223  11.392  3.0488 -2.7207  2.2880
  644MOL0     H88836   7.085   1.408  11.227 -0.7898  2.2881  1.2335
  644MOL0     H88837   6.976   1.265  11.216 -2.7236 -0.3914 -1.4144
  644MOL0     H88838   6.796   1.407  11.236  1.7853 -3.9997 -2.2318
  644MOL0     H88839   6.885   1.554  11.237 -3.0523  0.3431 -2.4387
  644MOL0     H88840   6.875   1.364  10.989 -0.8357  1.4568 -3.3907
  644MOL0     H88841   6.949   1.524  10.990 -2.4087  1.7716 -3.5498
  644MOL0     H88842   6.745   1.644  11.036 -1.1480  0.9922 -0.9844
  644MOL0     H88843   6.648   1.492  11.038 -1.3709  1.2422 -2.0833
  644MOL0     H88844   6.817   1.534  10.797 -1.2091  0.3493 -1.7172
  644MOL0     H88845   6.663   1.467  10.817  0.5552  1.6837  0.2758
  644MOL0     H88846   6.647   1.674  10.703 -0.0813  3.3074  0.0489
  644MOL0     H88847   6.719   1.755  10.851 -1.6108  0.3926  2.9114
  644MOL0     H88848   6.500   1.705  10.971 -0.7197 -0.0650 -0.4234
  644MOL0     H88849   6.469   1.582  10.859 -2.9888  1.4444  2.0910
  644MOL0     H88850   6.314   1.794  10.831 -0.5018  0.5596 -1.8050
  644MOL0     H88851   6.399   1.753  10.690 -1.8858  1.0652  0.3360
  644MOL0     H88852   7.019   1.566  11.558 -1.1242 -1.5186 -2.2916
  644MOL0     H88853   7.229   1.616  11.678  2.2080  1.2541 -0.1947
  644MOL0     H88854   7.603   1.425  11.891 -1.1630 -0.4832 -1.9186
  644MOL0     H88855   7.821   1.388  11.983  0.7828  1.7217  0.6244
  644MOL0     H88856   7.059   1.098  11.801  1.4157  2.8886 -1.4326
  644MOL0     H88857   6.916   1.104  11.571 -1.6521 -2.3184 -2.6971
  644MOL0     H88858   6.686   1.067  11.341 -0.7465  0.5339  0.0434
  644MOL0     H88859   6.529   1.119  11.168 -1.9334 -0.8876  3.5834
  644MOL0     H88860   6.567   0.875  10.773  1.4724  0.3483  2.8435
  644MOL0     H88861   6.417   0.817  10.849  0.9393  1.1713  1.5681
  644MOL0     H88862   6.296   1.009  10.740  0.5128 -3.2229  0.8259
  644MOL0     H88863   6.395   0.913  10.627  2.9996 -2.7101  1.0526
  644MOL0     H88864   6.471   1.186  10.768  0.3528  0.4259 -0.6658
  644MOL0     H88865   6.578   1.085  10.669  0.1466  0.8644 -0.9406
  644MOL0     H88866   6.409   1.103  10.476 -3.2098  2.0702 -2.0336
  644MOL0     H88867   6.541   1.218  10.501  0.6324 -1.4968  1.9745
  644MOL0     H88868   6.172   1.434  10.588 -2.6861 -2.4135 -2.1586
  644MOL0     H88869   6.655   0.765  10.947  2.3957 -1.2131  1.3775
  644MOL0     H88870   6.958   0.726  11.151 -0.7464  1.1865  0.8568
  644MOL0     H88871   6.833   0.601  11.166  0.2836  0.5532  1.1777
  644MOL0     H88872   6.869   0.663  11.006  0.0944 -0.0790 -0.4367
  645MOL0     O88873   9.707   4.268   1.820 -0.5691  0.3342 -0.7733
  645MOL0     C88874   9.729   4.187   1.725 -0.1965 -0.5323 -1.1046
  645MOL0     O88875   9.630   4.134   1.639  0.5347 -0.4803  0.0254
  645MOL0     C88876   9.504   4.200   1.638  0.2851 -0.4764 -0.0039
  645MOL0     C88877   9.400   4.112   1.633 -0.2098 -0.5441 -0.4208
  645MOL0     C88878   9.270   4.159   1.641 -0.3913 -0.0287  0.0744
  645MOL0     C88879   9.243   4.298   1.641 -0.6565  0.5840  0.2337
  645MOL0     O88880   9.113   4.346   1.645  0.5637  0.3788 -0.2285
  645MOL0     C88881   9.013   4.301   1.555 -0.9833  0.2601  0.9564
  645MOL0     C88882   9.030   4.369   1.421 -0.6173  0.1537  0.4801
  645MOL0     C88883   8.995   4.519   1.417  0.2400  0.4224 -0.0380
  645MOL0     C88884   9.087   4.579   1.297  0.5146 -0.5176  0.5873
  645MOL0     C88885   9.096   4.733   1.299  0.3569 -0.2654 -0.5538
  645MOL0     C88886   8.949   4.784   1.291 -0.6720 -0.2506  0.1423
  645MOL0     C88887   8.958   4.936   1.318 -0.0857  0.5698  0.0824
  645MOL0     C88888   9.024   5.008   1.199 -0.2794 -0.4653  0.1366
  645MOL0     N88889   8.975   5.148   1.177 -0.2740 -0.2043 -0.1687
  645MOL0     C88890   8.989   5.255   1.256 -0.2812 -0.0335  0.5472
  645MOL0     C88891   8.924   5.358   1.193 -0.0440 -0.4558  0.9357
  645MOL0     C88892   8.908   5.499   1.242 -0.1989 -0.3305 -0.1297
  645MOL0     C88893   9.009   5.550   1.344  0.3584 -0.2924  0.1204
  645MOL0     C88894   9.159   5.552   1.289 -0.0504  0.7249  1.2407
  645MOL0     C88895   9.263   5.561   1.413 -0.1880  0.5515 -0.0089
  645MOL0     O88896   9.235   5.466   1.513  0.2114  0.5619 -0.0258
  645MOL0     C88897   9.287   5.342   1.495 -0.1048  0.7848 -0.2497
  645MOL0     C88898   9.278   5.257   1.603  0.2648 -0.5210 -0.3409
  645MOL0     C88899   9.338   5.130   1.602 -0.3884  0.0122  0.1454
  645MOL0     C88900   9.305   5.038   1.721 -0.6700 -0.1290 -0.0850
  645MOL0     C88901   9.400   5.086   1.482 -0.0151  0.7825  0.3274
  645MOL0     C88902   9.455   4.949   1.467 -0.1649 -0.1581 -0.2267
  645MOL0     O88903   9.450   4.893   1.338  0.3865  0.5553  0.1370
  645MOL0     C88904   9.537   4.786   1.322  0.1528  0.2496  0.9459
  645MOL0     C88905   9.670   4.807   1.275  0.5361 -0.0438 -0.1669
  645MOL0     C88906   9.767   4.698   1.270  1.0816  0.0518 -1.4737
  645MOL0     C88907   9.727   4.569   1.324 -0.3158  0.9467  0.3978
  645MOL0     O88908   9.815   4.471   1.327 -0.1681  0.5962  0.0392
  645MOL0     C88909   9.856   4.429   1.458 -0.0018 -0.5264 -0.4313
  645MOL0     C88910   9.995   4.477   1.491 -0.3521 -0.9440  0.5681
  645MOL0     C88911  10.109   4.408   1.415  0.6163  1.0042 -1.0043
  645MOL0     C88912  10.241   4.473   1.432 -0.1214  0.2466  0.3671
  645MOL0     C88913  10.359   4.404   1.357 -0.9016 -1.0281 -0.0922
  645MOL0     C88914  10.480   4.495   1.357  0.9318  0.2170 -0.5194
  645MOL0     C88915  10.466   4.613   1.260  1.3071 -1.1133  0.7496
  645MOL0     C88916  10.419   4.566   1.119 -0.7446 -0.2644 -0.4641
  645MOL0    Cl88917  10.411   4.702   1.009  0.2770  0.3695  0.1835
  645MOL0     C88918   9.595   4.550   1.361  0.0889  0.0933 -0.1391
  645MOL0     C88919   9.501   4.658   1.364  1.0046  0.0228  0.0494
  645MOL0     O88920   9.496   4.890   1.565 -0.1104  0.1959  0.2627
  645MOL0     C88921   9.396   5.166   1.368  0.1511 -0.7268 -0.1294
  645MOL0     C88922   9.349   5.294   1.384  0.5640  1.1580 -0.6170
  645MOL0     N88923   8.859   5.304   1.080  0.0592  0.7774  0.2389
  645MOL0     N88924   8.889   5.174   1.072  0.4703 -0.3691  0.3738
  645MOL0     C88925   9.349   4.383   1.619 -0.1591 -0.6897  0.2246
  645MOL0     C88926   9.483   4.336   1.635  0.9090  0.7355 -0.2889
  645MOL0     C88927   9.875   4.157   1.698  0.9347 -0.3835 -0.7740
  645MOL0     C88928   9.913   4.053   1.617 -0.2388 -0.2365 -0.2366
  645MOL0     C88929  10.045   4.028   1.589 -0.0499 -0.2121  0.1148
  645MOL0     C88930  10.149   4.101   1.647 -0.9789 -0.5272 -0.2455
  645MOL0     O88931  10.285   4.084   1.645 -0.0318  0.3148 -0.2342
  645MOL0     C88932  10.335   4.015   1.534 -0.4543 -0.4754 -0.2520
  645MOL0     C88933  10.484   4.012   1.538  0.2389  1.3655  0.6722
  645MOL0     C88934  10.546   4.149   1.547 -0.1635 -0.3837 -1.1560
  645MOL0     C88935  10.697   4.161   1.588  0.1571  0.1657 -0.1682
  645MOL0     C88936  10.722   4.096   1.722 -0.1924  0.2050  0.4396
  645MOL0     C88937  10.759   4.036   1.815  0.1141  0.3132  0.3353
  645MOL0     C88938  10.112   4.199   1.736  0.5299 -0.2223 -0.1871
  645MOL0     C88939   9.982   4.236   1.758  0.9785  0.3457 -0.7339
  645MOL0     C88940   9.974   4.360   1.855  0.5555 -0.3846 -0.7689
  645MOL0     H88941   9.420   4.006   1.632  0.5383 -0.4085 -1.2327
  645MOL0     H88942   9.182   4.097   1.645  0.3040 -1.0813 -0.6022
  645MOL0     H88943   8.911   4.327   1.584 -2.6017 -2.3509 -1.7897
  645MOL0     H88944   9.013   4.192   1.550  5.9777 -0.1782  0.6101
  645MOL0     H88945   9.133   4.346   1.394 -0.4838  0.8190  0.4039
  645MOL0     H88946   8.981   4.305   1.346 -0.2262 -2.2724  2.1618
  645MOL0     H88947   8.888   4.531   1.400  0.5607  0.2942 -2.3597
  645MOL0     H88948   9.007   4.576   1.510 -3.6987  4.0546 -1.4081
  645MOL0     H88949   9.188   4.537   1.304  1.2286  1.1456  0.5548
  645MOL0     H88950   9.044   4.552   1.200  2.1949  3.3991 -1.4686
  645MOL0     H88951   9.152   4.763   1.209  1.9172  2.4240  1.1860
  645MOL0     H88952   9.134   4.773   1.393 -3.8558 -1.1147  1.7596
  645MOL0     H88953   8.914   4.768   1.189  1.6127  1.3840 -0.9900
  645MOL0     H88954   8.882   4.737   1.363 -2.3489 -0.5452 -1.5260
  645MOL0     H88955   9.011   4.955   1.412  1.9748  1.7417 -1.2344
  645MOL0     H88956   8.856   4.974   1.323 -0.0668  0.6687 -0.2698
  645MOL0     H88957   9.133   5.002   1.206 -0.0525  2.4832  0.3963
  645MOL0     H88958   8.997   4.957   1.106 -2.4649 -1.0958  1.0298
  645MOL0     H88959   9.041   5.261   1.351  0.1898  1.2166  0.2219
  645MOL0     H88960   8.808   5.528   1.277 -0.1113  0.4725 -0.5226
  645MOL0     H88961   8.915   5.571   1.160  0.5386  0.4441  0.5854
  645MOL0     H88962   8.983   5.649   1.381  0.5439 -0.2146  0.0430
  645MOL0     H88963   9.005   5.488   1.434  3.0409 -0.3852  0.2517
  645MOL0     H88964   9.179   5.454   1.245 -1.1046  0.4256  1.4043
  645MOL0     H88965   9.170   5.629   1.212  1.9639 -1.4231 -0.7527
  645MOL0     H88966   9.362   5.541   1.371 -1.4182 -1.5922 -2.1038
  645MOL0     H88967   9.230   5.654   1.461 -2.1432 -0.5788  0.9484
  645MOL0     H88968   9.219   5.289   1.688  0.7485 -2.3801  0.7540
  645MOL0     H88969   9.254   4.945   1.695  2.6750 -2.6970  1.7564
  645MOL0     H88970   9.251   5.103   1.791  0.5527  0.4866  0.3115
  645MOL0     H88971   9.399   5.014   1.771 -1.3175  0.8722  1.6915
  645MOL0     H88972   9.700   4.904   1.236  1.3135 -1.2223 -2.7135
  645MOL0     H88973   9.862   4.708   1.219  1.9142 -0.3305 -0.0485
  645MOL0     H88974   9.781   4.464   1.530  0.7587 -0.3313  0.2844
  645MOL0     H88975   9.863   4.320   1.462  2.5450 -0.4168 -0.4869
  645MOL0     H88976  10.004   4.582   1.463  0.4960 -1.1511  0.0252
  645MOL0     H88977  10.017   4.469   1.597 -1.9965 -1.4246  0.9117
  645MOL0     H88978  10.077   4.409   1.310 -3.3628 -0.1940  0.0457
  645MOL0     H88979  10.124   4.304   1.442  1.7865  1.5888  0.7564
  645MOL0     H88980  10.268   4.484   1.537 -1.0097  3.3695  0.3717
  645MOL0     H88981  10.239   4.577   1.400 -1.4243 -0.3580 -1.7117
  645MOL0     H88982  10.379   4.310   1.409 -1.5512 -1.8881 -1.3214
  645MOL0     H88983  10.325   4.371   1.258  0.7127 -0.1523 -0.9811
  645MOL0     H88984  10.571   4.440   1.328  1.3227  1.7835 -2.4568
  645MOL0     H88985  10.491   4.531   1.460 -0.2064 -1.9900  0.4387
  645MOL0     H88986  10.565   4.657   1.241  1.2473 -2.7497 -5.2908
  645MOL0     H88987  10.409   4.699   1.296 -1.3544 -1.9810 -1.1475
  645MOL0     H88988  10.314   4.536   1.128 -0.7664  0.2546  1.4412
  645MOL0     H88989  10.491   4.489   1.089  2.6388  2.0190  1.1238
  645MOL0     H88990   9.568   4.447   1.384  1.8085 -0.7430 -1.6261
  645MOL0     H88991   9.402   4.631   1.397  0.9217  1.5500  1.1694
  645MOL0     H88992   9.433   5.143   1.269  0.3161  2.0016 -0.7784
  645MOL0     H88993   9.349   5.356   1.295 -1.6157  3.0545  0.5962
  645MOL0     H88994   9.329   4.489   1.618 -1.4407 -0.9243 -0.0819
  645MOL0     H88995   9.559   4.413   1.639 -1.1435  2.8431  1.7727
  645MOL0     H88996   9.835   3.998   1.567 -0.1766  0.8052 -1.5321
  645MOL0     H88997  10.066   3.954   1.512  1.2229 -1.0587  1.2301
  645MOL0     H88998  10.286   3.918   1.519 -0.9260 -0.2117 -0.4365
  645MOL0     H88999  10.307   4.069   1.444  1.7911  0.7251 -0.2887
  645MOL0     H89000  10.512   3.957   1.448  0.7279  4.0486 -0.9438
  645MOL0     H89001  10.518   3.948   1.620  3.0811 -0.3336 -1.6143
  645MOL0     H89002  10.549   4.186   1.444  1.3091 -0.7775 -1.2774
  645MOL0     H89003  10.493   4.224   1.606  1.1016 -1.6656  1.7970
  645MOL0     H89004  10.742   4.261   1.590  1.2345 -0.2746 -1.1778
  645MOL0     H89005  10.754   4.097   1.521  0.6839  0.3881  0.0613
  645MOL0     H89006  10.778   3.973   1.899  0.6213  2.3612  1.8482
  645MOL0     H89007  10.194   4.247   1.787 -1.7689  0.8798  2.7792
  645MOL0     H89008   9.931   4.448   1.807  2.3362  0.3928 -0.9971
  645MOL0     H89009   9.912   4.325   1.937  0.5333 -0.7901 -0.9550
  645MOL0     H89010  10.067   4.395   1.901 -0.1706  1.1459 -0.4124
  646MOL0     O89011   0.335   1.211   6.067 -0.1990 -0.5670 -0.2564
  646MOL0     C89012   0.351   1.235   6.186 -0.0531  0.5718 -0.5558
  646MOL0     O89013   0.427   1.338   6.242  0.3720 -0.6125  0.3085
  646MOL0     C89014   0.511   1.306   6.344 -0.1343 -0.3517  0.2221
  646MOL0     C89015   0.624   1.225   6.307  0.9293 -1.3597 -0.1802
  646MOL0     C89016   0.727   1.202   6.400  0.0466  0.0615 -0.3987
  646MOL0     C89017   0.710   1.260   6.521 -0.3789 -0.4354 -1.2321
  646MOL0     O89018   0.804   1.246   6.622  0.1237  0.1468 -0.7958
  646MOL0     C89019   0.889   1.131   6.614  0.0715  0.4319  0.9939
  646MOL0     C89020   0.984   1.142   6.733  0.7157  0.5611  0.7488
  646MOL0     C89021   0.918   1.143   6.879 -0.2295 -0.2237  0.0707
  646MOL0     C89022   0.885   1.004   6.911 -0.4984  0.6533 -0.9633
  646MOL0     C89023   0.816   0.996   7.051 -0.6244  0.1268 -0.1814
  646MOL0     C89024   0.794   0.849   7.088 -0.4447  0.3066 -0.8617
  646MOL0     C89025   0.684   0.835   7.203 -0.1097  0.6842 -0.5419
  646MOL0     C89026   0.640   0.689   7.228 -1.3561  0.1793 -0.9429
  646MOL0     N89027   0.499   0.671   7.278  0.2840  0.0272  0.7410
  646MOL0     C89028   0.459   0.565   7.350  0.3234 -0.4262 -0.9448
  646MOL0     C89029   0.319   0.575   7.361  2.0859  0.5989  0.5969
  646MOL0     C89030   0.222   0.460   7.413 -1.0848  0.2451 -0.4212
  646MOL0     C89031   0.117   0.517   7.520  0.6786 -0.8033  0.4402
  646MOL0     C89032   0.182   0.506   7.653  0.6424 -0.6259 -0.2250
  646MOL0     C89033   0.079   0.532   7.765 -0.0925 -0.1859  0.0859
  646MOL0     O89034   0.144   0.528   7.894 -0.0928 -0.5353 -0.4983
  646MOL0     C89035   0.179   0.645   7.959  0.4991  0.6351  0.0482
  646MOL0     C89036   0.247   0.641   8.083  0.3722 -0.2562 -0.8294
  646MOL0     C89037   0.289   0.757   8.148 -1.0491  0.1230 -0.0926
  646MOL0     C89038   0.362   0.733   8.282 -0.5766  0.7096  0.4425
  646MOL0     C89039   0.249   0.879   8.104 -0.3178 -0.1563  1.2667
  646MOL0     C89040   0.274   1.014   8.170 -0.3099 -1.2358 -0.2533
  646MOL0     O89041   0.221   1.128   8.102 -0.7514  0.1166 -0.7535
  646MOL0     C89042   0.284   1.243   8.099 -0.3237  0.7304 -0.0224
  646MOL0     C89043   0.417   1.267   8.052  0.3876 -0.2746  0.4840
  646MOL0     C89044   0.469   1.395   8.040 -0.0507 -0.0536  0.7014
  646MOL0     C89045   0.396   1.499   8.095  0.8258  0.5946  0.4743
  646MOL0     O89046   0.447   1.621   8.105  0.1556 -0.6892 -0.1443
  646MOL0     C89047   0.448   1.688   8.237  0.4347  0.3035  0.6030
  646MOL0     C89048   0.583   1.756   8.267  0.0005  0.5529 -0.3955
  646MOL0     C89049   0.629   1.844   8.153  0.0800 -0.5718 -1.4348
  646MOL0     C89050   0.757   1.920   8.199  0.1204  0.0191 -0.1556
  646MOL0     C89051   0.789   2.024   8.089  0.3535  0.2481  0.3955
  646MOL0     C89052   0.904   2.119   8.120 -0.8190 -0.5873 -0.5420
  646MOL0     C89053   0.909   2.240   8.022  0.1790 -0.1221 -0.7392
  646MOL0     C89054   1.038   2.322   8.050 -0.3702  0.0723 -0.4703
  646MOL0    Cl89055   1.055   2.449   7.933  0.0932 -0.1108 -0.1882
  646MOL0     C89056   0.270   1.473   8.151 -0.2199 -0.5200 -0.3787
  646MOL0     C89057   0.214   1.347   8.145  0.3640  0.2019  0.3532
  646MOL0     O89058   0.352   1.017   8.267  0.8409 -0.5566 -0.1177
  646MOL0     C89059   0.174   0.885   7.981  0.3923  0.4194  0.2157
  646MOL0     C89060   0.158   0.770   7.904  0.5046 -0.5020 -0.6056
  646MOL0     N89061   0.279   0.691   7.292 -0.5766 -0.2588 -0.4882
  646MOL0     N89062   0.386   0.754   7.257 -0.7736 -0.2772 -0.0287
  646MOL0     C89063   0.608   1.346   6.562  0.2244  0.7807 -0.0467
  646MOL0     C89064   0.506   1.372   6.464  0.2669 -0.3001 -0.6716
  646MOL0     C89065   0.293   1.132   6.282 -0.0655 -0.3418 -0.4593
  646MOL0     C89066   0.244   1.183   6.407  0.3969 -0.5341  0.0543
  646MOL0     C89067   0.188   1.096   6.500 -0.1311  0.2802  0.7193
  646MOL0     C89068   0.178   0.956   6.465 -1.4395  0.5741 -0.2033
  646MOL0     O89069   0.100   0.879   6.550  0.0743 -0.4162 -0.1301
  646MOL0     C89070   0.109   0.741   6.542  0.4681  0.8390 -0.6009
  646MOL0     C89071   0.236   0.690   6.612  1.0370  0.6081  0.4134
  646MOL0     C89072   0.234   0.539   6.600 -0.1734 -0.0089 -0.4537
  646MOL0     C89073   0.357   0.490   6.679 -0.4059  0.0771 -0.2658
  646MOL0     C89074   0.335   0.514   6.824  0.3137 -0.2989  0.4721
  646MOL0     C89075   0.305   0.554   6.932  0.1335 -0.1700  1.1449
  646MOL0     C89076   0.236   0.902   6.353  0.2781 -0.3712  0.9933
  646MOL0     C89077   0.301   0.992   6.266  0.7205  0.5212  0.4725
  646MOL0     C89078   0.371   0.935   6.146 -0.1789 -0.4998 -0.7590
  646MOL0     H89079   0.641   1.184   6.207 -1.6364 -1.1398 -0.7740
  646MOL0     H89080   0.814   1.148   6.364 -1.1925 -2.1811 -0.1489
  646MOL0     H89081   0.953   1.132   6.526 -0.4810 -1.1483  0.5451
  646MOL0     H89082   0.825   1.042   6.613 -0.3634  0.7192 -1.1528
  646MOL0     H89083   1.073   1.078   6.726  0.3262 -0.0704  1.4008
  646MOL0     H89084   1.028   1.242   6.732  4.1421 -0.8209  0.7073
  646MOL0     H89085   0.995   1.183   6.944  2.1001 -0.3913 -2.3953
  646MOL0     H89086   0.828   1.204   6.889  1.3793  2.4091 -0.4865
  646MOL0     H89087   0.826   0.957   6.832  1.9216 -3.7461 -0.4701
  646MOL0     H89088   0.971   0.937   6.920 -1.2410 -0.2130 -0.0178
  646MOL0     H89089   0.719   1.046   7.046  1.3626  4.4072 -1.0014
  646MOL0     H89090   0.877   1.055   7.120 -0.1265  0.4475 -0.8810
  646MOL0     H89091   0.758   0.797   6.998 -0.3026 -1.1248 -0.1202
  646MOL0     H89092   0.883   0.793   7.116 -1.3213 -0.2059  1.0560
  646MOL0     H89093   0.593   0.891   7.177  0.2521  0.9440 -1.2853
  646MOL0     H89094   0.717   0.886   7.294 -3.3543  0.0888  1.1210
  646MOL0     H89095   0.651   0.643   7.129  1.2620  1.5620 -1.3737
  646MOL0     H89096   0.706   0.636   7.297  0.2673  2.8873 -0.2848
  646MOL0     H89097   0.523   0.490   7.394 -1.2413  1.0051  4.4822
  646MOL0     H89098   0.281   0.387   7.468  1.1696  1.7815 -0.6508
  646MOL0     H89099   0.171   0.406   7.333 -3.6437  1.4259  0.2980
  646MOL0     H89100   0.086   0.620   7.500  1.4059 -0.8933 -1.3737
  646MOL0     H89101   0.027   0.456   7.513  0.8882 -1.1973  1.0746
  646MOL0     H89102   0.212   0.402   7.668 -2.8731 -1.5986  1.0053
  646MOL0     H89103   0.264   0.579   7.662  0.7404 -0.6312 -1.0298
  646MOL0     H89104   0.037   0.624   7.725 -1.4513 -1.3205 -1.2052
  646MOL0     H89105   0.001   0.456   7.766 -0.9270  0.6628  0.1869
  646MOL0     H89106   0.276   0.544   8.121  1.6265  0.0530 -0.9776
  646MOL0     H89107   0.292   0.748   8.364  0.9951  2.0749  1.6047
  646MOL0     H89108   0.451   0.797   8.276  0.3755 -0.6429 -0.7589
  646MOL0     H89109   0.394   0.629   8.286 -1.1764  0.5407  1.0147
  646MOL0     H89110   0.482   1.185   8.023 -0.5026  0.1429 -3.0891
  646MOL0     H89111   0.571   1.422   8.011  0.1341 -0.5478  0.8790
  646MOL0     H89112   0.377   1.770   8.224  0.0518 -0.4286 -3.2596
  646MOL0     H89113   0.428   1.622   8.322 -1.7038  0.9033  0.6089
  646MOL0     H89114   0.567   1.824   8.351  0.9901  1.8316 -1.2071
  646MOL0     H89115   0.660   1.687   8.305 -0.7128  0.7257  1.4834
  646MOL0     H89116   0.557   1.920   8.123  1.6966  1.0354 -1.4370
  646MOL0     H89117   0.643   1.786   8.061 -1.8814 -2.2383 -0.7501
  646MOL0     H89118   0.836   1.845   8.205 -0.5618 -0.6806  0.2924
  646MOL0     H89119   0.739   1.979   8.289  1.3692 -0.3446  0.3522
  646MOL0     H89120   0.806   1.981   7.990  5.0369  2.0470  0.1869
  646MOL0     H89121   0.702   2.090   8.090 -0.1092 -0.3565  0.9931
  646MOL0     H89122   1.001   2.067   8.121  1.3603  3.1366  1.3231
  646MOL0     H89123   0.896   2.153   8.223  2.0427 -1.6685  0.1267
  646MOL0     H89124   0.825   2.305   8.046  1.6636  1.2586  1.0160
  646MOL0     H89125   0.906   2.212   7.916  1.7267  0.3670 -0.9440
  646MOL0     H89126   1.129   2.267   8.025 -1.1565 -0.6909 -1.7685
  646MOL0     H89127   1.053   2.357   8.153 -3.5663 -0.8138  0.4394
  646MOL0     H89128   0.205   1.549   8.194 -0.1719 -0.0630 -1.1018
  646MOL0     H89129   0.115   1.328   8.186  0.0096 -4.9991 -2.0676
  646MOL0     H89130   0.147   0.978   7.932  1.1598 -0.9526 -3.0603
  646MOL0     H89131   0.120   0.785   7.803 -2.4449 -1.5376  0.2532
  646MOL0     H89132   0.610   1.386   6.663 -0.3145 -2.9460  1.6100
  646MOL0     H89133   0.419   1.425   6.503  0.1944 -0.8001 -0.1371
  646MOL0     H89134   0.234   1.289   6.427  1.0469  0.1855 -3.0006
  646MOL0     H89135   0.134   1.144   6.581  0.0743  2.6555 -0.4564
  646MOL0     H89136   0.026   0.697   6.599  2.8432 -0.2563  2.2338
  646MOL0     H89137   0.092   0.711   6.438 -3.1763  1.2795 -0.2732
  646MOL0     H89138   0.229   0.708   6.719  3.0533 -2.2461  1.1460
  646MOL0     H89139   0.323   0.747   6.577  0.8015  1.8812  1.8255
  646MOL0     H89140   0.134   0.507   6.633 -0.8256  0.7382 -1.6490
  646MOL0     H89141   0.241   0.505   6.496 -2.3349 -1.9439 -0.0695
  646MOL0     H89142   0.448   0.543   6.653  1.7287 -2.0868  2.2661
  646MOL0     H89143   0.374   0.384   6.657 -0.7256 -0.0807  0.2109
  646MOL0     H89144   0.307   0.608   7.025 -3.0546  1.2741  0.5159
  646MOL0     H89145   0.242   0.798   6.324  2.3657 -0.4210  1.4599
  646MOL0     H89146   0.374   0.827   6.163 -0.3814 -0.3145  0.6113
  646MOL0     H89147   0.318   0.959   6.053  2.4074  1.7340 -1.7946
  646MOL0     H89148   0.471   0.974   6.127 -1.7191  3.3733 -1.9965
  647MOL0     O89149   3.417   2.325   0.317 -0.0778  0.1489  0.1854
  647MOL0     C89150   3.452   2.381   0.207 -0.5935 -0.6121 -1.6680
  647MOL0     O89151   3.579   2.359   0.153 -0.0633 -0.6314  0.1696
  647MOL0     C89152   3.657   2.260   0.201  0.9413  0.3200  0.3850
  647MOL0     C89153   3.626   2.128   0.157  0.4173 -0.1219  0.5534
  647MOL0     C89154   3.707   2.021   0.201  0.5261 -0.2388  0.8035
  647MOL0     C89155   3.804   2.053   0.296  0.5362 -0.1555  0.1411
  647MOL0     O89156   3.872   1.945   0.350  0.0535 -0.0460 -0.7924
  647MOL0     C89157   3.864   1.811   0.291 -0.2291  0.3873 -1.0045
  647MOL0     C89158   3.950   1.709   0.365 -0.2535  0.5629 -0.4043
  647MOL0     C89159   3.958   1.565   0.295  0.2736 -0.0519 -0.1462
  647MOL0     C89160   4.052   1.472   0.368  0.2989  0.5008 -0.4264
  647MOL0     C89161   4.073   1.331   0.297  0.1418  0.3242  0.3140
  647MOL0     C89162   4.163   1.233   0.379 -0.3793  1.2021 -0.5321
  647MOL0     C89163   4.137   1.086   0.364  0.1692 -0.2038 -0.6390
  647MOL0     C89164   4.010   1.020   0.434 -0.2355 -0.3683  1.4263
  647MOL0     N89165   4.021   0.875   0.401  0.1955 -0.0588  0.0588
  647MOL0     C89166   4.053   0.779   0.492  0.1598  0.2245  0.5804
  647MOL0     C89167   4.065   0.668   0.419 -0.2877  0.5445 -0.3184
  647MOL0     C89168   4.138   0.547   0.483  0.1050  0.2591 -0.2251
  647MOL0     C89169   4.295   0.568   0.484  0.5758  0.2272 -0.0186
  647MOL0     C89170   4.357   0.462   0.582 -1.6134 -0.5261 -0.2588
  647MOL0     C89171   4.348   0.307   0.556 -0.0042  0.5167  0.4782
  647MOL0     O89172   4.384   0.285   0.415 -0.9472 -0.6182  1.2386
  647MOL0     C89173   4.392   0.162   0.367 -0.2805  0.6159 -0.3636
  647MOL0     C89174   4.464   0.144   0.252 -0.6620  0.3553  0.9219
  647MOL0     C89175   4.465   0.024   0.170 -0.2829  0.1120  0.3578
  647MOL0     C89176   4.539   0.031   0.037  0.3197  0.3549  0.3604
  647MOL0     C89177   4.389  -0.085   0.220  0.2072  0.0869  0.0844
  647MOL0     C89178   4.369  -0.214   0.147  0.1298  0.1210 -0.6955
  647MOL0     O89179   4.420  -0.242   0.027  0.1697 -0.8104  0.2064
  647MOL0     C89180   4.407  -0.351  -0.042  0.0225  0.0662  0.5495
  647MOL0     C89181   4.517  -0.382  -0.113 -0.5292  0.5084  1.3460
  647MOL0     C89182   4.517  -0.487  -0.207  1.0723  0.5574 -0.6392
  647MOL0     C89183   4.408  -0.577  -0.221  0.9601 -0.3819 -0.1451
  647MOL0     O89184   4.425  -0.692  -0.300  0.3830  0.1112 -0.0069
  647MOL0     C89185   4.320  -0.782  -0.320 -0.3661  0.2714 -0.1205
  647MOL0     C89186   4.316  -0.878  -0.196  0.6070  0.1968  0.5501
  647MOL0     C89187   4.457  -0.954  -0.192  0.7845  0.1389 -0.1930
  647MOL0     C89188   4.470  -1.057  -0.074 -0.8025  0.6583 -0.4426
  647MOL0     C89189   4.570  -1.168  -0.118 -0.3108 -0.3241  0.5987
  647MOL0     C89190   4.585  -1.295  -0.036  0.1906 -0.6987 -0.0548
  647MOL0     C89191   4.698  -1.386  -0.081 -0.0409 -0.6917 -0.8756
  647MOL0     C89192   4.718  -1.504   0.015  0.3051  0.9735  0.6346
  647MOL0    Cl89193   4.867  -1.585  -0.036 -0.2801  0.1007  0.4531
  647MOL0     C89194   4.296  -0.539  -0.145  0.4358  0.1883  0.6179
  647MOL0     C89195   4.298  -0.428  -0.056 -0.5459 -0.1541 -0.3260
  647MOL0     O89196   4.302  -0.299   0.213  0.4377  0.0425 -0.2446
  647MOL0     C89197   4.332  -0.079   0.352 -0.3846  0.4809 -0.8513
  647MOL0     C89198   4.341   0.045   0.423  0.5106  0.1473  0.5203
  647MOL0     N89199   4.056   0.701   0.285  1.0428  0.0012 -0.5734
  647MOL0     N89200   4.018   0.820   0.273 -0.7113 -0.1403  0.1228
  647MOL0     C89201   3.821   2.184   0.354 -1.0612  0.6216 -0.3493
  647MOL0     C89202   3.746   2.288   0.308  0.1641  0.1322  0.4659
  647MOL0     C89203   3.353   2.467   0.133 -0.2391 -0.0939  0.3365
  647MOL0     C89204   3.402   2.541   0.025 -0.5153  0.0830  0.1195
  647MOL0     C89205   3.311   2.621  -0.050  0.4960 -0.9466 -0.7617
  647MOL0     C89206   3.166   2.630  -0.015 -0.3550 -0.8104  0.6620
  647MOL0     O89207   3.085   2.711  -0.088  0.1458  0.2056  1.2507
  647MOL0     C89208   3.016   2.820  -0.021 -0.5084 -0.4868 -0.9124
  647MOL0     C89209   2.865   2.795  -0.023  0.4325 -0.4052 -0.0579
  647MOL0     C89210   2.786   2.896   0.067  0.5045  1.2091 -0.2148
  647MOL0     C89211   2.846   2.943   0.204  0.0073 -0.1357  0.6737
  647MOL0     C89212   2.867   2.822   0.289 -0.5206 -0.2021  0.6398
  647MOL0     C89213   2.911   2.725   0.346 -0.6616 -0.5488 -0.2759
  647MOL0     C89214   3.127   2.563   0.094  0.3218 -0.2445 -1.0649
  647MOL0     C89215   3.213   2.480   0.169 -0.6392  0.8740  0.6190
  647MOL0     C89216   3.142   2.415   0.290 -0.6201 -1.1950  0.3220
  647MOL0     H89217   3.545   2.116   0.085  0.0582 -2.4447  1.2735
  647MOL0     H89218   3.687   1.924   0.157 -2.0484  1.2560 -1.6248
  647MOL0     H89219   3.889   1.807   0.185 -1.4490 -3.1709 -1.3048
  647MOL0     H89220   3.761   1.775   0.292 -0.3911  0.8483  0.2955
  647MOL0     H89221   4.052   1.744   0.384  0.8432 -1.3862 -2.2081
  647MOL0     H89222   3.908   1.682   0.462  1.7228  2.6876  1.1549
  647MOL0     H89223   3.857   1.521   0.296  0.1705  0.1888  0.3927
  647MOL0     H89224   3.990   1.571   0.190  1.6800 -1.6287  0.1572
  647MOL0     H89225   4.145   1.527   0.389  1.6154 -1.6510 -0.3230
  647MOL0     H89226   4.016   1.462   0.471 -1.3982 -1.3237 -1.1505
  647MOL0     H89227   4.099   1.329   0.191  0.2757 -0.5658  0.3532
  647MOL0     H89228   3.974   1.285   0.299  1.4488 -2.7357 -0.2298
  647MOL0     H89229   4.267   1.253   0.351 -1.1545  3.8385 -1.9017
  647MOL0     H89230   4.154   1.258   0.485  3.5336 -1.0361  0.5097
  647MOL0     H89231   4.226   1.042   0.411  0.5225  1.2644  0.1108
  647MOL0     H89232   4.130   1.056   0.259  0.9464 -2.0956 -0.2067
  647MOL0     H89233   4.011   1.031   0.543  0.0413 -0.1636  1.4044
  647MOL0     H89234   3.915   1.068   0.407  0.4481 -0.2191 -0.8804
  647MOL0     H89235   4.073   0.801   0.597  2.6618  4.8575 -0.6150
  647MOL0     H89236   4.110   0.460   0.424 -1.7679 -0.0562  1.0635
  647MOL0     H89237   4.097   0.542   0.584 -0.3890 -0.4874 -0.4616
  647MOL0     H89238   4.327   0.552   0.381  0.1762  2.7255 -0.5898
  647MOL0     H89239   4.318   0.666   0.526 -2.9252  1.2016 -0.0745
  647MOL0     H89240   4.466   0.472   0.590 -1.2083 -2.5013 -2.2258
  647MOL0     H89241   4.321   0.486   0.683  2.8118 -1.0242  1.7059
  647MOL0     H89242   4.411   0.253   0.628 -0.3184 -0.9368 -0.2900
  647MOL0     H89243   4.247   0.267   0.566  0.5643 -0.5070  2.7247
  647MOL0     H89244   4.505   0.233   0.205 -2.1982 -0.2837 -1.7994
  647MOL0     H89245   4.471   0.007  -0.046  1.1903  1.1992 -0.6396
  647MOL0     H89246   4.626  -0.034   0.031  0.4483  0.3779  1.6784
  647MOL0     H89247   4.581   0.130   0.016  1.6235 -0.6209 -2.0521
  647MOL0     H89248   4.601  -0.313  -0.110 -0.8126  1.2674 -2.7950
  647MOL0     H89249   4.602  -0.505  -0.273  0.5103 -0.3306 -1.1465
  647MOL0     H89250   4.227  -0.724  -0.324  1.1045  2.7027 -0.8390
  647MOL0     H89251   4.326  -0.832  -0.417 -3.1388  0.1076 -0.3067
  647MOL0     H89252   4.302  -0.828  -0.100 -1.3546 -2.1992  1.6319
  647MOL0     H89253   4.234  -0.950  -0.203  0.6083  0.1868  0.6388
  647MOL0     H89254   4.539  -0.882  -0.191  0.0689  0.9891  1.8801
  647MOL0     H89255   4.462  -1.013  -0.284  0.2490  0.9298 -0.7376
  647MOL0     H89256   4.371  -1.100  -0.057 -1.7995  2.7340 -0.6642
  647MOL0     H89257   4.501  -1.015   0.022 -1.3234 -0.9723  0.4870
  647MOL0     H89258   4.527  -1.195  -0.215  0.5040  0.7383 -0.0811
  647MOL0     H89259   4.672  -1.133  -0.138 -0.7913  0.0902 -1.3337
  647MOL0     H89260   4.497  -1.360  -0.038 -1.2161  1.1261  0.0554
  647MOL0     H89261   4.582  -1.258   0.067  1.6951  2.4109 -1.0037
  647MOL0     H89262   4.793  -1.333  -0.088 -0.9068  0.8667 -1.3531
  647MOL0     H89263   4.672  -1.422  -0.181 -0.8722  0.6915 -1.1933
  647MOL0     H89264   4.630  -1.569   0.005  0.2843  1.3535 -2.9576
  647MOL0     H89265   4.736  -1.480   0.120  0.2175 -3.8710  2.0174
  647MOL0     H89266   4.206  -0.599  -0.155 -0.8459  2.2093 -0.7480
  647MOL0     H89267   4.217  -0.396   0.009 -0.8168 -1.1567 -0.1458
  647MOL0     H89268   4.275  -0.156   0.402  0.7100 -0.6663 -1.3218
  647MOL0     H89269   4.290   0.055   0.519 -0.0337 -0.9983  0.3707
  647MOL0     H89270   3.900   2.212   0.424 -0.7848  4.6818 -2.0062
  647MOL0     H89271   3.760   2.390   0.341  1.7390  1.5333 -3.8416
  647MOL0     H89272   3.507   2.532   0.001 -0.7506  0.9071 -1.3146
  647MOL0     H89273   3.337   2.679  -0.137 -0.0813  0.0418 -0.2915
  647MOL0     H89274   3.047   2.830   0.084 -2.7724 -1.7642 -0.0416
  647MOL0     H89275   3.038   2.911  -0.076  1.0039  0.9378  1.8480
  647MOL0     H89276   2.848   2.693   0.013  0.3692  0.2492  1.9046
  647MOL0     H89277   2.827   2.805  -0.125 -0.2495 -0.0951  0.2146
  647MOL0     H89278   2.767   2.981   0.000  0.5961  2.3535  1.1557
  647MOL0     H89279   2.695   2.846   0.102  0.7614  1.2151  0.4906
  647MOL0     H89280   2.775   3.012   0.252 -1.0907  0.2400 -1.3644
  647MOL0     H89281   2.939   2.998   0.184 -0.6356  1.1487  1.0940
  647MOL0     H89282   2.938   2.639   0.404 -2.1668 -0.4303  0.6561
  647MOL0     H89283   3.021   2.568   0.119 -0.7524 -1.9420 -4.5881
  647MOL0     H89284   3.111   2.311   0.272  2.3085 -2.0657 -0.2984
  647MOL0     H89285   3.206   2.412   0.378 -3.7372 -2.9348  2.7471
  647MOL0     H89286   3.055   2.478   0.310 -1.6678 -2.3877 -0.3132
  648MOL0     O89287   8.878   4.459   9.177  0.5140 -0.0118  0.0201
  648MOL0     C89288   8.814   4.416   9.077 -0.1748  0.1478 -0.6907
  648MOL0     O89289   8.684   4.427   9.049 -0.1635 -0.0602 -1.0017
  648MOL0     C89290   8.610   4.498   9.148  0.2297  0.5590  1.0972
  648MOL0     C89291   8.546   4.620   9.127  0.4523 -0.6333 -0.0152
  648MOL0     C89292   8.467   4.679   9.225  0.0257 -0.8150  0.0966
  648MOL0     C89293   8.448   4.626   9.349  0.0763  0.3998  0.0579
  648MOL0     O89294   8.360   4.672   9.449 -0.3134  0.0656 -0.2982
  648MOL0     C89295   8.294   4.799   9.428 -0.1977  0.5122 -0.4653
  648MOL0     C89296   8.229   4.848   9.561 -1.1989 -0.3756 -0.1085
  648MOL0     C89297   8.312   4.873   9.684  0.1651  0.4010 -0.1651
  648MOL0     C89298   8.417   4.763   9.716  0.3867  0.8187 -0.6038
  648MOL0     C89299   8.483   4.807   9.845  0.1487 -0.0336  0.0083
  648MOL0     C89300   8.601   4.708   9.875  0.3006  0.4827  0.3398
  648MOL0     C89301   8.672   4.733  10.011  1.2322  0.7215  0.8284
  648MOL0     C89302   8.574   4.717  10.136 -0.4515  0.3780  0.4355
  648MOL0     N89303   8.647   4.756  10.258 -0.8718 -0.4068 -0.0457
  648MOL0     C89304   8.712   4.673  10.343  0.4067 -1.1274  0.1142
  648MOL0     C89305   8.751   4.750  10.448  0.0575 -0.4202 -0.5750
  648MOL0     C89306   8.839   4.713  10.566 -0.1827  0.3696 -0.7455
  648MOL0     C89307   8.775   4.692  10.701  0.2398 -0.1510 -0.9162
  648MOL0     C89308   8.698   4.812  10.757  0.5245 -0.7749 -0.9175
  648MOL0     C89309   8.660   4.815  10.913  0.5954 -0.3565 -0.2756
  648MOL0     O89310   8.785   4.803  10.984  0.2178  1.3058  0.1721
  648MOL0     C89311   8.775   4.804  11.119  0.6195  0.0348 -0.5506
  648MOL0     C89312   8.899   4.790  11.189  0.8503  0.8477 -1.0226
  648MOL0     C89313   8.895   4.773  11.338  0.1309 -0.1194  0.4957
  648MOL0     C89314   9.023   4.743  11.404  1.6017  0.1320 -0.0958
  648MOL0     C89315   8.772   4.761  11.406 -0.3433  0.3402  0.3565
  648MOL0     C89316   8.754   4.736  11.552 -0.3931 -0.7986 -0.9631
  648MOL0     O89317   8.628   4.722  11.603  0.0354  0.3191 -0.3449
  648MOL0     C89318   8.606   4.676  11.733  0.5290  0.0568  0.2352
  648MOL0     C89319   8.482   4.711  11.790 -0.2117  0.3035 -0.0013
  648MOL0     C89320   8.437   4.654  11.912 -0.5366  0.2310  0.2795
  648MOL0     C89321   8.523   4.578  11.990 -0.8522 -0.0529  0.4397
  648MOL0     O89322   8.497   4.543  12.119 -0.1533  0.2788 -0.0563
  648MOL0     C89323   8.365   4.588  12.174 -0.1591  0.3787  0.2608
  648MOL0     C89324   8.353   4.544  12.318  0.2592  0.0224  0.4572
  648MOL0     C89325   8.243   4.637  12.373  0.4050  0.2058  0.1636
  648MOL0     C89326   8.228   4.621  12.531 -0.6581  0.2302 -0.4169
  648MOL0     C89327   8.263   4.745  12.615 -0.6281  0.0279  0.2541
  648MOL0     C89328   8.273   4.726  12.763 -0.1269 -0.5235 -0.0476
  648MOL0     C89329   8.158   4.652  12.828 -0.2069  0.0846  0.1146
  648MOL0     C89330   8.181   4.659  12.980  0.2493  0.6665  0.0704
  648MOL0    Cl89331   8.040   4.570  13.048 -0.1176  0.5865  0.1736
  648MOL0     C89332   8.649   4.537  11.936  0.3470 -0.1678  0.0005
  648MOL0     C89333   8.689   4.584  11.807  0.1617  0.3939  0.3352
  648MOL0     O89334   8.855   4.743  11.621 -0.4595  0.2934 -0.1590
  648MOL0     C89335   8.658   4.773  11.329  0.2368  0.8678 -1.0489
  648MOL0     C89336   8.655   4.792  11.192  0.6313 -1.2892 -0.3995
  648MOL0     N89337   8.693   4.875  10.434 -0.3710  0.1631 -0.3000
  648MOL0     N89338   8.637   4.877  10.316  0.0084 -0.4582  0.8706
  648MOL0     C89339   8.506   4.509   9.377  0.1465 -0.1490 -0.4209
  648MOL0     C89340   8.578   4.440   9.276 -0.1068  0.2454  0.9970
  648MOL0     C89341   8.897   4.359   8.974 -0.3456  0.2821  0.2340
  648MOL0     C89342   8.893   4.424   8.852  0.1069  0.1460  0.3431
  648MOL0     C89343   8.994   4.383   8.755 -0.0120 -0.2132 -0.2341
  648MOL0     C89344   9.097   4.292   8.783 -0.3380  0.3491  0.4418
  648MOL0     O89345   9.186   4.247   8.688 -0.0531 -0.1461 -0.2503
  648MOL0     C89346   9.154   4.258   8.551 -0.4087 -0.9990 -0.2138
  648MOL0     C89347   9.218   4.384   8.503  0.2060  0.4115 -0.4201
  648MOL0     C89348   9.336   4.353   8.416 -0.9310  0.1025 -0.7482
  648MOL0     C89349   9.411   4.474   8.362 -0.2475 -0.0847 -0.0545
  648MOL0     C89350   9.321   4.566   8.293 -0.1202 -0.9255 -0.6141
  648MOL0     C89351   9.233   4.648   8.271  0.1842 -0.0316 -0.3344
  648MOL0     C89352   9.098   4.236   8.905  0.3960 -0.7467 -0.1760
  648MOL0     C89353   8.995   4.253   8.999 -0.3868 -0.6422 -0.0914
  648MOL0     C89354   8.999   4.184   9.130  0.1409 -0.2030 -0.2536
  648MOL0     H89355   8.565   4.674   9.034  0.4599 -0.5430  0.0398
  648MOL0     H89356   8.425   4.776   9.199 -0.7614 -0.7502  1.5620
  648MOL0     H89357   8.243   4.811   9.333  0.3466  1.5721 -0.6321
  648MOL0     H89358   8.382   4.864   9.429  0.1594  0.0833  1.5998
  648MOL0     H89359   8.154   4.926   9.544 -2.2852 -0.5589  3.1929
  648MOL0     H89360   8.169   4.760   9.586 -0.2476 -0.7641  0.8763
  648MOL0     H89361   8.371   4.962   9.661  2.8575 -1.3459 -0.5290
  648MOL0     H89362   8.251   4.884   9.774 -1.1820 -1.9200 -0.6999
  648MOL0     H89363   8.371   4.665   9.726 -0.7820  1.4054 -0.0642
  648MOL0     H89364   8.491   4.758   9.636 -0.0077  0.6521 -0.9621
  648MOL0     H89365   8.406   4.794   9.922  0.5700 -1.6030  0.1891
  648MOL0     H89366   8.530   4.906   9.845 -0.7077  0.3886 -0.1648
  648MOL0     H89367   8.567   4.605   9.865  1.6787  0.0763 -0.4059
  648MOL0     H89368   8.677   4.721   9.797  0.5460  2.4535  0.8396
  648MOL0     H89369   8.705   4.837  10.010  1.3178  0.6950  0.9076
  648MOL0     H89370   8.759   4.671  10.034 -0.4497 -1.4433  1.8160
  648MOL0     H89371   8.479   4.771  10.128 -2.3187 -2.6792  0.6813
  648MOL0     H89372   8.556   4.610  10.145  2.9499 -0.6184 -2.2429
  648MOL0     H89373   8.762   4.577  10.334  2.2026 -0.0518 -2.8133
  648MOL0     H89374   8.911   4.795  10.572 -0.6196  0.6356  1.8642
  648MOL0     H89375   8.897   4.623  10.545 -2.1803 -0.6704 -2.2410
  648MOL0     H89376   8.706   4.608  10.702 -0.6583  0.5753 -0.4416
  648MOL0     H89377   8.859   4.675  10.769 -1.2368 -0.8779  0.8040
  648MOL0     H89378   8.755   4.904  10.740  0.3886 -0.1889  1.4127
  648MOL0     H89379   8.609   4.811  10.693  1.2670  0.2598 -2.0301
  648MOL0     H89380   8.603   4.907  10.931  1.1424 -0.2312  0.9047
  648MOL0     H89381   8.601   4.724  10.923 -1.4735  0.9373 -0.0712
  648MOL0     H89382   8.984   4.789  11.122  0.8000 -0.1717 -1.0792
  648MOL0     H89383   9.036   4.647  11.454 -1.4026 -0.5290 -0.3801
  648MOL0     H89384   9.046   4.820  11.478 -1.7928  1.0204  0.1959
  648MOL0     H89385   9.093   4.744  11.320  0.4095 -1.8174 -1.1875
  648MOL0     H89386   8.404   4.769  11.741 -0.6382  1.4104  1.8825
  648MOL0     H89387   8.338   4.689  11.940  0.7166  2.4310  2.3499
  648MOL0     H89388   8.373   4.697  12.161  0.1780  0.1517 -1.9039
  648MOL0     H89389   8.282   4.564  12.107  0.6003  0.6493 -0.8114
  648MOL0     H89390   8.332   4.437  12.325  5.1140 -1.4683 -2.5453
  648MOL0     H89391   8.452   4.551  12.365  0.0476  4.7120  0.6963
  648MOL0     H89392   8.146   4.629  12.323  1.3498  3.4183 -2.5148
  648MOL0     H89393   8.263   4.738  12.338 -2.7042 -0.1727 -3.3259
  648MOL0     H89394   8.280   4.527  12.555  1.9898  0.6745 -3.6030
  648MOL0     H89395   8.124   4.595  12.553 -0.0216 -1.0194  1.3545
  648MOL0     H89396   8.357   4.783  12.573  0.5548 -0.1667  2.5865
  648MOL0     H89397   8.192   4.828  12.608  0.8425  1.4431  1.4325
  648MOL0     H89398   8.295   4.820  12.815 -0.2895  0.7919 -2.2244
  648MOL0     H89399   8.365   4.669  12.781 -1.2073 -2.4949 -0.5282
  648MOL0     H89400   8.147   4.548  12.795 -3.2198  0.9099 -1.9139
  648MOL0     H89401   8.062   4.696  12.797  1.4240  3.2545 -0.8383
  648MOL0     H89402   8.173   4.764  13.011 -2.6417  0.0691  1.7711
  648MOL0     H89403   8.279   4.616  13.002  0.9153  2.4012  0.6707
  648MOL0     H89404   8.708   4.472  12.001 -0.5841 -0.1955  0.8417
  648MOL0     H89405   8.778   4.536  11.768  0.2240 -0.5077  1.5159
  648MOL0     H89406   8.559   4.772  11.372  0.1381  0.9577 -1.2789
  648MOL0     H89407   8.560   4.809  11.141  0.8472  4.0145  0.3198
  648MOL0     H89408   8.483   4.465   9.474  2.2415 -0.6302 -0.0785
  648MOL0     H89409   8.599   4.335   9.290 -6.0156 -1.4261  0.4127
  648MOL0     H89410   8.819   4.500   8.829  3.6739  3.7269 -0.4382
  648MOL0     H89411   8.986   4.432   8.659  1.5065 -0.0471 -0.3051
  648MOL0     H89412   9.195   4.169   8.501 -0.7862 -0.7465 -1.0035
  648MOL0     H89413   9.046   4.268   8.536 -0.8736 -2.8270  1.5675
  648MOL0     H89414   9.251   4.458   8.576  0.6924  1.4177 -1.6196
  648MOL0     H89415   9.141   4.442   8.451 -1.6807  1.0609  2.8280
  648MOL0     H89416   9.413   4.297   8.470  0.2756  2.3569 -0.0071
  648MOL0     H89417   9.297   4.287   8.338 -2.1256  3.3649 -3.1425
  648MOL0     H89418   9.489   4.447   8.290  0.5994  2.8844 -0.3776
  648MOL0     H89419   9.468   4.525   8.440  0.6578 -1.1390  0.0028
  648MOL0     H89420   9.149   4.715   8.269  0.8487  0.8003 -0.6953
  648MOL0     H89421   9.176   4.164   8.927  0.8532 -0.6455 -1.4189
  648MOL0     H89422   9.058   4.238   9.204  3.0674 -1.0678 -1.7937
  648MOL0     H89423   8.897   4.162   9.163  0.5538 -0.6452  0.7490
  648MOL0     H89424   9.045   4.089   9.099  1.9464  1.1585 -2.0471
  649MOL0     O89425   7.663  11.425   5.904 -0.1334 -0.8530 -0.2682
  649MOL0     C89426   7.642  11.485   6.009 -0.0941  0.3029  0.3264
  649MOL0     O89427   7.651  11.425   6.136  0.4369  0.3694 -0.3317
  649MOL0     C89428   7.713  11.303   6.142 -0.3590  0.0140  0.4581
  649MOL0     C89429   7.843  11.301   6.191 -0.0067 -0.8732  0.2620
  649MOL0     C89430   7.913  11.177   6.189  0.5755 -0.0490  0.7040
  649MOL0     C89431   7.856  11.064   6.127  0.7459  0.0998 -0.1413
  649MOL0     O89432   7.911  10.944   6.104  0.4389  0.1402  0.4911
  649MOL0     C89433   8.053  10.926   6.130 -0.1860  0.8458  0.2638
  649MOL0     C89434   8.095  10.802   6.060  0.8379  0.6416  0.7447
  649MOL0     C89435   8.237  10.735   6.081  0.4205  0.2127  0.2312
  649MOL0     C89436   8.358  10.830   6.059 -0.6014 -0.1844  0.4327
  649MOL0     C89437   8.357  10.900   5.923  0.9864 -1.1106  0.5564
  649MOL0     C89438   8.487  10.972   5.877 -1.0079 -0.0775  0.1269
  649MOL0     C89439   8.537  11.073   5.983 -0.2690 -0.4077  0.3423
  649MOL0     C89440   8.692  11.100   5.968  0.0276 -0.1546  0.1439
  649MOL0     N89441   8.782  10.991   6.008  0.2275 -0.4347  0.5036
  649MOL0     C89442   8.769  10.908   6.120  0.1369  0.3473 -0.4988
  649MOL0     C89443   8.879  10.826   6.114 -0.1373  0.0211  0.6904
  649MOL0     C89444   8.916  10.730   6.228  0.5811  0.7607 -0.3837
  649MOL0     C89445   9.027  10.788   6.324 -0.3279  0.3378 -0.3731
  649MOL0     C89446   9.008  10.935   6.363 -0.5040 -0.4290 -0.4002
  649MOL0     C89447   9.120  10.984   6.466  0.2492  0.2637  0.0600
  649MOL0     O89448   9.092  10.922   6.600 -0.0700  0.5416  0.1176
  649MOL0     C89449   9.201  10.858   6.648 -0.0924  0.7788  0.2258
  649MOL0     C89450   9.335  10.906   6.651  1.0802  0.3997 -0.2798
  649MOL0     C89451   9.447  10.829   6.681  1.2925 -0.5589 -0.1756
  649MOL0     C89452   9.583  10.894   6.661 -0.5110 -0.1181  0.6985
  649MOL0     C89453   9.418  10.699   6.716  0.1657 -0.1434  0.6453
  649MOL0     C89454   9.520  10.587   6.724  0.2279 -0.2508  0.2719
  649MOL0     O89455   9.655  10.628   6.758  0.7200  0.7123 -0.3172
  649MOL0     C89456   9.741  10.530   6.766 -0.5910 -0.5703  0.9424
  649MOL0     C89457   9.780  10.479   6.888  0.1305 -0.0626 -0.2955
  649MOL0     C89458   9.879  10.378   6.899 -0.4400  0.1790  0.5365
  649MOL0     C89459   9.941  10.332   6.788 -0.2661 -0.6030 -0.5850
  649MOL0     O89460  10.046  10.248   6.806 -0.3215 -0.4290  0.1530
  649MOL0     C89461  10.175  10.266   6.741  0.8981 -0.4606 -0.0328
  649MOL0     C89462  10.287  10.186   6.814  0.7355 -0.5694 -0.4973
  649MOL0     C89463  10.292  10.222   6.962 -0.7255  0.5396 -0.7816
  649MOL0     C89464  10.378  10.119   7.034 -0.7972 -0.6190 -0.1836
  649MOL0     C89465  10.380  10.132   7.179 -0.5039 -0.5730 -0.4321
  649MOL0     C89466  10.266  10.040   7.239 -0.6061  0.3882 -0.0849
  649MOL0     C89467  10.258  10.048   7.395 -0.0350 -0.5151 -0.4524
  649MOL0     C89468  10.115  10.054   7.444 -0.2593 -0.4245  0.8980
  649MOL0    Cl89469  10.059   9.890   7.480  0.6411  0.1112  0.0031
  649MOL0     C89470   9.901  10.376   6.660  0.3659 -0.1986 -0.8145
  649MOL0     C89471   9.795  10.468   6.646  0.7715 -0.2836 -0.1762
  649MOL0     O89472   9.484  10.468   6.704 -0.8540 -0.4622  0.5549
  649MOL0     C89473   9.289  10.652   6.725  0.0343 -0.6938 -1.1492
  649MOL0     C89474   9.177  10.729   6.691  0.0627  0.4685  0.4153
  649MOL0     N89475   8.956  10.863   6.008 -0.3086 -0.2585  0.0717
  649MOL0     N89476   8.899  10.964   5.952 -0.1232  0.0490 -0.0739
  649MOL0     C89477   7.725  11.071   6.080  0.2925 -0.4322 -0.4479
  649MOL0     C89478   7.653  11.193   6.083 -0.0797 -0.7292 -0.6744
  649MOL0     C89479   7.591  11.625   6.000  0.6985  0.1357  0.2332
  649MOL0     C89480   7.527  11.680   6.114 -0.2659 -0.0214 -0.1113
  649MOL0     C89481   7.463  11.810   6.101  0.2671 -0.3112  0.4301
  649MOL0     C89482   7.468  11.883   5.985  0.3331  0.6312  0.0449
  649MOL0     O89483   7.412  12.001   5.957  0.6197  0.2361  0.3705
  649MOL0     C89484   7.356  12.080   6.060  0.0703 -0.2430  0.3792
  649MOL0     C89485   7.472  12.168   6.120  0.4052  0.5138  0.5364
  649MOL0     C89486   7.423  12.221   6.264 -0.5762  0.8872 -0.0618
  649MOL0     C89487   7.508  12.185   6.383 -0.2947  0.1893 -0.0980
  649MOL0     C89488   7.522  12.041   6.399 -0.6943  0.0752  1.4094
  649MOL0     C89489   7.542  11.926   6.410 -0.8052 -0.4424  0.1494
  649MOL0     C89490   7.534  11.818   5.884  1.2108 -0.2881 -0.1789
  649MOL0     C89491   7.598  11.701   5.880  0.2161  0.2234 -0.3934
  649MOL0     C89492   7.666  11.675   5.748 -0.2211 -0.4607  0.5491
  649MOL0     H89493   7.883  11.395   6.229 -3.6543 -0.2280  3.0864
  649MOL0     H89494   8.013  11.179   6.232 -0.0154 -0.8565  2.2105
  649MOL0     H89495   8.076  10.911   6.236 -1.8867 -2.5976  0.2664
  649MOL0     H89496   8.109  11.009   6.084  1.1465 -2.3177 -4.6310
  649MOL0     H89497   8.025  10.719   6.078  1.4508 -1.0535 -3.4214
  649MOL0     H89498   8.069  10.821   5.955  0.1282 -0.8607  0.6204
  649MOL0     H89499   8.245  10.685   6.178  2.7255  0.3616  0.1764
  649MOL0     H89500   8.245  10.648   6.015  2.5905 -0.9883  1.9208
  649MOL0     H89501   8.362  10.906   6.138  1.3689  0.0168  0.1932
  649MOL0     H89502   8.454  10.779   6.057  0.2765  1.3832 -1.3907
  649MOL0     H89503   8.280  10.977   5.909  1.3230 -0.4942  1.9166
  649MOL0     H89504   8.343  10.819   5.850  1.2984 -1.3277  0.7362
  649MOL0     H89505   8.572  10.907   5.855  1.4370  3.0647 -0.3607
  649MOL0     H89506   8.479  11.028   5.783  1.9116 -3.0350 -2.1073
  649MOL0     H89507   8.505  11.052   6.085  0.0645  4.6682  1.7424
  649MOL0     H89508   8.503  11.175   5.963 -1.7051 -0.5818  1.7596
  649MOL0     H89509   8.714  11.132   5.866 -0.3047 -1.4450 -0.3543
  649MOL0     H89510   8.712  11.190   6.027 -2.4202 -1.4909  3.3204
  649MOL0     H89511   8.695  10.906   6.198  0.6086 -0.6460 -0.0561
  649MOL0     H89512   8.951  10.639   6.177 -2.0145  1.3730 -3.5857
  649MOL0     H89513   8.827  10.708   6.288  1.2433  0.0641  0.3766
  649MOL0     H89514   9.019  10.737   6.421 -0.8086 -2.1488 -1.6632
  649MOL0     H89515   9.128  10.766   6.290 -0.8818 -2.3604 -0.4421
  649MOL0     H89516   9.022  10.999   6.275  1.7571  0.3553  0.4642
  649MOL0     H89517   8.908  10.956   6.401 -2.0547 -2.5492 -2.8724
  649MOL0     H89518   9.219  10.959   6.427 -0.7072 -2.7256 -0.7581
  649MOL0     H89519   9.112  11.092   6.478  1.2249  0.3367  0.1310
  649MOL0     H89520   9.353  11.011   6.631 -0.0674  0.6927  0.1473
  649MOL0     H89521   9.566  10.998   6.634 -0.5247 -0.1649  0.5259
  649MOL0     H89522   9.628  10.834   6.582  0.3214  3.7418 -2.0152
  649MOL0     H89523   9.638  10.886   6.756  0.7603 -3.0410 -0.1632
  649MOL0     H89524   9.731  10.535   6.967  0.2238 -1.1919  0.5912
  649MOL0     H89525   9.925  10.331   6.986  1.3712 -1.1464 -1.0568
  649MOL0     H89526  10.163  10.221   6.642  0.6809 -1.6071  0.5023
  649MOL0     H89527  10.195  10.372   6.721  2.6509 -0.6898  0.3155
  649MOL0     H89528  10.271  10.079   6.801  2.5820 -0.9350 -0.1424
  649MOL0     H89529  10.385  10.198   6.766  1.0642 -2.4247 -0.3683
  649MOL0     H89530  10.197  10.233   7.015  0.3603  0.9854  1.1644
  649MOL0     H89531  10.331  10.323   6.972  1.2106  0.2644 -4.0088
  649MOL0     H89532  10.481  10.138   7.004  0.1871 -0.5305  2.8889
  649MOL0     H89533  10.350  10.015   7.015 -3.2208 -0.7191  2.9392
  649MOL0     H89534  10.474  10.096   7.222 -1.6320  0.8386  3.7444
  649MOL0     H89535  10.377  10.235   7.216  1.7079 -0.8821  0.8015
  649MOL0     H89536  10.283   9.933   7.224 -0.6520  0.6132 -2.0946
  649MOL0     H89537  10.171  10.073   7.196  0.2055 -0.0854 -2.4256
  649MOL0     H89538  10.315  10.129   7.442  1.9568 -2.6424  0.9608
  649MOL0     H89539  10.316   9.967   7.439  0.5892 -0.2578 -0.7886
  649MOL0     H89540  10.038  10.100   7.380  1.7640  3.1694  0.7486
  649MOL0     H89541  10.108  10.103   7.542 -1.5336  0.3790  0.4392
  649MOL0     H89542   9.954  10.348   6.570  2.8564  0.8061  0.2616
  649MOL0     H89543   9.755  10.509   6.553  0.6173  2.9123  1.1569
  649MOL0     H89544   9.272  10.549   6.757  2.2478 -0.5504  0.8024
  649MOL0     H89545   9.076  10.689   6.688 -0.1947  1.0631 -2.9058
  649MOL0     H89546   7.675  10.981   6.047 -0.6139 -0.6133  1.3063
  649MOL0     H89547   7.552  11.204   6.046 -1.0426  1.3844  2.1474
  649MOL0     H89548   7.520  11.620   6.204 -0.4057  1.0320  0.5979
  649MOL0     H89549   7.407  11.833   6.191  0.0307 -1.4342  0.5911
  649MOL0     H89550   7.281  12.148   6.018 -0.3058 -0.6275  0.4178
  649MOL0     H89551   7.295  12.026   6.133 -1.2897  0.9387  0.1786
  649MOL0     H89552   7.486  12.258   6.059 -0.7144 -0.2139 -0.8773
  649MOL0     H89553   7.556  12.098   6.131  0.6444  0.5476 -0.8412
  649MOL0     H89554   7.425  12.329   6.251 -0.8570  0.9424  0.3510
  649MOL0     H89555   7.322  12.186   6.290 -0.9218  0.4323 -1.8304
  649MOL0     H89556   7.458  12.227   6.470 -1.2607  1.9390 -1.4311
  649MOL0     H89557   7.600  12.244   6.377 -1.6939  2.4087 -0.7788
  649MOL0     H89558   7.567  11.822   6.406  1.6425  0.0885 -3.5791
  649MOL0     H89559   7.526  11.875   5.792 -0.6347 -1.4084 -0.7796
  649MOL0     H89560   7.757  11.617   5.767 -0.2452 -0.5840  0.2997
  649MOL0     H89561   7.605  11.627   5.670  0.9403 -2.3424  0.7360
  649MOL0     H89562   7.707  11.765   5.701 -0.7555 -1.2677 -1.6057
  650MOL0     O89563   7.015   4.018   1.922  0.0050 -0.4392  0.1423
  650MOL0     C89564   6.935   4.037   2.016 -0.1563  0.6749  0.2937
  650MOL0     O89565   6.958   4.087   2.145 -0.3628  0.0674  0.0863
  650MOL0     C89566   7.076   4.154   2.150  1.1932 -0.4446  0.1420
  650MOL0     C89567   7.188   4.073   2.147  0.2599  0.0942  0.3506
  650MOL0     C89568   7.323   4.120   2.142  1.0097 -0.8333 -0.8276
  650MOL0     C89569   7.343   4.258   2.152 -0.2507 -0.3087  0.1872
  650MOL0     O89570   7.458   4.319   2.164  0.0586  0.0287  0.8705
  650MOL0     C89571   7.575   4.246   2.164 -0.3327  0.1362  0.5093
  650MOL0     C89572   7.696   4.341   2.170 -0.3823  0.1708 -0.4476
  650MOL0     C89573   7.681   4.449   2.278 -0.1156  0.2644 -0.0080
  650MOL0     C89574   7.809   4.535   2.291 -0.3850  0.5968 -0.0915
  650MOL0     C89575   7.793   4.666   2.362  0.6405 -0.3242  0.0313
  650MOL0     C89576   7.919   4.746   2.323  0.2313 -0.2706 -0.1423
  650MOL0     C89577   7.902   4.894   2.385  0.0259  0.0770 -0.5216
  650MOL0     C89578   8.006   4.985   2.326  0.2677  0.7157  0.2099
  650MOL0     N89579   8.134   4.968   2.393  0.1035  0.4792 -0.2397
  650MOL0     C89580   8.235   4.882   2.368  0.4556  0.5706  0.5464
  650MOL0     C89581   8.327   4.903   2.454  0.0918  0.9440 -0.7160
  650MOL0     C89582   8.457   4.837   2.439  0.0067  0.7522 -0.2079
  650MOL0     C89583   8.469   4.698   2.501 -0.1998 -0.5251 -0.3779
  650MOL0     C89584   8.387   4.586   2.440 -0.5512  0.4333 -0.2385
  650MOL0     C89585   8.407   4.455   2.519 -0.7830 -0.1736 -0.0804
  650MOL0     O89586   8.525   4.384   2.499  0.2682  0.6668 -0.3467
  650MOL0     C89587   8.554   4.304   2.389 -0.3722 -0.4201 -1.1152
  650MOL0     C89588   8.467   4.250   2.298 -1.1002  0.7572  0.1468
  650MOL0     C89589   8.515   4.156   2.195  0.3590 -0.5850  0.8400
  650MOL0     C89590   8.412   4.113   2.097  0.0890  0.4026  0.5127
  650MOL0     C89591   8.652   4.140   2.182 -0.6031 -1.0887  0.8119
  650MOL0     C89592   8.718   4.080   2.063 -0.3025 -0.0756 -0.0726
  650MOL0     O89593   8.846   4.032   2.071  0.4662 -0.5756  0.0424
  650MOL0     C89594   8.893   3.963   1.965 -0.2695  0.7132  0.2403
  650MOL0     C89595   8.921   4.027   1.843 -0.4355 -0.5186 -0.2261
  650MOL0     C89596   8.978   3.956   1.736  1.3282  0.4841  0.1789
  650MOL0     C89597   9.004   3.823   1.754 -0.4589 -0.4200  0.2781
  650MOL0     O89598   9.062   3.750   1.657 -0.2388 -1.1888  0.6475
  650MOL0     C89599   9.184   3.697   1.685  0.1078  0.7017 -0.7994
  650MOL0     C89600   9.235   3.605   1.581  0.3500 -0.6758  0.0250
  650MOL0     C89601   9.141   3.497   1.539  0.4425 -0.3724 -0.3415
  650MOL0     C89602   9.127   3.373   1.634 -0.2798 -0.9101 -0.7157
  650MOL0     C89603   9.028   3.280   1.562 -0.1170  0.5151  0.7486
  650MOL0     C89604   9.005   3.143   1.635 -0.5308 -0.1127 -0.6046
  650MOL0     C89605   8.935   3.051   1.537  0.0792  0.2465  0.0591
  650MOL0     C89606   9.037   2.976   1.450  0.7163  1.0244  1.3028
  650MOL0    Cl89607   8.949   2.851   1.344 -0.0307 -0.1736 -0.0640
  650MOL0     C89608   8.971   3.760   1.880 -0.6042  0.2769  0.4010
  650MOL0     C89609   8.921   3.826   1.987  0.7303 -0.2157  0.4212
  650MOL0     O89610   8.657   4.078   1.963 -0.3777  0.1801  0.2412
  650MOL0     C89611   8.737   4.186   2.282 -0.8991  0.3326 -0.0282
  650MOL0     C89612   8.684   4.265   2.388 -0.4598 -0.1835  0.1969
  650MOL0     N89613   8.281   4.989   2.549 -0.2649  0.1722 -0.2067
  650MOL0     N89614   8.162   5.014   2.523 -0.4856 -0.2045  0.3854
  650MOL0     C89615   7.230   4.340   2.162  0.6078  0.1112  0.5379
  650MOL0     C89616   7.097   4.291   2.174 -0.2285  0.2348  0.2595
  650MOL0     C89617   6.794   4.000   1.991  0.1585  0.0289  0.2950
  650MOL0     C89618   6.722   3.964   2.096 -0.8273 -0.6536 -0.2571
  650MOL0     C89619   6.589   3.917   2.089 -0.4812  0.3962  0.1707
  650MOL0     C89620   6.530   3.901   1.965  0.4195 -0.7266  0.4689
  650MOL0     O89621   6.404   3.862   1.927  0.3175  1.0656  0.1555
  650MOL0     C89622   6.295   3.836   2.023  0.6748  0.2222  0.0697
  650MOL0     C89623   6.157   3.861   1.956  0.4724 -0.5149  0.3845
  650MOL0     C89624   6.048   3.789   2.040 -0.2245  0.8996  0.3971
  650MOL0     C89625   5.913   3.858   2.009  0.0880  0.3699  0.0544
  650MOL0     C89626   5.808   3.791   2.080  0.6786  0.5081  0.2342
  650MOL0     C89627   5.720   3.738   2.149  0.2580 -0.1065  0.2861
  650MOL0     C89628   6.605   3.947   1.854 -0.5376  1.2922 -0.5354
  650MOL0     C89629   6.732   3.999   1.864 -0.2528  0.4541 -0.2463
  650MOL0     C89630   6.803   4.034   1.740 -0.4254 -0.5706 -0.5374
  650MOL0     H89631   7.180   3.965   2.142  0.5310 -0.0194  1.9558
  650MOL0     H89632   7.402   4.046   2.142  2.0743  0.2733  0.0720
  650MOL0     H89633   7.584   4.177   2.080 -2.8336 -1.4792  1.4591
  650MOL0     H89634   7.570   4.178   2.250 -2.1033 -1.7285 -0.9760
  650MOL0     H89635   7.778   4.277   2.203 -2.1854 -1.2862  1.5031
  650MOL0     H89636   7.706   4.397   2.076 -2.7571  2.1762  0.3868
  650MOL0     H89637   7.598   4.518   2.258 -0.4399  0.2544  1.1845
  650MOL0     H89638   7.652   4.418   2.379 -1.0703  0.8984 -0.0690
  650MOL0     H89639   7.900   4.495   2.336  1.1404  2.7385 -1.0726
  650MOL0     H89640   7.825   4.565   2.187 -0.6129 -3.0889 -1.3621
  650MOL0     H89641   7.798   4.644   2.469  0.1253  2.5479  0.7100
  650MOL0     H89642   7.704   4.720   2.329  1.4038  0.1365 -1.3762
  650MOL0     H89643   8.007   4.694   2.361 -1.4837 -2.3064  1.3276
  650MOL0     H89644   7.933   4.760   2.216  2.4235 -1.8441 -0.1089
  650MOL0     H89645   7.907   4.898   2.495 -2.0908 -2.0476 -0.2731
  650MOL0     H89646   7.803   4.935   2.363 -0.3969 -1.0801 -0.8507
  650MOL0     H89647   8.006   4.962   2.219 -0.2184 -0.0495  0.3643
  650MOL0     H89648   7.982   5.092   2.320 -1.1905  0.3400 -1.5953
  650MOL0     H89649   8.242   4.816   2.282  0.5540  1.5364 -0.2094
  650MOL0     H89650   8.532   4.903   2.484  0.3950  3.0850 -3.9327
  650MOL0     H89651   8.509   4.841   2.343  2.2234  3.0662  0.9510
  650MOL0     H89652   8.576   4.675   2.502  0.0423  0.2793 -2.5843
  650MOL0     H89653   8.439   4.717   2.605  3.4889 -0.4628  0.8226
  650MOL0     H89654   8.282   4.605   2.462 -0.1301  0.9123  1.5640
  650MOL0     H89655   8.417   4.573   2.335 -1.0922  0.3579 -0.3849
  650MOL0     H89656   8.382   4.476   2.623 -2.6405  0.1578 -0.5477
  650MOL0     H89657   8.329   4.386   2.485  0.5016 -2.0678  0.6226
  650MOL0     H89658   8.361   4.270   2.300 -0.7644  2.8336 -0.2141
  650MOL0     H89659   8.310   4.128   2.131 -0.7379 -2.5344 -0.3147
  650MOL0     H89660   8.419   4.006   2.071 -0.0533  1.1138 -3.0326
  650MOL0     H89661   8.421   4.168   2.002  1.2972  1.8616  1.4230
  650MOL0     H89662   8.900   4.133   1.849 -2.5769 -0.9638  3.5001
  650MOL0     H89663   8.979   4.005   1.639 -5.4599 -1.4112 -1.3429
  650MOL0     H89664   9.246   3.787   1.690  0.4735  0.4532 -0.8690
  650MOL0     H89665   9.185   3.648   1.782  0.0290 -0.1067 -1.1983
  650MOL0     H89666   9.268   3.651   1.487  2.2232  0.7546  1.3000
  650MOL0     H89667   9.325   3.571   1.633  1.8099  0.3951 -1.6565
  650MOL0     H89668   9.168   3.458   1.441 -0.5619 -1.3337 -0.2641
  650MOL0     H89669   9.039   3.536   1.532 -1.3090 -3.5889  3.2439
  650MOL0     H89670   9.084   3.400   1.731  1.8364  1.5352 -0.3463
  650MOL0     H89671   9.226   3.331   1.649  1.8320  4.4972  4.4545
  650MOL0     H89672   8.926   3.316   1.544  0.6133  2.8125  0.7855
  650MOL0     H89673   9.072   3.259   1.464 -1.2590 -0.6618  0.4595
  650MOL0     H89674   8.942   3.154   1.724  1.3645 -0.2492  0.8184
  650MOL0     H89675   9.101   3.107   1.672 -0.4545  3.6863  3.9828
  650MOL0     H89676   8.877   3.115   1.470  0.9755 -0.5269 -1.5217
  650MOL0     H89677   8.878   2.981   1.599  0.3163 -0.2913 -0.3233
  650MOL0     H89678   9.102   2.935   1.527  1.4829 -2.2460 -0.8495
  650MOL0     H89679   9.109   3.036   1.394  4.4504 -1.4059  3.1232
  650MOL0     H89680   8.996   3.655   1.895  2.8380  1.1168  1.6208
  650MOL0     H89681   8.897   3.770   2.077 -0.1023 -1.1862 -0.3693
  650MOL0     H89682   8.843   4.165   2.280 -1.2596 -1.8585  0.8082
  650MOL0     H89683   8.754   4.310   2.457 -2.4316  0.9570  1.5692
  650MOL0     H89684   7.252   4.444   2.186  1.9604  0.5507 -2.2083
  650MOL0     H89685   7.010   4.353   2.193 -1.6414 -1.3675 -0.6719
  650MOL0     H89686   6.758   3.954   2.198  0.3179 -0.5174 -0.6445
  650MOL0     H89687   6.543   3.890   2.184  0.8475  0.0535  0.7443
  650MOL0     H89688   6.298   3.736   2.069 -2.1600 -0.3042 -0.6560
  650MOL0     H89689   6.305   3.902   2.109  3.5682  0.8078 -0.6250
  650MOL0     H89690   6.159   3.820   1.855 -4.2524 -0.1726 -0.0494
  650MOL0     H89691   6.147   3.970   1.963 -1.6932 -0.7288  1.5166
  650MOL0     H89692   6.044   3.681   2.021 -1.0214  1.3231 -2.3865
  650MOL0     H89693   6.068   3.806   2.146  1.6183 -0.6877  0.3566
  650MOL0     H89694   5.901   3.849   1.900 -0.2922 -1.3538  0.2042
  650MOL0     H89695   5.904   3.964   2.033  1.2023  0.5858 -0.4463
  650MOL0     H89696   5.643   3.693   2.209  1.6555 -1.5928  1.0368
  650MOL0     H89697   6.559   3.937   1.756 -1.9552  1.5319  0.0924
  650MOL0     H89698   6.872   4.114   1.768 -2.5562  0.4634  2.3902
  650MOL0     H89699   6.844   3.951   1.683 -0.5049 -1.6858  0.9783
  650MOL0     H89700   6.739   4.091   1.672  0.1506 -1.7727 -2.1305
  651MOL0     O89701   4.485   4.109   4.632  0.6566 -0.1648  0.2063
  651MOL0     C89702   4.550   4.160   4.535  0.2037  1.1981  0.1784
  651MOL0     O89703   4.680   4.200   4.541  0.0064 -0.1364 -0.0576
  651MOL0     C89704   4.745   4.185   4.663  0.1069 -0.9273 -0.3463
  651MOL0     C89705   4.749   4.062   4.734 -0.2569 -0.2914 -0.2744
  651MOL0     C89706   4.823   4.046   4.847  0.4179  0.7650  0.7065
  651MOL0     C89707   4.886   4.152   4.911  0.2508 -0.0099 -0.0145
  651MOL0     O89708   4.946   4.153   5.030  0.0123 -0.8019 -0.5152
  651MOL0     C89709   5.018   4.045   5.073  0.2908  0.3289  1.1356
  651MOL0     C89710   5.171   4.071   5.067  0.9234  0.4598  0.2319
  651MOL0     C89711   5.223   4.173   5.167  0.0077 -0.1032 -0.2671
  651MOL0     C89712   5.376   4.219   5.139 -0.0853  0.0289 -0.6888
  651MOL0     C89713   5.434   4.304   5.259  0.0376  0.7354  0.1636
  651MOL0     C89714   5.570   4.365   5.228  0.0336 -0.0553 -0.5644
  651MOL0     C89715   5.579   4.489   5.135 -0.0585  0.6261  0.7446
  651MOL0     C89716   5.624   4.620   5.210 -0.0526  0.0395  0.6189
  651MOL0     N89717   5.516   4.663   5.304  0.3460  0.1542  0.1149
  651MOL0     C89718   5.453   4.782   5.287  0.0399 -0.3261 -0.4378
  651MOL0     C89719   5.385   4.798   5.404  0.7739  0.8131 -0.1296
  651MOL0     C89720   5.325   4.922   5.452  0.2429  0.8560 -0.3298
  651MOL0     C89721   5.421   5.002   5.549 -0.2767  0.2493  0.2470
  651MOL0     C89722   5.384   5.147   5.566  0.1538 -1.0037 -0.6921
  651MOL0     C89723   5.513   5.230   5.596  0.5648 -0.8747  0.1626
  651MOL0     O89724   5.579   5.172   5.711  0.0082 -0.1890  0.2595
  651MOL0     C89725   5.717   5.169   5.699 -0.0132  0.1490  0.0043
  651MOL0     C89726   5.776   5.080   5.787 -1.3280 -0.2080 -0.3844
  651MOL0     C89727   5.916   5.071   5.798 -0.8611  0.1522 -0.2706
  651MOL0     C89728   5.970   4.986   5.915 -0.2446  0.0538 -0.1237
  651MOL0     C89729   6.001   5.155   5.721  0.7698  0.2706 -0.0668
  651MOL0     C89730   6.150   5.153   5.715  0.1101  0.0873 -0.2782
  651MOL0     O89731   6.214   5.113   5.830  0.1724  0.0250  0.1572
  651MOL0     C89732   6.353   5.111   5.827  0.2718  0.3821 -0.2776
  651MOL0     C89733   6.430   5.207   5.913 -0.0835  0.1647  1.1175
  651MOL0     C89734   6.570   5.194   5.915 -0.6104 -0.1205 -0.6262
  651MOL0     C89735   6.636   5.109   5.820 -0.5735  0.1994  0.3042
  651MOL0     O89736   6.767   5.094   5.806 -0.4067  0.2778 -1.2592
  651MOL0     C89737   6.847   5.141   5.916 -0.7676  0.2118  1.0887
  651MOL0     C89738   6.988   5.069   5.883 -0.8634 -1.0032  0.1063
  651MOL0     C89739   7.106   5.090   5.987 -0.1004 -0.5927 -0.0413
  651MOL0     C89740   7.185   5.228   5.966 -0.7358 -0.8971 -0.4082
  651MOL0     C89741   7.303   5.267   6.062 -0.2376 -0.2715  0.4390
  651MOL0     C89742   7.358   5.408   6.021  0.1778 -0.0093  0.6991
  651MOL0     C89743   7.445   5.465   6.132  0.0861  0.1622 -0.6583
  651MOL0     C89744   7.585   5.395   6.142 -0.2235  0.6343  0.9300
  651MOL0    Cl89745   7.673   5.462   6.278 -0.2861 -0.3470  0.0601
  651MOL0     C89746   6.559   5.023   5.732 -0.1317 -0.1504  0.2925
  651MOL0     C89747   6.419   5.014   5.747 -0.1531  0.9603 -0.0978
  651MOL0     O89748   6.201   5.179   5.605  0.1277 -0.0270 -0.3632
  651MOL0     C89749   5.934   5.240   5.624 -0.1709  0.4381 -0.5771
  651MOL0     C89750   5.794   5.258   5.632  0.8178 -0.5108 -0.7595
  651MOL0     N89751   5.401   4.693   5.487 -0.9327  0.1051 -0.6138
  651MOL0     N89752   5.483   4.609   5.429  0.0301 -0.0620  0.6353
  651MOL0     C89753   4.873   4.281   4.845 -0.0964 -0.7313 -1.1828
  651MOL0     C89754   4.816   4.295   4.720 -1.1450 -1.1490  0.3059
  651MOL0     C89755   4.481   4.158   4.402  0.0320 -0.2527 -0.1676
  651MOL0     C89756   4.549   4.227   4.299 -0.4435  0.0180  0.1523
  651MOL0     C89757   4.498   4.229   4.162  0.1034 -0.2646  0.0467
  651MOL0     C89758   4.375   4.165   4.127  0.0319 -0.5663  0.2479
  651MOL0     O89759   4.333   4.179   3.998  0.5155  0.2836  0.7673
  651MOL0     C89760   4.294   4.064   3.931  0.0146 -0.5341  0.3650
  651MOL0     C89761   4.408   3.985   3.860  0.0950  0.3473 -0.4503
  651MOL0     C89762   4.494   4.072   3.766 -0.1447 -0.0545 -1.0102
  651MOL0     C89763   4.428   4.172   3.671  0.2279 -1.4692 -0.2492
  651MOL0     C89764   4.525   4.268   3.614 -0.0814  0.5360 -0.3634
  651MOL0     C89765   4.615   4.334   3.566 -0.4584  0.3383 -0.0016
  651MOL0     C89766   4.312   4.091   4.226 -0.6610 -0.5703  0.1542
  651MOL0     C89767   4.359   4.093   4.359  0.0723  0.6303  0.2396
  651MOL0     C89768   4.261   4.019   4.455  0.8715 -0.2617 -0.4464
  651MOL0     H89769   4.688   3.983   4.691 -1.8869 -0.5190  2.2356
  651MOL0     H89770   4.837   3.942   4.875  1.7003  0.7792  0.1531
  651MOL0     H89771   4.989   3.951   5.025 -1.7333  0.0538  2.7517
  651MOL0     H89772   4.990   4.031   5.178 -1.3159 -0.6855  0.6115
  651MOL0     H89773   5.231   3.984   5.093 -0.9810 -0.5333  1.5351
  651MOL0     H89774   5.184   4.107   4.964 -0.7477  1.0137  0.1784
  651MOL0     H89775   5.158   4.260   5.156  2.3072  1.7966  0.3125
  651MOL0     H89776   5.218   4.131   5.268 -3.1355 -0.8683 -0.6263
  651MOL0     H89777   5.446   4.135   5.146  1.4906  1.4385  2.0611
  651MOL0     H89778   5.381   4.273   5.044 -0.9944 -0.1043 -0.8239
  651MOL0     H89779   5.449   4.252   5.354  0.2471  2.7772  1.3142
  651MOL0     H89780   5.367   4.390   5.273  1.1305  1.8449 -1.1040
  651MOL0     H89781   5.625   4.399   5.316 -0.8310  2.0142 -0.7647
  651MOL0     H89782   5.635   4.285   5.192  3.6319  2.1639  0.5270
  651MOL0     H89783   5.477   4.504   5.098  0.5296  0.8669 -0.8557
  651MOL0     H89784   5.644   4.483   5.048  0.4642  3.1552  0.8770
  651MOL0     H89785   5.704   4.594   5.279  0.7251  0.0579 -0.2550
  651MOL0     H89786   5.660   4.704   5.150 -2.0106  0.9575  0.6464
  651MOL0     H89787   5.464   4.859   5.212  0.2094 -1.6121 -1.7775
  651MOL0     H89788   5.242   4.883   5.512  1.2480  1.0931  1.2778
  651MOL0     H89789   5.282   4.981   5.370 -0.3309  2.1655  0.8830
  651MOL0     H89790   5.424   4.955   5.648 -0.4835  0.3033  0.2789
  651MOL0     H89791   5.518   5.006   5.499  0.6398  0.8864  1.9720
  651MOL0     H89792   5.333   5.187   5.478  0.9258 -1.0843 -1.1877
  651MOL0     H89793   5.320   5.162   5.654 -0.6884  5.7179 -1.9190
  651MOL0     H89794   5.574   5.225   5.506 -2.0661 -2.3185 -1.6995
  651MOL0     H89795   5.485   5.333   5.619  3.6811  0.5654 -1.8665
  651MOL0     H89796   5.714   5.008   5.840  3.2687 -3.0080  1.7881
  651MOL0     H89797   5.887   4.941   5.972  0.5491 -1.0514  0.1907
  651MOL0     H89798   6.036   5.046   5.978 -0.7806  0.6363 -0.1010
  651MOL0     H89799   6.020   4.895   5.881 -0.2753  0.0103 -0.0538
  651MOL0     H89800   6.383   5.266   5.991  2.6895  0.4222  2.7362
  651MOL0     H89801   6.630   5.247   5.988  0.5082 -1.7928 -0.2721
  651MOL0     H89802   6.848   5.250   5.920  0.4343  0.2287  0.5618
  651MOL0     H89803   6.816   5.105   6.014 -1.6868 -0.9715  0.3958
  651MOL0     H89804   6.958   4.965   5.865  1.5144 -1.6711 -0.3111
  651MOL0     H89805   7.020   5.095   5.782 -1.9977 -1.8428 -0.4935
  651MOL0     H89806   7.181   5.011   5.996  1.3199  0.9265  2.5417
  651MOL0     H89807   7.063   5.106   6.086 -1.7428 -0.7766 -0.6877
  651MOL0     H89808   7.111   5.306   5.984 -0.4272 -0.9881  1.5816
  651MOL0     H89809   7.218   5.229   5.862  2.8864 -1.9804  0.5585
  651MOL0     H89810   7.285   5.263   6.170 -0.2951  2.1619  0.5734
  651MOL0     H89811   7.379   5.190   6.045 -1.9040 -1.5158 -2.0527
  651MOL0     H89812   7.285   5.483   5.992 -1.3693 -1.8908 -0.4801
  651MOL0     H89813   7.425   5.399   5.935  1.6497 -1.4894  1.9186
  651MOL0     H89814   7.392   5.454   6.227 -0.4101  0.8801 -0.8516
  651MOL0     H89815   7.454   5.570   6.104 -1.7365  0.9699  1.5076
  651MOL0     H89816   7.635   5.417   6.047 -1.9614  2.1440  0.3149
  651MOL0     H89817   7.586   5.285   6.148 -1.8929  0.4505 -1.0297
  651MOL0     H89818   6.620   4.960   5.668  3.3113  1.4186  1.7191
  651MOL0     H89819   6.366   4.942   5.686 -1.9702  2.9147 -0.9653
  651MOL0     H89820   6.003   5.310   5.578  1.7491 -0.1107  1.2884
  651MOL0     H89821   5.744   5.337   5.577  1.7557  0.6534  0.0271
  651MOL0     H89822   4.917   4.372   4.884 -0.6621 -0.8617 -0.2051
  651MOL0     H89823   4.826   4.389   4.666  1.4878 -0.5564  1.6399
  651MOL0     H89824   4.637   4.284   4.324  2.7035 -2.4855 -3.9183
  651MOL0     H89825   4.562   4.264   4.081 -0.4409 -0.8055 -0.6316
  651MOL0     H89826   4.249   3.991   3.999  4.1365 -1.9273  1.9238
  651MOL0     H89827   4.222   4.098   3.856 -0.5216  2.0508  1.9075
  651MOL0     H89828   4.361   3.905   3.801 -1.8698  2.6959 -2.3219
  651MOL0     H89829   4.464   3.944   3.944  1.2125 -0.7557 -1.6936
  651MOL0     H89830   4.558   4.132   3.832 -1.8761 -0.4687  1.1413
  651MOL0     H89831   4.565   4.013   3.707 -0.5655 -2.0826  0.4167
  651MOL0     H89832   4.346   4.228   3.718  2.3659  2.0484 -0.3272
  651MOL0     H89833   4.399   4.115   3.582  0.8231  0.4696 -1.7582
  651MOL0     H89834   4.699   4.390   3.530 -0.9516  1.0573 -0.0471
  651MOL0     H89835   4.216   4.045   4.207 -2.2064  1.7153  1.9078
  651MOL0     H89836   4.315   3.949   4.520 -0.4496  0.0155  1.0078
  651MOL0     H89837   4.197   4.087   4.511 -1.9403 -1.8113 -1.5484
  651MOL0     H89838   4.194   3.957   4.395  0.6632 -0.2068 -0.2693
  652MOL0     O89839  10.039   4.849  11.186  0.0350 -0.0514 -0.5476
  652MOL0     C89840   9.980   4.945  11.155  0.6065 -0.5919 -0.3363
  652MOL0     O89841  10.037   5.065  11.099  0.4253  0.1774  0.3340
  652MOL0     C89842  10.171   5.064  11.078  0.7449 -0.0900  0.0454
  652MOL0     C89843  10.234   5.006  10.973  0.3451  0.9042  0.4730
  652MOL0     C89844  10.369   5.010  10.951  0.7399  0.4932  2.0124
  652MOL0     C89845  10.450   5.076  11.030 -0.7731 -0.1745 -0.2474
  652MOL0     O89846  10.581   5.069  10.996  0.7979 -0.0554  0.4555
  652MOL0     C89847  10.692   5.064  11.086  0.0653 -0.8541 -0.6500
  652MOL0     C89848  10.820   5.030  11.003  1.2107  0.3260 -0.1482
  652MOL0     C89849  10.937   5.003  11.097 -0.7185  0.3558 -0.4113
  652MOL0     C89850  11.058   4.946  11.017  0.4755  0.0875  0.4396
  652MOL0     C89851  11.184   4.935  11.091 -0.9517 -0.2279 -0.6724
  652MOL0     C89852  11.292   4.859  11.006 -0.1393 -0.2691  0.0977
  652MOL0     C89853  11.411   4.811  11.086  0.0710 -0.5640 -0.5064
  652MOL0     C89854  11.501   4.719  11.003 -0.9367 -0.5156 -0.0332
  652MOL0     N89855  11.556   4.795  10.886 -0.1714  0.4254 -0.0903
  652MOL0     C89856  11.636   4.910  10.893  0.1949 -0.7428  0.0657
  652MOL0     C89857  11.656   4.948  10.762  0.7324 -0.5947 -0.2209
  652MOL0     C89858  11.718   5.072  10.706  1.0250 -0.0209  0.0279
  652MOL0     C89859  11.870   5.044  10.710 -0.1783 -0.2218  0.7727
  652MOL0     C89860  11.951   5.162  10.656 -0.4354  0.2229 -0.4941
  652MOL0     C89861  12.100   5.169  10.662  0.2950 -0.5837 -0.3717
  652MOL0     O89862  12.146   5.087  10.562 -0.0146  0.3800  0.3654
  652MOL0     C89863  12.283   5.059  10.560 -0.1733 -0.3691 -0.2562
  652MOL0     C89864  12.389   5.131  10.627 -0.5322  0.1418 -0.0054
  652MOL0     C89865  12.519   5.084  10.616  1.3609 -0.5848  0.0680
  652MOL0     C89866  12.624   5.161  10.709  0.1915  0.7467  0.1012
  652MOL0     C89867  12.556   4.974  10.534  0.0600  0.6929  0.5621
  652MOL0     C89868  12.691   4.921  10.505  0.2321 -0.4699 -0.0010
  652MOL0     O89869  12.780   5.023  10.495 -0.1495  0.2496 -0.2909
  652MOL0     C89870  12.912   4.998  10.524 -0.0097  0.7685 -0.1310
  652MOL0     C89871  12.950   4.911  10.620 -0.0631  0.4343 -0.5968
  652MOL0     C89872  13.084   4.898  10.655  0.5462  0.0693  0.5354
  652MOL0     C89873  13.190   4.955  10.582 -0.5205  0.6009  0.8725
  652MOL0     O89874  13.324   4.946  10.601  0.7987 -0.6426 -0.5640
  652MOL0     C89875  13.370   4.817  10.632  0.6310 -0.2182 -0.5227
  652MOL0     C89876  13.522   4.796  10.630 -0.4651 -1.0370 -0.4357
  652MOL0     C89877  13.583   4.838  10.770  0.0886 -0.6493  0.0245
  652MOL0     C89878  13.722   4.901  10.747 -0.2515  0.0557  0.0057
  652MOL0     C89879  13.791   4.917  10.882 -0.1721 -0.1416 -0.8327
  652MOL0     C89880  13.944   4.918  10.865 -0.5682  0.0344 -0.6654
  652MOL0     C89881  14.000   5.048  10.811 -0.6565  0.5814 -0.4875
  652MOL0     C89882  14.149   5.049  10.818 -1.0137  0.3247 -0.5515
  652MOL0    Cl89883  14.222   5.017  10.992 -0.2375  0.0609 -0.1814
  652MOL0     C89884  13.144   5.014  10.467 -0.2211  0.2945  0.4405
  652MOL0     C89885  13.011   5.043  10.434  0.4445 -0.1267 -0.5283
  652MOL0     O89886  12.715   4.807  10.469  0.3126 -0.3106 -0.1400
  652MOL0     C89887  12.451   4.909  10.460 -0.0169 -0.1747  0.3085
  652MOL0     C89888  12.326   4.949  10.483  0.0305  0.2986  0.0534
  652MOL0     N89889  11.602   4.856  10.679  0.5492  0.4165 -0.7938
  652MOL0     N89890  11.542   4.769  10.751  0.1667  1.0005 -0.7214
  652MOL0     C89891  10.396   5.148  11.138 -0.0763  0.4203  0.4591
  652MOL0     C89892  10.259   5.138  11.170 -0.5094  0.1474 -0.8280
  652MOL0     C89893   9.844   4.962  11.204  0.5706  0.2467 -0.6222
  652MOL0     C89894   9.748   4.867  11.177  0.3270 -0.0100 -0.0760
  652MOL0     C89895   9.609   4.874  11.210 -0.0609 -0.2283 -0.4406
  652MOL0     C89896   9.566   4.965  11.303  0.8799  1.3749  0.0313
  652MOL0     O89897   9.436   4.991  11.334  0.6892 -0.0259 -0.2396
  652MOL0     C89898   9.332   4.897  11.298  0.5604 -0.0070  0.0636
  652MOL0     C89899   9.250   4.944  11.176  0.0433  0.3762  0.6580
  652MOL0     C89900   9.337   4.997  11.050 -0.6062 -0.0787 -0.0750
  652MOL0     C89901   9.282   5.111  10.959 -0.2268  0.8920 -0.2238
  652MOL0     C89902   9.179   5.055  10.873  0.9403  0.3518  1.4784
  652MOL0     C89903   9.084   5.002  10.813 -0.1106  0.3539 -0.1852
  652MOL0     C89904   9.668   5.058  11.349  0.2022  0.2543  0.0871
  652MOL0     C89905   9.796   5.063  11.296 -0.3712 -0.6126 -0.5169
  652MOL0     C89906   9.892   5.182  11.344  0.4328  0.4890  0.2318
  652MOL0     H89907  10.176   4.950  10.902  1.1861 -1.3100  1.4461
  652MOL0     H89908  10.389   4.960  10.856 -1.3943  2.2236  0.5442
  652MOL0     H89909  10.685   4.980  11.156  3.3934 -1.1254 -0.4888
  652MOL0     H89910  10.717   5.142  11.159 -1.1304 -2.3425  1.4590
  652MOL0     H89911  10.797   4.934  10.956 -0.2310 -0.1331  1.3754
  652MOL0     H89912  10.831   5.110  10.930  0.7484 -0.8610 -1.5762
  652MOL0     H89913  10.965   5.097  11.145  0.3080 -0.5770  0.9433
  652MOL0     H89914  10.923   4.937  11.184  2.0175 -1.1117 -0.9492
  652MOL0     H89915  11.037   4.850  10.969 -0.7433  1.5105 -2.1057
  652MOL0     H89916  11.078   5.013  10.932  2.2625  1.2424  1.6884
  652MOL0     H89917  11.158   4.894  11.188 -2.6786  0.9219 -0.5941
  652MOL0     H89918  11.212   5.035  11.125 -1.1801 -0.5603  0.5141
  652MOL0     H89919  11.242   4.767  10.974 -0.8541  0.1492 -0.0216
  652MOL0     H89920  11.316   4.928  10.925  0.7247  3.7220  3.4334
  652MOL0     H89921  11.383   4.756  11.177  2.2130  0.7611  1.0587
  652MOL0     H89922  11.465   4.901  11.118 -2.2084  1.3839 -1.7620
  652MOL0     H89923  11.579   4.673  11.065  0.1580 -0.5763 -1.4082
  652MOL0     H89924  11.444   4.632  10.969 -2.2913  0.3558 -0.0777
  652MOL0     H89925  11.677   4.966  10.976  1.2792  0.3414 -1.1531
  652MOL0     H89926  11.700   5.159  10.771  2.9898 -0.3831  1.1229
  652MOL0     H89927  11.674   5.085  10.606 -0.2703 -1.7010  0.3421
  652MOL0     H89928  11.911   5.028  10.810 -1.1611 -0.7494  1.1123
  652MOL0     H89929  11.898   4.955  10.652  1.6342 -0.5217  2.0315
  652MOL0     H89930  11.926   5.171  10.550 -1.4740 -1.6593 -0.4459
  652MOL0     H89931  11.910   5.252  10.703 -2.8073  0.2240 -2.3831
  652MOL0     H89932  12.134   5.267  10.627 -2.8169 -0.8284 -4.8672
  652MOL0     H89933  12.129   5.153  10.766 -0.4160  1.1981  0.1441
  652MOL0     H89934  12.374   5.223  10.683 -2.9977 -1.3100  1.8852
  652MOL0     H89935  12.690   5.087  10.755  1.4257  0.6116 -1.7676
  652MOL0     H89936  12.567   5.219  10.782 -0.2803 -0.9926  1.1745
  652MOL0     H89937  12.681   5.230  10.646 -0.1768  0.8074 -0.1697
  652MOL0     H89938  12.886   4.868  10.696  2.9205 -3.2757  0.0889
  652MOL0     H89939  13.104   4.844  10.747 -1.5021  0.4278  1.2351
  652MOL0     H89940  13.324   4.789  10.728  0.9474 -0.6029 -0.4800
  652MOL0     H89941  13.336   4.740  10.561 -1.0610 -1.1447  1.1668
  652MOL0     H89942  13.545   4.694  10.600  1.3604 -0.3527 -1.4937
  652MOL0     H89943  13.554   4.864  10.551 -0.9527  0.6397  0.7286
  652MOL0     H89944  13.587   4.751  10.837 -1.6171  0.0547  1.1103
  652MOL0     H89945  13.518   4.912  10.818  1.3871  0.8739 -0.4773
  652MOL0     H89946  13.694   4.993  10.697 -1.9088 -1.0071 -1.1192
  652MOL0     H89947  13.781   4.841  10.677  2.1711  2.6181 -0.3278
  652MOL0     H89948  13.766   5.010  10.934  1.5706 -0.6859  1.0883
  652MOL0     H89949  13.769   4.838  10.954  2.8837  0.3413  0.7978
  652MOL0     H89950  13.952   4.832  10.797  0.0830  0.4288 -1.0963
  652MOL0     H89951  13.986   4.888  10.961 -1.1105  0.1130 -0.3985
  652MOL0     H89952  13.958   5.130  10.871 -1.9595  1.3422 -2.3477
  652MOL0     H89953  13.969   5.059  10.707  1.9785  3.4696 -1.1077
  652MOL0     H89954  14.181   5.151  10.792  0.3988  0.1483  0.4290
  652MOL0     H89955  14.181   4.969  10.750 -0.5354  0.7464 -0.8316
  652MOL0     H89956  13.231   5.042  10.407 -1.1617  1.2834 -0.5168
  652MOL0     H89957  12.973   5.083  10.340 -1.8000 -1.0165 -0.0771
  652MOL0     H89958  12.474   4.823  10.399 -0.9722  0.0406 -0.3722
  652MOL0     H89959  12.244   4.897  10.434  1.2588  0.3380 -2.1944
  652MOL0     H89960  10.462   5.203  11.204 -0.7386  2.5178 -0.5517
  652MOL0     H89961  10.216   5.182  11.259 -0.9463  0.0713 -0.9939
  652MOL0     H89962   9.769   4.791  11.102 -0.8403  2.9283 -3.6755
  652MOL0     H89963   9.545   4.807  11.153  1.5552 -2.3348  0.0790
  652MOL0     H89964   9.368   4.797  11.271 -1.6689 -0.3263 -2.1015
  652MOL0     H89965   9.262   4.887  11.381  0.7054  0.6279  0.2669
  652MOL0     H89966   9.189   5.025  11.216 -2.0417  0.0790 -1.6597
  652MOL0     H89967   9.171   4.885  11.129 -0.8831  1.3781  0.9081
  652MOL0     H89968   9.425   5.041  11.096 -0.4841 -1.0109  0.5946
  652MOL0     H89969   9.385   4.918  10.992  0.5317  0.3842  0.1999
  652MOL0     H89970   9.372   5.151  10.909  0.2557 -0.1897 -0.2421
  652MOL0     H89971   9.244   5.192  11.021  3.4284  0.8060  2.4822
  652MOL0     H89972   8.991   4.959  10.781 -2.3819  4.0018  0.7989
  652MOL0     H89973   9.648   5.108  11.443 -0.3873 -2.7130  1.6493
  652MOL0     H89974   9.909   5.247  11.258  1.5028 -0.8176 -0.5968
  652MOL0     H89975   9.859   5.239  11.431 -5.1126  1.9267 -2.3408
  652MOL0     H89976   9.994   5.148  11.364  0.0039 -1.2190 -0.2854
  653MOL0     O89977  10.661  11.411  10.337 -0.8404  0.0400  0.1205
  653MOL0     C89978  10.667  11.375  10.455 -0.5484  0.3073  0.1566
  653MOL0     O89979  10.647  11.239  10.500  0.2045 -0.4684 -0.1276
  653MOL0     C89980  10.628  11.128  10.421  0.7130  0.5044  0.8092
  653MOL0     C89981  10.515  11.052  10.463  0.6069  0.6648 -0.1637
  653MOL0     C89982  10.483  10.932  10.389 -0.2362  0.2367 -0.4745
  653MOL0     C89983  10.558  10.893  10.278  0.1111  0.5612  0.2346
  653MOL0     O89984  10.518  10.768  10.231 -0.4769 -0.3795 -0.3104
  653MOL0     C89985  10.531  10.752  10.096 -0.8871 -0.0339 -0.1522
  653MOL0     C89986  10.444  10.635  10.056  0.1322  0.2574  0.0558
  653MOL0     C89987  10.490  10.492  10.080  0.6927 -0.0427 -0.4597
  653MOL0     C89988  10.384  10.384  10.094 -0.6674 -0.1897  0.7163
  653MOL0     C89989  10.436  10.248  10.095 -0.4579 -0.1136  0.7022
  653MOL0     C89990  10.329  10.141  10.111  0.3298 -0.2492 -0.0600
  653MOL0     C89991  10.386  10.000  10.104  0.6619  0.2553 -0.1010
  653MOL0     C89992  10.280   9.895  10.132  0.2509  0.1908 -0.0195
  653MOL0     N89993  10.336   9.761  10.082  0.0492 -0.4464  0.1416
  653MOL0     C89994  10.380   9.658  10.158  0.1582 -0.8103 -0.5947
  653MOL0     C89995  10.396   9.554  10.077 -0.7151  0.1325  0.1983
  653MOL0     C89996  10.425   9.414  10.122 -0.4434  0.4974 -0.8286
  653MOL0     C89997  10.576   9.379  10.121  0.2603 -0.3481 -0.0281
  653MOL0     C89998  10.590   9.229  10.161 -0.9898 -0.1623  0.1337
  653MOL0     C89999  10.733   9.179  10.133  0.7003  0.1097 -0.0327
  653MOL0     O90000  10.743   9.046  10.175 -0.0570  0.4198 -0.0300
  653MOL0     C90001  10.864   9.007  10.230  0.1854  0.1121 -0.0847
  653MOL0     C90002  10.984   9.077  10.234  0.9282  0.7937 -0.3918
  653MOL0     C90003  11.098   9.009  10.289  0.5617 -0.8340 -0.1135
  653MOL0     C90004  11.220   9.095  10.320  1.2731  0.3143  0.8646
  653MOL0     C90005  11.092   8.875  10.333  0.3187  0.1849 -0.5682
  653MOL0     C90006  11.211   8.809  10.389 -0.2849 -0.0861 -0.5609
  653MOL0     O90007  11.176   8.741  10.505 -0.1132  0.0735  0.9731
  653MOL0     C90008  11.283   8.706  10.580 -0.0321  0.2581 -0.0931
  653MOL0     C90009  11.350   8.794  10.671  0.3514 -0.0554  0.2041
  653MOL0     C90010  11.450   8.733  10.749  0.4540  0.2956  0.1700
  653MOL0     C90011  11.492   8.602  10.739 -0.3114  0.2089  0.4953
  653MOL0     O90012  11.570   8.559  10.843 -0.5134  0.6867 -0.4892
  653MOL0     C90013  11.713   8.577  10.835 -0.0994  0.0983  0.1352
  653MOL0     C90014  11.774   8.437  10.864  0.5384 -0.0244 -0.1503
  653MOL0     C90015  11.927   8.420  10.816 -0.0516  0.0788  0.1818
  653MOL0     C90016  11.987   8.280  10.832  0.5282  0.5268 -0.5267
  653MOL0     C90017  12.133   8.279  10.782 -0.3082 -0.2418  0.9049
  653MOL0     C90018  12.239   8.240  10.882 -0.6311 -0.4923 -0.5634
  653MOL0     C90019  12.237   8.095  10.938 -0.1776 -0.0095  0.3318
  653MOL0     C90020  12.247   7.988  10.839 -0.5473  0.5084  0.2947
  653MOL0    Cl90021  12.236   7.834  10.938 -0.0882  0.2014 -0.2754
  653MOL0     C90022  11.414   8.521  10.661  0.2691  0.1095  0.1135
  653MOL0     C90023  11.310   8.566  10.574 -0.5813 -0.5358 -0.4884
  653MOL0     O90024  11.320   8.827  10.340 -0.3485  0.3951  0.0127
  653MOL0     C90025  10.970   8.808  10.317 -0.1089 -0.2665  0.2340
  653MOL0     C90026  10.856   8.871  10.268 -0.4782  0.0351  0.1870
  653MOL0     N90027  10.372   9.590   9.945 -0.7218  0.4166 -0.6158
  653MOL0     N90028  10.347   9.714   9.951 -0.0974  0.1449 -1.1709
  653MOL0     C90029  10.672  10.966  10.241 -0.4683 -0.8435 -0.9404
  653MOL0     C90030  10.705  11.084  10.309  0.1088 -0.0822 -0.1453
  653MOL0     C90031  10.698  11.470  10.562 -0.0559 -0.8115  0.1087
  653MOL0     C90032  10.703  11.427  10.699 -0.3935 -0.3688  0.3166
  653MOL0     C90033  10.745  11.511  10.800 -0.1853 -0.6922  0.2799
  653MOL0     C90034  10.795  11.642  10.770 -0.2353  0.8407  0.6547
  653MOL0     O90035  10.852  11.730  10.855  0.1181  0.1060  0.8997
  653MOL0     C90036  10.964  11.677  10.918  0.3097 -0.0785 -0.2770
  653MOL0     C90037  11.085  11.779  10.921  0.5365 -0.2347 -0.7677
  653MOL0     C90038  11.070  11.892  11.023  0.5298  0.0373  1.1948
  653MOL0     C90039  11.182  12.007  11.014  0.1363  0.9174 -0.2254
  653MOL0     C90040  11.319  11.958  11.035  0.9230  0.3038  0.3745
  653MOL0     C90041  11.435  11.928  11.048 -0.0834  0.5244  0.3387
  653MOL0     C90042  10.776  11.687  10.641  0.2281  1.0885  0.7428
  653MOL0     C90043  10.731  11.603  10.534  0.4501  0.3510  0.0455
  653MOL0     C90044  10.733  11.670  10.393  0.2535 -0.3278 -0.8098
  653MOL0     H90045  10.465  11.080  10.555 -0.4549  0.3216 -0.6249
  653MOL0     H90046  10.393  10.876  10.411 -1.4956  1.3107 -2.6062
  653MOL0     H90047  10.634  10.732  10.065  0.1205  1.3083  2.0728
  653MOL0     H90048  10.502  10.842  10.042 -0.2502 -0.4263 -1.1714
  653MOL0     H90049  10.345  10.655  10.098  0.8147  0.4724  1.6554
  653MOL0     H90050  10.431  10.647   9.948  0.2635  0.3449  0.0495
  653MOL0     H90051  10.554  10.478   9.992 -0.9240 -1.8262 -1.4178
  653MOL0     H90052  10.556  10.475  10.166  1.0319 -1.0308 -0.8962
  653MOL0     H90053  10.334  10.410  10.187 -0.8565  2.1259  0.0193
  653MOL0     H90054  10.319  10.400  10.007  2.0528 -0.1927 -1.4815
  653MOL0     H90055  10.507  10.222  10.174  0.1155 -0.6153  0.0415
  653MOL0     H90056  10.478  10.223   9.997  1.7928  2.9292  0.7622
  653MOL0     H90057  10.297  10.150  10.216  0.6634 -2.3494  0.2766
  653MOL0     H90058  10.248  10.152  10.039  0.3433 -0.5210 -0.1207
  653MOL0     H90059  10.462   9.991  10.182  0.3986  2.3543  0.4538
  653MOL0     H90060  10.429   9.988  10.004 -2.1739  2.2892 -1.7140
  653MOL0     H90061  10.258   9.879  10.238 -0.4658  0.5377 -0.1135
  653MOL0     H90062  10.189   9.914  10.074 -1.5852 -2.7572  1.6826
  653MOL0     H90063  10.392   9.659  10.266  0.8077  1.0689 -0.6496
  653MOL0     H90064  10.365   9.340  10.069  1.3842 -0.0719 -2.2071
  653MOL0     H90065  10.398   9.399  10.227  1.7487 -0.8282 -0.4041
  653MOL0     H90066  10.609   9.386  10.017 -0.4252 -1.8620 -0.3666
  653MOL0     H90067  10.636   9.444  10.186 -0.5219  0.2946  0.0759
  653MOL0     H90068  10.563   9.198  10.262 -0.1488 -0.8748  0.1586
  653MOL0     H90069  10.524   9.168  10.098 -0.0778 -2.8948  1.6239
  653MOL0     H90070  10.767   9.185  10.029 -0.3552 -2.3645 -0.6005
  653MOL0     H90071  10.805   9.233  10.194  2.4625  1.7898 -3.3039
  653MOL0     H90072  10.997   9.172  10.183 -1.0986  1.0695 -0.4622
  653MOL0     H90073  11.281   9.044  10.394 -0.5293 -2.7167  0.4028
  653MOL0     H90074  11.199   9.198  10.350  0.0299  1.4132 -3.0706
  653MOL0     H90075  11.282   9.106  10.230  3.7435  1.3248  2.6102
  653MOL0     H90076  11.326   8.899  10.678  3.3674  0.6136  2.2253
  653MOL0     H90077  11.493   8.784  10.834  3.2314 -0.3233 -0.7536
  653MOL0     H90078  11.753   8.600  10.736  0.1062  0.3203  0.2670
  653MOL0     H90079  11.752   8.645  10.912  1.8845  3.8465 -3.7168
  653MOL0     H90080  11.767   8.409  10.969  0.6612 -3.0482 -0.8424
  653MOL0     H90081  11.729   8.360  10.800  0.5006 -0.6895  0.6719
  653MOL0     H90082  11.989   8.493  10.870 -1.0215  1.1754 -0.1406
  653MOL0     H90083  11.940   8.454  10.712 -2.5808  2.3494  0.4857
  653MOL0     H90084  11.916   8.217  10.777 -1.6192  2.5300 -0.1560
  653MOL0     H90085  11.995   8.262  10.939  2.1800  1.1620 -0.5103
  653MOL0     H90086  12.140   8.218  10.692 -3.2199  1.6251 -0.7251
  653MOL0     H90087  12.156   8.381  10.748 -0.2518 -0.3763  0.5326
  653MOL0     H90088  12.236   8.318  10.958 -0.1110  0.0142 -1.0538
  653MOL0     H90089  12.335   8.250  10.830 -0.0010 -0.0279  0.6539
  653MOL0     H90090  12.138   8.091  10.983 -0.5543  0.1994 -0.4523
  653MOL0     H90091  12.304   8.080  11.023 -0.1568 -3.1029 -0.0836
  653MOL0     H90092  12.348   7.991  10.799 -1.7619 -0.3117 -3.1423
  653MOL0     H90093  12.172   7.997  10.760  1.2391 -0.6315 -1.6059
  653MOL0     H90094  11.449   8.418  10.659  2.1674  0.5325  3.2060
  653MOL0     H90095  11.269   8.492  10.505 -0.3651 -0.8190 -0.3122
  653MOL0     H90096  10.963   8.704  10.349 -2.0003  0.1543  1.3300
  653MOL0     H90097  10.761   8.819  10.271  0.1905 -1.4035 -1.6896
  653MOL0     H90098  10.734  10.940  10.156  2.9970 -1.0278  1.4232
  653MOL0     H90099  10.789  11.140  10.269  0.6968 -0.9982 -0.2263
  653MOL0     H90100  10.672  11.326  10.725 -1.3471  0.1730  1.4176
  653MOL0     H90101  10.749  11.481  10.904 -2.0058 -1.9439  0.0360
  653MOL0     H90102  10.937  11.642  11.018 -0.1817 -0.4896 -0.5521
  653MOL0     H90103  11.002  11.589  10.865  0.1129 -1.6018  2.0116
  653MOL0     H90104  11.116  11.807  10.820 -0.1966 -0.8022 -1.1584
  653MOL0     H90105  11.173  11.722  10.953 -1.8392 -2.8624  1.7286
  653MOL0     H90106  10.979  11.951  11.013  1.4828  1.5617  1.2910
  653MOL0     H90107  11.072  11.849  11.124  0.8727  0.6307  1.4470
  653MOL0     H90108  11.153  12.079  11.092 -0.9903 -1.5231  1.7755
  653MOL0     H90109  11.177  12.051  10.915  1.3219  2.2473  0.2696
  653MOL0     H90110  11.532  11.888  11.068 -1.8099 -2.9709  2.9338
  653MOL0     H90111  10.811  11.789  10.624  2.3488  0.2292 -0.3066
  653MOL0     H90112  10.769  11.773  10.390 -1.6870  0.3768 -1.9298
  653MOL0     H90113  10.788  11.631  10.307  2.3067 -1.2178  0.8220
  653MOL0     H90114  10.629  11.679  10.359 -0.3775 -3.4976 -0.0815
  654MOL0     O90115   8.059   7.564   1.696 -0.4045 -0.6420  0.1905
  654MOL0     C90116   8.091   7.451   1.671 -0.3983 -0.1938 -0.7878
  654MOL0     O90117   8.037   7.383   1.569 -0.2170  0.0224 -0.1006
  654MOL0     C90118   7.980   7.446   1.452 -0.3393  0.0459  0.1058
  654MOL0     C90119   7.933   7.352   1.361 -0.1369  0.1400 -0.3439
  654MOL0     C90120   7.907   7.377   1.231  0.0318 -0.1415  1.0171
  654MOL0     C90121   7.896   7.513   1.186 -0.2517 -0.5041  0.0842
  654MOL0     O90122   7.849   7.556   1.063 -0.0512 -0.2191 -0.5275
  654MOL0     C90123   7.778   7.461   0.979 -0.4460 -0.9117  1.2070
  654MOL0     C90124   7.877   7.393   0.882 -0.9563 -0.4910  0.8211
  654MOL0     C90125   7.820   7.324   0.760  0.1376 -0.1716 -0.2314
  654MOL0     C90126   7.779   7.179   0.804  0.1110 -0.5321 -0.2043
  654MOL0     C90127   7.715   7.105   0.683  0.1828 -0.3562 -0.6058
  654MOL0     C90128   7.648   7.186   0.582  0.6874 -0.4102 -0.6196
  654MOL0     C90129   7.571   7.114   0.473  1.5393 -0.5073 -0.0819
  654MOL0     C90130   7.664   7.034   0.371 -0.5158 -0.3507 -0.3159
  654MOL0     N90131   7.747   7.128   0.292 -0.9725  0.2572 -0.2901
  654MOL0     C90132   7.872   7.179   0.327  0.1421 -0.1485 -0.1048
  654MOL0     C90133   7.889   7.284   0.244 -0.4402 -0.0971 -0.5270
  654MOL0     C90134   8.013   7.360   0.224  0.1278  0.8972  0.2441
  654MOL0     C90135   8.093   7.325   0.093  0.2388 -0.2960  0.4291
  654MOL0     C90136   8.163   7.194   0.118 -0.3865  0.7256  0.2658
  654MOL0     C90137   8.243   7.159  -0.009  0.8056  0.3465  0.9855
  654MOL0     O90138   8.158   7.118  -0.121 -0.7743 -0.2541  0.1074
  654MOL0     C90139   8.208   7.119  -0.245  0.0895 -0.4755 -0.8614
  654MOL0     C90140   8.121   7.099  -0.347 -0.0692 -0.8247  0.7964
  654MOL0     C90141   8.167   7.094  -0.483  0.6347 -0.9533 -0.7094
  654MOL0     C90142   8.059   7.061  -0.585  0.3344 -0.8502  0.7963
  654MOL0     C90143   8.301   7.108  -0.512  0.6230  0.2956 -0.4470
  654MOL0     C90144   8.364   7.086  -0.643 -0.9662  0.5709 -0.2506
  654MOL0     O90145   8.461   7.178  -0.673  0.1315  0.1734 -0.2044
  654MOL0     C90146   8.521   7.166  -0.799 -0.5451 -0.5678  0.1952
  654MOL0     C90147   8.487   7.261  -0.902 -0.5300  0.4911 -0.8105
  654MOL0     C90148   8.550   7.253  -1.026 -0.2494  0.4666 -0.2810
  654MOL0     C90149   8.637   7.150  -1.055 -0.4084  0.2260  1.0305
  654MOL0     O90150   8.699   7.158  -1.178  0.1165 -1.4005 -0.0705
  654MOL0     C90151   8.728   7.031  -1.241 -0.6801 -0.0056  0.0901
  654MOL0     C90152   8.784   7.062  -1.380  0.0809  0.1810  0.0381
  654MOL0     C90153   8.740   6.953  -1.484  0.8723  0.1400  0.3052
  654MOL0     C90154   8.782   6.984  -1.631  0.1884 -0.2969  0.6541
  654MOL0     C90155   8.679   6.917  -1.720 -0.1161  1.0430 -0.4475
  654MOL0     C90156   8.712   6.925  -1.864  0.4368 -0.1945  0.0569
  654MOL0     C90157   8.599   6.871  -1.958  0.7448 -0.6249  0.4705
  654MOL0     C90158   8.659   6.866  -2.104 -0.1222 -0.1787  0.5628
  654MOL0    Cl90159   8.529   6.866  -2.234 -0.2561 -0.4334  0.1838
  654MOL0     C90160   8.687   7.065  -0.950  0.3923  0.1281 -0.5811
  654MOL0     C90161   8.625   7.082  -0.821  0.5549  0.2741 -1.1926
  654MOL0     O90162   8.323   6.991  -0.712 -0.2277 -1.2810 -0.3051
  654MOL0     C90163   8.387   7.139  -0.405 -0.1338  0.2831 -0.2312
  654MOL0     C90164   8.343   7.136  -0.275 -0.3416 -0.3673  0.4149
  654MOL0     N90165   7.780   7.300   0.162 -0.4227  0.1962  0.4631
  654MOL0     N90166   7.703   7.200   0.181 -0.1113 -0.0516  0.0308
  654MOL0     C90167   7.944   7.613   1.276 -0.0171 -0.5427  0.0905
  654MOL0     C90168   7.994   7.577   1.404  0.5155  0.8355 -0.8338
  654MOL0     C90169   8.152   7.360   1.776  0.2666 -0.5114  0.0269
  654MOL0     C90170   8.147   7.216   1.771 -0.1242 -0.1869  0.6547
  654MOL0     C90171   8.209   7.144   1.876  0.7052  0.4682 -0.0085
  654MOL0     C90172   8.270   7.201   1.980 -0.0917  0.1240 -0.0230
  654MOL0     O90173   8.331   7.123   2.077  0.0019  0.2890  0.1342
  654MOL0     C90174   8.259   7.005   2.133 -0.1304  0.7117 -0.6342
  654MOL0     C90175   8.335   6.964   2.257 -0.3465  0.3152  0.2667
  654MOL0     C90176   8.464   6.887   2.233 -0.0551 -0.3638  0.2678
  654MOL0     C90177   8.537   6.871   2.364  0.8067 -0.7420  0.5878
  654MOL0     C90178   8.492   6.771   2.462  0.4589  0.6322 -0.4884
  654MOL0     C90179   8.444   6.712   2.557  0.4633  0.2148  0.4792
  654MOL0     C90180   8.297   7.340   1.984  0.4188  0.8718 -0.0627
  654MOL0     C90181   8.224   7.419   1.889  1.1141 -0.9032  0.2081
  654MOL0     C90182   8.248   7.568   1.900 -0.1176  0.6830 -0.3591
  654MOL0     H90183   7.941   7.247   1.385  1.6471  0.0377 -1.2626
  654MOL0     H90184   7.878   7.299   1.161  1.2666 -1.5464  2.0231
  654MOL0     H90185   7.701   7.511   0.918 -1.6787 -0.1878  3.2495
  654MOL0     H90186   7.714   7.388   1.028 -0.3446 -2.7747 -1.2406
  654MOL0     H90187   7.941   7.477   0.853  0.4096 -2.1988 -1.4860
  654MOL0     H90188   7.935   7.327   0.946  0.8190 -0.3813 -0.5862
  654MOL0     H90189   7.734   7.383   0.728  1.2173  1.3908 -0.3932
  654MOL0     H90190   7.891   7.310   0.678  0.1712  1.0691 -0.4368
  654MOL0     H90191   7.858   7.120   0.852 -0.8728  0.6629  3.1724
  654MOL0     H90192   7.699   7.170   0.877  0.3615 -5.5455 -0.2289
  654MOL0     H90193   7.646   7.035   0.730  0.5969 -0.9007 -0.7921
  654MOL0     H90194   7.786   7.039   0.632 -1.1510 -2.6028  0.2835
  654MOL0     H90195   7.577   7.247   0.638 -0.7544 -0.3257 -2.4275
  654MOL0     H90196   7.719   7.243   0.523 -1.4857  0.8426 -2.1823
  654MOL0     H90197   7.512   7.186   0.416  2.7391 -0.6433 -1.5476
  654MOL0     H90198   7.502   7.050   0.529  1.0249  1.4950  1.7084
  654MOL0     H90199   7.737   6.972   0.423 -0.2172 -0.3519 -0.7371
  654MOL0     H90200   7.596   6.967   0.318 -0.6299 -1.7575  1.5172
  654MOL0     H90201   7.946   7.146   0.400 -0.5825  1.7971  1.6010
  654MOL0     H90202   8.071   7.352   0.317  2.5843 -0.1400 -1.2732
  654MOL0     H90203   7.985   7.466   0.223 -0.2921  0.7888 -0.7662
  654MOL0     H90204   8.026   7.307   0.008  1.2752 -1.1217 -0.2370
  654MOL0     H90205   8.161   7.406   0.065 -0.5456  0.7159  1.3430
  654MOL0     H90206   8.242   7.209   0.193  1.2062 -0.5020 -1.0737
  654MOL0     H90207   8.090   7.123   0.158 -1.8278  1.7361 -0.5286
  654MOL0     H90208   8.294   7.251  -0.040 -2.6583  1.7712 -1.0812
  654MOL0     H90209   8.309   7.074   0.009 -2.6307 -2.7787  0.0791
  654MOL0     H90210   8.013   7.093  -0.331 -0.2085 -4.0756 -0.4789
  654MOL0     H90211   8.065   6.959  -0.624  1.1083  0.0150 -1.4811
  654MOL0     H90212   8.070   7.131  -0.668  0.6018 -1.5813  0.1992
  654MOL0     H90213   7.961   7.083  -0.543 -0.9836 -0.3078 -2.3142
  654MOL0     H90214   8.411   7.334  -0.877  0.6478  0.7366  2.5852
  654MOL0     H90215   8.524   7.318  -1.109  3.1245  1.7413 -0.4824
  654MOL0     H90216   8.791   6.962  -1.184 -2.5998 -1.6449  0.3766
  654MOL0     H90217   8.639   6.969  -1.258 -0.5014  0.2132 -1.8951
  654MOL0     H90218   8.755   7.161  -1.415  0.7964  0.5106  0.3808
  654MOL0     H90219   8.892   7.048  -1.380 -0.0177 -1.0133 -1.7342
  654MOL0     H90220   8.631   6.947  -1.473  1.0819 -0.7474  2.6292
  654MOL0     H90221   8.789   6.859  -1.455  2.0169  0.8518  0.7732
  654MOL0     H90222   8.883   6.945  -1.645 -0.5765 -1.2340 -3.2857
  654MOL0     H90223   8.774   7.092  -1.645 -0.5642 -0.2565  1.2943
  654MOL0     H90224   8.671   6.812  -1.689  2.0382  0.4386 -1.7142
  654MOL0     H90225   8.581   6.961  -1.698 -1.2061 -2.7081  3.6628
  654MOL0     H90226   8.811   6.881  -1.882  0.6275  0.0846  0.4116
  654MOL0     H90227   8.726   7.029  -1.893  4.7499 -0.7071 -0.5153
  654MOL0     H90228   8.508   6.932  -1.962  2.0595  1.5458 -3.9013
  654MOL0     H90229   8.565   6.771  -1.930  2.5053 -0.4462  3.6468
  654MOL0     H90230   8.722   6.776  -2.110  0.8052  0.5458 -1.2449
  654MOL0     H90231   8.724   6.952  -2.122 -1.0140  0.3528 -0.1485
  654MOL0     H90232   8.773   6.999  -0.958 -0.1084 -0.4618 -1.2925
  654MOL0     H90233   8.652   7.006  -0.748  2.2234 -0.8176 -2.8348
  654MOL0     H90234   8.495   7.150  -0.409  0.0691 -1.2354  0.4935
  654MOL0     H90235   8.414   7.157  -0.196 -2.5122 -0.1929  2.3999
  654MOL0     H90236   7.949   7.714   1.238 -0.8552 -0.6354 -0.3015
  654MOL0     H90237   8.050   7.648   1.463  1.5934 -1.3359  0.8662
  654MOL0     H90238   8.086   7.166   1.696 -2.5351  1.9168  1.0799
  654MOL0     H90239   8.197   7.036   1.887 -1.6720  0.4447 -2.0130
  654MOL0     H90240   8.150   7.012   2.137 -0.3420 -0.8451 -2.5022
  654MOL0     H90241   8.269   6.920   2.065 -1.2961 -0.1048  0.1900
  654MOL0     H90242   8.263   6.898   2.308 -2.4407  0.6654 -2.0344
  654MOL0     H90243   8.340   7.052   2.323  0.9974 -1.5574  2.8353
  654MOL0     H90244   8.429   6.796   2.183 -1.8699  0.6337 -0.3544
  654MOL0     H90245   8.526   6.938   2.159 -0.1775  1.4244  1.3388
  654MOL0     H90246   8.536   6.968   2.415 -2.9535  0.6369 -1.6985
  654MOL0     H90247   8.639   6.853   2.330  0.4978  0.0784 -0.8504
  654MOL0     H90248   8.409   6.656   2.641  0.1023  0.6441  0.6192
  654MOL0     H90249   8.345   7.387   2.069  1.3571 -0.0023 -0.1006
  654MOL0     H90250   8.336   7.586   1.961  1.0026  1.2835 -2.0965
  654MOL0     H90251   8.264   7.618   1.804 -1.7605 -0.1362 -1.0970
  654MOL0     H90252   8.166   7.626   1.944  1.2399  2.8590 -0.5566
  655MOL0     O90253   7.257  10.327   7.107  0.9858 -0.1477 -0.2025
  655MOL0     C90254   7.208  10.219   7.143 -0.0777 -0.7334 -0.6662
  655MOL0     O90255   7.191  10.166   7.265 -0.1146 -0.3767 -0.5897
  655MOL0     C90256   7.247  10.239   7.360  0.3034 -0.6568 -0.2915
  655MOL0     C90257   7.386  10.233   7.383  0.8808 -0.7825  0.2059
  655MOL0     C90258   7.434  10.319   7.485 -0.7659  0.0360  0.0985
  655MOL0     C90259   7.362  10.415   7.544 -0.1663 -0.2115  0.0794
  655MOL0     O90260   7.419  10.508   7.621 -0.5831 -0.2839 -0.0987
  655MOL0     C90261   7.350  10.565   7.736  0.7492  0.0467 -0.7541
  655MOL0     C90262   7.442  10.588   7.858 -0.0383 -0.0211 -0.3086
  655MOL0     C90263   7.561  10.682   7.820 -0.2804 -1.2966  0.1212
  655MOL0     C90264   7.660  10.683   7.935  0.2013 -0.0942 -0.2132
  655MOL0     C90265   7.804  10.737   7.904  0.6340 -0.8976  0.7449
  655MOL0     C90266   7.883  10.786   8.028  0.7087  0.3179  0.2024
  655MOL0     C90267   7.942  10.672   8.097  0.0330  0.2045 -0.0843
  655MOL0     C90268   8.021  10.728   8.221 -0.6432 -0.1486 -0.1803
  655MOL0     N90269   8.127  10.632   8.269  0.0099 -0.7568  0.0468
  655MOL0     C90270   8.226  10.669   8.361 -0.1787  0.3785  0.8523
  655MOL0     C90271   8.311  10.562   8.354  0.5489 -0.0859  0.0192
  655MOL0     C90272   8.433  10.544   8.439  0.2636 -0.8641  0.3487
  655MOL0     C90273   8.396  10.537   8.583 -0.2131  0.4690  0.5525
  655MOL0     C90274   8.514  10.475   8.668 -0.1454  0.8936 -0.2445
  655MOL0     C90275   8.634  10.571   8.657 -0.7636  0.4037 -0.2344
  655MOL0     O90276   8.605  10.700   8.703 -0.4474  0.3903  0.8151
  655MOL0     C90277   8.700  10.800   8.666  0.8269  0.5929 -0.1164
  655MOL0     C90278   8.671  10.921   8.717  0.2494  0.1905 -0.6532
  655MOL0     C90279   8.752  11.030   8.696  0.1684  0.3766 -0.0987
  655MOL0     C90280   8.700  11.159   8.746 -1.5610 -0.4216 -0.0146
  655MOL0     C90281   8.877  11.014   8.624  0.0712 -0.1000  0.0142
  655MOL0     C90282   8.966  11.124   8.574  0.0897  0.4288 -0.7081
  655MOL0     O90283   9.098  11.117   8.582 -0.2943  0.2248 -0.2383
  655MOL0     C90284   9.172  11.214   8.525  0.0299  0.5895 -0.1067
  655MOL0     C90285   9.225  11.192   8.398 -0.1195 -0.4011 -0.0258
  655MOL0     C90286   9.295  11.294   8.339 -0.6509  0.2759 -0.8057
  655MOL0     C90287   9.334  11.418   8.405  0.5681  0.5659 -0.0274
  655MOL0     O90288   9.416  11.512   8.348 -0.2577 -0.3942  0.2551
  655MOL0     C90289   9.443  11.496   8.205 -0.3636 -0.6566  1.1311
  655MOL0     C90290   9.490  11.623   8.141 -0.3611 -0.3562  0.0690
  655MOL0     C90291   9.623  11.665   8.187  0.5265 -0.0392  0.2030
  655MOL0     C90292   9.685  11.775   8.100  0.1179 -0.2552 -0.0476
  655MOL0     C90293   9.798  11.825   8.190 -0.4488  0.1031 -0.4833
  655MOL0     C90294   9.924  11.879   8.116 -0.5934 -0.3630  0.5069
  655MOL0     C90295  10.069  11.843   8.170 -0.9310 -0.0583 -0.8740
  655MOL0     C90296  10.170  11.924   8.092 -0.3745 -0.4299 -0.4432
  655MOL0    Cl90297  10.337  11.862   8.089 -0.1215 -0.2154  0.2992
  655MOL0     C90298   9.287  11.431   8.528  0.5124 -0.4307 -0.9104
  655MOL0     C90299   9.204  11.330   8.586  0.5534 -0.4252 -0.0984
  655MOL0     O90300   8.905  11.218   8.519  0.3976 -0.1635  0.1256
  655MOL0     C90301   8.906  10.886   8.577  0.4474  0.2008 -0.1411
  655MOL0     C90302   8.816  10.783   8.601  0.4825 -0.7793 -0.5509
  655MOL0     N90303   8.258  10.462   8.275  0.3401 -0.1036  0.1829
  655MOL0     N90304   8.144  10.501   8.242  1.0338  0.3084  0.0459
  655MOL0     C90305   7.223  10.420   7.515 -0.1829  0.3210  0.6570
  655MOL0     C90306   7.164  10.327   7.420  0.0528 -0.4412 -0.2750
  655MOL0     C90307   7.162  10.135   7.032 -0.5441  0.1249 -0.9342
  655MOL0     C90308   7.243  10.032   7.001 -0.5061  0.9219 -0.1581
  655MOL0     C90309   7.230   9.963   6.880  0.7056  0.6508  0.3756
  655MOL0     C90310   7.129   9.985   6.789  0.0493  0.7085 -0.2967
  655MOL0     O90311   7.128   9.907   6.673 -0.4358 -0.5808 -0.0732
  655MOL0     C90312   7.007   9.908   6.598 -0.1857 -0.7933 -0.9372
  655MOL0     C90313   6.975   9.774   6.520 -0.0478  0.3077  0.0567
  655MOL0     C90314   6.827   9.753   6.484 -1.0981  0.0368 -0.3007
  655MOL0     C90315   6.776   9.843   6.368  0.3207  0.4544 -0.9915
  655MOL0     C90316   6.645   9.795   6.337  0.2332  0.4339  0.5747
  655MOL0     C90317   6.541   9.755   6.296 -0.3405 -0.1578  0.1727
  655MOL0     C90318   7.029  10.075   6.833  0.1314  0.4871  0.3539
  655MOL0     C90319   7.050  10.149   6.945  0.4250  0.4403  0.8834
  655MOL0     C90320   6.953  10.262   6.974 -0.9734 -0.4998 -0.6503
  655MOL0     H90321   7.454  10.156   7.350  0.5100 -1.2783  0.5814
  655MOL0     H90322   7.533  10.306   7.527 -0.1392  3.1289 -0.2049
  655MOL0     H90323   7.266  10.501   7.764  2.2194 -1.0140  1.5483
  655MOL0     H90324   7.310  10.662   7.704  1.2800  1.7685  3.2813
  655MOL0     H90325   7.380  10.635   7.935  1.5335  1.7058 -0.0336
  655MOL0     H90326   7.487  10.493   7.886  2.3860  0.8145 -1.0936
  655MOL0     H90327   7.619  10.638   7.739 -0.8940  1.5238 -2.0127
  655MOL0     H90328   7.531  10.782   7.789  0.3361 -1.3776 -0.7623
  655MOL0     H90329   7.619  10.745   8.015 -0.2341 -0.9849  0.2728
  655MOL0     H90330   7.671  10.577   7.959 -0.5125 -1.3134 -4.4221
  655MOL0     H90331   7.782  10.825   7.843  1.6236 -0.0823  1.5410
  655MOL0     H90332   7.865  10.671   7.843  0.5711 -1.0547  0.8501
  655MOL0     H90333   7.960  10.859   8.002  4.1265 -3.2968 -0.7949
  655MOL0     H90334   7.817  10.832   8.101  0.4824  1.1418 -0.5131
  655MOL0     H90335   8.012  10.621   8.030 -1.4536 -2.1268  0.0390
  655MOL0     H90336   7.871  10.594   8.128  1.0240 -0.7737 -0.1943
  655MOL0     H90337   8.074  10.813   8.177 -0.2355 -1.0034 -1.3904
  655MOL0     H90338   7.955  10.777   8.293 -0.8818  0.9805 -1.1394
  655MOL0     H90339   8.228  10.755   8.426 -3.0390  1.5058 -0.3852
  655MOL0     H90340   8.505  10.625   8.423 -1.9817  1.5165  1.4049
  655MOL0     H90341   8.487  10.450   8.434  1.6645 -0.1126  0.8692
  655MOL0     H90342   8.374  10.634   8.628  1.3097  0.3804  1.5786
  655MOL0     H90343   8.307  10.476   8.599 -2.2811  3.5529  1.6251
  655MOL0     H90344   8.489  10.469   8.774 -0.2623 -1.6717 -0.3613
  655MOL0     H90345   8.539  10.373   8.638 -2.4271  0.6108 -1.4020
  655MOL0     H90346   8.715  10.541   8.725 -2.6090 -0.1401  1.8690
  655MOL0     H90347   8.677  10.577   8.557  1.7862 -1.9611  0.6098
  655MOL0     H90348   8.577  10.936   8.770  0.4829  1.9045 -0.6870
  655MOL0     H90349   8.652  11.137   8.842 -1.6653  1.5729  0.4474
  655MOL0     H90350   8.634  11.208   8.674  0.2557 -0.8787 -2.0922
  655MOL0     H90351   8.786  11.225   8.763 -0.5463 -1.4016 -1.1269
  655MOL0     H90352   9.192  11.111   8.334  1.6853 -0.3297 -1.0986
  655MOL0     H90353   9.310  11.264   8.235  2.0400 -1.7255  0.0453
  655MOL0     H90354   9.512  11.412   8.196 -0.4740 -0.9054  2.4006
  655MOL0     H90355   9.356  11.479   8.141  0.2157 -0.7926  0.3675
  655MOL0     H90356   9.504  11.598   8.035 -1.2508 -0.8160  0.0482
  655MOL0     H90357   9.423  11.709   8.138  1.8070  1.3733 -1.3753
  655MOL0     H90358   9.689  11.580   8.170  1.1635  0.5110 -0.1492
  655MOL0     H90359   9.619  11.693   8.292  3.2342  1.8504 -0.0901
  655MOL0     H90360   9.618  11.858   8.075  2.4914  1.9064  0.3911
  655MOL0     H90361   9.722  11.731   8.007  2.1835 -0.1879  0.6956
  655MOL0     H90362   9.771  11.895   8.270  1.5132 -3.2837  3.4995
  655MOL0     H90363   9.839  11.738   8.241  0.4420  1.2024  0.7139
  655MOL0     H90364   9.913  11.988   8.116 -1.3596 -0.4312 -0.1604
  655MOL0     H90365   9.908  11.850   8.012  0.2732  0.6420  0.0782
  655MOL0     H90366  10.089  11.737   8.158  0.6762  0.3148 -1.7970
  655MOL0     H90367  10.081  11.874   8.274  0.7054  1.3125 -1.4230
  655MOL0     H90368  10.164  12.029   8.124 -0.1389  0.1472 -2.1957
  655MOL0     H90369  10.123  11.935   7.994 -1.0761 -0.0881 -0.0773
  655MOL0     H90370   9.301  11.524   8.583 -1.8942 -0.9262  0.6748
  655MOL0     H90371   9.170  11.370   8.681  0.9272 -0.6177  0.1205
  655MOL0     H90372   8.998  10.864   8.524 -0.0713 -2.8768  0.0604
  655MOL0     H90373   8.851  10.688   8.561  2.9798 -0.7629  1.3281
  655MOL0     H90374   7.157  10.479   7.577 -0.6307 -0.5287  1.0025
  655MOL0     H90375   7.058  10.324   7.398  0.2131 -0.0368 -1.1525
  655MOL0     H90376   7.317   9.996   7.071  0.7000  2.6270 -0.4983
  655MOL0     H90377   7.299   9.882   6.859  2.0132  1.4406  1.4114
  655MOL0     H90378   6.919   9.906   6.664  1.7991 -4.6334  2.0117
  655MOL0     H90379   7.002   9.999   6.538  0.6116 -0.4430 -0.4852
  655MOL0     H90380   6.994   9.691   6.588  0.6484  0.8210  0.4993
  655MOL0     H90381   7.047   9.763   6.439  3.6041 -1.6755  3.2421
  655MOL0     H90382   6.817   9.647   6.461 -1.7794 -0.3892  1.7403
  655MOL0     H90383   6.760   9.762   6.569  1.1339  1.9197  1.4058
  655MOL0     H90384   6.834   9.832   6.277  1.9838  1.3310 -0.0776
  655MOL0     H90385   6.757   9.950   6.385  0.7123  1.1259 -4.2629
  655MOL0     H90386   6.454   9.709   6.253  0.8107  0.5231 -3.1771
  655MOL0     H90387   6.936  10.089   6.778  0.2458 -2.7918 -0.9415
  655MOL0     H90388   7.010  10.345   7.018  2.0187 -3.0909  0.7550
  655MOL0     H90389   6.926  10.307   6.877  0.1319  1.9641  0.1063
  655MOL0     H90390   6.880  10.230   7.049  0.9370 -2.5676  0.4290
  656MOL0     O90391   2.464  11.317   1.671  0.5403 -0.1587 -0.4271
  656MOL0     C90392   2.549  11.394   1.627 -0.6880  1.4232  0.0998
  656MOL0     O90393   2.629  11.482   1.696 -0.3001  0.8398 -0.2064
  656MOL0     C90394   2.642  11.463   1.830 -0.4779  1.1466  0.9498
  656MOL0     C90395   2.566  11.538   1.914  0.0792  0.5033  0.1918
  656MOL0     C90396   2.575  11.520   2.052 -0.2658  0.2228 -0.4508
  656MOL0     C90397   2.654  11.426   2.105 -0.1253 -0.0948 -0.4659
  656MOL0     O90398   2.672  11.413   2.240 -1.0549  0.7903 -0.6545
  656MOL0     C90399   2.555  11.375   2.317  0.4384 -0.3945  0.6218
  656MOL0     C90400   2.580  11.241   2.392 -1.1867 -0.5106 -0.0945
  656MOL0     C90401   2.454  11.197   2.455 -1.0132  0.3779  0.0962
  656MOL0     C90402   2.366  11.294   2.534  0.0621  0.1864 -0.5508
  656MOL0     C90403   2.275  11.235   2.633  0.0580  0.0915  0.9622
  656MOL0     C90404   2.155  11.174   2.561 -0.3199 -0.4124 -0.2638
  656MOL0     C90405   2.043  11.125   2.647 -0.2876 -0.6668  0.4448
  656MOL0     C90406   1.938  11.044   2.575 -0.1520  0.3916 -0.2989
  656MOL0     N90407   1.854  11.124   2.497 -0.2062 -0.3659  0.0631
  656MOL0     C90408   1.748  11.198   2.559  0.1396  0.2246  0.4619
  656MOL0     C90409   1.710  11.278   2.448 -0.0234  0.2657  0.1399
  656MOL0     C90410   1.599  11.374   2.448  0.3611  0.3559 -0.1573
  656MOL0     C90411   1.650  11.507   2.504  0.1747  0.5241 -0.2036
  656MOL0     C90412   1.559  11.629   2.483  0.3229 -0.1625 -0.2453
  656MOL0     C90413   1.614  11.768   2.526 -0.6413  0.1235 -0.2933
  656MOL0     O90414   1.755  11.783   2.500  0.2090  0.7197 -0.5381
  656MOL0     C90415   1.813  11.902   2.501  0.0314 -0.0357 -0.8222
  656MOL0     C90416   1.939  11.906   2.442  0.0688 -0.2893 -1.3153
  656MOL0     C90417   2.011  12.027   2.435 -0.2727 -0.3003  1.1690
  656MOL0     C90418   2.148  12.018   2.364 -0.5289 -0.1720 -0.4206
  656MOL0     C90419   1.962  12.135   2.514 -1.1791  0.3115  1.0912
  656MOL0     C90420   2.028  12.256   2.536  0.3294 -0.2620 -0.2220
  656MOL0     O90421   2.023  12.322   2.659  0.3065  0.3728  1.0013
  656MOL0     C90422   2.051  12.256   2.777  0.0300  0.0793  0.4203
  656MOL0     C90423   2.131  12.147   2.780  0.5131 -0.0770  0.1111
  656MOL0     C90424   2.145  12.080   2.898 -1.1229  0.4065  0.3960
  656MOL0     C90425   2.084  12.126   3.009  0.5073  0.4955 -0.4906
  656MOL0     O90426   2.071  12.060   3.130 -0.4710 -0.1199 -0.2281
  656MOL0     C90427   2.187  11.988   3.179 -0.6934 -0.6691  0.0949
  656MOL0     C90428   2.176  11.833   3.148  1.0680  0.1374  0.3186
  656MOL0     C90429   2.290  11.750   3.233 -0.2459  0.2318  0.2406
  656MOL0     C90430   2.431  11.812   3.211 -0.1024 -0.6750  0.2744
  656MOL0     C90431   2.539  11.729   3.282  0.8435 -0.1069 -0.1876
  656MOL0     C90432   2.679  11.793   3.275 -0.0148 -0.0505 -0.3216
  656MOL0     C90433   2.689  11.936   3.318 -0.0980 -0.7493 -0.2911
  656MOL0     C90434   2.825  12.010   3.297 -0.0806 -0.0928  0.4326
  656MOL0    Cl90435   2.964  11.923   3.379  0.4706 -0.5300  0.6922
  656MOL0     C90436   2.018  12.251   3.013  0.3901  0.0279 -0.5493
  656MOL0     C90437   2.003  12.309   2.891  0.5790 -0.7775  0.3342
  656MOL0     O90438   2.076  12.302   2.438 -0.2841 -0.2109  0.1903
  656MOL0     C90439   1.834  12.130   2.559  0.1143  1.2462  0.1706
  656MOL0     C90440   1.754  12.023   2.552  0.2382  0.7197  0.4956
  656MOL0     N90441   1.787  11.244   2.336 -0.5868 -0.1302 -0.3635
  656MOL0     N90442   1.862  11.136   2.360  1.3123  0.2859  0.0838
  656MOL0     C90443   2.735  11.344   2.017 -0.6082  0.2645 -0.3889
  656MOL0     C90444   2.728  11.366   1.878 -0.3280  0.1025 -0.9240
  656MOL0     C90445   2.551  11.421   1.486 -0.1158  0.4960  0.1406
  656MOL0     C90446   2.432  11.428   1.415 -0.5857  0.2558  0.9095
  656MOL0     C90447   2.418  11.447   1.276 -0.3377  0.3830  0.1403
  656MOL0     C90448   2.530  11.458   1.194 -0.1896  0.5155 -0.0955
  656MOL0     O90449   2.516  11.477   1.058 -0.6137  0.2415 -0.7903
  656MOL0     C90450   2.622  11.432   0.967  0.0657 -0.0499 -0.0309
  656MOL0     C90451   2.717  11.537   0.917 -0.5424  0.5676  0.8765
  656MOL0     C90452   2.664  11.641   0.820  0.4270  0.7916 -0.6722
  656MOL0     C90453   2.782  11.708   0.759 -1.1018 -0.1707  0.5668
  656MOL0     C90454   2.843  11.642   0.643 -0.0889  0.1962 -0.7376
  656MOL0     C90455   2.878  11.578   0.549 -0.0468  0.1385 -0.1251
  656MOL0     C90456   2.652  11.450   1.259  0.8268  0.0369 -0.8400
  656MOL0     C90457   2.665  11.432   1.401  0.6859  0.5669 -0.4159
  656MOL0     C90458   2.800  11.413   1.461 -0.4475 -0.3376  0.0736
  656MOL0     H90459   2.497  11.607   1.867 -1.4169 -1.5078 -0.7314
  656MOL0     H90460   2.508  11.560   2.128 -2.1426  0.7643 -2.3016
  656MOL0     H90461   2.474  11.368   2.244 -0.8272  0.9598  1.8418
  656MOL0     H90462   2.537  11.456   2.389  0.8023  2.1560 -1.9554
  656MOL0     H90463   2.610  11.161   2.323  0.0619 -0.0204 -0.1390
  656MOL0     H90464   2.658  11.244   2.468 -0.5725 -2.5933 -0.5828
  656MOL0     H90465   2.393  11.145   2.380  1.1299 -0.5264 -1.0880
  656MOL0     H90466   2.481  11.121   2.528 -3.0762  2.2299  2.9937
  656MOL0     H90467   2.431  11.371   2.576 -0.1950  1.5483 -2.4873
  656MOL0     H90468   2.312  11.355   2.461  1.0295  0.2994 -1.1927
  656MOL0     H90469   2.239  11.316   2.697 -0.2579  3.3632 -2.9271
  656MOL0     H90470   2.332  11.165   2.694  1.7079  2.7778  2.7117
  656MOL0     H90471   2.108  11.247   2.495 -0.2087  1.9247  2.0950
  656MOL0     H90472   2.192  11.084   2.510  0.6935  0.5541 -1.2832
  656MOL0     H90473   1.996  11.207   2.702 -0.9007 -0.4747 -0.3603
  656MOL0     H90474   2.084  11.063   2.728  0.2122 -1.1243 -0.1504
  656MOL0     H90475   1.975  10.960   2.516  2.2658  1.1225  0.0815
  656MOL0     H90476   1.877  10.993   2.649  1.6551 -0.8694  0.3593
  656MOL0     H90477   1.712  11.195   2.661 -0.2905 -0.6359  0.2940
  656MOL0     H90478   1.517  11.342   2.514  0.2684 -0.5395 -0.6990
  656MOL0     H90479   1.554  11.392   2.350  0.9639  2.0187 -0.1596
  656MOL0     H90480   1.681  11.507   2.609  0.0806 -3.7836 -0.0119
  656MOL0     H90481   1.737  11.534   2.443 -1.9998 -0.5918 -4.1120
  656MOL0     H90482   1.546  11.639   2.375  0.7866 -0.7230 -0.3600
  656MOL0     H90483   1.467  11.606   2.537  1.5995 -3.7026  0.7148
  656MOL0     H90484   1.569  11.852   2.471 -1.0801  0.5610  0.7093
  656MOL0     H90485   1.591  11.783   2.632 -2.7765 -0.7496 -0.5879
  656MOL0     H90486   1.996  11.826   2.397  0.9096 -0.2669 -0.3225
  656MOL0     H90487   2.165  12.105   2.300 -3.9895  0.0009 -1.3057
  656MOL0     H90488   2.159  11.929   2.302 -2.6672 -2.4359  2.2323
  656MOL0     H90489   2.227  12.001   2.438 -1.2958 -3.8401 -0.2814
  656MOL0     H90490   2.180  12.120   2.687 -2.1024  1.5126 -1.8421
  656MOL0     H90491   2.205  11.989   2.899 -0.6718  0.6669 -0.9406
  656MOL0     H90492   2.282  12.026   3.141  1.5745 -3.4158  2.4997
  656MOL0     H90493   2.202  12.001   3.286  0.0019  2.8915 -0.3123
  656MOL0     H90494   2.077  11.800   3.182 -0.7815  2.0337 -2.7418
  656MOL0     H90495   2.172  11.798   3.045  2.5668  0.7669  0.0325
  656MOL0     H90496   2.288  11.649   3.192  1.5530  0.2609 -0.0141
  656MOL0     H90497   2.265  11.746   3.340  2.5426  0.5773  0.9798
  656MOL0     H90498   2.426  11.914   3.249 -0.0266 -0.0944 -1.2238
  656MOL0     H90499   2.443  11.822   3.103  0.7113  3.2935  0.5844
  656MOL0     H90500   2.519  11.739   3.389  0.0139 -1.3357 -0.2122
  656MOL0     H90501   2.537  11.623   3.254  0.2578 -0.2913  0.5257
  656MOL0     H90502   2.715  11.783   3.172 -0.4389  0.1226 -0.4865
  656MOL0     H90503   2.742  11.740   3.347  0.6844  1.2399  0.0418
  656MOL0     H90504   2.662  11.945   3.424 -1.3503  0.1077 -0.6565
  656MOL0     H90505   2.620  11.996   3.259  1.3155  2.5656  1.2021
  656MOL0     H90506   2.813  12.118   3.307  1.1483  0.4120 -2.4994
  656MOL0     H90507   2.846  12.005   3.189 -1.8120  1.6941 -0.0517
  656MOL0     H90508   1.966  12.297   3.096  1.3925  0.3199 -0.0635
  656MOL0     H90509   1.955  12.407   2.887  1.4583 -0.3313  0.3435
  656MOL0     H90510   1.792  12.216   2.611 -1.8777  1.9088 -2.3050
  656MOL0     H90511   1.659  12.022   2.605  0.3285  1.0833  0.6618
  656MOL0     H90512   2.816  11.286   2.059 -3.3921 -0.3757  4.9011
  656MOL0     H90513   2.786  11.307   1.808  1.9874 -0.5964  1.4565
  656MOL0     H90514   2.339  11.409   1.469  0.3643 -5.1511  1.2779
  656MOL0     H90515   2.326  11.448   1.219  0.6924  1.4771 -1.6061
  656MOL0     H90516   2.687  11.357   1.013  0.2481 -2.4572 -3.7873
  656MOL0     H90517   2.571  11.379   0.886  3.8237 -3.4614 -0.5092
  656MOL0     H90518   2.791  11.482   0.858 -1.5828 -1.8196  1.6771
  656MOL0     H90519   2.770  11.583   1.001  1.6149 -0.8009  0.3499
  656MOL0     H90520   2.612  11.593   0.736  1.3989  1.2620 -1.5731
  656MOL0     H90521   2.595  11.708   0.872 -0.6849 -1.3459  0.7330
  656MOL0     H90522   2.867  11.729   0.824 -1.7026  0.6826  1.0943
  656MOL0     H90523   2.754  11.808   0.724  2.9278  1.4541  1.4355
  656MOL0     H90524   2.914  11.532   0.459  1.6871 -2.2423  1.6433
  656MOL0     H90525   2.738  11.445   1.193  0.0894 -0.3249 -1.8016
  656MOL0     H90526   2.875  11.391   1.385 -0.7186 -4.9917  0.8378
  656MOL0     H90527   2.817  11.502   1.522 -1.1292  0.4339 -0.8174
  656MOL0     H90528   2.797  11.330   1.532  1.5716  1.5486  2.5291
  657MOL0     O90529   3.493   7.035  10.583  0.5884 -0.4948 -0.2687
  657MOL0     C90530   3.572   6.937  10.593  0.1041 -0.0556  0.0607
  657MOL0     O90531   3.529   6.805  10.631  0.1007  0.0928 -0.1338
  657MOL0     C90532   3.396   6.785  10.660 -0.1213  0.2088  0.1547
  657MOL0     C90533   3.326   6.876  10.743  0.2569 -0.2535  0.0851
  657MOL0     C90534   3.194   6.858  10.785  0.6873  0.2982  0.4034
  657MOL0     C90535   3.129   6.737  10.741  0.4312 -0.1267  0.2367
  657MOL0     O90536   2.991   6.711  10.765  0.4365 -0.4646 -0.3716
  657MOL0     C90537   2.901   6.822  10.767  0.1060  0.1556  0.4718
  657MOL0     C90538   2.762   6.777  10.795  1.0779  0.1570 -0.0101
  657MOL0     C90539   2.762   6.681  10.922 -0.4679  0.7535  0.3562
  657MOL0     C90540   2.621   6.664  10.965  0.3952  0.1066 -0.5530
  657MOL0     C90541   2.621   6.578  11.101 -0.0850  0.4309  0.6361
  657MOL0     C90542   2.504   6.609  11.203 -0.4781  0.7910 -0.1789
  657MOL0     C90543   2.359   6.581  11.157 -0.3759  0.0653 -0.2621
  657MOL0     C90544   2.255   6.600  11.260  0.3937 -0.4500 -0.2996
  657MOL0     N90545   2.279   6.506  11.375  0.2709 -0.0899  0.5774
  657MOL0     C90546   2.329   6.379  11.369 -0.0313 -0.0762 -0.6131
  657MOL0     C90547   2.361   6.352  11.497  0.2421  0.8041 -0.8242
  657MOL0     C90548   2.452   6.241  11.525 -0.2154 -0.4898  0.2582
  657MOL0     C90549   2.372   6.139  11.604  0.5121  0.2225 -0.0835
  657MOL0     C90550   2.340   6.173  11.753  0.1372 -0.1634  0.3183
  657MOL0     C90551   2.254   6.051  11.805 -0.5256  0.3377 -0.8107
  657MOL0     O90552   2.334   5.941  11.833  0.0808  0.3286  0.7041
  657MOL0     C90553   2.288   5.819  11.792  0.2942  0.5495  0.6434
  657MOL0     C90554   2.375   5.716  11.748  0.3389  0.1810 -0.6997
  657MOL0     C90555   2.314   5.591  11.721 -0.1338 -0.4063 -0.1745
  657MOL0     C90556   2.418   5.483  11.673 -0.5737 -0.0388 -1.0168
  657MOL0     C90557   2.177   5.569  11.744  0.3552  0.7833  0.2881
  657MOL0     C90558   2.109   5.432  11.730  0.3810 -0.6978  0.1066
  657MOL0     O90559   2.172   5.347  11.645 -0.0559  0.0458 -0.1160
  657MOL0     C90560   2.151   5.209  11.647  0.1704  0.4665 -0.4919
  657MOL0     C90561   2.030   5.140  11.640 -0.3188 -0.4794 -0.2916
  657MOL0     C90562   2.016   5.002  11.642 -0.8711 -0.0677  0.5478
  657MOL0     C90563   2.130   4.923  11.630  1.2354 -0.3759  0.3999
  657MOL0     O90564   2.121   4.785  11.611 -0.1810 -0.2474  0.4355
  657MOL0     C90565   1.994   4.720  11.585 -0.7363  0.2023 -0.2903
  657MOL0     C90566   2.018   4.578  11.618 -0.0910 -1.3732 -0.0029
  657MOL0     C90567   1.882   4.504  11.630 -0.1218  0.3151  0.0216
  657MOL0     C90568   1.816   4.474  11.500  0.1233 -0.2197 -0.3339
  657MOL0     C90569   1.714   4.353  11.510 -0.1713  0.8154  0.4305
  657MOL0     C90570   1.649   4.340  11.378  0.1310 -0.1570 -0.0495
  657MOL0     C90571   1.544   4.444  11.349  0.1731 -0.5894  0.4213
  657MOL0     C90572   1.463   4.408  11.231  0.1888  0.7032  0.1785
  657MOL0    Cl90573   1.379   4.553  11.177 -0.1186 -0.0510 -0.5241
  657MOL0     C90574   2.253   4.981  11.639  0.9353  0.1398  0.6165
  657MOL0     C90575   2.258   5.116  11.645  0.2881  0.9363  0.1837
  657MOL0     O90576   2.005   5.403  11.791  0.4714 -0.4811  0.3968
  657MOL0     C90577   2.097   5.673  11.787  0.7100 -0.5808  0.2882
  657MOL0     C90578   2.155   5.788  11.810 -0.1556  0.3094  0.3898
  657MOL0     N90579   2.318   6.449  11.588  0.3214  0.4466  0.3862
  657MOL0     N90580   2.271   6.546  11.505  0.0522  0.5187 -0.3289
  657MOL0     C90581   3.196   6.646  10.662  0.8326  0.0404 -0.2269
  657MOL0     C90582   3.327   6.673  10.619  0.2594  0.3849 -0.2301
  657MOL0     C90583   3.716   6.961  10.564 -0.1360  0.1420 -0.2745
  657MOL0     C90584   3.795   6.844  10.546 -0.2026  0.1256 -0.5475
  657MOL0     C90585   3.932   6.857  10.523  0.4624  0.4014  0.0406
  657MOL0     C90586   4.001   6.976  10.514  0.8705 -0.3283 -0.2125
  657MOL0     O90587   4.134   6.968  10.497 -0.0907 -0.0041 -0.0446
  657MOL0     C90588   4.210   7.095  10.492 -0.2621  0.3800 -0.2817
  657MOL0     C90589   4.240   7.133  10.641  0.5605  0.5603  0.0790
  657MOL0     C90590   4.390   7.133  10.690  0.9665  0.0781 -0.4998
  657MOL0     C90591   4.417   7.023  10.799  0.1315 -0.1431 -0.1250
  657MOL0     C90592   4.380   6.883  10.766  0.1772 -1.6429  0.3947
  657MOL0     C90593   4.353   6.773  10.731 -0.1780  0.7102 -0.2887
  657MOL0     C90594   3.915   7.089  10.536  0.2918  0.1606 -0.4870
  657MOL0     C90595   3.781   7.086  10.567 -0.2567 -1.1788  0.5357
  657MOL0     C90596   3.725   7.223  10.599  0.6666  0.9511 -0.4477
  657MOL0     H90597   3.371   6.963  10.791 -0.8782  1.0032 -1.0475
  657MOL0     H90598   3.148   6.925  10.857  0.5179  1.0438 -0.3730
  657MOL0     H90599   2.903   6.873  10.670  0.7104 -1.7788 -0.5914
  657MOL0     H90600   2.928   6.901  10.838  0.1175  2.3218 -1.7903
  657MOL0     H90601   2.711   6.872  10.815  2.3448  1.0445 -0.9039
  657MOL0     H90602   2.720   6.732  10.704  1.4980  4.4662 -2.6145
  657MOL0     H90603   2.814   6.588  10.898 -2.9337 -0.0987 -2.2329
  657MOL0     H90604   2.806   6.732  11.008  1.7857  3.2252 -2.0291
  657MOL0     H90605   2.576   6.757  11.000 -1.3479 -0.4483 -1.1908
  657MOL0     H90606   2.555   6.614  10.893  0.5254 -0.5273 -0.2377
  657MOL0     H90607   2.717   6.602  11.149 -0.9541  2.0536  1.6653
  657MOL0     H90608   2.623   6.470  11.082  0.7368  0.1700  2.0546
  657MOL0     H90609   2.529   6.557  11.297  2.1328 -0.6394 -1.5601
  657MOL0     H90610   2.506   6.717  11.220  1.9409  0.6429  0.9191
  657MOL0     H90611   2.356   6.481  11.114  0.2572  0.2648 -0.7805
  657MOL0     H90612   2.335   6.650  11.075 -0.4667 -0.5091 -0.7315
  657MOL0     H90613   2.254   6.704  11.293 -0.1375 -0.7936  0.8210
  657MOL0     H90614   2.158   6.591  11.211 -1.4510  0.7471  2.8524
  657MOL0     H90615   2.356   6.321  11.282 -1.2225 -1.4380 -0.1013
  657MOL0     H90616   2.534   6.277  11.588 -2.3530  1.5097  2.1006
  657MOL0     H90617   2.498   6.210  11.431 -1.0242 -0.0957 -0.2740
  657MOL0     H90618   2.278   6.119  11.551  0.7003  2.8547 -1.5704
  657MOL0     H90619   2.424   6.044  11.615 -2.0044 -1.4732 -1.6933
  657MOL0     H90620   2.436   6.182  11.804  1.1896  0.5868 -1.7017
  657MOL0     H90621   2.281   6.266  11.755  0.2107 -0.0963  3.1942
  657MOL0     H90622   2.200   6.088  11.893 -1.6033  0.6832 -1.5970
  657MOL0     H90623   2.175   6.022  11.734  2.1583 -1.4869 -3.2848
  657MOL0     H90624   2.483   5.730  11.738  0.9216 -0.8071  2.7962
  657MOL0     H90625   2.397   5.447  11.572  0.3362 -4.2707  0.0939
  657MOL0     H90626   2.421   5.389  11.730  2.2119  0.6262  0.1135
  657MOL0     H90627   2.518   5.528  11.669 -1.0787  1.1644 -0.4140
  657MOL0     H90628   1.943   5.204  11.629  0.9396  0.9462 -2.7266
  657MOL0     H90629   1.917   4.961  11.628 -0.9149  0.8179 -2.3830
  657MOL0     H90630   1.917   4.757  11.653  1.8968  0.9190  2.5059
  657MOL0     H90631   1.971   4.735  11.479 -0.8559  2.5047  0.0271
  657MOL0     H90632   2.068   4.525  11.536 -0.7771 -0.6818 -0.8820
  657MOL0     H90633   2.068   4.570  11.715  2.0678  1.8253 -0.6982
  657MOL0     H90634   1.806   4.548  11.695 -0.9663 -1.0626  0.0095
  657MOL0     H90635   1.903   4.407  11.678 -0.4205  1.2754  2.2217
  657MOL0     H90636   1.883   4.446  11.419 -2.2584  1.7352 -3.2401
  657MOL0     H90637   1.776   4.570  11.464  3.6511  0.8760 -1.7870
  657MOL0     H90638   1.765   4.263  11.544  0.0781  0.9563  0.4267
  657MOL0     H90639   1.637   4.375  11.585 -0.7560  4.0168 -0.9459
  657MOL0     H90640   1.599   4.243  11.368 -0.4694  0.2011 -0.6108
  657MOL0     H90641   1.719   4.348  11.295 -0.5425 -1.4401 -0.7830
  657MOL0     H90642   1.593   4.540  11.334  0.4176 -0.5810  1.2230
  657MOL0     H90643   1.479   4.441  11.437  1.4126 -1.9220  1.3429
  657MOL0     H90644   1.387   4.331  11.250  1.4452 -0.3598  1.0688
  657MOL0     H90645   1.521   4.371  11.146 -1.7148 -0.4034 -0.7051
  657MOL0     H90646   2.334   4.910  11.631 -1.8574 -3.4142  1.0471
  657MOL0     H90647   2.355   5.164  11.645  1.5486 -1.4415 -0.3552
  657MOL0     H90648   1.994   5.650  11.811  1.0607 -1.9060  0.5982
  657MOL0     H90649   2.093   5.859  11.863  0.3147 -0.2372  1.7327
  657MOL0     H90650   3.154   6.551  10.630  0.5043 -0.0004  0.3155
  657MOL0     H90651   3.370   6.609  10.543 -0.6972  0.0774 -0.5209
  657MOL0     H90652   3.752   6.745  10.561  0.6036 -0.1122  0.3335
  657MOL0     H90653   3.993   6.769  10.506  3.9365  1.7974  3.6202
  657MOL0     H90654   4.302   7.076  10.436 -0.4398  0.8258 -0.7287
  657MOL0     H90655   4.152   7.167  10.434  0.0602 -0.0023 -1.0899
  657MOL0     H90656   4.186   7.061  10.703  1.1623  0.2955  0.3036
  657MOL0     H90657   4.204   7.236  10.636  2.4924  1.3256 -4.9435
  657MOL0     H90658   4.452   7.112  10.603 -2.0446 -1.2988 -2.4987
  657MOL0     H90659   4.416   7.233  10.728 -1.6024  1.2341 -1.5120
  657MOL0     H90660   4.360   7.041  10.891  0.0467  1.7764 -0.4923
  657MOL0     H90661   4.522   7.027  10.828 -0.1501 -4.4713  2.3146
  657MOL0     H90662   4.302   6.684  10.700 -1.0133  0.7489  0.9448
  657MOL0     H90663   3.963   7.186  10.536 -0.0719  0.3586 -2.0025
  657MOL0     H90664   3.651   7.247  10.522  1.1367  2.0251 -0.5852
  657MOL0     H90665   3.667   7.219  10.692 -2.8988  1.6691 -2.4956
  657MOL0     H90666   3.798   7.305  10.598  2.9402 -0.8807 -3.9414
  658MOL0     O90667   3.444   5.512   1.615  0.0617 -0.4841  0.4244
  658MOL0     C90668   3.446   5.490   1.497 -0.5412  0.7302  0.2831
  658MOL0     O90669   3.546   5.532   1.410 -0.2303  0.5230  0.6039
  658MOL0     C90670   3.658   5.597   1.453 -0.3841 -0.1020 -0.9208
  658MOL0     C90671   3.691   5.711   1.389 -0.1510 -0.0987  0.0860
  658MOL0     C90672   3.811   5.775   1.416  0.5650  0.0817  0.1014
  658MOL0     C90673   3.893   5.734   1.519 -0.2664  0.4040 -0.6591
  658MOL0     O90674   4.003   5.799   1.546 -0.1635  0.0688 -0.2212
  658MOL0     C90675   4.124   5.734   1.510 -0.1950 -0.3426 -0.7529
  658MOL0     C90676   4.245   5.834   1.505 -0.0778 -0.0488  1.0456
  658MOL0     C90677   4.343   5.789   1.396  0.1622  0.1095 -0.1301
  658MOL0     C90678   4.450   5.905   1.369 -0.1099  0.0991 -0.3528
  658MOL0     C90679   4.549   5.870   1.255 -0.2452  0.5414  0.0413
  658MOL0     C90680   4.692   5.888   1.299  0.0145  0.4903 -0.7851
  658MOL0     C90681   4.794   5.793   1.225 -0.5210  0.6297  0.2150
  658MOL0     C90682   4.931   5.847   1.205 -0.0828 -0.4736  0.8288
  658MOL0     N90683   4.934   5.939   1.100 -0.4006 -0.4602 -0.1849
  658MOL0     C90684   4.943   6.072   1.113  0.4027 -0.5601 -0.1211
  658MOL0     C90685   4.958   6.116   0.987 -0.2737  0.3181 -0.1854
  658MOL0     C90686   4.954   6.257   0.934  0.8568 -1.0535 -0.5974
  658MOL0     C90687   4.811   6.324   0.927  0.1711 -0.0601  1.3175
  658MOL0     C90688   4.720   6.275   1.037  0.2533  0.1331 -0.0576
  658MOL0     C90689   4.598   6.365   1.042 -0.4874 -0.1489  0.7639
  658MOL0     O90690   4.509   6.351   1.156 -0.5839 -0.2307 -0.4751
  658MOL0     C90691   4.374   6.354   1.145  0.2643 -0.7760  0.2407
  658MOL0     C90692   4.312   6.228   1.168  0.2081 -0.5722  0.4560
  658MOL0     C90693   4.173   6.224   1.184 -1.0721 -0.6269  0.3904
  658MOL0     C90694   4.106   6.086   1.213 -0.6185 -0.0297 -0.9758
  658MOL0     C90695   4.095   6.343   1.172 -1.2792  0.4831 -0.0737
  658MOL0     C90696   3.948   6.353   1.185  0.4423 -0.8975 -0.3896
  658MOL0     O90697   3.866   6.253   1.173 -0.3301  0.0479  0.4853
  658MOL0     C90698   3.751   6.243   1.235 -0.0173  0.4061 -0.5806
  658MOL0     C90699   3.646   6.162   1.178 -0.5492  0.7199 -0.2276
  658MOL0     C90700   3.520   6.148   1.235 -0.2129  0.4515  1.0625
  658MOL0     C90701   3.486   6.217   1.348  0.2985 -1.1381 -0.5528
  658MOL0     O90702   3.358   6.210   1.403 -0.2288  0.0016  0.2337
  658MOL0     C90703   3.342   6.115   1.512 -0.2513 -0.6079  0.6473
  658MOL0     C90704   3.300   5.980   1.452  0.4947  0.2619 -0.1750
  658MOL0     C90705   3.160   5.988   1.384  0.0729 -0.9239  0.0986
  658MOL0     C90706   3.103   5.850   1.358  0.2816 -0.7905  0.2520
  658MOL0     C90707   2.950   5.848   1.332  0.0093  0.0499 -0.4443
  658MOL0     C90708   2.902   5.703   1.310 -0.9519 -0.1009  0.2103
  658MOL0     C90709   2.755   5.688   1.329  0.6238  0.3417  0.0606
  658MOL0     C90710   2.670   5.729   1.202 -0.9743  0.6609 -1.3306
  658MOL0    Cl90711   2.697   5.608   1.078 -0.3250  0.2649 -0.1671
  658MOL0     C90712   3.588   6.298   1.404  0.1168 -0.5430 -0.1074
  658MOL0     C90713   3.724   6.305   1.360  0.2922 -0.5287  0.3905
  658MOL0     O90714   3.909   6.470   1.205  0.1216 -0.8471 -0.4096
  658MOL0     C90715   4.158   6.465   1.135 -0.6157 -0.5902  0.7024
  658MOL0     C90716   4.298   6.466   1.118 -0.0032 -0.2662  0.3768
  658MOL0     N90717   4.956   6.012   0.899 -0.3622  0.0374 -0.4782
  658MOL0     N90718   4.928   5.900   0.968  0.0702 -0.3637 -0.8155
  658MOL0     C90719   3.863   5.613   1.590  0.3152  0.0485  1.0138
  658MOL0     C90720   3.741   5.553   1.560 -0.8002  0.7144  0.3308
  658MOL0     C90721   3.340   5.423   1.438 -0.0096 -0.3728 -0.0497
  658MOL0     C90722   3.275   5.476   1.325  0.2182  0.0168 -0.1790
  658MOL0     C90723   3.155   5.420   1.271 -0.1460  0.1994 -0.5721
  658MOL0     C90724   3.085   5.321   1.340  0.3738  0.0740 -0.1873
  658MOL0     O90725   2.975   5.274   1.272 -0.2350  0.2274  0.2817
  658MOL0     C90726   2.909   5.158   1.303 -0.3087 -0.7109 -0.5864
  658MOL0     C90727   2.784   5.152   1.224 -0.2624  0.6522 -0.3084
  658MOL0     C90728   2.690   5.053   1.275  0.3422 -0.6425 -0.6608
  658MOL0     C90729   2.611   5.082   1.410  0.5234 -0.0396 -0.3169
  658MOL0     C90730   2.615   4.962   1.495  0.1230 -0.0655 -0.6557
  658MOL0     C90731   2.623   4.846   1.544  0.5691 -0.4326 -0.5778
  658MOL0     C90732   3.157   5.265   1.444 -0.0204 -0.3807  0.5975
  658MOL0     C90733   3.280   5.311   1.505  0.1549  0.0214 -0.0329
  658MOL0     C90734   3.324   5.252   1.632  0.8720 -0.0250 -0.7941
  658MOL0     H90735   3.623   5.749   1.313  1.9382  1.8025 -0.9246
  658MOL0     H90736   3.831   5.864   1.357 -0.6803  1.2969  1.4263
  658MOL0     H90737   4.098   5.681   1.418  0.6455 -1.6442 -0.2699
  658MOL0     H90738   4.160   5.660   1.581  2.1695  1.0404 -0.4116
  658MOL0     H90739   4.210   5.937   1.490 -2.6770 -1.0177 -0.0435
  658MOL0     H90740   4.288   5.833   1.606 -2.3546  1.6384  2.1413
  658MOL0     H90741   4.403   5.699   1.411  1.0675  0.6698 -0.3277
  658MOL0     H90742   4.289   5.765   1.304 -0.6212 -0.8700  0.5587
  658MOL0     H90743   4.409   6.004   1.345 -0.3352  0.0351 -0.2347
  658MOL0     H90744   4.504   5.919   1.463 -2.5375 -2.8870  1.6807
  658MOL0     H90745   4.523   5.917   1.159  4.0941  2.6433 -0.3372
  658MOL0     H90746   4.546   5.764   1.230 -2.1594  0.1105  1.8312
  658MOL0     H90747   4.703   5.994   1.275 -0.9618  1.0973  1.2718
  658MOL0     H90748   4.701   5.870   1.406 -2.8233 -0.1569 -0.5900
  658MOL0     H90749   4.758   5.754   1.129 -0.3794  0.8162  0.0861
  658MOL0     H90750   4.811   5.709   1.293  0.1742  0.8736  0.3462
  658MOL0     H90751   4.971   5.890   1.297 -1.3460 -1.7894  2.0472
  658MOL0     H90752   4.996   5.772   1.160 -0.2149 -0.0879 -0.0258
  658MOL0     H90753   4.951   6.130   1.204  2.0954  1.5197 -1.5085
  658MOL0     H90754   5.000   6.261   0.834 -1.2215 -1.7146 -1.6341
  658MOL0     H90755   5.008   6.327   0.999 -3.5578  4.0903 -1.6972
  658MOL0     H90756   4.831   6.431   0.934 -0.8284  0.7486 -3.9570
  658MOL0     H90757   4.763   6.316   0.829  3.1390  2.5780 -0.5390
  658MOL0     H90758   4.692   6.169   1.030 -1.2814  0.2606  2.6896
  658MOL0     H90759   4.770   6.277   1.134 -3.8949 -1.7344  2.3877
  658MOL0     H90760   4.633   6.468   1.057 -2.6075  0.9523 -1.1108
  658MOL0     H90761   4.539   6.362   0.950  2.6228 -5.8603 -1.5211
  658MOL0     H90762   4.371   6.139   1.188  2.9450  0.8291 -0.7124
  658MOL0     H90763   4.028   6.063   1.140 -0.0820  0.9689 -1.8843
  658MOL0     H90764   4.045   6.090   1.304 -0.0500 -2.8730 -0.3603
  658MOL0     H90765   4.184   6.009   1.218  2.6846  3.1263  0.6877
  658MOL0     H90766   3.666   6.118   1.081  0.2045 -0.2542  0.3395
  658MOL0     H90767   3.458   6.071   1.190  0.9157  0.1372  0.0002
  658MOL0     H90768   3.437   6.121   1.565 -0.7603  1.4798  1.4410
  658MOL0     H90769   3.260   6.153   1.574 -0.5140 -1.9630  1.1580
  658MOL0     H90770   3.377   5.958   1.377  0.2308  0.6729 -0.5731
  658MOL0     H90771   3.317   5.899   1.523  4.7749 -0.7560 -2.0100
  658MOL0     H90772   3.166   6.043   1.290 -1.8677 -0.6044  0.1347
  658MOL0     H90773   3.096   6.042   1.454 -1.5888 -1.4265 -0.9935
  658MOL0     H90774   3.123   5.784   1.443 -2.6240 -0.8234  1.0111
  658MOL0     H90775   3.160   5.807   1.275  1.3047  1.2649 -0.1835
  658MOL0     H90776   2.898   5.906   1.408 -1.5517  2.9350 -3.4519
  658MOL0     H90777   2.934   5.903   1.238  0.8059  2.3441  0.6946
  658MOL0     H90778   2.948   5.639   1.386 -0.0934  0.1413 -0.0996
  658MOL0     H90779   2.942   5.666   1.215  2.2469  1.7502  0.7184
  658MOL0     H90780   2.716   5.744   1.414  1.1880  1.2177 -0.2424
  658MOL0     H90781   2.735   5.581   1.346 -0.0968  0.7417  1.8968
  658MOL0     H90782   2.705   5.826   1.166 -1.7071  3.5885  4.5712
  658MOL0     H90783   2.564   5.734   1.227 -0.8242 -0.7219 -0.2744
  658MOL0     H90784   3.565   6.360   1.490  0.3807  2.1164 -1.8379
  658MOL0     H90785   3.803   6.355   1.415 -0.2815  1.3142 -0.3910
  658MOL0     H90786   4.092   6.545   1.104  0.6020  0.2909  0.2943
  658MOL0     H90787   4.364   6.550   1.098  0.5099  0.1610  3.3055
  658MOL0     H90788   3.931   5.574   1.665  2.3096 -0.5792 -0.9769
  658MOL0     H90789   3.721   5.459   1.611  1.3491 -0.8773 -1.5211
  658MOL0     H90790   3.323   5.553   1.266 -1.4481 -0.6616 -2.6025
  658MOL0     H90791   3.120   5.474   1.183 -0.8497  0.7432  0.0316
  658MOL0     H90792   2.980   5.076   1.287 -1.1465 -1.0801 -2.7113
  658MOL0     H90793   2.881   5.164   1.409 -1.0793  2.0066 -0.8653
  658MOL0     H90794   2.810   5.121   1.123 -1.7966 -1.4970 -0.1010
  658MOL0     H90795   2.734   5.248   1.206 -1.2393 -0.1871 -2.2760
  658MOL0     H90796   2.610   5.042   1.200 -2.0334  3.3084  0.9819
  658MOL0     H90797   2.745   4.959   1.277 -2.6276 -2.5473 -1.0051
  658MOL0     H90798   2.508   5.110   1.387 -0.2029 -1.0542  1.4752
  658MOL0     H90799   2.664   5.154   1.472  1.6148 -0.7567 -0.3875
  658MOL0     H90800   2.643   4.748   1.582 -2.2915 -0.8080  0.1829
  658MOL0     H90801   3.117   5.172   1.484 -0.3675 -1.0354 -1.1873
  658MOL0     H90802   3.287   5.317   1.712  0.2444  0.9217 -1.8346
  658MOL0     H90803   3.264   5.162   1.652 -0.8491  1.4071  0.8576
  658MOL0     H90804   3.433   5.245   1.638  1.0008  1.3099 -1.3490
  659MOL0     O90805   0.097   7.973   0.392 -0.1531  0.5920 -0.5422
  659MOL0     C90806   0.133   8.075   0.332 -0.4631 -0.5261  0.2081
  659MOL0     O90807   0.255   8.102   0.289 -0.2855 -0.1746 -0.1242
  659MOL0     C90808   0.363   8.040   0.337 -0.5959  0.5353  0.4604
  659MOL0     C90809   0.429   7.948   0.254 -0.0313  0.0264 -0.3023
  659MOL0     C90810   0.528   7.860   0.304  0.2636 -0.4333  1.3279
  659MOL0     C90811   0.578   7.873   0.427  1.6793  0.0977 -0.0537
  659MOL0     O90812   0.676   7.798   0.495 -0.0261  0.3203 -0.6614
  659MOL0     C90813   0.716   7.667   0.448  0.2003 -0.0178 -0.4124
  659MOL0     C90814   0.855   7.621   0.492  0.0637  0.5485  0.5762
  659MOL0     C90815   0.874   7.467   0.502 -0.6663 -0.7238  0.6579
  659MOL0     C90816   0.835   7.393   0.366  0.7821 -0.8556 -0.7484
  659MOL0     C90817   0.877   7.243   0.374 -0.5911 -1.3560  1.0295
  659MOL0     C90818   0.786   7.165   0.467 -0.1312  0.3701  0.0218
  659MOL0     C90819   0.830   7.016   0.451  0.4481 -0.2850 -0.1946
  659MOL0     C90820   0.973   6.985   0.488 -0.2777 -0.2668 -1.1418
  659MOL0     N90821   1.005   7.014   0.631 -0.0595 -0.1371  0.4931
  659MOL0     C90822   0.912   7.050   0.727 -0.2118 -0.9714  0.3351
  659MOL0     C90823   0.988   7.085   0.835  0.7622 -0.3729  0.1934
  659MOL0     C90824   0.928   7.115   0.968  0.9303 -0.0343 -0.2117
  659MOL0     C90825   0.963   7.013   1.085 -0.5873  0.0844 -0.3632
  659MOL0     C90826   0.883   6.881   1.074  0.5861 -0.4645 -1.4709
  659MOL0     C90827   0.731   6.902   1.048 -0.0618 -0.0395  0.2245
  659MOL0     O90828   0.696   6.916   0.905  0.1549 -0.4909 -0.7127
  659MOL0     C90829   0.564   6.901   0.871 -0.1454  0.6242 -0.0819
  659MOL0     C90830   0.455   6.950   0.940 -0.0863  0.6358  0.5263
  659MOL0     C90831   0.327   6.928   0.896  1.1746 -0.6313  0.3686
  659MOL0     C90832   0.217   6.991   0.988  0.3550 -0.4323 -0.3488
  659MOL0     C90833   0.305   6.864   0.774  1.0203 -0.1903 -0.0780
  659MOL0     C90834   0.168   6.844   0.709  0.1672  0.5762 -1.5928
  659MOL0     O90835   0.167   6.784   0.584 -0.6007  1.1452  0.0727
  659MOL0     C90836   0.043   6.751   0.525 -0.5718  1.2241 -0.4312
  659MOL0     C90837  -0.043   6.850   0.488  0.9157 -0.4810  1.2174
  659MOL0     C90838  -0.180   6.829   0.436  1.0742  0.8968  0.4794
  659MOL0     C90839  -0.233   6.700   0.447  0.5853 -0.2111 -0.3662
  659MOL0     O90840  -0.354   6.662   0.406  0.2950 -0.0223  0.8744
  659MOL0     C90841  -0.440   6.752   0.345 -0.2807 -0.0573 -0.8306
  659MOL0     C90842  -0.562   6.686   0.282  0.4209 -0.3865  0.2260
  659MOL0     C90843  -0.663   6.791   0.233  0.0547 -0.4540  0.2927
  659MOL0     C90844  -0.790   6.721   0.186  0.2135 -0.4175 -0.1383
  659MOL0     C90845  -0.779   6.602   0.085 -0.0639  0.2683 -0.3227
  659MOL0     C90846  -0.909   6.555   0.023 -0.3310  0.6363 -0.6064
  659MOL0     C90847  -0.989   6.654  -0.053  0.0504  0.4568  0.6801
  659MOL0     C90848  -1.118   6.584  -0.120  0.1847  1.1717  1.3210
  659MOL0    Cl90849  -1.170   6.723  -0.230 -0.3261  0.2744 -0.0953
  659MOL0     C90850  -0.148   6.600   0.500 -0.3762  0.6523 -0.6038
  659MOL0     C90851  -0.015   6.623   0.539 -0.3339 -0.5876  0.0485
  659MOL0     O90852   0.061   6.874   0.767  0.5198 -0.1714 -0.1009
  659MOL0     C90853   0.415   6.799   0.707 -0.0932 -0.1526  0.2135
  659MOL0     C90854   0.541   6.821   0.757  0.1893  0.7726  0.0904
  659MOL0     N90855   1.122   7.079   0.796  0.6646  0.7037  0.3626
  659MOL0     N90856   1.136   7.038   0.672  0.5926 -0.2534 -0.2359
  659MOL0     C90857   0.526   7.982   0.511  0.8887 -0.2102  0.3180
  659MOL0     C90858   0.425   8.062   0.465  0.3716 -0.6642 -0.5119
  659MOL0     C90859   0.023   8.178   0.303 -0.3572 -0.4105 -0.3616
  659MOL0     C90860   0.061   8.301   0.265  0.2152 -0.6837  0.4562
  659MOL0     C90861  -0.025   8.405   0.225  0.3812 -0.1327 -0.0208
  659MOL0     C90862  -0.168   8.383   0.241 -1.1976  0.0696 -0.8637
  659MOL0     O90863  -0.244   8.490   0.203  0.2075  0.6050 -0.0082
  659MOL0     C90864  -0.352   8.451   0.118  0.1515 -0.4163  0.0807
  659MOL0     C90865  -0.414   8.583   0.059 -0.0269 -0.6669 -0.2010
  659MOL0     C90866  -0.501   8.565  -0.068 -0.3493  0.6350  0.9978
  659MOL0     C90867  -0.648   8.544  -0.038 -0.1867  0.0415  0.1843
  659MOL0     C90868  -0.671   8.395  -0.011 -0.1667 -1.1051 -0.3650
  659MOL0     C90869  -0.686   8.280  -0.004  0.0393  1.0521 -0.0852
  659MOL0     C90870  -0.205   8.263   0.295  0.5392 -0.0379  0.8494
  659MOL0     C90871  -0.118   8.158   0.330 -0.0938 -0.4137 -0.2603
  659MOL0     C90872  -0.181   8.034   0.389 -0.8656 -1.1091 -0.0387
  659MOL0     H90873   0.388   7.934   0.154  1.2641 -0.3631 -0.8142
  659MOL0     H90874   0.571   7.788   0.235  0.4276 -1.1968  2.2026
  659MOL0     H90875   0.706   7.656   0.340  1.4548 -0.3517 -0.5055
  659MOL0     H90876   0.647   7.598   0.496 -1.3289  1.1291 -0.8579
  659MOL0     H90877   0.930   7.661   0.424 -1.8402  2.7383 -0.4166
  659MOL0     H90878   0.865   7.655   0.596 -3.1367  2.8534  0.3117
  659MOL0     H90879   0.981   7.456   0.522 -0.3866 -1.7290 -1.1993
  659MOL0     H90880   0.819   7.442   0.593  0.2168  1.3003  1.8180
  659MOL0     H90881   0.726   7.397   0.360  0.7644 -0.2571 -0.1152
  659MOL0     H90882   0.875   7.440   0.276  3.6740 -2.8966 -0.6726
  659MOL0     H90883   0.977   7.243   0.418  1.8460  2.2147 -3.5450
  659MOL0     H90884   0.889   7.191   0.279  1.5197 -1.2190  1.1828
  659MOL0     H90885   0.796   7.197   0.571 -0.1330  0.1152  0.1007
  659MOL0     H90886   0.680   7.181   0.448 -0.5732 -1.4053  0.8765
  659MOL0     H90887   0.805   6.979   0.351  1.5162  0.1896 -0.6470
  659MOL0     H90888   0.746   6.963   0.499 -1.5741  1.4088 -1.6496
  659MOL0     H90889   0.996   6.878   0.487  0.2121 -0.3713  2.8409
  659MOL0     H90890   1.042   7.039   0.423  1.0945 -0.5743  0.0140
  659MOL0     H90891   0.804   7.041   0.717 -0.3297  0.6884 -0.1855
  659MOL0     H90892   0.822   7.138   0.961  0.0003 -2.7238  2.7936
  659MOL0     H90893   0.965   7.212   1.002 -0.8869  0.7508 -0.4015
  659MOL0     H90894   1.064   6.973   1.068 -1.2176 -1.9541  0.4272
  659MOL0     H90895   0.953   7.057   1.184  0.2174  2.0383 -1.1055
  659MOL0     H90896   0.901   6.823   0.983  0.4621 -2.3251 -0.3633
  659MOL0     H90897   0.906   6.815   1.158  2.0950  1.6973 -0.0935
  659MOL0     H90898   0.667   6.817   1.073  0.3458 -0.4015  0.0436
  659MOL0     H90899   0.703   6.991   1.105  0.5512  2.1096 -2.6001
  659MOL0     H90900   0.477   7.012   1.027 -0.2485  1.6456 -0.1455
  659MOL0     H90901   0.263   7.024   1.082  1.3156 -1.4670 -0.4216
  659MOL0     H90902   0.138   6.920   1.013 -1.0045  1.5190  1.1890
  659MOL0     H90903   0.171   7.080   0.946  0.9209 -0.9367 -2.1325
  659MOL0     H90904  -0.013   6.954   0.482  0.2264 -0.3258  0.2125
  659MOL0     H90905  -0.242   6.910   0.398  1.3124  1.2426  0.8065
  659MOL0     H90906  -0.466   6.828   0.420 -0.7010  0.9531 -1.9541
  659MOL0     H90907  -0.387   6.813   0.271 -0.9546 -1.0697 -2.1823
  659MOL0     H90908  -0.529   6.627   0.196  1.2340  3.3965 -2.3084
  659MOL0     H90909  -0.610   6.617   0.351 -0.3101 -1.1784 -1.0227
  659MOL0     H90910  -0.630   6.840   0.141 -1.8099 -0.4222 -0.4046
  659MOL0     H90911  -0.688   6.866   0.309  2.0492 -0.3613  0.8970
  659MOL0     H90912  -0.847   6.803   0.142  0.5759  0.1829  0.4829
  659MOL0     H90913  -0.851   6.688   0.271 -3.2737  2.7006 -1.1766
  659MOL0     H90914  -0.716   6.605  -0.004 -1.7222 -1.0473 -1.6051
  659MOL0     H90915  -0.754   6.518   0.151 -2.0115 -1.5507 -1.7836
  659MOL0     H90916  -0.967   6.512   0.105  0.2847 -1.6591 -1.2932
  659MOL0     H90917  -0.896   6.461  -0.031 -0.6558 -0.3074  0.8830
  659MOL0     H90918  -0.922   6.693  -0.130  2.8361 -1.4202  1.9877
  659MOL0     H90919  -1.023   6.741   0.005 -4.0723  0.3259 -1.1746
  659MOL0     H90920  -1.196   6.553  -0.050  0.9468 -3.1776  0.5175
  659MOL0     H90921  -1.090   6.496  -0.178 -1.4622  1.2403  0.3736
  659MOL0     H90922  -0.173   6.495   0.501  1.0850  0.2065  2.5580
  659MOL0     H90923   0.039   6.541   0.586  0.2330  0.1771  0.7581
  659MOL0     H90924   0.398   6.731   0.624  0.9372 -0.5078  0.2663
  659MOL0     H90925   0.630   6.782   0.709 -0.8363 -1.0293 -0.3936
  659MOL0     H90926   0.550   7.998   0.615 -0.3457 -1.1072  0.7718
  659MOL0     H90927   0.375   8.135   0.528  1.1299  0.4444 -1.1462
  659MOL0     H90928   0.166   8.323   0.247 -0.7163  2.3641 -2.2697
  659MOL0     H90929  -0.001   8.505   0.191 -3.2089  0.3596 -1.5713
  659MOL0     H90930  -0.314   8.396   0.032  1.6167  1.3110 -0.4428
  659MOL0     H90931  -0.439   8.405   0.165 -2.1873  0.4421 -3.0230
  659MOL0     H90932  -0.333   8.653   0.035  1.5519 -2.4980 -0.4735
  659MOL0     H90933  -0.487   8.613   0.135  0.1780 -1.8352  0.4689
  659MOL0     H90934  -0.499   8.652  -0.135 -0.8872 -2.1131 -2.9325
  659MOL0     H90935  -0.470   8.485  -0.136 -2.2278  1.6018 -1.1519
  659MOL0     H90936  -0.708   8.574  -0.125  1.2686  0.6351 -0.6431
  659MOL0     H90937  -0.680   8.609   0.045  0.8086  0.5361  0.1950
  659MOL0     H90938  -0.724   8.181   0.012 -1.3464  1.5761 -0.0624
  659MOL0     H90939  -0.311   8.242   0.290  0.6611 -0.3791 -2.5851
  659MOL0     H90940  -0.283   8.057   0.421 -1.4054 -2.4538 -0.7024
  659MOL0     H90941  -0.174   7.955   0.314  1.4015 -0.8008 -0.2143
  659MOL0     H90942  -0.127   7.991   0.473 -3.4245 -0.2494  2.2174
  660MOL0     O90943   6.494   9.373   9.381  0.0695 -0.3031 -0.2784
  660MOL0     C90944   6.476   9.396   9.262 -0.3251 -0.4027  0.1074
  660MOL0     O90945   6.499   9.299   9.164 -0.4671  0.0933 -0.3402
  660MOL0     C90946   6.509   9.170   9.210 -0.0897 -0.1053  0.3897
  660MOL0     C90947   6.423   9.103   9.300  1.3180  1.0391  0.1361
  660MOL0     C90948   6.448   8.969   9.325 -0.2318  1.0701  0.3491
  660MOL0     C90949   6.560   8.900   9.271  0.4572 -0.3301 -0.4153
  660MOL0     O90950   6.586   8.784   9.337  0.6841  0.3882  0.1848
  660MOL0     C90951   6.718   8.749   9.357 -0.3118 -0.4275 -0.4746
  660MOL0     C90952   6.773   8.837   9.477 -0.2258  0.7467  0.7844
  660MOL0     C90953   6.916   8.789   9.530  0.3265 -0.0487  0.6282
  660MOL0     C90954   6.936   8.831   9.677  0.3749  0.3558  0.1525
  660MOL0     C90955   7.086   8.827   9.701  0.5284  0.4948 -0.3458
  660MOL0     C90956   7.105   8.890   9.841 -0.2820 -0.1406 -0.0312
  660MOL0     C90957   7.088   8.802   9.957 -0.5754 -0.4035 -0.3354
  660MOL0     C90958   7.133   8.868  10.098  0.0824  0.7481  0.0770
  660MOL0     N90959   7.076   8.997  10.127 -0.5355 -0.4490 -0.2728
  660MOL0     C90960   7.006   9.019  10.244  0.5278  0.3088 -0.3715
  660MOL0     C90961   7.000   9.153  10.249 -0.5606 -0.4963 -1.2241
  660MOL0     C90962   6.945   9.229  10.362 -0.4224  0.5171  0.1696
  660MOL0     C90963   7.049   9.231  10.476  1.1142 -1.0413 -0.9079
  660MOL0     C90964   6.987   9.282  10.608 -0.8248 -0.1608  0.9316
  660MOL0     C90965   7.089   9.278  10.720 -0.2441 -0.4194 -0.7540
  660MOL0     O90966   7.037   9.333  10.844 -0.0243 -0.5490  0.8570
  660MOL0     C90967   7.117   9.327  10.959  0.0985 -1.0063 -0.7027
  660MOL0     C90968   7.254   9.301  10.965 -0.1082  1.0430 -1.0630
  660MOL0     C90969   7.321   9.309  11.086 -0.2047 -0.0446 -0.0671
  660MOL0     C90970   7.468   9.270  11.089 -0.1689  0.3016 -0.2462
  660MOL0     C90971   7.255   9.346  11.208 -0.0323  0.3832 -0.1847
  660MOL0     C90972   7.314   9.358  11.342  0.3872  0.4844 -0.5494
  660MOL0     O90973   7.226   9.374  11.450  0.9257  0.4454 -0.2100
  660MOL0     C90974   7.288   9.400  11.568 -0.7998  0.4939 -0.0328
  660MOL0     C90975   7.367   9.305  11.639 -1.1370  0.0592  1.1803
  660MOL0     C90976   7.419   9.329  11.770 -0.2882  0.6751  0.2961
  660MOL0     C90977   7.394   9.449  11.837  0.3302  0.3162  0.6121
  660MOL0     O90978   7.441   9.465  11.967  0.1081 -0.4208  0.5314
  660MOL0     C90979   7.514   9.584  12.005  0.0654  0.6953 -0.4733
  660MOL0     C90980   7.611   9.538  12.118 -0.3190 -0.9021  0.2877
  660MOL0     C90981   7.525   9.495  12.245 -0.1409 -0.0303  0.0129
  660MOL0     C90982   7.591   9.447  12.371 -0.4222 -0.1994 -0.5735
  660MOL0     C90983   7.674   9.307  12.351 -0.1727 -0.0416 -0.0597
  660MOL0     C90984   7.761   9.268  12.468  0.5018  0.0893 -0.1515
  660MOL0     C90985   7.898   9.337  12.461  0.2134 -0.1028 -0.5989
  660MOL0     C90986   7.984   9.304  12.597  0.5003  0.1287  1.0534
  660MOL0    Cl90987   8.035   9.133  12.574 -0.5259 -0.3929 -0.3892
  660MOL0     C90988   7.314   9.537  11.767 -0.3071  0.0877 -0.3025
  660MOL0     C90989   7.267   9.519  11.639 -0.5318  0.9692  0.6813
  660MOL0     O90990   7.436   9.361  11.357 -0.7126  0.6284 -0.3658
  660MOL0     C90991   7.115   9.377  11.198  0.7342 -0.3688  0.8142
  660MOL0     C90992   7.050   9.372  11.073  0.2506 -0.9696  0.4302
  660MOL0     N90993   7.078   9.206  10.149 -0.6939 -0.5563  0.4073
  660MOL0     N90994   7.124   9.113  10.072  0.1188  0.4326  0.2684
  660MOL0     C90995   6.639   8.966   9.176  0.7840 -0.1480 -0.6770
  660MOL0     C90996   6.610   9.102   9.149  0.6568 -0.1860 -0.2298
  660MOL0     C90997   6.446   9.528   9.208 -0.2392  0.8762 -0.6879
  660MOL0     C90998   6.348   9.526   9.100  1.1994  1.3625 -0.5460
  660MOL0     C90999   6.295   9.636   9.050  0.1941 -0.5849 -0.6607
  660MOL0     C91000   6.348   9.761   9.093 -0.5729  0.3911 -0.1200
  660MOL0     O91001   6.291   9.883   9.045  0.1666  0.1952  0.7664
  660MOL0     C91002   6.274   9.895   8.898 -0.0304 -0.5479 -0.9603
  660MOL0     C91003   6.371   9.993   8.849 -0.3249 -0.0443 -0.1471
  660MOL0     C91004   6.514   9.937   8.825  0.7794 -0.4035 -0.7446
  660MOL0     C91005   6.628  10.036   8.811 -0.1398 -0.7563 -0.4493
  660MOL0     C91006   6.591  10.136   8.702 -0.5592 -0.4100  0.6069
  660MOL0     C91007   6.544  10.205   8.616 -0.3705  0.9626  0.8909
  660MOL0     C91008   6.447   9.756   9.196  1.2225 -0.8193  0.0660
  660MOL0     C91009   6.490   9.646   9.255 -0.9170 -0.1583  0.0794
  660MOL0     C91010   6.593   9.643   9.359 -0.3123 -0.1763  0.1818
  660MOL0     H91011   6.342   9.143   9.360  1.2940 -0.3032  1.0592
  660MOL0     H91012   6.391   8.925   9.406  1.6210 -0.1019  1.0657
  660MOL0     H91013   6.774   8.759   9.263  1.1447 -0.9171  0.3001
  660MOL0     H91014   6.728   8.641   9.369  0.1757 -0.4929 -1.3871
  660MOL0     H91015   6.785   8.938   9.436 -0.1848  0.2584 -0.4678
  660MOL0     H91016   6.703   8.829   9.560  1.0384  0.6259  1.8734
  660MOL0     H91017   6.925   8.680   9.520 -1.0960 -0.1600  0.3718
  660MOL0     H91018   6.982   8.841   9.460 -1.2598 -0.2760 -1.1277
  660MOL0     H91019   6.899   8.933   9.695 -0.4746  0.1033 -0.0896
  660MOL0     H91020   6.867   8.772   9.738 -0.5769 -1.7940 -2.7255
  660MOL0     H91021   7.137   8.886   9.624 -0.5701 -0.4928 -1.8848
  660MOL0     H91022   7.128   8.727   9.690  0.8224  0.5982 -0.1986
  660MOL0     H91023   7.211   8.917   9.838 -0.4335  0.4598 -0.1055
  660MOL0     H91024   7.040   8.978   9.837  0.3338  0.3111 -3.4776
  660MOL0     H91025   7.130   8.704   9.933 -1.6306 -1.2457  1.1441
  660MOL0     H91026   6.982   8.777   9.955  0.1162 -3.7608  0.3179
  660MOL0     H91027   7.091   8.795  10.169  0.8120  0.7286  0.4899
  660MOL0     H91028   7.242   8.870  10.102  0.1590 -1.0034 -0.0809
  660MOL0     H91029   6.969   8.939  10.307  0.6208 -2.2922 -3.3751
  660MOL0     H91030   6.858   9.165  10.381 -1.0298  0.6402 -1.9322
  660MOL0     H91031   6.926   9.329  10.322  1.7005  0.2166 -1.8140
  660MOL0     H91032   7.075   9.125  10.482  0.9793 -1.1626 -2.1749
  660MOL0     H91033   7.133   9.297  10.451  0.1711  0.1339 -1.0817
  660MOL0     H91034   6.961   9.388  10.606 -0.7821 -0.1487 -1.8879
  660MOL0     H91035   6.902   9.218  10.632 -1.9216  1.3331  1.2011
  660MOL0     H91036   7.113   9.173  10.738  0.5279  0.1532  1.8658
  660MOL0     H91037   7.178   9.337  10.696 -1.2689  2.4230  1.7334
  660MOL0     H91038   7.306   9.263  10.877 -3.0137 -2.0713 -1.6526
  660MOL0     H91039   7.533   9.357  11.078 -1.1295  1.0848  0.1046
  660MOL0     H91040   7.492   9.200  11.008  0.3177  1.7453 -1.4023
  660MOL0     H91041   7.499   9.210  11.175  0.0065 -1.1806 -1.3052
  660MOL0     H91042   7.396   9.211  11.593  0.9794  0.3173  1.8904
  660MOL0     H91043   7.480   9.250  11.814 -1.1379 -0.2272 -0.0981
  660MOL0     H91044   7.560   9.634  11.919 -1.6156 -0.1259 -1.9110
  660MOL0     H91045   7.436   9.651  12.042  0.7977  0.7450  1.0617
  660MOL0     H91046   7.680   9.466  12.074  1.6645  0.9903  0.1096
  660MOL0     H91047   7.668   9.629  12.142 -1.6636 -0.3910  1.7047
  660MOL0     H91048   7.459   9.413  12.213 -0.1379  0.1513 -0.4747
  660MOL0     H91049   7.463   9.583  12.265  0.0546  0.4086 -1.2179
  660MOL0     H91050   7.519   9.408  12.443  1.4946 -1.7920  0.5800
  660MOL0     H91051   7.647   9.533  12.410 -1.6780  0.2971  0.1792
  660MOL0     H91052   7.605   9.223  12.340 -0.5890 -0.0907  2.3475
  660MOL0     H91053   7.737   9.321  12.263 -1.7246  2.8953 -0.8384
  660MOL0     H91054   7.779   9.161  12.476  0.9615  0.3032  2.4827
  660MOL0     H91055   7.713   9.292  12.563  5.2826  4.3311  1.6499
  660MOL0     H91056   7.882   9.444  12.449 -0.0729  0.3823  2.9666
  660MOL0     H91057   7.953   9.304  12.372 -2.6770  0.2023 -2.6237
  660MOL0     H91058   7.933   9.316  12.694  0.7640  0.2591  1.1750
  660MOL0     H91059   8.064   9.377  12.589 -1.7063  2.5299 -0.5948
  660MOL0     H91060   7.280   9.626  11.821 -0.5339  0.1152 -0.4880
  660MOL0     H91061   7.206   9.594  11.588 -1.6460 -0.1617  0.2915
  660MOL0     H91062   7.053   9.401  11.284 -0.7993 -0.3568 -0.2486
  660MOL0     H91063   6.942   9.384  11.072  0.5684  3.0829 -0.3118
  660MOL0     H91064   6.725   8.915   9.133  0.3898 -3.9519  2.4711
  660MOL0     H91065   6.671   9.168   9.089  1.8216  0.6220  1.7350
  660MOL0     H91066   6.316   9.427   9.070  2.1204  1.4773 -2.0108
  660MOL0     H91067   6.209   9.629   8.984 -1.5338  5.1056  0.4709
  660MOL0     H91068   6.260   9.796   8.853 -2.0864  0.0596 -1.7564
  660MOL0     H91069   6.177   9.944   8.884  0.7270  1.1603 -0.5333
  660MOL0     H91070   6.357  10.071   8.924 -4.5656 -0.5497 -0.1454
  660MOL0     H91071   6.344  10.030   8.749  1.8000  1.3168 -0.2659
  660MOL0     H91072   6.537   9.862   8.902 -2.7220 -1.0458 -0.1417
  660MOL0     H91073   6.512   9.877   8.734  1.5874  2.7092 -2.9881
  660MOL0     H91074   6.709   9.974   8.772 -0.5234  0.3407 -3.2299
  660MOL0     H91075   6.645  10.079   8.910 -1.9593  3.4520 -1.7592
  660MOL0     H91076   6.498  10.272   8.545 -2.3946 -2.1171 -0.9351
  660MOL0     H91077   6.474   9.856   9.228 -2.3929  0.6828 -1.0874
  660MOL0     H91078   6.548   9.612   9.454 -2.0866 -2.6673 -1.3640
  660MOL0     H91079   6.676   9.577   9.334  0.2966 -0.3179  2.3572
  660MOL0     H91080   6.632   9.744   9.379  1.3663 -0.7336 -0.1643
  661MOL0     O91081   4.973   5.473   8.331  0.1798 -0.9037 -0.3422
  661MOL0     C91082   5.005   5.454   8.451 -0.4302  0.1755 -0.2672
  661MOL0     O91083   5.002   5.331   8.509  0.8783 -0.2448  0.5544
  661MOL0     C91084   4.911   5.248   8.458  0.4481 -0.1670 -0.4373
  661MOL0     C91085   4.947   5.175   8.341 -0.1807 -0.2495  1.1378
  661MOL0     C91086   4.852   5.087   8.297  0.9085  0.7302  0.3947
  661MOL0     C91087   4.728   5.064   8.361 -0.3900 -0.9576  0.4610
  661MOL0     O91088   4.642   4.975   8.309  0.3661 -0.1105 -0.0008
  661MOL0     C91089   4.621   4.853   8.382  0.1728  0.1370 -0.5504
  661MOL0     C91090   4.641   4.721   8.299  0.0204  0.6086  0.3022
  661MOL0     C91091   4.603   4.735   8.147 -1.1558  0.2063  0.2469
  661MOL0     C91092   4.633   4.598   8.078  0.5529 -0.4096 -0.3554
  661MOL0     C91093   4.561   4.603   7.945 -0.0771 -0.5227  0.1112
  661MOL0     C91094   4.615   4.497   7.854  0.0386  0.0773 -0.7138
  661MOL0     C91095   4.514   4.462   7.758  1.2024  0.0865  0.0584
  661MOL0     C91096   4.520   4.556   7.649  0.5865 -0.4463  0.4135
  661MOL0     N91097   4.409   4.520   7.553 -0.7722  0.2624  0.1010
  661MOL0     C91098   4.295   4.594   7.554  0.1289  0.4867  0.3524
  661MOL0     C91099   4.226   4.548   7.449  1.4105 -0.1189 -0.0096
  661MOL0     C91100   4.090   4.603   7.411  0.0866 -0.9113 -0.1268
  661MOL0     C91101   4.091   4.671   7.275 -0.4040 -0.5004  0.5396
  661MOL0     C91102   3.944   4.715   7.246  0.3913 -0.2995 -0.5579
  661MOL0     C91103   3.855   4.594   7.218  0.1946  0.4690  0.3740
  661MOL0     O91104   3.727   4.624   7.169 -0.1608 -0.4088 -0.0847
  661MOL0     C91105   3.634   4.524   7.181 -0.2160 -0.1581  0.7892
  661MOL0     C91106   3.653   4.394   7.220  1.4769  0.0189  0.4193
  661MOL0     C91107   3.548   4.299   7.210  0.2247  0.0752  0.5571
  661MOL0     C91108   3.580   4.151   7.244  0.1884 -0.4330  0.4729
  661MOL0     C91109   3.413   4.338   7.176 -0.8805  0.0932 -0.2396
  661MOL0     C91110   3.296   4.248   7.166  0.2071  1.0220  0.0701
  661MOL0     O91111   3.181   4.319   7.147 -0.4457 -0.4019  0.2981
  661MOL0     C91112   3.054   4.258   7.135 -0.1073  0.2528 -0.1443
  661MOL0     C91113   3.044   4.153   7.038  0.1176 -0.3928 -0.7235
  661MOL0     C91114   2.932   4.075   7.050 -0.7439 -0.3682 -0.6101
  661MOL0     C91115   2.824   4.100   7.136  0.2019  0.1799  0.4670
  661MOL0     O91116   2.707   4.024   7.127  0.3391 -0.3215  0.3162
  661MOL0     C91117   2.682   3.944   7.240  0.9311  0.1075 -0.0449
  661MOL0     C91118   2.563   3.847   7.248 -0.0934 -0.8253 -0.4178
  661MOL0     C91119   2.610   3.720   7.324 -0.7167 -0.5712 -0.6399
  661MOL0     C91120   2.503   3.604   7.323 -0.3357  0.1336 -0.7906
  661MOL0     C91121   2.566   3.478   7.379 -0.6154 -0.2380 -0.1481
  661MOL0     C91122   2.658   3.410   7.269  0.4932 -0.4525 -0.5730
  661MOL0     C91123   2.629   3.262   7.263  0.5737  0.6963 -0.7275
  661MOL0     C91124   2.701   3.181   7.156  0.1164 -0.5211  0.3120
  661MOL0    Cl91125   2.849   3.090   7.218 -0.3629  0.4285 -0.5590
  661MOL0     C91126   2.838   4.207   7.230 -0.8136  0.2279  0.4891
  661MOL0     C91127   2.952   4.288   7.228 -0.1297 -0.0355 -0.5968
  661MOL0     O91128   3.298   4.129   7.204  0.1320  0.4088 -0.0918
  661MOL0     C91129   3.399   4.475   7.148  0.0647 -0.0472 -0.2995
  661MOL0     C91130   3.503   4.565   7.155 -0.2233  0.3719  0.1650
  661MOL0     N91131   4.303   4.451   7.392  0.3997 -0.7949 -0.2399
  661MOL0     N91132   4.411   4.427   7.457 -0.0838  0.1575  0.4368
  661MOL0     C91133   4.705   5.130   8.484 -0.2600  0.5085  0.9811
  661MOL0     C91134   4.798   5.211   8.534  0.5069 -0.7633  0.5297
  661MOL0     C91135   5.108   5.555   8.515  0.3945  0.0689  0.8509
  661MOL0     C91136   5.173   5.513   8.633 -0.1697 -0.1779  0.9013
  661MOL0     C91137   5.259   5.600   8.699 -0.7262  0.1902 -0.7195
  661MOL0     C91138   5.297   5.726   8.648 -0.4174 -0.1898  0.6777
  661MOL0     O91139   5.400   5.797   8.713  0.2324  0.7793 -0.4160
  661MOL0     C91140   5.360   5.915   8.795 -0.4527  0.4068 -0.0222
  661MOL0     C91141   5.444   5.916   8.923  0.6293  0.4620 -0.1604
  661MOL0     C91142   5.431   5.788   9.004  0.6482 -0.4682  0.3822
  661MOL0     C91143   5.466   5.822   9.152 -0.2953  0.1683  0.1263
  661MOL0     C91144   5.609   5.855   9.182  1.0168  0.4149 -0.5354
  661MOL0     C91145   5.727   5.877   9.205 -0.5549  0.2183  0.8988
  661MOL0     C91146   5.250   5.756   8.521  0.2498 -0.7332  0.0641
  661MOL0     C91147   5.151   5.674   8.457 -1.2225 -0.3601  0.3940
  661MOL0     C91148   5.095   5.738   8.327 -0.1187 -0.8126 -0.1097
  661MOL0     H91149   5.042   5.192   8.291 -1.0808  0.8678 -0.2635
  661MOL0     H91150   4.874   5.029   8.207  0.7647  0.2557  0.6608
  661MOL0     H91151   4.517   4.857   8.414  0.1028 -3.4554  0.0888
  661MOL0     H91152   4.677   4.861   8.475 -1.7467  1.2014  0.5581
  661MOL0     H91153   4.749   4.700   8.297 -0.5055 -2.4507 -0.4106
  661MOL0     H91154   4.604   4.636   8.358  0.1698 -3.0392 -4.3013
  661MOL0     H91155   4.499   4.767   8.141 -0.6930  1.6554 -0.9562
  661MOL0     H91156   4.664   4.812   8.097 -0.5501  1.1123  2.2946
  661MOL0     H91157   4.740   4.578   8.064  0.2847 -1.2966 -1.2952
  661MOL0     H91158   4.601   4.508   8.132 -1.1709  1.9632  2.8909
  661MOL0     H91159   4.585   4.696   7.892  1.5298 -1.3400 -0.6788
  661MOL0     H91160   4.453   4.597   7.962 -0.0521 -1.5214  0.0169
  661MOL0     H91161   4.704   4.532   7.803 -0.5861 -1.0595 -2.7073
  661MOL0     H91162   4.627   4.404   7.911  0.0851  0.2778 -0.3944
  661MOL0     H91163   4.416   4.453   7.807 -0.1064 -1.7816 -2.6339
  661MOL0     H91164   4.534   4.359   7.726 -0.0012 -1.1162  2.7802
  661MOL0     H91165   4.502   4.653   7.697  1.8106 -1.3521  2.8869
  661MOL0     H91166   4.618   4.559   7.599  1.9533 -0.9684  2.8814
  661MOL0     H91167   4.259   4.678   7.613  1.5571  1.0450  0.4656
  661MOL0     H91168   4.051   4.674   7.485 -0.9261 -2.0648  0.4760
  661MOL0     H91169   4.017   4.523   7.418 -0.4607 -0.3744  0.4381
  661MOL0     H91170   4.149   4.763   7.285 -0.1252 -0.7462  1.2292
  661MOL0     H91171   4.119   4.612   7.187 -0.1716  0.4625 -0.0493
  661MOL0     H91172   3.898   4.784   7.318 -0.5106 -1.8937  0.4580
  661MOL0     H91173   3.954   4.763   7.148 -1.7495 -0.2977 -0.8253
  661MOL0     H91174   3.905   4.532   7.143 -1.4908 -0.3669 -0.0864
  661MOL0     H91175   3.853   4.533   7.309  1.7263 -1.5895 -0.8947
  661MOL0     H91176   3.751   4.358   7.250  1.0244 -0.2295  1.6603
  661MOL0     H91177   3.567   4.095   7.152 -1.2195 -1.2361  1.1191
  661MOL0     H91178   3.516   4.125   7.329  1.3409 -0.0583  1.4793
  661MOL0     H91179   3.685   4.137   7.269  0.9664  1.2520 -1.6097
  661MOL0     H91180   3.114   4.105   6.970  2.8586 -0.5987  2.0207
  661MOL0     H91181   2.921   3.994   6.978 -1.9143  0.8468 -1.8712
  661MOL0     H91182   2.775   3.885   7.241  2.5547  2.3691 -2.6699
  661MOL0     H91183   2.667   3.999   7.333 -3.3512 -1.8857  0.6721
  661MOL0     H91184   2.476   3.897   7.292  0.9340  1.6734 -1.0481
  661MOL0     H91185   2.532   3.832   7.145 -0.4399  1.2644 -0.6655
  661MOL0     H91186   2.629   3.751   7.428  0.7831  0.8668 -1.2928
  661MOL0     H91187   2.707   3.676   7.298  1.2954 -0.0596  4.6629
  661MOL0     H91188   2.482   3.584   7.218  1.3073  0.5523 -1.2289
  661MOL0     H91189   2.413   3.627   7.381 -0.5792 -1.4946 -0.4676
  661MOL0     H91190   2.632   3.499   7.464 -0.2299  1.1980 -0.7712
  661MOL0     H91191   2.488   3.414   7.420 -1.0639  0.8890  0.8267
  661MOL0     H91192   2.765   3.428   7.280  0.6778 -1.6769 -0.1950
  661MOL0     H91193   2.631   3.453   7.172  0.7132 -0.3963 -0.6097
  661MOL0     H91194   2.523   3.266   7.236 -0.2106  2.2528  2.1713
  661MOL0     H91195   2.630   3.215   7.362 -1.3451  1.3994 -0.3275
  661MOL0     H91196   2.739   3.256   7.086 -1.1780  0.7353  0.8914
  661MOL0     H91197   2.638   3.103   7.112  0.5248 -0.6691 -0.0133
  661MOL0     H91198   2.760   4.225   7.304 -0.8062 -2.8277  1.3951
  661MOL0     H91199   2.965   4.372   7.295 -0.4177 -0.6088  0.1903
  661MOL0     H91200   3.305   4.523   7.125 -0.0752 -1.1627 -2.2797
  661MOL0     H91201   3.497   4.672   7.140 -1.4691  0.3418  0.3709
  661MOL0     H91202   4.611   5.118   8.538 -0.0961  1.6054  1.5500
  661MOL0     H91203   4.769   5.250   8.631 -1.8440 -0.6600 -0.1595
  661MOL0     H91204   5.163   5.418   8.683  4.3963 -0.4960  1.5990
  661MOL0     H91205   5.286   5.560   8.796  1.3454  1.9606 -0.4805
  661MOL0     H91206   5.364   6.007   8.736  2.6753  0.1227 -0.4382
  661MOL0     H91207   5.256   5.904   8.826 -1.2669 -1.0624 -2.8999
  661MOL0     H91208   5.416   5.996   8.992 -0.6253 -0.3374  0.2739
  661MOL0     H91209   5.549   5.929   8.894  1.2206 -0.4838  1.4352
  661MOL0     H91210   5.330   5.748   8.994  1.1615 -1.7271  0.1036
  661MOL0     H91211   5.516   5.731   8.967  1.1818  0.8344 -0.4914
  661MOL0     H91212   5.446   5.735   9.215  2.5181  0.4056  1.5003
  661MOL0     H91213   5.402   5.904   9.187  0.4636  0.9776 -0.3376
  661MOL0     H91214   5.830   5.889   9.233 -1.1646  2.7643  2.4279
  661MOL0     H91215   5.272   5.853   8.478 -2.7869  1.0844  2.2181
  661MOL0     H91216   4.990   5.765   8.333 -0.0266 -0.3836 -0.3955
  661MOL0     H91217   5.150   5.828   8.298  1.7267 -1.7700  0.2458
  661MOL0     H91218   5.106   5.682   8.234 -1.3215 -0.0042 -0.7596
  662MOL0     O91219   3.267   0.464   6.238  0.0166  0.4672 -0.3206
  662MOL0     C91220   3.181   0.538   6.199 -0.4755  0.1946 -0.4094
  662MOL0     O91221   3.204   0.630   6.100  0.4299  0.2468  0.2027
  662MOL0     C91222   3.328   0.672   6.071  1.0737 -0.4430 -0.1994
  662MOL0     C91223   3.405   0.752   6.152 -0.3629  0.8291 -0.6445
  662MOL0     C91224   3.535   0.801   6.117  0.4588 -0.7223  0.0829
  662MOL0     C91225   3.579   0.780   5.982 -1.0308 -0.1222  0.7169
  662MOL0     O91226   3.692   0.829   5.921 -0.3486 -0.6089  0.3636
  662MOL0     C91227   3.771   0.924   5.997  0.1941 -0.7758 -0.4095
  662MOL0     C91228   3.908   0.944   5.934 -0.7752  0.1823 -0.0932
  662MOL0     C91229   3.996   0.817   5.911  0.4498  0.6015  0.3356
  662MOL0     C91230   4.148   0.845   5.883  0.5336 -0.5592  0.7103
  662MOL0     C91231   4.239   0.761   5.984 -0.1123  0.4704  0.9995
  662MOL0     C91232   4.382   0.807   5.970  0.1123 -0.2463  0.6115
  662MOL0     C91233   4.481   0.730   6.066 -0.2122 -0.2231  0.2457
  662MOL0     C91234   4.501   0.583   6.039  0.2747  0.8775 -0.5132
  662MOL0     N91235   4.558   0.565   5.906  0.4036 -0.5890  0.0600
  662MOL0     C91236   4.490   0.516   5.795 -0.6226 -0.5565 -0.1279
  662MOL0     C91237   4.589   0.516   5.692  0.4745 -0.4834 -0.3844
  662MOL0     C91238   4.557   0.468   5.555  0.3654 -0.3412 -0.8845
  662MOL0     C91239   4.667   0.374   5.498 -0.1052 -1.1899 -0.3870
  662MOL0     C91240   4.794   0.445   5.450  1.0770  0.5914  0.2002
  662MOL0     C91241   4.885   0.333   5.410 -0.6678  0.4049  0.6122
  662MOL0     O91242   5.023   0.389   5.381  0.1725  0.7077 -0.3802
  662MOL0     C91243   5.131   0.301   5.394 -1.1127 -0.3033 -0.2731
  662MOL0     C91244   5.122   0.169   5.415 -0.3898  0.0641 -0.5246
  662MOL0     C91245   5.231   0.090   5.407  0.0603  0.5497 -0.0613
  662MOL0     C91246   5.196  -0.057   5.441 -0.5587  0.0290  0.0708
  662MOL0     C91247   5.364   0.143   5.390 -0.9759  0.2093 -0.2254
  662MOL0     C91248   5.488   0.061   5.387  0.2633 -0.7773  0.8430
  662MOL0     O91249   5.597   0.134   5.357 -0.0112 -0.4909 -0.8014
  662MOL0     C91250   5.710   0.062   5.328 -0.5162  0.9522  0.9039
  662MOL0     C91251   5.716  -0.042   5.227  0.2834  0.7727 -0.0281
  662MOL0     C91252   5.830  -0.110   5.198 -0.5067  0.7190  0.0882
  662MOL0     C91253   5.954  -0.090   5.266  0.1933 -0.3408  0.3884
  662MOL0     O91254   6.059  -0.179   5.247  0.2626 -0.8238  1.0111
  662MOL0     C91255   6.197  -0.136   5.274 -0.0733 -0.5565  0.5895
  662MOL0     C91256   6.244  -0.168   5.418  0.1373  0.7562 -0.8469
  662MOL0     C91257   6.254  -0.320   5.436  0.4246 -0.1681  0.0501
  662MOL0     C91258   6.285  -0.365   5.573 -0.0762 -0.2803 -0.6869
  662MOL0     C91259   6.430  -0.325   5.617  0.2577 -0.2433  0.1239
  662MOL0     C91260   6.483  -0.398   5.737  0.2425  0.7014 -0.2263
  662MOL0     C91261   6.633  -0.379   5.756  0.1828  0.0078 -1.5342
  662MOL0     C91262   6.694  -0.459   5.875 -0.3498  0.5547  0.1418
  662MOL0    Cl91263   6.871  -0.457   5.846 -0.5934 -0.0292 -0.2580
  662MOL0     C91264   5.964   0.027   5.349  0.1276 -0.0248 -0.0505
  662MOL0     C91265   5.842   0.098   5.373 -0.0717 -0.0687 -0.3017
  662MOL0     O91266   5.473  -0.058   5.387  0.4213  0.2601 -0.1019
  662MOL0     C91267   5.369   0.281   5.374 -0.2056 -0.6335  0.6636
  662MOL0     C91268   5.255   0.361   5.371 -0.6079 -0.0559 -0.2187
  662MOL0     N91269   4.697   0.585   5.736 -0.7621  0.8785  0.5080
  662MOL0     N91270   4.676   0.615   5.858 -0.6434  0.3620  0.1576
  662MOL0     C91271   3.504   0.691   5.897 -0.1852 -0.7262  0.2126
  662MOL0     C91272   3.381   0.650   5.948 -0.6468  0.5456 -0.3431
  662MOL0     C91273   3.048   0.515   6.254 -0.0229 -0.5251 -0.1606
  662MOL0     C91274   2.962   0.624   6.228  0.9963 -0.0382  0.2585
  662MOL0     C91275   2.830   0.630   6.269 -0.0645  0.0013  0.7655
  662MOL0     C91276   2.773   0.529   6.341  0.3017 -0.3319  0.3194
  662MOL0     O91277   2.645   0.545   6.401 -0.5273  0.8239 -0.5645
  662MOL0     C91278   2.535   0.581   6.318  0.0168 -0.2326  0.4726
  662MOL0     C91279   2.405   0.594   6.393 -0.4034 -0.4455  0.2685
  662MOL0     C91280   2.408   0.707   6.493  0.1770 -0.0950 -0.2280
  662MOL0     C91281   2.276   0.718   6.578  0.2081 -0.2020  0.0607
  662MOL0     C91282   2.160   0.742   6.489  0.6752 -0.4900  1.4676
  662MOL0     C91283   2.052   0.774   6.428 -0.3986  0.4799 -0.7153
  662MOL0     C91284   2.857   0.414   6.371  0.1668  0.3738  1.1664
  662MOL0     C91285   2.992   0.406   6.330 -0.4631  0.7337  0.2697
  662MOL0     C91286   3.071   0.276   6.365 -0.3085  0.1143 -0.5168
  662MOL0     H91287   3.364   0.761   6.252 -1.5604 -1.3466 -0.8850
  662MOL0     H91288   3.591   0.854   6.192  0.8637 -2.7992  1.3396
  662MOL0     H91289   3.769   0.894   6.102 -0.4574 -3.7614 -1.1714
  662MOL0     H91290   3.725   1.023   5.997 -2.6621 -1.8948 -3.9675
  662MOL0     H91291   3.893   0.989   5.836  0.1213  1.2943  0.2545
  662MOL0     H91292   3.964   1.017   5.994 -1.3969 -0.4729  1.3227
  662MOL0     H91293   3.993   0.759   6.003  1.4260  0.1103  0.0711
  662MOL0     H91294   3.954   0.757   5.830  0.7053 -0.1307  0.7413
  662MOL0     H91295   4.171   0.842   5.776  2.8148  0.5236  1.1002
  662MOL0     H91296   4.164   0.950   5.909 -2.2298 -0.5107  2.6058
  662MOL0     H91297   4.236   0.660   5.942  2.0563  1.3920 -1.5850
  662MOL0     H91298   4.201   0.783   6.085 -0.4719 -0.3137  1.0431
  662MOL0     H91299   4.416   0.793   5.867  1.2440 -3.3279  1.2942
  662MOL0     H91300   4.392   0.910   6.004  1.9074 -0.4363  0.7127
  662MOL0     H91301   4.437   0.737   6.166 -0.2395 -1.9513  0.3895
  662MOL0     H91302   4.580   0.776   6.068  0.4465 -1.4324  3.9963
  662MOL0     H91303   4.578   0.546   6.107  0.9191  0.3247 -1.5179
  662MOL0     H91304   4.407   0.528   6.050  1.7362 -1.6143  0.1827
  662MOL0     H91305   4.384   0.490   5.795 -0.5217 -0.9816 -0.5852
  662MOL0     H91306   4.558   0.562   5.499 -0.9273  0.2344  0.0156
  662MOL0     H91307   4.458   0.421   5.555  0.4544 -0.5400 -1.7840
  662MOL0     H91308   4.695   0.298   5.572  1.2734 -1.9407 -1.6175
  662MOL0     H91309   4.619   0.325   5.412  1.8881  0.4277 -2.5572
  662MOL0     H91310   4.761   0.505   5.364  1.2544 -1.3015 -1.2599
  662MOL0     H91311   4.845   0.516   5.516  0.5215  2.2905 -1.1203
  662MOL0     H91312   4.891   0.267   5.498 -2.5419 -1.5165 -0.5993
  662MOL0     H91313   4.838   0.275   5.330  1.0946  0.0181 -0.1836
  662MOL0     H91314   5.021   0.131   5.423 -1.8084  3.6320  0.3042
  662MOL0     H91315   5.246  -0.089   5.533 -1.6044  1.6867  1.2749
  662MOL0     H91316   5.227  -0.121   5.358  0.4323  0.7772 -0.1495
  662MOL0     H91317   5.090  -0.066   5.466 -1.3428  2.3656 -2.0541
  662MOL0     H91318   5.630  -0.073   5.169  1.7092 -0.6610 -1.4768
  662MOL0     H91319   5.822  -0.196   5.133 -2.3102  0.6440  0.3601
  662MOL0     H91320   6.253  -0.204   5.208 -0.5925  1.0106 -1.5759
  662MOL0     H91321   6.217  -0.038   5.230 -0.4785 -2.1710 -3.7393
  662MOL0     H91322   6.342  -0.122   5.434  0.3649 -0.7241  2.7801
  662MOL0     H91323   6.167  -0.120   5.479  1.4071  1.1514  0.4870
  662MOL0     H91324   6.333  -0.357   5.370  1.7806  1.0391  0.9454
  662MOL0     H91325   6.158  -0.365   5.407  0.4874  0.9024 -2.0866
  662MOL0     H91326   6.274  -0.474   5.568  1.9107 -0.4809 -1.3909
  662MOL0     H91327   6.220  -0.315   5.645  2.4485  0.8818  0.9126
  662MOL0     H91328   6.490  -0.342   5.527 -0.5033  2.4194 -1.0018
  662MOL0     H91329   6.426  -0.217   5.637 -1.0481  0.1099 -1.7486
  662MOL0     H91330   6.477  -0.507   5.723 -1.2491  0.7834 -0.3622
  662MOL0     H91331   6.417  -0.377   5.822 -2.3101  0.4020 -2.0084
  662MOL0     H91332   6.651  -0.277   5.792 -0.0315 -1.7916  4.6740
  662MOL0     H91333   6.687  -0.403   5.663  2.7165  0.8520 -0.3791
  662MOL0     H91334   6.660  -0.562   5.858 -2.4825  1.3106 -0.4875
  662MOL0     H91335   6.676  -0.427   5.978  0.4686  0.2433  0.3883
  662MOL0     H91336   6.055   0.056   5.400  2.0716 -4.8451 -0.1942
  662MOL0     H91337   5.856   0.184   5.439  1.3226  0.8309 -1.6811
  662MOL0     H91338   5.465   0.331   5.380  0.2191 -1.2407 -0.5865
  662MOL0     H91339   5.277   0.465   5.353 -0.2611 -0.4198 -2.2163
  662MOL0     H91340   3.532   0.676   5.793  3.1648  3.8517  0.1777
  662MOL0     H91341   3.328   0.582   5.882  3.9378 -3.0073 -0.8535
  662MOL0     H91342   2.984   0.716   6.174  0.1715 -0.5092 -0.9442
  662MOL0     H91343   2.778   0.725   6.256  0.0195 -0.2484 -1.7352
  662MOL0     H91344   2.549   0.679   6.272 -2.4544 -0.6340 -1.3599
  662MOL0     H91345   2.509   0.516   6.234 -1.0060  0.5576  0.1633
  662MOL0     H91346   2.386   0.500   6.446  0.0481 -0.3392  0.6269
  662MOL0     H91347   2.318   0.608   6.328 -0.9003  1.0647  1.2107
  662MOL0     H91348   2.492   0.687   6.560 -0.8365 -0.8291  0.8660
  662MOL0     H91349   2.421   0.800   6.437 -2.6443  0.6517  0.1957
  662MOL0     H91350   2.286   0.804   6.645  0.4888  0.7944 -1.2030
  662MOL0     H91351   2.258   0.632   6.643 -0.3611 -1.2250 -1.3828
  662MOL0     H91352   1.960   0.793   6.377 -0.2103  2.1059 -0.4887
  662MOL0     H91353   2.806   0.328   6.413  0.5577  0.2318  1.3526
  662MOL0     H91354   3.114   0.224   6.279 -1.7093 -2.9780  0.5106
  662MOL0     H91355   3.151   0.296   6.436 -0.6512 -1.4770  0.3583
  662MOL0     H91356   2.994   0.213   6.411 -2.0508  0.7329 -2.3968
  663MOL0     O91357   6.860   7.496   0.307 -0.5423  0.2511 -0.2066
  663MOL0     C91358   6.770   7.557   0.360 -0.2126 -0.3864  0.1978
  663MOL0     O91359   6.769   7.695   0.365  0.2877 -0.3755 -0.6648
  663MOL0     C91360   6.882   7.763   0.325  0.3102  1.2808 -0.2384
  663MOL0     C91361   6.970   7.818   0.421 -0.2117  0.5087 -0.7594
  663MOL0     C91362   7.085   7.887   0.391  0.6571  0.5725  0.2862
  663MOL0     C91363   7.116   7.905   0.258 -0.6138  0.7543  0.1986
  663MOL0     O91364   7.222   7.974   0.217  0.0084  0.9482 -1.3827
  663MOL0     C91365   7.329   7.975   0.314 -0.9930  0.4926  0.6147
  663MOL0     C91366   7.462   7.949   0.244 -0.5234  0.1645  0.2973
  663MOL0     C91367   7.493   8.029   0.118 -0.7111 -0.4145 -0.3006
  663MOL0     C91368   7.569   7.949   0.016 -0.7360 -0.1282  0.2945
  663MOL0     C91369   7.612   8.035  -0.094  1.3311  0.7611  0.4809
  663MOL0     C91370   7.727   8.125  -0.054 -0.0741  0.1183 -0.3373
  663MOL0     C91371   7.810   8.190  -0.177  0.1845  0.2105 -0.7176
  663MOL0     C91372   7.936   8.268  -0.133  0.3346  0.3482  0.3401
  663MOL0     N91373   8.007   8.321  -0.254  0.1344  0.3376  0.0298
  663MOL0     C91374   7.970   8.413  -0.348 -0.2114  0.3154  0.1067
  663MOL0     C91375   8.077   8.423  -0.426  0.3703 -0.6975 -0.8336
  663MOL0     C91376   8.096   8.507  -0.546 -0.2156  0.0248  0.0950
  663MOL0     C91377   8.103   8.663  -0.513 -0.7498  0.6616 -0.0753
  663MOL0     C91378   8.137   8.745  -0.630 -0.0583  0.0322 -0.0550
  663MOL0     C91379   8.076   8.883  -0.643  0.1931  0.4082  0.3663
  663MOL0     O91380   8.132   8.955  -0.751  0.7995 -0.3736 -0.1271
  663MOL0     C91381   8.236   9.039  -0.717  0.2040  0.3708  0.7978
  663MOL0     C91382   8.210   9.173  -0.726 -0.3924 -1.3122 -0.1295
  663MOL0     C91383   8.306   9.273  -0.684 -0.0101 -0.6366  0.3792
  663MOL0     C91384   8.260   9.419  -0.693  0.1862 -0.0666 -0.3083
  663MOL0     C91385   8.428   9.238  -0.634 -0.6000  0.2293 -0.4391
  663MOL0     C91386   8.535   9.328  -0.570  1.0533  0.0631  0.7206
  663MOL0     O91387   8.650   9.265  -0.533  0.1381  0.3390  0.1357
  663MOL0     C91388   8.776   9.321  -0.510  0.9060 -0.1916 -0.6944
  663MOL0     C91389   8.803   9.458  -0.516  0.3126  1.2834 -0.1496
  663MOL0     C91390   8.931   9.511  -0.484  1.0926 -0.6232  1.1591
  663MOL0     C91391   9.044   9.426  -0.456  0.9680  0.2467  0.1137
  663MOL0     O91392   9.168   9.473  -0.433 -0.3774  0.1877 -0.3081
  663MOL0     C91393   9.168   9.545  -0.307 -0.3537 -0.2908  0.0804
  663MOL0     C91394   9.237   9.469  -0.195  0.6863  0.6183  0.9965
  663MOL0     C91395   9.263   9.547  -0.070  0.7429 -0.1473  0.8757
  663MOL0     C91396   9.339   9.684  -0.087  0.8430 -0.1654  0.3691
  663MOL0     C91397   9.379   9.727   0.057  1.3505  0.2109  0.1483
  663MOL0     C91398   9.474   9.843   0.067  0.4501 -0.1187 -0.2933
  663MOL0     C91399   9.419   9.984   0.050  0.0999 -0.8310 -0.4505
  663MOL0     C91400   9.315  10.020   0.159  0.1836  0.8129 -0.3866
  663MOL0    Cl91401   9.408  10.081   0.299 -0.6426 -0.4187 -0.2104
  663MOL0     C91402   9.015   9.294  -0.448 -0.8202 -0.5828 -0.3590
  663MOL0     C91403   8.885   9.239  -0.470  0.5609 -0.5064 -0.4787
  663MOL0     O91404   8.520   9.451  -0.590  0.6519 -0.0155  0.8705
  663MOL0     C91405   8.451   9.100  -0.636  0.2990  0.3017  0.3831
  663MOL0     C91406   8.356   9.002  -0.667 -1.1120 -0.5542 -0.3727
  663MOL0     N91407   8.181   8.360  -0.370 -0.0267 -0.6654 -0.9810
  663MOL0     N91408   8.144   8.290  -0.270 -0.3424 -0.9467 -0.8566
  663MOL0     C91409   7.029   7.846   0.159  0.6593 -1.0794 -0.4071
  663MOL0     C91410   6.913   7.779   0.193 -0.5405 -0.4083  0.6027
  663MOL0     C91411   6.648   7.488   0.393  0.4778  0.1690 -0.1789
  663MOL0     C91412   6.529   7.550   0.352 -0.0152  0.1534 -0.9942
  663MOL0     C91413   6.400   7.490   0.361  0.8484 -0.5500 -0.4989
  663MOL0     C91414   6.394   7.361   0.410 -1.0162  0.6532  0.1435
  663MOL0     O91415   6.278   7.289   0.434 -0.5293 -0.1263  0.5397
  663MOL0     C91416   6.169   7.300   0.341 -1.2462 -0.8979  0.5647
  663MOL0     C91417   6.203   7.246   0.209  0.1613 -0.0697 -0.2892
  663MOL0     C91418   6.064   7.208   0.139  0.0970  0.7279  0.7480
  663MOL0     C91419   6.105   7.134   0.006  0.5846 -0.5203 -0.4139
  663MOL0     C91420   5.989   7.120  -0.084  0.2770  0.5354 -0.3962
  663MOL0     C91421   5.889   7.149  -0.151  1.2073  0.4689 -1.3097
  663MOL0     C91422   6.518   7.303   0.453  1.0955 -0.2037 -0.0678
  663MOL0     C91423   6.642   7.359   0.456 -0.1496  0.4876 -0.8866
  663MOL0     C91424   6.770   7.306   0.526  0.4236  0.2286  0.6780
  663MOL0     H91425   6.940   7.808   0.525 -2.4296 -0.5406 -1.4411
  663MOL0     H91426   7.141   7.926   0.475  1.3474 -1.3386  0.7529
  663MOL0     H91427   7.334   7.902   0.394 -0.5948  1.5145  1.5445
  663MOL0     H91428   7.326   8.076   0.356 -0.9227 -0.1942  2.3204
  663MOL0     H91429   7.549   7.939   0.310  2.7493  2.2650 -3.3137
  663MOL0     H91430   7.445   7.847   0.208 -1.3392  0.9826 -1.7962
  663MOL0     H91431   7.396   8.048   0.071 -1.1409 -2.2972 -0.2541
  663MOL0     H91432   7.539   8.126   0.137  0.1957 -0.7624 -0.6856
  663MOL0     H91433   7.662   7.915   0.061 -0.0406  1.7675  0.3868
  663MOL0     H91434   7.513   7.859  -0.010 -0.1428 -0.0344 -1.4927
  663MOL0     H91435   7.537   8.104  -0.136  0.7509 -0.0229  0.1977
  663MOL0     H91436   7.636   7.958  -0.168 -3.3759 -1.0768  0.5460
  663MOL0     H91437   7.702   8.213   0.005  2.7941  2.3646 -2.1938
  663MOL0     H91438   7.798   8.061  -0.001  0.3454 -0.0651 -1.1128
  663MOL0     H91439   7.734   8.249  -0.230 -0.1472 -0.6961 -1.2603
  663MOL0     H91440   7.845   8.114  -0.247  0.4060  0.5939 -1.0261
  663MOL0     H91441   7.905   8.349  -0.066 -1.4041  1.4272 -1.6512
  663MOL0     H91442   8.002   8.197  -0.082 -0.0954  0.2199  0.7345
  663MOL0     H91443   7.872   8.459  -0.356 -0.3837  0.1442  1.1574
  663MOL0     H91444   8.023   8.479  -0.623  1.0453 -0.5780 -0.9100
  663MOL0     H91445   8.194   8.483  -0.587 -0.2560 -2.2729  1.1334
  663MOL0     H91446   8.002   8.692  -0.481 -1.3408 -2.8151  1.6413
  663MOL0     H91447   8.168   8.678  -0.427 -0.1194 -0.5150 -0.3256
  663MOL0     H91448   8.245   8.744  -0.648 -0.1668 -1.0521 -0.7256
  663MOL0     H91449   8.098   8.701  -0.722  0.3110  1.8910 -1.1618
  663MOL0     H91450   7.968   8.872  -0.653  0.4771 -0.8720 -1.7906
  663MOL0     H91451   8.087   8.940  -0.550 -0.8628  1.4837 -0.1413
  663MOL0     H91452   8.111   9.203  -0.759  0.8376  0.6597 -2.3393
  663MOL0     H91453   8.326   9.469  -0.765  1.6361 -1.5282 -0.0431
  663MOL0     H91454   8.275   9.474  -0.599  1.3914  1.5212 -1.3564
  663MOL0     H91455   8.154   9.423  -0.720 -1.0143 -2.6743  3.3476
  663MOL0     H91456   8.730   9.532  -0.547 -0.1028 -0.1624 -2.9342
  663MOL0     H91457   8.934   9.620  -0.487 -1.9687 -0.4730 -0.2357
  663MOL0     H91458   9.227   9.635  -0.323 -1.6761  0.5263 -0.3715
  663MOL0     H91459   9.067   9.569  -0.271 -1.2722  0.9738 -3.0307
  663MOL0     H91460   9.175   9.381  -0.176  1.3004  0.0246  0.3292
  663MOL0     H91461   9.328   9.431  -0.243  0.1026  0.8216 -0.3204
  663MOL0     H91462   9.323   9.475  -0.013  2.0853  1.3925  1.4765
  663MOL0     H91463   9.168   9.554  -0.016  0.3044  1.2401 -0.0311
  663MOL0     H91464   9.269   9.757  -0.128 -0.5684 -0.8236  1.5213
  663MOL0     H91465   9.427   9.677  -0.152  1.3816  1.3095  0.8809
  663MOL0     H91466   9.289   9.736   0.119  0.9437 -0.1238 -0.3917
  663MOL0     H91467   9.435   9.642   0.097 -0.4041 -1.5240 -0.9228
  663MOL0     H91468   9.541   9.819  -0.016  0.1284  0.5396 -0.7470
  663MOL0     H91469   9.526   9.840   0.163 -2.1244  2.0067  1.3145
  663MOL0     H91470   9.371   9.996  -0.048  0.5611  0.4144 -0.5533
  663MOL0     H91471   9.493  10.065   0.043 -1.4955  0.6809 -0.4754
  663MOL0     H91472   9.241   9.943   0.181  1.1209  0.2054  0.7385
  663MOL0     H91473   9.254  10.102   0.119 -0.5275  1.3494  1.6864
  663MOL0     H91474   9.101   9.230  -0.431 -0.8838 -1.0906 -1.8621
  663MOL0     H91475   8.865   9.133  -0.472 -0.8967 -0.2615 -0.0600
  663MOL0     H91476   8.547   9.062  -0.603 -0.2936 -0.6521  1.1015
  663MOL0     H91477   8.389   8.899  -0.670  1.2095  0.1030 -3.4892
  663MOL0     H91478   7.052   7.846   0.053  1.7195 -0.5494 -0.1830
  663MOL0     H91479   6.850   7.742   0.113  1.3200  0.5038 -1.3517
  663MOL0     H91480   6.525   7.653   0.318 -0.4081  0.3267 -0.4495
  663MOL0     H91481   6.309   7.544   0.338 -0.4501 -1.6520  1.6801
  663MOL0     H91482   6.082   7.246   0.381 -1.9512  1.2706  2.1924
  663MOL0     H91483   6.149   7.406   0.322  1.7558 -0.4919 -0.9758
  663MOL0     H91484   6.252   7.149   0.217 -0.7328 -0.4638  0.7011
  663MOL0     H91485   6.268   7.309   0.149  0.0280 -0.7633 -1.1848
  663MOL0     H91486   5.999   7.145   0.201 -2.3326  0.9194 -1.4253
  663MOL0     H91487   6.010   7.301   0.122  3.4916  2.3879 -2.2075
  663MOL0     H91488   6.136   7.030   0.019  0.5323 -0.2902  2.0085
  663MOL0     H91489   6.185   7.188  -0.044  1.2634 -1.2693 -0.1589
  663MOL0     H91490   5.802   7.178  -0.206  1.2751 -2.0918 -2.9209
  663MOL0     H91491   6.498   7.209   0.503 -0.8515  0.2419  0.0929
  663MOL0     H91492   6.861   7.308   0.465  0.1329 -0.9781  0.1743
  663MOL0     H91493   6.789   7.364   0.617  0.1800  0.0293  0.8593
  663MOL0     H91494   6.754   7.198   0.539  0.0444 -0.3891 -3.5595
  664MOL0     O91495  10.344   4.928   9.664  0.1259 -0.4100 -0.3825
  664MOL0     C91496  10.273   5.025   9.646  0.3227  0.3994  0.1713
  664MOL0     O91497  10.140   5.028   9.674 -0.0312  0.3768  0.4267
  664MOL0     C91498  10.072   4.919   9.716 -0.2977  0.5094  0.3575
  664MOL0     C91499  10.101   4.783   9.687  0.1542 -0.4599 -0.2212
  664MOL0     C91500  10.025   4.676   9.750 -0.1962 -0.4543  0.3191
  664MOL0     C91501   9.930   4.710   9.844  1.1099  0.7026  1.7549
  664MOL0     O91502   9.857   4.608   9.900  0.0541 -0.0802 -0.0625
  664MOL0     C91503   9.867   4.467   9.861  0.0608 -0.2001  0.5567
  664MOL0     C91504   9.810   4.432   9.723  0.2098 -0.2334  0.3920
  664MOL0     C91505   9.877   4.313   9.664 -0.6959  0.0344  0.1654
  664MOL0     C91506   9.870   4.313   9.514 -0.9736  0.0074 -0.0095
  664MOL0     C91507   9.892   4.171   9.475 -0.1078 -0.6099 -0.6918
  664MOL0     C91508   9.957   4.157   9.334  1.0454  0.3194  0.4551
  664MOL0     C91509   9.857   4.187   9.224 -0.8503 -0.8563  0.1291
  664MOL0     C91510   9.751   4.074   9.193  0.2707 -0.1231  0.9211
  664MOL0     N91511   9.665   4.125   9.085 -0.2932  0.3554 -0.0214
  664MOL0     C91512   9.712   4.141   8.955  0.4646  0.3256 -0.4416
  664MOL0     C91513   9.610   4.171   8.877 -0.4239 -0.7125 -0.3366
  664MOL0     C91514   9.618   4.183   8.722 -0.2206  0.0245 -0.4431
  664MOL0     C91515   9.725   4.287   8.677 -0.3584  0.3621 -0.5655
  664MOL0     C91516   9.683   4.428   8.730  0.2229 -0.5109 -0.4667
  664MOL0     C91517   9.797   4.527   8.701  0.0909  0.5581  0.6184
  664MOL0     O91518   9.862   4.523   8.575  0.4663 -0.2583  0.1128
  664MOL0     C91519   9.987   4.460   8.557  0.0878  0.6285 -0.6336
  664MOL0     C91520  10.097   4.535   8.612  0.5128  0.9085  0.2033
  664MOL0     C91521  10.230   4.478   8.609  1.0042 -0.6932 -1.0051
  664MOL0     C91522  10.334   4.567   8.687  0.7841  0.0749  0.4269
  664MOL0     C91523  10.244   4.345   8.574 -0.0841 -0.0029 -0.1883
  664MOL0     C91524  10.372   4.271   8.581 -0.1822 -0.8913 -0.3873
  664MOL0     O91525  10.351   4.134   8.557  0.0113  0.1952 -0.8526
  664MOL0     C91526  10.458   4.047   8.572  1.3352  0.1888 -0.4790
  664MOL0     C91527  10.593   4.064   8.533 -0.3534 -0.2453  0.1133
  664MOL0     C91528  10.688   3.968   8.557 -0.0821  0.0118 -0.3076
  664MOL0     C91529  10.656   3.850   8.627  0.6221 -0.5940 -0.9302
  664MOL0     O91530  10.749   3.758   8.669 -0.0261 -0.1369  0.3644
  664MOL0     C91531  10.880   3.802   8.681  0.0535 -0.4447 -0.1085
  664MOL0     C91532  10.964   3.697   8.749 -0.3527  0.7477 -1.2296
  664MOL0     C91533  11.115   3.734   8.745  0.3989  0.0134 -0.0729
  664MOL0     C91534  11.212   3.653   8.842  0.2747  0.0878 -0.2760
  664MOL0     C91535  11.355   3.708   8.829  0.6219 -0.5671 -1.4393
  664MOL0     C91536  11.411   3.776   8.961 -0.2693 -0.3610  0.8094
  664MOL0     C91537  11.436   3.666   9.076  1.2262  0.3955  0.5173
  664MOL0     C91538  11.480   3.727   9.207  0.7795 -0.5415 -0.5754
  664MOL0    Cl91539  11.502   3.603   9.344 -0.6519  0.2001 -0.4784
  664MOL0     C91540  10.523   3.839   8.675 -0.0878 -0.1661  0.0725
  664MOL0     C91541  10.429   3.935   8.651 -0.1124  0.1654  0.8683
  664MOL0     O91542  10.482   4.318   8.608  0.2300 -0.4320 -0.4339
  664MOL0     C91543  10.128   4.272   8.526  0.7113  0.0939 -0.2717
  664MOL0     C91544  10.007   4.332   8.520  0.7141 -0.5486 -0.7903
  664MOL0     N91545   9.501   4.187   8.962  0.7047 -0.0116 -0.0719
  664MOL0     N91546   9.532   4.149   9.081  1.0979  1.1532  0.2693
  664MOL0     C91547   9.906   4.841   9.877 -0.1812 -0.1245  0.4059
  664MOL0     C91548   9.976   4.941   9.819  0.2587 -0.2235  0.5028
  664MOL0     C91549  10.331   5.143   9.583  0.2112 -0.3095 -0.1270
  664MOL0     C91550  10.247   5.244   9.536 -0.6045  0.1633 -0.3579
  664MOL0     C91551  10.298   5.364   9.483 -0.2035 -1.4260  0.3561
  664MOL0     C91552  10.436   5.377   9.462  0.1253  0.0101  0.1415
  664MOL0     O91553  10.502   5.481   9.396  0.3446  0.0930 -0.5815
  664MOL0     C91554  10.414   5.590   9.351 -0.4419  0.4616 -0.0759
  664MOL0     C91555  10.395   5.709   9.450  0.0908  0.3120  0.2975
  664MOL0     C91556  10.527   5.768   9.513  0.8880  0.1293 -0.4857
  664MOL0     C91557  10.604   5.847   9.403  0.1711 -0.4511 -0.4685
  664MOL0     C91558  10.727   5.916   9.450  0.4010 -0.7329  0.3993
  664MOL0     C91559  10.819   5.985   9.486 -0.1674 -0.7898  1.3896
  664MOL0     C91560  10.523   5.282   9.508  0.4821  1.0899  0.8000
  664MOL0     C91561  10.471   5.168   9.565  0.8025  0.2915 -0.0907
  664MOL0     C91562  10.571   5.056   9.592  0.5309 -0.3208  0.4915
  664MOL0     H91563  10.182   4.769   9.616  1.0867  1.2954  0.4377
  664MOL0     H91564  10.054   4.577   9.715  1.7914  0.0824  0.3048
  664MOL0     H91565   9.812   4.406   9.934 -0.2844 -1.1805 -0.4834
  664MOL0     H91566   9.967   4.424   9.871 -0.0756 -0.6420  0.0976
  664MOL0     H91567   9.705   4.403   9.725  0.6095 -2.3327 -2.4175
  664MOL0     H91568   9.810   4.524   9.664 -0.4573 -1.2053 -1.1594
  664MOL0     H91569   9.979   4.302   9.700 -0.1123 -3.0985 -2.0347
  664MOL0     H91570   9.813   4.229   9.694  2.4845 -2.4753  0.4635
  664MOL0     H91571   9.782   4.365   9.474 -1.3466  0.0766  0.8935
  664MOL0     H91572   9.959   4.367   9.481 -1.9482  1.6652 -0.0545
  664MOL0     H91573   9.807   4.102   9.487  1.5003 -2.5592  0.2103
  664MOL0     H91574   9.964   4.122   9.542  0.2060  2.3062  1.2566
  664MOL0     H91575  10.039   4.230   9.330  1.8160 -0.3407  2.6454
  664MOL0     H91576  10.007   4.065   9.301  0.6290  1.0944 -2.6268
  664MOL0     H91577   9.911   4.215   9.134  0.4649 -4.2760 -0.2798
  664MOL0     H91578   9.811   4.281   9.256 -0.3515 -0.8728  0.9169
  664MOL0     H91579   9.796   3.980   9.159 -0.4920  0.0874 -0.7978
  664MOL0     H91580   9.686   4.057   9.279 -2.7638 -0.6323 -1.2921
  664MOL0     H91581   9.808   4.108   8.915  0.6140  0.2011  0.0084
  664MOL0     H91582   9.527   4.218   8.675  0.3713  0.5638 -1.2010
  664MOL0     H91583   9.653   4.089   8.679  0.4189 -0.3992  0.9247
  664MOL0     H91584   9.826   4.262   8.710 -0.8399  0.2054  0.8791
  664MOL0     H91585   9.725   4.287   8.567  4.6460 -0.0470 -0.7610
  664MOL0     H91586   9.593   4.469   8.684  1.5672  0.8811 -1.9977
  664MOL0     H91587   9.666   4.426   8.838 -0.7137  2.9846 -0.4173
  664MOL0     H91588   9.755   4.628   8.709 -2.7299 -0.3043 -1.7691
  664MOL0     H91589   9.874   4.514   8.778  2.5074  1.7784 -1.4502
  664MOL0     H91590  10.082   4.636   8.647  1.3004  1.5431 -1.1984
  664MOL0     H91591  10.335   4.534   8.791 -3.2986 -1.9943  0.0208
  664MOL0     H91592  10.305   4.672   8.682 -2.2271 -0.6924 -2.2250
  664MOL0     H91593  10.434   4.557   8.645  1.5337  3.0627  1.2864
  664MOL0     H91594  10.629   4.156   8.488  1.8569 -0.4866  1.2160
  664MOL0     H91595  10.790   4.001   8.540 -1.8048  4.6871 -3.9844
  664MOL0     H91596  10.920   3.832   8.584  0.7088 -1.0323 -0.0228
  664MOL0     H91597  10.881   3.891   8.746  0.1458 -1.9857  2.1079
  664MOL0     H91598  10.926   3.684   8.851  1.6716  1.4250 -0.3452
  664MOL0     H91599  10.943   3.599   8.704  3.5541 -1.3089  0.8963
  664MOL0     H91600  11.132   3.841   8.762  0.0273 -0.1432  1.5018
  664MOL0     H91601  11.133   3.705   8.641 -1.9587 -1.2475 -0.1966
  664MOL0     H91602  11.200   3.547   8.819 -3.2548  0.4515 -0.6853
  664MOL0     H91603  11.165   3.668   8.939  1.3346 -0.4230  0.3345
  664MOL0     H91604  11.428   3.630   8.806  1.8533  0.3204 -0.6634
  664MOL0     H91605  11.358   3.777   8.744 -2.3233  2.4960  0.6869
  664MOL0     H91606  11.343   3.849   9.006 -0.2178  0.3128 -0.1602
  664MOL0     H91607  11.503   3.824   8.926  0.6478 -3.2703 -1.1517
  664MOL0     H91608  11.515   3.599   9.041  1.0717  0.6605 -0.3594
  664MOL0     H91609  11.346   3.605   9.091  0.3807  1.7418  1.0760
  664MOL0     H91610  11.403   3.794   9.245 -0.2116 -2.3105  0.6712
  664MOL0     H91611  11.570   3.785   9.184  0.5246  0.5855  1.1268
  664MOL0     H91612  10.484   3.746   8.714 -3.4161  0.1550 -2.1271
  664MOL0     H91613  10.325   3.925   8.682  0.0383 -0.0802  1.3107
  664MOL0     H91614  10.119   4.167   8.500 -1.3778  0.3140 -0.6040
  664MOL0     H91615   9.932   4.269   8.474  0.8837  1.1364 -3.6187
  664MOL0     H91616   9.832   4.847   9.956 -0.5526 -1.9326  0.2369
  664MOL0     H91617   9.958   5.042   9.854 -3.1695 -0.6625  0.3555
  664MOL0     H91618  10.139   5.232   9.533 -0.3304 -2.9969 -2.3421
  664MOL0     H91619  10.238   5.453   9.467 -0.3160 -1.5436  0.1235
  664MOL0     H91620  10.475   5.633   9.271  2.7349 -0.9098  1.4179
  664MOL0     H91621  10.324   5.548   9.307 -1.0743  1.5886  0.1116
  664MOL0     H91622  10.328   5.670   9.527 -0.2419  1.6017  0.6940
  664MOL0     H91623  10.334   5.782   9.396 -0.1125 -1.6198 -2.2626
  664MOL0     H91624  10.504   5.814   9.609 -1.7240 -0.2384 -0.8676
  664MOL0     H91625  10.589   5.685   9.547  1.0659  0.4893  0.0957
  664MOL0     H91626  10.546   5.921   9.348 -0.3736 -0.3767  0.2020
  664MOL0     H91627  10.635   5.774   9.327 -3.1688 -1.3316 -1.1116
  664MOL0     H91628  10.906   6.042   9.514 -0.8240  0.4736  0.9139
  664MOL0     H91629  10.629   5.287   9.485  0.6028  0.4533  1.1920
  664MOL0     H91630  10.546   4.969   9.531  0.8723 -1.0305  1.3388
  664MOL0     H91631  10.663   5.104   9.557 -0.7007  2.6551  1.0363
  664MOL0     H91632  10.578   5.031   9.698 -2.5800 -1.4917  0.5185
  665MOL0     O91633  10.756   9.669   3.718  0.0164 -0.1001 -0.3830
  665MOL0     C91634  10.636   9.634   3.700 -0.2293 -0.0031  0.3770
  665MOL0     O91635  10.538   9.639   3.802 -0.5142  0.2839  0.4830
  665MOL0     C91636  10.566   9.650   3.938  1.2100 -0.0818 -0.9975
  665MOL0     C91637  10.458   9.690   4.034  0.0837 -0.0191 -0.3714
  665MOL0     C91638  10.487   9.693   4.168 -0.1182 -0.1246 -0.1326
  665MOL0     C91639  10.618   9.655   4.229  0.4986 -0.2544 -0.1563
  665MOL0     O91640  10.645   9.646   4.366  0.4072 -0.7453  0.4567
  665MOL0     C91641  10.535   9.660   4.457 -0.1939  0.2005  0.1083
  665MOL0     C91642  10.590   9.723   4.582 -0.0473  0.4893  0.0986
  665MOL0     C91643  10.654   9.605   4.658  0.7796 -0.3314  0.9861
  665MOL0     C91644  10.729   9.655   4.776 -0.6684  0.0729 -0.6031
  665MOL0     C91645  10.803   9.533   4.843 -0.7584 -0.0295  0.6021
  665MOL0     C91646  10.903   9.572   4.956 -0.2184 -0.7596 -0.1486
  665MOL0     C91647  10.974   9.451   5.011 -0.0308 -0.2292 -0.9292
  665MOL0     C91648  11.060   9.485   5.128 -0.4425 -0.3476 -0.5141
  665MOL0     N91649  11.134   9.368   5.177 -0.3160  0.6752 -0.0997
  665MOL0     C91650  11.123   9.324   5.311  0.4051  0.0536 -0.1064
  665MOL0     C91651  11.230   9.246   5.322  0.1505  0.2389  0.1597
  665MOL0     C91652  11.272   9.178   5.455 -0.4126  1.3867  0.0590
  665MOL0     C91653  11.422   9.156   5.457 -0.3114  0.5332  0.7914
  665MOL0     C91654  11.478   9.172   5.586 -0.5446 -0.2702 -0.4386
  665MOL0     C91655  11.625   9.130   5.598  0.6404  0.7437 -0.0561
  665MOL0     O91656  11.659   9.164   5.736  0.1541 -0.1505 -0.6854
  665MOL0     C91657  11.797   9.176   5.752  1.5328  0.1535 -0.2659
  665MOL0     C91658  11.855   9.298   5.742  0.4654  0.0441  0.4683
  665MOL0     C91659  12.001   9.308   5.739  1.1516  1.1117 -0.2246
  665MOL0     C91660  12.049   9.456   5.720  0.3106 -0.4768 -1.1432
  665MOL0     C91661  12.081   9.193   5.780 -0.3708 -0.0598  0.7386
  665MOL0     C91662  12.232   9.204   5.814 -0.0290 -0.2665  0.3600
  665MOL0     O91663  12.291   9.325   5.817 -0.4660  0.0529  0.2786
  665MOL0     C91664  12.424   9.333   5.824 -0.7026  0.0688 -1.4443
  665MOL0     C91665  12.494   9.390   5.929  0.6855  0.4653  0.8512
  665MOL0     C91666  12.629   9.410   5.912 -0.1090 -0.0762  0.3274
  665MOL0     C91667  12.704   9.343   5.815 -0.4901  0.5369  0.4312
  665MOL0     O91668  12.841   9.350   5.830 -0.1857  0.2817 -0.0694
  665MOL0     C91669  12.926   9.240   5.793  0.0294 -0.5383 -0.5817
  665MOL0     C91670  12.968   9.278   5.646  0.2974  0.1976 -0.3895
  665MOL0     C91671  13.030   9.150   5.570  0.5471 -0.1056 -0.3060
  665MOL0     C91672  13.170   9.110   5.623 -0.1810  0.2170  0.7108
  665MOL0     C91673  13.238   9.003   5.535 -0.4207  0.0813  0.5184
  665MOL0     C91674  13.265   9.048   5.391  0.6535  0.8762  0.3711
  665MOL0     C91675  13.388   8.965   5.327 -0.5534 -0.0173 -0.8787
  665MOL0     C91676  13.384   8.814   5.357  0.1740 -0.5725 -0.9429
  665MOL0    Cl91677  13.493   8.738   5.242  0.2731  0.2457  0.0239
  665MOL0     C91678  12.631   9.288   5.705 -0.1574  0.2068  0.4098
  665MOL0     C91679  12.493   9.292   5.712  0.4353  0.2795 -0.1596
  665MOL0     O91680  12.282   9.096   5.818 -0.0754  0.3919  0.4927
  665MOL0     C91681  12.011   9.073   5.802 -0.4343  0.1826  0.3641
  665MOL0     C91682  11.877   9.068   5.783 -0.1367  0.3065  1.0431
  665MOL0     N91683  11.288   9.222   5.195  0.4407  0.1878 -0.1948
  665MOL0     N91684  11.233   9.302   5.117  0.1504 -0.0920  0.1710
  665MOL0     C91685  10.719   9.620   4.137  0.2854  1.5613 -0.5633
  665MOL0     C91686  10.692   9.621   3.998 -0.5231  0.1308 -0.5010
  665MOL0     C91687  10.608   9.582   3.566  0.2769  0.3647 -0.0808
  665MOL0     C91688  10.709   9.581   3.469 -0.0522  0.1974  0.6076
  665MOL0     C91689  10.681   9.536   3.333 -0.8410 -0.0840 -0.5215
  665MOL0     C91690  10.560   9.488   3.296 -0.4863 -0.5205  0.7281
  665MOL0     O91691  10.551   9.455   3.165  0.4076 -0.1895  0.2290
  665MOL0     C91692  10.437   9.373   3.135  0.6583 -0.7507 -0.3659
  665MOL0     C91693  10.409   9.325   2.992  0.0669 -0.0214  0.7020
  665MOL0     C91694  10.281   9.234   2.976  0.6335  0.3686  0.2367
  665MOL0     C91695  10.260   9.182   2.839 -0.2337  0.3052 -0.9437
  665MOL0     C91696  10.241   9.282   2.730 -0.3545  0.5540 -0.3770
  665MOL0     C91697  10.196   9.357   2.641  0.0158 -0.0608 -0.0224
  665MOL0     C91698  10.466   9.466   3.401  1.0955 -0.2259 -0.5322
  665MOL0     C91699  10.493   9.516   3.534  0.2999  0.0348  0.1774
  665MOL0     C91700  10.384   9.491   3.629 -0.4574 -0.4078  0.0957
  665MOL0     H91701  10.358   9.717   4.001  0.0561  1.7750  1.0129
  665MOL0     H91702  10.406   9.719   4.235  0.1407 -2.0387  1.0146
  665MOL0     H91703  10.504   9.558   4.479 -0.0607  0.0364 -0.4458
  665MOL0     H91704  10.449   9.720   4.427 -0.1119  0.8835  1.1708
  665MOL0     H91705  10.655   9.808   4.563 -1.2939  1.9207  1.8573
  665MOL0     H91706  10.506   9.769   4.635 -0.4738 -0.9518  0.7352
  665MOL0     H91707  10.567   9.540   4.676 -0.7719  0.6684 -2.1379
  665MOL0     H91708  10.722   9.559   4.587  0.1815 -1.5960  1.2019
  665MOL0     H91709  10.795   9.735   4.741  0.7879 -0.0824  1.6297
  665MOL0     H91710  10.662   9.696   4.852  0.1500  0.2567  0.0293
  665MOL0     H91711  10.852   9.463   4.775 -0.4425  1.8348 -1.1956
  665MOL0     H91712  10.740   9.468   4.905 -1.6634  0.7336  0.5001
  665MOL0     H91713  10.976   9.644   4.919 -0.9862  0.1879  0.1508
  665MOL0     H91714  10.848   9.626   5.034 -0.0210 -1.7501  0.6912
  665MOL0     H91715  11.033   9.419   4.926  0.5700  1.2319 -1.0835
  665MOL0     H91716  10.911   9.371   5.052  0.0455  0.7413  1.2544
  665MOL0     H91717  11.138   9.550   5.087  0.6767 -2.0097 -1.1283
  665MOL0     H91718  10.995   9.522   5.208 -0.0924 -0.0330 -0.3723
  665MOL0     H91719  11.050   9.352   5.387  0.3764 -0.2651 -0.0144
  665MOL0     H91720  11.237   9.075   5.464  2.9438 -0.1447 -2.3146
  665MOL0     H91721  11.237   9.239   5.539  3.5248 -0.3389  3.2923
  665MOL0     H91722  11.437   9.055   5.418 -2.3531  1.0997 -1.7386
  665MOL0     H91723  11.473   9.235   5.401  0.6309 -0.3057  0.4365
  665MOL0     H91724  11.474   9.279   5.607  1.8468  0.1660 -1.8059
  665MOL0     H91725  11.415   9.119   5.658  0.1293  1.5582  1.6009
  665MOL0     H91726  11.640   9.026   5.569 -0.0379  0.7025 -0.2826
  665MOL0     H91727  11.689   9.195   5.537  1.8329  1.6387  2.0591
  665MOL0     H91728  11.788   9.381   5.723 -0.7113 -0.7976  0.8080
  665MOL0     H91729  12.136   9.458   5.653 -0.7528  1.5587 -2.5826
  665MOL0     H91730  12.072   9.506   5.814 -3.0371 -1.4127  0.3395
  665MOL0     H91731  11.976   9.518   5.668 -1.2677 -1.2683  0.0519
  665MOL0     H91732  12.444   9.428   6.017  3.9974  1.2733  2.5491
  665MOL0     H91733  12.688   9.460   5.989  3.5154 -2.2204 -0.7927
  665MOL0     H91734  13.012   9.237   5.860  1.1895  3.8174 -1.5561
  665MOL0     H91735  12.872   9.145   5.801 -0.0527 -0.3500  1.9988
  665MOL0     H91736  12.878   9.311   5.592 -0.1730 -0.3911  0.0317
  665MOL0     H91737  13.043   9.357   5.642 -0.8608  1.3070 -1.1352
  665MOL0     H91738  13.046   9.180   5.466 -3.5432 -1.1444 -1.4172
  665MOL0     H91739  12.957   9.070   5.583 -4.2328  4.0284  2.0237
  665MOL0     H91740  13.164   9.076   5.727 -0.5245 -2.9681 -0.2443
  665MOL0     H91741  13.238   9.195   5.611 -2.9350  2.5078  0.4254
  665MOL0     H91742  13.335   8.987   5.584 -1.1294  0.3190  2.0512
  665MOL0     H91743  13.175   8.914   5.536 -2.4818  1.4497 -0.5138
  665MOL0     H91744  13.292   9.153   5.376  3.2599  0.1117 -0.9360
  665MOL0     H91745  13.167   9.033   5.345  0.7955 -0.3332  0.4107
  665MOL0     H91746  13.486   8.998   5.364 -0.8121  2.3708 -2.1341
  665MOL0     H91747  13.393   8.969   5.218  2.9613 -1.1670 -0.8857
  665MOL0     H91748  13.283   8.777   5.338 -0.1757 -0.9558  1.3424
  665MOL0     H91749  13.407   8.792   5.462 -0.5145  2.6298 -0.0201
  665MOL0     H91750  12.683   9.240   5.623  0.6416 -0.2581  1.1831
  665MOL0     H91751  12.432   9.259   5.629  1.7704 -0.2962 -0.9412
  665MOL0     H91752  12.069   8.988   5.839 -1.0292  0.2807  1.5673
  665MOL0     H91753  11.826   8.974   5.799 -1.5755  0.5567 -1.6095
  665MOL0     H91754  10.813   9.583   4.177  1.1069  0.4482 -3.2671
  665MOL0     H91755  10.771   9.594   3.929  1.0755 -0.7247  1.5576
  665MOL0     H91756  10.807   9.610   3.504 -0.5676  2.3292  0.4579
  665MOL0     H91757  10.757   9.527   3.256 -0.7419 -0.2821 -0.4011
  665MOL0     H91758  10.446   9.281   3.193  0.5427  1.0069  2.6488
  665MOL0     H91759  10.356   9.436   3.174  1.9810  0.5410  0.3977
  665MOL0     H91760  10.493   9.268   2.950 -2.5668 -2.5368 -1.5306
  665MOL0     H91761  10.387   9.411   2.929 -2.2518 -1.9810 -1.3774
  665MOL0     H91762  10.286   9.147   3.042 -0.2766  1.3930  1.7318
  665MOL0     H91763  10.194   9.291   3.009  0.2476  0.8464 -1.5388
  665MOL0     H91764  10.178   9.111   2.848  0.9343 -0.8510  1.5669
  665MOL0     H91765  10.342   9.112   2.817 -0.2571  0.1241 -0.4788
  665MOL0     H91766  10.163   9.413   2.557 -0.2966  0.0295  0.1609
  665MOL0     H91767  10.372   9.413   3.390  0.1462  1.3948 -0.5062
  665MOL0     H91768  10.320   9.578   3.646  1.2745  0.6465  1.5686
  665MOL0     H91769  10.327   9.406   3.590  1.0548  0.0863 -3.5756
  665MOL0     H91770  10.419   9.460   3.728  2.6669 -0.8690 -1.0377
  666MOL0     O91771  10.597   7.794   0.093 -0.1616 -0.5109  0.4451
  666MOL0     C91772  10.561   7.691   0.033 -0.2912 -0.1522 -0.7982
  666MOL0     O91773  10.624   7.568   0.052 -0.2845 -0.0195 -0.4843
  666MOL0     C91774  10.709   7.549   0.162  0.7099  0.8292  0.3217
  666MOL0     C91775  10.692   7.607   0.287  0.0578  0.5766  0.2869
  666MOL0     C91776  10.781   7.567   0.385 -0.7251 -0.8681 -0.7084
  666MOL0     C91777  10.897   7.489   0.365 -0.4107  0.1413 -0.0356
  666MOL0     O91778  10.993   7.461   0.457 -0.2992  1.0686  0.2375
  666MOL0     C91779  11.032   7.578   0.530 -0.4967 -0.4045  0.5025
  666MOL0     C91780  11.097   7.687   0.439  0.1474  0.4328  0.4152
  666MOL0     C91781  11.205   7.660   0.340 -0.1946  0.2221 -0.6760
  666MOL0     C91782  11.328   7.624   0.411 -0.2060 -0.0459  1.0441
  666MOL0     C91783  11.449   7.622   0.306  0.4349  0.3168  0.4647
  666MOL0     C91784  11.580   7.607   0.383 -0.9402  0.4545  0.2140
  666MOL0     C91785  11.706   7.628   0.304 -0.3623  0.4400  0.4226
  666MOL0     C91786  11.732   7.535   0.180  0.6113 -0.5883  0.0212
  666MOL0     N91787  11.872   7.545   0.140 -0.2143 -0.1658  1.0783
  666MOL0     C91788  11.908   7.618   0.028 -0.0004 -0.5519 -0.0161
  666MOL0     C91789  12.025   7.569  -0.001 -1.1300  0.6908 -0.6248
  666MOL0     C91790  12.106   7.615  -0.113  0.1176 -0.0564 -0.7290
  666MOL0     C91791  12.042   7.599  -0.256  0.1840 -0.7100  0.6417
  666MOL0     C91792  12.033   7.455  -0.293 -0.4667  0.4900 -0.4512
  666MOL0     C91793  11.976   7.451  -0.430 -0.0886  0.1780  0.2629
  666MOL0     O91794  11.969   7.311  -0.475  0.2653 -0.3605 -0.5836
  666MOL0     C91795  12.089   7.276  -0.531 -0.3578 -1.1386 -0.1033
  666MOL0     C91796  12.157   7.162  -0.485 -0.0646  0.3156  0.7097
  666MOL0     C91797  12.275   7.108  -0.551 -0.1902 -0.2713 -0.4709
  666MOL0     C91798  12.335   6.987  -0.488  0.2670 -1.2456 -1.1298
  666MOL0     C91799  12.327   7.189  -0.651 -0.4974  0.6660  1.0474
  666MOL0     C91800  12.459   7.178  -0.706  0.1955 -0.0215  0.4773
  666MOL0     O91801  12.482   7.213  -0.837  0.6363  0.0719 -0.2592
  666MOL0     C91802  12.611   7.205  -0.891 -0.0229  0.3228 -0.6761
  666MOL0     C91803  12.691   7.323  -0.873 -0.4000  1.0179  0.2729
  666MOL0     C91804  12.814   7.314  -0.924 -0.1312  0.0541 -0.0448
  666MOL0     C91805  12.872   7.208  -0.988  0.1267 -0.2390 -0.0765
  666MOL0     O91806  13.005   7.222  -1.041  0.6144 -0.2160  0.3011
  666MOL0     C91807  13.070   7.348  -1.044 -0.0464  0.4454 -0.8090
  666MOL0     C91808  13.169   7.347  -1.157 -0.3012  0.8371  1.0685
  666MOL0     C91809  13.292   7.259  -1.135 -0.5665 -0.0100  0.2782
  666MOL0     C91810  13.416   7.279  -1.220  0.6977 -0.5238 -0.0128
  666MOL0     C91811  13.384   7.260  -1.369 -0.3283 -0.7706 -0.5159
  666MOL0     C91812  13.491   7.231  -1.471  0.1940 -0.1474  0.3018
  666MOL0     C91813  13.426   7.224  -1.601  0.4892 -0.9706  0.3115
  666MOL0     C91814  13.503   7.297  -1.714 -0.4599 -0.2305  0.0748
  666MOL0    Cl91815  13.533   7.467  -1.681 -0.1322  0.5089  0.1408
  666MOL0     C91816  12.798   7.088  -0.998 -0.5426 -0.6931 -0.0539
  666MOL0     C91817  12.667   7.086  -0.944  0.5339 -0.0717 -1.1122
  666MOL0     O91818  12.548   7.138  -0.635 -0.4714  0.6340 -0.2960
  666MOL0     C91819  12.257   7.304  -0.701  0.3526 -0.2400 -1.3118
  666MOL0     C91820  12.138   7.346  -0.642  0.1003 -0.1927  0.6923
  666MOL0     N91821  12.065   7.475   0.091  0.4963  0.3430 -0.6143
  666MOL0     N91822  11.973   7.455   0.181  0.4546 -0.0009  0.1292
  666MOL0     C91823  10.924   7.441   0.238  0.3873 -0.3300  0.2487
  666MOL0     C91824  10.831   7.468   0.136  0.3913 -0.0533  0.0024
  666MOL0     C91825  10.436   7.698  -0.049 -0.0473  1.2646 -0.1307
  666MOL0     C91826  10.364   7.570  -0.068  0.2971 -0.1641  0.1403
  666MOL0     C91827  10.234   7.567  -0.130  0.3752  0.5633  0.1762
  666MOL0     C91828  10.181   7.687  -0.176 -0.1505  0.1692 -0.1552
  666MOL0     O91829  10.058   7.672  -0.238 -0.0666  0.9134  0.1312
  666MOL0     C91830   9.978   7.792  -0.254 -0.0526  0.1851  1.0973
  666MOL0     C91831   9.919   7.843  -0.122 -0.1533 -0.4871 -0.2407
  666MOL0     C91832   9.905   7.994  -0.119  1.0578 -0.5130  0.8697
  666MOL0     C91833   9.900   8.053   0.023 -0.3512 -0.4230  0.2914
  666MOL0     C91834   9.838   8.181   0.022  0.0768  0.3285  0.9737
  666MOL0     C91835   9.785   8.291   0.023  0.4891  0.9665  0.1951
  666MOL0     C91836  10.256   7.809  -0.159 -0.5591 -0.8203  0.0790
  666MOL0     C91837  10.383   7.817  -0.100 -0.2731 -0.4065  0.5247
  666MOL0     C91838  10.459   7.949  -0.102  0.6953  0.2600 -0.1548
  666MOL0     H91839  10.594   7.647   0.311 -1.9436 -1.8572 -2.9831
  666MOL0     H91840  10.753   7.578   0.489 -3.0886 -0.9069 -1.2840
  666MOL0     H91841  11.115   7.535   0.587 -2.2213 -3.5844  0.8852
  666MOL0     H91842  10.945   7.617   0.583 -2.1032 -1.9163 -0.8857
  666MOL0     H91843  11.013   7.727   0.382  0.6719 -0.9714 -1.4561
  666MOL0     H91844  11.136   7.766   0.504 -0.5465 -0.8025  2.4090
  666MOL0     H91845  11.169   7.584   0.271 -2.6529 -0.0213  0.7492
  666MOL0     H91846  11.221   7.753   0.284 -2.2822  1.5673  0.7884
  666MOL0     H91847  11.365   7.700   0.480  0.5245  0.1668  0.4332
  666MOL0     H91848  11.319   7.531   0.469  3.2430 -1.3711 -0.2766
  666MOL0     H91849  11.452   7.710   0.241  0.8045  0.2911  0.4458
  666MOL0     H91850  11.436   7.537   0.238  3.1102 -0.8297  1.2825
  666MOL0     H91851  11.586   7.675   0.469 -0.1567 -0.1645  0.6522
  666MOL0     H91852  11.584   7.503   0.416  2.9895  0.3921 -0.0386
  666MOL0     H91853  11.797   7.611   0.363  0.6208  3.6819  0.0045
  666MOL0     H91854  11.712   7.733   0.274 -0.3855  0.4435  0.4298
  666MOL0     H91855  11.712   7.432   0.209  0.1548 -1.0118 -1.7049
  666MOL0     H91856  11.662   7.559   0.100  1.3230  2.6956  0.2045
  666MOL0     H91857  11.851   7.690  -0.029  0.2049  0.1409  0.6378
  666MOL0     H91858  12.199   7.558  -0.102  0.1455  0.2845  1.1677
  666MOL0     H91859  12.126   7.719  -0.087 -1.6516  0.0609  0.3205
  666MOL0     H91860  11.935   7.621  -0.247 -0.3612 -2.8002  0.0650
  666MOL0     H91861  12.101   7.662  -0.323 -1.1996  1.7430  1.6022
  666MOL0     H91862  12.127   7.399  -0.289  0.1208  1.5135  1.5510
  666MOL0     H91863  11.962   7.400  -0.230 -0.1831  1.1796  0.4878
  666MOL0     H91864  11.872   7.486  -0.428 -0.7560 -1.7139  0.4325
  666MOL0     H91865  12.022   7.520  -0.502 -1.2759 -1.3803 -2.1336
  666MOL0     H91866  12.116   7.102  -0.404 -1.6794 -0.2041 -0.4427
  666MOL0     H91867  12.388   7.012  -0.395 -2.4187 -0.5037  0.3195
  666MOL0     H91868  12.396   6.934  -0.561  0.2798 -2.1322 -0.4934
  666MOL0     H91869  12.257   6.919  -0.452  0.2362 -0.6733 -0.0488
  666MOL0     H91870  12.661   7.408  -0.813  1.2991  0.5188  1.9179
  666MOL0     H91871  12.859   7.407  -0.893  1.2213 -1.0973  1.6825
  666MOL0     H91872  13.012   7.440  -1.058  0.3483  0.3914 -3.3903
  666MOL0     H91873  13.116   7.366  -0.946 -1.1243  1.8636 -0.5365
  666MOL0     H91874  13.116   7.309  -1.245  0.6918  2.1671 -0.1401
  666MOL0     H91875  13.197   7.451  -1.174  3.5804  0.1945  2.4835
  666MOL0     H91876  13.256   7.156  -1.123 -0.9493  0.2796  1.9189
  666MOL0     H91877  13.324   7.273  -1.031  1.0451  0.5815 -0.2700
  666MOL0     H91878  13.497   7.210  -1.195  1.9838  0.9482  0.0687
  666MOL0     H91879  13.454   7.380  -1.204 -0.4534  0.5826 -3.3036
  666MOL0     H91880  13.319   7.173  -1.383 -0.7342 -0.2261 -2.2626
  666MOL0     H91881  13.339   7.354  -1.403 -2.5647 -2.1716 -1.6856
  666MOL0     H91882  13.535   7.135  -1.443 -1.1367 -1.2742 -1.3144
  666MOL0     H91883  13.575   7.302  -1.471  3.2606 -3.4765  0.0980
  666MOL0     H91884  13.320   7.252  -1.601  0.1699 -1.9052 -2.4562
  666MOL0     H91885  13.421   7.119  -1.631  3.1144 -1.2863  0.7735
  666MOL0     H91886  13.433   7.281  -1.796  0.3198 -0.4097 -0.5695
  666MOL0     H91887  13.599   7.249  -1.737  0.5172  0.7736  1.8152
  666MOL0     H91888  12.833   6.993  -1.038 -2.7071 -1.4894 -0.2151
  666MOL0     H91889  12.611   6.993  -0.944  2.5320 -1.3348 -0.3383
  666MOL0     H91890  12.299   7.356  -0.786  3.0294 -1.4715 -0.8508
  666MOL0     H91891  12.087   7.431  -0.686 -1.7171 -1.7411 -0.3654
  666MOL0     H91892  11.002   7.370   0.214  0.5897  0.6177 -2.2028
  666MOL0     H91893  10.849   7.425   0.039  1.3720  0.9142 -0.2649
  666MOL0     H91894  10.411   7.476  -0.041  0.2445 -0.0719  0.5674
  666MOL0     H91895  10.180   7.478  -0.160 -0.1259  0.5148  1.1941
  666MOL0     H91896  10.027   7.869  -0.314  0.4173 -0.8485  0.1151
  666MOL0     H91897   9.895   7.766  -0.319  1.1849 -0.3337 -0.3495
  666MOL0     H91898   9.988   7.829  -0.038  2.7437 -2.0001 -2.6995
  666MOL0     H91899   9.819   7.804  -0.098 -0.2685 -1.7381 -2.5034
  666MOL0     H91900   9.995   8.032  -0.168  1.4421 -2.1585  0.2190
  666MOL0     H91901   9.819   8.036  -0.173  1.0809  0.8267  1.8309
  666MOL0     H91902  10.006   8.056   0.050  0.5877 -0.2581 -2.9357
  666MOL0     H91903   9.847   7.994   0.098  1.1050  1.9192  3.4321
  666MOL0     H91904   9.730   8.382   0.034 -1.0898  0.0669  0.1969
  666MOL0     H91905  10.213   7.897  -0.206  0.1125 -0.7179 -0.3489
  666MOL0     H91906  10.473   7.995  -0.004  1.3034  1.8688 -0.9625
  666MOL0     H91907  10.553   7.937  -0.157 -0.9393 -1.7581 -2.7716
  666MOL0     H91908  10.390   8.020  -0.149 -3.9657 -1.4987  3.2035
  667MOL0     O91909   3.019   4.399  10.414  0.6403 -0.3056  0.5375
  667MOL0     C91910   3.051   4.481  10.327 -0.9282  0.2505 -0.0685
  667MOL0     O91911   3.049   4.460  10.189  0.3341 -0.0483  1.0108
  667MOL0     C91912   3.016   4.333  10.142  0.8507  0.1541  0.3217
  667MOL0     C91913   2.882   4.286  10.133 -0.0259 -0.2797 -0.4025
  667MOL0     C91914   2.852   4.162  10.068  0.3413 -0.2514  1.0920
  667MOL0     C91915   2.951   4.090  10.003  0.4865  0.3878  0.4336
  667MOL0     O91916   2.922   3.976   9.922  0.5758 -0.7237 -0.4005
  667MOL0     C91917   2.787   3.913   9.930 -0.0693  0.3483  0.2756
  667MOL0     C91918   2.677   3.984   9.848  0.9051  0.3388 -0.2311
  667MOL0     C91919   2.547   3.896   9.843  0.3628 -0.3943 -0.0594
  667MOL0     C91920   2.448   3.959   9.752 -0.1477 -0.0495  0.4076
  667MOL0     C91921   2.312   3.886   9.768  0.8520 -0.0169 -0.3091
  667MOL0     C91922   2.195   3.929   9.677  0.4653  0.0889 -0.0176
  667MOL0     C91923   2.165   4.078   9.682 -0.5534  0.4314  0.0206
  667MOL0     C91924   2.088   4.143   9.802 -0.1292 -0.1703 -1.5495
  667MOL0     N91925   1.951   4.093   9.828  0.0346  0.2616 -0.1947
  667MOL0     C91926   1.836   4.155   9.812  0.8773 -0.2920  0.9783
  667MOL0     C91927   1.742   4.066   9.855  0.3518 -0.0910 -0.7995
  667MOL0     C91928   1.601   4.107   9.885 -0.1874 -0.0654  0.3565
  667MOL0     C91929   1.585   4.157  10.032  0.7190 -0.3285 -0.5503
  667MOL0     C91930   1.532   4.042  10.111 -0.6663  0.8605 -0.2845
  667MOL0     C91931   1.483   4.081  10.252  0.0565 -0.6876  0.8918
  667MOL0     O91932   1.608   4.087  10.328 -0.4625 -0.2611  0.1410
  667MOL0     C91933   1.609   4.081  10.467  0.6064 -0.5570  0.3389
  667MOL0     C91934   1.637   4.201  10.528 -0.0007  0.7348  0.4418
  667MOL0     C91935   1.637   4.221  10.666 -0.4764  0.2476 -0.9895
  667MOL0     C91936   1.660   4.356  10.718  0.0187  0.3045  0.3739
  667MOL0     C91937   1.607   4.106  10.751 -0.6746 -1.0099 -0.0899
  667MOL0     C91938   1.593   4.105  10.888 -0.2366  0.4046 -0.8927
  667MOL0     O91939   1.538   3.993  10.951  0.0751 -0.5356  0.2200
  667MOL0     C91940   1.544   3.997  11.088  0.5231  0.0039  0.6210
  667MOL0     C91941   1.421   4.037  11.138  0.1583 -0.4088  0.2171
  667MOL0     C91942   1.399   4.045  11.280  0.2809 -1.1050  0.3457
  667MOL0     C91943   1.493   4.013  11.370  0.6482  0.2639 -0.3165
  667MOL0     O91944   1.477   4.010  11.509  0.1066 -0.4191 -0.8877
  667MOL0     C91945   1.355   4.043  11.574  0.5193 -0.5416 -0.2440
  667MOL0     C91946   1.267   3.921  11.596  0.2946  0.3764  0.9358
  667MOL0     C91947   1.208   3.861  11.471  0.9077 -0.5977 -0.2787
  667MOL0     C91948   1.102   3.758  11.515  0.2493 -0.4407  0.7355
  667MOL0     C91949   1.069   3.664  11.386 -0.0919  0.6006 -0.6220
  667MOL0     C91950   0.970   3.555  11.438  0.0545 -0.3347 -0.3956
  667MOL0     C91951   0.979   3.424  11.356 -0.1648  0.5399  0.5871
  667MOL0     C91952   0.869   3.416  11.248 -0.2849 -0.4746  0.4319
  667MOL0    Cl91953   0.917   3.546  11.135  0.2628 -0.6504  0.4276
  667MOL0     C91954   1.618   3.975  11.316 -0.1450  0.1706  0.1241
  667MOL0     C91955   1.645   3.974  11.175  0.8333  0.1490 -0.4773
  667MOL0     O91956   1.645   4.197  10.954  0.3472  0.5215  0.4311
  667MOL0     C91957   1.585   3.980  10.687 -1.2474  0.0439  0.0978
  667MOL0     C91958   1.591   3.971  10.548  0.2354  0.7172  0.2285
  667MOL0     N91959   1.802   3.943   9.892  0.0954  0.2104 -0.1864
  667MOL0     N91960   1.929   3.972   9.869  0.2619 -0.7924 -0.4519
  667MOL0     C91961   3.083   4.121  10.023 -0.2457 -1.1955 -0.2205
  667MOL0     C91962   3.111   4.245  10.085  0.8680 -0.7316 -0.5915
  667MOL0     C91963   3.084   4.628  10.368 -0.7985  0.4352  1.0282
  667MOL0     C91964   3.020   4.733  10.300  0.2939  0.4928 -0.5932
  667MOL0     C91965   3.065   4.865  10.340  0.0355 -0.5200  0.4086
  667MOL0     C91966   3.161   4.895  10.436 -0.1070  0.1922 -0.1179
  667MOL0     O91967   3.201   5.025  10.461  0.1181 -0.0736 -0.0567
  667MOL0     C91968   3.306   5.059  10.376 -0.3121  0.8281  0.5596
  667MOL0     C91969   3.441   4.976  10.385  0.3750  0.2319 -0.0333
  667MOL0     C91970   3.546   5.034  10.289  0.4696  0.1895 -0.6498
  667MOL0     C91971   3.665   4.935  10.299  0.6252  0.3898  0.7795
  667MOL0     C91972   3.788   4.975  10.224  0.5038  0.9161 -0.3199
  667MOL0     C91973   3.885   4.992  10.151  0.1148  0.2897  0.4892
  667MOL0     C91974   3.209   4.784  10.504 -0.4380 -0.3577 -0.0558
  667MOL0     C91975   3.175   4.649  10.470 -0.9969  0.4817  0.4602
  667MOL0     C91976   3.259   4.545  10.547  0.4165 -0.0837 -0.1989
  667MOL0     H91977   2.811   4.347  10.188  0.3408 -1.9563  2.0764
  667MOL0     H91978   2.754   4.120  10.050  0.6419 -0.5492  0.1009
  667MOL0     H91979   2.752   3.906  10.033 -0.5436  0.1472  0.1042
  667MOL0     H91980   2.797   3.811   9.891 -0.0840  1.1043 -1.8341
  667MOL0     H91981   2.655   4.084   9.887 -2.0257  0.4389 -1.8883
  667MOL0     H91982   2.707   3.979   9.743  2.6376  1.5061  0.1579
  667MOL0     H91983   2.564   3.796   9.802  2.8589  0.5577 -1.5269
  667MOL0     H91984   2.510   3.888   9.946 -0.8815  1.8262 -0.2601
  667MOL0     H91985   2.446   4.068   9.762  1.9365  0.2457 -1.5525
  667MOL0     H91986   2.482   3.948   9.648  2.1750  3.2344  0.6773
  667MOL0     H91987   2.268   3.901   9.867 -2.7148 -1.9614 -1.4446
  667MOL0     H91988   2.320   3.778   9.754  1.1303  0.0680 -0.8242
  667MOL0     H91989   2.223   3.906   9.573 -2.2606 -3.9254 -0.0817
  667MOL0     H91990   2.107   3.867   9.697 -0.5680  1.1050 -1.2739
  667MOL0     H91991   2.106   4.098   9.592 -1.5705 -0.4051  0.4747
  667MOL0     H91992   2.259   4.131   9.662  0.7022 -2.2926 -2.0197
  667MOL0     H91993   2.155   4.140   9.889 -0.7217  3.7902 -0.7588
  667MOL0     H91994   2.095   4.249   9.777  3.6842  0.0054 -0.3980
  667MOL0     H91995   1.821   4.254   9.769 -0.7673 -1.1954 -0.6887
  667MOL0     H91996   1.538   4.019   9.871  1.9706 -1.6475  0.2258
  667MOL0     H91997   1.559   4.183   9.818 -1.3955 -0.8737  0.1680
  667MOL0     H91998   1.674   4.203  10.075 -1.0264  3.4702 -0.6077
  667MOL0     H91999   1.506   4.233  10.038  0.1573 -0.6174 -3.1181
  667MOL0     H92000   1.446   4.006  10.054  2.5450 -3.6035 -2.8926
  667MOL0     H92001   1.606   3.962  10.115 -0.4914  0.7255 -3.5308
  667MOL0     H92002   1.428   4.175  10.245 -0.5829 -1.1334 -0.3963
  667MOL0     H92003   1.412   4.011  10.296 -1.3281  0.3954  0.4347
  667MOL0     H92004   1.663   4.281  10.460  2.6514 -0.6157 -0.2934
  667MOL0     H92005   1.676   4.431  10.639  0.6396 -0.3657 -0.1395
  667MOL0     H92006   1.753   4.349  10.775  0.2783  3.4854  0.5373
  667MOL0     H92007   1.577   4.387  10.783  0.0644  4.0898 -1.0814
  667MOL0     H92008   1.336   4.058  11.074  2.1709 -1.8897 -3.2876
  667MOL0     H92009   1.299   4.073  11.311 -0.2886 -2.8160  0.1710
  667MOL0     H92010   1.381   4.075  11.675 -0.2626  2.6515 -0.9502
  667MOL0     H92011   1.306   4.126  11.524  0.1880  0.3001  1.4098
  667MOL0     H92012   1.317   3.842  11.653 -0.7693 -0.2410  1.0356
  667MOL0     H92013   1.180   3.965  11.646  0.0487  2.0600 -0.8653
  667MOL0     H92014   1.285   3.807  11.415  0.2703 -0.1517 -1.6391
  667MOL0     H92015   1.155   3.942  11.420  1.6455  0.9641  1.3252
  667MOL0     H92016   1.012   3.810  11.548 -1.2677 -2.6638  0.3256
  667MOL0     H92017   1.125   3.696  11.602  1.1115  1.1604  1.6938
  667MOL0     H92018   1.021   3.721  11.306 -2.7547 -1.0473 -0.3256
  667MOL0     H92019   1.163   3.618  11.355  0.1786  0.2253  0.7039
  667MOL0     H92020   0.869   3.595  11.436  0.8040  1.8625  1.3424
  667MOL0     H92021   0.997   3.521  11.538 -2.0513 -0.0695  0.2946
  667MOL0     H92022   0.980   3.337  11.422  2.4108  0.7596  0.9379
  667MOL0     H92023   1.079   3.409  11.315  0.8609  1.4845  2.6177
  667MOL0     H92024   0.772   3.437  11.293 -0.0516  1.1995  0.2465
  667MOL0     H92025   0.873   3.320  11.198  2.6179 -0.9600  1.3619
  667MOL0     H92026   1.695   3.944  11.387 -1.4814  0.0475  1.5681
  667MOL0     H92027   1.745   3.954  11.138  1.3331  0.0952  0.8308
  667MOL0     H92028   1.566   3.888  10.741  1.7593 -1.4524 -1.1388
  667MOL0     H92029   1.549   3.883  10.501  2.2450 -0.0133 -0.3154
  667MOL0     H92030   3.160   4.049   9.996  2.0378  1.0175 -0.0389
  667MOL0     H92031   3.211   4.288  10.088  0.2607  0.7130 -0.1004
  667MOL0     H92032   2.945   4.724  10.222 -2.3820  0.5021  1.8194
  667MOL0     H92033   3.031   4.943  10.273 -1.3785 -0.8070  0.7594
  667MOL0     H92034   3.276   5.056  10.271 -0.7592 -1.3672  0.6987
  667MOL0     H92035   3.338   5.158  10.411  1.1847  0.2062  0.9982
  667MOL0     H92036   3.421   4.871  10.359  1.2978 -0.2276  1.0113
  667MOL0     H92037   3.479   4.974  10.488  3.3556 -0.6430 -1.0633
  667MOL0     H92038   3.497   5.054  10.192 -3.2051 -3.5382  0.1437
  667MOL0     H92039   3.573   5.135  10.320 -1.2445  1.6027 -3.3014
  667MOL0     H92040   3.632   4.838  10.263 -2.7455  1.4239  0.7452
  667MOL0     H92041   3.697   4.921  10.402 -2.0925 -3.9673  1.2888
  667MOL0     H92042   3.961   5.017  10.079 -1.8528  1.1234 -1.4278
  667MOL0     H92043   3.263   4.809  10.595 -0.2483  1.3127 -0.5898
  667MOL0     H92044   3.359   4.578  10.575 -0.4199  1.0365  1.6902
  667MOL0     H92045   3.206   4.503  10.633  0.1812 -0.3253 -0.4598
  667MOL0     H92046   3.278   4.460  10.481 -0.1049  1.5487 -2.6086
  668MOL0     O92047   2.253   8.675   8.155 -0.7217  0.1675 -0.2954
  668MOL0     C92048   2.370   8.672   8.181  0.3512 -0.0383 -0.2793
  668MOL0     O92049   2.470   8.753   8.130  0.4277  0.2528 -0.2676
  668MOL0     C92050   2.441   8.791   7.999 -0.1925  0.4580 -0.9408
  668MOL0     C92051   2.524   8.737   7.895  0.8822 -0.1461  0.8289
  668MOL0     C92052   2.466   8.750   7.767 -0.1122 -0.4772 -0.1694
  668MOL0     C92053   2.357   8.835   7.744  0.4054  0.1524  0.9323
  668MOL0     O92054   2.320   8.851   7.612 -0.6973  0.1573  0.4336
  668MOL0     C92055   2.203   8.925   7.583  0.4838 -0.2664 -0.3866
  668MOL0     C92056   2.200   8.951   7.430 -0.0548  0.5292  0.5496
  668MOL0     C92057   2.141   9.084   7.387  0.1362  0.3414 -0.0636
  668MOL0     C92058   1.987   9.105   7.428 -0.4131  0.1222 -0.3558
  668MOL0     C92059   1.935   9.249   7.420  0.4086 -0.2729  1.3751
  668MOL0     C92060   2.002   9.337   7.521 -1.1503  0.7440  0.1401
  668MOL0     C92061   1.952   9.479   7.540 -0.1599  0.4867 -0.1016
  668MOL0     C92062   1.999   9.573   7.427  0.3750  0.7053 -0.2201
  668MOL0     N92063   1.942   9.702   7.449  0.1781  0.0770  0.4170
  668MOL0     C92064   1.907   9.794   7.347  0.6470  0.2452 -0.5256
  668MOL0     C92065   1.920   9.916   7.394 -0.5146  0.0061  0.1619
  668MOL0     C92066   1.883  10.044   7.329  1.3287 -0.8347 -0.9358
  668MOL0     C92067   1.981  10.096   7.224 -1.1030 -0.6171  0.5257
  668MOL0     C92068   2.128  10.081   7.252 -0.3354 -0.7024 -0.6340
  668MOL0     C92069   2.209  10.105   7.127  0.1976 -0.9926  0.5986
  668MOL0     O92070   2.180   9.993   7.045  0.3601 -0.2094  0.0347
  668MOL0     C92071   2.215   9.995   6.908  0.2765 -0.4483  0.9206
  668MOL0     C92072   2.239  10.114   6.836 -0.0305 -0.4870 -0.4666
  668MOL0     C92073   2.300  10.122   6.705  0.6965 -0.0928 -0.5183
  668MOL0     C92074   2.333  10.260   6.656 -0.5586  0.0651 -0.6160
  668MOL0     C92075   2.308  10.000   6.634 -0.2448 -0.5136  0.1286
  668MOL0     C92076   2.364   9.993   6.495 -0.4249 -0.0418 -0.3704
  668MOL0     O92077   2.380   9.872   6.441 -0.1789 -0.1676 -0.3842
  668MOL0     C92078   2.405   9.848   6.304  0.4347 -0.8097  0.0975
  668MOL0     C92079   2.373   9.941   6.196 -0.5971  0.5840  0.3863
  668MOL0     C92080   2.398   9.893   6.067 -0.4094 -0.3189  0.9733
  668MOL0     C92081   2.458   9.765   6.040  0.2316  0.7613 -1.1010
  668MOL0     O92082   2.465   9.719   5.910  0.4682 -0.3693  0.1386
  668MOL0     C92083   2.580   9.666   5.851  0.9766 -0.5489  0.4019
  668MOL0     C92084   2.667   9.781   5.810  0.1718 -0.0015  0.0108
  668MOL0     C92085   2.781   9.731   5.723  0.1141  0.1427  0.8964
  668MOL0     C92086   2.838   9.827   5.622 -0.6007 -0.2135  0.6884
  668MOL0     C92087   2.826   9.771   5.479 -0.6697  0.0563  0.0170
  668MOL0     C92088   2.904   9.852   5.376  0.5759 -0.0353 -0.1641
  668MOL0     C92089   2.897   9.793   5.240  0.1685 -0.0032 -0.3278
  668MOL0     C92090   2.940   9.884   5.121 -0.4511 -0.3415  0.3494
  668MOL0    Cl92091   2.790   9.972   5.075 -0.1156  0.3567 -0.1821
  668MOL0     C92092   2.485   9.674   6.145 -0.6107  0.4032  0.1154
  668MOL0     C92093   2.460   9.724   6.271 -0.0884  1.0173  0.0749
  668MOL0     O92094   2.380  10.095   6.436 -0.0252  0.3379 -0.6646
  668MOL0     C92095   2.262   9.882   6.698 -0.3600 -0.1216  0.3715
  668MOL0     C92096   2.222   9.877   6.833  0.3294 -0.4090 -0.0363
  668MOL0     N92097   1.946   9.899   7.530  0.6016  1.1342 -0.1027
  668MOL0     N92098   1.960   9.778   7.557  0.5459 -0.1906 -0.5556
  668MOL0     C92099   2.299   8.898   7.851  0.6340 -0.6217 -0.1893
  668MOL0     C92100   2.335   8.875   7.976  0.2333 -0.3693 -0.1196
  668MOL0     C92101   2.406   8.571   8.284 -1.2337  0.3503  0.9311
  668MOL0     C92102   2.525   8.596   8.351  0.8087 -0.4083  0.2887
  668MOL0     C92103   2.579   8.516   8.446 -0.9851  0.6178  1.5299
  668MOL0     C92104   2.512   8.401   8.477 -0.3190  0.0517  0.4814
  668MOL0     O92105   2.554   8.330   8.585  0.6131 -0.0031  0.3257
  668MOL0     C92106   2.509   8.193   8.621 -0.2050 -0.9618  0.5720
  668MOL0     C92107   2.542   8.161   8.764  1.0564 -0.1651 -1.0842
  668MOL0     C92108   2.681   8.198   8.811  1.1288  0.1900 -0.1415
  668MOL0     C92109   2.698   8.171   8.951  0.3629 -0.6502  0.1585
  668MOL0     C92110   2.831   8.196   9.004  0.5741  0.2633 -0.0612
  668MOL0     C92111   2.948   8.220   9.026  1.1108  0.2331  0.4273
  668MOL0     C92112   2.392   8.365   8.405 -0.2458  0.5488 -0.1649
  668MOL0     C92113   2.333   8.449   8.307 -0.9597 -1.0625 -0.3011
  668MOL0     C92114   2.196   8.405   8.250  0.2627  0.8859 -0.3652
  668MOL0     H92115   2.610   8.670   7.898  1.1831  0.1045 -0.9345
  668MOL0     H92116   2.523   8.699   7.690 -0.3889 -1.3353  0.1793
  668MOL0     H92117   2.211   9.025   7.628  2.0312  0.6761 -2.5706
  668MOL0     H92118   2.120   8.862   7.614  1.9398 -2.2827 -0.3708
  668MOL0     H92119   2.300   8.943   7.385 -1.1951  3.1511 -2.8947
  668MOL0     H92120   2.149   8.860   7.399  1.8072 -1.7394  3.5769
  668MOL0     H92121   2.199   9.162   7.436  0.8263  0.2476 -0.7144
  668MOL0     H92122   2.150   9.089   7.278 -0.8655  0.2979 -0.1590
  668MOL0     H92123   1.930   9.033   7.368 -0.8425 -0.9782  1.2900
  668MOL0     H92124   1.974   9.075   7.532  0.0815  3.7833  0.8807
  668MOL0     H92125   1.827   9.255   7.437  0.0453  0.5375 -0.9578
  668MOL0     H92126   1.961   9.271   7.317  2.5739 -0.3454  1.8515
  668MOL0     H92127   1.990   9.293   7.621 -0.7062 -1.6071 -0.7887
  668MOL0     H92128   2.109   9.335   7.500 -1.4077  0.6863 -1.2272
  668MOL0     H92129   2.003   9.529   7.623 -1.5420  2.2511 -0.2564
  668MOL0     H92130   1.843   9.476   7.551 -0.0421  1.4053  1.7761
  668MOL0     H92131   2.108   9.586   7.430  0.2965  1.5257 -0.7269
  668MOL0     H92132   1.968   9.529   7.332  0.6458 -1.6468  0.6965
  668MOL0     H92133   1.869   9.760   7.251  2.9511 -1.5829 -0.8976
  668MOL0     H92134   1.866  10.116   7.409 -1.3745 -0.8344 -1.3985
  668MOL0     H92135   1.792  10.020   7.273 -0.1957 -2.1875  1.9250
  668MOL0     H92136   1.967  10.053   7.124 -1.7350  1.8101 -0.5060
  668MOL0     H92137   1.966  10.202   7.200  1.3661 -1.0333 -3.9470
  668MOL0     H92138   2.150  10.160   7.324 -1.8206 -1.3683  0.6206
  668MOL0     H92139   2.155   9.981   7.288  2.9026 -0.1732 -1.2330
  668MOL0     H92140   2.179  10.203   7.087  0.8901 -1.2286 -0.5471
  668MOL0     H92141   2.318  10.111   7.136  0.4604 -3.9020  0.2044
  668MOL0     H92142   2.224  10.211   6.883 -3.0910 -1.3747  0.6311
  668MOL0     H92143   2.324  10.340   6.730  1.6654 -0.3701  0.2273
  668MOL0     H92144   2.259  10.275   6.577  0.2022  0.1117 -1.3410
  668MOL0     H92145   2.437  10.270   6.621 -0.6328  1.9387 -0.4097
  668MOL0     H92146   2.328  10.037   6.217  0.8382  1.0099  1.7648
  668MOL0     H92147   2.367   9.943   5.976 -2.1444  0.3772  1.8928
  668MOL0     H92148   2.630   9.589   5.911  0.6809 -0.8025  0.3250
  668MOL0     H92149   2.542   9.615   5.761 -0.9231  1.4166  0.0167
  668MOL0     H92150   2.613   9.864   5.764 -2.1500 -0.1349  2.2256
  668MOL0     H92151   2.706   9.817   5.906 -0.5298 -1.1606  0.7573
  668MOL0     H92152   2.740   9.636   5.688 -2.8616  0.4969  3.0955
  668MOL0     H92153   2.861   9.713   5.796 -0.9573  1.4734  2.4638
  668MOL0     H92154   2.947   9.839   5.632 -0.7082  2.1662 -0.3096
  668MOL0     H92155   2.801   9.929   5.633 -1.9971 -0.6095 -0.1008
  668MOL0     H92156   2.863   9.669   5.476  0.3231  0.3912  0.5809
  668MOL0     H92157   2.721   9.769   5.447 -0.7605 -0.0444  0.3222
  668MOL0     H92158   3.009   9.848   5.407  1.0237 -1.0608 -1.6972
  668MOL0     H92159   2.865   9.954   5.376 -0.4114 -0.4094 -0.7779
  668MOL0     H92160   2.794   9.762   5.219 -0.2330  0.7621  0.4421
  668MOL0     H92161   2.966   9.709   5.245  0.6496  0.4339  0.4679
  668MOL0     H92162   2.976   9.820   5.040 -1.6562 -0.1830 -0.3453
  668MOL0     H92163   3.016   9.960   5.142 -2.6431  1.3180  2.9122
  668MOL0     H92164   2.518   9.574   6.119 -2.9759 -0.0608 -1.3849
  668MOL0     H92165   2.474   9.658   6.357 -0.8975  0.9484  0.1544
  668MOL0     H92166   2.255   9.793   6.636  1.8993 -0.3473  0.3596
  668MOL0     H92167   2.192   9.780   6.872  3.4511 -1.3380  0.2952
  668MOL0     H92168   2.219   8.970   7.832  1.3667 -0.0464 -1.2353
  668MOL0     H92169   2.279   8.932   8.049  1.6608  0.4368  0.3828
  668MOL0     H92170   2.591   8.678   8.323 -0.3294  0.0359 -1.1969
  668MOL0     H92171   2.674   8.552   8.483  0.0442  0.3160 -0.6822
  668MOL0     H92172   2.403   8.179   8.595 -0.0457 -0.4610 -0.4042
  668MOL0     H92173   2.557   8.127   8.549 -1.8907  3.0348 -4.9754
  668MOL0     H92174   2.526   8.053   8.774  0.7359 -0.0268  0.0983
  668MOL0     H92175   2.459   8.206   8.820  0.8288 -1.2169 -0.5426
  668MOL0     H92176   2.752   8.135   8.756  1.3625  0.3606 -0.0360
  668MOL0     H92177   2.710   8.301   8.787 -1.7848  1.1189  0.0354
  668MOL0     H92178   2.676   8.067   8.978  2.0991 -1.0185  0.2483
  668MOL0     H92179   2.630   8.238   9.006 -1.2243 -2.0514 -0.0160
  668MOL0     H92180   3.050   8.235   9.055  1.2347  1.6072 -0.6178
  668MOL0     H92181   2.330   8.277   8.419 -1.5049  1.3678 -0.4305
  668MOL0     H92182   2.175   8.302   8.281  1.6565  0.7265  0.1362
  668MOL0     H92183   2.118   8.473   8.287 -0.5309  0.3281 -0.9725
  668MOL0     H92184   2.192   8.407   8.141 -0.7149 -4.4761 -0.6950
  669MOL0     O92185   4.098   0.362   3.849  0.7755  0.4248 -1.2253
  669MOL0     C92186   4.046   0.272   3.782 -0.1413 -0.0562 -0.5135
  669MOL0     O92187   3.965   0.296   3.671  0.2137  0.0257  0.3612
  669MOL0     C92188   3.933   0.423   3.638  0.8107 -0.1653 -0.6720
  669MOL0     C92189   3.897   0.444   3.506  0.1557 -0.6543  0.5068
  669MOL0     C92190   3.879   0.571   3.456 -0.4822  0.7668  0.2945
  669MOL0     C92191   3.886   0.687   3.532 -0.0813 -0.9373  0.5579
  669MOL0     O92192   3.865   0.818   3.487 -0.6392  0.2697  0.6357
  669MOL0     C92193   3.869   0.835   3.341 -0.1443  0.6008 -0.5771
  669MOL0     C92194   3.843   0.978   3.311  0.2966 -0.9447  0.5805
  669MOL0     C92195   3.950   1.080   3.357 -0.0851 -0.4502  0.9038
  669MOL0     C92196   4.094   1.036   3.309 -0.2578 -0.2918 -0.6504
  669MOL0     C92197   4.110   1.016   3.152 -0.1980  0.8123 -0.4197
  669MOL0     C92198   4.252   1.000   3.110 -0.4682 -0.9422 -0.7806
  669MOL0     C92199   4.328   0.878   3.163 -0.2582 -0.2227  0.3098
  669MOL0     C92200   4.277   0.748   3.128  0.8310  0.1728  0.4063
  669MOL0     N92201   4.313   0.710   2.993 -0.1750 -0.8389 -0.7620
  669MOL0     C92202   4.432   0.639   2.979  0.5472  0.2682 -0.8306
  669MOL0     C92203   4.440   0.625   2.844 -0.1908 -0.7003  1.3172
  669MOL0     C92204   4.549   0.547   2.769  0.5115 -0.3583 -0.2067
  669MOL0     C92205   4.491   0.407   2.735 -0.5870 -0.3017  0.8636
  669MOL0     C92206   4.584   0.320   2.651 -0.0735 -0.0623 -0.6607
  669MOL0     C92207   4.720   0.323   2.711 -0.5846  0.0594  1.0034
  669MOL0     O92208   4.796   0.234   2.631 -0.0377 -0.6672  0.8622
  669MOL0     C92209   4.880   0.141   2.687 -0.3738  0.6399  0.0008
  669MOL0     C92210   4.947   0.058   2.595 -0.3530  0.1879  0.0137
  669MOL0     C92211   5.050  -0.030   2.620 -0.1937  0.3857  0.0532
  669MOL0     C92212   5.114  -0.105   2.499  0.6198  0.2231 -0.0749
  669MOL0     C92213   5.087  -0.040   2.758 -0.0860  0.4853  0.0662
  669MOL0     C92214   5.196  -0.136   2.805  0.5518  0.1798 -0.1517
  669MOL0     O92215   5.221  -0.253   2.735  0.1676  0.0914  0.6678
  669MOL0     C92216   5.305  -0.340   2.795  0.9211  0.0267 -0.2057
  669MOL0     C92217   5.275  -0.391   2.923  0.2966 -0.4359 -0.7068
  669MOL0     C92218   5.364  -0.470   2.990 -0.2484 -0.6318  0.2398
  669MOL0     C92219   5.487  -0.515   2.924  0.0117 -0.0064  0.1654
  669MOL0     O92220   5.569  -0.595   2.990  0.5179  0.0281 -0.6842
  669MOL0     C92221   5.662  -0.687   2.922 -0.8322 -0.7396 -0.4243
  669MOL0     C92222   5.578  -0.799   2.878 -1.1217 -0.3808 -0.2698
  669MOL0     C92223   5.560  -0.904   3.001  0.1390 -0.1297  0.6172
  669MOL0     C92224   5.685  -0.989   3.042 -0.6931  0.1249 -0.5367
  669MOL0     C92225   5.662  -1.091   3.158 -0.9727  0.0774  0.2663
  669MOL0     C92226   5.764  -1.194   3.160 -1.1102 -0.1195  0.1820
  669MOL0     C92227   5.758  -1.294   3.276 -0.2289  0.4835  0.1094
  669MOL0     C92228   5.763  -1.233   3.412  0.1693  0.1996 -0.0283
  669MOL0    Cl92229   5.782  -1.363   3.538  0.5400  0.1998 -0.3058
  669MOL0     C92230   5.511  -0.480   2.786 -0.1476 -0.4432 -0.6114
  669MOL0     C92231   5.423  -0.388   2.729  0.4272 -0.7990 -0.1730
  669MOL0     O92232   5.255  -0.104   2.903  0.0590  0.2438 -0.4759
  669MOL0     C92233   5.001   0.022   2.858  0.1015  0.2921  0.2131
  669MOL0     C92234   4.910   0.124   2.824  1.1477  0.5658  0.4714
  669MOL0     N92235   4.336   0.705   2.784 -0.5866  0.6272  0.4316
  669MOL0     N92236   4.255   0.744   2.876 -0.6923  0.8980  0.5406
  669MOL0     C92237   3.912   0.665   3.662 -0.3617 -0.5523 -0.6143
  669MOL0     C92238   3.936   0.540   3.721  1.0501 -0.3583  0.3323
  669MOL0     C92239   4.055   0.125   3.824  0.4121 -0.0702 -0.0386
  669MOL0     C92240   4.010   0.030   3.725  0.8162  0.6122  0.8565
  669MOL0     C92241   4.013  -0.103   3.747 -0.2322 -0.0955  0.0037
  669MOL0     C92242   4.061  -0.160   3.868  0.1264 -0.2790 -0.0429
  669MOL0     O92243   4.046  -0.293   3.903  0.5331 -0.2877  0.8017
  669MOL0     C92244   4.030  -0.401   3.801  0.2559  0.3766  0.1048
  669MOL0     C92245   3.984  -0.530   3.873  0.7612 -0.6966 -0.3609
  669MOL0     C92246   3.923  -0.631   3.773 -0.2501  0.2157  1.0092
  669MOL0     C92247   4.029  -0.683   3.680 -0.6190 -0.2089 -0.4490
  669MOL0     C92248   3.977  -0.786   3.586 -0.3367  0.6378 -1.1908
  669MOL0     C92249   3.907  -0.865   3.525  0.2382 -0.2068  0.2868
  669MOL0     C92250   4.116  -0.071   3.971  0.3347  0.9935  0.4109
  669MOL0     C92251   4.114   0.072   3.942  0.1024  0.1842  0.2039
  669MOL0     C92252   4.194   0.158   4.040  0.6149  0.5398  0.3511
  669MOL0     H92253   3.893   0.361   3.437  0.6365 -0.0966 -0.2097
  669MOL0     H92254   3.862   0.583   3.349  3.4259  0.4158 -0.5144
  669MOL0     H92255   3.790   0.777   3.292 -0.7685 -2.3205  3.4040
  669MOL0     H92256   3.967   0.815   3.296 -0.8103  2.8781 -3.3343
  669MOL0     H92257   3.811   0.994   3.208 -0.5094  0.5204  1.0154
  669MOL0     H92258   3.755   1.010   3.368  0.6120 -2.0613  1.7334
  669MOL0     H92259   3.921   1.180   3.323 -1.8448 -0.7831  1.2956
  669MOL0     H92260   3.947   1.090   3.466 -0.5836 -0.9286  0.9417
  669MOL0     H92261   4.171   1.109   3.336 -1.8441  1.4880 -0.7466
  669MOL0     H92262   4.115   0.938   3.354 -1.0846 -0.2542 -0.1679
  669MOL0     H92263   4.060   1.110   3.131 -0.5544  0.6533 -0.2921
  669MOL0     H92264   4.053   0.936   3.104  0.9744  0.5945 -1.5093
  669MOL0     H92265   4.248   1.008   3.001  1.4007 -0.3502 -0.8450
  669MOL0     H92266   4.301   1.092   3.143 -1.3167  0.8509 -4.0698
  669MOL0     H92267   4.335   0.877   3.272  1.4192 -1.6225  0.2264
  669MOL0     H92268   4.430   0.896   3.129 -1.5839  0.3471 -3.9133
  669MOL0     H92269   4.319   0.677   3.201  1.4180  0.1784  0.0815
  669MOL0     H92270   4.170   0.744   3.151  1.0446 -0.4611  1.3611
  669MOL0     H92271   4.504   0.605   3.052  0.5057  2.6768  0.4504
  669MOL0     H92272   4.635   0.525   2.833  1.2232 -1.0939 -1.3768
  669MOL0     H92273   4.582   0.611   2.687 -2.7795  1.1384 -0.5098
  669MOL0     H92274   4.488   0.353   2.830  2.3111 -0.8613  0.7397
  669MOL0     H92275   4.400   0.415   2.675  1.2722  3.4206 -1.8830
  669MOL0     H92276   4.548   0.217   2.654 -1.0724  0.2760 -0.5859
  669MOL0     H92277   4.587   0.354   2.547 -3.4734 -2.1296 -1.5996
  669MOL0     H92278   4.760   0.424   2.696 -0.9206  0.1314  0.5868
  669MOL0     H92279   4.709   0.295   2.817  4.2466 -2.9607  1.0273
  669MOL0     H92280   4.921   0.074   2.491  3.2786 -0.4552 -1.1263
  669MOL0     H92281   5.087  -0.053   2.406 -1.7029  1.7762  1.3717
  669MOL0     H92282   5.082  -0.209   2.498 -1.3091  0.7158  2.3975
  669MOL0     H92283   5.222  -0.095   2.512  0.4889  0.7185  0.7169
  669MOL0     H92284   5.179  -0.364   2.966 -0.1000 -1.3288 -1.0148
  669MOL0     H92285   5.343  -0.507   3.090  1.1617 -0.9144  0.4504
  669MOL0     H92286   5.709  -0.633   2.839  6.3447 -0.7787  2.8843
  669MOL0     H92287   5.742  -0.723   2.987  2.6040  4.6641 -1.0213
  669MOL0     H92288   5.478  -0.772   2.843 -1.4753 -1.6393 -0.2995
  669MOL0     H92289   5.638  -0.852   2.803 -0.9400 -0.1755 -0.2685
  669MOL0     H92290   5.481  -0.977   2.985 -2.7685  2.7413  0.9139
  669MOL0     H92291   5.515  -0.853   3.087 -1.6125 -1.0591  0.2969
  669MOL0     H92292   5.761  -0.917   3.073  1.7088 -1.7634 -1.7256
  669MOL0     H92293   5.725  -1.040   2.954  1.1664  1.0964 -0.2941
  669MOL0     H92294   5.674  -1.038   3.253  0.5242  2.6822 -1.2604
  669MOL0     H92295   5.564  -1.139   3.152 -0.5406 -0.7965  0.1332
  669MOL0     H92296   5.867  -1.156   3.155 -0.7128 -1.3396 -2.2110
  669MOL0     H92297   5.763  -1.266   3.078  3.7230 -2.7718  2.0064
  669MOL0     H92298   5.838  -1.368   3.268 -0.5594  0.2350 -1.0012
  669MOL0     H92299   5.665  -1.350   3.264 -0.0635  0.4270 -1.0421
  669MOL0     H92300   5.680  -1.166   3.437 -1.9027 -2.8932  2.0210
  669MOL0     H92301   5.858  -1.178   3.410  0.5266 -0.3743  0.6502
  669MOL0     H92302   5.597  -0.508   2.725  1.5295  0.3739  1.2900
  669MOL0     H92303   5.444  -0.356   2.627  4.0225 -2.1371 -0.0300
  669MOL0     H92304   5.013   0.022   2.966  1.2451 -0.8491  0.1094
  669MOL0     H92305   4.880   0.188   2.906  1.5303 -0.6748  1.6264
  669MOL0     H92306   3.930   0.741   3.737 -4.3275  0.2547 -0.2255
  669MOL0     H92307   3.960   0.540   3.827  0.3442 -0.8754  0.4963
  669MOL0     H92308   3.979   0.067   3.628  1.1903  1.8651  1.2015
  669MOL0     H92309   3.961  -0.164   3.675 -2.1580  0.6120  0.7318
  669MOL0     H92310   3.954  -0.372   3.728  1.1678  2.0496 -0.2312
  669MOL0     H92311   4.125  -0.417   3.750  0.3912  1.9703 -0.1999
  669MOL0     H92312   3.919  -0.502   3.955 -1.5793 -2.3032 -1.5620
  669MOL0     H92313   4.079  -0.555   3.921  0.8322 -0.0494 -0.1614
  669MOL0     H92314   3.880  -0.714   3.830 -0.1323  1.8789  3.7353
  669MOL0     H92315   3.857  -0.572   3.709 -0.4883 -0.1025  0.9608
  669MOL0     H92316   4.099  -0.733   3.747  0.7717 -0.0086 -1.7020
  669MOL0     H92317   4.086  -0.611   3.622 -1.5851  1.3683  0.5066
  669MOL0     H92318   3.855  -0.923   3.451  1.1211 -1.4795  0.6349
  669MOL0     H92319   4.158  -0.104   4.065 -0.7630 -2.6903 -0.2176
  669MOL0     H92320   4.132   0.239   4.078  2.9281  2.9170 -0.6636
  669MOL0     H92321   4.215   0.099   4.130  0.5734 -1.8737 -1.1155
  669MOL0     H92322   4.291   0.197   4.006 -0.8106  1.8178 -2.5374
  670MOL0     O92323   7.396   5.320   4.453 -0.3026 -0.9255 -0.2703
  670MOL0     C92324   7.271   5.317   4.453 -0.1459 -0.6631  0.7498
  670MOL0     O92325   7.199   5.219   4.514 -0.1186  0.3063  0.1347
  670MOL0     C92326   7.274   5.114   4.559 -0.0973 -0.3089  0.5529
  670MOL0     C92327   7.237   4.984   4.520 -0.0868  0.0507  0.0510
  670MOL0     C92328   7.323   4.879   4.552  0.0656  0.3173  0.4089
  670MOL0     C92329   7.435   4.885   4.637 -0.4189 -0.2196  0.5616
  670MOL0     O92330   7.528   4.781   4.677  0.9813 -0.8183 -1.2905
  670MOL0     C92331   7.485   4.644   4.663  0.1659  0.9205  1.0457
  670MOL0     C92332   7.550   4.560   4.776  0.5382 -0.4402  0.3821
  670MOL0     C92333   7.705   4.557   4.774 -0.4238 -0.6571 -0.1463
  670MOL0     C92334   7.768   4.457   4.674  0.3417  0.0330  0.4912
  670MOL0     C92335   7.912   4.438   4.717 -0.4839 -0.0394  1.2115
  670MOL0     C92336   8.000   4.351   4.625 -0.6451 -0.6263 -0.0522
  670MOL0     C92337   7.932   4.214   4.595 -0.0525 -0.0974 -0.7419
  670MOL0     C92338   8.034   4.121   4.543  0.4035 -0.3360  0.0961
  670MOL0     N92339   8.149   4.091   4.623 -0.2725 -0.1061 -0.3911
  670MOL0     C92340   8.271   4.150   4.599  0.2001 -0.4011 -0.4687
  670MOL0     C92341   8.356   4.092   4.690  0.9432 -0.7823  0.6390
  670MOL0     C92342   8.494   4.134   4.717  1.0780  0.2104  0.0811
  670MOL0     C92343   8.491   4.286   4.754  0.0353  0.1663 -0.2517
  670MOL0     C92344   8.567   4.361   4.645 -0.3755 -0.6830 -0.6432
  670MOL0     C92345   8.550   4.513   4.668 -0.1536 -0.8120 -0.2852
  670MOL0     O92346   8.414   4.545   4.696  0.1517  0.4819 -0.0828
  670MOL0     C92347   8.322   4.585   4.598  0.5023 -0.8425 -0.6038
  670MOL0     C92348   8.333   4.566   4.462 -0.9990 -0.7096 -0.1697
  670MOL0     C92349   8.243   4.600   4.364  0.8114  0.5382  0.9714
  670MOL0     C92350   8.257   4.567   4.216  0.1925  0.4117  0.4641
  670MOL0     C92351   8.124   4.667   4.410 -1.2681 -0.9388 -0.4176
  670MOL0     C92352   8.036   4.750   4.317  0.4737  0.4413 -0.2723
  670MOL0     O92353   7.908   4.774   4.360 -0.2982 -0.0381  0.3433
  670MOL0     C92354   7.811   4.861   4.295 -0.5325  0.5787 -0.0576
  670MOL0     C92355   7.695   4.885   4.364  0.3750  0.1663 -0.2913
  670MOL0     C92356   7.582   4.956   4.315  0.2217  1.0289  0.7721
  670MOL0     C92357   7.595   5.016   4.194  1.2973  0.5146  0.6599
  670MOL0     O92358   7.498   5.066   4.118 -0.0383 -0.0777  0.7199
  670MOL0     C92359   7.451   5.184   4.184  0.3475  0.5762 -0.4754
  670MOL0     C92360   7.373   5.258   4.070  0.1742 -0.0098 -0.7275
  670MOL0     C92361   7.487   5.301   3.969  0.2529  0.2653 -0.0183
  670MOL0     C92362   7.431   5.363   3.844  0.2076 -0.9604  0.9555
  670MOL0     C92363   7.533   5.428   3.746 -0.4859 -0.0083 -0.0064
  670MOL0     C92364   7.608   5.323   3.664 -0.3534 -0.2955  0.0198
  670MOL0     C92365   7.687   5.380   3.548 -0.0667  0.4052 -0.4148
  670MOL0     C92366   7.598   5.426   3.431 -0.2431  0.2229  1.0192
  670MOL0    Cl92367   7.711   5.493   3.302  0.3066  0.0498  0.1326
  670MOL0     C92368   7.714   4.997   4.119 -0.0259  0.8254 -0.0913
  670MOL0     C92369   7.823   4.928   4.175  0.3545  0.4232  0.5481
  670MOL0     O92370   8.091   4.802   4.219  0.2199  0.4168 -1.3186
  670MOL0     C92371   8.116   4.695   4.546 -0.7103 -0.9642  0.1938
  670MOL0     C92372   8.206   4.648   4.643 -0.3647 -0.4557  0.1945
  670MOL0     N92373   8.280   4.006   4.767 -0.1648  0.2486  0.4314
  670MOL0     N92374   8.157   4.012   4.731  0.3090 -0.3827 -0.5681
  670MOL0     C92375   7.466   5.012   4.681 -0.2522 -0.8892  1.2064
  670MOL0     C92376   7.393   5.127   4.644  0.0770  0.1412  1.2696
  670MOL0     C92377   7.195   5.420   4.370  1.0836 -0.2165 -0.1433
  670MOL0     C92378   7.088   5.369   4.296 -0.5180 -0.1472 -0.5446
  670MOL0     C92379   7.002   5.457   4.232  0.2257  0.5851  0.8394
  670MOL0     C92380   7.030   5.591   4.213 -0.1636  1.5876  0.9415
  670MOL0     O92381   6.948   5.662   4.131  0.3418 -0.2039 -0.4557
  670MOL0     C92382   6.980   5.794   4.104 -0.1353  0.3901 -0.0735
  670MOL0     C92383   6.904   5.848   3.983  0.6737 -0.2229 -0.4649
  670MOL0     C92384   6.949   5.990   3.953  0.3141 -0.8350  0.0621
  670MOL0     C92385   7.068   6.002   3.857  0.0656  0.4497 -0.6165
  670MOL0     C92386   7.090   6.137   3.813 -0.1834 -0.7562 -0.6739
  670MOL0     C92387   7.116   6.257   3.775  0.6951 -0.6436  0.2718
  670MOL0     C92388   7.144   5.642   4.281  0.5004 -0.1084 -0.2829
  670MOL0     C92389   7.217   5.557   4.369 -0.0973 -0.0117 -0.0062
  670MOL0     C92390   7.313   5.611   4.468  0.0051 -0.5713 -0.9513
  670MOL0     H92391   7.150   4.964   4.459  0.4419 -1.3841 -0.2680
  670MOL0     H92392   7.296   4.779   4.519 -0.9111  0.3786  0.9988
  670MOL0     H92393   7.516   4.606   4.566 -2.4670 -1.2617  0.9214
  670MOL0     H92394   7.376   4.638   4.669  0.1185 -0.3343 -0.5345
  670MOL0     H92395   7.532   4.604   4.874  2.6840 -0.8302  1.0009
  670MOL0     H92396   7.500   4.462   4.775 -0.0197 -0.1560  0.1523
  670MOL0     H92397   7.752   4.655   4.760  1.1333 -0.7986  3.2610
  670MOL0     H92398   7.742   4.526   4.872  4.1605 -1.4418 -1.8653
  670MOL0     H92399   7.718   4.360   4.670  1.2404 -0.4195 -0.1606
  670MOL0     H92400   7.762   4.486   4.569 -4.8254 -1.9704 -0.0741
  670MOL0     H92401   7.918   4.373   4.804 -0.2547 -0.5526  0.8143
  670MOL0     H92402   7.958   4.532   4.748  0.3514  1.2315 -3.1487
  670MOL0     H92403   8.014   4.418   4.539 -1.8316  0.7115  0.7639
  670MOL0     H92404   8.090   4.328   4.684  0.1659 -0.7586 -1.3075
  670MOL0     H92405   7.859   4.217   4.513  2.5639 -3.3875 -3.4648
  670MOL0     H92406   7.888   4.173   4.686  0.8903  0.7642  0.1297
  670MOL0     H92407   7.983   4.028   4.515 -0.1491  0.8343 -3.3181
  670MOL0     H92408   8.068   4.165   4.449  0.2270  0.1036  0.2384
  670MOL0     H92409   8.290   4.234   4.534 -2.1718 -0.4528 -1.3584
  670MOL0     H92410   8.547   4.111   4.624 -1.0979  0.8530 -1.4096
  670MOL0     H92411   8.538   4.071   4.795  0.4329 -1.2151 -0.6800
  670MOL0     H92412   8.389   4.317   4.775  0.0077  0.0147 -0.1577
  670MOL0     H92413   8.542   4.303   4.849 -0.5892  0.0425  0.1087
  670MOL0     H92414   8.671   4.330   4.629 -0.7491 -1.8174 -0.9077
  670MOL0     H92415   8.527   4.333   4.547 -0.5948 -1.9426 -0.2130
  670MOL0     H92416   8.613   4.534   4.755  0.0894  2.0658 -1.0561
  670MOL0     H92417   8.576   4.575   4.582 -0.9626 -0.9479 -0.6356
  670MOL0     H92418   8.430   4.524   4.437 -1.7185 -2.3214 -0.4044
  670MOL0     H92419   8.278   4.460   4.225 -1.7054  0.0564  1.3595
  670MOL0     H92420   8.337   4.622   4.167 -1.1089  3.7830  1.7905
  670MOL0     H92421   8.165   4.570   4.156  0.6590  0.6562 -0.2475
  670MOL0     H92422   7.681   4.833   4.458 -1.1880 -2.4220 -1.8268
  670MOL0     H92423   7.484   4.959   4.362 -0.8359 -1.6656 -0.9987
  670MOL0     H92424   7.372   5.161   4.257 -0.2405  0.2700 -1.1942
  670MOL0     H92425   7.527   5.246   4.233  0.7042 -0.6365  0.5748
  670MOL0     H92426   7.289   5.201   4.028 -0.0130  0.4076 -0.9304
  670MOL0     H92427   7.317   5.339   4.117  0.8689  0.8901 -1.3962
  670MOL0     H92428   7.549   5.214   3.941  2.0424 -0.1510  4.4437
  670MOL0     H92429   7.552   5.367   4.028 -1.0105  0.6257  1.0096
  670MOL0     H92430   7.361   5.445   3.861  0.6897 -0.5718  1.0771
  670MOL0     H92431   7.368   5.287   3.795 -1.7104  2.2099 -1.9775
  670MOL0     H92432   7.492   5.505   3.679  1.1132  1.2895  0.4270
  670MOL0     H92433   7.603   5.488   3.805 -2.7888  2.4786  0.4223
  670MOL0     H92434   7.540   5.250   3.619 -0.4369  0.3212 -0.8936
  670MOL0     H92435   7.685   5.281   3.729  0.0072  0.9940  0.4565
  670MOL0     H92436   7.759   5.308   3.508  0.2200 -0.4960  1.6141
  670MOL0     H92437   7.745   5.465   3.584  4.5896 -2.2012 -0.9763
  670MOL0     H92438   7.532   5.509   3.459  1.5312  2.3926 -0.8410
  670MOL0     H92439   7.533   5.342   3.404  0.1457 -0.5062  2.2361
  670MOL0     H92440   7.715   5.022   4.013 -2.6305 -1.2011 -0.7043
  670MOL0     H92441   7.907   4.919   4.107 -0.7093 -5.0334 -0.5488
  670MOL0     H92442   8.026   4.743   4.583 -1.4292 -2.4648  0.4860
  670MOL0     H92443   8.178   4.655   4.748 -1.7055 -2.7547  0.0564
  670MOL0     H92444   7.547   5.029   4.751  0.5683  0.0743  0.0560
  670MOL0     H92445   7.425   5.220   4.690  0.3098  0.4485  0.5017
  670MOL0     H92446   7.067   5.263   4.299 -1.2093 -0.0009  0.5503
  670MOL0     H92447   6.908   5.417   4.195  1.1634 -0.3967 -0.5926
  670MOL0     H92448   6.973   5.865   4.187 -0.9156 -0.8699  0.9716
  670MOL0     H92449   7.084   5.797   4.072  0.3597 -1.2889  1.2543
  670MOL0     H92450   6.797   5.857   4.005  0.9374  2.8494  0.0464
  670MOL0     H92451   6.929   5.789   3.894 -0.9449  0.1968 -1.2354
  670MOL0     H92452   6.866   6.047   3.911  2.6986  0.8519 -2.7479
  670MOL0     H92453   6.977   6.036   4.047 -1.9922  2.3033 -0.6402
  670MOL0     H92454   7.047   5.950   3.763  0.6679 -1.0363  0.0203
  670MOL0     H92455   7.163   5.967   3.900 -0.4582  1.5875  1.6190
  670MOL0     H92456   7.130   6.361   3.755  0.4555 -0.4615  1.0228
  670MOL0     H92457   7.171   5.747   4.281  0.1692 -0.0065 -1.5192
  670MOL0     H92458   7.298   5.719   4.478 -0.7701 -0.8341  1.4090
  670MOL0     H92459   7.287   5.576   4.569  0.0659  0.7116 -0.4721
  670MOL0     H92460   7.417   5.585   4.447  0.4161 -0.3595  0.6825
  671MOL0     O92461   1.443   8.443   6.232  0.3534  0.4058  0.0039
  671MOL0     C92462   1.335   8.409   6.177 -0.4697  0.5722 -0.4221
  671MOL0     O92463   1.332   8.335   6.066  0.5339 -0.5781  0.8018
  671MOL0     C92464   1.427   8.346   5.967  0.6038 -0.4435  0.9937
  671MOL0     C92465   1.467   8.234   5.906 -0.7876  0.6748 -0.1444
  671MOL0     C92466   1.565   8.235   5.803 -0.0011 -0.3883  0.6963
  671MOL0     C92467   1.621   8.359   5.762  0.2938 -0.6206 -0.5506
  671MOL0     O92468   1.691   8.378   5.649  0.7466 -1.1380  0.0829
  671MOL0     C92469   1.808   8.295   5.639 -0.6230 -0.4348  0.0960
  671MOL0     C92470   1.907   8.364   5.551  0.9579 -1.4133 -0.2818
  671MOL0     C92471   1.936   8.506   5.594  0.1778  0.8997  0.4656
  671MOL0     C92472   1.997   8.520   5.732  0.2174 -0.6334  1.5011
  671MOL0     C92473   2.056   8.659   5.747  0.8025 -0.0766 -0.0437
  671MOL0     C92474   2.050   8.697   5.896  0.2639 -0.0102  0.9914
  671MOL0     C92475   1.907   8.749   5.928 -0.6674  0.0704  0.1732
  671MOL0     C92476   1.888   8.902   5.911 -0.2011 -0.2204 -0.1254
  671MOL0     N92477   1.956   8.989   6.008 -0.0157  0.4104  0.2873
  671MOL0     C92478   2.086   9.027   6.006  0.0815  1.0770  0.0165
  671MOL0     C92479   2.094   9.105   6.121  0.0553  0.2542 -0.4346
  671MOL0     C92480   2.221   9.141   6.179 -0.1271  0.7494 -0.1546
  671MOL0     C92481   2.305   9.219   6.083 -0.3865 -0.3978  0.3661
  671MOL0     C92482   2.433   9.272   6.152 -0.2423 -0.1530  0.8096
  671MOL0     C92483   2.500   9.155   6.229 -0.3731  0.2359 -0.1620
  671MOL0     O92484   2.641   9.188   6.235 -0.1616  0.1324  0.6674
  671MOL0     C92485   2.661   9.300   6.308 -0.0419 -0.2272 -0.0376
  671MOL0     C92486   2.726   9.406   6.248  0.2273  0.5382 -0.3651
  671MOL0     C92487   2.754   9.524   6.318  0.4748  0.8594 -0.4328
  671MOL0     C92488   2.812   9.642   6.253 -0.0677  0.0007 -0.5217
  671MOL0     C92489   2.722   9.542   6.457  0.1260 -0.3470 -0.1575
  671MOL0     C92490   2.724   9.667   6.545  0.2524 -0.1647  0.3196
  671MOL0     O92491   2.712   9.640   6.678 -0.0956  0.6681 -0.2539
  671MOL0     C92492   2.717   9.732   6.776  0.7149  0.7595  0.2126
  671MOL0     C92493   2.738   9.691   6.915 -0.0657  0.8298  0.5595
  671MOL0     C92494   2.746   9.781   7.014  0.2387 -0.2577  0.0752
  671MOL0     C92495   2.724   9.911   6.992 -0.0967 -0.4247 -0.4758
  671MOL0     O92496   2.717   9.987   7.108  0.0734 -0.6243 -0.4913
  671MOL0     C92497   2.670  10.122   7.100 -0.6384 -0.0106  0.7366
  671MOL0     C92498   2.681  10.183   7.230  0.4708  0.1756 -0.3107
  671MOL0     C92499   2.639  10.331   7.219  0.0128  0.0830  1.0918
  671MOL0     C92500   2.674  10.416   7.337  0.2144  0.1057  0.2273
  671MOL0     C92501   2.616  10.554   7.309  0.5532  0.0563 -0.9488
  671MOL0     C92502   2.644  10.661   7.413 -0.7330  0.4916  0.5296
  671MOL0     C92503   2.801  10.691   7.426  0.4797  0.3239 -0.6986
  671MOL0     C92504   2.825  10.778   7.544  0.2825  0.1840 -0.2011
  671MOL0    Cl92505   2.785  10.703   7.697 -0.0401  0.0520 -0.1691
  671MOL0     C92506   2.691   9.951   6.862 -0.6304  0.2762 -0.5226
  671MOL0     C92507   2.685   9.868   6.760 -0.4602 -0.4501 -0.1065
  671MOL0     O92508   2.756   9.772   6.494 -0.5809  0.6611  0.5666
  671MOL0     C92509   2.676   9.418   6.517 -0.0123 -0.0702 -0.4966
  671MOL0     C92510   2.635   9.302   6.442  0.6511  0.4764  0.4611
  671MOL0     N92511   1.962   9.120   6.168  0.3009  0.6437 -0.2317
  671MOL0     N92512   1.885   9.041   6.111 -0.6623  0.2555  0.0640
  671MOL0     C92513   1.580   8.477   5.831  0.0285  0.0487 -0.3382
  671MOL0     C92514   1.485   8.467   5.932  0.0120  1.1507  0.3406
  671MOL0     C92515   1.204   8.437   6.243  0.3986 -0.0473  0.2855
  671MOL0     C92516   1.089   8.366   6.221 -0.3132 -0.0002 -0.8946
  671MOL0     C92517   0.963   8.409   6.271 -0.2789 -0.9497 -0.2960
  671MOL0     C92518   0.947   8.523   6.349 -0.5917 -0.5877 -0.2460
  671MOL0     O92519   0.829   8.571   6.401 -0.8848  0.0373  0.4820
  671MOL0     C92520   0.727   8.464   6.409 -0.1471 -0.2332  0.2163
  671MOL0     C92521   0.600   8.496   6.487 -0.3391 -1.5099 -0.3416
  671MOL0     C92522   0.584   8.653   6.491 -0.7508  0.6904 -0.2656
  671MOL0     C92523   0.656   8.730   6.594  0.9945  0.9538 -0.2302
  671MOL0     C92524   0.617   8.871   6.576  0.0200 -0.2678  0.1136
  671MOL0     C92525   0.581   8.990   6.561 -0.4364  0.9709  0.1227
  671MOL0     C92526   1.064   8.596   6.369 -0.2092  0.4930 -0.0477
  671MOL0     C92527   1.193   8.557   6.322  0.0381  0.1417 -0.1544
  671MOL0     C92528   1.306   8.657   6.340 -0.6769  0.2281  0.0414
  671MOL0     H92529   1.422   8.138   5.932  0.1731  0.6584  1.6275
  671MOL0     H92530   1.589   8.140   5.757  1.8746  0.4992 -0.2795
  671MOL0     H92531   1.785   8.203   5.583 -1.4495 -0.4127  0.3790
  671MOL0     H92532   1.846   8.269   5.738 -3.4884 -1.0124  1.1471
  671MOL0     H92533   2.006   8.317   5.554  1.3347 -0.7779 -1.6152
  671MOL0     H92534   1.864   8.365   5.450 -1.7290  4.0667  0.5410
  671MOL0     H92535   2.009   8.551   5.527  0.2809  3.4594  2.1681
  671MOL0     H92536   1.848   8.570   5.584  0.3271  0.8356 -1.5833
  671MOL0     H92537   1.906   8.522   5.793 -0.5276 -1.6770  0.4587
  671MOL0     H92538   2.062   8.436   5.758  3.9553  1.0039 -1.6461
  671MOL0     H92539   2.006   8.733   5.685  0.9685  0.7344  0.7696
  671MOL0     H92540   2.162   8.647   5.720  0.8452 -1.0388  0.4874
  671MOL0     H92541   2.076   8.610   5.956 -3.4856  0.2930  3.3626
  671MOL0     H92542   2.126   8.771   5.924  0.5543  0.1517 -0.1553
  671MOL0     H92543   1.904   8.722   6.034  4.3108 -3.9802 -0.3864
  671MOL0     H92544   1.824   8.695   5.882  0.2133 -1.3036  0.1308
  671MOL0     H92545   1.919   8.936   5.811  0.0558 -0.0734  0.0019
  671MOL0     H92546   1.781   8.923   5.905 -0.1020  0.8973  1.4276
  671MOL0     H92547   2.166   8.981   5.948 -1.4060 -1.9140  0.1505
  671MOL0     H92548   2.265   9.043   6.196 -2.3443  0.0951  2.6927
  671MOL0     H92549   2.210   9.190   6.277 -1.7211 -0.4582  0.3147
  671MOL0     H92550   2.334   9.156   5.998 -0.2050  0.4789 -0.2370
  671MOL0     H92551   2.244   9.300   6.041 -0.6373 -0.0282  1.4242
  671MOL0     H92552   2.499   9.315   6.075 -1.2554 -0.1275 -0.0719
  671MOL0     H92553   2.406   9.351   6.223  2.4564  0.4055  1.3270
  671MOL0     H92554   2.442   9.139   6.320  0.7637  0.0457  0.5387
  671MOL0     H92555   2.496   9.059   6.176  0.1092 -0.9971  1.9145
  671MOL0     H92556   2.751   9.401   6.143 -1.2946 -0.5008 -0.7022
  671MOL0     H92557   2.838   9.629   6.147  1.2922  1.7920 -0.4579
  671MOL0     H92558   2.907   9.666   6.301 -1.0749 -0.1012  1.6305
  671MOL0     H92559   2.746   9.729   6.266  2.2495  1.6117  1.1793
  671MOL0     H92560   2.761   9.588   6.940  1.3041  0.7486 -0.8462
  671MOL0     H92561   2.764   9.744   7.115 -0.2434  0.2329  0.3518
  671MOL0     H92562   2.730  10.175   7.025  4.5924 -0.8092  3.8806
  671MOL0     H92563   2.568  10.118   7.060  0.6747 -1.7482 -2.9032
  671MOL0     H92564   2.618  10.127   7.301  1.6635 -0.9078 -0.0675
  671MOL0     H92565   2.779  10.178   7.277 -0.2761  0.2992  1.3632
  671MOL0     H92566   2.533  10.338   7.195  0.2371 -2.3665 -1.0628
  671MOL0     H92567   2.683  10.375   7.129 -0.7576  3.9859  2.4464
  671MOL0     H92568   2.783  10.424   7.342  0.2500  1.1808 -1.4607
  671MOL0     H92569   2.637  10.378   7.433 -0.6074  0.6516  0.1341
  671MOL0     H92570   2.672  10.589   7.223  3.3523  0.0517  0.7537
  671MOL0     H92571   2.508  10.534   7.304  0.1448  0.3784  2.9139
  671MOL0     H92572   2.612  10.624   7.511  2.3627 -0.5117  1.2898
  671MOL0     H92573   2.589  10.751   7.385 -0.0917  1.2013  1.4491
  671MOL0     H92574   2.832  10.741   7.334  0.4793  2.0693  0.2251
  671MOL0     H92575   2.857  10.597   7.432 -1.5485 -1.0316 -1.5593
  671MOL0     H92576   2.754  10.861   7.533 -3.3089 -2.5809  0.1112
  671MOL0     H92577   2.929  10.812   7.538  0.5609 -0.6927 -0.4588
  671MOL0     H92578   2.680  10.059   6.862  0.6568  0.6158  3.7419
  671MOL0     H92579   2.658   9.906   6.662  3.2288 -2.7912 -2.2945
  671MOL0     H92580   2.640   9.424   6.619 -1.1607  0.9994 -0.9241
  671MOL0     H92581   2.596   9.214   6.492  1.9084 -0.0496  0.5656
  671MOL0     H92582   1.623   8.570   5.794  0.1886  0.9228  1.9102
  671MOL0     H92583   1.455   8.559   5.980  3.2520  1.5315  1.9146
  671MOL0     H92584   1.111   8.281   6.157  0.5646  1.9739 -3.3635
  671MOL0     H92585   0.880   8.342   6.248  0.5804 -1.5741 -1.7395
  671MOL0     H92586   0.689   8.440   6.309 -0.1672 -2.5295  0.7189
  671MOL0     H92587   0.767   8.373   6.453 -0.4937  1.7548  5.3736
  671MOL0     H92588   0.603   8.464   6.591  2.0297  2.7141  1.1455
  671MOL0     H92589   0.510   8.462   6.435 -1.4803  0.7443  0.0324
  671MOL0     H92590   0.591   8.700   6.393 -1.4305 -0.1603 -0.7332
  671MOL0     H92591   0.478   8.673   6.506 -0.8646  1.9132 -2.3443
  671MOL0     H92592   0.764   8.725   6.579  1.5267 -0.1058  3.2044
  671MOL0     H92593   0.629   8.698   6.695 -0.4214 -0.4449 -1.0022
  671MOL0     H92594   0.550   9.092   6.555  3.1861  2.1604 -1.8072
  671MOL0     H92595   1.056   8.697   6.407 -1.7425  0.3343  0.1230
  671MOL0     H92596   1.339   8.701   6.245 -1.4806  0.3294 -0.2053
  671MOL0     H92597   1.273   8.748   6.392 -0.0027  1.8140 -2.1757
  671MOL0     H92598   1.383   8.611   6.401 -0.5800 -3.3551 -2.4858
  672MOL0     O92599   3.346   2.452   4.843 -0.1748 -0.6135  0.4720
  672MOL0     C92600   3.251   2.482   4.770  0.7860 -0.6041 -0.2252
  672MOL0     O92601   3.234   2.600   4.703  0.0408  0.5692 -0.0167
  672MOL0     C92602   3.307   2.710   4.757  0.8260 -0.0589 -1.0742
  672MOL0     C92603   3.428   2.752   4.697 -0.0128 -0.2255 -0.8813
  672MOL0     C92604   3.512   2.846   4.767  0.3672  0.1691 -0.8271
  672MOL0     C92605   3.462   2.910   4.881  0.2242  0.2106  0.2735
  672MOL0     O92606   3.537   3.013   4.945  0.6877  0.4508 -0.6376
  672MOL0     C92607   3.461   3.114   5.023 -0.0122 -0.0472 -0.6544
  672MOL0     C92608   3.562   3.222   5.054 -0.1717 -0.1343  0.5387
  672MOL0     C92609   3.664   3.182   5.161 -1.0696  0.7317  0.5377
  672MOL0     C92610   3.783   3.276   5.164  0.0140 -0.2104  0.3830
  672MOL0     C92611   3.872   3.270   5.299  0.3828 -0.3519 -0.4316
  672MOL0     C92612   3.795   3.343   5.418 -0.5522 -0.1206 -0.1704
  672MOL0     C92613   3.885   3.343   5.548 -0.5181  0.3305 -0.0161
  672MOL0     C92614   3.810   3.399   5.672  0.2388 -0.3723 -0.3161
  672MOL0     N92615   3.775   3.553   5.659 -0.1755 -0.8953 -0.0383
  672MOL0     C92616   3.854   3.663   5.678  0.5167 -0.3236 -0.0443
  672MOL0     C92617   3.767   3.766   5.691  0.8696  0.5503 -0.8403
  672MOL0     C92618   3.812   3.903   5.732 -0.2457  1.1993 -0.9775
  672MOL0     C92619   3.763   3.994   5.616 -0.8970 -0.1480  0.7020
  672MOL0     C92620   3.620   4.047   5.630 -0.1162  0.7546  0.5489
  672MOL0     C92621   3.526   3.971   5.545 -0.4078 -0.0376 -0.4300
  672MOL0     O92622   3.418   4.052   5.514  0.6306 -0.2683 -0.1098
  672MOL0     C92623   3.313   3.984   5.455  0.3835 -0.9723  0.7231
  672MOL0     C92624   3.219   4.074   5.419 -0.0260 -0.0951  0.2976
  672MOL0     C92625   3.096   4.036   5.352  0.3521  0.2248 -0.1981
  672MOL0     C92626   2.985   4.124   5.311  0.3751 -1.5410 -0.9024
  672MOL0     C92627   3.086   3.898   5.326  0.4962  0.1322  0.0742
  672MOL0     C92628   2.970   3.838   5.242 -1.4428  0.2849 -0.6998
  672MOL0     O92629   2.837   3.856   5.284 -0.1557  0.6989  0.0503
  672MOL0     C92630   2.734   3.782   5.230  0.4859  0.4670  0.3226
  672MOL0     C92631   2.610   3.835   5.250 -0.5259  0.7926  0.3286
  672MOL0     C92632   2.499   3.777   5.204 -0.1815  0.4932 -0.8448
  672MOL0     C92633   2.502   3.655   5.141 -0.2516 -1.1339  0.5636
  672MOL0     O92634   2.392   3.588   5.103  0.0569 -0.0300 -0.0868
  672MOL0     C92635   2.263   3.643   5.086  0.2080 -0.1460 -0.0867
  672MOL0     C92636   2.253   3.705   4.944  0.1561  0.0025 -0.4555
  672MOL0     C92637   2.126   3.659   4.885  0.6143  0.4163  0.4052
  672MOL0     C92638   2.084   3.746   4.770  0.5776  0.1226 -0.1592
  672MOL0     C92639   1.934   3.715   4.747  0.7227  0.0066  0.4209
  672MOL0     C92640   1.870   3.822   4.647  1.6008 -1.2320  0.4819
  672MOL0     C92641   1.715   3.804   4.669 -0.1449  1.1042  0.9572
  672MOL0     C92642   1.668   3.652   4.644  0.2426 -0.3991 -0.1869
  672MOL0    Cl92643   1.656   3.599   4.481 -0.3689  0.1061  0.3196
  672MOL0     C92644   2.624   3.585   5.128 -0.1861 -0.5278 -0.0404
  672MOL0     C92645   2.748   3.646   5.166  0.2463 -0.5037  0.6914
  672MOL0     O92646   3.006   3.760   5.153  1.1733 -0.6381  0.1440
  672MOL0     C92647   3.178   3.808   5.376  0.0052  0.5361 -0.5415
  672MOL0     C92648   3.292   3.847   5.436  0.8616  0.0645  0.1202
  672MOL0     N92649   3.638   3.718   5.686  0.4311 -0.5402 -0.2900
  672MOL0     N92650   3.646   3.597   5.664  0.1122  0.4501  1.3745
  672MOL0     C92651   3.337   2.869   4.937  0.7931 -0.2136 -0.1885
  672MOL0     C92652   3.263   2.777   4.873  0.6954  0.6200 -0.1445
  672MOL0     C92653   3.156   2.374   4.730  0.3410 -0.2167 -0.4148
  672MOL0     C92654   3.132   2.355   4.593 -0.6098 -0.7954  0.1349
  672MOL0     C92655   3.063   2.248   4.553  0.2172 -0.3892 -0.4115
  672MOL0     C92656   2.997   2.165   4.643  0.7642 -0.1960  0.4440
  672MOL0     O92657   2.944   2.036   4.617  0.1184 -0.3769 -0.8150
  672MOL0     C92658   2.963   1.980   4.489 -0.3683  0.1536  1.1080
  672MOL0     C92659   2.890   1.844   4.477 -0.5917 -0.0280  0.4644
  672MOL0     C92660   2.736   1.852   4.464  0.9910  0.1924 -0.1286
  672MOL0     C92661   2.661   1.723   4.462  0.2197  0.5894  0.0264
  672MOL0     C92662   2.514   1.739   4.486 -0.2823  0.6799  0.0650
  672MOL0     C92663   2.400   1.757   4.517  0.2294  0.1009 -0.9673
  672MOL0     C92664   2.998   2.196   4.777 -0.0884  0.0416 -0.1297
  672MOL0     C92665   3.084   2.295   4.820 -0.3229  0.1798 -1.0059
  672MOL0     C92666   3.100   2.310   4.977 -0.1308 -0.6501  0.2138
  672MOL0     H92667   3.453   2.699   4.605  2.1644 -1.8232  0.5418
  672MOL0     H92668   3.604   2.874   4.717  0.7793  1.0470  0.3905
  672MOL0     H92669   3.418   3.078   5.117 -1.0980  1.1908 -0.6382
  672MOL0     H92670   3.377   3.149   4.962 -0.3172  0.0520 -0.1834
  672MOL0     H92671   3.618   3.245   4.963  0.9627  0.5040  1.3666
  672MOL0     H92672   3.507   3.305   5.100  0.4294 -1.0111  2.9900
  672MOL0     H92673   3.609   3.173   5.256  2.3446  0.1055  2.6180
  672MOL0     H92674   3.714   3.086   5.147 -1.3216  0.8444 -1.3421
  672MOL0     H92675   3.853   3.241   5.089 -0.3386 -2.2421  0.9560
  672MOL0     H92676   3.735   3.374   5.150  0.9814  0.1885 -0.2180
  672MOL0     H92677   3.971   3.317   5.288  0.9061 -1.8936 -3.0656
  672MOL0     H92678   3.904   3.169   5.324  3.0555  1.1076  2.9891
  672MOL0     H92679   3.747   3.434   5.378  0.2005 -0.8848 -3.0753
  672MOL0     H92680   3.707   3.280   5.432 -0.9898  0.2358 -1.1729
  672MOL0     H92681   3.972   3.406   5.528  0.0173 -1.4344 -4.3361
  672MOL0     H92682   3.920   3.243   5.574  2.3184  1.1886 -0.1998
  672MOL0     H92683   3.728   3.327   5.680  0.7087 -1.2148 -2.3959
  672MOL0     H92684   3.875   3.386   5.760  0.7211  3.4454  0.0702
  672MOL0     H92685   3.963   3.658   5.681  0.4848 -0.8341  0.5318
  672MOL0     H92686   3.921   3.912   5.744 -0.2923  0.9079 -0.2630
  672MOL0     H92687   3.785   3.939   5.831  0.9841  0.5635 -0.3799
  672MOL0     H92688   3.832   4.079   5.625 -0.2961  0.1117 -4.1359
  672MOL0     H92689   3.779   3.973   5.510 -0.7282  0.0640  0.6852
  672MOL0     H92690   3.582   4.043   5.732 -2.8759 -1.3633 -0.4286
  672MOL0     H92691   3.621   4.154   5.604  0.5628  0.3780 -1.1104
  672MOL0     H92692   3.578   3.936   5.456  2.4607 -0.1214  1.1641
  672MOL0     H92693   3.499   3.880   5.601  2.1808 -1.6736 -1.6594
  672MOL0     H92694   3.231   4.180   5.443  3.0324 -0.0988 -0.8120
  672MOL0     H92695   2.906   4.124   5.386  1.0529 -2.0466 -0.1799
  672MOL0     H92696   2.941   4.091   5.216  0.9358  0.6697 -2.0208
  672MOL0     H92697   3.027   4.225   5.301 -2.8839  0.1864  1.2320
  672MOL0     H92698   2.610   3.930   5.303 -0.8679  0.9850 -0.0199
  672MOL0     H92699   2.406   3.820   5.239  0.5223  0.8606  0.6547
  672MOL0     H92700   2.186   3.566   5.101  1.3417 -1.9054 -2.6196
  672MOL0     H92701   2.247   3.719   5.163  3.4243  0.5982 -0.0235
  672MOL0     H92702   2.266   3.813   4.956 -0.5811  0.0173  0.3037
  672MOL0     H92703   2.334   3.673   4.878  0.7127 -1.8708  1.0592
  672MOL0     H92704   2.041   3.654   4.954  1.3759  2.2843  1.5577
  672MOL0     H92705   2.138   3.559   4.842 -1.6471  0.6514 -0.9496
  672MOL0     H92706   2.141   3.728   4.678 -0.6441 -2.0145 -0.5521
  672MOL0     H92707   2.093   3.851   4.798 -1.2045  0.1818  0.3110
  672MOL0     H92708   1.919   3.614   4.708 -0.8184  0.6627 -0.8188
  672MOL0     H92709   1.874   3.731   4.838 -1.1010  1.1857 -0.9169
  672MOL0     H92710   1.898   3.787   4.546 -1.4666  3.4260 -2.3492
  672MOL0     H92711   1.891   3.927   4.667 -0.9718 -0.3153 -1.1262
  672MOL0     H92712   1.665   3.865   4.594  1.6131  0.0764 -1.1592
  672MOL0     H92713   1.689   3.836   4.771  0.9648  0.2592  1.5308
  672MOL0     H92714   1.570   3.655   4.691  0.6214  0.8220  0.5694
  672MOL0     H92715   1.729   3.583   4.705 -0.0348 -0.0536  0.4949
  672MOL0     H92716   2.614   3.497   5.066  1.4439 -1.4540  0.9567
  672MOL0     H92717   2.842   3.593   5.152 -0.3387 -1.1013 -1.3972
  672MOL0     H92718   3.163   3.701   5.369  0.6638  0.1274  2.7691
  672MOL0     H92719   3.362   3.771   5.469 -1.2862 -0.7889  3.1225
  672MOL0     H92720   3.302   2.920   5.027  0.8592  0.8484 -0.7510
  672MOL0     H92721   3.166   2.750   4.913 -0.2902  0.5431 -2.4499
  672MOL0     H92722   3.184   2.414   4.519  1.6666 -1.3912  1.1608
  672MOL0     H92723   3.050   2.233   4.446  0.9587  2.5735 -1.0176
  672MOL0     H92724   2.929   2.051   4.413 -1.9912 -1.1645  0.5435
  672MOL0     H92725   3.070   1.968   4.471 -0.4185 -0.4761  1.2171
  672MOL0     H92726   2.930   1.781   4.557  1.1298 -2.0725 -1.8361
  672MOL0     H92727   2.932   1.788   4.393 -0.4435 -0.0128  0.5258
  672MOL0     H92728   2.698   1.907   4.551 -0.3937  1.4959 -1.5071
  672MOL0     H92729   2.703   1.913   4.379  1.5593 -0.2664 -0.6913
  672MOL0     H92730   2.697   1.667   4.549  1.0914  0.7599 -0.2205
  672MOL0     H92731   2.673   1.675   4.365 -2.9550  3.0915 -1.8175
  672MOL0     H92732   2.302   1.770   4.557 -0.7921 -0.3413 -3.1580
  672MOL0     H92733   2.940   2.137   4.848  0.3984  1.4539  1.5021
  672MOL0     H92734   3.086   2.412   5.013 -0.3718 -0.8630  0.7293
  672MOL0     H92735   3.015   2.267   5.031 -3.4930  3.5093 -1.1692
  672MOL0     H92736   3.202   2.276   4.999  0.0073 -1.1323 -1.0743
  673MOL0     O92737   3.295  10.813   2.687  0.1589 -1.1058  0.2255
  673MOL0     C92738   3.232  10.873   2.599 -0.0790  0.2412 -0.1515
  673MOL0     O92739   3.266  10.863   2.471  0.0583 -0.0989  0.4213
  673MOL0     C92740   3.392  10.813   2.431  0.2427 -0.1353 -0.5674
  673MOL0     C92741   3.411  10.694   2.359  0.2179 -0.8041 -0.0143
  673MOL0     C92742   3.536  10.656   2.327 -0.2558  0.4886  0.3616
  673MOL0     C92743   3.653  10.733   2.345 -0.2123 -0.1176 -0.5174
  673MOL0     O92744   3.766  10.685   2.287  0.0952  0.7596  0.0055
  673MOL0     C92745   3.901  10.711   2.335 -0.3520 -0.2754 -0.6494
  673MOL0     C92746   4.002  10.627   2.260  0.6677 -1.4894  1.1507
  673MOL0     C92747   4.153  10.658   2.296  0.2556  0.2377 -0.3887
  673MOL0     C92748   4.237  10.532   2.250  0.2814 -0.3982  0.4440
  673MOL0     C92749   4.385  10.546   2.292 -0.7712  0.4396 -0.1517
  673MOL0     C92750   4.468  10.424   2.269 -0.1342 -0.4781  0.3261
  673MOL0     C92751   4.498  10.406   2.123  0.2566  0.1872 -0.2721
  673MOL0     C92752   4.621  10.328   2.097 -0.7933 -0.3635 -0.6896
  673MOL0     N92753   4.743  10.406   2.123  0.2074 -0.1761 -0.3374
  673MOL0     C92754   4.860  10.342   2.132 -0.7633 -0.1600 -0.0593
  673MOL0     C92755   4.949  10.435   2.162 -0.0226  0.6075  0.4237
  673MOL0     C92756   5.089  10.409   2.185  0.5930 -0.3794  0.0527
  673MOL0     C92757   5.168  10.417   2.060  0.6250  0.1788 -0.3813
  673MOL0     C92758   5.312  10.463   2.091 -0.3171 -0.3254 -0.3045
  673MOL0     C92759   5.409  10.377   2.174 -0.0590 -0.8278 -0.8775
  673MOL0     O92760   5.397  10.240   2.130 -0.8851  0.1473  0.1474
  673MOL0     C92761   5.485  10.171   2.210 -0.1285  0.5710  0.1153
  673MOL0     C92762   5.552  10.067   2.130  0.0104 -0.2534 -0.5871
  673MOL0     C92763   5.662   9.988   2.182  0.3604 -0.5355 -0.0120
  673MOL0     C92764   5.717   9.892   2.077 -0.2953 -0.1882 -1.0405
  673MOL0     C92765   5.706  10.010   2.319 -0.9776 -0.0906 -0.0993
  673MOL0     C92766   5.809   9.939   2.398 -0.3515 -1.0757 -0.5496
  673MOL0     O92767   5.872   9.839   2.331 -0.1359 -0.0374  0.2579
  673MOL0     C92768   5.928   9.726   2.394  0.9814 -0.3003 -0.1469
  673MOL0     C92769   5.922   9.690   2.535 -0.1030  0.4826  0.3924
  673MOL0     C92770   5.975   9.568   2.578 -0.5348  0.3631 -0.3653
  673MOL0     C92771   6.051   9.487   2.490  0.7656  0.1860  0.3556
  673MOL0     O92772   6.115   9.377   2.524  0.1668 -0.3226 -0.1235
  673MOL0     C92773   6.071   9.291   2.625 -0.2483 -0.3247 -0.1693
  673MOL0     C92774   5.984   9.189   2.562 -0.1139  0.3053  0.0722
  673MOL0     C92775   5.876   9.125   2.654 -0.0313  0.0061  0.6311
  673MOL0     C92776   5.776   9.225   2.723 -1.2407  0.0061 -0.5115
  673MOL0     C92777   5.677   9.288   2.624 -0.3314 -0.5300 -0.3776
  673MOL0     C92778   5.584   9.393   2.687  0.6021  0.9305 -0.3316
  673MOL0     C92779   5.483   9.333   2.793 -0.2528  1.3853 -0.3836
  673MOL0     C92780   5.359   9.405   2.838 -0.3455 -0.0090  0.2370
  673MOL0    Cl92781   5.266   9.303   2.955 -0.3521 -0.3450  0.0566
  673MOL0     C92782   6.054   9.520   2.358  0.5794 -0.4739  0.5003
  673MOL0     C92783   5.994   9.637   2.305  0.1045 -0.3628  0.5241
  673MOL0     O92784   5.827   9.960   2.519  0.3822 -0.2747 -0.5070
  673MOL0     C92785   5.634  10.105   2.398 -0.4671 -0.2735 -0.0803
  673MOL0     C92786   5.524  10.176   2.350  0.9764  0.3402  0.3403
  673MOL0     N92787   4.882  10.555   2.168 -0.3910  0.1899 -0.9957
  673MOL0     N92788   4.763  10.543   2.140  0.4201  0.8127 -0.2368
  673MOL0     C92789   3.633  10.849   2.419 -0.3943  0.4523  0.1886
  673MOL0     C92790   3.511  10.886   2.466  0.7164  1.7707  0.1416
  673MOL0     C92791   3.113  10.955   2.629 -0.3926  0.5328 -0.9640
  673MOL0     C92792   3.034  11.002   2.529  0.0295  0.6720  0.4243
  673MOL0     C92793   2.924  11.074   2.544  0.8140 -0.4643  0.2247
  673MOL0     C92794   2.892  11.111   2.669 -0.2405  0.3541 -0.2540
  673MOL0     O92795   2.769  11.174   2.680 -0.1661 -0.1786 -0.5592
  673MOL0     C92796   2.727  11.246   2.800 -0.5559  0.0562  0.2626
  673MOL0     C92797   2.580  11.217   2.817 -0.8740 -0.3025 -0.7372
  673MOL0     C92798   2.519  11.290   2.942  0.3082  0.4683  1.2067
  673MOL0     C92799   2.486  11.436   2.914  0.3994 -0.0788  0.8901
  673MOL0     C92800   2.601  11.521   2.939 -0.7344 -0.0555  1.2313
  673MOL0     C92801   2.714  11.573   2.965  0.7352  0.0470 -0.1478
  673MOL0     C92802   2.964  11.076   2.779 -1.1013  0.2148 -0.9624
  673MOL0     C92803   3.080  10.996   2.763  0.0972  0.0008  0.4314
  673MOL0     C92804   3.144  10.941   2.900  0.4049 -0.3301 -0.2586
  673MOL0     H92805   3.330  10.625   2.339 -1.1358  0.9953 -1.0921
  673MOL0     H92806   3.547  10.559   2.279  1.6830  0.9105 -0.1585
  673MOL0     H92807   3.909  10.685   2.441 -1.9858  1.0089 -0.1624
  673MOL0     H92808   3.921  10.817   2.317 -4.3513  0.6293 -0.6734
  673MOL0     H92809   3.964  10.524   2.265 -1.6183 -0.7760 -0.0605
  673MOL0     H92810   3.987  10.651   2.154 -1.0721 -1.3972  1.3898
  673MOL0     H92811   4.199  10.746   2.251 -0.6887  0.4073 -1.0627
  673MOL0     H92812   4.161  10.660   2.405 -4.1422 -0.2326  0.1561
  673MOL0     H92813   4.196  10.434   2.279  1.3529 -0.2805  2.5555
  673MOL0     H92814   4.230  10.519   2.141 -1.1379 -0.6632  0.5497
  673MOL0     H92815   4.393  10.581   2.395  3.0141  1.5994 -0.6898
  673MOL0     H92816   4.424  10.624   2.226  1.5767  0.2883  0.9414
  673MOL0     H92817   4.565  10.431   2.319  1.2027 -2.1518 -1.8270
  673MOL0     H92818   4.414  10.346   2.324 -0.1368 -0.4822  0.3183
  673MOL0     H92819   4.521  10.498   2.067 -1.0340 -0.7388 -2.4680
  673MOL0     H92820   4.408  10.357   2.086 -0.7128  1.1714  0.7162
  673MOL0     H92821   4.624  10.236   2.156  1.8269 -0.7054 -1.2377
  673MOL0     H92822   4.625  10.298   1.992  3.2814 -0.2453 -0.7190
  673MOL0     H92823   4.860  10.234   2.124 -0.3479 -0.2670  1.1955
  673MOL0     H92824   5.098  10.308   2.225  1.4432 -0.2399  0.2196
  673MOL0     H92825   5.139  10.475   2.257  2.5160 -0.2821 -1.3023
  673MOL0     H92826   5.172  10.323   2.005  1.7696 -0.4489  0.7458
  673MOL0     H92827   5.117  10.495   2.002  1.2319  1.2676  0.4996
  673MOL0     H92828   5.362  10.484   1.996 -1.3073  0.1769 -0.7260
  673MOL0     H92829   5.307  10.559   2.144  0.4071 -0.8394  0.7307
  673MOL0     H92830   5.517  10.397   2.172  0.1180 -0.5376  3.4047
  673MOL0     H92831   5.373  10.397   2.275 -0.4663 -0.6134 -1.0612
  673MOL0     H92832   5.529  10.053   2.025 -0.2047 -2.1396 -0.3178
  673MOL0     H92833   5.825   9.897   2.095 -0.6360  0.2744  1.0653
  673MOL0     H92834   5.698   9.937   1.979 -0.0656  1.5422 -0.3366
  673MOL0     H92835   5.680   9.789   2.082  1.9113 -0.9524  1.1806
  673MOL0     H92836   5.892   9.750   2.621 -0.8271  1.0471 -0.2450
  673MOL0     H92837   5.963   9.535   2.681  0.5188  0.7034 -0.1272
  673MOL0     H92838   6.161   9.248   2.671  0.4617  0.3276 -0.9148
  673MOL0     H92839   6.029   9.339   2.714  1.9767  1.4265  0.0337
  673MOL0     H92840   5.930   9.243   2.484 -1.7183  1.6111  1.9813
  673MOL0     H92841   6.050   9.111   2.524  0.4884  1.0715 -0.4820
  673MOL0     H92842   5.929   9.074   2.735  2.9833 -2.0485 -2.3530
  673MOL0     H92843   5.822   9.047   2.600  1.6461  0.2693 -1.5626
  673MOL0     H92844   5.830   9.306   2.773 -0.2517 -0.2878 -1.0699
  673MOL0     H92845   5.719   9.171   2.799 -0.6027  2.7220  2.0803
  673MOL0     H92846   5.739   9.330   2.544 -0.0606 -2.6451 -1.3713
  673MOL0     H92847   5.630   9.202   2.575 -0.0260 -0.6612 -0.4437
  673MOL0     H92848   5.516   9.428   2.609 -0.5089  0.5189  0.4347
  673MOL0     H92849   5.647   9.468   2.736 -0.4033  0.9585  0.9726
  673MOL0     H92850   5.546   9.322   2.882 -1.2585 -0.0103  0.1920
  673MOL0     H92851   5.458   9.233   2.756  0.7848  1.8814 -2.6408
  673MOL0     H92852   5.296   9.418   2.750 -1.8493 -1.3502  1.0689
  673MOL0     H92853   5.382   9.504   2.879  0.3627 -1.0788  2.6222
  673MOL0     H92854   6.105   9.447   2.296  0.1450  1.0003 -1.7465
  673MOL0     H92855   6.006   9.649   2.198 -0.3612 -0.7788  0.4201
  673MOL0     H92856   5.647  10.114   2.506 -0.5545 -0.8804 -0.0183
  673MOL0     H92857   5.488  10.256   2.415  3.0059  1.0908  0.6273
  673MOL0     H92858   3.727  10.900   2.437  0.1663  0.2275 -1.9020
  673MOL0     H92859   3.496  10.965   2.539 -0.3929  1.2328  0.5249
  673MOL0     H92860   3.052  10.979   2.424  2.1709  1.2217  0.6320
  673MOL0     H92861   2.864  11.108   2.461  1.6035  1.6114  0.4337
  673MOL0     H92862   2.774  11.210   2.892  1.1882 -0.6752 -0.8700
  673MOL0     H92863   2.751  11.353   2.791  1.2277 -0.2456  0.9874
  673MOL0     H92864   2.574  11.109   2.834  0.6511  0.1687  4.6673
  673MOL0     H92865   2.543  11.257   2.722  3.9503  1.6195 -2.1279
  673MOL0     H92866   2.424  11.240   2.962  0.1517  0.0216 -0.4806
  673MOL0     H92867   2.589  11.287   3.026  1.9340  1.7736 -0.0393
  673MOL0     H92868   2.400  11.464   2.976  1.5066  0.3095  2.2927
  673MOL0     H92869   2.455  11.455   2.810 -0.4762 -2.4199  0.6543
  673MOL0     H92870   2.808  11.612   3.000 -0.2422  1.5068  0.9843
  673MOL0     H92871   2.933  11.084   2.883  1.6105 -1.0658  0.0530
  673MOL0     H92872   3.096  10.972   2.993 -0.1748 -1.9900  0.0283
  673MOL0     H92873   3.140  10.832   2.897  0.6854 -0.4066  1.3791
  673MOL0     H92874   3.251  10.961   2.910  0.1468  0.1590  1.8149
  674MOL0     O92875   8.596   2.805   1.218  0.3445  0.8048 -0.6735
  674MOL0     C92876   8.503   2.873   1.172 -0.1910  0.2086 -0.9700
  674MOL0     O92877   8.478   2.890   1.040 -0.4950  0.5823 -0.2004
  674MOL0     C92878   8.566   2.852   0.939 -0.4595 -0.1939  0.3213
  674MOL0     C92879   8.522   2.866   0.808 -0.1950 -0.2902 -0.0617
  674MOL0     C92880   8.610   2.848   0.702 -0.1913  0.9556 -0.6701
  674MOL0     C92881   8.740   2.798   0.717 -0.6029  0.1005 -0.3538
  674MOL0     O92882   8.817   2.776   0.604 -0.6982 -0.1556 -0.6040
  674MOL0     C92883   8.949   2.710   0.617  0.9439  0.6024 -0.6067
  674MOL0     C92884   9.014   2.691   0.486 -0.3389  0.6825 -0.1174
  674MOL0     C92885   8.971   2.562   0.407 -0.1455  0.5232  0.2072
  674MOL0     C92886   9.086   2.507   0.317  0.3477 -0.2141 -0.4197
  674MOL0     C92887   9.039   2.401   0.228  0.5584  0.5484  0.3057
  674MOL0     C92888   8.963   2.445   0.103  0.0232 -0.4114 -0.6997
  674MOL0     C92889   8.885   2.320   0.043 -0.6924 -0.7221 -0.4203
  674MOL0     C92890   8.791   2.379  -0.063  0.5911 -0.5435  0.0581
  674MOL0     N92891   8.858   2.418  -0.186 -0.4458 -0.6616  0.4722
  674MOL0     C92892   8.918   2.337  -0.282  0.1187  0.4606 -0.5685
  674MOL0     C92893   8.972   2.426  -0.373  0.0353  0.4157  0.0708
  674MOL0     C92894   9.041   2.366  -0.498  0.9157 -0.6805 -0.2548
  674MOL0     C92895   8.934   2.339  -0.612 -0.6045  0.4874 -0.1570
  674MOL0     C92896   9.003   2.254  -0.726  1.1403  0.3179 -0.8701
  674MOL0     C92897   8.892   2.211  -0.821 -0.1671  0.4288 -0.4369
  674MOL0     O92898   8.790   2.114  -0.768 -0.5599 -0.3250  0.1343
  674MOL0     C92899   8.660   2.141  -0.798 -0.7204  0.0162 -0.7540
  674MOL0     C92900   8.570   2.112  -0.704  0.7694 -0.4903  0.9964
  674MOL0     C92901   8.431   2.125  -0.730  0.4646  0.5635  1.0945
  674MOL0     C92902   8.333   2.079  -0.619  0.3519  0.5479  0.0738
  674MOL0     C92903   8.395   2.183  -0.857  0.2847 -0.2001 -0.2626
  674MOL0     C92904   8.253   2.214  -0.896  0.7049  0.4635  0.3449
  674MOL0     O92905   8.146   2.235  -0.811 -0.8534 -0.2699  0.4181
  674MOL0     C92906   8.022   2.244  -0.870 -0.7139  0.5145  0.0312
  674MOL0     C92907   7.949   2.360  -0.888  0.1652  0.8199 -0.4752
  674MOL0     C92908   7.826   2.365  -0.958 -0.1078 -0.3878 -0.1150
  674MOL0     C92909   7.765   2.249  -0.994  0.1505  1.0417 -0.1849
  674MOL0     O92910   7.634   2.261  -1.043 -0.7164 -0.4976  0.1116
  674MOL0     C92911   7.535   2.152  -1.042  0.6970  0.6892 -0.1385
  674MOL0     C92912   7.468   2.139  -1.171 -0.7242  0.7040  0.4286
  674MOL0     C92913   7.372   2.251  -1.210 -0.1073  0.8710  0.8930
  674MOL0     C92914   7.262   2.191  -1.300 -1.3509 -0.6268 -0.2599
  674MOL0     C92915   7.157   2.291  -1.352 -0.5072 -0.1157  0.4425
  674MOL0     C92916   7.055   2.209  -1.437 -0.0593 -0.8013 -0.4311
  674MOL0     C92917   7.122   2.126  -1.557  0.3852  0.2359 -0.3873
  674MOL0     C92918   7.016   2.071  -1.645 -0.2236 -0.4146  0.2541
  674MOL0    Cl92919   6.913   1.959  -1.555  0.2623  0.0989 -0.0574
  674MOL0     C92920   7.833   2.126  -0.976  0.0765  0.8046  0.1397
  674MOL0     C92921   7.955   2.123  -0.916 -0.3929  0.6236 -0.9720
  674MOL0     O92922   8.227   2.195  -1.017 -0.3399 -0.6909 -0.8040
  674MOL0     C92923   8.498   2.230  -0.944  1.2392 -0.0718 -1.2621
  674MOL0     C92924   8.630   2.205  -0.920  0.2113  0.5891 -0.2525
  674MOL0     N92925   8.938   2.556  -0.332  0.3980 -0.1344  0.1403
  674MOL0     N92926   8.858   2.546  -0.228 -0.1021 -0.0910 -0.5898
  674MOL0     C92927   8.780   2.782   0.851 -0.4175 -0.1472 -0.2087
  674MOL0     C92928   8.702   2.810   0.963  0.0740  0.7283 -0.7734
  674MOL0     C92929   8.423   2.956   1.267 -0.6713  0.4452 -0.1095
  674MOL0     C92930   8.286   2.964   1.239  1.1739  0.1691  0.1510
  674MOL0     C92931   8.195   3.047   1.314 -0.2208  0.5292 -0.0343
  674MOL0     C92932   8.249   3.116   1.426  0.6741  0.0404  0.2313
  674MOL0     O92933   8.169   3.203   1.492  0.3760 -0.2593 -0.9373
  674MOL0     C92934   8.210   3.241   1.629  0.8591 -0.9045  0.3736
  674MOL0     C92935   8.077   3.276   1.695 -0.9119 -0.4769  0.2978
  674MOL0     C92936   8.008   3.127   1.735  0.9608 -0.7231  0.4251
  674MOL0     C92937   7.913   3.065   1.619  0.4160 -0.0289 -0.1761
  674MOL0     C92938   7.819   2.959   1.674 -0.7127  0.3868 -0.6848
  674MOL0     C92939   7.756   2.861   1.714  0.7118  0.0795  0.4094
  674MOL0     C92940   8.385   3.100   1.458  0.4981  0.0909 -0.1696
  674MOL0     C92941   8.470   3.028   1.382  0.6607 -0.2616 -0.2515
  674MOL0     C92942   8.611   3.026   1.432 -0.8255 -0.1429  0.0874
  674MOL0     H92943   8.418   2.887   0.782 -0.9696  0.6656  3.3203
  674MOL0     H92944   8.582   2.858   0.598  0.5102  1.1747 -0.8430
  674MOL0     H92945   8.942   2.611   0.663 -0.5794 -0.1084 -2.2489
  674MOL0     H92946   9.007   2.778   0.681 -0.9031  0.8607  0.8823
  674MOL0     H92947   8.999   2.788   0.438  0.4394  1.6388  1.4763
  674MOL0     H92948   9.120   2.673   0.509 -0.4917 -1.7246 -1.0060
  674MOL0     H92949   8.937   2.489   0.482  1.6375  1.1332  1.6693
  674MOL0     H92950   8.884   2.584   0.344 -1.1953  1.1196  1.8090
  674MOL0     H92951   9.126   2.594   0.264 -1.0215  1.1614  0.7464
  674MOL0     H92952   9.162   2.471   0.387  2.2728  1.9334 -1.2591
  674MOL0     H92953   8.982   2.330   0.289  2.4864  1.2959  3.1132
  674MOL0     H92954   9.124   2.338   0.197  0.2796 -2.0411  4.0749
  674MOL0     H92955   8.893   2.525   0.128 -1.7818 -1.5657 -1.8403
  674MOL0     H92956   9.029   2.485   0.026  0.4226 -1.2944 -0.8282
  674MOL0     H92957   8.828   2.276   0.126 -0.8971  0.1041 -0.1103
  674MOL0     H92958   8.957   2.250   0.001  0.3732  0.6916 -1.0214
  674MOL0     H92959   8.726   2.297  -0.098 -1.2669  2.7583 -5.5451
  674MOL0     H92960   8.719   2.450  -0.021  0.9657 -1.6001  2.6507
  674MOL0     H92961   8.928   2.231  -0.301  2.8736  1.0504 -3.1819
  674MOL0     H92962   9.106   2.279  -0.482  0.1021 -1.0831  1.0122
  674MOL0     H92963   9.111   2.448  -0.518  1.1151  0.0261  2.8989
  674MOL0     H92964   8.844   2.286  -0.581 -0.1392 -0.7068 -0.7729
  674MOL0     H92965   8.907   2.431  -0.664 -5.1395 -1.8382 -2.5223
  674MOL0     H92966   9.091   2.306  -0.765  2.6096 -1.2532  0.2025
  674MOL0     H92967   9.038   2.159  -0.683 -0.4825 -0.7764 -1.8958
  674MOL0     H92968   8.841   2.306  -0.841  0.3572  0.6992 -0.5004
  674MOL0     H92969   8.920   2.174  -0.920 -0.7671  1.2386 -0.9175
  674MOL0     H92970   8.594   2.069  -0.608  0.0346 -0.1587  1.3364
  674MOL0     H92971   8.293   2.164  -0.563  1.2966  0.2512  1.2435
  674MOL0     H92972   8.380   2.016  -0.542  2.1406 -0.7709 -1.9668
  674MOL0     H92973   8.253   2.019  -0.664  1.7468 -0.5971 -0.9824
  674MOL0     H92974   7.985   2.459  -0.860 -1.3379  1.2180  0.1259
  674MOL0     H92975   7.781   2.463  -0.968 -2.3604 -1.5156 -2.1160
  674MOL0     H92976   7.578   2.056  -1.013  0.2166  0.9523  1.5756
  674MOL0     H92977   7.454   2.176  -0.972 -0.3238 -0.5092 -0.8702
  674MOL0     H92978   7.540   2.123  -1.252 -1.0426  0.3688  0.2083
  674MOL0     H92979   7.412   2.045  -1.170 -0.5380  0.5396 -1.3414
  674MOL0     H92980   7.421   2.319  -1.279  2.0052 -1.9579 -0.6004
  674MOL0     H92981   7.332   2.307  -1.125  1.7239  0.4604  2.0682
  674MOL0     H92982   7.206   2.120  -1.239 -0.0575 -0.4954  1.1324
  674MOL0     H92983   7.310   2.142  -1.385 -1.5407  0.8925 -1.2987
  674MOL0     H92984   7.110   2.339  -1.266 -2.5099 -2.0808  0.5497
  674MOL0     H92985   7.210   2.365  -1.411  0.6368 -0.9156  0.4341
  674MOL0     H92986   6.986   2.284  -1.476  1.4746  1.5844  1.1875
  674MOL0     H92987   7.009   2.132  -1.374  1.0495 -1.5592 -0.5225
  674MOL0     H92988   7.176   2.046  -1.505 -2.6756 -0.3804  2.2366
  674MOL0     H92989   7.190   2.185  -1.619  1.9580 -0.4527  0.6122
  674MOL0     H92990   7.063   2.029  -1.735  0.2436  1.6766 -0.5395
  674MOL0     H92991   6.959   2.159  -1.679 -1.2095 -0.3102  2.0896
  674MOL0     H92992   7.786   2.033  -1.005 -1.4863  1.5113  0.2539
  674MOL0     H92993   8.012   2.031  -0.900  3.1106  2.4917 -1.7706
  674MOL0     H92994   8.461   2.280  -1.033 -4.7498 -0.5472  0.4867
  674MOL0     H92995   8.698   2.225  -1.002  1.5562 -0.4919  0.5541
  674MOL0     H92996   8.883   2.764   0.878 -0.5276 -0.2324  0.1551
  674MOL0     H92997   8.752   2.790   1.057 -0.3118 -0.7625 -0.8640
  674MOL0     H92998   8.238   2.914   1.155 -0.4141  0.1787  1.0138
  674MOL0     H92999   8.093   3.062   1.282  0.0740 -1.3846 -2.1410
  674MOL0     H93000   8.257   3.158   1.683  3.0401  0.7395  1.1547
  674MOL0     H93001   8.276   3.328   1.635 -0.2155 -0.0750  0.4732
  674MOL0     H93002   8.017   3.324   1.618 -0.4453 -0.2509  0.0695
  674MOL0     H93003   8.088   3.348   1.776 -2.4887  1.5387 -1.1881
  674MOL0     H93004   8.080   3.057   1.777 -0.1707 -3.3182 -1.6756
  674MOL0     H93005   7.947   3.159   1.820  0.4124 -0.6444  0.0084
  674MOL0     H93006   7.979   3.010   1.551 -0.1059 -1.9690  0.8122
  674MOL0     H93007   7.853   3.129   1.554 -0.7907 -1.7970 -0.8741
  674MOL0     H93008   7.701   2.773   1.738 -2.2002  1.9477  1.1404
  674MOL0     H93009   8.433   3.139   1.548 -1.1558 -1.6554  1.5641
  674MOL0     H93010   8.644   2.926   1.462  0.9349 -0.4004 -2.3462
  674MOL0     H93011   8.670   3.053   1.343 -1.7093  2.4941  0.2191
  674MOL0     H93012   8.639   3.093   1.514  1.5571 -2.4725  1.3147
  675MOL0     O93013   8.642   5.472   5.213  0.5676 -0.2822 -0.0801
  675MOL0     C93014   8.640   5.446   5.096 -0.1809 -1.2832  0.3482
  675MOL0     O93015   8.743   5.377   5.034  0.5715  0.1576  0.0304
  675MOL0     C93016   8.851   5.363   5.112 -0.8868 -0.1657 -0.2202
  675MOL0     C93017   8.950   5.455   5.138  0.4578  0.7380  0.1813
  675MOL0     C93018   9.041   5.434   5.239 -0.5311 -0.6158  0.8303
  675MOL0     C93019   9.046   5.319   5.311  0.1257  0.6391 -0.1897
  675MOL0     O93020   9.133   5.305   5.418 -0.5057  0.1227 -0.7935
  675MOL0     C93021   9.123   5.205   5.522 -0.7116 -0.1448 -0.5663
  675MOL0     C93022   9.016   5.242   5.631 -0.7000  0.3419 -0.0113
  675MOL0     C93023   9.041   5.373   5.699 -0.6237  0.1186 -0.6635
  675MOL0     C93024   8.970   5.493   5.628 -0.0957  0.4235  0.7465
  675MOL0     C93025   8.816   5.497   5.657 -1.0072 -0.0293  0.7093
  675MOL0     C93026   8.740   5.480   5.521  0.1839  0.7902 -0.9477
  675MOL0     C93027   8.594   5.462   5.548 -0.7150  1.1483 -0.4702
  675MOL0     C93028   8.532   5.568   5.635 -0.4016 -0.4841 -0.1543
  675MOL0     N93029   8.389   5.558   5.636 -1.4821 -0.3747 -0.3051
  675MOL0     C93030   8.309   5.477   5.704  0.5784 -0.2564 -0.6256
  675MOL0     C93031   8.187   5.509   5.664 -0.1346  0.0589  0.4926
  675MOL0     C93032   8.058   5.434   5.709 -0.2891  0.0003 -0.1756
  675MOL0     C93033   7.962   5.411   5.589 -0.4575 -0.2872 -0.9215
  675MOL0     C93034   7.820   5.351   5.622  0.0434  0.3991 -0.0691
  675MOL0     C93035   7.724   5.428   5.716 -0.8386 -0.8793  0.5243
  675MOL0     O93036   7.612   5.353   5.743 -0.0723  0.9641 -0.4107
  675MOL0     C93037   7.504   5.349   5.660  0.3454 -0.4312  0.0014
  675MOL0     C93038   7.485   5.432   5.548  0.0005 -0.0116 -0.4383
  675MOL0     C93039   7.365   5.415   5.478  0.1124  0.0969 -0.0133
  675MOL0     C93040   7.344   5.521   5.381  0.6995 -0.5737 -0.0288
  675MOL0     C93041   7.273   5.309   5.508 -0.2844 -0.7990 -0.5200
  675MOL0     C93042   7.154   5.290   5.432 -0.3235 -0.2983  0.3303
  675MOL0     O93043   7.093   5.169   5.445  0.4350  0.1748  0.1385
  675MOL0     C93044   6.960   5.161   5.404 -0.0580  0.3646 -1.4966
  675MOL0     C93045   6.922   5.080   5.303  0.5201 -0.0862  0.0579
  675MOL0     C93046   6.788   5.048   5.284 -0.1646  0.7708 -0.2720
  675MOL0     C93047   6.685   5.087   5.368 -0.2561 -0.2426 -0.2231
  675MOL0     O93048   6.550   5.057   5.350  0.4321 -0.2302 -0.6270
  675MOL0     C93049   6.517   5.007   5.221 -0.3394  0.0442  0.1971
  675MOL0     C93050   6.521   4.857   5.212 -0.5448  0.5278 -0.0169
  675MOL0     C93051   6.473   4.815   5.073  0.2870 -0.0810  0.5342
  675MOL0     C93052   6.496   4.663   5.033  0.4861  0.4401  0.5772
  675MOL0     C93053   6.392   4.566   5.109 -0.3642 -0.1255  0.3379
  675MOL0     C93054   6.248   4.590   5.056  0.0009  0.0383 -0.3757
  675MOL0     C93055   6.162   4.480   5.116 -0.4391 -1.4885 -0.1050
  675MOL0     C93056   6.024   4.480   5.049  0.1107 -0.7661  0.0465
  675MOL0    Cl93057   5.927   4.368   5.150 -0.1408 -0.0882 -0.0902
  675MOL0     C93058   6.724   5.172   5.473  0.0140  0.3887  0.0286
  675MOL0     C93059   6.865   5.198   5.500  0.0642  0.1230  0.8229
  675MOL0     O93060   7.095   5.387   5.390 -0.6633 -0.0890  0.1202
  675MOL0     C93061   7.299   5.223   5.614  0.4754 -0.9407 -0.4539
  675MOL0     C93062   7.417   5.239   5.681  0.1418 -0.2366  0.1123
  675MOL0     N93063   8.197   5.602   5.567  0.0837 -0.2098  0.6526
  675MOL0     N93064   8.314   5.638   5.549  0.6591 -0.4753 -0.5591
  675MOL0     C93065   8.950   5.222   5.275 -0.0335 -0.4336 -1.1321
  675MOL0     C93066   8.852   5.239   5.182  0.0019 -0.3697  0.5521
  675MOL0     C93067   8.519   5.472   5.010  0.6516 -0.0960  0.3822
  675MOL0     C93068   8.517   5.424   4.877  0.6460 -0.1656 -0.2179
  675MOL0     C93069   8.409   5.447   4.783  0.4929 -0.0444  1.2197
  675MOL0     C93070   8.297   5.524   4.830 -0.2145 -0.0993 -0.0398
  675MOL0     O93071   8.193   5.551   4.739 -0.6853  0.2850 -0.8408
  675MOL0     C93072   8.122   5.680   4.748 -0.4411  0.4907 -0.5695
  675MOL0     C93073   7.987   5.666   4.826  1.2073 -0.7537  0.1292
  675MOL0     C93074   7.913   5.803   4.844 -0.1056 -1.0506  0.8137
  675MOL0     C93075   7.771   5.787   4.896 -0.0794  0.0107  0.4030
  675MOL0     C93076   7.678   5.736   4.791 -0.0382  0.4535 -0.2876
  675MOL0     C93077   7.608   5.691   4.700  0.5401  0.3105  0.5557
  675MOL0     C93078   8.306   5.566   4.962 -0.0862 -0.0234  0.1756
  675MOL0     C93079   8.414   5.550   5.048 -0.3449 -0.2319 -0.1534
  675MOL0     C93080   8.423   5.635   5.167  0.4506  0.1501 -0.1737
  675MOL0     H93081   8.959   5.554   5.094  1.7109 -0.0237 -1.3141
  675MOL0     H93082   9.103   5.516   5.274 -0.3731  0.0277 -0.8645
  675MOL0     H93083   9.216   5.201   5.579 -0.2014  0.3891 -1.3302
  675MOL0     H93084   9.109   5.104   5.482 -0.7924  0.3639 -1.8904
  675MOL0     H93085   8.921   5.246   5.577 -0.3365  1.1703 -0.6004
  675MOL0     H93086   9.026   5.160   5.703 -0.8321  0.9803  0.7408
  675MOL0     H93087   9.019   5.364   5.806 -0.5283  4.1093 -0.1545
  675MOL0     H93088   9.150   5.386   5.698 -0.5108  0.3125  2.5244
  675MOL0     H93089   9.021   5.584   5.663  1.5414 -0.9868  2.2895
  675MOL0     H93090   8.985   5.487   5.520 -0.1920  0.1006  0.7504
  675MOL0     H93091   8.788   5.587   5.713  0.2679 -0.7287  2.5739
  675MOL0     H93092   8.796   5.413   5.724  0.2574  1.4413  3.0733
  675MOL0     H93093   8.761   5.560   5.450  2.6202 -0.3838 -1.6403
  675MOL0     H93094   8.771   5.387   5.473 -1.7165 -0.0689 -0.6254
  675MOL0     H93095   8.582   5.364   5.594  1.9688 -0.4444 -2.8561
  675MOL0     H93096   8.535   5.455   5.456 -0.5694  0.4945 -0.5192
  675MOL0     H93097   8.565   5.563   5.740 -2.0783  0.5545  0.4592
  675MOL0     H93098   8.582   5.653   5.588  0.3657 -0.0783  1.3129
  675MOL0     H93099   8.326   5.387   5.763 -0.1885 -0.8973 -1.3631
  675MOL0     H93100   8.011   5.499   5.783 -2.1071  0.4467 -1.6463
  675MOL0     H93101   8.091   5.339   5.754 -0.9194  0.2782  0.8981
  675MOL0     H93102   7.957   5.498   5.523 -2.9484 -2.0724 -3.3006
  675MOL0     H93103   8.018   5.336   5.532  2.3028  0.3737  0.7131
  675MOL0     H93104   7.763   5.338   5.530 -3.2436 -1.1283  2.0044
  675MOL0     H93105   7.833   5.251   5.664 -1.2415  0.8081  1.4069
  675MOL0     H93106   7.776   5.445   5.811 -1.1311  4.4869  0.0075
  675MOL0     H93107   7.715   5.529   5.677  2.0748 -0.9555 -0.5578
  675MOL0     H93108   7.553   5.511   5.520  2.8697 -1.3781  2.0630
  675MOL0     H93109   7.338   5.487   5.277  3.7171  1.8404 -1.1216
  675MOL0     H93110   7.422   5.598   5.382 -0.1226  0.3384 -1.7770
  675MOL0     H93111   7.254   5.578   5.407  0.4724 -1.8273  2.1892
  675MOL0     H93112   6.986   5.036   5.227 -0.2409 -0.1406 -0.5557
  675MOL0     H93113   6.777   4.978   5.201 -0.6208 -2.7465  2.5415
  675MOL0     H93114   6.417   5.041   5.194  0.1636  0.8057 -0.7662
  675MOL0     H93115   6.583   5.047   5.144  2.6739 -0.2437  2.4506
  675MOL0     H93116   6.624   4.833   5.239  0.1707  4.2108  1.0862
  675MOL0     H93117   6.460   4.814   5.293 -0.5277  0.2912 -0.1277
  675MOL0     H93118   6.527   4.869   4.995 -1.2168 -0.4779 -0.8498
  675MOL0     H93119   6.366   4.838   5.064 -0.4493 -2.9685  0.6106
  675MOL0     H93120   6.594   4.628   5.066  0.2382 -0.8734 -0.0209
  675MOL0     H93121   6.483   4.645   4.926 -1.0350  0.0798  0.8040
  675MOL0     H93122   6.421   4.462   5.097 -1.0151 -0.2513 -0.2280
  675MOL0     H93123   6.391   4.594   5.214 -2.3972  0.8010  0.1344
  675MOL0     H93124   6.248   4.589   4.947 -0.4338  2.0091 -0.4200
  675MOL0     H93125   6.204   4.686   5.084 -1.9865 -0.7788 -0.5321
  675MOL0     H93126   6.160   4.495   5.225  1.6013  0.4383 -0.2721
  675MOL0     H93127   6.211   4.383   5.107 -0.7081 -1.8778  2.0767
  675MOL0     H93128   6.026   4.432   4.951  3.5780  1.2439 -1.0071
  675MOL0     H93129   5.970   4.575   5.038 -2.9639 -2.2832  0.6886
  675MOL0     H93130   6.649   5.208   5.543 -1.6064 -0.4843 -1.1900
  675MOL0     H93131   6.883   5.242   5.597 -1.7828 -3.1894  2.8827
  675MOL0     H93132   7.224   5.147   5.634 -0.1377 -0.7540 -1.8765
  675MOL0     H93133   7.439   5.170   5.762  0.2619 -1.1574 -0.6903
  675MOL0     H93134   8.953   5.123   5.319 -0.3901  0.1464  0.2581
  675MOL0     H93135   8.794   5.158   5.139  0.2440  0.2074 -0.9170
  675MOL0     H93136   8.588   5.359   4.827 -1.1082 -1.0430 -1.6734
  675MOL0     H93137   8.425   5.414   4.680 -1.2209  3.0549 -0.1880
  675MOL0     H93138   8.183   5.759   4.793  0.6909 -0.6710  0.0061
  675MOL0     H93139   8.108   5.706   4.643  0.3919 -1.6487 -1.2626
  675MOL0     H93140   8.013   5.633   4.927 -0.2319  2.7340  1.7985
  675MOL0     H93141   7.926   5.591   4.775 -0.1971  0.6512 -0.3382
  675MOL0     H93142   7.960   5.850   4.931 -1.0738 -0.4167  0.9973
  675MOL0     H93143   7.923   5.871   4.759  0.7886 -2.6887 -0.4615
  675MOL0     H93144   7.732   5.882   4.935 -1.5418 -0.7080  0.7782
  675MOL0     H93145   7.767   5.712   4.976  1.2916 -2.5510 -1.7848
  675MOL0     H93146   7.548   5.650   4.621  0.4000 -0.2553  0.9459
  675MOL0     H93147   8.223   5.628   4.992  0.1181  0.4360 -0.2066
  675MOL0     H93148   8.404   5.576   5.257 -1.8436  1.5180  0.3296
  675MOL0     H93149   8.511   5.697   5.182  1.3432 -0.5627 -2.1086
  675MOL0     H93150   8.342   5.709   5.171  1.5791  1.5292 -1.7302
  676MOL0     O93151   6.204   2.679   2.418 -0.2742  0.1254 -0.5427
  676MOL0     C93152   6.208   2.723   2.304 -0.4802  0.0136  0.1778
  676MOL0     O93153   6.119   2.800   2.243 -0.2530  0.2571  0.3046
  676MOL0     C93154   6.013   2.841   2.317 -0.0989  0.4614  0.7198
  676MOL0     C93155   5.993   2.973   2.328 -0.1898 -1.1270 -0.6882
  676MOL0     C93156   5.892   3.025   2.412  0.1645  0.1253 -0.0175
  676MOL0     C93157   5.807   2.935   2.484  0.2194 -0.1978  0.7209
  676MOL0     O93158   5.708   2.968   2.571  0.2040 -0.5009  0.1393
  676MOL0     C93159   5.653   3.104   2.551 -0.3103 -0.2307  0.0003
  676MOL0     C93160   5.541   3.131   2.658 -0.0334  0.6733 -0.1717
  676MOL0     C93161   5.405   3.081   2.619  0.1801  0.0316 -0.1932
  676MOL0     C93162   5.309   3.090   2.741  0.6792 -0.7794  0.1400
  676MOL0     C93163   5.240   3.233   2.766 -0.7947 -0.2383  0.4980
  676MOL0     C93164   5.157   3.220   2.895  0.7643 -0.1582  0.1952
  676MOL0     C93165   5.083   3.343   2.931  1.0380  0.0485  0.2770
  676MOL0     C93166   5.000   3.330   3.048  0.6054  0.5948  0.7738
  676MOL0     N93167   4.942   3.456   3.084  0.0736  0.8428  0.0054
  676MOL0     C93168   5.010   3.566   3.110  0.1353 -0.4960  0.6448
  676MOL0     C93169   4.921   3.654   3.154  1.0458  0.2125 -0.1983
  676MOL0     C93170   4.946   3.798   3.183  0.0551 -0.0511  1.4615
  676MOL0     C93171   4.926   3.887   3.060 -1.0031 -0.5839 -0.2303
  676MOL0     C93172   4.780   3.934   3.046  1.0429 -0.0778 -0.7927
  676MOL0     C93173   4.758   4.028   2.930  0.5636  0.4871  0.0952
  676MOL0     O93174   4.860   4.128   2.943  0.8459 -0.0350 -0.1231
  676MOL0     C93175   4.879   4.222   2.845 -0.0133 -0.9787  0.1778
  676MOL0     C93176   4.995   4.305   2.862 -0.1963  0.3629  0.1344
  676MOL0     C93177   5.011   4.427   2.803  0.6858 -1.3029  0.8256
  676MOL0     C93178   5.147   4.488   2.815  0.8467 -0.1973 -0.2665
  676MOL0     C93179   4.900   4.485   2.729  0.5668  0.6859 -0.0127
  676MOL0     C93180   4.911   4.630   2.679 -0.0352  0.4051  0.3954
  676MOL0     O93181   4.985   4.714   2.756 -0.4479 -0.6549 -0.2508
  676MOL0     C93182   5.002   4.846   2.724  0.4480  0.0006 -0.2771
  676MOL0     C93183   4.898   4.940   2.721 -0.6780  0.4964  0.1943
  676MOL0     C93184   4.913   5.065   2.668 -0.8288 -0.3073 -1.0955
  676MOL0     C93185   5.049   5.103   2.635  0.0037  0.0362 -0.3286
  676MOL0     O93186   5.086   5.231   2.592  0.3294  0.5782  0.4242
  676MOL0     C93187   4.979   5.325   2.577 -0.8378  0.8033  0.1913
  676MOL0     C93188   5.047   5.456   2.541 -0.1576  0.6636 -0.0209
  676MOL0     C93189   4.962   5.577   2.574 -0.7922 -0.1760 -0.4217
  676MOL0     C93190   4.843   5.572   2.487  0.2817  0.7162  1.0480
  676MOL0     C93191   4.750   5.692   2.501  0.8136 -0.3766  0.2746
  676MOL0     C93192   4.611   5.669   2.431 -0.3535 -0.4189 -0.8093
  676MOL0     C93193   4.622   5.686   2.276 -0.0997  0.5363  0.6068
  676MOL0     C93194   4.661   5.829   2.225 -0.8375 -0.7150  0.1334
  676MOL0    Cl93195   4.617   5.836   2.056 -0.2780  0.0057 -0.0802
  676MOL0     C93196   5.150   5.015   2.659 -0.0459  0.1626  0.1865
  676MOL0     C93197   5.128   4.879   2.694 -0.0062 -0.3933  0.5534
  676MOL0     O93198   4.852   4.656   2.574  0.3333 -0.3792 -0.1500
  676MOL0     C93199   4.787   4.409   2.710 -0.1687 -0.6916 -1.0912
  676MOL0     C93200   4.779   4.274   2.763 -0.2258 -0.2228  0.9960
  676MOL0     N93201   4.794   3.592   3.172  1.4176  0.2726 -0.1227
  676MOL0     N93202   4.816   3.470   3.140 -0.4799 -0.0516  0.0999
  676MOL0     C93203   5.826   2.801   2.470 -0.4289 -0.1587 -0.2918
  676MOL0     C93204   5.927   2.755   2.391 -0.7230  0.0996  0.4767
  676MOL0     C93205   6.320   2.669   2.215  0.1216  0.0656 -0.9496
  676MOL0     C93206   6.455   2.722   2.214  0.2136  0.4100  0.2369
  676MOL0     C93207   6.557   2.661   2.141 -0.7310 -0.0367  0.0784
  676MOL0     C93208   6.529   2.549   2.069 -0.2409  0.7944  1.0895
  676MOL0     O93209   6.609   2.500   1.968  0.1960  0.9241 -0.3618
  676MOL0     C93210   6.749   2.549   1.971  0.0922 -0.5456 -0.8717
  676MOL0     C93211   6.828   2.455   2.073  0.5441  0.4832 -0.0012
  676MOL0     C93212   6.964   2.507   2.090 -0.2133  0.0358 -0.3460
  676MOL0     C93213   7.065   2.430   2.161 -0.1605  0.4103  0.3666
  676MOL0     C93214   7.109   2.317   2.077  0.2562 -0.4979  0.2205
  676MOL0     C93215   7.141   2.227   2.006  0.1963  0.1652  1.2070
  676MOL0     C93216   6.406   2.491   2.076  0.5211  0.0882  0.3323
  676MOL0     C93217   6.297   2.562   2.137  0.7519  0.3859  0.5740
  676MOL0     C93218   6.162   2.494   2.140 -0.1862 -0.7477  0.4116
  676MOL0     H93219   6.060   3.036   2.270 -1.6009 -1.2806 -2.5629
  676MOL0     H93220   5.887   3.133   2.423  0.3863  0.1063  0.2841
  676MOL0     H93221   5.615   3.115   2.449 -2.0573 -0.7097  0.5642
  676MOL0     H93222   5.728   3.179   2.577 -2.5219  1.9347  0.5156
  676MOL0     H93223   5.576   3.083   2.749  1.6996 -0.8987 -1.5762
  676MOL0     H93224   5.542   3.235   2.691  1.1865  1.6904 -3.0713
  676MOL0     H93225   5.356   3.128   2.533 -1.1074  0.6597  0.8351
  676MOL0     H93226   5.407   2.975   2.591  3.9250  0.2322 -1.1535
  676MOL0     H93227   5.225   3.023   2.718 -0.8148  0.6889  1.0726
  676MOL0     H93228   5.344   3.040   2.832 -1.3562 -2.8341 -0.1248
  676MOL0     H93229   5.170   3.263   2.687  1.6816  0.7632 -1.4490
  676MOL0     H93230   5.311   3.317   2.764  0.0774 -0.9520 -2.1266
  676MOL0     H93231   5.084   3.138   2.888  3.1300 -2.5669  1.7450
  676MOL0     H93232   5.209   3.181   2.982  1.0392 -2.3065 -0.8651
  676MOL0     H93233   5.029   3.384   2.846  4.1821  3.5855 -0.2677
  676MOL0     H93234   5.168   3.408   2.956 -0.2095  1.6499  0.5103
  676MOL0     H93235   4.918   3.261   3.026 -0.4709  1.9574  0.3357
  676MOL0     H93236   5.051   3.292   3.137  0.7806  0.0562  0.4435
  676MOL0     H93237   5.116   3.585   3.095  0.1163 -1.9284 -1.8314
  676MOL0     H93238   5.048   3.812   3.220  1.4010  0.1771 -1.9471
  676MOL0     H93239   4.879   3.842   3.258 -2.1819 -0.0185 -0.4520
  676MOL0     H93240   4.991   3.975   3.067  0.9332 -1.6844 -2.7243
  676MOL0     H93241   4.951   3.839   2.965  0.0610 -2.5793  1.0036
  676MOL0     H93242   4.720   3.843   3.036 -1.2575  1.2656 -0.1407
  676MOL0     H93243   4.747   3.978   3.141 -0.8611 -3.2566  0.1438
  676MOL0     H93244   4.754   3.976   2.834 -1.1517  0.8695 -0.0601
  676MOL0     H93245   4.657   4.069   2.940 -0.9884 -2.1481 -2.8597
  676MOL0     H93246   5.057   4.273   2.946  0.9610 -1.2348 -1.2510
  676MOL0     H93247   5.168   4.540   2.721  0.1897  2.2426  0.8427
  676MOL0     H93248   5.235   4.427   2.834 -1.1676 -3.1886  0.1632
  676MOL0     H93249   5.148   4.572   2.886  2.7946  0.3356 -0.8555
  676MOL0     H93250   4.803   4.898   2.751 -0.5742  0.6908  0.7966
  676MOL0     H93251   4.826   5.129   2.670 -1.7039 -1.4823  0.4567
  676MOL0     H93252   4.915   5.284   2.498  2.3906 -3.3408 -0.6977
  676MOL0     H93253   4.920   5.324   2.669 -1.7850 -0.9532 -0.3814
  676MOL0     H93254   5.143   5.462   2.593  0.1032  1.3209 -0.5536
  676MOL0     H93255   5.068   5.452   2.434 -1.7640 -0.7394 -0.3221
  676MOL0     H93256   5.031   5.656   2.542 -0.4213 -1.3515 -2.7981
  676MOL0     H93257   4.934   5.597   2.677  1.5401  3.7139 -0.3440
  676MOL0     H93258   4.789   5.485   2.524 -0.2002 -0.1007 -1.3848
  676MOL0     H93259   4.875   5.562   2.383 -1.7490  3.1920  0.0579
  676MOL0     H93260   4.723   5.705   2.606 -0.1432  2.0236 -0.2039
  676MOL0     H93261   4.793   5.785   2.463 -1.5956 -0.5527 -3.3899
  676MOL0     H93262   4.545   5.747   2.469  2.2506  1.8115 -0.5820
  676MOL0     H93263   4.578   5.567   2.454  2.7562 -1.8854 -2.1970
  676MOL0     H93264   4.523   5.670   2.233 -0.5980  0.5399  1.7163
  676MOL0     H93265   4.693   5.612   2.237 -1.5228 -0.2069 -0.6863
  676MOL0     H93266   4.768   5.852   2.218 -1.2015  0.7706 -0.9792
  676MOL0     H93267   4.608   5.910   2.276  0.5234  0.8277 -0.8035
  676MOL0     H93268   5.252   5.051   2.650 -0.1266  0.2617 -0.3630
  676MOL0     H93269   5.208   4.805   2.699 -0.4711 -0.8431  1.9833
  676MOL0     H93270   4.705   4.464   2.664 -1.0021  0.1799  1.2857
  676MOL0     H93271   4.683   4.223   2.755  0.9387 -3.1465  3.4983
  676MOL0     H93272   5.783   2.726   2.535  2.8021 -1.1088  0.9600
  676MOL0     H93273   5.942   2.648   2.385 -2.0298 -0.2108  2.1463
  676MOL0     H93274   6.485   2.817   2.255  2.5136 -0.7522  1.4264
  676MOL0     H93275   6.649   2.719   2.127 -0.9408  0.2369 -0.1785
  676MOL0     H93276   6.796   2.545   1.873  0.0358 -0.8247 -0.8894
  676MOL0     H93277   6.764   2.655   1.992 -1.5670 -0.5608  0.6262
  676MOL0     H93278   6.822   2.351   2.040  1.2779  0.1158  0.9912
  676MOL0     H93279   6.769   2.461   2.165 -0.5546 -0.4790 -0.6098
  676MOL0     H93280   7.013   2.508   1.992  5.1484 -4.0054  1.8015
  676MOL0     H93281   6.952   2.608   2.132  3.0705 -0.4425  2.1374
  676MOL0     H93282   7.037   2.380   2.254  1.5561 -0.7923  0.2883
  676MOL0     H93283   7.154   2.488   2.190  0.0895  0.0857  0.2586
  676MOL0     H93284   7.152   2.142   1.942  2.5417 -0.1709  1.9716
  676MOL0     H93285   6.393   2.396   2.024  0.8745 -0.3593  1.0601
  676MOL0     H93286   6.153   2.400   2.085 -2.9609 -1.9515  2.6208
  676MOL0     H93287   6.151   2.469   2.247  5.1094  0.7519  1.5798
  676MOL0     H93288   6.081   2.555   2.101 -1.0555 -2.1343 -0.0410
  677MOL0     O93289   1.753   3.398   3.392  0.3115  0.3846  0.5131
  677MOL0     C93290   1.696   3.495   3.336  0.1340 -0.2319  0.0208
  677MOL0     O93291   1.630   3.495   3.219 -0.6423  0.9691 -0.2649
  677MOL0     C93292   1.606   3.374   3.155 -0.5264 -0.4070  0.0785
  677MOL0     C93293   1.571   3.394   3.017 -0.3188  0.5297 -0.8329
  677MOL0     C93294   1.533   3.285   2.935  0.5534  0.2702 -0.2036
  677MOL0     C93295   1.527   3.155   2.997  1.3106  0.4820  0.0623
  677MOL0     O93296   1.478   3.042   2.939  0.0314 -0.1216 -0.0390
  677MOL0     C93297   1.452   3.055   2.794 -0.2013 -0.3535 -0.4081
  677MOL0     C93298   1.423   2.918   2.732  0.3716 -0.3396 -0.2141
  677MOL0     C93299   1.281   2.857   2.759 -0.5619  0.0037  0.3027
  677MOL0     C93300   1.172   2.944   2.690 -0.4650  0.4415 -0.5271
  677MOL0     C93301   1.069   2.831   2.646  0.4937 -0.6180  0.7910
  677MOL0     C93302   0.958   2.875   2.548 -0.5821  0.3024 -0.0749
  677MOL0     C93303   0.880   3.001   2.588  0.3658 -0.4307  0.6943
  677MOL0     C93304   0.796   2.986   2.712 -0.3406 -0.0029 -0.2888
  677MOL0     N93305   0.734   3.120   2.752  0.3867  1.0889 -0.2808
  677MOL0     C93306   0.811   3.216   2.818  0.2541  0.4241 -0.2116
  677MOL0     C93307   0.731   3.321   2.839 -0.4690 -0.2129  0.3298
  677MOL0     C93308   0.789   3.452   2.892  0.6228 -0.3989  0.0083
  677MOL0     C93309   0.780   3.479   3.046 -0.5387  0.6120  0.5561
  677MOL0     C93310   0.870   3.600   3.086  0.8818 -0.6213 -0.6069
  677MOL0     C93311   0.822   3.726   3.010 -0.6619 -0.3429 -0.0962
  677MOL0     O93312   0.859   3.848   3.078 -0.1263  0.7748 -0.3213
  677MOL0     C93313   0.772   3.920   3.149  0.1039  0.3392  0.5091
  677MOL0     C93314   0.808   3.948   3.276 -0.4695  0.1142  0.0600
  677MOL0     C93315   0.723   4.006   3.366 -0.1451 -0.6706  1.2227
  677MOL0     C93316   0.768   4.024   3.502 -0.1591  0.1147 -0.9358
  677MOL0     C93317   0.596   4.053   3.323 -1.2058  0.8845  0.4752
  677MOL0     C93318   0.513   4.145   3.407 -0.5912 -1.0656  0.7235
  677MOL0     O93319   0.481   4.085   3.526  0.6214  0.4314 -0.2094
  677MOL0     C93320   0.442   4.161   3.627 -0.3616  0.4071 -0.5817
  677MOL0     C93321   0.530   4.256   3.680 -0.2750  0.5457  0.3738
  677MOL0     C93322   0.484   4.329   3.791  0.0274 -1.2031 -0.2565
  677MOL0     C93323   0.352   4.317   3.843 -0.0579  0.2015 -1.8509
  677MOL0     O93324   0.309   4.398   3.949 -0.1876 -0.4762  0.1269
  677MOL0     C93325   0.176   4.440   3.956  0.6491 -0.0841 -0.6653
  677MOL0     C93326   0.158   4.549   4.060 -0.0744  0.4924  0.7382
  677MOL0     C93327   0.242   4.669   4.024 -0.4228 -0.7151  0.6283
  677MOL0     C93328   0.253   4.773   4.137  0.7110 -1.1456  0.3191
  677MOL0     C93329   0.313   4.717   4.266  0.0581  0.1735  0.3509
  677MOL0     C93330   0.463   4.670   4.267 -0.1433 -0.4602  0.2585
  677MOL0     C93331   0.567   4.782   4.294 -1.8660  0.0855  0.4204
  677MOL0     C93332   0.595   4.798   4.445  0.8115 -0.0949 -0.2584
  677MOL0    Cl93333   0.508   4.940   4.499 -0.2892  0.1269  0.2308
  677MOL0     C93334   0.266   4.226   3.776  0.6297  0.6562  0.6257
  677MOL0     C93335   0.310   4.145   3.668 -0.3353 -0.7266 -0.8538
  677MOL0     O93336   0.471   4.254   3.375 -0.3887 -0.2250  0.6793
  677MOL0     C93337   0.566   4.036   3.190 -0.6782 -0.7176  0.2854
  677MOL0     C93338   0.650   3.963   3.103  0.2342  0.4232 -0.6453
  677MOL0     N93339   0.610   3.292   2.785 -0.2441 -0.0059  0.1535
  677MOL0     N93340   0.611   3.169   2.740 -0.4077  0.1786  0.0963
  677MOL0     C93341   1.568   3.136   3.131 -0.4593 -1.3048 -0.2494
  677MOL0     C93342   1.601   3.245   3.206 -0.1852  0.4363 -0.4744
  677MOL0     C93343   1.696   3.629   3.407  0.3165  0.3660  0.1659
  677MOL0     C93344   1.676   3.744   3.317  0.4363 -0.9107  0.2704
  677MOL0     C93345   1.670   3.876   3.372 -0.7187  0.5488 -0.1315
  677MOL0     C93346   1.663   3.898   3.506 -0.1351  0.6430 -0.0992
  677MOL0     O93347   1.641   4.029   3.538 -0.0855  0.1514  0.1234
  677MOL0     C93348   1.665   4.063   3.671  0.2277  0.1512  0.8271
  677MOL0     C93349   1.651   4.213   3.703  0.0850 -0.6035  0.5320
  677MOL0     C93350   1.789   4.273   3.681  0.0983  0.8435 -0.6453
  677MOL0     C93351   1.796   4.419   3.713  0.2305  0.0400 -0.5498
  677MOL0     C93352   1.725   4.508   3.622 -0.0984  0.5880 -0.0238
  677MOL0     C93353   1.670   4.595   3.559 -0.5963  0.4160  0.4120
  677MOL0     C93354   1.671   3.792   3.594  0.3278 -0.4336  0.4843
  677MOL0     C93355   1.688   3.657   3.549 -0.8044  0.3482  0.3193
  677MOL0     C93356   1.714   3.555   3.652 -0.1438 -0.3869 -0.3524
  677MOL0     H93357   1.567   3.496   2.979 -1.9453  2.5497  3.9653
  677MOL0     H93358   1.513   3.300   2.830  2.6955 -1.2872 -0.9240
  677MOL0     H93359   1.532   3.106   2.740  1.7980  0.2364  2.8864
  677MOL0     H93360   1.358   3.112   2.789 -0.9234 -1.1995  2.1281
  677MOL0     H93361   1.417   2.918   2.623 -1.2070 -1.1122 -0.1570
  677MOL0     H93362   1.493   2.845   2.774  0.2207  0.4400  1.4858
  677MOL0     H93363   1.285   2.762   2.704  1.3344 -0.2086  0.7486
  677MOL0     H93364   1.268   2.833   2.865  1.6740 -0.9518  0.4097
  677MOL0     H93365   1.126   3.008   2.766 -0.8516 -0.9499  0.4503
  677MOL0     H93366   1.213   2.995   2.602 -1.2745  4.5304  1.2544
  677MOL0     H93367   1.022   2.782   2.732  1.2289  1.2856  2.3843
  677MOL0     H93368   1.127   2.750   2.601 -0.3583 -1.4532  1.1656
  677MOL0     H93369   0.999   2.906   2.452 -1.4679  3.3532  0.4067
  677MOL0     H93370   0.890   2.789   2.550 -0.7918  0.4712  0.1267
  677MOL0     H93371   0.816   3.018   2.501  1.6398 -1.2310 -0.4350
  677MOL0     H93372   0.946   3.088   2.596 -0.2192  0.0796  0.1062
  677MOL0     H93373   0.715   2.917   2.685 -0.9633 -0.0679  1.6338
  677MOL0     H93374   0.857   2.950   2.795  0.8713  3.8056  0.6276
  677MOL0     H93375   0.917   3.215   2.838  0.5341  0.7963 -1.5738
  677MOL0     H93376   0.747   3.539   2.841  1.2298  1.3147  2.2758
  677MOL0     H93377   0.895   3.447   2.862  0.3462 -0.1466 -1.0498
  677MOL0     H93378   0.677   3.495   3.080 -0.9916  1.7957 -1.2193
  677MOL0     H93379   0.827   3.395   3.098 -0.3251  1.9916  2.7344
  677MOL0     H93380   0.870   3.624   3.193  0.0234  0.4907 -0.8483
  677MOL0     H93381   0.977   3.581   3.070  1.7107  2.7103  0.1337
  677MOL0     H93382   0.866   3.729   2.910  0.9717 -0.5430  0.5965
  677MOL0     H93383   0.712   3.727   3.006 -0.6714  2.1133 -1.0024
  677MOL0     H93384   0.904   3.912   3.314 -0.2034  2.0610  1.3673
  677MOL0     H93385   0.703   3.974   3.574  0.5017  1.3642  0.5979
  677MOL0     H93386   0.760   4.127   3.539  0.1505  0.6079 -2.1877
  677MOL0     H93387   0.867   3.979   3.508  0.0424  0.5446 -0.9794
  677MOL0     H93388   0.622   4.276   3.627 -0.3499 -1.2526 -0.5064
  677MOL0     H93389   0.550   4.399   3.841 -1.4661 -1.9739  3.0725
  677MOL0     H93390   0.133   4.500   3.876  1.6646  1.5790 -0.0011
  677MOL0     H93391   0.116   4.349   3.970  0.0983 -0.1883 -3.2349
  677MOL0     H93392   0.053   4.570   4.080 -0.3310 -1.1927  1.2533
  677MOL0     H93393   0.187   4.514   4.160 -3.1099 -2.0608  0.8580
  677MOL0     H93394   0.206   4.707   3.928 -1.5994 -0.4641  1.1569
  677MOL0     H93395   0.348   4.653   4.001  0.1581  1.9458  1.0246
  677MOL0     H93396   0.160   4.824   4.163  2.7353  2.7769  0.7481
  677MOL0     H93397   0.311   4.858   4.097 -2.2304 -0.1587 -2.2729
  677MOL0     H93398   0.303   4.801   4.335  0.7096  1.7791 -1.4170
  677MOL0     H93399   0.259   4.628   4.301 -0.8985  0.0437 -1.3379
  677MOL0     H93400   0.487   4.637   4.165  0.5678 -0.4284  0.4114
  677MOL0     H93401   0.478   4.586   4.335  1.9325 -0.3101  0.0508
  677MOL0     H93402   0.543   4.880   4.252  0.7650  2.1936  3.4063
  677MOL0     H93403   0.655   4.755   4.234 -2.1776 -1.2177  0.5162
  677MOL0     H93404   0.703   4.812   4.455  0.4688  1.6133  1.6250
  677MOL0     H93405   0.560   4.713   4.504 -1.2777  1.4032  0.7498
  677MOL0     H93406   0.163   4.203   3.803  1.0741 -1.1899  0.8538
  677MOL0     H93407   0.235   4.087   3.615 -3.1747  3.2716 -1.6836
  677MOL0     H93408   0.484   4.087   3.140 -0.9934  0.1733  1.6572
  677MOL0     H93409   0.624   3.953   2.999 -0.0516 -2.3318 -0.3902
  677MOL0     H93410   1.552   3.046   3.188 -1.2702  0.5261  2.6065
  677MOL0     H93411   1.611   3.223   3.312  1.6103  0.1142 -0.6760
  677MOL0     H93412   1.672   3.734   3.209  0.8384 -1.1556  0.2754
  677MOL0     H93413   1.646   3.957   3.304 -3.2317  0.8864  1.0498
  677MOL0     H93414   1.604   3.999   3.735  1.1905  0.2349  1.8583
  677MOL0     H93415   1.769   4.030   3.683 -0.1098 -1.9669 -1.2982
  677MOL0     H93416   1.606   4.222   3.802 -2.5564 -2.7624 -0.3509
  677MOL0     H93417   1.573   4.261   3.644 -3.1173 -1.9048  3.3378
  677MOL0     H93418   1.850   4.217   3.752 -0.6151 -1.0877 -1.4902
  677MOL0     H93419   1.819   4.249   3.579  0.1994 -0.4681 -0.3163
  677MOL0     H93420   1.900   4.453   3.709 -0.3471  1.9370 -0.5319
  677MOL0     H93421   1.762   4.439   3.815  1.7140  1.0149 -0.2035
  677MOL0     H93422   1.619   4.676   3.512  1.7635  1.6722 -0.1364
  677MOL0     H93423   1.665   3.815   3.700  1.4068 -2.3305  1.0137
  677MOL0     H93424   1.672   3.459   3.622  0.7682 -1.7554  2.4000
  677MOL0     H93425   1.818   3.531   3.674 -0.7232 -2.3057  0.5015
  677MOL0     H93426   1.666   3.575   3.748 -2.9180 -3.6455 -0.8663
  678MOL0     O93427   0.258   7.952   3.026  0.0866 -0.6658  0.2167
  678MOL0     C93428   0.210   7.901   3.128  0.1315  0.0322 -0.0881
  678MOL0     O93429   0.227   7.768   3.167  0.2758 -0.7660 -0.1752
  678MOL0     C93430   0.300   7.687   3.084 -0.3133  0.4451  0.5154
  678MOL0     C93431   0.235   7.573   3.029  0.0391  0.6696  0.1442
  678MOL0     C93432   0.289   7.483   2.926  0.0471 -0.1938 -0.9938
  678MOL0     C93433   0.420   7.517   2.885 -0.2025 -0.2193  0.4716
  678MOL0     O93434   0.470   7.422   2.795 -0.3818 -0.3463  0.2146
  678MOL0     C93435   0.611   7.421   2.767  0.0064 -0.2738  0.8620
  678MOL0     C93436   0.644   7.300   2.684 -0.0329  1.5336  0.3351
  678MOL0     C93437   0.796   7.289   2.663 -0.5651  0.1123  0.5888
  678MOL0     C93438   0.838   7.391   2.544  0.5746  0.0107 -0.6520
  678MOL0     C93439   0.995   7.394   2.532  0.5491  0.9698 -0.3594
  678MOL0     C93440   1.073   7.453   2.655 -0.0687  0.6943 -0.4026
  678MOL0     C93441   1.201   7.527   2.620 -0.7746  0.4058  0.1821
  678MOL0     C93442   1.170   7.675   2.587 -1.6918  1.0458 -0.4080
  678MOL0     N93443   1.294   7.735   2.536 -0.8747 -0.5931 -0.3023
  678MOL0     C93444   1.386   7.807   2.605 -0.7154  0.1608  0.1942
  678MOL0     C93445   1.489   7.828   2.525  0.2110 -0.7050 -0.8427
  678MOL0     C93446   1.627   7.874   2.562 -1.3180 -0.2686  0.1328
  678MOL0     C93447   1.673   7.995   2.488 -0.2611  0.9549 -0.2455
  678MOL0     C93448   1.747   8.092   2.583 -0.5470  0.2276 -0.4586
  678MOL0     C93449   1.885   8.047   2.636  0.8668  0.1237 -0.2387
  678MOL0     O93450   1.961   7.967   2.539  0.4775  0.1972  0.6742
  678MOL0     C93451   2.057   8.037   2.471  0.2826  0.0395 -0.0494
  678MOL0     C93452   2.182   7.981   2.491  0.0722 -0.8901  0.1589
  678MOL0     C93453   2.300   8.032   2.424  0.9980  0.7631  0.0770
  678MOL0     C93454   2.429   7.952   2.436 -0.3530 -1.1579  1.0570
  678MOL0     C93455   2.287   8.153   2.349  0.7496  1.5504  1.0048
  678MOL0     C93456   2.399   8.230   2.292 -0.4185 -0.0966  0.1597
  678MOL0     O93457   2.526   8.220   2.343  0.0368  0.2846  0.2618
  678MOL0     C93458   2.631   8.305   2.308  0.8781 -0.8111  0.2361
  678MOL0     C93459   2.666   8.318   2.174 -0.9828  0.3288 -0.7465
  678MOL0     C93460   2.780   8.385   2.147  0.2256  0.2098  0.1801
  678MOL0     C93461   2.850   8.453   2.252  0.2668  0.6942 -0.1380
  678MOL0     O93462   2.969   8.511   2.219 -0.0410  0.5608  0.8158
  678MOL0     C93463   2.970   8.657   2.187 -0.7733 -0.0558 -0.8603
  678MOL0     C93464   3.097   8.715   2.215 -0.1793  0.2994  0.1155
  678MOL0     C93465   3.120   8.724   2.361 -0.7619  0.5470  0.1730
  678MOL0     C93466   3.244   8.823   2.394 -0.0332  0.5201 -0.8093
  678MOL0     C93467   3.381   8.745   2.433 -0.5005 -0.1758 -0.4283
  678MOL0     C93468   3.428   8.649   2.324  0.3703  0.4096 -0.3320
  678MOL0     C93469   3.570   8.600   2.358  0.0533 -0.3853  0.8018
  678MOL0     C93470   3.633   8.552   2.218 -0.5106  0.3228  0.5421
  678MOL0    Cl93471   3.529   8.424   2.154  0.0814 -0.1852 -0.0633
  678MOL0     C93472   2.797   8.466   2.388  0.0051 -0.2317 -0.1426
  678MOL0     C93473   2.699   8.373   2.419  0.2383 -0.1893  1.1961
  678MOL0     O93474   2.372   8.309   2.201  0.2526 -0.5901 -0.2520
  678MOL0     C93475   2.159   8.213   2.343  0.4468  0.8500  0.6727
  678MOL0     C93476   2.047   8.153   2.396  0.6058  0.3502 -0.0506
  678MOL0     N93477   1.454   7.769   2.411 -0.2319  0.0397 -0.4784
  678MOL0     N93478   1.332   7.714   2.411 -0.7953  0.4205  0.4813
  678MOL0     C93479   0.491   7.633   2.938 -0.3499  0.6485  0.1022
  678MOL0     C93480   0.419   7.716   3.027 -0.3584 -1.2819  0.0814
  678MOL0     C93481   0.134   7.996   3.207  1.1398  0.0489  0.8141
  678MOL0     C93482   0.002   7.950   3.249 -0.0305  0.2774 -0.1522
  678MOL0     C93483  -0.085   8.033   3.308  0.3196  0.1685  0.3361
  678MOL0     C93484  -0.045   8.163   3.343  0.0915  0.0870  0.0940
  678MOL0     O93485  -0.136   8.241   3.404  0.3148  0.1629  0.4366
  678MOL0     C93486  -0.106   8.346   3.494  0.1063  0.6624 -0.0349
  678MOL0     C93487  -0.228   8.436   3.501  0.1509  0.5698 -0.1134
  678MOL0     C93488  -0.352   8.376   3.564 -0.5359 -0.1103  0.5028
  678MOL0     C93489  -0.479   8.452   3.547  0.5128 -0.4714 -0.9922
  678MOL0     C93490  -0.505   8.454   3.402 -0.3378  0.1318 -0.6024
  678MOL0     C93491  -0.518   8.450   3.286 -0.3939  0.0593  0.2914
  678MOL0     C93492   0.080   8.204   3.310 -0.5300  0.2205  0.1331
  678MOL0     C93493   0.167   8.126   3.239  0.7084 -0.8605 -0.0942
  678MOL0     C93494   0.292   8.203   3.187  0.5373  0.8208  0.9407
  678MOL0     H93495   0.136   7.557   3.071 -0.1345 -1.3420 -0.8978
  678MOL0     H93496   0.227   7.406   2.881 -2.5214  1.7072 -0.8969
  678MOL0     H93497   0.670   7.416   2.858 -0.2042  0.0943  1.0205
  678MOL0     H93498   0.636   7.523   2.734  0.5961  0.1029  2.4010
  678MOL0     H93499   0.607   7.214   2.741 -1.9503  1.5564 -0.7969
  678MOL0     H93500   0.590   7.299   2.589 -4.0181 -0.2897  2.3779
  678MOL0     H93501   0.844   7.317   2.757 -0.3583  1.7761  0.0260
  678MOL0     H93502   0.831   7.190   2.632  1.0646  0.8604 -0.0607
  678MOL0     H93503   0.785   7.354   2.456 -3.2095 -2.8437  2.4789
  678MOL0     H93504   0.804   7.494   2.564 -2.8360 -0.8210 -1.5230
  678MOL0     H93505   1.019   7.460   2.447  1.6112  0.3924 -0.5279
  678MOL0     H93506   1.045   7.300   2.506 -1.9672 -0.0271 -1.9703
  678MOL0     H93507   1.010   7.519   2.715  2.0706  1.7496  0.7896
  678MOL0     H93508   1.083   7.367   2.722 -2.8095  0.2170 -0.4674
  678MOL0     H93509   1.256   7.470   2.544 -0.1504 -2.1117  2.3693
  678MOL0     H93510   1.272   7.529   2.704  0.8659 -1.8582 -1.0218
  678MOL0     H93511   1.085   7.689   2.518 -0.3414  0.0046 -2.3918
  678MOL0     H93512   1.142   7.728   2.678 -0.7058  1.1672 -0.1711
  678MOL0     H93513   1.371   7.829   2.710 -2.9635 -1.2498  0.2302
  678MOL0     H93514   1.697   7.799   2.524 -0.5162  0.7379 -0.4402
  678MOL0     H93515   1.636   7.879   2.671  2.2599 -4.1254  0.2706
  678MOL0     H93516   1.733   7.965   2.402 -2.7269 -0.7859 -1.4659
  678MOL0     H93517   1.588   8.048   2.446  0.5339 -0.5625 -4.2530
  678MOL0     H93518   1.773   8.166   2.507  1.6178 -0.0881 -0.0927
  678MOL0     H93519   1.685   8.119   2.669 -0.7369 -1.6126  0.0434
  678MOL0     H93520   1.940   8.134   2.672 -2.2862  1.1632  2.5596
  678MOL0     H93521   1.873   7.970   2.713  2.4598  0.2192  0.1474
  678MOL0     H93522   2.193   7.890   2.550  0.9294 -0.2603  1.0045
  678MOL0     H93523   2.482   7.964   2.342 -1.4557 -0.0518  0.5512
  678MOL0     H93524   2.412   7.844   2.440 -2.2246 -1.3584 -4.5599
  678MOL0     H93525   2.498   7.997   2.508 -1.4477  3.6282 -0.5691
  678MOL0     H93526   2.609   8.270   2.096  1.5645 -1.1300 -1.8074
  678MOL0     H93527   2.820   8.385   2.047  0.3352  0.9893  0.2178
  678MOL0     H93528   2.951   8.672   2.081  1.5712 -2.2527 -1.6859
  678MOL0     H93529   2.892   8.712   2.241  0.4862  0.0317  0.9903
  678MOL0     H93530   3.165   8.660   2.150 -1.9535 -0.5963 -1.0794
  678MOL0     H93531   3.083   8.817   2.178  0.2249  1.4115  2.7753
  678MOL0     H93532   3.134   8.622   2.399  1.1555  1.1176  1.1469
  678MOL0     H93533   3.035   8.752   2.424 -0.5071 -1.2592  1.3992
  678MOL0     H93534   3.226   8.879   2.486 -1.9775 -2.9314  1.1155
  678MOL0     H93535   3.278   8.875   2.304  0.9691 -3.3545 -2.9399
  678MOL0     H93536   3.461   8.818   2.444  2.0950 -3.0308  1.2381
  678MOL0     H93537   3.359   8.700   2.531 -2.4209  0.6350 -0.4326
  678MOL0     H93538   3.407   8.685   2.223 -0.9395 -0.4289 -0.3760
  678MOL0     H93539   3.373   8.557   2.349  2.1424 -0.0661  2.2987
  678MOL0     H93540   3.558   8.525   2.437  1.1050 -0.5487  0.8090
  678MOL0     H93541   3.637   8.680   2.389 -0.1418  0.9853 -1.9455
  678MOL0     H93542   3.737   8.521   2.212  0.0958  2.2925  0.0301
  678MOL0     H93543   3.628   8.625   2.137 -0.9945  2.6487  2.5490
  678MOL0     H93544   2.841   8.535   2.460  1.3079  1.2514 -2.2487
  678MOL0     H93545   2.653   8.376   2.517  0.6481  0.1671  1.3792
  678MOL0     H93546   2.152   8.313   2.300 -0.2063  1.3838  1.9342
  678MOL0     H93547   1.950   8.201   2.386 -0.0989 -0.7946  0.8491
  678MOL0     H93548   0.594   7.664   2.924  1.2864 -3.6803  0.9320
  678MOL0     H93549   0.461   7.809   3.063 -2.6790 -1.0439  2.5204
  678MOL0     H93550  -0.004   7.844   3.231  0.1380  0.5704 -2.2123
  678MOL0     H93551  -0.185   8.004   3.338  0.9973 -0.1899  2.3864
  678MOL0     H93552  -0.092   8.303   3.593 -2.8273 -2.1855 -0.6703
  678MOL0     H93553  -0.013   8.393   3.463  0.6744 -0.4782 -0.1260
  678MOL0     H93554  -0.246   8.481   3.403 -0.3011 -2.1219 -1.3620
  678MOL0     H93555  -0.193   8.519   3.563  0.5672 -1.7727  3.0200
  678MOL0     H93556  -0.380   8.277   3.527  1.2768 -0.8173  0.9045
  678MOL0     H93557  -0.330   8.362   3.670 -0.2269 -2.0324  0.2255
  678MOL0     H93558  -0.468   8.553   3.588  1.3408 -0.3962 -1.3862
  678MOL0     H93559  -0.556   8.407   3.611  1.9332 -1.2313  0.2337
  678MOL0     H93560  -0.519   8.438   3.180 -2.1288 -0.2712  0.3185
  678MOL0     H93561   0.104   8.308   3.332 -0.4682 -0.1523  2.0301
  678MOL0     H93562   0.381   8.162   3.235 -0.6030 -2.5919  0.3584
  678MOL0     H93563   0.308   8.186   3.080 -0.0824  1.5584  0.7209
  678MOL0     H93564   0.281   8.312   3.199  0.1551  0.9375 -0.3161
  679MOL0     O93565   5.966   2.885   1.469 -0.7993 -0.0056  0.1400
  679MOL0     C93566   6.069   2.837   1.523  0.2589  0.6806  1.0431
  679MOL0     O93567   6.190   2.896   1.508 -0.2528  0.5393  0.3281
  679MOL0     C93568   6.192   3.016   1.446  0.3985  1.1419  0.2525
  679MOL0     C93569   6.131   3.046   1.320 -0.1332  0.2987  0.3801
  679MOL0     C93570   6.157   3.170   1.253  0.6233 -0.4215 -0.0512
  679MOL0     C93571   6.234   3.266   1.317 -0.0978 -1.5038  0.0252
  679MOL0     O93572   6.259   3.391   1.255 -0.1794  0.0970 -0.0395
  679MOL0     C93573   6.166   3.490   1.282 -0.4777  0.2321 -0.1284
  679MOL0     C93574   6.231   3.601   1.371  0.3505  0.2927  0.2985
  679MOL0     C93575   6.130   3.695   1.437  0.6743 -0.1222 -0.5726
  679MOL0     C93576   6.203   3.814   1.504 -0.7385  0.5195  0.2393
  679MOL0     C93577   6.115   3.938   1.522  0.2148 -0.3144 -0.7647
  679MOL0     C93578   6.169   4.045   1.629  0.1201  0.6529 -0.0794
  679MOL0     C93579   6.068   4.150   1.659 -0.1324 -0.9615  0.1848
  679MOL0     C93580   6.113   4.239   1.777 -0.4289  0.1681  0.1295
  679MOL0     N93581   6.227   4.325   1.748  0.0197  0.1242 -0.1495
  679MOL0     C93582   6.237   4.449   1.691  0.2440  0.2503 -0.2568
  679MOL0     C93583   6.362   4.468   1.652 -0.2617  0.5501  0.1640
  679MOL0     C93584   6.415   4.579   1.563  0.5863  0.9106 -0.2308
  679MOL0     C93585   6.551   4.634   1.619  0.0733 -0.2791 -0.9805
  679MOL0     C93586   6.601   4.741   1.517  0.4913 -0.2446 -0.1053
  679MOL0     C93587   6.740   4.806   1.557  0.2759 -0.4653 -0.0187
  679MOL0     O93588   6.726   4.949   1.520 -0.1876  0.5682  0.1472
  679MOL0     C93589   6.834   5.024   1.552 -0.1217  0.7542  0.7400
  679MOL0     C93590   6.814   5.163   1.528 -0.0548 -0.2402 -0.1640
  679MOL0     C93591   6.918   5.252   1.569 -0.1984  0.3150  0.6078
  679MOL0     C93592   6.907   5.398   1.535  0.4469 -0.8136  0.4749
  679MOL0     C93593   7.044   5.200   1.625 -0.2664 -0.4856 -0.4415
  679MOL0     C93594   7.156   5.283   1.676  0.6532 -0.0313  0.3134
  679MOL0     O93595   7.255   5.214   1.750  0.3210 -0.6677 -0.0373
  679MOL0     C93596   7.377   5.264   1.788  0.6882 -0.7810  0.3653
  679MOL0     C93597   7.410   5.404   1.800 -0.4143  0.7750  0.0512
  679MOL0     C93598   7.536   5.440   1.846  0.7181 -0.5024 -0.8811
  679MOL0     C93599   7.630   5.340   1.891  0.6512 -0.0934  0.6594
  679MOL0     O93600   7.750   5.389   1.940 -0.0258  0.0804  0.0397
  679MOL0     C93601   7.743   5.457   2.066  1.2756  0.4749  0.0176
  679MOL0     C93602   7.873   5.491   2.122 -0.8324  0.2994  0.1105
  679MOL0     C93603   7.942   5.595   2.042 -1.1178 -0.1894  0.0933
  679MOL0     C93604   8.045   5.676   2.118 -0.1961  0.7276  0.8402
  679MOL0     C93605   8.113   5.770   2.013  0.4011  0.2343 -0.2656
  679MOL0     C93606   8.252   5.707   1.970  0.4954 -0.7621  0.4084
  679MOL0     C93607   8.309   5.785   1.855 -0.1325 -0.2975 -0.4064
  679MOL0     C93608   8.451   5.725   1.823 -0.2432 -0.3413  0.0784
  679MOL0    Cl93609   8.552   5.843   1.724 -0.2058 -0.2885  0.2859
  679MOL0     C93610   7.588   5.203   1.894  0.5287  0.7077  0.4373
  679MOL0     C93611   7.463   5.170   1.847  0.6419  0.5822  0.0014
  679MOL0     O93612   7.168   5.397   1.636  0.3313 -0.0532  0.0549
  679MOL0     C93613   7.058   5.064   1.642  0.2747  0.2513 -0.1913
  679MOL0     C93614   6.948   4.981   1.613  1.2177  0.0307  0.4981
  679MOL0     N93615   6.442   4.360   1.706 -0.5105 -0.6598  0.0354
  679MOL0     N93616   6.355   4.284   1.763 -0.4429 -0.6707 -0.3456
  679MOL0     C93617   6.298   3.237   1.436  0.7344  0.2560 -0.7755
  679MOL0     C93618   6.275   3.115   1.504 -0.6590 -0.9274 -0.2259
  679MOL0     C93619   6.032   2.706   1.586 -0.9921  0.6905 -0.1558
  679MOL0     C93620   5.905   2.653   1.584 -0.8168  0.3441 -0.0713
  679MOL0     C93621   5.877   2.532   1.644  0.3399 -0.2165  0.3103
  679MOL0     C93622   5.974   2.474   1.726 -0.0060  0.7596 -0.2373
  679MOL0     O93623   5.950   2.359   1.805 -0.2635 -0.5891 -0.6690
  679MOL0     C93624   5.822   2.332   1.862  1.0427  0.5785  0.0625
  679MOL0     C93625   5.775   2.440   1.966 -0.2799  0.5699  0.0532
  679MOL0     C93626   5.643   2.388   2.025 -0.4089  0.4423 -0.1862
  679MOL0     C93627   5.672   2.292   2.150 -0.5426  0.0281  0.2971
  679MOL0     C93628   5.675   2.396   2.260  0.6215  0.4695  0.8476
  679MOL0     C93629   5.670   2.489   2.339  0.2829  0.0103  0.8106
  679MOL0     C93630   6.101   2.523   1.733  0.2645  0.5390  0.0405
  679MOL0     C93631   6.132   2.634   1.658 -0.7347 -0.4763  0.6831
  679MOL0     C93632   6.276   2.670   1.659 -0.3729 -0.3407 -0.4193
  679MOL0     H93633   6.083   2.968   1.261  2.0008 -0.0458 -1.0559
  679MOL0     H93634   6.122   3.210   1.159  2.2391  2.8709  0.5643
  679MOL0     H93635   6.076   3.439   1.318  1.2525 -3.6425 -0.7521
  679MOL0     H93636   6.135   3.533   1.187  1.5312 -0.7972 -1.3159
  679MOL0     H93637   6.286   3.555   1.453 -0.0107  0.7490  0.8001
  679MOL0     H93638   6.309   3.651   1.313  0.7580 -0.8799 -0.1913
  679MOL0     H93639   6.074   3.727   1.349  0.1772  0.4535 -0.0492
  679MOL0     H93640   6.064   3.638   1.502 -3.2991  1.2233 -3.0723
  679MOL0     H93641   6.247   3.782   1.599 -0.8177 -1.9721 -0.4802
  679MOL0     H93642   6.291   3.841   1.445 -1.4876  0.4492 -0.9546
  679MOL0     H93643   6.024   3.898   1.568 -0.0912  2.3346  1.2191
  679MOL0     H93644   6.104   3.993   1.428 -0.2990 -2.0340 -1.7570
  679MOL0     H93645   6.189   3.979   1.714  0.3104 -0.9117 -1.2769
  679MOL0     H93646   6.259   4.094   1.592 -0.3462  2.4969  1.0929
  679MOL0     H93647   5.977   4.100   1.695 -0.4181  1.0646  2.5793
  679MOL0     H93648   6.039   4.212   1.574 -1.6156 -2.8797 -0.7677
  679MOL0     H93649   6.026   4.304   1.794 -0.6799  0.1479 -0.9876
  679MOL0     H93650   6.141   4.178   1.863  1.2637  0.2020 -0.3693
  679MOL0     H93651   6.154   4.512   1.660 -0.2769 -0.9696 -1.4144
  679MOL0     H93652   6.341   4.660   1.563  0.1614  0.5276  0.2347
  679MOL0     H93653   6.429   4.542   1.461 -1.9936  1.1608 -0.7621
  679MOL0     H93654   6.544   4.680   1.718  0.1645 -0.9711 -0.6450
  679MOL0     H93655   6.631   4.560   1.629  2.0152  1.9330  1.0673
  679MOL0     H93656   6.617   4.687   1.423  2.5188 -0.8226  0.5150
  679MOL0     H93657   6.525   4.820   1.515  1.6054  0.9940  2.2203
  679MOL0     H93658   6.756   4.799   1.665 -1.0398 -1.1297  0.1552
  679MOL0     H93659   6.823   4.759   1.504  1.3147  1.3475 -0.0680
  679MOL0     H93660   6.728   5.193   1.469 -0.0112 -1.3786 -0.8433
  679MOL0     H93661   6.810   5.405   1.484  0.6261 -0.3726  0.1846
  679MOL0     H93662   6.983   5.431   1.463 -1.7116 -0.1550 -1.6291
  679MOL0     H93663   6.912   5.461   1.624 -1.3313 -1.5731  1.1593
  679MOL0     H93664   7.336   5.477   1.770 -0.3231  1.0009  0.3734
  679MOL0     H93665   7.568   5.544   1.839  0.3014 -0.3725 -0.8666
  679MOL0     H93666   7.677   5.541   2.049 -0.2307 -0.8258 -0.8498
  679MOL0     H93667   7.699   5.385   2.136  1.0669 -0.6688 -1.2384
  679MOL0     H93668   7.853   5.533   2.221  1.9364  1.2879  0.3287
  679MOL0     H93669   7.942   5.406   2.133 -1.0421  0.1478  0.2663
  679MOL0     H93670   7.874   5.668   1.999 -0.3517  0.8519  0.6050
  679MOL0     H93671   7.984   5.543   1.956 -0.7290  0.1904  0.0542
  679MOL0     H93672   8.115   5.615   2.176  4.4170  2.2997 -2.5090
  679MOL0     H93673   8.004   5.746   2.191  0.7821  0.4090  1.7200
  679MOL0     H93674   8.054   5.790   1.924 -2.3001  1.0423  1.5857
  679MOL0     H93675   8.126   5.869   2.060 -0.7332  1.5951 -2.6370
  679MOL0     H93676   8.232   5.603   1.943  0.0249 -0.3124 -1.0696
  679MOL0     H93677   8.321   5.717   2.054  2.8863  2.7891 -1.6942
  679MOL0     H93678   8.324   5.891   1.878 -1.1729 -0.1414 -0.4043
  679MOL0     H93679   8.247   5.791   1.765  0.1106 -1.0268 -0.6311
  679MOL0     H93680   8.447   5.621   1.789 -1.7066 -0.4367  0.5023
  679MOL0     H93681   8.510   5.704   1.913 -2.2398 -2.6420  0.9588
  679MOL0     H93682   7.634   5.124   1.952 -0.5206  2.3797  3.7977
  679MOL0     H93683   7.415   5.073   1.854  1.4814 -0.1850 -3.2377
  679MOL0     H93684   7.152   5.021   1.676  0.3262 -0.3256 -1.0296
  679MOL0     H93685   6.962   4.878   1.645  1.1947 -0.4623 -1.0120
  679MOL0     H93686   6.355   3.313   1.488 -1.1649 -0.3173  2.3901
  679MOL0     H93687   6.323   3.094   1.599  0.9277  1.3004 -0.4401
  679MOL0     H93688   5.823   2.707   1.539 -0.6281  0.8476  0.1730
  679MOL0     H93689   5.773   2.499   1.646  0.0626  0.4216 -1.6236
  679MOL0     H93690   5.756   2.329   1.775  2.5796  2.1482 -1.2310
  679MOL0     H93691   5.826   2.229   1.899 -0.3621  0.7121  0.6415
  679MOL0     H93692   5.761   2.538   1.921 -0.6041 -0.0239 -1.2079
  679MOL0     H93693   5.847   2.450   2.047  0.8936  4.0643 -1.2582
  679MOL0     H93694   5.571   2.469   2.041 -2.9665 -1.8320  0.5742
  679MOL0     H93695   5.592   2.333   1.945  3.2964 -1.4963 -1.4659
  679MOL0     H93696   5.768   2.240   2.149  0.3526  1.6210 -0.7411
  679MOL0     H93697   5.593   2.217   2.164 -0.6605  0.3987  1.8848
  679MOL0     H93698   5.662   2.567   2.412 -0.3923  0.3636  0.3688
  679MOL0     H93699   6.171   2.463   1.790 -2.2900 -1.6280  1.0445
  679MOL0     H93700   6.312   2.681   1.556  1.0061 -1.0105 -0.0320
  679MOL0     H93701   6.296   2.771   1.697  0.8049 -0.0975 -1.5798
  679MOL0     H93702   6.334   2.595   1.712 -0.7108 -0.2669  0.0558
  680MOL0     O93703   3.587   5.607   8.578 -0.1353  0.1039  1.0947
  680MOL0     C93704   3.513   5.580   8.490 -0.7292  0.6758  1.5462
  680MOL0     O93705   3.536   5.470   8.407  0.3407  0.0689 -1.1688
  680MOL0     C93706   3.653   5.398   8.430 -0.8996 -0.5426 -0.0608
  680MOL0     C93707   3.781   5.427   8.364  0.1914 -0.4254  0.5849
  680MOL0     C93708   3.901   5.367   8.385  0.4334 -1.1243  0.4731
  680MOL0     C93709   3.904   5.264   8.475 -0.2872  0.6480 -0.1330
  680MOL0     O93710   4.025   5.199   8.514 -0.1753 -0.0875  0.4621
  680MOL0     C93711   4.043   5.071   8.454  0.2472 -0.9495  0.0648
  680MOL0     C93712   4.095   5.105   8.316 -0.2428  0.0706  0.0659
  680MOL0     C93713   4.242   5.119   8.307  0.2401 -0.2024 -0.2761
  680MOL0     C93714   4.276   5.188   8.169 -0.0960  0.1468  0.6680
  680MOL0     C93715   4.425   5.168   8.135  0.1909 -0.9370  1.0439
  680MOL0     C93716   4.486   5.276   8.047  0.0573  0.2383  0.2005
  680MOL0     C93717   4.646   5.249   8.027 -0.0866 -0.7547 -0.4244
  680MOL0     C93718   4.691   5.124   7.946  0.0760 -0.1967 -0.1488
  680MOL0     N93719   4.647   5.138   7.808 -0.8501  0.3070  0.8724
  680MOL0     C93720   4.658   5.249   7.740 -0.1777  0.0934  0.4454
  680MOL0     C93721   4.568   5.231   7.637  0.2072 -0.5342 -0.1888
  680MOL0     C93722   4.525   5.335   7.537  0.8205  0.0275 -0.4977
  680MOL0     C93723   4.589   5.314   7.408 -0.0314 -0.0000  0.1031
  680MOL0     C93724   4.554   5.437   7.315  0.0030 -0.0562 -0.1240
  680MOL0     C93725   4.630   5.427   7.176 -0.4149  0.9299  0.0983
  680MOL0     O93726   4.584   5.522   7.083 -0.5884  0.5949 -0.3902
  680MOL0     C93727   4.630   5.502   6.958 -0.5629  0.5333  0.1759
  680MOL0     C93728   4.767   5.496   6.935  0.0575  0.7949 -0.3370
  680MOL0     C93729   4.814   5.481   6.800  0.3467  0.2346 -0.8638
  680MOL0     C93730   4.959   5.483   6.782  0.1207 -0.1618 -0.7118
  680MOL0     C93731   4.726   5.476   6.693 -0.6674 -0.4810 -0.0365
  680MOL0     C93732   4.775   5.458   6.544  0.5819 -0.6979 -0.3753
  680MOL0     O93733   4.699   5.533   6.462  0.3583 -0.4465  0.0146
  680MOL0     C93734   4.725   5.543   6.327  0.7281  0.1611 -1.3932
  680MOL0     C93735   4.619   5.549   6.250  0.3426  0.6901 -0.1952
  680MOL0     C93736   4.623   5.568   6.116 -0.3530 -0.6596 -0.4504
  680MOL0     C93737   4.750   5.586   6.060 -0.1631  0.6338 -0.5314
  680MOL0     O93738   4.771   5.619   5.932 -0.0929  0.2102 -0.2490
  680MOL0     C93739   4.676   5.573   5.834 -0.3269  0.2606  0.2492
  680MOL0     C93740   4.739   5.497   5.719 -0.3593  0.1292 -0.5973
  680MOL0     C93741   4.791   5.360   5.774  0.0209  0.0678  0.4062
  680MOL0     C93742   4.683   5.254   5.733 -0.3842 -0.7498  0.3113
  680MOL0     C93743   4.704   5.132   5.821  0.4931  0.0066  0.0718
  680MOL0     C93744   4.841   5.048   5.792 -0.8518 -0.9175  0.6002
  680MOL0     C93745   4.824   4.974   5.651 -0.5401 -0.2551 -0.6848
  680MOL0     C93746   4.957   4.949   5.575  0.3123 -0.6758 -0.0460
  680MOL0    Cl93747   5.046   5.103   5.532  0.0701  0.1292 -0.6001
  680MOL0     C93748   4.864   5.577   6.138  0.1757  0.4615  0.4826
  680MOL0     C93749   4.857   5.552   6.272  0.2024  0.4013 -0.0821
  680MOL0     O93750   4.849   5.365   6.514  0.0338  0.2640 -0.1293
  680MOL0     C93751   4.591   5.486   6.713 -0.1912  0.1854  0.3467
  680MOL0     C93752   4.540   5.504   6.842  0.0937  0.4736 -0.0999
  680MOL0     N93753   4.512   5.103   7.637  0.0212 -0.0720 -0.3910
  680MOL0     N93754   4.565   5.046   7.735 -0.4227 -0.0560  0.2473
  680MOL0     C93755   3.788   5.221   8.548 -0.0311 -0.1412  0.0214
  680MOL0     C93756   3.667   5.296   8.526 -1.1036 -0.6973 -0.1692
  680MOL0     C93757   3.398   5.674   8.462 -0.7033  0.1122 -0.1110
  680MOL0     C93758   3.270   5.625   8.428  1.0537  0.5135  0.6434
  680MOL0     C93759   3.160   5.702   8.398 -0.1322 -0.5390  0.7541
  680MOL0     C93760   3.171   5.841   8.412 -0.1985 -0.5376  0.0801
  680MOL0     O93761   3.056   5.908   8.387 -0.1837 -0.2984  0.2444
  680MOL0     C93762   3.022   6.025   8.466 -0.5505  0.0899  0.1466
  680MOL0     C93763   3.060   6.156   8.410 -0.0072 -0.1953  0.1847
  680MOL0     C93764   3.034   6.273   8.505 -0.1329  0.1892 -1.0040
  680MOL0     C93765   3.059   6.412   8.451 -0.1606  0.0987 -0.5439
  680MOL0     C93766   3.163   6.417   8.345 -0.1437 -0.6756  0.1723
  680MOL0     C93767   3.253   6.419   8.265  0.2003  0.3111  0.7340
  680MOL0     C93768   3.295   5.897   8.464  0.9209  0.6517 -0.2584
  680MOL0     C93769   3.403   5.816   8.466 -1.1012 -0.3372 -0.6874
  680MOL0     C93770   3.542   5.888   8.501  0.0952  0.6680 -0.0798
  680MOL0     H93771   3.774   5.495   8.280 -0.0386 -0.5294  0.5165
  680MOL0     H93772   3.983   5.401   8.322 -0.5359 -1.8345 -1.2439
  680MOL0     H93773   3.945   5.023   8.456 -1.3272  2.0047 -0.6157
  680MOL0     H93774   4.114   5.017   8.517  0.4045  1.2335  1.8831
  680MOL0     H93775   4.076   5.015   8.256  0.1904  1.0381 -1.6115
  680MOL0     H93776   4.040   5.186   8.267  0.0108 -0.2560 -0.7975
  680MOL0     H93777   4.261   5.200   8.378 -1.2493 -1.7171  2.0202
  680MOL0     H93778   4.297   5.028   8.332 -0.6860 -1.4184 -2.4394
  680MOL0     H93779   4.221   5.137   8.090  0.8100  0.3298 -0.0858
  680MOL0     H93780   4.253   5.295   8.169 -0.6122  0.0768  2.4520
  680MOL0     H93781   4.428   5.073   8.081 -2.7769 -1.6558  1.9425
  680MOL0     H93782   4.493   5.161   8.221  0.6892  2.6784  1.1213
  680MOL0     H93783   4.436   5.278   7.949 -0.4199 -1.1920  0.3864
  680MOL0     H93784   4.460   5.374   8.087 -2.2761 -0.2956  0.1631
  680MOL0     H93785   4.681   5.252   8.130  0.2912 -0.6282 -0.5532
  680MOL0     H93786   4.689   5.335   7.975 -0.1792 -0.8429 -0.6499
  680MOL0     H93787   4.801   5.119   7.944  0.1823  0.4429  1.6396
  680MOL0     H93788   4.641   5.032   7.979 -1.2547 -0.8439 -3.5375
  680MOL0     H93789   4.715   5.338   7.763  2.4465 -1.4521  0.2696
  680MOL0     H93790   4.538   5.440   7.564 -4.1383  0.2894  2.0091
  680MOL0     H93791   4.418   5.327   7.521  1.1259 -1.1064 -2.2392
  680MOL0     H93792   4.698   5.305   7.418 -0.1472  0.6396  2.2317
  680MOL0     H93793   4.549   5.228   7.353  1.3935 -1.2697  0.9826
  680MOL0     H93794   4.446   5.445   7.300 -0.1579  1.0193  1.3060
  680MOL0     H93795   4.590   5.531   7.358 -0.7216 -0.1243  0.6718
  680MOL0     H93796   4.737   5.440   7.191 -0.2720 -1.5398  1.7599
  680MOL0     H93797   4.611   5.326   7.139 -4.9408  0.8663  1.8397
  680MOL0     H93798   4.840   5.497   7.016  0.8892 -2.7789 -0.8824
  680MOL0     H93799   5.007   5.462   6.877 -1.0763 -0.3604 -0.1293
  680MOL0     H93800   4.992   5.584   6.752 -0.8515  0.3413 -0.1357
  680MOL0     H93801   5.004   5.408   6.717  2.3394  0.6653 -0.2225
  680MOL0     H93802   4.519   5.526   6.284  0.8139 -0.1757  0.6810
  680MOL0     H93803   4.533   5.584   6.057 -0.5298  3.2443  0.6058
  680MOL0     H93804   4.591   5.522   5.881 -1.1097  0.6858 -0.6656
  680MOL0     H93805   4.632   5.656   5.779 -0.6686 -0.4516 -0.5802
  680MOL0     H93806   4.669   5.460   5.644  1.6612 -2.1130 -1.4901
  680MOL0     H93807   4.818   5.563   5.682 -0.6710  2.1998  2.0553
  680MOL0     H93808   4.802   5.366   5.883  2.9702  2.4359  0.1276
  680MOL0     H93809   4.890   5.338   5.733  0.5276  1.0195  1.0647
  680MOL0     H93810   4.684   5.229   5.627 -1.8711  0.4992 -0.0310
  680MOL0     H93811   4.580   5.286   5.751 -0.2952 -0.5138  0.4161
  680MOL0     H93812   4.702   5.154   5.928 -0.7583 -2.8276  0.7363
  680MOL0     H93813   4.620   5.066   5.794  1.8965 -1.3369 -1.1987
  680MOL0     H93814   4.859   4.980   5.876 -0.1317  0.2047  1.3799
  680MOL0     H93815   4.925   5.118   5.794  0.3068 -2.2599  1.3219
  680MOL0     H93816   4.758   5.032   5.586 -1.8888 -1.8784 -0.8470
  680MOL0     H93817   4.766   4.882   5.666 -0.0610 -0.1449  2.4568
  680MOL0     H93818   4.938   4.896   5.482 -1.3939  3.7170 -2.4955
  680MOL0     H93819   5.024   4.892   5.640 -1.7164 -1.2910  1.6224
  680MOL0     H93820   4.955   5.601   6.084  0.8411  3.9834  2.7837
  680MOL0     H93821   4.939   5.543   6.343 -0.9378 -1.7895  1.0748
  680MOL0     H93822   4.526   5.473   6.627  2.9109 -0.7941 -2.0081
  680MOL0     H93823   4.433   5.505   6.857  0.2585  3.4973  1.8415
  680MOL0     H93824   3.794   5.145   8.625  2.1754 -0.2966 -0.2448
  680MOL0     H93825   3.574   5.257   8.567  0.2340 -3.7349  0.3079
  680MOL0     H93826   3.260   5.517   8.432  0.1099  0.4381 -1.9255
  680MOL0     H93827   3.062   5.657   8.394 -1.5241  2.0384  2.6102
  680MOL0     H93828   2.914   6.023   8.477 -0.3530  1.8448  4.0567
  680MOL0     H93829   3.069   6.016   8.565  1.4529  0.4841 -0.7256
  680MOL0     H93830   3.005   6.177   8.317  1.3974  1.2157 -0.3792
  680MOL0     H93831   3.169   6.152   8.399 -0.0975 -0.9460 -0.5714
  680MOL0     H93832   2.937   6.268   8.555  0.1017 -0.8693 -0.6193
  680MOL0     H93833   3.115   6.261   8.579 -1.5991 -0.9952  0.4825
  680MOL0     H93834   3.088   6.474   8.537  0.0935 -0.9707  0.1510
  680MOL0     H93835   2.961   6.449   8.421 -0.5928  0.0013  0.6889
  680MOL0     H93836   3.339   6.429   8.202 -1.0497  0.5516 -1.0254
  680MOL0     H93837   3.311   5.998   8.498 -2.1594  0.5321  1.8569
  680MOL0     H93838   3.524   5.995   8.521  1.8324  0.4655  3.3614
  680MOL0     H93839   3.591   5.838   8.585  1.9820  2.3588 -0.0794
  680MOL0     H93840   3.605   5.875   8.413 -2.2176 -4.2653 -1.3373
  681MOL0     O93841   8.788   0.860   4.779 -0.0845  0.8965  0.3059
  681MOL0     C93842   8.693   0.841   4.845  0.4933  0.3881 -0.5922
  681MOL0     O93843   8.571   0.800   4.807 -0.9831 -0.8965 -0.4660
  681MOL0     C93844   8.532   0.806   4.675  0.1498  0.0984  0.0183
  681MOL0     C93845   8.609   0.826   4.560  0.6714 -0.1158  0.3536
  681MOL0     C93846   8.543   0.811   4.438 -0.6330 -0.1137  0.0415
  681MOL0     C93847   8.411   0.762   4.431 -0.0976 -1.4385 -0.1831
  681MOL0     O93848   8.341   0.765   4.309 -0.4824  0.3689  0.4320
  681MOL0     C93849   8.326   0.895   4.262 -0.8477  0.0888 -0.5415
  681MOL0     C93850   8.256   0.894   4.128 -0.7203 -0.5108 -0.0754
  681MOL0     C93851   8.312   0.812   4.013 -0.2001  0.1182 -0.5889
  681MOL0     C93852   8.308   0.659   4.042 -0.2687  0.9054 -0.3239
  681MOL0     C93853   8.281   0.591   3.916 -1.1058 -1.3353  1.1999
  681MOL0     C93854   8.284   0.443   3.922  0.2884  0.5026  0.1162
  681MOL0     C93855   8.416   0.371   3.969  0.3227  0.0815 -0.9758
  681MOL0     C93856   8.417   0.223   3.924 -0.2325  0.5327  0.4404
  681MOL0     N93857   8.286   0.161   3.954 -1.0775  0.7156  0.4340
  681MOL0     C93858   8.272   0.089   4.065  1.1574 -0.1138  0.6605
  681MOL0     C93859   8.138   0.070   4.084  0.3232  0.2847  0.1626
  681MOL0     C93860   8.053  -0.004   4.196  0.2099 -0.3112  0.3891
  681MOL0     C93861   7.919   0.069   4.227 -0.0442 -0.2408  0.4813
  681MOL0     C93862   7.873   0.020   4.362  0.2764  0.4459 -0.5741
  681MOL0     C93863   7.740   0.069   4.425 -0.4419 -0.5248  0.5393
  681MOL0     O93864   7.737   0.218   4.442 -0.8076 -0.4892  0.0655
  681MOL0     C93865   7.809   0.274   4.545 -0.2263  0.0633 -0.3604
  681MOL0     C93866   7.869   0.199   4.661  0.0908 -0.8463 -0.9254
  681MOL0     C93867   7.916   0.277   4.770 -0.5085  0.7876  0.0780
  681MOL0     C93868   7.968   0.187   4.884  0.0359  0.3716 -0.6937
  681MOL0     C93869   7.909   0.417   4.781 -0.3024  0.2863  0.5155
  681MOL0     C93870   7.970   0.493   4.899 -0.4756  0.9170  0.5896
  681MOL0     O93871   8.108   0.477   4.923  1.1129  0.2201  0.3578
  681MOL0     C93872   8.164   0.520   5.033  0.6961 -1.0264 -0.1804
  681MOL0     C93873   8.159   0.649   5.088 -0.5582 -0.1731  0.2712
  681MOL0     C93874   8.246   0.684   5.198 -0.8434  0.7503 -0.0396
  681MOL0     C93875   8.343   0.590   5.245  0.2802  0.4906  1.3191
  681MOL0     O93876   8.438   0.597   5.346 -0.2758  0.2760  0.1869
  681MOL0     C93877   8.458   0.714   5.426  0.5591 -0.3612  0.0754
  681MOL0     C93878   8.330   0.760   5.508 -0.8815 -0.4996 -0.2347
  681MOL0     C93879   8.365   0.841   5.637  0.4390 -0.2562 -0.0528
  681MOL0     C93880   8.408   0.758   5.756  1.1171  1.2883 -0.2845
  681MOL0     C93881   8.303   0.651   5.804  0.5904 -0.8939  0.4477
  681MOL0     C93882   8.331   0.508   5.758  0.3486 -0.4123  0.8842
  681MOL0     C93883   8.217   0.409   5.785  0.8629  0.3389 -0.4216
  681MOL0     C93884   8.106   0.434   5.690  1.1584 -0.5789 -0.2033
  681MOL0    Cl93885   8.153   0.363   5.527  0.2491  0.0223  0.2825
  681MOL0     C93886   8.346   0.464   5.187 -0.3370  0.0709  0.0544
  681MOL0     C93887   8.261   0.434   5.081 -0.1537  0.1416 -0.5315
  681MOL0     O93888   7.896   0.562   4.964 -0.1786  0.3132  0.1387
  681MOL0     C93889   7.857   0.482   4.660 -1.0408  0.4358  0.7792
  681MOL0     C93890   7.819   0.411   4.543 -0.7615  0.2508 -0.7128
  681MOL0     N93891   8.080   0.133   3.978 -0.2289  0.6132  0.9213
  681MOL0     N93892   8.166   0.184   3.900 -0.2380  0.4927  1.1681
  681MOL0     C93893   8.334   0.736   4.539 -0.0139 -0.6590 -0.2352
  681MOL0     C93894   8.396   0.766   4.664 -0.3386 -0.5354  0.0229
  681MOL0     C93895   8.726   0.840   4.992  0.8992  0.5242  0.0747
  681MOL0     C93896   8.668   0.746   5.069 -0.4747 -1.1892  0.2473
  681MOL0     C93897   8.706   0.722   5.202 -0.0329 -0.0747 -0.0159
  681MOL0     C93898   8.806   0.798   5.259  0.2590 -0.2952  0.4936
  681MOL0     O93899   8.840   0.758   5.386 -0.3626 -0.3661 -0.4213
  681MOL0     C93900   8.935   0.837   5.466 -0.1316  1.1034  0.4204
  681MOL0     C93901   8.959   0.752   5.586  0.2152 -0.5020 -0.2471
  681MOL0     C93902   8.819   0.702   5.642 -0.9463 -0.0882  0.9304
  681MOL0     C93903   8.860   0.619   5.769 -0.8264 -0.3177  0.0245
  681MOL0     C93904   8.809   0.682   5.889  0.3430  1.3099  0.2202
  681MOL0     C93905   8.772   0.747   5.984  0.7673 -0.0429 -0.9927
  681MOL0     C93906   8.855   0.900   5.181 -0.7159  0.3108  0.9319
  681MOL0     C93907   8.822   0.925   5.053  0.2460 -0.2355  0.0511
  681MOL0     C93908   8.907   1.045   4.991  0.4486 -0.6520 -0.4762
  681MOL0     H93909   8.714   0.853   4.564  0.7266 -0.1390 -0.7768
  681MOL0     H93910   8.595   0.829   4.344  0.3923 -0.9400  0.4287
  681MOL0     H93911   8.426   0.939   4.251 -1.2109  1.4341  1.1461
  681MOL0     H93912   8.272   0.957   4.333  1.5747 -0.6338  2.1275
  681MOL0     H93913   8.153   0.861   4.144 -1.0464  0.6860  0.3969
  681MOL0     H93914   8.231   0.994   4.093  0.8102  0.2654  0.9327
  681MOL0     H93915   8.254   0.836   3.923  1.0549 -2.7649 -2.3373
  681MOL0     H93916   8.413   0.847   3.990 -0.3507 -1.4213 -4.3210
  681MOL0     H93917   8.403   0.636   4.091  0.4572  2.3253 -0.9969
  681MOL0     H93918   8.236   0.630   4.119  1.3652  0.4394  1.1037
  681MOL0     H93919   8.352   0.630   3.843 -3.1447 -0.3320 -0.3337
  681MOL0     H93920   8.184   0.630   3.886  0.5831  4.0028  1.5716
  681MOL0     H93921   8.203   0.417   3.991  3.2815  1.8555  4.5617
  681MOL0     H93922   8.268   0.408   3.819  3.4210  0.3796 -0.4338
  681MOL0     H93923   8.422   0.385   4.077 -1.2238 -3.2644 -0.2972
  681MOL0     H93924   8.491   0.434   3.921 -0.2970  5.0340  3.6209
  681MOL0     H93925   8.431   0.215   3.816 -0.4708  0.1680  0.4374
  681MOL0     H93926   8.492   0.176   3.987 -1.0382 -1.9111 -0.3248
  681MOL0     H93927   8.345   0.065   4.142  0.5510 -0.5469  1.1173
  681MOL0     H93928   8.110  -0.014   4.289  1.1266 -2.2869 -0.3433
  681MOL0     H93929   8.036  -0.106   4.160  0.7768  0.3529 -1.9291
  681MOL0     H93930   7.941   0.176   4.234  3.0340 -0.6898 -0.6062
  681MOL0     H93931   7.851   0.050   4.144  1.3144  1.5463 -1.1437
  681MOL0     H93932   7.878  -0.089   4.357 -3.5274  0.1546 -0.9132
  681MOL0     H93933   7.950   0.042   4.437  2.6594  0.7508 -2.9249
  681MOL0     H93934   7.653   0.047   4.362 -0.3294  1.5666 -0.4381
  681MOL0     H93935   7.717   0.026   4.522  0.0949 -2.7045 -0.2431
  681MOL0     H93936   7.875   0.092   4.677 -0.4750 -0.5801  1.4305
  681MOL0     H93937   7.956   0.220   4.988  0.5551  1.6515 -1.0268
  681MOL0     H93938   8.074   0.167   4.869  0.6083  3.1814 -0.7585
  681MOL0     H93939   7.905   0.097   4.886 -0.8048  0.9362  1.2689
  681MOL0     H93940   8.088   0.722   5.052  0.0759 -0.3512 -1.4100
  681MOL0     H93941   8.232   0.785   5.236  0.3922  0.0124  2.5869
  681MOL0     H93942   8.536   0.690   5.499  2.4628  1.9272 -1.0831
  681MOL0     H93943   8.494   0.790   5.356  2.7535 -2.3543 -1.1351
  681MOL0     H93944   8.270   0.819   5.437  1.7788  0.2443 -2.0065
  681MOL0     H93945   8.267   0.680   5.548  0.1659 -0.3698  1.7560
  681MOL0     H93946   8.284   0.907   5.670  1.6778  1.7579 -0.8560
  681MOL0     H93947   8.441   0.915   5.609  2.2613 -2.3775 -1.0145
  681MOL0     H93948   8.424   0.829   5.838 -1.7509 -0.1963  1.7230
  681MOL0     H93949   8.502   0.706   5.734 -0.1594 -0.4649 -1.9588
  681MOL0     H93950   8.303   0.655   5.913  0.8809 -1.0541  0.4562
  681MOL0     H93951   8.204   0.683   5.772  1.6517  0.8878 -1.3133
  681MOL0     H93952   8.428   0.482   5.803  0.1439  1.3216  2.4076
  681MOL0     H93953   8.342   0.510   5.649 -1.5747  0.8486  0.6676
  681MOL0     H93954   8.193   0.425   5.891  0.5903 -2.0787 -0.0591
  681MOL0     H93955   8.246   0.305   5.769  0.9672  0.2194  0.4764
  681MOL0     H93956   8.069   0.536   5.699  0.7935 -0.8090  1.0780
  681MOL0     H93957   8.031   0.361   5.723  1.5953 -0.6806  0.5870
  681MOL0     H93958   8.423   0.391   5.210 -3.2425 -3.5209 -0.6030
  681MOL0     H93959   8.253   0.337   5.033  0.5902 -0.7785  1.1391
  681MOL0     H93960   7.871   0.590   4.653  0.6908  0.1682 -0.5357
  681MOL0     H93961   7.778   0.460   4.455  1.4803  1.3305 -1.2379
  681MOL0     H93962   8.233   0.697   4.547 -0.9091  1.4013 -0.7730
  681MOL0     H93963   8.328   0.749   4.747 -0.2849 -0.2558  0.1250
  681MOL0     H93964   8.586   0.695   5.019 -3.9374  3.3696  0.6459
  681MOL0     H93965   8.657   0.651   5.267 -3.2499  2.8839  1.1467
  681MOL0     H93966   9.027   0.857   5.410  0.8637 -3.4204  0.0518
  681MOL0     H93967   8.893   0.930   5.505 -0.7872 -0.0871  2.7056
  681MOL0     H93968   9.015   0.792   5.670 -0.3557 -0.7728  0.2716
  681MOL0     H93969   9.012   0.661   5.556 -0.6562 -1.7337  1.7006
  681MOL0     H93970   8.749   0.784   5.655 -2.5876 -0.9101 -1.8082
  681MOL0     H93971   8.772   0.627   5.577 -0.0100 -0.8284  1.0786
  681MOL0     H93972   8.967   0.620   5.792 -0.3086  0.8113 -2.1116
  681MOL0     H93973   8.823   0.518   5.749 -1.2451  0.0440 -1.1105
  681MOL0     H93974   8.735   0.815   6.058 -0.6266  0.6867 -2.2947
  681MOL0     H93975   8.934   0.953   5.234 -0.7302 -0.3976  1.6947
  681MOL0     H93976   8.940   1.126   5.057  0.5052 -0.6031 -0.5647
  681MOL0     H93977   8.989   1.000   4.936  0.7490  0.6531 -1.1421
  681MOL0     H93978   8.852   1.092   4.909 -0.3112  0.1643  0.4648
  682MOL0     O93979   7.706  10.671   2.098  0.1345 -0.0949  0.5829
  682MOL0     C93980   7.814  10.655   2.161 -1.3975  0.4324  0.4042
  682MOL0     O93981   7.873  10.743   2.245 -0.3262  0.9888  0.4541
  682MOL0     C93982   7.783  10.815   2.319 -0.8068 -0.1860 -0.5856
  682MOL0     C93983   7.766  10.786   2.454  0.4396 -0.6509  0.2280
  682MOL0     C93984   7.675  10.860   2.530  0.5846 -0.1356 -0.1464
  682MOL0     C93985   7.613  10.978   2.485 -0.5389  0.4337 -0.4642
  682MOL0     O93986   7.534  11.046   2.573 -0.2915 -0.6982  0.1694
  682MOL0     C93987   7.408  11.099   2.532 -0.0011  0.2334 -0.0648
  682MOL0     C93988   7.360  11.213   2.626  1.2564  0.3517 -0.2382
  682MOL0     C93989   7.332  11.345   2.556  0.3158  0.5254  0.6147
  682MOL0     C93990   7.270  11.441   2.658  0.5481  0.0006 -0.2875
  682MOL0     C93991   7.247  11.581   2.596 -0.2965  0.0499  0.5586
  682MOL0     C93992   7.122  11.597   2.506  0.9322  0.1430 -0.4893
  682MOL0     C93993   7.089  11.745   2.488  0.0692  1.4207  0.7377
  682MOL0     C93994   7.009  11.771   2.365  0.2182 -0.1737 -0.5309
  682MOL0     N93995   6.877  11.700   2.349 -0.1613 -1.1910 -0.5453
  682MOL0     C93996   6.796  11.662   2.446 -0.5509 -0.2532 -0.1431
  682MOL0     C93997   6.696  11.593   2.383 -0.6861 -0.0631 -0.8853
  682MOL0     C93998   6.601  11.512   2.472  0.3585 -0.0453  0.5478
  682MOL0     C93999   6.459  11.564   2.454 -0.9766 -0.9288 -0.8905
  682MOL0     C94000   6.396  11.518   2.325 -0.5819 -0.5265 -0.5621
  682MOL0     C94001   6.251  11.554   2.318  0.3115  0.0454 -0.1744
  682MOL0     O94002   6.185  11.493   2.204  0.9023 -1.1217  0.0795
  682MOL0     C94003   6.161  11.362   2.210 -0.2713 -0.3276 -0.5522
  682MOL0     C94004   6.060  11.329   2.303  0.5811 -0.4463 -0.0655
  682MOL0     C94005   6.041  11.190   2.348  0.5964 -0.2703 -0.4540
  682MOL0     C94006   5.924  11.158   2.440 -1.0789  0.3046  0.2667
  682MOL0     C94007   6.130  11.094   2.281  0.9857  0.4189 -0.6651
  682MOL0     C94008   6.121  10.944   2.322  0.0307  0.1708  0.5708
  682MOL0     O94009   6.088  10.918   2.444 -0.4071 -0.2294  0.3959
  682MOL0     C94010   6.061  10.787   2.495 -0.2800 -1.0400 -0.3872
  682MOL0     C94011   6.093  10.664   2.438 -0.2640  0.1361 -0.6493
  682MOL0     C94012   6.047  10.547   2.500  0.6208 -1.1988 -0.7641
  682MOL0     C94013   5.989  10.556   2.633  0.1524 -1.1143  0.9912
  682MOL0     O94014   5.936  10.454   2.697 -0.2615  0.2629 -0.2510
  682MOL0     C94015   5.948  10.323   2.641  0.2445  0.9984 -0.2078
  682MOL0     C94016   5.943  10.229   2.772 -0.3301  0.8460  0.1486
  682MOL0     C94017   6.041  10.113   2.750 -0.6803 -0.8230  0.9910
  682MOL0     C94018   6.051  10.011   2.861  0.1469  0.0160 -0.7194
  682MOL0     C94019   6.056  10.080   3.008  0.1890 -0.1193 -0.0486
  682MOL0     C94020   6.084   9.974   3.112  0.5078 -1.7834 -0.1894
  682MOL0     C94021   6.173  10.035   3.223 -0.2520 -0.1191  0.2143
  682MOL0     C94022   6.206   9.927   3.321  0.0623  0.1985 -0.4449
  682MOL0    Cl94023   6.295  10.012   3.469  0.0438  0.0660  0.3016
  682MOL0     C94024   5.971  10.687   2.687 -0.1259  0.6639  0.9417
  682MOL0     C94025   5.997  10.796   2.625 -0.2680 -0.4285  0.0395
  682MOL0     O94026   6.168  10.858   2.248  0.4725 -0.1620  0.6479
  682MOL0     C94027   6.215  11.130   2.180  0.6890 -0.3072 -0.1524
  682MOL0     C94028   6.240  11.266   2.152  0.7553  0.9782  0.1926
  682MOL0     N94029   6.723  11.592   2.246  0.2813  0.6308  0.4634
  682MOL0     N94030   6.823  11.656   2.226  1.0170 -0.4129  0.5050
  682MOL0     C94031   7.629  11.013   2.349 -0.5709 -0.0571  0.3148
  682MOL0     C94032   7.722  10.935   2.274  0.4997 -0.0293 -0.0425
  682MOL0     C94033   7.880  10.521   2.164  0.7908 -0.1259 -0.5736
  682MOL0     C94034   8.013  10.501   2.208  0.7431  0.2680 -0.9940
  682MOL0     C94035   8.075  10.375   2.207 -0.4772 -0.2397 -0.9229
  682MOL0     C94036   8.008  10.265   2.162  0.1152  0.7720 -0.8445
  682MOL0     O94037   8.076  10.141   2.178  1.2136 -0.4668  0.0600
  682MOL0     C94038   8.067  10.048   2.066  1.1471 -0.5034 -0.1592
  682MOL0     C94039   8.197  10.065   1.987  1.0151  0.9204 -0.1663
  682MOL0     C94040   8.306  10.020   2.075 -0.3230  0.0811  0.6910
  682MOL0     C94041   8.443  10.065   2.008  0.7586 -0.2289 -0.1713
  682MOL0     C94042   8.455  10.024   1.869 -0.2233  0.4925 -0.1719
  682MOL0     C94043   8.469  10.005   1.751 -0.4726 -0.2702  0.6228
  682MOL0     C94044   7.880  10.285   2.115 -0.0300 -0.2275 -0.5724
  682MOL0     C94045   7.817  10.407   2.117  0.7418 -0.8721 -0.4602
  682MOL0     C94046   7.672  10.396   2.085  0.2624  0.6150  0.1126
  682MOL0     H94047   7.820  10.704   2.500  1.7794  1.5106  2.7537
  682MOL0     H94048   7.659  10.846   2.636 -0.3598  0.8301 -0.1377
  682MOL0     H94049   7.337  11.017   2.518  0.1204  0.0516  0.3486
  682MOL0     H94050   7.429  11.147   2.436 -0.6443  1.8483  0.5715
  682MOL0     H94051   7.273  11.181   2.684  0.4141  2.5659 -0.1754
  682MOL0     H94052   7.434  11.215   2.706 -0.4902  1.4241  1.4157
  682MOL0     H94053   7.431  11.388   2.535  0.0527  1.5163  1.2958
  682MOL0     H94054   7.266  11.331   2.470 -0.6000 -0.7961  1.5018
  682MOL0     H94055   7.173  11.403   2.692 -0.5872  1.8149 -1.3067
  682MOL0     H94056   7.325  11.442   2.752 -0.8332 -2.5596  0.6342
  682MOL0     H94057   7.343  11.606   2.550 -0.3129 -2.0779 -0.7605
  682MOL0     H94058   7.225  11.643   2.684 -2.1307 -2.9804  2.4016
  682MOL0     H94059   7.146  11.549   2.411 -1.1886 -2.9677  0.3770
  682MOL0     H94060   7.033  11.547   2.544  1.8456 -0.6409  0.6815
  682MOL0     H94061   7.186  11.795   2.483  2.8864 -3.5358 -1.0894
  682MOL0     H94062   7.031  11.802   2.562 -1.1235  0.6159  0.4439
  682MOL0     H94063   6.996  11.880   2.362  4.5836  0.5652  0.6405
  682MOL0     H94064   7.073  11.760   2.277 -0.1853 -0.1727 -0.8287
  682MOL0     H94065   6.818  11.678   2.551  4.3652  2.7604 -1.3160
  682MOL0     H94066   6.624  11.505   2.579  0.0234  0.7136  0.6771
  682MOL0     H94067   6.620  11.410   2.438 -1.7285  0.3843 -2.2013
  682MOL0     H94068   6.411  11.528   2.546  1.9295 -1.3130  0.5697
  682MOL0     H94069   6.456  11.673   2.458  0.5486 -0.9195  1.1777
  682MOL0     H94070   6.452  11.549   2.237 -0.7049  0.5544 -0.2713
  682MOL0     H94071   6.412  11.410   2.323  2.4331 -0.1565 -1.5878
  682MOL0     H94072   6.207  11.515   2.411  2.4029 -1.2354  0.3326
  682MOL0     H94073   6.242  11.663   2.324 -0.5549 -0.0665  4.3112
  682MOL0     H94074   6.006  11.414   2.343 -0.7947 -0.4022 -1.8593
  682MOL0     H94075   5.962  11.156   2.543  0.0998 -3.3609 -0.1039
  682MOL0     H94076   5.893  11.058   2.409  2.7812 -1.2999  0.9818
  682MOL0     H94077   5.848  11.234   2.418  0.3622  1.5654 -0.6014
  682MOL0     H94078   6.166  10.656   2.358  1.6213 -1.7604  1.1533
  682MOL0     H94079   6.064  10.450   2.454  1.7812 -0.0803 -2.8771
  682MOL0     H94080   5.860  10.308   2.578  0.0552 -3.2809  0.8164
  682MOL0     H94081   6.031  10.291   2.577 -1.2604 -2.2547 -0.7353
  682MOL0     H94082   5.975  10.289   2.858 -0.6863  0.0708  0.8365
  682MOL0     H94083   5.846  10.186   2.798  0.3914 -1.5394 -0.8522
  682MOL0     H94084   6.142  10.143   2.722  0.4936 -3.3966  2.1261
  682MOL0     H94085   5.993  10.060   2.667 -2.0405 -0.7613  1.7013
  682MOL0     H94086   6.143   9.954   2.846  0.6061  0.7139 -0.5875
  682MOL0     H94087   5.962   9.947   2.864 -0.5685  0.9411 -1.4255
  682MOL0     H94088   6.137  10.153   3.009 -0.2500  0.9164 -5.5680
  682MOL0     H94089   5.963  10.131   3.037  1.5028  2.7565 -0.5573
  682MOL0     H94090   6.136   9.887   3.072 -1.3677 -2.8836 -0.3416
  682MOL0     H94091   5.992   9.936   3.159  1.0535 -3.1036 -0.1392
  682MOL0     H94092   6.118  10.116   3.271  2.7483  1.1254  1.8083
  682MOL0     H94093   6.274  10.065   3.196 -0.9760  0.1638 -2.5528
  682MOL0     H94094   6.276   9.849   3.289 -0.7407 -1.7954  2.3017
  682MOL0     H94095   6.117   9.875   3.357  0.8542  1.1045  3.2616
  682MOL0     H94096   5.919  10.701   2.781 -2.0603  2.5806 -0.3034
  682MOL0     H94097   5.964  10.887   2.673 -2.4929 -0.1075 -1.9193
  682MOL0     H94098   6.275  11.055   2.130 -0.4105 -3.6315  3.0156
  682MOL0     H94099   6.318  11.290   2.080  0.6187  2.5075  0.5171
  682MOL0     H94100   7.579  11.097   2.301 -0.4893 -0.2100 -0.0367
  682MOL0     H94101   7.741  10.965   2.172  2.2211 -1.6996 -0.2790
  682MOL0     H94102   8.086  10.576   2.238 -0.3848  1.0525 -0.1438
  682MOL0     H94103   8.176  10.373   2.246 -0.6053 -2.3383 -0.5793
  682MOL0     H94104   8.061   9.950   2.116  3.6638 -1.3086 -1.2588
  682MOL0     H94105   7.974  10.047   2.008  1.0011 -1.4687  0.0728
  682MOL0     H94106   8.215  10.163   1.941 -1.1661  1.2937 -0.3448
  682MOL0     H94107   8.196  10.004   1.897  0.5413  1.6979 -0.7014
  682MOL0     H94108   8.302  10.064   2.175 -2.4983 -1.7550  1.5029
  682MOL0     H94109   8.298   9.912   2.088 -2.5936  0.1665  0.4581
  682MOL0     H94110   8.526  10.020   2.062  2.1342  2.5342  0.2212
  682MOL0     H94111   8.460  10.173   2.011 -1.8187  0.2247  0.5591
  682MOL0     H94112   8.474   9.981   1.646  1.5273  0.8286  0.4114
  682MOL0     H94113   7.836  10.187   2.099  2.0514 -1.2284 -0.5883
  682MOL0     H94114   7.664  10.440   1.986 -1.1108 -0.8466 -0.4584
  682MOL0     H94115   7.641  10.291   2.076 -2.1301  1.4214 -1.9576
  682MOL0     H94116   7.609  10.442   2.162 -0.4236 -1.2927  0.7645
  683MOL0     O94117   9.582   2.006   4.898  0.5055 -0.0124 -0.4846
  683MOL0     C94118   9.683   2.068   4.936 -0.7279  0.1078  0.2860
  683MOL0     O94119   9.813   2.026   4.923 -0.2372  0.3415  0.3288
  683MOL0     C94120   9.832   1.897   4.893  0.5368  0.6040 -0.0055
  683MOL0     C94121   9.811   1.804   4.992  0.3689 -0.3511  0.4552
  683MOL0     C94122   9.839   1.671   4.977 -0.0083  1.1404 -0.2512
  683MOL0     C94123   9.896   1.632   4.861  0.1797  1.3894  0.6207
  683MOL0     O94124   9.927   1.502   4.836 -0.1780  0.4422 -0.0712
  683MOL0     C94125   9.984   1.421   4.950  0.1572 -1.1026 -0.6942
  683MOL0     C94126  10.092   1.325   4.905 -0.2730  0.0248  0.5811
  683MOL0     C94127  10.034   1.212   4.818  0.1666 -0.4285 -0.3587
  683MOL0     C94128  10.092   1.072   4.857 -0.0901 -0.5306  0.2597
  683MOL0     C94129  10.248   1.072   4.870 -0.1375  0.2787  0.1796
  683MOL0     C94130  10.295   0.923   4.868  0.1945 -0.3641  0.1362
  683MOL0     C94131  10.456   0.918   4.882 -0.6541  0.9981 -0.2045
  683MOL0     C94132  10.501   0.809   4.985 -0.4898  0.2797 -0.8451
  683MOL0     N94133  10.644   0.781   4.973 -0.0969  0.0485  0.1578
  683MOL0     C94134  10.692   0.705   4.876  0.0598 -0.9573  1.0385
  683MOL0     C94135  10.805   0.665   4.922 -0.2192 -0.2267 -0.1377
  683MOL0     C94136  10.867   0.559   4.852 -0.3639  0.0845  0.8590
  683MOL0     C94137  11.009   0.520   4.902  0.0467 -1.2550  0.7114
  683MOL0     C94138  11.057   0.393   4.840 -0.1727 -0.7163  0.2823
  683MOL0     C94139  11.193   0.346   4.888  0.3908 -0.1732  0.3355
  683MOL0     O94140  11.214   0.221   4.822 -0.6523  0.6041 -0.2284
  683MOL0     C94141  11.338   0.161   4.833 -0.8855  0.1871  0.4776
  683MOL0     C94142  11.393   0.079   4.737 -0.2311 -0.0060  0.2964
  683MOL0     C94143  11.518   0.010   4.743  0.4103  0.1459  0.7470
  683MOL0     C94144  11.567  -0.074   4.617  0.6378 -0.8658 -0.2436
  683MOL0     C94145  11.593   0.011   4.870  0.3699  0.3598  0.6164
  683MOL0     C94146  11.710  -0.073   4.902  0.6541 -0.6949  0.7455
  683MOL0     O94147  11.782  -0.132   4.803 -0.0182  0.2816 -0.5795
  683MOL0     C94148  11.879  -0.233   4.827 -0.4839  0.4412  0.2520
  683MOL0     C94149  11.851  -0.363   4.874  1.1522 -0.3729  0.1873
  683MOL0     C94150  11.946  -0.460   4.902 -0.1465  1.2624  1.2859
  683MOL0     C94151  12.084  -0.426   4.900 -0.0754 -0.4026  0.3361
  683MOL0     O94152  12.162  -0.530   4.948  0.4820  0.4429 -0.3241
  683MOL0     C94153  12.305  -0.540   4.938 -0.5562  0.2518  0.9450
  683MOL0     C94154  12.335  -0.689   4.930  0.5149  0.2320  0.2319
  683MOL0     C94155  12.485  -0.703   4.886 -0.5181 -0.6325  0.2538
  683MOL0     C94156  12.518  -0.848   4.842 -0.0503 -0.2960  0.4742
  683MOL0     C94157  12.462  -0.898   4.703  0.1559  0.7452  0.4543
  683MOL0     C94158  12.488  -1.053   4.677 -0.9652  0.2225 -1.0269
  683MOL0     C94159  12.384  -1.113   4.587 -0.3018  0.9996 -0.1037
  683MOL0     C94160  12.242  -1.138   4.649  0.0098 -0.3747  0.2137
  683MOL0    Cl94161  12.169  -1.264   4.547 -0.2278 -0.3209  0.0050
  683MOL0     C94162  12.125  -0.297   4.856 -0.2508  0.3584 -0.2515
  683MOL0     C94163  12.021  -0.218   4.808  0.3589 -0.0071  0.9538
  683MOL0     O94164  11.735  -0.082   5.021 -0.1181 -0.2031 -0.4111
  683MOL0     C94165  11.532   0.098   4.966  0.4128 -0.6600 -0.6826
  683MOL0     C94166  11.410   0.160   4.948 -0.3493  0.0611  0.4448
  683MOL0     N94167  10.827   0.720   5.049 -1.0443 -0.1411 -0.9304
  683MOL0     N94168  10.734   0.796   5.074 -0.4871 -0.4676  0.0919
  683MOL0     C94169   9.908   1.721   4.756 -0.5679 -0.2981 -0.0975
  683MOL0     C94170   9.882   1.855   4.770  0.7658 -1.0110  0.0343
  683MOL0     C94171   9.662   2.204   5.000 -0.5215 -0.7186 -0.6165
  683MOL0     C94172   9.774   2.278   5.045  0.5024 -0.0978  0.0735
  683MOL0     C94173   9.763   2.399   5.112 -0.3059  0.1392 -0.1381
  683MOL0     C94174   9.645   2.446   5.159 -0.3136  0.8431 -0.3033
  683MOL0     O94175   9.648   2.560   5.241  0.4275 -0.1804  0.1404
  683MOL0     C94176   9.578   2.542   5.361  0.5307 -0.5731 -0.5032
  683MOL0     C94177   9.668   2.451   5.445 -0.0826 -0.0090  0.2018
  683MOL0     C94178   9.571   2.394   5.549 -0.1737 -0.3070  0.1880
  683MOL0     C94179   9.501   2.509   5.636 -0.3822 -0.5755 -0.3365
  683MOL0     C94180   9.593   2.631   5.676  1.0306  0.1888 -0.4047
  683MOL0     C94181   9.676   2.720   5.694 -0.0421 -0.8612 -0.0393
  683MOL0     C94182   9.531   2.383   5.117 -0.3234 -0.1914  0.4143
  683MOL0     C94183   9.537   2.269   5.038  0.4853  0.5124 -0.2218
  683MOL0     C94184   9.401   2.204   5.034  0.7387  0.3938  0.5887
  683MOL0     H94185   9.780   1.844   5.088  0.6735  1.0094  0.0109
  683MOL0     H94186   9.812   1.614   5.066 -3.8258  2.9648 -0.0424
  683MOL0     H94187   9.908   1.355   4.992 -0.1750 -1.3287 -1.6496
  683MOL0     H94188  10.035   1.486   5.022  0.5290 -2.0266 -0.1001
  683MOL0     H94189  10.168   1.380   4.848 -0.9583  1.0125  0.5921
  683MOL0     H94190  10.138   1.286   4.996 -0.3279  0.9949  1.0389
  683MOL0     H94191   9.925   1.206   4.818  0.1406 -0.0031 -0.8219
  683MOL0     H94192  10.063   1.246   4.718  2.9607 -2.2114 -0.2480
  683MOL0     H94193  10.056   1.050   4.958  3.6791 -2.4283  1.4199
  683MOL0     H94194  10.056   0.993   4.791  1.2811 -2.0968  1.3069
  683MOL0     H94195  10.276   1.105   4.971  0.3354 -1.9551  0.8407
  683MOL0     H94196  10.298   1.129   4.792  2.5363  1.0489  2.2983
  683MOL0     H94197  10.243   0.872   4.950 -2.0532 -1.4374 -1.8356
  683MOL0     H94198  10.272   0.866   4.778  1.0787  0.6270 -0.7504
  683MOL0     H94199  10.490   1.015   4.919 -0.7445  0.3523  1.6820
  683MOL0     H94200  10.505   0.894   4.788 -2.5185 -1.7750 -0.5874
  683MOL0     H94201  10.473   0.826   5.089 -1.2621 -1.4044 -0.7382
  683MOL0     H94202  10.447   0.714   4.973 -0.5091 -0.3764  3.0261
  683MOL0     H94203  10.650   0.666   4.784  3.4364 -2.1338 -0.1693
  683MOL0     H94204  10.883   0.584   4.747  0.8444  1.7894  1.3962
  683MOL0     H94205  10.802   0.472   4.856 -2.9728  1.9236  0.7995
  683MOL0     H94206  11.084   0.595   4.874 -1.7489  0.0658 -0.7215
  683MOL0     H94207  11.005   0.513   5.011 -1.7036 -0.4078  0.7249
  683MOL0     H94208  10.977   0.323   4.865 -0.9732  0.2384  0.4487
  683MOL0     H94209  11.054   0.407   4.731  0.2629 -0.3432  0.3179
  683MOL0     H94210  11.271   0.417   4.860 -0.0216 -0.3790 -1.4369
  683MOL0     H94211  11.194   0.344   4.998  0.8032 -0.2893  0.3304
  683MOL0     H94212  11.330   0.063   4.649  1.5132 -2.2105 -0.6654
  683MOL0     H94213  11.661  -0.027   4.586 -1.1556  1.5295 -2.5076
  683MOL0     H94214  11.505  -0.060   4.528  1.9943 -2.8294 -1.5923
  683MOL0     H94215  11.577  -0.181   4.637  1.0939 -0.4521  2.0456
  683MOL0     H94216  11.746  -0.382   4.889  1.3335  0.6962  3.7005
  683MOL0     H94217  11.912  -0.557   4.935  4.5652 -0.5493  1.5050
  683MOL0     H94218  12.345  -0.496   4.846  0.7746  0.1475  1.4602
  683MOL0     H94219  12.352  -0.482   5.018 -0.7661 -2.0479  2.8355
  683MOL0     H94220  12.309  -0.736   5.025  1.2921  0.4789  0.5729
  683MOL0     H94221  12.259  -0.729   4.862 -1.0481  2.8032  0.3095
  683MOL0     H94222  12.543  -0.689   4.978 -0.5892 -1.2983  0.4020
  683MOL0     H94223  12.505  -0.638   4.800  0.7587 -2.0608 -0.5773
  683MOL0     H94224  12.475  -0.907   4.924 -0.6038 -1.2058 -0.4368
  683MOL0     H94225  12.621  -0.885   4.836 -0.0142 -0.2667  0.8959
  683MOL0     H94226  12.353  -0.889   4.698 -0.0428  0.0743  2.6471
  683MOL0     H94227  12.511  -0.840   4.624  2.2460 -0.0492  1.0884
  683MOL0     H94228  12.486  -1.099   4.777 -1.5983  4.6141  1.2124
  683MOL0     H94229  12.588  -1.063   4.635  0.4506  0.1134  2.0506
  683MOL0     H94230  12.430  -1.207   4.555  2.7737  2.4386 -0.3544
  683MOL0     H94231  12.380  -1.043   4.503  0.0127  3.6826  2.0036
  683MOL0     H94232  12.178  -1.050   4.660 -2.5249 -1.9989 -0.6695
  683MOL0     H94233  12.267  -1.171   4.750  1.5090  3.0686  1.1174
  683MOL0     H94234  12.228  -0.268   4.838 -0.1429  0.3978  0.4072
  683MOL0     H94235  12.059  -0.133   4.752 -1.3367 -0.8462 -1.6684
  683MOL0     H94236  11.578   0.097   5.064 -1.6415 -2.3071  0.3453
  683MOL0     H94237  11.366   0.203   5.038 -0.4545 -2.6936  1.8517
  683MOL0     H94238   9.974   1.690   4.676  1.6578 -4.1138  2.8484
  683MOL0     H94239   9.913   1.934   4.703 -0.2636  1.4903  2.3569
  683MOL0     H94240   9.874   2.240   5.030  0.9316  0.3157  1.7111
  683MOL0     H94241   9.847   2.454   5.153 -0.8237  2.4689 -1.9730
  683MOL0     H94242   9.582   2.640   5.411 -1.1922 -1.3522  1.2956
  683MOL0     H94243   9.473   2.515   5.345  0.8064 -0.1875 -3.5383
  683MOL0     H94244   9.764   2.490   5.479  0.3545  0.2938 -1.3011
  683MOL0     H94245   9.701   2.363   5.388 -3.4742  0.5149 -3.0088
  683MOL0     H94246   9.499   2.331   5.497  1.8281 -0.8271 -2.1073
  683MOL0     H94247   9.629   2.319   5.603 -0.5617 -2.6302 -2.4401
  683MOL0     H94248   9.471   2.453   5.725  1.8538  0.7197  1.3361
  683MOL0     H94249   9.408   2.548   5.594 -0.5157  0.7133  1.0617
  683MOL0     H94250   9.753   2.792   5.713  0.0855 -0.8027 -0.7689
  683MOL0     H94251   9.436   2.433   5.131 -0.0209  0.5255  0.0140
  683MOL0     H94252   9.386   2.107   4.986  0.3763 -0.8042  2.9609
  683MOL0     H94253   9.353   2.197   5.133  1.2616  1.8774  0.9764
  683MOL0     H94254   9.330   2.272   4.985 -0.9591  1.6466  4.3575
  684MOL0     O94255   6.183   3.907   2.356 -0.2961 -0.0724  0.4345
  684MOL0     C94256   6.146   3.972   2.451  0.4079 -1.4348  0.0233
  684MOL0     O94257   6.226   4.042   2.534 -0.0002  0.4863  0.4121
  684MOL0     C94258   6.363   4.035   2.516 -0.6005  0.6228 -0.3952
  684MOL0     C94259   6.438   4.154   2.522  1.0673 -0.0394 -0.4558
  684MOL0     C94260   6.576   4.148   2.526 -0.0276  0.1244 -0.2654
  684MOL0     C94261   6.643   4.032   2.524 -0.2320  0.1591 -0.4654
  684MOL0     O94262   6.782   4.024   2.522 -0.3382 -0.4001 -0.2558
  684MOL0     C94263   6.840   4.120   2.609  0.2395  0.1529  0.0061
  684MOL0     C94264   6.980   4.073   2.640  0.4486  0.5263 -0.0787
  684MOL0     C94265   7.048   4.152   2.755  1.1624 -1.0614  0.5475
  684MOL0     C94266   7.163   4.077   2.820 -0.2505 -0.2653  0.1348
  684MOL0     C94267   7.248   4.169   2.908  0.2257 -0.2891  0.0940
  684MOL0     C94268   7.358   4.088   2.973 -0.0382  0.3949  0.1777
  684MOL0     C94269   7.426   4.175   3.083 -0.1512  0.3337 -0.8656
  684MOL0     C94270   7.548   4.103   3.143 -0.3464  0.6288  0.0966
  684MOL0     N94271   7.665   4.111   3.055  0.1989 -0.3406  0.0000
  684MOL0     C94272   7.788   4.160   3.086  0.6261 -0.0917  0.1321
  684MOL0     C94273   7.867   4.107   2.985  0.3608  0.1720 -0.3864
  684MOL0     C94274   8.001   4.165   2.960  0.2625 -0.1432 -0.6182
  684MOL0     C94275   8.100   4.049   2.977  0.4318 -0.1882  0.1504
  684MOL0     C94276   8.241   4.094   2.938  0.1179 -0.6455  0.3475
  684MOL0     C94277   8.326   3.965   2.916  0.2727  0.6848  0.2820
  684MOL0     O94278   8.419   3.991   2.813  0.6624  0.4869  0.5338
  684MOL0     C94279   8.496   3.890   2.756  0.5309  0.4195  0.3561
  684MOL0     C94280   8.514   3.759   2.788 -0.2468  0.0337 -0.6220
  684MOL0     C94281   8.613   3.682   2.723 -0.6329  0.3998  0.1087
  684MOL0     C94282   8.618   3.532   2.759 -1.0735 -0.5032 -0.0808
  684MOL0     C94283   8.698   3.741   2.620 -0.0695  0.6475 -0.5042
  684MOL0     C94284   8.802   3.676   2.546  0.3892  0.0847  0.3545
  684MOL0     O94285   8.876   3.751   2.457 -0.0754  0.0269 -0.5686
  684MOL0     C94286   8.967   3.698   2.365 -0.3108 -0.2422  0.1170
  684MOL0     C94287   9.078   3.773   2.335  0.4638  0.5068 -0.5436
  684MOL0     C94288   9.179   3.707   2.263  0.3095  0.1375  0.0249
  684MOL0     C94289   9.163   3.585   2.190  0.1486 -1.0323 -0.3180
  684MOL0     O94290   9.264   3.543   2.108 -0.0473 -0.6272 -0.1753
  684MOL0     C94291   9.249   3.407   2.052  0.2485 -0.0194  0.1930
  684MOL0     C94292   9.375   3.372   1.961 -0.1204 -0.4036 -0.1757
  684MOL0     C94293   9.506   3.407   2.042  0.7027  0.6083  0.3404
  684MOL0     C94294   9.532   3.316   2.163 -0.4291 -0.2867  0.3048
  684MOL0     C94295   9.671   3.350   2.227 -0.0945  0.7808  0.3335
  684MOL0     C94296   9.782   3.254   2.172 -0.4449  0.4739  0.2760
  684MOL0     C94297   9.922   3.272   2.224 -0.9339  0.6373 -0.5275
  684MOL0     C94298  10.023   3.168   2.167  0.8373 -0.1674 -0.2777
  684MOL0    Cl94299  10.189   3.226   2.203 -0.4732 -0.3187 -0.4282
  684MOL0     C94300   9.044   3.517   2.220 -0.5701 -0.3279  0.6494
  684MOL0     C94301   8.946   3.572   2.297  0.5138 -0.3784 -0.9760
  684MOL0     O94302   8.809   3.554   2.556  0.1463  0.0431  0.1941
  684MOL0     C94303   8.669   3.873   2.587 -0.1236 -0.6773  0.3969
  684MOL0     C94304   8.580   3.953   2.662 -0.0187 -0.2042 -0.1214
  684MOL0     N94305   7.791   4.039   2.895  0.0380  0.5196 -0.1334
  684MOL0     N94306   7.671   4.030   2.945 -0.6113 -0.2270 -0.5495
  684MOL0     C94307   6.574   3.917   2.506  0.4171  0.0510  0.3363
  684MOL0     C94308   6.435   3.916   2.515 -0.4278 -0.3061 -1.2617
  684MOL0     C94309   5.997   3.967   2.487 -0.3750 -0.9181  0.2325
  684MOL0     C94310   5.905   3.938   2.393  0.4280 -0.6982 -0.4572
  684MOL0     C94311   5.766   3.939   2.416 -0.3259  0.8349  1.6257
  684MOL0     C94312   5.719   3.957   2.541 -0.1648 -0.3663 -0.6968
  684MOL0     O94313   5.596   3.952   2.584  0.4436  0.2922  0.4206
  684MOL0     C94314   5.499   3.963   2.479 -0.1338  0.3488 -0.3363
  684MOL0     C94315   5.341   3.979   2.504 -0.8509  0.1748 -0.3680
  684MOL0     C94316   5.292   4.043   2.635  0.2859  0.0145  0.6735
  684MOL0     C94317   5.146   4.001   2.671  0.1455 -0.2958 -0.1141
  684MOL0     C94318   5.051   3.988   2.560 -1.2104  0.5858  0.2211
  684MOL0     C94319   4.972   3.971   2.470  0.0873  0.7011  0.0219
  684MOL0     C94320   5.810   3.983   2.644 -0.2214  0.7050  0.9358
  684MOL0     C94321   5.950   3.981   2.617 -0.1476  0.1100 -0.2066
  684MOL0     C94322   6.041   4.017   2.729  0.3145  0.3398 -0.6933
  684MOL0     H94323   6.378   4.244   2.530 -0.2196 -0.8576 -0.6434
  684MOL0     H94324   6.636   4.238   2.521  0.4481 -0.2036 -0.6041
  684MOL0     H94325   6.775   4.137   2.695  0.7582 -2.4482  0.9822
  684MOL0     H94326   6.855   4.215   2.556 -3.4588 -0.0508 -1.7302
  684MOL0     H94327   6.976   3.970   2.676  2.0924  0.7839  0.9430
  684MOL0     H94328   7.046   4.082   2.553  1.5622  1.3154  0.8248
  684MOL0     H94329   7.089   4.248   2.724  1.1776 -1.3514 -0.3560
  684MOL0     H94330   6.972   4.180   2.828  0.5213 -0.4127 -0.3477
  684MOL0     H94331   7.136   3.987   2.876  2.6656  0.1066  2.3949
  684MOL0     H94332   7.233   4.045   2.742  0.8635 -1.0639  1.4111
  684MOL0     H94333   7.188   4.221   2.983  0.7313 -1.0155  1.0152
  684MOL0     H94334   7.304   4.248   2.857  3.1856 -1.1573  1.7734
  684MOL0     H94335   7.323   3.990   3.008 -0.8954  0.7622  0.3632
  684MOL0     H94336   7.432   4.070   2.894 -0.4744 -1.0190  0.0631
  684MOL0     H94337   7.367   4.192   3.173  1.1008 -0.2854  0.0988
  684MOL0     H94338   7.465   4.269   3.042 -0.5164  0.5811 -0.6585
  684MOL0     H94339   7.588   4.138   3.238  4.0223 -0.7684 -0.9966
  684MOL0     H94340   7.529   3.998   3.168  1.9192  0.6674  2.4055
  684MOL0     H94341   7.807   4.233   3.163 -0.2675  0.5935 -0.2816
  684MOL0     H94342   8.022   4.247   3.029 -1.9928 -0.2331  0.2788
  684MOL0     H94343   7.997   4.209   2.860 -1.4719  1.6046  0.1637
  684MOL0     H94344   8.090   4.023   3.082  1.3915  2.3563  0.9458
  684MOL0     H94345   8.085   3.962   2.912  0.1210 -0.8377  1.0883
  684MOL0     H94346   8.238   4.158   2.849 -3.0763 -0.1730  0.7042
  684MOL0     H94347   8.278   4.163   3.014 -5.0662  0.3686  2.2939
  684MOL0     H94348   8.392   3.940   3.000  1.0440 -1.8892 -0.9748
  684MOL0     H94349   8.274   3.871   2.894 -1.8148  1.3099  2.2071
  684MOL0     H94350   8.464   3.704   2.868  0.1673 -1.4807 -1.3583
  684MOL0     H94351   8.718   3.490   2.774 -0.3639 -0.6690 -4.1558
  684MOL0     H94352   8.561   3.470   2.688 -1.3318 -1.3485  0.8395
  684MOL0     H94353   8.564   3.525   2.854 -2.3046 -0.0261 -0.7230
  684MOL0     H94354   9.101   3.873   2.370 -0.1412  0.5312 -0.1877
  684MOL0     H94355   9.272   3.762   2.258 -0.4987  1.8072  1.8897
  684MOL0     H94356   9.263   3.337   2.135 -0.3751 -0.2557  0.1075
  684MOL0     H94357   9.158   3.388   1.995 -1.3955  1.6998  2.0688
  684MOL0     H94358   9.376   3.269   1.926  1.3454 -0.2903 -0.5189
  684MOL0     H94359   9.377   3.427   1.866 -0.7823 -3.9535 -2.4011
  684MOL0     H94360   9.496   3.511   2.076  0.6410  0.4672  0.7645
  684MOL0     H94361   9.598   3.397   1.984  0.1412 -0.9515 -0.3166
  684MOL0     H94362   9.520   3.211   2.135  0.2812  0.3681 -2.8398
  684MOL0     H94363   9.468   3.352   2.244 -2.1514 -1.3369 -0.5303
  684MOL0     H94364   9.700   3.450   2.194  4.4591 -0.8908 -1.4146
  684MOL0     H94365   9.661   3.342   2.335  0.3513 -0.8571  0.2767
  684MOL0     H94366   9.790   3.262   2.063 -3.9073  0.8120 -0.0820
  684MOL0     H94367   9.748   3.151   2.191 -2.8117  1.0811 -0.3363
  684MOL0     H94368   9.914   3.252   2.331 -0.6325 -2.0077 -0.9249
  684MOL0     H94369   9.953   3.374   2.199 -0.0212  0.8085  1.1802
  684MOL0     H94370  10.014   3.156   2.059  3.1035  0.9749 -0.6587
  684MOL0     H94371  10.005   3.069   2.210  0.5961 -0.1569 -0.3520
  684MOL0     H94372   9.003   3.425   2.178 -3.8052  0.5466  1.6008
  684MOL0     H94373   8.856   3.513   2.314  1.5562 -1.9196 -0.6556
  684MOL0     H94374   8.726   3.940   2.524 -3.5450  2.1996 -0.0073
  684MOL0     H94375   8.563   4.059   2.648  0.3924 -0.2297 -0.8522
  684MOL0     H94376   6.631   3.825   2.507  1.3003  0.5869  1.3966
  684MOL0     H94377   6.379   3.823   2.517 -0.5115 -0.2570 -1.2861
  684MOL0     H94378   5.948   3.924   2.294 -1.6359 -2.4076 -1.1928
  684MOL0     H94379   5.702   3.923   2.330  2.7582  1.7197 -1.0267
  684MOL0     H94380   5.528   4.038   2.405 -1.4878 -0.7757 -2.1086
  684MOL0     H94381   5.513   3.866   2.430  0.2117  1.2277 -2.0675
  684MOL0     H94382   5.291   3.882   2.491 -1.6716  0.5899 -0.3452
  684MOL0     H94383   5.305   4.052   2.431 -2.7667  1.1900  1.4857
  684MOL0     H94384   5.358   4.024   2.719 -0.6844  2.7842  2.2078
  684MOL0     H94385   5.290   4.153   2.631  1.7166  0.1020  1.9120
  684MOL0     H94386   5.107   4.066   2.750  1.9734  0.1257  0.4960
  684MOL0     H94387   5.146   3.904   2.720  3.3973 -1.1686 -1.5221
  684MOL0     H94388   4.911   3.941   2.387 -1.7186 -5.7025  3.0324
  684MOL0     H94389   5.773   4.023   2.738 -1.7689  0.0902  0.6198
  684MOL0     H94390   6.067   4.123   2.719 -1.2427  0.9265  0.9767
  684MOL0     H94391   5.985   4.007   2.822  0.6513 -0.5584 -0.5792
  684MOL0     H94392   6.131   3.956   2.740 -0.2448 -0.1179  2.2294
  685MOL0     O94393   9.555   9.696   8.719  0.0224 -0.1666 -0.3485
  685MOL0     C94394   9.529   9.780   8.637 -0.2560  0.0954  0.4265
  685MOL0     O94395   9.615   9.820   8.537  0.3247 -0.9499  0.1911
  685MOL0     C94396   9.748   9.784   8.546  0.2606  0.5683 -0.9057
  685MOL0     C94397   9.837   9.883   8.591  0.3903  0.6215 -0.1977
  685MOL0     C94398   9.969   9.848   8.592  0.1498 -0.5755 -0.2378
  685MOL0     C94399  10.026   9.726   8.560 -0.4115 -0.1453 -0.6035
  685MOL0     O94400  10.161   9.694   8.563  0.1064  0.2767 -0.4029
  685MOL0     C94401  10.250   9.743   8.665 -0.3146  0.0766  0.1814
  685MOL0     C94402  10.329   9.869   8.610 -0.0374 -0.8206 -0.0651
  685MOL0     C94403  10.435   9.827   8.506 -0.8941 -0.5361  0.6825
  685MOL0     C94404  10.490   9.943   8.419 -0.0911  0.5069  0.1963
  685MOL0     C94405  10.592   9.890   8.321 -0.3070 -0.6870 -0.7135
  685MOL0     C94406  10.667  10.009   8.256 -0.3426  0.8366 -0.3453
  685MOL0     C94407  10.786   9.967   8.164  0.8546  0.1344 -0.2259
  685MOL0     C94408  10.902   9.894   8.240 -0.1651 -0.0450 -0.1308
  685MOL0     N94409  10.936   9.763   8.192 -0.2329  0.0632  0.3486
  685MOL0     C94410  11.066   9.725   8.145 -0.6283 -0.1584 -0.5067
  685MOL0     C94411  11.064   9.593   8.113 -0.3063  0.0689 -0.8342
  685MOL0     C94412  11.177   9.528   8.047  0.9581 -0.1258 -1.0148
  685MOL0     C94413  11.170   9.565   7.897 -0.1318 -0.7923 -0.8648
  685MOL0     C94414  11.063   9.488   7.817  0.4848 -0.0193  0.8138
  685MOL0     C94415  11.096   9.481   7.667 -0.2094 -0.7974 -0.5988
  685MOL0     O94416  11.115   9.616   7.621  0.5603  0.3012 -1.3830
  685MOL0     C94417  11.180   9.622   7.502 -0.2655 -0.8608  0.1993
  685MOL0     C94418  11.192   9.526   7.402  0.1343 -0.4367  0.6364
  685MOL0     C94419  11.273   9.562   7.289 -0.4550 -0.0083 -1.6165
  685MOL0     C94420  11.324   9.442   7.205  0.0886  0.7321  0.4228
  685MOL0     C94421  11.308   9.691   7.263 -0.3821 -1.0384 -0.3889
  685MOL0     C94422  11.395   9.720   7.146 -0.2964 -0.5981 -0.6623
  685MOL0     O94423  11.331   9.779   7.043  0.7047  0.5093 -0.0595
  685MOL0     C94424  11.414   9.817   6.938  0.2920 -0.1573 -0.2984
  685MOL0     C94425  11.504   9.923   6.949 -0.4616 -0.6798  0.1021
  685MOL0     C94426  11.574   9.980   6.840  0.2265  0.1824 -0.1745
  685MOL0     C94427  11.544   9.922   6.716 -0.3991  0.0094 -0.1169
  685MOL0     O94428  11.609   9.968   6.609 -0.1379  0.1463 -0.2104
  685MOL0     C94429  11.677  10.094   6.596 -0.9136  0.5299 -0.1760
  685MOL0     C94430  11.750  10.086   6.459 -0.7301  0.1072  0.7363
  685MOL0     C94431  11.863   9.988   6.451  0.3914  0.4223 -0.1114
  685MOL0     C94432  11.823   9.836   6.408  0.1525  0.0963 -0.0718
  685MOL0     C94433  11.879   9.735   6.504  0.1127  0.5141 -0.4642
  685MOL0     C94434  11.799   9.601   6.495 -0.9909 -0.8662  0.0538
  685MOL0     C94435  11.851   9.504   6.602 -0.6801  0.2275 -0.3218
  685MOL0     C94436  11.743   9.389   6.637 -0.3318  0.0882 -0.1387
  685MOL0    Cl94437  11.814   9.255   6.723 -0.2285 -0.3979 -0.1388
  685MOL0     C94438  11.461   9.813   6.701 -0.2381  0.0470 -0.5165
  685MOL0     C94439  11.389   9.762   6.811  0.0115  0.1027  0.9187
  685MOL0     O94440  11.518   9.713   7.162 -0.5908  0.2966  0.4558
  685MOL0     C94441  11.268   9.796   7.350 -0.5038  0.4267 -0.6851
  685MOL0     C94442  11.213   9.761   7.474  0.7267  0.6323  0.9171
  685MOL0     N94443  10.933   9.560   8.142  0.0558  0.5297 -0.4514
  685MOL0     N94444  10.864   9.651   8.193  1.0120 -0.3910 -0.7881
  685MOL0     C94445   9.931   9.634   8.508 -0.3095 -0.3311 -0.6306
  685MOL0     C94446   9.800   9.665   8.496 -0.0282  0.5164 -0.2113
  685MOL0     C94447   9.396   9.835   8.653  0.0724  0.7343 -0.0368
  685MOL0     C94448   9.339   9.860   8.780 -0.5548 -0.4481 -0.3375
  685MOL0     C94449   9.212   9.913   8.802 -0.5349  0.5015 -0.5329
  685MOL0     C94450   9.134   9.931   8.686  0.7416 -0.1387  1.0232
  685MOL0     O94451   9.005   9.977   8.688  0.3337 -1.0239  0.1425
  685MOL0     C94452   8.959  10.029   8.820 -0.3347 -0.2049  0.2459
  685MOL0     C94453   8.836  10.116   8.785  0.2660 -0.7792  0.4189
  685MOL0     C94454   8.869  10.258   8.738  0.3531  0.4386 -0.4201
  685MOL0     C94455   8.951  10.342   8.828 -0.6922 -1.0721  0.5169
  685MOL0     C94456   8.986  10.476   8.768 -0.1020  1.1558  0.5204
  685MOL0     C94457   9.024  10.583   8.728 -0.1619 -0.7609 -0.0587
  685MOL0     C94458   9.185   9.912   8.552 -0.0648 -0.1808  0.3920
  685MOL0     C94459   9.317   9.864   8.543 -0.3968 -0.4883  1.5439
  685MOL0     C94460   9.371   9.861   8.399  0.0155 -0.4926 -0.4817
  685MOL0     H94461   9.786   9.977   8.607 -3.1904 -1.1712 -0.0364
  685MOL0     H94462  10.040   9.926   8.615 -0.7869  0.5456 -1.0268
  685MOL0     H94463  10.321   9.663   8.689  1.1357  1.7344  1.7383
  685MOL0     H94464  10.198   9.790   8.749 -1.9787  3.8705 -2.6734
  685MOL0     H94465  10.274   9.961   8.589  1.6500  0.1070 -0.6369
  685MOL0     H94466  10.386   9.894   8.700 -1.7386  2.4299  0.2872
  685MOL0     H94467  10.530   9.780   8.533  1.2512  2.3072 -1.2318
  685MOL0     H94468  10.389   9.757   8.436  1.8702 -2.5828  0.7294
  685MOL0     H94469  10.408   9.995   8.368 -0.9192  0.0331  1.0047
  685MOL0     H94470  10.531  10.018   8.487  0.3180  0.6319 -0.1832
  685MOL0     H94471  10.559   9.831   8.235  2.2376 -2.2576 -0.6978
  685MOL0     H94472  10.670   9.841   8.380  0.0213  0.2323 -0.3678
  685MOL0     H94473  10.594  10.073   8.204 -1.5592  2.1098  2.6349
  685MOL0     H94474  10.706  10.064   8.343 -1.6477  0.2583  0.6515
  685MOL0     H94475  10.816  10.069   8.137 -1.6218  1.0101 -0.0284
  685MOL0     H94476  10.760   9.920   8.069  0.2227  0.8853 -0.4403
  685MOL0     H94477  10.989   9.958   8.225 -1.1498  1.5334  0.7210
  685MOL0     H94478  10.890   9.896   8.348  0.7594  0.9780 -0.0330
  685MOL0     H94479  11.142   9.802   8.148 -1.8509  1.0643  1.3780
  685MOL0     H94480  11.184   9.419   8.060 -0.9545 -0.0993  0.7329
  685MOL0     H94481  11.271   9.572   8.081  0.3296  2.4208 -2.3423
  685MOL0     H94482  11.152   9.671   7.877 -2.9599 -0.8309  0.9420
  685MOL0     H94483  11.267   9.534   7.855  0.0215 -0.9052 -0.4350
  685MOL0     H94484  11.085   9.386   7.850  4.0348  0.2459 -0.3676
  685MOL0     H94485  10.955   9.506   7.828  0.3255 -0.0930 -0.4244
  685MOL0     H94486  11.186   9.419   7.663 -0.2267 -0.8602 -0.1014
  685MOL0     H94487  11.014   9.428   7.618 -1.4171  0.1059  0.3767
  685MOL0     H94488  11.148   9.429   7.420 -1.4209 -0.0676 -0.9071
  685MOL0     H94489  11.398   9.470   7.130  0.0703  3.0350  1.1908
  685MOL0     H94490  11.240   9.385   7.163 -0.2077  2.2895 -1.2089
  685MOL0     H94491  11.373   9.376   7.278  0.5041 -1.0056 -1.3443
  685MOL0     H94492  11.502   9.973   7.046 -2.9740  0.7499 -0.5840
  685MOL0     H94493  11.647  10.054   6.872 -1.4198  1.1503  1.5013
  685MOL0     H94494  11.604  10.175   6.599 -0.1477  1.2053  1.1825
  685MOL0     H94495  11.755  10.099   6.672  2.3783 -1.9128 -3.0782
  685MOL0     H94496  11.674  10.070   6.382 -0.4469 -0.6708  0.6068
  685MOL0     H94497  11.801  10.178   6.431 -3.5397  1.0265 -1.8922
  685MOL0     H94498  11.926   9.983   6.540  1.2350 -2.4987 -0.7637
  685MOL0     H94499  11.929  10.014   6.368  0.7488 -2.2289 -0.7768
  685MOL0     H94500  11.864   9.802   6.312  0.8165 -0.9001  0.5561
  685MOL0     H94501  11.714   9.827   6.409  0.0860  0.9217  0.5981
  685MOL0     H94502  11.986   9.727   6.485  0.2989 -0.4988  0.8730
  685MOL0     H94503  11.864   9.776   6.604  4.0740  0.1460  0.4565
  685MOL0     H94504  11.826   9.559   6.397  0.1721 -1.4165  0.5803
  685MOL0     H94505  11.693   9.625   6.504 -0.9648 -0.9970  0.7165
  685MOL0     H94506  11.873   9.549   6.699 -0.3285 -3.4326  1.4695
  685MOL0     H94507  11.933   9.444   6.562 -2.1960 -1.1839 -1.4524
  685MOL0     H94508  11.707   9.355   6.539 -1.1797 -0.4028  0.3432
  685MOL0     H94509  11.668   9.447   6.691  0.5811  0.6436  0.5548
  685MOL0     H94510  11.448   9.758   6.608  2.2878 -1.6965  0.0693
  685MOL0     H94511  11.314   9.686   6.789  0.8522 -0.6728  0.6959
  685MOL0     H94512  11.279   9.903   7.333 -3.0793  0.5773 -1.8662
  685MOL0     H94513  11.203   9.844   7.544 -0.9286  2.9177 -1.8400
  685MOL0     H94514   9.967   9.538   8.472 -1.4601 -2.1412  2.5649
  685MOL0     H94515   9.724   9.598   8.459 -2.0032  1.7398  1.4277
  685MOL0     H94516   9.398   9.834   8.868 -0.9219  0.1806  0.1017
  685MOL0     H94517   9.172   9.916   8.903  1.1991 -1.1865  0.2727
  685MOL0     H94518   8.940   9.939   8.880  0.6246 -2.2866 -2.3475
  685MOL0     H94519   9.041  10.071   8.880 -0.4693 -2.1948  1.9222
  685MOL0     H94520   8.769  10.111   8.871 -0.1999  1.8822  0.3056
  685MOL0     H94521   8.785  10.067   8.702  1.0177 -2.1140  0.7204
  685MOL0     H94522   8.933  10.231   8.653 -0.4613  0.8065 -1.1715
  685MOL0     H94523   8.773  10.307   8.719  1.6716  2.5842 -1.9937
  685MOL0     H94524   9.053  10.304   8.844  0.8272  0.9871 -3.1616
  685MOL0     H94525   8.909  10.361   8.927 -0.2873 -0.7234  0.6247
  685MOL0     H94526   9.044  10.681   8.689  0.2187 -0.4505  0.8857
  685MOL0     H94527   9.132   9.940   8.461 -0.1907  0.2390  0.5880
  685MOL0     H94528   9.450   9.934   8.379  0.2768  0.1008  2.3855
  685MOL0     H94529   9.416   9.763   8.383 -2.0392 -1.9182  1.7922
  685MOL0     H94530   9.293   9.876   8.323  1.2632 -0.9933 -1.9026
  686MOL0     O94531  10.307   8.147   0.545 -0.7494  0.0982  0.8966
  686MOL0     C94532  10.376   8.181   0.450  0.7769 -0.4697  0.1068
  686MOL0     O94533  10.349   8.136   0.319  0.2984 -0.4985  0.1236
  686MOL0     C94534  10.264   8.021   0.304  0.2920 -0.1581 -0.8386
  686MOL0     C94535  10.328   7.901   0.277  0.1546  0.0768 -0.2641
  686MOL0     C94536  10.236   7.790   0.261 -0.2134 -1.2056  0.0202
  686MOL0     C94537  10.095   7.806   0.267  0.1587 -0.4688  0.4375
  686MOL0     O94538  10.000   7.708   0.247  0.6304  0.0051  0.3231
  686MOL0     C94539  10.052   7.583   0.187  0.9379 -0.8729  0.1487
  686MOL0     C94540   9.935   7.488   0.144 -0.3936 -1.0296  0.4591
  686MOL0     C94541   9.844   7.539   0.031  0.1067  0.2283  0.3108
  686MOL0     C94542   9.705   7.474   0.037 -0.5996 -0.1515  0.2508
  686MOL0     C94543   9.597   7.534  -0.060 -0.6734 -0.5257 -0.1614
  686MOL0     C94544   9.642   7.510  -0.206 -0.0555 -1.0338 -0.1388
  686MOL0     C94545   9.556   7.609  -0.292  0.9490  0.1022  1.0056
  686MOL0     C94546   9.553   7.573  -0.442  0.6743 -0.2614  0.1124
  686MOL0     N94547   9.695   7.591  -0.487  0.4799 -0.1200  1.1230
  686MOL0     C94548   9.768   7.495  -0.540  0.1350  0.5029  0.4238
  686MOL0     C94549   9.879   7.552  -0.603  1.1280 -0.8601 -0.3099
  686MOL0     C94550   9.992   7.493  -0.674  0.0787 -0.0128 -0.7191
  686MOL0     C94551  10.120   7.487  -0.592  0.5668  0.6510 -0.2130
  686MOL0     C94552  10.102   7.371  -0.495 -1.1960 -0.3418  0.7230
  686MOL0     C94553  10.228   7.326  -0.423 -0.0635  0.1582  0.5256
  686MOL0     O94554  10.197   7.212  -0.341  0.6201 -0.3401 -0.1010
  686MOL0     C94555  10.296   7.172  -0.252  0.4342  0.3806 -0.4071
  686MOL0     C94556  10.413   7.240  -0.232 -0.0090 -1.3410 -0.1043
  686MOL0     C94557  10.501   7.201  -0.134  0.7927 -0.2250  0.1640
  686MOL0     C94558  10.622   7.281  -0.110 -0.9455  0.0726  0.3134
  686MOL0     C94559  10.466   7.097  -0.041 -0.1797  0.3734 -0.2298
  686MOL0     C94560  10.551   7.067   0.073 -0.3830  0.2226  0.0110
  686MOL0     O94561  10.503   7.086   0.197 -0.9850 -0.6529  0.4933
  686MOL0     C94562  10.580   7.066   0.307 -0.1478  0.5704  0.4891
  686MOL0     C94563  10.563   6.955   0.399 -0.5318 -0.3849  1.3596
  686MOL0     C94564  10.650   6.942   0.506  0.0488  0.1215  0.1498
  686MOL0     C94565  10.761   7.033   0.534  0.5606 -0.5178 -0.0130
  686MOL0     O94566  10.848   7.035   0.643  0.4023  0.6292 -0.8936
  686MOL0     C94567  10.882   6.912   0.703  0.7590  0.2438 -0.1917
  686MOL0     C94568  11.019   6.904   0.749  0.2600  0.1234  0.7266
  686MOL0     C94569  11.049   6.767   0.807  0.0615 -0.2867  0.1880
  686MOL0     C94570  11.200   6.763   0.847  0.5818  0.1954 -0.9878
  686MOL0     C94571  11.249   6.628   0.909  0.8010 -0.3199  0.2580
  686MOL0     C94572  11.367   6.651   0.991  0.2216  0.2256 -0.7495
  686MOL0     C94573  11.458   6.530   0.986 -0.1365  0.1930  0.1924
  686MOL0     C94574  11.589   6.581   1.041 -0.0424 -0.4804  0.4099
  686MOL0    Cl94575  11.710   6.441   1.065  0.3365 -0.0469 -0.1665
  686MOL0     C94576  10.770   7.138   0.444 -0.5458  0.0599 -0.9682
  686MOL0     C94577  10.689   7.152   0.335 -0.6104  0.1586  0.6403
  686MOL0     O94578  10.666   7.034   0.041  0.0100  0.0032  0.1712
  686MOL0     C94579  10.349   7.018  -0.075 -0.0759  0.1119 -0.9941
  686MOL0     C94580  10.267   7.048  -0.186 -0.4191 -0.2378 -0.9887
  686MOL0     N94581   9.851   7.692  -0.577 -0.0830 -0.6661  0.2420
  686MOL0     N94582   9.741   7.713  -0.519 -0.4300 -0.1737  0.4735
  686MOL0     C94583  10.041   7.929   0.297 -0.3253  0.0785 -0.6359
  686MOL0     C94584  10.122   8.034   0.324  0.7577 -0.1248 -0.4770
  686MOL0     C94585  10.480   8.283   0.469  1.2435 -0.1500 -0.3289
  686MOL0     C94586  10.542   8.298   0.593  0.5035  0.3867  0.0639
  686MOL0     C94587  10.658   8.367   0.617 -0.2483  0.7458  0.3694
  686MOL0     C94588  10.708   8.439   0.510  0.3727  0.6384  0.0899
  686MOL0     O94589  10.828   8.494   0.539 -0.0349  0.9080  0.3918
  686MOL0     C94590  10.946   8.422   0.499  0.2529  0.1381  0.4701
  686MOL0     C94591  11.019   8.409   0.637  0.0062  0.3062  0.5134
  686MOL0     C94592  11.143   8.330   0.596  0.2633  0.2112 -0.2565
  686MOL0     C94593  11.211   8.280   0.720  0.2117 -0.2971 -0.9548
  686MOL0     C94594  11.172   8.136   0.752 -0.6263  0.4986 -0.0648
  686MOL0     C94595  11.133   8.017   0.753 -0.2780  0.2866  0.8245
  686MOL0     C94596  10.660   8.428   0.385  0.5343  0.3417 -0.2989
  686MOL0     C94597  10.543   8.342   0.356 -0.3546 -0.4409  0.3756
  686MOL0     C94598  10.485   8.366   0.216 -0.2875  0.4923 -0.3950
  686MOL0     H94599  10.435   7.884   0.286 -0.1388 -1.6881  0.2672
  686MOL0     H94600  10.286   7.695   0.247  2.3850  0.4049 -3.0142
  686MOL0     H94601  10.109   7.534   0.267  1.5940  1.7376  1.3758
  686MOL0     H94602  10.115   7.616   0.104  0.4920  0.1624  0.2027
  686MOL0     H94603   9.973   7.392   0.107 -2.2631 -1.2888 -0.9529
  686MOL0     H94604   9.872   7.480   0.234 -2.7776 -0.6251 -1.0886
  686MOL0     H94605   9.829   7.647   0.033 -0.5011  0.3669 -3.6509
  686MOL0     H94606   9.888   7.510  -0.065 -1.6485  3.8144 -1.7791
  686MOL0     H94607   9.721   7.372   0.001 -1.1016  0.5318 -2.0890
  686MOL0     H94608   9.666   7.466   0.139 -1.0392 -0.0153  0.0981
  686MOL0     H94609   9.610   7.640  -0.036  1.2468 -0.8240  0.3471
  686MOL0     H94610   9.498   7.497  -0.031  0.5161 -2.3796  1.8741
  686MOL0     H94611   9.746   7.535  -0.229 -0.3460 -1.2098 -1.7854
  686MOL0     H94612   9.633   7.404  -0.230  2.3344 -1.3201 -0.0038
  686MOL0     H94613   9.576   7.714  -0.270  1.3497 -0.1460  1.8179
  686MOL0     H94614   9.448   7.598  -0.275  0.6397  0.8027 -0.2914
  686MOL0     H94615   9.520   7.470  -0.459 -0.6376  0.1319  0.1665
  686MOL0     H94616   9.484   7.636  -0.499 -0.1089 -1.3878 -0.2193
  686MOL0     H94617   9.736   7.391  -0.542  0.1434  0.4889  1.0360
  686MOL0     H94618  10.014   7.556  -0.761  0.6259  1.8098  0.6772
  686MOL0     H94619   9.975   7.390  -0.707 -1.3960  0.0255 -0.1336
  686MOL0     H94620  10.206   7.456  -0.652 -0.1486 -0.3750 -0.7438
  686MOL0     H94621  10.131   7.583  -0.542 -1.1451  0.2469  1.0208
  686MOL0     H94622  10.034   7.404  -0.415 -1.2313  0.7610  0.2583
  686MOL0     H94623  10.073   7.282  -0.551 -0.0330 -0.1524 -0.2104
  686MOL0     H94624  10.312   7.301  -0.487  1.2284  0.1054  2.1763
  686MOL0     H94625  10.246   7.416  -0.363 -4.4239  3.0850 -1.9828
  686MOL0     H94626  10.435   7.328  -0.291 -1.1161  0.6829  2.2926
  686MOL0     H94627  10.709   7.217  -0.130 -2.5223 -1.5676 -1.6846
  686MOL0     H94628  10.619   7.313  -0.005  0.8197  0.2039  0.3614
  686MOL0     H94629  10.629   7.364  -0.180  0.2676  0.4881  0.8826
  686MOL0     H94630  10.490   6.875   0.388 -1.0067 -0.1624  2.7731
  686MOL0     H94631  10.640   6.862   0.579 -0.6942  0.3473  0.3035
  686MOL0     H94632  10.817   6.888   0.788  0.9934 -2.1888 -0.6295
  686MOL0     H94633  10.864   6.831   0.632  2.7721  0.8865 -1.5353
  686MOL0     H94634  11.082   6.924   0.662  1.6650 -1.4609  1.3381
  686MOL0     H94635  11.044   6.974   0.830 -1.8902  4.2780 -1.8607
  686MOL0     H94636  11.049   6.704   0.717 -2.2454  1.0698 -0.8616
  686MOL0     H94637  10.975   6.730   0.878  2.1977 -2.8147  1.2679
  686MOL0     H94638  11.207   6.855   0.905 -2.7042  1.3475 -2.2426
  686MOL0     H94639  11.253   6.788   0.755  2.5827 -1.1401 -0.2768
  686MOL0     H94640  11.163   6.600   0.970 -1.2588  3.6831 -0.4607
  686MOL0     H94641  11.266   6.554   0.831 -0.1019  0.0125 -0.2800
  686MOL0     H94642  11.334   6.672   1.093 -1.4601  1.0389 -1.4236
  686MOL0     H94643  11.425   6.738   0.958  0.3366  0.6169  0.4420
  686MOL0     H94644  11.481   6.495   0.885 -1.8851 -3.0483  0.7684
  686MOL0     H94645  11.426   6.443   1.045 -2.9086  0.4454 -0.7750
  686MOL0     H94646  11.585   6.631   1.139  1.1553 -1.1673  0.8382
  686MOL0     H94647  11.642   6.657   0.984 -0.7143  0.7117  1.3213
  686MOL0     H94648  10.848   7.212   0.459  0.3680 -1.0258 -0.1706
  686MOL0     H94649  10.711   7.225   0.258 -0.3618 -1.8348 -1.2583
  686MOL0     H94650  10.327   6.940  -0.003  2.0154  2.3361  2.4130
  686MOL0     H94651  10.184   6.983  -0.208 -0.3250 -1.0988  0.9711
  686MOL0     H94652   9.933   7.940   0.296 -0.4230 -0.8434 -0.7796
  686MOL0     H94653  10.081   8.130   0.352 -2.7408 -1.4158 -0.7591
  686MOL0     H94654  10.498   8.244   0.676 -1.2876 -0.1782 -1.1872
  686MOL0     H94655  10.708   8.377   0.712 -1.2986  3.1898  0.7508
  686MOL0     H94656  10.917   8.326   0.454  1.9514 -1.1179  1.9068
  686MOL0     H94657  10.991   8.470   0.412 -0.4845  0.5759  0.3208
  686MOL0     H94658  10.954   8.346   0.698 -1.2336 -1.5787 -2.4691
  686MOL0     H94659  11.031   8.507   0.685 -1.3078  0.7302  0.0463
  686MOL0     H94660  11.117   8.237   0.546 -0.8559 -0.6468  1.7829
  686MOL0     H94661  11.211   8.395   0.540  1.7697 -0.8256  0.3085
  686MOL0     H94662  11.190   8.341   0.809  1.4276 -1.6585  0.3143
  686MOL0     H94663  11.321   8.279   0.714  0.4189 -0.0177  1.6230
  686MOL0     H94664  11.101   7.915   0.758  2.7994 -0.7604  2.0421
  686MOL0     H94665  10.700   8.486   0.302 -1.1086  0.0937 -1.3139
  686MOL0     H94666  10.533   8.308   0.138 -0.0211  0.8784 -0.5206
  686MOL0     H94667  10.377   8.345   0.216 -0.9224  2.7477  3.3463
  686MOL0     H94668  10.486   8.472   0.189  0.5579 -0.4178 -4.6327
  687MOL0     O94669   1.655   0.290   9.177  0.4871  0.4834 -0.4348
  687MOL0     C94670   1.648   0.185   9.109 -0.2813  0.1398 -0.9966
  687MOL0     O94671   1.748   0.097   9.088 -0.0440  0.6763  0.4199
  687MOL0     C94672   1.825   0.057   9.183  0.4110  0.3720 -0.5538
  687MOL0     C94673   1.777   0.045   9.317  0.1799 -0.6206  0.7011
  687MOL0     C94674   1.870  -0.004   9.407  0.3385 -0.9005  0.7185
  687MOL0     C94675   1.999  -0.045   9.376 -0.4759 -0.0168  0.2665
  687MOL0     O94676   2.088  -0.117   9.457  0.3317 -0.6603  0.1777
  687MOL0     C94677   2.063  -0.103   9.600 -0.1056 -0.7710  0.3860
  687MOL0     C94678   2.187  -0.165   9.680 -0.4806  0.0763  0.3626
  687MOL0     C94679   2.200  -0.318   9.663  0.2667  0.0689 -1.3009
  687MOL0     C94680   2.313  -0.375   9.743 -0.0671 -0.2481 -1.5486
  687MOL0     C94681   2.305  -0.528   9.732 -0.4896 -0.0439  0.0063
  687MOL0     C94682   2.409  -0.594   9.823  0.6781  0.1242 -0.0543
  687MOL0     C94683   2.381  -0.744   9.835 -0.0092  0.2414 -0.3530
  687MOL0     C94684   2.522  -0.813   9.860  0.8635  0.8057 -0.4092
  687MOL0     N94685   2.586  -0.790   9.995  0.7300 -0.4391 -0.8638
  687MOL0     C94686   2.543  -0.822  10.119  0.3149 -0.2911  0.8395
  687MOL0     C94687   2.645  -0.817  10.205  0.0758  0.4727  0.0928
  687MOL0     C94688   2.650  -0.865  10.353  0.6788  0.2987  0.3855
  687MOL0     C94689   2.602  -1.012  10.384 -0.4410  0.1063 -0.5190
  687MOL0     C94690   2.646  -1.112  10.281  0.4024  0.4848  0.0765
  687MOL0     C94691   2.791  -1.123  10.243  0.0844 -0.1367  0.4284
  687MOL0     O94692   2.800  -1.192  10.119 -0.4262 -0.7803  0.0282
  687MOL0     C94693   2.886  -1.130  10.032 -0.0642  0.4878 -0.5908
  687MOL0     C94694   2.860  -1.042   9.925 -0.2383  0.7039  0.2681
  687MOL0     C94695   2.963  -0.977   9.852 -0.0444 -0.7070  0.6173
  687MOL0     C94696   2.935  -0.888   9.731  0.4556  0.5304 -0.1461
  687MOL0     C94697   3.100  -0.993   9.889  0.9167  0.0888 -1.0312
  687MOL0     C94698   3.220  -0.926   9.828 -0.4795  1.3180  0.0902
  687MOL0     O94699   3.234  -0.791   9.816  0.0249  0.2174  0.1743
  687MOL0     C94700   3.352  -0.721   9.800 -0.3230  0.0432 -0.1230
  687MOL0     C94701   3.476  -0.769   9.758 -0.7975 -0.3941 -0.4316
  687MOL0     C94702   3.579  -0.668   9.753 -0.0160 -1.0341 -0.3779
  687MOL0     C94703   3.557  -0.528   9.751 -0.4031  0.6533  0.3010
  687MOL0     O94704   3.649  -0.436   9.707 -0.5299 -0.7821  0.1191
  687MOL0     C94705   3.669  -0.331   9.804  0.4863 -0.0409  1.3707
  687MOL0     C94706   3.826  -0.319   9.812  0.7575  0.5216  0.2541
  687MOL0     C94707   3.855  -0.220   9.932 -0.8341  1.2909 -0.3627
  687MOL0     C94708   4.001  -0.223   9.960  0.2114 -0.2773 -1.5304
  687MOL0     C94709   4.029  -0.143  10.089 -0.0079 -0.4511  0.6730
  687MOL0     C94710   4.172  -0.167  10.139  0.0399  0.2564 -0.0760
  687MOL0     C94711   4.272  -0.077  10.059 -0.8971 -0.0930 -0.3779
  687MOL0     C94712   4.401  -0.142  10.040  0.2655 -0.2150  0.6114
  687MOL0    Cl94713   4.483  -0.141  10.195  0.5223  0.3331  0.3730
  687MOL0     C94714   3.423  -0.490   9.777 -0.5991  0.4195  0.0171
  687MOL0     C94715   3.330  -0.584   9.811  0.5417  0.6280 -0.1971
  687MOL0     O94716   3.306  -1.010   9.815 -0.0993 -0.5849 -0.1108
  687MOL0     C94717   3.120  -1.077  10.004 -0.7979 -0.4986 -0.1055
  687MOL0     C94718   3.014  -1.151  10.065 -0.2340 -0.2482  0.4853
  687MOL0     N94719   2.752  -0.768  10.128 -0.1214  0.3902  0.7848
  687MOL0     N94720   2.713  -0.753  10.003 -0.2061  0.2643 -0.3928
  687MOL0     C94721   2.044  -0.033   9.244 -0.4947  0.4099 -2.1250
  687MOL0     C94722   1.953   0.024   9.152 -0.1842 -0.3276  0.8199
  687MOL0     C94723   1.517   0.177   9.028  0.1430 -0.1085 -0.7400
  687MOL0     C94724   1.405   0.249   9.061  0.0795 -0.1980 -0.2807
  687MOL0     C94725   1.286   0.231   8.994  0.6421  0.4968  0.6900
  687MOL0     C94726   1.272   0.134   8.891  0.1239  0.2749 -0.0770
  687MOL0     O94727   1.151   0.104   8.821 -0.0019 -0.1792  0.1837
  687MOL0     C94728   1.050   0.206   8.788  0.0391 -0.6717  0.1960
  687MOL0     C94729   0.942   0.155   8.706  0.1985 -0.1993 -0.2078
  687MOL0     C94730   0.868   0.034   8.773  0.2372  0.2066  0.7679
  687MOL0     C94731   0.757   0.073   8.868 -0.1784  0.7908  0.3557
  687MOL0     C94732   0.628   0.124   8.807  0.0211  0.5670 -0.0312
  687MOL0     C94733   0.519   0.156   8.765 -0.3401  0.7153 -0.4962
  687MOL0     C94734   1.385   0.068   8.850 -0.7369 -0.2828  0.5386
  687MOL0     C94735   1.507   0.092   8.911 -0.2389  0.3015  0.3742
  687MOL0     C94736   1.633   0.031   8.849  0.6193  1.0514  0.0713
  687MOL0     H94737   1.672   0.060   9.340  0.0890 -0.9065  0.4726
  687MOL0     H94738   1.836  -0.019   9.509 -0.2821 -2.0787  0.3565
  687MOL0     H94739   1.968  -0.148   9.630 -2.6116  2.3288 -2.1534
  687MOL0     H94740   2.051   0.003   9.625 -1.3279 -1.7373  4.6325
  687MOL0     H94741   2.277  -0.119   9.639 -0.4824 -0.2149  0.0241
  687MOL0     H94742   2.178  -0.123   9.781 -1.5011  1.7024 -0.3599
  687MOL0     H94743   2.111  -0.361   9.710  1.0893 -0.0719  0.1899
  687MOL0     H94744   2.192  -0.350   9.559 -2.5459  0.0928 -1.1654
  687MOL0     H94745   2.414  -0.338   9.722  0.6340 -1.1244  0.0612
  687MOL0     H94746   2.304  -0.353   9.850  1.9397 -1.2884 -1.1036
  687MOL0     H94747   2.318  -0.563   9.629  3.4388  1.2745 -0.1211
  687MOL0     H94748   2.210  -0.559   9.778  0.9367 -0.2396  3.0156
  687MOL0     H94749   2.510  -0.563   9.792  1.2527 -2.3642 -0.8328
  687MOL0     H94750   2.387  -0.562   9.926  1.6955 -1.1801  0.5970
  687MOL0     H94751   2.346  -0.784   9.739  2.8868 -0.1180 -1.3343
  687MOL0     H94752   2.298  -0.767   9.903  0.0591  3.1030  0.8533
  687MOL0     H94753   2.499  -0.920   9.855 -0.8162  1.0281  1.3060
  687MOL0     H94754   2.587  -0.780   9.779  0.7038 -2.4945 -2.0657
  687MOL0     H94755   2.440  -0.848  10.144 -0.1432 -0.2880 -0.9293
  687MOL0     H94756   2.580  -0.803  10.410 -3.6953 -2.9885 -0.8643
  687MOL0     H94757   2.749  -0.843  10.396  0.6846  0.1798  0.4338
  687MOL0     H94758   2.621  -1.058  10.481 -2.9360 -2.1720 -0.9975
  687MOL0     H94759   2.493  -1.015  10.376 -0.5173  2.3977 -1.2894
  687MOL0     H94760   2.602  -1.209  10.307  1.0784 -0.0052 -0.5889
  687MOL0     H94761   2.591  -1.090  10.189  1.9096  2.9017 -0.3522
  687MOL0     H94762   2.831  -1.021  10.246 -2.1226  0.7955  3.7683
  687MOL0     H94763   2.847  -1.176  10.321  1.8691  0.2029 -0.5624
  687MOL0     H94764   2.757  -1.032   9.891 -0.3221 -0.3107  0.2005
  687MOL0     H94765   3.005  -0.902   9.648 -1.1364 -0.5039 -1.3787
  687MOL0     H94766   2.939  -0.782   9.761  0.4982 -0.1049  2.3290
  687MOL0     H94767   2.834  -0.906   9.693  0.1616  1.1233  0.3210
  687MOL0     H94768   3.498  -0.875   9.751  0.3323 -0.2347  0.4304
  687MOL0     H94769   3.680  -0.706   9.746  1.0588  1.2429  1.5971
  687MOL0     H94770   3.619  -0.245   9.757 -2.5807 -2.1330  0.4888
  687MOL0     H94771   3.625  -0.347   9.903 -1.1095 -1.3980  0.4896
  687MOL0     H94772   3.876  -0.415   9.825  2.3793  1.0023 -1.7985
  687MOL0     H94773   3.860  -0.298   9.710 -2.0753 -0.4935 -0.9786
  687MOL0     H94774   3.820  -0.279  10.017  1.5238 -0.1422 -0.2954
  687MOL0     H94775   3.815  -0.119   9.920  0.2345  2.0764  2.0320
  687MOL0     H94776   4.053  -0.175   9.877  1.7707 -1.0069 -1.0135
  687MOL0     H94777   4.042  -0.322   9.982 -0.3251 -0.1515  0.1573
  687MOL0     H94778   4.008  -0.041  10.058 -0.6008 -1.3535 -2.2403
  687MOL0     H94779   3.953  -0.170  10.162 -1.5175  0.6500 -0.4375
  687MOL0     H94780   4.189  -0.274  10.126 -4.0173 -0.6468  0.8047
  687MOL0     H94781   4.181  -0.144  10.246 -0.8888 -1.7325  0.4816
  687MOL0     H94782   4.287   0.017  10.114  0.5068 -1.8230  2.4419
  687MOL0     H94783   4.237  -0.057   9.957  0.6993  0.9939 -0.7445
  687MOL0     H94784   4.459  -0.095   9.960  1.3205 -4.9566 -1.8013
  687MOL0     H94785   4.385  -0.245  10.007 -0.2553  0.4355 -1.3036
  687MOL0     H94786   3.393  -0.387   9.758  1.2925  0.7193 -1.6435
  687MOL0     H94787   3.232  -0.541   9.831  0.8045  0.6622  1.1268
  687MOL0     H94788   3.218  -1.094  10.048 -1.8611 -1.5840  1.9547
  687MOL0     H94789   3.040  -1.231  10.133  1.8145  1.1423  1.4542
  687MOL0     H94790   2.149  -0.043   9.221  1.0644  6.6649  0.4038
  687MOL0     H94791   1.973   0.060   9.052 -1.0896  1.8553  1.3755
  687MOL0     H94792   1.415   0.333   9.129 -0.5990 -0.1476 -0.2331
  687MOL0     H94793   1.201   0.290   9.026  0.3009 -0.3071  1.3126
  687MOL0     H94794   1.018   0.248   8.884 -1.2200  1.9159 -1.2304
  687MOL0     H94795   1.090   0.298   8.744 -2.6356  1.7606  2.3547
  687MOL0     H94796   0.994   0.120   8.617  2.2091  0.1312  0.7689
  687MOL0     H94797   0.878   0.240   8.682  3.8875  2.9141  0.0368
  687MOL0     H94798   0.824  -0.016   8.686  3.2629  1.4143 -1.6670
  687MOL0     H94799   0.928  -0.044   8.821  0.8083  0.1800  0.0378
  687MOL0     H94800   0.787   0.150   8.939 -0.6101 -0.2330  1.7039
  687MOL0     H94801   0.734  -0.015   8.930 -0.7908 -0.0814 -1.0689
  687MOL0     H94802   0.428   0.192   8.721 -2.0988 -2.0559  0.6219
  687MOL0     H94803   1.366   0.011   8.759  0.0045 -0.3474  0.4223
  687MOL0     H94804   1.675  -0.052   8.907  1.7799  1.4557 -0.1641
  687MOL0     H94805   1.614  -0.001   8.746 -0.3282  1.4784  0.0999
  687MOL0     H94806   1.708   0.109   8.833  1.8377  0.2530  1.6943
  688MOL0     O94807   2.473   5.173   4.506 -0.5665 -0.7090 -0.9563
  688MOL0     C94808   2.543   5.145   4.410 -0.3952  0.1824  0.0845
  688MOL0     O94809   2.665   5.087   4.416 -0.3440 -0.2991  0.1728
  688MOL0     C94810   2.712   5.055   4.535  0.1548 -0.4122  0.0922
  688MOL0     C94811   2.779   5.148   4.611 -0.0769 -0.4878 -0.0198
  688MOL0     C94812   2.828   5.117   4.741  0.5034  0.2346  0.5958
  688MOL0     C94813   2.809   4.990   4.792  0.5320 -0.0591  0.5123
  688MOL0     O94814   2.846   4.942   4.913  0.0362  0.0327  0.4433
  688MOL0     C94815   2.975   4.976   4.961  0.7909 -0.1445  0.4282
  688MOL0     C94816   3.086   4.889   4.898 -0.0116 -0.0757  0.1342
  688MOL0     C94817   3.094   4.752   4.973 -1.0376 -0.1054 -0.3506
  688MOL0     C94818   3.041   4.630   4.891 -0.9918  0.4078 -0.8702
  688MOL0     C94819   2.992   4.513   4.977  0.6216  0.6955  1.0152
  688MOL0     C94820   2.922   4.411   4.889  0.3781  0.7534  0.0304
  688MOL0     C94821   2.786   4.451   4.828  0.1197 -0.5779 -0.7300
  688MOL0     C94822   2.715   4.333   4.754 -1.3256 -0.6756  0.1626
  688MOL0     N94823   2.799   4.264   4.653  0.6462  0.4660 -0.3727
  688MOL0     C94824   2.870   4.323   4.547  0.2349  0.1588  0.3872
  688MOL0     C94825   2.954   4.227   4.502 -0.3503  0.5791 -0.0051
  688MOL0     C94826   3.039   4.251   4.382 -0.8922 -0.2303  0.3229
  688MOL0     C94827   3.122   4.123   4.339  0.2321  0.7498 -0.2710
  688MOL0     C94828   3.223   4.074   4.453  0.4380 -0.2636  0.3284
  688MOL0     C94829   3.318   3.974   4.393  0.2475  0.6864 -0.7079
  688MOL0     O94830   3.429   4.053   4.367  0.4271 -0.7329 -0.1917
  688MOL0     C94831   3.538   3.990   4.319 -0.0051 -0.3390 -0.1965
  688MOL0     C94832   3.648   4.071   4.294  0.1294 -0.5657 -0.2049
  688MOL0     C94833   3.774   4.015   4.271 -0.4893  0.0844 -0.1533
  688MOL0     C94834   3.897   4.109   4.267 -0.2160  0.1714 -0.1251
  688MOL0     C94835   3.787   3.871   4.261  0.2734 -0.6284 -0.5315
  688MOL0     C94836   3.914   3.795   4.264  0.2023 -0.6755  0.2781
  688MOL0     O94837   3.922   3.676   4.332  0.2241  0.4151  0.1596
  688MOL0     C94838   4.036   3.610   4.321  0.8936  0.5605  0.3714
  688MOL0     C94839   4.098   3.589   4.441 -0.9276 -0.3418  0.4576
  688MOL0     C94840   4.203   3.496   4.443  0.1699  0.3292  0.9447
  688MOL0     C94841   4.253   3.440   4.325 -0.2913  0.3960  0.2532
  688MOL0     O94842   4.363   3.364   4.332 -0.8999  0.1934  0.1815
  688MOL0     C94843   4.339   3.230   4.387  0.8552 -0.4514  0.1432
  688MOL0     C94844   4.462   3.139   4.359 -0.1487 -0.8108  0.0276
  688MOL0     C94845   4.444   3.001   4.310 -0.1410 -0.0059 -0.8859
  688MOL0     C94846   4.560   2.915   4.360 -0.0106  0.0991  1.5082
  688MOL0     C94847   4.545   2.772   4.310 -1.0776  0.7997  0.7970
  688MOL0     C94848   4.679   2.688   4.302 -0.2008  0.0748 -0.1443
  688MOL0     C94849   4.661   2.557   4.238 -0.1085 -0.5897  0.5326
  688MOL0     C94850   4.794   2.475   4.220  0.2553 -0.0519 -1.0706
  688MOL0    Cl94851   4.742   2.316   4.154 -0.1081  0.4302 -0.2745
  688MOL0     C94852   4.196   3.478   4.204  0.4237  0.5849  0.1244
  688MOL0     C94853   4.084   3.560   4.196  1.0206  0.9407 -0.5491
  688MOL0     O94854   4.007   3.845   4.200  0.6941  0.2932  0.0667
  688MOL0     C94855   3.669   3.794   4.252 -0.8771  0.4950  0.0874
  688MOL0     C94856   3.542   3.850   4.284 -0.6183 -0.4379 -0.2813
  688MOL0     N94857   2.933   4.107   4.577 -0.3497 -0.4330 -0.0350
  688MOL0     N94858   2.846   4.138   4.671 -0.0077  0.0979  0.4864
  688MOL0     C94859   2.737   4.892   4.715  0.1234 -0.8413 -0.1759
  688MOL0     C94860   2.691   4.932   4.585 -0.5683  0.4478 -0.0904
  688MOL0     C94861   2.487   5.182   4.280  0.6257  0.4366  0.6351
  688MOL0     C94862   2.535   5.105   4.172  0.0721 -0.5525  0.2698
  688MOL0     C94863   2.515   5.142   4.039 -0.3616 -0.3835  0.0680
  688MOL0     C94864   2.433   5.252   4.013 -0.8552  0.2728 -0.4282
  688MOL0     O94865   2.433   5.284   3.879  0.3016  1.4045 -0.2652
  688MOL0     C94866   2.335   5.374   3.831 -1.6280 -0.8543 -1.0718
  688MOL0     C94867   2.326   5.328   3.684  0.5951  0.0871 -0.3531
  688MOL0     C94868   2.231   5.404   3.588 -0.3590  0.3948 -0.2214
  688MOL0     C94869   2.247   5.560   3.598 -0.1623  0.9076  0.1230
  688MOL0     C94870   2.386   5.595   3.585 -0.2812 -0.4389  0.3961
  688MOL0     C94871   2.506   5.621   3.566  0.2908  0.8376 -1.1486
  688MOL0     C94872   2.390   5.336   4.116 -0.0052 -0.1597 -0.1749
  688MOL0     C94873   2.408   5.295   4.247 -0.3914  0.0451 -0.3618
  688MOL0     C94874   2.361   5.397   4.358  0.1910 -0.0849  0.3891
  688MOL0     H94875   2.795   5.246   4.568  0.4811  0.0023  1.2559
  688MOL0     H94876   2.884   5.186   4.805  1.8847 -2.2946  2.2981
  688MOL0     H94877   2.977   4.981   5.070 -0.2839 -2.0288  0.5729
  688MOL0     H94878   3.003   5.077   4.929  2.2456 -1.4533 -2.9794
  688MOL0     H94879   3.079   4.872   4.790 -0.9933 -0.7053  0.2897
  688MOL0     H94880   3.180   4.943   4.912  1.4568 -1.4756 -3.1824
  688MOL0     H94881   3.199   4.731   4.992  0.0615  4.5929  0.0318
  688MOL0     H94882   3.055   4.765   5.075  3.7906  1.2786  1.5759
  688MOL0     H94883   2.968   4.662   4.816  0.0828  3.6297 -0.6828
  688MOL0     H94884   3.116   4.584   4.826  0.2347  2.5062 -1.0420
  688MOL0     H94885   2.918   4.539   5.054 -2.8236 -2.6117 -0.8200
  688MOL0     H94886   3.065   4.456   5.034  1.2268 -1.6123 -1.8218
  688MOL0     H94887   2.996   4.379   4.815 -2.3071 -0.0246 -2.5658
  688MOL0     H94888   2.897   4.320   4.944 -0.9951  0.3923 -1.1100
  688MOL0     H94889   2.788   4.544   4.771  0.7317  0.0898  0.3408
  688MOL0     H94890   2.731   4.471   4.921  3.3845  0.8011  1.1021
  688MOL0     H94891   2.685   4.267   4.835  1.2946 -0.8795  1.0676
  688MOL0     H94892   2.623   4.365   4.704 -2.1662 -0.7034  1.6288
  688MOL0     H94893   2.858   4.419   4.499  0.2593  0.2160  0.4955
  688MOL0     H94894   3.105   4.335   4.405 -4.0216  3.2885 -2.2347
  688MOL0     H94895   2.969   4.280   4.304 -2.6852 -0.2904  1.8414
  688MOL0     H94896   3.047   4.049   4.312  0.5397  0.5901 -0.7067
  688MOL0     H94897   3.169   4.150   4.244  2.8318  1.3222  1.0852
  688MOL0     H94898   3.275   4.158   4.499 -0.1180  1.5581 -2.1920
  688MOL0     H94899   3.176   4.027   4.540  3.6057  0.1944  2.4378
  688MOL0     H94900   3.320   3.873   4.436 -0.4256  0.3014 -1.5721
  688MOL0     H94901   3.279   3.950   4.294 -0.6781 -1.8707  0.1828
  688MOL0     H94902   3.646   4.179   4.309 -1.9771 -0.7116  0.9616
  688MOL0     H94903   3.977   4.088   4.338  1.4420  2.2760 -1.2554
  688MOL0     H94904   3.874   4.214   4.285 -0.4788 -0.3247  2.9453
  688MOL0     H94905   3.952   4.102   4.172  1.5751  3.4561  0.5127
  688MOL0     H94906   4.049   3.640   4.524 -0.4808 -0.9396  1.0910
  688MOL0     H94907   4.239   3.472   4.542 -2.0829  0.4834  1.8498
  688MOL0     H94908   4.317   3.226   4.494 -1.0012 -0.3876 -0.1914
  688MOL0     H94909   4.255   3.190   4.330  2.4340  0.3134 -2.9176
  688MOL0     H94910   4.540   3.196   4.306 -0.9292  1.0869  0.8369
  688MOL0     H94911   4.509   3.113   4.454  0.3689 -0.2184 -0.0588
  688MOL0     H94912   4.437   3.002   4.201  0.2206  1.6930 -0.9222
  688MOL0     H94913   4.351   2.961   4.350  0.5920  0.6283  1.5802
  688MOL0     H94914   4.565   2.906   4.469 -1.5037  0.3397  1.6176
  688MOL0     H94915   4.655   2.957   4.325  0.0393 -0.8640  0.4173
  688MOL0     H94916   4.484   2.700   4.366 -1.2754 -1.5329 -2.1384
  688MOL0     H94917   4.482   2.767   4.220 -2.3113  2.5742  1.4996
  688MOL0     H94918   4.720   2.671   4.402 -1.1505 -1.3541  0.0305
  688MOL0     H94919   4.747   2.749   4.242 -1.1364  1.0926 -0.2044
  688MOL0     H94920   4.614   2.577   4.142 -0.8875  0.1691  1.0595
  688MOL0     H94921   4.583   2.495   4.282  0.4273 -1.1315  0.7279
  688MOL0     H94922   4.830   2.462   4.323 -0.7508 -0.5633 -0.7716
  688MOL0     H94923   4.875   2.510   4.155  0.9478 -2.3310 -1.5213
  688MOL0     H94924   4.251   3.454   4.113  1.9725  2.1062  0.6081
  688MOL0     H94925   4.029   3.573   4.103  1.9867  0.1837 -1.2474
  688MOL0     H94926   3.678   3.690   4.221  1.2414  0.9183 -0.9190
  688MOL0     H94927   3.456   3.788   4.305 -2.2622  1.3648 -1.3381
  688MOL0     H94928   2.693   4.800   4.753  1.1090 -1.1197  0.3399
  688MOL0     H94929   2.632   4.860   4.529  1.7977 -1.6024 -0.1494
  688MOL0     H94930   2.594   5.015   4.185  2.4761  0.8769  0.0328
  688MOL0     H94931   2.550   5.093   3.949 -0.2348  0.1825 -0.1908
  688MOL0     H94932   2.238   5.378   3.883 -0.9648 -1.7481  0.2775
  688MOL0     H94933   2.366   5.476   3.857  1.7322 -2.0590  0.1894
  688MOL0     H94934   2.290   5.225   3.695  2.2356 -0.3210  1.7854
  688MOL0     H94935   2.428   5.340   3.648  0.4317  0.4752 -0.7004
  688MOL0     H94936   2.256   5.376   3.485 -1.2116 -0.2863 -0.2576
  688MOL0     H94937   2.124   5.388   3.609 -0.0180  0.2358  1.5370
  688MOL0     H94938   2.219   5.596   3.697 -1.0224  2.4555 -0.6412
  688MOL0     H94939   2.175   5.606   3.529 -1.8114 -2.0385 -0.2574
  688MOL0     H94940   2.613   5.628   3.560  0.6281 -0.6209  1.7308
  688MOL0     H94941   2.349   5.433   4.090  0.1679 -0.9761 -4.2053
  688MOL0     H94942   2.307   5.486   4.327 -3.7250 -2.5637 -0.6312
  688MOL0     H94943   2.298   5.345   4.430  1.5284  1.0037  2.4625
  688MOL0     H94944   2.455   5.428   4.405  1.7319 -2.0632 -1.2223
  689MOL0     O94945  10.191   3.691  10.711  0.3553  0.1440 -0.7239
  689MOL0     C94946  10.247   3.656  10.818 -0.0939  0.5397  0.3551
  689MOL0     O94947  10.383   3.674  10.856  0.4680 -0.3239 -0.1880
  689MOL0     C94948  10.467   3.754  10.779  0.6502 -0.1461 -0.2009
  689MOL0     C94949  10.600   3.722  10.777  0.0985 -0.1840 -0.0756
  689MOL0     C94950  10.686   3.773  10.678 -0.5119  0.1644 -0.8458
  689MOL0     C94951  10.647   3.886  10.609  0.8162  0.7067  0.4842
  689MOL0     O94952  10.716   3.920  10.492 -0.2218  0.2876 -0.1826
  689MOL0     C94953  10.846   3.971  10.521  0.0695 -0.1151  0.1427
  689MOL0     C94954  10.921   3.967  10.394 -0.1380  0.4327  0.8038
  689MOL0     C94955  11.046   4.056  10.409 -0.9137 -0.1372  0.4548
  689MOL0     C94956  11.116   4.067  10.275  0.2220 -0.4891  0.5007
  689MOL0     C94957  11.251   4.140  10.286  0.2169  0.5884  0.1875
  689MOL0     C94958  11.328   4.135  10.151  0.4537 -1.1637 -0.2174
  689MOL0     C94959  11.444   4.231  10.149 -0.1951  0.3110 -0.1818
  689MOL0     C94960  11.497   4.231  10.002  1.2430 -0.2844 -0.3311
  689MOL0     N94961  11.613   4.321   9.994  0.7643  0.2048  0.6191
  689MOL0     C94962  11.611   4.461  10.015  0.4660  0.0786 -0.9071
  689MOL0     C94963  11.737   4.503  10.004  0.3334  0.0951  0.1760
  689MOL0     C94964  11.794   4.643  10.015  1.2074  0.1182 -1.1578
  689MOL0     C94965  11.803   4.720   9.882  0.3769 -1.1193 -0.6799
  689MOL0     C94966  11.845   4.866   9.911 -0.3263  0.0629 -0.1824
  689MOL0     C94967  11.993   4.886   9.905 -0.1465 -0.2594 -1.0895
  689MOL0     O94968  12.057   4.799   9.998  0.3301  0.3468 -0.2049
  689MOL0     C94969  12.192   4.802  10.016 -0.8084 -0.1197 -0.0760
  689MOL0     C94970  12.269   4.900   9.956 -0.2331 -0.3234  0.3442
  689MOL0     C94971  12.407   4.913   9.977 -0.5806 -0.5770  0.0795
  689MOL0     C94972  12.478   5.025   9.901 -0.6132 -0.4994  0.7987
  689MOL0     C94973  12.478   4.831  10.067 -0.1648 -0.7176  0.5939
  689MOL0     C94974  12.620   4.839  10.091 -0.3533 -0.3354 -0.1315
  689MOL0     O94975  12.668   4.966  10.092  0.2875  0.6223 -0.4340
  689MOL0     C94976  12.796   4.984  10.049 -0.0888  0.8993 -0.6258
  689MOL0     C94977  12.822   5.086   9.946 -0.0895 -0.1017 -0.8191
  689MOL0     C94978  12.948   5.123   9.922 -0.5158 -0.2798 -0.4367
  689MOL0     C94979  13.056   5.072   9.989  0.3416  0.1580  0.7496
  689MOL0     O94980  13.180   5.114   9.945 -0.1692  0.1935  0.0445
  689MOL0     C94981  13.282   5.136  10.043 -0.8565 -0.8659  0.0521
  689MOL0     C94982  13.356   5.264   9.994 -0.7278 -0.9202 -0.1844
  689MOL0     C94983  13.491   5.282  10.074 -0.5885 -0.2317  0.4363
  689MOL0     C94984  13.527   5.431  10.089 -0.4465 -0.2372  0.7343
  689MOL0     C94985  13.651   5.440  10.187  0.2254 -0.6138 -0.3172
  689MOL0     C94986  13.681   5.589  10.212 -0.1057 -1.2313 -0.5159
  689MOL0     C94987  13.814   5.606  10.292  0.4399  0.7704 -0.0300
  689MOL0     C94988  13.819   5.551  10.436 -0.7342 -0.3197  0.1735
  689MOL0    Cl94989  13.839   5.376  10.449 -0.1203  0.0435  0.0150
  689MOL0     C94990  13.030   4.984  10.095 -0.4062  0.8102 -0.4650
  689MOL0     C94991  12.905   4.943  10.129 -0.1905 -0.7377  0.2388
  689MOL0     O94992  12.693   4.739  10.100  0.3670  1.0652 -0.5683
  689MOL0     C94993  12.400   4.740  10.135 -0.1188 -0.2390  0.2538
  689MOL0     C94994  12.276   4.727  10.110  0.2790  0.2168  0.1855
  689MOL0     N94995  11.803   4.399   9.944  0.3895  0.0846 -0.2228
  689MOL0     N94996  11.732   4.295   9.936  0.5320 -0.1709  0.1603
  689MOL0     C94997  10.518   3.933  10.629 -0.3175  0.2368  1.0556
  689MOL0     C94998  10.430   3.866  10.706 -0.4666  0.7505  0.1338
  689MOL0     C94999  10.180   3.562  10.907 -0.2551 -0.3772 -0.2818
  689MOL0     C95000  10.255   3.485  11.002 -0.1151 -0.6131 -0.0999
  689MOL0     C95001  10.200   3.393  11.095  0.0892  0.0923  0.2058
  689MOL0     C95002  10.057   3.383  11.094  0.0685  0.5303  0.1138
  689MOL0     O95003   9.996   3.303  11.188 -0.2345  0.2448 -0.4040
  689MOL0     C95004   9.896   3.212  11.143  1.0971  0.1121 -0.6926
  689MOL0     C95005   9.954   3.089  11.080 -0.0510  0.7152  0.0987
  689MOL0     C95006   9.853   2.971  11.079  0.3519 -0.3973 -0.2208
  689MOL0     C95007   9.776   2.928  11.204 -0.0828 -0.2884  0.1209
  689MOL0     C95008   9.699   2.804  11.182  0.8281 -0.9282 -0.7849
  689MOL0     C95009   9.641   2.703  11.157 -0.7096  0.1893  0.1258
  689MOL0     C95010   9.985   3.454  11.002 -0.4443 -0.7244 -0.1888
  689MOL0     C95011  10.045   3.549  10.919  0.2293 -0.0412 -0.2855
  689MOL0     C95012   9.931   3.621  10.838  0.1844  0.1952 -0.4152
  689MOL0     H95013  10.632   3.649  10.851 -0.4703  1.3852  1.7983
  689MOL0     H95014  10.779   3.722  10.654  1.0826  1.7753  1.5398
  689MOL0     H95015  10.898   3.930  10.608  4.0238 -0.0521 -1.9636
  689MOL0     H95016  10.818   4.076  10.534 -1.3651  0.1035 -3.5660
  689MOL0     H95017  10.958   3.870  10.361  1.4307  1.5463 -0.9010
  689MOL0     H95018  10.868   4.010  10.309  0.7186  1.3004  0.6868
  689MOL0     H95019  11.022   4.159  10.439 -2.7937 -0.5040  0.3341
  689MOL0     H95020  11.109   4.020  10.491 -2.0370 -2.4773  0.3474
  689MOL0     H95021  11.136   3.965  10.240  3.5314 -0.6247  2.3287
  689MOL0     H95022  11.048   4.121  10.209 -1.5273 -2.9306  0.1629
  689MOL0     H95023  11.310   4.085  10.360  3.3612  0.3423 -2.2768
  689MOL0     H95024  11.228   4.239  10.326 -3.0345  0.0054  0.0486
  689MOL0     H95025  11.368   4.035  10.130  2.3917 -0.2981 -0.9154
  689MOL0     H95026  11.253   4.162  10.077 -0.4811  0.4755  1.2653
  689MOL0     H95027  11.526   4.200  10.215  0.7716  2.4739 -0.2799
  689MOL0     H95028  11.417   4.333  10.179  1.0913  0.5450  0.2356
  689MOL0     H95029  11.522   4.129   9.969 -0.4239 -0.6202 -0.6392
  689MOL0     H95030  11.420   4.269   9.934  1.1331  0.8878  0.4207
  689MOL0     H95031  11.531   4.516  10.064  2.7238  1.6703  1.2154
  689MOL0     H95032  11.891   4.646  10.066 -0.5701  1.0421  2.5347
  689MOL0     H95033  11.730   4.701  10.082  1.4643  0.7214 -1.4231
  689MOL0     H95034  11.884   4.670   9.828  2.1931  0.9499 -0.0028
  689MOL0     H95035  11.705   4.720   9.832 -0.0880  2.3057 -0.0424
  689MOL0     H95036  11.820   4.935   9.831  0.5158  0.6784  0.0610
  689MOL0     H95037  11.798   4.909  10.000 -1.5625  5.0598 -2.8800
  689MOL0     H95038  12.037   4.857   9.809  1.2135 -5.3256  0.7412
  689MOL0     H95039  12.012   4.985   9.946 -0.1662  0.0830 -1.9027
  689MOL0     H95040  12.223   4.965   9.883 -0.1881 -1.8032 -1.0731
  689MOL0     H95041  12.403   5.061   9.830  0.2472  0.5748  0.4118
  689MOL0     H95042  12.567   4.994   9.848 -1.0216  1.2296 -1.0269
  689MOL0     H95043  12.504   5.108   9.968 -0.9457  0.3482 -0.0923
  689MOL0     H95044  12.735   5.130   9.899 -0.6959 -2.0973 -1.6599
  689MOL0     H95045  12.965   5.196   9.844 -2.2564 -1.7050 -2.2311
  689MOL0     H95046  13.248   5.156  10.145 -0.9838 -0.3511 -0.0876
  689MOL0     H95047  13.352   5.053  10.055 -0.8608 -0.6044  2.1692
  689MOL0     H95048  13.385   5.253   9.889 -1.2695  0.8786 -0.5531
  689MOL0     H95049  13.291   5.350  10.014  1.3974  0.5365  0.9586
  689MOL0     H95050  13.575   5.225  10.033  0.8090  3.3235 -2.1075
  689MOL0     H95051  13.479   5.244  10.176 -0.0911 -2.2595 -0.2220
  689MOL0     H95052  13.447   5.483  10.141 -1.3715 -0.0998 -0.7558
  689MOL0     H95053  13.546   5.472   9.989  1.5683 -0.4002  1.0037
  689MOL0     H95054  13.642   5.382  10.279  0.4190 -2.1864 -1.2415
  689MOL0     H95055  13.737   5.395  10.136  2.6141  2.0686  1.1090
  689MOL0     H95056  13.594   5.636  10.259  0.6901 -0.1509 -0.0761
  689MOL0     H95057  13.690   5.639  10.115  0.0504  1.2731  0.6936
  689MOL0     H95058  13.845   5.711  10.299 -2.1890  1.5846  0.2650
  689MOL0     H95059  13.891   5.563  10.227  0.3719  1.1016 -0.3283
  689MOL0     H95060  13.736   5.593  10.494 -0.4870 -0.9008  0.9750
  689MOL0     H95061  13.911   5.591  10.480 -2.3182  2.1576  1.4865
  689MOL0     H95062  13.107   4.943  10.160 -1.5185  0.4152  0.6462
  689MOL0     H95063  12.897   4.893  10.225 -0.8681  1.9797  1.6856
  689MOL0     H95064  12.461   4.668  10.189  1.5753 -2.0076 -3.6194
  689MOL0     H95065  12.231   4.645  10.165 -0.8703  0.9514  0.3739
  689MOL0     H95066  10.485   4.013  10.563  0.6187 -1.4491 -1.6097
  689MOL0     H95067  10.329   3.906  10.707 -0.6657  0.2903 -0.5918
  689MOL0     H95068  10.362   3.498  11.014 -0.1970  0.7215 -0.5652
  689MOL0     H95069  10.263   3.342  11.167  0.4382  1.6497  1.0586
  689MOL0     H95070   9.840   3.199  11.237 -1.0632  1.0682 -1.7789
  689MOL0     H95071   9.829   3.260  11.072  0.4171  1.5776  0.8654
  689MOL0     H95072  10.040   3.063  11.143 -0.7401 -2.0986  0.0114
  689MOL0     H95073   9.989   3.113  10.979 -0.1532  0.4986  0.0102
  689MOL0     H95074   9.774   2.993  11.007 -0.3235 -0.1819  0.5616
  689MOL0     H95075   9.899   2.891  11.020  0.9392 -1.0294  1.0337
  689MOL0     H95076   9.708   3.006  11.240  2.1680  0.8994  2.0759
  689MOL0     H95077   9.848   2.913  11.285 -0.3456  1.6639  0.7787
  689MOL0     H95078   9.580   2.621  11.125  1.6484 -0.9854 -1.7274
  689MOL0     H95079   9.878   3.459  11.012 -0.4571 -1.3565  0.0143
  689MOL0     H95080   9.848   3.647  10.905 -0.1761 -2.6934  0.3808
  689MOL0     H95081   9.961   3.714  10.788 -0.5720  0.3828 -0.5249
  689MOL0     H95082   9.893   3.569  10.750  1.0542  1.0285 -1.3021
  690MOL0     O95083  11.094   9.620   2.091  0.0875  0.3165 -0.1956
  690MOL0     C95084  11.150   9.729   2.089 -0.6311  0.2765 -0.6508
  690MOL0     O95085  11.175   9.806   1.981 -0.0700  0.3381 -0.7574
  690MOL0     C95086  11.121   9.770   1.859  0.3874  0.0577  0.2658
  690MOL0     C95087  10.983   9.770   1.833 -0.0341 -0.2556 -0.2410
  690MOL0     C95088  10.939   9.732   1.703 -0.0835 -0.3978 -0.4941
  690MOL0     C95089  11.031   9.680   1.605  0.0087  0.2870 -0.0560
  690MOL0     O95090  10.983   9.635   1.483  0.1472 -0.4466 -0.3538
  690MOL0     C95091  10.978   9.737   1.388 -0.8206 -0.9179 -0.2406
  690MOL0     C95092  10.895   9.689   1.278  0.4335 -0.2522  0.1800
  690MOL0     C95093  10.740   9.723   1.282 -0.8115 -0.2005 -0.2373
  690MOL0     C95094  10.678   9.655   1.410 -0.6009  0.1726 -0.0349
  690MOL0     C95095  10.525   9.653   1.396 -0.7526  1.1587 -1.2170
  690MOL0     C95096  10.459   9.585   1.519  0.4641 -0.2091  0.8596
  690MOL0     C95097  10.310   9.542   1.492  0.0960  0.3145 -0.2415
  690MOL0     C95098  10.303   9.425   1.393  0.4152 -0.8600  0.0831
  690MOL0     N95099  10.209   9.327   1.447  0.0096  0.0847 -0.4413
  690MOL0     C95100  10.220   9.252   1.566  0.2657  0.2603  0.0016
  690MOL0     C95101  10.120   9.164   1.563 -0.7905  0.5779 -1.5634
  690MOL0     C95102  10.081   9.067   1.676 -0.1945 -0.7126 -0.4054
  690MOL0     C95103   9.973   9.125   1.773  0.0591  0.1971 -0.2244
  690MOL0     C95104   9.832   9.152   1.717 -0.2486  0.6169  0.4617
  690MOL0     C95105   9.708   9.140   1.801  0.2971 -0.3391  0.2507
  690MOL0     O95106   9.674   8.998   1.821  0.3619 -1.4445 -0.1435
  690MOL0     C95107   9.541   8.973   1.871  0.2323 -0.6058 -0.7822
  690MOL0     C95108   9.518   8.840   1.918  1.4384  0.4778  0.9779
  690MOL0     C95109   9.395   8.796   1.968 -0.3451  0.5164 -0.4482
  690MOL0     C95110   9.404   8.670   2.058  0.0258  0.1222  0.2549
  690MOL0     C95111   9.285   8.886   1.970 -0.1816 -0.4001  0.0619
  690MOL0     C95112   9.154   8.852   2.016 -0.7629  0.9189 -0.7211
  690MOL0     O95113   9.080   8.958   2.068  0.2441 -0.6944 -0.2462
  690MOL0     C95114   8.957   8.928   2.115 -1.1578  0.3929  0.0604
  690MOL0     C95115   8.845   8.921   2.027 -1.1238  0.3637  1.1227
  690MOL0     C95116   8.722   8.889   2.083 -0.0473 -0.3313  0.0582
  690MOL0     C95117   8.709   8.844   2.215  0.2775 -0.3245 -0.1292
  690MOL0     O95118   8.584   8.818   2.274  0.2205  0.2244 -0.6120
  690MOL0     C95119   8.573   8.821   2.421  0.0429  0.1849  0.4975
  690MOL0     C95120   8.431   8.775   2.454 -0.3426  0.4942 -0.3293
  690MOL0     C95121   8.412   8.751   2.611  0.1560 -0.3127  0.4378
  690MOL0     C95122   8.280   8.674   2.648 -1.1234  0.0484  0.2089
  690MOL0     C95123   8.260   8.659   2.798 -0.4685  0.0620 -0.0527
  690MOL0     C95124   8.147   8.560   2.823 -0.3561 -0.1890 -0.5265
  690MOL0     C95125   8.133   8.544   2.976  0.3687  0.0375 -1.0506
  690MOL0     C95126   8.021   8.441   3.018  0.4724  0.2729  1.1941
  690MOL0    Cl95127   8.084   8.276   3.008  0.0218  0.2437  0.0399
  690MOL0     C95128   8.822   8.850   2.291 -0.6162  0.0260 -0.1286
  690MOL0     C95129   8.950   8.888   2.251 -0.3901 -0.0155  0.9072
  690MOL0     O95130   9.116   8.734   2.005  0.2709 -0.3900 -0.3938
  690MOL0     C95131   9.305   9.012   1.910  0.0156 -0.0087 -0.0518
  690MOL0     C95132   9.435   9.059   1.870 -0.0841  0.6829  0.3121
  690MOL0     N95133  10.049   9.182   1.451  0.5051 -0.1170  0.8388
  690MOL0     N95134  10.103   9.280   1.380  0.0038  0.0541 -0.6543
  690MOL0     C95135  11.172   9.680   1.634 -0.7160  1.4540 -1.4547
  690MOL0     C95136  11.217   9.726   1.764  0.1224 -0.2958  0.4095
  690MOL0     C95137  11.200   9.784   2.212  0.9296  0.1529  0.2094
  690MOL0     C95138  11.225   9.924   2.219 -0.5489  0.0619 -0.6600
  690MOL0     C95139  11.240  10.004   2.332  0.1936  0.5682  0.2119
  690MOL0     C95140  11.251   9.935   2.453 -0.4360  0.0384  0.1592
  690MOL0     O95141  11.285  10.012   2.562  0.0295 -0.1328  0.5882
  690MOL0     C95142  11.364   9.950   2.669 -0.1450 -0.5863 -0.3892
  690MOL0     C95143  11.382  10.068   2.772  0.2854 -0.1084 -0.2648
  690MOL0     C95144  11.252  10.107   2.833  0.0494  0.0504 -0.3677
  690MOL0     C95145  11.274  10.225   2.930 -0.4151 -0.8561  0.1402
  690MOL0     C95146  11.147  10.245   2.998  0.9078  0.7992  0.7166
  690MOL0     C95147  11.033  10.259   3.043  0.0508 -0.2498  0.1568
  690MOL0     C95148  11.238   9.795   2.456 -0.1102 -0.1379  0.6549
  690MOL0     C95149  11.201   9.721   2.344  0.0074  0.4742  1.6878
  690MOL0     C95150  11.169   9.572   2.362  0.3215  0.2456  0.0303
  690MOL0     H95151  10.898   9.799   1.894 -0.3367  0.7608 -1.1088
  690MOL0     H95152  10.833   9.732   1.679  0.1918 -0.4618 -1.8080
  690MOL0     H95153  11.078   9.767   1.357 -1.8359  2.4088 -0.6919
  690MOL0     H95154  10.937   9.832   1.424 -0.9414  0.7715 -4.3290
  690MOL0     H95155  10.942   9.732   1.189  0.0315 -1.0056 -0.4041
  690MOL0     H95156  10.899   9.580   1.268 -0.0200 -0.2005 -0.6621
  690MOL0     H95157  10.725   9.831   1.275  3.1483  0.4358 -1.6637
  690MOL0     H95158  10.686   9.691   1.193 -2.3611 -1.5114  1.1160
  690MOL0     H95159  10.717   9.554   1.418  0.6961  0.7069  0.5860
  690MOL0     H95160  10.707   9.717   1.495  1.2074  0.9070 -1.1272
  690MOL0     H95161  10.524   9.589   1.308  3.5050 -2.6715  1.1024
  690MOL0     H95162  10.482   9.754   1.393  0.3498  1.9950  3.2612
  690MOL0     H95163  10.519   9.500   1.551  1.5215  0.3338  0.3568
  690MOL0     H95164  10.457   9.659   1.599  0.8991  0.3427  0.3747
  690MOL0     H95165  10.253   9.625   1.450 -0.7531 -0.9788 -1.7446
  690MOL0     H95166  10.263   9.514   1.586  1.1048 -1.1010 -0.1174
  690MOL0     H95167  10.267   9.468   1.299 -0.6403  0.2892  0.9806
  690MOL0     H95168  10.402   9.382   1.377 -0.0792 -2.6624  1.5462
  690MOL0     H95169  10.299   9.251   1.641  3.5996  1.4496 -3.1998
  690MOL0     H95170  10.174   9.042   1.728  1.4934  0.0418 -2.8833
  690MOL0     H95171  10.048   8.973   1.632 -0.2204 -2.1096  2.3940
  690MOL0     H95172   9.961   9.045   1.846  0.2184 -2.1201 -2.5627
  690MOL0     H95173  10.000   9.208   1.839 -1.8431 -0.2113  1.1616
  690MOL0     H95174   9.846   9.257   1.687  1.5495  1.1630  2.9245
  690MOL0     H95175   9.815   9.087   1.631 -0.0381 -1.4161  1.9097
  690MOL0     H95176   9.733   9.185   1.898  2.4380 -0.2670 -0.2907
  690MOL0     H95177   9.634   9.195   1.742 -0.8396 -1.0147  1.0068
  690MOL0     H95178   9.608   8.779   1.924  1.5085  0.5271  0.4063
  690MOL0     H95179   9.380   8.680   2.164 -0.3303 -0.0302  0.1899
  690MOL0     H95180   9.503   8.625   2.048 -0.7599 -1.3782 -1.2544
  690MOL0     H95181   9.342   8.602   2.000  2.5164 -0.6830 -1.6244
  690MOL0     H95182   8.858   8.949   1.923 -1.8080  1.1140  1.2308
  690MOL0     H95183   8.642   8.872   2.012 -1.0079  0.7852  0.8468
  690MOL0     H95184   8.646   8.757   2.471  0.2260  0.0108  0.0074
  690MOL0     H95185   8.578   8.924   2.458 -1.3102  0.0785  1.0249
  690MOL0     H95186   8.368   8.858   2.423  0.3789  0.9706 -0.5468
  690MOL0     H95187   8.414   8.679   2.403  1.0171  0.1075 -0.0900
  690MOL0     H95188   8.409   8.848   2.659  0.1106  0.3124 -0.7771
  690MOL0     H95189   8.494   8.683   2.636  1.6546  0.1163 -2.7656
  690MOL0     H95190   8.282   8.573   2.605  1.5478  0.4788 -0.9244
  690MOL0     H95191   8.196   8.729   2.604 -0.9213  1.0276  0.9974
  690MOL0     H95192   8.347   8.631   2.858 -0.8410 -0.2828  0.3287
  690MOL0     H95193   8.231   8.760   2.827  1.1051  0.9838 -1.5270
  690MOL0     H95194   8.166   8.462   2.780  0.7700 -0.5859  0.8013
  690MOL0     H95195   8.055   8.603   2.783 -0.7182 -0.9751 -0.5518
  690MOL0     H95196   8.116   8.643   3.020  0.9340 -1.5416  3.1533
  690MOL0     H95197   8.228   8.501   3.008 -1.3783 -1.9603  2.0102
  690MOL0     H95198   7.933   8.458   2.956 -0.9006 -3.1330  2.0278
  690MOL0     H95199   7.981   8.467   3.116  0.6340 -0.6269  1.5117
  690MOL0     H95200   8.822   8.806   2.390  2.8251 -2.1119 -0.9102
  690MOL0     H95201   9.036   8.874   2.316 -0.2852 -1.1860  0.5470
  690MOL0     H95202   9.220   9.078   1.909  0.5596  0.7027 -1.1513
  690MOL0     H95203   9.440   9.157   1.823  1.7000  1.2025  1.4743
  690MOL0     H95204  11.251   9.646   1.568  1.0676  1.3404  0.6464
  690MOL0     H95205  11.324   9.735   1.781  0.6161 -0.1463 -2.3382
  690MOL0     H95206  11.243   9.978   2.126 -1.4213  1.6482  0.0548
  690MOL0     H95207  11.249  10.112   2.319  1.1609  0.5808  0.8794
  690MOL0     H95208  11.314   9.867   2.719 -0.2602 -0.3447 -0.0996
  690MOL0     H95209  11.464   9.916   2.642 -0.4132 -1.6630 -0.0591
  690MOL0     H95210  11.427  10.157   2.729  0.0342  1.6321  2.7981
  690MOL0     H95211  11.438  10.034   2.860 -2.9795 -3.2354  0.8389
  690MOL0     H95212  11.176  10.120   2.755 -0.4672 -2.3411 -0.3555
  690MOL0     H95213  11.217  10.017   2.884 -0.5612  0.1312 -0.6405
  690MOL0     H95214  11.304  10.312   2.871 -1.6994 -1.9796 -2.2904
  690MOL0     H95215  11.356  10.196   2.997  0.8644  2.3452  0.1610
  690MOL0     H95216  10.936  10.276   3.087 -1.3137 -3.3281 -1.3731
  690MOL0     H95217  11.249   9.741   2.549  0.0379  1.3268  1.5116
  690MOL0     H95218  11.068   9.552   2.322 -0.5153 -0.3402  2.3058
  690MOL0     H95219  11.246   9.514   2.311  0.3001  0.3580 -0.1298
  690MOL0     H95220  11.177   9.545   2.467  1.6822 -0.7330 -0.2994
  691MOL0     O95221   8.290   2.246   4.570 -0.9309  0.1947 -0.1838
  691MOL0     C95222   8.251   2.138   4.548 -0.8448  0.1737  0.7128
  691MOL0     O95223   8.221   2.087   4.427 -0.5010  0.1184  0.9409
  691MOL0     C95224   8.247   2.162   4.314  0.9000  0.2879  1.1525
  691MOL0     C95225   8.181   2.277   4.303  0.7405 -0.0513 -0.3865
  691MOL0     C95226   8.221   2.371   4.214 -0.0883 -0.4608 -0.1221
  691MOL0     C95227   8.307   2.344   4.113  0.5234  0.2962 -0.3429
  691MOL0     O95228   8.323   2.426   4.010 -0.3291 -0.0821 -0.8211
  691MOL0     C95229   8.393   2.402   3.888  0.5038  0.3444 -0.4964
  691MOL0     C95230   8.375   2.506   3.770 -0.3784 -0.2148 -0.0403
  691MOL0     C95231   8.231   2.519   3.732 -0.4904 -0.5600  0.1557
  691MOL0     C95232   8.139   2.399   3.752  0.4683 -0.2188 -0.5733
  691MOL0     C95233   7.993   2.436   3.715 -0.3886 -0.1280  0.5699
  691MOL0     C95234   7.885   2.357   3.789 -0.5193 -1.0011  0.2960
  691MOL0     C95235   7.878   2.206   3.754 -0.6275 -0.1212  0.4785
  691MOL0     C95236   7.779   2.136   3.842 -0.0165  0.3994 -0.0245
  691MOL0     N95237   7.641   2.171   3.803 -0.6465  0.1889  0.3877
  691MOL0     C95238   7.553   2.248   3.880 -0.1823  0.9838  1.0564
  691MOL0     C95239   7.444   2.263   3.800 -0.5387 -0.1430  0.3465
  691MOL0     C95240   7.312   2.319   3.834  0.4716  0.0798 -0.3499
  691MOL0     C95241   7.224   2.203   3.900  1.0329 -0.0565  0.9074
  691MOL0     C95242   7.112   2.270   3.972  0.4298  0.6910  0.7802
  691MOL0     C95243   7.015   2.171   4.034 -0.3997  0.3687 -0.1481
  691MOL0     O95244   6.900   2.237   4.098 -0.0724 -0.0432  0.1366
  691MOL0     C95245   6.789   2.160   4.081  0.7730 -0.1948  0.1401
  691MOL0     C95246   6.675   2.234   4.041  0.7174 -1.0267 -0.3462
  691MOL0     C95247   6.556   2.168   4.000 -0.6618 -0.5660 -0.3433
  691MOL0     C95248   6.443   2.253   3.958  0.3272 -1.6486  0.2631
  691MOL0     C95249   6.551   2.023   4.012  1.6345  0.6154 -0.8668
  691MOL0     C95250   6.435   1.942   3.973  0.8476  0.0137 -0.3366
  691MOL0     O95251   6.460   1.809   3.936  0.0181 -0.4290 -0.7749
  691MOL0     C95252   6.372   1.755   3.850 -0.1664 -0.4118  0.6078
  691MOL0     C95253   6.352   1.809   3.719  0.1840  0.2140  0.4947
  691MOL0     C95254   6.254   1.749   3.635  0.4645 -0.4546  0.3911
  691MOL0     C95255   6.184   1.637   3.684 -0.2782  0.4554  0.0519
  691MOL0     O95256   6.083   1.591   3.615 -0.2308 -0.4683  0.8172
  691MOL0     C95257   5.955   1.624   3.651 -0.0681 -0.3683  0.1413
  691MOL0     C95258   5.895   1.724   3.558 -0.3057  0.2465 -0.1026
  691MOL0     C95259   5.867   1.676   3.410 -0.2185 -0.9430 -0.5337
  691MOL0     C95260   5.805   1.786   3.333  0.1843 -0.1933 -0.4552
  691MOL0     C95261   5.788   1.744   3.186 -0.2595 -0.3063 -0.1463
  691MOL0     C95262   5.662   1.655   3.168 -0.1496  0.6665  0.9576
  691MOL0     C95263   5.536   1.735   3.169 -0.8883  0.3533 -0.6835
  691MOL0     C95264   5.419   1.638   3.151 -0.9988 -0.1918 -1.0912
  691MOL0    Cl95265   5.387   1.542   3.300 -0.2050  0.4645 -0.3007
  691MOL0     C95266   6.214   1.576   3.809 -0.1634  0.0809 -0.5403
  691MOL0     C95267   6.304   1.641   3.887  0.1969  0.1059 -0.4972
  691MOL0     O95268   6.325   1.994   3.975  0.1465 -0.4131  0.6461
  691MOL0     C95269   6.664   1.949   4.051 -0.7199 -0.4274  0.4151
  691MOL0     C95270   6.776   2.017   4.089 -0.5668  0.4544 -0.2251
  691MOL0     N95271   7.480   2.218   3.670 -0.5609 -0.9645  0.2716
  691MOL0     N95272   7.585   2.149   3.674  0.2340 -0.4127 -0.4858
  691MOL0     C95273   8.371   2.216   4.118 -0.5405 -0.4282  0.5387
  691MOL0     C95274   8.342   2.126   4.222 -0.3816  0.3795  0.1057
  691MOL0     C95275   8.241   2.053   4.656 -0.4385 -0.1663  0.4848
  691MOL0     C95276   8.197   2.110   4.782  0.2922 -0.2042  0.6673
  691MOL0     C95277   8.169   2.021   4.887  0.2509  0.3987 -0.2248
  691MOL0     C95278   8.174   1.885   4.867 -0.8095 -0.2079  0.2460
  691MOL0     O95279   8.129   1.793   4.955 -0.0530 -0.5286 -0.2094
  691MOL0     C95280   8.185   1.782   5.092 -0.3088 -0.4678 -0.5448
  691MOL0     C95281   8.105   1.842   5.201  0.0881 -0.5370 -0.1171
  691MOL0     C95282   8.149   1.814   5.343  0.1083  0.3557 -1.1852
  691MOL0     C95283   8.034   1.814   5.447  0.2204  0.4574  0.0803
  691MOL0     C95284   7.961   1.691   5.439  0.0616  0.5183  1.3540
  691MOL0     C95285   7.915   1.584   5.424  0.4577  0.2183 -0.3268
  691MOL0     C95286   8.225   1.838   4.754 -0.3867  0.6800  0.2406
  691MOL0     C95287   8.268   1.914   4.651  0.0037 -0.0472  0.5730
  691MOL0     C95288   8.341   1.844   4.535  0.0255  0.3069 -0.2653
  691MOL0     H95289   8.094   2.299   4.364  2.6200 -1.3616  3.0166
  691MOL0     H95290   8.179   2.471   4.209 -0.0759 -0.5143 -3.5287
  691MOL0     H95291   8.356   2.310   3.842 -2.5367  0.6264  1.1298
  691MOL0     H95292   8.501   2.391   3.902  0.9761  0.6427 -3.2982
  691MOL0     H95293   8.397   2.610   3.794 -3.1970  0.9235 -1.8296
  691MOL0     H95294   8.445   2.485   3.688  1.7664 -0.5668  1.7758
  691MOL0     H95295   8.187   2.598   3.793 -0.9210  0.2331 -1.1369
  691MOL0     H95296   8.228   2.562   3.631  1.9290 -4.8041 -2.0090
  691MOL0     H95297   8.152   2.314   3.685  1.0065 -0.4934 -0.1249
  691MOL0     H95298   8.127   2.364   3.855 -5.4100  3.1451  0.3009
  691MOL0     H95299   7.985   2.402   3.611 -0.3078  0.2884  0.4240
  691MOL0     H95300   7.968   2.541   3.730 -1.0575 -0.3429  0.9880
  691MOL0     H95301   7.910   2.365   3.895  3.9938 -1.4372 -0.4990
  691MOL0     H95302   7.798   2.421   3.772  2.6247  3.4724 -1.0114
  691MOL0     H95303   7.973   2.153   3.764 -0.0726  0.8296  0.3744
  691MOL0     H95304   7.842   2.207   3.651  1.3947  4.3431 -0.4305
  691MOL0     H95305   7.778   2.027   3.827  0.7913 -0.1403  3.1511
  691MOL0     H95306   7.797   2.156   3.948  0.8017 -2.4447  0.4734
  691MOL0     H95307   7.571   2.282   3.982  1.9869  2.4808  0.2534
  691MOL0     H95308   7.270   2.356   3.740  1.6153 -2.4386 -1.9452
  691MOL0     H95309   7.332   2.406   3.898 -1.8757 -0.0278  0.6203
  691MOL0     H95310   7.171   2.133   3.835 -0.4575 -0.4075  2.4224
  691MOL0     H95311   7.283   2.152   3.977  0.4790 -1.4274  0.4450
  691MOL0     H95312   7.148   2.345   4.043  0.3536 -0.1670  1.7430
  691MOL0     H95313   7.054   2.325   3.897 -1.6331 -1.0621  0.9971
  691MOL0     H95314   6.979   2.105   3.955  0.0070 -0.4614  0.3543
  691MOL0     H95315   7.065   2.103   4.103  1.0837 -0.7365 -2.2128
  691MOL0     H95316   6.676   2.341   4.024 -2.3639 -1.0678 -1.3846
  691MOL0     H95317   6.348   2.231   4.008  1.0836 -3.4456  1.0102
  691MOL0     H95318   6.426   2.250   3.850  0.4853 -0.5321  0.2017
  691MOL0     H95319   6.458   2.361   3.958 -3.0575 -1.0565  0.5080
  691MOL0     H95320   6.396   1.902   3.685 -1.2527  0.8278  0.2295
  691MOL0     H95321   6.218   1.784   3.539  0.7883 -2.6848 -0.6098
  691MOL0     H95322   5.890   1.537   3.639 -3.0597  1.6059  0.9771
  691MOL0     H95323   5.944   1.664   3.752  1.1022  1.2651 -0.3376
  691MOL0     H95324   5.795   1.752   3.594 -1.4242  0.9486 -3.4195
  691MOL0     H95325   5.961   1.811   3.553  0.1343 -0.1542 -2.3453
  691MOL0     H95326   5.805   1.586   3.403 -0.3819 -1.0021  1.2306
  691MOL0     H95327   5.966   1.659   3.367  0.5421  1.8702 -0.0301
  691MOL0     H95328   5.860   1.880   3.337  0.9924 -0.4389 -3.5035
  691MOL0     H95329   5.705   1.801   3.375  2.0049  2.1717  3.7065
  691MOL0     H95330   5.783   1.837   3.127 -0.9481 -1.6699 -2.3603
  691MOL0     H95331   5.875   1.686   3.154  1.6522  2.0669  0.4082
  691MOL0     H95332   5.667   1.572   3.240 -0.2184  0.0011  0.2064
  691MOL0     H95333   5.661   1.609   3.069 -0.5930  1.5363  0.5443
  691MOL0     H95334   5.557   1.815   3.097  0.6475  0.4983 -0.1239
  691MOL0     H95335   5.532   1.780   3.269  0.2584 -0.4910 -0.2240
  691MOL0     H95336   5.422   1.578   3.061 -0.9316  1.6961 -2.4117
  691MOL0     H95337   5.336   1.708   3.134  1.8524  3.1205 -2.5742
  691MOL0     H95338   6.173   1.478   3.830 -1.1245 -0.4270 -4.0823
  691MOL0     H95339   6.338   1.590   3.977  3.4927 -0.1024 -1.7295
  691MOL0     H95340   6.654   1.843   4.070 -1.8707 -0.7960 -1.8549
  691MOL0     H95341   6.863   1.963   4.126 -0.5132 -0.3439 -1.4620
  691MOL0     H95342   8.437   2.187   4.037 -0.7449 -1.1997  0.6407
  691MOL0     H95343   8.399   2.036   4.242 -2.4980 -0.8975  0.7093
  691MOL0     H95344   8.158   2.212   4.782 -2.8832 -1.2640  2.8084
  691MOL0     H95345   8.125   2.052   4.981  2.7704 -1.9018  1.9030
  691MOL0     H95346   8.214   1.680   5.115  1.4514  0.2257  0.5037
  691MOL0     H95347   8.274   1.845   5.104  0.0128 -1.0293  0.0828
  691MOL0     H95348   7.999   1.819   5.185 -0.0193  1.5662 -3.3907
  691MOL0     H95349   8.107   1.951   5.193  0.2219 -0.4105  1.3483
  691MOL0     H95350   8.194   1.714   5.350  0.9799  0.8174  0.7098
  691MOL0     H95351   8.226   1.884   5.380 -1.1718  0.4563  1.5766
  691MOL0     H95352   7.971   1.903   5.434  0.4413  0.4420 -1.2314
  691MOL0     H95353   8.074   1.819   5.549 -1.3652  0.9576  0.7188
  691MOL0     H95354   7.861   1.493   5.407  2.0844 -0.4485 -2.3878
  691MOL0     H95355   8.216   1.732   4.734 -1.2257  1.2090 -2.7661
  691MOL0     H95356   8.358   1.737   4.549 -0.6322  0.2026 -0.2373
  691MOL0     H95357   8.281   1.847   4.443 -1.6585 -1.0532  0.7084
  691MOL0     H95358   8.436   1.895   4.524  0.0473  0.4463  0.5057
  692MOL0     O95359   1.900   5.769   3.736  0.4301 -0.2747  1.2057
  692MOL0     C95360   1.895   5.801   3.853  0.6181  0.2686  0.4977
  692MOL0     O95361   1.933   5.720   3.955 -0.5881 -0.0368 -1.2188
  692MOL0     C95362   1.951   5.581   3.952  0.3866  0.4741 -1.1744
  692MOL0     C95363   2.021   5.533   4.062 -0.1851 -0.3570 -0.7478
  692MOL0     C95364   2.046   5.396   4.077  0.3560 -0.0734  0.0641
  692MOL0     C95365   2.017   5.300   3.973 -0.2681 -0.5192  0.1787
  692MOL0     O95366   2.043   5.172   3.993  0.7664  0.4028  0.2811
  692MOL0     C95367   2.040   5.108   4.119  0.0555  0.2480  0.5988
  692MOL0     C95368   2.161   5.011   4.127 -0.9124  0.0252 -0.2289
  692MOL0     C95369   2.155   4.941   4.262  0.2667 -0.6498 -0.4810
  692MOL0     C95370   2.292   4.871   4.287  0.5977 -0.6325  1.1593
  692MOL0     C95371   2.274   4.760   4.387 -0.3641  0.1541  0.4416
  692MOL0     C95372   2.235   4.814   4.523 -0.8419  0.0904  0.6032
  692MOL0     C95373   2.214   4.701   4.626 -0.3329 -1.0962  0.2360
  692MOL0     C95374   2.068   4.644   4.623 -0.0191  0.9565  0.3551
  692MOL0     N95375   1.995   4.606   4.500 -0.2935 -1.0767  0.5077
  692MOL0     C95376   1.881   4.659   4.449  0.2992 -0.3006  0.0621
  692MOL0     C95377   1.854   4.590   4.332 -0.2734 -0.2729  0.0127
  692MOL0     C95378   1.755   4.585   4.223 -0.0802  0.1279  0.0823
  692MOL0     C95379   1.824   4.589   4.084  0.3329 -0.6067  0.1887
  692MOL0     C95380   1.928   4.698   4.067 -0.4332 -1.0701  1.1872
  692MOL0     C95381   1.966   4.711   3.918 -0.1698  0.0704  0.5427
  692MOL0     O95382   2.053   4.607   3.885 -0.6452  0.2506  0.1676
  692MOL0     C95383   2.181   4.621   3.934 -0.3199 -0.5837  0.8053
  692MOL0     C95384   2.265   4.715   3.870 -0.0708  0.5750 -0.3146
  692MOL0     C95385   2.401   4.721   3.906 -0.0425 -0.1213  0.1104
  692MOL0     C95386   2.485   4.811   3.826  0.3669 -0.3272 -0.6934
  692MOL0     C95387   2.444   4.646   4.024 -0.5992 -0.0820 -0.5967
  692MOL0     C95388   2.589   4.675   4.071 -0.4624 -0.2017 -0.3139
  692MOL0     O95389   2.664   4.564   4.102 -0.1677  0.1823  0.3457
  692MOL0     C95390   2.778   4.586   4.174 -0.0230 -0.3805 -0.1683
  692MOL0     C95391   2.899   4.521   4.139  0.8439  0.4956 -0.0289
  692MOL0     C95392   3.016   4.546   4.207  0.3626 -0.9768 -0.3900
  692MOL0     C95393   3.019   4.634   4.323  0.5175 -0.2293  0.1737
  692MOL0     O95394   3.131   4.680   4.382 -0.8208 -0.1512  0.4119
  692MOL0     C95395   3.121   4.724   4.521  0.1451  0.7398 -0.6050
  692MOL0     C95396   3.256   4.701   4.583  0.2894 -0.2447 -0.5003
  692MOL0     C95397   3.309   4.553   4.588  0.5136 -0.9984 -0.0186
  692MOL0     C95398   3.456   4.549   4.638  0.2018 -0.0985 -0.4261
  692MOL0     C95399   3.517   4.413   4.596 -0.0968 -0.7789 -0.1059
  692MOL0     C95400   3.647   4.398   4.671  0.0997  0.5254  0.5774
  692MOL0     C95401   3.711   4.265   4.640  0.3890  0.4028 -0.1954
  692MOL0     C95402   3.833   4.249   4.736  0.2205 -0.0205 -0.7151
  692MOL0    Cl95403   3.756   4.224   4.915  0.0434  0.0234 -0.0264
  692MOL0     C95404   2.892   4.695   4.359  0.5844  0.3542 -0.3815
  692MOL0     C95405   2.771   4.666   4.290 -0.6680 -0.7193 -0.0963
  692MOL0     O95406   2.622   4.791   4.087  0.7066  0.2196  0.2300
  692MOL0     C95407   2.362   4.550   4.081 -0.1726 -0.6986 -0.9495
  692MOL0     C95408   2.233   4.538   4.036  0.6132  0.2993  0.4731
  692MOL0     N95409   1.951   4.490   4.323 -0.7049 -0.2786  0.0488
  692MOL0     N95410   2.042   4.509   4.408  0.2142 -0.2640 -0.5191
  692MOL0     C95411   1.976   5.362   3.855 -0.5314  0.0834  0.0271
  692MOL0     C95412   1.935   5.495   3.848  0.3118 -0.9682  0.3511
  692MOL0     C95413   1.846   5.937   3.884  0.5553  0.3620  0.4888
  692MOL0     C95414   1.779   5.952   4.003 -0.0214 -0.0392 -0.3336
  692MOL0     C95415   1.704   6.067   4.038 -0.0754 -0.3251  0.0118
  692MOL0     C95416   1.726   6.174   3.958  0.1405  0.1782  0.2185
  692MOL0     O95417   1.677   6.299   3.997 -0.7704  0.5944 -0.4063
  692MOL0     C95418   1.716   6.424   3.935 -0.3631  0.2538 -0.6519
  692MOL0     C95419   1.633   6.527   4.014 -0.6077 -0.7086  0.5140
  692MOL0     C95420   1.484   6.535   3.966 -0.8402  0.5083  0.5637
  692MOL0     C95421   1.420   6.657   4.036  0.1069 -0.2213  0.2446
  692MOL0     C95422   1.393   6.634   4.182 -0.0858 -0.2265  0.4652
  692MOL0     C95423   1.367   6.607   4.300  0.2556 -0.2861  0.3523
  692MOL0     C95424   1.801   6.159   3.844  0.9677 -0.4029  0.3578
  692MOL0     C95425   1.853   6.043   3.794 -0.6347 -0.1847 -0.7991
  692MOL0     C95426   1.911   6.040   3.653  0.3695  0.1966 -0.1362
  692MOL0     H95427   2.021   5.600   4.148  1.4208 -1.2953  0.0337
  692MOL0     H95428   2.100   5.373   4.168  0.3318  1.1455  0.4091
  692MOL0     H95429   1.946   5.052   4.122  0.6350 -0.7493  0.3599
  692MOL0     H95430   2.041   5.176   4.205  3.4150 -0.0949  0.9705
  692MOL0     H95431   2.138   4.942   4.046 -2.4668 -2.1195  1.9176
  692MOL0     H95432   2.258   5.059   4.109  0.2237 -1.8043  0.7764
  692MOL0     H95433   2.149   5.028   4.329 -0.6853  0.3853 -1.8398
  692MOL0     H95434   2.068   4.876   4.268  0.8272 -1.4776 -1.2198
  692MOL0     H95435   2.318   4.827   4.190  0.3017  4.0137 -1.3040
  692MOL0     H95436   2.361   4.952   4.310 -1.1916  2.0957 -2.2158
  692MOL0     H95437   2.372   4.712   4.396 -1.7670 -2.5261  4.1034
  692MOL0     H95438   2.201   4.681   4.365 -0.3423  0.3273 -0.2433
  692MOL0     H95439   2.305   4.890   4.559 -0.7702  0.6373 -0.6218
  692MOL0     H95440   2.142   4.871   4.512 -1.8085 -1.7229 -1.6487
  692MOL0     H95441   2.230   4.753   4.721 -1.1436  0.9390 -0.6833
  692MOL0     H95442   2.292   4.624   4.626  1.8059  0.7622  3.5734
  692MOL0     H95443   2.065   4.558   4.691 -1.1504  1.9765  1.6556
  692MOL0     H95444   2.006   4.721   4.669  0.0159  0.9362  0.4355
  692MOL0     H95445   1.826   4.732   4.507 -1.0736 -0.5654 -0.8693
  692MOL0     H95446   1.691   4.673   4.231  1.8173  1.4267  1.6135
  692MOL0     H95447   1.698   4.493   4.238  3.0214 -1.9156  0.3053
  692MOL0     H95448   1.883   4.497   4.074 -0.6676 -1.0768 -1.7975
  692MOL0     H95449   1.746   4.592   4.007  1.4785  2.3378 -1.0012
  692MOL0     H95450   1.871   4.785   4.101 -1.9084 -1.9224  0.9971
  692MOL0     H95451   2.018   4.682   4.128  1.5560 -2.9800 -1.9410
  692MOL0     H95452   1.883   4.715   3.847 -0.3965 -0.3025  0.7849
  692MOL0     H95453   2.008   4.812   3.912 -0.0559  0.1523  2.1318
  692MOL0     H95454   2.219   4.773   3.791 -2.6514 -1.6712 -0.6006
  692MOL0     H95455   2.441   4.798   3.726 -2.2582  0.1272  0.3191
  692MOL0     H95456   2.591   4.783   3.828  0.6367  0.4405 -2.4510
  692MOL0     H95457   2.469   4.916   3.853 -1.8696 -0.7295 -0.2402
  692MOL0     H95458   2.892   4.451   4.056  2.5438 -0.2885  0.4443
  692MOL0     H95459   3.117   4.513   4.187  0.5596 -1.2313  0.9424
  692MOL0     H95460   3.073   4.821   4.534  0.4070  1.0891 -2.0158
  692MOL0     H95461   3.056   4.658   4.579 -0.8409  0.8005 -1.5912
  692MOL0     H95462   3.332   4.750   4.522 -1.4322 -3.0157 -5.4609
  692MOL0     H95463   3.266   4.738   4.685  1.3531  1.6099 -1.2234
  692MOL0     H95464   3.303   4.508   4.488 -1.6066 -0.2495 -0.2738
  692MOL0     H95465   3.240   4.497   4.653 -3.5595 -1.2769 -4.0113
  692MOL0     H95466   3.448   4.563   4.746 -0.4598 -2.0463 -0.1867
  692MOL0     H95467   3.512   4.634   4.597  1.2067 -0.6782 -0.2829
  692MOL0     H95468   3.447   4.333   4.621 -0.0829 -0.8035 -0.1469
  692MOL0     H95469   3.532   4.405   4.488 -1.1503  1.6662 -0.5237
  692MOL0     H95470   3.623   4.399   4.778 -3.0566 -1.4058  0.0489
  692MOL0     H95471   3.725   4.472   4.652  1.0665 -0.4638  0.6230
  692MOL0     H95472   3.754   4.264   4.539  2.8965 -4.6575  0.5930
  692MOL0     H95473   3.639   4.182   4.642 -0.9169  1.4209 -1.7481
  692MOL0     H95474   3.896   4.338   4.729 -2.2325  1.7783 -1.2616
  692MOL0     H95475   3.889   4.158   4.710 -2.1272 -1.5493 -0.7638
  692MOL0     H95476   2.868   4.756   4.445 -0.1793 -0.7682  0.2377
  692MOL0     H95477   2.683   4.721   4.323  0.0250  0.0948  0.4377
  692MOL0     H95478   2.403   4.494   4.165  0.1970 -1.0457 -1.3531
  692MOL0     H95479   2.166   4.462   4.074 -0.2418 -0.1982 -1.8444
  692MOL0     H95480   1.965   5.310   3.760  0.7975 -1.0149  0.4264
  692MOL0     H95481   1.890   5.532   3.756  1.5460  0.6087  0.3237
  692MOL0     H95482   1.787   5.866   4.068 -1.5433  0.1339  0.1192
  692MOL0     H95483   1.642   6.071   4.126 -0.7937 -0.4841 -0.4838
  692MOL0     H95484   1.821   6.447   3.954 -0.4523  0.4547 -0.3961
  692MOL0     H95485   1.690   6.426   3.829  2.6874 -0.8456 -1.5325
  692MOL0     H95486   1.689   6.620   4.006  0.8507 -1.5592  0.3827
  692MOL0     H95487   1.635   6.510   4.122  0.4190  0.9568  0.7882
  692MOL0     H95488   1.464   6.536   3.859 -2.9315 -2.4327  0.7920
  692MOL0     H95489   1.428   6.450   4.007  0.1291 -0.4375 -0.0235
  692MOL0     H95490   1.332   6.693   3.982 -0.3546 -0.1484  1.0352
  692MOL0     H95491   1.494   6.738   4.037  0.6346 -0.5989 -2.1468
  692MOL0     H95492   1.326   6.578   4.395 -1.7633 -1.2016 -0.7361
  692MOL0     H95493   1.811   6.251   3.787 -0.4611  0.6266  1.6855
  692MOL0     H95494   1.834   6.005   3.583  2.0824 -0.5337 -1.7123
  692MOL0     H95495   1.948   6.139   3.628  2.0016 -0.2668  0.3393
  692MOL0     H95496   1.993   5.969   3.643 -0.7376 -0.9708 -1.4373
  693MOL0     O95497  10.435   5.679   7.543 -0.4238 -0.0084 -0.1476
  693MOL0     C95498  10.400   5.698   7.424 -0.1099 -0.4557 -0.5624
  693MOL0     O95499  10.473   5.717   7.315 -0.2342 -0.0268  0.3658
  693MOL0     C95500  10.610   5.721   7.318  1.3158  0.5523 -0.1295
  693MOL0     C95501  10.673   5.807   7.231 -0.2111 -0.1048  0.0946
  693MOL0     C95502  10.809   5.806   7.216  0.0257 -0.0450 -0.4325
  693MOL0     C95503  10.895   5.714   7.290 -0.0590 -0.1543 -0.2234
  693MOL0     O95504  11.021   5.713   7.252 -0.4004 -1.2776 -0.4074
  693MOL0     C95505  11.094   5.600   7.311  0.4521 -0.4334 -1.0584
  693MOL0     C95506  11.232   5.585   7.234 -0.3197 -0.1278 -0.8774
  693MOL0     C95507  11.207   5.557   7.092 -0.1067 -1.0234  0.5207
  693MOL0     C95508  11.338   5.585   7.005  0.5020  0.3366 -0.2653
  693MOL0     C95509  11.306   5.572   6.863  0.5069 -0.1382 -0.2232
  693MOL0     C95510  11.431   5.625   6.789 -0.4262  1.0905 -0.4569
  693MOL0     C95511  11.407   5.622   6.634  0.3039  0.1778 -0.6839
  693MOL0     C95512  11.525   5.681   6.554 -0.8979  0.8551 -0.2581
  693MOL0     N95513  11.545   5.819   6.591 -0.4749  0.0722 -0.2345
  693MOL0     C95514  11.454   5.922   6.583 -0.4658  0.1710  1.0177
  693MOL0     C95515  11.520   6.036   6.608  0.1098 -0.1410  0.6291
  693MOL0     C95516  11.469   6.183   6.607  0.5354  0.1528  0.4477
  693MOL0     C95517  11.495   6.249   6.740  0.0871 -0.3971 -0.4823
  693MOL0     C95518  11.492   6.397   6.736  0.3977 -0.9459 -0.0207
  693MOL0     C95519  11.593   6.446   6.634  0.5903 -0.0867 -1.0887
  693MOL0     O95520  11.618   6.584   6.649 -0.1733  0.4200 -0.4915
  693MOL0     C95521  11.704   6.634   6.557 -0.0687 -0.5919  0.4334
  693MOL0     C95522  11.818   6.692   6.611  0.7526  0.0502  0.3129
  693MOL0     C95523  11.903   6.769   6.538  0.4091 -0.2027 -0.1455
  693MOL0     C95524  12.034   6.810   6.611  0.4001  0.4135  0.1257
  693MOL0     C95525  11.878   6.787   6.400 -0.4293 -0.5297 -0.1048
  693MOL0     C95526  11.961   6.875   6.312  0.4247  0.8445 -0.2270
  693MOL0     O95527  12.053   6.967   6.370  0.5887  0.4309  0.0831
  693MOL0     C95528  12.129   7.045   6.294 -0.0981  0.5588 -0.5690
  693MOL0     C95529  12.253   6.988   6.248 -0.2174  0.1008 -0.2173
  693MOL0     C95530  12.349   7.063   6.178  0.0556  0.0736  0.2972
  693MOL0     C95531  12.326   7.199   6.159 -0.5026  0.0659 -0.3382
  693MOL0     O95532  12.390   7.284   6.074 -0.8829  0.3526  0.6993
  693MOL0     C95533  12.535   7.257   6.045 -0.3988  0.6333 -0.7027
  693MOL0     C95534  12.597   7.359   5.956 -0.3097  0.4700  0.0921
  693MOL0     C95535  12.578   7.498   6.019 -0.1895 -0.0168 -0.3598
  693MOL0     C95536  12.643   7.612   5.936  0.1203  0.5210  1.0216
  693MOL0     C95537  12.638   7.753   6.008  0.0882 -0.1922 -0.3663
  693MOL0     C95538  12.763   7.829   5.988  0.4233 -0.6196  0.1612
  693MOL0     C95539  12.879   7.763   6.075  0.7240 -0.0158  0.3864
  693MOL0     C95540  13.003   7.850   6.085  0.0580  0.7688  0.8591
  693MOL0    Cl95541  13.096   7.837   5.934 -0.0667  0.0976 -0.2084
  693MOL0     C95542  12.203   7.251   6.202 -0.9070  0.3641  0.6144
  693MOL0     C95543  12.108   7.178   6.264 -0.7741 -0.2763  1.1213
  693MOL0     O95544  11.940   6.857   6.191 -0.5874 -0.1345  0.0513
  693MOL0     C95545  11.771   6.721   6.339  0.4348 -0.4670 -1.0918
  693MOL0     C95546  11.689   6.646   6.421 -0.0081  0.6178 -0.0851
  693MOL0     N95547  11.649   6.005   6.633  0.1097 -0.1278 -0.4676
  693MOL0     N95548  11.662   5.880   6.627 -0.4822 -0.6750  0.7714
  693MOL0     C95549  10.833   5.632   7.389 -0.3195  0.2993  0.1546
  693MOL0     C95550  10.688   5.628   7.399 -0.3777 -0.5729  0.9985
  693MOL0     C95551  10.261   5.660   7.397  0.4736  0.6940  0.8101
  693MOL0     C95552  10.233   5.598   7.277  0.3692  1.6650 -0.7966
  693MOL0     C95553  10.102   5.557   7.235 -0.6494 -0.0208 -0.1925
  693MOL0     C95554   9.986   5.588   7.310 -0.2285  0.1073 -0.3563
  693MOL0     O95555   9.852   5.563   7.279 -0.3219 -0.1156  0.3339
  693MOL0     C95556   9.824   5.517   7.147  0.3579 -0.1679 -0.5191
  693MOL0     C95557   9.692   5.448   7.161 -0.3539  0.0665 -0.0113
  693MOL0     C95558   9.575   5.547   7.158  0.2971 -0.1746 -0.3336
  693MOL0     C95559   9.444   5.475   7.138 -0.8923  0.0773  0.0566
  693MOL0     C95560   9.330   5.566   7.188 -0.0724  0.5507 -0.5563
  693MOL0     C95561   9.237   5.626   7.240 -0.1163 -0.2689 -0.4347
  693MOL0     C95562  10.007   5.657   7.428 -0.2694 -0.0554  0.1687
  693MOL0     C95563  10.142   5.691   7.472 -0.4253 -0.1695  0.1809
  693MOL0     C95564  10.151   5.760   7.604 -0.0964  0.4560  0.0045
  693MOL0     H95565  10.621   5.870   7.159  2.7576 -1.8830 -4.0646
  693MOL0     H95566  10.854   5.874   7.144 -2.8464 -0.5547 -2.8822
  693MOL0     H95567  11.041   5.505   7.300 -0.1557 -0.5859  2.1761
  693MOL0     H95568  11.112   5.626   7.415 -1.6371  1.3532 -1.0485
  693MOL0     H95569  11.295   5.668   7.265 -0.5954 -0.4998  0.7881
  693MOL0     H95570  11.280   5.494   7.271 -1.5202 -0.7666 -0.8065
  693MOL0     H95571  11.170   5.456   7.074 -2.0721 -0.0231 -1.6758
  693MOL0     H95572  11.131   5.624   7.049  0.2721  0.0292  1.4316
  693MOL0     H95573  11.380   5.684   7.024  0.8519  0.0757  0.4014
  693MOL0     H95574  11.420   5.516   7.030  1.1644  1.2592  0.1609
  693MOL0     H95575  11.224   5.638   6.836  2.0043  1.6965 -0.5153
  693MOL0     H95576  11.280   5.469   6.835  2.5525 -1.9346  3.5415
  693MOL0     H95577  11.470   5.723   6.820  1.5618 -0.4930  2.6294
  693MOL0     H95578  11.510   5.552   6.811  1.0568  1.7480 -3.1216
  693MOL0     H95579  11.315   5.676   6.611 -0.5044 -0.6762  0.4376
  693MOL0     H95580  11.390   5.516   6.609  0.7470  0.2097 -1.1586
  693MOL0     H95581  11.612   5.623   6.586 -0.4325  2.0256  0.7212
  693MOL0     H95582  11.509   5.659   6.448 -2.4472 -2.2274  0.5148
  693MOL0     H95583  11.350   5.922   6.552  0.2629  0.3662 -1.7274
  693MOL0     H95584  11.361   6.175   6.596  0.6347 -1.3858  0.2862
  693MOL0     H95585  11.504   6.227   6.513 -2.1644 -1.4978 -1.4619
  693MOL0     H95586  11.412   6.211   6.800 -0.9410  2.7195  0.2588
  693MOL0     H95587  11.589   6.219   6.788 -0.3133  0.1417  0.6592
  693MOL0     H95588  11.391   6.429   6.710  0.1604 -2.3931 -1.0061
  693MOL0     H95589  11.515   6.440   6.834  1.3016 -0.6695 -0.3400
  693MOL0     H95590  11.683   6.386   6.647  0.6733  0.1424 -0.5832
  693MOL0     H95591  11.548   6.438   6.534  0.7712  1.6223 -1.3437
  693MOL0     H95592  11.826   6.672   6.717 -1.8302  4.3490  1.5855
  693MOL0     H95593  12.121   6.812   6.545  0.1109 -1.0585 -0.3354
  693MOL0     H95594  12.050   6.731   6.685 -0.9655 -2.9461 -2.8639
  693MOL0     H95595  12.020   6.901   6.671  1.6362 -0.2635  1.5048
  693MOL0     H95596  12.269   6.882   6.265 -1.1502  0.1325  1.0240
  693MOL0     H95597  12.431   7.006   6.136 -1.3434 -0.6517 -1.5412
  693MOL0     H95598  12.592   7.264   6.138 -1.1236  0.8116 -0.2617
  693MOL0     H95599  12.549   7.151   6.019 -2.0345 -0.2935  1.7525
  693MOL0     H95600  12.702   7.342   5.933 -0.7726 -1.1264 -1.0491
  693MOL0     H95601  12.551   7.357   5.857  1.6033 -2.5366 -0.8688
  693MOL0     H95602  12.626   7.503   6.117 -1.8954 -1.9125  0.6482
  693MOL0     H95603  12.473   7.522   6.040 -0.4510 -0.5142 -1.0725
  693MOL0     H95604  12.576   7.621   5.850 -0.4708  1.9821  1.5892
  693MOL0     H95605  12.743   7.580   5.905  1.5273  2.9974  2.6040
  693MOL0     H95606  12.549   7.812   5.987  1.4827  1.1827 -3.0416
  693MOL0     H95607  12.634   7.737   6.116 -1.2761  0.0040 -0.3737
  693MOL0     H95608  12.749   7.930   6.028 -0.5415 -1.1101  1.1251
  693MOL0     H95609  12.790   7.828   5.882  0.5268  0.4375  0.1688
  693MOL0     H95610  12.903   7.658   6.055 -0.0736 -0.1907  0.3393
  693MOL0     H95611  12.828   7.761   6.172  0.4428 -1.1336  0.2205
  693MOL0     H95612  13.065   7.818   6.169  0.6009 -0.1955  0.1133
  693MOL0     H95613  12.955   7.948   6.096 -4.9903 -1.5490  2.4191
  693MOL0     H95614  12.191   7.356   6.176  3.2419  1.6023  2.7053
  693MOL0     H95615  12.016   7.228   6.294 -0.6033 -0.4640  1.9930
  693MOL0     H95616  11.744   6.728   6.234 -2.1733 -0.7568 -0.4972
  693MOL0     H95617  11.615   6.589   6.366 -1.1326  0.6034  1.3690
  693MOL0     H95618  10.894   5.568   7.452 -1.8468 -0.3153  1.0628
  693MOL0     H95619  10.653   5.559   7.475  0.0646 -1.1278  0.7060
  693MOL0     H95620  10.308   5.566   7.206  2.4241 -2.7535  2.8626
  693MOL0     H95621  10.095   5.502   7.142 -1.7283  0.0219 -0.1537
  693MOL0     H95622   9.811   5.607   7.087  0.5118 -0.0610 -0.3942
  693MOL0     H95623   9.908   5.453   7.117 -0.5808 -2.2355  1.0499
  693MOL0     H95624   9.690   5.385   7.250 -2.9456 -1.8891 -1.3184
  693MOL0     H95625   9.690   5.377   7.078  3.3527 -1.9666  1.4370
  693MOL0     H95626   9.577   5.620   7.240 -0.2730 -0.1300 -0.3592
  693MOL0     H95627   9.585   5.613   7.071 -0.2123  0.4198  0.0453
  693MOL0     H95628   9.451   5.384   7.198  1.9318  0.1358 -0.0662
  693MOL0     H95629   9.438   5.443   7.034  0.7513 -1.2677  0.3451
  693MOL0     H95630   9.152   5.675   7.284 -0.5579  1.4695 -2.9563
  693MOL0     H95631   9.936   5.706   7.493  3.2267  2.3087  2.5768
  693MOL0     H95632  10.067   5.826   7.627  0.3769  0.9886  0.2294
  693MOL0     H95633  10.160   5.685   7.683  0.7216 -1.9311 -2.2057
  693MOL0     H95634  10.234   5.830   7.616  0.2848 -0.2800  2.0001
  694MOL0     O95635   6.033   9.585   1.944 -0.2749 -0.2501  0.0960
  694MOL0     C95636   6.103   9.680   1.920 -0.4002 -0.0704 -0.0539
  694MOL0     O95637   6.235   9.685   1.939 -0.0518 -0.5897  0.0883
  694MOL0     C95638   6.299   9.596   2.014 -0.7884  0.6127  0.4548
  694MOL0     C95639   6.312   9.628   2.152  0.4836  0.4796  0.4566
  694MOL0     C95640   6.390   9.537   2.235 -1.0837 -0.8085 -0.4510
  694MOL0     C95641   6.454   9.425   2.179 -0.0575  0.4833  0.1799
  694MOL0     O95642   6.522   9.335   2.265  0.4424 -0.3343  0.1740
  694MOL0     C95643   6.456   9.301   2.382  0.4949  0.0818 -0.0277
  694MOL0     C95644   6.549   9.366   2.503  0.3799 -0.6681  0.6682
  694MOL0     C95645   6.483   9.329   2.634 -0.0755 -0.4198  0.5226
  694MOL0     C95646   6.567   9.367   2.756 -0.0593  0.2455  0.1949
  694MOL0     C95647   6.522   9.279   2.875  0.3357 -0.7556 -0.1005
  694MOL0     C95648   6.562   9.353   3.000  0.1010 -0.7474  1.3400
  694MOL0     C95649   6.473   9.324   3.117 -0.2846  0.7836  0.6271
  694MOL0     C95650   6.537   9.387   3.243 -0.2952 -0.7093 -0.3351
  694MOL0     N95651   6.639   9.300   3.303 -0.0630  1.2290 -0.2010
  694MOL0     C95652   6.630   9.228   3.422 -0.2299 -0.3331 -0.1486
  694MOL0     C95653   6.757   9.174   3.439  0.2028  0.6994  0.2742
  694MOL0     C95654   6.793   9.098   3.566  0.2929  0.1894 -0.0370
  694MOL0     C95655   6.910   9.176   3.629 -0.3416 -0.5368  0.3466
  694MOL0     C95656   6.943   9.140   3.781 -0.0183  0.2555 -0.1483
  694MOL0     C95657   6.986   9.007   3.792  0.3636  0.9194  0.4219
  694MOL0     O95658   7.115   8.989   3.729  0.3897 -0.2117  0.1202
  694MOL0     C95659   7.205   8.881   3.741  0.0387 -0.5932 -0.0111
  694MOL0     C95660   7.314   8.888   3.651  0.3109  0.3562 -0.4751
  694MOL0     C95661   7.420   8.789   3.660  0.1290  0.1436  0.1792
  694MOL0     C95662   7.546   8.808   3.577  0.5455  0.2297 -0.5197
  694MOL0     C95663   7.398   8.682   3.747 -0.6176  0.2865 -0.0799
  694MOL0     C95664   7.490   8.566   3.748  0.5093  0.5929  0.6977
  694MOL0     O95665   7.508   8.500   3.867  0.6059 -0.1013 -0.1135
  694MOL0     C95666   7.597   8.398   3.852  0.2843  0.8141 -0.3579
  694MOL0     C95667   7.733   8.435   3.864  0.4232 -1.1540 -0.1208
  694MOL0     C95668   7.844   8.340   3.848 -0.1244 -0.3757  1.8229
  694MOL0     C95669   7.811   8.213   3.811  0.8120 -0.3083 -0.6110
  694MOL0     O95670   7.909   8.120   3.808 -1.0190 -0.0314  0.3670
  694MOL0     C95671   7.921   8.052   3.686  0.5359  0.4858  0.1543
  694MOL0     C95672   8.064   8.010   3.669  0.3318  0.2800 -0.2498
  694MOL0     C95673   8.086   7.947   3.529  0.6291 -0.7198 -0.5200
  694MOL0     C95674   8.232   7.895   3.538 -0.8308  0.2997  0.3433
  694MOL0     C95675   8.251   7.786   3.437  0.2787  0.0002 -0.3171
  694MOL0     C95676   8.394   7.730   3.438  0.3600  0.2818  0.3183
  694MOL0     C95677   8.429   7.633   3.331  0.2103 -1.0707  0.3293
  694MOL0     C95678   8.565   7.574   3.362  0.0806  0.7598 -0.1892
  694MOL0    Cl95679   8.572   7.436   3.249 -0.4756  0.3202 -0.2435
  694MOL0     C95680   7.678   8.174   3.809 -0.6893 -0.6898  0.7458
  694MOL0     C95681   7.572   8.270   3.827  0.4753  0.9258 -0.4714
  694MOL0     O95682   7.540   8.536   3.637 -0.3161 -0.3992  0.1285
  694MOL0     C95683   7.278   8.675   3.819 -0.0173 -0.6557 -0.0006
  694MOL0     C95684   7.179   8.776   3.819 -0.4378 -0.1197  0.8301
  694MOL0     N95685   6.845   9.226   3.341  0.3254  0.7259  0.9692
  694MOL0     N95686   6.764   9.292   3.262  0.5329 -0.4248 -0.1332
  694MOL0     C95687   6.441   9.394   2.042  0.7162  0.1445 -0.5047
  694MOL0     C95688   6.364   9.488   1.961  1.2392  0.4306 -0.6959
  694MOL0     C95689   6.042   9.798   1.844 -0.6491 -0.8288  0.6330
  694MOL0     C95690   6.075   9.930   1.890 -0.2844 -1.0519 -0.1242
  694MOL0     C95691   6.022  10.039   1.830 -0.0187 -0.3123 -0.4367
  694MOL0     C95692   5.927  10.030   1.739 -0.1394  0.0536  0.5167
  694MOL0     O95693   5.865  10.136   1.668 -0.0372  0.3139 -1.2088
  694MOL0     C95694   5.911  10.276   1.676 -0.0208  0.6547 -0.3229
  694MOL0     C95695   5.789  10.361   1.639  0.0520 -0.2225  0.2928
  694MOL0     C95696   5.798  10.509   1.657 -0.1956  0.2727  0.6714
  694MOL0     C95697   5.860  10.559   1.524  0.2589 -0.8104  0.3203
  694MOL0     C95698   5.895  10.696   1.556  0.6825  0.4321 -0.1008
  694MOL0     C95699   5.928  10.807   1.588  0.2868 -0.2970 -0.2422
  694MOL0     C95700   5.871   9.901   1.706 -0.8076 -1.0541  0.4647
  694MOL0     C95701   5.930   9.786   1.751  0.4303 -0.4578  0.1862
  694MOL0     C95702   5.866   9.654   1.708 -0.1397  0.6296 -0.4264
  694MOL0     H95703   6.261   9.717   2.187 -1.0228 -0.6486  1.2479
  694MOL0     H95704   6.387   9.561   2.341 -0.3926  1.2592 -0.8605
  694MOL0     H95705   6.463   9.192   2.382  3.5208  0.1823 -1.7044
  694MOL0     H95706   6.351   9.332   2.390  0.4008  0.3836 -1.9688
  694MOL0     H95707   6.649   9.324   2.499 -0.3638 -2.5006 -2.1622
  694MOL0     H95708   6.547   9.475   2.494  1.0596 -0.7952 -1.8472
  694MOL0     H95709   6.388   9.382   2.638 -1.0688 -1.7843 -2.2995
  694MOL0     H95710   6.454   9.223   2.628 -0.7062 -0.1757 -1.5761
  694MOL0     H95711   6.672   9.339   2.739 -0.1132  0.5215 -0.6295
  694MOL0     H95712   6.562   9.474   2.776  0.0216  0.0317  1.4423
  694MOL0     H95713   6.581   9.187   2.876  2.1155  0.3304 -0.6055
  694MOL0     H95714   6.415   9.257   2.873  0.1157 -0.3353 -5.1795
  694MOL0     H95715   6.665   9.328   3.026  0.1058 -0.1889  1.8561
  694MOL0     H95716   6.558   9.461   2.986  0.6689 -0.9134 -0.4127
  694MOL0     H95717   6.458   9.216   3.125 -2.2284  1.1340  3.0612
  694MOL0     H95718   6.377   9.375   3.110 -0.5256  0.2907  0.3135
  694MOL0     H95719   6.576   9.487   3.222  0.5670 -0.6586  1.3185
  694MOL0     H95720   6.458   9.419   3.312  0.1731  1.8389 -0.8647
  694MOL0     H95721   6.535   9.230   3.475  0.0782 -1.1008  0.4428
  694MOL0     H95722   6.807   8.990   3.555  1.2231  0.1840  1.0268
  694MOL0     H95723   6.701   9.097   3.626 -1.6216 -0.4268 -2.7724
  694MOL0     H95724   7.004   9.172   3.573  0.7177 -2.5630  2.1046
  694MOL0     H95725   6.883   9.282   3.620  0.9771 -0.0688  1.3830
  694MOL0     H95726   7.009   9.215   3.826 -0.9812  1.4785 -0.7014
  694MOL0     H95727   6.852   9.151   3.840  0.6548  0.0825  0.9461
  694MOL0     H95728   6.991   8.966   3.893  2.0477 -0.1335 -0.0510
  694MOL0     H95729   6.923   8.942   3.730  2.6932  0.9264 -2.1383
  694MOL0     H95730   7.317   8.977   3.588 -0.6021  1.4715  0.9654
  694MOL0     H95731   7.581   8.911   3.577 -1.6855  1.0265 -0.5604
  694MOL0     H95732   7.538   8.778   3.472  3.6504 -1.2383 -0.4622
  694MOL0     H95733   7.640   8.756   3.600  0.3910  0.6267  1.1764
  694MOL0     H95734   7.748   8.539   3.890 -4.3203 -1.1425  4.0220
  694MOL0     H95735   7.946   8.375   3.853 -1.4061  4.2131  1.1264
  694MOL0     H95736   7.855   7.965   3.677  0.0677  0.6485  1.6973
  694MOL0     H95737   7.897   8.132   3.616 -1.9280  1.0152  1.4590
  694MOL0     H95738   8.130   8.096   3.665  2.1906 -0.7487  3.6058
  694MOL0     H95739   8.095   7.935   3.742  5.7161 -0.8828 -3.2258
  694MOL0     H95740   8.071   8.017   3.447 -0.6163 -0.5913 -0.1944
  694MOL0     H95741   8.013   7.866   3.525 -1.7433  1.1144  1.8142
  694MOL0     H95742   8.272   7.862   3.635 -3.6897 -2.2698  0.8088
  694MOL0     H95743   8.283   7.987   3.509 -3.2802  1.4887 -0.5024
  694MOL0     H95744   8.185   7.704   3.469 -0.2034  1.2987  2.2798
  694MOL0     H95745   8.219   7.826   3.341 -0.3991  0.4014  0.0682
  694MOL0     H95746   8.405   7.675   3.532  5.3351  1.1418  0.5093
  694MOL0     H95747   8.463   7.815   3.442  1.4006 -0.5849  1.4767
  694MOL0     H95748   8.445   7.676   3.231 -0.5315  0.0707  0.6815
  694MOL0     H95749   8.344   7.564   3.325 -0.3848 -0.2593 -1.6275
  694MOL0     H95750   8.561   7.531   3.462  1.7221  0.7021 -0.1227
  694MOL0     H95751   8.651   7.638   3.342  1.4637 -0.8973  0.1776
  694MOL0     H95752   7.669   8.070   3.779 -0.8343 -0.4454 -0.0794
  694MOL0     H95753   7.469   8.238   3.832  1.9367 -5.0188 -0.2883
  694MOL0     H95754   7.267   8.586   3.880 -1.7567 -2.4884 -2.7769
  694MOL0     H95755   7.080   8.766   3.864 -1.0264  0.1721 -0.3678
  694MOL0     H95756   6.483   9.309   1.989 -0.8866 -1.1483  0.2058
  694MOL0     H95757   6.366   9.477   1.853 -0.0107 -1.2780 -0.5827
  694MOL0     H95758   6.153   9.943   1.964 -0.0410 -3.6597  0.1514
  694MOL0     H95759   6.057  10.138   1.855 -0.7490 -0.1578  0.0005
  694MOL0     H95760   5.947  10.298   1.777  1.4153  2.3063 -1.1473
  694MOL0     H95761   5.990  10.304   1.606 -0.3979 -1.3795 -1.6436
  694MOL0     H95762   5.717  10.326   1.713 -3.6343  4.0926 -0.7822
  694MOL0     H95763   5.754  10.322   1.543 -0.4130  0.4603  0.1733
  694MOL0     H95764   5.694  10.543   1.659  0.5605  3.0247 -1.0270
  694MOL0     H95765   5.858  10.537   1.745  1.3316 -2.2786  0.5429
  694MOL0     H95766   5.779  10.554   1.451 -0.3728 -0.7160  1.0069
  694MOL0     H95767   5.949  10.502   1.496  0.9451  0.5980 -0.4785
  694MOL0     H95768   5.950  10.904   1.628  0.3211 -1.2118  2.0832
  694MOL0     H95769   5.781   9.908   1.647 -0.2439 -0.1083 -0.3026
  694MOL0     H95770   5.941   9.575   1.708 -1.0382 -0.4157 -4.1850
  694MOL0     H95771   5.789   9.632   1.783  1.4209  0.6800  1.2336
  694MOL0     H95772   5.819   9.658   1.609  1.0268 -0.4524 -1.0422
  695MOL0     O95773   2.726  10.466   1.559  0.8077  0.6306  0.2295
  695MOL0     C95774   2.815  10.399   1.505  0.2881  0.3602 -0.2111
  695MOL0     O95775   2.894  10.301   1.564  0.7495  0.6124 -0.4581
  695MOL0     C95776   2.869  10.286   1.702  0.3509  0.4792  0.2274
  695MOL0     C95777   2.968  10.334   1.786  0.6483  0.1974 -0.1479
  695MOL0     C95778   2.949  10.326   1.919 -0.0116 -0.2684 -0.4428
  695MOL0     C95779   2.833  10.277   1.974 -0.1302  0.2161 -0.7811
  695MOL0     O95780   2.823  10.253   2.108  0.3794 -0.1099 -0.1619
  695MOL0     C95781   2.694  10.286   2.166 -0.2379  0.3006 -0.7850
  695MOL0     C95782   2.693  10.306   2.322  0.3044  0.6884 -0.0983
  695MOL0     C95783   2.552  10.313   2.374  0.9444  0.5224 -0.4802
  695MOL0     C95784   2.556  10.406   2.495  0.9436 -0.3629  0.1465
  695MOL0     C95785   2.414  10.422   2.568  0.8060  0.4315  0.2056
  695MOL0     C95786   2.326  10.538   2.517 -0.2402  0.5996 -0.0742
  695MOL0     C95787   2.188  10.536   2.590  0.4779  0.5887 -0.3916
  695MOL0     C95788   2.097  10.641   2.527 -0.1646 -0.7997 -0.1583
  695MOL0     N95789   1.966  10.662   2.589 -1.0867  0.2483  0.3799
  695MOL0     C95790   1.938  10.675   2.727 -0.1291  0.7645  0.3599
  695MOL0     C95791   1.800  10.675   2.736 -0.4698  0.4959 -0.1125
  695MOL0     C95792   1.725  10.707   2.864  1.0768  0.2279 -1.0280
  695MOL0     C95793   1.677  10.860   2.842 -0.2282  0.3462  0.0568
  695MOL0     C95794   1.626  10.917   2.976 -0.1534 -0.2026 -0.7186
  695MOL0     C95795   1.608  11.069   2.964  0.8207  0.3902  0.0926
  695MOL0     O95796   1.490  11.106   2.890 -0.4330  0.5388  0.3259
  695MOL0     C95797   1.368  11.113   2.946  0.5186  0.8798 -0.3456
  695MOL0     C95798   1.264  11.175   2.875  1.0081 -0.2192  0.5192
  695MOL0     C95799   1.133  11.204   2.924  0.4554  1.4897 -0.1397
  695MOL0     C95800   1.042  11.267   2.830  0.6381 -1.1285 -0.3530
  695MOL0     C95801   1.099  11.145   3.047 -1.1104  0.0357  0.1187
  695MOL0     C95802   0.962  11.155   3.116 -0.4973 -0.4486  0.1356
  695MOL0     O95803   0.946  11.075   3.224  0.1361  0.1706  0.7105
  695MOL0     C95804   0.838  11.099   3.302 -0.4672  0.0905 -0.4221
  695MOL0     C95805   0.873  11.157   3.427 -0.5815  0.5083 -0.5666
  695MOL0     C95806   0.774  11.210   3.509  0.0060  0.5360 -0.2842
  695MOL0     C95807   0.646  11.210   3.467  0.1230  0.5463 -0.0413
  695MOL0     O95808   0.544  11.284   3.526 -0.4591  0.6064 -0.8285
  695MOL0     C95809   0.534  11.279   3.669  0.3862  0.0095  0.5312
  695MOL0     C95810   0.508  11.129   3.715  0.3822 -1.3466  0.1636
  695MOL0     C95811   0.375  11.074   3.659 -0.1947 -0.5007 -1.0207
  695MOL0     C95812   0.261  11.172   3.620 -0.2330 -0.4368  0.3914
  695MOL0     C95813   0.156  11.102   3.546 -0.8888 -1.0386 -1.2460
  695MOL0     C95814   0.048  11.196   3.508  0.3457 -0.0895  0.1031
  695MOL0     C95815  -0.043  11.140   3.399  0.2139  0.2863  0.6340
  695MOL0     C95816  -0.154  11.233   3.342 -0.1686 -0.2395  0.2037
  695MOL0    Cl95817  -0.260  11.313   3.469  0.2555 -0.1991  0.0022
  695MOL0     C95818   0.609  11.141   3.355  0.7531  0.4060  0.1228
  695MOL0     C95819   0.705  11.081   3.272  0.4367 -0.9634 -0.3571
  695MOL0     O95820   0.885  11.241   3.079 -0.3486 -0.4747 -0.4702
  695MOL0     C95821   1.202  11.080   3.124  0.3377 -0.3962  0.1997
  695MOL0     C95822   1.329  11.066   3.077 -0.0833  0.2115  0.7337
  695MOL0     N95823   1.762  10.693   2.607 -0.0878 -0.2739  0.8089
  695MOL0     N95824   1.852  10.680   2.520  0.6953 -0.1830 -0.5072
  695MOL0     C95825   2.725  10.229   1.891  0.0895 -0.0114 -0.0650
  695MOL0     C95826   2.750  10.231   1.753 -0.8776  0.9123  1.2044
  695MOL0     C95827   2.819  10.396   1.359  0.2862 -0.2202  0.1412
  695MOL0     C95828   2.867  10.280   1.295  0.4012 -0.3374 -0.0277
  695MOL0     C95829   2.883  10.279   1.160  0.2663 -0.0379  0.1212
  695MOL0     C95830   2.856  10.394   1.085  0.2815  0.5866  0.1738
  695MOL0     O95831   2.870  10.401   0.953 -0.1699  0.6554  0.3645
  695MOL0     C95832   2.903  10.283   0.875  0.4048 -0.7627 -0.8313
  695MOL0     C95833   2.929  10.322   0.731 -0.3112 -0.6320  0.1968
  695MOL0     C95834   3.059  10.403   0.700 -0.5901  0.2650  0.2013
  695MOL0     C95835   3.096  10.420   0.553  1.2813  0.6742  1.0047
  695MOL0     C95836   3.218  10.496   0.537 -0.2529  0.1869 -1.2487
  695MOL0     C95837   3.320  10.553   0.503  0.5439 -0.6875 -0.1335
  695MOL0     C95838   2.814  10.510   1.142  1.1768  0.3797  0.4743
  695MOL0     C95839   2.786  10.514   1.274 -0.1315  0.2546 -0.3181
  695MOL0     C95840   2.756  10.642   1.328  0.4360  0.7145 -0.2264
  695MOL0     H95841   3.062  10.374   1.749  1.6539 -1.5291  0.4394
  695MOL0     H95842   3.033  10.353   1.982  0.4653 -1.0008 -0.7483
  695MOL0     H95843   2.614  10.214   2.145  0.6667  0.2002 -4.6008
  695MOL0     H95844   2.667  10.381   2.118 -1.9658  0.6164  0.6805
  695MOL0     H95845   2.745  10.225   2.373  0.1392 -1.3291 -2.8714
  695MOL0     H95846   2.748  10.397   2.348  1.9187 -0.1889 -0.3714
  695MOL0     H95847   2.477  10.358   2.308 -1.4306 -2.9967 -0.4928
  695MOL0     H95848   2.514  10.215   2.406 -1.8698  0.7499 -2.7233
  695MOL0     H95849   2.623  10.357   2.566  0.9556 -1.0036 -0.3004
  695MOL0     H95850   2.608  10.501   2.476  0.5782 -0.3637 -0.9556
  695MOL0     H95851   2.427  10.438   2.675 -2.8225 -0.5381  0.9210
  695MOL0     H95852   2.363  10.325   2.563  1.6453  0.0376 -1.5064
  695MOL0     H95853   2.364  10.637   2.542 -0.2968  0.8838 -1.0711
  695MOL0     H95854   2.313  10.521   2.409 -0.0140  1.6495 -0.2740
  695MOL0     H95855   2.190  10.560   2.696  1.0427 -2.8219  0.4784
  695MOL0     H95856   2.141  10.438   2.576 -0.6849  0.9071  1.1046
  695MOL0     H95857   2.148  10.737   2.512 -1.3433 -0.3280 -1.3155
  695MOL0     H95858   2.073  10.615   2.424 -1.8255  0.8103 -0.2301
  695MOL0     H95859   2.004  10.662   2.812  2.6071  2.3478 -1.3870
  695MOL0     H95860   1.789  10.692   2.951  2.3527 -1.7941 -2.2419
  695MOL0     H95861   1.636  10.646   2.882 -0.8608  3.5694  1.9023
  695MOL0     H95862   1.761  10.920   2.808  0.3241 -2.2540 -3.8286
  695MOL0     H95863   1.595  10.863   2.770 -1.1776  1.3288  1.1249
  695MOL0     H95864   1.528  10.882   3.008 -0.9314  2.5617  0.2300
  695MOL0     H95865   1.692  10.896   3.061 -0.6254 -0.5097 -0.4258
  695MOL0     H95866   1.597  11.114   3.063 -1.2134  1.0589 -0.4043
  695MOL0     H95867   1.696  11.117   2.917 -0.2556  0.9394 -1.4581
  695MOL0     H95868   1.279  11.220   2.777  0.4814  2.2698  1.5081
  695MOL0     H95869   0.964  11.201   2.791  0.5593 -1.1996 -0.0824
  695MOL0     H95870   1.082  11.326   2.747 -1.4495  3.6072  1.5909
  695MOL0     H95871   1.001  11.352   2.885  0.6319  0.9847 -3.3819
  695MOL0     H95872   0.975  11.175   3.457 -0.8647  1.8848 -0.3684
  695MOL0     H95873   0.803  11.260   3.600  0.0202  1.7147 -0.9184
  695MOL0     H95874   0.612  11.330   3.728  0.9015  0.9066 -0.8838
  695MOL0     H95875   0.452  11.344   3.700  1.1567 -0.2582  3.5409
  695MOL0     H95876   0.594  11.070   3.685  1.4239  0.8232 -1.3906
  695MOL0     H95877   0.493  11.123   3.824 -1.8341  0.2017  0.0364
  695MOL0     H95878   0.332  11.023   3.745 -0.1985  0.9268 -0.1460
  695MOL0     H95879   0.400  11.002   3.581  2.4395 -1.8176  0.8913
  695MOL0     H95880   0.297  11.247   3.549 -1.4305  0.8409  1.0817
  695MOL0     H95881   0.224  11.217   3.713 -0.9533  0.3797 -0.2666
  695MOL0     H95882   0.196  11.045   3.461 -0.4280  0.3535 -1.9856
  695MOL0     H95883   0.111  11.039   3.623  0.1955  0.8998  1.1054
  695MOL0     H95884   0.092  11.291   3.476 -0.3442  0.0799 -0.3520
  695MOL0     H95885  -0.000  11.234   3.598 -0.2829 -1.1467  0.2196
  695MOL0     H95886  -0.089  11.053   3.447 -1.2246  1.8738  2.3531
  695MOL0     H95887   0.021  11.105   3.318 -2.3228 -0.4381 -1.1921
  695MOL0     H95888  -0.211  11.184   3.263 -3.0489  0.2925  1.8135
  695MOL0     H95889  -0.103  11.312   3.286 -1.5673  0.2193 -0.4661
  695MOL0     H95890   0.507  11.142   3.317  1.2234  0.1082 -1.2129
  695MOL0     H95891   0.686  11.038   3.174  3.2213 -2.3158 -0.3913
  695MOL0     H95892   1.177  11.038   3.220 -0.1503 -0.7771 -0.0894
  695MOL0     H95893   1.413  11.024   3.132  1.3655  0.4319 -1.1789
  695MOL0     H95894   2.635  10.191   1.937  1.0593 -2.0406  0.2915
  695MOL0     H95895   2.682  10.174   1.690  0.4809  0.5087  0.0555
  695MOL0     H95896   2.901  10.196   1.355 -3.2206 -0.0447  2.8346
  695MOL0     H95897   2.928  10.189   1.120  0.6719  1.0919 -2.1238
  695MOL0     H95898   2.984  10.226   0.920  0.9484 -1.1598 -2.2896
  695MOL0     H95899   2.816  10.215   0.876  1.1619 -1.7480 -0.3148
  695MOL0     H95900   2.835  10.360   0.690 -2.4846 -0.8315  4.4758
  695MOL0     H95901   2.940  10.223   0.686  0.7001  0.0045 -1.0481
  695MOL0     H95902   3.056  10.496   0.758  5.0257  0.3303  0.8740
  695MOL0     H95903   3.140  10.345   0.744 -1.7104  0.7052  3.0867
  695MOL0     H95904   3.021  10.481   0.502  1.2707  1.5105  1.9940
  695MOL0     H95905   3.101  10.326   0.496  0.9333  0.4822  1.2870
  695MOL0     H95906   3.416  10.591   0.476 -0.7437  3.3101  0.2491
  695MOL0     H95907   2.788  10.596   1.081  0.2830  0.4818  0.9796
  695MOL0     H95908   2.806  10.725   1.277 -0.0082 -0.7528 -3.2248
  695MOL0     H95909   2.648  10.651   1.315  0.2376  0.2353  0.9567
  695MOL0     H95910   2.787  10.653   1.432  0.8832  2.4198 -0.5093
  696MOL0     O95911   5.059   2.769   9.660 -0.4224 -0.2040 -0.0368
  696MOL0     C95912   5.159   2.833   9.706  0.5854  0.9133 -0.3605
  696MOL0     O95913   5.252   2.906   9.626 -0.8806  0.0747 -0.5472
  696MOL0     C95914   5.243   2.892   9.491  0.0466  0.4824 -0.3588
  696MOL0     C95915   5.253   2.775   9.422 -0.0993 -0.0997  0.7023
  696MOL0     C95916   5.253   2.779   9.280  0.1353  0.4567 -0.3559
  696MOL0     C95917   5.224   2.899   9.208 -0.5192  1.1448 -0.5931
  696MOL0     O95918   5.211   2.893   9.069  0.3683  0.6892  0.0889
  696MOL0     C95919   5.174   2.775   8.995  0.3370 -0.1613  0.4573
  696MOL0     C95920   5.018   2.764   8.996 -0.5074  1.0517 -0.5490
  696MOL0     C95921   4.962   2.749   9.127 -0.5044  0.4036  0.0797
  696MOL0     C95922   4.810   2.745   9.124 -0.5866 -0.3830 -0.0496
  696MOL0     C95923   4.742   2.713   9.255 -0.8166 -0.1048 -1.2563
  696MOL0     C95924   4.589   2.726   9.243  0.3646 -0.0559 -0.2906
  696MOL0     C95925   4.520   2.712   9.379  0.0704  0.2723 -0.1284
  696MOL0     C95926   4.372   2.718   9.383  0.6749  0.8640 -1.2584
  696MOL0     N95927   4.317   2.769   9.516 -0.4489  1.2482 -0.6732
  696MOL0     C95928   4.300   2.692   9.634  0.0886 -0.6725  0.4853
  696MOL0     C95929   4.250   2.770   9.736  0.0938 -0.6558  1.8169
  696MOL0     C95930   4.218   2.717   9.869 -0.3771 -0.5635 -0.4823
  696MOL0     C95931   4.158   2.805   9.969 -0.1499 -0.0150 -0.4452
  696MOL0     C95932   4.257   2.904  10.030  0.4429 -0.4220  0.5101
  696MOL0     C95933   4.205   2.993  10.146  0.0241  0.1436  0.8006
  696MOL0     O95934   4.311   3.082  10.182  0.1473  0.5330  0.2089
  696MOL0     C95935   4.280   3.156  10.302 -0.6546 -0.1152 -0.4121
  696MOL0     C95936   4.372   3.250  10.344 -1.1238 -0.4450  0.3960
  696MOL0     C95937   4.339   3.337  10.447  0.0541 -0.0378 -0.8164
  696MOL0     C95938   4.435   3.448  10.465  0.0050  0.4310  0.3062
  696MOL0     C95939   4.220   3.317  10.533 -0.0605 -0.3790 -0.1736
  696MOL0     C95940   4.196   3.399  10.660 -0.4043 -0.3647  0.4319
  696MOL0     O95941   4.187   3.529  10.653 -0.4664 -0.6393 -0.2015
  696MOL0     C95942   4.103   3.600  10.738  1.0623 -0.6312  0.1801
  696MOL0     C95943   4.007   3.677  10.682 -1.1156 -0.6642  0.7690
  696MOL0     C95944   3.911   3.743  10.748  0.2541  0.7578 -0.0959
  696MOL0     C95945   3.902   3.741  10.887 -0.1349  0.1801 -0.2234
  696MOL0     O95946   3.812   3.807  10.970 -0.1421 -0.4004  0.5478
  696MOL0     C95947   3.738   3.923  10.921  0.6327 -0.6525  0.7316
  696MOL0     C95948   3.702   4.015  11.034 -0.1301 -0.6436  0.8109
  696MOL0     C95949   3.692   3.950  11.176 -0.3555  0.1988  0.2972
  696MOL0     C95950   3.572   3.849  11.196 -0.8871  0.1293 -0.1641
  696MOL0     C95951   3.585   3.758  11.317  0.5465 -0.0385  0.5995
  696MOL0     C95952   3.713   3.676  11.298  0.1514  0.1849 -0.6218
  696MOL0     C95953   3.714   3.565  11.412  0.6014 -0.2768  0.4901
  696MOL0     C95954   3.834   3.477  11.401 -0.2683  0.5862  0.0538
  696MOL0    Cl95955   3.971   3.580  11.447  0.1773  0.0785 -0.2635
  696MOL0     C95956   3.995   3.659  10.950 -0.4712 -0.2516  0.4268
  696MOL0     C95957   4.094   3.587  10.878  0.1163  0.7598  0.1726
  696MOL0     O95958   4.187   3.331  10.757  0.0596 -0.0282  0.0372
  696MOL0     C95959   4.130   3.206  10.498  0.0728 -0.3737  0.4137
  696MOL0     C95960   4.165   3.131  10.386  0.5051  0.1290  0.1114
  696MOL0     N95961   4.228   2.894   9.682 -0.1097  1.0098 -0.6349
  696MOL0     N95962   4.275   2.890   9.554 -0.1638 -0.5133 -0.3536
  696MOL0     C95963   5.223   3.018   9.282 -0.6517  1.1303  0.0357
  696MOL0     C95964   5.230   3.013   9.424  1.2300  0.4698 -0.9326
  696MOL0     C95965   5.163   2.866   9.849 -0.0022 -0.0533  0.6636
  696MOL0     C95966   5.066   2.941   9.911  1.0276 -0.7664  0.3558
  696MOL0     C95967   5.067   2.968  10.053 -0.0479 -0.2354 -0.1438
  696MOL0     C95968   5.168   2.923  10.127 -0.0039 -0.6623 -1.2990
  696MOL0     O95969   5.195   2.960  10.259  0.0477 -0.3760 -0.8096
  696MOL0     C95970   5.122   3.077  10.305 -0.3345  0.1892 -0.1805
  696MOL0     C95971   5.185   3.146  10.423  0.2627  0.5005  0.0040
  696MOL0     C95972   5.159   3.076  10.567 -0.2864 -0.9879  0.4471
  696MOL0     C95973   5.218   3.161  10.678 -0.0271 -0.5660  0.2002
  696MOL0     C95974   5.163   3.135  10.810  0.4917  0.4452  0.6244
  696MOL0     C95975   5.121   3.167  10.921  0.3541  0.0432 -0.0445
  696MOL0     C95976   5.268   2.849  10.066  0.2628 -0.2693  0.1673
  696MOL0     C95977   5.272   2.814   9.931 -0.1444  0.6471  0.5384
  696MOL0     C95978   5.396   2.737   9.869 -0.2553 -0.2789  0.4562
  696MOL0     H95979   5.277   2.685   9.478  1.6647 -0.6715 -0.8657
  696MOL0     H95980   5.297   2.690   9.235  2.1154  1.4615 -0.5024
  696MOL0     H95981   5.220   2.689   9.043  1.8543  2.3401  3.9597
  696MOL0     H95982   5.214   2.788   8.894 -0.4460 -4.1512 -0.5012
  696MOL0     H95983   4.983   2.860   8.958 -0.4872  0.8423 -1.1117
  696MOL0     H95984   4.985   2.690   8.922  0.8604  1.8042 -1.9718
  696MOL0     H95985   5.001   2.661   9.179  0.6672 -0.3059 -1.8951
  696MOL0     H95986   4.978   2.843   9.182  2.1979 -1.1771  2.2799
  696MOL0     H95987   4.779   2.842   9.085 -0.5737  1.4119  3.8967
  696MOL0     H95988   4.783   2.660   9.061  0.6699  0.1153 -1.3112
  696MOL0     H95989   4.774   2.779   9.336 -2.5684 -1.5745  0.7621
  696MOL0     H95990   4.774   2.614   9.289  2.8000  1.0241 -0.9699
  696MOL0     H95991   4.565   2.821   9.194  0.5825  1.2700  2.0201
  696MOL0     H95992   4.551   2.644   9.182 -1.2412 -0.5034  1.2307
  696MOL0     H95993   4.555   2.794   9.442  0.9115 -0.7512  0.7677
  696MOL0     H95994   4.541   2.614   9.423  1.1737  1.0046  1.0117
  696MOL0     H95995   4.331   2.788   9.308  0.0905  0.6997 -1.1005
  696MOL0     H95996   4.321   2.625   9.356 -0.0706  1.2858 -1.3459
  696MOL0     H95997   4.324   2.587   9.647  1.8486 -0.0500  3.4127
  696MOL0     H95998   4.315   2.686   9.909  0.8696 -1.1648 -3.5940
  696MOL0     H95999   4.174   2.618   9.853  0.3040 -1.8051  4.0051
  696MOL0     H96000   4.077   2.867   9.929  0.5980  0.4054 -1.3726
  696MOL0     H96001   4.122   2.734  10.044 -1.0537  1.1512  0.2745
  696MOL0     H96002   4.340   2.849  10.074  1.7182  0.8685 -0.2122
  696MOL0     H96003   4.301   2.972   9.957 -1.8042  2.4213  1.6320
  696MOL0     H96004   4.118   3.047  10.109  0.9594  0.4847 -1.0282
  696MOL0     H96005   4.165   2.939  10.232  0.9760  3.2830  3.4117
  696MOL0     H96006   4.460   3.271  10.283  1.7864 -4.6339  2.6379
  696MOL0     H96007   4.476   3.443  10.567  1.6071 -2.9744 -0.3916
  696MOL0     H96008   4.396   3.550  10.457 -1.5103 -0.0758  0.7906
  696MOL0     H96009   4.508   3.449  10.384  0.3264 -1.5211  0.5190
  696MOL0     H96010   4.006   3.669  10.573  2.6968 -3.7335  0.7641
  696MOL0     H96011   3.828   3.791  10.697 -3.1376 -3.5307  0.7545
  696MOL0     H96012   3.789   3.976  10.841  2.1939  1.8161  3.1876
  696MOL0     H96013   3.642   3.891  10.879  1.3884 -1.1336 -0.6732
  696MOL0     H96014   3.762   4.105  11.019 -1.6644  0.4025  0.7212
  696MOL0     H96015   3.603   4.059  11.014  1.2174  3.1005  1.5711
  696MOL0     H96016   3.687   4.034  11.246  0.5881 -0.4966  1.2479
  696MOL0     H96017   3.791   3.911  11.204  1.2208  1.3425 -3.0293
  696MOL0     H96018   3.571   3.789  11.104 -1.0939 -1.1512  0.6443
  696MOL0     H96019   3.479   3.906  11.203 -0.7491  0.1556  1.8425
  696MOL0     H96020   3.580   3.822  11.405 -0.7869  1.4479 -0.4907
  696MOL0     H96021   3.504   3.685  11.326 -1.1182  1.9682  2.9319
  696MOL0     H96022   3.800   3.739  11.317  0.5467 -0.3937 -0.4944
  696MOL0     H96023   3.726   3.630  11.200  2.4093  0.5761 -0.5515
  696MOL0     H96024   3.629   3.500  11.394  0.6574  0.2036 -1.9095
  696MOL0     H96025   3.711   3.612  11.511 -1.8655  2.0106 -0.5409
  696MOL0     H96026   3.844   3.433  11.301  0.5154  1.8528 -0.4506
  696MOL0     H96027   3.834   3.399  11.477  2.0467  0.1943 -0.2629
  696MOL0     H96028   3.992   3.649  11.058 -0.8593  0.2727  0.4688
  696MOL0     H96029   4.168   3.519  10.919  1.0571  1.4269 -0.3921
  696MOL0     H96030   4.039   3.184  10.553 -0.7878 -2.1204 -1.5497
  696MOL0     H96031   4.081   3.063  10.377  1.1625 -0.7409  0.4590
  696MOL0     H96032   5.219   3.109   9.222  3.6818  1.7558  0.3387
  696MOL0     H96033   5.234   3.104   9.482 -0.8617  0.2006 -0.2880
  696MOL0     H96034   4.982   2.974   9.851  0.0009 -2.1111  0.9944
  696MOL0     H96035   4.979   3.015  10.095  1.0396  2.0690 -0.2922
  696MOL0     H96036   5.115   3.148  10.222  0.2198  0.6957  0.2006
  696MOL0     H96037   5.017   3.054  10.326 -0.5768 -0.1182 -1.6566
  696MOL0     H96038   5.135   3.244  10.429  0.3275  0.4778  1.3472
  696MOL0     H96039   5.293   3.155  10.411 -0.0095  2.1471 -1.5964
  696MOL0     H96040   5.050   3.077  10.578 -0.2037 -0.8978  1.3197
  696MOL0     H96041   5.208   2.979  10.579  1.8994  0.1374  1.1412
  696MOL0     H96042   5.197   3.265  10.651 -1.7722 -1.0591 -0.5459
  696MOL0     H96043   5.324   3.136  10.685 -0.2210 -0.9716  3.6940
  696MOL0     H96044   5.087   3.198  11.018  0.8738  0.1247  0.1190
  696MOL0     H96045   5.353   2.813  10.123  0.4946  1.3359  0.8999
  696MOL0     H96046   5.441   2.682   9.952  2.0190  0.1266 -0.4415
  696MOL0     H96047   5.371   2.665   9.789  1.0471  0.8659 -1.0483
  696MOL0     H96048   5.466   2.800   9.815  1.5596 -4.3608 -2.5653
  697MOL0     O96049   1.362   4.097   6.778 -0.2653 -1.0111  0.4961
  697MOL0     C96050   1.325   4.131   6.888  0.1856  0.7848 -0.2254
  697MOL0     O96051   1.411   4.129   6.997 -0.3602 -0.7516  0.1454
  697MOL0     C96052   1.528   4.055   6.978 -0.2078  0.1463 -0.0243
  697MOL0     C96053   1.529   3.919   6.962  0.3090 -0.5651 -0.1931
  697MOL0     C96054   1.644   3.851   6.969  0.2522  0.2371 -0.4137
  697MOL0     C96055   1.764   3.920   7.002  0.2613  0.1982 -0.1487
  697MOL0     O96056   1.886   3.860   7.016  0.1222 -0.0675  0.2395
  697MOL0     C96057   1.930   3.754   6.928 -0.9126  0.3176 -0.7982
  697MOL0     C96058   2.065   3.707   6.986  0.3388 -1.1812  0.0580
  697MOL0     C96059   2.164   3.817   7.025  0.1136  0.8972 -0.1271
  697MOL0     C96060   2.200   3.915   6.916  1.1905  0.5027  0.3703
  697MOL0     C96061   2.293   4.026   6.965  0.9983 -0.2208  0.1539
  697MOL0     C96062   2.258   4.109   7.081  0.4449 -0.7157  0.8424
  697MOL0     C96063   2.344   4.232   7.084  0.5343 -1.0786 -0.3600
  697MOL0     C96064   2.314   4.338   6.988 -0.2423  0.3952  0.5349
  697MOL0     N96065   2.178   4.366   6.945 -0.5813 -0.7000 -0.9695
  697MOL0     C96066   2.122   4.318   6.821 -0.3868  0.6024 -0.1983
  697MOL0     C96067   1.991   4.317   6.842 -0.5417 -0.8381 -0.8801
  697MOL0     C96068   1.875   4.275   6.752 -0.9386 -0.8597  0.2911
  697MOL0     C96069   1.911   4.131   6.714  0.5619 -0.0436 -0.2028
  697MOL0     C96070   1.796   4.072   6.633 -0.5657  0.0814 -0.2295
  697MOL0     C96071   1.845   4.008   6.507 -0.1658  0.5125 -0.4072
  697MOL0     O96072   1.903   3.889   6.570 -0.9182  0.3280  0.8197
  697MOL0     C96073   2.027   3.840   6.531  0.5554 -0.1252  0.1568
  697MOL0     C96074   2.044   3.703   6.554 -0.3385 -0.4238  0.4671
  697MOL0     C96075   2.173   3.641   6.526 -0.3664  0.0096 -0.6429
  697MOL0     C96076   2.190   3.493   6.554  0.0416  0.2930  0.3646
  697MOL0     C96077   2.279   3.716   6.465 -0.3296  0.5349 -0.2939
  697MOL0     C96078   2.412   3.660   6.425  0.1124 -0.6477 -1.0581
  697MOL0     O96079   2.477   3.736   6.329 -1.2540 -0.3244 -0.3085
  697MOL0     C96080   2.591   3.675   6.273  0.3817  0.0690  1.3027
  697MOL0     C96081   2.599   3.663   6.129  0.2600  0.2246  0.4679
  697MOL0     C96082   2.716   3.608   6.070 -0.5621  0.6461  0.5632
  697MOL0     C96083   2.825   3.569   6.148 -0.2634  0.2695 -0.3401
  697MOL0     O96084   2.939   3.520   6.091 -0.4195  0.0290 -0.0450
  697MOL0     C96085   3.000   3.417   6.164  0.2271  0.2995 -0.4888
  697MOL0     C96086   3.079   3.327   6.073 -0.7989  1.1651 -0.1410
  697MOL0     C96087   2.982   3.245   5.981  0.2753  0.5198  0.8245
  697MOL0     C96088   3.062   3.138   5.904  0.2508 -0.1209  0.8098
  697MOL0     C96089   2.987   3.079   5.786 -0.0096 -0.2869 -0.1828
  697MOL0     C96090   3.080   2.987   5.704  0.0655  0.7305  0.1701
  697MOL0     C96091   3.013   2.930   5.567 -0.4984 -0.9284 -0.6211
  697MOL0     C96092   2.900   2.838   5.582 -0.6793  0.7102 -0.7508
  697MOL0    Cl96093   2.847   2.760   5.426 -0.5013  0.4292 -0.0465
  697MOL0     C96094   2.817   3.589   6.288  0.2638 -0.3091  0.3264
  697MOL0     C96095   2.705   3.645   6.343 -0.2589 -0.4598 -0.4418
  697MOL0     O96096   2.463   3.563   6.479  0.1824  0.0477  0.3394
  697MOL0     C96097   2.258   3.855   6.447  0.2369 -0.3194  0.4426
  697MOL0     C96098   2.135   3.917   6.488 -1.5127 -1.2434 -0.5373
  697MOL0     N96099   1.966   4.361   6.967 -0.2092 -0.1074 -1.0746
  697MOL0     N96100   2.076   4.380   7.038 -0.3376 -0.4030  0.2477
  697MOL0     C96101   1.763   4.057   7.018 -0.0252 -0.3411  0.1219
  697MOL0     C96102   1.641   4.124   7.000 -0.4321 -0.0062 -0.4266
  697MOL0     C96103   1.185   4.164   6.913  1.2563  0.0739  0.0927
  697MOL0     C96104   1.144   4.194   7.045  0.3354  0.5879 -0.2603
  697MOL0     C96105   1.010   4.196   7.081  0.7831 -0.0109 -0.3176
  697MOL0     C96106   0.907   4.193   6.995 -0.9357  1.1562  0.5147
  697MOL0     O96107   0.773   4.177   7.030 -0.1087  0.7284 -0.4487
  697MOL0     C96108   0.722   4.215   7.158 -0.1247 -0.3512 -0.1162
  697MOL0     C96109   0.652   4.348   7.133 -0.0626 -0.5540  0.8582
  697MOL0     C96110   0.580   4.367   6.993  0.2244  1.2663 -0.1692
  697MOL0     C96111   0.463   4.271   6.988  0.5860  0.4013  0.2532
  697MOL0     C96112   0.393   4.289   6.859  0.9482  0.5629 -0.3766
  697MOL0     C96113   0.338   4.290   6.755 -0.0392  0.5930  0.2185
  697MOL0     C96114   0.938   4.171   6.860 -0.3401 -0.6489 -0.3029
  697MOL0     C96115   1.075   4.161   6.815 -0.6066  0.8251 -1.1523
  697MOL0     C96116   1.097   4.140   6.666 -0.4710 -0.6262 -0.0236
  697MOL0     H96117   1.431   3.873   6.947  1.3836 -2.5880 -1.4021
  697MOL0     H96118   1.639   3.743   6.959  0.8393 -0.1654  2.5976
  697MOL0     H96119   1.948   3.778   6.823 -3.9330 -3.0770 -2.2931
  697MOL0     H96120   1.859   3.671   6.928 -1.2585  0.6089 -0.9553
  697MOL0     H96121   2.046   3.638   7.068 -1.1379  0.5910  1.2945
  697MOL0     H96122   2.118   3.644   6.914  0.1780 -0.1174 -1.0128
  697MOL0     H96123   2.123   3.876   7.107 -0.1520 -3.0236  2.8280
  697MOL0     H96124   2.256   3.770   7.061  0.2693 -0.4165 -2.0757
  697MOL0     H96125   2.243   3.870   6.826 -0.0454  0.1021 -0.0393
  697MOL0     H96126   2.105   3.951   6.876  1.1566  1.3856  1.2253
  697MOL0     H96127   2.299   4.084   6.872  0.2006  0.5723  0.5890
  697MOL0     H96128   2.395   3.990   6.980 -0.0870 -2.0303  5.1670
  697MOL0     H96129   2.152   4.134   7.079  0.3095 -1.1549  1.8537
  697MOL0     H96130   2.278   4.053   7.173 -0.9956 -2.2478  0.2721
  697MOL0     H96131   2.449   4.206   7.070  0.6535 -2.7388  2.7863
  697MOL0     H96132   2.328   4.277   7.183 -2.1484 -3.1552  0.2581
  697MOL0     H96133   2.368   4.424   7.029  2.3711 -0.4931 -0.8093
  697MOL0     H96134   2.376   4.299   6.907  0.0109  1.4647  0.2030
  697MOL0     H96135   2.184   4.281   6.740 -1.2315 -1.6057  0.1081
  697MOL0     H96136   1.867   4.344   6.667  1.7150 -0.2846  0.4301
  697MOL0     H96137   1.785   4.294   6.812  1.6373  0.9384  3.9883
  697MOL0     H96138   2.002   4.138   6.655  1.4839  3.7342  1.3546
  697MOL0     H96139   1.930   4.069   6.803 -0.2067 -0.8089 -0.5498
  697MOL0     H96140   1.743   3.997   6.692  0.6675 -1.2237 -0.7388
  697MOL0     H96141   1.722   4.149   6.605 -2.3996 -0.5680  2.3528
  697MOL0     H96142   1.780   3.978   6.424  2.1214 -0.2158 -2.0370
  697MOL0     H96143   1.922   4.070   6.461  1.0287  0.8912  1.9725
  697MOL0     H96144   1.964   3.646   6.600 -1.1376  0.3708  0.0984
  697MOL0     H96145   2.102   3.429   6.546  1.8634 -2.1397 -2.8919
  697MOL0     H96146   2.237   3.473   6.651  1.2103 -0.0974 -0.2486
  697MOL0     H96147   2.250   3.447   6.474  2.3532  0.9733  1.6238
  697MOL0     H96148   2.514   3.666   6.062 -0.0044 -4.4944  0.2772
  697MOL0     H96149   2.714   3.584   5.964 -2.4718  0.5236  0.5861
  697MOL0     H96150   3.074   3.456   6.234 -1.5685  3.6790 -0.2810
  697MOL0     H96151   2.919   3.366   6.217 -0.2540  1.6543  0.1349
  697MOL0     H96152   3.146   3.389   6.013 -0.5217  1.0294  0.0284
  697MOL0     H96153   3.135   3.251   6.128 -0.6738 -0.7854 -2.7697
  697MOL0     H96154   2.919   3.306   5.916 -0.9785 -2.5471 -1.0927
  697MOL0     H96155   2.915   3.187   6.044  0.8857 -3.5901 -1.9104
  697MOL0     H96156   3.086   3.055   5.971  1.4376  0.0244  0.5778
  697MOL0     H96157   3.151   3.191   5.870 -0.7995 -0.3363 -2.6124
  697MOL0     H96158   2.903   3.019   5.823  1.4341 -1.6759  0.9742
  697MOL0     H96159   2.947   3.157   5.721  3.3337  1.4604 -0.3634
  697MOL0     H96160   3.117   2.902   5.761  2.3075 -2.1475 -4.9448
  697MOL0     H96161   3.165   3.052   5.681 -1.9738  3.6528  0.3000
  697MOL0     H96162   3.091   2.884   5.505 -0.2602  2.1928 -2.9408
  697MOL0     H96163   2.964   3.007   5.506 -3.1652 -1.5786  0.5733
  697MOL0     H96164   2.813   2.891   5.622 -0.6489  0.4799 -0.3746
  697MOL0     H96165   2.917   2.760   5.657 -1.6439 -0.2961 -1.5553
  697MOL0     H96166   2.900   3.577   6.357  0.1961 -1.5999  0.2114
  697MOL0     H96167   2.692   3.671   6.447 -1.1206  0.7717 -0.8269
  697MOL0     H96168   2.334   3.925   6.413  1.1894 -0.5815  1.9371
  697MOL0     H96169   2.128   4.023   6.464  1.9367 -0.9822 -0.9470
  697MOL0     H96170   1.853   4.116   7.031 -0.0133 -0.1169 -0.8981
  697MOL0     H96171   1.638   4.229   7.028 -0.0416  0.5412 -2.2884
  697MOL0     H96172   1.221   4.191   7.121  1.4426  2.1926 -1.2661
  697MOL0     H96173   0.983   4.216   7.184 -0.4703 -4.4343  0.3945
  697MOL0     H96174   0.652   4.136   7.188 -0.6070 -0.2307 -0.8921
  697MOL0     H96175   0.787   4.217   7.246 -0.6808  1.2593  0.2830
  697MOL0     H96176   0.734   4.420   7.140  2.1409 -2.6040 -1.6019
  697MOL0     H96177   0.590   4.376   7.218  1.6955  1.9204  1.4265
  697MOL0     H96178   0.542   4.468   6.978 -2.0054  0.9262  2.3269
  697MOL0     H96179   0.647   4.329   6.916 -2.2746 -1.9538 -1.0108
  697MOL0     H96180   0.394   4.275   7.073  0.0766  2.0326 -0.1975
  697MOL0     H96181   0.495   4.167   6.997 -0.4442  0.1014  0.6440
  697MOL0     H96182   0.288   4.314   6.663 -2.3937  0.0823  1.2688
  697MOL0     H96183   0.850   4.173   6.797 -0.9094 -1.6369  0.4353
  697MOL0     H96184   1.162   4.055   6.643  1.6795  1.1737 -1.0965
  697MOL0     H96185   1.008   4.145   6.603  1.7752 -0.9048 -3.5339
  697MOL0     H96186   1.152   4.230   6.635  2.0452 -0.5037  4.0553
  698MOL0     O96187   8.522   4.896   6.567 -0.1789  0.1169  1.0141
  698MOL0     C96188   8.537   4.928   6.440 -0.5303 -1.6238 -1.0258
  698MOL0     O96189   8.656   4.941   6.381  0.5798 -0.0771 -0.0676
  698MOL0     C96190   8.772   4.893   6.439 -0.0197  0.0809  0.1243
  698MOL0     C96191   8.862   4.817   6.362 -1.5179 -0.7086 -0.0625
  698MOL0     C96192   8.968   4.753   6.429 -0.4659  0.1877  0.0569
  698MOL0     C96193   9.003   4.781   6.562  0.0055  0.9708  0.1710
  698MOL0     O96194   9.110   4.717   6.616 -0.7045  0.0590  0.6850
  698MOL0     C96195   9.215   4.803   6.668  1.2865  0.1996  0.3792
  698MOL0     C96196   9.341   4.706   6.688 -0.4186  0.7851 -0.3459
  698MOL0     C96197   9.405   4.656   6.559 -0.9633 -0.1057  0.2421
  698MOL0     C96198   9.513   4.549   6.569 -0.6971 -0.2345  0.3303
  698MOL0     C96199   9.570   4.509   6.439 -0.1552  0.5964  0.5188
  698MOL0     C96200   9.704   4.428   6.456 -0.6992 -1.3838  0.0192
  698MOL0     C96201   9.762   4.395   6.314 -0.1822 -0.1989  0.0425
  698MOL0     C96202   9.888   4.314   6.317 -0.4807 -0.6689 -0.2356
  698MOL0     N96203   9.989   4.368   6.404 -0.0061 -0.1864 -0.1070
  698MOL0     C96204  10.044   4.494   6.390  0.7566 -0.1378  0.7650
  698MOL0     C96205  10.152   4.496   6.475 -0.5844  0.6345  0.5286
  698MOL0     C96206  10.237   4.619   6.490  0.4945 -0.5496 -1.2583
  698MOL0     C96207  10.360   4.594   6.421  0.1058 -0.4744  0.1852
  698MOL0     C96208  10.462   4.692   6.479  0.1108 -0.9168 -0.1046
  698MOL0     C96209  10.542   4.776   6.385 -0.3200  0.0498  0.6728
  698MOL0     O96210  10.626   4.863   6.459  0.2762  0.5355  0.3867
  698MOL0     C96211  10.741   4.915   6.404  0.1794 -1.2368 -0.5265
  698MOL0     C96212  10.775   4.909   6.269  0.4509  0.1351  0.3664
  698MOL0     C96213  10.883   4.987   6.218  0.4412  0.8982  0.0912
  698MOL0     C96214  10.906   4.988   6.066 -0.2449  0.5955  1.2167
  698MOL0     C96215  10.962   5.061   6.307  0.3319  0.6274 -0.0930
  698MOL0     C96216  11.074   5.150   6.254 -0.3817  0.0634 -0.8228
  698MOL0     O96217  11.132   5.229   6.347 -0.5368 -0.0295 -0.0013
  698MOL0     C96218  11.224   5.320   6.304  0.1691 -0.1928  0.2709
  698MOL0     C96219  11.353   5.323   6.351 -0.1591 -0.4764 -0.4834
  698MOL0     C96220  11.442   5.415   6.308 -0.5032 -0.2799  0.4710
  698MOL0     C96221  11.401   5.503   6.210  0.5905 -0.8168  0.4166
  698MOL0     O96222  11.503   5.582   6.158 -0.2409 -0.4606 -0.4626
  698MOL0     C96223  11.523   5.575   6.018  0.3298  0.6013 -0.1219
  698MOL0     C96224  11.638   5.658   5.979  0.2434 -0.0236  0.2701
  698MOL0     C96225  11.675   5.656   5.829 -0.1127 -0.4554 -0.4372
  698MOL0     C96226  11.809   5.726   5.797  0.0132 -0.4768  0.0543
  698MOL0     C96227  11.842   5.720   5.653  0.0653 -0.5200  0.2135
  698MOL0     C96228  11.762   5.809   5.565 -0.0180 -0.1524  0.1340
  698MOL0     C96229  11.798   5.801   5.418 -0.6658 -0.1241 -0.2136
  698MOL0     C96230  11.709   5.916   5.354  0.0634  0.8844  0.5352
  698MOL0    Cl96231  11.536   5.877   5.352 -0.6695  0.1150  0.0344
  698MOL0     C96232  11.271   5.506   6.154  0.0600  0.3293  0.3483
  698MOL0     C96233  11.184   5.412   6.204 -0.0154 -0.0481 -1.7005
  698MOL0     O96234  11.115   5.139   6.141  0.3380 -0.9218  0.1453
  698MOL0     C96235  10.930   5.062   6.440 -0.7273  0.4745 -0.9521
  698MOL0     C96236  10.822   4.983   6.493 -0.3002 -0.6955  0.7449
  698MOL0     N96237  10.162   4.369   6.529  0.0280 -0.1050  0.0995
  698MOL0     N96238  10.074   4.294   6.475 -0.1820 -0.5009 -0.6247
  698MOL0     C96239   8.910   4.866   6.630 -1.0408  0.3095  0.4247
  698MOL0     C96240   8.801   4.917   6.570 -0.6939 -0.2945  0.6405
  698MOL0     C96241   8.414   4.921   6.362 -0.2042  0.5824 -0.4064
  698MOL0     C96242   8.422   4.841   6.249  0.0239 -0.2269 -0.0816
  698MOL0     C96243   8.309   4.802   6.173 -0.0272 -0.6523 -0.4662
  698MOL0     C96244   8.183   4.834   6.208  0.0193 -0.3190 -0.3578
  698MOL0     O96245   8.065   4.821   6.139 -0.5066 -0.5673  0.0075
  698MOL0     C96246   8.051   4.894   6.021 -0.5767  0.2873  0.1589
  698MOL0     C96247   7.947   5.000   6.064  0.0962  0.3164 -0.1256
  698MOL0     C96248   7.809   4.943   6.049  0.0517  0.0530 -0.4744
  698MOL0     C96249   7.690   5.037   6.076 -0.1073  0.7398  0.9776
  698MOL0     C96250   7.577   4.990   5.994 -0.2533 -0.2891  0.1094
  698MOL0     C96251   7.479   4.949   5.941 -0.0545  0.2842  0.0428
  698MOL0     C96252   8.167   4.905   6.335  0.6157  0.3580 -0.1967
  698MOL0     C96253   8.279   4.951   6.409  0.3926 -0.6856 -1.2335
  698MOL0     C96254   8.257   5.044   6.533 -0.0627  0.9753 -0.4897
  698MOL0     H96255   8.850   4.823   6.254 -0.6431  1.5445 -0.0922
  698MOL0     H96256   9.043   4.692   6.381  0.1867  2.0561 -1.3976
  698MOL0     H96257   9.182   4.852   6.760 -0.0331 -0.5743  0.3533
  698MOL0     H96258   9.239   4.877   6.591 -0.3518  0.9935  0.5920
  698MOL0     H96259   9.432   4.737   6.741 -0.5694  0.2450  0.2451
  698MOL0     H96260   9.300   4.624   6.747 -0.7223 -0.8304 -2.6541
  698MOL0     H96261   9.325   4.608   6.500  1.2582 -2.2921 -1.2065
  698MOL0     H96262   9.433   4.738   6.492 -2.4704 -0.7994 -1.3227
  698MOL0     H96263   9.602   4.592   6.617 -0.3194  1.0519 -1.4227
  698MOL0     H96264   9.481   4.459   6.623  0.3454 -2.7453 -2.9284
  698MOL0     H96265   9.585   4.605   6.389 -0.8643  0.0704 -0.7386
  698MOL0     H96266   9.504   4.448   6.378  1.4840 -0.5141 -0.2203
  698MOL0     H96267   9.771   4.498   6.507 -1.8344  2.3238 -3.1153
  698MOL0     H96268   9.684   4.334   6.508 -1.1301 -2.2521 -1.6562
  698MOL0     H96269   9.795   4.492   6.275  1.8391 -0.8813 -0.0877
  698MOL0     H96270   9.683   4.353   6.252 -2.5641  1.2050  1.9417
  698MOL0     H96271   9.873   4.209   6.347 -1.0758 -1.2498 -2.3748
  698MOL0     H96272   9.940   4.322   6.221  1.4975  1.9641  0.9585
  698MOL0     H96273  10.006   4.574   6.328 -0.3990 -2.0933 -1.2007
  698MOL0     H96274  10.247   4.637   6.598  3.3076  1.6644 -1.7728
  698MOL0     H96275  10.189   4.707   6.447 -0.9980  0.3250  1.8548
  698MOL0     H96276  10.395   4.491   6.415  1.0315 -0.1630  0.0010
  698MOL0     H96277  10.339   4.624   6.318 -1.0814 -4.0698 -0.7627
  698MOL0     H96278  10.414   4.753   6.556 -0.5879 -4.6223  2.7540
  698MOL0     H96279  10.520   4.622   6.541  0.7235  0.6375  1.1506
  698MOL0     H96280  10.603   4.703   6.332 -0.8942 -0.8000  1.1629
  698MOL0     H96281  10.484   4.838   6.316 -0.7727 -0.2904  0.7482
  698MOL0     H96282  10.706   4.859   6.202  1.7918  0.4891 -1.3481
  698MOL0     H96283  10.829   4.957   5.995  1.1191  1.7015 -0.8693
  698MOL0     H96284  11.006   4.946   6.049 -0.4528 -0.2439  2.0037
  698MOL0     H96285  10.911   5.091   6.029  0.1168 -0.5903 -2.4141
  698MOL0     H96286  11.393   5.256   6.427  3.9440  1.6888 -0.4238
  698MOL0     H96287  11.538   5.424   6.359  0.8465  2.9676 -2.2090
  698MOL0     H96288  11.538   5.472   5.987  0.5110 -0.4397  3.0436
  698MOL0     H96289  11.429   5.616   5.979 -1.3354 -1.4561  1.4642
  698MOL0     H96290  11.618   5.759   6.016  1.3890 -1.1476  4.4989
  698MOL0     H96291  11.729   5.622   6.027  1.4901 -0.3697 -2.2138
  698MOL0     H96292  11.592   5.698   5.771  2.0835  0.6029 -3.0172
  698MOL0     H96293  11.674   5.554   5.791 -0.2729 -0.8401  0.5795
  698MOL0     H96294  11.892   5.666   5.834  2.3016  1.6809 -1.2539
  698MOL0     H96295  11.819   5.828   5.834  1.5390 -1.5457  2.9770
  698MOL0     H96296  11.947   5.751   5.647 -0.9044  3.2485 -0.4694
  698MOL0     H96297  11.831   5.619   5.612  1.1107 -1.3021  1.7834
  698MOL0     H96298  11.770   5.915   5.592 -0.8812  0.2844 -1.1818
  698MOL0     H96299  11.657   5.777   5.572  0.6938 -3.9534 -3.0401
  698MOL0     H96300  11.776   5.709   5.362 -0.9131 -1.2411  1.6276
  698MOL0     H96301  11.905   5.815   5.404 -0.6182 -1.5411 -1.6548
  698MOL0     H96302  11.764   5.947   5.264  1.7955 -0.0475  1.2132
  698MOL0     H96303  11.718   6.011   5.408 -2.4851  1.3496  0.2349
  698MOL0     H96304  11.245   5.574   6.074  2.7026  0.5657 -0.3803
  698MOL0     H96305  11.080   5.398   6.176 -0.7332 -4.2039  2.0238
  698MOL0     H96306  10.968   5.130   6.515 -3.8483 -2.9400  4.3953
  698MOL0     H96307  10.795   4.992   6.598  2.0569  2.2543  1.2295
  698MOL0     H96308   8.930   4.889   6.734 -0.2672 -0.0282  0.3569
  698MOL0     H96309   8.732   4.984   6.621 -1.6688  1.9292 -3.2315
  698MOL0     H96310   8.521   4.807   6.220  0.2128 -2.3691  2.6749
  698MOL0     H96311   8.316   4.740   6.084 -2.5475 -0.9468 -0.5215
  698MOL0     H96312   8.143   4.944   5.990 -0.5738  0.8282  1.0143
  698MOL0     H96313   8.010   4.833   5.939  1.9049 -0.9579 -0.2497
  698MOL0     H96314   7.956   5.086   5.997 -0.4267  0.5837  0.1479
  698MOL0     H96315   7.971   5.037   6.163 -2.0398  0.7315  0.2875
  698MOL0     H96316   7.798   4.895   5.951  2.7704  0.2096 -0.9359
  698MOL0     H96317   7.800   4.853   6.111 -0.2509 -2.7335 -4.1752
  698MOL0     H96318   7.715   5.142   6.055 -0.2656  0.4769 -0.5910
  698MOL0     H96319   7.666   5.033   6.183  1.0445 -0.1913  1.2134
  698MOL0     H96320   7.396   4.900   5.893 -1.2394  1.3650  0.8934
  698MOL0     H96321   8.071   4.939   6.374 -0.1306  0.3044 -1.8836
  698MOL0     H96322   8.170   5.009   6.590  0.4860  2.1966  1.1484
  698MOL0     H96323   8.334   5.047   6.610 -1.5642 -0.6691  1.2002
  698MOL0     H96324   8.235   5.143   6.491 -1.5804  0.7410 -0.3177
  699MOL0     O96325   0.845   6.585   2.324  0.8398 -0.2323 -0.5675
  699MOL0     C96326   0.838   6.470   2.267 -0.1004 -0.3311  0.5714
  699MOL0     O96327   0.920   6.367   2.281  0.0891  0.4828 -0.5924
  699MOL0     C96328   1.046   6.384   2.324 -0.3001 -0.5255  0.1881
  699MOL0     C96329   1.085   6.333   2.453 -0.3235  0.2207  0.0493
  699MOL0     C96330   1.207   6.366   2.505 -0.0604 -0.1766 -0.6648
  699MOL0     C96331   1.285   6.464   2.447 -0.4936  0.6848  1.3055
  699MOL0     O96332   1.390   6.525   2.504 -0.5315 -0.8062 -0.2373
  699MOL0     C96333   1.371   6.586   2.631  0.5407 -0.9894  1.0828
  699MOL0     C96334   1.494   6.673   2.650  0.3605  0.7910  0.2420
  699MOL0     C96335   1.474   6.778   2.756 -0.4882 -0.5857 -0.0681
  699MOL0     C96336   1.607   6.805   2.823  0.5933  0.0455  1.1870
  699MOL0     C96337   1.623   6.959   2.840  0.6404  0.2211  0.3822
  699MOL0     C96338   1.744   7.006   2.920  0.0053  0.4696  0.0503
  699MOL0     C96339   1.753   7.155   2.912 -0.3170 -0.7948  0.4873
  699MOL0     C96340   1.878   7.202   2.992  0.4359 -1.3162 -0.0589
  699MOL0     N96341   2.006   7.198   2.924 -0.2510 -0.6437 -0.2712
  699MOL0     C96342   2.098   7.091   2.940  0.7105 -0.3812 -0.8775
  699MOL0     C96343   2.172   7.102   2.823  0.2786  0.1501 -0.7055
  699MOL0     C96344   2.285   7.000   2.789  0.1789  0.7221  0.2651
  699MOL0     C96345   2.246   6.919   2.663 -0.3688 -0.5257  0.3199
  699MOL0     C96346   2.102   6.852   2.662  0.5994  0.0040 -0.0827
  699MOL0     C96347   2.096   6.710   2.703  0.0857  0.5764 -0.3015
  699MOL0     O96348   2.154   6.676   2.826 -0.0536  0.3417  0.5034
  699MOL0     C96349   2.109   6.561   2.888 -0.6465 -0.3392 -0.4015
  699MOL0     C96350   2.170   6.548   3.011  0.6105 -0.3251 -0.3564
  699MOL0     C96351   2.136   6.449   3.106 -0.3879  0.3571  0.3922
  699MOL0     C96352   2.191   6.467   3.245  0.7875  0.4792  0.3014
  699MOL0     C96353   2.041   6.345   3.070 -0.9137  0.4155 -0.0026
  699MOL0     C96354   2.018   6.229   3.158 -0.7770  0.3903 -0.3569
  699MOL0     O96355   1.922   6.146   3.103  0.3567  0.9163  0.1695
  699MOL0     C96356   1.857   6.065   3.190 -0.0347  0.8862  0.4706
  699MOL0     C96357   1.723   6.079   3.201 -0.1290  0.5404 -1.6421
  699MOL0     C96358   1.646   6.002   3.294  0.1690  0.0662 -0.2925
  699MOL0     C96359   1.700   5.898   3.366 -0.2425  0.2709  0.2975
  699MOL0     O96360   1.615   5.822   3.433 -0.0897 -0.0274  0.0686
  699MOL0     C96361   1.668   5.702   3.495  0.1848  0.0096  0.7044
  699MOL0     C96362   1.550   5.627   3.558  0.7017  0.7067 -0.3796
  699MOL0     C96363   1.498   5.692   3.690  0.2716  0.6216 -0.8399
  699MOL0     C96364   1.344   5.667   3.698 -1.3020 -0.0507 -0.8266
  699MOL0     C96365   1.281   5.744   3.806  0.4878  0.4245 -0.2998
  699MOL0     C96366   1.134   5.730   3.811  0.2671 -0.2390 -0.0097
  699MOL0     C96367   1.101   5.596   3.870  0.0787 -0.0284  0.5246
  699MOL0     C96368   0.964   5.606   3.929 -0.2549  0.2763 -0.6175
  699MOL0    Cl96369   0.838   5.632   3.803 -0.2322  0.1741  0.0299
  699MOL0     C96370   1.838   5.876   3.353 -0.1564  0.6400  0.5785
  699MOL0     C96371   1.912   5.956   3.269 -0.1131 -0.3569  0.0011
  699MOL0     O96372   2.078   6.220   3.261 -0.2022 -0.2504 -0.7788
  699MOL0     C96373   1.988   6.360   2.938 -0.5473  0.5605  0.0768
  699MOL0     C96374   2.011   6.469   2.849  0.7923 -0.6684  0.2518
  699MOL0     N96375   2.140   7.218   2.755 -0.4189  0.8591 -0.1932
  699MOL0     N96376   2.037   7.276   2.817 -0.3698  0.2424 -0.2264
  699MOL0     C96377   1.264   6.505   2.314  0.6801  0.8254 -0.3947
  699MOL0     C96378   1.146   6.456   2.252  0.2696  0.3216 -0.4365
  699MOL0     C96379   0.725   6.438   2.183  0.5690 -0.3734  0.3899
  699MOL0     C96380   0.699   6.248   2.093 -0.1748 -0.3253  0.6354
  699MOL0     C96381   0.524   6.208   1.977 -0.7130  0.2873 -0.6845
  699MOL0     C96382   0.383   6.359   1.944 -0.8280  0.0032 -0.2856
  699MOL0     O96383   0.284   6.319   1.864 -0.0154 -0.2415  0.4362
  699MOL0     C96384   0.195   6.419   1.817 -0.3797  0.4487 -0.3318
  699MOL0     C96385   0.097   6.433   1.925 -0.7203 -0.0858 -0.7531
  699MOL0     C96386  -0.002   6.548   1.898 -0.6225  0.2479  0.2084
  699MOL0     C96387  -0.079   6.592   2.021 -0.4457 -0.2541  0.5974
  699MOL0     C96388  -0.084   6.742   2.014 -0.3909  0.9452  0.1311
  699MOL0     C96389  -0.093   6.848   2.056  0.0669  0.3373  0.0462
  699MOL0     C96390   0.410   6.547   2.028 -0.1169 -0.4747 -0.5937
  699MOL0     C96391   0.584   6.591   2.143  0.3892 -0.6013 -0.3112
  699MOL0     C96392   0.597   6.726   2.198  0.5712 -0.3586  0.5128
  699MOL0     H96393   1.022   6.266   2.511 -0.7969 -1.0422 -1.8326
  699MOL0     H96394   1.225   6.330   2.606 -0.6454 -1.3599 -0.9750
  699MOL0     H96395   1.356   6.513   2.711 -3.7105  0.0731  1.5037
  699MOL0     H96396   1.278   6.642   2.621 -0.0125 -1.4724  3.0603
  699MOL0     H96397   1.569   6.598   2.676  0.1739  0.7083  0.5571
  699MOL0     H96398   1.513   6.727   2.557 -1.7632  2.2368  0.5797
  699MOL0     H96399   1.430   6.865   2.708 -1.9257 -0.8854  0.6458
  699MOL0     H96400   1.407   6.747   2.837 -0.9383 -1.0636 -0.6120
  699MOL0     H96401   1.612   6.755   2.920  1.3100 -0.5350  0.8615
  699MOL0     H96402   1.690   6.767   2.762 -1.5331  0.1177 -1.9447
  699MOL0     H96403   1.540   7.004   2.894  0.2071 -0.5635  0.3806
  699MOL0     H96404   1.615   7.013   2.745  1.9865 -0.1972  0.0016
  699MOL0     H96405   1.733   6.962   3.020  0.6775 -0.5922 -0.3243
  699MOL0     H96406   1.838   6.964   2.882 -0.6384 -0.3972 -0.6284
  699MOL0     H96407   1.666   7.195   2.964  0.3240  3.8451 -1.5347
  699MOL0     H96408   1.753   7.186   2.807  1.5986 -0.4924  0.5457
  699MOL0     H96409   1.854   7.304   3.022 -2.3191 -0.5338 -4.1513
  699MOL0     H96410   1.869   7.142   3.083 -3.6269  0.0628  0.6470
  699MOL0     H96411   2.107   7.025   3.026  1.3548  1.7151  0.7433
  699MOL0     H96412   2.301   6.931   2.872 -3.2647  1.9760  2.1440
  699MOL0     H96413   2.378   7.055   2.769  1.3917 -1.1587  0.4128
  699MOL0     H96414   2.250   6.987   2.577  2.2094 -0.3352  0.5382
  699MOL0     H96415   2.322   6.847   2.632 -0.1559  0.9593 -2.9718
  699MOL0     H96416   2.034   6.899   2.733  0.9759  2.8821 -1.5013
  699MOL0     H96417   2.058   6.861   2.562 -0.4046  0.1432  0.3539
  699MOL0     H96418   1.993   6.673   2.693 -1.1275  2.9611  2.2165
  699MOL0     H96419   2.157   6.652   2.633 -2.3201 -0.3893 -1.7761
  699MOL0     H96420   2.244   6.625   3.028 -1.1626  0.7683  3.8003
  699MOL0     H96421   2.260   6.384   3.263  2.4334  1.5028 -1.0302
  699MOL0     H96422   2.109   6.468   3.318 -0.5223 -1.5283 -1.0527
  699MOL0     H96423   2.252   6.554   3.270 -1.7384  1.2548  4.7417
  699MOL0     H96424   1.675   6.154   3.139  1.2729  2.2358 -0.8028
  699MOL0     H96425   1.538   6.000   3.287  0.0582 -2.8753  0.7691
  699MOL0     H96426   1.703   5.631   3.419  0.0786  0.5580  0.1398
  699MOL0     H96427   1.740   5.722   3.575 -0.6488  2.1624  0.9727
  699MOL0     H96428   1.469   5.618   3.485  0.7593  1.6073 -0.5587
  699MOL0     H96429   1.589   5.530   3.589  2.2197  1.8741  1.6136
  699MOL0     H96430   1.519   5.799   3.698  1.1793  0.2705  3.2594
  699MOL0     H96431   1.538   5.644   3.779  0.6524  0.3179 -1.1671
  699MOL0     H96432   1.329   5.561   3.721  1.7019 -0.2778  0.5209
  699MOL0     H96433   1.287   5.689   3.607 -1.2484 -1.5555 -1.2570
  699MOL0     H96434   1.324   5.715   3.902 -4.3230  0.9271  2.3366
  699MOL0     H96435   1.297   5.852   3.796 -1.3356  0.7745  0.0915
  699MOL0     H96436   1.090   5.755   3.714  1.1672  1.6327  0.0140
  699MOL0     H96437   1.100   5.813   3.875 -0.4886  0.4351 -1.2328
  699MOL0     H96438   1.176   5.564   3.942  0.1387 -3.2227 -0.7502
  699MOL0     H96439   1.094   5.512   3.800  1.7397  0.7932 -0.6812
  699MOL0     H96440   0.958   5.683   4.006  1.8547 -0.6378  0.5586
  699MOL0     H96441   0.939   5.508   3.971 -2.4315  1.7394  1.8053
  699MOL0     H96442   1.897   5.800   3.404  0.2158 -0.5629 -1.5169
  699MOL0     H96443   2.019   5.937   3.278 -0.3046 -0.4397  3.5455
  699MOL0     H96444   1.919   6.286   2.900 -1.6812  0.2194  2.5976
  699MOL0     H96445   1.977   6.481   2.746  1.5053  0.2843  0.1114
  699MOL0     H96446   1.332   6.563   2.253  1.2932 -0.9429 -1.4944
  699MOL0     H96447   1.121   6.501   2.156 -2.1102  1.7656  0.7730
  699MOL0     H96448   0.774   6.173   2.118  2.0806  1.1366 -1.3002
  699MOL0     H96449   0.502   6.106   1.949  0.7366 -0.3834  0.5052
  699MOL0     H96450   0.242   6.517   1.812  0.1644  0.5689  3.8348
  699MOL0     H96451   0.154   6.384   1.722  0.0118 -2.5664  0.5156
  699MOL0     H96452   0.151   6.463   2.015 -0.8808 -0.8029 -0.4133
  699MOL0     H96453   0.056   6.333   1.939  2.3354 -1.6184 -1.6849
  699MOL0     H96454   0.042   6.626   1.836 -1.6388 -0.7981 -1.9439
  699MOL0     H96455  -0.076   6.500   1.833  0.9089  1.7875 -2.8637
  699MOL0     H96456  -0.027   6.564   2.113  0.5198  1.1093  0.4953
  699MOL0     H96457  -0.180   6.549   2.016  0.1006 -1.5812  0.7145
  699MOL0     H96458  -0.111   6.952   2.073  1.8371  0.3958  2.1660
  699MOL0     H96459   0.345   6.633   2.019  0.7443  1.7811  7.2256
  699MOL0     H96460   0.557   6.805   2.134  0.3906 -1.3861 -0.6725
  699MOL0     H96461   0.552   6.735   2.298 -0.2736  0.5494  0.0633
  699MOL0     H96462   0.705   6.748   2.197  0.4170  0.4882  1.1274
  700MOL0     O96463   6.122   9.889   6.201 -0.4679 -0.4088  0.2273
  700MOL0     C96464   6.176   9.966   6.116 -0.3382  0.1138 -0.3177
  700MOL0     O96465   6.245  10.082   6.147  0.3439  0.2777  0.0479
  700MOL0     C96466   6.208  10.155   6.259 -0.3003 -0.0689 -0.3396
  700MOL0     C96467   6.070  10.179   6.293  0.3273  0.7368 -0.2997
  700MOL0     C96468   6.044  10.265   6.397 -0.1512  0.4322 -0.0793
  700MOL0     C96469   6.149  10.302   6.489 -0.0483  0.1200  0.2461
  700MOL0     O96470   6.107  10.368   6.606  0.0631 -0.1947 -0.3467
  700MOL0     C96471   6.179  10.479   6.654  0.1982 -0.7223 -0.1150
  700MOL0     C96472   6.101  10.514   6.783  0.0912 -1.1780  0.8720
  700MOL0     C96473   6.153  10.645   6.846 -0.7287 -0.4448 -1.0491
  700MOL0     C96474   6.224  10.618   6.983 -0.1180 -0.1851  0.1693
  700MOL0     C96475   6.287  10.741   7.055  0.6156 -0.1617  0.9093
  700MOL0     C96476   6.370  10.689   7.174  0.2224 -0.1427  0.4341
  700MOL0     C96477   6.427  10.804   7.267 -0.0884 -0.4195 -0.6326
  700MOL0     C96478   6.320  10.867   7.355 -0.8645 -0.5350 -0.5668
  700MOL0     N96479   6.385  10.954   7.458  0.0462  0.0474 -0.2273
  700MOL0     C96480   6.425  10.921   7.587  0.1745  0.3149 -0.4970
  700MOL0     C96481   6.464  11.033   7.647  0.7391 -0.0365  0.2253
  700MOL0     C96482   6.529  11.027   7.790  1.0085 -0.1482 -0.3289
  700MOL0     C96483   6.662  11.109   7.783 -1.1364 -0.7681 -0.0175
  700MOL0     C96484   6.754  11.072   7.901 -1.0098 -0.3138 -0.5333
  700MOL0     C96485   6.693  11.122   8.027  0.0151  0.2850 -0.0894
  700MOL0     O96486   6.752  11.074   8.146 -0.1097  0.1378 -0.0890
  700MOL0     C96487   6.884  11.096   8.167 -0.7140  0.3266 -1.1403
  700MOL0     C96488   6.942  11.027   8.267 -0.3314  1.0662  0.3748
  700MOL0     C96489   7.073  11.021   8.301  0.2783 -0.1194 -0.2263
  700MOL0     C96490   7.098  10.939   8.423 -0.6150 -0.2363 -0.2498
  700MOL0     C96491   7.168  11.101   8.235  0.5543 -0.9131  0.4463
  700MOL0     C96492   7.315  11.101   8.257  0.3700 -0.0888  0.6213
  700MOL0     O96493   7.369  11.021   8.358  0.4520 -0.6384  0.5168
  700MOL0     C96494   7.494  11.040   8.386  0.3454 -0.1030  1.1717
  700MOL0     C96495   7.611  11.031   8.294  0.1229  0.2989  0.6390
  700MOL0     C96496   7.746  11.040   8.340 -0.4360 -0.6370 -0.7701
  700MOL0     C96497   7.772  11.051   8.477 -1.3067 -0.4477  1.0352
  700MOL0     O96498   7.907  11.054   8.520  0.5034 -0.1559  0.2919
  700MOL0     C96499   7.951  10.932   8.577 -0.2592  0.0704  0.0639
  700MOL0     C96500   8.072  10.943   8.669  0.1329  0.1481 -0.6537
  700MOL0     C96501   8.112  10.810   8.717  0.2856  0.8017 -0.2711
  700MOL0     C96502   8.233  10.821   8.817 -0.3379 -0.4218 -0.0285
  700MOL0     C96503   8.250  10.684   8.884  0.8252 -0.5367  0.2324
  700MOL0     C96504   8.148  10.664   8.995 -0.7935 -0.3850 -0.1633
  700MOL0     C96505   8.112  10.520   9.024  0.5405 -0.2084 -0.3259
  700MOL0     C96506   8.011  10.474   8.930  0.3146  0.4650  0.5904
  700MOL0    Cl96507   7.976  10.303   8.959 -0.4244 -0.2148 -0.4383
  700MOL0     C96508   7.660  11.048   8.564 -0.5542  0.8118  0.6682
  700MOL0     C96509   7.526  11.042   8.521  0.3378 -0.7294 -0.1878
  700MOL0     O96510   7.384  11.180   8.184  0.0841  0.6993  0.0731
  700MOL0     C96511   7.118  11.185   8.132 -0.1549 -0.6922 -1.5337
  700MOL0     C96512   6.980  11.184   8.099 -0.2604  0.0843  1.1480
  700MOL0     N96513   6.452  11.141   7.552 -0.1007  0.5627 -0.9766
  700MOL0     N96514   6.402  11.087   7.445  0.0462  0.0618  0.4918
  700MOL0     C96515   6.280  10.272   6.457 -0.4908  0.1480 -0.7185
  700MOL0     C96516   6.311  10.201   6.336  1.1839  0.1871 -0.7603
  700MOL0     C96517   6.203   9.910   5.977  0.2484  0.4294 -0.5687
  700MOL0     C96518   6.326   9.931   5.915  0.5889 -0.5509  0.8345
  700MOL0     C96519   6.346   9.897   5.786 -0.2452  0.2159 -0.3018
  700MOL0     C96520   6.256   9.833   5.714  0.8499  0.3354 -0.3370
  700MOL0     O96521   6.276   9.814   5.584  0.9343  0.5772  0.0683
  700MOL0     C96522   6.343   9.688   5.557 -0.6499 -0.3735 -0.4174
  700MOL0     C96523   6.470   9.691   5.466  0.1497 -0.6839 -0.2704
  700MOL0     C96524   6.593   9.761   5.519 -0.2507  0.6185 -0.6588
  700MOL0     C96525   6.660   9.672   5.626 -0.2120 -0.7430 -0.3624
  700MOL0     C96526   6.768   9.763   5.675 -0.1117  0.0875  0.0826
  700MOL0     C96527   6.879   9.819   5.697 -0.2002  0.8332 -0.1194
  700MOL0     C96528   6.130   9.810   5.771 -0.4544  0.4810 -0.0131
  700MOL0     C96529   6.102   9.852   5.898  0.7138  0.0687  0.0162
  700MOL0     C96530   5.966   9.823   5.960  0.3360  0.1176  0.1321
  700MOL0     H96531   5.983  10.146   6.237 -1.5738  4.0305  0.4443
  700MOL0     H96532   5.948  10.311   6.421  1.2309  2.7724  1.3991
  700MOL0     H96533   6.176  10.563   6.584  1.2462 -1.8505 -1.5839
  700MOL0     H96534   6.282  10.474   6.690  0.5127  3.2892 -0.0689
  700MOL0     H96535   5.996  10.536   6.759 -1.3783 -3.4316  4.4001
  700MOL0     H96536   6.096  10.439   6.862 -0.1951 -1.3284  0.7134
  700MOL0     H96537   6.219  10.693   6.773 -1.0170 -0.0159 -1.0306
  700MOL0     H96538   6.069  10.715   6.854 -1.1309 -0.5728 -3.3547
  700MOL0     H96539   6.154  10.573   7.054 -0.2996  1.9081  1.4201
  700MOL0     H96540   6.304  10.545   6.974 -1.7522 -2.3932  2.1765
  700MOL0     H96541   6.206  10.811   7.078 -2.0412 -2.5340 -0.5875
  700MOL0     H96542   6.352  10.789   6.982  0.2265 -0.2586  0.4958
  700MOL0     H96543   6.317  10.625   7.245 -0.7086 -1.0966 -1.0712
  700MOL0     H96544   6.447  10.631   7.123 -0.1515  0.0385 -0.3525
  700MOL0     H96545   6.472  10.893   7.221 -1.5480  1.6569  1.6796
  700MOL0     H96546   6.506  10.759   7.328 -0.4161 -2.3376 -1.5432
  700MOL0     H96547   6.250  10.929   7.299  1.1778  0.7911 -1.7605
  700MOL0     H96548   6.264  10.786   7.403  0.8530 -0.8362  1.0530
  700MOL0     H96549   6.436  10.817   7.618  2.5177 -0.0559 -2.3185
  700MOL0     H96550   6.540  10.923   7.819 -0.5749  0.5167  3.0683
  700MOL0     H96551   6.456  11.080   7.852 -2.0588 -1.3966 -2.6135
  700MOL0     H96552   6.714  11.089   7.688 -1.0136 -0.1719 -0.0849
  700MOL0     H96553   6.650  11.218   7.789 -1.2172 -0.5848 -2.2778
  700MOL0     H96554   6.778  10.966   7.912 -0.2224 -0.3015 -1.9079
  700MOL0     H96555   6.854  11.111   7.879 -1.1125  0.5971  0.5416
  700MOL0     H96556   6.684  11.231   8.021  0.5902  0.4736  1.9158
  700MOL0     H96557   6.592  11.080   8.021  0.0252 -0.0022  1.4509
  700MOL0     H96558   6.872  10.969   8.327 -1.4354  0.6648 -1.2507
  700MOL0     H96559   7.186  10.875   8.414  0.1989  1.1298 -4.1658
  700MOL0     H96560   7.019  10.876   8.464 -0.1930  1.2970  3.3119
  700MOL0     H96561   7.130  11.004   8.505 -0.7230  1.5022 -1.5159
  700MOL0     H96562   7.587  11.025   8.188  1.7996 -1.2589  0.2896
  700MOL0     H96563   7.833  11.045   8.276  0.8770  1.0509  1.0110
  700MOL0     H96564   7.865  10.894   8.634  0.5388  2.9479  3.5576
  700MOL0     H96565   7.969  10.854   8.503 -2.5019  0.7188 -1.2646
  700MOL0     H96566   8.155  10.987   8.612  1.8273 -0.2720  1.3807
  700MOL0     H96567   8.047  11.005   8.756  0.0204 -2.4274  1.2382
  700MOL0     H96568   8.151  10.746   8.638 -0.7252  0.2211 -0.3113
  700MOL0     H96569   8.029  10.754   8.762  0.4487  1.2191  0.5686
  700MOL0     H96570   8.213  10.892   8.897 -0.6267 -2.9866  2.3284
  700MOL0     H96571   8.318  10.851   8.754 -1.4139  0.7428 -0.9751
  700MOL0     H96572   8.238  10.605   8.809  1.7711 -1.5964  1.1618
  700MOL0     H96573   8.348  10.680   8.931  0.4886  0.3725  1.0560
  700MOL0     H96574   8.064  10.729   8.970  1.0758  2.3243  0.1339
  700MOL0     H96575   8.178  10.716   9.086 -0.9857 -2.5540  1.2099
  700MOL0     H96576   8.074  10.508   9.126 -0.7659  2.0205 -0.4946
  700MOL0     H96577   8.194  10.449   9.007  2.5662  2.0803 -0.7392
  700MOL0     H96578   8.045  10.489   8.828  3.1316 -0.3607  1.3173
  700MOL0     H96579   7.919  10.532   8.944 -0.0977 -0.4462  1.8777
  700MOL0     H96580   7.681  11.058   8.670 -0.5461 -1.5998  0.9522
  700MOL0     H96581   7.447  11.045   8.595 -0.1663 -0.0500 -0.7395
  700MOL0     H96582   7.180  11.234   8.057  0.7729 -1.7977 -1.5127
  700MOL0     H96583   6.954  11.254   8.020  2.3955 -1.6584 -1.4958
  700MOL0     H96584   6.357  10.299   6.528 -0.2168 -1.4433 -0.3878
  700MOL0     H96585   6.415  10.204   6.306  2.0461 -1.0496  1.7821
  700MOL0     H96586   6.400   9.998   5.956  2.0198 -2.8550  2.2442
  700MOL0     H96587   6.441   9.924   5.740 -1.0847  0.2881 -2.0978
  700MOL0     H96588   6.381   9.637   5.647  0.8358  2.4656  0.6889
  700MOL0     H96589   6.269   9.615   5.524 -0.4880 -0.9957  0.5500
  700MOL0     H96590   6.433   9.742   5.377 -4.1107 -0.3893  1.4100
  700MOL0     H96591   6.505   9.593   5.432  0.0312 -0.2608 -1.6589
  700MOL0     H96592   6.668   9.781   5.442 -0.1659 -0.6362 -0.9282
  700MOL0     H96593   6.562   9.857   5.561 -2.2390  0.4491 -1.6210
  700MOL0     H96594   6.692   9.578   5.578  1.5288 -0.0669 -0.6054
  700MOL0     H96595   6.585   9.660   5.704  2.0996 -0.7472  1.9838
  700MOL0     H96596   6.984   9.841   5.691  0.0776 -0.0167  1.3094
  700MOL0     H96597   6.061   9.749   5.713  0.2731 -0.4946  0.1292
  700MOL0     H96598   5.907   9.899   6.012  1.4815  1.1647 -0.0627
  700MOL0     H96599   5.899   9.794   5.878  1.6751 -0.9468 -0.6265
  700MOL0     H96600   5.986   9.733   6.018 -0.8907 -2.9097 -3.7193
  701MOL0     O96601   6.761  11.460   9.162 -0.2892  0.6564  0.0080
  701MOL0     C96602   6.830  11.358   9.138 -0.4330 -0.5211 -0.3793
  701MOL0     O96603   6.956  11.367   9.086 -0.0459 -0.5176  0.4449
  701MOL0     C96604   7.010  11.479   9.036 -0.4499  0.9221 -0.3521
  701MOL0     C96605   7.143  11.493   9.075  0.7195  0.8270 -0.0616
  701MOL0     C96606   7.212  11.600   9.020 -0.1714 -0.1848  0.2067
  701MOL0     C96607   7.146  11.704   8.948  0.7648 -0.6412 -0.2731
  701MOL0     O96608   7.224  11.816   8.926 -0.4511 -0.4664 -0.7464
  701MOL0     C96609   7.171  11.929   8.860 -0.0681 -0.6361  0.1201
  701MOL0     C96610   7.270  12.052   8.865 -0.6192  0.1635 -0.2405
  701MOL0     C96611   7.230  12.148   8.748  1.1118  1.4092 -0.5022
  701MOL0     C96612   7.176  12.281   8.788 -0.2863 -0.0947 -0.1414
  701MOL0     C96613   7.071  12.339   8.687 -0.8813 -0.3479  0.1894
  701MOL0     C96614   7.000  12.462   8.731  0.9678 -0.9316 -0.1974
  701MOL0     C96615   7.088  12.585   8.784  0.0508  1.1624  0.2482
  701MOL0     C96616   7.191  12.637   8.679  0.6674  0.3533 -0.4287
  701MOL0     N96617   7.270  12.751   8.718 -0.4311 -0.1221 -0.4066
  701MOL0     C96618   7.335  12.763   8.840 -0.1834  0.9105 -0.0103
  701MOL0     C96619   7.412  12.875   8.830 -0.0165 -0.4775  0.0213
  701MOL0     C96620   7.524  12.916   8.921 -0.1197  0.3085  0.9483
  701MOL0     C96621   7.664  12.895   8.845 -1.2471 -0.4233 -0.4513
  701MOL0     C96622   7.782  12.914   8.945  0.3402 -0.4382 -0.3612
  701MOL0     C96623   7.906  12.852   8.882 -0.3836  0.6456 -0.1324
  701MOL0     O96624   8.026  12.873   8.972 -0.2564  0.6624 -0.3193
  701MOL0     C96625   8.157  12.824   8.944  0.2718  0.5868 -0.2642
  701MOL0     C96626   8.191  12.719   8.858 -0.2781  0.0745  0.2928
  701MOL0     C96627   8.325  12.682   8.856 -1.2076 -0.4039 -0.4609
  701MOL0     C96628   8.354  12.561   8.766  0.4920 -0.3722  0.1501
  701MOL0     C96629   8.425  12.752   8.938  0.4233 -0.0711  0.4878
  701MOL0     C96630   8.559  12.721   8.936 -0.8688  0.1876 -0.0752
  701MOL0     O96631   8.633  12.768   9.036 -0.2299 -0.5575 -1.2616
  701MOL0     C96632   8.766  12.725   9.052  0.7616 -0.3319 -0.9141
  701MOL0     C96633   8.869  12.815   9.018  0.1062  0.0981 -0.3857
  701MOL0     C96634   8.996  12.774   9.026 -0.2139  0.1460  1.0127
  701MOL0     C96635   9.033  12.653   9.072  0.0876  0.3790  1.2214
  701MOL0     O96636   9.165  12.628   9.067 -0.1846  0.0895  0.3740
  701MOL0     C96637   9.208  12.494   9.058 -0.7107  0.2349 -1.2628
  701MOL0     C96638   9.352  12.486   9.017 -0.3109  0.3457  0.0079
  701MOL0     C96639   9.379  12.557   8.890 -0.1450 -0.0929 -0.4825
  701MOL0     C96640   9.509  12.513   8.831  0.4807  0.5510 -0.5540
  701MOL0     C96641   9.543  12.552   8.690  0.3137  0.3356 -0.5906
  701MOL0     C96642   9.685  12.482   8.645  0.8470  0.1607  0.8932
  701MOL0     C96643   9.798  12.587   8.666  0.0407  0.0458  0.1199
  701MOL0     C96644   9.810  12.680   8.548  0.1783  1.0039  0.9024
  701MOL0    Cl96645   9.979  12.745   8.546  0.1664 -0.4277 -0.5425
  701MOL0     C96646   8.930  12.556   9.105 -0.5032  0.0578  0.3534
  701MOL0     C96647   8.804  12.607   9.110  0.2016 -0.1118 -0.3335
  701MOL0     O96648   8.607  12.657   8.844  0.5435 -0.3589 -0.7173
  701MOL0     C96649   8.379  12.854   9.025 -0.4860 -0.4545 -0.5868
  701MOL0     C96650   8.245  12.890   9.024 -0.1785  0.0521 -0.8775
  701MOL0     N96651   7.387  12.939   8.708  0.2276  0.0681  0.1031
  701MOL0     N96652   7.296  12.866   8.644 -0.2706 -0.0445  0.5456
  701MOL0     C96653   7.008  11.692   8.917 -0.6838  0.5910  0.4070
  701MOL0     C96654   6.941  11.577   8.964 -1.0005  0.1999 -0.1310
  701MOL0     C96655   6.783  11.221   9.162  0.7205 -0.2323  0.1367
  701MOL0     C96656   6.834  11.116   9.085 -0.3630  0.4562 -0.3026
  701MOL0     C96657   6.786  10.987   9.088 -1.2022  0.6995  1.0205
  701MOL0     C96658   6.697  10.953   9.184  0.0298  0.7462 -1.1774
  701MOL0     O96659   6.672  10.820   9.210  0.5923 -0.3354 -0.1123
  701MOL0     C96660   6.526  10.793   9.209 -0.2908  0.3965 -0.2861
  701MOL0     C96661   6.488  10.744   9.350 -0.2007  0.1198  0.5956
  701MOL0     C96662   6.349  10.670   9.363  1.0947 -0.6776  0.3578
  701MOL0     C96663   6.224  10.762   9.325 -0.1788  0.3614 -0.2434
  701MOL0     C96664   6.219  10.799   9.185 -0.7015  0.1616 -0.8372
  701MOL0     C96665   6.231  10.817   9.070 -0.1431 -0.8906 -0.1987
  701MOL0     C96666   6.654  11.053   9.279  0.0024  0.5563 -0.2257
  701MOL0     C96667   6.683  11.187   9.258  0.8484 -0.2664 -1.4288
  701MOL0     C96668   6.603  11.289   9.338  0.3390  0.0354 -0.0333
  701MOL0     H96669   7.183  11.426   9.151  1.0065  0.0022 -0.9199
  701MOL0     H96670   7.319  11.616   9.031 -0.5600  1.6970  1.9715
  701MOL0     H96671   7.088  11.973   8.916  1.6237  1.0813  1.4349
  701MOL0     H96672   7.140  11.900   8.760 -0.6331  0.8606 -0.1619
  701MOL0     H96673   7.273  12.106   8.960  0.4968 -1.1091  0.4967
  701MOL0     H96674   7.365  12.000   8.847 -1.9008 -2.6211  0.5021
  701MOL0     H96675   7.322  12.187   8.704  2.0547  1.4070  1.3563
  701MOL0     H96676   7.164  12.093   8.680 -1.2372 -0.7795  3.1482
  701MOL0     H96677   7.131  12.277   8.887 -0.8257 -2.0506 -0.4146
  701MOL0     H96678   7.261  12.349   8.786 -0.3222 -0.0373  0.2866
  701MOL0     H96679   6.991  12.268   8.661 -3.9720  1.9919  2.5562
  701MOL0     H96680   7.130  12.370   8.600 -2.2365 -0.1632 -0.7001
  701MOL0     H96681   6.948  12.502   8.643  0.4722  0.1293  0.5435
  701MOL0     H96682   6.936  12.431   8.814 -0.2207 -1.9494 -1.4395
  701MOL0     H96683   7.155  12.558   8.866  2.1141  1.6163 -1.2018
  701MOL0     H96684   7.019  12.664   8.815  0.4354  1.0554  1.4400
  701MOL0     H96685   7.261  12.557   8.652  2.5685  1.3943  1.1705
  701MOL0     H96686   7.134  12.669   8.591 -0.7046 -1.1022 -0.1190
  701MOL0     H96687   7.334  12.691   8.920 -3.7903  0.4617 -0.2906
  701MOL0     H96688   7.535  12.852   9.009 -0.9886  0.9768  1.5729
  701MOL0     H96689   7.509  13.020   8.954 -1.3105  0.2032  0.7984
  701MOL0     H96690   7.665  12.791   8.811  1.6091 -1.8940  3.3138
  701MOL0     H96691   7.673  12.958   8.757  1.5592  1.1184  0.7918
  701MOL0     H96692   7.793  13.018   8.976  0.7606  0.4910 -3.3211
  701MOL0     H96693   7.754  12.858   9.035 -2.4620  2.3044  0.6411
  701MOL0     H96694   7.878  12.746   8.872 -0.3113 -0.3076  6.0017
  701MOL0     H96695   7.926  12.891   8.782 -2.7279 -0.2992 -1.0609
  701MOL0     H96696   8.118  12.660   8.804  0.9418 -0.5999 -0.6726
  701MOL0     H96697   8.402  12.600   8.675  1.4904  0.0528  0.8365
  701MOL0     H96698   8.271  12.502   8.727 -0.4378  2.1141 -2.0050
  701MOL0     H96699   8.419  12.488   8.815 -2.1972 -3.7981 -1.0318
  701MOL0     H96700   8.850  12.919   8.994  0.9287  0.7034  1.4125
  701MOL0     H96701   9.071  12.847   8.997 -0.9149  1.2446  1.8756
  701MOL0     H96702   9.196  12.435   9.149 -0.6781  0.5575 -1.0476
  701MOL0     H96703   9.159  12.448   8.972 -0.9787 -2.5958  0.2840
  701MOL0     H96704   9.397  12.528   9.107 -2.5538 -0.4891  1.5943
  701MOL0     H96705   9.377  12.381   9.004 -2.1954 -0.5868  3.0240
  701MOL0     H96706   9.403  12.664   8.898  3.4245 -0.7436 -0.6402
  701MOL0     H96707   9.295  12.539   8.822 -3.5717  3.5693  2.2984
  701MOL0     H96708   9.516  12.404   8.844 -0.5815  0.7532  2.8608
  701MOL0     H96709   9.593  12.554   8.888  2.7229 -0.7328 -2.7456
  701MOL0     H96710   9.455  12.540   8.626 -0.9204  0.7029  0.9823
  701MOL0     H96711   9.553  12.661   8.691  1.4730  0.2498  0.7757
  701MOL0     H96712   9.690  12.451   8.540 -1.8485  0.8256  0.4974
  701MOL0     H96713   9.703  12.394   8.709  0.2602 -0.9749 -0.4503
  701MOL0     H96714   9.893  12.533   8.675 -0.9075 -1.6602  0.4044
  701MOL0     H96715   9.770  12.651   8.750 -0.0442  2.7448 -1.8243
  701MOL0     H96716   9.737  12.759   8.567  1.1620  1.3093  4.0578
  701MOL0     H96717   9.792  12.630   8.452  0.5064  3.0987 -0.3173
  701MOL0     H96718   8.936  12.459   9.152 -3.1783 -1.2779 -1.7994
  701MOL0     H96719   8.728  12.539   9.149 -2.0109  1.7246 -1.2319
  701MOL0     H96720   8.440  12.909   9.096 -1.5742 -1.7389  1.4263
  701MOL0     H96721   8.205  12.963   9.093  0.4784 -0.7921  0.4268
  701MOL0     H96722   6.947  11.761   8.859  0.3830 -0.7245 -2.5327
  701MOL0     H96723   6.838  11.548   8.947 -0.5670 -2.0613  0.7409
  701MOL0     H96724   6.887  11.139   8.993 -1.5450 -1.1221 -1.4505
  701MOL0     H96725   6.840  10.914   9.028  0.1185 -0.1809  3.1334
  701MOL0     H96726   6.461  10.875   9.176 -1.7663 -0.6552 -0.1009
  701MOL0     H96727   6.519  10.713   9.134 -0.3186  0.6073 -0.5078
  701MOL0     H96728   6.495  10.823   9.425  2.5375  0.1870  0.3632
  701MOL0     H96729   6.556  10.670   9.393 -0.2782  1.2376  2.8025
  701MOL0     H96730   6.347  10.575   9.309 -1.4170 -0.5100  0.0327
  701MOL0     H96731   6.334  10.635   9.466 -0.0371 -0.3925  0.2938
  701MOL0     H96732   6.230  10.857   9.380 -1.8419  0.1892  0.2877
  701MOL0     H96733   6.137  10.710   9.365 -0.9224  0.8892 -1.1342
  701MOL0     H96734   6.253  10.827   8.965 -1.0244 -0.2396 -0.3313
  701MOL0     H96735   6.594  11.016   9.361 -0.0861  0.2426 -0.4303
  701MOL0     H96736   6.515  11.332   9.290  1.1260 -1.0130 -2.5789
  701MOL0     H96737   6.555  11.242   9.424  0.6322 -0.4679 -0.1396
  701MOL0     H96738   6.658  11.375   9.377  0.1379  0.1417  0.0137
  702MOL0     O96739   5.891   6.860   8.268  0.4076 -0.3137 -0.0263
  702MOL0     C96740   5.786   6.805   8.296  0.2518 -0.0148 -0.0597
  702MOL0     O96741   5.666   6.862   8.280  0.0502  0.0559 -0.0431
  702MOL0     C96742   5.655   6.998   8.252  0.3087  0.0747  0.0818
  702MOL0     C96743   5.655   7.037   8.120  0.3924 -0.6599 -0.4030
  702MOL0     C96744   5.634   7.171   8.081 -0.9170  0.0179 -0.5007
  702MOL0     C96745   5.626   7.267   8.184  0.3207 -0.3467  0.4474
  702MOL0     O96746   5.632   7.406   8.152 -0.3110 -0.4576 -0.5899
  702MOL0     C96747   5.732   7.460   8.071  0.4769 -0.4973 -0.1851
  702MOL0     C96748   5.874   7.437   8.141 -0.4509 -1.1629 -0.7014
  702MOL0     C96749   5.968   7.543   8.072 -0.0993  0.3124 -0.4926
  702MOL0     C96750   6.011   7.474   7.945  0.7210  0.0666 -0.4735
  702MOL0     C96751   6.108   7.579   7.873 -0.5208 -0.6169 -0.0969
  702MOL0     C96752   6.150   7.526   7.731  0.4867  0.3319  0.7675
  702MOL0     C96753   6.261   7.618   7.675 -0.5301 -0.2883  0.5212
  702MOL0     C96754   6.396   7.595   7.744  0.0857 -0.2638 -0.1563
  702MOL0     N96755   6.514   7.664   7.689 -0.3282 -0.5091  0.1323
  702MOL0     C96756   6.598   7.757   7.750  0.3797  0.2184  0.6640
  702MOL0     C96757   6.698   7.764   7.665  0.3418  0.7426 -0.2767
  702MOL0     C96758   6.824   7.845   7.680 -0.3168 -0.4789  0.4734
  702MOL0     C96759   6.909   7.820   7.806  0.0844 -0.4239 -0.3059
  702MOL0     C96760   6.875   7.947   7.901  0.0809  0.2176 -0.5153
  702MOL0     C96761   6.943   7.913   8.038  0.0617 -0.3619 -0.1503
  702MOL0     O96762   6.900   8.004   8.141  0.3841 -0.4448 -0.0429
  702MOL0     C96763   6.960   8.122   8.159  0.2262 -0.4974 -0.2998
  702MOL0     C96764   6.919   8.203   8.270 -0.2402 -0.3203  0.4389
  702MOL0     C96765   6.957   8.340   8.290 -0.2077  0.1326  0.5224
  702MOL0     C96766   6.904   8.415   8.412 -0.3583  0.3710  0.5397
  702MOL0     C96767   7.055   8.392   8.202  0.6422  0.4058  0.5618
  702MOL0     C96768   7.127   8.523   8.234  0.2139  0.5370  0.7402
  702MOL0     O96769   7.162   8.598   8.130  0.0094 -0.0052  0.1386
  702MOL0     C96770   7.241   8.706   8.144 -0.3441  0.1651  0.1396
  702MOL0     C96771   7.368   8.698   8.198 -0.6260  1.5908  0.3202
  702MOL0     C96772   7.453   8.807   8.196 -0.9412  1.1122 -0.5964
  702MOL0     C96773   7.412   8.927   8.137  0.8518  0.7119 -0.4239
  702MOL0     O96774   7.508   9.021   8.133 -0.0189 -0.0533  0.4569
  702MOL0     C96775   7.479   9.150   8.084  0.2869 -0.0472  0.0449
  702MOL0     C96776   7.371   9.222   8.176 -0.2867 -0.1964  0.0433
  702MOL0     C96777   7.368   9.373   8.141 -0.2983 -1.4451 -0.1413
  702MOL0     C96778   7.325   9.392   7.992  0.5159  0.2994 -0.6985
  702MOL0     C96779   7.294   9.540   7.954 -0.2061 -0.4179 -0.2234
  702MOL0     C96780   7.425   9.617   7.920  0.2824 -0.6192 -0.8804
  702MOL0     C96781   7.390   9.767   7.907  0.2215  0.2896 -0.3612
  702MOL0     C96782   7.411   9.848   8.042  0.2075  0.7411  0.8046
  702MOL0    Cl96783   7.331   9.792   8.186 -0.5107 -0.1154  0.1475
  702MOL0     C96784   7.296   8.928   8.064  0.9457  0.5753 -0.0884
  702MOL0     C96785   7.203   8.821   8.078 -0.1756 -0.2867  0.3460
  702MOL0     O96786   7.159   8.553   8.352  0.0313 -0.2234  0.0335
  702MOL0     C96787   7.080   8.321   8.080  0.2854 -0.5948  0.0050
  702MOL0     C96788   7.041   8.192   8.064 -0.3433  0.6039  0.4050
  702MOL0     N96789   6.687   7.666   7.567 -0.6410 -0.3608  0.1611
  702MOL0     N96790   6.572   7.612   7.575 -0.1069  0.5552  0.3190
  702MOL0     C96791   5.623   7.226   8.324  0.0017  0.5411 -0.8547
  702MOL0     C96792   5.634   7.090   8.358 -0.1899 -0.0389  0.2398
  702MOL0     C96793   5.788   6.656   8.318 -0.9245 -0.1190 -1.0955
  702MOL0     C96794   5.664   6.586   8.295 -0.2780  0.8115  0.1613
  702MOL0     C96795   5.661   6.450   8.331 -0.4678 -0.0195  0.6841
  702MOL0     C96796   5.762   6.391   8.405  0.0605 -0.2259  0.5030
  702MOL0     O96797   5.737   6.270   8.463 -0.7050  0.8028 -0.7499
  702MOL0     C96798   5.610   6.204   8.461 -0.3754 -0.3116  0.6393
  702MOL0     C96799   5.627   6.060   8.511 -0.7901 -0.3797  0.0305
  702MOL0     C96800   5.514   5.967   8.453 -0.0709  0.0132 -0.1617
  702MOL0     C96801   5.547   5.914   8.313  0.1909 -0.5151 -0.3309
  702MOL0     C96802   5.552   6.005   8.199 -0.5705 -0.0217  0.2939
  702MOL0     C96803   5.594   6.079   8.118 -0.8562 -0.6857 -0.1867
  702MOL0     C96804   5.885   6.452   8.426 -0.5212 -0.0077 -0.4051
  702MOL0     C96805   5.901   6.587   8.381 -0.2894  0.3158 -0.3029
  702MOL0     C96806   6.028   6.660   8.439  0.7764  0.3842  0.2835
  702MOL0     H96807   5.659   6.959   8.045  0.1786  2.0750 -3.4818
  702MOL0     H96808   5.611   7.210   7.982 -4.0280  0.8878  0.4342
  702MOL0     H96809   5.710   7.565   8.052  0.8563 -0.6022 -1.3425
  702MOL0     H96810   5.731   7.418   7.970  2.0430  1.2005 -0.9806
  702MOL0     H96811   5.862   7.461   8.247  2.7861 -0.9718 -0.2925
  702MOL0     H96812   5.907   7.334   8.120  0.8988 -1.0752  0.7780
  702MOL0     H96813   5.908   7.633   8.056  0.4712  0.6296 -0.8750
  702MOL0     H96814   6.051   7.564   8.140 -0.5398  2.3925 -0.5380
  702MOL0     H96815   6.063   7.380   7.962 -2.6057 -1.8519  0.0378
  702MOL0     H96816   5.925   7.444   7.884  0.4123  1.3838 -0.7197
  702MOL0     H96817   6.202   7.582   7.929  1.0751 -0.5548 -2.6457
  702MOL0     H96818   6.059   7.677   7.873 -2.5165 -1.5436 -1.3077
  702MOL0     H96819   6.184   7.422   7.728 -0.8662 -0.1491  1.2384
  702MOL0     H96820   6.071   7.521   7.655  1.5992  0.4160 -0.4426
  702MOL0     H96821   6.239   7.725   7.683 -2.6984 -0.3642 -2.5656
  702MOL0     H96822   6.271   7.602   7.568 -0.5307  0.8769  0.3368
  702MOL0     H96823   6.387   7.592   7.853 -3.9391  0.7369 -0.3302
  702MOL0     H96824   6.413   7.488   7.729  0.7197  0.1442 -2.9094
  702MOL0     H96825   6.577   7.817   7.838 -2.8822 -1.1858  0.9866
  702MOL0     H96826   6.799   7.951   7.673  5.6501  1.2380 -0.8998
  702MOL0     H96827   6.895   7.817   7.600 -1.1775 -1.3892  0.0053
  702MOL0     H96828   6.888   7.724   7.854 -0.5387 -0.1620 -0.0419
  702MOL0     H96829   7.013   7.811   7.774  1.2038  2.2557  2.1574
  702MOL0     H96830   6.927   8.035   7.862 -0.4085  0.6433 -0.2332
  702MOL0     H96831   6.767   7.961   7.916 -0.0232  0.8469 -1.7256
  702MOL0     H96832   6.916   7.811   8.069 -1.7112  0.2957  0.5597
  702MOL0     H96833   7.052   7.925   8.030 -0.1933  1.3667 -1.6237
  702MOL0     H96834   6.835   8.172   8.331 -0.9379  0.7352  0.0432
  702MOL0     H96835   6.900   8.524   8.404  1.5956  0.7641  3.3905
  702MOL0     H96836   6.961   8.390   8.501 -0.0361 -1.6336 -0.1776
  702MOL0     H96837   6.799   8.386   8.423 -0.8235  1.7878  0.0202
  702MOL0     H96838   7.415   8.602   8.219 -2.4548  0.1258 -1.7547
  702MOL0     H96839   7.554   8.793   8.234 -1.1716  0.2472 -0.2548
  702MOL0     H96840   7.571   9.208   8.098 -0.0519  0.4603  0.1768
  702MOL0     H96841   7.451   9.141   7.979  4.0656 -2.5192 -0.9636
  702MOL0     H96842   7.271   9.189   8.148 -0.6050  0.5187  0.3057
  702MOL0     H96843   7.394   9.205   8.282  1.5156 -0.6368 -0.3850
  702MOL0     H96844   7.461   9.428   8.158 -0.7152 -0.1171 -1.8900
  702MOL0     H96845   7.295   9.425   8.204 -0.2798 -1.6968  0.0894
  702MOL0     H96846   7.241   9.326   7.972 -0.9155  2.0718 -0.7776
  702MOL0     H96847   7.406   9.353   7.930  2.7761  0.3275  2.0156
  702MOL0     H96848   7.227   9.540   7.867  0.6370  0.1149 -0.8960
  702MOL0     H96849   7.252   9.592   8.041 -1.3713  0.0584 -1.0358
  702MOL0     H96850   7.466   9.597   7.820  0.7747  0.3643 -0.8926
  702MOL0     H96851   7.507   9.607   7.992  1.4135  3.2308 -1.4161
  702MOL0     H96852   7.286   9.783   7.878  0.5641  1.3203 -1.0712
  702MOL0     H96853   7.454   9.806   7.828  2.0594 -1.8822 -0.0488
  702MOL0     H96854   7.398   9.955   8.020  1.0773  0.7237  0.1482
  702MOL0     H96855   7.515   9.836   8.074 -0.0958 -0.6595  1.3112
  702MOL0     H96856   7.280   9.014   7.999  3.3401  0.9106 -0.3011
  702MOL0     H96857   7.112   8.843   8.022  1.6062 -0.0311 -2.6640
  702MOL0     H96858   7.162   8.358   8.019  0.4354 -1.8425 -0.5733
  702MOL0     H96859   7.084   8.147   7.975  1.4856 -1.0911  2.0474
  702MOL0     H96860   5.613   7.301   8.402 -0.8110 -0.4610  0.0552
  702MOL0     H96861   5.636   7.055   8.460  0.5267 -2.4759 -0.5493
  702MOL0     H96862   5.576   6.621   8.242 -0.4404 -2.0347 -1.6876
  702MOL0     H96863   5.563   6.407   8.316  0.6742 -3.0614  1.2187
  702MOL0     H96864   5.529   6.244   8.523 -1.9595 -2.2425 -0.0699
  702MOL0     H96865   5.563   6.205   8.363 -2.1948  0.1008  1.4736
  702MOL0     H96866   5.633   6.051   8.620 -0.7831 -1.5884 -0.0635
  702MOL0     H96867   5.721   6.019   8.472 -0.6959 -1.3515  1.2229
  702MOL0     H96868   5.501   5.882   8.520 -0.4174  1.9530  2.3705
  702MOL0     H96869   5.419   6.020   8.455  1.2384  2.4750  0.7855
  702MOL0     H96870   5.473   5.838   8.285  0.6667 -0.1773 -2.7700
  702MOL0     H96871   5.638   5.854   8.303  0.1238 -0.9339  1.3777
  702MOL0     H96872   5.628   6.146   8.042 -0.7199 -0.0884  0.3945
  702MOL0     H96873   5.959   6.398   8.485  0.2488 -0.8265 -2.0462
  702MOL0     H96874   5.983   6.734   8.506 -1.9681 -1.4551  0.6552
  702MOL0     H96875   6.090   6.589   8.494 -2.3414  0.5431  4.5183
  702MOL0     H96876   6.091   6.696   8.357 -1.5666  0.6776 -1.5011
  703MOL0     O96877   6.432   3.629   4.041  0.7955  0.2686 -0.0818
  703MOL0     C96878   6.393   3.546   4.117  0.5059  0.1757  0.9348
  703MOL0     O96879   6.418   3.534   4.251 -0.4969 -0.3844 -0.8615
  703MOL0     C96880   6.519   3.599   4.317 -0.3341  0.6471  0.5776
  703MOL0     C96881   6.510   3.591   4.458 -0.3464  0.3289 -0.5043
  703MOL0     C96882   6.612   3.655   4.521  0.5928  0.4748  1.1073
  703MOL0     C96883   6.716   3.729   4.463 -0.7320 -0.2399  0.2653
  703MOL0     O96884   6.790   3.810   4.549  0.4327  0.4927 -0.3776
  703MOL0     C96885   6.871   3.915   4.493 -0.3596 -0.3410  0.4755
  703MOL0     C96886   6.919   4.005   4.604  0.1476 -0.3363  0.1389
  703MOL0     C96887   7.013   3.932   4.704 -0.3181 -0.9718  0.3019
  703MOL0     C96888   7.155   3.892   4.642 -0.2446  0.1792 -0.0728
  703MOL0     C96889   7.232   3.802   4.738  0.5354 -0.3033  0.5079
  703MOL0     C96890   7.306   3.870   4.854  0.3086  0.0639  0.3207
  703MOL0     C96891   7.427   3.785   4.908  0.3274  0.5478 -0.2980
  703MOL0     C96892   7.373   3.685   5.012  0.3958 -0.4723 -0.1721
  703MOL0     N96893   7.481   3.584   5.032  0.8105  0.5288  0.2850
  703MOL0     C96894   7.457   3.452   5.054 -0.1120  0.0428  0.0287
  703MOL0     C96895   7.577   3.403   5.102 -0.7731 -0.0975  0.5500
  703MOL0     C96896   7.605   3.263   5.152  0.7337  0.3199  0.5972
  703MOL0     C96897   7.709   3.178   5.077 -0.2905 -0.1858 -0.5104
  703MOL0     C96898   7.672   3.137   4.934  0.8980 -0.2683 -0.4634
  703MOL0     C96899   7.532   3.084   4.907 -0.7937  0.7076 -0.1301
  703MOL0     O96900   7.513   2.962   4.986  0.1664 -0.1021  0.3067
  703MOL0     C96901   7.388   2.909   4.969  0.7112  0.0545  0.8929
  703MOL0     C96902   7.359   2.801   5.046  0.6278 -0.9077 -0.0586
  703MOL0     C96903   7.242   2.718   5.027 -0.3668  0.5227 -0.1366
  703MOL0     C96904   7.256   2.585   5.098 -0.7961 -1.1633  0.1249
  703MOL0     C96905   7.155   2.742   4.928  0.2787  0.0518  1.1502
  703MOL0     C96906   7.044   2.641   4.905 -0.1117 -0.5942 -0.4435
  703MOL0     O96907   7.013   2.610   4.776  0.3736  0.3481 -0.2167
  703MOL0     C96908   6.893   2.554   4.750 -0.0721 -0.6330  0.2654
  703MOL0     C96909   6.877   2.421   4.773 -0.4353  0.6117 -0.1369
  703MOL0     C96910   6.768   2.346   4.712 -0.6372 -0.0233  0.6024
  703MOL0     C96911   6.680   2.416   4.632  0.8849 -0.2752 -0.4173
  703MOL0     O96912   6.571   2.348   4.575 -0.4747 -0.2515  0.8296
  703MOL0     C96913   6.585   2.298   4.439  0.1582  0.6305 -0.1564
  703MOL0     C96914   6.444   2.260   4.398 -0.0551  0.6184 -0.1708
  703MOL0     C96915   6.361   2.384   4.377 -0.3861 -0.0587  0.4153
  703MOL0     C96916   6.216   2.329   4.375 -0.7086  0.1445 -0.0011
  703MOL0     C96917   6.112   2.437   4.367  1.1789 -1.0414 -0.1477
  703MOL0     C96918   6.098   2.533   4.242  0.1450  0.6841 -0.0276
  703MOL0     C96919   5.977   2.624   4.252  0.2534  0.3699 -0.6381
  703MOL0     C96920   5.848   2.568   4.197 -0.6008 -0.3170  0.7698
  703MOL0    Cl96921   5.767   2.687   4.084 -0.5078  0.1234 -0.0512
  703MOL0     C96922   6.699   2.557   4.609  0.8045 -0.4260 -0.6780
  703MOL0     C96923   6.799   2.616   4.676 -0.3123 -0.1426 -0.4888
  703MOL0     O96924   6.992   2.598   5.006  0.3538 -0.4037 -0.2168
  703MOL0     C96925   7.181   2.854   4.845  0.7009  0.6615  0.0080
  703MOL0     C96926   7.296   2.935   4.863 -0.2809  0.2509 -0.1516
  703MOL0     N96927   7.667   3.505   5.106 -0.1160  0.1568 -0.3545
  703MOL0     N96928   7.607   3.614   5.072  0.1526  0.1981 -0.3146
  703MOL0     C96929   6.729   3.715   4.324 -0.3741  0.9206 -0.7929
  703MOL0     C96930   6.633   3.648   4.252  0.8818 -0.4068 -0.1737
  703MOL0     C96931   6.300   3.448   4.061 -0.1529  0.3384  0.3654
  703MOL0     C96932   6.177   3.441   4.126 -0.4796  0.4690  0.1585
  703MOL0     C96933   6.072   3.362   4.079 -0.2398  0.1238 -0.3552
  703MOL0     C96934   6.087   3.294   3.959  0.0220  1.0934  0.4776
  703MOL0     O96935   5.981   3.213   3.909 -1.1367 -0.7947 -0.3780
  703MOL0     C96936   5.856   3.197   3.979 -0.1364  0.7268  0.3171
  703MOL0     C96937   5.805   3.061   3.943  0.1753  0.3861 -0.3658
  703MOL0     C96938   5.754   3.060   3.795 -0.9132 -0.1216  0.3372
  703MOL0     C96939   5.671   2.931   3.755 -0.8541 -0.3150 -0.0664
  703MOL0     C96940   5.707   2.884   3.625  0.4307  0.1838  0.6190
  703MOL0     C96941   5.726   2.844   3.516  0.1010  0.0940 -0.0337
  703MOL0     C96942   6.212   3.295   3.894  0.0125  1.3314 -0.3378
  703MOL0     C96943   6.321   3.363   3.946 -0.0776 -0.0019  0.8213
  703MOL0     C96944   6.454   3.354   3.876  0.4926  0.0118 -0.1404
  703MOL0     H96945   6.433   3.536   4.512  2.6551 -1.0480  2.7155
  703MOL0     H96946   6.589   3.664   4.627 -1.8118  0.9984  0.6079
  703MOL0     H96947   6.809   3.976   4.426  1.2861  1.3128  0.3703
  703MOL0     H96948   6.956   3.874   4.438 -1.1165 -0.0784 -0.9315
  703MOL0     H96949   6.967   4.094   4.562 -0.3587  0.7269  1.7475
  703MOL0     H96950   6.829   4.034   4.658 -0.7256  0.8465 -1.8433
  703MOL0     H96951   7.026   3.994   4.793  1.2171  2.0937 -1.8753
  703MOL0     H96952   6.960   3.840   4.732 -1.1386 -2.1119 -4.1877
  703MOL0     H96953   7.121   3.832   4.557 -1.6410 -2.6505  2.3453
  703MOL0     H96954   7.208   3.984   4.616  0.1031 -0.0496 -0.1752
  703MOL0     H96955   7.299   3.756   4.666 -1.9464  0.0123 -2.1949
  703MOL0     H96956   7.171   3.723   4.784  1.8363 -1.5123  0.2131
  703MOL0     H96957   7.353   3.960   4.813 -1.8419 -0.2796 -3.2432
  703MOL0     H96958   7.245   3.910   4.936  0.3845  1.5084 -0.2987
  703MOL0     H96959   7.504   3.843   4.960 -0.7469  3.8995 -2.1571
  703MOL0     H96960   7.486   3.727   4.837  3.1827  2.4122  0.3627
  703MOL0     H96961   7.341   3.732   5.106 -1.9830 -3.5912  0.7549
  703MOL0     H96962   7.279   3.639   4.980  0.3133  1.3731 -2.8444
  703MOL0     H96963   7.366   3.393   5.061 -0.2260  0.1981 -0.1376
  703MOL0     H96964   7.514   3.203   5.162  1.3210 -0.3823  2.1432
  703MOL0     H96965   7.634   3.272   5.257  2.7540 -0.1756  0.1402
  703MOL0     H96966   7.797   3.243   5.069 -0.6238  0.6009  1.5686
  703MOL0     H96967   7.729   3.089   5.136  0.8216  1.2320  1.3841
  703MOL0     H96968   7.696   3.215   4.862  1.3367  0.4013  0.3840
  703MOL0     H96969   7.736   3.055   4.901  1.9390  0.8505 -1.2907
  703MOL0     H96970   7.465   3.162   4.943  0.7138  1.8806  0.2184
  703MOL0     H96971   7.527   3.074   4.798  3.7306  0.5256 -0.4845
  703MOL0     H96972   7.426   2.781   5.129  1.7067 -0.1920 -0.7436
  703MOL0     H96973   7.361   2.552   5.097 -0.4055  0.0052 -2.1625
  703MOL0     H96974   7.195   2.502   5.061 -2.4777  0.9501 -2.1248
  703MOL0     H96975   7.231   2.599   5.203  2.7009  1.0832  0.8145
  703MOL0     H96976   6.941   2.361   4.837  0.2518 -1.4847 -2.5907
  703MOL0     H96977   6.761   2.242   4.742  0.1811 -0.3313 -0.2442
  703MOL0     H96978   6.620   2.375   4.369  0.7110  0.8041  0.3019
  703MOL0     H96979   6.658   2.218   4.449  1.3277  1.9555  3.7258
  703MOL0     H96980   6.441   2.201   4.306 -4.1822 -2.3969  1.5779
  703MOL0     H96981   6.401   2.208   4.484 -0.2113  0.7404 -0.1756
  703MOL0     H96982   6.387   2.430   4.281  3.3370 -1.2182  0.7175
  703MOL0     H96983   6.375   2.457   4.457  0.7871  0.9455 -0.6602
  703MOL0     H96984   6.193   2.278   4.469 -1.0028 -1.0242 -0.6851
  703MOL0     H96985   6.203   2.249   4.302 -1.2328 -1.6064  1.8984
  703MOL0     H96986   6.017   2.384   4.381  0.7161 -0.6790 -1.7472
  703MOL0     H96987   6.115   2.500   4.457 -1.8744  5.5552 -3.9423
  703MOL0     H96988   6.098   2.474   4.150 -0.5747 -0.1034  0.4598
  703MOL0     H96989   6.184   2.599   4.259  1.6651 -0.6584 -2.0959
  703MOL0     H96990   6.004   2.712   4.193  1.6976 -0.2059 -0.8800
  703MOL0     H96991   5.966   2.656   4.356 -1.6851 -0.9309 -0.3940
  703MOL0     H96992   5.788   2.539   4.284 -1.1096  1.3693  1.0284
  703MOL0     H96993   5.869   2.474   4.146  2.3059  1.7134 -2.2309
  703MOL0     H96994   6.637   2.607   4.535 -1.2651 -3.8232 -1.4445
  703MOL0     H96995   6.800   2.723   4.662  5.7605 -0.1112 -2.5269
  703MOL0     H96996   7.120   2.873   4.757  3.4056 -0.6397 -2.3457
  703MOL0     H96997   7.311   3.010   4.785 -1.4801 -1.2007 -1.8763
  703MOL0     H96998   6.815   3.764   4.279  0.8024 -0.6002 -0.2983
  703MOL0     H96999   6.657   3.635   4.148  2.2171  2.0400 -0.2144
  703MOL0     H97000   6.166   3.491   4.222 -2.3108 -1.9004  1.2863
  703MOL0     H97001   5.979   3.351   4.133 -0.4480 -1.1347 -0.9405
  703MOL0     H97002   5.873   3.197   4.088  1.3223  2.5318  0.1404
  703MOL0     H97003   5.789   3.281   3.957  1.2169  1.0541 -3.0695
  703MOL0     H97004   5.725   3.025   4.008 -0.1514  2.9832  0.8003
  703MOL0     H97005   5.890   2.994   3.958  0.8359  1.5579  1.4042
  703MOL0     H97006   5.690   3.148   3.780 -0.0250  0.2424 -1.7063
  703MOL0     H97007   5.837   3.085   3.728 -3.3746  1.0593 -2.5310
  703MOL0     H97008   5.566   2.963   3.754 -0.5271  0.8353 -2.2756
  703MOL0     H97009   5.678   2.852   3.831 -0.6460  1.7396  2.1562
  703MOL0     H97010   5.723   2.805   3.417  1.0829  0.2456 -0.1358
  703MOL0     H97011   6.227   3.239   3.802 -1.2583 -0.1364  0.3181
  703MOL0     H97012   6.516   3.282   3.931  1.2262  2.7759  3.0136
  703MOL0     H97013   6.433   3.334   3.771 -0.3291  0.5307 -0.0871
  703MOL0     H97014   6.502   3.452   3.873 -0.6442  0.5750 -0.4754
  704MOL0     O97015   1.584   1.387   8.266  0.4399 -0.0489  0.5576
  704MOL0     C97016   1.543   1.308   8.353  0.1782 -0.3124  0.1616
  704MOL0     O97017   1.620   1.224   8.429  0.0950 -0.1994 -0.1853
  704MOL0     C97018   1.750   1.262   8.456 -1.1041  0.4819  0.4525
  704MOL0     C97019   1.803   1.393   8.464  0.4000 -0.3031  0.8073
  704MOL0     C97020   1.934   1.427   8.496 -0.2570 -0.1350  0.0701
  704MOL0     C97021   2.022   1.328   8.530  0.0896  0.7716 -0.7445
  704MOL0     O97022   2.157   1.332   8.570  0.4524  0.6701 -0.4632
  704MOL0     C97023   2.226   1.459   8.563 -0.9134  0.1571  0.2052
  704MOL0     C97024   2.294   1.489   8.706  0.5540 -0.2325 -1.3455
  704MOL0     C97025   2.381   1.613   8.698  0.0092  0.0585 -0.4079
  704MOL0     C97026   2.454   1.635   8.825  0.4622  1.2990 -0.3517
  704MOL0     C97027   2.573   1.732   8.784  0.7441  0.0257 -0.9990
  704MOL0     C97028   2.665   1.761   8.912  1.3101  0.8161  0.5112
  704MOL0     C97029   2.599   1.861   9.017  0.0555  0.1575 -0.5385
  704MOL0     C97030   2.667   1.999   9.031  0.2503 -0.1800  0.3337
  704MOL0     N97031   2.613   2.078   8.920 -0.2820  1.0221 -0.1335
  704MOL0     C97032   2.670   2.145   8.811  0.2801  0.2134 -1.6287
  704MOL0     C97033   2.592   2.252   8.786  0.8835 -0.4187 -0.3668
  704MOL0     C97034   2.608   2.364   8.687 -0.3524  0.0727  0.7777
  704MOL0     C97035   2.699   2.479   8.740 -0.0475  0.0594  1.1119
  704MOL0     C97036   2.703   2.600   8.647  0.0774  0.4032 -0.0598
  704MOL0     C97037   2.813   2.605   8.533  0.4244 -0.0455 -0.4758
  704MOL0     O97038   2.920   2.666   8.607 -0.0522  0.6412  0.5509
  704MOL0     C97039   3.038   2.680   8.531 -0.5114  0.4088 -0.2113
  704MOL0     C97040   3.060   2.672   8.390 -0.4685  0.1351 -0.9904
  704MOL0     C97041   3.187   2.665   8.324 -0.0217  0.6759 -0.1911
  704MOL0     C97042   3.187   2.639   8.171  0.1915 -0.3683 -0.6918
  704MOL0     C97043   3.302   2.695   8.401 -0.6821 -0.9517  0.6013
  704MOL0     C97044   3.441   2.726   8.340 -0.5357  0.9268 -0.7679
  704MOL0     O97045   3.532   2.755   8.441 -0.7869  1.2259 -0.5434
  704MOL0     C97046   3.656   2.796   8.395  0.4267  0.5883 -0.2449
  704MOL0     C97047   3.679   2.930   8.415  0.0145 -0.9013  0.0795
  704MOL0     C97048   3.796   2.994   8.366 -0.3292 -0.0265 -1.0079
  704MOL0     C97049   3.892   2.922   8.303  0.2538 -0.6976  0.0921
  704MOL0     O97050   3.994   3.004   8.257 -0.1665  0.2263 -0.6741
  704MOL0     C97051   4.062   2.964   8.139 -0.9165  0.0967  0.2327
  704MOL0     C97052   4.153   3.080   8.108 -0.0248  0.8346  0.3211
  704MOL0     C97053   4.180   3.105   7.956 -0.2327  0.0289  0.1108
  704MOL0     C97054   4.295   3.204   7.930  0.2052 -0.4285 -0.0950
  704MOL0     C97055   4.301   3.281   7.791 -0.1428  0.3684  0.5440
  704MOL0     C97056   4.278   3.191   7.670  0.9982  0.1249 -0.0032
  704MOL0     C97057   4.276   3.272   7.543 -0.6710 -0.3030  0.1651
  704MOL0     C97058   4.231   3.184   7.421 -0.5113  0.1559 -0.2983
  704MOL0    Cl97059   4.339   3.044   7.399  0.2294  0.6571  0.5234
  704MOL0     C97060   3.881   2.785   8.289 -0.2379  0.8810 -0.7033
  704MOL0     C97061   3.753   2.724   8.321 -0.3681  0.7557  0.5512
  704MOL0     O97062   3.463   2.712   8.226  0.0080 -0.4458 -0.1014
  704MOL0     C97063   3.282   2.711   8.543  0.1557 -0.0609  0.6946
  704MOL0     C97064   3.156   2.704   8.599 -0.2228  0.8742 -0.1189
  704MOL0     N97065   2.479   2.239   8.863  0.4895 -0.4214 -0.1730
  704MOL0     N97066   2.499   2.146   8.942 -0.7125 -0.5458 -0.0361
  704MOL0     C97067   1.974   1.197   8.540 -0.2908 -1.3108 -0.8188
  704MOL0     C97068   1.836   1.168   8.510  0.8029 -0.3664  1.0080
  704MOL0     C97069   1.393   1.301   8.362 -0.5097  0.0145 -0.7339
  704MOL0     C97070   1.346   1.232   8.475  0.1775 -0.1064  0.6787
  704MOL0     C97071   1.214   1.231   8.505  0.8191 -0.3920  0.3251
  704MOL0     C97072   1.120   1.299   8.426  0.3154  0.1886 -0.5753
  704MOL0     O97073   0.992   1.299   8.480  0.7044  0.6170  0.5699
  704MOL0     C97074   0.885   1.289   8.384  0.4830 -0.1968 -0.8119
  704MOL0     C97075   0.767   1.208   8.453  0.1779  0.4272 -0.1865
  704MOL0     C97076   0.632   1.236   8.380 -0.5707 -0.7674  0.2356
  704MOL0     C97077   0.582   1.382   8.355 -0.0100  0.9550  0.2687
  704MOL0     C97078   0.590   1.449   8.478 -0.6950 -0.5994 -0.6361
  704MOL0     C97079   0.587   1.522   8.573 -0.2522  0.5698  0.2213
  704MOL0     C97080   1.163   1.363   8.307  0.4684 -0.8661 -0.2389
  704MOL0     C97081   1.304   1.372   8.280 -0.5338 -0.6270  0.5700
  704MOL0     C97082   1.348   1.446   8.152  0.1683 -0.1036  0.8261
  704MOL0     H97083   1.742   1.482   8.449 -0.5743 -1.0097  0.4376
  704MOL0     H97084   1.972   1.529   8.494  1.4685 -0.7519 -0.9593
  704MOL0     H97085   2.173   1.540   8.512 -1.0367 -0.0585 -0.0107
  704MOL0     H97086   2.312   1.428   8.502 -1.6255 -2.2226  0.3211
  704MOL0     H97087   2.214   1.514   8.777  1.4534 -2.8492  0.7917
  704MOL0     H97088   2.349   1.411   8.760 -1.0243  0.7761  2.0063
  704MOL0     H97089   2.445   1.593   8.611  0.8414 -3.4372  0.8429
  704MOL0     H97090   2.315   1.696   8.670  1.1117  1.0903 -0.0152
  704MOL0     H97091   2.386   1.677   8.900  2.8411  0.4312  2.4837
  704MOL0     H97092   2.502   1.546   8.866  0.2156  0.4382 -1.8479
  704MOL0     H97093   2.537   1.828   8.746  0.3719 -0.3332 -1.5747
  704MOL0     H97094   2.627   1.682   8.703  0.8721  0.3118 -1.0935
  704MOL0     H97095   2.670   1.662   8.958  2.4022  0.0780 -1.1203
  704MOL0     H97096   2.765   1.799   8.889  1.7191  0.2049  1.2428
  704MOL0     H97097   2.614   1.833   9.121  3.7934  2.2963 -0.3213
  704MOL0     H97098   2.491   1.869   9.001 -0.1234  0.5813  0.7602
  704MOL0     H97099   2.645   2.037   9.131 -2.2135  0.0896 -0.2366
  704MOL0     H97100   2.774   1.989   9.014  0.8412  4.4267  0.0769
  704MOL0     H97101   2.770   2.120   8.779  0.1392  0.2761 -2.1327
  704MOL0     H97102   2.508   2.385   8.647 -0.1397 -1.7265 -0.8682
  704MOL0     H97103   2.659   2.333   8.595 -2.2588  3.0629 -1.5043
  704MOL0     H97104   2.652   2.511   8.833 -0.6714  1.4020  0.3591
  704MOL0     H97105   2.802   2.442   8.753 -0.3591 -3.4892 -3.7380
  704MOL0     H97106   2.598   2.614   8.618 -0.6616 -3.3245  0.2816
  704MOL0     H97107   2.728   2.690   8.704 -2.0311  1.8871 -1.3233
  704MOL0     H97108   2.840   2.508   8.490 -0.6984  0.0506 -1.4586
  704MOL0     H97109   2.775   2.663   8.448 -0.0429  0.4202  0.0402
  704MOL0     H97110   2.970   2.691   8.333 -0.9559  1.5979  0.1862
  704MOL0     H97111   3.091   2.596   8.140 -0.2113  1.0176 -1.4735
  704MOL0     H97112   3.264   2.574   8.129 -0.2794 -0.0649 -2.0728
  704MOL0     H97113   3.195   2.739   8.127  2.2441  2.2061  4.5823
  704MOL0     H97114   3.611   2.994   8.470 -1.6927 -3.0076  0.5600
  704MOL0     H97115   3.808   3.099   8.390 -0.1394 -0.4548  0.8990
  704MOL0     H97116   4.106   2.864   8.143 -1.7545 -0.2543  3.3561
  704MOL0     H97117   3.996   2.964   8.052 -0.8176  1.3433  0.1345
  704MOL0     H97118   4.119   3.176   8.151  0.3975  1.5282 -0.8589
  704MOL0     H97119   4.249   3.061   8.157  1.5138 -0.0306 -2.8276
  704MOL0     H97120   4.087   3.150   7.921  0.1666  1.1634  0.4858
  704MOL0     H97121   4.194   3.009   7.904 -2.4145  1.3953 -3.3905
  704MOL0     H97122   4.390   3.151   7.942  0.0240 -0.4623  1.2572
  704MOL0     H97123   4.303   3.284   8.003  0.6204  0.6062 -1.2420
  704MOL0     H97124   4.224   3.360   7.792 -3.1083 -2.2474 -1.2392
  704MOL0     H97125   4.393   3.339   7.781 -1.2510  2.9393  3.5521
  704MOL0     H97126   4.178   3.147   7.670  0.6272  0.9341  0.7796
  704MOL0     H97127   4.355   3.113   7.666  1.4676  0.6178 -0.7956
  704MOL0     H97128   4.372   3.318   7.517 -0.6868  0.4572  1.3767
  704MOL0     H97129   4.201   3.349   7.564 -1.3971 -0.7182 -0.8554
  704MOL0     H97130   4.216   3.227   7.322 -1.7127 -0.0354 -0.2152
  704MOL0     H97131   4.128   3.155   7.447 -1.2234  1.9485 -0.9493
  704MOL0     H97132   3.962   2.722   8.253 -0.8041  0.9566 -2.1628
  704MOL0     H97133   3.722   2.622   8.302 -0.8487  1.1220 -0.8036
  704MOL0     H97134   3.360   2.740   8.613  0.4184  0.7051  0.1023
  704MOL0     H97135   3.153   2.729   8.705 -0.9035  2.0850 -0.4052
  704MOL0     H97136   2.042   1.121   8.577 -1.2636 -1.6361  0.3902
  704MOL0     H97137   1.799   1.067   8.516 -2.1467  0.6602  2.0089
  704MOL0     H97138   1.421   1.180   8.535  1.5804  0.5219 -0.4811
  704MOL0     H97139   1.175   1.180   8.593 -1.5191  1.5813  0.5399
  704MOL0     H97140   0.847   1.385   8.348 -0.4882 -1.0113 -2.0876
  704MOL0     H97141   0.913   1.238   8.291  0.9166  1.9718 -1.9450
  704MOL0     H97142   0.756   1.247   8.555  0.4349  4.1959 -1.4725
  704MOL0     H97143   0.777   1.099   8.450 -4.1767 -0.2761  2.2018
  704MOL0     H97144   0.658   1.190   8.284  0.6090 -2.9519  1.5421
  704MOL0     H97145   0.544   1.176   8.406 -0.2889 -0.9810  0.6932
  704MOL0     H97146   0.476   1.370   8.331  0.2173  2.0556 -1.4464
  704MOL0     H97147   0.638   1.426   8.272 -2.3174  4.3724  0.3154
  704MOL0     H97148   0.595   1.595   8.652 -0.8542  1.3085 -0.3927
  704MOL0     H97149   1.091   1.419   8.247 -0.8274 -0.5288  1.5301
  704MOL0     H97150   1.417   1.394   8.085 -2.7870 -3.2534 -0.0450
  704MOL0     H97151   1.257   1.466   8.094  0.5041 -0.7305  0.0615
  704MOL0     H97152   1.399   1.538   8.181 -3.7546  2.4115  0.5313
  705MOL0     O97153   3.835  11.243   8.333 -0.3369  0.3264 -1.0211
  705MOL0     C97154   3.908  11.323   8.279  0.3834  0.4107  0.5282
  705MOL0     O97155   3.888  11.463   8.284  0.0209 -0.5228 -0.0428
  705MOL0     C97156   3.791  11.521   8.369  0.2966  0.1279  1.3804
  705MOL0     C97157   3.657  11.468   8.382 -0.0793 -0.1165 -1.5176
  705MOL0     C97158   3.565  11.546   8.453  0.1173  0.4768 -0.1360
  705MOL0     C97159   3.591  11.670   8.501  0.6127 -0.1389 -0.5715
  705MOL0     O97160   3.497  11.757   8.555  0.1243  0.1386 -0.5012
  705MOL0     C97161   3.387  11.761   8.463 -0.4571 -0.4505 -0.6139
  705MOL0     C97162   3.323  11.897   8.467  0.1349 -1.2970  0.1221
  705MOL0     C97163   3.416  12.020   8.436  0.1459  0.8367  0.0433
  705MOL0     C97164   3.461  12.044   8.290  0.3208  0.4693  0.2804
  705MOL0     C97165   3.579  12.138   8.283  0.1101  0.6234  0.1404
  705MOL0     C97166   3.532  12.280   8.296  0.1602 -0.0890  0.7234
  705MOL0     C97167   3.643  12.382   8.281 -0.3599  0.4473  0.3719
  705MOL0     C97168   3.685  12.404   8.134 -0.1500  0.0605 -0.3732
  705MOL0     N97169   3.802  12.502   8.135  0.2628 -0.0895 -0.7396
  705MOL0     C97170   3.815  12.606   8.226 -0.2514  0.6036  0.3742
  705MOL0     C97171   3.949  12.639   8.223  0.7360 -0.8128 -0.1417
  705MOL0     C97172   4.014  12.738   8.323  0.7876  0.1107 -0.1265
  705MOL0     C97173   4.145  12.791   8.268 -0.0686 -0.5747  0.2795
  705MOL0     C97174   4.141  12.876   8.144  0.0445 -0.0958 -0.1665
  705MOL0     C97175   4.282  12.884   8.081 -0.0150 -0.1291  1.0575
  705MOL0     O97176   4.277  12.968   7.959  0.1754 -0.7856  0.4658
  705MOL0     C97177   4.402  13.028   7.921  0.2039 -0.4244  1.6172
  705MOL0     C97178   4.400  13.147   7.852 -0.1889  0.0944  0.4358
  705MOL0     C97179   4.523  13.220   7.816  0.1975 -0.5291  0.8301
  705MOL0     C97180   4.505  13.352   7.742 -1.2601 -0.0115  0.7295
  705MOL0     C97181   4.647  13.159   7.836 -0.3581 -0.4695  1.2770
  705MOL0     C97182   4.778  13.221   7.782 -0.3390  0.4258  0.1191
  705MOL0     O97183   4.768  13.348   7.732  0.0776 -0.6760  0.3947
  705MOL0     C97184   4.883  13.387   7.657  0.0445 -0.8374  0.1311
  705MOL0     C97185   5.008  13.405   7.721 -0.3272  0.3305 -0.0592
  705MOL0     C97186   5.109  13.450   7.640  0.0307 -0.4848  0.1750
  705MOL0     C97187   5.095  13.471   7.504 -0.4790  0.3255  0.3545
  705MOL0     O97188   5.207  13.516   7.433  0.0239 -0.1080  0.0885
  705MOL0     C97189   5.193  13.604   7.320  0.9572 -0.1245  0.5726
  705MOL0     C97190   5.310  13.647   7.229 -0.6386 -0.4496 -0.1072
  705MOL0     C97191   5.390  13.764   7.304 -0.0495  0.0469  0.2588
  705MOL0     C97192   5.488  13.835   7.209  0.2279  0.5660  0.7252
  705MOL0     C97193   5.547  13.959   7.285  0.4854  0.3091 -0.1633
  705MOL0     C97194   5.642  14.027   7.199  0.1637 -0.0968  0.1999
  705MOL0     C97195   5.692  14.157   7.271 -0.2204  0.3879 -0.0593
  705MOL0     C97196   5.802  14.216   7.182  0.3381  0.2461  0.1892
  705MOL0    Cl97197   5.815  14.389   7.233 -0.6662  0.0258  0.5897
  705MOL0     C97198   4.976  13.441   7.439  0.3459  0.1624 -0.2167
  705MOL0     C97199   4.863  13.397   7.519 -0.6632 -0.0695  0.4917
  705MOL0     O97200   4.880  13.164   7.799  0.0923  0.2073 -0.4970
  705MOL0     C97201   4.651  13.033   7.900  0.3727  0.3034 -0.2543
  705MOL0     C97202   4.530  12.971   7.949 -0.8396  0.4971  0.0513
  705MOL0     N97203   4.016  12.552   8.138 -0.9459  0.5762 -0.4531
  705MOL0     N97204   3.922  12.471   8.086  0.3859  0.1046 -0.1620
  705MOL0     C97205   3.719  11.714   8.487 -0.3142 -0.5906 -0.0595
  705MOL0     C97206   3.822  11.642   8.426  0.3974 -0.7649 -0.3281
  705MOL0     C97207   4.014  11.263   8.188 -0.8126 -0.9253  0.6549
  705MOL0     C97208   4.005  11.126   8.152  0.1398 -0.1405 -0.3846
  705MOL0     C97209   4.108  11.056   8.081  0.2116 -0.0841  0.4128
  705MOL0     C97210   4.227  11.133   8.039  1.1776  0.0796 -0.4807
  705MOL0     O97211   4.332  11.081   7.976  0.6273  0.3389 -0.5487
  705MOL0     C97212   4.336  10.945   7.933  0.7300  0.7630  0.7546
  705MOL0     C97213   4.442  10.923   7.814  0.0954  0.2774 -0.7800
  705MOL0     C97214   4.463  10.769   7.802 -0.5862 -0.7178  0.4049
  705MOL0     C97215   4.569  10.745   7.705 -0.0018  0.0158  0.2547
  705MOL0     C97216   4.609  10.604   7.694  0.1329 -0.2818 -0.2010
  705MOL0     C97217   4.640  10.486   7.684 -0.4909 -0.1285 -0.7316
  705MOL0     C97218   4.232  11.269   8.072 -0.0524 -0.1831  0.0965
  705MOL0     C97219   4.130  11.336   8.139  0.2835  0.0400  0.6256
  705MOL0     C97220   4.144  11.477   8.161  0.2049  0.5259  0.4352
  705MOL0     H97221   3.623  11.378   8.331 -0.2291 -1.7244  1.2367
  705MOL0     H97222   3.463  11.510   8.461  0.3844 -0.0601  1.0267
  705MOL0     H97223   3.328  11.673   8.491  0.8568 -1.2130 -0.1512
  705MOL0     H97224   3.416  11.734   8.361 -2.3992 -1.5051 -0.9480
  705MOL0     H97225   3.248  11.910   8.389  1.3512  3.5924 -0.5741
  705MOL0     H97226   3.278  11.925   8.563 -3.1210 -0.8647 -1.4218
  705MOL0     H97227   3.369  12.116   8.460 -0.7946  1.0406 -2.3192
  705MOL0     H97228   3.501  12.008   8.503 -0.9825 -2.7664  1.0420
  705MOL0     H97229   3.486  11.953   8.234  0.4728  1.1223 -0.7468
  705MOL0     H97230   3.381  12.071   8.220 -0.3549 -1.2345  0.3344
  705MOL0     H97231   3.636  12.113   8.193  0.4392 -1.0535  0.7891
  705MOL0     H97232   3.644  12.127   8.370  0.8404  2.3023 -0.1349
  705MOL0     H97233   3.463  12.307   8.215  0.6088  2.3979  1.0815
  705MOL0     H97234   3.480  12.302   8.389 -1.2416  3.1663 -0.6517
  705MOL0     H97235   3.732  12.364   8.342  0.2821  1.6708 -0.1714
  705MOL0     H97236   3.601  12.476   8.316 -2.5860  0.2513 -1.5295
  705MOL0     H97237   3.708  12.308   8.087 -0.1794 -0.7521  1.1984
  705MOL0     H97238   3.598  12.434   8.075 -1.3749 -2.4712  0.0035
  705MOL0     H97239   3.736  12.662   8.275 -3.0587 -0.7151 -2.3221
  705MOL0     H97240   4.025  12.674   8.411 -0.0708 -1.7823 -1.3208
  705MOL0     H97241   3.942  12.820   8.328 -0.5697 -0.2957 -5.7357
  705MOL0     H97242   4.174  12.859   8.349 -3.6031  0.4682  0.8611
  705MOL0     H97243   4.212  12.707   8.253  1.0349  0.3481 -0.1087
  705MOL0     H97244   4.081  12.822   8.070  0.9417 -1.9761  0.4188
  705MOL0     H97245   4.099  12.977   8.152 -3.2606 -1.2226 -1.4317
  705MOL0     H97246   4.364  12.923   8.143  3.3037 -1.2048 -2.3226
  705MOL0     H97247   4.322  12.787   8.051  0.6334  0.5210 -0.2389
  705MOL0     H97248   4.309  13.192   7.813 -0.6946 -0.7432  0.6382
  705MOL0     H97249   4.541  13.345   7.639  0.4609 -2.0217  1.3980
  705MOL0     H97250   4.552  13.435   7.797  0.4457 -0.0943 -0.4996
  705MOL0     H97251   4.398  13.375   7.742 -1.9727 -2.5322 -2.5295
  705MOL0     H97252   5.023  13.393   7.828 -2.1847  1.6281  0.3906
  705MOL0     H97253   5.206  13.486   7.675 -0.2187  0.0531  0.3186
  705MOL0     H97254   5.110  13.565   7.260 -0.4528 -2.0284  3.5809
  705MOL0     H97255   5.166  13.700   7.365  1.8955 -1.0156  3.2312
  705MOL0     H97256   5.370  13.556   7.215  0.2839 -0.2513  2.2634
  705MOL0     H97257   5.281  13.684   7.130 -1.3687 -2.9050 -0.9057
  705MOL0     H97258   5.453  13.722   7.383  1.5024 -0.3346 -1.1275
  705MOL0     H97259   5.323  13.843   7.336  1.3598  0.8493  1.3073
  705MOL0     H97260   5.435  13.875   7.122 -1.6195 -0.6768  1.2197
  705MOL0     H97261   5.575  13.778   7.176  2.1923  3.5726  0.2709
  705MOL0     H97262   5.473  14.032   7.317  2.0212  1.1579  1.6770
  705MOL0     H97263   5.597  13.929   7.378  0.1196 -1.4835 -0.4983
  705MOL0     H97264   5.591  14.056   7.106 -0.2611 -0.6806  0.2470
  705MOL0     H97265   5.727  13.960   7.179 -0.0908 -0.3458 -0.0730
  705MOL0     H97266   5.732  14.139   7.371 -0.8399  1.6265  0.4428
  705MOL0     H97267   5.604  14.222   7.274 -0.8124 -0.3900 -0.2484
  705MOL0     H97268   5.779  14.221   7.076  0.8051  1.0804  0.1150
  705MOL0     H97269   5.897  14.167   7.207 -0.9867 -2.7761 -0.3646
  705MOL0     H97270   4.959  13.453   7.333 -0.8089  0.7755  0.0220
  705MOL0     H97271   4.769  13.359   7.483 -0.8820 -3.3215  3.8471
  705MOL0     H97272   4.742  12.978   7.922  0.7612  0.8940 -0.3578
  705MOL0     H97273   4.538  12.888   8.018  2.3720  1.6176  1.2079
  705MOL0     H97274   3.750  11.816   8.505  1.9843 -0.6108 -3.0952
  705MOL0     H97275   3.915  11.695   8.406 -0.5138  1.1102  0.1406
  705MOL0     H97276   3.916  11.073   8.182 -1.3691  2.7047  0.6046
  705MOL0     H97277   4.102  10.951   8.057 -1.3944  0.7290 -3.6264
  705MOL0     H97278   4.364  10.875   8.013  0.1085  0.3351  0.6024
  705MOL0     H97279   4.240  10.932   7.883  1.0624 -0.0751  0.3064
  705MOL0     H97280   4.537  10.967   7.847 -0.2278 -0.0877  0.6924
  705MOL0     H97281   4.418  10.973   7.720 -0.8843  2.5050  0.5952
  705MOL0     H97282   4.501  10.733   7.898  2.5292 -1.2861 -0.9484
  705MOL0     H97283   4.369  10.715   7.786 -0.0730 -1.6955  0.6670
  705MOL0     H97284   4.656  10.811   7.714  1.4259 -1.2340 -2.8273
  705MOL0     H97285   4.530  10.764   7.604 -1.9996 -2.5223  0.4566
  705MOL0     H97286   4.673  10.385   7.673 -3.0778 -1.0658 -0.5323
  705MOL0     H97287   4.321  11.328   8.055  0.6341 -0.1519  3.2548
  705MOL0     H97288   4.137  11.486   8.270  0.5526  0.3026  0.4772
  705MOL0     H97289   4.245  11.511   8.138 -0.2168  1.2255 -0.4512
  705MOL0     H97290   4.065  11.526   8.103  0.9936  1.1427 -0.1343
  706MOL0     O97291   6.087   1.849   0.534  0.3256 -0.1814  0.1788
  706MOL0     C97292   5.981   1.873   0.584  0.2324  0.0810 -0.2383
  706MOL0     O97293   5.969   1.930   0.710  0.2742  0.3895 -0.0729
  706MOL0     C97294   6.063   2.002   0.771  0.3061 -0.1027  0.0129
  706MOL0     C97295   6.035   2.124   0.823 -0.1723  0.7124 -0.5106
  706MOL0     C97296   6.124   2.216   0.883  0.4538  0.1698  0.6743
  706MOL0     C97297   6.254   2.175   0.891 -0.2941 -0.1634  0.0600
  706MOL0     O97298   6.326   2.278   0.954 -0.2106  0.3581  0.1453
  706MOL0     C97299   6.465   2.279   0.936 -0.0204  0.0325 -0.6741
  706MOL0     C97300   6.525   2.381   1.029 -0.5068  0.0860  0.5732
  706MOL0     C97301   6.672   2.405   1.001  0.3190 -0.6795 -0.4907
  706MOL0     C97302   6.722   2.510   1.097  0.0191  0.0943 -0.2814
  706MOL0     C97303   6.871   2.525   1.085  1.2558 -0.4038  0.6494
  706MOL0     C97304   6.900   2.647   1.172 -0.3791 -1.1646 -1.0458
  706MOL0     C97305   7.044   2.699   1.142  0.4246  1.1061  0.3950
  706MOL0     C97306   7.092   2.836   1.200  0.0227 -0.3992  0.1316
  706MOL0     N97307   7.221   2.878   1.152 -0.0498  0.2289  0.3133
  706MOL0     C97308   7.345   2.826   1.190 -0.3876  0.3228 -0.0284
  706MOL0     C97309   7.437   2.907   1.133  0.4033  0.5809 -0.1735
  706MOL0     C97310   7.585   2.898   1.148  0.5076 -0.5895 -0.1681
  706MOL0     C97311   7.667   3.031   1.153  0.8792  0.4411 -0.1510
  706MOL0     C97312   7.816   3.016   1.195  0.1999 -0.0333 -0.7707
  706MOL0     C97313   7.900   2.957   1.083 -0.6404  0.0191 -0.3569
  706MOL0     O97314   7.894   3.042   0.961 -0.4480 -0.7083 -0.2737
  706MOL0     C97315   7.803   3.025   0.864  1.1839  0.3928  1.2949
  706MOL0     C97316   7.776   2.901   0.808  0.5400 -0.5236  0.1070
  706MOL0     C97317   7.686   2.884   0.694 -1.2630 -0.3003  0.1846
  706MOL0     C97318   7.668   2.751   0.631  0.9519  0.0068 -0.3492
  706MOL0     C97319   7.631   2.999   0.636  0.4952  0.0381 -0.2558
  706MOL0     C97320   7.552   2.999   0.521 -0.0627  0.6637 -0.6813
  706MOL0     O97321   7.558   3.112   0.440  0.0671  0.0172  0.9690
  706MOL0     C97322   7.491   3.103   0.309 -0.7505  0.0408 -0.4698
  706MOL0     C97323   7.466   3.218   0.244  0.2166  0.1744  0.8039
  706MOL0     C97324   7.428   3.226   0.112 -0.1390  0.1332  0.6700
  706MOL0     C97325   7.410   3.108   0.037  0.2841 -0.2992 -0.4182
  706MOL0     O97326   7.367   3.089  -0.091  0.2856 -0.4069  0.1130
  706MOL0     C97327   7.367   3.197  -0.175  0.5336  0.4667  0.3042
  706MOL0     C97328   7.382   3.159  -0.317  0.3888  1.0504 -0.5392
  706MOL0     C97329   7.382   3.283  -0.406  0.1795 -0.5039  0.4693
  706MOL0     C97330   7.418   3.249  -0.552  0.5848  0.0250 -0.2487
  706MOL0     C97331   7.406   3.369  -0.645  0.0327 -0.3678  0.0503
  706MOL0     C97332   7.467   3.347  -0.787  0.5491 -1.4523 -0.6050
  706MOL0     C97333   7.391   3.242  -0.869  0.1635  0.1800 -0.1241
  706MOL0     C97334   7.423   3.251  -1.017  0.5083  0.7485  1.0347
  706MOL0    Cl97335   7.355   3.403  -1.083  0.1967 -0.3410 -0.4394
  706MOL0     C97336   7.443   2.987   0.100  0.8327  0.0030 -0.4982
  706MOL0     C97337   7.478   2.984   0.236  0.0530 -0.2119  1.0070
  706MOL0     O97338   7.470   2.910   0.516  1.1247  0.2067 -0.3977
  706MOL0     C97339   7.655   3.121   0.694  0.4105 -0.7801 -0.5630
  706MOL0     C97340   7.742   3.137   0.804  0.3632  0.7280 -0.8771
  706MOL0     N97341   7.371   2.999   1.049  0.1675 -0.6672  0.2570
  706MOL0     N97342   7.246   2.985   1.073  0.0540  0.7075  0.1360
  706MOL0     C97343   6.298   2.051   0.848  0.0315  0.9019 -0.1280
  706MOL0     C97344   6.197   1.969   0.788 -0.9938 -0.3805 -0.2762
  706MOL0     C97345   5.868   1.818   0.503 -0.4326 -0.3792  0.4610
  706MOL0     C97346   5.891   1.781   0.370  0.1703 -0.1389 -0.6863
  706MOL0     C97347   5.797   1.739   0.283 -0.2134 -0.0552  0.1754
  706MOL0     C97348   5.662   1.751   0.315 -0.4709  0.1011  0.4043
  706MOL0     O97349   5.572   1.739   0.216 -0.7768 -0.5550  0.1668
  706MOL0     C97350   5.455   1.828   0.222 -0.3380 -0.2810  0.5267
  706MOL0     C97351   5.490   1.972   0.227 -0.6725 -0.7198  0.7147
  706MOL0     C97352   5.370   2.053   0.204 -0.0131  0.1508  0.6371
  706MOL0     C97353   5.406   2.202   0.222  0.1446  0.7891  0.4361
  706MOL0     C97354   5.496   2.272   0.127  0.2119 -0.6733  0.5566
  706MOL0     C97355   5.592   2.304   0.055  0.4139 -0.7651 -0.8314
  706MOL0     C97356   5.636   1.763   0.455  0.5375  0.1116 -0.3611
  706MOL0     C97357   5.739   1.797   0.552  0.0757 -0.2846  0.7724
  706MOL0     C97358   5.710   1.783   0.700  0.1385  0.6785  0.0895
  706MOL0     H97359   5.929   2.144   0.820 -0.3868  0.5193  2.4350
  706MOL0     H97360   6.086   2.309   0.922 -2.9518 -1.4263  1.5792
  706MOL0     H97361   6.504   2.283   0.834  2.7635 -3.4834  0.0499
  706MOL0     H97362   6.500   2.182   0.973 -1.9960  0.1451  1.8134
  706MOL0     H97363   6.479   2.480   1.032  2.2002  1.4162  1.1662
  706MOL0     H97364   6.514   2.342   1.131  1.0989  0.8520  1.0672
  706MOL0     H97365   6.732   2.313   0.996 -1.9311 -2.1469 -3.2499
  706MOL0     H97366   6.664   2.448   0.901  1.9624 -1.9745 -1.2239
  706MOL0     H97367   6.675   2.607   1.080 -0.4166  0.4752  2.5469
  706MOL0     H97368   6.691   2.467   1.192  2.3657 -3.0509 -0.7713
  706MOL0     H97369   6.889   2.547   0.980 -2.0324  0.9640  0.2719
  706MOL0     H97370   6.929   2.434   1.104  0.5815 -1.3111 -1.3551
  706MOL0     H97371   6.836   2.732   1.147  3.0667  2.4360  1.0870
  706MOL0     H97372   6.886   2.627   1.279  2.8548 -0.7564 -0.4506
  706MOL0     H97373   7.056   2.705   1.033 -0.8537  3.3950  0.3195
  706MOL0     H97374   7.115   2.624   1.179  1.5925  0.8441 -2.1424
  706MOL0     H97375   7.022   2.913   1.166  1.6704  1.0234 -0.1454
  706MOL0     H97376   7.093   2.827   1.309  1.9317  2.3995  0.4609
  706MOL0     H97377   7.367   2.740   1.252  2.8315  0.0075 -1.4241
  706MOL0     H97378   7.616   2.830   1.068 -1.8874 -3.5844  1.2057
  706MOL0     H97379   7.615   2.848   1.241  1.4576  2.9296  1.5885
  706MOL0     H97380   7.654   3.093   1.064  1.4611 -1.5503 -1.6774
  706MOL0     H97381   7.618   3.087   1.234  1.8271  1.3706 -0.1895
  706MOL0     H97382   7.859   3.115   1.218 -2.5597  1.9246 -3.3390
  706MOL0     H97383   7.821   2.958   1.287 -0.4129  0.0618 -0.6720
  706MOL0     H97384   7.999   2.950   1.128 -1.7626  2.4154  2.8568
  706MOL0     H97385   7.856   2.860   1.059 -0.5632 -0.2961  0.7168
  706MOL0     H97386   7.832   2.817   0.848 -1.5748 -3.3650 -2.4030
  706MOL0     H97387   7.577   2.702   0.666  1.5499  0.0582  1.3804
  706MOL0     H97388   7.743   2.681   0.670  0.3928  0.4167  1.5991
  706MOL0     H97389   7.663   2.752   0.522 -0.4762 -3.0291 -0.4016
  706MOL0     H97390   7.490   3.310   0.296 -0.3909  0.2616  0.9380
  706MOL0     H97391   7.392   3.315   0.061 -3.1881 -1.3769 -0.0066
  706MOL0     H97392   7.271   3.248  -0.167  0.5787  0.6057 -0.0598
  706MOL0     H97393   7.443   3.272  -0.153 -0.9437  1.3412  2.8602
  706MOL0     H97394   7.473   3.098  -0.325  0.0394  0.4123  0.2085
  706MOL0     H97395   7.297   3.097  -0.346  0.3721  0.6541  0.3359
  706MOL0     H97396   7.457   3.356  -0.375 -0.9404  0.8507  0.0949
  706MOL0     H97397   7.279   3.320  -0.399  1.1125  2.3898  0.0211
  706MOL0     H97398   7.356   3.167  -0.589 -2.1947  1.8006  0.2438
  706MOL0     H97399   7.521   3.212  -0.552  0.8330  0.6296 -2.1188
  706MOL0     H97400   7.300   3.396  -0.655  0.4696  1.3329 -0.3781
  706MOL0     H97401   7.457   3.453  -0.596 -0.9814 -0.1711  0.8097
  706MOL0     H97402   7.570   3.310  -0.787  1.8746  1.8985 -1.1312
  706MOL0     H97403   7.462   3.441  -0.843 -0.0940 -0.9323  0.2808
  706MOL0     H97404   7.286   3.271  -0.867  0.1431  0.1016 -0.0769
  706MOL0     H97405   7.412   3.140  -0.834 -1.2623  0.0085  0.3014
  706MOL0     H97406   7.378   3.164  -1.067 -1.5712  0.7339  2.7802
  706MOL0     H97407   7.532   3.256  -1.022  0.6552  1.1940  3.4959
  706MOL0     H97408   7.447   2.898   0.038 -1.9981  0.7033 -1.9077
  706MOL0     H97409   7.526   2.899   0.282 -0.6397 -0.2328  1.7275
  706MOL0     H97410   7.611   3.207   0.644  0.1159 -1.7332 -2.0054
  706MOL0     H97411   7.760   3.233   0.850  0.2020 -0.2572  1.3884
  706MOL0     H97412   6.401   2.017   0.851  0.7117  2.7709 -0.8546
  706MOL0     H97413   6.220   1.869   0.755 -0.7410 -0.7160  0.8995
  706MOL0     H97414   5.993   1.789   0.336  0.5935 -0.4542  0.4811
  706MOL0     H97415   5.819   1.727   0.178  0.8228 -1.1184  0.5057
  706MOL0     H97416   5.397   1.796   0.135  1.6438  0.0606 -1.0043
  706MOL0     H97417   5.402   1.794   0.311  0.0115  1.8923  1.6468
  706MOL0     H97418   5.568   2.007   0.159  1.1065  0.9983  3.4338
  706MOL0     H97419   5.539   2.001   0.321  0.4921  2.6097 -0.7514
  706MOL0     H97420   5.342   2.040   0.099 -1.4311 -0.0838  1.0241
  706MOL0     H97421   5.292   2.025   0.275 -1.0743 -0.6095 -0.7698
  706MOL0     H97422   5.439   2.203   0.326 -1.5094 -0.7660  1.0376
  706MOL0     H97423   5.316   2.264   0.215 -0.2033  0.1428 -1.5495
  706MOL0     H97424   5.664   2.349  -0.010  2.1544 -0.2641  1.3025
  706MOL0     H97425   5.533   1.741   0.479  1.1298 -1.2660  1.0896
  706MOL0     H97426   5.791   1.733   0.754 -1.6211 -0.4239  1.8255
  706MOL0     H97427   5.698   1.881   0.749  1.3442  2.1293 -2.2953
  706MOL0     H97428   5.617   1.728   0.717  0.4589 -0.3332 -1.2804
  707MOL0     O97429  10.197  10.617   3.843  0.8049 -0.2271 -0.0755
  707MOL0     C97430  10.192  10.495   3.824  0.0234 -0.9210  0.2227
  707MOL0     O97431  10.159  10.413   3.921  0.3554 -0.2041 -0.1083
  707MOL0     C97432  10.158  10.477   4.043  0.3170  0.1367  0.2643
  707MOL0     C97433  10.026  10.474   4.089 -1.5890  0.7717 -0.9563
  707MOL0     C97434  10.002  10.509   4.227  0.6831 -0.1085 -0.4124
  707MOL0     C97435  10.112  10.544   4.306 -0.6693  0.3417 -0.0751
  707MOL0     O97436  10.103  10.586   4.434  0.3279  0.8577 -0.1068
  707MOL0     C97437   9.983  10.648   4.472 -0.3735 -0.3967  0.3517
  707MOL0     C97438  10.004  10.762   4.574  0.2217 -0.3702 -0.5919
  707MOL0     C97439  10.057  10.677   4.703 -0.3862 -0.6783 -0.1415
  707MOL0     C97440  10.134  10.758   4.813  1.0780  0.5622  0.5399
  707MOL0     C97441  10.196  10.670   4.913 -0.3417  0.1568  0.0296
  707MOL0     C97442  10.259  10.758   5.017  0.9826  0.7402 -0.1863
  707MOL0     C97443  10.384  10.684   5.076 -0.0872 -0.4477  0.5198
  707MOL0     C97444  10.520  10.708   4.999  0.2983  0.3861 -0.6717
  707MOL0     N97445  10.628  10.631   5.060 -0.7784 -0.1581  0.1932
  707MOL0     C97446  10.632  10.502   5.108 -0.1087 -0.0300 -0.4404
  707MOL0     C97447  10.748  10.493   5.168 -0.1995 -0.0146  0.1456
  707MOL0     C97448  10.806  10.365   5.226 -0.1422  0.7486  0.4157
  707MOL0     C97449  10.806  10.390   5.374  0.1416 -0.1764 -0.3052
  707MOL0     C97450  10.908  10.490   5.433  0.2946  0.9949  0.5678
  707MOL0     C97451  11.001  10.440   5.545 -0.1040  0.3107  0.8781
  707MOL0     O97452  11.086  10.334   5.491  0.6448  0.5468  0.5501
  707MOL0     C97453  11.168  10.262   5.569  0.4738  0.3249  0.1597
  707MOL0     C97454  11.192  10.289   5.708  0.2085 -0.3006  0.1424
  707MOL0     C97455  11.265  10.211   5.795 -0.1302 -0.4329 -0.1138
  707MOL0     C97456  11.295  10.256   5.936  0.4465 -0.1825  0.0726
  707MOL0     C97457  11.310  10.086   5.749  0.2277 -0.5181  0.0149
  707MOL0     C97458  11.372   9.988   5.835 -0.3034  0.2985  0.4796
  707MOL0     O97459  11.292   9.942   5.939 -0.3479  0.8070  0.0292
  707MOL0     C97460  11.350   9.843   6.021 -0.0425  0.0426  0.2195
  707MOL0     C97461  11.306   9.711   5.990  0.2677  0.1905  0.6581
  707MOL0     C97462  11.332   9.612   6.075 -0.3134  0.8439 -1.2519
  707MOL0     C97463  11.410   9.630   6.189 -0.4597 -0.1195 -0.1372
  707MOL0     O97464  11.438   9.519   6.267 -0.5287  0.3858  0.3001
  707MOL0     C97465  11.396   9.522   6.400  0.9999  0.0415 -0.1927
  707MOL0     C97466  11.403   9.377   6.451  0.4155  0.5313  0.3721
  707MOL0     C97467  11.380   9.364   6.603 -1.2312  0.5913 -0.1757
  707MOL0     C97468  11.394   9.221   6.649  0.5458 -0.1770 -0.8248
  707MOL0     C97469  11.380   9.199   6.800  0.0556  0.6452 -0.7907
  707MOL0     C97470  11.517   9.200   6.877 -0.5884 -0.1509 -0.8301
  707MOL0     C97471  11.485   9.164   7.025 -0.5234  0.1239  0.5019
  707MOL0     C97472  11.593   9.198   7.134 -0.6268  0.6100  0.5773
  707MOL0    Cl97473  11.752   9.119   7.090  0.0838  0.0236  0.7724
  707MOL0     C97474  11.445   9.761   6.224 -0.4043  0.0757 -0.1917
  707MOL0     C97475  11.424   9.867   6.138  0.6314  0.2334  0.6616
  707MOL0     O97476  11.475   9.931   5.794 -0.1215  0.4400  0.4079
  707MOL0     C97477  11.293  10.054   5.609  0.1828 -0.6450 -0.2858
  707MOL0     C97478  11.216  10.140   5.523  0.2713 -0.5555  0.0282
  707MOL0     N97479  10.816  10.616   5.161 -0.3972  0.1601  0.1448
  707MOL0     N97480  10.742  10.697   5.090 -0.1215  0.5569 -0.4958
  707MOL0     C97481  10.247  10.547   4.254 -0.3829 -0.3754  0.6153
  707MOL0     C97482  10.271  10.509   4.122  0.6470  0.1204  0.2492
  707MOL0     C97483  10.236  10.436   3.691 -0.3330  0.1153 -0.8374
  707MOL0     C97484  10.317  10.321   3.699 -0.1623  0.2675 -0.3849
  707MOL0     C97485  10.360  10.264   3.576 -0.2694  0.9017 -0.5972
  707MOL0     C97486  10.352  10.337   3.455 -1.0984  1.1940 -0.0923
  707MOL0     O97487  10.408  10.301   3.335  0.1973  0.0735 -0.4305
  707MOL0     C97488  10.374  10.175   3.278 -0.0823 -0.3260 -0.5407
  707MOL0     C97489  10.272  10.194   3.173  0.0167  0.7289  0.8085
  707MOL0     C97490  10.139  10.232   3.227  0.8861  0.3210  0.1725
  707MOL0     C97491  10.021  10.162   3.156 -0.4529 -0.4487 -0.1837
  707MOL0     C97492   9.889  10.174   3.227  0.0418  0.1660 -0.2892
  707MOL0     C97493   9.788  10.171   3.292  1.0961  0.8940 -0.0772
  707MOL0     C97494  10.295  10.464   3.463 -0.4938  1.7671 -0.1068
  707MOL0     C97495  10.228  10.510   3.579 -1.3527 -0.1237  0.7012
  707MOL0     C97496  10.137  10.630   3.556 -0.0932  0.1675 -1.3469
  707MOL0     H97497   9.938  10.446   4.032 -2.2793  0.9752 -0.0116
  707MOL0     H97498   9.904  10.505   4.272  0.0668 -0.8108 -1.7753
  707MOL0     H97499   9.924  10.571   4.523  0.1406  0.8026  2.9106
  707MOL0     H97500   9.925  10.678   4.385  1.0340  0.8841 -0.1768
  707MOL0     H97501  10.081  10.832   4.540  0.7197  0.4188  1.9429
  707MOL0     H97502   9.913  10.818   4.600  0.9352 -0.0160  1.3254
  707MOL0     H97503   9.968  10.639   4.753 -1.6430 -1.7523 -2.9749
  707MOL0     H97504  10.120  10.596   4.665 -0.4554 -0.1619 -1.4310
  707MOL0     H97505  10.203  10.827   4.762  1.2112  0.2704  0.3242
  707MOL0     H97506  10.063  10.813   4.875 -2.1127 -3.0581  0.4380
  707MOL0     H97507  10.281  10.616   4.871  0.5156  0.2983  1.4922
  707MOL0     H97508  10.116  10.603   4.947  0.4951 -1.3293 -0.8609
  707MOL0     H97509  10.292  10.852   4.972  3.6819  0.3049  0.7216
  707MOL0     H97510  10.179  10.783   5.087 -1.0719  0.0921 -2.1627
  707MOL0     H97511  10.345  10.582   5.091  1.3782 -1.0904  0.1071
  707MOL0     H97512  10.407  10.720   5.177 -0.7839 -0.9651  0.8739
  707MOL0     H97513  10.511  10.674   4.895  0.9728 -3.5488  0.3714
  707MOL0     H97514  10.522  10.817   5.001  0.1979  0.3979 -1.0556
  707MOL0     H97515  10.553  10.429   5.091 -0.5682  1.0626 -3.6508
  707MOL0     H97516  10.898  10.327   5.182  0.3732  0.7955  1.4277
  707MOL0     H97517  10.738  10.281   5.207 -0.5393  1.0215  0.6043
  707MOL0     H97518  10.706  10.419   5.408  0.7847 -0.0218  1.6071
  707MOL0     H97519  10.835  10.293   5.417  1.8277 -0.5293 -2.1113
  707MOL0     H97520  10.976  10.522   5.353  2.0022 -0.6025  1.2926
  707MOL0     H97521  10.855  10.579   5.467 -1.3632 -0.8062  2.9895
  707MOL0     H97522  11.067  10.514   5.590  2.8544 -0.7796 -1.3336
  707MOL0     H97523  10.937  10.396   5.622  1.5939 -2.0899  1.0476
  707MOL0     H97524  11.167  10.381   5.761  3.9200  0.1312  1.4972
  707MOL0     H97525  11.350  10.351   5.933  0.4271 -0.0885  1.9458
  707MOL0     H97526  11.354  10.185   5.993 -0.9165 -0.7784  0.7856
  707MOL0     H97527  11.196  10.266   5.981  0.2644  0.0173 -0.3569
  707MOL0     H97528  11.252   9.692   5.898  0.2519  3.4213 -0.1424
  707MOL0     H97529  11.290   9.515   6.053  1.8738 -0.1528 -1.2276
  707MOL0     H97530  11.464   9.582   6.462  0.5374 -0.2147  0.5727
  707MOL0     H97531  11.291   9.551   6.404  0.9320 -0.2775  0.4953
  707MOL0     H97532  11.322   9.318   6.406  2.5843 -1.7520 -0.8059
  707MOL0     H97533  11.498   9.329   6.425 -0.2116 -1.6827  1.8954
  707MOL0     H97534  11.282   9.407   6.630 -2.5364 -0.7551 -2.4567
  707MOL0     H97535  11.448   9.431   6.656 -1.2099  0.2510  0.2387
  707MOL0     H97536  11.490   9.174   6.627  1.3087  0.2661  1.3375
  707MOL0     H97537  11.321   9.161   6.594 -0.9967 -0.2550  1.2231
  707MOL0     H97538  11.304   9.262   6.847 -2.0485 -1.3038 -1.3851
  707MOL0     H97539  11.342   9.097   6.814 -1.1353  1.2416  0.5912
  707MOL0     H97540  11.564   9.298   6.863  0.1138 -0.3992 -0.2665
  707MOL0     H97541  11.575   9.128   6.819 -1.2854  0.4666 -2.3607
  707MOL0     H97542  11.458   9.058   7.032  0.1401 -0.0678  0.1556
  707MOL0     H97543  11.400   9.221   7.064 -1.4629  1.0770 -2.6524
  707MOL0     H97544  11.557   9.140   7.220 -2.9878 -1.9231 -1.9189
  707MOL0     H97545  11.598   9.303   7.162 -1.4330  1.0576 -0.8778
  707MOL0     H97546  11.493   9.775   6.320  2.1970 -4.0971 -0.6321
  707MOL0     H97547  11.446   9.971   6.159  0.9922  0.4277 -0.5935
  707MOL0     H97548  11.334   9.963   5.567  2.5809  0.6274 -0.8518
  707MOL0     H97549  11.176  10.094   5.433  0.5437 -1.2608  0.2566
  707MOL0     H97550  10.328  10.585   4.316  0.9174 -2.4489  0.2702
  707MOL0     H97551  10.371  10.507   4.080  1.3909  1.7484  1.8064
  707MOL0     H97552  10.342  10.270   3.792  2.0899 -0.1252 -1.1437
  707MOL0     H97553  10.429  10.179   3.576 -3.1689 -1.6321 -1.6164
  707MOL0     H97554  10.457  10.129   3.224 -1.1227 -2.4849 -0.4492
  707MOL0     H97555  10.338  10.100   3.350  0.0645 -1.7891 -1.9204
  707MOL0     H97556  10.269  10.099   3.119  0.3118  0.7289  0.7914
  707MOL0     H97557  10.308  10.259   3.092 -1.5936  1.1457  0.3959
  707MOL0     H97558  10.133  10.189   3.327 -2.5496 -0.8768 -0.4107
  707MOL0     H97559  10.105  10.336   3.234 -3.6919 -0.9425  0.4011
  707MOL0     H97560  10.044  10.056   3.142  3.4479  0.2145  0.3445
  707MOL0     H97561  10.003  10.208   3.058 -0.2918 -0.7600 -0.3600
  707MOL0     H97562   9.690  10.174   3.336 -0.1492 -1.7640 -2.3379
  707MOL0     H97563  10.285  10.518   3.369 -0.9726  2.9651  0.6076
  707MOL0     H97564  10.060  10.632   3.634 -0.0159  0.4809 -1.2783
  707MOL0     H97565  10.197  10.721   3.563  0.2440 -0.0745 -1.0213
  707MOL0     H97566  10.092  10.625   3.457  1.3581  0.8170 -2.0646
  708MOL0     O97567   4.683   4.904  11.338 -0.6342  0.5216  0.1616
  708MOL0     C97568   4.791   4.871  11.392  0.7471  0.2381  0.0441
  708MOL0     O97569   4.913   4.898  11.348 -0.2839  0.0179 -0.5524
  708MOL0     C97570   4.938   4.880  11.213  0.6170 -0.6462 -0.4219
  708MOL0     C97571   4.954   4.995  11.133  1.0338  0.5309 -0.6589
  708MOL0     C97572   4.986   4.990  11.000 -0.3403 -0.3224 -0.1873
  708MOL0     C97573   5.001   4.864  10.935  0.0059  0.3370 -0.1139
  708MOL0     O97574   5.023   4.860  10.796  0.2528  0.0793 -0.2601
  708MOL0     C97575   4.988   4.734  10.730  0.7375 -0.5274  0.4487
  708MOL0     C97576   4.998   4.760  10.581 -0.3334  0.4101  0.1534
  708MOL0     C97577   5.052   4.642  10.503  0.2359  0.4215  0.0205
  708MOL0     C97578   5.103   4.697  10.364 -0.2080  0.9849  0.2773
  708MOL0     C97579   5.156   4.592  10.269 -0.2091  0.0133  0.0106
  708MOL0     C97580   5.276   4.518  10.337 -0.6046  0.5850 -0.3307
  708MOL0     C97581   5.325   4.409  10.236 -0.4123 -0.2797 -0.4146
  708MOL0     C97582   5.465   4.359  10.266  0.2371  2.3151 -0.9721
  708MOL0     N97583   5.471   4.329  10.412 -0.3844  0.6179 -0.2131
  708MOL0     C97584   5.391   4.238  10.475  0.6790 -0.1783 -1.2297
  708MOL0     C97585   5.411   4.268  10.610 -0.3520 -0.3717  0.2083
  708MOL0     C97586   5.337   4.208  10.716 -0.1446 -0.3008  0.9091
  708MOL0     C97587   5.209   4.290  10.740 -0.4577 -0.8365 -0.8766
  708MOL0     C97588   5.131   4.232  10.858 -0.2506 -0.0852  0.5873
  708MOL0     C97589   5.195   4.254  11.000  0.6216  0.1253  0.5055
  708MOL0     O97590   5.122   4.364  11.058 -0.3765 -0.0648  0.2707
  708MOL0     C97591   5.180   4.413  11.175  0.8304  0.1467  0.0996
  708MOL0     C97592   5.220   4.549  11.201 -0.0764 -0.2205 -0.0804
  708MOL0     C97593   5.259   4.598  11.330 -0.8171 -0.2311  0.4940
  708MOL0     C97594   5.303   4.742  11.335  1.0630  0.7898  0.2194
  708MOL0     C97595   5.268   4.506  11.430  0.4915  0.2003 -0.5287
  708MOL0     C97596   5.310   4.556  11.560 -0.1017 -1.0973  0.1543
  708MOL0     O97597   5.421   4.481  11.606 -0.6535  0.1233 -0.4482
  708MOL0     C97598   5.463   4.501  11.735  0.7043 -0.2345 -0.1707
  708MOL0     C97599   5.523   4.618  11.775  0.1451 -0.8851  0.0447
  708MOL0     C97600   5.563   4.631  11.904 -0.0197 -0.3632 -1.0626
  708MOL0     C97601   5.565   4.527  12.000 -0.1395 -0.0880  0.4744
  708MOL0     O97602   5.626   4.537  12.126 -0.2184 -1.0787  0.3474
  708MOL0     C97603   5.769   4.554  12.129  0.1995 -0.1699 -0.6639
  708MOL0     C97604   5.820   4.424  12.200  0.9804 -0.4252 -0.8978
  708MOL0     C97605   5.966   4.415  12.232  0.4768  1.2219 -0.0800
  708MOL0     C97606   6.022   4.537  12.310  0.4157 -0.0604  0.1918
  708MOL0     C97607   6.161   4.504  12.391  0.8813 -0.7368 -1.0264
  708MOL0     C97608   6.227   4.624  12.459  0.3856 -0.3388  0.1135
  708MOL0     C97609   6.364   4.570  12.500  0.9578 -0.1443 -0.3608
  708MOL0     C97610   6.448   4.693  12.534 -0.3687  0.2212 -0.1516
  708MOL0    Cl97611   6.365   4.802  12.666  0.2780  0.4816  0.6698
  708MOL0     C97612   5.497   4.411  11.966  0.0189 -0.4151 -0.3523
  708MOL0     C97613   5.455   4.393  11.832  0.1163 -0.4222 -0.2004
  708MOL0     O97614   5.245   4.647  11.618  0.4541 -0.0714 -1.0703
  708MOL0     C97615   5.232   4.372  11.420  0.6113 -0.6781  0.5123
  708MOL0     C97616   5.188   4.328  11.294  0.0942 -0.3070  0.1303
  708MOL0     N97617   5.491   4.377  10.623 -0.3530  0.1571 -0.3797
  708MOL0     N97618   5.514   4.421  10.506 -0.2510  0.2560 -0.0230
  708MOL0     C97619   4.982   4.744  11.019 -0.9466 -0.2796 -0.4502
  708MOL0     C97620   4.952   4.758  11.156 -0.9524 -0.1785 -0.0525
  708MOL0     C97621   4.793   4.800  11.522  0.0987  0.4605 -0.2493
  708MOL0     C97622   4.909   4.796  11.600  0.0177 -0.5786  0.0392
  708MOL0     C97623   4.909   4.757  11.725 -0.4874 -1.1363 -0.1373
  708MOL0     C97624   4.797   4.716  11.788 -0.5938  0.4789  0.8841
  708MOL0     O97625   4.820   4.684  11.916 -0.2362  0.8259  0.0249
  708MOL0     C97626   4.702   4.648  11.993 -0.5820  0.5714  0.2488
  708MOL0     C97627   4.748   4.622  12.142  0.3426 -0.2616  0.6019
  708MOL0     C97628   4.631   4.597  12.241  0.4391  0.4713  0.9960
  708MOL0     C97629   4.689   4.565  12.373 -0.5027  0.5065  0.2865
  708MOL0     C97630   4.595   4.525  12.475 -0.4099 -0.2772 -0.3480
  708MOL0     C97631   4.536   4.489  12.572  0.5824 -0.9016  0.4311
  708MOL0     C97632   4.681   4.708  11.714  0.1970 -0.8990  0.0115
  708MOL0     C97633   4.673   4.751  11.583 -0.6675 -0.1230  0.9612
  708MOL0     C97634   4.532   4.727  11.512  0.5476 -0.8011  0.0040
  708MOL0     H97635   4.933   5.092  11.177 -0.5133  1.0755 -2.4443
  708MOL0     H97636   4.986   5.086  10.951 -3.9283  0.3154  0.7902
  708MOL0     H97637   4.883   4.713  10.752  0.8497 -1.0202  0.5123
  708MOL0     H97638   5.066   4.667  10.769  2.3053  2.3480  2.7407
  708MOL0     H97639   4.900   4.784  10.539 -1.0381 -0.8015  1.0236
  708MOL0     H97640   5.059   4.848  10.561 -1.6398  1.6879  1.4875
  708MOL0     H97641   5.138   4.597  10.555 -0.7658 -1.6531  0.0099
  708MOL0     H97642   4.975   4.567  10.483  1.8991 -1.4118  0.0678
  708MOL0     H97643   5.029   4.761  10.315 -1.4857 -1.8937 -1.8310
  708MOL0     H97644   5.185   4.765  10.385 -0.6016  1.1589  1.2894
  708MOL0     H97645   5.190   4.634  10.173  2.6676  1.3989  1.4999
  708MOL0     H97646   5.071   4.526  10.251 -1.1184  0.8553  1.0488
  708MOL0     H97647   5.345   4.601  10.358 -1.3862  2.0796 -3.1567
  708MOL0     H97648   5.247   4.462  10.426  2.1664 -3.1485 -1.5027
  708MOL0     H97649   5.319   4.445  10.133 -0.7086 -3.4732 -1.6434
  708MOL0     H97650   5.248   4.331  10.232 -0.1640 -0.5681  0.3152
  708MOL0     H97651   5.485   4.262  10.220  0.8504  1.7237  0.5005
  708MOL0     H97652   5.541   4.425  10.221  1.2288  1.3192 -0.7879
  708MOL0     H97653   5.309   4.174  10.448 -0.6655 -0.2671  2.4406
  708MOL0     H97654   5.408   4.221  10.799  1.6810  0.1353 -0.6502
  708MOL0     H97655   5.309   4.103  10.703 -0.6428  0.0517 -1.1389
  708MOL0     H97656   5.231   4.395  10.759 -2.4140 -0.2553 -1.6155
  708MOL0     H97657   5.150   4.299  10.649 -0.1355  1.0554 -0.9368
  708MOL0     H97658   5.030   4.275  10.855 -0.0128  0.5978  1.6453
  708MOL0     H97659   5.121   4.125  10.841 -1.7641  0.2765 -1.2452
  708MOL0     H97660   5.184   4.165  11.063 -1.8292 -0.6696 -0.9022
  708MOL0     H97661   5.300   4.282  10.994  0.5748  0.1063 -0.5334
  708MOL0     H97662   5.196   4.617  11.119 -1.2608  1.2051  1.3800
  708MOL0     H97663   5.301   4.796  11.239 -1.0826 -0.8631 -0.7544
  708MOL0     H97664   5.406   4.740  11.371  0.2080 -2.5638  2.8948
  708MOL0     H97665   5.246   4.804  11.404  0.8933  0.7017  0.1584
  708MOL0     H97666   5.548   4.697  11.705 -0.6434  1.2086  1.9587
  708MOL0     H97667   5.637   4.707  11.927  0.3727 -1.7233  2.8873
  708MOL0     H97668   5.805   4.557  12.026 -1.4998  2.0986 -1.2695
  708MOL0     H97669   5.802   4.650  12.169 -0.0630 -0.3350 -0.0338
  708MOL0     H97670   5.759   4.417  12.290 -0.3560 -4.3834 -1.9072
  708MOL0     H97671   5.789   4.339  12.138 -1.9827  1.2510 -1.9009
  708MOL0     H97672   6.021   4.402  12.139  0.3967 -2.5613  0.2232
  708MOL0     H97673   5.974   4.315  12.276 -1.8471 -1.1889 -4.4904
  708MOL0     H97674   5.949   4.569  12.386  1.6731 -0.6274  1.6897
  708MOL0     H97675   6.042   4.619  12.240  1.6504 -1.9600 -1.7768
  708MOL0     H97676   6.145   4.426  12.466  0.7014 -1.6278 -1.9668
  708MOL0     H97677   6.227   4.464  12.313  0.1844 -0.0534 -1.9932
  708MOL0     H97678   6.178   4.671  12.545  1.9322  1.2508  0.1929
  708MOL0     H97679   6.233   4.697  12.377 -0.8899  0.2680  0.5329
  708MOL0     H97680   6.414   4.500  12.432  1.0719 -0.4564  0.0386
  708MOL0     H97681   6.353   4.522  12.598 -2.1140  2.0448  0.4990
  708MOL0     H97682   6.467   4.750  12.443  0.0877 -0.8378 -0.7386
  708MOL0     H97683   6.546   4.671  12.577 -0.2683 -0.3678 -0.6626
  708MOL0     H97684   5.494   4.326  12.034  0.0829  0.4136  0.7144
  708MOL0     H97685   5.416   4.294  11.812 -0.5958 -0.3639  0.7769
  708MOL0     H97686   5.248   4.303  11.502 -0.4123  1.6570  2.8094
  708MOL0     H97687   5.129   4.236  11.298 -0.1633 -0.1051  1.4414
  708MOL0     H97688   4.984   4.643  10.981  1.0174 -0.2804 -0.4129
  708MOL0     H97689   4.935   4.669  11.215  0.9812 -1.9477 -1.9979
  708MOL0     H97690   5.007   4.830  11.570  0.1371  0.3673  1.3887
  708MOL0     H97691   5.006   4.761  11.773 -1.4658 -1.7577  2.0177
  708MOL0     H97692   4.626   4.727  11.990 -0.7839  0.3538 -0.9283
  708MOL0     H97693   4.657   4.557  11.952 -1.4934  1.2738 -0.3441
  708MOL0     H97694   4.811   4.705  12.176  1.0574  0.4454 -2.2324
  708MOL0     H97695   4.815   4.538  12.121 -1.1888 -1.4694  0.3912
  708MOL0     H97696   4.570   4.687  12.255  2.8951  2.1499  1.5735
  708MOL0     H97697   4.556   4.523  12.210 -1.5664  3.8345 -3.2155
  708MOL0     H97698   4.752   4.644  12.414  0.6803  0.2325 -0.9185
  708MOL0     H97699   4.756   4.481  12.351 -0.7820  0.3358  0.0851
  708MOL0     H97700   4.482   4.455  12.658 -3.0472 -1.6358 -1.9138
  708MOL0     H97701   4.590   4.664  11.754 -2.2113  3.2818 -0.3907
  708MOL0     H97702   4.470   4.648  11.555  0.0553 -0.1288  0.5351
  708MOL0     H97703   4.467   4.815  11.509 -0.7154 -1.6898  0.8324
  708MOL0     H97704   4.541   4.704  11.405  1.2634  1.2589 -0.4200
  709MOL0     O97705   0.997  10.170  10.924  0.3582 -0.6469 -0.4396
  709MOL0     C97706   0.921  10.132  10.834 -0.5690  0.0382 -0.3531
  709MOL0     O97707   0.961  10.061  10.722  0.4138  0.1220  0.7276
  709MOL0     C97708   1.090  10.040  10.678  0.9425  0.4176 -0.5814
  709MOL0     C97709   1.089  10.037  10.542 -0.0136 -0.2901  0.1999
  709MOL0     C97710   1.210  10.029  10.474  0.0299 -0.0576  0.1792
  709MOL0     C97711   1.330  10.002  10.550 -0.4564  0.3335  0.8932
  709MOL0     O97712   1.452  10.023  10.503  0.1839 -0.5810  0.1454
  709MOL0     C97713   1.474  10.151  10.433  0.1138  0.1398  0.2520
  709MOL0     C97714   1.486  10.276  10.525 -0.0805  0.9244  0.1263
  709MOL0     C97715   1.607  10.252  10.619  0.4050 -0.1828 -0.3943
  709MOL0     C97716   1.641  10.369  10.711 -0.7997 -0.1881 -0.1153
  709MOL0     C97717   1.685  10.500  10.641  0.5264 -0.8356 -0.4384
  709MOL0     C97718   1.810  10.494  10.546 -0.1762 -1.0254 -0.5665
  709MOL0     C97719   1.876  10.631  10.528 -0.3094  0.2893  0.0463
  709MOL0     C97720   1.990  10.628  10.420 -0.2614 -0.1450  0.5980
  709MOL0     N97721   1.949  10.577  10.287  0.1805 -0.4684  0.0687
  709MOL0     C97722   1.838  10.603  10.218 -0.1911  1.1430 -0.8898
  709MOL0     C97723   1.871  10.537  10.102  1.2829 -0.3818 -0.1067
  709MOL0     C97724   1.777  10.506   9.991 -0.5253 -0.5274 -0.7013
  709MOL0     C97725   1.687  10.399  10.042 -0.0228 -0.5892 -0.1958
  709MOL0     C97726   1.625  10.326   9.922 -0.4891  0.0295 -0.7587
  709MOL0     C97727   1.496  10.255   9.956  0.0366 -0.0818 -0.8262
  709MOL0     O97728   1.520  10.150  10.058  0.7933 -0.3176 -0.6348
  709MOL0     C97729   1.534  10.018  10.025  0.9169  0.4496 -1.2443
  709MOL0     C97730   1.504   9.918  10.124  0.2951  0.3507  0.2550
  709MOL0     C97731   1.497   9.782  10.096  0.1726  0.3886  0.2545
  709MOL0     C97732   1.465   9.675  10.203 -0.7063 -0.0300  0.5124
  709MOL0     C97733   1.515   9.743   9.956 -0.8524 -0.0792  0.1306
  709MOL0     C97734   1.523   9.602   9.908 -0.3833 -0.4076 -0.7304
  709MOL0     O97735   1.462   9.569   9.783  0.0604  0.4766 -0.8695
  709MOL0     C97736   1.447   9.434   9.746 -0.2859  0.2767  0.2328
  709MOL0     C97737   1.454   9.319   9.828  0.6913  0.0896  0.5250
  709MOL0     C97738   1.433   9.192   9.765  0.0050 -0.3869 -0.5573
  709MOL0     C97739   1.378   9.178   9.627 -0.2510  0.4056  0.7576
  709MOL0     O97740   1.350   9.057   9.564  0.0967  0.3651 -0.3130
  709MOL0     C97741   1.385   8.948   9.648  0.5505  0.1372  0.9870
  709MOL0     C97742   1.311   8.830   9.583  0.0505 -0.2569  0.5877
  709MOL0     C97743   1.296   8.699   9.668  0.6500 -0.9643  0.0344
  709MOL0     C97744   1.433   8.618   9.666  0.2065 -0.4395 -0.0423
  709MOL0     C97745   1.477   8.551   9.535 -0.0933  0.3030  0.5609
  709MOL0     C97746   1.600   8.459   9.537 -0.4695 -0.0037 -0.0743
  709MOL0     C97747   1.567   8.330   9.606 -0.2193 -0.7870 -1.3561
  709MOL0     C97748   1.685   8.228   9.599  0.2152 -0.4576 -0.8580
  709MOL0    Cl97749   1.697   8.123   9.745 -0.0263  0.1259  0.1289
  709MOL0     C97750   1.369   9.296   9.557  0.1388  0.7154  0.1094
  709MOL0     C97751   1.409   9.422   9.610  0.5247 -0.4045  0.3318
  709MOL0     O97752   1.599   9.534   9.972  0.4372  0.0275  0.4130
  709MOL0     C97753   1.532   9.850   9.863 -0.3541  0.3824  0.0978
  709MOL0     C97754   1.556   9.975   9.894  0.2592 -0.0196 -0.2846
  709MOL0     N97755   1.991  10.486  10.110 -0.7297  0.6041  0.5172
  709MOL0     N97756   2.035  10.499  10.226 -0.3212 -0.1888  0.1323
  709MOL0     C97757   1.318   9.981  10.689 -0.7259  0.3591 -0.1593
  709MOL0     C97758   1.202  10.005  10.759  0.6015 -0.1347  0.6421
  709MOL0     C97759   0.775  10.177  10.830  0.4574 -0.2377 -0.6091
  709MOL0     C97760   0.702  10.153  10.715  0.0716 -0.3949  0.7755
  709MOL0     C97761   0.574  10.200  10.705  0.6494  0.7453 -0.7158
  709MOL0     C97762   0.511  10.260  10.809  0.5923 -0.2514 -0.5816
  709MOL0     O97763   0.375  10.302  10.790 -0.3916  0.6111 -0.0143
  709MOL0     C97764   0.345  10.422  10.860  0.0909  0.4833  0.3396
  709MOL0     C97765   0.244  10.506  10.782 -1.0159  0.6305 -0.6608
  709MOL0     C97766   0.237  10.657  10.833  0.1429 -0.1239 -0.5467
  709MOL0     C97767   0.167  10.652  10.970  0.6598 -0.0955  0.6096
  709MOL0     C97768   0.119  10.791  10.998  0.1628 -0.0557 -1.0509
  709MOL0     C97769   0.079  10.902  11.026 -0.2162  0.0496 -0.4480
  709MOL0     C97770   0.587  10.286  10.924  0.5625 -0.0933  0.1855
  709MOL0     C97771   0.717  10.242  10.938  0.0004  0.8071 -0.1180
  709MOL0     C97772   0.783  10.263  11.071  0.2875 -0.5580 -0.0611
  709MOL0     H97773   1.003  10.058  10.479 -0.1263  0.0095  0.4485
  709MOL0     H97774   1.220  10.038  10.367 -0.6821 -1.1147  0.0131
  709MOL0     H97775   1.394  10.182  10.365 -2.2649  2.0752  3.6517
  709MOL0     H97776   1.572  10.142  10.385 -0.3382 -3.0285 -0.2690
  709MOL0     H97777   1.491  10.368  10.466  0.4044  1.4336  0.9418
  709MOL0     H97778   1.394  10.260  10.581 -0.4789  0.2651 -0.6792
  709MOL0     H97779   1.587  10.172  10.691  2.7350 -1.0227 -0.5940
  709MOL0     H97780   1.702  10.220  10.576  0.9418 -2.3666  2.1354
  709MOL0     H97781   1.548  10.392  10.764 -2.2586 -0.7240 -2.2980
  709MOL0     H97782   1.721  10.350  10.783 -0.9378  3.2488  1.1180
  709MOL0     H97783   1.701  10.578  10.717 -0.1703 -3.2545  2.3976
  709MOL0     H97784   1.603  10.528  10.575  0.6695 -0.1248 -0.3272
  709MOL0     H97785   1.875  10.424  10.599 -2.6845 -0.8499  3.2027
  709MOL0     H97786   1.787  10.460  10.445 -0.9361  3.8502 -2.3162
  709MOL0     H97787   1.916  10.661  10.625  3.1169 -0.6083 -0.9362
  709MOL0     H97788   1.799  10.705  10.503 -0.6708  0.6464  2.0639
  709MOL0     H97789   2.037  10.726  10.408 -1.3457  0.3090 -0.0781
  709MOL0     H97790   2.055  10.552  10.465 -1.0092 -1.0549  0.1726
  709MOL0     H97791   1.744  10.642  10.255 -0.1681 -0.4879  1.0995
  709MOL0     H97792   1.831  10.471   9.902 -1.2333  1.4213 -1.9588
  709MOL0     H97793   1.728  10.601   9.968  2.4839  0.4845 -3.7640
  709MOL0     H97794   1.734  10.337  10.119 -0.9240  1.5233  2.1956
  709MOL0     H97795   1.603  10.445  10.096 -0.4486 -1.0931 -0.4174
  709MOL0     H97796   1.599  10.399   9.844  0.6585 -0.0613 -1.2396
  709MOL0     H97797   1.700  10.262   9.875  2.3027  3.7649 -1.8036
  709MOL0     H97798   1.428  10.322  10.009  0.0443  1.0680 -2.1855
  709MOL0     H97799   1.451  10.207   9.869  1.3261 -3.2005  0.0949
  709MOL0     H97800   1.497   9.955  10.225 -1.1823 -0.6129  0.5458
  709MOL0     H97801   1.436   9.713  10.301  0.2061  0.5863  0.5620
  709MOL0     H97802   1.548   9.609  10.230  0.0113  1.5972  2.5450
  709MOL0     H97803   1.380   9.615  10.169 -0.4047  0.6579 -1.6300
  709MOL0     H97804   1.481   9.327   9.933  1.4093  2.5062  0.2357
  709MOL0     H97805   1.442   9.104   9.827 -0.5872 -0.5776 -0.7397
  709MOL0     H97806   1.492   8.927   9.658  0.3199 -0.7029  1.8049
  709MOL0     H97807   1.338   8.944   9.747  2.0591 -1.0448  1.6882
  709MOL0     H97808   1.204   8.848   9.570  0.5992  2.4848 -0.7959
  709MOL0     H97809   1.351   8.814   9.483  1.2995 -0.0197  1.0280
  709MOL0     H97810   1.212   8.645   9.622  0.5019 -0.4431 -0.3238
  709MOL0     H97811   1.261   8.723   9.768  0.9285 -0.2194 -0.0439
  709MOL0     H97812   1.424   8.542   9.744 -0.8907  0.9714  1.2691
  709MOL0     H97813   1.516   8.686   9.686  0.0307  0.0228 -0.8394
  709MOL0     H97814   1.394   8.490   9.498 -0.9947  2.5141 -1.3361
  709MOL0     H97815   1.490   8.627   9.457  0.7714  1.6801  1.9861
  709MOL0     H97816   1.688   8.503   9.586  0.0072  1.5353 -2.2062
  709MOL0     H97817   1.628   8.430   9.436 -0.2783 -2.9956  0.7448
  709MOL0     H97818   1.481   8.293   9.550 -0.6615  1.9811 -2.6676
  709MOL0     H97819   1.554   8.351   9.712 -0.5638  3.1458 -2.0281
  709MOL0     H97820   1.786   8.270   9.589  0.6164 -0.6092  1.8114
  709MOL0     H97821   1.646   8.158   9.524 -0.4445  0.1517 -1.0872
  709MOL0     H97822   1.318   9.294   9.461  2.3841  1.7362 -1.1792
  709MOL0     H97823   1.404   9.511   9.548 -1.8796 -0.9394 -0.3625
  709MOL0     H97824   1.565   9.825   9.762  0.9345  3.7325 -0.4373
  709MOL0     H97825   1.577  10.040   9.809 -3.7434  0.2444 -1.2644
  709MOL0     H97826   1.395   9.942  10.755 -2.8784 -3.4536  0.3986
  709MOL0     H97827   1.190   9.998  10.867  1.6089 -0.1297  0.7637
  709MOL0     H97828   0.746  10.108  10.626 -0.5801 -2.1356  1.2975
  709MOL0     H97829   0.516  10.194  10.613  1.4840 -2.1749 -1.1505
  709MOL0     H97830   0.299  10.405  10.958  0.0351 -0.0559  0.2217
  709MOL0     H97831   0.434  10.485  10.865  1.0860 -0.8024 -0.7180
  709MOL0     H97832   0.151  10.448  10.781 -0.3426 -0.4702 -0.4848
  709MOL0     H97833   0.278  10.516  10.678 -0.0278  1.5985 -0.2612
  709MOL0     H97834   0.334  10.706  10.846  1.7144 -2.8850 -1.0748
  709MOL0     H97835   0.175  10.706  10.758  0.3663 -0.0137 -0.6586
  709MOL0     H97836   0.240  10.630  11.048  0.9041  2.5031  1.2172
  709MOL0     H97837   0.086  10.578  10.975 -0.8744  1.4222 -0.4121
  709MOL0     H97838   0.042  10.999  11.052 -1.1769  0.0604 -1.7430
  709MOL0     H97839   0.527  10.319  11.009 -0.1924 -0.4180 -0.2155
  709MOL0     H97840   0.822  10.171  11.117  1.4094 -0.3443 -0.5437
  709MOL0     H97841   0.864  10.336  11.067  0.1122 -0.2913  1.1520
  709MOL0     H97842   0.714  10.318  11.135 -0.0526 -2.0348  0.9000
  710MOL0     O97843   3.097   2.623   2.859 -0.3053 -0.0620 -0.8565
  710MOL0     C97844   3.201   2.565   2.836 -0.5455  0.2073 -0.1926
  710MOL0     O97845   3.296   2.601   2.742 -0.7126 -0.0235  0.7426
  710MOL0     C97846   3.269   2.712   2.665 -0.0344 -0.6164 -0.4917
  710MOL0     C97847   3.237   2.830   2.732  0.2164  0.1550 -0.5010
  710MOL0     C97848   3.210   2.952   2.669  0.6912 -0.8645  0.5435
  710MOL0     C97849   3.201   2.957   2.530  0.0335 -0.3544  0.3172
  710MOL0     O97850   3.168   3.065   2.453 -0.2178  0.0014  0.9081
  710MOL0     C97851   3.154   3.191   2.509 -0.2865 -0.4382  0.0912
  710MOL0     C97852   3.063   3.280   2.418  0.0325  0.3533  0.5613
  710MOL0     C97853   3.125   3.296   2.276 -0.8827  0.7079 -0.9291
  710MOL0     C97854   3.013   3.329   2.180 -0.2257  1.4650 -0.1588
  710MOL0     C97855   3.049   3.402   2.048 -0.7615  1.1170  0.4202
  710MOL0     C97856   3.150   3.310   1.970 -0.2473 -0.0089  0.1244
  710MOL0     C97857   3.181   3.353   1.825 -0.3559 -0.4664 -0.2426
  710MOL0     C97858   3.265   3.481   1.818 -0.1422  0.6816 -0.6978
  710MOL0     N97859   3.295   3.506   1.678 -0.1793 -1.0381  0.8769
  710MOL0     C97860   3.310   3.639   1.633 -0.3307  0.3960  0.7290
  710MOL0     C97861   3.381   3.630   1.522  0.0150 -0.3381 -0.4956
  710MOL0     C97862   3.412   3.742   1.433  0.4636 -1.1345  0.4382
  710MOL0     C97863   3.561   3.769   1.417 -0.3089  0.0316  0.6790
  710MOL0     C97864   3.613   3.857   1.529  0.1188 -0.6890  0.7170
  710MOL0     C97865   3.765   3.866   1.531 -0.1439  0.0551  0.5831
  710MOL0     O97866   3.816   3.742   1.579  0.4581  0.1907  0.0541
  710MOL0     C97867   3.952   3.730   1.605  0.4547  0.4439  0.5331
  710MOL0     C97868   4.005   3.617   1.666 -0.1274  0.5872 -0.3355
  710MOL0     C97869   4.136   3.584   1.692 -0.2943 -0.0509  1.3027
  710MOL0     C97870   4.181   3.445   1.719  1.1922  1.8198  0.0345
  710MOL0     C97871   4.227   3.681   1.644  1.3062 -0.5951  1.1663
  710MOL0     C97872   4.377   3.673   1.654 -0.2466  0.1388 -0.2255
  710MOL0     O97873   4.444   3.760   1.584  0.1016 -0.5928  0.4438
  710MOL0     C97874   4.564   3.804   1.609 -0.0523 -0.4249  0.6466
  710MOL0     C97875   4.656   3.821   1.511 -0.1748  0.4589  0.6031
  710MOL0     C97876   4.785   3.857   1.540 -0.6363  0.7551  0.2310
  710MOL0     C97877   4.829   3.882   1.669 -0.6455 -0.0624  0.0528
  710MOL0     O97878   4.959   3.924   1.686  0.0878 -0.3312  0.1239
  710MOL0     C97879   4.979   4.012   1.797  0.2015 -0.8291  0.3690
  710MOL0     C97880   5.134   4.035   1.803  0.1826 -0.0109  0.3124
  710MOL0     C97881   5.176   4.120   1.920  0.3822 -0.7016 -0.1294
  710MOL0     C97882   5.328   4.130   1.927  0.3625 -0.7893 -0.0249
  710MOL0     C97883   5.373   4.209   2.051 -0.2202 -0.6391  0.0039
  710MOL0     C97884   5.530   4.229   2.061 -0.1192  0.1552  0.1130
  710MOL0     C97885   5.583   4.311   1.946  0.4314  0.0704 -0.1452
  710MOL0     C97886   5.717   4.249   1.889 -0.3498  0.5622 -0.0477
  710MOL0    Cl97887   5.704   4.093   1.808  0.2257  0.6367 -0.1598
  710MOL0     C97888   4.740   3.858   1.769 -0.9828 -0.5879 -0.5735
  710MOL0     C97889   4.610   3.826   1.744  0.2152 -0.0368  0.0923
  710MOL0     O97890   4.433   3.592   1.734  0.0292  0.3245  0.5652
  710MOL0     C97891   4.176   3.786   1.572  0.4049 -0.1582 -1.0080
  710MOL0     C97892   4.042   3.816   1.558 -0.1279 -0.5765 -0.1436
  710MOL0     N97893   3.409   3.494   1.505 -0.7442 -0.4238  0.5448
  710MOL0     N97894   3.351   3.424   1.594  0.4845 -0.1051  0.3668
  710MOL0     C97895   3.223   2.833   2.465 -0.3335 -0.1562  0.3775
  710MOL0     C97896   3.256   2.715   2.528  0.1269 -1.3340 -0.0585
  710MOL0     C97897   3.236   2.451   2.923 -0.1446  0.0372 -0.6826
  710MOL0     C97898   3.280   2.335   2.853  0.1196  0.5497 -0.5237
  710MOL0     C97899   3.307   2.218   2.918 -0.1156 -0.1305  0.1835
  710MOL0     C97900   3.293   2.214   3.055 -0.0758  0.2335 -0.0661
  710MOL0     O97901   3.307   2.093   3.114 -0.3648  0.6061  0.3932
  710MOL0     C97902   3.209   2.051   3.215 -0.4515 -0.3123  0.4793
  710MOL0     C97903   3.227   1.899   3.229 -0.3755 -0.6253  0.2722
  710MOL0     C97904   3.359   1.851   3.299 -0.1470 -0.6559 -0.2370
  710MOL0     C97905   3.398   1.703   3.254  0.4743  0.1557  0.5083
  710MOL0     C97906   3.310   1.599   3.322 -0.3705 -0.2239  0.3987
  710MOL0     C97907   3.254   1.503   3.372 -0.2452  0.4483  0.0905
  710MOL0     C97908   3.243   2.326   3.123 -0.1750  0.5302 -0.0573
  710MOL0     C97909   3.213   2.453   3.062  0.9672 -0.4659 -0.6101
  710MOL0     C97910   3.184   2.575   3.140  0.8165  0.4563 -0.7237
  710MOL0     H97911   3.227   2.831   2.840 -2.7377 -0.6173 -0.6667
  710MOL0     H97912   3.187   3.042   2.725  1.0157  1.6715 -3.0460
  710MOL0     H97913   3.250   3.241   2.523 -0.0191 -0.8826 -0.1423
  710MOL0     H97914   3.098   3.189   2.603  2.0137  2.1707  1.6582
  710MOL0     H97915   2.966   3.230   2.407  1.4095 -2.8537  1.7953
  710MOL0     H97916   3.046   3.378   2.462 -0.7050  0.7306 -0.5033
  710MOL0     H97917   3.204   3.372   2.267 -0.1068  0.3728  2.0638
  710MOL0     H97918   3.164   3.203   2.234 -2.4772 -0.0029 -0.8765
  710MOL0     H97919   2.963   3.234   2.155 -1.7945  1.6866  1.8539
  710MOL0     H97920   2.934   3.386   2.229 -1.3157 -2.1458  2.8569
  710MOL0     H97921   3.105   3.492   2.076 -0.9237  0.6381  2.4848
  710MOL0     H97922   2.954   3.424   1.998 -1.1667 -2.8616 -0.9565
  710MOL0     H97923   3.244   3.295   2.024  0.7292  1.4792 -1.0862
  710MOL0     H97924   3.108   3.209   1.963  0.8678 -0.8873  3.7632
  710MOL0     H97925   3.086   3.385   1.781  0.1323 -0.4080 -1.2879
  710MOL0     H97926   3.224   3.268   1.771  0.7112  0.6564 -1.2080
  710MOL0     H97927   3.210   3.566   1.858 -1.2839  0.7875 -2.3673
  710MOL0     H97928   3.354   3.454   1.875  0.2772  0.9264 -1.2256
  710MOL0     H97929   3.256   3.722   1.678 -1.3927 -0.8092  1.7607
  710MOL0     H97930   3.356   3.828   1.470 -0.2869 -1.7499  0.7701
  710MOL0     H97931   3.371   3.732   1.332  3.6325 -1.1035 -0.9555
  710MOL0     H97932   3.606   3.669   1.421 -2.4574 -0.9473  2.6090
  710MOL0     H97933   3.581   3.805   1.316 -0.8734  0.6976  0.7979
  710MOL0     H97934   3.567   3.956   1.523 -0.1031 -0.8635 -0.7085
  710MOL0     H97935   3.580   3.807   1.621 -0.3962 -1.5342  0.0904
  710MOL0     H97936   3.807   3.880   1.431  1.3670 -0.2454  1.1551
  710MOL0     H97937   3.798   3.955   1.585 -3.8347  1.6194  0.5875
  710MOL0     H97938   3.921   3.550   1.682 -1.0570  1.4931 -1.2525
  710MOL0     H97939   4.242   3.433   1.809  1.1527 -0.3266 -0.1600
  710MOL0     H97940   4.226   3.382   1.641 -0.6973  0.5754 -0.1328
  710MOL0     H97941   4.091   3.385   1.735  0.4623  2.3440 -1.8201
  710MOL0     H97942   4.630   3.826   1.406  1.0795 -1.0486  0.1793
  710MOL0     H97943   4.861   3.866   1.463  3.2054  1.7881  3.8023
  710MOL0     H97944   4.928   4.107   1.780  0.2862 -0.9552 -0.6665
  710MOL0     H97945   4.949   3.963   1.890  1.1673 -0.2020  1.0418
  710MOL0     H97946   5.195   3.944   1.797 -0.0203 -0.0501 -4.3508
  710MOL0     H97947   5.162   4.100   1.720  1.6054 -1.0502 -0.0734
  710MOL0     H97948   5.141   4.072   2.012 -0.9313 -3.7862 -2.0779
  710MOL0     H97949   5.141   4.224   1.908  3.4937  0.2439 -2.1706
  710MOL0     H97950   5.358   4.183   1.836 -2.3560 -1.1390 -1.2267
  710MOL0     H97951   5.373   4.031   1.916 -0.2024 -1.0109 -0.3721
  710MOL0     H97952   5.318   4.303   2.058  1.0734  0.0075  2.7183
  710MOL0     H97953   5.344   4.168   2.148  0.8181 -2.3500 -0.3524
  710MOL0     H97954   5.587   4.136   2.077 -0.4273  0.1906  1.5267
  710MOL0     H97955   5.546   4.292   2.149 -1.0276  1.9235 -0.9246
  710MOL0     H97956   5.617   4.402   1.998  1.1110  0.1462 -0.7092
  710MOL0     H97957   5.514   4.335   1.866 -1.8541 -1.9320  1.1076
  710MOL0     H97958   5.800   4.252   1.960  1.1160  1.0915 -1.7003
  710MOL0     H97959   5.751   4.315   1.809  1.3471 -1.0141 -0.6982
  710MOL0     H97960   4.759   3.867   1.875  0.1441  1.6328 -0.9148
  710MOL0     H97961   4.538   3.823   1.826  1.2926  2.1166  1.2219
  710MOL0     H97962   4.235   3.868   1.532 -0.6357  0.1340 -2.0336
  710MOL0     H97963   4.013   3.907   1.507  0.7851 -0.2106 -0.0246
  710MOL0     H97964   3.206   2.840   2.358 -1.3255 -2.5263  0.3267
  710MOL0     H97965   3.265   2.618   2.482 -2.7164 -1.6393 -0.1499
  710MOL0     H97966   3.284   2.337   2.744 -0.7447  1.6643 -0.5495
  710MOL0     H97967   3.345   2.135   2.859  4.2440  1.3489  0.5272
  710MOL0     H97968   3.215   2.101   3.313 -0.3182 -0.2062  0.4172
  710MOL0     H97969   3.110   2.069   3.173 -0.2641  4.1587  1.4400
  710MOL0     H97970   3.229   1.862   3.126 -0.2913 -1.2858  0.5100
  710MOL0     H97971   3.130   1.872   3.270 -0.4550 -0.5572  0.1296
  710MOL0     H97972   3.443   1.912   3.266  1.1590 -1.3000  1.6920
  710MOL0     H97973   3.337   1.869   3.405 -4.2612  0.0828 -1.0339
  710MOL0     H97974   3.501   1.681   3.283 -0.0597  0.3663  2.7759
  710MOL0     H97975   3.386   1.691   3.146 -0.0250 -0.5343  0.6282
  710MOL0     H97976   3.209   1.415   3.412  1.1291  0.8047  2.5889
  710MOL0     H97977   3.236   2.325   3.231  0.8961 -0.1746  0.0217
  710MOL0     H97978   3.174   2.669   3.085  2.5636  1.0540 -0.1207
  710MOL0     H97979   3.093   2.557   3.197  1.2027 -1.1401 -0.5674
  710MOL0     H97980   3.263   2.578   3.216 -1.2803 -2.8512  1.8623
  711MOL0     O97981   5.789   8.429   1.520  0.2560  0.1889  0.1126
  711MOL0     C97982   5.905   8.448   1.566  0.5938  0.5262 -1.3560
  711MOL0     O97983   5.931   8.476   1.701 -0.5464  1.0148  0.7371
  711MOL0     C97984   5.835   8.481   1.801  0.5112 -0.5213  1.3687
  711MOL0     C97985   5.692   8.493   1.778  0.8801 -0.2531 -0.3034
  711MOL0     C97986   5.604   8.484   1.893 -0.9314  0.1551 -0.6019
  711MOL0     C97987   5.651   8.480   2.027 -0.4557 -0.2846  0.0916
  711MOL0     O97988   5.574   8.473   2.142 -0.2804  0.4604  0.6358
  711MOL0     C97989   5.441   8.423   2.139 -0.2978 -0.5892 -0.3359
  711MOL0     C97990   5.377   8.428   2.277  0.0805 -0.6010 -0.7010
  711MOL0     C97991   5.424   8.316   2.368  0.0591 -0.2475  0.5349
  711MOL0     C97992   5.349   8.182   2.345  0.3672 -0.5284  0.4091
  711MOL0     C97993   5.428   8.063   2.391  0.2185 -1.2559  0.6315
  711MOL0     C97994   5.349   7.934   2.364  0.1967  0.0513 -0.6271
  711MOL0     C97995   5.432   7.804   2.356 -0.4003  0.0440 -0.3313
  711MOL0     C97996   5.546   7.784   2.443  0.3998 -0.0787 -0.1291
  711MOL0     N97997   5.508   7.748   2.574  1.2642  0.2554 -0.7306
  711MOL0     C97998   5.449   7.625   2.613 -0.8734  0.5872 -0.6936
  711MOL0     C97999   5.455   7.635   2.752 -1.0219  0.3256 -0.2232
  711MOL0     C98000   5.418   7.523   2.843  0.1063 -0.2771 -0.0211
  711MOL0     C98001   5.325   7.577   2.947 -0.7572  0.3366 -0.7402
  711MOL0     C98002   5.193   7.618   2.889 -0.2776  0.2675 -0.8136
  711MOL0     C98003   5.076   7.648   2.981 -0.3091 -0.0329 -0.1152
  711MOL0     O98004   5.061   7.538   3.069  0.3643  0.5890  0.9853
  711MOL0     C98005   4.961   7.445   3.039  1.1844  0.3255  1.6832
  711MOL0     C98006   4.909   7.368   3.142 -1.0080 -0.4392 -0.0097
  711MOL0     C98007   4.801   7.276   3.130  0.4891 -0.3160 -0.1104
  711MOL0     C98008   4.789   7.169   3.241 -0.0727 -1.0779  0.4117
  711MOL0     C98009   4.742   7.263   3.005  0.1130  0.0190 -0.0690
  711MOL0     C98010   4.621   7.182   2.973 -0.2475  0.8705 -0.6450
  711MOL0     O98011   4.620   7.125   2.844  0.7785 -0.6127 -0.5532
  711MOL0     C98012   4.499   7.067   2.798  0.1666 -0.4844 -0.1236
  711MOL0     C98013   4.419   7.150   2.715  0.5322 -0.1093 -0.4391
  711MOL0     C98014   4.296   7.101   2.663 -0.2691  0.5940  0.8769
  711MOL0     C98015   4.246   6.975   2.698 -0.8319  0.3593 -0.7654
  711MOL0     O98016   4.124   6.940   2.651  0.2713  0.2346  0.3960
  711MOL0     C98017   4.054   6.829   2.696 -0.3574  0.9117  0.1296
  711MOL0     C98018   4.090   6.699   2.618 -0.3735 -0.1622  0.4788
  711MOL0     C98019   3.989   6.585   2.629 -0.1199 -0.5258 -0.7309
  711MOL0     C98020   3.964   6.505   2.496  0.2026 -0.3658 -1.1621
  711MOL0     C98021   3.957   6.354   2.528 -0.0110  0.5920  1.1123
  711MOL0     C98022   3.943   6.273   2.396 -0.0869 -0.0037  0.5689
  711MOL0     C98023   3.801   6.294   2.334 -0.4819  1.6525 -0.7183
  711MOL0     C98024   3.775   6.201   2.217 -0.1924  0.1744 -0.5202
  711MOL0    Cl98025   3.901   6.199   2.088 -0.1150 -0.2028  0.0482
  711MOL0     C98026   4.330   6.887   2.779  0.0225  0.2256 -0.4174
  711MOL0     C98027   4.453   6.941   2.833  0.2477 -0.4642 -0.8807
  711MOL0     O98028   4.534   7.166   3.052  0.1757  0.0811  0.8528
  711MOL0     C98029   4.775   7.354   2.909 -0.5772  0.0024 -0.1209
  711MOL0     C98030   4.882   7.437   2.918  0.3422  0.5398  0.1901
  711MOL0     N98031   5.530   7.738   2.789  0.8426 -0.2292 -0.2470
  711MOL0     N98032   5.551   7.810   2.687  0.2020  0.9941  0.2100
  711MOL0     C98033   5.790   8.494   2.029 -0.5214 -0.8054  0.2352
  711MOL0     C98034   5.880   8.498   1.927  0.6116  0.1288  0.4365
  711MOL0     C98035   6.019   8.445   1.469  0.6343 -0.6094 -1.2750
  711MOL0     C98036   6.124   8.533   1.502  0.8787 -0.4058 -1.5131
  711MOL0     C98037   6.224   8.562   1.402  0.8883  0.1182  0.5242
  711MOL0     C98038   6.239   8.492   1.288  0.4031 -0.0859  0.4039
  711MOL0     O98039   6.350   8.519   1.202  0.0000  0.8787 -0.0163
  711MOL0     C98040   6.387   8.419   1.106 -0.7215  0.6512 -0.7534
  711MOL0     C98041   6.432   8.293   1.185 -0.9154 -0.5935  0.4625
  711MOL0     C98042   6.521   8.208   1.088 -1.4076  0.0006 -0.0903
  711MOL0     C98043   6.560   8.081   1.172 -0.3419  0.7639 -0.3741
  711MOL0     C98044   6.661   8.114   1.273  1.2682  0.2727 -0.3542
  711MOL0     C98045   6.758   8.135   1.343  0.1295  0.2280  0.2957
  711MOL0     C98046   6.145   8.396   1.255 -0.1057  0.4322  0.6623
  711MOL0     C98047   6.033   8.372   1.345  0.8542 -0.0411 -0.1036
  711MOL0     C98048   5.937   8.254   1.309  0.0499 -0.2864 -0.3772
  711MOL0     H98049   5.648   8.484   1.679 -2.0549  1.5521  0.6845
  711MOL0     H98050   5.499   8.481   1.866 -0.5709 -0.7405 -1.9949
  711MOL0     H98051   5.445   8.322   2.097  2.2657 -0.9153  0.5101
  711MOL0     H98052   5.375   8.480   2.074 -1.6804 -2.0303 -0.2570
  711MOL0     H98053   5.412   8.520   2.325  0.4887  0.3254 -2.6693
  711MOL0     H98054   5.268   8.433   2.278  0.0890  0.8337  1.8332
  711MOL0     H98055   5.533   8.310   2.362 -0.0689 -1.5177 -2.0984
  711MOL0     H98056   5.395   8.351   2.467 -0.1905  1.7990 -0.2005
  711MOL0     H98057   5.249   8.185   2.389  0.5409  2.3995  0.8065
  711MOL0     H98058   5.330   8.162   2.239 -1.2505  4.2667 -0.4242
  711MOL0     H98059   5.444   8.078   2.498 -2.6665  2.1072  0.7922
  711MOL0     H98060   5.526   8.062   2.341  1.0356  1.7092  1.9633
  711MOL0     H98061   5.287   7.921   2.453  2.9515 -2.3425  1.1705
  711MOL0     H98062   5.292   7.941   2.272  0.0422  0.0257 -0.5337
  711MOL0     H98063   5.479   7.813   2.258  0.3335  1.4379  0.1293
  711MOL0     H98064   5.358   7.724   2.368  1.0417 -1.2000  0.6184
  711MOL0     H98065   5.614   7.702   2.416  2.2559  1.7493 -1.2323
  711MOL0     H98066   5.615   7.866   2.463  2.0314 -1.2071 -0.8569
  711MOL0     H98067   5.417   7.540   2.553  1.6464 -0.0995 -1.1508
  711MOL0     H98068   5.511   7.485   2.885 -0.7873 -2.5778  0.0292
  711MOL0     H98069   5.367   7.436   2.801  0.8241 -2.1288  2.6361
  711MOL0     H98070   5.308   7.508   3.031  3.0489 -0.4929 -0.4598
  711MOL0     H98071   5.385   7.660   2.985  0.3172 -0.5725 -0.3571
  711MOL0     H98072   5.202   7.708   2.827 -0.3372 -2.9478 -6.1026
  711MOL0     H98073   5.159   7.541   2.819  0.0344 -1.6358  1.0518
  711MOL0     H98074   5.099   7.735   3.043  1.2162 -2.9190  3.8107
  711MOL0     H98075   4.984   7.662   2.924 -0.2580 -1.0258 -0.4624
  711MOL0     H98076   4.962   7.392   3.234  0.1944  1.6852 -1.1855
  711MOL0     H98077   4.748   7.075   3.201 -2.7411  0.5692 -1.0319
  711MOL0     H98078   4.717   7.209   3.314  0.8073 -0.1990  0.8146
  711MOL0     H98079   4.882   7.151   3.295  2.0224  0.3704 -2.4677
  711MOL0     H98080   4.445   7.252   2.692 -1.3850  0.2026 -1.4561
  711MOL0     H98081   4.239   7.165   2.596  1.5909  0.4246 -0.9574
  711MOL0     H98082   4.089   6.804   2.796 -1.3142  0.4653  0.3573
  711MOL0     H98083   3.945   6.834   2.691 -0.5444 -1.6461 -0.0319
  711MOL0     H98084   4.093   6.716   2.510  1.1491 -1.2100  0.3287
  711MOL0     H98085   4.184   6.660   2.660 -0.5214  0.1781  1.1386
  711MOL0     H98086   3.894   6.635   2.653 -0.3157 -0.8997 -0.7185
  711MOL0     H98087   4.024   6.518   2.708  3.1957  1.5279 -0.3149
  711MOL0     H98088   4.045   6.531   2.427  2.0223  1.1369  1.3338
  711MOL0     H98089   3.870   6.533   2.448 -1.0735 -1.3687  0.6302
  711MOL0     H98090   4.050   6.320   2.575 -1.4880 -2.5438  2.0329
  711MOL0     H98091   3.873   6.329   2.593  0.2103 -1.6485  0.6296
  711MOL0     H98092   3.967   6.169   2.417  2.7573  0.5872  0.7558
  711MOL0     H98093   4.005   6.304   2.311 -1.2260  0.1322 -0.2229
  711MOL0     H98094   3.798   6.397   2.297 -0.4171  2.0426  0.3084
  711MOL0     H98095   3.712   6.276   2.396  0.3251  0.0020  0.0199
  711MOL0     H98096   3.684   6.233   2.165  0.7571  1.0778 -1.6818
  711MOL0     H98097   3.758   6.097   2.245 -2.5563 -0.2128 -2.9363
  711MOL0     H98098   4.292   6.792   2.814 -0.8123  0.9197  0.6550
  711MOL0     H98099   4.517   6.884   2.900 -0.9155 -0.5330  0.2143
  711MOL0     H98100   4.714   7.343   2.820  2.1226 -1.7568 -1.9202
  711MOL0     H98101   4.890   7.508   2.835  1.0656 -0.6352 -0.7784
  711MOL0     H98102   5.835   8.489   2.128 -0.8320 -2.2787  0.3092
  711MOL0     H98103   5.986   8.514   1.947  0.6590  1.9262 -1.0538
  711MOL0     H98104   6.112   8.579   1.600 -4.2324 -0.5861 -1.7525
  711MOL0     H98105   6.307   8.628   1.423  3.0423 -2.2695  0.0551
  711MOL0     H98106   6.308   8.401   1.032  0.9333  1.1826 -2.7527
  711MOL0     H98107   6.465   8.475   1.054 -2.1965  2.9411 -0.5900
  711MOL0     H98108   6.350   8.229   1.218  0.9560 -3.9442 -0.8685
  711MOL0     H98109   6.493   8.324   1.271  2.1548 -2.0130 -1.0228
  711MOL0     H98110   6.457   8.174   1.006 -3.4794 -2.2462  2.2780
  711MOL0     H98111   6.612   8.250   1.045  0.3336 -3.2372  0.1528
  711MOL0     H98112   6.621   8.013   1.112  1.0784  0.6002  1.2066
  711MOL0     H98113   6.474   8.026   1.213  0.4817  0.1695  0.6163
  711MOL0     H98114   6.824   8.170   1.420 -1.0220  1.5843  0.7128
  711MOL0     H98115   6.151   8.339   1.163  2.4663  2.3041 -0.4255
  711MOL0     H98116   5.903   8.208   1.402 -0.0279 -0.3438 -0.4346
  711MOL0     H98117   5.850   8.283   1.250 -2.1946 -2.5635  1.6014
  711MOL0     H98118   5.996   8.175   1.262  0.2333 -0.5067  0.2120
  712MOL0     O98119  10.547   3.703   1.549 -0.4492  0.1336 -1.4023
  712MOL0     C98120  10.573   3.679   1.433  0.1643 -0.3593 -0.2138
  712MOL0     O98121  10.695   3.659   1.379  0.5984  0.5161 -0.5819
  712MOL0     C98122  10.815   3.679   1.444  0.1047  0.4340  0.5848
  712MOL0     C98123  10.839   3.793   1.503  0.6407 -0.1346 -1.0832
  712MOL0     C98124  10.966   3.817   1.563 -0.8035 -0.5737 -0.2831
  712MOL0     C98125  11.066   3.713   1.559 -0.3876  0.4387 -0.5209
  712MOL0     O98126  11.181   3.741   1.630 -0.0331  0.1757  0.0075
  712MOL0     C98127  11.259   3.627   1.667  0.0803 -0.3470 -0.6223
  712MOL0     C98128  11.361   3.697   1.753 -0.2054  0.1729  0.7319
  712MOL0     C98129  11.492   3.608   1.786  0.6976  0.5538  0.6917
  712MOL0     C98130  11.603   3.689   1.862  0.0289  0.3681 -0.3314
  712MOL0     C98131  11.701   3.610   1.958 -0.1838  0.1328 -0.0997
  712MOL0     C98132  11.780   3.511   1.879  0.1677 -0.1185  0.4010
  712MOL0     C98133  11.852   3.415   1.970 -0.6691 -0.0788  0.0134
  712MOL0     C98134  11.907   3.305   1.877 -0.2509  0.0822 -0.3665
  712MOL0     N98135  12.011   3.352   1.782  0.5850 -0.1708  0.0684
  712MOL0     C98136  11.998   3.415   1.653 -0.0053 -0.7705  0.4457
  712MOL0     C98137  12.125   3.410   1.597  1.7159 -0.2897 -0.4342
  712MOL0     C98138  12.154   3.444   1.463 -0.1009 -0.5973  0.6092
  712MOL0     C98139  12.155   3.319   1.378 -0.8762  0.4539  0.2044
  712MOL0     C98140  12.209   3.338   1.238 -0.0711  0.2534 -0.4980
  712MOL0     C98141  12.120   3.443   1.163 -0.9762  0.2187  0.4278
  712MOL0     O98142  12.195   3.466   1.041  0.0032  0.3062 -0.2398
  712MOL0     C98143  12.171   3.584   0.977 -0.2685 -0.3872 -0.7578
  712MOL0     C98144  12.059   3.666   0.990 -0.4537  0.0288  0.6218
  712MOL0     C98145  12.039   3.783   0.919 -0.7945  0.2571 -0.1064
  712MOL0     C98146  11.919   3.863   0.953  0.0146  0.4313  0.0760
  712MOL0     C98147  12.133   3.825   0.827  0.9040 -0.5235 -0.5384
  712MOL0     C98148  12.128   3.962   0.749 -0.2255 -0.2086  0.4842
  712MOL0     O98149  12.241   4.024   0.722  0.4182 -0.2508 -0.3406
  712MOL0     C98150  12.250   4.147   0.660 -0.4248  0.5661  0.1931
  712MOL0     C98151  12.353   4.226   0.712  0.9561  0.2310  0.3946
  712MOL0     C98152  12.390   4.342   0.652  0.7071  0.1707 -0.7998
  712MOL0     C98153  12.304   4.384   0.549 -0.3278  0.3497  0.1210
  712MOL0     O98154  12.290   4.514   0.502  0.0855 -0.2175 -0.0391
  712MOL0     C98155  12.366   4.616   0.565 -0.2589  0.9337 -0.1625
  712MOL0     C98156  12.283   4.667   0.686 -0.6788  0.1209 -1.1795
  712MOL0     C98157  12.155   4.719   0.639  0.1264 -0.4517 -0.2075
  712MOL0     C98158  12.108   4.833   0.714 -0.2046 -0.3087 -0.5937
  712MOL0     C98159  11.968   4.886   0.670 -0.3081 -0.0081  0.2495
  712MOL0     C98160  11.956   5.038   0.697  0.5308  0.8567  0.4611
  712MOL0     C98161  11.813   5.075   0.652  0.3506  0.5604  0.3869
  712MOL0     C98162  11.779   5.098   0.502  0.0651  0.0953  0.9232
  712MOL0    Cl98163  11.875   5.245   0.432 -0.5079 -0.0417  0.0476
  712MOL0     C98164  12.199   4.308   0.503 -0.7997 -0.6405  0.5112
  712MOL0     C98165  12.160   4.197   0.563 -0.2620 -0.3201 -0.2501
  712MOL0     O98166  12.020   4.011   0.728 -0.3067 -0.0761  0.7249
  712MOL0     C98167  12.245   3.750   0.816  0.0612  0.3659 -0.0710
  712MOL0     C98168  12.266   3.636   0.889  0.0712 -0.0437 -0.1001
  712MOL0     N98169  12.201   3.334   1.682 -0.9235  0.1067  0.1241
  712MOL0     N98170  12.140   3.304   1.787  0.5290 -0.6410 -0.3767
  712MOL0     C98171  11.038   3.596   1.486  0.2211 -0.5040  0.0949
  712MOL0     C98172  10.912   3.585   1.427  0.2939 -0.1012  0.0035
  712MOL0     C98173  10.456   3.645   1.346  0.2410 -0.3418 -0.1632
  712MOL0     C98174  10.327   3.657   1.414  0.3307  0.1620 -0.4913
  712MOL0     C98175  10.214   3.620   1.353  0.6920  0.6889 -0.0216
  712MOL0     C98176  10.211   3.578   1.222  0.0088  0.3070 -0.3674
  712MOL0     O98177  10.086   3.542   1.162  0.4651 -0.5388 -0.6731
  712MOL0     C98178  10.088   3.486   1.029  0.0727  0.1536  0.0191
  712MOL0     C98179   9.954   3.458   0.992 -0.2130 -0.2248 -0.1383
  712MOL0     C98180   9.921   3.522   0.855 -0.1085  0.7910 -0.3372
  712MOL0     C98181   9.771   3.485   0.820 -0.7635 -0.7295 -0.5236
  712MOL0     C98182   9.750   3.339   0.816 -0.4763 -0.1552 -0.2369
  712MOL0     C98183   9.738   3.216   0.804  0.3614 -1.0758 -0.0836
  712MOL0     C98184  10.330   3.591   1.150 -0.1810 -0.4222 -0.0108
  712MOL0     C98185  10.454   3.625   1.205  0.0780  0.0645 -0.9848
  712MOL0     C98186  10.580   3.631   1.124 -0.1555  0.1578  0.6049
  712MOL0     H98187  10.757   3.863   1.517  0.0262 -0.6231 -2.1143
  712MOL0     H98188  10.982   3.915   1.607 -0.0351  1.1931 -4.0487
  712MOL0     H98189  11.314   3.578   1.586  0.0073 -1.4948 -0.0065
  712MOL0     H98190  11.215   3.545   1.725 -0.0826 -1.2855 -2.0079
  712MOL0     H98191  11.395   3.792   1.713 -1.0437 -0.2595 -1.1051
  712MOL0     H98192  11.312   3.729   1.846  2.7955  0.4778  2.3423
  712MOL0     H98193  11.462   3.526   1.852 -0.3298  1.7060  1.7051
  712MOL0     H98194  11.541   3.566   1.698 -1.9758  2.0766 -1.6648
  712MOL0     H98195  11.661   3.727   1.777 -0.1401 -4.0806 -2.7583
  712MOL0     H98196  11.543   3.760   1.920 -3.3941 -1.3058 -1.5455
  712MOL0     H98197  11.652   3.542   2.028 -1.0563 -1.5355 -2.2048
  712MOL0     H98198  11.758   3.681   2.019 -2.3954  2.3823 -0.5153
  712MOL0     H98199  11.711   3.444   1.827 -0.3504 -0.2472  1.2471
  712MOL0     H98200  11.850   3.552   1.804 -1.4788  1.6381 -0.2555
  712MOL0     H98201  11.784   3.362   2.039  3.2402 -0.2626  4.2343
  712MOL0     H98202  11.945   3.450   2.017  1.1109 -3.9335 -0.2097
  712MOL0     H98203  11.944   3.230   1.947 -1.6855 -1.5296 -1.2365
  712MOL0     H98204  11.829   3.257   1.817 -0.4428  1.2587 -1.1000
  712MOL0     H98205  11.903   3.431   1.604 -0.3504 -2.2274  0.5827
  712MOL0     H98206  12.255   3.486   1.457  0.2303 -1.5307 -0.9449
  712MOL0     H98207  12.076   3.515   1.433  0.4003 -0.9206 -1.6183
  712MOL0     H98208  12.216   3.238   1.420  1.1416  1.5517 -0.4669
  712MOL0     H98209  12.057   3.272   1.365  0.0208 -1.8051  1.0279
  712MOL0     H98210  12.316   3.358   1.246  0.8613 -3.2160 -2.4151
  712MOL0     H98211  12.207   3.239   1.193 -0.1610 -0.8839  1.8360
  712MOL0     H98212  12.022   3.398   1.144  0.0737 -2.6862  1.3224
  712MOL0     H98213  12.101   3.540   1.211 -0.1906  2.5083 -3.5105
  712MOL0     H98214  11.970   3.644   1.047 -1.2769 -1.0769 -1.0080
  712MOL0     H98215  11.940   3.953   1.012  1.1607 -0.6947  1.4479
  712MOL0     H98216  11.851   3.815   1.024  1.0759  1.4247  1.8419
  712MOL0     H98217  11.869   3.885   0.858  2.5391 -1.3374 -1.8110
  712MOL0     H98218  12.411   4.171   0.785 -0.7656 -3.7328 -0.9640
  712MOL0     H98219  12.471   4.393   0.703  0.5433  0.9974 -1.3302
  712MOL0     H98220  12.460   4.576   0.605 -1.8280 -5.0749 -1.4752
  712MOL0     H98221  12.393   4.701   0.502  1.5810  0.5456  0.0467
  712MOL0     H98222  12.273   4.586   0.759  2.0443  0.6758 -0.0545
  712MOL0     H98223  12.339   4.744   0.739 -0.5937 -0.1679 -0.8414
  712MOL0     H98224  12.081   4.640   0.626  0.4278 -0.6468 -0.7587
  712MOL0     H98225  12.173   4.772   0.545  0.2274  3.4562  1.7977
  712MOL0     H98226  12.177   4.917   0.714  0.9256 -1.2028  0.1547
  712MOL0     H98227  12.107   4.799   0.819 -0.5403 -3.2672 -1.4598
  712MOL0     H98228  11.961   4.871   0.562 -0.3180 -0.2416  0.2842
  712MOL0     H98229  11.889   4.828   0.719  1.2988 -2.5315  0.0199
  712MOL0     H98230  12.026   5.098   0.638  1.6800 -1.1616 -0.2981
  712MOL0     H98231  11.969   5.056   0.804  2.6355 -1.3680  0.6643
  712MOL0     H98232  11.803   5.177   0.691 -2.9927  0.4522  0.0893
  712MOL0     H98233  11.742   5.009   0.703  1.6227 -1.1382  0.0643
  712MOL0     H98234  11.675   5.133   0.497  0.5846  1.9738  2.2964
  712MOL0     H98235  11.792   5.006   0.445 -2.8515 -0.3246  0.7572
  712MOL0     H98236  12.131   4.333   0.422  1.0380  0.3263 -0.8045
  712MOL0     H98237  12.078   4.136   0.527 -0.4487 -1.1561  1.4575
  712MOL0     H98238  12.320   3.783   0.745  0.7628 -1.2724 -0.1371
  712MOL0     H98239  12.362   3.587   0.882  1.3541  2.5637 -1.8973
  712MOL0     H98240  11.119   3.524   1.473  1.9497  1.2498  0.5834
  712MOL0     H98241  10.888   3.498   1.366 -1.3237  1.4573 -1.6972
  712MOL0     H98242  10.309   3.680   1.518 -1.1275 -3.9917  0.3584
  712MOL0     H98243  10.127   3.617   1.418 -0.7415  0.9970 -1.8142
  712MOL0     H98244  10.141   3.565   0.974  0.0075  0.1835 -0.0006
  712MOL0     H98245  10.150   3.396   1.017  1.5893  0.7467  2.5311
  712MOL0     H98246   9.881   3.488   1.069 -3.1377 -4.0312 -1.1379
  712MOL0     H98247   9.930   3.352   0.991 -4.7849  0.6040 -0.8738
  712MOL0     H98248   9.917   3.631   0.860  0.8995  0.8311 -0.0073
  712MOL0     H98249   9.988   3.493   0.773 -3.2677 -1.5906 -2.3349
  712MOL0     H98250   9.739   3.544   0.733 -0.6464  4.0902  2.3454
  712MOL0     H98251   9.718   3.522   0.908 -1.2302 -0.2685 -0.9873
  712MOL0     H98252   9.717   3.111   0.797 -0.2826 -0.8721 -1.6993
  712MOL0     H98253  10.340   3.581   1.042  2.4504 -1.2412  0.2427
  712MOL0     H98254  10.555   3.602   1.022 -0.3683 -1.7801  1.1698
  712MOL0     H98255  10.616   3.734   1.128 -0.1538  0.1753  0.1554
  712MOL0     H98256  10.652   3.562   1.170 -0.7353  0.2017  1.6012
  713MOL0     O98257   5.865   6.261   0.262 -0.5560  0.3251  0.1544
  713MOL0     C98258   5.773   6.182   0.284  0.5117 -0.2565 -0.4472
  713MOL0     O98259   5.757   6.059   0.226 -0.1304  0.3534  0.9268
  713MOL0     C98260   5.869   6.007   0.166  0.4388  1.3530  0.1457
  713MOL0     C98261   5.998   6.010   0.229  0.4480  0.5514  1.0180
  713MOL0     C98262   6.122   5.975   0.171  0.0169 -0.0486 -0.2075
  713MOL0     C98263   6.113   5.906   0.045  0.1194 -0.9019 -0.1416
  713MOL0     O98264   6.225   5.868  -0.022  0.0281 -0.1654 -0.0055
  713MOL0     C98265   6.361   5.897   0.027  0.9487 -0.1317 -0.8544
  713MOL0     C98266   6.474   5.846  -0.065 -0.2828 -0.5231  0.0527
  713MOL0     C98267   6.433   5.720  -0.134  0.5878  0.5189  0.1653
  713MOL0     C98268   6.557   5.631  -0.183  0.0354 -0.4617 -0.1407
  713MOL0     C98269   6.506   5.532  -0.291 -0.4117 -0.1198 -0.4308
  713MOL0     C98270   6.620   5.423  -0.296  0.6978 -0.7876  0.6666
  713MOL0     C98271   6.609   5.335  -0.415 -0.1848 -0.5185  0.2026
  713MOL0     C98272   6.497   5.222  -0.405 -0.2827 -0.4261 -0.9770
  713MOL0     N98273   6.459   5.167  -0.535 -0.0580 -0.2864  0.3044
  713MOL0     C98274   6.411   5.253  -0.631  0.1996  0.5452  0.3531
  713MOL0     C98275   6.399   5.174  -0.742  0.0932 -0.0321  0.0442
  713MOL0     C98276   6.332   5.205  -0.870 -0.0282 -0.1299  0.6313
  713MOL0     C98277   6.411   5.319  -0.953  0.5326 -0.0993 -0.1325
  713MOL0     C98278   6.328   5.374  -1.063 -0.0598  0.5959 -0.9389
  713MOL0     C98279   6.185   5.410  -1.028  0.3615  0.0168 -0.2302
  713MOL0     O98280   6.178   5.501  -0.919 -0.3222 -0.2448  0.0048
  713MOL0     C98281   6.164   5.627  -0.955 -0.7054  0.2086  0.6797
  713MOL0     C98282   6.274   5.710  -0.990 -0.1251  0.0277  0.0153
  713MOL0     C98283   6.258   5.840  -1.034  0.3042  0.0444 -0.7100
  713MOL0     C98284   6.380   5.923  -1.058 -0.4725  0.4389  0.7176
  713MOL0     C98285   6.126   5.888  -1.064 -0.3334  0.6509  0.0178
  713MOL0     C98286   6.104   6.013  -1.138  0.0896 -0.3385 -0.5024
  713MOL0     O98287   5.999   6.077  -1.080  0.0194 -0.2660  0.7253
  713MOL0     C98288   5.932   6.172  -1.156 -0.6254  0.0957 -0.4568
  713MOL0     C98289   5.858   6.144  -1.267  0.0719 -0.1558  0.7717
  713MOL0     C98290   5.807   6.237  -1.356 -0.3992 -1.4636 -0.0661
  713MOL0     C98291   5.829   6.374  -1.315  0.4319  0.2325 -0.4850
  713MOL0     O98292   5.779   6.475  -1.393 -0.0097  0.0647  0.2615
  713MOL0     C98293   5.745   6.601  -1.335  0.0691  0.0168  0.9175
  713MOL0     C98294   5.690   6.667  -1.463  0.5732  0.0202 -0.9518
  713MOL0     C98295   5.631   6.805  -1.422  0.1507  0.3306 -0.0912
  713MOL0     C98296   5.556   6.868  -1.545 -0.7748 -0.0104 -0.0728
  713MOL0     C98297   5.646   6.982  -1.610  0.6375  0.2432 -0.7408
  713MOL0     C98298   5.758   6.946  -1.713  0.4328 -0.6630 -0.2224
  713MOL0     C98299   5.837   7.071  -1.756 -0.8220 -0.4976  0.2752
  713MOL0     C98300   5.951   7.039  -1.849  0.5203  0.4875 -0.1532
  713MOL0    Cl98301   6.076   7.165  -1.848  0.2415 -0.3743  0.0030
  713MOL0     C98302   5.899   6.407  -1.201  0.1118 -0.3982  0.1610
  713MOL0     C98303   5.952   6.305  -1.121 -0.6487  0.0213 -0.7761
  713MOL0     O98304   6.177   6.049  -1.227  0.7384  0.4670  0.3523
  713MOL0     C98305   6.020   5.813  -1.018 -0.0136 -0.7789  0.3599
  713MOL0     C98306   6.036   5.681  -0.961  0.6993  0.4110  0.8812
  713MOL0     N98307   6.459   5.057  -0.719 -0.1865 -0.6245 -0.4428
  713MOL0     N98308   6.502   5.053  -0.601  0.4026  0.3011  0.2629
  713MOL0     C98309   5.983   5.890  -0.018 -1.5579  1.1691 -0.2168
  713MOL0     C98310   5.864   5.936   0.043  0.0508 -0.7582 -0.7873
  713MOL0     C98311   5.661   6.223   0.373  0.2973  0.3034 -0.1322
  713MOL0     C98312   5.550   6.136   0.387 -0.4348  0.3242  0.5310
  713MOL0     C98313   5.431   6.185   0.443 -0.5802  0.2447  0.0136
  713MOL0     C98314   5.426   6.315   0.500 -0.3352  1.3008  0.8323
  713MOL0     O98315   5.302   6.371   0.545 -1.0349  0.0870 -0.5338
  713MOL0     C98316   5.182   6.316   0.491 -0.8326  0.1721 -0.1125
  713MOL0     C98317   5.068   6.407   0.529 -0.1156  0.7306  0.8005
  713MOL0     C98318   4.935   6.402   0.458  0.1675  1.6234  0.0674
  713MOL0     C98319   4.938   6.333   0.322 -0.7798 -0.2442 -0.1258
  713MOL0     C98320   4.839   6.360   0.235  1.5005  0.1281 -0.2492
  713MOL0     C98321   4.775   6.363   0.135  0.9291 -0.6522  0.0523
  713MOL0     C98322   5.545   6.384   0.509  0.3258  0.1617 -0.7674
  713MOL0     C98323   5.659   6.343   0.449 -0.0425  0.1915 -1.0147
  713MOL0     C98324   5.779   6.437   0.461 -0.1658 -0.2733 -0.2789
  713MOL0     H98325   6.008   6.060   0.325  1.7453  0.9090  0.7092
  713MOL0     H98326   6.218   5.994   0.219 -0.0689  0.3532 -0.1903
  713MOL0     H98327   6.359   5.840   0.120  0.9824  1.8543  0.4065
  713MOL0     H98328   6.374   6.003   0.049 -2.0376  0.6180 -2.2448
  713MOL0     H98329   6.493   5.926  -0.137  0.9384 -1.5812 -0.8648
  713MOL0     H98330   6.564   5.832  -0.004 -0.6671 -0.7555  0.5761
  713MOL0     H98331   6.370   5.663  -0.065 -1.9388  2.4568 -0.3912
  713MOL0     H98332   6.370   5.746  -0.219 -0.1865 -1.8431 -0.0523
  713MOL0     H98333   6.642   5.692  -0.213 -2.2709  2.7271 -0.7665
  713MOL0     H98334   6.583   5.566  -0.099  0.1855 -0.1282  0.0722
  713MOL0     H98335   6.487   5.587  -0.383 -1.7848  0.0379 -0.0773
  713MOL0     H98336   6.410   5.505  -0.246 -1.1336  0.8924 -1.2976
  713MOL0     H98337   6.715   5.477  -0.293  0.1122  0.4013 -0.7586
  713MOL0     H98338   6.606   5.367  -0.204 -1.5855 -1.7686 -0.2074
  713MOL0     H98339   6.706   5.287  -0.431 -0.1992 -0.0789 -1.3781
  713MOL0     H98340   6.587   5.407  -0.495  1.9523  1.7004  1.4489
  713MOL0     H98341   6.523   5.139  -0.339 -0.6337 -1.4091 -2.0361
  713MOL0     H98342   6.405   5.257  -0.358 -1.0726  0.1129 -2.8021
  713MOL0     H98343   6.370   5.352  -0.614  0.8466  0.7774  0.5845
  713MOL0     H98344   6.232   5.234  -0.836 -0.3402 -0.6943  0.2212
  713MOL0     H98345   6.320   5.120  -0.938  0.0027 -0.6980  1.3340
  713MOL0     H98346   6.440   5.407  -0.894  0.0995  4.5682 -5.8774
  713MOL0     H98347   6.492   5.274  -1.010  0.7228  0.7414 -0.5386
  713MOL0     H98348   6.381   5.466  -1.087  1.3223  0.3384  0.9200
  713MOL0     H98349   6.328   5.310  -1.151  1.9170 -0.8444  0.0414
  713MOL0     H98350   6.140   5.463  -1.113  0.9214  2.4433  0.8899
  713MOL0     H98351   6.123   5.320  -1.016 -1.6799  1.4659  0.6671
  713MOL0     H98352   6.372   5.667  -0.973 -0.9825 -1.6124  1.1265
  713MOL0     H98353   6.415   5.904  -1.160  2.2594  1.5343  1.3574
  713MOL0     H98354   6.458   5.877  -0.995  0.2235 -0.8361 -1.0014
  713MOL0     H98355   6.382   6.029  -1.031  0.9957  1.1407 -1.8045
  713MOL0     H98356   5.830   6.044  -1.297  0.6991 -0.4797  1.2506
  713MOL0     H98357   5.764   6.213  -1.452 -3.4111 -1.4791  1.1889
  713MOL0     H98358   5.679   6.583  -1.249 -0.6500  1.3553  0.6765
  713MOL0     H98359   5.825   6.661  -1.291  1.4487  0.1501 -1.5848
  713MOL0     H98360   5.761   6.687  -1.543  0.6780  1.3635 -0.5432
  713MOL0     H98361   5.614   6.595  -1.494  0.7992 -2.3571  3.2875
  713MOL0     H98362   5.712   6.873  -1.394  0.0760  0.7466 -0.8501
  713MOL0     H98363   5.571   6.795  -1.331  0.8297  1.3765  0.4902
  713MOL0     H98364   5.470   6.917  -1.500 -0.7173 -2.1542  2.6052
  713MOL0     H98365   5.531   6.793  -1.621 -2.0918  1.2785 -0.9575
  713MOL0     H98366   5.579   7.051  -1.661  1.2773 -0.1815 -2.2145
  713MOL0     H98367   5.696   7.036  -1.529 -0.9801  2.1856 -0.9520
  713MOL0     H98368   5.714   6.906  -1.805  3.6886 -2.7877 -1.0306
  713MOL0     H98369   5.824   6.865  -1.681  2.4544  0.4213 -1.4327
  713MOL0     H98370   5.878   7.116  -1.666  0.2554 -1.3773  0.2464
  713MOL0     H98371   5.781   7.146  -1.813  1.3731 -0.8609 -2.6333
  713MOL0     H98372   5.917   7.031  -1.953  0.9396 -0.9185 -0.2006
  713MOL0     H98373   5.992   6.942  -1.817  1.3934  0.8095 -0.2604
  713MOL0     H98374   5.931   6.506  -1.171  2.5154 -1.0921  0.0454
  713MOL0     H98375   6.017   6.334  -1.039 -0.8476  3.4192 -1.6886
  713MOL0     H98376   5.915   5.838  -1.020  0.1886  0.0683  0.0555
  713MOL0     H98377   5.955   5.613  -0.938  2.1693 -1.9190 -0.3720
  713MOL0     H98378   5.995   5.849  -0.118  1.3190  0.6479  0.2824
  713MOL0     H98379   5.768   5.929  -0.007  0.3466 -1.0052 -1.3328
  713MOL0     H98380   5.546   6.038   0.340  0.7736  1.0798 -1.2402
  713MOL0     H98381   5.345   6.119   0.437 -0.5170  0.2026 -0.4769
  713MOL0     H98382   5.200   6.311   0.383 -1.6472  2.8110 -0.4469
  713MOL0     H98383   5.158   6.211   0.505 -0.7491 -0.1634 -2.1735
  713MOL0     H98384   5.102   6.508   0.508 -0.2425  0.4942 -0.6642
  713MOL0     H98385   5.050   6.391   0.636 -0.9941  0.3159  0.6020
  713MOL0     H98386   4.870   6.343   0.525 -1.0904  0.7628 -1.8290
  713MOL0     H98387   4.895   6.503   0.451  1.5614  2.4730  2.7761
  713MOL0     H98388   4.947   6.225   0.337  2.4042  0.1880  2.1318
  713MOL0     H98389   5.021   6.373   0.264 -0.9295 -0.0762 -0.2253
  713MOL0     H98390   4.725   6.359   0.041 -0.6300 -0.5255  0.8450
  713MOL0     H98391   5.543   6.473   0.570  1.3075  1.2580 -2.2600
  713MOL0     H98392   5.866   6.376   0.489  1.9489  0.6230 -4.1539
  713MOL0     H98393   5.816   6.493   0.374  1.5209 -1.5171 -0.4095
  713MOL0     H98394   5.758   6.504   0.544 -1.4512  2.4484 -2.6195
  714MOL0     O98395   8.594   5.683   7.801 -0.1074 -0.3385  0.5724
  714MOL0     C98396   8.616   5.748   7.903  0.5540  0.2514 -0.0305
  714MOL0     O98397   8.565   5.879   7.930  0.0864 -0.3575 -0.2061
  714MOL0     C98398   8.464   5.925   7.855 -0.7448  0.0380  1.2010
  714MOL0     C98399   8.448   5.905   7.711 -0.6187 -0.6525  0.1254
  714MOL0     C98400   8.333   5.933   7.643  0.5148 -0.0913 -0.5103
  714MOL0     C98401   8.227   5.995   7.715  0.5486  0.7681 -0.1257
  714MOL0     O98402   8.112   6.025   7.651  0.0749  0.1189 -0.2069
  714MOL0     C98403   8.033   5.922   7.585  0.2255 -0.2167 -0.5320
  714MOL0     C98404   7.920   6.000   7.514  0.0010  0.4840 -0.0065
  714MOL0     C98405   7.965   6.071   7.383 -0.0423  0.5490  0.4192
  714MOL0     C98406   7.883   6.191   7.354  0.8840  0.0532  0.8407
  714MOL0     C98407   7.737   6.153   7.326 -0.0393 -0.3377  0.2556
  714MOL0     C98408   7.664   6.281   7.270 -0.0630 -0.5785 -0.7934
  714MOL0     C98409   7.516   6.269   7.255 -0.2801 -0.0661  0.4252
  714MOL0     C98410   7.482   6.149   7.160  0.6103  0.2096  0.8460
  714MOL0     N98411   7.349   6.154   7.114 -0.0710  0.2655  0.2888
  714MOL0     C98412   7.309   6.231   7.010  0.2152  0.1166  0.2252
  714MOL0     C98413   7.176   6.213   7.001  0.1466 -0.5661 -0.6493
  714MOL0     C98414   7.092   6.291   6.905  0.7174 -0.7617  0.1597
  714MOL0     C98415   7.064   6.433   6.960 -0.4784  0.8501  0.9336
  714MOL0     C98416   7.060   6.455   7.109  0.2864 -0.1882  0.1339
  714MOL0     C98417   7.038   6.607   7.139  0.1784 -0.0850  0.4422
  714MOL0     O98418   6.899   6.659   7.121  0.3767  0.2260  0.1213
  714MOL0     C98419   6.804   6.598   7.198 -0.2675 -0.5346  0.6524
  714MOL0     C98420   6.819   6.585   7.341 -0.2115  1.1954  0.6532
  714MOL0     C98421   6.709   6.543   7.417 -0.4313 -0.7909  0.6966
  714MOL0     C98422   6.743   6.507   7.561 -0.2065  0.7346 -0.4438
  714MOL0     C98423   6.587   6.519   7.354 -0.1463 -0.0307 -0.2384
  714MOL0     C98424   6.468   6.467   7.426  0.0640 -0.1260 -1.1782
  714MOL0     O98425   6.345   6.503   7.367  0.4500 -0.2958  0.2257
  714MOL0     C98426   6.228   6.465   7.424  0.7840  0.3130  0.8582
  714MOL0     C98427   6.133   6.552   7.487 -0.5291  0.0627  0.1019
  714MOL0     C98428   6.024   6.499   7.551 -0.0525  0.6840 -0.6802
  714MOL0     C98429   5.993   6.357   7.552  0.6274 -0.0584  0.2128
  714MOL0     O98430   5.889   6.298   7.620 -0.5195  0.0610 -0.2636
  714MOL0     C98431   5.816   6.204   7.553  0.1066  0.2109  0.7060
  714MOL0     C98432   5.702   6.164   7.644 -0.2863  0.1841  0.3064
  714MOL0     C98433   5.634   6.047   7.582 -0.2787  0.5113  0.3685
  714MOL0     C98434   5.520   5.997   7.672  0.0284 -0.1570 -0.7009
  714MOL0     C98435   5.421   5.904   7.603  0.5773  0.3396 -0.4760
  714MOL0     C98436   5.284   5.889   7.674 -0.0786  0.2937  0.3966
  714MOL0     C98437   5.311   5.827   7.809  0.1210 -0.4772 -0.1837
  714MOL0     C98438   5.182   5.785   7.881 -0.1142 -0.4245 -0.3862
  714MOL0    Cl98439   5.073   5.933   7.920 -0.0015 -0.2743  0.3378
  714MOL0     C98440   6.086   6.277   7.495  0.0345 -0.0739  0.2292
  714MOL0     C98441   6.198   6.326   7.423  0.5915 -0.3431  0.4753
  714MOL0     O98442   6.477   6.377   7.511 -0.0955 -0.2781 -0.0493
  714MOL0     C98443   6.571   6.542   7.216  1.0030 -0.1514 -0.0044
  714MOL0     C98444   6.681   6.583   7.143 -0.1944 -0.2949 -0.3553
  714MOL0     N98445   7.126   6.122   7.092  0.2505 -0.3325  0.0985
  714MOL0     N98446   7.238   6.079   7.149  0.2680 -0.8014 -0.6616
  714MOL0     C98447   8.240   6.028   7.848  0.1709 -0.0711  0.0471
  714MOL0     C98448   8.362   6.002   7.913 -0.0175 -0.0127  0.1192
  714MOL0     C98449   8.725   5.705   7.992  0.6641  0.2039  0.1493
  714MOL0     C98450   8.767   5.797   8.091 -0.7800  0.5465  0.0515
  714MOL0     C98451   8.854   5.762   8.187 -0.3574  0.1003 -0.4837
  714MOL0     C98452   8.908   5.634   8.195 -0.7793 -0.8744 -0.5969
  714MOL0     O98453   8.994   5.602   8.298 -0.1290 -0.1471  0.9048
  714MOL0     C98454   9.115   5.525   8.281 -0.3557  0.5440  0.1730
  714MOL0     C98455   9.187   5.510   8.417  1.4554 -0.2014  0.5143
  714MOL0     C98456   9.298   5.619   8.444 -0.8784 -0.6862  0.6083
  714MOL0     C98457   9.253   5.771   8.451 -0.6912  0.2759  0.3722
  714MOL0     C98458   9.308   5.839   8.573  0.1250 -0.4296  0.7789
  714MOL0     C98459   9.340   5.873   8.685  0.6112  0.0189 -0.2809
  714MOL0     C98460   8.874   5.539   8.104  0.0437  0.5314 -0.1158
  714MOL0     C98461   8.774   5.572   8.010 -0.1858 -0.2561  1.3008
  714MOL0     C98462   8.729   5.449   7.935 -0.3090 -2.2696 -0.7275
  714MOL0     H98463   8.510   5.844   7.647 -1.2336 -0.5922 -0.5451
  714MOL0     H98464   8.313   5.916   7.538  1.7702  0.5513 -0.8771
  714MOL0     H98465   7.991   5.864   7.668  0.0567  1.4739  0.6102
  714MOL0     H98466   8.101   5.863   7.524 -0.2353 -0.1738 -1.1019
  714MOL0     H98467   7.851   5.919   7.488  0.7372 -1.0595  2.5227
  714MOL0     H98468   7.872   6.072   7.582  1.3410 -1.8568  3.7185
  714MOL0     H98469   8.061   6.119   7.403  1.3412 -2.9105  3.1815
  714MOL0     H98470   7.990   5.998   7.305  2.2082  1.0414  0.5990
  714MOL0     H98471   7.880   6.270   7.429 -0.1521  2.5237 -1.6479
  714MOL0     H98472   7.934   6.237   7.269  0.2907 -0.9218 -0.0729
  714MOL0     H98473   7.698   6.102   7.415 -1.1968 -0.9657 -0.5837
  714MOL0     H98474   7.730   6.074   7.252 -3.0904  0.1333 -0.0951
  714MOL0     H98475   7.675   6.360   7.346  0.3961  0.3413 -1.7777
  714MOL0     H98476   7.705   6.327   7.179 -1.2341 -2.0285 -2.1036
  714MOL0     H98477   7.481   6.365   7.216 -0.2311  0.5389  1.8066
  714MOL0     H98478   7.469   6.243   7.350 -3.1506  2.8457 -0.0245
  714MOL0     H98479   7.551   6.155   7.076  0.7090  3.1292  1.0477
  714MOL0     H98480   7.499   6.050   7.206  1.7550 -0.1580 -0.3052
  714MOL0     H98481   7.367   6.304   6.955  1.6870 -1.0564  0.1787
  714MOL0     H98482   6.995   6.243   6.892  0.3130 -1.0239  3.3412
  714MOL0     H98483   7.134   6.292   6.804 -0.3759  0.3585 -0.3090
  714MOL0     H98484   7.149   6.495   6.928  1.0915 -0.0045  3.1715
  714MOL0     H98485   6.967   6.462   6.919 -0.2677 -0.3221 -0.4376
  714MOL0     H98486   6.977   6.399   7.152 -0.9380  2.2512  1.1613
  714MOL0     H98487   7.152   6.433   7.165 -0.7330 -1.1209  1.5013
  714MOL0     H98488   7.079   6.632   7.237  2.3282 -0.4336 -0.3059
  714MOL0     H98489   7.098   6.667   7.070 -0.0058 -0.6367 -0.2121
  714MOL0     H98490   6.918   6.594   7.384 -0.7120  1.2494  1.8174
  714MOL0     H98491   6.773   6.403   7.548 -0.2940  0.7565 -0.8146
  714MOL0     H98492   6.646   6.524   7.608 -3.0180 -0.2655 -5.2292
  714MOL0     H98493   6.822   6.564   7.611  0.2743 -0.8398  0.6515
  714MOL0     H98494   6.158   6.658   7.490 -2.5865  0.5992 -0.3548
  714MOL0     H98495   5.952   6.564   7.600  0.2664  0.6619 -0.1707
  714MOL0     H98496   5.792   6.239   7.452  1.0406 -2.4064 -0.5169
  714MOL0     H98497   5.877   6.114   7.544  0.2216  0.1399  2.0268
  714MOL0     H98498   5.745   6.138   7.741 -1.2818 -0.6141  0.5565
  714MOL0     H98499   5.635   6.248   7.665 -1.2197 -0.5505  0.3345
  714MOL0     H98500   5.700   5.959   7.586 -2.0789 -1.0760 -2.0468
  714MOL0     H98501   5.598   6.063   7.480 -1.0598  1.1072  0.7305
  714MOL0     H98502   5.459   6.083   7.702 -0.4561 -1.0538  1.0276
  714MOL0     H98503   5.564   5.956   7.764 -1.9588  1.2467  0.9694
  714MOL0     H98504   5.409   5.950   7.505  1.2129 -1.7386 -1.5792
  714MOL0     H98505   5.473   5.812   7.576 -0.9557  0.5159 -4.7307
  714MOL0     H98506   5.225   5.828   7.606  1.1540  0.9419 -1.3159
  714MOL0     H98507   5.233   5.985   7.689 -0.6682 -0.2189  1.8772
  714MOL0     H98508   5.357   5.891   7.886 -3.5935  0.2811  1.6484
  714MOL0     H98509   5.374   5.739   7.796  0.9851 -0.0440  0.8285
  714MOL0     H98510   5.209   5.743   7.978  1.1968  1.7520  0.2688
  714MOL0     H98511   5.135   5.704   7.825 -0.6184  0.2400 -0.9503
  714MOL0     H98512   6.059   6.173   7.480  0.8673 -0.2331 -0.2563
  714MOL0     H98513   6.252   6.249   7.369 -1.2941 -0.6294 -1.1174
  714MOL0     H98514   6.473   6.527   7.172  0.9556  1.7878 -0.6662
  714MOL0     H98515   6.665   6.598   7.037 -5.8155  1.8995  0.4170
  714MOL0     H98516   8.157   6.080   7.895 -1.2323 -0.1895 -2.1352
  714MOL0     H98517   8.354   6.023   8.019 -0.1912 -2.1466  0.5563
  714MOL0     H98518   8.731   5.899   8.092  0.2164  0.9154 -0.2372
  714MOL0     H98519   8.884   5.838   8.258 -0.3050  0.6049 -1.0437
  714MOL0     H98520   9.081   5.430   8.240  0.2341  0.6347 -0.5492
  714MOL0     H98521   9.176   5.569   8.201 -0.9313 -0.5348 -0.8835
  714MOL0     H98522   9.228   5.409   8.406  0.1132 -0.6767 -0.3077
  714MOL0     H98523   9.117   5.515   8.500 -0.4395 -0.7490 -0.9895
  714MOL0     H98524   9.356   5.592   8.532  4.1184  1.4824 -1.6054
  714MOL0     H98525   9.379   5.617   8.370  0.9104  1.3489  2.3659
  714MOL0     H98526   9.144   5.773   8.442 -0.9602 -2.0279  2.3099
  714MOL0     H98527   9.295   5.820   8.362 -3.3093 -0.0019 -1.1180
  714MOL0     H98528   9.376   5.893   8.784  1.5632  0.4489 -0.6948
  714MOL0     H98529   8.901   5.435   8.120  2.5978  0.8434 -1.7668
  714MOL0     H98530   8.620   5.446   7.945 -0.2788 -0.3060  1.0582
  714MOL0     H98531   8.743   5.457   7.827  1.8539  0.5773 -0.3472
  714MOL0     H98532   8.783   5.357   7.958  0.5053 -1.7773 -0.6362
  715MOL0     O98533   0.775   1.064   3.126 -0.0878 -0.6665 -0.1359
  715MOL0     C98534   0.711   1.051   3.018  0.5310  0.4700 -0.2445
  715MOL0     O98535   0.628   1.144   2.956  0.1323 -0.1373 -0.1030
  715MOL0     C98536   0.662   1.279   2.955 -0.4049 -0.0970  0.4309
  715MOL0     C98537   0.789   1.332   2.953  0.3154  0.5197 -0.8317
  715MOL0     C98538   0.831   1.466   2.961 -0.5486 -0.4812 -0.0097
  715MOL0     C98539   0.725   1.556   2.954  1.0150  0.0179  0.6999
  715MOL0     O98540   0.739   1.691   2.959 -0.2620 -0.0764 -0.1968
  715MOL0     C98541   0.864   1.751   2.950 -0.0253 -0.1595  0.5432
  715MOL0     C98542   0.843   1.901   2.920  0.8703  0.1895 -0.4974
  715MOL0     C98543   0.971   1.979   2.880  0.1104 -0.2823 -0.8378
  715MOL0     C98544   1.000   1.971   2.728 -0.3551  0.4468  0.2389
  715MOL0     C98545   1.107   1.868   2.691  0.2047  0.5922  0.0685
  715MOL0     C98546   1.145   1.871   2.537 -0.9527  0.2206 -0.3408
  715MOL0     C98547   1.213   1.732   2.514 -0.0826  0.1180 -0.5539
  715MOL0     C98548   1.255   1.714   2.365 -0.8690 -0.7496 -0.2391
  715MOL0     N98549   1.353   1.601   2.356 -0.3920 -0.3727 -0.0797
  715MOL0     C98550   1.331   1.467   2.387 -0.1635  0.1375 -0.4181
  715MOL0     C98551   1.450   1.407   2.369  0.1300  0.2078  0.1643
  715MOL0     C98552   1.467   1.259   2.391 -0.6931  0.6198 -0.1721
  715MOL0     C98553   1.603   1.226   2.463 -0.1892  0.2046  0.4715
  715MOL0     C98554   1.607   1.082   2.514 -0.1554  0.2092 -0.1092
  715MOL0     C98555   1.754   1.050   2.567  0.1934  0.3876  0.5644
  715MOL0     O98556   1.751   0.959   2.675  0.4685 -0.6400  0.0020
  715MOL0     C98557   1.718   1.013   2.795 -0.5331  0.0511 -0.5439
  715MOL0     C98558   1.620   0.957   2.865  0.3782  0.7842 -0.5892
  715MOL0     C98559   1.578   1.002   2.990  0.6879 -0.7840 -0.7755
  715MOL0     C98560   1.449   0.941   3.045  0.5355  0.2133  0.3070
  715MOL0     C98561   1.647   1.116   3.043 -0.3189  0.6870 -0.5859
  715MOL0     C98562   1.600   1.206   3.154 -0.8278  0.4487 -0.2475
  715MOL0     O98563   1.632   1.349   3.156 -0.1943  0.5305  0.6578
  715MOL0     C98564   1.549   1.416   3.240 -0.0302 -0.0829  0.0844
  715MOL0     C98565   1.595   1.456   3.365 -1.1113  0.0337 -0.5781
  715MOL0     C98566   1.523   1.536   3.447  0.2923  0.4820 -0.4882
  715MOL0     C98567   1.393   1.577   3.415  0.2373  0.5305  0.1674
  715MOL0     O98568   1.315   1.659   3.494 -0.0569  1.0912  0.5258
  715MOL0     C98569   1.311   1.638   3.633  0.6391 -0.0553 -1.0443
  715MOL0     C98570   1.223   1.743   3.703 -0.1082  0.1701  0.0259
  715MOL0     C98571   1.075   1.701   3.681 -0.2515  0.3736  1.0733
  715MOL0     C98572   0.992   1.818   3.726 -0.1917 -0.4692  0.4864
  715MOL0     C98573   0.848   1.792   3.684  0.8051 -0.6574 -0.6779
  715MOL0     C98574   0.755   1.906   3.732 -0.5386  0.3965  0.0948
  715MOL0     C98575   0.601   1.881   3.709  0.6715 -0.0231 -0.8168
  715MOL0     C98576   0.546   1.732   3.708  0.2947  0.1850  0.2259
  715MOL0    Cl98577   0.393   1.722   3.604 -0.2746  0.2339 -0.2221
  715MOL0     C98578   1.352   1.539   3.293  0.4839 -0.2682 -0.0769
  715MOL0     C98579   1.425   1.464   3.196  0.5016  0.1781  0.2895
  715MOL0     O98580   1.558   1.145   3.250 -0.2729  0.3698 -0.6043
  715MOL0     C98581   1.751   1.172   2.970 -0.3418  0.6643  0.0718
  715MOL0     C98582   1.783   1.126   2.848 -0.9411  0.4401  0.4829
  715MOL0     N98583   1.549   1.503   2.328  0.3502 -0.9104 -0.0868
  715MOL0     N98584   1.481   1.612   2.322 -0.4767 -0.2677 -0.0841
  715MOL0     C98585   0.595   1.512   2.944  0.2069 -0.2876  0.8226
  715MOL0     C98586   0.560   1.376   2.961  0.0368  0.2100  0.5859
  715MOL0     C98587   0.742   0.933   2.937  0.7379 -0.4917  0.1097
  715MOL0     C98588   0.642   0.878   2.850  0.2464 -0.2983 -0.0224
  715MOL0     C98589   0.665   0.769   2.765  0.9776 -0.4340  0.1844
  715MOL0     C98590   0.791   0.710   2.761  0.4731  0.1829 -1.4991
  715MOL0     O98591   0.833   0.606   2.683  0.0168 -0.0460 -0.0527
  715MOL0     C98592   0.729   0.510   2.642  0.6359  0.5111 -0.0712
  715MOL0     C98593   0.798   0.402   2.569 -0.2436  1.2134  0.4690
  715MOL0     C98594   0.696   0.329   2.482  0.0481  0.5451 -0.3805
  715MOL0     C98595   0.741   0.195   2.428 -0.4498 -0.3735  0.9400
  715MOL0     C98596   0.860   0.207   2.340 -0.2898  0.3097  0.3211
  715MOL0     C98597   0.954   0.203   2.261  0.0364  0.1413  0.3870
  715MOL0     C98598   0.889   0.764   2.846 -0.6654 -0.4409 -0.7537
  715MOL0     C98599   0.870   0.873   2.930 -0.0561 -0.2006  0.7676
  715MOL0     C98600   0.991   0.923   2.994  0.3842 -0.3183 -0.6695
  715MOL0     H98601   0.870   1.259   2.960 -1.1544 -1.0644  0.4063
  715MOL0     H98602   0.937   1.488   2.959 -0.4727 -0.7807 -2.5367
  715MOL0     H98603   0.915   1.707   2.864 -0.8071  1.0459 -0.5777
  715MOL0     H98604   0.926   1.741   3.039  0.3446 -1.0476  0.1970
  715MOL0     H98605   0.768   1.907   2.841  2.8553  2.1728 -2.3673
  715MOL0     H98606   0.807   1.959   3.005  2.3780  2.8077 -1.5190
  715MOL0     H98607   0.959   2.086   2.897  1.9104 -0.2397  0.4741
  715MOL0     H98608   1.058   1.961   2.944  0.5382 -1.3701 -1.6987
  715MOL0     H98609   0.912   1.956   2.665 -0.7950 -0.5906  1.0573
  715MOL0     H98610   1.055   2.061   2.701  0.6339  0.2951  1.6240
  715MOL0     H98611   1.060   1.774   2.723  3.3909 -0.4877  1.9757
  715MOL0     H98612   1.199   1.870   2.750  1.0054 -1.4001 -0.9873
  715MOL0     H98613   1.056   1.880   2.474 -0.8420 -0.4528 -0.6005
  715MOL0     H98614   1.217   1.952   2.522  0.0734 -0.9647 -2.2333
  715MOL0     H98615   1.137   1.654   2.529 -2.9979  2.4148 -2.2750
  715MOL0     H98616   1.302   1.723   2.578  0.7446 -0.0883 -1.7083
  715MOL0     H98617   1.173   1.678   2.302  0.9610 -0.4504 -2.9217
  715MOL0     H98618   1.300   1.806   2.326  0.6674 -1.9009 -1.2544
  715MOL0     H98619   1.234   1.426   2.413 -0.2097 -1.8627 -3.1900
  715MOL0     H98620   1.455   1.194   2.304  2.3467 -2.6542  1.5729
  715MOL0     H98621   1.389   1.224   2.460 -0.2020  2.1734  1.2410
  715MOL0     H98622   1.678   1.257   2.390 -2.2714  1.5198 -1.2294
  715MOL0     H98623   1.615   1.291   2.551  1.1389 -1.9396  1.9798
  715MOL0     H98624   1.533   1.070   2.593 -0.9780 -2.8854 -1.2080
  715MOL0     H98625   1.576   1.012   2.436 -1.6864 -0.2077  0.8174
  715MOL0     H98626   1.807   0.993   2.490 -0.7547 -0.6122  0.6351
  715MOL0     H98627   1.823   1.134   2.581  2.0733 -1.3433  2.4206
  715MOL0     H98628   1.560   0.889   2.805  0.3795 -1.0845  1.3966
  715MOL0     H98629   1.393   0.914   2.955 -1.7757 -1.5876  2.1605
  715MOL0     H98630   1.399   1.013   3.111  1.2783  0.5231  0.5498
  715MOL0     H98631   1.473   0.851   3.102  0.6448 -0.3258 -0.5673
  715MOL0     H98632   1.693   1.424   3.398 -1.3930 -0.0009  0.2363
  715MOL0     H98633   1.564   1.585   3.534  0.5438  0.7802 -0.7705
  715MOL0     H98634   1.274   1.535   3.640  1.5118 -0.5247 -2.9434
  715MOL0     H98635   1.413   1.648   3.671  0.0735 -0.6872  0.7396
  715MOL0     H98636   1.236   1.735   3.811 -0.5836 -0.3723  0.0464
  715MOL0     H98637   1.240   1.846   3.667 -2.2443  0.7648  0.6058
  715MOL0     H98638   1.047   1.617   3.745 -0.6196  1.3691  2.2353
  715MOL0     H98639   1.060   1.689   3.573  0.4603  1.9944  0.7591
  715MOL0     H98640   1.026   1.906   3.671  0.4572 -2.8121 -3.2371
  715MOL0     H98641   1.004   1.837   3.833  1.1024  0.1707  0.2414
  715MOL0     H98642   0.846   1.797   3.575 -0.3820  1.4403 -0.6233
  715MOL0     H98643   0.821   1.696   3.728  0.6891 -0.8825 -1.2449
  715MOL0     H98644   0.786   1.989   3.668 -1.4753  0.2924 -0.5202
  715MOL0     H98645   0.770   1.932   3.837  0.3807 -3.3195  1.0570
  715MOL0     H98646   0.579   1.921   3.610 -1.0314 -1.9761 -1.2982
  715MOL0     H98647   0.550   1.946   3.782  0.5405 -2.0059  0.9490
  715MOL0     H98648   0.509   1.696   3.804 -2.5172 -0.5521 -1.0367
  715MOL0     H98649   0.607   1.659   3.653 -1.0893 -0.3295 -0.6766
  715MOL0     H98650   1.262   1.594   3.268  0.5851 -0.2635 -0.4314
  715MOL0     H98651   1.388   1.436   3.098 -0.2011 -2.7666  1.2649
  715MOL0     H98652   1.812   1.250   3.013 -2.3205  2.1448  0.3462
  715MOL0     H98653   1.864   1.156   2.782 -2.0180 -1.6141 -1.9132
  715MOL0     H98654   0.516   1.583   2.924  1.5109  0.5178 -1.9387
  715MOL0     H98655   0.454   1.353   2.956 -0.3309  1.7047  0.7818
  715MOL0     H98656   0.545   0.925   2.862  0.6189  0.7591 -0.9010
  715MOL0     H98657   0.589   0.719   2.705  1.8412 -1.0692 -0.4098
  715MOL0     H98658   0.674   0.462   2.724 -1.3731 -0.4946 -1.9427
  715MOL0     H98659   0.656   0.566   2.584 -0.7056  0.8408  1.8430
  715MOL0     H98660   0.837   0.335   2.646 -1.4667 -3.8078 -2.7872
  715MOL0     H98661   0.878   0.442   2.505  1.6227 -1.6982  0.7922
  715MOL0     H98662   0.603   0.315   2.536 -1.1427  0.2305 -2.4125
  715MOL0     H98663   0.673   0.390   2.394 -0.7662  1.9563  0.7621
  715MOL0     H98664   0.667   0.149   2.361 -0.8272  0.5791  0.6787
  715MOL0     H98665   0.767   0.126   2.509 -2.7009 -3.1488 -0.4964
  715MOL0     H98666   1.029   0.184   2.187 -1.1581  1.1451 -1.1307
  715MOL0     H98667   0.981   0.707   2.852 -1.6505 -1.9119  1.9514
  715MOL0     H98668   0.996   0.881   3.094 -3.0784  0.8540  0.1365
  715MOL0     H98669   1.075   0.894   2.929 -1.3556 -2.2317 -2.1794
  715MOL0     H98670   0.980   1.032   3.005  0.5836 -0.4198  0.7150
  716MOL0     O98671   6.311   0.717   0.038  0.4210  0.2734 -0.0664
  716MOL0     C98672   6.256   0.624   0.092  0.4177  0.5991  1.7482
  716MOL0     O98673   6.128   0.616   0.131  0.6869 -0.2296  0.1053
  716MOL0     C98674   6.034   0.710   0.074 -0.5708  0.1377 -0.0008
  716MOL0     C98675   5.906   0.673   0.091 -0.3219  0.1202 -0.1896
  716MOL0     C98676   5.798   0.755   0.062 -0.3573  0.2257 -0.0219
  716MOL0     C98677   5.813   0.861  -0.020  0.3918 -0.4030 -0.0583
  716MOL0     O98678   5.714   0.934  -0.078 -0.4169  0.1059  0.2504
  716MOL0     C98679   5.585   0.875  -0.091 -1.2740  0.0289  0.7121
  716MOL0     C98680   5.498   0.973  -0.168  0.5377 -0.0111  0.1086
  716MOL0     C98681   5.444   1.086  -0.077  0.1759 -0.6070  0.9059
  716MOL0     C98682   5.362   1.189  -0.159 -0.3455 -1.0335  0.4607
  716MOL0     C98683   5.262   1.268  -0.074 -0.9269  0.0272 -0.2328
  716MOL0     C98684   5.187   1.369  -0.158 -0.2562  0.0071  0.2398
  716MOL0     C98685   5.075   1.456  -0.087  0.5896 -0.2280 -0.2453
  716MOL0     C98686   5.026   1.581  -0.166 -0.2681  0.3928 -0.3146
  716MOL0     N98687   4.993   1.542  -0.303 -0.3375 -0.0418  0.3466
  716MOL0     C98688   4.898   1.447  -0.354 -0.9007  1.1207 -0.1372
  716MOL0     C98689   4.929   1.435  -0.493 -0.8973 -0.2306 -0.1571
  716MOL0     C98690   4.884   1.332  -0.590 -0.7483 -0.2404 -0.7696
  716MOL0     C98691   4.740   1.333  -0.611  0.4033  0.7907 -0.1463
  716MOL0     C98692   4.711   1.220  -0.712  0.0194  0.1220 -0.4213
  716MOL0     C98693   4.582   1.221  -0.798  0.2386 -0.2538  0.0998
  716MOL0     O98694   4.589   1.320  -0.896  1.1976  1.0795 -0.3476
  716MOL0     C98695   4.489   1.327  -0.992  0.8620 -1.0508 -0.1091
  716MOL0     C98696   4.375   1.248  -0.988 -0.4098  0.3407  0.0218
  716MOL0     C98697   4.287   1.242  -1.095  0.2306 -0.3861  0.3740
  716MOL0     C98698   4.193   1.127  -1.090  0.1240 -0.1995  0.3256
  716MOL0     C98699   4.311   1.320  -1.209 -0.0797  0.2191 -0.2174
  716MOL0     C98700   4.217   1.335  -1.317  0.4408  0.0358  0.7676
  716MOL0     O98701   4.265   1.342  -1.440 -0.9454  0.1884 -0.3706
  716MOL0     C98702   4.188   1.369  -1.549  0.4624 -0.0711 -0.8258
  716MOL0     C98703   4.239   1.321  -1.669 -0.5160  0.0362 -0.7774
  716MOL0     C98704   4.176   1.356  -1.791  0.8446 -0.0415 -0.6087
  716MOL0     C98705   4.071   1.446  -1.791 -0.4219  0.4533 -0.8539
  716MOL0     O98706   4.010   1.467  -1.911  0.6842  0.4824 -0.1761
  716MOL0     C98707   3.892   1.534  -1.920  1.2355 -0.8616  0.4137
  716MOL0     C98708   3.854   1.547  -2.068  0.3874 -0.3590  0.9442
  716MOL0     C98709   3.953   1.647  -2.131  0.2164  0.3386  1.0475
  716MOL0     C98710   3.917   1.684  -2.277  0.3800  0.2665  0.8625
  716MOL0     C98711   4.029   1.749  -2.358  0.1403 -0.0744  0.0685
  716MOL0     C98712   3.982   1.744  -2.507 -0.3767  0.2931 -0.1282
  716MOL0     C98713   4.096   1.779  -2.597 -0.2979  0.4500  0.0166
  716MOL0     C98714   4.143   1.929  -2.586 -0.6441 -0.3658  0.0088
  716MOL0    Cl98715   4.272   1.954  -2.459  0.6161  0.1057  0.1977
  716MOL0     C98716   4.018   1.484  -1.674  0.0609 -0.6144 -0.7341
  716MOL0     C98717   4.072   1.448  -1.552 -0.7521  0.5905 -0.3100
  716MOL0     O98718   4.101   1.334  -1.290 -0.0923 -0.0305 -0.3669
  716MOL0     C98719   4.429   1.395  -1.215 -0.2608 -0.5080 -0.2549
  716MOL0     C98720   4.502   1.414  -1.101 -0.2019 -0.2329  0.0788
  716MOL0     N98721   5.031   1.519  -0.517  0.2631  0.9363  0.1242
  716MOL0     N98722   5.071   1.573  -0.405  0.4613  0.2607  0.0010
  716MOL0     C98723   5.946   0.902  -0.048 -0.4554  1.3081 -0.1985
  716MOL0     C98724   6.053   0.821  -0.004 -0.5432 -0.1095  0.1614
  716MOL0     C98725   6.338   0.526   0.155  0.1441 -0.1339  0.4927
  716MOL0     C98726   6.279   0.433   0.246 -0.4892 -0.1765  0.8900
  716MOL0     C98727   6.350   0.333   0.310 -0.1195 -0.1786 -0.3681
  716MOL0     C98728   6.485   0.312   0.280  0.6574 -1.1243 -1.3622
  716MOL0     O98729   6.557   0.197   0.318 -0.4836 -0.2693 -0.3813
  716MOL0     C98730   6.527   0.121   0.435  0.6449 -0.2124 -0.4550
  716MOL0     C98731   6.624  -0.003   0.440 -0.4005 -0.0614 -0.8789
  716MOL0     C98732   6.767   0.039   0.474 -0.2988 -0.1848  0.4404
  716MOL0     C98733   6.817  -0.027   0.590 -0.4435  0.0113  0.6164
  716MOL0     C98734   6.837  -0.168   0.577  0.8320 -0.6470  0.2408
  716MOL0     C98735   6.846  -0.285   0.562 -1.2256  0.0713 -0.0275
  716MOL0     C98736   6.541   0.393   0.183 -0.5697 -0.1329  0.8008
  716MOL0     C98737   6.474   0.493   0.110  0.2437 -0.4469  0.3865
  716MOL0     C98738   6.539   0.567  -0.004  0.0621 -0.7344  0.0239
  716MOL0     H98739   5.883   0.590   0.158 -0.6710 -0.9691 -1.6026
  716MOL0     H98740   5.703   0.709   0.089 -0.2766 -1.7410 -2.6476
  716MOL0     H98741   5.533   0.836  -0.004 -0.6766 -3.4889 -0.3516
  716MOL0     H98742   5.601   0.797  -0.167  0.2550  1.3825 -0.4285
  716MOL0     H98743   5.556   1.018  -0.249  1.6769  2.5860  2.2334
  716MOL0     H98744   5.407   0.923  -0.202  0.3701 -0.7569  1.5688
  716MOL0     H98745   5.373   1.033  -0.013 -0.4694 -0.1289  0.6011
  716MOL0     H98746   5.521   1.143  -0.024 -0.4782  0.9101  0.2944
  716MOL0     H98747   5.423   1.260  -0.216 -1.7356 -0.6104 -0.5765
  716MOL0     H98748   5.306   1.142  -0.241  0.5208 -1.1924 -0.0540
  716MOL0     H98749   5.313   1.328   0.002  1.9129 -0.1619 -1.8360
  716MOL0     H98750   5.190   1.200  -0.029  1.7168 -2.4694  0.4992
  716MOL0     H98751   5.259   1.445  -0.191 -1.4561  0.7189 -0.8365
  716MOL0     H98752   5.150   1.318  -0.248 -0.1031  1.6071 -0.7602
  716MOL0     H98753   5.116   1.500   0.004 -3.1722  0.3060  1.3865
  716MOL0     H98754   4.985   1.398  -0.061  0.5089 -1.0325 -2.1387
  716MOL0     H98755   4.944   1.631  -0.113 -0.0477 -2.1251  2.7154
  716MOL0     H98756   5.109   1.649  -0.183  1.1315 -2.1528 -6.2719
  716MOL0     H98757   4.818   1.390  -0.309 -1.4596  1.1607 -1.0451
  716MOL0     H98758   4.921   1.231  -0.569  2.1465  1.1763  1.7012
  716MOL0     H98759   4.931   1.347  -0.688 -0.1376 -2.8001 -0.9291
  716MOL0     H98760   4.680   1.321  -0.520  0.8494  1.4675  0.2432
  716MOL0     H98761   4.704   1.430  -0.646  1.8032  1.4829  0.2510
  716MOL0     H98762   4.793   1.190  -0.778  2.3766  0.6227  2.0762
  716MOL0     H98763   4.704   1.132  -0.647  1.2394 -1.1229 -1.8928
  716MOL0     H98764   4.571   1.126  -0.851  4.6437 -0.0338 -1.5447
  716MOL0     H98765   4.491   1.235  -0.739 -0.4871 -1.7540 -0.6021
  716MOL0     H98766   4.345   1.187  -0.903 -0.2625  1.2604  0.7535
  716MOL0     H98767   4.113   1.168  -1.028  0.0235 -0.1553  0.1669
  716MOL0     H98768   4.242   1.045  -1.036 -1.9508 -1.6310  0.1339
  716MOL0     H98769   4.158   1.096  -1.189  2.1210  2.6885 -1.4326
  716MOL0     H98770   4.330   1.262  -1.665  0.0450  0.8065 -1.7104
  716MOL0     H98771   4.198   1.321  -1.891 -0.9255 -1.3285 -0.5971
  716MOL0     H98772   3.811   1.480  -1.870  0.1983 -1.6856 -2.0366
  716MOL0     H98773   3.913   1.632  -1.876  0.8621  0.2124 -1.6671
  716MOL0     H98774   3.857   1.451  -2.120  0.3260  0.5158 -0.7362
  716MOL0     H98775   3.754   1.590  -2.078 -0.1379 -0.9641  2.9724
  716MOL0     H98776   4.053   1.603  -2.130 -0.2159 -0.8078 -0.7270
  716MOL0     H98777   3.956   1.739  -2.072  1.3043  0.2845  1.0899
  716MOL0     H98778   3.823   1.738  -2.293 -1.0005 -2.8098 -2.6347
  716MOL0     H98779   3.885   1.597  -2.334  0.2415 -0.5882  2.2124
  716MOL0     H98780   4.050   1.854  -2.335 -0.2459 -0.0712  0.4121
  716MOL0     H98781   4.116   1.685  -2.343  0.9349  1.2660  1.4383
  716MOL0     H98782   3.894   1.804  -2.526  0.4405  1.1115 -1.4449
  716MOL0     H98783   3.968   1.639  -2.535  1.3047  0.1166 -0.4199
  716MOL0     H98784   4.055   1.769  -2.698 -0.9263  2.4244  0.0188
  716MOL0     H98785   4.182   1.713  -2.591 -0.1479  0.5350 -1.0492
  716MOL0     H98786   4.060   1.993  -2.555  0.3666  2.8146 -3.2001
  716MOL0     H98787   4.173   1.975  -2.681  1.0808  2.3842  1.7674
  716MOL0     H98788   3.921   1.529  -1.659 -2.0187 -4.8571  0.0070
  716MOL0     H98789   4.039   1.496  -1.460  0.4268  0.7173  0.0676
  716MOL0     H98790   4.459   1.457  -1.299  2.9893 -1.1259  0.3274
  716MOL0     H98791   4.595   1.469  -1.110  1.1546 -2.2536  0.8103
  716MOL0     H98792   5.976   0.996  -0.093  1.7294 -0.4669 -2.7910
  716MOL0     H98793   6.150   0.861  -0.031 -2.1772  1.0702 -4.9086
  716MOL0     H98794   6.172   0.423   0.258 -0.4020 -1.2070  0.8907
  716MOL0     H98795   6.298   0.265   0.377  1.1214  0.0929  0.8951
  716MOL0     H98796   6.545   0.186   0.521  2.2947  2.7339 -2.8515
  716MOL0     H98797   6.420   0.096   0.434  0.7345 -0.5932 -0.4600
  716MOL0     H98798   6.612  -0.058   0.346  0.6518  0.0595 -1.0991
  716MOL0     H98799   6.599  -0.071   0.522 -1.8742  0.3360 -0.9812
  716MOL0     H98800   6.835   0.015   0.392 -0.7392  0.2491 -0.0574
  716MOL0     H98801   6.769   0.147   0.493  1.6835 -0.5234  2.6188
  716MOL0     H98802   6.757  -0.013   0.681  0.6668 -2.1526  1.7723
  716MOL0     H98803   6.915   0.015   0.613 -0.0665 -0.5883  0.1010
  716MOL0     H98804   6.875  -0.388   0.552 -3.7574 -0.9376  1.8573
  716MOL0     H98805   6.639   0.370   0.142 -0.8017 -1.2799  0.8671
  716MOL0     H98806   6.484   0.544  -0.096  0.8265 -3.3477  0.1255
  716MOL0     H98807   6.559   0.671   0.022  0.7900 -1.0650  0.8433
  716MOL0     H98808   6.634   0.518  -0.030 -0.8217 -3.2338  1.2368
  717MOL0     O98809   5.829   5.803   7.916  0.7439  0.1019  0.1944
  717MOL0     C98810   5.884   5.856   8.013 -0.3834  0.1378  0.0576
  717MOL0     O98811   5.880   5.808   8.138  0.0728 -0.2006 -0.1141
  717MOL0     C98812   5.867   5.670   8.145  0.2344 -0.7187  0.1041
  717MOL0     C98813   5.944   5.580   8.071  0.1100  1.1154 -0.0062
  717MOL0     C98814   5.929   5.444   8.089  0.5408  0.5401  0.5973
  717MOL0     C98815   5.839   5.393   8.189  0.6037 -1.0060 -0.6771
  717MOL0     O98816   5.827   5.252   8.182 -0.6352 -0.2849 -0.1370
  717MOL0     C98817   5.737   5.198   8.275  0.0658  0.1293  1.1054
  717MOL0     C98818   5.740   5.047   8.261  0.2739  0.3059 -0.7734
  717MOL0     C98819   5.863   4.997   8.340  0.0309 -0.1955  0.1261
  717MOL0     C98820   5.879   4.841   8.339  0.0053 -0.9271 -0.6551
  717MOL0     C98821   6.003   4.805   8.421 -0.8036  0.8091  0.5610
  717MOL0     C98822   6.084   4.688   8.360 -0.4174 -0.6126  0.6894
  717MOL0     C98823   6.195   4.648   8.466  0.3312  0.4760 -0.2558
  717MOL0     C98824   6.131   4.605   8.601  0.1743 -0.7159  0.4287
  717MOL0     N98825   6.034   4.502   8.579  0.8505  1.2675  0.0159
  717MOL0     C98826   6.056   4.367   8.552 -0.2006 -0.0054  0.4473
  717MOL0     C98827   5.930   4.308   8.529  0.0335  0.4384 -0.4648
  717MOL0     C98828   5.907   4.160   8.498  0.5637 -0.5691 -0.1209
  717MOL0     C98829   5.844   4.143   8.364 -0.2845  0.6791 -0.1644
  717MOL0     C98830   5.854   3.999   8.323  0.4209  0.0333 -0.3650
  717MOL0     C98831   5.743   3.953   8.221 -0.3860 -0.4992 -0.0610
  717MOL0     O98832   5.778   3.835   8.167 -0.3221 -0.0456 -0.0490
  717MOL0     C98833   5.700   3.769   8.074 -0.4605 -0.1420  0.2908
  717MOL0     C98834   5.748   3.658   8.022  0.1555  0.4257 -0.5335
  717MOL0     C98835   5.671   3.570   7.943 -0.3455 -0.4774  0.4161
  717MOL0     C98836   5.747   3.440   7.902  0.5264  0.1780  0.1195
  717MOL0     C98837   5.533   3.602   7.916  1.0650 -0.0649  0.1503
  717MOL0     C98838   5.432   3.509   7.850  0.3810  0.3785  0.3783
  717MOL0     O98839   5.481   3.407   7.770 -0.5096 -0.1523 -0.2238
  717MOL0     C98840   5.390   3.325   7.709 -1.4373 -0.0501 -0.5086
  717MOL0     C98841   5.311   3.236   7.787  0.5984 -0.0055 -0.5530
  717MOL0     C98842   5.233   3.140   7.720  0.3077  0.4577  0.8598
  717MOL0     C98843   5.228   3.135   7.580  0.1845  0.1578  0.3101
  717MOL0     O98844   5.153   3.049   7.497  0.0630  0.0330 -0.5709
  717MOL0     C98845   5.101   2.927   7.553 -0.1279  0.1610  0.6372
  717MOL0     C98846   5.128   2.815   7.444  0.1438  0.6862 -0.1140
  717MOL0     C98847   5.014   2.708   7.448 -0.2141  0.2889  0.4234
  717MOL0     C98848   4.882   2.758   7.391  0.3060  0.3403 -0.1045
  717MOL0     C98849   4.773   2.656   7.363 -0.5496 -0.0635 -0.2415
  717MOL0     C98850   4.657   2.716   7.308  1.1596 -0.9004  0.7894
  717MOL0     C98851   4.555   2.621   7.246 -0.1327 -0.6161 -1.1704
  717MOL0     C98852   4.417   2.692   7.255  0.3322  0.1161 -0.6423
  717MOL0    Cl98853   4.285   2.593   7.186  0.1045 -0.0929 -0.5315
  717MOL0     C98854   5.304   3.230   7.510  0.3141  0.2411  0.3070
  717MOL0     C98855   5.394   3.316   7.571  1.0987 -0.3358 -0.9117
  717MOL0     O98856   5.307   3.532   7.870  0.6184  0.2714 -0.4457
  717MOL0     C98857   5.483   3.720   7.967  0.0150  0.0910 -0.0583
  717MOL0     C98858   5.558   3.804   8.045  0.4052 -1.0953 -0.3216
  717MOL0     N98859   5.833   4.404   8.550 -0.5885 -0.0351 -0.5932
  717MOL0     N98860   5.895   4.520   8.578  0.6609 -0.3664  0.0721
  717MOL0     C98861   5.774   5.482   8.267 -1.0159  0.1096  0.2996
  717MOL0     C98862   5.791   5.616   8.249  0.1991  0.3061  0.9363
  717MOL0     C98863   5.962   5.980   7.984  1.0099 -0.4954  0.0913
  717MOL0     C98864   5.964   6.079   8.088 -0.4842  0.6386 -0.5125
  717MOL0     C98865   6.052   6.189   8.074 -0.8306  0.4317 -0.2197
  717MOL0     C98866   6.108   6.229   7.954 -1.0466  0.5144  0.4730
  717MOL0     O98867   6.178   6.342   7.948  0.2242 -0.4625  0.6818
  717MOL0     C98868   6.247   6.372   7.821  0.3319  0.3448 -0.3330
  717MOL0     C98869   6.346   6.487   7.835 -0.1250 -0.7223  0.7441
  717MOL0     C98870   6.297   6.620   7.888 -1.1739  0.3802 -0.3903
  717MOL0     C98871   6.399   6.745   7.884  0.0504  0.3278  0.8280
  717MOL0     C98872   6.458   6.764   7.752  0.6362 -0.0962 -0.5981
  717MOL0     C98873   6.506   6.777   7.642 -0.4708  0.5530  0.6222
  717MOL0     C98874   6.084   6.149   7.840  0.0618 -0.4710 -0.1986
  717MOL0     C98875   6.024   6.016   7.858  0.3095 -0.4303  0.4396
  717MOL0     C98876   6.019   5.934   7.741  0.5235 -0.0826  0.4082
  717MOL0     H98877   6.009   5.610   7.989  2.6072 -0.4109  1.2927
  717MOL0     H98878   5.984   5.382   8.019 -1.2506  1.8048 -2.1050
  717MOL0     H98879   5.642   5.247   8.248  1.3869  1.8860 -0.6167
  717MOL0     H98880   5.755   5.232   8.377  1.0333  1.2623  0.5716
  717MOL0     H98881   5.654   4.997   8.306  0.9179  0.6078  0.8812
  717MOL0     H98882   5.750   5.022   8.155 -0.1374 -3.6141 -0.0519
  717MOL0     H98883   5.957   5.044   8.309 -1.1695  1.8469 -0.5924
  717MOL0     H98884   5.846   5.027   8.444  0.8583  2.1478 -0.3459
  717MOL0     H98885   5.787   4.804   8.385 -1.3805  0.1608 -2.3992
  717MOL0     H98886   5.895   4.811   8.235 -1.6340 -2.1297 -0.5937
  717MOL0     H98887   5.970   4.780   8.522  3.4603  0.5162  2.1055
  717MOL0     H98888   6.070   4.891   8.428  1.5057 -0.7649 -0.9266
  717MOL0     H98889   6.022   4.599   8.341  2.7127 -2.7425 -0.2778
  717MOL0     H98890   6.123   4.724   8.265 -1.8270  2.4406  1.1334
  717MOL0     H98891   6.267   4.729   8.483 -0.8758  1.4505  0.3326
  717MOL0     H98892   6.258   4.573   8.417 -1.8126  0.0282 -2.4947
  717MOL0     H98893   6.212   4.566   8.663 -0.0463  0.1133  1.2549
  717MOL0     H98894   6.092   4.693   8.652 -1.7934 -0.7638 -0.8633
  717MOL0     H98895   6.148   4.310   8.559  0.5816  1.3798  1.9659
  717MOL0     H98896   5.839   4.115   8.571 -0.9466  1.0052 -0.5169
  717MOL0     H98897   6.003   4.108   8.494  2.4373  2.5229  0.9915
  717MOL0     H98898   5.738   4.171   8.367  0.0710  2.0707  0.4083
  717MOL0     H98899   5.895   4.214   8.299 -1.5265  0.0586 -1.8990
  717MOL0     H98900   5.952   3.965   8.288  1.0668  1.2997  0.1519
  717MOL0     H98901   5.831   3.940   8.412  0.8682 -0.7070 -0.7293
  717MOL0     H98902   5.643   3.952   8.267 -0.5840 -4.9879 -0.1791
  717MOL0     H98903   5.729   4.031   8.145  0.7889 -0.4724 -0.2601
  717MOL0     H98904   5.851   3.645   8.055 -0.6578  2.5302  3.4540
  717MOL0     H98905   5.675   3.358   7.908  0.7271 -0.0768 -0.7340
  717MOL0     H98906   5.831   3.416   7.968  1.2408  2.7714  0.2631
  717MOL0     H98907   5.785   3.442   7.799  2.7444 -0.4461  0.8591
  717MOL0     H98908   5.307   3.238   7.896  0.1207 -1.3904 -0.5262
  717MOL0     H98909   5.181   3.056   7.766 -4.0621  2.2494 -0.2738
  717MOL0     H98910   5.169   2.891   7.632  0.5139  0.2086  0.1138
  717MOL0     H98911   4.997   2.945   7.582 -0.5498 -1.6534  0.3431
  717MOL0     H98912   5.133   2.858   7.343 -2.9950 -2.0584 -1.6352
  717MOL0     H98913   5.229   2.776   7.460  0.5192 -0.9411 -4.8529
  717MOL0     H98914   5.001   2.663   7.546 -0.5710 -0.7186 -0.0725
  717MOL0     H98915   5.051   2.628   7.383 -0.3380  1.2164 -0.8446
  717MOL0     H98916   4.900   2.807   7.295  0.7144  1.6644  0.6224
  717MOL0     H98917   4.843   2.832   7.462 -2.1679 -2.0524  1.2667
  717MOL0     H98918   4.808   2.583   7.289  3.8026 -0.5707  2.0173
  717MOL0     H98919   4.757   2.605   7.458  1.9728 -0.7274 -0.1069
  717MOL0     H98920   4.681   2.779   7.222  2.6164  2.6107  3.5407
  717MOL0     H98921   4.610   2.769   7.391  0.7591 -2.5727  1.6684
  717MOL0     H98922   4.543   2.534   7.310 -2.2336  0.7438  0.4253
  717MOL0     H98923   4.583   2.590   7.145 -0.5585 -1.8406 -0.9250
  717MOL0     H98924   4.429   2.782   7.195  1.3448 -1.3922 -2.8513
  717MOL0     H98925   4.388   2.721   7.357  2.4076  0.6324 -0.1485
  717MOL0     H98926   5.289   3.238   7.403  0.5401 -1.4956  0.1260
  717MOL0     H98927   5.455   3.390   7.519 -0.8202  1.7537 -0.3777
  717MOL0     H98928   5.383   3.750   7.937 -1.1946 -1.0424  2.5334
  717MOL0     H98929   5.519   3.894   8.091 -0.3066 -0.5524 -1.9251
  717MOL0     H98930   5.700   5.465   8.345 -0.0560  1.2728  1.4889
  717MOL0     H98931   5.731   5.681   8.311 -1.6099  1.2254 -1.5854
  717MOL0     H98932   5.924   6.064   8.188  0.5249  0.4175 -0.1349
  717MOL0     H98933   6.057   6.256   8.160  4.4796  1.6560 -1.0938
  717MOL0     H98934   6.307   6.286   7.790  0.4258  0.6262 -0.9313
  717MOL0     H98935   6.178   6.393   7.739  2.1107  0.9277 -1.7408
  717MOL0     H98936   6.391   6.488   7.735  1.5575 -2.4559  1.4309
  717MOL0     H98937   6.425   6.452   7.902  0.7196 -0.7128 -0.2200
  717MOL0     H98938   6.210   6.654   7.831 -1.5717  2.7438  1.4286
  717MOL0     H98939   6.275   6.608   7.995  0.2440 -0.1829 -0.1381
  717MOL0     H98940   6.488   6.711   7.937 -0.9745 -2.1919  1.0567
  717MOL0     H98941   6.349   6.832   7.927 -0.6196 -0.6904  2.1593
  717MOL0     H98942   6.543   6.791   7.543 -1.2401 -2.3695 -0.1609
  717MOL0     H98943   6.134   6.169   7.745 -1.1554  1.0951 -0.5443
  717MOL0     H98944   6.082   5.849   7.769  2.5591 -0.1616 -3.7153
  717MOL0     H98945   5.912   5.912   7.728  0.2800  0.5856  1.1917
  717MOL0     H98946   6.053   5.995   7.657  0.1062  0.9211  0.9560
  718MOL0     O98947   6.725   2.488   6.196  0.3237  0.7185  0.2299
  718MOL0     C98948   6.754   2.530   6.305 -0.5297 -0.2222 -0.4428
  718MOL0     O98949   6.665   2.535   6.411  0.3206  0.1558  0.1769
  718MOL0     C98950   6.530   2.537   6.383  0.2160 -0.7790 -0.4023
  718MOL0     C98951   6.468   2.598   6.273  0.7715  0.2987  0.5478
  718MOL0     C98952   6.333   2.576   6.244  0.4323  0.2754  0.2103
  718MOL0     C98953   6.258   2.504   6.347  0.4645 -0.0615  0.8940
  718MOL0     O98954   6.120   2.488   6.338 -1.0605 -0.2999 -0.3007
  718MOL0     C98955   6.053   2.406   6.435 -0.9033  0.8698  1.2065
  718MOL0     C98956   5.910   2.367   6.390 -0.1688 -0.3700 -1.0563
  718MOL0     C98957   5.818   2.484   6.344  0.1423 -0.5106  0.2490
  718MOL0     C98958   5.680   2.443   6.316  0.5911  0.5037 -0.2534
  718MOL0     C98959   5.560   2.543   6.322 -0.1696 -0.1839  0.2136
  718MOL0     C98960   5.427   2.492   6.329  0.7784  0.4487  0.1629
  718MOL0     C98961   5.322   2.602   6.344 -0.2461 -0.0616  0.2298
  718MOL0     C98962   5.181   2.559   6.295  0.4915 -0.5445 -0.0335
  718MOL0     N98963   5.114   2.493   6.408  0.6155 -0.4123  0.2865
  718MOL0     C98964   5.134   2.365   6.447  0.2512 -0.6576 -0.0737
  718MOL0     C98965   5.026   2.334   6.520  0.1484 -0.1352 -0.8791
  718MOL0     C98966   4.990   2.210   6.588  0.7315  0.4836 -0.8185
  718MOL0     C98967   5.110   2.149   6.661  0.3305 -0.7097 -0.1629
  718MOL0     C98968   5.162   2.220   6.790  0.2090  0.3520 -0.2921
  718MOL0     C98969   5.285   2.149   6.842  0.6177 -0.2784 -0.5265
  718MOL0     O98970   5.227   2.026   6.896  0.5871 -0.5463 -0.1460
  718MOL0     C98971   5.315   1.942   6.949 -0.0762 -0.0505  0.0152
  718MOL0     C98972   5.260   1.825   7.002 -0.4971  0.6217  0.0093
  718MOL0     C98973   5.340   1.730   7.064  0.3273 -0.1913 -0.6312
  718MOL0     C98974   5.271   1.617   7.142  0.4825 -0.8821 -0.8356
  718MOL0     C98975   5.478   1.735   7.053 -0.3210 -0.2599 -0.8914
  718MOL0     C98976   5.576   1.626   7.104 -0.0098 -0.7193  0.8817
  718MOL0     O98977   5.700   1.675   7.132 -0.3204 -0.0505 -0.5567
  718MOL0     C98978   5.796   1.586   7.180 -0.0279 -0.6624 -0.8441
  718MOL0     C98979   5.863   1.613   7.292 -0.2939 -0.7168 -0.6654
  718MOL0     C98980   5.958   1.526   7.342 -0.2849 -0.5446  0.2513
  718MOL0     C98981   5.997   1.408   7.283 -0.1716 -0.1136  0.8540
  718MOL0     O98982   6.078   1.322   7.341 -1.0095 -0.5260 -0.9361
  718MOL0     C98983   6.020   1.199   7.400  0.0131 -0.8009 -0.1779
  718MOL0     C98984   6.080   1.157   7.531 -0.0199  0.8709 -0.5933
  718MOL0     C98985   6.030   1.019   7.578  0.6039  0.5029  0.0824
  718MOL0     C98986   6.118   0.955   7.686  0.1467  0.0106  0.1293
  718MOL0     C98987   6.064   0.826   7.753  0.0576 -0.0155 -0.0885
  718MOL0     C98988   5.929   0.839   7.827  0.1776  0.8210  0.3607
  718MOL0     C98989   5.884   0.704   7.879  0.1708  0.2271 -0.3048
  718MOL0     C98990   5.977   0.642   7.979 -0.3195 -0.7640 -0.9725
  718MOL0    Cl98991   5.994   0.761   8.120 -0.1102 -0.0716 -0.2555
  718MOL0     C98992   5.928   1.374   7.159  1.6830 -0.3722 -0.2631
  718MOL0     C98993   5.828   1.465   7.108  0.5060  0.2483  0.2842
  718MOL0     O98994   5.541   1.512   7.105 -0.5743 -0.0003  0.0178
  718MOL0     C98995   5.531   1.863   7.008 -0.4776  0.0813  0.2506
  718MOL0     C98996   5.455   1.961   6.950 -0.6846 -0.6097 -0.1389
  718MOL0     N98997   4.950   2.451   6.533  0.1814  0.1525 -1.1174
  718MOL0     N98998   4.990   2.543   6.453 -0.0426  0.2183  0.7442
  718MOL0     C98999   6.321   2.459   6.462 -0.6067  1.1057  0.0013
  718MOL0     C99000   6.451   2.482   6.478  1.1555  0.0763  0.3509
  718MOL0     C99001   6.900   2.541   6.330  0.1329 -1.2879 -0.1610
  718MOL0     C99002   6.942   2.509   6.461 -0.2545 -0.5198  0.7401
  718MOL0     C99003   7.076   2.500   6.491 -0.4950 -0.1189  0.1198
  718MOL0     C99004   7.179   2.517   6.392  0.7770 -0.5047  0.0776
  718MOL0     O99005   7.315   2.494   6.417 -0.3444  0.8621  0.5670
  718MOL0     C99006   7.353   2.437   6.541 -1.0625  0.7075 -0.2768
  718MOL0     C99007   7.382   2.536   6.659 -0.7699  0.7709  0.4962
  718MOL0     C99008   7.505   2.615   6.622  0.1429  0.0893 -0.7524
  718MOL0     C99009   7.583   2.685   6.743 -0.1137 -0.1940  0.6759
  718MOL0     C99010   7.492   2.784   6.804 -0.5210  1.0857 -0.8968
  718MOL0     C99011   7.420   2.871   6.860 -0.4823 -0.2737  0.4279
  718MOL0     C99012   7.135   2.565   6.263 -0.8133  0.1447  0.1606
  718MOL0     C99013   6.998   2.586   6.238  1.0176 -0.0749 -0.1409
  718MOL0     C99014   6.964   2.653   6.104 -0.7195  0.4075 -0.1155
  718MOL0     H99015   6.528   2.657   6.204 -0.2575  1.8312  0.9168
  718MOL0     H99016   6.279   2.609   6.157 -0.6749 -2.9956 -0.4878
  718MOL0     H99017   6.056   2.451   6.534  0.4585  1.4810  0.9090
  718MOL0     H99018   6.108   2.312   6.431 -0.7883  0.9722 -1.9075
  718MOL0     H99019   5.925   2.305   6.301 -2.1819  0.5961 -2.1329
  718MOL0     H99020   5.870   2.311   6.475 -1.9886  2.1301 -0.1535
  718MOL0     H99021   5.812   2.559   6.424 -1.5993  0.4123 -0.6775
  718MOL0     H99022   5.850   2.532   6.251 -2.9475 -0.7947 -1.0820
  718MOL0     H99023   5.672   2.395   6.218  0.6446  1.3555 -0.6860
  718MOL0     H99024   5.660   2.369   6.394  0.9957  1.9965  1.3264
  718MOL0     H99025   5.576   2.598   6.229  4.7246 -3.9425 -1.6568
  718MOL0     H99026   5.569   2.606   6.411 -3.6425 -0.7110  1.1043
  718MOL0     H99027   5.405   2.436   6.237  0.7366 -1.2736  1.1905
  718MOL0     H99028   5.430   2.421   6.412  2.9610 -1.9116 -1.7663
  718MOL0     H99029   5.351   2.677   6.271 -3.3612  1.6651  0.5727
  718MOL0     H99030   5.328   2.652   6.441 -0.8386 -0.4790  0.4925
  718MOL0     H99031   5.129   2.653   6.273  1.2171 -0.7402 -3.1381
  718MOL0     H99032   5.186   2.492   6.208  0.2948 -1.8645  0.9509
  718MOL0     H99033   5.217   2.301   6.417  0.2056 -0.2901 -1.0295
  718MOL0     H99034   4.962   2.141   6.507 -1.0690 -0.1502  0.2750
  718MOL0     H99035   4.905   2.223   6.655 -0.5332 -0.0327 -2.2512
  718MOL0     H99036   5.104   2.044   6.691  0.6466 -0.7252 -0.1580
  718MOL0     H99037   5.197   2.165   6.597  1.7347 -1.3557  1.5105
  718MOL0     H99038   5.188   2.324   6.770  3.3676 -0.1786  0.5419
  718MOL0     H99039   5.089   2.215   6.871  0.2739 -0.0905 -0.2580
  718MOL0     H99040   5.346   2.119   6.756 -0.6701 -1.7294 -0.9836
  718MOL0     H99041   5.332   2.215   6.915  0.4646  0.1307 -0.7978
  718MOL0     H99042   5.151   1.827   7.002 -0.5060  3.0606 -0.2807
  718MOL0     H99043   5.273   1.528   7.077  0.5935 -2.2321  0.9443
  718MOL0     H99044   5.170   1.644   7.173  1.0996 -0.0470  0.5436
  718MOL0     H99045   5.324   1.579   7.230 -0.1934 -0.7120 -0.3534
  718MOL0     H99046   5.825   1.694   7.352  0.4462  0.8101 -2.1718
  718MOL0     H99047   6.009   1.546   7.435  0.0050  2.2489 -0.4342
  718MOL0     H99048   5.912   1.214   7.409  0.5464  3.5850  0.8026
  718MOL0     H99049   6.053   1.116   7.336 -0.5107  0.2468 -1.8631
  718MOL0     H99050   6.189   1.149   7.531 -0.1464 -2.0528  0.7021
  718MOL0     H99051   6.050   1.226   7.611  2.1110  1.3155 -0.1170
  718MOL0     H99052   6.032   0.952   7.491 -1.9568 -0.9537  1.0455
  718MOL0     H99053   5.926   1.021   7.611  0.5069  4.0759  0.0147
  718MOL0     H99054   6.160   1.022   7.762  2.6412 -0.3104 -0.8754
  718MOL0     H99055   6.211   0.923   7.639  0.9716  1.4504  0.7232
  718MOL0     H99056   6.038   0.755   7.673 -2.0505  0.7363 -0.1231
  718MOL0     H99057   6.143   0.780   7.814  0.3529  0.4381 -0.1250
  718MOL0     H99058   5.845   0.874   7.766 -4.0508 -3.5696  2.9062
  718MOL0     H99059   5.952   0.905   7.911  0.8712  1.8424 -0.6015
  718MOL0     H99060   5.855   0.637   7.798  0.0788  1.3998 -1.2589
  718MOL0     H99061   5.794   0.720   7.940  0.2373 -0.3058 -0.0543
  718MOL0     H99062   6.081   0.623   7.951  0.3247 -0.4494  1.0553
  718MOL0     H99063   5.942   0.548   8.023  0.2990  0.3881  2.2252
  718MOL0     H99064   5.935   1.281   7.102  0.2717 -0.9075  0.3880
  718MOL0     H99065   5.778   1.434   7.017 -1.2956 -2.1950  1.9494
  718MOL0     H99066   5.638   1.879   7.017  0.0189 -2.2729 -0.5492
  718MOL0     H99067   5.501   2.055   6.921 -2.9796  0.3294 -0.9835
  718MOL0     H99068   6.266   2.392   6.527 -2.4939 -0.8427 -3.3530
  718MOL0     H99069   6.504   2.455   6.568  1.9050  2.7853  0.8338
  718MOL0     H99070   6.862   2.472   6.525 -1.4788 -3.6171 -2.2836
  718MOL0     H99071   7.096   2.471   6.594 -0.1678 -1.2003 -0.2379
  718MOL0     H99072   7.290   2.355   6.576  0.8735  0.1863  2.2848
  718MOL0     H99073   7.450   2.387   6.534 -0.1745  2.3695 -0.2546
  718MOL0     H99074   7.396   2.481   6.752  1.5428 -1.3078 -0.9576
  718MOL0     H99075   7.298   2.605   6.674  0.2556  2.4309 -1.0180
  718MOL0     H99076   7.575   2.564   6.556 -2.1598  1.5569 -4.7113
  718MOL0     H99077   7.469   2.678   6.540 -2.2312 -1.1768 -0.7892
  718MOL0     H99078   7.671   2.738   6.706  1.6437 -4.0552 -1.2052
  718MOL0     H99079   7.616   2.604   6.808 -1.8833 -2.5489 -1.1858
  718MOL0     H99080   7.365   2.950   6.907 -3.3318 -0.5149 -2.2050
  718MOL0     H99081   7.205   2.590   6.184 -0.1184 -3.4276 -0.5441
  718MOL0     H99082   6.863   2.630   6.068  0.1793 -2.1501 -1.2748
  718MOL0     H99083   6.978   2.760   6.119 -1.4770  0.3222  1.3893
  718MOL0     H99084   7.031   2.626   6.022 -2.1568 -0.3205 -1.1056
  719MOL0     O99085   6.170   4.285   6.874  0.2313  0.7597  0.7435
  719MOL0     C99086   6.102   4.343   6.962  0.4398  1.0270  0.9777
  719MOL0     O99087   6.008   4.446   6.937 -0.6564  0.4082 -0.6571
  719MOL0     C99088   5.951   4.472   6.811 -0.2597  0.6241 -0.8009
  719MOL0     C99089   5.917   4.597   6.772  0.0030  0.2133  1.1995
  719MOL0     C99090   5.848   4.615   6.652 -0.1746 -0.0173  1.4640
  719MOL0     C99091   5.821   4.515   6.555 -0.5531  0.1385 -0.3969
  719MOL0     O99092   5.756   4.533   6.431  0.3709  0.6889  0.2887
  719MOL0     C99093   5.710   4.666   6.397  0.2091  0.1994  0.0395
  719MOL0     C99094   5.626   4.663   6.267  0.4963  0.2903  0.0679
  719MOL0     C99095   5.708   4.651   6.143  0.1243 -0.9450 -0.3114
  719MOL0     C99096   5.633   4.647   6.016  0.0169 -0.6229 -0.8559
  719MOL0     C99097   5.732   4.658   5.905  0.2682  0.3362 -0.0367
  719MOL0     C99098   5.659   4.648   5.761  0.0401  1.0376 -0.3191
  719MOL0     C99099   5.753   4.722   5.656 -0.6022 -0.4026  0.1656
  719MOL0     C99100   5.901   4.668   5.648  0.2067 -0.1576  0.3381
  719MOL0     N99101   5.983   4.718   5.540  0.1454  0.0508 -0.8247
  719MOL0     C99102   5.990   4.852   5.508 -0.1424  0.0500 -0.5920
  719MOL0     C99103   6.059   4.849   5.389  0.2444 -0.1818 -0.8649
  719MOL0     C99104   6.096   4.960   5.299 -0.8247 -0.4844  0.4651
  719MOL0     C99105   5.990   5.070   5.289  0.2716 -0.0121  0.4461
  719MOL0     C99106   5.842   5.034   5.286  0.2325  0.4437 -0.4169
  719MOL0     C99107   5.767   5.120   5.182 -0.3094  0.3799  0.2873
  719MOL0     O99108   5.665   5.034   5.143 -0.2296  0.3590 -0.3135
  719MOL0     C99109   5.595   5.058   5.033  0.4879  0.0543 -0.0861
  719MOL0     C99110   5.468   5.102   5.043 -0.5702  0.3279 -0.0715
  719MOL0     C99111   5.384   5.116   4.931  0.1605  0.4059  0.0707
  719MOL0     C99112   5.237   5.150   4.948 -0.4513 -0.1773 -0.6584
  719MOL0     C99113   5.448   5.092   4.800 -0.0517  0.1378  0.8463
  719MOL0     C99114   5.377   5.117   4.666  0.1960  0.5261  0.1597
  719MOL0     O99115   5.289   5.222   4.659  0.2258 -0.4624 -0.3696
  719MOL0     C99116   5.226   5.251   4.543 -0.1298  0.2001  0.1180
  719MOL0     C99117   5.143   5.156   4.473 -0.0848 -0.3233  0.8537
  719MOL0     C99118   5.064   5.183   4.364 -0.0516 -0.5349  0.5635
  719MOL0     C99119   5.067   5.317   4.311 -0.2857  0.8344 -0.7236
  719MOL0     O99120   5.029   5.357   4.181  0.1665  0.4357 -0.8606
  719MOL0     C99121   4.940   5.286   4.098 -0.3089  1.1024 -0.1132
  719MOL0     C99122   4.931   5.354   3.965  0.1218  0.5941 -0.2465
  719MOL0     C99123   4.821   5.282   3.883  0.0467  0.2166  0.4698
  719MOL0     C99124   4.814   5.363   3.751  0.9392  0.1447  0.4301
  719MOL0     C99125   4.708   5.302   3.648  0.0544  0.5068  0.2613
  719MOL0     C99126   4.695   5.375   3.512  0.2225 -0.8226 -0.1934
  719MOL0     C99127   4.634   5.517   3.528 -0.6925 -0.5441  0.2324
  719MOL0     C99128   4.658   5.598   3.409 -0.5632 -0.2179 -0.4434
  719MOL0    Cl99129   4.617   5.764   3.437  0.0625  0.4314 -0.1374
  719MOL0     C99130   5.152   5.411   4.386  0.1069  0.0373  0.6674
  719MOL0     C99131   5.225   5.379   4.492  0.1729 -0.1428 -0.3468
  719MOL0     O99132   5.406   5.049   4.570  0.1167 -0.1108 -0.4611
  719MOL0     C99133   5.579   5.042   4.799 -0.3170 -0.4041  0.0483
  719MOL0     C99134   5.652   5.032   4.912 -0.7954  0.0290 -0.4815
  719MOL0     N99135   6.074   4.720   5.353 -0.4089  0.2060  0.6001
  719MOL0     N99136   6.041   4.644   5.450 -0.0949 -0.5545 -0.9157
  719MOL0     C99137   5.869   4.385   6.595 -0.7916 -1.0777  0.0006
  719MOL0     C99138   5.927   4.367   6.724 -0.3957  0.8270  0.4286
  719MOL0     C99139   6.122   4.300   7.099  0.1951  0.2979 -0.7893
  719MOL0     C99140   6.124   4.157   7.136  0.3928 -0.6995  0.0220
  719MOL0     C99141   6.139   4.119   7.276 -0.6367  0.5847 -0.2198
  719MOL0     C99142   6.173   4.213   7.366  0.1103  1.1153  0.1043
  719MOL0     O99143   6.195   4.184   7.497 -0.3250  0.8660  0.3160
  719MOL0     C99144   6.304   4.090   7.506 -0.6100  0.6269 -1.2049
  719MOL0     C99145   6.338   4.071   7.661  0.3910  0.1259  0.0771
  719MOL0     C99146   6.428   3.936   7.667 -0.0491 -0.9879  0.3165
  719MOL0     C99147   6.480   3.919   7.806  0.5311  1.3989 -0.1644
  719MOL0     C99148   6.578   4.024   7.843 -0.8050  0.0609  0.3991
  719MOL0     C99149   6.669   4.105   7.854  0.0157  0.5796  0.2557
  719MOL0     C99150   6.177   4.347   7.326  0.2390  0.3540  0.1299
  719MOL0     C99151   6.153   4.392   7.197 -0.3172 -0.0054  0.1005
  719MOL0     C99152   6.169   4.542   7.165  0.1667  0.7295 -0.0404
  719MOL0     H99153   5.954   4.683   6.827 -2.1734  1.6653  0.5340
  719MOL0     H99154   5.816   4.714   6.622  1.3308  0.3151  0.8579
  719MOL0     H99155   5.789   4.742   6.394  0.1635  0.2399 -0.1561
  719MOL0     H99156   5.642   4.705   6.474  0.5782 -0.8102  0.9100
  719MOL0     H99157   5.558   4.578   6.264 -0.9047  1.4041 -1.0294
  719MOL0     H99158   5.558   4.748   6.257  0.3397  0.2013  0.3683
  719MOL0     H99159   5.785   4.728   6.145  0.4668 -1.3023  1.4148
  719MOL0     H99160   5.779   4.569   6.141  2.4271  0.9330 -0.0880
  719MOL0     H99161   5.573   4.556   6.025 -1.3225  0.4289  3.0399
  719MOL0     H99162   5.563   4.731   6.005  0.7321 -0.2075 -2.5309
  719MOL0     H99163   5.806   4.577   5.905 -0.2207 -0.2387  2.9651
  719MOL0     H99164   5.785   4.753   5.908  1.1960 -0.1954  2.0803
  719MOL0     H99165   5.648   4.543   5.731 -3.2093  0.8131  1.2778
  719MOL0     H99166   5.554   4.677   5.750 -0.2776 -0.7298 -3.1328
  719MOL0     H99167   5.776   4.828   5.669  1.3067 -0.4784 -1.9225
  719MOL0     H99168   5.704   4.714   5.559  1.2234 -1.6832 -0.7129
  719MOL0     H99169   5.956   4.697   5.738  3.5998  0.9738 -1.9006
  719MOL0     H99170   5.897   4.558   5.646 -1.0162 -0.1935  2.3881
  719MOL0     H99171   5.939   4.938   5.550 -2.5031 -0.9501 -1.2774
  719MOL0     H99172   6.122   4.920   5.200  0.2752 -0.6678  0.8176
  719MOL0     H99173   6.188   5.006   5.334  1.1330 -1.0425 -3.4207
  719MOL0     H99174   6.005   5.143   5.369 -1.3134  0.5074  0.3149
  719MOL0     H99175   6.015   5.116   5.193  0.5477 -0.3394  0.3590
  719MOL0     H99176   5.831   4.927   5.265 -0.8810 -0.0138  2.0511
  719MOL0     H99177   5.796   5.055   5.383  1.3468  0.7496  0.0623
  719MOL0     H99178   5.737   5.218   5.220 -1.0047  1.2520 -2.2954
  719MOL0     H99179   5.828   5.145   5.095  0.4590  1.4488  1.0946
  719MOL0     H99180   5.419   5.123   5.137 -0.6338  1.4966 -0.3445
  719MOL0     H99181   5.200   5.087   5.030  0.0543 -1.3970 -1.3490
  719MOL0     H99182   5.178   5.124   4.860 -0.7619 -0.9027 -0.2421
  719MOL0     H99183   5.230   5.256   4.976 -3.1471 -0.1880 -1.0162
  719MOL0     H99184   5.152   5.055   4.513  1.2652  0.8197  3.7215
  719MOL0     H99185   5.011   5.101   4.316  0.9163 -1.6294  1.3152
  719MOL0     H99186   4.981   5.186   4.080 -1.7106  0.1552  1.5658
  719MOL0     H99187   4.844   5.297   4.150  0.7585 -0.2900  2.3015
  719MOL0     H99188   4.892   5.456   3.979 -0.7721  0.2703 -0.3089
  719MOL0     H99189   5.025   5.352   3.910  0.7825 -1.6847  0.8581
  719MOL0     H99190   4.724   5.269   3.932  0.0254  1.7545  0.8881
  719MOL0     H99191   4.851   5.181   3.852 -3.9624 -0.8105 -0.6411
  719MOL0     H99192   4.912   5.376   3.704  2.1403  2.5407  3.2386
  719MOL0     H99193   4.767   5.460   3.774  0.3948  0.6524 -2.4903
  719MOL0     H99194   4.741   5.199   3.631 -0.7539  0.1456  0.8267
  719MOL0     H99195   4.601   5.297   3.671 -0.9991  0.7817 -3.7819
  719MOL0     H99196   4.625   5.325   3.445 -1.3767  1.2393 -0.1818
  719MOL0     H99197   4.792   5.381   3.462 -0.6708  1.5751 -1.7841
  719MOL0     H99198   4.684   5.572   3.609  2.5887 -1.5753 -0.9411
  719MOL0     H99199   4.525   5.514   3.535 -0.6283 -0.1099  2.1590
  719MOL0     H99200   4.602   5.573   3.318 -1.1934  1.5090 -0.5639
  719MOL0     H99201   4.763   5.584   3.382  0.0378  2.1922  0.3777
  719MOL0     H99202   5.155   5.510   4.342 -2.5567 -0.4349 -0.7844
  719MOL0     H99203   5.292   5.452   4.536 -1.4979  1.4294 -0.2710
  719MOL0     H99204   5.621   5.008   4.705  0.6014 -0.0415  0.3173
  719MOL0     H99205   5.754   4.998   4.898 -0.6569 -0.1164  0.7538
  719MOL0     H99206   5.868   4.294   6.535 -0.5500  0.5034 -2.5122
  719MOL0     H99207   5.946   4.264   6.751  0.0226  0.0528 -2.5264
  719MOL0     H99208   6.111   4.076   7.065 -0.4240  0.5004 -1.2644
  719MOL0     H99209   6.125   4.015   7.306 -1.9541  1.1347  1.2519
  719MOL0     H99210   6.296   4.002   7.441  1.3461  1.4118 -2.6016
  719MOL0     H99211   6.388   4.143   7.460 -0.6656  0.0742 -1.9680
  719MOL0     H99212   6.255   4.057   7.731 -0.4463  0.5954 -0.7970
  719MOL0     H99213   6.398   4.155   7.699  2.2757 -1.3173  0.4433
  719MOL0     H99214   6.370   3.847   7.639 -1.5816  0.0072  0.2403
  719MOL0     H99215   6.518   3.945   7.606  0.6391 -1.7655  1.1699
  719MOL0     H99216   6.534   3.825   7.819 -2.3134  0.0637  3.3396
  719MOL0     H99217   6.393   3.930   7.870  0.7049  2.4778 -0.0947
  719MOL0     H99218   6.746   4.180   7.851  1.5989 -0.8518  2.3521
  719MOL0     H99219   6.202   4.410   7.411 -0.0068 -1.7060  1.8214
  719MOL0     H99220   6.208   4.550   7.063 -1.3052  4.4350 -0.4962
  719MOL0     H99221   6.076   4.599   7.180 -0.9619 -1.1795  0.4932
  719MOL0     H99222   6.248   4.576   7.232  0.2859  0.1184  0.1304
  720MOL0     O99223   5.635   5.835   2.416 -0.7545  0.1403  0.9416
  720MOL0     C99224   5.690   5.740   2.370 -0.9646  0.8778  0.2490
  720MOL0     O99225   5.658   5.675   2.262 -0.4980 -0.3567  0.3168
  720MOL0     C99226   5.569   5.733   2.169 -0.6447 -0.7217  0.2967
  720MOL0     C99227   5.551   5.876   2.135 -0.2329  0.8757  0.4772
  720MOL0     C99228   5.452   5.918   2.047 -0.0423  0.5095 -0.0096
  720MOL0     C99229   5.355   5.833   1.998  0.3475  0.2585  0.6219
  720MOL0     O99230   5.248   5.874   1.915  0.9234  0.1763 -0.2412
  720MOL0     C99231   5.175   5.992   1.944  1.1630  0.3939  0.5763
  720MOL0     C99232   5.087   5.972   2.070  0.0653  0.2715  1.4119
  720MOL0     C99233   5.046   6.106   2.133 -0.3720  0.1989  0.2044
  720MOL0     C99234   4.953   6.077   2.250  0.1472 -0.8192  0.2323
  720MOL0     C99235   4.931   6.194   2.340  0.2111 -0.5078 -0.8585
  720MOL0     C99236   4.899   6.142   2.482 -0.0780 -0.3546 -0.0395
  720MOL0     C99237   4.877   6.251   2.584 -0.4857 -0.5214 -0.7957
  720MOL0     C99238   4.754   6.339   2.546  0.7652 -0.8254  0.3524
  720MOL0     N99239   4.696   6.417   2.661  0.6873  0.6385  0.6891
  720MOL0     C99240   4.752   6.517   2.737  0.1995  0.5019 -0.9405
  720MOL0     C99241   4.670   6.537   2.839 -0.3850 -0.2783  0.0610
  720MOL0     C99242   4.696   6.640   2.947 -0.6904 -0.5276  0.5444
  720MOL0     C99243   4.793   6.585   3.041 -0.4131  0.3583 -0.1774
  720MOL0     C99244   4.823   6.702   3.151  0.6061  1.0078  0.2756
  720MOL0     C99245   4.939   6.662   3.238  0.5837 -0.0608  0.2977
  720MOL0     O99246   5.064   6.692   3.179  0.1844  0.2137  0.2454
  720MOL0     C99247   5.179   6.654   3.249 -0.0408 -0.8102 -0.1403
  720MOL0     C99248   5.302   6.681   3.185  1.1363 -0.2811 -0.3124
  720MOL0     C99249   5.424   6.650   3.249  0.6371  0.9906 -0.2620
  720MOL0     C99250   5.547   6.678   3.169  0.8860 -0.2545 -0.4287
  720MOL0     C99251   5.415   6.594   3.384  0.4562  0.4443 -0.0353
  720MOL0     C99252   5.538   6.553   3.458  0.1796 -0.0936  0.1225
  720MOL0     O99253   5.513   6.452   3.559 -0.2699 -0.4493  0.2330
  720MOL0     C99254   5.609   6.398   3.636 -0.6253  0.0415 -0.5699
  720MOL0     C99255   5.600   6.368   3.779 -0.4084  1.2874  0.0684
  720MOL0     C99256   5.704   6.309   3.849  0.0850  0.1302  0.2024
  720MOL0     C99257   5.818   6.268   3.789  0.7464 -0.6718  0.0071
  720MOL0     O99258   5.905   6.201   3.871  0.1472 -0.2874 -0.3942
  720MOL0     C99259   6.044   6.184   3.833  0.0456 -0.1662 -0.3059
  720MOL0     C99260   6.115   6.121   3.960  0.8092 -0.6084 -0.7330
  720MOL0     C99261   6.251   6.064   3.931 -0.3824 -0.4719 -0.3490
  720MOL0     C99262   6.361   6.162   3.876  0.8966 -0.0326 -0.2018
  720MOL0     C99263   6.484   6.087   3.830  0.7393  0.4084  0.3824
  720MOL0     C99264   6.590   6.179   3.759  1.0606  1.0948  0.2133
  720MOL0     C99265   6.672   6.083   3.679  0.2663 -0.0834  0.3996
  720MOL0     C99266   6.792   6.159   3.623  0.0371 -0.2102 -0.4691
  720MOL0    Cl99267   6.741   6.295   3.519  0.6704  0.1721 -0.3211
  720MOL0     C99268   5.831   6.296   3.654 -0.7831  0.3342 -0.1959
  720MOL0     C99269   5.735   6.361   3.582 -0.8862 -0.3789  0.9073
  720MOL0     O99270   5.658   6.600   3.436  0.5530  1.1854  0.4269
  720MOL0     C99271   5.293   6.570   3.436  1.2078  0.0180  0.5221
  720MOL0     C99272   5.182   6.589   3.367  0.8161  0.1025 -0.5275
  720MOL0     N99273   4.557   6.458   2.825  0.2090  0.4936 -0.1151
  720MOL0     N99274   4.576   6.388   2.715 -0.3134 -0.3222 -0.2332
  720MOL0     C99275   5.365   5.696   2.029 -0.1439 -0.1573  0.0299
  720MOL0     C99276   5.474   5.651   2.113  0.2214 -0.9633 -1.0311
  720MOL0     C99277   5.823   5.687   2.439  1.1367 -0.1106 -0.6364
  720MOL0     C99278   5.887   5.584   2.368  0.3475 -0.3094  0.2934
  720MOL0     C99279   6.005   5.530   2.416  1.4617  0.2048  0.7567
  720MOL0     C99280   6.056   5.565   2.536 -1.0168 -0.9140  0.4975
  720MOL0     O99281   6.164   5.499   2.586 -0.2949  0.5422  0.5106
  720MOL0     C99282   6.179   5.470   2.729  0.1549  0.7738 -0.8058
  720MOL0     C99283   6.315   5.401   2.735  0.5538  0.3877 -0.2237
  720MOL0     C99284   6.306   5.248   2.712 -0.3437  0.4901 -0.4223
  720MOL0     C99285   6.422   5.175   2.790  1.0057 -1.0373 -1.0444
  720MOL0     C99286   6.541   5.163   2.716 -0.1021  0.1997 -0.4204
  720MOL0     C99287   6.650   5.143   2.663  0.4154  0.1388 -0.4075
  720MOL0     C99288   5.987   5.660   2.611 -0.2565 -0.6008  0.3160
  720MOL0     C99289   5.874   5.733   2.561 -0.7702  0.2567  0.4000
  720MOL0     C99290   5.814   5.836   2.659 -0.1169  0.3396  0.6325
  720MOL0     H99291   5.621   5.941   2.187 -0.6435  0.8968  1.0096
  720MOL0     H99292   5.431   6.024   2.030 -0.6922  0.4110  0.1540
  720MOL0     H99293   5.121   6.022   1.854  2.9693 -3.5390 -2.1070
  720MOL0     H99294   5.253   6.065   1.966  0.5372  0.8176  1.4609
  720MOL0     H99295   4.996   5.916   2.047  0.1911 -0.2358  2.1290
  720MOL0     H99296   5.149   5.920   2.145 -0.7813 -0.7064  1.4586
  720MOL0     H99297   5.138   6.153   2.170  0.5476 -2.0727  0.9459
  720MOL0     H99298   5.002   6.160   2.048 -0.2866 -0.3977 -0.2278
  720MOL0     H99299   4.864   6.026   2.210  0.3068  0.6075 -2.1241
  720MOL0     H99300   5.001   5.994   2.302 -1.5045 -2.7431 -1.1427
  720MOL0     H99301   4.840   6.247   2.311 -1.0673 -1.4004  1.3165
  720MOL0     H99302   5.019   6.259   2.345  0.0790 -0.3451 -0.6136
  720MOL0     H99303   4.814   6.075   2.493 -2.4696  2.2081 -1.4884
  720MOL0     H99304   4.981   6.080   2.518 -1.6771 -2.0688  0.8013
  720MOL0     H99305   4.958   6.320   2.609 -1.6364 -0.0888  2.2261
  720MOL0     H99306   4.843   6.190   2.669 -0.2731 -0.8236 -0.9257
  720MOL0     H99307   4.780   6.414   2.470 -0.9070  0.2175  0.7673
  720MOL0     H99308   4.671   6.273   2.517 -0.1745  0.6306 -0.3703
  720MOL0     H99309   4.846   6.569   2.720  0.0384  0.6849 -1.2852
  720MOL0     H99310   4.601   6.665   2.995 -0.5815  0.7665  0.1097
  720MOL0     H99311   4.738   6.731   2.903  0.8486 -1.1207  0.7105
  720MOL0     H99312   4.763   6.488   3.082  0.1724  0.4103  0.3938
  720MOL0     H99313   4.884   6.573   2.981  0.7609  2.5781  1.0357
  720MOL0     H99314   4.848   6.794   3.097  0.2612  1.3343  0.6667
  720MOL0     H99315   4.731   6.710   3.210  0.1063 -0.3029 -0.2703
  720MOL0     H99316   4.936   6.716   3.333  0.4358  1.2116 -0.3937
  720MOL0     H99317   4.924   6.556   3.256 -0.6518  0.1291  0.4782
  720MOL0     H99318   5.297   6.724   3.086 -1.7855 -2.1112 -1.0659
  720MOL0     H99319   5.535   6.708   3.064  4.0791  0.6326 -0.6453
  720MOL0     H99320   5.616   6.594   3.165 -0.1178 -1.0526 -2.4373
  720MOL0     H99321   5.602   6.761   3.213 -0.3485 -1.0107  2.7871
  720MOL0     H99322   5.510   6.398   3.831 -1.2243  0.9220 -1.0899
  720MOL0     H99323   5.685   6.277   3.951  0.6661 -1.4655 -0.1583
  720MOL0     H99324   6.059   6.109   3.755  0.6621  1.4478 -1.8022
  720MOL0     H99325   6.090   6.280   3.806 -2.6516  1.5982  0.9539
  720MOL0     H99326   6.126   6.197   4.037 -0.3376  0.3269 -1.4450
  720MOL0     H99327   6.054   6.040   4.001  1.0924 -0.2778  0.3713
  720MOL0     H99328   6.243   5.982   3.858  1.1989  2.3525 -4.0235
  720MOL0     H99329   6.295   6.024   4.023  1.5197  2.0441 -0.0669
  720MOL0     H99330   6.383   6.232   3.956 -0.3458 -1.2446  1.2725
  720MOL0     H99331   6.315   6.221   3.797 -0.8723  0.4237  1.1067
  720MOL0     H99332   6.534   6.029   3.908  2.9262 -3.4254 -3.4613
  720MOL0     H99333   6.449   6.011   3.759 -0.9620 -0.5842  2.1779
  720MOL0     H99334   6.650   6.226   3.838 -0.2180  2.0519  0.6727
  720MOL0     H99335   6.552   6.260   3.695  1.1662 -0.1322 -1.4501
  720MOL0     H99336   6.605   6.044   3.602 -3.5523  1.4167  2.6727
  720MOL0     H99337   6.712   5.995   3.730 -3.4066 -1.5051  1.1264
  720MOL0     H99338   6.846   6.088   3.559 -1.2670 -1.0466 -0.6734
  720MOL0     H99339   6.848   6.185   3.714  0.6746 -2.5516 -0.1364
  720MOL0     H99340   5.916   6.259   3.598 -0.6631  0.5369 -0.1477
  720MOL0     H99341   5.754   6.369   3.476  0.3112  4.5511  1.2542
  720MOL0     H99342   5.298   6.531   3.537  1.2976 -2.4072 -0.3672
  720MOL0     H99343   5.088   6.549   3.403  1.3114  0.2435  0.9748
  720MOL0     H99344   5.291   5.630   1.985  0.3282  1.3606 -3.2544
  720MOL0     H99345   5.464   5.554   2.160 -3.8981  0.9679  2.7584
  720MOL0     H99346   5.855   5.559   2.267 -1.3379  0.9386  0.4692
  720MOL0     H99347   6.044   5.442   2.365 -0.1839 -0.6853  0.9629
  720MOL0     H99348   6.163   5.559   2.790  0.4136  1.0086 -1.0763
  720MOL0     H99349   6.100   5.398   2.751 -0.1862  1.6634  1.1133
  720MOL0     H99350   6.360   5.425   2.832 -0.4041  0.9528  0.1065
  720MOL0     H99351   6.376   5.435   2.651 -0.2520 -1.3386 -1.5723
  720MOL0     H99352   6.212   5.212   2.755 -1.0420  0.4848 -1.8628
  720MOL0     H99353   6.320   5.216   2.608 -0.9195 -2.8127  0.4240
  720MOL0     H99354   6.378   5.078   2.814  1.8128 -1.2890 -0.5495
  720MOL0     H99355   6.444   5.230   2.882 -0.2877 -0.0005 -1.3113
  720MOL0     H99356   6.748   5.123   2.624  0.6631  0.8640 -0.1831
  720MOL0     H99357   6.038   5.695   2.701  2.7939  1.3419 -1.9715
  720MOL0     H99358   5.763   5.919   2.610  1.1209 -0.5686 -2.4480
  720MOL0     H99359   5.744   5.783   2.724  1.9739 -0.3419  2.4841
  720MOL0     H99360   5.893   5.868   2.728 -0.0594  0.4000  0.5379
  721MOL0     O99361   7.911   4.142  11.481  0.1627 -0.5036  0.3601
  721MOL0     C99362   7.862   4.179  11.589 -0.3139  0.1739  0.6675
  721MOL0     O99363   7.935   4.206  11.701 -0.0210  0.4514 -0.6506
  721MOL0     C99364   8.074   4.181  11.712  0.9954 -0.1158  0.9220
  721MOL0     C99365   8.144   4.241  11.819 -0.4376  0.3957 -0.1278
  721MOL0     C99366   8.281   4.219  11.839 -0.1537 -0.2202  0.1797
  721MOL0     C99367   8.349   4.134  11.749 -1.0755 -0.1128  0.4586
  721MOL0     O99368   8.480   4.117  11.776  0.3364 -0.5606  0.2224
  721MOL0     C99369   8.567   4.045  11.685  0.9022  0.3207 -0.0582
  721MOL0     C99370   8.699   4.004  11.757  1.0160 -0.7866 -0.4182
  721MOL0     C99371   8.808   3.954  11.659 -0.5116  0.3862  0.6364
  721MOL0     C99372   8.948   3.973  11.732 -0.4951  0.0396  1.5128
  721MOL0     C99373   9.074   3.944  11.629 -0.0181 -0.0838 -0.3966
  721MOL0     C99374   9.200   4.019  11.685  0.5554 -0.5641 -0.1914
  721MOL0     C99375   9.322   3.991  11.594  0.3784 -0.2522 -0.2896
  721MOL0     C99376   9.322   4.060  11.454  0.5293  0.3020 -0.0344
  721MOL0     N99377   9.420   3.993  11.366 -0.1540 -0.5699  1.3592
  721MOL0     C99378   9.556   3.993  11.382 -0.5388 -0.1082  0.5670
  721MOL0     C99379   9.609   3.919  11.282  0.2122  0.0880  0.6795
  721MOL0     C99380   9.748   3.876  11.255 -0.2291 -0.5677 -0.0708
  721MOL0     C99381   9.841   3.997  11.209 -1.1687  0.7036 -0.5548
  721MOL0     C99382   9.776   4.085  11.104  0.8991 -0.8339  1.3895
  721MOL0     C99383   9.756   4.029  10.965 -0.0514 -0.9291 -0.5682
  721MOL0     O99384   9.866   3.948  10.931 -0.3102 -0.2735 -0.4079
  721MOL0     C99385   9.948   4.020  10.846  0.8308 -0.0612  0.7605
  721MOL0     C99386   9.960   3.994  10.708  0.8321 -0.5825  0.8766
  721MOL0     C99387  10.067   4.036  10.632 -0.4149  0.0173  0.5672
  721MOL0     C99388  10.078   3.997  10.480 -0.1251  0.1622 -0.9080
  721MOL0     C99389  10.159   4.130  10.688  0.3739  0.1200  1.1971
  721MOL0     C99390  10.259   4.209  10.614  0.4058 -0.0952  0.1411
  721MOL0     O99391  10.314   4.306  10.688 -0.1311 -0.3155  0.4892
  721MOL0     C99392  10.445   4.309  10.696  0.4287  0.7977 -0.8372
  721MOL0     C99393  10.501   4.285  10.823 -0.8338 -1.0676  0.3310
  721MOL0     C99394  10.642   4.302  10.840 -0.3629 -0.5950 -0.2634
  721MOL0     C99395  10.726   4.318  10.735 -0.1328 -0.6243  0.3606
  721MOL0     O99396  10.861   4.312  10.765  0.3304 -0.0970 -0.5947
  721MOL0     C99397  10.930   4.436  10.793 -0.8600  0.7175 -0.3508
  721MOL0     C99398  11.080   4.424  10.850  0.5249 -0.0766  0.3243
  721MOL0     C99399  11.166   4.328  10.764  0.3797  0.3390 -0.6971
  721MOL0     C99400  11.307   4.293  10.830  0.2878 -0.4970 -0.3640
  721MOL0     C99401  11.402   4.232  10.728  0.6572  0.1742 -0.7076
  721MOL0     C99402  11.360   4.088  10.680  0.4645  0.8180  0.6443
  721MOL0     C99403  11.338   3.976  10.786 -0.1869  0.9392 -0.7428
  721MOL0     C99404  11.362   3.833  10.742 -0.0277 -0.2846  0.1992
  721MOL0    Cl99405  11.239   3.822  10.609  0.2485  0.2219 -0.0087
  721MOL0     C99406  10.668   4.349  10.606 -0.1346  1.0609 -0.1652
  721MOL0     C99407  10.530   4.338  10.587  0.0607  0.4004  0.3415
  721MOL0     O99408  10.275   4.198  10.491 -0.2454 -0.3537 -0.2871
  721MOL0     C99409  10.143   4.152  10.824  0.1762 -0.5841 -0.4346
  721MOL0     C99410  10.039   4.097  10.906 -0.2395 -0.0215 -0.1290
  721MOL0     N99411   9.500   3.876  11.206  0.2505 -0.3159  0.5965
  721MOL0     N99412   9.395   3.928  11.245  0.7125  0.2969 -0.4683
  721MOL0     C99413   8.277   4.064  11.653 -0.7066  0.0946 -0.0952
  721MOL0     C99414   8.143   4.089  11.635  0.5969  0.2640 -0.1283
  721MOL0     C99415   7.706   4.186  11.587 -0.5036  0.3900  0.2286
  721MOL0     C99416   7.632   4.100  11.498 -0.0895 -0.1121 -0.5804
  721MOL0     C99417   7.493   4.089  11.501 -0.1711 -0.2570  0.2820
  721MOL0     C99418   7.419   4.170  11.577  0.9696  0.2640 -0.6252
  721MOL0     O99419   7.282   4.166  11.578  0.4942 -1.1037  0.0937
  721MOL0     C99420   7.219   4.185  11.445  0.7060  0.1354 -0.5236
  721MOL0     C99421   7.107   4.287  11.459 -0.0695  0.2459  0.5803
  721MOL0     C99422   7.013   4.279  11.341 -0.7221 -0.9202  0.0426
  721MOL0     C99423   6.932   4.407  11.314  0.2326  0.3395  0.3982
  721MOL0     C99424   6.833   4.379  11.205 -0.7750 -0.6000  1.0928
  721MOL0     C99425   6.744   4.378  11.121  0.1783  0.6612 -0.1760
  721MOL0     C99426   7.491   4.244  11.676  0.2364  0.1694  1.1403
  721MOL0     C99427   7.634   4.260  11.680 -0.4239  0.6175 -0.2411
  721MOL0     C99428   7.704   4.356  11.778  0.6600  0.6289  1.4503
  721MOL0     H99429   8.095   4.318  11.878 -0.6560 -0.7858  1.2788
  721MOL0     H99430   8.338   4.265  11.919 -0.7970  2.0719 -0.6096
  721MOL0     H99431   8.571   4.111  11.597  1.1181 -3.1849 -2.9135
  721MOL0     H99432   8.514   3.953  11.660 -0.8473  0.3789  2.9588
  721MOL0     H99433   8.727   4.092  11.816 -0.2332  0.4735 -1.6180
  721MOL0     H99434   8.679   3.925  11.829 -1.4506  0.2707  0.1399
  721MOL0     H99435   8.795   3.849  11.633  0.3883  0.0841  1.3632
  721MOL0     H99436   8.798   4.016  11.569  0.0344 -0.5146 -0.0641
  721MOL0     H99437   8.953   4.076  11.770  1.0775 -0.3295  2.3980
  721MOL0     H99438   8.957   3.908  11.819  2.9325 -3.2205 -0.9893
  721MOL0     H99439   9.047   3.987  11.532  3.1474 -0.1114 -1.4119
  721MOL0     H99440   9.093   3.838  11.609 -0.5102  0.1063 -2.0240
  721MOL0     H99441   9.170   4.124  11.692 -5.9029 -2.0803  1.9150
  721MOL0     H99442   9.217   3.981  11.786 -0.8161 -1.1445 -0.1597
  721MOL0     H99443   9.334   3.882  11.591  0.6586 -0.2270 -0.0688
  721MOL0     H99444   9.410   4.024  11.649 -0.7644 -1.4774  2.4752
  721MOL0     H99445   9.222   4.057  11.410 -1.4011 -0.1172  3.8992
  721MOL0     H99446   9.353   4.161  11.481  1.2014 -0.0806  0.6870
  721MOL0     H99447   9.601   4.037  11.471  0.8725  0.2911 -0.3148
  721MOL0     H99448   9.762   3.805  11.173  5.8813  0.4511 -0.3352
  721MOL0     H99449   9.792   3.832  11.345 -1.2909 -0.6784  0.4117
  721MOL0     H99450   9.864   4.052  11.300  0.6055 -0.5024 -0.2208
  721MOL0     H99451   9.935   3.955  11.169 -0.5550  0.7715  0.7831
  721MOL0     H99452   9.676   4.116  11.134 -0.0814  0.6068 -2.6866
  721MOL0     H99453   9.836   4.176  11.090 -1.2422  0.7328  1.8889
  721MOL0     H99454   9.660   3.977  10.952 -0.6209 -0.7367  2.2278
  721MOL0     H99455   9.762   4.114  10.897 -0.6264  0.5410  1.1389
  721MOL0     H99456   9.895   3.923  10.657  0.4717  1.3755 -1.6084
  721MOL0     H99457  10.030   4.074  10.418 -1.2662  0.1452 -0.0884
  721MOL0     H99458  10.023   3.903  10.468  0.2206 -0.8646  3.6922
  721MOL0     H99459  10.180   3.966  10.457  0.6316 -0.1930  2.3951
  721MOL0     H99460  10.434   4.284  10.908 -2.8481  0.4082 -1.1308
  721MOL0     H99461  10.687   4.296  10.939  2.9257  0.8673 -1.5324
  721MOL0     H99462  10.940   4.493  10.700  2.2839  2.4333  0.8705
  721MOL0     H99463  10.878   4.504  10.861  3.3690  4.2183 -0.1247
  721MOL0     H99464  11.115   4.528  10.854  0.0619  0.0511  1.2735
  721MOL0     H99465  11.068   4.379  10.949  0.4302 -3.8812 -1.2316
  721MOL0     H99466  11.178   4.382  10.669  1.2963  0.1941 -0.6736
  721MOL0     H99467  11.119   4.233  10.737  1.1417  0.5558 -3.0805
  721MOL0     H99468  11.284   4.210  10.897  0.3021  1.7735  2.6424
  721MOL0     H99469  11.338   4.381  10.888 -1.1213 -0.8398  0.9617
  721MOL0     H99470  11.424   4.297  10.643  1.5949 -1.9878 -2.2081
  721MOL0     H99471  11.498   4.223  10.780  0.1973 -3.7192 -0.2571
  721MOL0     H99472  11.440   4.053  10.614  0.6301  0.0552  1.2396
  721MOL0     H99473  11.270   4.101  10.620 -1.1849  1.4194  3.0753
  721MOL0     H99474  11.235   3.989  10.819 -0.1181  1.8283 -0.8551
  721MOL0     H99475  11.406   3.995  10.869  1.3177 -1.3509 -1.3430
  721MOL0     H99476  11.348   3.760  10.822 -1.2442  1.3843  1.5791
  721MOL0     H99477  11.462   3.839  10.699  0.6238  1.7520  1.8367
  721MOL0     H99478  10.729   4.362  10.518  1.2043  2.5604  0.9156
  721MOL0     H99479  10.482   4.345  10.490  0.2201  0.5609  0.2727
  721MOL0     H99480  10.202   4.216  10.888  1.7270 -0.4177 -1.9479
  721MOL0     H99481  10.053   4.088  11.013 -0.9164 -0.8181 -0.0963
  721MOL0     H99482   8.324   3.997  11.581 -2.5469 -1.8557  0.4139
  721MOL0     H99483   8.094   4.036  11.554  0.3391  1.6520 -0.9080
  721MOL0     H99484   7.690   4.035  11.433 -1.0504 -1.8037  0.1768
  721MOL0     H99485   7.449   4.012  11.439  1.1195  1.9030 -3.6805
  721MOL0     H99486   7.290   4.218  11.368 -1.0810  2.7054 -1.1880
  721MOL0     H99487   7.188   4.083  11.419  2.2901 -1.2793  2.5574
  721MOL0     H99488   7.149   4.387  11.475 -1.4206  0.7344  1.1862
  721MOL0     H99489   7.038   4.252  11.536 -1.9747 -0.2261 -1.2712
  721MOL0     H99490   7.086   4.272  11.259  1.2608  5.5719  0.6884
  721MOL0     H99491   6.949   4.192  11.357  1.6386 -2.6733  0.4700
  721MOL0     H99492   6.997   4.492  11.292  1.7387 -0.3146  2.0444
  721MOL0     H99493   6.874   4.431  11.403  1.4246 -0.0192  1.3061
  721MOL0     H99494   6.663   4.358  11.053  0.1175  0.7668 -0.1339
  721MOL0     H99495   7.437   4.309  11.744 -0.0305  0.1866  0.9106
  721MOL0     H99496   7.797   4.398  11.737  0.7354  0.0352  1.0004
  721MOL0     H99497   7.642   4.442  11.802  0.6187  1.3093 -0.8442
  721MOL0     H99498   7.730   4.301  11.869 -1.3477 -1.1906  0.9960
  722MOL0     O99499   0.913   9.813   2.511  0.5444 -0.3299  0.0256
  722MOL0     C99500   0.947   9.900   2.597  0.0275  0.2509  0.5636
  722MOL0     O99501   1.053   9.887   2.674 -0.1043 -0.2443 -0.7166
  722MOL0     C99502   1.148   9.810   2.616  0.5870  0.1042 -0.4132
  722MOL0     C99503   1.227   9.839   2.503  0.1810  0.2845  0.0917
  722MOL0     C99504   1.306   9.733   2.453 -0.2205 -0.2100 -0.4676
  722MOL0     C99505   1.322   9.612   2.518  0.3371 -0.1819 -0.2937
  722MOL0     O99506   1.403   9.513   2.464  0.0127 -0.2148 -0.4423
  722MOL0     C99507   1.406   9.500   2.323 -0.1901 -1.0549  0.3108
  722MOL0     C99508   1.533   9.435   2.260 -0.6593 -0.9616 -0.0070
  722MOL0     C99509   1.661   9.531   2.254  0.4126  0.9047  0.2922
  722MOL0     C99510   1.640   9.665   2.189 -0.6551 -1.1131 -0.2058
  722MOL0     C99511   1.761   9.760   2.202 -0.6691  0.0904 -0.5973
  722MOL0     C99512   1.872   9.709   2.099  0.1071  0.1191  0.9010
  722MOL0     C99513   2.006   9.785   2.116  0.2038  0.0900 -0.2173
  722MOL0     C99514   1.996   9.941   2.103  0.3279 -0.4516 -0.4485
  722MOL0     N99515   1.945   9.971   1.964 -0.8792 -0.0590 -0.7207
  722MOL0     C99516   1.829  10.026   1.935 -0.6159 -0.6258 -0.0261
  722MOL0     C99517   1.838  10.043   1.796  0.1489  0.2967  0.0640
  722MOL0     C99518   1.723  10.126   1.735  0.0357  1.0078  0.4812
  722MOL0     C99519   1.623  10.049   1.647  0.3547 -0.4502 -0.1893
  722MOL0     C99520   1.677  10.001   1.516  0.2964  0.0856 -0.0990
  722MOL0     C99521   1.587   9.911   1.432  0.6244  0.2652  0.4343
  722MOL0     O99522   1.488   9.991   1.373 -0.8413  0.2094  0.4611
  722MOL0     C99523   1.361   9.955   1.373 -0.2715  0.0938  0.1286
  722MOL0     C99524   1.317   9.818   1.373 -0.5504 -0.1353  0.2687
  722MOL0     C99525   1.179   9.784   1.348 -0.0766  0.1079  0.3408
  722MOL0     C99526   1.146   9.640   1.334  0.4424 -0.1547 -0.8039
  722MOL0     C99527   1.079   9.890   1.348  0.1939  0.7703  0.1352
  722MOL0     C99528   0.934   9.866   1.343  0.9608 -0.2099 -0.1800
  722MOL0     O99529   0.850   9.973   1.299 -0.2671  0.0963 -0.1504
  722MOL0     C99530   0.715   9.974   1.314  0.9086 -0.5487  1.1926
  722MOL0     C99531   0.643  10.060   1.225  1.1222  0.5313  0.1676
  722MOL0     C99532   0.508  10.088   1.240 -0.4487  0.0448  0.9698
  722MOL0     C99533   0.424  10.018   1.323 -0.6473 -0.7313 -0.8059
  722MOL0     O99534   0.285  10.045   1.320  0.1191 -0.4608 -0.4734
  722MOL0     C99535   0.210   9.972   1.410  0.1693  0.3251 -0.2917
  722MOL0     C99536   0.074  10.053   1.428 -0.5909  0.4366 -0.0720
  722MOL0     C99537   0.056  10.122   1.562 -0.3061  0.6970  0.3558
  722MOL0     C99538  -0.080  10.198   1.564  0.3065 -0.3474 -0.6750
  722MOL0     C99539  -0.202  10.102   1.598 -0.3761  0.0166  0.4968
  722MOL0     C99540  -0.306  10.197   1.653  0.6931 -0.1735 -0.4111
  722MOL0     C99541  -0.429  10.128   1.705  0.3231  0.4726 -0.1460
  722MOL0     C99542  -0.462  10.141   1.846  0.6925 -0.4920 -0.7354
  722MOL0    Cl99543  -0.464  10.317   1.891  0.0529  0.3225 -0.2250
  722MOL0     C99544   0.495   9.929   1.403 -0.4512  0.1368  0.0285
  722MOL0     C99545   0.635   9.901   1.395 -0.4387 -0.5070  0.2644
  722MOL0     O99546   0.893   9.763   1.399 -0.6717 -0.3738 -0.7795
  722MOL0     C99547   1.125  10.023   1.352  0.4086 -1.2280  0.2699
  722MOL0     C99548   1.263  10.058   1.352  0.2491  0.2112  0.1467
  722MOL0     N99549   1.966  10.019   1.754  0.1494 -0.1104 -0.2476
  722MOL0     N99550   2.031   9.975   1.856 -0.2669 -0.7143  0.6331
  722MOL0     C99551   1.241   9.584   2.635  0.1082 -0.0565  0.3704
  722MOL0     C99552   1.159   9.691   2.679  0.1998 -0.3287  0.5395
  722MOL0     C99553   0.839  10.005   2.626 -0.2117  0.3336 -0.0692
  722MOL0     C99554   0.720  10.012   2.546 -0.1843 -0.4108  0.5353
  722MOL0     C99555   0.621  10.104   2.573 -0.3592  0.0402  0.7226
  722MOL0     C99556   0.629  10.183   2.686 -1.1381  0.5104  0.6814
  722MOL0     O99557   0.525  10.266   2.709 -0.0102 -0.2682  0.3317
  722MOL0     C99558   0.421  10.205   2.782 -0.6750 -0.2849 -0.4991
  722MOL0     C99559   0.303  10.296   2.773  0.3824  0.7646 -0.2654
  722MOL0     C99560   0.165  10.251   2.833  0.0939 -0.5052  0.3031
  722MOL0     C99561   0.171  10.185   2.973  0.2713 -0.4914 -0.1404
  722MOL0     C99562   0.215  10.280   3.067 -0.0243  0.6565 -0.1638
  722MOL0     C99563   0.252  10.356   3.158 -0.7285  0.6826 -0.4888
  722MOL0     C99564   0.749  10.193   2.761  0.0484  0.4768 -0.6468
  722MOL0     C99565   0.854  10.101   2.734  0.2369  0.1512  0.7053
  722MOL0     C99566   0.983  10.122   2.806  0.8552 -0.3304  0.1037
  722MOL0     H99567   1.233   9.938   2.461  1.8607  0.5161  0.7856
  722MOL0     H99568   1.370   9.766   2.372  2.4877 -1.1253  1.1697
  722MOL0     H99569   1.398   9.595   2.269 -0.0715 -1.4324 -0.3823
  722MOL0     H99570   1.337   9.423   2.286  1.6578 -1.9655 -1.4531
  722MOL0     H99571   1.556   9.346   2.320  0.1510  2.9545  6.3983
  722MOL0     H99572   1.505   9.400   2.160 -0.7890 -0.0002 -0.3159
  722MOL0     H99573   1.696   9.545   2.357  3.7190  0.1616 -0.6130
  722MOL0     H99574   1.748   9.481   2.210  1.0837  2.7753 -0.6155
  722MOL0     H99575   1.616   9.646   2.084 -0.6127 -0.2747 -0.3738
  722MOL0     H99576   1.557   9.719   2.235  1.3590  0.8596  1.3345
  722MOL0     H99577   1.793   9.770   2.306 -0.3073  1.7904 -0.8456
  722MOL0     H99578   1.718   9.849   2.156 -1.8512  0.6377  1.4520
  722MOL0     H99579   1.895   9.603   2.114 -1.0814 -0.1997  0.5476
  722MOL0     H99580   1.838   9.720   1.995  1.4943  0.6153  0.4676
  722MOL0     H99581   2.077   9.748   2.042 -0.2641 -0.5186 -0.3711
  722MOL0     H99582   2.033   9.753   2.217  0.0800 -0.3624 -0.3267
  722MOL0     H99583   1.928   9.989   2.174  0.6218 -1.0537  0.2486
  722MOL0     H99584   2.095   9.983   2.121 -0.2064  1.2268 -1.2185
  722MOL0     H99585   1.753  10.048   2.009 -0.8701 -2.1697  0.2194
  722MOL0     H99586   1.770  10.210   1.682  1.5305  0.5599  1.0702
  722MOL0     H99587   1.660  10.170   1.813 -1.9854  1.2570 -1.2047
  722MOL0     H99588   1.583   9.961   1.699 -3.4036  2.5692  2.6407
  722MOL0     H99589   1.541  10.119   1.629 -0.2144 -1.4348 -1.5740
  722MOL0     H99590   1.709  10.091   1.461 -1.5055  1.3342  0.7902
  722MOL0     H99591   1.768   9.943   1.534  0.6139 -0.0602 -1.9417
  722MOL0     H99592   1.638   9.870   1.345 -1.2444  0.7340 -0.9491
  722MOL0     H99593   1.536   9.833   1.488 -2.0617  1.4532 -0.2133
  722MOL0     H99594   1.392   9.742   1.394  0.1865  0.4768 -0.0931
  722MOL0     H99595   1.104   9.621   1.235 -0.2462  1.9092 -0.9656
  722MOL0     H99596   1.071   9.601   1.404  2.0110 -0.9007  0.5396
  722MOL0     H99597   1.234   9.576   1.338  0.0462 -0.6961 -0.5549
  722MOL0     H99598   0.700  10.125   1.159  0.9482  2.1491  1.5495
  722MOL0     H99599   0.475  10.162   1.168 -2.9869 -1.0891  0.8538
  722MOL0     H99600   0.182   9.871   1.375 -0.2241 -0.1235  1.2479
  722MOL0     H99601   0.253   9.953   1.508  0.1939 -0.0008 -0.3627
  722MOL0     H99602   0.063  10.125   1.346  0.4592  1.3818  0.5933
  722MOL0     H99603   0.003   9.971   1.419 -2.1572  1.6386  0.9280
  722MOL0     H99604   0.136  10.194   1.579  0.0618  0.2755  0.4282
  722MOL0     H99605   0.060  10.055   1.649  0.7841 -0.1588 -0.3203
  722MOL0     H99606  -0.102  10.251   1.470 -0.7340 -1.0154 -0.8266
  722MOL0     H99607  -0.074  10.271   1.645  1.3250 -2.3593  1.1581
  722MOL0     H99608  -0.246  10.049   1.514 -2.8759  0.2749  1.5434
  722MOL0     H99609  -0.180  10.027   1.675 -4.2372 -1.4077  0.4191
  722MOL0     H99610  -0.333  10.286   1.596  0.8180 -0.4925 -0.9826
  722MOL0     H99611  -0.259  10.245   1.739  0.2682 -0.3586 -0.0661
  722MOL0     H99612  -0.415  10.021   1.687  0.3042  0.7461 -1.9720
  722MOL0     H99613  -0.516  10.167   1.652 -0.1065  1.5782  1.3148
  722MOL0     H99614  -0.383  10.089   1.902  1.5791  1.8476  0.3404
  722MOL0     H99615  -0.562  10.099   1.859 -0.8550  2.7592 -0.9855
  722MOL0     H99616   0.451   9.851   1.464  1.4167 -1.9370 -1.1475
  722MOL0     H99617   0.671   9.815   1.450 -3.1427 -2.9781 -1.5281
  722MOL0     H99618   1.056  10.107   1.345 -1.3428 -2.3656  2.6208
  722MOL0     H99619   1.298  10.161   1.345  1.2282  0.0200  1.8133
  722MOL0     H99620   1.238   9.483   2.676 -3.5880  0.1082  0.7855
  722MOL0     H99621   1.092   9.665   2.761  0.3690 -1.0934  0.4434
  722MOL0     H99622   0.704   9.933   2.474  4.7192 -0.4403 -0.8972
  722MOL0     H99623   0.525  10.117   2.524  0.2078  1.7101 -0.0329
  722MOL0     H99624   0.391  10.108   2.741  0.7128  0.4414 -3.4507
  722MOL0     H99625   0.450  10.180   2.885 -3.1891 -0.5970  0.2099
  722MOL0     H99626   0.283  10.320   2.669 -2.6596 -2.4271 -0.6080
  722MOL0     H99627   0.327  10.392   2.820 -1.0324 -0.3300  3.0071
  722MOL0     H99628   0.097  10.336   2.837 -1.3247 -1.5031 -1.2262
  722MOL0     H99629   0.118  10.187   2.758 -1.5306 -1.2096  1.8344
  722MOL0     H99630   0.231  10.094   2.978  0.7127 -0.4350 -2.9277
  722MOL0     H99631   0.070  10.149   2.992 -0.0059  0.3407  0.0084
  722MOL0     H99632   0.299  10.409   3.238 -1.1311 -1.7474  1.4772
  722MOL0     H99633   0.756  10.261   2.845  2.0217 -1.1730  0.6236
  722MOL0     H99634   0.979  10.214   2.864  1.3715  2.0084 -3.2787
  722MOL0     H99635   1.004  10.039   2.874 -1.2218 -1.6538 -0.7681
  722MOL0     H99636   1.065  10.137   2.735  0.4011  1.9340 -0.0061
  723MOL0     O99637  10.503   1.123   1.163 -0.0008 -0.3152 -0.4134
  723MOL0     C99638  10.466   1.215   1.091 -0.0179 -0.3038 -0.9862
  723MOL0     O99639  10.548   1.280   1.002  0.7036 -0.6311  0.4841
  723MOL0     C99640  10.682   1.253   1.030  0.3470 -0.4434 -0.3306
  723MOL0     C99641  10.751   1.159   0.952  0.4794  0.4957  0.4892
  723MOL0     C99642  10.888   1.140   0.967 -0.1092  0.0427 -0.0063
  723MOL0     C99643  10.960   1.209   1.074  0.0509 -0.4018  1.3475
  723MOL0     O99644  11.100   1.189   1.094 -0.2406  0.5087 -0.0646
  723MOL0     C99645  11.183   1.138   0.996 -0.4707  0.6875  0.1389
  723MOL0     C99646  11.316   1.098   1.062 -0.6527 -0.3030  0.0684
  723MOL0     C99647  11.414   1.210   1.071  0.2470  0.1245  0.8541
  723MOL0     C99648  11.554   1.161   1.124 -0.0692  0.5609 -1.2031
  723MOL0     C99649  11.629   1.067   1.021  0.4099  0.1840 -0.5486
  723MOL0     C99650  11.741   1.133   0.945 -0.5874 -0.9983 -0.0141
  723MOL0     C99651  11.870   1.168   1.020 -0.4319 -1.3302  0.6236
  723MOL0     C99652  11.973   1.060   1.052  0.0721 -0.1658 -1.2796
  723MOL0     N99653  12.070   1.051   0.934  0.7848  0.1558 -0.4112
  723MOL0     C99654  12.190   1.111   0.918  0.4341 -0.6319 -0.8576
  723MOL0     C99655  12.225   1.070   0.800  0.3765 -0.7123  1.0437
  723MOL0     C99656  12.346   1.122   0.731 -0.2515 -1.0007 -0.1978
  723MOL0     C99657  12.476   1.088   0.799 -0.1927 -0.3006 -0.2511
  723MOL0     C99658  12.604   1.143   0.735  0.9015 -0.5363 -0.3143
  723MOL0     C99659  12.591   1.150   0.579  0.1111 -0.0345  0.0743
  723MOL0     O99660  12.716   1.211   0.528 -0.3432 -0.0282 -0.4013
  723MOL0     C99661  12.756   1.171   0.404  0.3116  0.8600 -0.4815
  723MOL0     C99662  12.662   1.144   0.300  0.2636  0.1025  0.1687
  723MOL0     C99663  12.695   1.102   0.171 -0.6125 -0.0227 -0.5995
  723MOL0     C99664  12.600   1.066   0.056  0.0742  0.1492  0.0590
  723MOL0     C99665  12.833   1.101   0.141 -0.8072 -0.2910 -0.6877
  723MOL0     C99666  12.897   1.057   0.015 -0.1427 -0.5044 -0.4248
  723MOL0     O99667  13.013   0.992   0.036 -0.2647  0.6810  0.7230
  723MOL0     C99668  13.072   0.947  -0.083  0.8667 -0.6176 -0.4943
  723MOL0     C99669  13.006   0.856  -0.157  0.6864  0.2911  0.3092
  723MOL0     C99670  13.054   0.808  -0.284  0.4528  0.1896  0.2069
  723MOL0     C99671  13.178   0.844  -0.326 -1.0040 -0.8537  0.3369
  723MOL0     O99672  13.246   0.801  -0.440 -0.1473  0.7364  0.4831
  723MOL0     C99673  13.182   0.707  -0.521  0.5330 -0.1355  0.8497
  723MOL0     C99674  13.272   0.678  -0.644 -0.2741 -0.1366  0.6433
  723MOL0     C99675  13.198   0.610  -0.758 -0.5227 -0.5386  0.2934
  723MOL0     C99676  13.296   0.599  -0.888  0.4798 -0.1902 -0.2141
  723MOL0     C99677  13.228   0.518  -0.994  0.5161  0.7218 -1.0372
  723MOL0     C99678  13.300   0.527  -1.128  0.0361 -0.5822 -0.1478
  723MOL0     C99679  13.219   0.475  -1.250  0.0695 -0.1223 -1.1559
  723MOL0     C99680  13.143   0.351  -1.218 -0.1701  0.1139  0.1937
  723MOL0    Cl99681  13.246   0.204  -1.153  0.3430  0.2552 -0.0200
  723MOL0     C99682  13.239   0.953  -0.252 -0.1791  0.6393 -0.3473
  723MOL0     C99683  13.193   1.007  -0.127 -0.3314 -0.2589 -0.6392
  723MOL0     O99684  12.846   1.085  -0.095  0.2286  0.0625  0.2436
  723MOL0     C99685  12.930   1.143   0.243  0.0514  0.0977 -0.8959
  723MOL0     C99686  12.890   1.160   0.378 -0.3005 -0.1685  0.1668
  723MOL0     N99687  12.137   0.973   0.754  0.0636  0.4976 -0.5190
  723MOL0     N99688  12.041   0.958   0.840  0.5606  0.1513 -0.3056
  723MOL0     C99689  10.889   1.297   1.147 -0.1685  1.0301 -1.1755
  723MOL0     C99690  10.755   1.326   1.125 -1.0944  0.0894 -1.0371
  723MOL0     C99691  10.323   1.263   1.081  0.1957 -0.5340 -0.1715
  723MOL0     C99692  10.288   1.370   0.998  0.1407  0.4433  0.1777
  723MOL0     C99693  10.163   1.426   0.996 -0.0405 -0.0227  0.2820
  723MOL0     C99694  10.067   1.369   1.069 -0.7806  0.1595 -0.8228
  723MOL0     O99695   9.948   1.438   1.063 -0.0541 -0.0798  0.9450
  723MOL0     C99696   9.840   1.431   1.159  0.2782  0.7080  0.2477
  723MOL0     C99697   9.859   1.547   1.261 -0.4117 -0.5333 -0.0255
  723MOL0     C99698   9.846   1.691   1.206  0.3379 -0.3609  0.5274
  723MOL0     C99699   9.978   1.745   1.144 -0.2144 -0.1857  0.3644
  723MOL0     C99700   9.937   1.874   1.070  0.9522 -0.1760  0.5907
  723MOL0     C99701   9.882   1.972   1.018 -0.6347  0.2862 -1.0943
  723MOL0     C99702  10.094   1.269   1.158 -0.2152  0.8438 -0.5686
  723MOL0     C99703  10.222   1.210   1.169  0.4861  0.8673  0.4655
  723MOL0     C99704  10.239   1.111   1.284  0.8189  0.0165 -0.1632
  723MOL0     H99705  10.693   1.099   0.882  0.5889  0.8383  0.1023
  723MOL0     H99706  10.949   1.075   0.905  3.3871  1.8028  1.3218
  723MOL0     H99707  11.205   1.207   0.915  1.2534  0.1309  0.0898
  723MOL0     H99708  11.143   1.049   0.946  4.2342 -0.4503 -2.1272
  723MOL0     H99709  11.304   1.068   1.167  2.3334  0.6018  0.7727
  723MOL0     H99710  11.367   1.009   1.024 -1.2432 -1.3361  1.6099
  723MOL0     H99711  11.430   1.257   0.974 -1.9584  1.1328  0.9190
  723MOL0     H99712  11.372   1.288   1.135 -0.4528  1.2517 -0.9052
  723MOL0     H99713  11.612   1.246   1.162  0.7724 -1.6101  2.9161
  723MOL0     H99714  11.532   1.104   1.215  1.5089  4.3598  1.8731
  723MOL0     H99715  11.556   1.031   0.948 -1.8602  4.6814 -0.8239
  723MOL0     H99716  11.672   0.976   1.065 -0.7342 -0.8293 -1.4696
  723MOL0     H99717  11.772   1.077   0.857 -1.2256  0.4222 -1.1897
  723MOL0     H99718  11.704   1.229   0.908  3.8809  1.0133  0.1532
  723MOL0     H99719  11.845   1.229   1.108 -1.0988 -1.1015  0.2862
  723MOL0     H99720  11.927   1.241   0.962 -1.3142 -1.3484 -0.2999
  723MOL0     H99721  12.010   1.067   1.155  1.6041 -0.3831 -1.7900
  723MOL0     H99722  11.918   0.966   1.055 -0.3302  0.0161 -2.4913
  723MOL0     H99723  12.242   1.190   0.971  3.0876 -1.3995 -2.1675
  723MOL0     H99724  12.339   1.231   0.725 -2.6925 -0.9039  2.2820
  723MOL0     H99725  12.342   1.075   0.632  0.0631 -0.7919 -0.3129
  723MOL0     H99726  12.485   1.132   0.899  4.4067  1.5636 -1.2149
  723MOL0     H99727  12.482   0.980   0.816  2.1871 -0.3926 -1.2046
  723MOL0     H99728  12.616   1.244   0.774 -2.2357 -0.7859  1.7017
  723MOL0     H99729  12.687   1.084   0.774  1.1863  1.5948  2.6833
  723MOL0     H99730  12.570   1.055   0.529  1.8979 -0.9135  0.9102
  723MOL0     H99731  12.511   1.222   0.558  0.9658  2.4278  4.1879
  723MOL0     H99732  12.554   1.145   0.314  0.4371 -0.3676  1.7115
  723MOL0     H99733  12.503   1.042   0.099 -0.6038  1.3065 -0.7698
  723MOL0     H99734  12.638   0.973   0.014  1.3168  0.7960 -0.3114
  723MOL0     H99735  12.583   1.139  -0.024 -0.1542 -0.3352 -0.3359
  723MOL0     H99736  12.908   0.822  -0.125 -0.0062  1.2901 -0.6554
  723MOL0     H99737  12.993   0.732  -0.330 -1.0559  0.8085  1.0969
  723MOL0     H99738  13.150   0.611  -0.480  0.7739 -0.3260  0.5942
  723MOL0     H99739  13.091   0.758  -0.552  0.1566 -0.3701  1.5451
  723MOL0     H99740  13.311   0.769  -0.691  1.2359 -1.9219 -1.8426
  723MOL0     H99741  13.365   0.626  -0.622  2.5444  3.3391 -1.8266
  723MOL0     H99742  13.110   0.670  -0.783 -0.4913  0.9272  3.2010
  723MOL0     H99743  13.173   0.511  -0.720  0.6781 -1.3305 -0.9011
  723MOL0     H99744  13.392   0.551  -0.866  2.1984  2.9494 -0.1665
  723MOL0     H99745  13.322   0.697  -0.931 -1.6104  0.0143 -1.1542
  723MOL0     H99746  13.220   0.419  -0.948  0.6673  0.4921 -1.5069
  723MOL0     H99747  13.127   0.559  -1.006  0.7075  1.5288 -0.0346
  723MOL0     H99748  13.397   0.476  -1.125 -0.8534 -2.3021  1.1630
  723MOL0     H99749  13.321   0.633  -1.143  0.2647  0.0090  3.4928
  723MOL0     H99750  13.296   0.457  -1.326  3.6560  3.2572  1.2857
  723MOL0     H99751  13.157   0.555  -1.290  0.4612  0.7131 -0.1482
  723MOL0     H99752  13.095   0.319  -1.311  3.1264 -0.8804 -1.3204
  723MOL0     H99753  13.069   0.368  -1.139 -0.9197 -3.0514  0.3433
  723MOL0     H99754  13.334   0.984  -0.293 -0.2478  0.4871 -0.6302
  723MOL0     H99755  13.234   1.086  -0.064 -3.2099 -0.4933  1.8051
  723MOL0     H99756  13.035   1.147   0.216  0.5249  0.1722  0.8273
  723MOL0     H99757  12.968   1.204   0.439 -1.4525 -0.3663  1.8300
  723MOL0     H99758  10.941   1.352   1.225 -1.6153 -1.6814  1.9519
  723MOL0     H99759  10.698   1.401   1.181 -0.8302  0.1336 -0.8256
  723MOL0     H99760  10.349   1.412   0.919 -2.0456 -0.4597 -2.1264
  723MOL0     H99761  10.134   1.499   0.921 -3.1273 -0.5236  0.8641
  723MOL0     H99762   9.742   1.438   1.112  0.9502  1.0232 -1.1409
  723MOL0     H99763   9.846   1.335   1.212 -0.9898  0.3524 -0.2302
  723MOL0     H99764   9.959   1.541   1.305 -0.5228  0.8145  0.4419
  723MOL0     H99765   9.785   1.528   1.340 -1.5651 -0.0160 -0.9369
  723MOL0     H99766   9.776   1.678   1.123  2.3058 -1.4355 -1.0411
  723MOL0     H99767   9.810   1.759   1.284  1.1495  1.4243 -0.5889
  723MOL0     H99768  10.037   1.683   1.075 -0.1563  0.0179  0.2313
  723MOL0     H99769  10.053   1.767   1.220  0.8551  0.3285 -0.8043
  723MOL0     H99770   9.823   2.038   0.957 -3.3641 -0.9261  0.0616
  723MOL0     H99771  10.022   1.223   1.225  1.4620 -0.9163  0.1273
  723MOL0     H99772  10.341   1.100   1.320  0.9122 -1.0248 -0.6921
  723MOL0     H99773  10.180   1.145   1.370  1.7734 -1.6065  1.2201
  723MOL0     H99774  10.215   1.009   1.250  0.5702 -0.5745  1.6636
  724MOL0     O99775   6.675   5.095   6.916  0.6649  0.2593 -1.1454
  724MOL0     C99776   6.607   4.997   6.896 -0.0063  0.2422 -0.0917
  724MOL0     O99777   6.612   4.871   6.949 -0.5255 -0.3086  0.3761
  724MOL0     C99778   6.734   4.826   6.996 -0.0141 -0.5122 -0.0638
  724MOL0     C99779   6.746   4.774   7.125 -0.2727 -0.0294 -0.1936
  724MOL0     C99780   6.854   4.710   7.172  0.3024  0.5714  0.5059
  724MOL0     C99781   6.968   4.693   7.095  0.2250 -0.9136  0.1836
  724MOL0     O99782   7.072   4.631   7.151 -0.0053  1.2357  0.1625
  724MOL0     C99783   7.202   4.607   7.082 -0.2252 -0.4266 -0.3490
  724MOL0     C99784   7.304   4.583   7.189 -0.3630 -0.6284  0.1468
  724MOL0     C99785   7.263   4.467   7.274 -0.6078 -0.2072  0.0585
  724MOL0     C99786   7.260   4.333   7.197 -0.1916  0.0086  0.6735
  724MOL0     C99787   7.277   4.219   7.299 -0.2710  0.2836 -0.0020
  724MOL0     C99788   7.283   4.094   7.218  0.0897 -0.1555  0.3894
  724MOL0     C99789   7.347   3.981   7.295  0.8719 -0.5385 -0.5740
  724MOL0     C99790   7.281   3.836   7.270  0.0642 -0.9655  0.1918
  724MOL0     N99791   7.312   3.787   7.132  0.1194 -0.6139 -0.5580
  724MOL0     C99792   7.428   3.725   7.103  0.1010  0.3552 -1.1829
  724MOL0     C99793   7.396   3.637   7.005 -0.0982 -0.7241  0.6089
  724MOL0     C99794   7.503   3.554   6.954  0.1912  0.4747 -0.4854
  724MOL0     C99795   7.454   3.441   6.859 -0.3566  0.2696 -0.0007
  724MOL0     C99796   7.533   3.314   6.836 -0.7306 -0.3357  0.3291
  724MOL0     C99797   7.469   3.224   6.728 -0.9208 -0.2849 -0.7672
  724MOL0     O99798   7.438   3.298   6.609  0.0604  0.1387  0.2690
  724MOL0     C99799   7.396   3.234   6.497 -1.0109  0.7419 -0.6099
  724MOL0     C99800   7.359   3.091   6.495  0.6209 -0.7454 -0.2831
  724MOL0     C99801   7.299   3.036   6.382 -1.2866  1.2293 -0.6743
  724MOL0     C99802   7.257   2.895   6.395 -0.2515  0.9661 -0.1754
  724MOL0     C99803   7.272   3.111   6.266 -0.1616  0.1300  0.6629
  724MOL0     C99804   7.217   3.060   6.137 -0.4127 -0.8044  0.0158
  724MOL0     O99805   7.225   3.143   6.028 -0.7655 -0.0341  0.8254
  724MOL0     C99806   7.124   3.171   5.942  0.3208 -0.4012 -0.3175
  724MOL0     C99807   7.159   3.243   5.825  0.5188  0.0809 -1.0126
  724MOL0     C99808   7.072   3.318   5.746  0.4466  0.8541 -0.2604
  724MOL0     C99809   6.929   3.300   5.764 -0.1771  0.4660 -0.5018
  724MOL0     O99810   6.830   3.362   5.700  0.2185 -0.1139  0.0967
  724MOL0     C99811   6.846   3.377   5.557  0.1469  0.1770 -0.0493
  724MOL0     C99812   6.724   3.434   5.485  0.7972 -0.1815  0.2170
  724MOL0     C99813   6.588   3.372   5.549 -0.0688  0.2441  0.9771
  724MOL0     C99814   6.586   3.225   5.552  0.0582  0.4087 -0.2462
  724MOL0     C99815   6.450   3.164   5.610  0.5633 -0.3232 -0.0579
  724MOL0     C99816   6.447   3.015   5.631 -0.4213 -0.1961  1.0562
  724MOL0     C99817   6.515   2.955   5.750  0.0662  0.3836  0.3953
  724MOL0     C99818   6.482   2.806   5.768 -0.2199  0.0531  0.8206
  724MOL0    Cl99819   6.585   2.741   5.892 -0.0190  0.1470 -0.4345
  724MOL0     C99820   6.887   3.213   5.871  0.1501  0.1158  0.1646
  724MOL0     C99821   6.984   3.158   5.960 -0.7377  0.9504 -0.6185
  724MOL0     O99822   7.153   2.959   6.134  0.0221  0.6441  0.0323
  724MOL0     C99823   7.311   3.246   6.270  0.4234  0.0112 -0.6888
  724MOL0     C99824   7.373   3.305   6.384  0.3996 -0.2402  0.1321
  724MOL0     N99825   7.265   3.662   6.969 -0.6683 -0.1779  0.3680
  724MOL0     N99826   7.214   3.749   7.044  0.6367  0.5512 -0.3929
  724MOL0     C99827   6.959   4.735   6.962 -0.1362  0.4780  0.1595
  724MOL0     C99828   6.844   4.796   6.912 -0.0253  0.2587  0.0915
  724MOL0     C99829   6.497   5.015   6.789 -0.3115 -0.5269  0.5536
  724MOL0     C99830   6.393   4.913   6.784 -0.1270 -1.3039  0.0534
  724MOL0     C99831   6.299   4.908   6.687 -0.0489  0.1710 -0.2176
  724MOL0     C99832   6.299   5.000   6.582  0.1433 -0.0440 -0.5275
  724MOL0     O99833   6.197   4.973   6.495  0.1446  0.4564  0.4082
  724MOL0     C99834   6.223   5.008   6.361  0.3254  0.5990 -0.6267
  724MOL0     C99835   6.123   4.960   6.254  0.4213  0.6865 -0.0099
  724MOL0     C99836   6.149   4.822   6.196 -0.8051  0.3265  0.0268
  724MOL0     C99837   6.100   4.701   6.278  0.7346  0.1466 -0.4662
  724MOL0     C99838   6.190   4.668   6.386  1.6336  0.3161  0.8928
  724MOL0     C99839   6.273   4.635   6.468 -0.0016 -0.7216  0.4429
  724MOL0     C99840   6.386   5.117   6.587 -0.4980  0.2977  0.9672
  724MOL0     C99841   6.492   5.119   6.687  0.0292  0.0666 -0.1816
  724MOL0     C99842   6.599   5.221   6.684  0.8605  0.5926 -0.0753
  724MOL0     H99843   6.659   4.774   7.189 -0.0679 -2.4531  0.1968
  724MOL0     H99844   6.852   4.668   7.272  3.1825 -1.5661 -0.1812
  724MOL0     H99845   7.227   4.701   7.034 -1.4872  0.8342  1.3205
  724MOL0     H99846   7.172   4.525   7.016 -0.3082  1.2136 -2.4294
  724MOL0     H99847   7.399   4.563   7.138  0.0161 -0.1684  0.6532
  724MOL0     H99848   7.323   4.677   7.242  0.6537 -1.3916  1.2004
  724MOL0     H99849   7.340   4.456   7.350  1.3569 -3.8570 -2.1789
  724MOL0     H99850   7.170   4.481   7.330 -0.5021 -0.3711  0.2770
  724MOL0     H99851   7.165   4.330   7.143 -0.0332  0.4956  0.3575
  724MOL0     H99852   7.339   4.324   7.121 -1.3911  0.9125 -0.7522
  724MOL0     H99853   7.188   4.219   7.362 -0.8780  1.7271 -0.8313
  724MOL0     H99854   7.369   4.225   7.359  0.5724  0.4585 -1.2748
  724MOL0     H99855   7.189   4.059   7.173 -0.9439  0.7066  1.7814
  724MOL0     H99856   7.358   4.109   7.140  1.8919 -0.4804  1.9690
  724MOL0     H99857   7.330   4.009   7.399 -0.1236  0.6901 -1.0316
  724MOL0     H99858   7.454   3.977   7.272  1.2713 -2.1142  1.3175
  724MOL0     H99859   7.335   3.765   7.332  2.6505  1.3203  0.7275
  724MOL0     H99860   7.173   3.842   7.289  0.1713  1.7600  0.3527
  724MOL0     H99861   7.527   3.735   7.146 -0.6114  0.4711  0.4946
  724MOL0     H99862   7.549   3.501   7.038 -0.9397  0.3014  0.0344
  724MOL0     H99863   7.585   3.614   6.913  1.3292  0.4897  1.6525
  724MOL0     H99864   7.358   3.404   6.895 -0.3646  2.0994  2.1093
  724MOL0     H99865   7.430   3.490   6.765 -0.4340  0.6003  0.1916
  724MOL0     H99866   7.634   3.341   6.805 -1.4075 -0.6196 -2.3590
  724MOL0     H99867   7.526   3.257   6.929 -1.1100 -1.4789 -0.3749
  724MOL0     H99868   7.534   3.140   6.703  0.2747  0.5890 -0.6433
  724MOL0     H99869   7.378   3.186   6.776 -0.2451  0.1205  0.8631
  724MOL0     H99870   7.369   3.025   6.580 -0.4407  1.5793  1.7698
  724MOL0     H99871   7.296   2.843   6.483 -0.8907  0.1208 -0.3772
  724MOL0     H99872   7.295   2.842   6.307 -1.2248 -0.0112 -0.0259
  724MOL0     H99873   7.149   2.885   6.389 -0.2279  0.7509 -0.2594
  724MOL0     H99874   7.265   3.264   5.814  1.1963 -2.8471 -0.9552
  724MOL0     H99875   7.104   3.380   5.663  1.0384 -2.4743 -2.7431
  724MOL0     H99876   6.923   3.449   5.528 -1.6220  2.1839 -0.0947
  724MOL0     H99877   6.870   3.278   5.518 -0.1572  0.8710 -2.1667
  724MOL0     H99878   6.717   3.543   5.489  0.4304 -0.1911 -0.0781
  724MOL0     H99879   6.741   3.414   5.379 -0.1187  1.7616 -0.3499
  724MOL0     H99880   6.509   3.402   5.480 -1.0813 -0.3032  1.8664
  724MOL0     H99881   6.572   3.415   5.648 -0.8867 -2.7936  2.3012
  724MOL0     H99882   6.668   3.188   5.614 -0.9626 -2.4828 -0.4666
  724MOL0     H99883   6.607   3.180   5.455  0.8680  0.4560 -0.0937
  724MOL0     H99884   6.404   3.213   5.696 -2.3954  0.8356 -2.1572
  724MOL0     H99885   6.376   3.184   5.532  0.8996  3.1183  0.3536
  724MOL0     H99886   6.500   2.978   5.542 -1.9524 -1.0141  0.4461
  724MOL0     H99887   6.346   2.973   5.630  1.0159 -4.0554  0.7514
  724MOL0     H99888   6.486   3.008   5.841 -0.2084  1.6957 -0.4328
  724MOL0     H99889   6.623   2.947   5.731  0.3984 -0.1519  2.2962
  724MOL0     H99890   6.512   2.761   5.673  2.7685 -0.5695  1.9268
  724MOL0     H99891   6.374   2.802   5.783 -0.4621  0.0999 -0.7225
  724MOL0     H99892   6.784   3.186   5.893  0.9145 -3.1871  0.3216
  724MOL0     H99893   6.962   3.088   6.040  2.7081 -1.0293 -1.2539
  724MOL0     H99894   7.290   3.310   6.186 -1.0363 -2.5649 -2.4072
  724MOL0     H99895   7.382   3.411   6.362 -0.5016 -0.7480 -3.1952
  724MOL0     H99896   7.048   4.724   6.902 -0.2823 -1.1559  0.2070
  724MOL0     H99897   6.847   4.830   6.809 -0.2370 -0.1502 -0.0514
  724MOL0     H99898   6.390   4.834   6.858  0.9546 -0.3393  1.1708
  724MOL0     H99899   6.224   4.830   6.677  0.0094  0.3562 -2.6977
  724MOL0     H99900   6.227   5.118   6.364  0.2896  0.5843  0.0952
  724MOL0     H99901   6.323   4.972   6.340  0.0898 -0.3358 -0.1727
  724MOL0     H99902   6.127   5.023   6.165  1.0126 -0.3664 -0.7480
  724MOL0     H99903   6.023   4.972   6.297  1.1776 -0.4517  2.2629
  724MOL0     H99904   6.105   4.822   6.096  1.2587 -0.0141 -0.9250
  724MOL0     H99905   6.252   4.813   6.163 -1.4125  0.4651 -2.0548
  724MOL0     H99906   6.087   4.608   6.223 -2.7687 -1.3150  2.4853
  724MOL0     H99907   5.999   4.722   6.313  0.5028 -1.5101 -0.0767
  724MOL0     H99908   6.350   4.597   6.532 -0.4141 -2.9529 -0.3203
  724MOL0     H99909   6.393   5.188   6.506  1.0400 -2.5668 -1.6719
  724MOL0     H99910   6.579   5.273   6.777  2.2663  0.0257  0.5709
  724MOL0     H99911   6.695   5.170   6.677  0.4896 -0.0450 -0.7367
  724MOL0     H99912   6.601   5.288   6.598  1.8253  0.5403 -0.1032
  725MOL0     O99913   0.169   6.362   0.508 -0.2394 -0.2977 -0.2535
  725MOL0     C99914   0.216   6.265   0.463  1.1516 -0.0258  0.3598
  725MOL0     O99915   0.189   6.224   0.327 -0.4804  0.5715 -0.8128
  725MOL0     C99916   0.071   6.257   0.259 -0.5831 -1.3982 -0.2311
  725MOL0     C99917  -0.040   6.299   0.330 -0.5697 -0.8732 -0.3717
  725MOL0     C99918  -0.156   6.323   0.266  0.5433  0.1392  0.4536
  725MOL0     C99919  -0.173   6.317   0.125 -1.2239 -0.7370  0.4790
  725MOL0     O99920  -0.294   6.351   0.079 -0.3123  0.2982 -0.5258
  725MOL0     C99921  -0.316   6.342  -0.057 -0.5820  0.2741  0.3718
  725MOL0     C99922  -0.459   6.388  -0.084  0.3643 -0.0808 -1.2184
  725MOL0     C99923  -0.482   6.442  -0.225  0.8230 -0.6223 -0.3068
  725MOL0     C99924  -0.635   6.440  -0.265 -0.3255  0.5502 -1.0076
  725MOL0     C99925  -0.646   6.486  -0.407  0.6456  0.5542  0.5835
  725MOL0     C99926  -0.796   6.524  -0.454 -0.6197  0.5347 -0.2597
  725MOL0     C99927  -0.910   6.419  -0.433 -1.0150 -0.0972  0.7938
  725MOL0     C99928  -0.912   6.326  -0.554 -0.4111 -1.1036  0.1193
  725MOL0     N99929  -1.032   6.247  -0.549 -0.0947 -0.4020  0.6511
  725MOL0     C99930  -1.060   6.161  -0.452 -0.4363 -0.8067 -0.6170
  725MOL0     C99931  -1.139   6.064  -0.507 -0.5559 -0.8886  0.2848
  725MOL0     C99932  -1.176   5.939  -0.437  0.6545 -0.1005 -0.0707
  725MOL0     C99933  -1.046   5.875  -0.370  0.4152  0.3598  0.8526
  725MOL0     C99934  -1.056   5.839  -0.227  0.8984 -0.6825 -0.0801
  725MOL0     C99935  -1.042   5.972  -0.146  0.4794  0.4120  0.1641
  725MOL0     O99936  -0.915   6.026  -0.192 -0.3790 -0.1431  0.4284
  725MOL0     C99937  -0.793   5.977  -0.141  0.2948 -0.2972 -0.2537
  725MOL0     C99938  -0.790   5.894  -0.030 -0.1266  0.6175 -0.5480
  725MOL0     C99939  -0.668   5.867   0.037 -0.0577  0.2941 -0.3072
  725MOL0     C99940  -0.688   5.797   0.174 -1.0020 -0.5141  0.6767
  725MOL0     C99941  -0.545   5.904  -0.029  0.0988  0.4296  0.3245
  725MOL0     C99942  -0.414   5.881   0.026  0.4054  0.4081  0.3900
  725MOL0     O99943  -0.310   5.960  -0.021 -0.3608 -0.0728 -0.0035
  725MOL0     C99944  -0.185   5.936   0.022 -0.6956 -0.6186 -0.0968
  725MOL0     C99945  -0.086   5.924  -0.066 -0.2685 -0.2159 -0.5048
  725MOL0     C99946   0.051   5.899  -0.031 -0.4036 -0.5845 -0.5563
  725MOL0     C99947   0.086   5.889   0.101 -0.3721 -0.6029 -0.1423
  725MOL0     O99948   0.219   5.855   0.131  0.1943  0.0278  0.3523
  725MOL0     C99949   0.281   5.869   0.260  0.5406 -0.8041 -0.5567
  725MOL0     C99950   0.274   5.730   0.331 -0.2680  0.1077  0.4723
  725MOL0     C99951   0.295   5.747   0.484 -0.0218 -0.4872 -0.4529
  725MOL0     C99952   0.316   5.611   0.545 -0.1731  0.4701 -0.2020
  725MOL0     C99953   0.411   5.621   0.675  0.1229 -0.1678  0.4595
  725MOL0     C99954   0.433   5.485   0.736  0.1839 -0.9261  0.2550
  725MOL0     C99955   0.515   5.503   0.865  0.4336  0.6977 -0.7881
  725MOL0     C99956   0.524   5.372   0.940  0.1582 -0.3352  0.0858
  725MOL0    Cl99957   0.369   5.325   1.017  0.0777  0.0175 -0.0789
  725MOL0     C99958  -0.013   5.911   0.199 -0.3480  0.0282 -0.6596
  725MOL0     C99959  -0.151   5.927   0.162 -1.0018 -0.4764 -0.0686
  725MOL0     O99960  -0.405   5.797   0.115 -0.2186  0.4797  0.1455
  725MOL0     C99961  -0.551   5.976  -0.149  0.1668 -0.0398  1.2205
  725MOL0     C99962  -0.673   6.009  -0.203 -0.2799  0.0868 -0.5435
  725MOL0     N99963  -1.163   6.098  -0.639 -0.1257 -0.2752 -0.3981
  725MOL0     N99964  -1.115   6.214  -0.660 -0.2586 -0.3136  0.1103
  725MOL0     C99965  -0.061   6.267   0.051 -0.2532 -0.3700 -0.3003
  725MOL0     C99966   0.060   6.244   0.114  0.3793 -0.3534  0.0267
  725MOL0     C99967   0.315   6.196   0.551  0.5520 -0.2647  0.8842
  725MOL0     C99968   0.422   6.126   0.493 -0.0287 -0.3798 -0.0396
  725MOL0     C99969   0.502   6.043   0.576  0.3032 -0.5370 -0.6957
  725MOL0     C99970   0.493   6.049   0.720  0.6813  0.1114  0.1684
  725MOL0     O99971   0.584   5.980   0.791  0.5997  0.0988  0.0465
  725MOL0     C99972   0.565   5.962   0.934  0.1396  0.4865  0.4056
  725MOL0     C99973   0.687   5.907   0.996  0.4891  1.0305 -0.4687
  725MOL0     C99974   0.655   5.857   1.133  0.5087  0.2589  0.1738
  725MOL0     C99975   0.791   5.795   1.190 -0.0605 -0.8404  1.0173
  725MOL0     C99976   0.778   5.751   1.331 -0.1253 -0.1271 -0.5288
  725MOL0     C99977   0.778   5.706   1.442 -0.0148  0.2008 -0.8064
  725MOL0     C99978   0.383   6.116   0.771  0.9778 -0.3352  0.1384
  725MOL0     C99979   0.289   6.185   0.690  0.4713  0.7345 -0.1416
  725MOL0     C99980   0.170   6.238   0.771 -0.2342  0.8572  0.3485
  725MOL0     H99981  -0.047   6.295   0.439  0.8096 -0.6324 -0.2500
  725MOL0     H99982  -0.247   6.329   0.325 -1.2798 -1.1543 -2.0255
  725MOL0     H99983  -0.295   6.247  -0.106 -0.6838  1.8789 -3.1033
  725MOL0     H99984  -0.267   6.420  -0.116  2.3297 -2.3078 -0.8827
  725MOL0     H99985  -0.530   6.305  -0.081 -0.9009  0.9812 -0.0040
  725MOL0     H99986  -0.491   6.466  -0.014  1.0231  0.9020 -1.9631
  725MOL0     H99987  -0.443   6.544  -0.235 -0.9273  0.1676  0.5861
  725MOL0     H99988  -0.426   6.371  -0.286 -0.7848 -2.4410  0.2412
  725MOL0     H99989  -0.674   6.340  -0.245  0.2648  0.5747  0.3778
  725MOL0     H99990  -0.697   6.514  -0.213 -0.5263  0.8609 -1.6785
  725MOL0     H99991  -0.597   6.413  -0.472  1.2217 -0.6465  2.2817
  725MOL0     H99992  -0.583   6.574  -0.423 -2.3652  2.4848 -1.9658
  725MOL0     H99993  -0.822   6.612  -0.395  3.0322 -0.0967  2.7270
  725MOL0     H99994  -0.786   6.559  -0.557 -0.1103 -2.7173 -1.4473
  725MOL0     H99995  -1.002   6.478  -0.422 -0.2849  1.3892 -0.6166
  725MOL0     H99996  -0.888   6.364  -0.342  2.0278 -1.5073 -0.6347
  725MOL0     H99997  -0.909   6.379  -0.650 -1.8184 -3.7822 -1.5165
  725MOL0     H99998  -0.822   6.264  -0.555 -0.2695 -0.9185 -1.8328
  725MOL0     H99999  -1.012   6.160  -0.355  0.1238  4.1898 -0.5664
  725MOL0     H    0  -1.248   5.878  -0.492 -1.3262  1.0341  1.1466
  725MOL0     H    1  -1.236   5.983  -0.356  0.8947  0.6165 -0.2740
  725MOL0     H    2  -1.029   5.782  -0.425 -0.9127  0.2078  0.6693
  725MOL0     H    3  -0.957   5.934  -0.394 -1.2469  2.1086 -1.4622
  725MOL0     H    4  -1.154   5.795  -0.203  0.0684  1.6160  1.1372
  725MOL0     H    5  -0.983   5.765  -0.196  1.9260  0.1967 -0.3510
  725MOL0     H    6  -1.119   6.046  -0.172  2.0542  2.0833  0.0687
  725MOL0     H    7  -1.047   5.971  -0.037  0.0590  1.6760  0.1762
  725MOL0     H    8  -0.882   5.865   0.019 -1.3202  2.1142 -1.7941
  725MOL0     H    9  -0.795   5.789   0.197 -0.9676 -0.8042  0.7442
  725MOL0     H   10  -0.660   5.860   0.259 -2.0541 -2.7172  2.7737
  725MOL0     H   11  -0.633   5.705   0.193 -2.3338 -1.3575  0.5740
  725MOL0     H   12  -0.115   5.935  -0.170  1.9631  3.8151 -0.9131
  725MOL0     H   13   0.125   5.872  -0.106 -1.7550 -4.6011 -0.6875
  725MOL0     H   14   0.384   5.906   0.258  0.3386 -0.2478 -1.8398
  725MOL0     H   15   0.228   5.945   0.318  1.3447 -1.1380  0.6628
  725MOL0     H   16   0.178   5.685   0.302 -0.0596 -1.2912  1.8008
  725MOL0     H   17   0.346   5.659   0.289 -3.2345 -1.0441 -3.2504
  725MOL0     H   18   0.218   5.809   0.531 -0.2591 -0.9860 -0.1716
  725MOL0     H   19   0.384   5.808   0.503 -0.9629 -0.0406  3.1253
  725MOL0     H   20   0.366   5.547   0.471  1.6185  1.6950 -0.0942
  725MOL0     H   21   0.222   5.566   0.578  0.0286 -0.3207 -0.6726
  725MOL0     H   22   0.507   5.666   0.649  0.3666  1.2500  3.4261
  725MOL0     H   23   0.359   5.685   0.747  1.6574  2.7055 -0.7967
  725MOL0     H   24   0.487   5.418   0.667 -2.2818 -1.8616 -0.8939
  725MOL0     H   25   0.341   5.434   0.766  0.3024 -0.3211  1.6886
  725MOL0     H   26   0.479   5.590   0.920 -4.0598 -0.6428 -1.2210
  725MOL0     H   27   0.619   5.523   0.838  1.2556 -0.4905  1.3182
  725MOL0     H   28   0.609   5.372   1.009  0.6268  0.0754 -0.4799
  725MOL0     H   29   0.548   5.291   0.872  3.5321 -0.3440  1.0634
  725MOL0     H   30   0.019   5.911   0.303 -2.4552  0.9109  0.0493
  725MOL0     H   31  -0.224   5.943   0.241 -1.7698  1.0372 -1.0387
  725MOL0     H   32  -0.466   6.010  -0.206  2.4389 -1.9312  3.2777
  725MOL0     H   33  -0.681   6.058  -0.299  0.4627 -1.3776 -1.3877
  725MOL0     H   34  -0.065   6.240  -0.054  1.0333 -2.1940  0.0830
  725MOL0     H   35   0.147   6.217   0.055 -0.8040  0.8223 -2.4063
  725MOL0     H   36   0.445   6.136   0.388  1.4415 -0.6408  0.2274
  725MOL0     H   37   0.579   5.984   0.529  1.6251  0.4605  0.1144
  725MOL0     H   38   0.543   6.062   0.974  1.6470  1.6629 -1.5378
  725MOL0     H   39   0.485   5.889   0.952  1.5411 -0.4010  4.0894
  725MOL0     H   40   0.755   5.993   0.999 -0.1028  1.7097 -3.3091
  725MOL0     H   41   0.737   5.831   0.935  0.8608  1.3798 -0.6032
  725MOL0     H   42   0.627   5.934   1.205 -0.3880  0.1968 -0.0987
  725MOL0     H   43   0.587   5.771   1.135  0.5687  0.2202  0.6424
  725MOL0     H   44   0.865   5.876   1.183 -0.0739 -0.9631 -1.6075
  725MOL0     H   45   0.830   5.716   1.125 -0.1780  1.1140 -1.6124
  725MOL0     H   46   0.782   5.665   1.541 -0.3112 -0.2015 -0.9570
  725MOL0     H   47   0.372   6.110   0.879  1.7187  1.1424  0.3192
  725MOL0     H   48   0.084   6.182   0.731  1.1524  1.0073 -3.2270
  725MOL0     H   49   0.179   6.224   0.879 -2.7563 -1.1788  0.3991
  725MOL0     H   50   0.142   6.342   0.750 -0.3662  0.2423 -3.1914
  726MOL0     O   51   0.563   2.157   8.531 -0.1739 -0.2777 -0.6822
  726MOL0     C   52   0.531   2.053   8.584 -0.2582  0.5966  0.2578
  726MOL0     O   53   0.615   1.981   8.659 -0.5630 -0.3763 -0.2814
  726MOL0     C   54   0.711   2.038   8.743 -0.0976  0.1342  0.0880
  726MOL0     C   55   0.797   2.145   8.720  0.1322 -0.7829 -0.2330
  726MOL0     C   56   0.893   2.182   8.826 -0.1143 -0.5299  0.8387
  726MOL0     C   57   0.900   2.111   8.949 -0.8207 -0.8610  0.1221
  726MOL0     O   58   1.000   2.160   9.028  0.6483  0.1043  0.7625
  726MOL0     C   59   1.128   2.099   9.003 -0.5178 -0.9932 -0.3919
  726MOL0     C   60   1.215   2.186   8.909  0.6335  0.2130  0.4240
  726MOL0     C   61   1.245   2.317   8.976 -0.5256 -0.3882 -1.0530
  726MOL0     C   62   1.361   2.390   8.897  0.7578  0.7392 -0.6141
  726MOL0     C   63   1.419   2.505   8.976  0.4762 -1.0761 -0.8912
  726MOL0     C   64   1.525   2.567   8.895 -0.2104  0.2967  0.4422
  726MOL0     C   65   1.590   2.690   8.970  0.9243  0.4466  0.8808
  726MOL0     C   66   1.598   2.682   9.126 -1.2517  0.5237  0.2714
  726MOL0     N   67   1.605   2.814   9.182  0.1121  0.0434 -0.4085
  726MOL0     C   68   1.719   2.899   9.167  0.7452 -0.4036 -0.7385
  726MOL0     C   69   1.693   2.993   9.262  0.3925  0.7110  0.0042
  726MOL0     C   70   1.793   3.097   9.302 -0.1413 -0.6100  0.4697
  726MOL0     C   71   1.724   3.239   9.301  0.2932 -0.5402 -0.9569
  726MOL0     C   72   1.829   3.347   9.344  0.6678  0.5495 -0.2462
  726MOL0     C   73   1.757   3.454   9.439  1.0331 -0.0695  0.0968
  726MOL0     O   74   1.641   3.499   9.364 -0.4157  0.0627  0.5805
  726MOL0     C   75   1.525   3.499   9.437  0.3446 -0.1005 -0.0411
  726MOL0     C   76   1.431   3.404   9.410  0.4890  0.5275 -0.0864
  726MOL0     C   77   1.320   3.381   9.493 -0.4440  0.5430  0.0353
  726MOL0     C   78   1.234   3.257   9.457 -0.0598 -0.5449 -0.1638
  726MOL0     C   79   1.288   3.474   9.595  0.7626  0.0213  0.0287
  726MOL0     C   80   1.161   3.461   9.690  1.1349  0.2286  0.0444
  726MOL0     O   81   1.136   3.563   9.780  0.4256 -0.1093 -0.0870
  726MOL0     C   82   1.053   3.551   9.887  0.4428 -0.3116  0.5217
  726MOL0     C   83   0.923   3.509   9.863 -0.0698  0.0442 -0.1800
  726MOL0     C   84   0.839   3.519   9.977 -0.2580 -1.3757 -0.8476
  726MOL0     C   85   0.876   3.560  10.101  0.0150  0.0993 -0.1625
  726MOL0     O   86   0.796   3.577  10.212  0.3964  0.2137  0.3532
  726MOL0     C   87   0.654   3.557  10.198 -0.4905 -0.5394  0.1661
  726MOL0     C   88   0.592   3.636  10.314  0.0132 -0.2991  0.0066
  726MOL0     C   89   0.625   3.583  10.453  0.3747 -0.9754 -0.5271
  726MOL0     C   90   0.590   3.690  10.556 -0.2403 -1.2915 -0.1965
  726MOL0     C   91   0.580   3.633  10.694 -0.5049  0.0598  0.4397
  726MOL0     C   92   0.559   3.735  10.803 -0.3066  0.1658  0.0323
  726MOL0     C   93   0.532   3.649  10.931  0.1834  0.4227  0.3607
  726MOL0     C   94   0.508   3.726  11.057 -0.5486 -0.1698  0.9632
  726MOL0    Cl   95   0.476   3.602  11.183 -0.0212 -0.1379  0.6688
  726MOL0     C   96   1.008   3.602  10.123  0.7886 -0.2464  0.8066
  726MOL0     C   97   1.097   3.591  10.017  0.3167 -0.6486  0.9013
  726MOL0     O   98   1.098   3.358   9.687  0.4426  0.8253  0.6348
  726MOL0     C   99   1.382   3.573   9.612 -0.8579 -0.5058  0.1905
  726MOL0     C  100   1.510   3.579   9.549 -0.3116 -0.5437  0.5113
  726MOL0     N  101   1.565   2.977   9.310  0.5499  0.8456 -0.4276
  726MOL0     N  102   1.513   2.866   9.270 -0.3363  1.1950 -0.5268
  726MOL0     C  103   0.811   2.010   8.969  0.4363  0.2596  0.7397
  726MOL0     C  104   0.726   1.961   8.861 -0.1066  0.3481 -1.0683
  726MOL0     C  105   0.388   2.000   8.559  0.3158  0.3669  0.1134
  726MOL0     C  106   0.338   1.916   8.659  0.2557 -1.1904  0.3989
  726MOL0     C  107   0.210   1.872   8.662 -0.6491  0.4315 -0.8087
  726MOL0     C  108   0.124   1.895   8.548 -0.7638  0.4962 -0.0263
  726MOL0     O  109   0.013   1.819   8.561 -0.2830 -0.1841  0.1229
  726MOL0     C  110  -0.074   1.811   8.448 -0.1530  0.1571 -0.2717
  726MOL0     C  111  -0.014   1.715   8.342 -0.2173  0.6323  0.1022
  726MOL0     C  112  -0.045   1.561   8.352 -0.7461  0.5167 -0.6800
  726MOL0     C  113   0.036   1.505   8.468 -0.5046 -0.0834  0.4417
  726MOL0     C  114   0.039   1.359   8.468 -0.9858  0.2252  0.8438
  726MOL0     C  115   0.039   1.241   8.476 -0.4167  0.2022  0.1929
  726MOL0     C  116   0.168   1.976   8.449 -0.5493 -0.5865 -0.8120
  726MOL0     C  117   0.300   2.029   8.453 -0.4320  0.3333 -0.3243
  726MOL0     C  118   0.351   2.099   8.332  0.2833  0.0276 -0.2531
  726MOL0     H  119   0.807   2.197   8.625  2.3037 -2.1181 -0.8175
  726MOL0     H  120   0.971   2.255   8.806  0.9276 -1.6217  0.8127
  726MOL0     H  121   1.108   2.000   8.962 -1.4684 -0.2590 -1.8002
  726MOL0     H  122   1.183   2.090   9.098 -0.9154  2.9950  0.3927
  726MOL0     H  123   1.311   2.135   8.903  1.5914  1.6731  2.2145
  726MOL0     H  124   1.180   2.197   8.806 -0.4506 -0.2427  0.7327
  726MOL0     H  125   1.150   2.371   8.979 -1.7241 -2.4124 -0.6913
  726MOL0     H  126   1.277   2.312   9.080 -3.5666 -1.1481 -0.0606
  726MOL0     H  127   1.439   2.316   8.876  1.8383  1.9103 -0.8406
  726MOL0     H  128   1.323   2.433   8.804 -0.2699 -1.0145 -1.0463
  726MOL0     H  129   1.461   2.465   9.068  1.1882 -0.7094 -1.0493
  726MOL0     H  130   1.338   2.575   9.001  0.5518 -0.7983 -1.4066
  726MOL0     H  131   1.604   2.494   8.878  2.5094  2.3825  3.2110
  726MOL0     H  132   1.486   2.599   8.798 -3.2718 -2.7534  0.4438
  726MOL0     H  133   1.520   2.770   8.943  0.0572  0.3547  2.7119
  726MOL0     H  134   1.684   2.702   8.917 -0.0531  0.6563 -0.8787
  726MOL0     H  135   1.509   2.633   9.166  1.3577 -2.6020  2.7214
  726MOL0     H  136   1.673   2.614   9.166 -1.9327 -1.5619 -1.8190
  726MOL0     H  137   1.797   2.893   9.091  0.7773  0.6814 -0.7974
  726MOL0     H  138   1.863   3.096   9.218  0.5458 -2.2898  1.0057
  726MOL0     H  139   1.843   3.072   9.397  1.2730 -1.1383 -0.3746
  726MOL0     H  140   1.677   3.259   9.204 -2.1828  2.2299  0.6247
  726MOL0     H  141   1.643   3.246   9.374 -0.0391 -1.3763 -1.2360
  726MOL0     H  142   1.913   3.296   9.393  0.6318  1.5678  0.9442
  726MOL0     H  143   1.862   3.406   9.257 -1.9795 -0.1564 -1.8334
  726MOL0     H  144   1.732   3.403   9.533  2.0597 -1.0107 -0.1231
  726MOL0     H  145   1.812   3.544   9.466 -0.9775  1.3074 -0.2274
  726MOL0     H  146   1.443   3.320   9.342 -3.3086  1.0317 -1.6338
  726MOL0     H  147   1.136   3.290   9.422  0.1629  1.8013  1.2603
  726MOL0     H  148   1.226   3.201   9.550  3.0614  1.0987  1.2467
  726MOL0     H  149   1.283   3.200   9.377  0.1209 -0.5416 -0.0558
  726MOL0     H  150   0.888   3.481   9.764  1.1025 -2.5045  0.0367
  726MOL0     H  151   0.738   3.483   9.963 -1.4103  0.8366  1.0649
  726MOL0     H  152   0.625   3.617  10.111  0.8105 -2.1179 -1.4409
  726MOL0     H  153   0.621   3.453  10.202 -3.4784  0.2758 -0.6385
  726MOL0     H  154   0.632   3.738  10.316 -1.6205  0.3928 -0.6956
  726MOL0     H  155   0.483   3.633  10.307 -0.0003  0.6828 -0.3974
  726MOL0     H  156   0.730   3.556  10.465 -0.1636 -3.3373 -0.7759
  726MOL0     H  157   0.552   3.503  10.468 -4.1808  2.4836 -1.9805
  726MOL0     H  158   0.493   3.736  10.535  0.4367  0.3084  0.0104
  726MOL0     H  159   0.659   3.775  10.567  0.2622 -1.5059 -1.5243
  726MOL0     H  160   0.491   3.569  10.689 -0.9527  0.7356 -0.7151
  726MOL0     H  161   0.666   3.568  10.712 -0.5979 -0.8485 -1.9857
  726MOL0     H  162   0.468   3.793  10.785 -0.8708 -0.5443  0.4897
  726MOL0     H  163   0.646   3.800  10.818 -0.6561  0.2524  2.0035
  726MOL0     H  164   0.619   3.582  10.929  0.3182  0.6047 -0.6242
  726MOL0     H  165   0.448   3.579  10.924 -0.0173  0.3368  2.7447
  726MOL0     H  166   0.420   3.791  11.059  0.2840  0.9984  1.8337
  726MOL0     H  167   0.604   3.769  11.088  0.5471 -0.2780 -1.9681
  726MOL0     H  168   1.026   3.639  10.223 -0.5406  0.3072  0.8683
  726MOL0     H  169   1.197   3.630  10.029  0.7300  0.8020 -4.3950
  726MOL0     H  170   1.372   3.645   9.692 -1.2445 -1.4204  0.9865
  726MOL0     H  171   1.581   3.660   9.562 -0.2228 -0.3356 -1.0240
  726MOL0     H  172   0.827   1.970   9.069  2.5308  1.3012  0.8968
  726MOL0     H  173   0.657   1.879   8.876  0.2542 -0.2342 -2.5067
  726MOL0     H  174   0.399   1.886   8.743 -0.5000  1.0869  1.8368
  726MOL0     H  175   0.179   1.807   8.744 -2.5555  1.5255 -0.5964
  726MOL0     H  176  -0.178   1.788   8.474 -0.6156  1.5725 -0.7930
  726MOL0     H  177  -0.075   1.916   8.418  1.8474  0.5922  0.9711
  726MOL0     H  178   0.092   1.741   8.331  0.6391 -3.1515 -2.8400
  726MOL0     H  179  -0.046   1.744   8.241  0.3975  0.9039 -0.0185
  726MOL0     H  180  -0.152   1.544   8.366 -1.0230  3.3844  1.5604
  726MOL0     H  181  -0.002   1.507   8.267 -3.0603 -3.6352  0.5149
  726MOL0     H  182  -0.007   1.551   8.557 -1.7285 -1.2864  0.4990
  726MOL0     H  183   0.144   1.525   8.470 -0.3539 -0.1654  5.2169
  726MOL0     H  184   0.032   1.134   8.482 -0.7155  0.2332  0.4314
  726MOL0     H  185   0.102   1.994   8.366  1.2074 -2.2117 -2.6780
  726MOL0     H  186   0.366   2.202   8.365 -1.5212 -0.3793  2.1158
  726MOL0     H  187   0.439   2.062   8.278  0.0286  0.7901 -1.2130
  726MOL0     H  188   0.266   2.100   8.264  1.7931 -0.2972 -2.2453
  727MOL0     O  189   7.618  10.893   9.532 -0.3274 -0.4696  0.3140
  727MOL0     C  190   7.658  10.811   9.614 -1.3210  0.4645 -0.4288
  727MOL0     O  191   7.779  10.820   9.679  0.0894  0.2545 -0.1357
  727MOL0     C  192   7.879  10.890   9.619  0.1660 -0.8240  0.7270
  727MOL0     C  193   7.963  10.817   9.537  0.0014 -0.3389 -0.2798
  727MOL0     C  194   8.074  10.864   9.467  0.3486 -0.1591 -0.3788
  727MOL0     C  195   8.102  11.004   9.481  0.9112 -0.1115 -0.4029
  727MOL0     O  196   8.216  11.055   9.430 -0.1173  0.0215  0.0949
  727MOL0     C  197   8.317  10.974   9.365  0.7213 -0.3477  0.3068
  727MOL0     C  198   8.423  11.063   9.298  0.4390 -0.0103  0.2640
  727MOL0     C  199   8.547  10.979   9.244  0.1477  0.1481  0.2893
  727MOL0     C  200   8.513  10.910   9.105  0.0688 -0.1320 -1.3062
  727MOL0     C  201   8.605  10.801   9.053 -1.5554  0.3807 -0.0230
  727MOL0     C  202   8.579  10.668   9.128  0.3330  0.1862 -0.0611
  727MOL0     C  203   8.683  10.557   9.080  1.2447  0.2535 -0.9766
  727MOL0     C  204   8.686  10.447   9.191 -1.1008 -1.2504  0.3718
  727MOL0     N  205   8.575  10.354   9.193 -0.0695  0.1840  0.1171
  727MOL0     C  206   8.553  10.258   9.102 -1.7049  0.3189 -0.0014
  727MOL0     C  207   8.434  10.201   9.129  0.2995  0.8199 -0.5713
  727MOL0     C  208   8.368  10.079   9.044  0.2869 -0.2552 -0.0652
  727MOL0     C  209   8.479   9.962   9.027 -0.3450 -0.5503 -0.2726
  727MOL0     C  210   8.439   9.837   8.955 -0.3751  0.3369 -0.1133
  727MOL0     C  211   8.428   9.861   8.801 -0.4743  0.2018  0.3362
  727MOL0     O  212   8.552   9.887   8.739 -0.3355  0.1039 -0.1026
  727MOL0     C  213   8.631   9.792   8.687  0.5799  0.7017  0.1510
  727MOL0     C  214   8.613   9.653   8.703 -0.8331 -0.7336  0.0612
  727MOL0     C  215   8.710   9.561   8.654 -0.1993 -0.2523  0.3757
  727MOL0     C  216   8.691   9.416   8.688  0.1660 -0.5257  0.4671
  727MOL0     C  217   8.821   9.605   8.582  0.4902  0.0244  0.6628
  727MOL0     C  218   8.955   9.538   8.569  0.0034  0.4150 -0.4878
  727MOL0     O  219   9.042   9.598   8.492 -0.3123  0.1237  1.0676
  727MOL0     C  220   9.170   9.545   8.481  0.1050  0.4584  0.5708
  727MOL0     C  221   9.217   9.490   8.355 -1.1863  0.6300 -0.1300
  727MOL0     C  222   9.356   9.450   8.354  0.2347  0.0970  0.0776
  727MOL0     C  223   9.429   9.456   8.471  0.0740  0.2667 -0.0950
  727MOL0     O  224   9.558   9.409   8.464 -0.0587 -1.1939  0.3686
  727MOL0     C  225   9.601   9.294   8.526 -0.3834  0.4607 -0.3688
  727MOL0     C  226   9.749   9.285   8.510  1.0011 -0.1019 -1.0340
  727MOL0     C  227   9.801   9.139   8.512  0.8848  0.6299  0.2039
  727MOL0     C  228   9.884   9.112   8.636  0.7312  0.0735  0.7899
  727MOL0     C  229   9.940   8.970   8.639 -0.8970  1.0072 -0.7266
  727MOL0     C  230  10.000   8.951   8.775  0.3229 -0.6238 -1.2512
  727MOL0     C  231  10.077   8.829   8.798  1.0449  0.4227 -1.3538
  727MOL0     C  232  10.226   8.824   8.750  0.3323  0.0231 -0.2799
  727MOL0    Cl  233  10.306   8.935   8.859 -0.0337 -0.1053  0.0656
  727MOL0     C  234   9.372   9.487   8.589 -0.2408 -0.4936 -0.6124
  727MOL0     C  235   9.250   9.554   8.598  0.1221 -0.1612 -0.2548
  727MOL0     O  236   8.989   9.440   8.642  0.9093 -0.4078  0.2087
  727MOL0     C  237   8.817   9.740   8.535  0.9455 -0.1184  0.3645
  727MOL0     C  238   8.721   9.830   8.589 -0.6032 -0.1033  0.2147
  727MOL0     N  239   8.393  10.254   9.252 -0.2897  0.2834 -1.5130
  727MOL0     N  240   8.484  10.338   9.290 -0.1661  0.3515  0.6162
  727MOL0     C  241   8.023  11.085   9.567  0.8739  0.1444 -1.0178
  727MOL0     C  242   7.909  11.033   9.633  0.9176  0.2372  0.2154
  727MOL0     C  243   7.579  10.686   9.653 -1.0816 -0.5951  0.1395
  727MOL0     C  244   7.538  10.603   9.550 -0.7950  0.2210 -0.5073
  727MOL0     C  245   7.475  10.478   9.579  1.2464  0.4734  0.4449
  727MOL0     C  246   7.432  10.446   9.705  1.0019 -0.3450  1.1180
  727MOL0     O  247   7.357  10.327   9.719  0.0921 -0.0290  0.6584
  727MOL0     C  248   7.316  10.279   9.847 -0.5198  0.3157 -0.1334
  727MOL0     C  249   7.180  10.328   9.886  0.2915 -0.5706  0.1788
  727MOL0     C  250   7.113  10.230   9.982 -0.0778  0.2127 -0.0324
  727MOL0     C  251   6.976  10.278  10.046 -0.6214  1.1261  0.0918
  727MOL0     C  252   6.860  10.252   9.957  0.2037 -0.2218 -0.6811
  727MOL0     C  253   6.750  10.241   9.907  0.4492 -0.1699  0.3532
  727MOL0     C  254   7.468  10.538   9.803  0.5622 -0.5820 -0.5001
  727MOL0     C  255   7.537  10.659   9.780  0.2846  0.1570  0.6180
  727MOL0     C  256   7.562  10.753   9.891 -0.1199  0.2601  0.5234
  727MOL0     H  257   7.952  10.712   9.512  2.8044 -0.3386 -1.9208
  727MOL0     H  258   8.133  10.793   9.410  3.7956 -0.9728  3.7079
  727MOL0     H  259   8.284  10.911   9.282  1.0637  1.6656 -1.4192
  727MOL0     H  260   8.367  10.906   9.434 -0.6938 -2.5575 -0.7248
  727MOL0     H  261   8.383  11.118   9.212 -1.9419  1.8855  2.4282
  727MOL0     H  262   8.449  11.136   9.375  1.8164  0.6241 -0.7682
  727MOL0     H  263   8.626  11.053   9.230 -0.0168  0.1254 -0.8876
  727MOL0     H  264   8.578  10.902   9.315  0.7265  0.8567  0.8106
  727MOL0     H  265   8.413  10.866   9.101 -0.6837  1.5744 -2.3982
  727MOL0     H  266   8.501  10.983   9.025 -0.4254 -0.8773 -1.9257
  727MOL0     H  267   8.709  10.831   9.070 -1.2741  0.2619 -1.4170
  727MOL0     H  268   8.595  10.786   8.945 -0.9726 -1.1316  0.1054
  727MOL0     H  269   8.594  10.695   9.233  3.0337 -0.6332 -0.1582
  727MOL0     H  270   8.474  10.639   9.121 -0.1878  1.9703 -0.0967
  727MOL0     H  271   8.784  10.597   9.083  0.0561  3.4857  0.5041
  727MOL0     H  272   8.658  10.515   8.982  1.4434 -0.1674 -0.8464
  727MOL0     H  273   8.778  10.392   9.168  1.1815  3.0893 -2.1458
  727MOL0     H  274   8.716  10.494   9.285  0.9418  1.3201 -1.4346
  727MOL0     H  275   8.622  10.230   9.022  0.3853 -0.1906  1.8959
  727MOL0     H  276   8.344  10.120   8.946  2.3070 -2.4355 -1.5806
  727MOL0     H  277   8.274  10.039   9.084 -1.2129  2.8662 -0.1511
  727MOL0     H  278   8.576  10.000   8.992  0.0885 -0.3776  1.0571
  727MOL0     H  279   8.509   9.928   9.127  0.4177 -2.4026 -1.0788
  727MOL0     H  280   8.516   9.761   8.973 -1.5317 -0.9491 -0.4920
  727MOL0     H  281   8.348   9.796   8.998 -1.3640  2.5747  0.0394
  727MOL0     H  282   8.390   9.767   8.760  1.0366 -0.2249 -0.1304
  727MOL0     H  283   8.363   9.944   8.769 -0.8267 -0.4096 -0.5758
  727MOL0     H  284   8.528   9.625   8.764 -0.7982 -2.5321 -0.6547
  727MOL0     H  285   8.747   9.398   8.781 -2.1640 -0.2576  2.0135
  727MOL0     H  286   8.710   9.355   8.599 -2.7571 -0.7719 -0.0986
  727MOL0     H  287   8.587   9.401   8.718  0.8864  0.1842  3.7369
  727MOL0     H  288   9.157   9.492   8.264  0.0869 -0.7964 -1.0432
  727MOL0     H  289   9.399   9.403   8.266 -0.8627 -3.0720  1.1139
  727MOL0     H  290   9.587   9.288   8.634 -1.9548 -1.6741 -0.6442
  727MOL0     H  291   9.556   9.211   8.471  1.4585 -0.4235 -0.6079
  727MOL0     H  292   9.772   9.337   8.417 -0.4982  0.7667 -0.9420
  727MOL0     H  293   9.774   9.343   8.599 -0.5956 -0.0076 -0.6191
  727MOL0     H  294   9.873   9.140   8.430  0.3604  0.3061 -0.2698
  727MOL0     H  295   9.729   9.060   8.487 -0.6684  1.0614  2.8980
  727MOL0     H  296   9.826   9.121   8.728  1.5693  0.9880  1.2501
  727MOL0     H  297   9.962   9.188   8.640  1.0613 -0.0470 -1.6187
  727MOL0     H  298   9.860   8.895   8.633  2.9450 -3.6885  0.6068
  727MOL0     H  299  10.009   8.954   8.556 -1.2577 -2.1905 -0.5151
  727MOL0     H  300   9.918   8.941   8.847  1.1040 -0.4635 -0.3306
  727MOL0     H  301  10.063   9.034   8.809 -3.7083  1.6219  1.5903
  727MOL0     H  302  10.028   8.740   8.757  0.6729 -0.3553  0.6297
  727MOL0     H  303  10.084   8.817   8.907 -2.1355  0.5994 -1.0414
  727MOL0     H  304  10.232   8.858   8.646 -2.9826 -1.0510 -0.9401
  727MOL0     H  305  10.274   8.727   8.766 -0.5494 -0.2113  1.0496
  727MOL0     H  306   9.433   9.470   8.677 -2.2735 -0.7738  0.8219
  727MOL0     H  307   9.214   9.599   8.689  0.9686 -2.0520  1.0774
  727MOL0     H  308   8.893   9.788   8.475 -0.4428 -1.0907 -2.3475
  727MOL0     H  309   8.714   9.930   8.547 -1.8564 -0.4059 -0.3559
  727MOL0     H  310   8.058  11.187   9.573  0.6629  0.2508 -1.6266
  727MOL0     H  311   7.847  11.090   9.701 -0.0623 -1.8678  1.1765
  727MOL0     H  312   7.579  10.633   9.454  4.0033  2.0169  1.7490
  727MOL0     H  313   7.450  10.403   9.504  0.8231  2.0358 -1.0645
  727MOL0     H  314   7.315  10.170   9.858 -3.9656  0.3028  0.4800
  727MOL0     H  315   7.374  10.327   9.926  1.1210 -2.1470  0.2549
  727MOL0     H  316   7.116  10.348   9.799 -1.0388 -2.4013  0.6523
  727MOL0     H  317   7.191  10.422   9.939  0.9084  0.5501 -1.8237
  727MOL0     H  318   7.103  10.131   9.938 -0.3571  0.6169 -0.9016
  727MOL0     H  319   7.181  10.212  10.065 -1.5269 -0.5764  1.0267
  727MOL0     H  320   6.982  10.385  10.068 -0.8980  1.2309 -0.3253
  727MOL0     H  321   6.959  10.218  10.136 -0.0680  0.4048 -0.2761
  727MOL0     H  322   6.667  10.216   9.845  1.5682 -0.1079 -1.2304
  727MOL0     H  323   7.450  10.527   9.910  0.2142  0.3877 -0.4404
  727MOL0     H  324   7.653  10.713   9.938 -0.4172  0.6262  1.4309
  727MOL0     H  325   7.580  10.855   9.853  0.8278  0.5428  1.6657
  727MOL0     H  326   7.485  10.761   9.967 -0.0142  1.8611  0.5125
  728MOL0     O  327  10.480   2.014   5.782 -0.3825 -0.8496 -0.8419
  728MOL0     C  328  10.374   2.009   5.733 -0.1039  0.6717 -0.2513
  728MOL0     O  329  10.354   2.013   5.593 -0.5388 -0.5529 -0.5748
  728MOL0     C  330  10.464   2.016   5.512  0.4502 -0.5663  0.2939
  728MOL0     C  331  10.573   1.920   5.513  0.7824  0.5471 -0.6564
  728MOL0     C  332  10.674   1.923   5.425  0.0378 -0.7763 -0.3492
  728MOL0     C  333  10.690   2.036   5.343  0.7154 -0.6811 -0.0718
  728MOL0     O  334  10.802   2.066   5.272 -0.2717 -0.4383 -0.9153
  728MOL0     C  335  10.920   2.004   5.315  0.2737 -0.5292  0.3708
  728MOL0     C  336  11.039   2.034   5.216 -0.5823 -1.0142 -0.1103
  728MOL0     C  337  11.112   2.167   5.243 -0.2593 -0.3175 -0.4076
  728MOL0     C  338  11.013   2.290   5.266  0.0907  0.0781  0.2152
  728MOL0     C  339  11.083   2.409   5.292  0.1324 -0.2058 -0.4791
  728MOL0     C  340  11.152   2.412   5.431 -0.3974 -0.4522 -0.1803
  728MOL0     C  341  11.255   2.530   5.453 -0.2398 -0.6122  0.3298
  728MOL0     C  342  11.196   2.673   5.443 -0.7890 -0.0795 -0.1746
  728MOL0     N  343  11.091   2.717   5.544 -0.4083  0.2652 -0.5303
  728MOL0     C  344  11.083   2.679   5.676  1.0355  0.8282  0.3469
  728MOL0     C  345  10.995   2.767   5.729 -0.1952 -0.4960  0.4519
  728MOL0     C  346  10.974   2.775   5.874  0.6695  0.3953  0.5321
  728MOL0     C  347  10.835   2.835   5.892 -0.9431 -0.1249 -0.4692
  728MOL0     C  348  10.810   2.885   6.037 -0.9322 -0.0140 -0.7675
  728MOL0     C  349  10.665   2.947   6.052  1.5413  0.4087  0.9283
  728MOL0     O  350  10.572   2.846   6.039 -0.5457  0.2128  0.7221
  728MOL0     C  351  10.446   2.882   6.012 -0.8181  0.1260  0.9051
  728MOL0     C  352  10.391   2.992   6.069 -0.3276 -0.0491  1.3368
  728MOL0     C  353  10.257   3.017   6.033 -0.6263 -0.6546  0.3602
  728MOL0     C  354  10.193   3.130   6.106  0.4223 -1.0122  0.5222
  728MOL0     C  355  10.188   2.956   5.925 -0.1242  0.7533  0.0826
  728MOL0     C  356  10.045   2.983   5.887  0.3507 -0.5754  0.6038
  728MOL0     O  357   9.961   3.035   5.988 -0.1809  0.3075  0.5456
  728MOL0     C  358   9.828   3.018   5.969  0.4160 -0.0229 -0.2998
  728MOL0     C  359   9.782   2.889   5.981  0.3142  0.2253  0.7259
  728MOL0     C  360   9.649   2.865   6.000 -0.2545  0.1027  0.2957
  728MOL0     C  361   9.563   2.971   6.014 -0.7315 -0.0335 -0.7316
  728MOL0     O  362   9.432   2.948   6.003 -0.4803 -0.5606 -0.6567
  728MOL0     C  363   9.389   3.001   5.878  0.0472 -0.4385  1.1727
  728MOL0     C  364   9.235   2.998   5.873  0.6251  1.2365  0.2444
  728MOL0     C  365   9.140   3.057   5.979  0.3257 -0.1428  0.4114
  728MOL0     C  366   9.162   3.202   5.998  0.8240 -0.4522  0.2975
  728MOL0     C  367   9.047   3.258   6.086  0.2629 -0.5023 -0.0159
  728MOL0     C  368   9.037   3.414   6.078 -0.0791 -0.0357 -0.0641
  728MOL0     C  369   8.916   3.454   6.147 -0.3265 -1.1031 -0.0742
  728MOL0     C  370   8.868   3.601   6.107 -0.3604  0.1657 -0.2674
  728MOL0    Cl  371   8.793   3.669   6.247  0.1005 -0.2420  0.4172
  728MOL0     C  372   9.604   3.103   6.019  0.6991 -0.3732 -0.1470
  728MOL0     C  373   9.739   3.127   5.992 -0.2269  0.3400  1.1393
  728MOL0     O  374  10.011   2.943   5.776  1.4499 -0.2453 -0.4209
  728MOL0     C  375  10.257   2.851   5.859  0.4679 -0.4254  0.2488
  728MOL0     C  376  10.377   2.809   5.911  0.4130  0.1482 -0.8244
  728MOL0     N  377  10.950   2.849   5.632  0.5512 -0.6811 -0.5252
  728MOL0     N  378  11.010   2.826   5.524  1.6340 -0.9994  0.1721
  728MOL0     C  379  10.587   2.131   5.343  0.2246  0.1181  0.7162
  728MOL0     C  380  10.468   2.121   5.420 -0.3918  0.4149  0.2062
  728MOL0     C  381  10.268   1.977   5.829 -0.2582 -0.3838  0.6997
  728MOL0     C  382  10.148   1.928   5.780  0.1391  0.1312  0.0808
  728MOL0     C  383  10.035   1.912   5.864 -0.4749 -0.1519  0.4427
  728MOL0     C  384  10.047   1.936   5.997  0.0638 -0.8208 -0.7088
  728MOL0     O  385   9.936   1.933   6.075  0.0730 -0.4782  0.1697
  728MOL0     C  386   9.904   1.804   6.130 -0.2300 -0.2059 -0.7984
  728MOL0     C  387   9.876   1.809   6.278  0.6639 -0.0287  0.0042
  728MOL0     C  388   9.858   1.670   6.336 -0.8808 -0.6565 -0.6008
  728MOL0     C  389   9.718   1.645   6.388 -0.4954  0.3698  0.6580
  728MOL0     C  390   9.688   1.741   6.499 -0.9653  1.1976  1.3259
  728MOL0     C  391   9.667   1.809   6.596  0.5182 -0.5915  0.4252
  728MOL0     C  392  10.160   1.981   6.049 -0.7040 -0.5070 -0.1824
  728MOL0     C  393  10.277   1.992   5.979  0.1715  0.0379  0.2682
  728MOL0     C  394  10.404   2.045   6.055 -0.0651  0.1462  0.8429
  728MOL0     H  395  10.556   1.841   5.586 -0.8750  0.5819 -0.9628
  728MOL0     H  396  10.753   1.850   5.434 -0.2230 -1.1325 -0.8829
  728MOL0     H  397  10.916   1.895   5.318 -1.2755 -0.5883 -1.7267
  728MOL0     H  398  10.940   2.047   5.414  1.8771 -0.2738 -0.0308
  728MOL0     H  399  11.109   1.950   5.217 -0.3077 -0.7937 -0.5800
  728MOL0     H  400  10.997   2.044   5.116  0.0521  1.5101 -0.1819
  728MOL0     H  401  11.176   2.156   5.330 -2.3453 -2.0130  0.9836
  728MOL0     H  402  11.170   2.182   5.151  0.0758  1.9258  0.1127
  728MOL0     H  403  10.948   2.295   5.178  0.4461  0.1851 -0.0413
  728MOL0     H  404  10.945   2.275   5.351  0.3329  0.0428  0.4023
  728MOL0     H  405  11.014   2.493   5.289 -1.9157 -1.8143 -0.1803
  728MOL0     H  406  11.160   2.427   5.215 -0.1882 -0.0824 -0.7727
  728MOL0     H  407  11.081   2.412   5.515  0.2337 -0.5373  0.3644
  728MOL0     H  408  11.210   2.321   5.450  0.5163  0.3094  0.8147
  728MOL0     H  409  11.325   2.531   5.369 -1.1484  2.8099 -0.5688
  728MOL0     H  410  11.303   2.519   5.550 -1.5161 -2.7048  0.7959
  728MOL0     H  411  11.278   2.745   5.451 -0.5400 -0.2213 -1.3426
  728MOL0     H  412  11.163   2.684   5.340  2.5097 -0.8630 -1.4311
  728MOL0     H  413  11.140   2.607   5.734  0.9690  1.0291  0.6688
  728MOL0     H  414  11.052   2.822   5.934  1.6240 -1.3110  0.6602
  728MOL0     H  415  10.969   2.672   5.911 -1.1801  0.6355  1.0550
  728MOL0     H  416  10.830   2.927   5.832 -2.7837 -0.9301 -1.6086
  728MOL0     H  417  10.754   2.776   5.848 -0.5731 -0.0038 -1.3524
  728MOL0     H  418  10.839   2.810   6.111  0.0973  2.2361  1.2767
  728MOL0     H  419  10.881   2.962   6.069  0.5845 -1.5743 -0.2760
  728MOL0     H  420  10.652   2.983   6.155  0.0090 -0.8705  1.2052
  728MOL0     H  421  10.658   3.029   5.980  2.7979  1.1377  1.5828
  728MOL0     H  422  10.459   3.046   6.134  3.5931 -0.2315 -2.1834
  728MOL0     H  423  10.148   3.207   6.043  1.1930 -2.0372 -1.3770
  728MOL0     H  424  10.258   3.179   6.179  1.8503 -2.0475  0.0044
  728MOL0     H  425  10.115   3.087   6.169 -0.7897  0.8162  0.3373
  728MOL0     H  426   9.849   2.805   5.993  2.0953  1.3879 -0.5767
  728MOL0     H  427   9.599   2.769   5.992  0.2192 -0.2302  1.1575
  728MOL0     H  428   9.405   3.108   5.867 -2.4559 -0.2244 -1.4934
  728MOL0     H  429   9.433   2.949   5.793 -3.3098  1.4100 -1.9793
  728MOL0     H  430   9.208   3.043   5.777 -0.4058 -2.2561 -1.2484
  728MOL0     H  431   9.211   2.891   5.869 -1.3318  1.6780 -1.2612
  728MOL0     H  432   9.160   2.997   6.068 -0.8837 -2.2976 -0.7061
  728MOL0     H  433   9.038   3.028   5.953 -0.0460  0.2671  1.3935
  728MOL0     H  434   9.153   3.253   5.902 -1.2029  1.8794  1.5854
  728MOL0     H  435   9.261   3.222   6.039  1.3770  1.1728 -1.6846
  728MOL0     H  436   8.961   3.198   6.055  0.7253 -0.9145 -0.5224
  728MOL0     H  437   9.059   3.220   6.187 -3.5212 -0.5089  0.5754
  728MOL0     H  438   9.027   3.448   5.975 -1.7496  0.3579  0.1893
  728MOL0     H  439   9.132   3.450   6.117  0.9333 -1.7267 -0.8427
  728MOL0     H  440   8.930   3.438   6.255 -1.6608  0.1151  0.3174
  728MOL0     H  441   8.832   3.385   6.131  1.2639 -3.4874  1.2293
  728MOL0     H  442   8.797   3.588   6.024 -2.4736 -1.4438  1.6711
  728MOL0     H  443   8.952   3.663   6.076 -1.2686  0.0391 -3.3488
  728MOL0     H  444   9.534   3.183   6.039 -0.0130 -0.3257 -2.5382
  728MOL0     H  445   9.777   3.228   6.004 -1.6245  1.3744 -2.0307
  728MOL0     H  446  10.214   2.801   5.773 -1.8041 -2.9600  2.6374
  728MOL0     H  447  10.438   2.730   5.868  1.0099  0.1834 -0.0735
  728MOL0     H  448  10.599   2.206   5.266  2.7999 -0.2327  0.6786
  728MOL0     H  449  10.384   2.189   5.407 -1.8008 -0.7970  2.2862
  728MOL0     H  450  10.145   1.902   5.675  1.0382  0.3466 -0.0090
  728MOL0     H  451   9.948   1.856   5.829  2.5469 -2.9799 -3.4483
  728MOL0     H  452   9.819   1.752   6.084  0.8856 -2.5920 -0.2670
  728MOL0     H  453   9.986   1.736   6.109  2.7974  1.8040  3.1521
  728MOL0     H  454   9.787   1.872   6.287 -4.1392 -5.7296 -0.6609
  728MOL0     H  455   9.962   1.859   6.324  0.0760  2.5028 -1.4548
  728MOL0     H  456   9.900   1.589   6.275 -0.3666 -0.8816  0.0428
  728MOL0     H  457   9.929   1.664   6.419 -0.7725 -2.5618 -0.7727
  728MOL0     H  458   9.710   1.541   6.422  0.0566  0.0823 -0.0883
  728MOL0     H  459   9.644   1.665   6.310 -0.6481  0.4886  0.8320
  728MOL0     H  460   9.652   1.887   6.667 -3.6781  0.4753 -1.3564
  728MOL0     H  461  10.153   2.004   6.154 -1.0102 -1.8827  0.1159
  728MOL0     H  462  10.491   1.978   6.050 -0.2001 -0.0248  0.7725
  728MOL0     H  463  10.432   2.144   6.018  3.9875 -0.6112  1.3908
  728MOL0     H  464  10.378   2.057   6.160 -1.8858  0.5901  0.3656
  729MOL0     O  465   9.109   1.243   7.081  0.2311 -0.8173 -0.8323
  729MOL0     C  466   9.027   1.207   7.174 -0.1973 -0.7618  0.6826
  729MOL0     O  467   9.024   1.083   7.228  0.3148 -0.3236 -0.0070
  729MOL0     C  468   9.120   0.989   7.230 -0.4922  0.1539  0.3394
  729MOL0     C  469   9.078   0.856   7.252 -0.2135 -0.1313  0.2812
  729MOL0     C  470   9.172   0.750   7.267 -0.6161 -0.0068  0.4565
  729MOL0     C  471   9.312   0.767   7.253 -0.8453  0.3425  0.7746
  729MOL0     O  472   9.402   0.664   7.256  0.1104 -0.4034 -0.2445
  729MOL0     C  473   9.364   0.526   7.219 -0.8389  0.0014  0.2633
  729MOL0     C  474   9.327   0.454   7.352 -0.3635  0.9097  0.5698
  729MOL0     C  475   9.345   0.301   7.331  0.0805 -0.1671 -0.0388
  729MOL0     C  476   9.293   0.214   7.445 -0.6503 -1.4891  0.1616
  729MOL0     C  477   9.137   0.206   7.439 -0.6933  0.4151 -0.8773
  729MOL0     C  478   9.096   0.125   7.579  0.0350 -0.1112  1.2244
  729MOL0     C  479   8.949   0.103   7.599  0.3613  0.1893  0.9477
  729MOL0     C  480   8.872   0.225   7.669 -0.2530  0.6380 -0.8380
  729MOL0     N  481   8.727   0.193   7.714 -0.5048  0.0107 -0.0561
  729MOL0     C  482   8.682   0.159   7.841 -0.1703 -0.2266  0.3311
  729MOL0     C  483   8.547   0.168   7.824 -0.3358  0.4790  0.5551
  729MOL0     C  484   8.436   0.119   7.928 -0.4482 -0.3298 -0.2277
  729MOL0     C  485   8.438  -0.041   7.917  0.3623  0.3349  0.3597
  729MOL0     C  486   8.324  -0.112   7.999 -0.2643 -0.7004 -0.2141
  729MOL0     C  487   8.192  -0.071   7.926  0.0998 -0.1376  0.6880
  729MOL0     O  488   8.094  -0.105   8.020  1.1520 -0.5701 -0.0923
  729MOL0     C  489   7.971  -0.147   7.975  0.8114 -1.0596 -0.0837
  729MOL0     C  490   7.937  -0.135   7.841 -1.0958  0.0764  0.6411
  729MOL0     C  491   7.818  -0.194   7.783  0.3961 -0.7331 -0.0005
  729MOL0     C  492   7.796  -0.166   7.639  0.5095 -0.5843  0.4967
  729MOL0     C  493   7.727  -0.269   7.872  0.8983 -0.3072 -0.4145
  729MOL0     C  494   7.610  -0.341   7.827  0.2668  0.8208  0.7649
  729MOL0     O  495   7.481  -0.299   7.870  0.1364  0.3602  0.7583
  729MOL0     C  496   7.389  -0.398   7.856 -0.5680  0.5350 -0.1352
  729MOL0     C  497   7.388  -0.518   7.932  0.6709 -0.7000 -0.0488
  729MOL0     C  498   7.275  -0.597   7.927 -0.4881  0.8081  0.5493
  729MOL0     C  499   7.157  -0.559   7.861  0.2268  0.0978  0.9830
  729MOL0     O  500   7.036  -0.627   7.872 -0.6549  0.5505 -0.0206
  729MOL0     C  501   7.038  -0.768   7.896 -0.3462 -0.1902  1.0246
  729MOL0     C  502   6.900  -0.813   7.935  0.3028  0.0264 -0.7513
  729MOL0     C  503   6.899  -0.804   8.091 -0.5344 -0.2445  0.1039
  729MOL0     C  504   6.757  -0.853   8.149  0.2074  0.0182 -0.1936
  729MOL0     C  505   6.770  -0.972   8.240  1.3852  0.4423 -0.4721
  729MOL0     C  506   6.640  -1.055   8.257 -0.4867 -0.6050 -0.8209
  729MOL0     C  507   6.610  -1.156   8.139  0.1178  0.2977  0.4046
  729MOL0     C  508   6.496  -1.245   8.184  0.4055  0.3069  0.4156
  729MOL0    Cl  509   6.485  -1.390   8.092  0.7101  0.5475  0.1573
  729MOL0     C  510   7.158  -0.431   7.799  0.1118  0.6217  0.2188
  729MOL0     C  511   7.277  -0.359   7.795 -0.2492 -0.6785  0.0904
  729MOL0     O  512   7.635  -0.435   7.754  0.2094  0.4185  0.1914
  729MOL0     C  513   7.758  -0.256   8.013  0.0574 -0.5725  0.3047
  729MOL0     C  514   7.879  -0.199   8.059  1.1842 -0.3510 -0.4292
  729MOL0     N  515   8.514   0.211   7.690 -0.6283  0.3967  0.1005
  729MOL0     N  516   8.623   0.229   7.631 -1.0266  0.1871  0.5391
  729MOL0     C  517   9.353   0.901   7.221  0.9925  1.1510  0.1413
  729MOL0     C  518   9.258   1.008   7.213 -1.2134  0.5416 -0.5428
  729MOL0     C  519   8.908   1.300   7.223 -0.3328  0.4397 -0.2878
  729MOL0     C  520   8.828   1.254   7.330 -0.1735  0.5805  0.2964
  729MOL0     C  521   8.742   1.343   7.394 -0.5865  0.6372 -0.4139
  729MOL0     C  522   8.733   1.474   7.356  0.6687 -0.1946 -0.1676
  729MOL0     O  523   8.648   1.569   7.413 -1.0158  0.5824  0.2635
  729MOL0     C  524   8.544   1.531   7.513 -0.1956 -0.2637  0.5439
  729MOL0     C  525   8.426   1.480   7.444 -1.2696  0.1660  0.5911
  729MOL0     C  526   8.299   1.489   7.511  0.4408  0.8369 -0.3194
  729MOL0     C  527   8.201   1.386   7.435  0.1026  0.3307 -0.2522
  729MOL0     C  528   8.065   1.383   7.493  0.2736  0.4682 -0.1880
  729MOL0     C  529   7.953   1.399   7.539 -0.8471  0.3257  0.1182
  729MOL0     C  530   8.815   1.516   7.253  1.1040 -0.7720  0.0960
  729MOL0     C  531   8.893   1.430   7.181  0.7152 -0.5733  0.2057
  729MOL0     C  532   8.948   1.502   7.060 -0.1557 -0.0808  1.1681
  729MOL0     H  533   8.972   0.846   7.273 -0.9172  1.5295 -2.0843
  729MOL0     H  534   9.140   0.652   7.298  2.4430 -1.2173  0.1978
  729MOL0     H  535   9.444   0.484   7.157 -2.6809 -1.4033 -1.2731
  729MOL0     H  536   9.277   0.530   7.153 -1.8052 -6.9341  0.4265
  729MOL0     H  537   9.396   0.484   7.432 -1.0847  3.8383  0.1877
  729MOL0     H  538   9.226   0.477   7.388 -0.8074 -0.3393  0.1819
  729MOL0     H  539   9.295   0.272   7.238 -0.7767  1.1963 -0.0264
  729MOL0     H  540   9.451   0.276   7.321  0.3216  0.9976 -0.5831
  729MOL0     H  541   9.337   0.114   7.437 -0.0239 -1.1422 -0.9507
  729MOL0     H  542   9.322   0.262   7.539 -0.5239  1.0447 -1.0734
  729MOL0     H  543   9.104   0.157   7.347 -1.2060  1.2617 -1.1537
  729MOL0     H  544   9.080   0.299   7.432 -1.7937 -0.3529 -3.1031
  729MOL0     H  545   9.143   0.027   7.590  1.4923  0.3831 -0.2071
  729MOL0     H  546   9.127   0.195   7.657 -0.9858  4.1803 -1.7877
  729MOL0     H  547   8.927   0.009   7.650  1.5548  0.7648  2.6094
  729MOL0     H  548   8.909   0.097   7.497 -1.4191  0.3796  1.5941
  729MOL0     H  549   8.922   0.268   7.756  0.1679  1.7093 -1.5779
  729MOL0     H  550   8.880   0.306   7.595  3.4797  0.3807 -0.9138
  729MOL0     H  551   8.738   0.130   7.929  0.7165 -0.0001 -0.1430
  729MOL0     H  552   8.337   0.157   7.903 -0.6496 -0.9375 -0.3738
  729MOL0     H  553   8.461   0.162   8.025 -1.1437  0.2340 -0.2975
  729MOL0     H  554   8.422  -0.079   7.815  0.5180  1.1076  0.0383
  729MOL0     H  555   8.537  -0.076   7.948  2.7122  3.8047 -2.3411
  729MOL0     H  556   8.354  -0.217   7.991  4.1491  0.4595 -1.3479
  729MOL0     H  557   8.326  -0.076   8.103 -0.1095  0.6855 -0.6709
  729MOL0     H  558   8.193   0.036   7.905  3.7718 -0.3954 -1.3653
  729MOL0     H  559   8.196  -0.130   7.835 -0.7191  0.7106  0.0908
  729MOL0     H  560   7.994  -0.067   7.779 -2.1274  0.6052  0.2569
  729MOL0     H  561   7.884  -0.199   7.582 -0.5206 -2.1860 -0.2337
  729MOL0     H  562   7.796  -0.057   7.622  4.2521 -0.8279 -2.7433
  729MOL0     H  563   7.706  -0.212   7.598  1.5809 -0.8661 -1.6825
  729MOL0     H  564   7.465  -0.554   8.000 -2.3292 -2.6344  2.6272
  729MOL0     H  565   7.292  -0.689   7.982  0.6839 -0.0427 -1.1364
  729MOL0     H  566   7.072  -0.824   7.808 -0.9558 -1.0989  1.3432
  729MOL0     H  567   7.110  -0.796   7.973  2.2425  4.1998  0.5326
  729MOL0     H  568   6.822  -0.748   7.892 -0.6135 -1.7743 -1.9601
  729MOL0     H  569   6.888  -0.915   7.898 -1.9755  0.2423 -0.7919
  729MOL0     H  570   6.912  -0.698   8.113 -0.4345 -0.6425  2.2318
  729MOL0     H  571   6.981  -0.867   8.127 -0.0578 -0.5320 -1.4072
  729MOL0     H  572   6.691  -0.873   8.065 -5.1089  0.3377  3.4491
  729MOL0     H  573   6.700  -0.776   8.201  1.2279  0.6734 -0.0017
  729MOL0     H  574   6.846  -1.042   8.208 -0.0475 -2.3002  1.7040
  729MOL0     H  575   6.805  -0.941   8.339  0.1909  2.1163 -0.5144
  729MOL0     H  576   6.560  -0.983   8.274 -0.4698 -0.7033 -0.2973
  729MOL0     H  577   6.647  -1.123   8.343 -1.3445 -2.4892 -2.1693
  729MOL0     H  578   6.699  -1.218   8.125  0.8186  1.1339  1.0629
  729MOL0     H  579   6.578  -1.107   8.047  0.3381  2.2263  1.3013
  729MOL0     H  580   6.407  -1.182   8.172  1.8807  2.0529 -2.6114
  729MOL0     H  581   6.507  -1.271   8.289 -1.0956  0.6548  0.6805
  729MOL0     H  582   7.067  -0.392   7.755  0.6137  0.2330 -1.2188
  729MOL0     H  583   7.280  -0.255   7.764  1.4056 -0.9442 -0.7820
  729MOL0     H  584   7.693  -0.284   8.095  1.4259  0.4739  1.8034
  729MOL0     H  585   7.891  -0.191   8.167 -0.6026  1.3745 -0.3080
  729MOL0     H  586   9.459   0.920   7.205  1.1918  0.6018  0.7310
  729MOL0     H  587   9.302   1.103   7.184  2.4480 -0.2704  1.6447
  729MOL0     H  588   8.834   1.152   7.368  2.5067 -0.8745 -3.3913
  729MOL0     H  589   8.690   1.313   7.485 -0.2369 -1.7607 -0.9364
  729MOL0     H  590   8.592   1.473   7.592  2.6878  0.1047 -0.8180
  729MOL0     H  591   8.501   1.621   7.560 -1.5424 -1.5302  1.8316
  729MOL0     H  592   8.449   1.379   7.408  0.0829  0.5870  0.1789
  729MOL0     H  593   8.404   1.545   7.358 -0.3353 -1.5548 -1.0464
  729MOL0     H  594   8.304   1.454   7.615  1.8081 -0.4158 -0.7727
  729MOL0     H  595   8.263   1.592   7.508 -0.1633  0.8597  3.2894
  729MOL0     H  596   8.240   1.284   7.441 -3.1773 -1.0226  0.5809
  729MOL0     H  597   8.186   1.416   7.331 -0.1430 -0.8837 -0.5827
  729MOL0     H  598   7.855   1.420   7.578 -1.1860  0.1339 -0.6076
  729MOL0     H  599   8.807   1.620   7.221  4.0398 -0.1193  1.1640
  729MOL0     H  600   8.940   1.440   6.970  0.0325  0.8483  0.5015
  729MOL0     H  601   8.887   1.588   7.033  0.2423 -0.0589  0.3214
  729MOL0     H  602   9.051   1.534   7.074 -0.8493  3.0708 -0.2044
  730MOL0     O  603   4.398   5.713   7.809 -0.1329  1.0771  0.1441
  730MOL0     C  604   4.330   5.622   7.764  1.0641 -0.6901 -0.2648
  730MOL0     O  605   4.324   5.588   7.626  0.1251 -0.0255  0.0276
  730MOL0     C  606   4.380   5.676   7.533  0.3817  0.4300 -0.2170
  730MOL0     C  607   4.314   5.685   7.415 -0.4074 -0.1126 -0.5776
  730MOL0     C  608   4.361   5.765   7.300 -0.1690 -0.8250 -0.4818
  730MOL0     C  609   4.479   5.836   7.322 -0.3941 -0.0046  0.4666
  730MOL0     O  610   4.525   5.914   7.220 -0.1253 -0.1754  0.6185
  730MOL0     C  611   4.608   5.847   7.124  0.8679 -0.8691  0.8769
  730MOL0     C  612   4.607   5.942   7.011  0.4087  0.0118 -0.5206
  730MOL0     C  613   4.677   5.878   6.892  0.5877 -0.1150  0.7926
  730MOL0     C  614   4.675   5.977   6.774  0.9252 -0.1555 -0.5335
  730MOL0     C  615   4.734   5.907   6.657 -0.2150  0.1557 -0.0893
  730MOL0     C  616   4.888   5.890   6.663  0.0699  0.2335  0.6596
  730MOL0     C  617   4.926   5.817   6.522  0.6200 -0.3506 -0.5686
  730MOL0     C  618   5.075   5.826   6.505 -0.5667  0.4922 -0.0221
  730MOL0     N  619   5.106   5.967   6.465  0.4881 -0.4276  0.7310
  730MOL0     C  620   5.096   6.014   6.337  0.1136 -0.2434  0.3951
  730MOL0     C  621   5.156   6.138   6.345 -0.6174 -0.2859  0.0871
  730MOL0     C  622   5.198   6.210   6.218 -0.7095 -0.1011 -0.2214
  730MOL0     C  623   5.089   6.225   6.112  0.6749  0.2891 -0.0418
  730MOL0     C  624   5.150   6.283   5.979 -0.3394  0.0159  0.3416
  730MOL0     C  625   5.147   6.432   5.971  0.7707 -1.0028  0.5903
  730MOL0     O  626   5.171   6.483   5.839  0.6984 -0.2273  0.0294
  730MOL0     C  627   5.131   6.614   5.823 -0.1171 -0.7716 -0.7368
  730MOL0     C  628   4.998   6.661   5.841 -0.9437  0.4101  0.1730
  730MOL0     C  629   4.968   6.800   5.855  0.1927  0.4156  0.6679
  730MOL0     C  630   4.828   6.831   5.884 -0.0840  0.1071  0.4267
  730MOL0     C  631   5.071   6.891   5.846 -0.2044  0.3885  0.5464
  730MOL0     C  632   5.060   7.036   5.846 -0.0611  0.5592 -0.4095
  730MOL0     O  633   5.182   7.104   5.822  0.4533  0.0317  0.1879
  730MOL0     C  634   5.199   7.230   5.864  0.6833  0.8496 -0.3483
  730MOL0     C  635   5.193   7.333   5.764  0.2617  0.0960 -0.3247
  730MOL0     C  636   5.214   7.468   5.797 -0.4015  0.6557  0.9796
  730MOL0     C  637   5.240   7.504   5.931 -0.5546 -0.5443 -0.6746
  730MOL0     O  638   5.265   7.629   5.971  0.3152  0.4661 -0.6767
  730MOL0     C  639   5.201   7.744   5.915  0.6541 -0.3523  0.2857
  730MOL0     C  640   5.183   7.863   6.011  0.2928  0.7265 -0.4228
  730MOL0     C  641   5.064   7.834   6.097 -0.5487  0.3810 -0.0390
  730MOL0     C  642   5.039   7.958   6.178 -0.2734 -0.2499 -1.3316
  730MOL0     C  643   5.141   7.977   6.293 -0.8216  0.0702  0.0163
  730MOL0     C  644   5.102   8.092   6.386 -0.1082  0.4011 -0.1317
  730MOL0     C  645   4.981   8.052   6.479 -0.5651 -0.4540 -0.1008
  730MOL0     C  646   4.974   8.120   6.618  0.4894  0.5685 -0.7838
  730MOL0    Cl  647   4.819   8.065   6.711 -0.3134  0.5278 -0.2089
  730MOL0     C  648   5.263   7.403   6.018 -0.0836 -0.8240 -0.3784
  730MOL0     C  649   5.236   7.268   5.992 -0.4173  0.1890  0.4017
  730MOL0     O  650   4.957   7.084   5.887 -0.2502  0.2484 -0.3846
  730MOL0     C  651   5.205   6.845   5.829  0.5114 -0.2773  0.4802
  730MOL0     C  652   5.228   6.707   5.815 -0.9220 -0.5025 -0.5302
  730MOL0     N  653   5.187   6.173   6.468  0.1132  0.1287 -0.1535
  730MOL0     N  654   5.159   6.068   6.544 -0.0944  0.4649  0.6427
  730MOL0     C  655   4.552   5.822   7.448 -0.2188  0.1777  0.2796
  730MOL0     C  656   4.501   5.739   7.550 -0.4372  0.1574 -0.4185
  730MOL0     C  657   4.216   5.558   7.840  0.3804 -0.1089 -0.7865
  730MOL0     C  658   4.185   5.423   7.815 -0.1117 -0.2386  0.6483
  730MOL0     C  659   4.074   5.357   7.879  0.0953  0.7241 -0.2559
  730MOL0     C  660   4.002   5.420   7.978  0.5527  0.4396 -1.3460
  730MOL0     O  661   3.897   5.372   8.047  0.9588  1.1939 -0.2413
  730MOL0     C  662   3.862   5.235   8.024  0.2070 -0.2410  1.4253
  730MOL0     C  663   3.775   5.217   7.899  0.4718  0.0151 -0.1879
  730MOL0     C  664   3.732   5.073   7.881  0.3947  0.1750 -0.0389
  730MOL0     C  665   3.640   5.014   7.972  0.0434  0.0239 -0.5970
  730MOL0     C  666   3.585   4.894   7.908  0.9839  0.7527 -0.2095
  730MOL0     C  667   3.543   4.793   7.854  0.1256  0.0066 -0.2069
  730MOL0     C  668   4.038   5.549   8.015 -0.1674 -0.5567 -0.3376
  730MOL0     C  669   4.138   5.623   7.941  0.8365  0.1375  0.2193
  730MOL0     C  670   4.156   5.770   7.977  0.1668  0.6607  1.0068
  730MOL0     H  671   4.218   5.638   7.393 -0.3058 -0.1409 -0.9721
  730MOL0     H  672   4.323   5.768   7.198  0.4141 -0.7229 -0.7005
  730MOL0     H  673   4.557   5.756   7.092 -7.0043  2.6585  1.1016
  730MOL0     H  674   4.711   5.833   7.158  1.1297 -0.2737  0.3535
  730MOL0     H  675   4.510   5.980   6.979  0.6306  1.9953  0.9899
  730MOL0     H  676   4.663   6.027   7.052  1.3983 -2.3731  3.5076
  730MOL0     H  677   4.779   5.845   6.915  1.4068  1.6844 -0.0309
  730MOL0     H  678   4.615   5.795   6.858  2.0060 -0.6840 -0.5177
  730MOL0     H  679   4.578   6.016   6.741  2.9280  2.7860 -3.5638
  730MOL0     H  680   4.732   6.062   6.812  2.8244  1.8227 -6.6766
  730MOL0     H  681   4.709   5.972   6.573  1.0941 -1.3481 -1.7289
  730MOL0     H  682   4.687   5.809   6.649 -0.5193  0.3521 -0.7443
  730MOL0     H  683   4.929   5.988   6.685 -0.9998  1.2784 -1.6764
  730MOL0     H  684   4.915   5.827   6.748  0.6563  1.8403  1.7030
  730MOL0     H  685   4.870   5.862   6.440 -0.7500  0.9480  1.0014
  730MOL0     H  686   4.892   5.715   6.541  2.1332 -1.1856 -2.1966
  730MOL0     H  687   5.126   5.803   6.599 -1.6591  0.4149  0.5707
  730MOL0     H  688   5.113   5.765   6.423 -0.0551  1.0119 -0.1743
  730MOL0     H  689   5.077   5.959   6.246  1.2025 -1.0454  0.6336
  730MOL0     H  690   5.276   6.159   6.161 -0.6080  0.3837 -0.5193
  730MOL0     H  691   5.235   6.306   6.255 -1.7975 -0.2824  1.4615
  730MOL0     H  692   5.056   6.122   6.096  2.8064 -1.0749  3.2871
  730MOL0     H  693   5.015   6.289   6.161 -0.2019 -0.0806 -0.8384
  730MOL0     H  694   5.257   6.265   5.973 -0.7862 -2.5794 -2.0589
  730MOL0     H  695   5.111   6.233   5.890  0.3744 -3.8807  2.0014
  730MOL0     H  696   5.043   6.451   5.998  0.9870  0.9295  0.1959
  730MOL0     H  697   5.227   6.466   6.038  2.0732 -1.3333 -0.7346
  730MOL0     H  698   4.915   6.590   5.844 -0.4524 -0.2367 -0.8481
  730MOL0     H  699   4.826   6.858   5.990  0.4017 -0.8396  0.6851
  730MOL0     H  700   4.760   6.747   5.862  1.5424 -0.8670 -1.1120
  730MOL0     H  701   4.783   6.905   5.817  1.5648  2.5385  1.8636
  730MOL0     H  702   5.180   7.322   5.657 -1.5364  1.4284 -0.2779
  730MOL0     H  703   5.236   7.545   5.724  1.7713 -0.4836  0.3533
  730MOL0     H  704   5.262   7.777   5.831 -1.7629  0.9338 -1.0697
  730MOL0     H  705   5.103   7.722   5.873 -2.1779  2.3097  4.6145
  730MOL0     H  706   5.274   7.894   6.064  1.9762  1.9615 -3.7812
  730MOL0     H  707   5.164   7.953   5.951 -0.1180  2.6905  2.4444
  730MOL0     H  708   5.080   7.747   6.161 -2.8433  2.1824  3.2688
  730MOL0     H  709   4.983   7.822   6.024  0.8508  1.0733 -1.7720
  730MOL0     H  710   4.941   7.949   6.226  1.0581 -2.1594  1.2281
  730MOL0     H  711   5.028   8.054   6.125  0.0121  0.4582 -0.1509
  730MOL0     H  712   5.138   7.882   6.347 -0.0566 -0.0511 -0.1447
  730MOL0     H  713   5.243   7.999   6.258 -0.7619 -0.1971  0.0214
  730MOL0     H  714   5.074   8.177   6.324 -2.3515 -1.2172 -1.4470
  730MOL0     H  715   5.182   8.120   6.456 -0.6417  0.7145  0.3596
  730MOL0     H  716   4.997   7.949   6.512  1.0100 -1.6489 -4.0231
  730MOL0     H  717   4.886   8.047   6.425  0.6639 -2.2046 -2.3411
  730MOL0     H  718   4.981   8.229   6.614 -0.1555  0.7611  1.7868
  730MOL0     H  719   5.062   8.086   6.674  0.3968  0.3255 -0.7847
  730MOL0     H  720   5.292   7.423   6.121 -2.7892 -2.2006  0.7575
  730MOL0     H  721   5.236   7.200   6.077 -0.1586 -0.8456 -0.3943
  730MOL0     H  722   5.297   6.901   5.827 -0.4746  1.4303 -1.8584
  730MOL0     H  723   5.329   6.668   5.807 -0.3908  0.6771  0.1463
  730MOL0     H  724   4.645   5.874   7.466 -2.4368  4.2254  1.4277
  730MOL0     H  725   4.579   5.733   7.626  0.0727  0.7580 -0.8810
  730MOL0     H  726   4.245   5.378   7.736  0.5679  1.8651 -0.0824
  730MOL0     H  727   4.054   5.254   7.850  0.7914  0.3354  0.6224
  730MOL0     H  728   3.949   5.171   8.003 -0.1657 -0.0563 -0.8935
  730MOL0     H  729   3.816   5.197   8.116  2.0985 -2.3228  1.6056
  730MOL0     H  730   3.832   5.241   7.809 -0.8032  0.3986 -0.9291
  730MOL0     H  731   3.688   5.283   7.912 -0.8924 -1.9013  0.8520
  730MOL0     H  732   3.704   5.071   7.775  1.6993  0.0533 -0.3983
  730MOL0     H  733   3.819   5.007   7.875  0.2465  0.0248 -0.5801
  730MOL0     H  734   3.555   5.081   7.989  1.5354  2.0199 -0.6800
  730MOL0     H  735   3.693   4.985   8.064  0.1217 -0.6990 -0.8634
  730MOL0     H  736   3.511   4.703   7.806  0.3956  0.9083 -2.1557
  730MOL0     H  737   3.982   5.594   8.097 -0.7291 -1.3069 -0.3031
  730MOL0     H  738   4.263   5.793   7.985  0.9114 -2.4600  1.2836
  730MOL0     H  739   4.115   5.833   7.896  1.9808 -0.4657 -0.8934
  730MOL0     H  740   4.111   5.789   8.074 -1.1757 -0.1609  0.5729
  731MOL0     O  741   4.237   5.474   5.958  0.5482  0.6116  0.0937
  731MOL0     C  742   4.111   5.464   5.962 -0.9707  0.4708 -0.1692
  731MOL0     O  743   4.040   5.361   6.029 -0.1899 -0.3666 -0.1412
  731MOL0     C  744   4.101   5.249   6.073  0.1981  0.2686  0.8220
  731MOL0     C  745   4.009   5.148   6.121  0.2150 -0.2317  0.6511
  731MOL0     C  746   4.054   5.027   6.172  0.0056 -0.0830  0.8686
  731MOL0     C  747   4.191   5.003   6.191 -0.0831 -0.5937 -0.2139
  731MOL0     O  748   4.238   4.884   6.248 -0.3647  0.2895  0.1973
  731MOL0     C  749   4.153   4.804   6.329  0.7210  1.0304  0.0648
  731MOL0     C  750   4.236   4.770   6.457 -0.0309  0.0725 -0.2183
  731MOL0     C  751   4.381   4.715   6.428  1.1488  0.2198  0.3952
  731MOL0     C  752   4.445   4.653   6.556 -0.8546 -0.0437  0.2340
  731MOL0     C  753   4.547   4.543   6.511 -0.8604 -0.3962 -0.0480
  731MOL0     C  754   4.662   4.595   6.409  0.1395  0.0441  0.8907
  731MOL0     C  755   4.699   4.495   6.295 -0.0475 -0.0462  0.4974
  731MOL0     C  756   4.737   4.360   6.344  1.0329  0.5972  0.4940
  731MOL0     N  757   4.876   4.348   6.396  0.3339 -0.6350  0.0999
  731MOL0     C  758   4.989   4.399   6.334 -0.2819 -0.3617  0.6433
  731MOL0     C  759   5.086   4.396   6.431  0.0593  0.9578 -0.1886
  731MOL0     C  760   5.235   4.420   6.436 -0.3346  0.3891  0.4696
  731MOL0     C  761   5.317   4.299   6.386  0.7630  0.5696  0.1595
  731MOL0     C  762   5.460   4.322   6.379 -0.3935  0.7273  0.0160
  731MOL0     C  763   5.542   4.193   6.380 -0.6720 -0.2035  0.6141
  731MOL0     O  764   5.535   4.138   6.507  0.2823  0.2344 -0.1507
  731MOL0     C  765   5.637   4.058   6.549 -0.0360  0.4966 -0.5427
  731MOL0     C  766   5.703   3.972   6.466  0.5029 -0.4405 -0.5277
  731MOL0     C  767   5.813   3.895   6.508  0.6217 -0.3090  0.3921
  731MOL0     C  768   5.870   3.795   6.419 -0.1036  0.2584  0.4681
  731MOL0     C  769   5.869   3.928   6.635 -0.4795  0.7694 -0.8072
  731MOL0     C  770   5.998   3.856   6.683  0.0729 -0.6803  0.6474
  731MOL0     O  771   6.017   3.849   6.821  0.2324  0.2287  0.2896
  731MOL0     C  772   6.135   3.837   6.883 -0.7150 -0.5170  0.1145
  731MOL0     C  773   6.254   3.890   6.828  0.2254  0.2730  0.8563
  731MOL0     C  774   6.368   3.875   6.900 -0.6599  0.3428  0.3753
  731MOL0     C  775   6.376   3.808   7.024 -0.5180  0.0007  0.0607
  731MOL0     O  776   6.498   3.801   7.079 -0.3613 -1.0248  0.6652
  731MOL0     C  777   6.510   3.719   7.199 -0.5412 -0.5894  0.2898
  731MOL0     C  778   6.646   3.749   7.257  0.3054  0.9349 -0.5587
  731MOL0     C  779   6.656   3.891   7.313 -0.1991  0.3854 -0.1093
  731MOL0     C  780   6.783   3.905   7.396 -0.1364  1.0802  0.3056
  731MOL0     C  781   6.805   4.054   7.442 -0.9695 -0.2639  0.5639
  731MOL0     C  782   6.896   4.063   7.556  0.6926 -0.3834  0.1963
  731MOL0     C  783   6.925   4.201   7.615 -0.4953  0.0239 -0.3571
  731MOL0     C  784   7.041   4.209   7.706  0.3592 -0.5611 -0.2229
  731MOL0    Cl  785   7.199   4.165   7.638  0.1868  0.4436 -0.1129
  731MOL0     C  786   6.264   3.744   7.072 -0.3837 -0.3977 -0.2865
  731MOL0     C  787   6.141   3.762   7.003  0.2302 -1.0296  0.3231
  731MOL0     O  788   6.075   3.813   6.598 -0.2667  0.7689  0.1802
  731MOL0     C  789   5.798   4.018   6.714 -0.0751 -0.0494  0.3708
  731MOL0     C  790   5.682   4.084   6.675 -0.2828  0.0836 -0.1251
  731MOL0     N  791   5.027   4.347   6.544 -0.1002 -0.5483 -0.3561
  731MOL0     N  792   4.900   4.321   6.525 -0.4022  0.1589  0.2131
  731MOL0     C  793   4.277   5.100   6.139 -0.6396  1.4535 -0.8627
  731MOL0     C  794   4.238   5.213   6.076 -0.1485  0.1780  0.8077
  731MOL0     C  795   4.014   5.557   5.914 -0.3891  0.2062 -0.3370
  731MOL0     C  796   3.813   5.503   5.918 -0.1358 -0.0239 -0.2082
  731MOL0     C  797   3.664   5.649   5.857  0.5253  0.7457 -0.1878
  731MOL0     C  798   3.725   5.842   5.794 -0.8647 -0.2084  0.0017
  731MOL0     O  799   3.637   5.934   5.748  0.5680  0.2379 -0.6949
  731MOL0     C  800   3.697   6.037   5.667 -0.4819 -0.1377 -0.6438
  731MOL0     C  801   3.595   6.088   5.571 -0.8061  0.4728  0.4863
  731MOL0     C  802   3.480   6.156   5.662 -0.6810  0.3595  0.6671
  731MOL0     C  803   3.379   6.233   5.570 -0.8359 -0.1097  0.2035
  731MOL0     C  804   3.438   6.329   5.465  0.0883  0.2344 -1.0894
  731MOL0     C  805   3.472   6.397   5.376  0.4824 -0.3250 -0.0794
  731MOL0     C  806   3.931   5.886   5.789  0.8907 -0.0836  0.4858
  731MOL0     C  807   4.069   5.742   5.847 -0.1289 -0.7255  0.9617
  731MOL0     C  808   4.218   5.753   5.836 -0.2326 -0.4251  0.0134
  731MOL0     H  809   3.903   5.169   6.111  0.2888  0.5847  1.4601
  731MOL0     H  810   3.983   4.946   6.189 -1.7632  1.0791 -0.6854
  731MOL0     H  811   4.124   4.715   6.273  4.4983 -0.1987 -0.2260
  731MOL0     H  812   4.072   4.868   6.364  1.7791  2.9136 -0.7585
  731MOL0     H  813   4.244   4.845   6.536 -1.6316  0.9499 -0.8548
  731MOL0     H  814   4.176   4.695   6.511  0.5987 -0.2697  0.0125
  731MOL0     H  815   4.360   4.644   6.347 -1.1837  2.2890 -0.9362
  731MOL0     H  816   4.442   4.796   6.388  1.6398 -1.2328 -2.0035
  731MOL0     H  817   4.493   4.727   6.620  2.1701 -1.3741 -0.3015
  731MOL0     H  818   4.362   4.601   6.605 -2.4404  0.9010 -1.3498
  731MOL0     H  819   4.485   4.462   6.471 -0.7777 -0.7561  0.5508
  731MOL0     H  820   4.596   4.508   6.602 -2.6753  2.3280  2.1557
  731MOL0     H  821   4.632   4.679   6.346  0.4298 -2.9182 -3.6554
  731MOL0     H  822   4.747   4.626   6.471  0.1611  0.5086  0.6327
  731MOL0     H  823   4.774   4.531   6.224 -0.1834 -0.6104  0.0559
  731MOL0     H  824   4.605   4.485   6.239  0.1988  2.5370 -0.5424
  731MOL0     H  825   4.662   4.345   6.422  0.9710  0.6576  0.4458
  731MOL0     H  826   4.729   4.280   6.270  2.5998  0.4123  0.4866
  731MOL0     H  827   5.007   4.430   6.232 -2.0825  1.4800  0.8200
  731MOL0     H  828   5.259   4.437   6.541  0.9006  0.5155  0.1786
  731MOL0     H  829   5.277   4.507   6.385  2.4788  0.1656  2.2120
  731MOL0     H  830   5.297   4.230   6.468  0.4254 -0.4326 -0.7428
  731MOL0     H  831   5.289   4.265   6.286 -1.3909 -1.0370  1.2204
  731MOL0     H  832   5.474   4.364   6.279  0.0821 -0.4021 -0.4143
  731MOL0     H  833   5.493   4.384   6.462  0.1633  1.7658 -0.9590
  731MOL0     H  834   5.491   4.131   6.306 -1.3227  0.7342  0.2597
  731MOL0     H  835   5.645   4.210   6.347 -0.5992 -1.0914  0.3608
  731MOL0     H  836   5.665   3.967   6.364  0.3032  2.9150 -0.7465
  731MOL0     H  837   5.895   3.701   6.468 -2.4755 -1.6452 -1.6595
  731MOL0     H  838   5.964   3.838   6.383 -0.3437  0.3179 -0.0977
  731MOL0     H  839   5.805   3.767   6.335  0.4098  1.4698 -0.3681
  731MOL0     H  840   6.252   3.945   6.734 -0.7089  1.1170  1.3410
  731MOL0     H  841   6.451   3.931   6.859 -1.9504  1.8278 -0.3315
  731MOL0     H  842   6.439   3.748   7.277  0.5460  3.1893  0.0437
  731MOL0     H  843   6.515   3.611   7.183  4.2503 -0.7032  1.1959
  731MOL0     H  844   6.651   3.675   7.338 -2.6332  0.1056 -0.9857
  731MOL0     H  845   6.722   3.733   7.180  2.7170  2.1895  1.4137
  731MOL0     H  846   6.570   3.915   7.376  1.8900 -1.3434  3.7471
  731MOL0     H  847   6.658   3.958   7.226  1.2545  1.1129  0.4433
  731MOL0     H  848   6.866   3.864   7.339 -2.6030  2.1674 -4.5669
  731MOL0     H  849   6.765   3.852   7.490 -1.2434  2.4063  0.8786
  731MOL0     H  850   6.843   4.110   7.356  2.4944 -0.6360  1.6990
  731MOL0     H  851   6.706   4.099   7.457 -1.1606 -0.5217  0.0966
  731MOL0     H  852   6.988   4.038   7.504  0.2368 -1.5984 -0.0609
  731MOL0     H  853   6.867   3.982   7.624 -2.2451  0.2307 -0.1485
  731MOL0     H  854   6.838   4.236   7.671 -1.0901 -1.9620  0.0112
  731MOL0     H  855   6.946   4.272   7.534  0.3557  1.8847  1.3880
  731MOL0     H  856   7.023   4.144   7.793  0.3764  1.6694  1.5222
  731MOL0     H  857   7.054   4.313   7.737  5.2261 -0.2691 -2.3956
  731MOL0     H  858   6.264   3.694   7.168 -0.2727 -1.6355 -0.9164
  731MOL0     H  859   6.051   3.717   7.042 -1.2600  0.6946 -0.9392
  731MOL0     H  860   5.812   4.031   6.821 -1.4350  2.5089  0.3146
  731MOL0     H  861   5.627   4.151   6.740 -1.2391  2.3064 -3.0115
  731MOL0     H  862   4.384   5.080   6.146 -0.3591  3.1870  0.5506
  731MOL0     H  863   4.315   5.274   6.031  0.8770  0.3195  2.6701
  731MOL0     H  864   3.769   5.405   5.936  3.7932 -2.2561 -1.5686
  731MOL0     H  865   3.558   5.627   5.863  0.2573  2.0004 -0.0943
  731MOL0     H  866   3.746   6.116   5.725  1.1265  0.3426 -2.5389
  731MOL0     H  867   3.778   5.990   5.611  1.0914  2.8972 -1.1397
  731MOL0     H  868   3.558   6.012   5.501  1.6143 -0.6154  0.3009
  731MOL0     H  869   3.636   6.165   5.506  0.4572  0.6069  1.4026
  731MOL0     H  870   3.423   6.076   5.710 -1.8951  0.6169 -0.2900
  731MOL0     H  871   3.518   6.223   5.740 -1.6780  0.7213  0.8620
  731MOL0     H  872   3.305   6.288   5.630  0.3498  1.1009  0.6020
  731MOL0     H  873   3.316   6.170   5.507 -2.9051 -1.0477  2.9939
  731MOL0     H  874   3.500   6.464   5.297 -1.4068  0.5927 -0.0343
  731MOL0     H  875   3.963   5.981   5.748 -0.7489 -0.2882 -1.4430
  731MOL0     H  876   4.265   5.789   5.928  0.0482  0.4202 -0.4523
  731MOL0     H  877   4.270   5.658   5.823  3.2814  1.1563  1.2917
  731MOL0     H  878   4.253   5.814   5.753  2.2352 -1.5611  0.1380
  732MOL0     O  879   0.319   0.035   7.537  0.1481  0.2191  0.0778
  732MOL0     C  880   0.307  -0.026   7.436  0.3946  0.7077  0.5364
  732MOL0     O  881   0.409  -0.073   7.359 -0.5781  0.1791 -0.0091
  732MOL0     C  882   0.544  -0.071   7.409 -0.0418 -0.3080  0.1232
  732MOL0     C  883   0.584  -0.074   7.537  0.5418  0.1197 -0.3923
  732MOL0     C  884   0.718  -0.098   7.571  0.2525 -0.5608 -0.4693
  732MOL0     C  885   0.814  -0.116   7.475 -0.2487 -0.7502  0.1911
  732MOL0     O  886   0.949  -0.127   7.493  0.5614 -0.8548  0.1533
  732MOL0     C  887   1.016  -0.077   7.608 -0.1056 -0.1091 -0.2358
  732MOL0     C  888   1.157  -0.155   7.626 -0.5011  0.0701 -0.0662
  732MOL0     C  889   1.153  -0.306   7.635 -0.1589  0.0567  1.0880
  732MOL0     C  890   1.018  -0.366   7.678 -0.2851 -0.1776 -0.0916
  732MOL0     C  891   1.042  -0.517   7.695  0.2623 -0.6001 -0.1679
  732MOL0     C  892   0.912  -0.599   7.721  0.6784  0.0359  0.3613
  732MOL0     C  893   0.800  -0.586   7.622  0.4673 -0.5200  0.7863
  732MOL0     C  894   0.697  -0.478   7.662  0.7155  0.7225  0.1326
  732MOL0     N  895   0.625  -0.532   7.781  0.1981  0.3239 -0.3960
  732MOL0     C  896   0.534  -0.630   7.779  0.4296  0.3804  0.5110
  732MOL0     C  897   0.475  -0.631   7.902 -0.8298 -0.5098 -0.7017
  732MOL0     C  898   0.360  -0.724   7.929 -1.1472  0.3656 -0.9649
  732MOL0     C  899   0.290  -0.697   8.066 -0.3804 -0.5932  1.4003
  732MOL0     C  900   0.158  -0.784   8.062 -0.7874 -0.8259 -0.7350
  732MOL0     C  901   0.102  -0.764   8.194  0.7809  0.0720  0.3575
  732MOL0     O  902   0.080  -0.627   8.244 -0.0440  0.6062  0.8032
  732MOL0     C  903  -0.017  -0.556   8.178 -0.3776  0.8333 -0.6448
  732MOL0     C  904  -0.011  -0.420   8.192 -0.3907  0.4774  0.2427
  732MOL0     C  905  -0.113  -0.330   8.153 -0.1964  1.0202  0.9231
  732MOL0     C  906  -0.081  -0.187   8.175 -0.4003 -0.2362 -0.2207
  732MOL0     C  907  -0.231  -0.383   8.100  0.8195  0.2644 -0.6951
  732MOL0     C  908  -0.337  -0.305   8.049  0.8787 -0.5314  0.0626
  732MOL0     O  909  -0.446  -0.380   8.009 -0.2989  0.0515  0.1712
  732MOL0     C  910  -0.531  -0.329   7.922  0.1189 -0.9755 -0.6976
  732MOL0     C  911  -0.501  -0.285   7.794 -0.3601  0.5616  0.1378
  732MOL0     C  912  -0.598  -0.241   7.702 -0.9919 -1.5500 -0.7482
  732MOL0     C  913  -0.729  -0.234   7.741 -0.4538 -0.1497  0.0564
  732MOL0     O  914  -0.827  -0.195   7.654  0.6720 -0.7902 -0.2257
  732MOL0     C  915  -0.856  -0.286   7.545  0.0490 -0.4829  0.8137
  732MOL0     C  916  -0.998  -0.343   7.569 -0.7957  1.3115 -0.0751
  732MOL0     C  917  -1.020  -0.448   7.686 -1.0086 -0.5606  0.0404
  732MOL0     C  918  -0.908  -0.549   7.676 -0.0215 -0.6337  1.6910
  732MOL0     C  919  -0.937  -0.671   7.764 -0.3849  0.2504 -0.1056
  732MOL0     C  920  -1.016  -0.778   7.681 -0.4433  0.1450  0.7135
  732MOL0     C  921  -1.040  -0.905   7.780 -0.7318 -1.0202 -0.1907
  732MOL0     C  922  -1.138  -0.891   7.900  0.0753 -0.0079  0.9456
  732MOL0    Cl  923  -1.296  -0.829   7.860  0.0551  0.2279  0.2452
  732MOL0     C  924  -0.765  -0.277   7.869 -0.9633 -0.2721 -0.3006
  732MOL0     C  925  -0.668  -0.317   7.958 -0.0540  0.3566  0.2714
  732MOL0     O  926  -0.333  -0.180   8.043 -0.4496 -0.0424 -0.2162
  732MOL0     C  927  -0.241  -0.525   8.089 -0.0760  0.7058  1.0242
  732MOL0     C  928  -0.133  -0.611   8.130  0.1048  0.2552  0.2479
  732MOL0     N  929   0.533  -0.528   7.978 -0.1034  0.1117  0.4006
  732MOL0     N  930   0.624  -0.480   7.907 -0.1427 -0.2600 -0.0979
  732MOL0     C  931   0.770  -0.099   7.337 -0.2713 -0.2017  0.0879
  732MOL0     C  932   0.635  -0.087   7.300 -0.3832 -1.2248  0.4650
  732MOL0     C  933   0.170  -0.073   7.394 -0.2948  0.5672 -0.1474
  732MOL0     C  934   0.163  -0.152   7.270 -0.1684  0.2182 -0.9135
  732MOL0     C  935   0.041  -0.203   7.221  0.6781 -0.0943 -0.6818
  732MOL0     C  936  -0.075  -0.187   7.303 -0.9563  0.5156  0.2390
  732MOL0     O  937  -0.183  -0.241   7.250 -0.0952  0.1402 -0.1149
  732MOL0     C  938  -0.298  -0.157   7.256 -0.6840 -0.0198 -0.7508
  732MOL0     C  939  -0.394  -0.205   7.365  0.2415 -0.3426  0.1891
  732MOL0     C  940  -0.405  -0.356   7.374 -0.6240 -0.8215  0.4576
  732MOL0     C  941  -0.448  -0.411   7.243 -0.2102  0.3346  0.5988
  732MOL0     C  942  -0.505  -0.540   7.253  1.2395  0.7796  0.9604
  732MOL0     C  943  -0.577  -0.639   7.267 -0.2230 -0.2472  0.2052
  732MOL0     C  944  -0.072  -0.117   7.422  0.2063  0.0792 -0.4485
  732MOL0     C  945   0.048  -0.062   7.474 -0.0806 -0.1754  0.6076
  732MOL0     C  946   0.043   0.020   7.593  0.8967 -0.1310 -0.4512
  732MOL0     H  947   0.522  -0.057   7.625  1.7139  4.2805 -0.1857
  732MOL0     H  948   0.741  -0.104   7.677 -3.7859 -0.0120  0.6143
  732MOL0     H  949   0.963  -0.116   7.695  3.3600 -4.6301  0.2374
  732MOL0     H  950   1.014   0.032   7.607 -1.7202 -0.1043  0.5254
  732MOL0     H  951   1.223  -0.114   7.550  0.8831 -0.0320  1.0417
  732MOL0     H  952   1.196  -0.118   7.722  2.1348 -0.9063 -0.7077
  732MOL0     H  953   1.185  -0.348   7.539 -3.7223  1.8417 -1.0968
  732MOL0     H  954   1.222  -0.332   7.716  0.8663  2.3490  1.0446
  732MOL0     H  955   0.994  -0.319   7.774  3.8511  1.2911  0.4237
  732MOL0     H  956   0.934  -0.353   7.610  0.1310 -1.1874 -0.8338
  732MOL0     H  957   1.105  -0.539   7.781  1.9762 -0.0130 -1.2136
  732MOL0     H  958   1.084  -0.562   7.604  0.9582 -0.2288 -0.0379
  732MOL0     H  959   0.941  -0.704   7.730 -0.5059 -0.2943  0.5030
  732MOL0     H  960   0.866  -0.571   7.816  0.1239  2.3052 -0.5137
  732MOL0     H  961   0.750  -0.678   7.591 -1.9750  1.6513 -2.3604
  732MOL0     H  962   0.841  -0.545   7.529  0.0526 -1.3580  0.2176
  732MOL0     H  963   0.748  -0.383   7.678 -0.0774  1.9070 -3.5388
  732MOL0     H  964   0.628  -0.463   7.579 -0.0544  0.3356  0.6876
  732MOL0     H  965   0.494  -0.691   7.699  2.8051 -0.5267 -0.0797
  732MOL0     H  966   0.399  -0.826   7.945 -1.9401  0.2678  0.5397
  732MOL0     H  967   0.286  -0.741   7.850 -2.7291 -0.1102  0.5629
  732MOL0     H  968   0.355  -0.723   8.150 -0.4449 -3.2311  0.7287
  732MOL0     H  969   0.262  -0.591   8.064  0.9705 -0.1838 -1.5451
  732MOL0     H  970   0.088  -0.751   7.984  0.5048  3.3068 -0.3923
  732MOL0     H  971   0.176  -0.892   8.062  1.9522 -0.4467  0.5961
  732MOL0     H  972   0.012  -0.825   8.183  0.6192  0.3790 -0.0481
  732MOL0     H  973   0.161  -0.814   8.271  1.1748  0.1270  0.0961
  732MOL0     H  974   0.079  -0.382   8.239  0.5434 -1.9294  0.5737
  732MOL0     H  975  -0.077  -0.125   8.086  0.5977 -0.2832 -0.2193
  732MOL0     H  976   0.017  -0.180   8.223 -1.5880 -3.5171  3.2395
  732MOL0     H  977  -0.162  -0.143   8.235 -3.5130 -1.8815 -2.8944
  732MOL0     H  978  -0.394  -0.286   7.772  0.2398  3.3051  2.3780
  732MOL0     H  979  -0.572  -0.209   7.602  0.1884 -0.4629 -0.1150
  732MOL0     H  980  -0.868  -0.221   7.458 -0.5483 -3.1372 -1.1815
  732MOL0     H  981  -0.782  -0.365   7.531 -2.1090 -2.3139 -1.1621
  732MOL0     H  982  -1.054  -0.251   7.586  0.3335  2.5362 -2.4482
  732MOL0     H  983  -1.044  -0.380   7.477 -1.3986  1.3790  0.1946
  732MOL0     H  984  -1.118  -0.496   7.682 -0.4745 -1.7142  0.4771
  732MOL0     H  985  -1.012  -0.411   7.789  3.1341 -1.2407  0.1494
  732MOL0     H  986  -0.815  -0.505   7.714  0.3210  1.7845 -1.5409
  732MOL0     H  987  -0.902  -0.586   7.574 -1.5194  0.6182  1.1229
  732MOL0     H  988  -0.848  -0.722   7.802 -1.3161 -0.4515  1.1970
  732MOL0     H  989  -1.001  -0.641   7.847 -0.9766 -1.4823  0.1095
  732MOL0     H  990  -0.939  -0.806   7.608  1.1543  3.0451  1.1271
  732MOL0     H  991  -1.111  -0.742   7.641 -0.4133  0.0389  0.5480
  732MOL0     H  992  -0.944  -0.931   7.827  0.9566  1.1393 -2.1948
  732MOL0     H  993  -1.076  -0.985   7.714 -3.0614  0.4378 -0.7919
  732MOL0     H  994  -1.091  -0.822   7.971  1.2019  2.5705 -2.0704
  732MOL0     H  995  -1.142  -0.994   7.936  1.4516 -0.3880  0.1012
  732MOL0     H  996  -0.871  -0.278   7.889 -1.2891  2.3522 -1.6224
  732MOL0     H  997  -0.709  -0.341   8.056 -0.0101  0.4603  0.3154
  732MOL0     H  998  -0.319  -0.569   8.028  1.1685 -1.4241  0.8724
  732MOL0     H  999  -0.150  -0.718   8.130 -1.8379  0.5348  0.9051
  732MOL0     H 1000   0.849  -0.097   7.263 -1.3818  1.4239 -1.1364
  732MOL0     H 1001   0.599  -0.084   7.198 -2.8935  1.8521  1.3167
  732MOL0     H 1002   0.251  -0.162   7.208  0.3079  1.9737 -0.5946
  732MOL0     H 1003   0.026  -0.267   7.134 -5.6494 -1.0607  0.6294
  732MOL0     H 1004  -0.281  -0.051   7.276 -1.8129 -0.3232  2.3535
  732MOL0     H 1005  -0.341  -0.159   7.155 -0.9305  0.1973 -0.6522
  732MOL0     H 1006  -0.497  -0.177   7.341  0.4184 -0.6492 -1.0050
  732MOL0     H 1007  -0.370  -0.166   7.464 -0.5189  2.5868 -0.6786
  732MOL0     H 1008  -0.312  -0.402   7.410 -0.3577 -1.4299 -0.9798
  732MOL0     H 1009  -0.475  -0.381   7.454 -0.0969 -1.0421  0.8591
  732MOL0     H 1010  -0.360  -0.429   7.180  0.7614 -3.0204  2.6288
  732MOL0     H 1011  -0.515  -0.348   7.184  0.4763 -0.2999 -0.9259
  732MOL0     H 1012  -0.628  -0.733   7.267 -0.8799  0.0857 -0.9268
  732MOL0     H 1013  -0.171  -0.097   7.462  0.2450 -0.8959  0.1511
  732MOL0     H 1014  -0.047   0.008   7.653 -0.1728  2.2189 -1.4223
  732MOL0     H 1015   0.128   0.000   7.659  1.5659  1.0197 -0.9220
  732MOL0     H 1016   0.049   0.126   7.563  1.5917  0.4160  1.5033
  733MOL0     O 1017   9.182   7.676   9.020  0.7788  0.0783 -0.6915
  733MOL0     C 1018   9.175   7.711   9.137  0.0508 -0.3151 -0.0911
  733MOL0     O 1019   9.274   7.688   9.228  0.2043  0.1590  0.0625
  733MOL0     C 1020   9.373   7.598   9.188  0.5020 -0.0588 -0.7757
  733MOL0     C 1021   9.347   7.461   9.191  0.4351  0.2396 -0.1703
  733MOL0     C 1022   9.454   7.375   9.176  0.4183  0.3412 -0.8225
  733MOL0     C 1023   9.591   7.413   9.168 -0.1115  0.4554 -0.2811
  733MOL0     O 1024   9.697   7.327   9.173  0.1735  0.2582  0.0944
  733MOL0     C 1025   9.683   7.221   9.272  0.4351  0.1672  0.3447
  733MOL0     C 1026   9.670   7.085   9.206  0.3312 -0.3861 -1.1435
  733MOL0     C 1027   9.798   7.056   9.133  0.5696  0.6776 -0.5527
  733MOL0     C 1028   9.787   6.914   9.071  0.3941 -0.5316  0.2261
  733MOL0     C 1029   9.903   6.862   8.993 -0.8584  0.5737  0.5345
  733MOL0     C 1030   9.839   6.737   8.912 -0.4791 -0.0593 -0.0289
  733MOL0     C 1031   9.899   6.723   8.771  0.0708  0.1716 -0.5237
  733MOL0     C 1032  10.037   6.668   8.755  0.9951  0.1720  0.5383
  733MOL0     N 1033  10.059   6.539   8.814  0.4169 -0.4197  1.2515
  733MOL0     C 1034  10.043   6.416   8.748 -1.2694 -0.6353  0.5640
  733MOL0     C 1035  10.059   6.328   8.847  0.6521 -0.1285  0.3642
  733MOL0     C 1036  10.044   6.174   8.841 -0.1818  0.6071 -0.3022
  733MOL0     C 1037  10.108   6.116   8.711  0.4702  0.0999 -0.7161
  733MOL0     C 1038  10.094   5.959   8.715 -0.6131 -0.5013 -0.3221
  733MOL0     C 1039  10.167   5.900   8.588  0.3078 -0.1932  1.0493
  733MOL0     O 1040  10.136   5.969   8.467  0.2272  0.2496 -0.3449
  733MOL0     C 1041  10.005   5.940   8.403  0.3354  0.1665  0.0377
  733MOL0     C 1042   9.955   6.045   8.320 -0.3100  0.3052  0.4720
  733MOL0     C 1043   9.837   6.029   8.260 -0.0922 -0.4275  0.4055
  733MOL0     C 1044   9.799   6.139   8.167 -0.4099  0.3786  0.3896
  733MOL0     C 1045   9.763   5.914   8.278  0.1471 -0.3863  1.3055
  733MOL0     C 1046   9.632   5.893   8.203  0.0796  0.6295 -0.2218
  733MOL0     O 1047   9.603   5.779   8.153 -0.6443 -0.2032 -0.0965
  733MOL0     C 1048   9.483   5.734   8.091 -0.4429 -0.4828  0.8369
  733MOL0     C 1049   9.488   5.598   8.079  0.9291 -0.0554 -0.4564
  733MOL0     C 1050   9.398   5.528   7.999 -0.1595 -0.6720  0.5190
  733MOL0     C 1051   9.280   5.589   7.964  0.2761  0.2798 -0.6226
  733MOL0     O 1052   9.186   5.507   7.900 -0.2786  0.1141 -0.5005
  733MOL0     C 1053   9.122   5.570   7.793 -1.3196 -0.2157  0.1120
  733MOL0     C 1054   9.056   5.463   7.701  0.2643 -0.1222 -0.7105
  733MOL0     C 1055   8.944   5.524   7.607 -0.0440  0.6987 -0.4504
  733MOL0     C 1056   8.874   5.407   7.537  0.8113  0.1396  0.2249
  733MOL0     C 1057   8.758   5.464   7.453 -0.7302  0.6167  0.2101
  733MOL0     C 1058   8.635   5.489   7.542 -0.3330  1.7867 -0.0578
  733MOL0     C 1059   8.511   5.503   7.450 -0.1880 -0.2472 -0.3911
  733MOL0     C 1060   8.432   5.391   7.408 -0.1200  0.2163 -0.4720
  733MOL0    Cl 1061   8.287   5.462   7.309 -0.2106  0.3348 -0.5232
  733MOL0     C 1062   9.267   5.724   7.993 -0.5850 -0.8461 -0.6114
  733MOL0     C 1063   9.366   5.805   8.055 -0.3448  0.6695 -0.1536
  733MOL0     O 1064   9.556   5.984   8.216 -0.4657 -0.2478  0.4985
  733MOL0     C 1065   9.811   5.818   8.358  0.2116 -0.0340  0.1270
  733MOL0     C 1066   9.932   5.824   8.423 -0.4517  0.5257  0.2863
  733MOL0     N 1067  10.081   6.400   8.964 -0.5149  0.5720  0.2986
  733MOL0     N 1068  10.080   6.526   8.941  0.0690 -0.0214  0.9064
  733MOL0     C 1069   9.611   7.546   9.147  0.1770 -0.8650  0.3114
  733MOL0     C 1070   9.503   7.642   9.167  0.3357  0.0588 -0.2182
  733MOL0     C 1071   9.046   7.761   9.181 -0.1791 -0.2304  0.0405
  733MOL0     C 1072   9.014   7.734   9.319  1.0010 -0.3784  0.3806
  733MOL0     C 1073   8.898   7.777   9.372  0.4346 -0.6031  0.1353
  733MOL0     C 1074   8.795   7.838   9.292  0.4682 -0.2320  0.4524
  733MOL0     O 1075   8.674   7.880   9.336 -0.7119 -0.1920  0.0330
  733MOL0     C 1076   8.649   7.919   9.475  0.0896 -0.0332 -0.3440
  733MOL0     C 1077   8.527   7.845   9.527  0.5365  0.3071 -1.0138
  733MOL0     C 1078   8.544   7.693   9.554 -0.1816 -0.1249 -0.3938
  733MOL0     C 1079   8.607   7.660   9.683  0.3169 -0.6050  0.0288
  733MOL0     C 1080   8.582   7.512   9.700 -0.3640 -1.2106  0.6022
  733MOL0     C 1081   8.544   7.393   9.717  0.6212 -0.2504  0.6808
  733MOL0     C 1082   8.822   7.848   9.151  0.0094 -0.2660 -0.3496
  733MOL0     C 1083   8.945   7.803   9.098  0.5783 -0.6329  0.6098
  733MOL0     C 1084   8.957   7.823   8.947 -0.6976 -0.5226  0.8190
  733MOL0     H 1085   9.246   7.430   9.213  1.0358  0.4988  3.4432
  733MOL0     H 1086   9.425   7.275   9.205  1.7620  0.5403  1.5374
  733MOL0     H 1087   9.596   7.242   9.335 -0.3247  1.8281 -1.1879
  733MOL0     H 1088   9.767   7.226   9.343  0.7392  1.3064 -0.0697
  733MOL0     H 1089   9.652   7.007   9.280 -0.7655  1.2884  0.4338
  733MOL0     H 1090   9.587   7.082   9.135  0.3259 -2.9186 -1.1028
  733MOL0     H 1091   9.803   7.140   9.063 -3.8718 -0.1716 -2.2528
  733MOL0     H 1092   9.886   7.067   9.197 -1.6723  0.3151  2.8444
  733MOL0     H 1093   9.742   6.844   9.142 -0.0482  0.9425  1.4495
  733MOL0     H 1094   9.702   6.925   9.003 -0.1114 -1.0195  0.7695
  733MOL0     H 1095   9.973   6.837   9.073  1.5027  2.0331 -0.9515
  733MOL0     H 1096   9.947   6.939   8.928 -0.0016 -0.5783 -0.2819
  733MOL0     H 1097   9.857   6.644   8.967 -0.8764 -1.3456 -1.9635
  733MOL0     H 1098   9.732   6.751   8.896 -0.8671 -2.0986  0.4967
  733MOL0     H 1099   9.904   6.820   8.720 -2.0945 -0.6709 -2.4956
  733MOL0     H 1100   9.827   6.666   8.712  2.0299 -2.5571 -0.4793
  733MOL0     H 1101  10.059   6.667   8.648 -2.1245 -1.3469 -0.2049
  733MOL0     H 1102  10.104   6.745   8.795 -1.2028  3.3041 -1.3382
  733MOL0     H 1103  10.026   6.393   8.643 -0.4961  1.9717 -0.1985
  733MOL0     H 1104   9.939   6.147   8.832  0.3166 -2.2274  1.4459
  733MOL0     H 1105  10.090   6.135   8.932  0.6478 -0.0371 -0.9748
  733MOL0     H 1106  10.077   6.163   8.617 -0.8649  0.8942  0.1035
  733MOL0     H 1107  10.216   6.134   8.713  0.5380 -0.2147  1.6325
  733MOL0     H 1108  10.115   5.909   8.810 -3.4818 -2.7628 -0.7670
  733MOL0     H 1109   9.987   5.942   8.703 -0.9250  1.7742 -1.2600
  733MOL0     H 1110  10.277   5.907   8.587  0.2657  0.4526  0.0441
  733MOL0     H 1111  10.154   5.792   8.576  0.6534 -0.1243 -0.0739
  733MOL0     H 1112  10.017   6.133   8.305 -0.3836  0.8280  2.7804
  733MOL0     H 1113   9.801   6.238   8.214  1.5667 -0.8308  3.0693
  733MOL0     H 1114   9.700   6.122   8.125 -0.0844  0.2177 -0.3259
  733MOL0     H 1115   9.873   6.133   8.087 -0.0778 -0.9174  0.7668
  733MOL0     H 1116   9.573   5.546   8.122  0.7046  1.2599  1.7318
  733MOL0     H 1117   9.411   5.422   7.982  0.5915 -0.5961  0.5770
  733MOL0     H 1118   9.038   5.630   7.828 -1.2507 -1.4043  2.5514
  733MOL0     H 1119   9.195   5.631   7.739 -1.4733 -0.0929  0.0428
  733MOL0     H 1120   9.127   5.410   7.638 -0.7241 -3.3260  0.6509
  733MOL0     H 1121   9.014   5.380   7.758 -0.1590 -0.8893 -2.1076
  733MOL0     H 1122   8.998   5.583   7.531  2.6122  1.4118  1.8185
  733MOL0     H 1123   8.868   5.581   7.660 -0.4779 -1.6200  1.5764
  733MOL0     H 1124   8.834   5.336   7.610  1.1396  2.2668  2.6014
  733MOL0     H 1125   8.939   5.360   7.463 -1.8967  2.9255 -4.4766
  733MOL0     H 1126   8.788   5.558   7.405 -1.3907  0.9615  0.4631
  733MOL0     H 1127   8.730   5.388   7.380  1.3896  0.4405 -0.4921
  733MOL0     H 1128   8.645   5.580   7.601 -1.9118  2.3865 -0.6597
  733MOL0     H 1129   8.613   5.410   7.614  1.7340 -1.1357 -2.3936
  733MOL0     H 1130   8.533   5.567   7.363  0.6912 -0.0143 -0.0046
  733MOL0     H 1131   8.437   5.558   7.509 -3.5182 -2.9729 -1.6743
  733MOL0     H 1132   8.403   5.343   7.502 -0.1277  0.6285 -0.2591
  733MOL0     H 1133   8.486   5.316   7.350 -2.0640 -0.3499 -1.6239
  733MOL0     H 1134   9.183   5.778   7.952  0.2754  0.5272 -0.6482
  733MOL0     H 1135   9.359   5.912   8.071 -0.4219  0.7745 -0.8665
  733MOL0     H 1136   9.759   5.725   8.383  1.4187 -0.1092  2.6211
  733MOL0     H 1137   9.965   5.750   8.495  0.6183  0.0786 -0.6288
  733MOL0     H 1138   9.713   7.577   9.130 -0.1283 -0.7004 -1.3630
  733MOL0     H 1139   9.528   7.747   9.182  1.4789 -0.1426 -0.6190
  733MOL0     H 1140   9.085   7.690   9.388  0.4826  0.1854  1.2922
  733MOL0     H 1141   8.893   7.765   9.480  2.2732  3.2499  0.8021
  733MOL0     H 1142   8.733   7.895   9.542  1.9480 -3.4490 -3.5703
  733MOL0     H 1143   8.629   8.026   9.488  2.6610  0.5527 -0.5371
  733MOL0     H 1144   8.447   7.852   9.452 -0.0910  2.1994 -0.2534
  733MOL0     H 1145   8.490   7.893   9.619  0.7826 -3.4997  1.2668
  733MOL0     H 1146   8.445   7.647   9.548 -1.1784  1.9270 -0.6649
  733MOL0     H 1147   8.596   7.651   9.467 -1.7930  0.6132 -1.7778
  733MOL0     H 1148   8.579   7.727   9.764  0.0256  1.0700 -1.3913
  733MOL0     H 1149   8.714   7.681   9.676  0.3362 -0.2236  1.3186
  733MOL0     H 1150   8.507   7.294   9.729 -2.3830  0.7183  0.2487
  733MOL0     H 1151   8.749   7.891   9.084  0.1948 -2.9861 -2.4911
  733MOL0     H 1152   8.870   7.868   8.898  1.7307  4.0536  0.2144
  733MOL0     H 1153   9.046   7.881   8.922  1.8331 -3.8863  1.2382
  733MOL0     H 1154   8.976   7.724   8.905  2.2717 -0.0228  0.7639
  734MOL0     O 1155   4.074   6.768   9.247 -0.5501  0.1185  0.5664
  734MOL0     C 1156   3.996   6.746   9.155  0.8117 -0.7030  0.1853
  734MOL0     O 1157   3.971   6.621   9.093 -0.3803  0.9104 -0.5981
  734MOL0     C 1158   4.026   6.505   9.134 -0.5837  0.0331  0.8696
  734MOL0     C 1159   4.062   6.405   9.040 -0.3144  0.3150  0.7032
  734MOL0     C 1160   4.115   6.282   9.084  0.4987  0.7752 -0.8868
  734MOL0     C 1161   4.142   6.267   9.220 -0.6682 -0.1311 -0.0099
  734MOL0     O 1162   4.211   6.153   9.248  0.3956 -0.2612  0.4173
  734MOL0     C 1163   4.213   6.094   9.379  0.0274 -0.6239  0.3615
  734MOL0     C 1164   4.240   5.940   9.378 -0.3130 -0.6567 -0.0693
  734MOL0     C 1165   4.122   5.872   9.316  0.3828 -0.0652  0.2791
  734MOL0     C 1166   4.143   5.717   9.317  0.4677  0.2641  0.0121
  734MOL0     C 1167   4.254   5.657   9.234 -0.1538  0.6656 -0.6203
  734MOL0     C 1168   4.264   5.507   9.264 -0.4153 -0.6395 -0.7132
  734MOL0     C 1169   4.291   5.467   9.409 -0.4978 -0.4914  0.1469
  734MOL0     C 1170   4.411   5.527   9.472  0.5563  0.1503 -0.7621
  734MOL0     N 1171   4.538   5.486   9.409  0.1830  0.6993  0.0311
  734MOL0     C 1172   4.620   5.381   9.435  0.0921  0.4142  0.4084
  734MOL0     C 1173   4.726   5.386   9.351  0.1111  0.1409 -0.5080
  734MOL0     C 1174   4.845   5.289   9.337  0.4784  0.0839 -0.5074
  734MOL0     C 1175   4.924   5.241   9.462  0.4739  0.4456 -0.3899
  734MOL0     C 1176   5.010   5.358   9.507 -0.1311  0.1453  0.0774
  734MOL0     C 1177   5.066   5.348   9.651 -0.7482  1.1075 -0.0559
  734MOL0     O 1178   5.131   5.469   9.694  0.1896 -0.4438  0.5624
  734MOL0     C 1179   5.179   5.480   9.815  1.7603 -0.8873 -0.6089
  734MOL0     C 1180   5.239   5.601   9.839 -0.7080  0.5460 -0.5124
  734MOL0     C 1181   5.295   5.643   9.961 -0.6552 -0.1652  0.6436
  734MOL0     C 1182   5.321   5.788   9.972  0.2718 -0.1384 -0.0803
  734MOL0     C 1183   5.300   5.546  10.070  0.0811 -0.5866 -1.2837
  734MOL0     C 1184   5.349   5.589  10.211 -0.2482  0.0948  0.5272
  734MOL0     O 1185   5.477   5.630  10.221 -0.5231 -0.1598 -0.4025
  734MOL0     C 1186   5.521   5.682  10.342  0.7162  0.4543  0.4141
  734MOL0     C 1187   5.524   5.824  10.354  0.3033 -0.0146 -0.3126
  734MOL0     C 1188   5.572   5.889  10.472 -0.1895  0.7935 -1.2830
  734MOL0     C 1189   5.622   5.807  10.576  0.3777 -1.1478  0.0283
  734MOL0     O 1190   5.688   5.859  10.685 -0.2651  0.1941  0.0069
  734MOL0     C 1191   5.625   5.969  10.752 -0.2587 -0.7392  0.1985
  734MOL0     C 1192   5.700   5.992  10.884  0.0082  0.2294 -0.4095
  734MOL0     C 1193   5.794   6.114  10.862  0.5465  1.2293 -0.6218
  734MOL0     C 1194   5.936   6.083  10.820  0.1435  0.3538  0.4563
  734MOL0     C 1195   6.020   6.019  10.929  0.0129 -0.5930 -1.0762
  734MOL0     C 1196   6.152   5.957  10.880  0.7759 -0.1527 -0.2308
  734MOL0     C 1197   6.204   5.877  10.996  0.0766  0.1209 -0.6051
  734MOL0     C 1198   6.338   5.803  10.970  0.2599 -0.8914 -0.4767
  734MOL0    Cl 1199   6.304   5.655  10.892  0.2244  0.3816  0.0757
  734MOL0     C 1200   5.607   5.672  10.566 -0.4632 -0.2695  0.4969
  734MOL0     C 1201   5.550   5.604  10.455  0.1078  0.4976 -0.1211
  734MOL0     O 1202   5.270   5.587  10.309 -0.7591 -0.6893 -0.4109
  734MOL0     C 1203   5.251   5.420  10.047 -0.2491  0.6719 -1.4101
  734MOL0     C 1204   5.185   5.388   9.923  0.5625  0.1854 -0.7436
  734MOL0     N 1205   4.709   5.496   9.274  0.3999  0.9768 -0.1386
  734MOL0     N 1206   4.594   5.543   9.295  0.7933 -0.7310 -0.0280
  734MOL0     C 1207   4.109   6.365   9.316  1.1317 -0.5301 -0.1278
  734MOL0     C 1208   4.046   6.481   9.270 -0.6645 -0.0281 -0.4292
  734MOL0     C 1209   3.916   6.870   9.101 -0.2902 -0.2356  0.8345
  734MOL0     C 1210   3.831   6.846   8.998 -0.9288  0.7122  0.9006
  734MOL0     C 1211   3.752   6.943   8.949 -0.1242  1.0510  0.1378
  734MOL0     C 1212   3.755   7.072   8.992  0.8570 -0.1707  0.1352
  734MOL0     O 1213   3.669   7.176   8.948 -0.2334  0.5641 -1.0765
  734MOL0     C 1214   3.651   7.169   8.809  1.1894 -0.1279  0.9360
  734MOL0     C 1215   3.606   7.315   8.775  0.5090 -0.3802  0.0027
  734MOL0     C 1216   3.461   7.322   8.775  1.0437  0.1533  1.1289
  734MOL0     C 1217   3.405   7.355   8.917 -0.3762 -0.3949 -0.1402
  734MOL0     C 1218   3.262   7.380   8.906 -0.5037 -0.6307 -0.0353
  734MOL0     C 1219   3.144   7.417   8.878  0.2528  0.1639 -0.8540
  734MOL0     C 1220   3.849   7.101   9.094 -0.3454 -0.1380  0.0585
  734MOL0     C 1221   3.930   7.005   9.151  0.1326  0.3392 -0.1902
  734MOL0     C 1222   4.025   7.048   9.265 -0.3740  0.2017 -0.5097
  734MOL0     H 1223   4.053   6.418   8.933 -2.6460 -0.6062  0.7368
  734MOL0     H 1224   4.140   6.203   9.014 -1.1637  1.8778 -2.8247
  734MOL0     H 1225   4.115   6.115   9.422 -0.5663  2.3690 -2.1105
  734MOL0     H 1226   4.286   6.140   9.447  0.0394 -1.3969  0.8879
  734MOL0     H 1227   4.333   5.912   9.327 -0.9255 -1.6763 -0.6397
  734MOL0     H 1228   4.246   5.898   9.478  0.9244 -0.9093 -0.2294
  734MOL0     H 1229   4.021   5.892   9.351 -0.0015 -0.4483 -0.5802
  734MOL0     H 1230   4.116   5.917   9.216 -0.7611  1.3271  0.9470
  734MOL0     H 1231   4.149   5.692   9.423  0.3437  1.2928  0.2761
  734MOL0     H 1232   4.058   5.675   9.261  2.4165  1.1167 -3.9361
  734MOL0     H 1233   4.348   5.714   9.246 -0.1885  1.3033 -3.0066
  734MOL0     H 1234   4.239   5.669   9.127  0.6082  2.9065 -0.5425
  734MOL0     H 1235   4.165   5.471   9.234 -0.7121 -1.5383  1.1656
  734MOL0     H 1236   4.348   5.463   9.209  1.0862  0.7929  0.3407
  734MOL0     H 1237   4.307   5.359   9.422 -3.8076 -0.9338  1.6165
  734MOL0     H 1238   4.200   5.492   9.464 -1.0779  0.1796 -1.0609
  734MOL0     H 1239   4.407   5.636   9.461  1.9617  0.1128 -2.0803
  734MOL0     H 1240   4.418   5.519   9.581 -0.9578 -0.5762 -0.6923
  734MOL0     H 1241   4.603   5.312   9.517 -0.6160 -3.0784 -2.4186
  734MOL0     H 1242   4.918   5.321   9.262  2.0599  1.4221  1.4794
  734MOL0     H 1243   4.799   5.201   9.291  0.5851  0.7888 -1.9892
  734MOL0     H 1244   4.859   5.214   9.546  1.5648 -1.3339 -0.0464
  734MOL0     H 1245   4.979   5.150   9.436 -2.1395 -1.0926 -0.9036
  734MOL0     H 1246   5.085   5.378   9.430 -2.2717  1.6939 -1.7631
  734MOL0     H 1247   4.944   5.445   9.518  0.6044  0.4398  2.7256
  734MOL0     H 1248   4.994   5.319   9.728 -1.4524 -0.9050 -1.3830
  734MOL0     H 1249   5.139   5.266   9.647 -1.4711  0.3724  1.4245
  734MOL0     H 1250   5.226   5.665   9.753 -0.0824 -0.3948 -1.3370
  734MOL0     H 1251   5.351   5.814  10.074  0.8892  1.7520 -0.7050
  734MOL0     H 1252   5.222   5.831   9.951 -0.2196 -2.1338 -2.1874
  734MOL0     H 1253   5.397   5.837   9.910 -0.3543  0.6954 -0.2099
  734MOL0     H 1254   5.504   5.894  10.275 -0.2784 -1.1978 -1.2384
  734MOL0     H 1255   5.589   5.996  10.478  2.1870  0.4977 -1.6861
  734MOL0     H 1256   5.626   6.059  10.689 -1.4489 -0.4768  0.5398
  734MOL0     H 1257   5.522   5.936  10.767  0.1571 -2.6435 -0.8172
  734MOL0     H 1258   5.625   6.002  10.963  0.2784 -0.3967 -0.0644
  734MOL0     H 1259   5.759   5.906  10.916  0.4301  0.3342 -0.8858
  734MOL0     H 1260   5.808   6.172  10.954  0.0703  3.2730 -1.8046
  734MOL0     H 1261   5.749   6.174  10.783  0.0438  1.5924 -0.0682
  734MOL0     H 1262   5.994   6.172  10.795 -0.8857  1.0695  0.5052
  734MOL0     H 1263   5.934   6.014  10.735 -0.0127  0.8455  0.0508
  734MOL0     H 1264   6.039   6.096  11.005 -1.0963 -2.0897  0.7958
  734MOL0     H 1265   5.967   5.943  10.986  0.6087  0.9097  1.6353
  734MOL0     H 1266   6.225   6.032  10.849 -0.1273  0.3039 -1.3281
  734MOL0     H 1267   6.136   5.894  10.792 -0.5255  1.6831 -1.3795
  734MOL0     H 1268   6.139   5.797  11.034  2.3916 -0.9340  1.4377
  734MOL0     H 1269   6.207   5.944  11.082 -0.4557  0.1357 -0.5948
  734MOL0     H 1270   6.383   5.774  11.065  1.7223 -1.0789 -1.1977
  734MOL0     H 1271   6.397   5.864  10.900 -1.4036  0.4312 -0.7919
  734MOL0     H 1272   5.637   5.614  10.652 -0.3368 -1.0680 -0.0715
  734MOL0     H 1273   5.524   5.499  10.452  2.2487 -0.0922  0.1966
  734MOL0     H 1274   5.270   5.350  10.128  0.3159 -0.3418 -2.3956
  734MOL0     H 1275   5.134   5.293   9.911 -0.9960  0.9815 -0.6839
  734MOL0     H 1276   4.137   6.352   9.420 -0.3851 -0.6455  0.2872
  734MOL0     H 1277   4.004   6.545   9.347 -3.6716 -0.1627 -1.8278
  734MOL0     H 1278   3.822   6.749   8.951 -3.4790  0.3878  1.8754
  734MOL0     H 1279   3.696   6.922   8.859  3.3488  0.5288 -2.1015
  734MOL0     H 1280   3.744   7.155   8.753  0.9946  2.4984 -0.1615
  734MOL0     H 1281   3.577   7.099   8.770 -0.2151  0.6696  2.0898
  734MOL0     H 1282   3.635   7.352   8.676 -3.3173  2.3386 -0.2952
  734MOL0     H 1283   3.647   7.382   8.851  1.1738 -0.1002 -0.5897
  734MOL0     H 1284   3.441   7.413   8.718  0.1286 -1.0768 -0.5912
  734MOL0     H 1285   3.402   7.239   8.734  1.6176 -0.3544  1.3163
  734MOL0     H 1286   3.460   7.447   8.935  3.7443 -2.3723 -1.4580
  734MOL0     H 1287   3.422   7.278   8.993 -1.5809 -0.1237  0.4352
  734MOL0     H 1288   3.051   7.463   8.852  1.6951  1.6743 -4.0019
  734MOL0     H 1289   3.865   7.206   9.118  1.5792 -0.7573  1.7195
  734MOL0     H 1290   4.011   7.156   9.278  0.5033  0.6506 -2.8760
  734MOL0     H 1291   4.003   7.012   9.366 -2.4593  2.1435 -0.1605
  734MOL0     H 1292   4.128   7.029   9.236  0.2161 -0.0030  1.5877
  735MOL0     O 1293   7.688   8.776   7.375 -0.0501  0.5705  0.2570
  735MOL0     C 1294   7.642   8.860   7.452  0.4416  0.0329  0.8452
  735MOL0     O 1295   7.686   8.989   7.478  0.1447  0.0249  0.0477
  735MOL0     C 1296   7.795   9.034   7.403  0.2707  0.0608  0.1228
  735MOL0     C 1297   7.908   9.089   7.469  0.3199  0.5491 -0.2009
  735MOL0     C 1298   8.009   9.144   7.400  0.4507 -0.2848  0.9579
  735MOL0     C 1299   8.004   9.151   7.264  0.1773 -0.1322  0.3109
  735MOL0     O 1300   8.109   9.188   7.192  0.0494  0.4663  0.5525
  735MOL0     C 1301   8.242   9.202   7.249  0.3311 -0.5328  0.8354
  735MOL0     C 1302   8.344   9.180   7.141  0.0693 -0.5423  0.7899
  735MOL0     C 1303   8.358   9.306   7.048 -0.2548 -0.0023  0.1465
  735MOL0     C 1304   8.488   9.307   6.980 -0.5383  0.0783  0.2079
  735MOL0     C 1305   8.602   9.367   7.078  1.0457  0.2097  1.2806
  735MOL0     C 1306   8.741   9.327   7.025 -0.1781  0.5166 -0.1681
  735MOL0     C 1307   8.791   9.402   6.910  0.0699 -0.1913 -0.1301
  735MOL0     C 1308   8.915   9.339   6.852  0.2373  0.3480 -0.6842
  735MOL0     N 1309   8.973   9.419   6.745 -0.2430  0.7906  0.2339
  735MOL0     C 1310   9.031   9.365   6.625  0.1928 -0.1034 -0.9418
  735MOL0     C 1311   9.115   9.465   6.596  0.4634  0.4037  0.2274
  735MOL0     C 1312   9.232   9.446   6.489 -0.0535 -0.6704 -0.2613
  735MOL0     C 1313   9.192   9.421   6.331  0.2970 -1.0801  0.3043
  735MOL0     C 1314   9.302   9.323   6.267  0.5179  0.3732 -0.0685
  735MOL0     C 1315   9.318   9.193   6.338  0.7082  0.5278 -0.2391
  735MOL0     O 1316   9.363   9.098   6.237 -0.0265 -0.0878  0.2932
  735MOL0     C 1317   9.488   9.103   6.178 -0.1996 -0.3550 -0.6352
  735MOL0     C 1318   9.604   9.150   6.247  0.5532  0.3562  0.4107
  735MOL0     C 1319   9.732   9.137   6.188 -0.3507 -0.9861 -0.3708
  735MOL0     C 1320   9.851   9.198   6.260 -0.0723 -0.4067 -0.1447
  735MOL0     C 1321   9.740   9.087   6.052 -0.3487  0.9520  0.4306
  735MOL0     C 1322   9.872   9.085   5.970  0.6189 -0.0728 -0.1710
  735MOL0     O 1323   9.984   9.119   6.034  0.3273 -0.7175  0.0770
  735MOL0     C 1324  10.099   9.138   5.957 -0.0306  0.7303 -0.3178
  735MOL0     C 1325  10.181   9.012   5.955 -0.4933 -0.7398 -0.9161
  735MOL0     C 1326  10.307   9.023   5.901 -0.0483 -0.5389  0.9768
  735MOL0     C 1327  10.352   9.147   5.836  0.5028  0.2381  0.9088
  735MOL0     O 1328  10.473   9.152   5.776 -0.2979 -0.1288 -0.0190
  735MOL0     C 1329  10.514   9.280   5.737 -0.3578 -0.4635  0.0932
  735MOL0     C 1330  10.654   9.268   5.678 -0.0356  0.0360  0.2607
  735MOL0     C 1331  10.723   9.396   5.663 -0.3627  0.1969  0.4516
  735MOL0     C 1332  10.863   9.375   5.610 -0.0630 -0.1000  0.1612
  735MOL0     C 1333  10.942   9.507   5.618 -0.1956 -0.6444  0.0055
  735MOL0     C 1334  10.885   9.614   5.517  0.6429 -1.1003 -0.3668
  735MOL0     C 1335  10.991   9.728   5.510 -0.8800 -0.7118 -0.7415
  735MOL0     C 1336  10.947   9.842   5.415  0.3617  0.0339 -0.1089
  735MOL0    Cl 1337  10.910   9.777   5.253  0.1307 -0.1620  0.2710
  735MOL0     C 1338  10.267   9.266   5.850  0.2386  1.2235  0.0303
  735MOL0     C 1339  10.149   9.263   5.925  0.1567  0.0505 -0.2425
  735MOL0     O 1340   9.869   9.048   5.855  0.4211 -0.2678  0.9247
  735MOL0     C 1341   9.625   9.040   5.996 -0.5946  0.2397  0.8921
  735MOL0     C 1342   9.506   9.050   6.052  0.6580 -0.4950 -1.3514
  735MOL0     N 1343   9.099   9.575   6.675  0.5735 -0.1389 -0.1191
  735MOL0     N 1344   9.027   9.540   6.771  0.7722  0.2008 -0.1591
  735MOL0     C 1345   7.887   9.117   7.195 -0.4021  0.6772  0.7720
  735MOL0     C 1346   7.793   9.040   7.261 -0.4291  0.5184 -0.2945
  735MOL0     C 1347   7.508   8.822   7.515  0.1498  0.1538  1.0491
  735MOL0     C 1348   7.418   8.752   7.440 -0.0546 -0.4107 -0.5756
  735MOL0     C 1349   7.295   8.732   7.497  0.2934 -0.1007 -0.4592
  735MOL0     C 1350   7.254   8.765   7.631 -0.5237  0.5673  0.2624
  735MOL0     O 1351   7.139   8.727   7.699  0.2559  0.3771 -0.2589
  735MOL0     C 1352   7.090   8.597   7.670 -0.0729 -0.1870 -0.9854
  735MOL0     C 1353   7.189   8.494   7.716 -0.4424  0.2664  0.1096
  735MOL0     C 1354   7.136   8.351   7.700  0.1277  0.5788  0.2691
  735MOL0     C 1355   7.247   8.247   7.710  0.4441  0.6857  0.1625
  735MOL0     C 1356   7.188   8.120   7.676  0.7839  0.0165  0.3452
  735MOL0     C 1357   7.125   8.024   7.632  0.4697 -0.0317 -0.5178
  735MOL0     C 1358   7.349   8.832   7.701  0.0350 -0.2927 -0.6368
  735MOL0     C 1359   7.475   8.859   7.646  0.2427 -0.0078  0.1315
  735MOL0     C 1360   7.571   8.916   7.741 -0.0790  0.7912 -0.4546
  735MOL0     H 1361   7.921   9.090   7.576  0.5615 -0.9160 -0.2003
  735MOL0     H 1362   8.095   9.189   7.450 -0.0251  0.1757  1.3794
  735MOL0     H 1363   8.258   9.121   7.321  0.6532 -0.8704  0.3948
  735MOL0     H 1364   8.262   9.297   7.299 -1.0881 -0.5568  1.5108
  735MOL0     H 1365   8.443   9.175   7.189  1.4357 -2.8558 -1.9415
  735MOL0     H 1366   8.320   9.082   7.099 -1.2583  0.0126  0.1980
  735MOL0     H 1367   8.272   9.305   6.981 -0.8408  3.2729  0.6662
  735MOL0     H 1368   8.356   9.393   7.114 -0.6580 -1.0300  1.5350
  735MOL0     H 1369   8.509   9.204   6.951 -0.1741  0.5651 -1.3334
  735MOL0     H 1370   8.477   9.367   6.889 -2.1968  1.5397  1.3129
  735MOL0     H 1371   8.593   9.316   7.174  0.4527 -1.7559  0.2327
  735MOL0     H 1372   8.588   9.475   7.087  0.0902  0.2439 -0.2547
  735MOL0     H 1373   8.809   9.357   7.105 -0.8019  1.0008  0.1953
  735MOL0     H 1374   8.747   9.219   7.009 -0.3667  0.1434  2.0270
  735MOL0     H 1375   8.809   9.499   6.958 -1.6444  0.8519 -1.4907
  735MOL0     H 1376   8.714   9.408   6.834  0.8448 -1.6458 -1.0770
  735MOL0     H 1377   8.988   9.317   6.931  0.7910  1.8885 -0.7289
  735MOL0     H 1378   8.884   9.242   6.812  0.7085  0.1101 -0.4721
  735MOL0     H 1379   9.026   9.266   6.580 -3.5537  0.4367 -2.0861
  735MOL0     H 1380   9.305   9.375   6.530  5.0179  3.3567 -1.2706
  735MOL0     H 1381   9.284   9.542   6.494  1.0820 -1.3005  0.4496
  735MOL0     H 1382   9.101   9.361   6.318  0.9283 -2.4668  1.9870
  735MOL0     H 1383   9.183   9.508   6.266  1.3986  0.1867  1.7817
  735MOL0     H 1384   9.270   9.308   6.164 -3.0214  2.4311  0.5661
  735MOL0     H 1385   9.397   9.378   6.259  0.1100  1.0148 -0.6731
  735MOL0     H 1386   9.395   9.194   6.416 -1.0729  1.6982  1.5902
  735MOL0     H 1387   9.222   9.173   6.386  1.3191  0.4845  0.9969
  735MOL0     H 1388   9.591   9.181   6.350 -0.6411  1.4314 -0.0385
  735MOL0     H 1389   9.810   9.252   6.346 -1.7972 -0.1243 -1.1122
  735MOL0     H 1390   9.919   9.256   6.197 -0.7863  0.6510  0.0467
  735MOL0     H 1391   9.923   9.125   6.300 -0.1431 -0.1667  0.4261
  735MOL0     H 1392  10.149   8.919   6.001 -0.6381 -1.2046 -1.9351
  735MOL0     H 1393  10.380   8.943   5.897  1.7167  0.9567  1.6653
  735MOL0     H 1394  10.440   9.315   5.665  0.1085  2.5577  0.9215
  735MOL0     H 1395  10.524   9.352   5.819  0.7277  2.6449 -2.5662
  735MOL0     H 1396  10.708   9.204   5.749 -1.5042 -0.0527  1.3507
  735MOL0     H 1397  10.645   9.222   5.579 -0.0389 -2.1402  1.2173
  735MOL0     H 1398  10.728   9.443   5.762  0.0939 -1.2578  1.1512
  735MOL0     H 1399  10.670   9.458   5.591  1.5419  0.5744 -0.6748
  735MOL0     H 1400  10.848   9.342   5.506 -2.2245  0.2286  0.3109
  735MOL0     H 1401  10.912   9.294   5.665 -2.6741 -1.4105  0.7223
  735MOL0     H 1402  10.940   9.551   5.718  0.4582 -1.3812  0.3513
  735MOL0     H 1403  11.043   9.479   5.588 -0.3824 -1.4327  0.1099
  735MOL0     H 1404  10.792   9.657   5.556 -0.3271  2.6674 -5.7245
  735MOL0     H 1405  10.868   9.590   5.412 -0.9494  2.4244 -1.0820
  735MOL0     H 1406  11.091   9.700   5.475  0.2154  2.0364 -0.0387
  735MOL0     H 1407  11.006   9.771   5.609  1.7996  1.0012 -1.7951
  735MOL0     H 1408  11.034   9.908   5.411  3.2130 -3.4519 -0.6437
  735MOL0     H 1409  10.860   9.895   5.456  0.1148  0.0443 -0.6330
  735MOL0     H 1410  10.300   9.361   5.809 -2.5796  2.0325 -0.5541
  735MOL0     H 1411  10.097   9.352   5.956  1.3308 -0.5563  4.1245
  735MOL0     H 1412   9.625   8.990   5.900 -1.2052 -1.1619  1.5933
  735MOL0     H 1413   9.412   9.021   6.005 -1.8244 -0.9556  3.3248
  735MOL0     H 1414   7.892   9.126   7.086 -0.3290  1.1424  0.8115
  735MOL0     H 1415   7.711   9.000   7.201 -1.8439 -0.2562  2.0421
  735MOL0     H 1416   7.441   8.730   7.336 -0.8486  2.0281 -1.3276
  735MOL0     H 1417   7.227   8.674   7.437  0.2606  1.9346 -2.5273
  735MOL0     H 1418   6.995   8.586   7.724 -0.6645 -0.1213 -1.9830
  735MOL0     H 1419   7.069   8.590   7.563  0.6958 -0.9870 -1.0943
  735MOL0     H 1420   7.234   8.513   7.814 -1.7109  1.4065  0.5031
  735MOL0     H 1421   7.275   8.499   7.649  0.4509 -0.1694  1.1781
  735MOL0     H 1422   7.066   8.334   7.783 -1.9212  0.6060 -1.3530
  735MOL0     H 1423   7.085   8.345   7.603 -1.0634  0.7807  0.8628
  735MOL0     H 1424   7.291   8.247   7.811 -0.3258  1.5388  0.5052
  735MOL0     H 1425   7.325   8.277   7.639  2.9399 -0.1170  2.3909
  735MOL0     H 1426   7.081   7.936   7.589  3.6395 -0.8794 -2.3571
  735MOL0     H 1427   7.317   8.863   7.800 -1.3900 -1.9353 -0.5403
  735MOL0     H 1428   7.587   9.022   7.719 -0.1885  0.0740 -4.8768
  735MOL0     H 1429   7.538   8.910   7.845 -1.7075  1.6091 -0.8913
  735MOL0     H 1430   7.659   8.852   7.733 -0.6879  0.0787 -1.9799
  736MOL0     O 1431  10.588   0.084   3.876 -1.0521  0.0154  0.2464
  736MOL0     C 1432  10.502   0.082   3.788  0.6517 -0.5598 -0.0436
  736MOL0     O 1433  10.409  -0.021   3.765 -0.1658 -0.3030 -0.2969
  736MOL0     C 1434  10.391  -0.116   3.861  0.0994  0.1340 -0.0248
  736MOL0     C 1435  10.389  -0.097   4.001 -0.4467 -0.5341  0.6400
  736MOL0     C 1436  10.374  -0.209   4.077  0.1377  1.7835  0.1734
  736MOL0     C 1437  10.339  -0.342   4.023 -0.2534  0.1284  0.6184
  736MOL0     O 1438  10.321  -0.445   4.107  0.5672  0.3825  0.4003
  736MOL0     C 1439  10.319  -0.587   4.059  0.0161  0.5669 -0.8322
  736MOL0     C 1440  10.451  -0.664   4.085 -0.2161 -0.5697 -0.0433
  736MOL0     C 1441  10.503  -0.639   4.223 -1.3506  0.1691  0.6435
  736MOL0     C 1442  10.627  -0.724   4.261  0.2341 -0.2893  0.2758
  736MOL0     C 1443  10.692  -0.671   4.393  0.4885  0.3093  0.0783
  736MOL0     C 1444  10.606  -0.637   4.515 -0.8868  0.2402  0.5168
  736MOL0     C 1445  10.512  -0.748   4.567 -0.5910  0.3047 -0.4313
  736MOL0     C 1446  10.596  -0.863   4.631  0.4952 -0.2786 -0.1824
  736MOL0     N 1447  10.523  -0.991   4.628 -0.1219 -0.5061  0.8443
  736MOL0     C 1448  10.489  -1.050   4.509 -0.3320  0.3998 -0.0967
  736MOL0     C 1449  10.413  -1.151   4.550 -0.6959 -0.0244  0.7913
  736MOL0     C 1450  10.352  -1.243   4.444 -0.4967 -0.1535  0.0630
  736MOL0     C 1451  10.417  -1.387   4.481  0.3428  0.9206 -0.0113
  736MOL0     C 1452  10.571  -1.397   4.478  0.0306 -0.0116 -0.1292
  736MOL0     C 1453  10.611  -1.444   4.339 -0.2205  0.8999  0.5700
  736MOL0     O 1454  10.601  -1.331   4.247  0.4641 -0.6793  0.7688
  736MOL0     C 1455  10.630  -1.347   4.116 -0.1443  0.3334  0.8518
  736MOL0     C 1456  10.616  -1.239   4.035 -0.1853 -0.2101 -0.6150
  736MOL0     C 1457  10.644  -1.249   3.900  0.8566 -0.0333 -0.0800
  736MOL0     C 1458  10.641  -1.123   3.821 -0.2852 -0.9281  0.4255
  736MOL0     C 1459  10.688  -1.368   3.844 -0.6549 -0.0613  0.4631
  736MOL0     C 1460  10.733  -1.370   3.710 -0.6010 -0.0859  0.6682
  736MOL0     O 1461  10.841  -1.458   3.686  0.1042  0.3920 -0.0481
  736MOL0     C 1462  10.864  -1.489   3.555  0.6861  0.3674 -0.2792
  736MOL0     C 1463  10.769  -1.568   3.485 -0.4025 -0.3357 -0.4674
  736MOL0     C 1464  10.778  -1.586   3.349 -0.2118  0.3432 -0.5069
  736MOL0     C 1465  10.885  -1.522   3.277  0.0938  0.9608  0.2531
  736MOL0     O 1466  10.916  -1.539   3.148 -0.3747  0.0458  1.0575
  736MOL0     C 1467  10.816  -1.565   3.058 -0.0812  0.7427 -0.1131
  736MOL0     C 1468  10.899  -1.556   2.922 -0.6181  0.3582  0.8283
  736MOL0     C 1469  10.813  -1.610   2.802 -0.6145 -0.4016 -0.4355
  736MOL0     C 1470  10.864  -1.554   2.675 -0.2123  0.5364  0.2599
  736MOL0     C 1471  10.817  -1.639   2.552 -0.1041  0.1487 -0.5494
  736MOL0     C 1472  10.856  -1.570   2.422 -0.0263 -0.2226 -0.4947
  736MOL0     C 1473  10.829  -1.654   2.299 -0.2206 -0.3129  0.1581
  736MOL0     C 1474  10.675  -1.691   2.296 -0.2915 -0.2240 -0.1980
  736MOL0    Cl 1475  10.562  -1.551   2.288  0.2611  0.4527  0.5553
  736MOL0     C 1476  10.972  -1.432   3.347 -0.0643  0.2731  0.9591
  736MOL0     C 1477  10.971  -1.422   3.488 -0.3949  0.2067 -0.0497
  736MOL0     O 1478  10.667  -1.311   3.622 -0.4021  0.4046 -0.0101
  736MOL0     C 1479  10.703  -1.476   3.923  0.5732  0.0684  0.3408
  736MOL0     C 1480  10.661  -1.468   4.055 -0.5606  0.3060 -0.5456
  736MOL0     N 1481  10.414  -1.153   4.686  1.1331  0.0213 -0.8865
  736MOL0     N 1482  10.483  -1.057   4.737  0.8349  0.2407  0.4752
  736MOL0     C 1483  10.350  -0.354   3.880  0.7642  0.0149 -0.2573
  736MOL0     C 1484  10.370  -0.242   3.805 -0.5072 -0.3219  0.4925
  736MOL0     C 1485  10.514   0.187   3.687  1.3701  0.4238  0.0235
  736MOL0     C 1486  10.612   0.287   3.704 -0.1052 -0.2644 -0.0068
  736MOL0     C 1487  10.652   0.371   3.597 -0.4896  0.6928  0.3673
  736MOL0     C 1488  10.584   0.357   3.478 -0.7362 -0.1310 -0.3628
  736MOL0     O 1489  10.617   0.436   3.368  0.3790 -0.4883  0.2561
  736MOL0     C 1490  10.673   0.565   3.395  0.3798  0.2797  0.2543
  736MOL0     C 1491  10.570   0.653   3.466  0.1773  0.6031 -0.5756
  736MOL0     C 1492  10.636   0.793   3.493  0.2034  0.8697 -0.2316
  736MOL0     C 1493  10.576   0.897   3.405 -0.7521  0.5947  0.3724
  736MOL0     C 1494  10.611   0.885   3.267 -1.0511 -0.2224  0.1417
  736MOL0     C 1495  10.643   0.888   3.154  0.1970  0.7042 -0.3315
  736MOL0     C 1496  10.477   0.274   3.463  0.8605  0.8114  0.4263
  736MOL0     C 1497  10.433   0.187   3.574  0.3521  0.4515 -0.0864
  736MOL0     C 1498  10.310   0.099   3.557 -0.4615  0.1157  1.2984
  736MOL0     H 1499  10.409   0.001   4.043  4.2596 -1.3454  0.8609
  736MOL0     H 1500  10.364  -0.198   4.185  0.4403  1.3033  0.2534
  736MOL0     H 1501  10.287  -0.600   3.955 -0.0321 -2.4550 -0.5367
  736MOL0     H 1502  10.248  -0.644   4.120 -1.4224  3.2133  0.1373
  736MOL0     H 1503  10.420  -0.768   4.071 -2.8984  0.1938 -0.2397
  736MOL0     H 1504  10.528  -0.642   4.010  1.4284 -3.5562  0.6090
  736MOL0     H 1505  10.523  -0.534   4.245  1.7448  0.1105 -1.2295
  736MOL0     H 1506  10.419  -0.675   4.282 -2.3439  0.0504 -0.7829
  736MOL0     H 1507  10.599  -0.829   4.268  1.2750 -0.5922  0.0525
  736MOL0     H 1508  10.699  -0.721   4.178 -1.6342 -2.5560 -1.5804
  736MOL0     H 1509  10.748  -0.579   4.372 -1.5028  1.4652 -0.4014
  736MOL0     H 1510  10.766  -0.747   4.420  2.0682  2.4172  2.0820
  736MOL0     H 1511  10.683  -0.612   4.588 -0.9146 -1.0442  1.0174
  736MOL0     H 1512  10.543  -0.550   4.496  1.4008  1.7475 -0.5426
  736MOL0     H 1513  10.465  -0.788   4.477  1.9855 -0.2832 -1.6139
  736MOL0     H 1514  10.442  -0.694   4.632 -1.0775  1.6090 -1.9812
  736MOL0     H 1515  10.693  -0.887   4.586  0.8850  0.1435  0.4092
  736MOL0     H 1516  10.627  -0.836   4.733 -0.0956  1.0584 -0.3385
  736MOL0     H 1517  10.528  -1.037   4.409 -0.2323 -0.5735 -0.1985
  736MOL0     H 1518  10.377  -1.216   4.342 -0.7686  1.9738  0.5229
  736MOL0     H 1519  10.244  -1.225   4.452 -0.3172  0.6550  0.8261
  736MOL0     H 1520  10.394  -1.409   4.586 -1.2579  1.0469 -0.3128
  736MOL0     H 1521  10.358  -1.458   4.423 -2.4609  1.5969  1.8039
  736MOL0     H 1522  10.619  -1.303   4.504 -0.6563 -0.0820  1.4813
  736MOL0     H 1523  10.589  -1.469   4.558 -0.6503  0.2036  0.2239
  736MOL0     H 1524  10.716  -1.476   4.341 -1.6069 -4.6297 -0.0174
  736MOL0     H 1525  10.551  -1.530   4.307  2.6841 -0.7256 -0.9821
  736MOL0     H 1526  10.593  -1.139   4.070  2.3855  0.0128  0.6145
  736MOL0     H 1527  10.724  -1.115   3.750 -0.3825 -1.4273  0.2523
  736MOL0     H 1528  10.649  -1.033   3.883  1.8807 -0.3176 -0.6209
  736MOL0     H 1529  10.551  -1.120   3.760  0.5671 -0.4820 -0.8680
  736MOL0     H 1530  10.686  -1.608   3.542 -0.4462 -1.5000 -1.3257
  736MOL0     H 1531  10.712  -1.658   3.301 -2.2271  0.6989  1.5920
  736MOL0     H 1532  10.772  -1.665   3.053  0.3450  0.6108 -1.5340
  736MOL0     H 1533  10.745  -1.481   3.058  1.2298  1.9021 -1.2869
  736MOL0     H 1534  10.919  -1.452   2.896  3.1723 -0.3199  0.5391
  736MOL0     H 1535  10.989  -1.617   2.937 -0.1552  1.2264  1.6637
  736MOL0     H 1536  10.710  -1.575   2.806 -0.1187  0.9911  0.9921
  736MOL0     H 1537  10.831  -1.718   2.804  0.2194 -0.2730 -0.3859
  736MOL0     H 1538  10.973  -1.568   2.681 -0.1642  1.3485  4.8333
  736MOL0     H 1539  10.842  -1.448   2.661  0.6221  1.0186  2.2686
  736MOL0     H 1540  10.873  -1.733   2.554  0.0001  0.1923 -1.1424
  736MOL0     H 1541  10.709  -1.652   2.551  0.0974 -3.3042  2.3395
  736MOL0     H 1542  10.964  -1.553   2.418 -0.1933  0.7912 -2.6060
  736MOL0     H 1543  10.800  -1.476   2.411  1.2147  0.4284 -1.7149
  736MOL0     H 1544  10.898  -1.738   2.308 -2.1475 -2.0753 -0.8412
  736MOL0     H 1545  10.850  -1.595   2.209 -1.1384 -2.8430 -1.8381
  736MOL0     H 1546  10.642  -1.750   2.382 -0.2357  0.1739  0.0994
  736MOL0     H 1547  10.674  -1.756   2.208  1.7020 -0.1106 -0.3539
  736MOL0     H 1548  11.054  -1.374   3.307  0.5154 -0.9903  0.2465
  736MOL0     H 1549  11.030  -1.355   3.550 -1.4901  1.6717 -0.5240
  736MOL0     H 1550  10.749  -1.568   3.888  0.0172 -1.2583  2.9131
  736MOL0     H 1551  10.659  -1.558   4.116  0.6202  0.2466 -0.5813
  736MOL0     H 1552  10.334  -0.451   3.834  1.2550 -0.1367 -0.1168
  736MOL0     H 1553  10.366  -0.259   3.698  1.7935  1.1480  0.1109
  736MOL0     H 1554  10.647   0.302   3.806 -1.1903 -1.3170  0.5427
  736MOL0     H 1555  10.743   0.430   3.598 -0.3523  0.5872 -1.6327
  736MOL0     H 1556  10.766   0.559   3.452  0.7949 -2.0474 -0.5509
  736MOL0     H 1557  10.684   0.591   3.290  2.4574 -2.5055 -0.3562
  736MOL0     H 1558  10.546   0.602   3.560  0.3800  3.3235  1.0683
  736MOL0     H 1559  10.476   0.659   3.410  0.5372  1.3958 -1.1022
  736MOL0     H 1560  10.615   0.821   3.596  0.4982  0.4568 -0.0554
  736MOL0     H 1561  10.745   0.791   3.477  0.2338  0.1053  0.0206
  736MOL0     H 1562  10.608   0.998   3.433  2.0798  0.3213 -1.4890
  736MOL0     H 1563  10.469   0.894   3.428 -0.3274  1.7854  2.8567
  736MOL0     H 1564  10.656   0.896   3.048  0.0680 -1.2551 -0.5248
  736MOL0     H 1565  10.410   0.272   3.377 -0.0533 -0.3809  1.1430
  736MOL0     H 1566  10.250   0.123   3.645  1.9438  2.9941  2.3417
  736MOL0     H 1567  10.250   0.140   3.475 -0.6595 -1.7785  0.4409
  736MOL0     H 1568  10.324  -0.007   3.536  1.8096  0.4573  0.8576
  737MOL0     O 1569   0.453   8.502   2.091 -0.8053 -0.1916  0.2223
  737MOL0     C 1570   0.441   8.561   1.981 -0.1948  0.4201 -0.9551
  737MOL0     O 1571   0.541   8.617   1.913  0.2721 -0.7583  0.5596
  737MOL0     C 1572   0.662   8.626   1.962  0.0320  0.0448 -0.0878
  737MOL0     C 1573   0.714   8.748   2.011  1.3742  0.5581 -0.0594
  737MOL0     C 1574   0.834   8.751   2.081 -0.2313  0.2440 -0.4916
  737MOL0     C 1575   0.912   8.638   2.086 -0.4454 -0.4525  0.3530
  737MOL0     O 1576   1.039   8.649   2.143  0.2918 -0.3409  0.1106
  737MOL0     C 1577   1.158   8.597   2.079 -1.2598  0.4164  0.3773
  737MOL0     C 1578   1.249   8.530   2.193  0.5533 -0.4401 -0.4736
  737MOL0     C 1579   1.386   8.477   2.148 -0.7536  0.6059  0.1717
  737MOL0     C 1580   1.492   8.591   2.138 -0.3230  0.2090  0.3018
  737MOL0     C 1581   1.644   8.547   2.128  0.4870 -0.8169 -0.4667
  737MOL0     C 1582   1.744   8.665   2.138  0.3432  1.2350 -0.3933
  737MOL0     C 1583   1.872   8.635   2.050  0.3074  0.0929 -1.3204
  737MOL0     C 1584   1.965   8.528   2.117 -0.1508 -0.7930  0.3419
  737MOL0     N 1585   2.054   8.581   2.223  0.0507 -0.3898  0.2842
  737MOL0     C 1586   2.192   8.568   2.216  0.2917  0.2341 -0.5066
  737MOL0     C 1587   2.237   8.639   2.322 -0.3881  0.3227  0.2298
  737MOL0     C 1588   2.375   8.634   2.354 -0.6871  0.2246  0.4895
  737MOL0     C 1589   2.469   8.676   2.234  0.9148  0.2686  0.6271
  737MOL0     C 1590   2.436   8.815   2.181  0.4924  0.8960 -0.2883
  737MOL0     C 1591   2.542   8.859   2.076  0.2286 -0.8145 -0.7112
  737MOL0     O 1592   2.493   8.979   2.007  0.2874  0.9453  0.5865
  737MOL0     C 1593   2.470   9.086   2.091 -0.6507 -0.0022 -0.1804
  737MOL0     C 1594   2.570   9.118   2.180 -0.6177  0.2797 -0.6098
  737MOL0     C 1595   2.542   9.215   2.286  0.7534  0.6372  1.1153
  737MOL0     C 1596   2.641   9.228   2.387  0.6431  0.3520 -0.2074
  737MOL0     C 1597   2.420   9.285   2.287  0.3835 -0.2241  0.6906
  737MOL0     C 1598   2.387   9.366   2.404  1.2922 -1.1949  0.2397
  737MOL0     O 1599   2.420   9.334   2.537  0.5041 -0.4115 -0.6407
  737MOL0     C 1600   2.375   9.419   2.638  0.1707  0.0001  0.5679
  737MOL0     C 1601   2.291   9.366   2.729 -1.3210  0.9456 -0.4411
  737MOL0     C 1602   2.252   9.439   2.832 -0.9582  0.5098 -0.0439
  737MOL0     C 1603   2.297   9.565   2.856  0.5411 -0.9174 -0.7263
  737MOL0     O 1604   2.265   9.614   2.978 -0.7826 -0.0719  0.2991
  737MOL0     C 1605   2.326   9.734   3.016  0.5893  0.6049 -0.3392
  737MOL0     C 1606   2.274   9.776   3.151  0.1509 -0.5517 -0.0515
  737MOL0     C 1607   2.313   9.923   3.196  0.2617  0.3868  0.1318
  737MOL0     C 1608   2.274   9.955   3.345 -0.0059 -0.5201  0.2081
  737MOL0     C 1609   2.320  10.090   3.400 -0.2036 -0.3787  0.1303
  737MOL0     C 1610   2.469  10.107   3.413 -0.6332 -1.2558  0.4006
  737MOL0     C 1611   2.512  10.178   3.546  0.2015  0.1092 -0.4978
  737MOL0     C 1612   2.471  10.327   3.544  0.1138  0.0940  0.2597
  737MOL0    Cl 1613   2.539  10.404   3.689 -0.0645  0.1883 -0.1219
  737MOL0     C 1614   2.383   9.629   2.761  0.3412 -0.1343  0.0464
  737MOL0     C 1615   2.416   9.547   2.650 -0.3298  0.3674  0.4043
  737MOL0     O 1616   2.328   9.471   2.374  0.4569  0.5893 -0.7470
  737MOL0     C 1617   2.324   9.265   2.188 -0.4385 -0.2441 -0.1304
  737MOL0     C 1618   2.354   9.163   2.096  0.2099 -0.2832 -0.6462
  737MOL0     N 1619   2.127   8.705   2.393  0.0976 -0.4899  0.3879
  737MOL0     N 1620   2.023   8.661   2.332 -0.1088  0.3427 -0.4237
  737MOL0     C 1621   0.872   8.519   2.028 -0.0853 -1.2962 -0.1598
  737MOL0     C 1622   0.747   8.512   1.962 -0.3488 -0.3939  0.3955
  737MOL0     C 1623   0.301   8.583   1.928  0.0419 -0.3722 -0.7429
  737MOL0     C 1624   0.291   8.667   1.815 -0.4082  0.2461  0.6530
  737MOL0     C 1625   0.167   8.700   1.759  0.4784  0.5994 -0.7053
  737MOL0     C 1626   0.054   8.661   1.811  0.2199 -0.6494 -1.2937
  737MOL0     O 1627  -0.067   8.713   1.759  1.3320  0.0957 -0.3191
  737MOL0     C 1628  -0.199   8.696   1.820  0.0099 -0.0952  0.4738
  737MOL0     C 1629  -0.296   8.796   1.754  0.5635  0.0493 -0.0780
  737MOL0     C 1630  -0.431   8.801   1.803 -0.4860  0.4001 -0.6022
  737MOL0     C 1631  -0.520   8.847   1.693  0.0674  0.4187  0.0067
  737MOL0     C 1632  -0.655   8.817   1.747 -0.1326 -0.6732 -0.3282
  737MOL0     C 1633  -0.752   8.789   1.808 -0.2474  0.4134 -0.3714
  737MOL0     C 1634   0.065   8.589   1.931  0.5901  0.6144  0.7004
  737MOL0     C 1635   0.182   8.537   1.990 -0.0715 -0.2900  0.2890
  737MOL0     C 1636   0.182   8.450   2.107 -0.1912 -1.1080 -0.4405
  737MOL0     H 1637   0.655   8.836   1.987 -0.1439  0.7538  3.6923
  737MOL0     H 1638   0.860   8.840   2.138  0.4449  0.0025 -0.4186
  737MOL0     H 1639   1.213   8.668   2.017  2.0206 -4.5498 -3.2734
  737MOL0     H 1640   1.138   8.523   2.001  0.4714  0.4006 -0.0839
  737MOL0     H 1641   1.251   8.604   2.274 -0.2129 -0.5266 -0.3705
  737MOL0     H 1642   1.201   8.445   2.241  1.7640 -0.2222  1.2083
  737MOL0     H 1643   1.407   8.409   2.231  1.6431 -2.2402 -2.5124
  737MOL0     H 1644   1.389   8.414   2.059  1.5571  1.7988 -0.6767
  737MOL0     H 1645   1.469   8.660   2.057 -3.5978  2.3846  2.8138
  737MOL0     H 1646   1.491   8.658   2.224  1.1930 -0.3942  0.8348
  737MOL0     H 1647   1.653   8.487   2.036  1.3141 -1.3065 -0.0824
  737MOL0     H 1648   1.659   8.487   2.218 -1.0825  1.2137  1.2434
  737MOL0     H 1649   1.698   8.754   2.093  0.3251  1.8925  0.8894
  737MOL0     H 1650   1.775   8.696   2.238  1.7113  3.7599 -1.4929
  737MOL0     H 1651   1.924   8.730   2.040  1.9592 -0.5653  0.4085
  737MOL0     H 1652   1.828   8.607   1.954  1.3914  2.5898 -2.6265
  737MOL0     H 1653   1.900   8.454   2.164 -3.8761  2.1515  0.3219
  737MOL0     H 1654   2.023   8.479   2.038 -0.6420  1.3772 -1.4436
  737MOL0     H 1655   2.240   8.500   2.146  0.2657 -1.0279  0.6652
  737MOL0     H 1656   2.407   8.529   2.362  2.9756  1.0003 -1.5174
  737MOL0     H 1657   2.393   8.684   2.449  3.6310  0.0891 -0.0325
  737MOL0     H 1658   2.577   8.671   2.250  1.0158 -1.0111 -0.2518
  737MOL0     H 1659   2.455   8.610   2.148  1.7208 -1.3128  1.6680
  737MOL0     H 1660   2.337   8.821   2.135  1.1105  1.3239 -1.6161
  737MOL0     H 1661   2.439   8.876   2.272 -2.0144  0.8068 -0.0810
  737MOL0     H 1662   2.638   8.857   2.129  0.3907  1.4716 -0.8460
  737MOL0     H 1663   2.565   8.777   2.008 -2.0573 -2.9116  0.8372
  737MOL0     H 1664   2.667   9.071   2.184 -1.3830 -1.4105 -1.0421
  737MOL0     H 1665   2.662   9.335   2.393 -4.0387  1.4371  0.7165
  737MOL0     H 1666   2.723   9.162   2.357 -0.3738 -0.1485 -2.0603
  737MOL0     H 1667   2.596   9.184   2.477  4.2997 -0.5210  1.3653
  737MOL0     H 1668   2.259   9.262   2.735 -2.7746  1.4183  0.7046
  737MOL0     H 1669   2.193   9.403   2.916 -0.3387 -1.1718 -0.2912
  737MOL0     H 1670   2.434   9.720   3.017  0.4009 -2.1955 -3.4118
  737MOL0     H 1671   2.295   9.810   2.944 -0.7659  1.0465  0.6495
  737MOL0     H 1672   2.166   9.771   3.130  0.2548  1.8151 -1.5827
  737MOL0     H 1673   2.295   9.710   3.236  2.6899  2.8501  2.2451
  737MOL0     H 1674   2.267  10.000   3.133 -2.8189  1.6445  3.5964
  737MOL0     H 1675   2.421   9.939   3.192  0.3264  0.5760  2.0365
  737MOL0     H 1676   2.332   9.882   3.402 -2.1372 -3.0207 -0.6178
  737MOL0     H 1677   2.168   9.936   3.366 -0.9416  0.1741 -3.2570
  737MOL0     H 1678   2.287  10.172   3.336  3.1105  0.5511 -0.5440
  737MOL0     H 1679   2.279  10.086   3.502  1.7403 -2.6513  0.9279
  737MOL0     H 1680   2.493  10.169   3.327 -3.0919 -0.3985  0.2499
  737MOL0     H 1681   2.522  10.011   3.409 -1.7482 -1.8568 -0.4620
  737MOL0     H 1682   2.621  10.182   3.556  0.1144 -1.2346  1.3357
  737MOL0     H 1683   2.475  10.123   3.633 -2.1948  0.4804 -1.2297
  737MOL0     H 1684   2.362  10.333   3.554  0.0028  1.4229 -1.3267
  737MOL0     H 1685   2.496  10.376   3.449 -1.3655  0.6630  0.1424
  737MOL0     H 1686   2.415   9.732   2.774  0.5222 -0.1235 -0.4472
  737MOL0     H 1687   2.485   9.582   2.574 -2.6956  1.9141 -1.1454
  737MOL0     H 1688   2.237   9.327   2.168  1.6412  1.7674 -4.2574
  737MOL0     H 1689   2.296   9.135   2.009  3.7349 -2.7494 -2.4518
  737MOL0     H 1690   0.944   8.441   2.051  1.1591  0.0076  0.5588
  737MOL0     H 1691   0.708   8.422   1.915  0.5214 -0.9154  0.6523
  737MOL0     H 1692   0.384   8.700   1.769 -0.9785  1.3643  0.2656
  737MOL0     H 1693   0.156   8.761   1.669 -0.0131  1.4576 -0.0792
  737MOL0     H 1694  -0.238   8.594   1.804 -1.5585  0.4893  0.3783
  737MOL0     H 1695  -0.180   8.705   1.927  2.5807  1.3531 -0.0217
  737MOL0     H 1696  -0.298   8.777   1.646 -0.1501 -3.5579  0.4588
  737MOL0     H 1697  -0.260   8.898   1.771 -1.6091  0.4204  3.2689
  737MOL0     H 1698  -0.469   8.702   1.829  3.6891 -1.4245 -0.6095
  737MOL0     H 1699  -0.447   8.870   1.886 -3.5136  0.5157 -1.1512
  737MOL0     H 1700  -0.506   8.788   1.602  2.3574  0.8307  0.0161
  737MOL0     H 1701  -0.507   8.955   1.679 -0.5703  0.6831  1.3152
  737MOL0     H 1702  -0.836   8.764   1.870  1.2257 -3.8077  0.2379
  737MOL0     H 1703  -0.025   8.553   1.980  0.8319  1.1276  1.5497
  737MOL0     H 1704   0.199   8.495   2.205  2.2876 -1.4713 -0.6382
  737MOL0     H 1705   0.087   8.395   2.102 -1.1746  0.4455  0.2677
  737MOL0     H 1706   0.266   8.387   2.077 -0.5674 -0.4862 -3.0132
  738MOL0     O 1707   2.263   0.329  10.850 -0.7645  0.2734 -0.2806
  738MOL0     C 1708   2.318   0.278  10.754  0.2015 -0.2073  0.5462
  738MOL0     O 1709   2.434   0.204  10.761  0.0240  0.2458 -0.3149
  738MOL0     C 1710   2.466   0.116  10.865  0.3209 -0.3829 -0.4193
  738MOL0     C 1711   2.374   0.068  10.961 -0.4768 -0.5003 -0.5147
  738MOL0     C 1712   2.411  -0.029  11.058  0.7449  0.2201  0.1695
  738MOL0     C 1713   2.539  -0.088  11.058  0.6984  0.0361 -0.2719
  738MOL0     O 1714   2.546  -0.193  11.144 -0.3211  0.5883  0.3245
  738MOL0     C 1715   2.662  -0.268  11.123  0.3414  0.5474 -0.1750
  738MOL0     C 1716   2.652  -0.389  11.217  0.0769 -0.3213  0.1158
  738MOL0     C 1717   2.523  -0.471  11.219 -0.0046 -0.0675  0.2909
  738MOL0     C 1718   2.488  -0.511  11.072  0.2955  0.3622  0.5973
  738MOL0     C 1719   2.354  -0.586  11.047 -0.2320 -0.9360  0.0792
  738MOL0     C 1720   2.364  -0.721  11.119 -1.0371 -0.1340  0.3939
  738MOL0     C 1721   2.232  -0.796  11.109 -0.9585 -0.6318 -1.0014
  738MOL0     C 1722   2.221  -0.885  10.982  0.1263  0.2119 -0.6403
  738MOL0     N 1723   2.093  -0.951  10.965 -1.1793  0.2043 -0.4575
  738MOL0     C 1724   2.041  -1.041  11.064 -0.4598 -0.2032 -0.3677
  738MOL0     C 1725   1.922  -1.073  11.014  0.8254 -0.2372  1.0180
  738MOL0     C 1726   1.834  -1.169  11.069 -1.1257 -0.0534 -1.3847
  738MOL0     C 1727   1.803  -1.142  11.218 -0.1334 -0.8254 -0.1920
  738MOL0     C 1728   1.753  -1.006  11.239  0.6093 -0.3592 -0.1975
  738MOL0     C 1729   1.732  -0.969  11.395 -0.4091  0.0291 -0.8640
  738MOL0     O 1730   1.686  -1.087  11.467 -1.0958  0.9396  0.1136
  738MOL0     C 1731   1.555  -1.101  11.495 -0.2183 -0.2018  0.4947
  738MOL0     C 1732   1.466  -1.118  11.389  0.3278  0.5271 -0.6144
  738MOL0     C 1733   1.326  -1.150  11.427 -0.6169  0.2747 -0.2338
  738MOL0     C 1734   1.210  -1.153  11.316 -0.4208  0.3523 -0.2508
  738MOL0     C 1735   1.293  -1.174  11.567  0.2540  0.2634  0.4098
  738MOL0     C 1736   1.161  -1.225  11.601  0.0285  0.4989 -0.0513
  738MOL0     O 1737   1.088  -1.303  11.510 -0.3615 -0.0623  0.3436
  738MOL0     C 1738   0.964  -1.332  11.539 -0.2902  0.3060  0.0274
  738MOL0     C 1739   0.862  -1.271  11.475  0.4739 -0.6394  0.3510
  738MOL0     C 1740   0.723  -1.301  11.503 -0.2359  0.5729  1.0561
  738MOL0     C 1741   0.690  -1.375  11.617  1.0396 -0.6825 -0.2218
  738MOL0     O 1742   0.564  -1.386  11.652  0.0937 -0.3689 -0.3634
  738MOL0     C 1743   0.515  -1.497  11.719 -0.1785 -0.0750  0.3764
  738MOL0     C 1744   0.362  -1.478  11.713  1.0035  0.2079  0.8613
  738MOL0     C 1745   0.286  -1.403  11.821  0.0962 -0.0141  0.2204
  738MOL0     C 1746   0.369  -1.304  11.906 -0.2713 -0.2586 -0.2501
  738MOL0     C 1747   0.288  -1.217  12.004  0.2940 -0.0847 -0.1610
  738MOL0     C 1748   0.231  -1.097  11.933 -0.9828  0.1869 -0.9248
  738MOL0     C 1749   0.199  -0.974  12.013 -0.1095  0.3575  0.2654
  738MOL0     C 1750   0.101  -0.889  11.929 -1.0634  0.1697  0.9330
  738MOL0    Cl 1751  -0.056  -0.982  11.898  0.4007 -0.2993  0.1482
  738MOL0     C 1752   0.799  -1.447  11.674  0.6683  1.0014 -0.1742
  738MOL0     C 1753   0.932  -1.426  11.632 -0.0236  0.0783 -1.0257
  738MOL0     O 1754   1.117  -1.184  11.711  0.5215 -0.1926  0.4453
  738MOL0     C 1755   1.390  -1.158  11.663  0.7807  0.6909 -0.7799
  738MOL0     C 1756   1.516  -1.137  11.627  0.7601 -0.3837 -0.0744
  738MOL0     N 1757   1.897  -0.998  10.900 -0.3736  0.2888  0.0198
  738MOL0     N 1758   2.003  -0.938  10.872 -0.2129  0.1736  0.9670
  738MOL0     C 1759   2.625  -0.048  10.961 -0.7144 -0.1298 -0.3193
  738MOL0     C 1760   2.586   0.052  10.870 -0.2451  0.3445  0.1408
  738MOL0     C 1761   2.286   0.336  10.616  0.8142  0.4039 -0.8707
  738MOL0     C 1762   2.400   0.366  10.534 -0.7412  0.5395 -0.2430
  738MOL0     C 1763   2.393   0.407  10.404  0.0997 -0.3234  0.4335
  738MOL0     C 1764   2.265   0.413  10.346  0.2514  0.3671  0.6929
  738MOL0     O 1765   2.242   0.434  10.206 -0.4810 -0.9620  0.6539
  738MOL0     C 1766   2.348   0.440  10.105  0.2261  0.6791  0.0564
  738MOL0     C 1767   2.410   0.293  10.075  0.3044 -0.3285  0.0764
  738MOL0     C 1768   2.363   0.246   9.933 -0.7451  0.6857 -0.1554
  738MOL0     C 1769   2.487   0.238   9.831  0.1210 -0.9544 -0.0528
  738MOL0     C 1770   2.536   0.375   9.794  0.5662  0.0557 -0.4244
  738MOL0     C 1771   2.595   0.477   9.764 -0.4537 -0.6859  0.3889
  738MOL0     C 1772   2.151   0.386  10.418  0.9871  1.1010 -0.8739
  738MOL0     C 1773   2.160   0.359  10.559 -1.0168  1.1067  0.4055
  738MOL0     C 1774   2.037   0.314  10.641  0.0282  0.2176 -0.3101
  738MOL0     H 1775   2.278   0.118  10.972  0.2010  0.6030  0.6130
  738MOL0     H 1776   2.327  -0.064  11.116 -0.8835  0.3550 -1.9614
  738MOL0     H 1777   2.750  -0.206  11.146  1.7543 -0.8473 -1.5503
  738MOL0     H 1778   2.670  -0.303  11.019 -1.6637 -0.0055 -0.1740
  738MOL0     H 1779   2.735  -0.457  11.197 -0.9527 -0.9108 -2.5727
  738MOL0     H 1780   2.662  -0.348  11.318 -2.1342  0.3259  0.1317
  738MOL0     H 1781   2.552  -0.564  11.268  1.6804  0.4143  0.2848
  738MOL0     H 1782   2.443  -0.422  11.277 -0.0238  4.5223 -3.0582
  738MOL0     H 1783   2.500  -0.429  11.001 -0.4841  0.4307  0.5379
  738MOL0     H 1784   2.577  -0.565  11.037  0.5334  1.4144 -0.5064
  738MOL0     H 1785   2.351  -0.605  10.939 -1.4151  0.3050 -0.1379
  738MOL0     H 1786   2.272  -0.524  11.084  0.1618 -1.1012  1.2668
  738MOL0     H 1787   2.435  -0.786  11.069  0.2772  0.6805  1.1388
  738MOL0     H 1788   2.382  -0.700  11.225  1.8395  1.5539 -0.3141
  738MOL0     H 1789   2.143  -0.733  11.121 -0.9513 -1.0693  2.2577
  738MOL0     H 1790   2.232  -0.868  11.191  1.1779 -4.0810 -3.7099
  738MOL0     H 1791   2.245  -0.818  10.899  1.3865  1.1335  0.4203
  738MOL0     H 1792   2.291  -0.969  10.989 -0.6936 -0.3720  3.2130
  738MOL0     H 1793   2.083  -1.082  11.155 -1.5254 -2.1143 -0.6845
  738MOL0     H 1794   1.894  -1.260  11.058 -1.1089 -0.0826 -1.0699
  738MOL0     H 1795   1.737  -1.173  11.020 -1.1789 -1.2757 -1.2059
  738MOL0     H 1796   1.724  -1.210  11.250 -2.1207  2.9493  4.0593
  738MOL0     H 1797   1.889  -1.165  11.282 -0.0334  0.6845  0.2656
  738MOL0     H 1798   1.825  -0.939  11.190  1.8566 -1.2391  0.3906
  738MOL0     H 1799   1.655  -0.999  11.190  0.6414  2.1358 -0.0719
  738MOL0     H 1800   1.823  -0.943  11.449 -0.7308 -1.3466  0.4094
  738MOL0     H 1801   1.655  -0.895  11.418 -2.0751 -1.9082  0.0376
  738MOL0     H 1802   1.511  -1.098  11.292  2.2809 -0.8930 -0.0687
  738MOL0     H 1803   1.194  -1.246  11.261  1.1912  0.6418 -1.2687
  738MOL0     H 1804   1.236  -1.086  11.233  0.8546 -0.7138 -0.7356
  738MOL0     H 1805   1.113  -1.112  11.347 -0.1907 -0.1296  1.1498
  738MOL0     H 1806   0.872  -1.179  11.417 -1.7740 -0.1047  0.7270
  738MOL0     H 1807   0.644  -1.260  11.440  0.1865 -0.0355  0.0971
  738MOL0     H 1808   0.553  -1.586  11.666 -2.6760 -0.6933 -0.5130
  738MOL0     H 1809   0.541  -1.498  11.825 -4.0585 -1.4437  1.4820
  738MOL0     H 1810   0.329  -1.433  11.619 -0.2876  2.5105  2.3005
  738MOL0     H 1811   0.327  -1.581  11.717 -1.6161  1.0833  2.7118
  738MOL0     H 1812   0.254  -1.478  11.894  2.6058  0.8748  2.3747
  738MOL0     H 1813   0.196  -1.358  11.778 -1.5434 -1.3845  2.0603
  738MOL0     H 1814   0.432  -1.244  11.839  0.4925 -0.6219  0.1323
  738MOL0     H 1815   0.439  -1.369  11.959 -0.2248 -0.6596 -0.7919
  738MOL0     H 1816   0.210  -1.270  12.058  0.3121  2.0023  2.0848
  738MOL0     H 1817   0.357  -1.181  12.081 -0.3316  1.4737 -0.2936
  738MOL0     H 1818   0.145  -1.132  11.874 -0.5258 -3.0836  0.1181
  738MOL0     H 1819   0.304  -1.056  11.862 -1.3685  0.2496 -1.2907
  738MOL0     H 1820   0.295  -0.926  12.036 -0.7628  0.8571  2.1043
  738MOL0     H 1821   0.155  -0.990  12.111  1.0453 -0.1838  0.7159
  738MOL0     H 1822   0.161  -0.854  11.844  1.0024 -0.4205  2.0884
  738MOL0     H 1823   0.094  -0.790  11.976  0.3002 -0.0891  1.7190
  738MOL0     H 1824   0.775  -1.509  11.760 -0.5106  4.5505  2.2920
  738MOL0     H 1825   1.008  -1.487  11.681 -1.3459 -0.1393  0.8566
  738MOL0     H 1826   1.367  -1.184  11.766  0.3854  0.4351 -0.9318
  738MOL0     H 1827   1.590  -1.129  11.706  0.4929  0.5058  0.0869
  738MOL0     H 1828   2.720  -0.099  10.946  0.1326  0.9197  1.3357
  738MOL0     H 1829   2.661   0.082  10.797  0.3204  2.4699  1.5089
  738MOL0     H 1830   2.499   0.340  10.569 -0.5496  1.5659  0.0119
  738MOL0     H 1831   2.483   0.421  10.345  0.8944  2.0517  2.0587
  738MOL0     H 1832   2.302   0.483  10.016  0.9950  2.0207  0.2900
  738MOL0     H 1833   2.428   0.508  10.136  2.6278 -1.6931 -0.4997
  738MOL0     H 1834   2.380   0.228  10.158 -3.8010  1.4209  0.2147
  738MOL0     H 1835   2.518   0.310  10.074  0.2144  0.6347  2.0329
  738MOL0     H 1836   2.336   0.140   9.940 -1.2912  0.9179  2.5909
  738MOL0     H 1837   2.294   0.310   9.877  0.4422 -1.0599 -3.8701
  738MOL0     H 1838   2.452   0.178   9.747  0.5290  0.5799 -1.3909
  738MOL0     H 1839   2.574   0.188   9.874 -0.5100 -3.6247 -1.6199
  738MOL0     H 1840   2.623   0.574   9.729 -1.7047 -0.1229  0.9152
  738MOL0     H 1841   2.047   0.373  10.391 -0.6239  0.2714  4.4930
  738MOL0     H 1842   1.949   0.336  10.581 -3.1284 -3.0562  2.5873
  738MOL0     H 1843   2.028   0.205  10.647 -1.6145  0.3568  0.3198
  738MOL0     H 1844   2.022   0.363  10.738 -0.6123 -0.6306  0.0381
  739MOL0     O 1845   3.643   2.861   0.525  0.7268 -0.2042 -0.6777
  739MOL0     C 1846   3.633   2.976   0.567 -0.0396 -1.1183  0.5957
  739MOL0     O 1847   3.666   3.086   0.489 -0.3302 -0.3643  0.3258
  739MOL0     C 1848   3.752   3.073   0.383  0.1736  0.6526  0.2338
  739MOL0     C 1849   3.727   3.139   0.260  0.2649 -0.2169 -0.0983
  739MOL0     C 1850   3.815   3.122   0.160 -0.5832  0.0954 -0.4729
  739MOL0     C 1851   3.921   3.033   0.170  0.3544 -0.0880  1.4713
  739MOL0     O 1852   3.998   3.032   0.058  0.4238 -0.3877  0.5345
  739MOL0     C 1853   4.134   3.033   0.076 -0.2101 -0.0346 -0.6253
  739MOL0     C 1854   4.199   3.036  -0.063 -0.6017 -0.4036 -0.2207
  739MOL0     C 1855   4.190   3.174  -0.128 -0.0948 -0.2067  0.4636
  739MOL0     C 1856   4.234   3.175  -0.278  0.6918 -0.0175 -0.3685
  739MOL0     C 1857   4.210   3.291  -0.371 -0.5925  0.5511  0.0023
  739MOL0     C 1858   4.250   3.423  -0.305  0.0339  0.9589  0.4687
  739MOL0     C 1859   4.403   3.422  -0.273  0.2882 -0.0962  0.3200
  739MOL0     C 1860   4.435   3.496  -0.140 -0.3843  0.0101  0.1013
  739MOL0     N 1861   4.418   3.635  -0.150 -0.0668 -0.6115 -0.4072
  739MOL0     C 1862   4.323   3.718  -0.087 -0.1046 -0.2823 -0.9981
  739MOL0     C 1863   4.362   3.847  -0.103 -0.4552  0.2801  0.5334
  739MOL0     C 1864   4.291   3.964  -0.068  0.4940 -0.9933  0.0735
  739MOL0     C 1865   4.221   4.046  -0.186 -0.7658 -0.0696 -1.5625
  739MOL0     C 1866   4.090   3.992  -0.247  0.0776  0.1707 -0.3110
  739MOL0     C 1867   4.114   3.962  -0.393  0.3216  0.4241  0.1460
  739MOL0     O 1868   4.211   3.858  -0.408 -0.4009 -0.8341 -0.9772
  739MOL0     C 1869   4.275   3.858  -0.529  1.1122 -0.0107  0.7121
  739MOL0     C 1870   4.369   3.762  -0.537 -0.8233 -0.3322 -0.5687
  739MOL0     C 1871   4.428   3.731  -0.660 -0.1728  0.2498 -0.1257
  739MOL0     C 1872   4.524   3.624  -0.653  0.1523  0.5191 -0.7279
  739MOL0     C 1873   4.396   3.796  -0.779 -0.2206 -0.2355 -0.9585
  739MOL0     C 1874   4.472   3.787  -0.905  0.0436 -0.2673  0.2024
  739MOL0     O 1875   4.401   3.836  -1.015  0.0069  0.2395  0.0105
  739MOL0     C 1876   4.462   3.856  -1.128 -1.0701 -0.0371  1.5337
  739MOL0     C 1877   4.426   3.780  -1.242 -1.2917 -0.6696  0.2715
  739MOL0     C 1878   4.494   3.805  -1.364  0.1038 -0.9399  0.9043
  739MOL0     C 1879   4.590   3.917  -1.368 -0.2169 -0.2022  0.1926
  739MOL0     O 1880   4.632   3.955  -1.498  0.7159 -0.2852  0.3320
  739MOL0     C 1881   4.751   4.033  -1.506  0.6500 -0.1562 -0.3175
  739MOL0     C 1882   4.817   4.024  -1.637 -1.2189 -0.5450  1.3429
  739MOL0     C 1883   4.863   3.879  -1.667 -0.0915  0.1074  0.0970
  739MOL0     C 1884   4.887   3.862  -1.814 -0.6968 -0.4018 -0.6844
  739MOL0     C 1885   4.939   3.723  -1.863 -0.0451  0.4275 -0.8948
  739MOL0     C 1886   4.921   3.711  -2.009 -0.1800  0.5745 -0.5052
  739MOL0     C 1887   4.974   3.577  -2.062  0.9898  0.3101  0.6319
  739MOL0     C 1888   4.964   3.576  -2.213 -0.1070  0.8442  0.0011
  739MOL0    Cl 1889   5.053   3.436  -2.274  0.4306 -0.8255 -0.1318
  739MOL0     C 1890   4.599   4.002  -1.262 -0.8510 -0.6639  0.3145
  739MOL0     C 1891   4.542   3.966  -1.141 -0.2264  0.1374  0.1561
  739MOL0     O 1892   4.587   3.737  -0.908  0.0019 -0.2609  0.2309
  739MOL0     C 1893   4.295   3.884  -0.771  0.6023 -0.9481  0.3302
  739MOL0     C 1894   4.235   3.922  -0.650  0.4508 -0.0560 -0.1376
  739MOL0     N 1895   4.485   3.848  -0.168 -0.3559  0.7525 -0.0293
  739MOL0     N 1896   4.511   3.723  -0.204 -0.6631 -0.3272 -0.5321
  739MOL0     C 1897   3.952   2.968   0.288  0.4813 -0.3669 -0.1622
  739MOL0     C 1898   3.869   2.995   0.394 -0.6373  0.4635 -0.5382
  739MOL0     C 1899   3.570   2.999   0.698 -0.5677  0.0279  0.8997
  739MOL0     C 1900   3.553   2.882   0.779 -0.4603  0.4330  0.1146
  739MOL0     C 1901   3.488   2.888   0.906 -0.6277 -0.2766  0.7395
  739MOL0     C 1902   3.446   3.010   0.957  0.6512 -1.1707 -0.9617
  739MOL0     O 1903   3.410   3.021   1.087 -0.9370  0.0917 -0.1658
  739MOL0     C 1904   3.279   3.025   1.128  0.3279 -0.6347 -0.5914
  739MOL0     C 1905   3.261   3.143   1.224 -0.2882  0.4596  1.1269
  739MOL0     C 1906   3.340   3.146   1.353 -0.5324  0.6903 -0.5092
  739MOL0     C 1907   3.285   3.070   1.478  0.1182  0.3811 -0.3594
  739MOL0     C 1908   3.159   2.998   1.450 -0.5383  0.6187  0.3234
  739MOL0     C 1909   3.055   2.943   1.436 -0.0486  0.2508  0.2807
  739MOL0     C 1910   3.457   3.130   0.868  0.4715  0.8361 -0.7227
  739MOL0     C 1911   3.522   3.122   0.744  0.0062  0.4715 -0.9757
  739MOL0     C 1912   3.523   3.250   0.654  0.4672  0.5457 -0.7373
  739MOL0     H 1913   3.645   3.210   0.248  2.1969  1.9106 -1.6121
  739MOL0     H 1914   3.797   3.174   0.066  0.2694 -1.1264 -1.3275
  739MOL0     H 1915   4.162   2.948   0.139 -0.8948 -0.3852 -0.7924
  739MOL0     H 1916   4.164   3.127   0.124  3.5701  0.1331 -2.9284
  739MOL0     H 1917   4.304   3.014  -0.045 -0.9357 -0.4307  2.1194
  739MOL0     H 1918   4.155   2.964  -0.132 -0.9025 -1.0772  0.6442
  739MOL0     H 1919   4.083   3.198  -0.124 -0.1548 -0.4814  0.5538
  739MOL0     H 1920   4.249   3.240  -0.064  2.2840 -2.0331  0.2842
  739MOL0     H 1921   4.339   3.143  -0.282 -0.3594 -3.8783 -1.4608
  739MOL0     H 1922   4.172   3.096  -0.322  0.8556 -0.2105 -0.2538
  739MOL0     H 1923   4.104   3.288  -0.399  0.1216 -0.5350 -2.8353
  739MOL0     H 1924   4.276   3.266  -0.454  2.2603  1.5363  1.8422
  739MOL0     H 1925   4.231   3.502  -0.378  1.0998 -0.3143 -1.2406
  739MOL0     H 1926   4.176   3.445  -0.226 -0.1155  0.0908  0.5798
  739MOL0     H 1927   4.462   3.459  -0.357 -0.2628  2.1918  0.8770
  739MOL0     H 1928   4.443   3.320  -0.265 -1.7992 -1.3273 -3.1440
  739MOL0     H 1929   4.378   3.448  -0.061 -0.1592 -3.3965 -1.5919
  739MOL0     H 1930   4.535   3.474  -0.103 -1.2353 -4.0185  0.4324
  739MOL0     H 1931   4.228   3.698  -0.039  0.0659 -3.2021 -1.6712
  739MOL0     H 1932   4.354   4.039  -0.018 -2.3204  2.0666 -0.6131
  739MOL0     H 1933   4.219   3.942   0.012  0.6652  1.3488  0.9353
  739MOL0     H 1934   4.200   4.134  -0.124  2.9688 -1.0123  1.3859
  739MOL0     H 1935   4.293   4.074  -0.263 -0.4520  1.5696 -0.7265
  739MOL0     H 1936   4.067   3.897  -0.197  0.2495  0.9756  1.3341
  739MOL0     H 1937   4.004   4.057  -0.230  1.6286  2.2619 -0.0747
  739MOL0     H 1938   4.016   3.930  -0.430 -0.1683 -0.7498  2.3127
  739MOL0     H 1939   4.135   4.056  -0.446  0.5464  0.0638 -0.4178
  739MOL0     H 1940   4.410   3.724  -0.445  0.0870  2.3782  0.2467
  739MOL0     H 1941   4.499   3.547  -0.579  0.2122 -1.0570 -2.3033
  739MOL0     H 1942   4.621   3.666  -0.624 -0.3797  1.0657  0.3395
  739MOL0     H 1943   4.538   3.564  -0.743 -0.9840 -0.1048 -0.5064
  739MOL0     H 1944   4.362   3.692  -1.234 -2.0380 -0.0272  1.7067
  739MOL0     H 1945   4.485   3.742  -1.452 -1.9576 -0.9940  1.1107
  739MOL0     H 1946   4.731   4.138  -1.484  3.1856 -0.1497  2.6441
  739MOL0     H 1947   4.818   4.003  -1.425 -0.1451 -1.3826 -0.0774
  739MOL0     H 1948   4.739   4.050  -1.709 -2.6487  1.4143  3.4429
  739MOL0     H 1949   4.905   4.087  -1.652 -0.7188 -1.6775 -0.8940
  739MOL0     H 1950   4.784   3.811  -1.633  1.1494 -1.2492  0.3936
  739MOL0     H 1951   4.959   3.853  -1.620  1.9776  0.0967 -3.7817
  739MOL0     H 1952   4.967   3.932  -1.840  2.2004 -2.3506  2.2598
  739MOL0     H 1953   4.790   3.888  -1.859 -2.1071 -0.2490  2.2245
  739MOL0     H 1954   5.046   3.717  -1.840 -0.3876 -1.6862  0.4690
  739MOL0     H 1955   4.897   3.638  -1.808 -0.6957  1.5789  0.4239
  739MOL0     H 1956   4.958   3.797  -2.065 -0.2590  1.5218  0.8426
  739MOL0     H 1957   4.814   3.723  -2.025 -0.2239  0.6228 -0.1927
  739MOL0     H 1958   4.912   3.497  -2.020  0.5171  0.7359  0.7544
  739MOL0     H 1959   5.080   3.568  -2.034  0.3064 -1.3883  3.0055
  739MOL0     H 1960   5.012   3.666  -2.253 -3.5703  2.6675 -0.4100
  739MOL0     H 1961   4.862   3.578  -2.253  0.7691  2.6253 -2.3263
  739MOL0     H 1962   4.659   4.092  -1.274 -0.9136 -0.8267 -1.3967
  739MOL0     H 1963   4.551   4.028  -1.052 -1.5682  0.9320 -0.2399
  739MOL0     H 1964   4.266   3.941  -0.858  1.0833 -1.3868 -0.1299
  739MOL0     H 1965   4.149   3.988  -0.649 -0.2509 -0.9546  0.3133
  739MOL0     H 1966   4.041   2.908   0.304  0.2821 -0.3102  1.2277
  739MOL0     H 1967   3.890   2.952   0.492 -1.8444  2.5950  0.7324
  739MOL0     H 1968   3.576   2.778   0.755  0.6552  1.2411 -2.7766
  739MOL0     H 1969   3.491   2.806   0.977 -0.6551  1.9435  3.4984
  739MOL0     H 1970   3.214   3.049   1.044  0.9892  0.3588 -0.8406
  739MOL0     H 1971   3.256   2.931   1.178 -0.1918 -1.4097 -2.2276
  739MOL0     H 1972   3.154   3.165   1.235 -0.4557 -1.3990  4.4801
  739MOL0     H 1973   3.290   3.227   1.160 -0.7968  0.3901  0.8013
  739MOL0     H 1974   3.433   3.096   1.325  0.4639  1.6049  1.0484
  739MOL0     H 1975   3.366   3.248   1.384 -0.0305  0.5842 -0.5742
  739MOL0     H 1976   3.264   3.139   1.561  0.4408  1.0194 -0.7958
  739MOL0     H 1977   3.354   2.992   1.509  0.7478 -0.1380 -2.8672
  739MOL0     H 1978   2.958   2.898   1.431 -0.4758  1.2017 -0.0748
  739MOL0     H 1979   3.412   3.223   0.901  0.6527  0.9368 -0.7582
  739MOL0     H 1980   3.480   3.218   0.559 -0.6633  4.1129 -1.5705
  739MOL0     H 1981   3.471   3.334   0.700  1.5056  0.0571  1.4711
  739MOL0     H 1982   3.631   3.265   0.649  1.4238 -3.9702  1.3875
  740MOL0     O 1983   2.364   8.906   5.785  0.6446  0.1595 -0.0595
  740MOL0     C 1984   2.360   8.912   5.656  0.9345 -0.6457  0.5791
  740MOL0     O 1985   2.297   9.010   5.581  0.9324  0.4909  0.4478
  740MOL0     C 1986   2.258   9.126   5.648  0.3176  0.0743 -0.7654
  740MOL0     C 1987   2.119   9.155   5.649  0.5100 -0.1826  1.0400
  740MOL0     C 1988   2.084   9.277   5.700 -0.3221 -1.3956 -0.1864
  740MOL0     C 1989   2.176   9.382   5.737  0.0832  0.7141 -0.0794
  740MOL0     O 1990   2.143   9.506   5.775 -0.6163  0.0114  0.2528
  740MOL0     C 1991   2.070   9.504   5.900 -0.4491 -0.4557  0.7595
  740MOL0     C 1992   2.143   9.602   6.001  0.5136  0.2335  0.1780
  740MOL0     C 1993   2.032   9.627   6.109  0.3630  0.8400 -0.4455
  740MOL0     C 1994   1.996   9.503   6.200 -0.0317  0.1336  0.2228
  740MOL0     C 1995   2.108   9.446   6.291  0.4539 -1.0288 -0.4995
  740MOL0     C 1996   2.163   9.554   6.396  0.1785  0.5447 -0.4434
  740MOL0     C 1997   2.276   9.511   6.497 -0.1696  0.2221  0.5377
  740MOL0     C 1998   2.229   9.426   6.604  0.1275 -0.0306  0.6266
  740MOL0     N 1999   2.336   9.384   6.692 -0.3898 -0.3028 -0.1890
  740MOL0     C 2000   2.378   9.259   6.706  0.4142  0.4485 -0.2105
  740MOL0     C 2001   2.487   9.266   6.793 -0.5955  0.1853  0.0772
  740MOL0     C 2002   2.568   9.163   6.851  0.2950 -1.1063  0.0396
  740MOL0     C 2003   2.535   9.143   6.997  0.1527  0.3620 -0.0076
  740MOL0     C 2004   2.623   9.028   7.052  0.0073  0.0125 -0.2943
  740MOL0     C 2005   2.644   9.067   7.204  1.0562  0.6177 -0.6108
  740MOL0     O 2006   2.665   8.949   7.277 -0.4755 -0.1058 -0.6127
  740MOL0     C 2007   2.724   8.956   7.403  0.1715 -0.2720  0.5496
  740MOL0     C 2008   2.768   8.835   7.454 -0.5244  0.4261  1.0458
  740MOL0     C 2009   2.801   8.814   7.592  0.0184  0.8257 -0.3567
  740MOL0     C 2010   2.843   8.676   7.624  0.1693 -0.9265  0.3366
  740MOL0     C 2011   2.780   8.918   7.688 -0.1111  0.0517 -0.1332
  740MOL0     C 2012   2.828   8.903   7.834  0.8690 -0.3420 -1.0386
  740MOL0     O 2013   2.893   8.799   7.890 -0.0970  0.0340 -0.5210
  740MOL0     C 2014   2.907   8.792   8.027  0.7454  0.9156  0.1154
  740MOL0     C 2015   2.855   8.674   8.074 -0.4706 -0.1604  0.7664
  740MOL0     C 2016   2.855   8.657   8.209  0.0134 -0.1486 -0.5829
  740MOL0     C 2017   2.902   8.741   8.301  0.0246  0.6551  0.5076
  740MOL0     O 2018   2.900   8.699   8.430  0.0611 -0.2877 -0.4421
  740MOL0     C 2019   2.928   8.794   8.543  0.4167 -0.6744  0.8420
  740MOL0     C 2020   2.928   8.730   8.682 -0.6728  0.1749 -0.3816
  740MOL0     C 2021   2.936   8.845   8.783 -0.3698  1.2380 -0.8276
  740MOL0     C 2022   2.972   8.795   8.919 -0.2522 -0.7861  0.2149
  740MOL0     C 2023   2.974   8.908   9.026  0.4640 -0.0257  0.7057
  740MOL0     C 2024   2.847   8.989   9.042  0.8254 -0.5974 -0.3704
  740MOL0     C 2025   2.849   9.060   9.173 -0.4474 -0.2873 -0.1164
  740MOL0     C 2026   2.714   9.118   9.211 -0.8496  0.0786  0.1929
  740MOL0    Cl 2027   2.726   9.210   9.373  0.3083 -0.2310 -0.6802
  740MOL0     C 2028   2.951   8.860   8.251 -0.5293 -0.3690 -0.7620
  740MOL0     C 2029   2.965   8.884   8.111 -0.7053 -0.4817  0.7827
  740MOL0     O 2030   2.764   8.984   7.903  0.7469 -0.0575 -0.7652
  740MOL0     C 2031   2.726   9.038   7.640 -0.3957  0.2294 -0.0935
  740MOL0     C 2032   2.708   9.060   7.502 -0.1985 -0.7955 -0.3760
  740MOL0     N 2033   2.497   9.390   6.839 -0.7632  0.4382 -0.7524
  740MOL0     N 2034   2.410   9.460   6.780  0.3910 -0.3269  0.1963
  740MOL0     C 2035   2.315   9.342   5.741  0.2406 -0.3102 -0.0467
  740MOL0     C 2036   2.351   9.208   5.701 -0.1284 -0.1971  1.0367
  740MOL0     C 2037   2.431   8.821   5.581  0.4539  1.2143  0.5782
  740MOL0     C 2038   2.564   8.794   5.627 -0.2062  0.4504  0.3346
  740MOL0     C 2039   2.649   8.699   5.566  0.3698 -0.0480  0.4044
  740MOL0     C 2040   2.609   8.630   5.451  0.1569 -1.1834 -0.2150
  740MOL0     O 2041   2.687   8.552   5.378 -0.3690 -0.0109 -0.3956
  740MOL0     C 2042   2.829   8.534   5.419 -0.5958 -0.6776  0.1268
  740MOL0     C 2043   2.899   8.467   5.297  0.9718  0.3338  0.2008
  740MOL0     C 2044   3.047   8.512   5.285 -0.2351 -0.6515  0.2599
  740MOL0     C 2045   3.105   8.497   5.136 -1.0696 -0.4982  0.9672
  740MOL0     C 2046   3.049   8.594   5.036 -1.3060 -0.4095 -0.6367
  740MOL0     C 2047   3.007   8.678   4.963 -0.4315 -0.2329 -0.1341
  740MOL0     C 2048   2.480   8.663   5.403 -0.1414  0.3104 -0.3734
  740MOL0     C 2049   2.392   8.747   5.467  0.6534 -0.0786  0.6079
  740MOL0     C 2050   2.260   8.783   5.396 -0.2102  0.4155  0.1032
  740MOL0     H 2051   2.047   9.084   5.610 -0.0594  1.0961 -0.3578
  740MOL0     H 2052   1.977   9.296   5.708 -0.0564  0.1609  0.1268
  740MOL0     H 2053   2.070   9.400   5.935  1.2704 -1.3570 -1.6621
  740MOL0     H 2054   1.970   9.544   5.881  0.4818  2.2609  1.2399
  740MOL0     H 2055   2.229   9.553   6.048  0.2059  0.3830  0.9101
  740MOL0     H 2056   2.174   9.693   5.949  2.4756 -1.5288 -1.9479
  740MOL0     H 2057   2.054   9.712   6.173  4.0107 -0.9133  0.8791
  740MOL0     H 2058   1.934   9.652   6.067 -0.4600  0.6527  1.2753
  740MOL0     H 2059   1.909   9.521   6.264  1.0711 -0.3249  1.8857
  740MOL0     H 2060   1.966   9.421   6.134 -1.8485  1.2096 -0.3794
  740MOL0     H 2061   2.196   9.411   6.237  1.7589  0.7832  0.3737
  740MOL0     H 2062   2.055   9.366   6.344 -1.8932  0.8729  0.1890
  740MOL0     H 2063   2.212   9.623   6.327 -0.8762  1.3910 -0.3697
  740MOL0     H 2064   2.085   9.608   6.451  0.1927  0.5513 -0.4298
  740MOL0     H 2065   2.326   9.593   6.550  0.3216 -2.3470  4.4206
  740MOL0     H 2066   2.353   9.454   6.444  0.2225  1.0625  0.1848
  740MOL0     H 2067   2.146   9.475   6.655  1.7088  0.6415  2.7002
  740MOL0     H 2068   2.180   9.340   6.556 -0.4040  1.1818 -1.0697
  740MOL0     H 2069   2.339   9.175   6.649  1.4157  0.8146 -1.4695
  740MOL0     H 2070   2.667   9.210   6.838 -0.0615 -0.4664 -0.4370
  740MOL0     H 2071   2.560   9.074   6.789 -1.8663 -1.1181  0.2846
  740MOL0     H 2072   2.551   9.238   7.047 -1.5017  1.6060 -1.6798
  740MOL0     H 2073   2.432   9.107   7.005 -0.2287  1.2123 -0.8987
  740MOL0     H 2074   2.577   8.929   7.036  3.8697 -1.8255 -1.2270
  740MOL0     H 2075   2.720   9.033   7.002  0.4045  2.4448  0.6091
  740MOL0     H 2076   2.719   9.144   7.224 -1.1008  2.6637  0.0694
  740MOL0     H 2077   2.549   9.111   7.234  1.4417  1.6644 -0.8702
  740MOL0     H 2078   2.781   8.747   7.393 -3.5891 -0.2860  1.2434
  740MOL0     H 2079   2.843   8.606   7.541  1.4102 -0.7229  0.1396
  740MOL0     H 2080   2.765   8.632   7.686 -1.6043 -1.4405 -2.1162
  740MOL0     H 2081   2.934   8.682   7.686  0.7185  3.2704 -0.5767
  740MOL0     H 2082   2.815   8.603   8.002  0.7558  0.9582 -1.1144
  740MOL0     H 2083   2.827   8.562   8.253  2.3293 -1.6685 -2.1220
  740MOL0     H 2084   3.018   8.854   8.522  0.4629 -0.9317  0.2793
  740MOL0     H 2085   2.835   8.851   8.546 -0.4103 -1.9770  0.3381
  740MOL0     H 2086   2.836   8.671   8.690  0.2135 -1.6342 -2.3657
  740MOL0     H 2087   3.010   8.661   8.705 -1.6304 -2.2998 -3.5046
  740MOL0     H 2088   2.838   8.890   8.798 -1.2233 -0.9459  0.7169
  740MOL0     H 2089   3.007   8.926   8.761  0.1588  1.0912  0.2297
  740MOL0     H 2090   3.068   8.742   8.916 -0.4183 -1.0576 -0.2480
  740MOL0     H 2091   2.908   8.715   8.958  0.4862 -2.4749 -1.8447
  740MOL0     H 2092   2.994   8.870   9.127 -2.1564  2.5245  2.3600
  740MOL0     H 2093   3.049   8.984   9.001 -2.5423  2.2317 -2.4467
  740MOL0     H 2094   2.768   8.914   9.033 -0.4896  0.8814 -2.0084
  740MOL0     H 2095   2.844   9.069   8.967 -0.3954  2.1102  2.3834
  740MOL0     H 2096   2.917   9.145   9.166 -1.2865  1.1054  4.9402
  740MOL0     H 2097   2.892   9.003   9.256 -0.9404 -0.4929  0.0043
  740MOL0     H 2098   2.641   9.039   9.231 -0.0928 -1.0045 -1.1397
  740MOL0     H 2099   2.677   9.183   9.131 -1.0135 -1.7563 -1.2789
  740MOL0     H 2100   2.998   8.930   8.319 -1.1157 -1.4272  0.8051
  740MOL0     H 2101   3.005   8.973   8.064  1.3030 -1.2240  0.9959
  740MOL0     H 2102   2.683   9.111   7.708 -1.0318 -1.3295  1.2594
  740MOL0     H 2103   2.658   9.154   7.481 -0.6651  0.1193  3.8559
  740MOL0     H 2104   2.395   9.410   5.767 -0.5117  0.0199  1.6051
  740MOL0     H 2105   2.458   9.190   5.697 -0.1745 -0.3989  0.6749
  740MOL0     H 2106   2.585   8.850   5.717 -0.0306  1.2251 -0.1720
  740MOL0     H 2107   2.742   8.677   5.618 -0.6145  0.2792  2.4423
  740MOL0     H 2108   2.878   8.626   5.452 -1.8361  0.7055 -1.6866
  740MOL0     H 2109   2.834   8.464   5.504  1.2733  1.2784  1.7506
  740MOL0     H 2110   2.858   8.501   5.202  2.6454 -1.4216 -1.2099
  740MOL0     H 2111   2.882   8.360   5.309  1.8003  0.3003  1.2678
  740MOL0     H 2112   3.054   8.614   5.323 -0.5955 -0.9367  1.1268
  740MOL0     H 2113   3.111   8.447   5.346  0.2723 -0.0125  0.4175
  740MOL0     H 2114   3.084   8.396   5.098  0.4693  0.5581 -3.2682
  740MOL0     H 2115   3.213   8.509   5.123 -1.2255 -0.4741 -0.4586
  740MOL0     H 2116   2.966   8.761   4.910  2.6625  1.0135 -0.7697
  740MOL0     H 2117   2.462   8.622   5.304  3.3048  1.2010 -1.5152
  740MOL0     H 2118   2.258   8.852   5.312 -0.5321  0.0682 -0.1776
  740MOL0     H 2119   2.221   8.686   5.364 -1.3546  0.3564  1.5682
  740MOL0     H 2120   2.186   8.820   5.467 -0.5983 -0.0348 -0.0647
  741MOL0     O 2121   6.857   4.691   6.448  0.1772 -0.5148 -0.1900
  741MOL0     C 2122   6.765   4.709   6.528 -0.1705 -0.2931  0.4426
  741MOL0     O 2123   6.679   4.824   6.517 -0.6459 -0.2081 -1.3186
  741MOL0     C 2124   6.722   4.928   6.447  0.8523 -0.2742  0.4953
  741MOL0     C 2125   6.633   4.980   6.350  0.9917  0.6525 -0.2486
  741MOL0     C 2126   6.662   5.102   6.292 -1.0893 -0.2247 -0.0825
  741MOL0     C 2127   6.785   5.166   6.307  0.3581  0.2544 -0.8875
  741MOL0     O 2128   6.817   5.278   6.234 -0.5110  0.6784 -0.9409
  741MOL0     C 2129   6.756   5.401   6.275 -0.5235  0.8456  0.0401
  741MOL0     C 2130   6.858   5.487   6.338 -0.6282 -0.3875  1.5061
  741MOL0     C 2131   6.922   5.599   6.239 -0.8119 -0.4157 -0.7035
  741MOL0     C 2132   6.825   5.719   6.235 -0.4859 -0.4384  0.1446
  741MOL0     C 2133   6.863   5.816   6.127 -1.3995 -0.3593 -0.0987
  741MOL0     C 2134   6.947   5.927   6.193 -0.2053 -0.8026  1.5078
  741MOL0     C 2135   6.957   6.052   6.107 -0.4481  0.8023  0.4518
  741MOL0     C 2136   7.096   6.108   6.076  0.9623 -0.3975 -0.3970
  741MOL0     N 2137   7.169   6.157   6.200  0.0588 -0.4417  0.3043
  741MOL0     C 2138   7.272   6.102   6.266 -0.4729  0.0145  0.3193
  741MOL0     C 2139   7.300   6.178   6.374 -0.9408 -0.3184 -1.0595
  741MOL0     C 2140   7.416   6.172   6.473 -0.3177 -0.0912 -0.7631
  741MOL0     C 2141   7.534   6.244   6.418 -0.7065  0.3312  0.5954
  741MOL0     C 2142   7.652   6.245   6.531  0.9310  0.3300  0.1485
  741MOL0     C 2143   7.769   6.269   6.453 -0.1348  0.2898  0.6169
  741MOL0     O 2144   7.881   6.196   6.502  0.0314 -0.2929 -0.2282
  741MOL0     C 2145   7.941   6.235   6.615  0.7032  0.1709 -0.5054
  741MOL0     C 2146   7.920   6.161   6.730 -0.1711 -0.1665 -0.5293
  741MOL0     C 2147   7.969   6.209   6.857 -0.3976 -0.3848 -0.1082
  741MOL0     C 2148   7.938   6.136   6.982 -0.1709 -0.1191 -0.2244
  741MOL0     C 2149   8.043   6.329   6.849  0.4616  0.5665 -0.0826
  741MOL0     C 2150   8.102   6.395   6.974 -0.4062  0.0139  0.5535
  741MOL0     O 2151   8.142   6.526   6.951  0.1998  0.3857  0.1644
  741MOL0     C 2152   8.210   6.593   7.049 -0.3019 -0.2416  0.3967
  741MOL0     C 2153   8.135   6.672   7.137  0.1456 -0.0841 -0.0735
  741MOL0     C 2154   8.203   6.745   7.236  0.1108  0.5514  0.2942
  741MOL0     C 2155   8.344   6.737   7.254 -0.0772 -0.4396  0.0459
  741MOL0     O 2156   8.398   6.819   7.351 -0.6238 -0.1500 -0.3725
  741MOL0     C 2157   8.533   6.850   7.342  0.5170  0.2385 -0.1180
  741MOL0     C 2158   8.570   6.880   7.486  0.2691  0.1969 -0.7511
  741MOL0     C 2159   8.701   6.800   7.519  1.1120  0.1699  0.0825
  741MOL0     C 2160   8.726   6.837   7.669 -0.3269  0.6381  0.1099
  741MOL0     C 2161   8.856   6.780   7.719  0.8069 -0.1332 -1.1322
  741MOL0     C 2162   8.885   6.756   7.869  0.1503 -0.3322 -0.6583
  741MOL0     C 2163   9.005   6.665   7.887  0.2765 -0.1133  0.1214
  741MOL0     C 2164   9.081   6.682   8.006 -0.5591 -0.6832  0.3890
  741MOL0    Cl 2165   9.229   6.580   7.994 -0.2185 -0.0756 -0.2585
  741MOL0     C 2166   8.414   6.646   7.169 -0.8442 -0.5134  0.6981
  741MOL0     C 2167   8.350   6.583   7.062  1.3870 -1.0408 -0.1032
  741MOL0     O 2168   8.101   6.335   7.087 -0.0183 -0.7092  0.4028
  741MOL0     C 2169   8.074   6.396   6.720  0.7792 -1.0402 -0.7763
  741MOL0     C 2170   7.999   6.359   6.608  0.0094  0.4755  0.4700
  741MOL0     N 2171   7.216   6.290   6.376 -0.2584 -0.1148  0.3098
  741MOL0     N 2172   7.136   6.275   6.273  0.5391 -0.6297 -0.4629
  741MOL0     C 2173   6.873   5.113   6.400 -0.0812 -0.2101  0.0530
  741MOL0     C 2174   6.845   4.997   6.472 -0.0785  0.0850  0.7875
  741MOL0     C 2175   6.732   4.614   6.637  0.6359  0.7477  0.7852
  741MOL0     C 2176   6.606   4.613   6.704  0.3274  0.6432 -0.1339
  741MOL0     C 2177   6.556   4.510   6.777 -0.4202 -0.1535 -0.7702
  741MOL0     C 2178   6.641   4.404   6.809 -0.3384  0.3732  0.5522
  741MOL0     O 2179   6.596   4.302   6.896  0.4946  0.6171 -0.0677
  741MOL0     C 2180   6.681   4.250   6.996  0.8023 -0.1588 -0.4158
  741MOL0     C 2181   6.675   4.333   7.121 -0.1000 -0.5330 -0.7405
  741MOL0     C 2182   6.534   4.361   7.175  0.0331 -0.0253  0.1144
  741MOL0     C 2183   6.528   4.362   7.327 -0.1536 -0.5438 -0.1865
  741MOL0     C 2184   6.617   4.461   7.390 -0.4767 -0.1145 -0.4954
  741MOL0     C 2185   6.693   4.543   7.454  0.5902  0.4662 -0.8353
  741MOL0     C 2186   6.770   4.412   6.757  0.0425 -0.7619  0.0188
  741MOL0     C 2187   6.815   4.517   6.687  0.3510  0.0969 -0.0334
  741MOL0     C 2188   6.955   4.487   6.643 -0.4018 -0.4993 -0.0280
  741MOL0     H 2189   6.542   4.923   6.332 -0.7251  3.0011  0.4548
  741MOL0     H 2190   6.600   5.149   6.216 -1.7787 -1.2935 -0.2104
  741MOL0     H 2191   6.676   5.388   6.347 -0.3822 -1.3833 -0.1592
  741MOL0     H 2192   6.712   5.447   6.186 -0.0924 -0.0163 -0.6403
  741MOL0     H 2193   6.826   5.549   6.421 -0.1131  0.4071  1.1184
  741MOL0     H 2194   6.945   5.429   6.370  1.5937  1.2585 -1.0877
  741MOL0     H 2195   7.016   5.631   6.285 -0.7858  0.8803 -1.5989
  741MOL0     H 2196   6.948   5.550   6.145 -1.3257 -1.3604 -0.3664
  741MOL0     H 2197   6.721   5.690   6.215  0.2926 -2.9870 -0.5073
  741MOL0     H 2198   6.835   5.763   6.334  3.1677  0.9396 -0.6875
  741MOL0     H 2199   6.779   5.871   6.082 -0.1870  2.8422  1.2782
  741MOL0     H 2200   6.921   5.777   6.043  0.1336  2.8878 -0.6980
  741MOL0     H 2201   6.899   5.961   6.285 -3.1121 -0.3799 -0.0314
  741MOL0     H 2202   7.048   5.892   6.213  0.4979  1.1973  1.6689
  741MOL0     H 2203   6.898   6.133   6.152 -1.7316  0.4859 -0.5751
  741MOL0     H 2204   6.909   6.041   6.009 -1.2397  2.0227  0.6768
  741MOL0     H 2205   7.160   6.025   6.046  0.1342 -1.5296  0.8505
  741MOL0     H 2206   7.098   6.188   6.002 -0.0495 -1.3949 -1.5325
  741MOL0     H 2207   7.312   6.003   6.248  0.6251 -0.4570  4.3614
  741MOL0     H 2208   7.445   6.067   6.485  0.8774  0.0843 -1.9218
  741MOL0     H 2209   7.396   6.220   6.569 -0.2333  1.2361 -1.3827
  741MOL0     H 2210   7.567   6.186   6.332 -0.3124  0.2377  0.8058
  741MOL0     H 2211   7.512   6.348   6.393  0.2209  0.9407  2.1612
  741MOL0     H 2212   7.617   6.335   6.583 -0.9038  0.3767 -1.0462
  741MOL0     H 2213   7.675   6.152   6.583  1.5758  1.9820  3.0791
  741MOL0     H 2214   7.767   6.232   6.350 -0.1981  2.2107 -0.1027
  741MOL0     H 2215   7.793   6.375   6.450 -1.4325  0.5847  0.3346
  741MOL0     H 2216   7.868   6.066   6.718 -0.3352  0.0026 -1.2063
  741MOL0     H 2217   7.872   6.053   6.956  2.1606 -3.3888  3.2223
  741MOL0     H 2218   7.876   6.204   7.042  0.3401 -0.5349  0.8090
  741MOL0     H 2219   8.025   6.103   7.040 -0.6328 -1.9881 -0.5269
  741MOL0     H 2220   8.027   6.677   7.128  0.0608 -1.2210  0.1432
  741MOL0     H 2221   8.148   6.810   7.303 -1.2606  0.5192 -0.7629
  741MOL0     H 2222   8.584   6.759   7.310  0.3131 -0.2908  1.0586
  741MOL0     H 2223   8.553   6.932   7.272 -0.0252  0.8151  0.3951
  741MOL0     H 2224   8.581   6.987   7.506  0.2039 -0.5209  4.4881
  741MOL0     H 2225   8.491   6.860   7.559  0.6975 -1.6750 -0.7330
  741MOL0     H 2226   8.778   6.838   7.451  0.4800 -1.1053 -1.4027
  741MOL0     H 2227   8.689   6.692   7.510 -2.5418  0.4433  0.2188
  741MOL0     H 2228   8.640   6.794   7.722 -1.2933  1.6794 -0.5650
  741MOL0     H 2229   8.717   6.946   7.680  2.8557  0.8483  1.8270
  741MOL0     H 2230   8.869   6.688   7.661 -2.1864 -1.9585  0.8636
  741MOL0     H 2231   8.931   6.853   7.686 -0.0227  1.2647 -0.0247
  741MOL0     H 2232   8.795   6.723   7.922  0.5663 -2.2709 -1.0683
  741MOL0     H 2233   8.902   6.853   7.915 -1.6746 -1.1203  1.9087
  741MOL0     H 2234   9.077   6.689   7.809 -1.5505  1.3979 -1.2047
  741MOL0     H 2235   8.973   6.561   7.873  0.0686  0.1567 -1.5328
  741MOL0     H 2236   9.018   6.644   8.088  1.9044 -3.1494  1.3189
  741MOL0     H 2237   9.103   6.788   8.018 -2.8187  0.0721 -1.4431
  741MOL0     H 2238   8.518   6.620   7.186 -1.1822 -1.5367  1.2433
  741MOL0     H 2239   8.396   6.517   6.990 -1.2830 -1.1242 -1.8721
  741MOL0     H 2240   8.144   6.478   6.729 -2.3952  1.6282  2.5641
  741MOL0     H 2241   8.020   6.411   6.515  2.2500 -2.8599 -1.0737
  741MOL0     H 2242   6.966   5.163   6.425  0.9573 -1.4487 -1.1576
  741MOL0     H 2243   6.914   4.957   6.546 -2.9990 -1.7404  2.7685
  741MOL0     H 2244   6.530   4.687   6.681 -2.3216 -1.1552  2.1497
  741MOL0     H 2245   6.451   4.504   6.802 -0.4269  1.1695 -0.4085
  741MOL0     H 2246   6.654   4.146   7.018 -0.1155  0.1232 -0.1683
  741MOL0     H 2247   6.786   4.249   6.963  0.7584  0.2673 -0.5695
  741MOL0     H 2248   6.704   4.437   7.104 -2.5262  0.2185 -0.7691
  741MOL0     H 2249   6.749   4.304   7.195  1.1072 -2.5262 -2.6256
  741MOL0     H 2250   6.499   4.457   7.138  2.7447  0.6267 -0.9944
  741MOL0     H 2251   6.476   4.275   7.139  0.9719 -0.8383  0.5232
  741MOL0     H 2252   6.556   4.261   7.359 -2.0650 -2.2360 -3.2820
  741MOL0     H 2253   6.425   4.378   7.358 -1.5616 -0.8864 -4.0506
  741MOL0     H 2254   6.764   4.594   7.516  1.5536 -0.4548 -1.1406
  741MOL0     H 2255   6.832   4.330   6.790 -2.1679 -1.1912  3.7472
  741MOL0     H 2256   7.007   4.580   6.618  0.1654 -0.8376 -0.1350
  741MOL0     H 2257   7.009   4.428   6.717 -1.8919  0.0291  1.5368
  741MOL0     H 2258   6.949   4.435   6.547 -2.5156 -0.1840 -0.1083
  742MOL0     O 2259   5.658  10.646   8.482 -0.8006  0.0676 -0.9958
  742MOL0     C 2260   5.674  10.573   8.580 -0.5046  0.2315 -0.0282
  742MOL0     O 2261   5.755  10.597   8.688  0.2026 -0.5207 -0.1377
  742MOL0     C 2262   5.843  10.701   8.679 -0.0220 -0.2177  0.3683
  742MOL0     C 2263   5.821  10.816   8.753 -0.9220 -0.2444  0.1438
  742MOL0     C 2264   5.897  10.929   8.728  0.6821  0.8005  0.5597
  742MOL0     C 2265   6.004  10.931   8.635 -0.7564 -0.2501  0.2207
  742MOL0     O 2266   6.069  11.047   8.617  0.0187 -0.3705 -0.3217
  742MOL0     C 2267   6.205  11.055   8.579 -0.5151 -0.0278  0.3645
  742MOL0     C 2268   6.214  11.144   8.445 -0.4414 -0.0741  0.3643
  742MOL0     C 2269   6.361  11.166   8.410 -0.1709 -0.2656  0.0367
  742MOL0     C 2270   6.370  11.307   8.338 -0.2832  0.5095 -0.1174
  742MOL0     C 2271   6.511  11.357   8.316  0.1432  0.2308 -0.1403
  742MOL0     C 2272   6.515  11.493   8.239 -0.4552 -0.9258 -0.0955
  742MOL0     C 2273   6.660  11.531   8.216  0.5500 -0.8133 -0.2080
  742MOL0     C 2274   6.670  11.684   8.153  0.8690  0.4231 -0.4920
  742MOL0     N 2275   6.658  11.789   8.260 -0.4143 -0.0522 -0.0463
  742MOL0     C 2276   6.737  11.803   8.368 -0.2290  0.2532  1.0835
  742MOL0     C 2277   6.693  11.920   8.430  0.0065 -0.1007  0.5826
  742MOL0     C 2278   6.753  11.981   8.552  0.0789  0.1504  0.3885
  742MOL0     C 2279   6.650  12.000   8.666 -0.6363 -0.3866  0.0715
  742MOL0     C 2280   6.743  12.033   8.787  0.3110  0.5953  0.7691
  742MOL0     C 2281   6.645  12.049   8.903 -0.0896 -0.8034  0.4291
  742MOL0     O 2282   6.597  11.919   8.949 -0.7535  0.7570 -0.4852
  742MOL0     C 2283   6.544  11.911   9.077  0.2758  0.0840 -0.6000
  742MOL0     C 2284   6.547  11.791   9.147  0.0457 -0.1511 -0.4428
  742MOL0     C 2285   6.489  11.780   9.274 -0.2092  0.7387  0.3944
  742MOL0     C 2286   6.503  11.638   9.333  0.2704  0.2134 -0.0256
  742MOL0     C 2287   6.419  11.888   9.338 -1.5991 -0.2993  0.1804
  742MOL0     C 2288   6.347  11.889   9.460 -0.9955 -0.3625 -0.7810
  742MOL0     O 2289   6.332  11.768   9.520 -0.8490  0.3574  0.3746
  742MOL0     C 2290   6.265  11.747   9.640 -0.2360 -0.6844  1.2820
  742MOL0     C 2291   6.143  11.796   9.660  0.3390 -0.2829 -0.6958
  742MOL0     C 2292   6.067  11.771   9.774 -0.3113  0.4994  0.1948
  742MOL0     C 2293   6.114  11.681   9.862  0.7823 -0.2738 -0.0836
  742MOL0     O 2294   6.057  11.663   9.985  0.5247 -0.2798 -0.1675
  742MOL0     C 2295   5.991  11.779  10.048 -0.2993  0.5537 -0.3474
  742MOL0     C 2296   5.935  11.753  10.189  0.2968  0.7856  1.3697
  742MOL0     C 2297   5.860  11.872  10.241  0.8649 -0.0883 -0.1021
  742MOL0     C 2298   5.835  11.859  10.392  0.0945 -0.3182  0.5692
  742MOL0     C 2299   5.700  11.925  10.441  0.3464  0.0262 -0.2171
  742MOL0     C 2300   5.702  11.925  10.595  0.0328 -0.2225  0.1408
  742MOL0     C 2301   5.565  11.993  10.647 -1.1256  0.3549 -0.7304
  742MOL0     C 2302   5.543  12.146  10.617 -0.7703 -0.1102  0.1066
  742MOL0    Cl 2303   5.693  12.238  10.673 -0.2310  0.0753  0.3744
  742MOL0     C 2304   6.237  11.618   9.837  0.5116  0.0467  0.1961
  742MOL0     C 2305   6.314  11.654   9.734 -0.2154 -1.5740 -0.9669
  742MOL0     O 2306   6.307  11.998   9.505  0.5748 -0.5316 -0.1044
  742MOL0     C 2307   6.427  12.010   9.272  0.9194  0.3308  0.7341
  742MOL0     C 2308   6.482  12.014   9.143 -0.3102 -0.3708  0.6683
  742MOL0     N 2309   6.587  11.968   8.357 -0.4536  0.8817  0.9674
  742MOL0     N 2310   6.570  11.890   8.250  0.5556  0.0004  0.4932
  742MOL0     C 2311   6.034  10.811   8.573  0.0942 -0.1313  0.3441
  742MOL0     C 2312   5.958  10.696   8.597  0.4338  0.4632 -0.3029
  742MOL0     C 2313   5.574  10.472   8.595 -0.1766  0.1439  1.3145
  742MOL0     C 2314   5.547  10.426   8.723  0.0675 -0.0868  0.0249
  742MOL0     C 2315   5.475  10.312   8.747 -0.0923 -0.5018 -0.5510
  742MOL0     C 2316   5.405  10.254   8.646  0.6669 -0.5230  0.7829
  742MOL0     O 2317   5.323  10.147   8.678  0.6923 -0.5691  0.4076
  742MOL0     C 2318   5.214  10.108   8.587 -0.3537 -0.8487 -0.3053
  742MOL0     C 2319   5.102  10.207   8.586  1.0039 -0.1781  0.5462
  742MOL0     C 2320   4.998  10.169   8.482 -0.5984 -0.3434  0.6872
  742MOL0     C 2321   4.901  10.275   8.420 -0.0529 -0.1859  0.1934
  742MOL0     C 2322   4.811  10.340   8.511 -0.4377 -0.1303 -1.4669
  742MOL0     C 2323   4.748  10.399   8.591  0.1381  0.0420 -0.3579
  742MOL0     C 2324   5.426  10.296   8.508  0.3614 -0.3273  0.2695
  742MOL0     C 2325   5.514  10.405   8.485 -0.0346  0.3109 -0.3337
  742MOL0     C 2326   5.522  10.434   8.338  0.2126  0.0447  0.2201
  742MOL0     H 2327   5.740  10.828   8.825  2.3222  0.9776  3.9323
  742MOL0     H 2328   5.868  11.017   8.783 -0.5300 -0.5686  2.2229
  742MOL0     H 2329   6.245  10.957   8.551  0.9456  0.8831 -0.9127
  742MOL0     H 2330   6.262  11.106   8.657 -2.2517  0.8121  1.1593
  742MOL0     H 2331   6.161  11.097   8.362  0.3212 -0.5349  0.1210
  742MOL0     H 2332   6.162  11.236   8.471 -0.9765  0.4849 -2.3454
  742MOL0     H 2333   6.416  11.178   8.504  0.3543 -0.1804 -0.2751
  742MOL0     H 2334   6.403  11.083   8.353  0.7729 -1.8452  2.8394
  742MOL0     H 2335   6.321  11.296   8.241 -2.2448  3.2579  0.4647
  742MOL0     H 2336   6.316  11.382   8.396 -2.8801 -2.1898  1.2649
  742MOL0     H 2337   6.577  11.281   8.274  0.0173 -0.4102  0.7791
  742MOL0     H 2338   6.541  11.382   8.419 -0.6438 -0.5496  0.2923
  742MOL0     H 2339   6.467  11.468   8.144  0.9919 -2.5975 -0.4498
  742MOL0     H 2340   6.457  11.564   8.297 -0.4861 -1.7726  0.9416
  742MOL0     H 2341   6.717  11.456   8.161  0.5640 -1.8046  1.1197
  742MOL0     H 2342   6.709  11.527   8.313 -1.5430 -0.0692  0.9492
  742MOL0     H 2343   6.773  11.698   8.117  0.5980  2.5704 -0.5526
  742MOL0     H 2344   6.597  11.705   8.074 -2.1613  2.6414  2.6431
  742MOL0     H 2345   6.821  11.737   8.386 -2.9980 -3.2294  2.6507
  742MOL0     H 2346   6.820  12.067   8.542  0.8524 -0.4272  0.4558
  742MOL0     H 2347   6.829  11.914   8.593 -0.2918 -0.2811  0.3688
  742MOL0     H 2348   6.579  12.081   8.645 -0.7367  0.0225  1.8445
  742MOL0     H 2349   6.605  11.903   8.686 -2.3510  0.5172  0.8488
  742MOL0     H 2350   6.805  11.946   8.812 -0.2737  0.5750  2.2863
  742MOL0     H 2351   6.800  12.123   8.766 -3.5843  2.6597 -2.3737
  742MOL0     H 2352   6.690  12.109   8.983  3.2650  0.5456 -2.2504
  742MOL0     H 2353   6.552  12.088   8.862 -0.1338 -3.0270 -1.8019
  742MOL0     H 2354   6.590  11.699   9.108 -0.7321 -0.1317 -1.3939
  742MOL0     H 2355   6.408  11.585   9.340  0.0946  0.3741 -1.0761
  742MOL0     H 2356   6.539  11.645   9.437  0.6335  0.3847 -0.1590
  742MOL0     H 2357   6.574  11.574   9.279 -3.1712 -2.3173 -1.9405
  742MOL0     H 2358   6.094  11.856   9.584  0.3699  0.1961 -0.3419
  742MOL0     H 2359   5.977  11.827   9.793 -0.7411 -0.8263  2.5131
  742MOL0     H 2360   6.060  11.864  10.054  0.4262 -0.1092  1.0481
  742MOL0     H 2361   5.902  11.816   9.996 -2.5356 -1.3160  1.9290
  742MOL0     H 2362   5.876  11.663  10.169  4.5274 -1.5988 -1.8285
  742MOL0     H 2363   6.015  11.731  10.260  0.4594  3.5045  2.1682
  742MOL0     H 2364   5.763  11.879  10.191  0.7151 -0.0214  0.1950
  742MOL0     H 2365   5.922  11.957  10.211  0.0088  0.9025  0.8508
  742MOL0     H 2366   5.918  11.909  10.442  0.3142 -1.8723  1.8274
  742MOL0     H 2367   5.844  11.760  10.437  0.2674 -0.7946 -0.4878
  742MOL0     H 2368   5.695  12.027  10.402 -2.4557  0.0905  0.1246
  742MOL0     H 2369   5.616  11.869  10.401  1.6692  0.6776 -4.4584
  742MOL0     H 2370   5.790  11.978  10.633 -1.6818  3.1863 -0.2572
  742MOL0     H 2371   5.714  11.820  10.619  2.9172 -0.3322 -1.3311
  742MOL0     H 2372   5.554  11.991  10.756 -0.5661  3.3614 -0.5352
  742MOL0     H 2373   5.485  11.931  10.607 -0.7748 -1.8168  1.7108
  742MOL0     H 2374   5.443  12.167  10.657 -2.0996 -2.1500 -1.9107
  742MOL0     H 2375   5.544  12.154  10.508  2.6449 -2.8522 -0.2467
  742MOL0     H 2376   6.273  11.557   9.920  0.2240  1.8927  1.7559
  742MOL0     H 2377   6.411  11.613   9.706 -0.6446 -1.2185 -3.1895
  742MOL0     H 2378   6.377  12.101   9.303 -4.0960 -1.8146 -0.0753
  742MOL0     H 2379   6.478  12.106   9.086  3.7508 -0.8640 -0.7629
  742MOL0     H 2380   6.107  10.803   8.493  3.1729 -0.6459  3.0114
  742MOL0     H 2381   5.978  10.611   8.533  0.6763  0.8272 -0.7192
  742MOL0     H 2382   5.588  10.471   8.814 -1.5126 -0.4803  0.9715
  742MOL0     H 2383   5.471  10.281   8.851  0.4787 -0.9486 -0.6585
  742MOL0     H 2384   5.253  10.096   8.485  0.6741 -0.5901  0.0464
  742MOL0     H 2385   5.190  10.005   8.614  1.1256 -1.9167 -2.7266
  742MOL0     H 2386   5.128  10.312   8.568 -2.4636  0.7396  0.2502
  742MOL0     H 2387   5.039  10.213   8.675 -1.8572  1.8609 -1.4300
  742MOL0     H 2388   5.041  10.118   8.396 -0.5396 -1.0016  1.1011
  742MOL0     H 2389   4.934  10.106   8.544 -0.0684 -1.1123  0.4660
  742MOL0     H 2390   4.838  10.216   8.353  0.6973 -1.4978  0.6074
  742MOL0     H 2391   4.957  10.342   8.355  0.0148 -0.9783 -0.5902
  742MOL0     H 2392   4.687  10.456   8.658 -0.0991 -0.3911 -0.2039
  742MOL0     H 2393   5.371  10.248   8.427 -2.7325  2.3154  0.5712
  742MOL0     H 2394   5.611  10.484   8.299 -0.9680  0.2018 -2.5518
  742MOL0     H 2395   5.510  10.342   8.280 -0.0507 -0.1588  0.5922
  742MOL0     H 2396   5.440  10.501   8.313 -1.5797 -1.9410  0.4724
  743MOL0     O 2397   1.761   4.862   6.941  0.6276  0.0401  0.5214
  743MOL0     C 2398   1.844   4.812   7.017 -0.1470 -0.1165  0.7774
  743MOL0     O 2399   1.986   4.823   7.000  0.4694  0.3402 -0.1482
  743MOL0     C 2400   2.035   4.895   6.898 -0.6640  0.1077 -0.0083
  743MOL0     C 2401   2.068   5.029   6.928  0.2847  0.9339  0.0633
  743MOL0     C 2402   2.104   5.110   6.815  0.9082  0.9054 -0.0632
  743MOL0     C 2403   2.096   5.061   6.684 -0.7636 -0.0973  1.0404
  743MOL0     O 2404   2.144   5.143   6.582  0.2285  0.5845  0.5103
  743MOL0     C 2405   2.239   5.085   6.487  0.0941 -0.1230  1.2219
  743MOL0     C 2406   2.220   5.170   6.356 -0.4760 -0.3051  0.3734
  743MOL0     C 2407   2.097   5.113   6.283  0.4037 -0.5399  1.0596
  743MOL0     C 2408   2.134   5.051   6.149 -0.1329 -0.1435 -0.7840
  743MOL0     C 2409   2.006   5.013   6.077 -0.2311 -0.1440  0.4068
  743MOL0     C 2410   2.025   4.956   5.935  0.6181 -0.4959  0.0924
  743MOL0     C 2411   1.887   4.914   5.863 -0.0031  0.5582 -0.4532
  743MOL0     C 2412   1.915   4.828   5.737  0.0211 -0.2932  0.2244
  743MOL0     N 2413   1.969   4.696   5.771  0.7438 -0.6824  0.1717
  743MOL0     C 2414   1.901   4.582   5.797  1.5415 -0.5042 -0.3303
  743MOL0     C 2415   1.993   4.488   5.799 -0.0619  0.0732 -0.2615
  743MOL0     C 2416   1.990   4.343   5.840  0.1426  0.2016 -0.3653
  743MOL0     C 2417   1.930   4.324   5.980 -0.2366  0.6778  0.0753
  743MOL0     C 2418   1.922   4.174   6.019  0.4208  0.5469 -1.7237
  743MOL0     C 2419   1.923   4.157   6.179  0.5433  0.2171 -0.7490
  743MOL0     O 2420   2.007   4.229   6.269  0.1712  0.4039  0.8035
  743MOL0     C 2421   2.143   4.219   6.268  0.3285 -0.3518 -0.3907
  743MOL0     C 2422   2.219   4.134   6.180  0.1538 -0.4247  0.2090
  743MOL0     C 2423   2.357   4.126   6.194  0.2214  0.6559  0.4156
  743MOL0     C 2424   2.432   4.037   6.098  0.7586  0.0146  0.4656
  743MOL0     C 2425   2.426   4.211   6.287  0.3004 -0.0321 -0.0931
  743MOL0     C 2426   2.564   4.208   6.305 -0.0362 -0.1110 -0.3374
  743MOL0     O 2427   2.639   4.314   6.340 -0.1601  0.2505 -0.7065
  743MOL0     C 2428   2.774   4.328   6.307  0.1341  0.5598  0.2458
  743MOL0     C 2429   2.849   4.432   6.366 -0.2355  0.4660 -0.2364
  743MOL0     C 2430   2.985   4.449   6.342  0.0809  0.3570  0.5224
  743MOL0     C 2431   3.055   4.360   6.265 -0.8139 -0.2361 -0.7741
  743MOL0     O 2432   3.188   4.378   6.227 -1.0571 -0.3823  0.0436
  743MOL0     C 2433   3.266   4.264   6.185 -0.3034  0.1494 -0.0577
  743MOL0     C 2434   3.320   4.191   6.310  0.3791 -0.8152  0.6330
  743MOL0     C 2435   3.448   4.112   6.279 -1.1310 -0.0749 -0.1572
  743MOL0     C 2436   3.499   4.028   6.402  0.1117 -0.3552 -0.1792
  743MOL0     C 2437   3.651   4.016   6.413 -1.0455  0.4306 -0.7135
  743MOL0     C 2438   3.707   3.934   6.529  0.3317 -0.2706 -0.1968
  743MOL0     C 2439   3.849   3.873   6.507 -0.9772 -0.5578 -1.2788
  743MOL0     C 2440   3.910   3.815   6.634 -0.0039 -0.1192 -0.5635
  743MOL0    Cl 2441   3.908   3.936   6.774 -0.4286  0.6765 -0.0443
  743MOL0     C 2442   2.980   4.259   6.200 -0.7461  0.1215  0.4535
  743MOL0     C 2443   2.844   4.236   6.222 -0.5560  0.5473 -0.6787
  743MOL0     O 2444   2.608   4.093   6.308  0.3305  0.1854 -0.0779
  743MOL0     C 2445   2.352   4.302   6.365 -0.9416  0.0697 -0.2469
  743MOL0     C 2446   2.215   4.296   6.361 -0.6665  0.8692 -0.2834
  743MOL0     N 2447   2.112   4.547   5.789 -0.2943 -0.6443  1.3384
  743MOL0     N 2448   2.095   4.671   5.768 -0.5507  0.2326 -0.8295
  743MOL0     C 2449   2.047   4.938   6.655  0.4561  0.6889  0.7558
  743MOL0     C 2450   2.016   4.852   6.761 -0.7923 -0.0167 -0.3134
  743MOL0     C 2451   1.819   4.742   7.138  1.0615 -0.5446  0.4520
  743MOL0     C 2452   1.916   4.657   7.193 -0.0429 -0.3246 -0.5166
  743MOL0     C 2453   1.884   4.587   7.311 -1.2779  0.2593 -0.4412
  743MOL0     C 2454   1.759   4.603   7.365  0.1061  0.0555 -0.2569
  743MOL0     O 2455   1.730   4.527   7.481  0.2181  1.1639  0.2333
  743MOL0     C 2456   1.639   4.408   7.457 -0.1360 -0.3170  0.3845
  743MOL0     C 2457   1.688   4.312   7.345  0.6097  0.2260 -0.5924
  743MOL0     C 2458   1.665   4.167   7.381  0.4238 -0.5156 -0.7943
  743MOL0     C 2459   1.521   4.116   7.370 -0.3301 -0.0105  0.0403
  743MOL0     C 2460   1.526   3.983   7.428  0.2102  0.0606  0.6482
  743MOL0     C 2461   1.531   3.869   7.467 -0.0277  0.0921 -0.0542
  743MOL0     C 2462   1.666   4.694   7.312 -0.0472  0.1155 -0.0711
  743MOL0     C 2463   1.700   4.766   7.202  0.5084  0.2691 -0.0523
  743MOL0     C 2464   1.588   4.857   7.159  0.7096  0.1350  0.6285
  743MOL0     H 2465   2.060   5.050   7.034 -0.3296  0.5955  0.0875
  743MOL0     H 2466   2.140   5.212   6.827  1.5582  1.0510 -2.5727
  743MOL0     H 2467   2.236   4.978   6.467  0.8325  0.5092 -3.2584
  743MOL0     H 2468   2.329   5.119   6.539  0.7611  2.8891 -1.5963
  743MOL0     H 2469   2.199   5.272   6.388  0.2693 -0.3403  1.0167
  743MOL0     H 2470   2.311   5.164   6.296 -1.0941  2.0461 -0.8969
  743MOL0     H 2471   2.045   5.039   6.345  1.2222 -1.8148  0.2763
  743MOL0     H 2472   2.020   5.189   6.267  1.6337  0.4130 -0.6212
  743MOL0     H 2473   2.185   5.127   6.089 -2.2058  0.9040 -1.3350
  743MOL0     H 2474   2.198   4.963   6.153  0.3908  0.2415 -0.4938
  743MOL0     H 2475   1.935   5.097   6.076 -1.9579 -1.5584  0.3020
  743MOL0     H 2476   1.942   4.946   6.135 -1.0694  2.3448  2.5556
  743MOL0     H 2477   2.075   5.033   5.876 -0.1372  4.1212  4.7453
  743MOL0     H 2478   2.094   4.873   5.952  1.5148  0.2054 -0.0681
  743MOL0     H 2479   1.832   5.005   5.839  3.2617  2.7137 -0.4108
  743MOL0     H 2480   1.821   4.866   5.936 -0.2821  1.2215 -0.2617
  743MOL0     H 2481   1.828   4.809   5.675  0.2623  1.6565 -0.8006
  743MOL0     H 2482   1.978   4.885   5.668 -2.6462  2.9373  0.2221
  743MOL0     H 2483   1.793   4.571   5.809  1.1497  1.9264 -1.0603
  743MOL0     H 2484   2.083   4.287   5.854 -0.3871 -0.4805  0.5925
  743MOL0     H 2485   1.939   4.295   5.756 -1.1003  0.9486 -0.0645
  743MOL0     H 2486   1.997   4.381   6.045  2.4094 -1.3101 -0.7192
  743MOL0     H 2487   1.828   4.363   5.983 -1.3403 -1.8428 -1.4161
  743MOL0     H 2488   1.836   4.123   5.974 -0.5283  0.3953  0.1301
  743MOL0     H 2489   2.017   4.130   5.988  0.8968  0.0426  0.2881
  743MOL0     H 2490   1.827   4.201   6.210 -1.3570 -0.8770 -4.4301
  743MOL0     H 2491   1.923   4.049   6.196  0.0362 -0.0215 -2.1323
  743MOL0     H 2492   2.176   4.060   6.114  0.3770 -1.4816  1.2216
  743MOL0     H 2493   2.463   3.947   6.153 -3.5004 -1.2612  1.1624
  743MOL0     H 2494   2.528   4.077   6.064  0.8123 -1.1043 -0.7700
  743MOL0     H 2495   2.368   4.006   6.015 -0.0628  0.4120  0.9300
  743MOL0     H 2496   2.800   4.496   6.439 -0.8040  0.2307 -0.4063
  743MOL0     H 2497   3.047   4.532   6.373  1.1434  0.4701 -1.7018
  743MOL0     H 2498   3.213   4.195   6.119 -0.8927 -1.7284  2.2605
  743MOL0     H 2499   3.349   4.312   6.132 -0.0564  0.6546  0.7598
  743MOL0     H 2500   3.336   4.269   6.386  3.2447  0.0906 -0.7498
  743MOL0     H 2501   3.244   4.122   6.347 -1.1706  0.9013  0.7740
  743MOL0     H 2502   3.526   4.184   6.251  1.0086 -1.1779  2.4684
  743MOL0     H 2503   3.439   4.048   6.191  0.6259  1.0340 -1.2048
  743MOL0     H 2504   3.464   3.926   6.388  1.7187 -0.8866 -0.4957
  743MOL0     H 2505   3.453   4.066   6.494  2.8531 -0.7448  1.4412
  743MOL0     H 2506   3.696   3.969   6.325 -1.5577 -0.8810 -0.2972
  743MOL0     H 2507   3.697   4.115   6.420 -1.8457  0.7503  0.4393
  743MOL0     H 2508   3.639   3.849   6.536  0.5950 -0.6103 -1.4199
  743MOL0     H 2509   3.697   4.000   6.616 -0.3098  1.0273 -1.2122
  743MOL0     H 2510   3.924   3.945   6.472 -0.0856  0.0093  1.5311
  743MOL0     H 2511   3.831   3.787   6.441 -2.5632 -0.8477 -0.4989
  743MOL0     H 2512   4.011   3.776   6.618  0.6441  1.3179 -0.1598
  743MOL0     H 2513   3.863   3.722   6.667  0.2598 -0.1800 -0.3535
  743MOL0     H 2514   3.017   4.205   6.114 -0.0662  1.0465  0.1573
  743MOL0     H 2515   2.789   4.160   6.168 -1.7143  0.1072  1.0383
  743MOL0     H 2516   2.412   4.366   6.429  0.2603 -1.5357  0.2879
  743MOL0     H 2517   2.170   4.364   6.433 -0.3772  0.4467  0.3148
  743MOL0     H 2518   2.053   4.908   6.551  2.9766  2.0187  0.4461
  743MOL0     H 2519   1.977   4.754   6.736  1.9459 -1.1766 -0.4209
  743MOL0     H 2520   2.018   4.638   7.161  0.2382 -1.2518  0.8714
  743MOL0     H 2521   1.965   4.530   7.354  0.7168  1.9675 -1.7356
  743MOL0     H 2522   1.619   4.360   7.553  0.9628  1.9772  1.8529
  743MOL0     H 2523   1.545   4.453   7.424 -0.8854 -0.5489  2.0894
  743MOL0     H 2524   1.796   4.326   7.333  1.2288 -4.1971 -1.7629
  743MOL0     H 2525   1.645   4.334   7.247 -0.3198  0.8361 -0.0601
  743MOL0     H 2526   1.734   4.119   7.311  2.8043  1.0088  0.4078
  743MOL0     H 2527   1.698   4.154   7.484 -0.0342 -0.3951 -0.6296
  743MOL0     H 2528   1.485   4.109   7.267 -0.9380  1.9660  0.0592
  743MOL0     H 2529   1.451   4.175   7.430 -1.0862 -0.0771 -0.7554
  743MOL0     H 2530   1.532   3.764   7.489 -0.9393  0.6598  3.1162
  743MOL0     H 2531   1.577   4.695   7.373  0.1763  1.4814  0.2772
  743MOL0     H 2532   1.515   4.872   7.240  0.4918  0.6640  0.3432
  743MOL0     H 2533   1.628   4.958   7.145  2.0910 -0.3078  1.2566
  743MOL0     H 2534   1.533   4.830   7.068 -3.5704  3.0068  2.0229
  744MOL0     O 2535  11.248   5.833  11.176  0.5075  0.0737  0.3577
  744MOL0     C 2536  11.244   5.850  11.051 -0.7659 -0.5815 -0.3604
  744MOL0     O 2537  11.357   5.855  10.969 -0.0734  0.1690 -0.2899
  744MOL0     C 2538  11.479   5.806  11.015 -0.7472 -0.3837  0.8193
  744MOL0     C 2539  11.586   5.901  11.019 -0.1919  0.1592 -0.2464
  744MOL0     C 2540  11.710   5.862  11.067 -0.2916 -0.6161  0.3337
  744MOL0     C 2541  11.737   5.728  11.106 -0.2955 -0.4782 -0.3330
  744MOL0     O 2542  11.859   5.678  11.145 -0.1469 -0.4185  0.5641
  744MOL0     C 2543  11.979   5.755  11.122  0.0876 -0.4309 -0.5104
  744MOL0     C 2544  12.089   5.689  11.210  0.1562  0.6400  0.9733
  744MOL0     C 2545  12.235   5.728  11.163 -0.0754  0.2404 -0.0215
  744MOL0     C 2546  12.328   5.622  11.220 -0.1208 -0.6765 -0.3751
  744MOL0     C 2547  12.470   5.675  11.237  0.4130 -0.4351  0.5637
  744MOL0     C 2548  12.550   5.707  11.107  0.4503  0.0684  0.3729
  744MOL0     C 2549  12.686   5.767  11.140 -0.5031 -0.8108 -0.7466
  744MOL0     C 2550  12.769   5.780  11.008 -0.6774 -0.5444 -0.1402
  744MOL0     N 2551  12.742   5.894  10.919  0.0592  0.2777  1.0079
  744MOL0     C 2552  12.784   6.033  10.938  0.2565  2.0053  0.4036
  744MOL0     C 2553  12.736   6.102  10.834  0.2124  0.3827  0.8626
  744MOL0     C 2554  12.758   6.256  10.811 -0.3951 -0.2436  0.2351
  744MOL0     C 2555  12.787   6.291  10.666  0.0752  0.4303  0.0815
  744MOL0     C 2556  12.851   6.432  10.652 -0.5469 -0.3009 -0.4035
  744MOL0     C 2557  12.915   6.446  10.518 -0.2935 -0.2477 -0.9309
  744MOL0     O 2558  12.946   6.581  10.491 -0.2335  0.1823 -0.5128
  744MOL0     C 2559  12.986   6.611  10.361  0.0931  0.1111 -0.6517
  744MOL0     C 2560  13.037   6.743  10.351  0.5563  0.1398  0.4768
  744MOL0     C 2561  13.096   6.781  10.231 -0.0871  0.6490  0.0500
  744MOL0     C 2562  13.118   6.920  10.208  0.3088  0.0949 -0.4851
  744MOL0     C 2563  13.109   6.689  10.122  0.6195  0.6168  0.2223
  744MOL0     C 2564  13.158   6.719   9.993 -1.1642 -0.1600  1.3847
  744MOL0     O 2565  13.270   6.789   9.974 -0.4114  0.4313  0.3996
  744MOL0     C 2566  13.317   6.816   9.846  0.2786 -0.1047 -0.0769
  744MOL0     C 2567  13.417   6.733   9.787 -0.3243 -0.3272  0.4048
  744MOL0     C 2568  13.457   6.755   9.656 -0.4373 -0.1182 -0.0011
  744MOL0     C 2569  13.407   6.859   9.580  1.3329 -0.5140  0.2204
  744MOL0     O 2570  13.428   6.878   9.443  0.7406 -0.6414  0.6848
  744MOL0     C 2571  13.569   6.854   9.394  0.7903  0.4758 -0.6249
  744MOL0     C 2572  13.595   6.831   9.238  0.3698 -0.8275 -0.6507
  744MOL0     C 2573  13.738   6.800   9.200  0.0967  0.4191 -0.2620
  744MOL0     C 2574  13.843   6.872   9.276  0.1300 -0.3729  0.3912
  744MOL0     C 2575  13.977   6.837   9.233  0.3127 -0.3750 -0.4024
  744MOL0     C 2576  14.077   6.916   9.325 -0.0654  0.4129 -0.5627
  744MOL0     C 2577  14.223   6.866   9.309 -0.5104  0.1919 -1.0377
  744MOL0     C 2578  14.317   6.964   9.397  1.4770  0.0399  0.5664
  744MOL0    Cl 2579  14.481   6.889   9.416  0.6053 -0.2316 -0.2373
  744MOL0     C 2580  13.305   6.941   9.641 -0.1904  0.4315 -0.3427
  744MOL0     C 2581  13.254   6.919   9.776 -0.1645 -0.1269  1.3741
  744MOL0     O 2582  13.102   6.657   9.900  0.4359 -0.2717  0.5303
  744MOL0     C 2583  13.052   6.558  10.138 -0.1166  0.2780 -0.1559
  744MOL0     C 2584  13.007   6.515  10.260  0.5181 -0.2666 -0.2824
  744MOL0     N 2585  12.678   6.007  10.749 -0.8600 -0.3644  0.0179
  744MOL0     N 2586  12.687   5.888  10.796 -0.7439  0.7549  0.2970
  744MOL0     C 2587  11.618   5.642  11.121 -0.6946  0.4598  0.3553
  744MOL0     C 2588  11.494   5.681  11.063  0.1134 -0.2764  0.7949
  744MOL0     C 2589  11.115   5.879  10.989  0.3072  0.5144 -0.1808
  744MOL0     C 2590  11.032   5.768  10.945  0.6035  0.4852  0.2292
  744MOL0     C 2591  10.914   5.776  10.872  0.9055 -0.1056 -0.2268
  744MOL0     C 2592  10.858   5.906  10.840 -0.2157  0.2785 -0.0667
  744MOL0     O 2593  10.749   5.908  10.764  0.8421  0.0572 -0.0373
  744MOL0     C 2594  10.697   6.028  10.728  0.3113  0.3370 -0.0487
  744MOL0     C 2595  10.590   6.010  10.619  0.5699 -0.8855  1.1306
  744MOL0     C 2596  10.579   6.130  10.519  0.0772 -0.1785  0.5827
  744MOL0     C 2597  10.540   6.084  10.371 -0.5033  0.7354 -0.3269
  744MOL0     C 2598  10.407   6.016  10.376 -0.3861 -0.4309 -1.3055
  744MOL0     C 2599  10.284   5.989  10.389 -0.3375  0.0826 -0.1195
  744MOL0     C 2600  10.931   6.012  10.891 -0.6961 -0.7136 -0.7509
  744MOL0     C 2601  11.056   6.006  10.965  0.5944  0.3730  0.5218
  744MOL0     C 2602  11.114   6.135  11.016 -0.3464  0.5451 -0.2158
  744MOL0     H 2603  11.570   6.001  10.981  3.4953  1.1903  0.4747
  744MOL0     H 2604  11.789   5.937  11.070 -0.6797 -0.2050  0.2982
  744MOL0     H 2605  11.973   5.858  11.157 -1.5747 -0.5650 -0.3391
  744MOL0     H 2606  12.007   5.747  11.017 -2.8832 -2.5770 -1.2748
  744MOL0     H 2607  12.077   5.721  11.314  1.5792  2.0967  0.7291
  744MOL0     H 2608  12.072   5.583  11.192 -2.4549  1.5714 -3.7780
  744MOL0     H 2609  12.247   5.734  11.054 -0.3261  2.4219  0.0321
  744MOL0     H 2610  12.261   5.829  11.195 -0.5250  0.5198 -0.5248
  744MOL0     H 2611  12.284   5.590  11.315  3.0788 -0.0303  1.5075
  744MOL0     H 2612  12.323   5.526  11.169 -2.4297 -0.6936 -0.2250
  744MOL0     H 2613  12.518   5.595  11.294  0.3188 -1.2043 -0.4220
  744MOL0     H 2614  12.468   5.765  11.300 -0.2850 -1.7282  2.4631
  744MOL0     H 2615  12.550   5.628  11.032  3.4222 -0.8490  1.1854
  744MOL0     H 2616  12.497   5.792  11.062 -2.1980 -0.5154  2.2011
  744MOL0     H 2617  12.733   5.697  11.211 -0.6685 -2.8974 -2.5921
  744MOL0     H 2618  12.673   5.864  11.188 -0.7542 -0.9810 -0.4656
  744MOL0     H 2619  12.876   5.786  11.031 -0.9737  2.9174  1.0283
  744MOL0     H 2620  12.748   5.697  10.940 -0.8319  0.4938 -1.3939
  744MOL0     H 2621  12.832   6.063  11.031 -0.0844 -1.0889  1.6900
  744MOL0     H 2622  12.840   6.280  10.880 -0.7315  0.5778  0.3576
  744MOL0     H 2623  12.669   6.310  10.841 -1.3394 -1.8945  0.5619
  744MOL0     H 2624  12.852   6.217  10.617 -1.2802  1.4203 -3.5751
  744MOL0     H 2625  12.697   6.303  10.606 -0.5507  2.9972  1.3936
  744MOL0     H 2626  12.777   6.512  10.665 -0.0881 -0.1315  1.4160
  744MOL0     H 2627  12.933   6.447  10.723 -0.7183 -2.5510  0.3732
  744MOL0     H 2628  13.010   6.393  10.510  0.7301  1.4016 -0.2290
  744MOL0     H 2629  12.846   6.404  10.444  1.0816 -1.7945 -1.3991
  744MOL0     H 2630  13.026   6.801  10.442  2.1977  0.2440  0.6474
  744MOL0     H 2631  13.044   6.952  10.133  2.0897 -1.1312 -2.8968
  744MOL0     H 2632  13.218   6.953  10.178  0.1808  0.3402 -0.6504
  744MOL0     H 2633  13.095   6.962  10.306  1.8158 -2.7944  1.2411
  744MOL0     H 2634  13.445   6.641   9.837 -0.5653 -0.8936 -0.4798
  744MOL0     H 2635  13.517   6.680   9.606  0.1092  0.9777 -1.0471
  744MOL0     H 2636  13.628   6.935   9.439  0.6113  1.1103 -1.5066
  744MOL0     H 2637  13.604   6.760   9.439  0.3138  0.2088 -0.8141
  744MOL0     H 2638  13.532   6.749   9.204 -0.2924 -0.2238 -0.9202
  744MOL0     H 2639  13.574   6.924   9.183  2.4008 -0.3617 -0.6903
  744MOL0     H 2640  13.739   6.833   9.096 -1.1838 -1.1937 -0.8464
  744MOL0     H 2641  13.746   6.690   9.201 -0.7011  0.3494 -0.8270
  744MOL0     H 2642  13.839   6.846   9.383  0.2877 -3.4712 -0.2524
  744MOL0     H 2643  13.819   6.978   9.262  0.5791 -0.3739 -0.4061
  744MOL0     H 2644  13.992   6.729   9.231  1.0806 -0.3319  1.3359
  744MOL0     H 2645  13.992   6.862   9.128  1.4289  2.2163  0.2991
  744MOL0     H 2646  14.038   6.907   9.427  3.0456 -2.6916  0.5470
  744MOL0     H 2647  14.073   7.017   9.284  0.0869  0.2558 -0.9703
  744MOL0     H 2648  14.242   6.853   9.202 -1.5062 -0.7715 -1.1141
  744MOL0     H 2649  14.235   6.769   9.359 -1.2031  0.0048 -1.2271
  744MOL0     H 2650  14.277   6.989   9.495  1.9455 -1.5998  1.2066
  744MOL0     H 2651  14.329   7.057   9.341  0.8010 -1.3718 -2.0685
  744MOL0     H 2652  13.285   7.033   9.588 -0.8169  0.5104  0.0156
  744MOL0     H 2653  13.181   6.979   9.829 -0.5088  1.6377 -0.8857
  744MOL0     H 2654  13.078   6.481  10.067  2.1847 -0.0606  0.9614
  744MOL0     H 2655  12.963   6.416  10.268  1.4184 -0.7041 -0.6360
  744MOL0     H 2656  11.637   5.537  11.140 -0.0300  0.1115 -1.9756
  744MOL0     H 2657  11.413   5.609  11.060 -0.0990 -0.0318 -1.5123
  744MOL0     H 2658  11.072   5.668  10.950 -2.6382 -0.8937  0.7883
  744MOL0     H 2659  10.867   5.685  10.836  0.2402 -0.0030  0.3623
  744MOL0     H 2660  10.648   6.069  10.817  0.4433 -1.6156  0.9750
  744MOL0     H 2661  10.780   6.087  10.689  0.3034 -0.1490 -0.8343
  744MOL0     H 2662  10.494   5.996  10.669  0.9931  0.2334  2.2972
  744MOL0     H 2663  10.621   5.922  10.562 -2.1604  1.1534 -4.2479
  744MOL0     H 2664  10.501   6.196  10.557  0.8021  0.7159  0.5544
  744MOL0     H 2665  10.680   6.174  10.518 -0.0594  0.1658 -0.8146
  744MOL0     H 2666  10.613   6.014  10.329 -3.5754 -1.5976 -2.1281
  744MOL0     H 2667  10.537   6.166  10.298 -2.4559  1.0876  0.0935
  744MOL0     H 2668  10.182   5.957  10.394 -1.2337  2.9260  1.9031
  744MOL0     H 2669  10.905   6.115  10.868 -3.5892 -0.5503  2.4775
  744MOL0     H 2670  11.163   6.111  11.110 -1.6251  3.1206  1.2255
  744MOL0     H 2671  11.181   6.184  10.944 -0.2603  0.7230 -0.0161
  744MOL0     H 2672  11.032   6.202  11.043 -0.1479  0.0293  1.7820
  745MOL0     O 2673   9.624   3.006   4.471 -1.1438 -0.3514  0.0778
  745MOL0     C 2674   9.544   3.103   4.466 -0.1979 -0.4384 -0.9583
  745MOL0     O 2675   9.582   3.239   4.471 -0.2211  0.1797 -0.2063
  745MOL0     C 2676   9.713   3.282   4.496  0.6954 -0.0999  0.0276
  745MOL0     C 2677   9.702   3.404   4.560 -0.3225 -0.1786  0.0561
  745MOL0     C 2678   9.823   3.481   4.592 -0.2189  0.5446  0.1153
  745MOL0     C 2679   9.944   3.426   4.560 -1.1382  1.1414 -1.1463
  745MOL0     O 2680  10.066   3.484   4.601  0.2021  0.3151  0.2654
  745MOL0     C 2681  10.073   3.605   4.673  0.5126 -0.0815  1.0522
  745MOL0     C 2682  10.219   3.617   4.693  0.5214 -0.1019  0.6508
  745MOL0     C 2683  10.247   3.762   4.742  0.0809 -0.1513  0.4018
  745MOL0     C 2684  10.403   3.774   4.744  0.6297  0.0843  0.3228
  745MOL0     C 2685  10.470   3.873   4.835 -0.1177 -0.4078 -0.6500
  745MOL0     C 2686  10.443   4.018   4.794 -0.2619  0.1014  0.1266
  745MOL0     C 2687  10.512   4.107   4.904  0.5575 -0.0115  0.1462
  745MOL0     C 2688  10.489   4.255   4.882  0.1258 -1.2046 -0.0133
  745MOL0     N 2689  10.540   4.313   5.008  0.2651 -1.2746 -0.3609
  745MOL0     C 2690  10.673   4.336   5.041  0.1324  0.2125 -0.1660
  745MOL0     C 2691  10.658   4.402   5.164  1.1634 -0.7214  1.1705
  745MOL0     C 2692  10.770   4.457   5.253 -0.4769 -0.3302  0.1217
  745MOL0     C 2693  10.835   4.349   5.341  0.4928 -0.1287  0.0870
  745MOL0     C 2694  10.890   4.407   5.469  0.9369  0.2291 -0.5240
  745MOL0     C 2695  11.002   4.506   5.465 -0.6675  1.0173  0.2232
  745MOL0     O 2696  11.123   4.435   5.431  0.2376  0.3967 -0.0327
  745MOL0     C 2697  11.246   4.494   5.454  0.7668  0.7506  0.5982
  745MOL0     C 2698  11.359   4.418   5.408  0.4832 -0.1531 -0.3843
  745MOL0     C 2699  11.485   4.460   5.412 -0.7112 -0.2646 -0.1791
  745MOL0     C 2700  11.594   4.374   5.349 -0.4368 -0.2402  1.1570
  745MOL0     C 2701  11.518   4.590   5.462 -0.2118  0.0400 -0.0884
  745MOL0     C 2702  11.648   4.659   5.491  0.6203 -0.1804 -0.0797
  745MOL0     O 2703  11.652   4.762   5.574  0.5184 -0.6962  0.0567
  745MOL0     C 2704  11.766   4.792   5.646 -0.2993  0.2498 -0.6058
  745MOL0     C 2705  11.748   4.886   5.743  0.9873  1.5788  0.1325
  745MOL0     C 2706  11.839   4.932   5.831 -0.2638 -0.2564  0.5623
  745MOL0     C 2707  11.973   4.881   5.825 -0.1702 -0.6762 -0.4114
  745MOL0     O 2708  12.084   4.927   5.892 -0.2701  0.3127  0.5063
  745MOL0     C 2709  12.075   5.020   5.996  0.2463  0.4214 -0.6152
  745MOL0     C 2710  12.204   5.019   6.077 -0.2104 -0.5577  0.4092
  745MOL0     C 2711  12.318   5.105   6.027 -0.0076  0.5315  0.1288
  745MOL0     C 2712  12.443   5.094   6.109 -1.5375  0.2703 -0.1975
  745MOL0     C 2713  12.546   5.190   6.054  1.2225 -0.5044  0.0158
  745MOL0     C 2714  12.676   5.184   6.138  0.2988 -0.1565 -0.2395
  745MOL0     C 2715  12.763   5.302   6.102 -1.1593  0.1470 -0.9384
  745MOL0     C 2716  12.884   5.324   6.193 -0.4347  0.0954 -0.5741
  745MOL0    Cl 2717  12.836   5.357   6.364  0.3484 -0.4739  0.2178
  745MOL0     C 2718  11.995   4.780   5.733 -0.4675  0.1919  0.9868
  745MOL0     C 2719  11.900   4.736   5.637  0.0916 -0.4284  0.5207
  745MOL0     O 2720  11.742   4.603   5.441 -0.7274 -0.2515  0.2198
  745MOL0     C 2721  11.409   4.667   5.502 -0.3536  0.3423 -0.3672
  745MOL0     C 2722  11.272   4.617   5.503 -0.5299 -0.5302 -0.4268
  745MOL0     N 2723  10.525   4.406   5.203 -0.3103 -0.2655 -0.6565
  745MOL0     N 2724  10.457   4.349   5.109  0.3937 -0.7826 -0.2240
  745MOL0     C 2725   9.952   3.312   4.481 -0.3443 -1.2489 -0.7322
  745MOL0     C 2726   9.838   3.230   4.464 -0.1379  0.7725 -0.1104
  745MOL0     C 2727   9.398   3.088   4.472 -0.0488  0.2300 -0.2765
  745MOL0     C 2728   9.311   3.192   4.519 -0.5421 -0.0689  0.7103
  745MOL0     C 2729   9.181   3.176   4.540  0.4091  0.0897  0.3175
  745MOL0     C 2730   9.119   3.054   4.515 -0.5447 -0.4600  0.2515
  745MOL0     O 2731   8.987   3.027   4.519 -0.0897  0.2549 -0.1286
  745MOL0     C 2732   8.903   3.137   4.562  1.1827 -0.1477  0.4079
  745MOL0     C 2733   8.749   3.108   4.587  0.0859  0.7164  0.3487
  745MOL0     C 2734   8.686   3.222   4.668  0.7924  0.2075  0.3797
  745MOL0     C 2735   8.542   3.185   4.709 -0.5896  0.8081 -0.3961
  745MOL0     C 2736   8.448   3.208   4.607  0.2110  0.5341 -0.4182
  745MOL0     C 2737   8.364   3.190   4.526  0.3991  1.2648 -0.0343
  745MOL0     C 2738   9.196   2.953   4.458 -0.4504 -0.4086 -0.5563
  745MOL0     C 2739   9.334   2.970   4.432  0.0412  0.0128  0.2952
  745MOL0     C 2740   9.403   2.850   4.371 -0.0001 -0.0406 -0.0275
  745MOL0     H 2741   9.600   3.434   4.581 -1.0900 -2.0657 -0.6784
  745MOL0     H 2742   9.807   3.573   4.647 -1.1831  1.2460 -1.2692
  745MOL0     H 2743  10.019   3.591   4.767 -0.7680 -2.9776  0.0246
  745MOL0     H 2744  10.038   3.688   4.612 -0.5009  0.5688  2.4610
  745MOL0     H 2745  10.256   3.547   4.769  1.1719 -3.4034 -2.4414
  745MOL0     H 2746  10.259   3.587   4.596 -1.3414 -0.4439 -0.0496
  745MOL0     H 2747  10.209   3.842   4.679  0.3790 -0.9788 -0.8600
  745MOL0     H 2748  10.199   3.780   4.839 -5.2179 -1.9679 -1.5471
  745MOL0     H 2749  10.428   3.681   4.795 -2.7448 -1.6080 -0.8126
  745MOL0     H 2750  10.453   3.782   4.647  2.4297  1.5893  1.3107
  745MOL0     H 2751  10.576   3.846   4.840  0.0490 -0.1330 -2.2487
  745MOL0     H 2752  10.427   3.850   4.933  1.7303 -1.8931 -0.1161
  745MOL0     H 2753  10.487   4.057   4.701  0.2797 -1.9367 -0.5270
  745MOL0     H 2754  10.335   4.035   4.792  0.3599  6.1793 -0.3340
  745MOL0     H 2755  10.618   4.081   4.910 -0.3782 -4.6939  0.4517
  745MOL0     H 2756  10.471   4.077   5.001  1.9279  0.9393  1.0424
  745MOL0     H 2757  10.557   4.286   4.802  0.9648  1.5023  1.6008
  745MOL0     H 2758  10.386   4.288   4.869  0.3989 -0.1027  0.5182
  745MOL0     H 2759  10.762   4.320   4.981  0.3858 -1.2003  0.5423
  745MOL0     H 2760  10.720   4.529   5.319 -0.1562  1.0190 -1.0659
  745MOL0     H 2761  10.849   4.498   5.190 -0.1927 -0.6671  0.2527
  745MOL0     H 2762  10.758   4.278   5.372 -0.4946  1.8227  2.4113
  745MOL0     H 2763  10.922   4.299   5.297 -1.0899 -3.4947  0.5385
  745MOL0     H 2764  10.804   4.450   5.521  0.6598 -1.3532  0.3703
  745MOL0     H 2765  10.912   4.313   5.519  2.4175 -0.8904 -3.0849
  745MOL0     H 2766  10.977   4.580   5.387  0.1495 -1.1081 -2.1934
  745MOL0     H 2767  11.021   4.560   5.558  2.9904 -0.3671  0.4196
  745MOL0     H 2768  11.346   4.316   5.375 -1.9467 -0.5987  1.6317
  745MOL0     H 2769  11.573   4.296   5.275 -2.2026  0.3253  1.0223
  745MOL0     H 2770  11.669   4.332   5.416  0.0461 -1.8167 -0.2965
  745MOL0     H 2771  11.661   4.436   5.288  0.4803 -2.0820  0.2122
  745MOL0     H 2772  11.647   4.922   5.762 -0.1224 -0.9584 -0.5000
  745MOL0     H 2773  11.804   5.006   5.901 -0.5812 -0.7058  0.8874
  745MOL0     H 2774  12.064   5.122   5.959 -1.4938  0.8878  0.9942
  745MOL0     H 2775  11.992   4.981   6.056  1.9956 -1.4684  0.7401
  745MOL0     H 2776  12.172   5.044   6.179 -1.7040 -0.3252 -0.0990
  745MOL0     H 2777  12.237   4.915   6.068 -2.0748 -1.1035 -0.5551
  745MOL0     H 2778  12.285   5.209   6.038  0.8306  0.7805  0.3789
  745MOL0     H 2779  12.321   5.094   5.919  1.5285 -3.1340  0.3841
  745MOL0     H 2780  12.489   4.996   6.100 -2.8034 -0.1690 -2.9120
  745MOL0     H 2781  12.434   5.120   6.215  4.2258  2.4393  0.1188
  745MOL0     H 2782  12.557   5.161   5.949 -0.2761 -0.5151 -0.1661
  745MOL0     H 2783  12.504   5.291   6.048 -0.0613 -1.0773 -1.4036
  745MOL0     H 2784  12.725   5.091   6.109  2.6214  0.8571  0.1562
  745MOL0     H 2785  12.651   5.186   6.245 -0.9134  0.0952 -0.5123
  745MOL0     H 2786  12.702   5.394   6.107 -2.6153 -0.6408 -3.0330
  745MOL0     H 2787  12.781   5.304   5.994 -1.1664  2.6294 -0.9630
  745MOL0     H 2788  12.930   5.413   6.150 -0.2332 -0.6067 -1.8754
  745MOL0     H 2789  12.965   5.250   6.201 -0.0580  0.6130  0.7281
  745MOL0     H 2790  12.102   4.765   5.727 -0.3703  0.8029  1.0654
  745MOL0     H 2791  11.928   4.672   5.555 -1.0601  0.8991 -0.9947
  745MOL0     H 2792  11.407   4.770   5.538 -1.6082 -0.4917  2.1840
  745MOL0     H 2793  11.192   4.689   5.520 -1.3059 -1.1205 -1.4291
  745MOL0     H 2794  10.048   3.278   4.446 -0.7135 -4.6853  1.1369
  745MOL0     H 2795   9.848   3.149   4.392  2.7084  3.1894 -2.6986
  745MOL0     H 2796   9.359   3.284   4.550 -0.4288  0.9303 -2.0889
  745MOL0     H 2797   9.145   3.266   4.590  2.2108  2.1452 -1.8548
  745MOL0     H 2798   8.938   3.165   4.662 -2.3862 -0.1490  1.7790
  745MOL0     H 2799   8.918   3.224   4.497 -0.0868 -0.2656 -0.0551
  745MOL0     H 2800   8.752   3.025   4.658  1.8571  0.4574  0.0203
  745MOL0     H 2801   8.693   3.087   4.496  0.6980  0.7259 -0.0403
  745MOL0     H 2802   8.742   3.257   4.754  2.1918  0.5689 -0.6460
  745MOL0     H 2803   8.692   3.308   4.600  3.7359 -0.5964 -0.4952
  745MOL0     H 2804   8.522   3.231   4.807  3.1660 -0.3843  1.1009
  745MOL0     H 2805   8.537   3.076   4.723  0.0538  0.7587 -0.5148
  745MOL0     H 2806   8.299   3.170   4.443  2.2780  2.6617 -1.9421
  745MOL0     H 2807   9.147   2.861   4.428 -0.2371 -1.2126  1.4384
  745MOL0     H 2808   9.432   2.778   4.447  1.4942 -0.6229 -1.0851
  745MOL0     H 2809   9.326   2.801   4.311 -3.6150  0.8581  3.4862
  745MOL0     H 2810   9.488   2.862   4.303 -0.2492 -0.1334 -0.3572
  746MOL0     O 2811   1.290   8.199   9.316  0.2263  1.6580  0.5709
  746MOL0     C 2812   1.324   8.299   9.267 -0.7745  0.1980 -0.4583
  746MOL0     O 2813   1.453   8.325   9.244  0.2435 -0.3483  0.3151
  746MOL0     C 2814   1.544   8.225   9.225 -0.4874 -0.4396 -0.4430
  746MOL0     C 2815   1.676   8.276   9.217 -0.0207 -0.0758 -0.5481
  746MOL0     C 2816   1.786   8.188   9.189 -0.5004  0.2394 -0.2126
  746MOL0     C 2817   1.759   8.048   9.164 -0.3397 -0.2797  0.4301
  746MOL0     O 2818   1.864   7.964   9.137  0.2613 -0.1460  0.2396
  746MOL0     C 2819   1.911   7.886   9.246  0.1635  0.9440  0.2258
  746MOL0     C 2820   2.012   7.958   9.342 -0.3937  0.3782 -0.0253
  746MOL0     C 2821   2.018   7.900   9.482  0.5139 -0.6182 -0.4726
  746MOL0     C 2822   2.130   7.988   9.561  0.7369  0.4119 -0.4902
  746MOL0     C 2823   2.125   7.945   9.713  0.0226 -1.0547  0.0242
  746MOL0     C 2824   2.190   8.047   9.810  0.6168  0.2097 -0.2915
  746MOL0     C 2825   2.340   8.041   9.832 -0.9047 -0.3078  0.3410
  746MOL0     C 2826   2.372   8.156   9.923  0.3865 -0.1716 -0.5949
  746MOL0     N 2827   2.312   8.148  10.057 -0.1609  0.6127  0.0015
  746MOL0     C 2828   2.251   8.242  10.125 -0.1160  0.0977  0.8546
  746MOL0     C 2829   2.235   8.192  10.250  0.5071  0.0970  0.1233
  746MOL0     C 2830   2.176   8.288  10.353  0.6478  0.4758 -1.4535
  746MOL0     C 2831   2.083   8.212  10.444  0.0589 -0.2012  0.0990
  746MOL0     C 2832   2.053   8.298  10.567 -0.0703 -0.5486  0.3708
  746MOL0     C 2833   1.980   8.216  10.670  0.4046  0.2204  0.3487
  746MOL0     O 2834   1.863   8.157  10.612  0.4758 -0.2203 -0.1971
  746MOL0     C 2835   1.800   8.057  10.677 -0.2786 -0.4564 -0.1362
  746MOL0     C 2836   1.822   8.032  10.808 -0.1014  1.2384  0.3331
  746MOL0     C 2837   1.742   7.940  10.872  0.3021 -0.1443  0.7790
  746MOL0     C 2838   1.760   7.912  11.014  0.6166 -0.3462 -0.8663
  746MOL0     C 2839   1.641   7.870  10.803  0.0970  0.4849 -0.4008
  746MOL0     C 2840   1.549   7.774  10.868  0.7452 -0.0772 -0.9759
  746MOL0     O 2841   1.599   7.692  10.965  0.0786  0.0615  0.2498
  746MOL0     C 2842   1.506   7.605  11.033  0.1209  0.4005 -0.3779
  746MOL0     C 2843   1.488   7.627  11.169  1.4581 -0.4155 -0.2263
  746MOL0     C 2844   1.406   7.534  11.234  0.1293 -0.3314  0.3541
  746MOL0     C 2845   1.348   7.428  11.167 -0.0785 -1.1306 -0.6740
  746MOL0     O 2846   1.252   7.362  11.240  0.0600 -0.4806  0.0286
  746MOL0     C 2847   1.143   7.306  11.154 -0.7343  0.0249 -0.2354
  746MOL0     C 2848   1.016   7.302  11.235  0.4472  0.1665  0.0682
  746MOL0     C 2849   1.044   7.205  11.347 -0.2495 -0.7394 -0.3974
  746MOL0     C 2850   0.948   7.230  11.465 -0.6555 -0.2619 -0.3055
  746MOL0     C 2851   0.798   7.193  11.439 -0.1855 -0.4414  0.1085
  746MOL0     C 2852   0.778   7.044  11.475  0.6857  0.1203  0.6280
  746MOL0     C 2853   0.637   7.011  11.456  1.3537 -0.0695  0.1510
  746MOL0     C 2854   0.595   6.894  11.552 -0.1329 -0.6288 -0.5807
  746MOL0    Cl 2855   0.692   6.737  11.533  0.4003 -0.1475  0.1217
  746MOL0     C 2856   1.356   7.420  11.029  0.6809  0.5293 -0.2582
  746MOL0     C 2857   1.433   7.510  10.960 -1.1221 -0.3292 -0.2369
  746MOL0     O 2858   1.433   7.765  10.816 -0.6125  0.5315 -0.0397
  746MOL0     C 2859   1.625   7.888  10.670 -0.0867 -0.1665  0.6215
  746MOL0     C 2860   1.713   7.980  10.607  0.7182 -0.0841  0.3893
  746MOL0     N 2861   2.299   8.073  10.258 -0.1656 -1.1398  0.8709
  746MOL0     N 2862   2.348   8.047  10.138 -0.1824  0.2451 -0.7141
  746MOL0     C 2863   1.630   8.006   9.171 -0.3253  0.7221  0.5718
  746MOL0     C 2864   1.524   8.086   9.194  0.6566 -0.4108  0.2240
  746MOL0     C 2865   1.226   8.406   9.246  0.2227  0.3509 -0.0794
  746MOL0     C 2866   1.272   8.517   9.177 -0.3733  0.6461 -0.2154
  746MOL0     C 2867   1.189   8.618   9.137  1.0747  0.7425  0.0668
  746MOL0     C 2868   1.057   8.627   9.168  0.1540 -0.4839  0.7309
  746MOL0     O 2869   0.987   8.732   9.117  0.1393 -0.6861 -0.0245
  746MOL0     C 2870   0.847   8.750   9.156 -0.0229  0.6314  0.2126
  746MOL0     C 2871   0.843   8.854   9.267  0.5359 -0.9535 -0.3248
  746MOL0     C 2872   0.879   8.990   9.217  0.2425 -0.1232  0.0705
  746MOL0     C 2873   0.805   9.104   9.289  0.0800  0.5857 -0.0227
  746MOL0     C 2874   0.869   9.115   9.414 -0.2031 -0.9625  0.5360
  746MOL0     C 2875   0.927   9.122   9.518 -0.5086  0.2588  0.1170
  746MOL0     C 2876   1.006   8.517   9.257  0.2552 -0.0201  0.3185
  746MOL0     C 2877   1.097   8.416   9.304 -0.1637 -0.5047  0.1370
  746MOL0     C 2878   1.039   8.308   9.386 -0.3286  0.2009  0.0687
  746MOL0     H 2879   1.676   8.382   9.240 -1.6781 -0.1314 -0.1713
  746MOL0     H 2880   1.879   8.244   9.198  0.4598 -1.4598  1.4881
  746MOL0     H 2881   1.954   7.789   9.222  0.9205  0.3977  3.3673
  746MOL0     H 2882   1.831   7.859   9.316 -0.5994 -0.1366 -1.0387
  746MOL0     H 2883   2.108   7.963   9.291 -0.6098 -0.4540 -0.5364
  746MOL0     H 2884   1.998   8.066   9.351  3.7381  1.2296 -1.4945
  746MOL0     H 2885   1.921   7.904   9.532  0.2319 -1.9342 -0.8840
  746MOL0     H 2886   2.047   7.795   9.485 -3.4835 -1.8622  1.2031
  746MOL0     H 2887   2.225   7.971   9.511  0.3722 -1.1169 -0.6974
  746MOL0     H 2888   2.118   8.097   9.552 -0.3261  0.1376 -3.7182
  746MOL0     H 2889   2.164   7.843   9.723  5.6643  0.6039 -1.5150
  746MOL0     H 2890   2.018   7.950   9.732  0.5066  2.2438  2.6918
  746MOL0     H 2891   2.154   8.141   9.767  0.0560 -0.0938 -0.4965
  746MOL0     H 2892   2.151   8.045   9.912  4.2429 -1.1180  1.2314
  746MOL0     H 2893   2.389   8.055   9.735 -2.8425  0.1199 -0.6198
  746MOL0     H 2894   2.373   7.945   9.872  1.0468 -0.6225 -1.8165
  746MOL0     H 2895   2.480   8.162   9.941  0.1639  0.3151  0.6696
  746MOL0     H 2896   2.345   8.258   9.895 -1.3150  0.1499  1.9038
  746MOL0     H 2897   2.211   8.340  10.103 -1.4113 -0.5344  0.2622
  746MOL0     H 2898   2.118   8.373  10.314  0.8606  2.2397  1.7709
  746MOL0     H 2899   2.258   8.342  10.401  0.6673  1.9727 -3.0343
  746MOL0     H 2900   1.998   8.173  10.387  0.9380 -2.6217  0.3210
  746MOL0     H 2901   2.135   8.121  10.474  3.4081  1.5264  0.0244
  746MOL0     H 2902   2.144   8.341  10.609 -0.5365  1.1127 -0.2564
  746MOL0     H 2903   1.982   8.376  10.539 -2.0854 -2.7608 -1.1636
  746MOL0     H 2904   2.046   8.133  10.695  1.0767 -1.0205 -4.4431
  746MOL0     H 2905   1.955   8.287  10.749 -1.9407  1.1356 -1.0956
  746MOL0     H 2906   1.878   8.100  10.872 -0.3671  1.4890  0.3021
  746MOL0     H 2907   1.667   7.921  11.071  0.3520  0.6259 -1.4229
  746MOL0     H 2908   1.833   7.982  11.056  1.4816 -1.2950 -0.7544
  746MOL0     H 2909   1.797   7.810  11.025  1.7504  0.3056  2.6437
  746MOL0     H 2910   1.547   7.705  11.217  0.6310  1.1516 -1.6269
  746MOL0     H 2911   1.396   7.550  11.341 -0.6084  1.6705  0.0383
  746MOL0     H 2912   1.123   7.366  11.065  1.8199  1.5906  0.1393
  746MOL0     H 2913   1.167   7.202  11.130  1.8538  0.2580  0.9300
  746MOL0     H 2914   0.987   7.396  11.283 -2.2404 -1.2088  1.3091
  746MOL0     H 2915   0.945   7.265  11.161  3.4719 -4.5664 -0.9522
  746MOL0     H 2916   1.144   7.211  11.391 -0.0538 -1.2359 -0.7592
  746MOL0     H 2917   1.025   7.104  11.310  1.7066 -0.5467 -2.1453
  746MOL0     H 2918   0.946   7.337  11.487  0.9264 -0.1091 -0.8327
  746MOL0     H 2919   0.991   7.183  11.553  0.3740  0.0990 -0.6091
  746MOL0     H 2920   0.731   7.254  11.501  0.7000  0.3154  0.3398
  746MOL0     H 2921   0.778   7.207  11.333 -1.0939 -0.7781  0.2279
  746MOL0     H 2922   0.820   7.019  11.572 -0.5250 -1.3621  0.7946
  746MOL0     H 2923   0.849   6.989  11.412  0.9969  1.3981 -0.2000
  746MOL0     H 2924   0.618   6.988  11.350  1.5156 -1.6877  0.4641
  746MOL0     H 2925   0.572   7.097  11.477  0.3656 -0.8593  0.4047
  746MOL0     H 2926   0.487   6.878  11.552 -0.2961  0.1009 -2.8427
  746MOL0     H 2927   0.614   6.926  11.655 -0.2663 -0.0021 -0.7432
  746MOL0     H 2928   1.305   7.349  10.966 -2.2355  1.1952  1.1849
  746MOL0     H 2929   1.438   7.486  10.854 -0.5279 -1.4068  0.0212
  746MOL0     H 2930   1.555   7.834  10.607  1.1093  1.0358 -1.8659
  746MOL0     H 2931   1.687   8.010  10.506 -0.0385  0.8148  0.8338
  746MOL0     H 2932   1.604   7.904   9.147 -1.8584  1.5855 -1.7568
  746MOL0     H 2933   1.430   8.031   9.186  1.2557 -1.2197 -2.3645
  746MOL0     H 2934   1.376   8.524   9.148 -0.6233 -3.4070 -2.8906
  746MOL0     H 2935   1.222   8.704   9.080 -1.4735  2.2987  0.8076
  746MOL0     H 2936   0.788   8.787   9.072 -2.0780  2.0120  2.1534
  746MOL0     H 2937   0.805   8.654   9.187 -0.1833 -0.0410 -1.9342
  746MOL0     H 2938   0.905   8.834   9.354  1.3995  3.5424  0.3458
  746MOL0     H 2939   0.739   8.847   9.299  0.6829 -1.0791  0.1241
  746MOL0     H 2940   0.988   8.994   9.209  0.3342 -1.8616  0.2058
  746MOL0     H 2941   0.840   8.986   9.115  1.2328 -2.2190 -0.2729
  746MOL0     H 2942   0.698   9.081   9.300  0.2685 -1.1563 -1.3357
  746MOL0     H 2943   0.794   9.197   9.233 -1.9310 -1.1963 -2.8726
  746MOL0     H 2944   0.975   9.138   9.613  0.0417 -0.3675 -0.0508
  746MOL0     H 2945   0.904   8.511   9.295 -0.1733 -1.6925 -0.9836
  746MOL0     H 2946   1.011   8.226   9.320 -3.8937  2.3855 -1.4719
  746MOL0     H 2947   1.114   8.280   9.460  1.0911  1.1982 -0.9282
  746MOL0     H 2948   0.949   8.349   9.433 -0.0594  3.1512 -1.7324
  747MOL0     O 2949   1.853   6.206   2.131  0.8879 -0.0750 -0.1108
  747MOL0     C 2950   1.738   6.248   2.136  0.0043 -0.8700 -0.2339
  747MOL0     O 2951   1.688   6.367   2.080 -0.5438  0.3633 -0.2554
  747MOL0     C 2952   1.770   6.464   2.020 -0.1413  0.5224  0.2482
  747MOL0     C 2953   1.897   6.501   2.067 -0.0814 -0.4184  0.2650
  747MOL0     C 2954   1.972   6.601   1.994  0.0874  0.4363 -0.2739
  747MOL0     C 2955   1.919   6.641   1.871  0.3947 -0.0140  0.6743
  747MOL0     O 2956   2.004   6.715   1.797 -0.5572  0.2816 -0.2528
  747MOL0     C 2957   2.036   6.658   1.670 -0.2555 -0.0538  0.1229
  747MOL0     C 2958   2.141   6.730   1.599 -0.7113 -0.1591  0.8094
  747MOL0     C 2959   2.271   6.759   1.672 -0.9030 -0.3562 -0.4886
  747MOL0     C 2960   2.358   6.834   1.574  0.7515 -0.2769  0.0703
  747MOL0     C 2961   2.465   6.910   1.653 -0.1203 -0.7746  1.0022
  747MOL0     C 2962   2.568   6.972   1.563 -0.1019  0.1684 -0.6220
  747MOL0     C 2963   2.670   7.062   1.638 -0.1873  0.4883  0.5345
  747MOL0     C 2964   2.736   7.151   1.532 -0.4184 -0.3194 -0.3543
  747MOL0     N 2965   2.874   7.188   1.552 -0.2601  0.2506 -0.0545
  747MOL0     C 2966   2.943   7.190   1.678  0.5142  0.4087  0.5040
  747MOL0     C 2967   3.060   7.243   1.652 -0.4942 -1.0785  0.3597
  747MOL0     C 2968   3.179   7.244   1.742 -0.4681  0.0068 -0.1440
  747MOL0     C 2969   3.221   7.394   1.753  0.4966  0.0397  0.2019
  747MOL0     C 2970   3.366   7.400   1.804 -0.3140 -0.8954  0.1093
  747MOL0     C 2971   3.416   7.546   1.826  0.2466  0.0510 -0.1320
  747MOL0     O 2972   3.500   7.533   1.944 -0.6955 -0.8246  0.3468
  747MOL0     C 2973   3.631   7.493   1.936 -0.6466 -1.2605 -0.1738
  747MOL0     C 2974   3.711   7.495   1.818 -0.6448 -0.0812  0.4177
  747MOL0     C 2975   3.840   7.431   1.828  0.3675  0.4427 -0.2309
  747MOL0     C 2976   3.923   7.429   1.700 -0.3846 -0.2066 -0.4836
  747MOL0     C 2977   3.892   7.393   1.956  0.0071 -0.3979  0.4676
  747MOL0     C 2978   4.032   7.342   1.979  0.3761 -0.3110 -0.3120
  747MOL0     O 2979   4.044   7.233   2.067 -0.6240 -0.2425 -0.9779
  747MOL0     C 2980   4.172   7.186   2.092  0.2731 -0.0762  0.4755
  747MOL0     C 2981   4.253   7.123   2.000 -0.8083  0.8085 -0.0391
  747MOL0     C 2982   4.372   7.062   2.039 -0.5990 -0.4818  0.6723
  747MOL0     C 2983   4.411   7.071   2.179  0.8071  0.2295  0.3489
  747MOL0     O 2984   4.519   7.005   2.223  0.2351 -0.1389  0.7766
  747MOL0     C 2985   4.645   7.047   2.173  0.1649  0.6098 -0.0197
  747MOL0     C 2986   4.730   6.929   2.127 -0.2587  0.1355 -0.0009
  747MOL0     C 2987   4.861   6.935   2.206  0.6880  0.7008 -0.3966
  747MOL0     C 2988   4.962   7.045   2.173 -0.9535  0.3622  0.2771
  747MOL0     C 2989   5.074   7.030   2.275 -0.2644  0.2725  0.7405
  747MOL0     C 2990   5.181   7.134   2.244 -0.0283 -0.0155  0.1390
  747MOL0     C 2991   5.304   7.098   2.329 -0.2697  0.1275 -0.0211
  747MOL0     C 2992   5.418   7.194   2.299 -0.7802 -0.4310 -0.1890
  747MOL0    Cl 2993   5.376   7.371   2.337 -0.1992 -0.0638  0.4910
  747MOL0     C 2994   4.337   7.140   2.271  0.3890 -0.9857 -0.6189
  747MOL0     C 2995   4.213   7.190   2.226 -1.0485 -0.2819 -0.4795
  747MOL0     O 2996   4.126   7.405   1.927 -0.5276  0.4166 -1.2121
  747MOL0     C 2997   3.812   7.410   2.069 -0.3483  0.9115  0.2880
  747MOL0     C 2998   3.679   7.460   2.060 -0.7061  1.0322 -1.5129
  747MOL0     N 2999   3.059   7.286   1.518 -0.8387 -0.8198  0.3699
  747MOL0     N 3000   2.951   7.250   1.458  0.5785 -0.3781 -0.0310
  747MOL0     C 3001   1.793   6.597   1.830 -0.0313 -0.6892  0.3462
  747MOL0     C 3002   1.724   6.503   1.899  0.7337 -0.4236  1.0139
  747MOL0     C 3003   1.629   6.167   2.207 -0.0508  0.2199 -0.0465
  747MOL0     C 3004   1.501   6.223   2.216 -0.0436 -0.4691 -0.3429
  747MOL0     C 3005   1.393   6.165   2.283  0.1439  0.2745 -0.0258
  747MOL0     C 3006   1.406   6.040   2.345 -0.5071 -0.3971 -0.4367
  747MOL0     O 3007   1.310   5.963   2.402  0.6567 -0.1388 -0.1057
  747MOL0     C 3008   1.172   6.014   2.395  0.0203 -0.7182 -0.0606
  747MOL0     C 3009   1.082   5.890   2.408 -0.0242  0.4060 -0.9475
  747MOL0     C 3010   0.942   5.927   2.472 -0.0581  0.9780  0.4990
  747MOL0     C 3011   0.874   6.045   2.386  0.3449  0.2096 -0.1699
  747MOL0     C 3012   0.730   6.035   2.396  0.3418  0.2103  0.5507
  747MOL0     C 3013   0.611   6.007   2.392 -0.6401 -0.5714  0.2223
  747MOL0     C 3014   1.538   5.983   2.342  0.2521 -0.3152  0.6463
  747MOL0     C 3015   1.646   6.043   2.275 -0.2180 -0.3298  0.3527
  747MOL0     C 3016   1.776   5.958   2.280  0.4459 -0.0038  0.2495
  747MOL0     H 3017   1.941   6.449   2.152  2.7009 -0.6680 -1.2403
  747MOL0     H 3018   2.071   6.636   2.025  0.9490 -0.1194 -2.2291
  747MOL0     H 3019   1.948   6.650   1.605  0.9666  1.3671 -1.8128
  747MOL0     H 3020   2.067   6.553   1.669 -2.9395 -0.9372 -0.8107
  747MOL0     H 3021   2.166   6.665   1.514  2.9248  1.5717  0.3405
  747MOL0     H 3022   2.103   6.828   1.571 -0.3735  0.9352  3.7889
  747MOL0     H 3023   2.249   6.827   1.755  2.2798  2.1997 -1.5325
  747MOL0     H 3024   2.327   6.672   1.708  3.2562  1.3363 -2.2090
  747MOL0     H 3025   2.400   6.756   1.510  2.0077  0.2435  0.2292
  747MOL0     H 3026   2.299   6.905   1.516  2.0907  0.6692 -0.1684
  747MOL0     H 3027   2.523   6.850   1.724  2.5678  2.5957  1.9501
  747MOL0     H 3028   2.422   6.993   1.709  0.8271  1.2442 -1.0778
  747MOL0     H 3029   2.629   6.894   1.517 -1.4265 -1.4724  0.3133
  747MOL0     H 3030   2.509   7.028   1.489  1.3714  1.2043 -1.0503
  747MOL0     H 3031   2.741   7.011   1.705  0.4084  1.9178  1.0258
  747MOL0     H 3032   2.612   7.119   1.712  0.7226 -1.1798  2.6697
  747MOL0     H 3033   2.729   7.121   1.427 -1.2939  1.5919 -0.8937
  747MOL0     H 3034   2.689   7.250   1.536  1.0838  0.4479 -0.6248
  747MOL0     H 3035   2.914   7.141   1.770 -1.1361  0.7458  0.1982
  747MOL0     H 3036   3.257   7.180   1.699  0.9335  1.1204  0.6691
  747MOL0     H 3037   3.155   7.202   1.840 -0.6430 -1.4737 -0.7994
  747MOL0     H 3038   3.210   7.448   1.659 -2.0409 -2.4046 -1.0648
  747MOL0     H 3039   3.145   7.427   1.824 -0.6427  0.3974 -1.1458
  747MOL0     H 3040   3.365   7.335   1.892 -2.1906  0.4355  1.1568
  747MOL0     H 3041   3.439   7.359   1.734  1.0297  4.0860 -1.8799
  747MOL0     H 3042   3.458   7.590   1.735  0.2359  2.1790  0.8532
  747MOL0     H 3043   3.334   7.611   1.857 -0.2753  0.2575 -1.8526
  747MOL0     H 3044   3.676   7.557   1.736 -2.1963  0.1134  1.1896
  747MOL0     H 3045   3.863   7.419   1.609  0.1433 -0.5387 -0.8029
  747MOL0     H 3046   3.988   7.341   1.702  0.1235  0.1699  1.6219
  747MOL0     H 3047   3.968   7.529   1.692 -2.3575  1.1028  2.7032
  747MOL0     H 3048   4.220   7.131   1.896  0.6444  1.2944 -0.4764
  747MOL0     H 3049   4.439   7.010   1.972  1.6411 -1.0129  3.1496
  747MOL0     H 3050   4.631   7.105   2.081 -0.7590  0.1712 -0.1580
  747MOL0     H 3051   4.690   7.108   2.253 -0.7757 -0.2974  1.2212
  747MOL0     H 3052   4.674   6.838   2.150  2.4377 -0.9105  3.1194
  747MOL0     H 3053   4.754   6.945   2.021  1.9550 -0.7131  0.3316
  747MOL0     H 3054   4.893   6.833   2.183  0.1418 -0.1104  2.1523
  747MOL0     H 3055   4.848   6.941   2.314  0.7273  0.3423 -0.3704
  747MOL0     H 3056   4.926   7.147   2.185 -0.9371  0.2557  1.4053
  747MOL0     H 3057   4.997   7.031   2.071 -2.7234  2.7914 -0.7363
  747MOL0     H 3058   5.029   7.051   2.372 -1.5581 -2.9722  0.9619
  747MOL0     H 3059   5.112   6.929   2.263  1.2748  0.9361 -0.2867
  747MOL0     H 3060   5.139   7.232   2.269  0.4947  0.3817 -0.5139
  747MOL0     H 3061   5.211   7.130   2.139 -4.1636  3.2218 -1.4534
  747MOL0     H 3062   5.327   6.991   2.317 -0.1102  0.3024 -1.3571
  747MOL0     H 3063   5.286   7.114   2.436  1.6740  0.9546  0.2212
  747MOL0     H 3064   5.451   7.188   2.195  0.8849 -0.6915  0.3218
  747MOL0     H 3065   5.508   7.179   2.358 -0.9748 -0.8400  0.0045
  747MOL0     H 3066   4.366   7.150   2.375  0.8843  2.9894 -0.9686
  747MOL0     H 3067   4.129   7.227   2.284 -0.8806 -0.6620  0.0081
  747MOL0     H 3068   3.858   7.371   2.159  1.1690 -2.3593 -1.7103
  747MOL0     H 3069   3.612   7.467   2.145  0.6711  4.7063 -0.5438
  747MOL0     H 3070   1.759   6.627   1.732  3.1737 -0.5702 -0.8742
  747MOL0     H 3071   1.629   6.470   1.860  0.7190 -1.5355  1.9488
  747MOL0     H 3072   1.477   6.318   2.169  1.5770 -0.2804 -0.8619
  747MOL0     H 3073   1.292   6.204   2.278  0.7521  1.8060 -1.0958
  747MOL0     H 3074   1.149   6.081   2.479  0.8681  2.6584 -2.3121
  747MOL0     H 3075   1.145   6.065   2.303  2.9366 -0.2295 -0.7430
  747MOL0     H 3076   1.135   5.807   2.456 -3.2613 -2.0570 -1.2941
  747MOL0     H 3077   1.068   5.855   2.306  0.3805  1.1355 -1.2640
  747MOL0     H 3078   0.882   5.836   2.462  0.9675  0.0529  2.2297
  747MOL0     H 3079   0.955   5.942   2.579  1.0181  2.7954  0.1481
  747MOL0     H 3080   0.907   6.048   2.281 -3.2009 -1.2540 -1.4748
  747MOL0     H 3081   0.907   6.136   2.437  3.2400 -0.2236 -1.0608
  747MOL0     H 3082   0.505   5.992   2.397 -0.9094  0.3228 -1.8123
  747MOL0     H 3083   1.545   5.883   2.382 -1.8387 -0.3003  1.1563
  747MOL0     H 3084   1.856   6.020   2.320 -0.3754  1.1479  0.1400
  747MOL0     H 3085   1.774   5.875   2.351  1.9595  1.8396  2.5832
  747MOL0     H 3086   1.792   5.914   2.181 -1.7134  1.7535 -0.9711
  748MOL0     O 3087   8.924   4.028   7.686 -1.0860  0.3775  0.1422
  748MOL0     C 3088   8.844   3.929   7.685 -0.4498 -0.6354  0.4832
  748MOL0     O 3089   8.866   3.813   7.625 -0.4636  0.0485 -0.0139
  748MOL0     C 3090   8.997   3.778   7.586  1.2210  0.4752 -0.6573
  748MOL0     C 3091   9.104   3.747   7.678  0.6124 -0.0042 -0.6636
  748MOL0     C 3092   9.233   3.717   7.641  0.1486  0.4581  0.1739
  748MOL0     C 3093   9.265   3.725   7.505 -0.3749  0.8422 -1.2336
  748MOL0     O 3094   9.387   3.691   7.450 -0.4458 -0.1166 -0.1456
  748MOL0     C 3095   9.508   3.729   7.516 -0.6084  0.3563  1.1929
  748MOL0     C 3096   9.636   3.671   7.443 -0.5055  0.1395 -0.0970
  748MOL0     C 3097   9.639   3.516   7.454 -0.3731  0.4754  0.1588
  748MOL0     C 3098   9.777   3.461   7.455  0.8906 -0.7873  0.0552
  748MOL0     C 3099   9.765   3.305   7.479 -0.5106  0.2687 -0.8240
  748MOL0     C 3100   9.899   3.228   7.450  0.6291 -0.9214  0.4679
  748MOL0     C 3101  10.001   3.253   7.552 -0.3657 -0.3829 -0.2504
  748MOL0     C 3102  10.132   3.167   7.544 -0.2103 -0.2350 -0.9590
  748MOL0     N 3103  10.226   3.217   7.646 -0.4770 -0.8840 -0.4578
  748MOL0     C 3104  10.301   3.338   7.638 -0.5181  0.7741  0.6120
  748MOL0     C 3105  10.358   3.360   7.754 -0.1999  0.8352 -0.6841
  748MOL0     C 3106  10.422   3.488   7.775  0.4141 -0.1916  0.9355
  748MOL0     C 3107  10.564   3.458   7.827  0.5942 -0.2224  0.0162
  748MOL0     C 3108  10.646   3.367   7.726  0.2615  0.4060  0.4540
  748MOL0     C 3109  10.668   3.441   7.591 -0.6165 -0.4783 -0.1328
  748MOL0     O 3110  10.726   3.570   7.607  0.9319 -0.5703  0.4045
  748MOL0     C 3111  10.736   3.627   7.488  0.4247 -0.2122 -0.0224
  748MOL0     C 3112  10.616   3.671   7.419 -0.0477  1.0655  0.5364
  748MOL0     C 3113  10.620   3.726   7.294 -0.2875 -0.1051  0.6263
  748MOL0     C 3114  10.481   3.730   7.226  0.0173 -1.0723 -1.1108
  748MOL0     C 3115  10.747   3.769   7.230 -0.2371  0.6605  0.2332
  748MOL0     C 3116  10.769   3.824   7.089  0.8764 -1.0949 -0.0115
  748MOL0     O 3117  10.895   3.810   7.041  0.2215  0.0008 -0.4310
  748MOL0     C 3118  10.909   3.835   6.907 -0.4568 -0.3205 -0.1307
  748MOL0     C 3119  10.896   3.728   6.818  0.5959 -0.5665 -0.0943
  748MOL0     C 3120  10.909   3.748   6.679 -0.0646 -0.4051  0.0879
  748MOL0     C 3121  10.935   3.875   6.628  0.2012  0.0542 -0.1231
  748MOL0     O 3122  10.951   3.874   6.491 -0.2886  1.2063 -0.7256
  748MOL0     C 3123  10.980   3.996   6.422  0.8205  0.7004  0.6003
  748MOL0     C 3124  11.033   3.957   6.284 -0.0245  0.3351  1.0515
  748MOL0     C 3125  11.011   4.059   6.170  0.7539 -0.4329  0.4782
  748MOL0     C 3126  11.104   4.172   6.188 -0.2296 -0.2821  0.5545
  748MOL0     C 3127  11.250   4.150   6.123  0.4695  0.3065 -0.4559
  748MOL0     C 3128  11.365   4.221   6.199  0.1297  0.6915 -0.8248
  748MOL0     C 3129  11.510   4.155   6.178  0.1756 -0.2346  0.5273
  748MOL0     C 3130  11.631   4.240   6.222 -1.2134 -0.3057  1.0261
  748MOL0    Cl 3131  11.641   4.287   6.391 -0.1640 -0.1012 -0.0733
  748MOL0     C 3132  10.967   3.981   6.721  0.2281 -0.2832 -0.4583
  748MOL0     C 3133  10.947   3.958   6.859 -0.3253 -0.5567  0.3600
  748MOL0     O 3134  10.674   3.884   7.033 -0.6176 -0.1503 -0.7412
  748MOL0     C 3135  10.857   3.726   7.306 -0.3918 -0.4999 -0.2520
  748MOL0     C 3136  10.857   3.657   7.434  0.6310 -0.1605  0.0556
  748MOL0     N 3137  10.321   3.259   7.844  0.1208 -0.3607  0.3639
  748MOL0     N 3138  10.242   3.171   7.774 -0.3382 -0.7596 -0.7747
  748MOL0     C 3139   9.159   3.742   7.411 -0.3411  0.7857 -1.7855
  748MOL0     C 3140   9.026   3.773   7.450  0.0373  0.0813 -0.4269
  748MOL0     C 3141   8.719   3.964   7.762 -0.0057 -0.1234 -0.1623
  748MOL0     C 3142   8.675   4.099   7.759  0.3271 -0.7378  0.2554
  748MOL0     C 3143   8.556   4.143   7.827 -0.0623 -0.3270  0.7404
  748MOL0     C 3144   8.479   4.042   7.888 -0.8292  0.0305  0.3289
  748MOL0     O 3145   8.356   4.075   7.941 -0.3579 -0.3711 -0.6279
  748MOL0     C 3146   8.334   4.031   8.071 -0.4113  0.0567  0.0008
  748MOL0     C 3147   8.223   4.123   8.114 -0.5469 -0.2910  0.1749
  748MOL0     C 3148   8.121   4.082   8.222 -0.0992 -0.3402  0.1975
  748MOL0     C 3149   8.198   4.037   8.349  0.1523  0.2412  0.0149
  748MOL0     C 3150   8.111   3.984   8.456 -0.5957 -0.0359  0.4321
  748MOL0     C 3151   8.051   3.954   8.554  0.7218  0.4971 -0.6077
  748MOL0     C 3152   8.520   3.909   7.876 -0.5541  1.3232  0.1745
  748MOL0     C 3153   8.643   3.864   7.828  0.4659  0.6135  0.5424
  748MOL0     C 3154   8.670   3.714   7.827  0.1123  0.5197 -0.4486
  748MOL0     H 3155   9.078   3.764   7.782 -0.9428  0.9677 -1.1842
  748MOL0     H 3156   9.300   3.701   7.725  0.0137 -0.3503  0.1351
  748MOL0     H 3157   9.517   3.685   7.616 -1.5034 -2.1738  0.2228
  748MOL0     H 3158   9.518   3.838   7.527 -2.0491  0.5058  1.2770
  748MOL0     H 3159   9.635   3.697   7.336 -1.6503 -1.2948 -0.4576
  748MOL0     H 3160   9.720   3.720   7.494 -0.9582  0.2690  0.5356
  748MOL0     H 3161   9.584   3.485   7.544  1.3360  0.5960  1.2861
  748MOL0     H 3162   9.592   3.474   7.365  1.9991 -0.3540 -0.7672
  748MOL0     H 3163   9.803   3.496   7.355 -2.8013  2.2945 -0.0839
  748MOL0     H 3164   9.848   3.501   7.529 -0.0364  0.6720  0.2059
  748MOL0     H 3165   9.686   3.258   7.420  0.2290  0.0360 -1.6614
  748MOL0     H 3166   9.743   3.297   7.586  2.7993  3.2768  0.2894
  748MOL0     H 3167   9.886   3.120   7.436  0.0797 -0.5042 -3.3349
  748MOL0     H 3168   9.923   3.258   7.348  1.1553 -1.1590  0.5158
  748MOL0     H 3169   9.942   3.219   7.638  0.2657 -2.4270 -0.5859
  748MOL0     H 3170  10.039   3.356   7.556 -0.4412 -0.3406 -0.6461
  748MOL0     H 3171  10.128   3.060   7.567 -1.6575  0.4466  2.5133
  748MOL0     H 3172  10.187   3.177   7.450  1.1291 -1.0405 -0.2901
  748MOL0     H 3173  10.299   3.403   7.551 -4.0031 -0.2193 -0.2143
  748MOL0     H 3174  10.370   3.550   7.848 -0.0311  1.2423 -0.5543
  748MOL0     H 3175  10.433   3.550   7.686  1.1036  0.1293  1.2357
  748MOL0     H 3176  10.615   3.550   7.857 -1.0533  1.3282 -1.6629
  748MOL0     H 3177  10.558   3.405   7.923  1.3093 -1.5991 -0.6801
  748MOL0     H 3178  10.743   3.332   7.761 -1.0790 -3.2940  0.9170
  748MOL0     H 3179  10.597   3.272   7.703  0.2814  0.5622 -0.2560
  748MOL0     H 3180  10.735   3.377   7.533 -2.4339 -3.8149  1.1667
  748MOL0     H 3181  10.572   3.451   7.538  1.1568  2.9134 -3.1598
  748MOL0     H 3182  10.520   3.636   7.456  0.8935 -2.2250  0.1805
  748MOL0     H 3183  10.443   3.824   7.265  4.4412  0.2353  0.5528
  748MOL0     H 3184  10.415   3.648   7.258 -0.1745  0.1170  1.7495
  748MOL0     H 3185  10.484   3.730   7.116 -1.0503  0.2184 -1.1599
  748MOL0     H 3186  10.881   3.630   6.862  0.8140 -0.9503 -0.8460
  748MOL0     H 3187  10.894   3.668   6.607  0.1754  0.8755 -1.4524
  748MOL0     H 3188  10.885   4.050   6.416  0.1209  0.0149  3.7846
  748MOL0     H 3189  11.055   4.056   6.476  0.7341  0.2814  1.1893
  748MOL0     H 3190  11.137   3.926   6.298  0.3474  0.3396 -1.3459
  748MOL0     H 3191  10.989   3.866   6.244  0.3589  1.9588 -3.6699
  748MOL0     H 3192  10.909   4.097   6.162  1.1839  0.3327 -2.3122
  748MOL0     H 3193  11.027   4.012   6.073 -0.1074  0.0978  0.0708
  748MOL0     H 3194  11.107   4.187   6.297 -2.8202 -0.8590  0.7679
  748MOL0     H 3195  11.065   4.270   6.157 -0.2132  0.9153  3.9157
  748MOL0     H 3196  11.275   4.044   6.124 -0.3386  0.1108 -0.7050
  748MOL0     H 3197  11.260   4.188   6.021 -2.6313  1.0569 -0.5868
  748MOL0     H 3198  11.353   4.225   6.307  0.0990  2.0318 -0.8580
  748MOL0     H 3199  11.360   4.324   6.161 -2.0631 -0.2957 -3.6374
  748MOL0     H 3200  11.517   4.113   6.077 -0.8604 -1.2760  0.8637
  748MOL0     H 3201  11.517   4.066   6.241  2.6604 -1.5175 -1.3339
  748MOL0     H 3202  11.640   4.326   6.155 -0.2736 -0.3347  1.0961
  748MOL0     H 3203  11.728   4.188   6.220 -0.1816  1.5005  1.8072
  748MOL0     H 3204  10.990   4.078   6.678  1.2414 -0.8715 -1.2987
  748MOL0     H 3205  10.957   4.040   6.930  2.4953  0.1581 -0.7051
  748MOL0     H 3206  10.952   3.760   7.266  0.1851 -3.1156 -1.2985
  748MOL0     H 3207  10.950   3.642   7.488 -0.5903 -2.3092  1.7454
  748MOL0     H 3208   9.180   3.728   7.305 -3.5542 -2.3486 -2.2324
  748MOL0     H 3209   8.953   3.800   7.374  0.5966  2.5806 -0.1677
  748MOL0     H 3210   8.743   4.167   7.710  3.3219 -1.5766  2.8894
  748MOL0     H 3211   8.534   4.249   7.830  2.4979  0.2993 -0.1565
  748MOL0     H 3212   8.301   3.926   8.074  0.8898 -0.4161 -1.2423
  748MOL0     H 3213   8.427   4.034   8.127 -0.6089 -1.0368  0.4143
  748MOL0     H 3214   8.163   4.147   8.027  0.6799  2.5189  0.0181
  748MOL0     H 3215   8.267   4.217   8.147 -3.3619  0.9876  0.5417
  748MOL0     H 3216   8.052   4.164   8.246  2.0233  1.7552 -0.4695
  748MOL0     H 3217   8.061   3.997   8.186  1.6782 -2.1774  1.3598
  748MOL0     H 3218   8.266   4.113   8.388 -0.1809  0.6337 -0.1639
  748MOL0     H 3219   8.264   3.956   8.316 -1.0683 -0.7874  0.0088
  748MOL0     H 3220   7.990   3.915   8.633 -1.5606  2.5835 -1.2306
  748MOL0     H 3221   8.459   3.832   7.923  0.0575 -0.5320 -1.8847
  748MOL0     H 3222   8.638   3.664   7.919 -0.8776  0.0256 -1.0484
  748MOL0     H 3223   8.628   3.670   7.736  1.4452 -0.3220 -0.6902
  748MOL0     H 3224   8.779   3.702   7.822  0.2331  1.5768 -0.5782
  749MOL0     O 3225   2.308   1.121   6.925 -0.4732 -0.1305  0.2100
  749MOL0     C 3226   2.261   1.111   6.816 -0.4331  0.4290  0.6830
  749MOL0     O 3227   2.333   1.075   6.705 -0.7295  0.3106 -0.5046
  749MOL0     C 3228   2.447   1.004   6.728 -0.7264 -0.0974 -0.0868
  749MOL0     C 3229   2.566   1.047   6.669 -0.1437  0.0365  0.4351
  749MOL0     C 3230   2.684   0.978   6.680  0.0144 -0.2250 -0.0696
  749MOL0     C 3231   2.684   0.854   6.755 -0.3869  0.0412 -0.2212
  749MOL0     O 3232   2.791   0.765   6.767 -0.2145  0.2706  0.9723
  749MOL0     C 3233   2.911   0.799   6.701  0.9733 -0.1669 -0.7818
  749MOL0     C 3234   3.016   0.675   6.690  0.5962 -0.2415 -0.5900
  749MOL0     C 3235   3.159   0.721   6.650 -0.3488  0.0771  0.6937
  749MOL0     C 3236   3.245   0.602   6.643 -0.3692  0.2785  0.0035
  749MOL0     C 3237   3.394   0.627   6.615  0.2353  0.0447 -0.1656
  749MOL0     C 3238   3.480   0.502   6.634  0.1445 -0.1968  0.3640
  749MOL0     C 3239   3.503   0.424   6.506  0.2036  0.2271 -0.0634
  749MOL0     C 3240   3.642   0.453   6.441  0.7309  0.0434 -0.4956
  749MOL0     N 3241   3.660   0.351   6.343  0.4244 -0.0597  0.2074
  749MOL0     C 3242   3.606   0.350   6.216 -0.6486  0.0690 -0.0753
  749MOL0     C 3243   3.671   0.256   6.155  0.1153  0.6780 -0.4934
  749MOL0     C 3244   3.627   0.199   6.025 -0.0549 -0.7661 -0.0627
  749MOL0     C 3245   3.724   0.237   5.909 -0.3675  0.0942  0.2556
  749MOL0     C 3246   3.744   0.381   5.907 -0.3306 -0.3475 -0.2047
  749MOL0     C 3247   3.784   0.430   5.771  0.7043  0.4451 -0.6284
  749MOL0     O 3248   3.911   0.369   5.731 -0.3039  0.3833 -0.5461
  749MOL0     C 3249   3.980   0.445   5.636 -0.6252 -0.0265  1.0572
  749MOL0     C 3250   3.945   0.565   5.578  0.1792  0.4520 -0.0143
  749MOL0     C 3251   4.012   0.610   5.460 -0.0887 -0.5494  0.2335
  749MOL0     C 3252   3.946   0.732   5.396  0.7680 -0.1230  0.4865
  749MOL0     C 3253   4.131   0.548   5.410 -0.2708  1.7075  0.4346
  749MOL0     C 3254   4.209   0.580   5.287 -0.2855 -0.0843  0.0108
  749MOL0     O 3255   4.300   0.492   5.238  0.3415  0.1744 -0.4371
  749MOL0     C 3256   4.357   0.516   5.115 -0.4239 -0.7836 -0.4403
  749MOL0     C 3257   4.309   0.462   5.001  0.3522 -0.2487  0.5661
  749MOL0     C 3258   4.370   0.466   4.877  0.0717 -0.7958  0.6492
  749MOL0     C 3259   4.501   0.507   4.862  0.1559  0.7320  0.5004
  749MOL0     O 3260   4.570   0.499   4.741 -0.3007 -0.6392 -0.2788
  749MOL0     C 3261   4.530   0.438   4.627  0.4171  0.2561  0.1966
  749MOL0     C 3262   4.660   0.390   4.549 -0.4575 -0.1377  0.9207
  749MOL0     C 3263   4.730   0.271   4.614 -0.2899  0.7060 -0.3073
  749MOL0     C 3264   4.816   0.213   4.504  1.2682  1.0036 -0.2976
  749MOL0     C 3265   4.929   0.126   4.549  0.3578  0.0050  0.8325
  749MOL0     C 3266   5.012   0.065   4.433 -0.1961 -1.0349 -1.2724
  749MOL0     C 3267   5.115  -0.040   4.487 -0.1216  0.0353  0.2637
  749MOL0     C 3268   5.156  -0.152   4.397 -0.1822 -0.3491 -0.1187
  749MOL0    Cl 3269   5.017  -0.214   4.305 -0.0727 -0.6483  0.1526
  749MOL0     C 3270   4.566   0.553   4.978  0.8784  0.7458 -0.3611
  749MOL0     C 3271   4.496   0.559   5.101  0.6594 -0.5257  0.2148
  749MOL0     O 3272   4.179   0.684   5.237  0.4937  0.4583  0.5391
  749MOL0     C 3273   4.177   0.437   5.485  0.6358 -0.8381  0.6171
  749MOL0     C 3274   4.102   0.392   5.594 -0.8596  0.4029 -0.0724
  749MOL0     N 3275   3.760   0.192   6.234 -0.8893 -0.1551  0.6040
  749MOL0     N 3276   3.762   0.257   6.344 -0.0197 -0.1803 -0.6770
  749MOL0     C 3277   2.569   0.815   6.819  0.1100  0.4284 -0.1449
  749MOL0     C 3278   2.456   0.887   6.809 -0.0036 -0.6005  0.0514
  749MOL0     C 3279   2.111   1.131   6.811  0.3794  0.1589  0.5090
  749MOL0     C 3280   2.048   1.044   6.717  0.3843 -0.3558 -0.5911
  749MOL0     C 3281   1.908   1.038   6.721 -0.7886  0.4756 -0.1020
  749MOL0     C 3282   1.827   1.127   6.800  1.1829 -0.3289  0.7111
  749MOL0     O 3283   1.693   1.110   6.788  0.8719  0.6931 -0.1313
  749MOL0     C 3284   1.603   1.211   6.832  0.1783  0.3266  0.3133
  749MOL0     C 3285   1.467   1.167   6.795 -0.3802  0.6206 -0.9550
  749MOL0     C 3286   1.422   1.037   6.869  0.6187 -0.2759  0.5947
  749MOL0     C 3287   1.406   1.042   7.017 -0.3155  0.9989 -0.4364
  749MOL0     C 3288   1.302   1.126   7.067  1.0767 -0.7249  0.8389
  749MOL0     C 3289   1.207   1.181   7.112  0.4613 -0.8453 -0.5879
  749MOL0     C 3290   1.893   1.228   6.868 -0.3311  0.8614 -0.8898
  749MOL0     C 3291   2.035   1.224   6.884 -0.3173  0.2245 -0.4190
  749MOL0     C 3292   2.101   1.328   6.968 -0.6989  0.3437  0.7806
  749MOL0     H 3293   2.570   1.125   6.594 -0.3905 -0.2621  0.1042
  749MOL0     H 3294   2.774   1.009   6.627  1.0396 -2.3239  0.3613
  749MOL0     H 3295   2.965   0.871   6.763  1.6751 -0.8180 -0.6171
  749MOL0     H 3296   2.882   0.839   6.604 -1.7667  0.9642  0.3891
  749MOL0     H 3297   3.028   0.619   6.783 -0.1305  3.2080  1.7877
  749MOL0     H 3298   2.977   0.607   6.614  0.8442 -0.4724 -0.5096
  749MOL0     H 3299   3.163   0.769   6.552  1.8230 -0.7723  0.3049
  749MOL0     H 3300   3.210   0.791   6.716  0.1763  0.0556  0.3166
  749MOL0     H 3301   3.231   0.549   6.738  0.7840  0.8668  0.5117
  749MOL0     H 3302   3.219   0.542   6.556  0.2720 -1.3592  0.9083
  749MOL0     H 3303   3.424   0.701   6.691  0.1897 -1.2326  1.1426
  749MOL0     H 3304   3.397   0.670   6.515 -1.9535 -0.6938 -0.6078
  749MOL0     H 3305   3.575   0.538   6.676  0.2688 -0.8634  0.6721
  749MOL0     H 3306   3.438   0.439   6.712  1.4823 -3.3707 -1.2846
  749MOL0     H 3307   3.423   0.453   6.438 -0.0370  2.5349  1.1019
  749MOL0     H 3308   3.502   0.318   6.534 -2.1854  0.2485  0.1164
  749MOL0     H 3309   3.644   0.546   6.384  0.4052  0.8650  0.7791
  749MOL0     H 3310   3.724   0.459   6.513  0.1487  2.1878  0.0585
  749MOL0     H 3311   3.519   0.399   6.173  1.1689  1.4740 -2.4658
  749MOL0     H 3312   3.530   0.242   5.999  1.1784  2.3747  0.0802
  749MOL0     H 3313   3.632   0.090   6.041  1.6185 -0.5307  1.3719
  749MOL0     H 3314   3.808   0.170   5.927 -0.1176  0.1138 -0.7816
  749MOL0     H 3315   3.691   0.216   5.807 -0.3195  2.4237 -0.3115
  749MOL0     H 3316   3.658   0.445   5.926  0.5530  1.9833 -3.2941
  749MOL0     H 3317   3.821   0.407   5.981 -0.1669 -1.2872 -0.0353
  749MOL0     H 3318   3.706   0.422   5.695  2.7414  0.1142 -2.8441
  749MOL0     H 3319   3.794   0.538   5.781  1.7159  0.4979 -1.9014
  749MOL0     H 3320   3.860   0.627   5.604  0.0192  0.1520  0.1685
  749MOL0     H 3321   3.852   0.767   5.437  0.6428 -0.6783  0.6803
  749MOL0     H 3322   3.937   0.717   5.288  2.8533  2.6089 -0.1842
  749MOL0     H 3323   4.016   0.816   5.404  0.4673  0.8280 -3.9624
  749MOL0     H 3324   4.213   0.412   4.991  0.0196  0.4410  0.2071
  749MOL0     H 3325   4.327   0.408   4.796 -2.6925 -2.3563  3.0796
  749MOL0     H 3326   4.460   0.355   4.641 -1.3305  1.4148 -1.3288
  749MOL0     H 3327   4.473   0.508   4.566 -0.0699  0.8511  1.3119
  749MOL0     H 3328   4.617   0.358   4.454 -0.3039 -0.0097  0.8066
  749MOL0     H 3329   4.726   0.473   4.522 -0.6985  0.4255  1.9710
  749MOL0     H 3330   4.650   0.199   4.634  1.8590 -1.2022  2.0213
  749MOL0     H 3331   4.782   0.297   4.706 -1.0872  0.9186  0.0875
  749MOL0     H 3332   4.847   0.291   4.434  0.9801  1.2616 -0.1381
  749MOL0     H 3333   4.747   0.152   4.445  2.4580 -1.2696  0.5238
  749MOL0     H 3334   4.989   0.188   4.616  0.3909  0.4932  0.3504
  749MOL0     H 3335   4.896   0.044   4.614  0.0998 -0.0660  0.6111
  749MOL0     H 3336   5.067   0.148   4.389 -3.7144  0.8194 -2.5628
  749MOL0     H 3337   4.945   0.030   4.355 -0.3907 -2.1995 -0.6159
  749MOL0     H 3338   5.069  -0.093   4.571  0.1417  0.7833  0.9012
  749MOL0     H 3339   5.207   0.011   4.518 -0.4114  1.3106 -0.8868
  749MOL0     H 3340   5.201  -0.221   4.468  0.3315 -0.0269 -0.1314
  749MOL0     H 3341   5.229  -0.112   4.326 -0.3326  2.0291  0.9621
  749MOL0     H 3342   4.672   0.571   4.969  0.9584  0.3394 -0.2650
  749MOL0     H 3343   4.539   0.603   5.191  1.5356  0.8741 -0.8426
  749MOL0     H 3344   4.269   0.384   5.468 -0.4112 -2.4273 -0.3459
  749MOL0     H 3345   4.148   0.315   5.656  0.1886 -0.4114 -1.7920
  749MOL0     H 3346   2.563   0.727   6.883 -2.8276  0.8657  0.3108
  749MOL0     H 3347   2.365   0.845   6.852  0.5868 -0.9861  0.9480
  749MOL0     H 3348   2.102   0.975   6.653  1.1252 -3.0316  2.6491
  749MOL0     H 3349   1.868   0.961   6.656 -0.1784 -1.8494  2.1162
  749MOL0     H 3350   1.594   1.222   6.941 -5.1268  0.2958  0.1272
  749MOL0     H 3351   1.638   1.305   6.789  1.9432 -0.5913 -0.3727
  749MOL0     H 3352   1.467   1.148   6.687  0.5150 -0.4573 -0.7803
  749MOL0     H 3353   1.394   1.248   6.806  0.4347  1.0934  1.4537
  749MOL0     H 3354   1.321   1.022   6.829 -0.5087  0.6535  2.9088
  749MOL0     H 3355   1.480   0.953   6.830 -2.3077 -1.0184 -2.6668
  749MOL0     H 3356   1.495   1.086   7.064  1.1881 -1.7966 -0.4537
  749MOL0     H 3357   1.389   0.941   7.056 -2.8753  1.5227 -0.0439
  749MOL0     H 3358   1.127   1.237   7.155 -2.0632 -2.6152 -2.6712
  749MOL0     H 3359   1.839   1.303   6.926  1.3990  1.1489  0.4473
  749MOL0     H 3360   2.148   1.277   7.053 -3.2205  2.8164  3.9296
  749MOL0     H 3361   2.184   1.371   6.912  1.1486 -2.3895  1.1950
  749MOL0     H 3362   2.030   1.404   7.002 -1.1550 -0.5717  1.9347
  750MOL0     O 3363  10.567   4.749   9.350 -0.4465  0.6877 -0.2346
  750MOL0     C 3364  10.501   4.645   9.354 -0.4678 -0.1510  0.4072
  750MOL0     O 3365  10.474   4.555   9.246 -0.0111 -0.2269 -0.3598
  750MOL0     C 3366  10.510   4.606   9.119  0.6784 -0.9169  0.0216
  750MOL0     C 3367  10.563   4.510   9.029 -0.3350  0.4370 -0.0308
  750MOL0     C 3368  10.614   4.539   8.902  0.8447  0.1411 -0.1290
  750MOL0     C 3369  10.590   4.668   8.848  0.6002  0.6789 -0.1827
  750MOL0     O 3370  10.627   4.710   8.717  0.9164  0.3542 -0.4131
  750MOL0     C 3371  10.689   4.612   8.637  0.2804 -0.4155  0.0017
  750MOL0     C 3372  10.656   4.649   8.485  0.6862 -0.3516 -0.2159
  750MOL0     C 3373  10.758   4.754   8.418  0.3691 -0.2399  0.2525
  750MOL0     C 3374  10.742   4.770   8.272 -0.2784  0.4673  0.7602
  750MOL0     C 3375  10.851   4.864   8.216  0.2948 -0.3478  0.0593
  750MOL0     C 3376  10.981   4.800   8.189 -1.0731 -0.7499  0.1382
  750MOL0     C 3377  11.098   4.907   8.190  0.7252  0.0621 -0.0185
  750MOL0     C 3378  11.230   4.837   8.229  0.5645 -0.1345  0.2373
  750MOL0     N 3379  11.324   4.951   8.222 -0.1007 -0.6947  0.0734
  750MOL0     C 3380  11.367   5.011   8.103 -0.2102 -0.2229 -0.5696
  750MOL0     C 3381  11.416   5.134   8.142 -0.1403  0.0409  1.0544
  750MOL0     C 3382  11.513   5.202   8.044  0.3613 -0.2528 -0.3832
  750MOL0     C 3383  11.616   5.098   7.988 -1.2057  0.2560  1.2819
  750MOL0     C 3384  11.741   5.154   7.916  0.1331  0.3883  0.3762
  750MOL0     C 3385  11.844   5.230   8.001  0.4399  0.2906 -0.0088
  750MOL0     O 3386  11.944   5.296   7.920 -0.7377  0.2492  0.6838
  750MOL0     C 3387  11.924   5.430   7.898  0.1902  0.1034 -0.1880
  750MOL0     C 3388  12.041   5.512   7.884 -0.4826 -0.3160  0.0329
  750MOL0     C 3389  12.027   5.650   7.856  0.2446  0.0506 -0.8726
  750MOL0     C 3390  12.159   5.720   7.843 -0.3326 -0.2551 -0.6189
  750MOL0     C 3391  11.901   5.703   7.833  0.2434  0.5161  0.7993
  750MOL0     C 3392  11.889   5.852   7.787  0.4202  0.5593  0.2533
  750MOL0     O 3393  11.827   5.869   7.665  0.1919 -0.0265 -0.6862
  750MOL0     C 3394  11.752   5.989   7.648 -0.5901 -0.2497 -0.2082
  750MOL0     C 3395  11.674   6.037   7.746  0.7604 -0.6094 -0.2052
  750MOL0     C 3396  11.581   6.142   7.726 -0.3718  0.7262  0.7712
  750MOL0     C 3397  11.575   6.211   7.604  0.2167  0.0950  0.4134
  750MOL0     O 3398  11.492   6.320   7.591 -0.5593  0.6212  0.0928
  750MOL0     C 3399  11.483   6.403   7.480  0.4882 -0.1407  0.4608
  750MOL0     C 3400  11.379   6.509   7.511  0.6421  0.0341  0.0240
  750MOL0     C 3401  11.340   6.603   7.399  1.0862 -0.8655  0.4338
  750MOL0     C 3402  11.258   6.733   7.440 -0.4956 -0.4211 -0.2359
  750MOL0     C 3403  11.199   6.788   7.307 -0.4823  0.1626  0.2007
  750MOL0     C 3404  11.108   6.917   7.336 -0.5128  0.0335 -0.7903
  750MOL0     C 3405  11.180   7.033   7.404 -0.6777  0.9438  0.0842
  750MOL0     C 3406  11.083   7.149   7.391  0.8213 -0.4561  0.3365
  750MOL0    Cl 3407  10.943   7.126   7.496  0.0481  0.3123 -0.1991
  750MOL0     C 3408  11.668   6.167   7.508  0.2637 -0.6562  0.2956
  750MOL0     C 3409  11.763   6.067   7.532 -0.1241  0.2715 -0.0737
  750MOL0     O 3410  11.940   5.940   7.856  0.1678 -0.0391  0.2735
  750MOL0     C 3411  11.788   5.623   7.851  0.7292  0.2897 -0.0468
  750MOL0     C 3412  11.797   5.488   7.884 -0.0301 -0.3723 -0.8815
  750MOL0     N 3413  11.389   5.155   8.276 -0.0073  0.2616  0.0307
  750MOL0     N 3414  11.335   5.049   8.316 -0.5812  1.0030  0.4491
  750MOL0     C 3415  10.536   4.762   8.935 -0.0454  0.2153  0.6182
  750MOL0     C 3416  10.498   4.736   9.066 -0.0207 -0.1390 -0.0442
  750MOL0     C 3417  10.458   4.592   9.485  0.2168 -0.2152 -0.1574
  750MOL0     C 3418  10.353   4.511   9.486 -0.4897  1.1082 -0.4407
  750MOL0     C 3419  10.310   4.443   9.603  0.2358 -0.3003 -0.7150
  750MOL0     C 3420  10.358   4.474   9.725  0.4584  0.7575  0.4291
  750MOL0     O 3421  10.295   4.425   9.832  0.5522  0.3843 -0.0644
  750MOL0     C 3422  10.348   4.447   9.968  0.0215 -0.0999  1.0537
  750MOL0     C 3423  10.229   4.454  10.054 -0.2345  0.8584 -1.4033
  750MOL0     C 3424  10.164   4.321  10.080 -0.0763 -0.2812 -0.9926
  750MOL0     C 3425  10.040   4.329  10.165 -0.2148 -0.0883 -0.9202
  750MOL0     C 3426  10.053   4.383  10.301  0.4591 -0.2661  0.3386
  750MOL0     C 3427  10.060   4.445  10.411 -0.1419 -0.6076 -0.5992
  750MOL0     C 3428  10.473   4.549   9.725  1.0539  0.8879  0.7947
  750MOL0     C 3429  10.520   4.610   9.607  0.5355 -1.0012 -0.1162
  750MOL0     C 3430  10.653   4.674   9.621  0.1675 -1.0577  0.1456
  750MOL0     H 3431  10.567   4.404   9.051 -0.5579  0.4167 -0.0798
  750MOL0     H 3432  10.664   4.464   8.842 -2.2463  1.0806 -4.3545
  750MOL0     H 3433  10.660   4.507   8.643  4.5877 -1.8317 -0.5595
  750MOL0     H 3434  10.794   4.623   8.668 -0.4855 -0.4131  2.8811
  750MOL0     H 3435  10.667   4.559   8.425  1.5190 -0.5064  0.1678
  750MOL0     H 3436  10.551   4.681   8.486  0.9553  0.8111  3.0618
  750MOL0     H 3437  10.761   4.847   8.476  0.0277 -0.1518  0.1250
  750MOL0     H 3438  10.855   4.705   8.430  0.3003 -0.1416  1.3061
  750MOL0     H 3439  10.755   4.670   8.229  1.7912 -0.2978  2.9375
  750MOL0     H 3440  10.646   4.809   8.239  0.0021  0.5728  0.0342
  750MOL0     H 3441  10.867   4.950   8.281  1.9073  2.3544 -3.5565
  750MOL0     H 3442  10.816   4.905   8.121  4.1613 -3.5293 -3.0750
  750MOL0     H 3443  11.013   4.742   8.276  0.2611 -0.1285  0.0853
  750MOL0     H 3444  10.972   4.735   8.102  0.3824 -0.2512 -0.4140
  750MOL0     H 3445  11.081   4.979   8.270  2.6001 -0.7129  1.1302
  750MOL0     H 3446  11.103   4.952   8.090 -1.1481 -1.0849 -0.6778
  750MOL0     H 3447  11.229   4.801   8.332 -1.7653  0.3930  0.4562
  750MOL0     H 3448  11.247   4.761   8.153 -0.0780  2.8863 -3.2272
  750MOL0     H 3449  11.374   4.963   8.006 -4.8223  3.7037 -3.3207
  750MOL0     H 3450  11.553   5.293   8.090 -1.0794 -0.4985  1.4849
  750MOL0     H 3451  11.462   5.234   7.954  2.2574  1.3156 -0.9829
  750MOL0     H 3452  11.660   5.044   8.072  1.9444 -2.0444 -1.5631
  750MOL0     H 3453  11.569   5.017   7.932 -0.3750 -1.4993  3.0034
  750MOL0     H 3454  11.787   5.075   7.856 -1.0169  1.1125 -1.5544
  750MOL0     H 3455  11.708   5.220   7.835  1.8342 -0.7409 -1.3136
  750MOL0     H 3456  11.785   5.301   8.061 -1.8074 -0.5424 -1.1012
  750MOL0     H 3457  11.881   5.153   8.069 -0.4796 -0.6399 -0.5396
  750MOL0     H 3458  12.128   5.455   7.915  1.0476  1.8775 -0.0208
  750MOL0     H 3459  12.166   5.770   7.940 -3.2416  3.9086 -2.2197
  750MOL0     H 3460  12.157   5.800   7.767 -1.3043 -0.3621 -0.7220
  750MOL0     H 3461  12.235   5.644   7.827  1.1935  0.8183  1.1710
  750MOL0     H 3462  11.680   5.994   7.846  3.5470  0.2183  0.0679
  750MOL0     H 3463  11.525   6.188   7.807  0.8434  0.8740  1.5429
  750MOL0     H 3464  11.576   6.455   7.454 -2.0656  2.3376 -5.3404
  750MOL0     H 3465  11.456   6.349   7.389 -0.0577  1.5559 -0.4192
  750MOL0     H 3466  11.284   6.460   7.537  1.3269 -0.3913  1.8242
  750MOL0     H 3467  11.400   6.570   7.598 -1.8017 -0.0156  0.7164
  750MOL0     H 3468  11.283   6.551   7.323  1.1335  0.7139 -0.7365
  750MOL0     H 3469  11.427   6.634   7.341  0.3414 -2.0461 -1.3851
  750MOL0     H 3470  11.317   6.812   7.487 -3.4394  1.8195 -0.0010
  750MOL0     H 3471  11.177   6.696   7.503 -0.9954  0.1414 -0.5366
  750MOL0     H 3472  11.284   6.807   7.240 -1.4967  1.8716 -0.6658
  750MOL0     H 3473  11.144   6.711   7.252  2.7548 -0.2002 -2.9484
  750MOL0     H 3474  11.025   6.886   7.399  0.7245  0.1333  0.9752
  750MOL0     H 3475  11.066   6.954   7.242 -1.7365  2.3922  0.5735
  750MOL0     H 3476  11.279   7.055   7.364 -0.6184  1.4743  0.5196
  750MOL0     H 3477  11.196   7.005   7.509  0.8522 -0.8831 -0.5758
  750MOL0     H 3478  11.046   7.174   7.291  2.0088  0.1550  0.0315
  750MOL0     H 3479  11.138   7.239   7.422  0.2799  0.1895 -0.5264
  750MOL0     H 3480  11.657   6.221   7.414 -1.0242 -0.2366  0.6619
  750MOL0     H 3481  11.836   6.039   7.456  0.9097 -1.3987  1.4676
  750MOL0     H 3482  11.686   5.659   7.843  0.2284 -1.2408 -0.9562
  750MOL0     H 3483  11.704   5.434   7.900  0.0417  0.3581  3.0580
  750MOL0     H 3484  10.523   4.861   8.892 -0.8426  0.0489  0.4668
  750MOL0     H 3485  10.456   4.812   9.130  0.1981 -1.0327  1.1845
  750MOL0     H 3486  10.309   4.476   9.393 -1.8606 -1.8064  1.1526
  750MOL0     H 3487  10.216   4.388   9.602  0.6716 -1.3201  2.6044
  750MOL0     H 3488  10.413   4.363   9.991  1.1491 -0.1628 -1.9337
  750MOL0     H 3489  10.397   4.540   9.999 -2.8882  0.3203  5.2120
  750MOL0     H 3490  10.154   4.518  10.008 -0.1743  2.7293  0.9030
  750MOL0     H 3491  10.250   4.496  10.153  0.7086 -0.4784 -0.9992
  750MOL0     H 3492  10.153   4.266   9.986  0.1401  0.0248 -1.2020
  750MOL0     H 3493  10.237   4.266  10.140 -0.7658  0.5868  0.7206
  750MOL0     H 3494  10.007   4.226  10.180  1.4069 -0.6815 -1.2443
  750MOL0     H 3495   9.963   4.384  10.110 -0.9658 -1.0778 -0.8794
  750MOL0     H 3496  10.073   4.482  10.510 -3.0781  1.4426 -0.8513
  750MOL0     H 3497  10.528   4.555   9.819  4.9132 -1.7576 -1.0482
  750MOL0     H 3498  10.712   4.618   9.548 -0.5223 -1.3489 -0.1907
  750MOL0     H 3499  10.648   4.779   9.591  0.3553 -1.3086 -0.8003
  750MOL0     H 3500  10.687   4.656   9.724 -3.4057  2.1862  2.1696
  751MOL0     O 3501   7.144   6.586  10.865  0.1332  0.3250 -0.8688
  751MOL0     C 3502   7.036   6.573  10.922  0.6121  0.0142  0.7204
  751MOL0     O 3503   6.917   6.551  10.853 -0.4344  0.0314 -0.1172
  751MOL0     C 3504   6.913   6.558  10.711  0.0417  0.4823  1.1031
  751MOL0     C 3505   7.004   6.506  10.627 -1.1299  0.2927  1.4459
  751MOL0     C 3506   6.995   6.513  10.480 -0.1462 -0.3196 -1.1120
  751MOL0     C 3507   6.880   6.581  10.425 -1.0928 -0.3439  0.0662
  751MOL0     O 3508   6.876   6.574  10.290 -0.5021 -0.5522 -0.2842
  751MOL0     C 3509   6.744   6.549  10.239  0.1178 -0.2220  0.7143
  751MOL0     C 3510   6.686   6.408  10.261 -0.1088 -0.1437  1.0205
  751MOL0     C 3511   6.790   6.296  10.233  0.1417 -0.0413 -0.3904
  751MOL0     C 3512   6.723   6.159  10.200 -0.9591  1.6824  0.0108
  751MOL0     C 3513   6.832   6.059  10.153 -0.5544  0.4725 -0.0381
  751MOL0     C 3514   6.853   6.046   9.997 -0.0824 -0.5438 -0.1040
  751MOL0     C 3515   6.957   5.944   9.961  0.3225  0.0533  0.1880
  751MOL0     C 3516   7.097   5.967  10.030  0.8703  0.6996 -0.2366
  751MOL0     N 3517   7.142   6.107  10.015  0.6363  0.1029  0.3618
  751MOL0     C 3518   7.148   6.208  10.105 -1.1927  0.2967 -0.2005
  751MOL0     C 3519   7.200   6.309  10.031 -0.0339  0.6808  0.1920
  751MOL0     C 3520   7.219   6.454  10.081  0.4791  0.3494 -0.1467
  751MOL0     C 3521   7.310   6.470  10.200 -0.4861 -0.6408 -0.6867
  751MOL0     C 3522   7.325   6.619  10.235  0.2801  0.1093  0.5362
  751MOL0     C 3523   7.419   6.640  10.358 -0.0749  0.8686  0.4059
  751MOL0     O 3524   7.429   6.773  10.397  1.2284 -0.5331 -0.1863
  751MOL0     C 3525   7.515   6.849  10.319 -0.0365 -0.5246 -0.0308
  751MOL0     C 3526   7.623   6.805  10.231 -0.3348  0.2929 -0.4477
  751MOL0     C 3527   7.717   6.882  10.173 -0.0069  1.0013 -0.1708
  751MOL0     C 3528   7.824   6.824  10.095 -0.3634  0.3172 -0.7577
  751MOL0     C 3529   7.708   7.021  10.200  0.3409 -0.2950  0.7859
  751MOL0     C 3530   7.787   7.136  10.126  0.6192  0.5584  0.5131
  751MOL0     O 3531   7.764   7.269  10.163 -0.0078 -0.3138  0.4352
  751MOL0     C 3532   7.803   7.380  10.091 -0.1077  0.0922 -0.1071
  751MOL0     C 3533   7.863   7.385   9.966  0.1742  0.8090 -0.3846
  751MOL0     C 3534   7.874   7.508   9.897 -0.3424  0.9478 -0.8302
  751MOL0     C 3535   7.848   7.624   9.972 -0.1607  0.8852 -0.0903
  751MOL0     O 3536   7.863   7.749   9.921  0.6626  0.3258  0.9270
  751MOL0     C 3537   7.866   7.771   9.773  0.2963 -0.8377 -0.3754
  751MOL0     C 3538   7.718   7.781   9.729 -0.0159 -0.9713  0.1304
  751MOL0     C 3539   7.655   7.924   9.722  0.4752 -0.1479 -1.1436
  751MOL0     C 3540   7.639   7.995   9.851  0.0058  0.7242 -0.4842
  751MOL0     C 3541   7.595   8.138   9.827  0.1669 -0.4429 -1.0600
  751MOL0     C 3542   7.564   8.212   9.960  0.0992 -0.5026 -0.0164
  751MOL0     C 3543   7.697   8.251  10.020 -0.1246 -0.2362 -0.3002
  751MOL0     C 3544   7.709   8.392  10.075 -0.3874  1.0067 -0.0105
  751MOL0    Cl 3545   7.866   8.387  10.164 -0.3504  0.0096 -0.5171
  751MOL0     C 3546   7.818   7.617  10.111 -0.5470 -0.2261 -0.1259
  751MOL0     C 3547   7.778   7.497  10.163  0.3742  0.7964 -1.2866
  751MOL0     O 3548   7.861   7.104  10.035 -0.1889  0.6811  0.3473
  751MOL0     C 3549   7.604   7.071  10.291 -0.4423 -0.0580  0.2844
  751MOL0     C 3550   7.508   6.991  10.344  0.5270  0.1327 -0.8560
  751MOL0     N 3551   7.228   6.262   9.898  0.0825 -0.1517  0.1065
  751MOL0     N 3552   7.183   6.141   9.893 -0.6607 -0.2653  0.2310
  751MOL0     C 3553   6.792   6.650  10.508  0.1228  0.2495 -0.6977
  751MOL0     C 3554   6.814   6.638  10.649 -0.1378 -0.0519 -0.4556
  751MOL0     C 3555   7.028   6.581  11.068  0.0684 -0.4013 -0.1061
  751MOL0     C 3556   7.028   6.715  11.123  0.0419  0.7739  0.8327
  751MOL0     C 3557   7.007   6.740  11.256  0.6986  0.9568  0.2676
  751MOL0     C 3558   6.985   6.635  11.346  0.8369  0.6314 -0.5179
  751MOL0     O 3559   6.985   6.678  11.475  0.7895 -0.6197 -0.7037
  751MOL0     C 3560   6.874   6.619  11.558  0.8882 -0.5210 -0.0660
  751MOL0     C 3561   6.738   6.687  11.520  0.3206  0.2011 -0.0844
  751MOL0     C 3562   6.646   6.712  11.631  0.5561 -0.4813 -0.0558
  751MOL0     C 3563   6.519   6.623  11.631 -0.5051 -0.3318  0.2645
  751MOL0     C 3564   6.557   6.479  11.644  0.5401  0.6786 -0.9905
  751MOL0     C 3565   6.585   6.359  11.661 -0.1710  0.4035  0.1167
  751MOL0     C 3566   6.982   6.504  11.293  0.7601  0.0344 -0.0428
  751MOL0     C 3567   7.001   6.471  11.155  0.6069 -0.0226  1.0186
  751MOL0     C 3568   6.989   6.326  11.100 -0.1370  0.1780 -0.4997
  751MOL0     H 3569   7.081   6.437  10.662 -2.1297 -2.4934 -1.4062
  751MOL0     H 3570   7.055   6.448  10.417  1.3240  1.2897 -1.4403
  751MOL0     H 3571   6.744   6.582  10.135 -1.7046 -1.0415  0.4124
  751MOL0     H 3572   6.679   6.623  10.286 -0.2678 -0.1207  0.0280
  751MOL0     H 3573   6.664   6.404  10.368  0.3978 -1.6642  1.0947
  751MOL0     H 3574   6.598   6.394  10.198 -0.0078  2.4137  0.1877
  751MOL0     H 3575   6.853   6.339  10.155 -0.1779  1.1978  0.0194
  751MOL0     H 3576   6.859   6.280  10.317  1.6527 -1.1096 -1.7628
  751MOL0     H 3577   6.676   6.126  10.293  1.0906 -0.5623  0.3559
  751MOL0     H 3578   6.644   6.165  10.125 -1.0674  4.5048  0.2647
  751MOL0     H 3579   6.807   5.958  10.189  0.7673  0.5805  1.2491
  751MOL0     H 3580   6.928   6.089  10.194 -0.1966 -0.2353 -0.3479
  751MOL0     H 3581   6.760   6.005   9.954 -1.1096 -1.6075  2.8962
  751MOL0     H 3582   6.868   6.146   9.954 -1.0909  0.5789  1.9919
  751MOL0     H 3583   6.964   5.938   9.852 -0.9021 -0.7897  0.1323
  751MOL0     H 3584   6.917   5.848   9.996  4.3175 -2.3033 -1.0252
  751MOL0     H 3585   7.072   5.962  10.137 -0.3040  3.1145 -0.3459
  751MOL0     H 3586   7.170   5.888  10.007  0.3068  0.1704 -0.2419
  751MOL0     H 3587   7.122   6.206  10.211 -1.9402  0.4049 -0.3798
  751MOL0     H 3588   7.126   6.503  10.111 -0.2051 -1.0929  0.1677
  751MOL0     H 3589   7.262   6.504   9.994 -1.0740 -0.8838 -1.6861
  751MOL0     H 3590   7.267   6.424  10.289  1.3823  3.7117  2.8593
  751MOL0     H 3591   7.412   6.434  10.182  0.5185  1.4350  0.4718
  751MOL0     H 3592   7.363   6.672  10.147  1.8827  0.4921  1.4202
  751MOL0     H 3593   7.227   6.663  10.255 -0.1249 -1.8757  3.6753
  751MOL0     H 3594   7.381   6.592  10.448  2.4125  0.1635  1.1674
  751MOL0     H 3595   7.514   6.593  10.332 -0.9872 -2.8572  2.9934
  751MOL0     H 3596   7.621   6.708  10.183  0.9876 -0.0150  0.0783
  751MOL0     H 3597   7.815   6.858   9.991  1.0412 -0.8979 -1.3220
  751MOL0     H 3598   7.835   6.715  10.101  3.3073  0.5786 -0.6054
  751MOL0     H 3599   7.918   6.862  10.137 -1.6337  2.2123  0.5041
  751MOL0     H 3600   7.900   7.291   9.927 -0.8009 -0.3222  1.2663
  751MOL0     H 3601   7.908   7.503   9.794 -0.8123 -2.9421 -0.9511
  751MOL0     H 3602   7.929   7.855   9.743 -1.0963  0.2010 -0.4377
  751MOL0     H 3603   7.912   7.685   9.722  2.1194  0.4230 -0.9575
  751MOL0     H 3604   7.714   7.736   9.629  1.9748 -0.1186 -0.3957
  751MOL0     H 3605   7.661   7.723   9.801 -0.7607 -0.8287 -0.3341
  751MOL0     H 3606   7.551   7.916   9.686  0.9997  0.1428 -2.8288
  751MOL0     H 3607   7.709   7.982   9.647 -1.1907  2.5481 -0.3779
  751MOL0     H 3608   7.735   7.998   9.904 -1.1130  0.8617  1.6234
  751MOL0     H 3609   7.563   7.952   9.916  0.0457  1.8173  0.3104
  751MOL0     H 3610   7.674   8.189   9.770 -0.3964 -0.4763 -1.8866
  751MOL0     H 3611   7.497   8.150   9.779 -0.5479  1.2355  0.7058
  751MOL0     H 3612   7.507   8.147  10.027 -1.7946 -0.9288 -1.9243
  751MOL0     H 3613   7.500   8.299   9.943 -1.6432 -1.9683 -1.4170
  751MOL0     H 3614   7.782   8.254   9.951 -1.2405 -1.1700 -1.7560
  751MOL0     H 3615   7.729   8.177  10.094  0.3999 -0.0064 -0.2889
  751MOL0     H 3616   7.634   8.431  10.144  0.3563  0.8824  0.8922
  751MOL0     H 3617   7.710   8.455   9.986 -3.9390 -0.1561 -1.0232
  751MOL0     H 3618   7.816   7.712  10.164  1.4564  1.2430 -2.4832
  751MOL0     H 3619   7.751   7.476  10.266 -0.2868 -0.8835 -1.7678
  751MOL0     H 3620   7.593   7.179  10.293  2.7456  0.3809  0.0453
  751MOL0     H 3621   7.427   7.030  10.405  0.9545 -0.6656  0.2693
  751MOL0     H 3622   6.707   6.702  10.465  1.0128 -0.0348 -2.9275
  751MOL0     H 3623   6.742   6.681  10.718 -1.7985 -1.8872 -0.9590
  751MOL0     H 3624   7.041   6.809  11.069  4.2167  0.1579  0.4603
  751MOL0     H 3625   7.029   6.839  11.296  2.9803  0.4125  0.4930
  751MOL0     H 3626   6.864   6.510  11.566  0.2188 -0.3662  1.5439
  751MOL0     H 3627   6.895   6.646  11.662 -0.9305  0.9592 -0.0403
  751MOL0     H 3628   6.687   6.615  11.455  0.9355 -1.1538  0.8843
  751MOL0     H 3629   6.767   6.777  11.465 -0.3464 -0.6282 -1.8684
  751MOL0     H 3630   6.699   6.713  11.726  0.2583 -0.3648  0.1102
  751MOL0     H 3631   6.620   6.818  11.620  1.0487 -0.3939 -0.4155
  751MOL0     H 3632   6.457   6.644  11.543  2.4246 -2.5659 -2.5536
  751MOL0     H 3633   6.448   6.632  11.714 -1.5337 -4.5685  0.0313
  751MOL0     H 3634   6.604   6.259  11.695  1.2248  1.1340  1.6288
  751MOL0     H 3635   6.973   6.427  11.369  1.0155 -0.8027 -0.8517
  751MOL0     H 3636   7.089   6.299  11.065 -0.2284  0.0051 -0.6300
  751MOL0     H 3637   6.959   6.249  11.172  2.2997 -2.2784 -1.9220
  751MOL0     H 3638   6.912   6.309  11.024  0.8768 -0.3697 -1.4169
  752MOL0     O 3639   4.035   8.521   4.852 -0.2554  0.4393 -0.0413
  752MOL0     C 3640   4.050   8.504   4.729 -0.5465 -0.2973 -0.1081
  752MOL0     O 3641   4.158   8.571   4.663 -0.8406 -0.2466  0.3658
  752MOL0     C 3642   4.260   8.615   4.745  0.6651 -0.9413  0.6426
  752MOL0     C 3643   4.239   8.709   4.849  0.0422  0.3850  0.4788
  752MOL0     C 3644   4.343   8.744   4.931  0.1901 -0.1466 -0.0381
  752MOL0     C 3645   4.476   8.698   4.919  0.3896 -0.4935  0.6031
  752MOL0     O 3646   4.598   8.740   4.978  0.4725  0.4847  0.3621
  752MOL0     C 3647   4.597   8.836   5.080  0.1500 -0.3271 -0.2466
  752MOL0     C 3648   4.730   8.840   5.157 -0.2745  0.2022 -0.0139
  752MOL0     C 3649   4.738   8.964   5.242  0.3620 -0.1218 -0.4312
  752MOL0     C 3650   4.876   8.998   5.291  0.2557  0.1002 -0.1075
  752MOL0     C 3651   4.882   9.105   5.402 -0.3266 -0.0953 -0.8754
  752MOL0     C 3652   5.023   9.119   5.451  0.3458 -0.1988  0.1436
  752MOL0     C 3653   5.047   9.243   5.547 -0.2682 -0.2617 -0.0644
  752MOL0     C 3654   4.956   9.264   5.664  0.2647  0.1672  0.1470
  752MOL0     N 3655   4.988   9.203   5.801  0.0735 -0.1595  0.5233
  752MOL0     C 3656   5.114   9.174   5.856  0.2627  0.9662 -0.2408
  752MOL0     C 3657   5.080   9.113   5.973  0.1457 -0.3014 -0.5156
  752MOL0     C 3658   5.176   9.060   6.073 -0.6054  0.5470  0.2913
  752MOL0     C 3659   5.311   9.009   6.017  0.0858 -1.2574 -0.0703
  752MOL0     C 3660   5.415   9.112   6.027 -0.1041 -0.5524 -0.9084
  752MOL0     C 3661   5.555   9.055   6.013 -0.0880 -0.5665  0.5366
  752MOL0     O 3662   5.554   8.947   5.919  0.3794 -0.6120 -0.5753
  752MOL0     C 3663   5.541   8.977   5.784  0.0946  0.4958 -0.5532
  752MOL0     C 3664   5.531   9.103   5.733  0.5194  0.8191  0.4261
  752MOL0     C 3665   5.523   9.138   5.599  0.5332 -0.6110 -0.6542
  752MOL0     C 3666   5.508   9.285   5.579 -0.4322  0.0561  0.2884
  752MOL0     C 3667   5.513   9.027   5.508 -0.3729 -0.5447  0.4691
  752MOL0     C 3668   5.489   9.043   5.356 -0.0541  0.3750 -1.0871
  752MOL0     O 3669   5.406   8.946   5.305 -0.0032 -0.7238  0.3843
  752MOL0     C 3670   5.348   8.969   5.187  0.6820 -0.2976  0.0912
  752MOL0     C 3671   5.220   8.911   5.171 -0.1563  0.8154 -0.3879
  752MOL0     C 3672   5.142   8.931   5.053 -0.3203  0.0928 -0.3948
  752MOL0     C 3673   5.190   9.004   4.948  0.1187  0.3917  0.0003
  752MOL0     O 3674   5.104   9.002   4.832  0.1450 -0.5518 -0.1150
  752MOL0     C 3675   5.148   9.072   4.713 -0.0099  0.1823  0.7521
  752MOL0     C 3676   5.058   9.032   4.601 -0.0731 -0.2498 -0.1999
  752MOL0     C 3677   5.033   8.885   4.584 -1.0634  1.1313  1.0386
  752MOL0     C 3678   5.158   8.829   4.514 -0.1050  0.6752 -0.0599
  752MOL0     C 3679   5.144   8.686   4.465 -0.3453  0.4689  0.5428
  752MOL0     C 3680   5.089   8.581   4.568  0.4002  0.3294  0.5888
  752MOL0     C 3681   5.166   8.569   4.697  0.5887 -0.1249 -0.6548
  752MOL0     C 3682   5.114   8.447   4.786 -0.4408  0.5799  0.6728
  752MOL0    Cl 3683   4.943   8.426   4.795 -0.2152  0.0790  0.4549
  752MOL0     C 3684   5.314   9.077   4.965 -0.1557 -0.2788 -0.2695
  752MOL0     C 3685   5.381   9.060   5.087 -0.1435 -0.7238  0.5430
  752MOL0     O 3686   5.544   9.131   5.295 -0.4449  1.0499 -0.8096
  752MOL0     C 3687   5.507   8.894   5.558  0.0302 -0.1443 -0.9219
  752MOL0     C 3688   5.525   8.865   5.701  0.1498  0.0366 -0.3523
  752MOL0     N 3689   4.947   9.096   5.988 -0.5091 -0.0672 -0.7472
  752MOL0     N 3690   4.893   9.153   5.879 -0.6488  0.4444 -0.2490
  752MOL0     C 3691   4.494   8.602   4.818  1.1436 -0.5007  0.3394
  752MOL0     C 3692   4.391   8.563   4.724  0.0407  0.2470 -0.0499
  752MOL0     C 3693   3.936   8.442   4.652  0.0365  0.7588 -0.1831
  752MOL0     C 3694   3.810   8.426   4.703 -0.4237 -0.0558 -0.1841
  752MOL0     C 3695   3.712   8.354   4.635  0.3779 -0.0866 -0.1428
  752MOL0     C 3696   3.728   8.300   4.510 -0.1285  0.3680 -0.6057
  752MOL0     O 3697   3.637   8.218   4.456  0.4169 -0.1941 -1.0127
  752MOL0     C 3698   3.675   8.164   4.333  0.1878 -0.0117 -0.6402
  752MOL0     C 3699   3.546   8.103   4.270  0.0903  0.1290  0.2352
  752MOL0     C 3700   3.540   8.107   4.117 -0.1483 -0.7218  0.3825
  752MOL0     C 3701   3.414   8.050   4.044  0.6509 -0.4816  0.6900
  752MOL0     C 3702   3.285   8.113   4.078  0.7738  0.5289 -0.1567
  752MOL0     C 3703   3.195   8.148   4.148  0.9715  0.8001  0.2282
  752MOL0     C 3704   3.855   8.322   4.457 -0.6500 -0.1145 -0.0471
  752MOL0     C 3705   3.960   8.386   4.525  0.8659 -0.1096 -0.6391
  752MOL0     C 3706   4.100   8.393   4.459  0.1647  1.1729  0.4270
  752MOL0     H 3707   4.139   8.729   4.886 -0.4973 -1.5806  0.2191
  752MOL0     H 3708   4.318   8.818   5.006  1.3494 -1.1013  1.3615
  752MOL0     H 3709   4.513   8.830   5.149  0.2698  1.7554  0.1410
  752MOL0     H 3710   4.584   8.929   5.024  0.8851 -0.8085 -1.2722
  752MOL0     H 3711   4.738   8.750   5.220  0.9090 -0.4426 -1.0352
  752MOL0     H 3712   4.811   8.828   5.084  1.1062 -0.8863  1.5813
  752MOL0     H 3713   4.695   9.047   5.185  1.3749 -0.4325 -1.6996
  752MOL0     H 3714   4.675   8.940   5.328  0.0840  1.3325 -0.2045
  752MOL0     H 3715   4.929   8.907   5.322  0.6525  0.4065  0.1171
  752MOL0     H 3716   4.932   9.043   5.208  0.8510  1.1312  0.8403
  752MOL0     H 3717   4.817   9.064   5.480  0.2389  1.9105  0.7369
  752MOL0     H 3718   4.846   9.201   5.365 -3.3661 -0.0248  1.8612
  752MOL0     H 3719   5.038   9.017   5.489  2.1923  0.9520  2.7394
  752MOL0     H 3720   5.086   9.133   5.363  0.5473 -2.8858 -0.2302
  752MOL0     H 3721   5.044   9.343   5.502 -2.6649 -0.7728 -1.1635
  752MOL0     H 3722   5.147   9.230   5.591  0.4807  2.4478 -0.7384
  752MOL0     H 3723   4.954   9.373   5.672 -1.2183  0.2913 -1.3944
  752MOL0     H 3724   4.858   9.221   5.642  0.0747  0.0719  1.1376
  752MOL0     H 3725   5.212   9.187   5.811  0.2181  0.7564 -0.3983
  752MOL0     H 3726   5.124   8.982   6.131  1.6845  0.8337  2.9458
  752MOL0     H 3727   5.192   9.139   6.147 -3.4696  2.6127 -1.0897
  752MOL0     H 3728   5.339   8.909   6.053 -0.6087 -2.0949 -1.7397
  752MOL0     H 3729   5.282   8.994   5.912 -2.2874 -3.0640  0.7465
  752MOL0     H 3730   5.395   9.190   5.953 -0.2010 -0.3020 -0.6234
  752MOL0     H 3731   5.417   9.154   6.128  1.7481 -0.1113 -1.0848
  752MOL0     H 3732   5.633   9.127   5.987  0.9244 -0.2246  3.9228
  752MOL0     H 3733   5.591   9.006   6.104  1.4716  0.4965  0.5211
  752MOL0     H 3734   5.539   9.185   5.804  1.0680  1.6440 -0.5607
  752MOL0     H 3735   5.404   9.306   5.553 -1.0763 -0.8522  1.9626
  752MOL0     H 3736   5.579   9.311   5.500 -0.4143 -1.8757 -0.3951
  752MOL0     H 3737   5.520   9.341   5.672 -1.7747  0.2152  0.3866
  752MOL0     H 3738   5.194   8.845   5.253  2.0611  0.7909  0.3724
  752MOL0     H 3739   5.043   8.889   5.041 -0.3880  1.0198 -5.3336
  752MOL0     H 3740   5.125   9.177   4.729 -1.5637 -0.0655  0.3196
  752MOL0     H 3741   5.248   9.041   4.682  0.5752  2.4738  0.2205
  752MOL0     H 3742   4.960   9.078   4.615 -1.9272 -3.1890 -2.3336
  752MOL0     H 3743   5.103   9.077   4.511 -0.3135 -0.7187 -0.5584
  752MOL0     H 3744   4.947   8.866   4.518 -1.5098 -0.0197  1.9169
  752MOL0     H 3745   5.013   8.840   4.682 -2.5771  0.7603  0.5943
  752MOL0     H 3746   5.245   8.847   4.578  1.0588  0.7830 -1.6167
  752MOL0     H 3747   5.189   8.892   4.431 -0.4048  1.8984  0.7305
  752MOL0     H 3748   5.085   8.681   4.374 -0.8843  0.3532  0.8973
  752MOL0     H 3749   5.249   8.661   4.444 -0.7426 -0.5849 -0.2438
  752MOL0     H 3750   5.065   8.480   4.531 -0.6349 -0.0695  2.2573
  752MOL0     H 3751   4.991   8.623   4.591  0.8849  1.4438  0.6608
  752MOL0     H 3752   5.146   8.659   4.756  1.1350 -0.6862  0.3958
  752MOL0     H 3753   5.272   8.566   4.672  0.3040  0.8735 -2.1048
  752MOL0     H 3754   5.161   8.442   4.885 -1.5873  1.1490  1.2603
  752MOL0     H 3755   5.146   8.353   4.741 -0.7785  1.1144 -0.7343
  752MOL0     H 3756   5.339   9.151   4.891 -1.1167 -1.5529 -1.9440
  752MOL0     H 3757   5.468   9.126   5.085  0.2470 -1.1897 -2.3818
  752MOL0     H 3758   5.510   8.812   5.487  1.2293  0.4201 -1.5532
  752MOL0     H 3759   5.530   8.762   5.733  1.7495  0.7973  2.1406
  752MOL0     H 3760   4.595   8.566   4.801  2.1094  2.4997 -0.9552
  752MOL0     H 3761   4.413   8.501   4.639  1.4464 -1.8622  1.7474
  752MOL0     H 3762   3.778   8.467   4.798  1.1408  0.1706  0.2771
  752MOL0     H 3763   3.611   8.347   4.676  0.7322  0.2222  0.8041
  752MOL0     H 3764   3.699   8.249   4.268  4.2348  0.6854  1.4577
  752MOL0     H 3765   3.758   8.093   4.342  1.6876  1.8437  1.5683
  752MOL0     H 3766   3.454   8.144   4.312 -0.5237 -1.4839  0.5488
  752MOL0     H 3767   3.549   7.997   4.296 -1.4186 -0.6575 -2.3344
  752MOL0     H 3768   3.559   8.209   4.083  4.1775 -1.1602  0.9195
  752MOL0     H 3769   3.624   8.053   4.073 -0.4745 -1.5807  0.7927
  752MOL0     H 3770   3.416   7.941   4.051  1.2532 -0.6511 -1.4586
  752MOL0     H 3771   3.433   8.067   3.938 -3.4195  3.8748  0.3258
  752MOL0     H 3772   3.117   8.188   4.209  1.6284  0.0837  1.5838
  752MOL0     H 3773   3.881   8.287   4.358 -0.1721 -1.7304  0.6253
  752MOL0     H 3774   4.183   8.363   4.524  1.7432 -2.5593 -2.9528
  752MOL0     H 3775   4.095   8.326   4.373  0.0157 -0.7072  1.8389
  752MOL0     H 3776   4.128   8.493   4.425  1.6735  0.1760 -1.4677
  753MOL0     O 3777   5.171  10.713   7.310  0.0243 -0.5530 -0.0734
  753MOL0     C 3778   5.186  10.726   7.188 -0.5303  1.5108  0.3167
  753MOL0     O 3779   5.299  10.778   7.127  1.0376  0.3362 -0.2578
  753MOL0     C 3780   5.311  10.769   6.990 -0.2245  0.1890 -0.5626
  753MOL0     C 3781   5.427  10.711   6.941 -0.2832  0.1825  0.3240
  753MOL0     C 3782   5.457  10.690   6.806 -0.2785 -0.0488  0.5921
  753MOL0     C 3783   5.369  10.752   6.717 -0.5405 -0.7139  0.3755
  753MOL0     O 3784   5.402  10.762   6.585  0.2521 -0.6220 -0.4990
  753MOL0     C 3785   5.535  10.819   6.556  0.3894 -0.7195 -0.5361
  753MOL0     C 3786   5.538  10.895   6.424  0.5709  1.0093 -0.4117
  753MOL0     C 3787   5.430  11.007   6.432  0.6533 -0.2888 -0.5322
  753MOL0     C 3788   5.426  11.095   6.299  0.2307 -1.1797  0.6460
  753MOL0     C 3789   5.358  11.235   6.319 -0.7592  0.3791 -0.7194
  753MOL0     C 3790   5.224  11.228   6.383 -0.0603 -1.0233 -0.6072
  753MOL0     C 3791   5.118  11.184   6.293  0.0984  1.3449 -0.8777
  753MOL0     C 3792   5.100  11.266   6.167  0.2726  0.6374 -0.1080
  753MOL0     N 3793   4.968  11.259   6.109  0.3527 -0.4242  0.1508
  753MOL0     C 3794   4.856  11.331   6.156 -0.5046  0.7339  0.0601
  753MOL0     C 3795   4.749  11.296   6.072 -0.0143  0.4857 -0.8691
  753MOL0     C 3796   4.598  11.325   6.099 -0.6063 -1.1149 -0.5077
  753MOL0     C 3797   4.509  11.322   5.983  0.2045 -1.3308  1.0751
  753MOL0     C 3798   4.366  11.358   5.997  0.8795  0.7398 -0.4701
  753MOL0     C 3799   4.289  11.252   6.079 -0.7975 -0.3845 -0.6984
  753MOL0     O 3800   4.258  11.143   5.996  0.2543 -0.1774  0.6442
  753MOL0     C 3801   4.150  11.066   6.034 -0.2899  1.2027 -0.6507
  753MOL0     C 3802   4.091  10.987   5.934  0.3367 -1.1565  0.4442
  753MOL0     C 3803   3.979  10.912   5.965  0.4727  0.1926 -0.1303
  753MOL0     C 3804   3.916  10.844   5.845  0.7369  0.2757  1.1691
  753MOL0     C 3805   3.939  10.891   6.100 -1.1525 -0.2787 -0.0045
  753MOL0     C 3806   3.825  10.801   6.154  1.0045 -0.0053  0.4700
  753MOL0     O 3807   3.815  10.790   6.286 -0.2228  0.3765  1.2471
  753MOL0     C 3808   3.703  10.732   6.350 -0.6647  0.0770  0.0538
  753MOL0     C 3809   3.733  10.662   6.469 -0.1019 -0.3676 -0.2813
  753MOL0     C 3810   3.631  10.628   6.559  0.6135 -0.2094 -0.9763
  753MOL0     C 3811   3.494  10.657   6.523 -0.5499  0.0476 -0.4393
  753MOL0     O 3812   3.383  10.638   6.606 -0.9086 -0.4180 -0.3257
  753MOL0     C 3813   3.401  10.538   6.710 -0.6996  0.2933 -0.1421
  753MOL0     C 3814   3.253  10.499   6.742 -0.3955 -0.3362  0.3161
  753MOL0     C 3815   3.178  10.614   6.808  0.4624  1.4726 -0.5060
  753MOL0     C 3816   3.030  10.595   6.801  0.0997 -0.3001 -0.6698
  753MOL0     C 3817   2.939  10.706   6.862 -0.6104  0.1310 -0.0647
  753MOL0     C 3818   2.791  10.673   6.878 -0.8190  0.3336  0.6370
  753MOL0     C 3819   2.730  10.767   6.983 -0.1118  0.6143 -0.1183
  753MOL0     C 3820   2.577  10.766   6.959 -0.0227  0.4762  0.7608
  753MOL0    Cl 3821   2.523  10.921   7.036  0.5399  0.2281 -0.1446
  753MOL0     C 3822   3.473  10.713   6.395  0.1060  0.1211  0.4166
  753MOL0     C 3823   3.572  10.751   6.315  0.6089 -0.2240  0.3703
  753MOL0     O 3824   3.757  10.737   6.070 -0.0251  0.2495  0.4735
  753MOL0     C 3825   4.003  10.973   6.200 -0.1097 -0.4182  1.5826
  753MOL0     C 3826   4.110  11.051   6.167  0.8852 -0.0371  0.0409
  753MOL0     N 3827   4.800  11.206   5.973 -0.4221 -0.3876 -0.3920
  753MOL0     N 3828   4.926  11.187   5.993 -0.6421 -0.4597 -0.6348
  753MOL0     C 3829   5.253  10.818   6.757  0.2702 -0.2299 -0.9702
  753MOL0     C 3830   5.219  10.818   6.895 -0.4081 -0.5666 -0.1027
  753MOL0     C 3831   5.075  10.649   7.118 -0.7546 -0.7606 -0.2963
  753MOL0     C 3832   5.095  10.515   7.081  0.1545  0.3204  0.3230
  753MOL0     C 3833   4.987  10.450   7.023 -0.8747 -0.9065  0.3886
  753MOL0     C 3834   4.869  10.506   7.003 -0.8168 -0.3454  0.2328
  753MOL0     O 3835   4.770  10.431   6.942  0.0683 -0.7537  0.0782
  753MOL0     C 3836   4.633  10.431   6.990 -0.2558  0.1295  0.2208
  753MOL0     C 3837   4.621  10.432   7.142  0.8539 -0.1987  0.3162
  753MOL0     C 3838   4.707  10.328   7.219  0.4158  0.6655  0.8949
  753MOL0     C 3839   4.704  10.359   7.366  0.1141  0.2505  0.0939
  753MOL0     C 3840   4.784  10.487   7.386 -0.1496  0.0075 -0.6400
  753MOL0     C 3841   4.814  10.604   7.405 -0.5221  0.2302  0.9326
  753MOL0     C 3842   4.848  10.638   7.044  0.9319  0.1325  0.7159
  753MOL0     C 3843   4.951  10.714   7.092 -0.5058 -0.2085 -0.6376
  753MOL0     C 3844   4.925  10.870   7.133 -0.1145  0.3579 -0.0693
  753MOL0     H 3845   5.498  10.677   7.016  1.9701 -0.4296 -1.9313
  753MOL0     H 3846   5.549  10.644   6.771  0.3648  0.4512  1.5762
  753MOL0     H 3847   5.603  10.734   6.546  1.3569  0.1067 -1.2304
  753MOL0     H 3848   5.557  10.883   6.642  0.5498  0.3066 -1.3116
  753MOL0     H 3849   5.630  10.953   6.420 -0.0085  2.2111  1.9575
  753MOL0     H 3850   5.519  10.831   6.337 -0.6243 -1.3310  1.4241
  753MOL0     H 3851   5.334  10.958   6.447  0.8012 -0.6065 -0.6241
  753MOL0     H 3852   5.445  11.065   6.524  0.8149 -3.3200  1.4679
  753MOL0     H 3853   5.523  11.107   6.251 -0.5863 -0.8545 -0.9583
  753MOL0     H 3854   5.367  11.042   6.224 -1.1588  3.4346 -1.8794
  753MOL0     H 3855   5.363  11.291   6.226 -1.2212  1.6351 -0.0207
  753MOL0     H 3856   5.426  11.290   6.385  2.3201 -1.1525 -2.3948
  753MOL0     H 3857   5.229  11.171   6.476 -0.7955 -0.6241 -0.3143
  753MOL0     H 3858   5.190  11.319   6.433  1.8676 -1.0210  0.8317
  753MOL0     H 3859   5.022  11.168   6.344  0.2413  0.7134 -0.8024
  753MOL0     H 3860   5.139  11.082   6.260  1.0437  0.6182  1.6885
  753MOL0     H 3861   5.118  11.374   6.165 -0.4629  0.8351 -3.7728
  753MOL0     H 3862   5.167  11.223   6.092  1.2829 -2.3019  2.2885
  753MOL0     H 3863   4.846  11.402   6.237 -1.1874  0.4397  0.2407
  753MOL0     H 3864   4.588  11.415   6.159 -1.9992 -1.0713 -0.7658
  753MOL0     H 3865   4.561  11.251   6.171  1.8336  0.2488  2.3195
  753MOL0     H 3866   4.548  11.401   5.917 -1.2075 -1.6055 -0.1244
  753MOL0     H 3867   4.513  11.227   5.928  0.4846 -0.1543 -1.0309
  753MOL0     H 3868   4.363  11.452   6.053  1.5373  1.5212 -1.7077
  753MOL0     H 3869   4.310  11.372   5.904  0.4312 -2.3558 -0.7626
  753MOL0     H 3870   4.345  11.217   6.166  1.6556 -0.9404 -2.3924
  753MOL0     H 3871   4.198  11.300   6.114 -1.8674 -0.3863 -3.2661
  753MOL0     H 3872   4.129  11.007   5.834  1.7562  2.9697  1.5728
  753MOL0     H 3873   3.965  10.882   5.755  1.5717  0.0602  1.5182
  753MOL0     H 3874   3.810  10.868   5.836  0.6912  2.3509  4.9917
  753MOL0     H 3875   3.915  10.735   5.857 -2.3116  0.2893  1.9081
  753MOL0     H 3876   3.841  10.654   6.483 -0.0249  1.3160  0.3724
  753MOL0     H 3877   3.652  10.598   6.661 -2.4226  0.5516 -0.0193
  753MOL0     H 3878   3.462  10.456   6.670  2.6313  1.5154  1.9988
  753MOL0     H 3879   3.448  10.587   6.796  1.1539  4.5212 -3.2130
  753MOL0     H 3880   3.202  10.462   6.653  0.1186 -1.1492  0.3506
  753MOL0     H 3881   3.252  10.420   6.818  2.9345 -1.2597 -0.4421
  753MOL0     H 3882   3.204  10.711   6.764 -1.6300  2.4125  0.2109
  753MOL0     H 3883   3.217  10.630   6.909  1.9222 -0.8836 -0.6114
  753MOL0     H 3884   2.991  10.502   6.843 -5.4480  1.9410 -0.0517
  753MOL0     H 3885   3.004  10.590   6.695  2.9899  1.7506 -1.5950
  753MOL0     H 3886   2.976  10.720   6.964 -1.4699  1.3308  0.1069
  753MOL0     H 3887   2.959  10.804   6.818  1.1974 -0.1739 -0.0030
  753MOL0     H 3888   2.778  10.568   6.905  1.1008  0.3115  1.6977
  753MOL0     H 3889   2.748  10.686   6.778  1.8390 -0.8001 -0.7718
  753MOL0     H 3890   2.764  10.870   6.969  0.4052  0.4708  0.0556
  753MOL0     H 3891   2.751  10.745   7.088  0.8201 -0.3327 -0.4917
  753MOL0     H 3892   2.534  10.679   7.009 -0.2983  0.0064 -0.2522
  753MOL0     H 3893   2.546  10.759   6.854 -2.0889  1.9574  1.2066
  753MOL0     H 3894   3.368  10.726   6.372  0.4263 -1.7003 -2.6426
  753MOL0     H 3895   3.551  10.816   6.231 -0.5306  0.0837  0.8679
  753MOL0     H 3896   3.974  10.965   6.304  0.6547  2.2832  2.0807
  753MOL0     H 3897   4.168  11.095   6.247  1.6789 -1.8865  0.5442
  753MOL0     H 3898   5.192  10.866   6.681 -0.3559 -1.5684 -1.3423
  753MOL0     H 3899   5.121  10.860   6.916  0.5891  0.3529  3.1941
  753MOL0     H 3900   5.191  10.467   7.094  1.8714  3.1554 -1.0771
  753MOL0     H 3901   4.991  10.345   6.996 -1.0780 -0.9997  0.7202
  753MOL0     H 3902   4.581  10.521   6.956 -2.0061 -0.9519 -0.0233
  753MOL0     H 3903   4.574  10.355   6.939  0.5286 -1.7343  1.9212
  753MOL0     H 3904   4.516  10.410   7.161  1.3833 -1.6932  1.7865
  753MOL0     H 3905   4.639  10.535   7.176  0.2440  0.1016 -0.2448
  753MOL0     H 3906   4.658  10.231   7.207  1.3951  0.2236  0.3182
  753MOL0     H 3907   4.808  10.309   7.184  0.0513  1.4793 -0.7002
  753MOL0     H 3908   4.755  10.280   7.422  3.3075  1.1017 -1.3579
  753MOL0     H 3909   4.601  10.368   7.401  0.3557  1.7490  0.4874
  753MOL0     H 3910   4.835  10.709   7.417 -0.2566  0.2514  0.3254
  753MOL0     H 3911   4.752  10.686   7.031 -0.4507 -2.0598  2.1258
  753MOL0     H 3912   5.013  10.934   7.121  0.3260 -0.3475 -0.7071
  753MOL0     H 3913   4.848  10.907   7.065  0.5797  0.0505 -1.0497
  753MOL0     H 3914   4.886  10.877   7.235 -1.1203  0.3735 -0.4488
  754MOL0     O 3915   8.747   6.697   8.653  0.2016 -0.3147 -0.1531
  754MOL0     C 3916   8.654   6.617   8.669  0.5116 -0.1843 -0.1810
  754MOL0     O 3917   8.565   6.578   8.581  0.1934  0.0610  0.0591
  754MOL0     C 3918   8.560   6.632   8.453 -1.2457 -0.6472  0.2811
  754MOL0     C 3919   8.649   6.615   8.346  0.5073 -1.1862  0.4793
  754MOL0     C 3920   8.630   6.656   8.213  0.2112 -0.7010 -0.7175
  754MOL0     C 3921   8.516   6.734   8.184  0.2184  0.3739  0.2518
  754MOL0     O 3922   8.507   6.776   8.047 -0.6795 -0.5182  0.1201
  754MOL0     C 3923   8.378   6.817   8.010 -0.0434  0.5518  0.3916
  754MOL0     C 3924   8.381   6.881   7.873  0.7707 -0.5268  0.7130
  754MOL0     C 3925   8.247   6.941   7.842 -0.9094 -0.2703  0.0332
  754MOL0     C 3926   8.242   6.993   7.700  0.2251 -0.0088  0.4808
  754MOL0     C 3927   8.122   7.091   7.681 -0.2290  0.0879  0.4814
  754MOL0     C 3928   8.138   7.168   7.545  0.4403 -0.4251  0.2662
  754MOL0     C 3929   8.009   7.219   7.479  0.5113 -0.0686  0.2655
  754MOL0     C 3930   7.917   7.302   7.583 -0.2928 -0.5796  0.4304
  754MOL0     N 3931   7.815   7.375   7.514  0.0299  0.0145 -0.9075
  754MOL0     C 3932   7.712   7.321   7.437  0.1608  1.0332  0.5509
  754MOL0     C 3933   7.626   7.423   7.407 -0.5731  0.3144 -1.1634
  754MOL0     C 3934   7.497   7.424   7.348  0.2905 -0.8392  0.2170
  754MOL0     C 3935   7.488   7.344   7.223 -0.3953  0.1378  0.3922
  754MOL0     C 3936   7.346   7.360   7.160 -0.2074 -0.7048  0.2889
  754MOL0     C 3937   7.250   7.251   7.211 -0.3390 -0.4826 -0.0654
  754MOL0     O 3938   7.124   7.301   7.164 -0.3677  0.0813  0.2880
  754MOL0     C 3939   7.014   7.230   7.197  0.3266  0.4962 -0.5179
  754MOL0     C 3940   7.010   7.149   7.305  0.4981  0.6064  0.4999
  754MOL0     C 3941   6.892   7.083   7.346 -0.0414 -0.1729 -0.3628
  754MOL0     C 3942   6.900   7.014   7.479  0.0404 -0.1675  0.1319
  754MOL0     C 3943   6.774   7.099   7.259  0.1391 -0.2210  1.1270
  754MOL0     C 3944   6.634   7.048   7.288  0.0565  0.1248 -0.7785
  754MOL0     O 3945   6.535   7.058   7.190  0.0184 -0.5172  0.1255
  754MOL0     C 3946   6.420   6.984   7.207  0.0539 -0.4441  0.3498
  754MOL0     C 3947   6.311   7.036   7.277  0.0371  0.6919  0.6802
  754MOL0     C 3948   6.191   6.965   7.287  0.2686  0.2000 -0.3766
  754MOL0     C 3949   6.193   6.830   7.251 -0.0680  0.0913  1.4225
  754MOL0     O 3950   6.081   6.756   7.271  0.6276 -0.4774 -0.4872
  754MOL0     C 3951   5.988   6.762   7.169  1.4013 -0.4762 -0.4235
  754MOL0     C 3952   5.895   6.636   7.189 -0.1078 -0.2646  0.3580
  754MOL0     C 3953   5.798   6.657   7.318 -0.2442 -0.9332  0.1967
  754MOL0     C 3954   5.698   6.547   7.317  0.4972 -0.0366  0.1650
  754MOL0     C 3955   5.617   6.530   7.458 -0.2322 -0.5524 -0.3277
  754MOL0     C 3956   5.496   6.445   7.447 -0.1756 -0.2448 -0.1223
  754MOL0     C 3957   5.406   6.417   7.578  0.1590 -0.3509 -0.0397
  754MOL0     C 3958   5.303   6.310   7.545 -0.6232  0.6959  0.6988
  754MOL0    Cl 3959   5.227   6.249   7.686 -1.1349  0.5445  0.5226
  754MOL0     C 3960   6.308   6.774   7.190  0.6305 -0.7493  1.1261
  754MOL0     C 3961   6.417   6.854   7.166  0.6294  0.2019  0.1928
  754MOL0     O 3962   6.624   6.997   7.402  0.1984 -0.3571  0.8622
  754MOL0     C 3963   6.785   7.180   7.148  0.3177 -0.5698  0.9530
  754MOL0     C 3964   6.905   7.243   7.116  0.0825 -0.2152  0.2528
  754MOL0     N 3965   7.689   7.535   7.444  0.8000 -0.5532 -0.6815
  754MOL0     N 3966   7.799   7.512   7.512  0.2415 -0.8337  0.5825
  754MOL0     C 3967   8.430   6.762   8.291  0.1129  0.0986 -0.8362
  754MOL0     C 3968   8.453   6.715   8.424  0.0355  0.5089  1.5391
  754MOL0     C 3969   8.643   6.544   8.804 -0.6119  0.3164 -0.2584
  754MOL0     C 3970   8.598   6.414   8.805  0.3082  0.8536 -0.1885
  754MOL0     C 3971   8.572   6.339   8.922 -0.2317  1.5930  1.0792
  754MOL0     C 3972   8.599   6.400   9.042  0.2982 -0.0946 -0.0001
  754MOL0     O 3973   8.575   6.319   9.152  0.6231 -0.4919  0.4481
  754MOL0     C 3974   8.593   6.373   9.283 -0.4940 -0.4352  0.3409
  754MOL0     C 3975   8.533   6.294   9.401  0.3038 -0.2815 -0.6495
  754MOL0     C 3976   8.583   6.334   9.532 -0.2444  0.5181  0.1952
  754MOL0     C 3977   8.556   6.473   9.565  0.1288  0.4996 -0.8177
  754MOL0     C 3978   8.597   6.506   9.701  0.5898  0.5039 -1.1949
  754MOL0     C 3979   8.627   6.538   9.808  0.2501 -0.4090 -0.6560
  754MOL0     C 3980   8.649   6.527   9.041 -1.0188  0.6492 -0.2702
  754MOL0     C 3981   8.672   6.606   8.929  1.6708  0.1761  0.0083
  754MOL0     C 3982   8.716   6.752   8.940  0.3464 -0.6647  0.3427
  754MOL0     H 3983   8.734   6.551   8.367  2.1870  0.7029 -0.2267
  754MOL0     H 3984   8.702   6.617   8.142  1.7044 -0.6158  0.6698
  754MOL0     H 3985   8.344   6.897   8.075 -0.5616 -0.6906  1.6992
  754MOL0     H 3986   8.307   6.734   8.015 -1.9980  2.0864 -0.7574
  754MOL0     H 3987   8.468   6.946   7.858  0.7070 -0.8591 -1.3351
  754MOL0     H 3988   8.385   6.805   7.795  0.9005 -0.6359  0.8246
  754MOL0     H 3989   8.170   6.867   7.867 -2.4938  1.4512  0.5020
  754MOL0     H 3990   8.242   7.028   7.909 -0.3075  0.8068 -1.2911
  754MOL0     H 3991   8.336   7.049   7.687 -1.1902  3.0075  2.0470
  754MOL0     H 3992   8.245   6.909   7.630  0.4986  1.0372 -0.8219
  754MOL0     H 3993   8.111   7.157   7.767  0.8576  1.8223 -0.6656
  754MOL0     H 3994   8.038   7.022   7.665  1.5693 -1.2583 -6.5259
  754MOL0     H 3995   8.209   7.251   7.542 -0.5459  0.4218 -0.9172
  754MOL0     H 3996   8.164   7.088   7.476  2.2961 -0.1753  0.6210
  754MOL0     H 3997   7.948   7.131   7.452  0.9324 -0.4015  0.3853
  754MOL0     H 3998   8.032   7.281   7.392 -0.5880 -0.5871 -0.4219
  754MOL0     H 3999   7.869   7.233   7.653  0.9836 -1.3254  0.6042
  754MOL0     H 4000   7.974   7.374   7.642 -1.3680  0.9062 -0.2773
  754MOL0     H 4001   7.685   7.217   7.417  0.3834  1.5672 -3.3796
  754MOL0     H 4002   7.477   7.528   7.319 -3.2162 -1.4246  0.0005
  754MOL0     H 4003   7.415   7.408   7.418  2.0054 -1.6547  2.1214
  754MOL0     H 4004   7.562   7.367   7.146 -0.2977 -3.6721 -0.8658
  754MOL0     H 4005   7.512   7.240   7.249  2.3367  0.6945  0.3677
  754MOL0     H 4006   7.309   7.461   7.180 -1.2296 -0.8481 -0.8057
  754MOL0     H 4007   7.354   7.345   7.052 -0.6087  1.6406 -0.1345
  754MOL0     H 4008   7.268   7.150   7.174  0.3395 -0.3535 -0.0884
  754MOL0     H 4009   7.257   7.257   7.320 -1.0409  2.2239 -0.0946
  754MOL0     H 4010   7.084   7.144   7.384 -0.6421 -1.5170  1.5065
  754MOL0     H 4011   6.831   6.929   7.481 -2.2610  1.5958 -0.6795
  754MOL0     H 4012   6.863   7.076   7.560 -1.4922  0.4820 -1.0163
  754MOL0     H 4013   7.002   6.980   7.500  0.2620 -0.2731 -1.0429
  754MOL0     H 4014   6.323   7.134   7.322 -2.3909  1.6498 -0.5492
  754MOL0     H 4015   6.102   7.004   7.336 -1.2789 -1.4340 -1.7325
  754MOL0     H 4016   5.933   6.857   7.166  3.3460  0.8278 -5.6709
  754MOL0     H 4017   6.038   6.766   7.072  2.9682  5.7419  0.1968
  754MOL0     H 4018   5.826   6.615   7.107  1.3043 -1.5662 -0.5730
  754MOL0     H 4019   5.963   6.551   7.202 -1.3977 -1.7482 -1.9335
  754MOL0     H 4020   5.754   6.757   7.305  3.0214  0.5853 -0.2324
  754MOL0     H 4021   5.862   6.647   7.406 -0.6254 -0.0597  0.5881
  754MOL0     H 4022   5.751   6.459   7.280  1.9986  1.2722 -0.9004
  754MOL0     H 4023   5.623   6.575   7.242  1.7645  3.4209  0.0077
  754MOL0     H 4024   5.684   6.485   7.531 -1.0286 -0.7496  0.2862
  754MOL0     H 4025   5.572   6.624   7.491 -0.3794  0.3189 -2.8017
  754MOL0     H 4026   5.542   6.352   7.413  6.0244  2.4427 -0.5127
  754MOL0     H 4027   5.429   6.484   7.370  0.3895 -1.7859 -1.4335
  754MOL0     H 4028   5.359   6.504   7.622 -0.4592 -1.4720  1.6010
  754MOL0     H 4029   5.466   6.382   7.663 -2.5191 -1.7276  1.3927
  754MOL0     H 4030   5.344   6.230   7.483 -0.3396  1.8602 -0.6753
  754MOL0     H 4031   5.230   6.364   7.483 -1.4323  0.3972  1.3637
  754MOL0     H 4032   6.290   6.668   7.173 -2.7433 -0.0957 -0.3273
  754MOL0     H 4033   6.511   6.823   7.124  0.8721 -1.0334  1.5498
  754MOL0     H 4034   6.714   7.197   7.067  2.2703 -4.3804 -1.9097
  754MOL0     H 4035   6.899   7.305   7.028 -1.4931  1.7880  1.6665
  754MOL0     H 4036   8.340   6.820   8.275 -0.0516  0.2835  0.6555
  754MOL0     H 4037   8.389   6.760   8.499  0.1111  0.0119  1.9134
  754MOL0     H 4038   8.563   6.363   8.716 -0.7204 -1.0566  1.2052
  754MOL0     H 4039   8.526   6.241   8.914 -1.0280  2.0984 -1.2243
  754MOL0     H 4040   8.698   6.388   9.309 -1.8210  2.8696  4.9296
  754MOL0     H 4041   8.555   6.474   9.270  2.6225  0.5702 -2.6295
  754MOL0     H 4042   8.570   6.192   9.393  2.4654  0.5847 -3.5824
  754MOL0     H 4043   8.423   6.292   9.401  0.3135 -0.7932 -0.2330
  754MOL0     H 4044   8.536   6.278   9.613  3.2233  1.8222  3.4406
  754MOL0     H 4045   8.692   6.325   9.534 -0.3317 -0.9170 -0.4740
  754MOL0     H 4046   8.449   6.493   9.567 -0.8423 -3.6234  2.1533
  754MOL0     H 4047   8.606   6.543   9.498  2.1718 -0.7869 -0.7345
  754MOL0     H 4048   8.649   6.582   9.904 -0.5718  2.8589 -1.8466
  754MOL0     H 4049   8.678   6.576   9.133  1.2182 -1.0046 -0.0086
  754MOL0     H 4050   8.633   6.820   8.915  2.4041  1.0005 -2.5346
  754MOL0     H 4051   8.759   6.783   9.036  0.7703 -0.7896  0.1938
  754MOL0     H 4052   8.787   6.780   8.862 -1.2552 -1.7900 -1.6199
  755MOL0     O 4053   1.000   7.080   9.398  0.0458 -0.3577  0.6038
  755MOL0     C 4054   0.921   7.163   9.443 -0.0573  0.1388  0.9552
  755MOL0     O 4055   0.950   7.258   9.537 -0.3274 -0.3627 -0.6537
  755MOL0     C 4056   1.078   7.299   9.541  0.5519 -0.8771  0.4267
  755MOL0     C 4057   1.154   7.331   9.424  0.3746  0.3585  0.7745
  755MOL0     C 4058   1.285   7.374   9.431 -0.1075  0.7014  0.4192
  755MOL0     C 4059   1.347   7.371   9.544  0.7786  0.2677  0.3682
  755MOL0     O 4060   1.477   7.404   9.531 -0.3568  0.6062  0.3268
  755MOL0     C 4061   1.579   7.400   9.635 -0.2957  0.5128 -0.1940
  755MOL0     C 4062   1.618   7.532   9.692 -0.2746 -0.2967  0.2515
  755MOL0     C 4063   1.536   7.593   9.804 -0.1359 -1.3431  0.2722
  755MOL0     C 4064   1.552   7.524   9.941  0.5894  0.3747  0.0881
  755MOL0     C 4065   1.491   7.602  10.054  0.0077  0.1139  0.3576
  755MOL0     C 4066   1.526   7.748  10.056 -0.5551 -0.3703 -0.4920
  755MOL0     C 4067   1.475   7.811  10.181 -0.3346 -0.6712 -1.1915
  755MOL0     C 4068   1.329   7.843  10.167 -0.6256 -0.5886 -0.5687
  755MOL0     N 4069   1.280   7.875  10.299  0.1781  0.5516 -1.1704
  755MOL0     C 4070   1.276   7.994  10.361 -0.9047 -0.4128 -0.3746
  755MOL0     C 4071   1.240   7.970  10.489 -0.8299 -0.0852  0.0414
  755MOL0     C 4072   1.206   8.076  10.598  0.6851 -0.4268  0.2651
  755MOL0     C 4073   1.297   8.057  10.717 -0.0109  0.0887 -0.7188
  755MOL0     C 4074   1.259   8.164  10.826  0.0964 -0.0999  0.0399
  755MOL0     C 4075   1.368   8.182  10.929 -0.9775  0.2100 -0.1291
  755MOL0     O 4076   1.467   8.259  10.869  0.8013 -0.4625 -0.0166
  755MOL0     C 4077   1.573   8.282  10.942  0.2896 -0.3856  0.2586
  755MOL0     C 4078   1.645   8.391  10.906  0.5771  0.1538 -0.2142
  755MOL0     C 4079   1.757   8.448  10.974 -1.2212  0.3666 -0.8221
  755MOL0     C 4080   1.822   8.573  10.917  0.0334  0.1698  0.3823
  755MOL0     C 4081   1.795   8.383  11.092  0.9198  1.4183 -0.7334
  755MOL0     C 4082   1.911   8.419  11.182  0.7911 -0.4752  0.2118
  755MOL0     O 4083   1.928   8.347  11.300 -0.2799  0.2229 -0.0413
  755MOL0     C 4084   2.018   8.387  11.395  0.4050  0.2659  0.3633
  755MOL0     C 4085   1.980   8.470  11.502  0.1381  0.4191  0.9913
  755MOL0     C 4086   2.070   8.508  11.606  1.0380 -0.7443  0.3070
  755MOL0     C 4087   2.201   8.461  11.602  0.3382 -0.8707 -0.0381
  755MOL0     O 4088   2.293   8.477  11.702 -0.3049  0.1869 -0.1214
  755MOL0     C 4089   2.243   8.524  11.831 -0.1258 -0.1412 -0.0191
  755MOL0     C 4090   2.365   8.543  11.921  0.1156 -0.3745  0.2369
  755MOL0     C 4091   2.335   8.579  12.069 -0.5046  0.5848 -0.1832
  755MOL0     C 4092   2.293   8.731  12.085 -0.2941  0.5752  0.0886
  755MOL0     C 4093   2.181   8.763  12.178 -0.1498  0.7212 -0.7603
  755MOL0     C 4094   2.209   8.704  12.318  0.1287  0.5003 -1.0629
  755MOL0     C 4095   2.126   8.761  12.435  0.9976 -0.8523 -0.5742
  755MOL0     C 4096   1.975   8.768  12.413  0.4528  0.6723 -0.2246
  755MOL0    Cl 4097   1.912   8.599  12.417  0.0277  0.1956 -0.0938
  755MOL0     C 4098   2.244   8.393  11.493  0.7317 -1.0066 -0.1822
  755MOL0     C 4099   2.148   8.352  11.390 -0.3040  0.2235  0.4335
  755MOL0     O 4100   1.979   8.512  11.146 -1.1559  1.1353 -0.3743
  755MOL0     C 4101   1.733   8.262  11.125  0.0500 -0.0129  0.2102
  755MOL0     C 4102   1.623   8.210  11.056 -0.8533 -0.0302 -0.0926
  755MOL0     N 4103   1.235   7.835  10.512 -0.6346  0.8328 -0.3927
  755MOL0     N 4104   1.258   7.781  10.395  0.1328 -0.2767  0.2857
  755MOL0     C 4105   1.280   7.331   9.664 -0.6701 -0.2540 -0.5694
  755MOL0     C 4106   1.147   7.304   9.659  0.1546 -0.5145  0.2026
  755MOL0     C 4107   0.776   7.155   9.397 -1.2789  0.2229 -0.1445
  755MOL0     C 4108   0.746   7.038   9.320  0.2316 -0.2666 -0.1570
  755MOL0     C 4109   0.624   7.024   9.258  0.3345 -0.5019  0.0203
  755MOL0     C 4110   0.530   7.122   9.268  0.5023  0.8500 -0.3216
  755MOL0     O 4111   0.412   7.122   9.201 -0.1492  0.6521 -0.6294
  755MOL0     C 4112   0.419   7.054   9.078  0.1299 -1.2767  0.0771
  755MOL0     C 4113   0.284   7.029   9.012 -0.3367  1.0641 -0.8223
  755MOL0     C 4114   0.310   6.933   8.886  0.9926 -1.0180 -0.3919
  755MOL0     C 4115   0.178   6.911   8.803  0.3095  0.3782  0.1236
  755MOL0     C 4116   0.084   6.817   8.866  0.2863 -0.0651  0.0694
  755MOL0     C 4117  -0.007   6.750   8.903  0.2040  0.0483  0.1226
  755MOL0     C 4118   0.551   7.225   9.361 -0.4637  0.5829 -0.9694
  755MOL0     C 4119   0.673   7.247   9.423 -0.0783 -0.7535 -0.3234
  755MOL0     C 4120   0.703   7.387   9.487 -0.5011  0.6657 -0.7663
  755MOL0     H 4121   1.108   7.321   9.326 -0.2967 -0.1275  1.1273
  755MOL0     H 4122   1.336   7.414   9.344  2.0116 -1.2404  0.6685
  755MOL0     H 4123   1.675   7.362   9.600  0.1822  0.6258  0.9550
  755MOL0     H 4124   1.553   7.334   9.718  1.1540  1.8537  1.3975
  755MOL0     H 4125   1.719   7.524   9.732  1.8131  2.8167 -3.6415
  755MOL0     H 4126   1.627   7.610   9.615  2.9873 -0.5981  0.2210
  755MOL0     H 4127   1.561   7.699   9.807  0.8441 -1.5903  3.0227
  755MOL0     H 4128   1.435   7.586   9.762  0.3931  1.4586 -1.8130
  755MOL0     H 4129   1.514   7.422   9.942  0.7545  0.3093 -0.2084
  755MOL0     H 4130   1.658   7.515   9.965  1.3441  0.5138 -2.8355
  755MOL0     H 4131   1.521   7.547  10.144 -3.2884 -0.9453  0.9381
  755MOL0     H 4132   1.383   7.588  10.047  0.2915 -2.0444 -0.2178
  755MOL0     H 4133   1.635   7.754  10.045 -0.5826 -0.0728 -0.6112
  755MOL0     H 4134   1.483   7.802   9.971  0.2254 -2.7677 -2.5323
  755MOL0     H 4135   1.510   7.913  10.200 -0.4426 -0.5980 -1.3844
  755MOL0     H 4136   1.501   7.758  10.274  1.2598 -3.2543 -2.9870
  755MOL0     H 4137   1.310   7.922  10.094 -0.8527 -0.7876 -0.7285
  755MOL0     H 4138   1.274   7.752  10.139 -0.4627 -0.9257  0.1779
  755MOL0     H 4139   1.291   8.087  10.308  0.5037 -1.2206 -1.4790
  755MOL0     H 4140   1.101   8.061  10.622  1.3708  0.2501  4.4437
  755MOL0     H 4141   1.211   8.172  10.547 -2.0001  0.8794  2.2434
  755MOL0     H 4142   1.293   7.953  10.750  0.5852 -0.6767 -2.8598
  755MOL0     H 4143   1.400   8.065  10.681 -0.2860 -1.5970 -2.0163
  755MOL0     H 4144   1.240   8.264  10.785  0.0671  0.3456  1.0924
  755MOL0     H 4145   1.165   8.127  10.868 -0.2281  0.9351  0.2754
  755MOL0     H 4146   1.350   8.226  11.027 -0.1712  0.3075 -0.0207
  755MOL0     H 4147   1.418   8.085  10.942 -0.5968  0.7270  3.0649
  755MOL0     H 4148   1.605   8.432  10.814 -1.7994 -2.2632 -0.3826
  755MOL0     H 4149   1.744   8.623  10.860 -1.4208  0.8549  2.8137
  755MOL0     H 4150   1.907   8.543  10.855 -2.5231 -3.8687 -1.5899
  755MOL0     H 4151   1.846   8.641  10.999  3.7946 -3.0802  2.3692
  755MOL0     H 4152   1.876   8.501  11.507 -0.6027 -1.1157 -2.4059
  755MOL0     H 4153   2.013   8.565  11.678  1.0935  0.1326 -0.3206
  755MOL0     H 4154   2.177   8.611  11.822 -1.4593 -1.0072  0.9625
  755MOL0     H 4155   2.171   8.456  11.877  0.6181 -1.0908 -0.2421
  755MOL0     H 4156   2.437   8.462  11.902 -0.8448 -0.3867 -4.7731
  755MOL0     H 4157   2.414   8.628  11.873 -1.9579 -0.7175 -2.8196
  755MOL0     H 4158   2.422   8.548  12.127 -2.2286 -1.5688  1.4469
  755MOL0     H 4159   2.254   8.516  12.107  1.8531 -0.8555  2.8294
  755MOL0     H 4160   2.256   8.758  11.986 -2.4814 -4.5736 -0.8071
  755MOL0     H 4161   2.383   8.787  12.115  2.0336 -2.5748 -0.5244
  755MOL0     H 4162   2.205   8.866  12.203  2.7170 -0.8904  4.6750
  755MOL0     H 4163   2.080   8.742  12.140 -1.3366  2.5754  1.1592
  755MOL0     H 4164   2.314   8.714  12.347 -0.0022  0.3367 -0.5253
  755MOL0     H 4165   2.192   8.596  12.323  1.3482  0.2982 -0.9722
  755MOL0     H 4166   2.162   8.861  12.457 -1.2447 -0.3569  1.3266
  755MOL0     H 4167   2.147   8.696  12.521  3.5080 -0.7549 -1.0516
  755MOL0     H 4168   1.933   8.819  12.326 -2.2747 -0.1562  0.5045
  755MOL0     H 4169   1.930   8.815  12.502 -1.6723  0.6721 -1.2262
  755MOL0     H 4170   2.347   8.358  11.491  0.2471 -2.4935 -0.2720
  755MOL0     H 4171   2.185   8.279  11.319  1.0658 -0.0759  1.4025
  755MOL0     H 4172   1.772   8.213  11.214  1.2276  1.0486  0.3115
  755MOL0     H 4173   1.585   8.119  11.101  1.7262 -1.4228 -0.5284
  755MOL0     H 4174   1.341   7.316   9.752 -1.7696 -1.0359  0.0771
  755MOL0     H 4175   1.105   7.263   9.750  0.0169 -4.0365 -1.2788
  755MOL0     H 4176   0.814   6.957   9.297 -1.0413 -0.2895 -4.7707
  755MOL0     H 4177   0.613   6.933   9.199 -0.0911  1.5410 -3.3062
  755MOL0     H 4178   0.484   7.118   9.017 -3.7003  2.9936 -0.1249
  755MOL0     H 4179   0.449   6.950   9.092  0.4024 -0.8612  3.3392
  755MOL0     H 4180   0.236   7.125   8.989 -1.9674  1.0195  1.9700
  755MOL0     H 4181   0.219   6.973   9.080  1.1220 -0.1104 -0.3449
  755MOL0     H 4182   0.393   6.971   8.826  2.5017 -1.9385  1.0287
  755MOL0     H 4183   0.335   6.831   8.915 -0.8605 -1.6837 -0.9942
  755MOL0     H 4184   0.204   6.885   8.700 -0.1591  2.1174 -0.4680
  755MOL0     H 4185   0.128   7.009   8.802  1.1144  0.8177  1.1946
  755MOL0     H 4186  -0.086   6.689   8.942 -1.6904  1.5645 -1.1465
  755MOL0     H 4187   0.467   7.292   9.376  1.3396  2.7507  0.0362
  755MOL0     H 4188   0.621   7.458   9.473  0.6723  2.3821  0.6777
  755MOL0     H 4189   0.724   7.367   9.592 -1.9552 -1.2156 -0.7836
  755MOL0     H 4190   0.795   7.425   9.440  1.0541 -2.6343 -0.6881
  756MOL0     O 4191   8.874   7.013  11.329  0.2843  0.0276 -1.1851
  756MOL0     C 4192   8.790   7.034  11.240 -0.9096 -0.8521 -0.4642
  756MOL0     O 4193   8.664   7.022  11.260  0.3008 -0.0089 -0.0020
  756MOL0     C 4194   8.618   6.958  11.364  0.9169 -0.4146 -0.8953
  756MOL0     C 4195   8.590   6.819  11.357 -0.2034 -0.3672 -0.0571
  756MOL0     C 4196   8.528   6.760  11.476 -0.8387  0.1332  0.2451
  756MOL0     C 4197   8.508   6.829  11.589  0.0349 -0.3060  0.0908
  756MOL0     O 4198   8.432   6.788  11.696 -0.2014  0.3683 -0.1107
  756MOL0     C 4199   8.392   6.647  11.703 -0.2242 -0.0370  0.6073
  756MOL0     C 4200   8.507   6.547  11.740  0.8926 -0.0288 -0.5040
  756MOL0     C 4201   8.469   6.446  11.846  0.8262  1.2680  0.4891
  756MOL0     C 4202   8.394   6.319  11.790 -0.4972  0.4915  0.1439
  756MOL0     C 4203   8.342   6.237  11.911  0.0176 -0.2183  0.6298
  756MOL0     C 4204   8.447   6.200  12.017  0.2188 -0.0947 -0.5349
  756MOL0     C 4205   8.397   6.088  12.106  0.0947 -0.6276  0.5699
  756MOL0     C 4206   8.402   5.946  12.049  0.8860  0.0762  0.0978
  756MOL0     N 4207   8.520   5.869  12.058  0.1280 -0.2305 -0.2464
  756MOL0     C 4208   8.572   5.818  12.179 -0.1812  0.5250 -0.3856
  756MOL0     C 4209   8.700   5.795  12.139  0.5500  0.4881  1.3189
  756MOL0     C 4210   8.808   5.762  12.241 -0.3262  0.0277  0.3547
  756MOL0     C 4211   8.952   5.778  12.194  0.1002  0.5801  0.1146
  756MOL0     C 4212   9.059   5.695  12.267 -0.3685  0.8686 -0.0413
  756MOL0     C 4213   9.065   5.738  12.414 -0.4985 -0.3670 -0.3535
  756MOL0     O 4214   9.186   5.705  12.482 -0.3372  0.3731  0.0489
  756MOL0     C 4215   9.217   5.571  12.480 -0.6727 -0.1241 -0.6353
  756MOL0     C 4216   9.354   5.552  12.499  0.5252 -0.1135 -0.6233
  756MOL0     C 4217   9.408   5.419  12.514 -0.0731 -0.2745  0.2781
  756MOL0     C 4218   9.553   5.414  12.538 -0.3316 -0.1989  1.4709
  756MOL0     C 4219   9.323   5.301  12.500  0.2908 -0.6697  0.2887
  756MOL0     C 4220   9.370   5.161  12.488  0.4741 -0.6544  0.3774
  756MOL0     O 4221   9.281   5.069  12.432 -0.4649  0.1436  0.3946
  756MOL0     C 4222   9.315   4.940  12.417 -0.1769  0.4965  0.0025
  756MOL0     C 4223   9.310   4.874  12.298 -0.9713 -0.7100  1.1803
  756MOL0     C 4224   9.343   4.735  12.280  0.3777 -0.2972 -1.1218
  756MOL0     C 4225   9.374   4.661  12.392 -0.5755  0.0538 -0.5921
  756MOL0     O 4226   9.389   4.528  12.363 -0.5895  0.2077  0.7124
  756MOL0     C 4227   9.377   4.426  12.462 -0.7333 -0.1271 -0.8823
  756MOL0     C 4228   9.467   4.304  12.427 -0.7952 -0.1522  0.7135
  756MOL0     C 4229   9.613   4.334  12.365  0.5728  0.4806 -0.9148
  756MOL0     C 4230   9.685   4.455  12.424 -0.3047  0.6570  0.0691
  756MOL0     C 4231   9.831   4.476  12.371 -0.3515 -0.3505 -0.2657
  756MOL0     C 4232   9.897   4.603  12.426  0.0678  0.4777 -0.4646
  756MOL0     C 4233  10.037   4.625  12.369 -0.1595 -0.3258  0.0418
  756MOL0     C 4234  10.090   4.768  12.399  0.2081 -0.8629  1.0092
  756MOL0    Cl 4235  10.070   4.845  12.558 -0.2859  0.1409 -0.1174
  756MOL0     C 4236   9.372   4.727  12.516  0.0634  0.2206  0.6432
  756MOL0     C 4237   9.337   4.860  12.526  0.2167  0.1449 -0.1389
  756MOL0     O 4238   9.483   5.133  12.520 -0.4715 -0.5722 -0.5288
  756MOL0     C 4239   9.187   5.331  12.478 -0.3682  0.3147 -0.2818
  756MOL0     C 4240   9.134   5.458  12.467  0.2510 -0.8145  0.3346
  756MOL0     N 4241   8.722   5.829  12.008  1.0192  0.1061 -0.0655
  756MOL0     N 4242   8.608   5.861  11.958 -0.4470 -0.3577  0.2835
  756MOL0     C 4243   8.544   6.960  11.592 -0.5264 -1.2632 -0.5530
  756MOL0     C 4244   8.598   7.030  11.481  0.9926  0.2253 -0.2759
  756MOL0     C 4245   8.842   7.086  11.111  0.5191  0.6258 -0.2216
  756MOL0     C 4246   8.770   7.191  11.042  0.0201 -0.0058 -0.2733
  756MOL0     C 4247   8.822   7.242  10.917  0.3487  0.4990  0.1071
  756MOL0     C 4248   8.939   7.188  10.864 -0.2687 -0.0538 -0.3860
  756MOL0     O 4249   9.009   7.226  10.757  0.0465 -0.6276  0.7258
  756MOL0     C 4250   8.951   7.328  10.667  0.3249  0.2650 -0.0761
  756MOL0     C 4251   9.043   7.402  10.563 -0.2662 -0.5308  0.1833
  756MOL0     C 4252   9.115   7.294  10.468 -0.0364 -0.2817 -0.4628
  756MOL0     C 4253   9.027   7.259  10.343  0.1163  0.9709 -0.4485
  756MOL0     C 4254   9.101   7.178  10.250 -0.2990 -0.1339  0.2383
  756MOL0     C 4255   9.169   7.099  10.189  1.1428  0.4545  0.8833
  756MOL0     C 4256   8.999   7.082  10.934 -0.0762  0.0532  0.4785
  756MOL0     C 4257   8.953   7.025  11.056 -0.1512 -0.2644  0.0808
  756MOL0     C 4258   9.018   6.903  11.109 -0.8571 -0.7010 -0.1536
  756MOL0     H 4259   8.620   6.778  11.261 -0.1106 -0.8402  0.1686
  756MOL0     H 4260   8.508   6.653  11.473 -2.3963  0.3408  1.5669
  756MOL0     H 4261   8.338   6.624  11.611  0.3253  2.5676 -0.4430
  756MOL0     H 4262   8.313   6.631  11.777 -1.2301  1.8588  0.0070
  756MOL0     H 4263   8.543   6.501  11.648 -0.6850 -0.0957 -1.1323
  756MOL0     H 4264   8.586   6.609  11.784 -0.8330  1.6125  0.4984
  756MOL0     H 4265   8.565   6.411  11.884  1.8074  0.2960 -2.6210
  756MOL0     H 4266   8.412   6.494  11.926  3.6448  2.0566  2.1693
  756MOL0     H 4267   8.310   6.350  11.727  0.0654 -0.9166 -1.3732
  756MOL0     H 4268   8.471   6.260  11.739 -0.5605 -3.3597  3.8839
  756MOL0     H 4269   8.292   6.150  11.869  1.0650  0.6972 -2.7707
  756MOL0     H 4270   8.252   6.280  11.958  0.6180  2.3867 -0.4176
  756MOL0     H 4271   8.536   6.174  11.957  0.8596 -1.8704  1.0850
  756MOL0     H 4272   8.456   6.286  12.083 -0.8295 -1.0144  0.8573
  756MOL0     H 4273   8.293   6.108  12.131 -1.5165 -3.2971 -3.2507
  756MOL0     H 4274   8.455   6.112  12.197  0.4781  5.1738 -0.7900
  756MOL0     H 4275   8.328   5.898  12.113 -2.1357  2.0884 -1.6810
  756MOL0     H 4276   8.349   5.935  11.954 -0.8110  0.9428  0.9046
  756MOL0     H 4277   8.537   5.812  12.282  0.1526 -0.6540 -0.3238
  756MOL0     H 4278   8.791   5.656  12.257 -0.4318 -0.3481 -1.9179
  756MOL0     H 4279   8.801   5.824  12.331 -2.3064  1.5404 -0.7483
  756MOL0     H 4280   8.942   5.745  12.091 -1.8662 -1.1491  0.7938
  756MOL0     H 4281   8.978   5.885  12.195 -1.5447  1.0211  1.8844
  756MOL0     H 4282   9.033   5.589  12.276  1.2944  0.5398  1.5344
  756MOL0     H 4283   9.158   5.699  12.220 -0.5074 -2.7267 -0.9532
  756MOL0     H 4284   9.071   5.847  12.416 -3.6550 -0.0525 -1.8064
  756MOL0     H 4285   8.979   5.704  12.473 -1.0121 -0.4910 -1.1590
  756MOL0     H 4286   9.423   5.635  12.504 -1.1161  1.3118 -0.6208
  756MOL0     H 4287   9.578   5.330  12.604 -3.7333 -1.8891  0.8466
  756MOL0     H 4288   9.598   5.499  12.589  2.4329 -2.0053  2.2979
  756MOL0     H 4289   9.608   5.404  12.444 -3.5502  1.4190 -0.7828
  756MOL0     H 4290   9.297   4.938  12.211  1.4199 -0.1581  1.1595
  756MOL0     H 4291   9.356   4.692  12.181  1.5776 -2.7384  0.0017
  756MOL0     H 4292   9.403   4.460  12.563 -1.3794  3.6734 -1.8291
  756MOL0     H 4293   9.273   4.391  12.458 -0.5784 -0.4941 -1.9571
  756MOL0     H 4294   9.484   4.251  12.522 -2.5554  0.8484  1.6436
  756MOL0     H 4295   9.412   4.246  12.353  1.6391 -2.0937  0.3088
  756MOL0     H 4296   9.603   4.335  12.256 -2.1417  0.4798 -0.7281
  756MOL0     H 4297   9.682   4.254  12.396  0.2659  0.7037  0.3783
  756MOL0     H 4298   9.690   4.455  12.533 -3.5518 -3.6106  0.4869
  756MOL0     H 4299   9.630   4.546  12.397  1.1070  1.6699  0.5054
  756MOL0     H 4300   9.895   4.391  12.399  0.6813  0.8915  1.2934
  756MOL0     H 4301   9.824   4.483  12.262  1.1535 -2.4822 -0.5648
  756MOL0     H 4302   9.910   4.607  12.535  2.4722 -0.6175 -0.6279
  756MOL0     H 4303   9.829   4.683  12.398  0.0182  2.2483  3.9285
  756MOL0     H 4304  10.029   4.623  12.260  3.0791  2.6847 -0.4295
  756MOL0     H 4305  10.110   4.553  12.407 -0.3708  0.1290  1.3524
  756MOL0     H 4306  10.047   4.836  12.325  3.4888 -0.2248 -0.4969
  756MOL0     H 4307  10.195   4.768  12.369  0.0150 -0.7635  0.3308
  756MOL0     H 4308   9.399   4.662  12.599  0.9849 -0.5347 -0.2307
  756MOL0     H 4309   9.336   4.892  12.629  2.6788 -4.3888  1.5380
  756MOL0     H 4310   9.117   5.248  12.472 -2.4263  1.6884  2.5612
  756MOL0     H 4311   9.028   5.464  12.445 -0.0695 -0.2888  1.9071
  756MOL0     H 4312   8.511   7.026  11.671 -0.4733  3.1090 -3.7799
  756MOL0     H 4313   8.609   7.138  11.483  2.3124  0.1129 -0.7212
  756MOL0     H 4314   8.683   7.240  11.085 -1.3086 -0.1657 -2.6269
  756MOL0     H 4315   8.771   7.329  10.878 -0.5154  0.6409  1.4960
  756MOL0     H 4316   8.867   7.280  10.616 -0.5318  1.2328  0.3942
  756MOL0     H 4317   8.912   7.410  10.727  1.8295  2.1455 -1.5459
  756MOL0     H 4318   9.124   7.444  10.623  0.0690 -2.8128  1.4212
  756MOL0     H 4319   8.992   7.481  10.505 -0.3571 -0.6921  0.0426
  756MOL0     H 4320   9.207   7.343  10.437 -0.3890  1.3509  0.9456
  756MOL0     H 4321   9.134   7.201  10.524  0.8119  0.6550  0.8560
  756MOL0     H 4322   8.996   7.352  10.293  0.6011 -0.3457 -3.3891
  756MOL0     H 4323   8.943   7.198  10.377 -1.2749  2.7169 -0.6134
  756MOL0     H 4324   9.213   7.038  10.112 -1.3954  2.1646 -2.1655
  756MOL0     H 4325   9.090   7.044  10.888  0.2595 -1.6786  2.4300
  756MOL0     H 4326   8.941   6.831  11.138  0.5922 -2.3685 -0.3271
  756MOL0     H 4327   9.078   6.842  11.041 -0.9325 -2.3401  1.1992
  756MOL0     H 4328   9.083   6.927  11.193 -1.6558 -0.9174  0.5383
  757MOL0     O 4329   7.578   9.976   0.699  0.7102 -0.0441  0.2447
  757MOL0     C 4330   7.456   9.959   0.718 -0.2690  0.0211  0.2397
  757MOL0     O 4331   7.398   9.975   0.840  0.2599 -0.6633 -0.2450
  757MOL0     C 4332   7.474   9.979   0.954 -1.2263 -0.4446 -0.4803
  757MOL0     C 4333   7.585  10.066   0.974  0.2287 -0.5911 -0.0442
  757MOL0     C 4334   7.650  10.077   1.101 -0.2054 -0.6180  0.3633
  757MOL0     C 4335   7.608  10.006   1.210  0.1685  0.4770  0.3518
  757MOL0     O 4336   7.673   9.999   1.333 -0.2097 -0.5261 -0.0016
  757MOL0     C 4337   7.807  10.051   1.345 -0.3269 -0.6430 -0.3378
  757MOL0     C 4338   7.821  10.104   1.492  0.4477 -0.7094 -0.6580
  757MOL0     C 4339   7.815   9.985   1.596  0.2134  0.1687 -0.1782
  757MOL0     C 4340   7.789  10.037   1.738  0.1346  0.0118 -0.4387
  757MOL0     C 4341   7.718   9.925   1.827  0.3288  0.2373  0.0107
  757MOL0     C 4342   7.567   9.914   1.804 -0.1871  0.7585 -0.0163
  757MOL0     C 4343   7.517   9.791   1.876  0.1321 -0.0981  0.5545
  757MOL0     C 4344   7.484   9.815   2.027  0.5187  0.6569  0.0611
  757MOL0     N 4345   7.419   9.695   2.069 -0.5801  0.4349 -0.7163
  757MOL0     C 4346   7.283   9.659   2.070  0.1826 -0.3671  0.4899
  757MOL0     C 4347   7.273   9.529   2.108 -0.4469  0.3337 -0.3893
  757MOL0     C 4348   7.148   9.468   2.167 -0.0064 -0.6520 -0.2206
  757MOL0     C 4349   7.063   9.404   2.062 -0.5818 -0.0764 -0.3904
  757MOL0     C 4350   6.912   9.413   2.102 -0.2143  0.2926 -1.0181
  757MOL0     C 4351   6.829   9.360   1.992  0.3044 -0.1348 -0.6490
  757MOL0     O 4352   6.832   9.446   1.887  0.3716 -0.4073  0.0506
  757MOL0     C 4353   6.775   9.410   1.770 -1.2981  0.2766 -0.4388
  757MOL0     C 4354   6.779   9.502   1.669 -0.7279  0.7077 -0.1292
  757MOL0     C 4355   6.738   9.475   1.537 -0.6919 -0.0058  0.6225
  757MOL0     C 4356   6.746   9.590   1.437 -0.5368  0.7754 -0.2961
  757MOL0     C 4357   6.688   9.347   1.504  0.1647 -0.1435  0.4576
  757MOL0     C 4358   6.642   9.295   1.376  0.1658  0.3571  0.0753
  757MOL0     O 4359   6.567   9.180   1.389 -0.0545 -0.5595  0.1343
  757MOL0     C 4360   6.500   9.131   1.281 -0.5738 -0.7159  0.4516
  757MOL0     C 4361   6.483   8.990   1.275  0.3178 -0.4863 -0.2811
  757MOL0     C 4362   6.402   8.926   1.177  0.0862 -0.2544  0.4024
  757MOL0     C 4363   6.341   8.999   1.077  0.0406 -0.5682 -0.3667
  757MOL0     O 4364   6.257   8.959   0.973 -0.5297 -0.7667  0.2339
  757MOL0     C 4365   6.206   8.823   0.970  0.0041 -0.7034  0.0671
  757MOL0     C 4366   6.087   8.818   0.885  0.6589 -0.2656  1.1403
  757MOL0     C 4367   6.121   8.834   0.735 -0.2154  0.4185 -0.3280
  757MOL0     C 4368   5.991   8.829   0.645  0.0275 -0.1268  0.1787
  757MOL0     C 4369   5.934   8.694   0.630 -1.1452  0.8198 -1.3614
  757MOL0     C 4370   5.847   8.688   0.505  0.8275 -0.5784 -0.0189
  757MOL0     C 4371   5.776   8.554   0.495 -0.1622  1.1423  0.3002
  757MOL0     C 4372   5.688   8.549   0.372 -0.4097 -0.4057 -0.1646
  757MOL0    Cl 4373   5.642   8.387   0.317  0.0045  0.2183  0.1119
  757MOL0     C 4374   6.364   9.136   1.079  0.3992  0.2503  0.6693
  757MOL0     C 4375   6.443   9.194   1.168  0.7722  0.3213  0.2484
  757MOL0     O 4376   6.676   9.348   1.274 -0.6785 -0.4952  0.5554
  757MOL0     C 4377   6.682   9.262   1.613  0.1839 -0.0295  0.1453
  757MOL0     C 4378   6.717   9.289   1.747 -0.3004  0.7747  0.4398
  757MOL0     N 4379   7.402   9.482   2.128  0.0745 -2.0041  0.1271
  757MOL0     N 4380   7.490   9.582   2.103  0.6018 -0.1930  0.4608
  757MOL0     C 4381   7.502   9.905   1.186  0.1534 -0.7464 -0.2756
  757MOL0     C 4382   7.451   9.885   1.053  0.9850  0.6993 -0.8799
  757MOL0     C 4383   7.374   9.929   0.594 -1.0610 -0.9432 -0.6131
  757MOL0     C 4384   7.433   9.952   0.472  0.8184  0.2501  0.8929
  757MOL0     C 4385   7.363   9.925   0.355 -0.5742  0.0210 -1.0117
  757MOL0     C 4386   7.228   9.871   0.362 -0.1318  0.2040  0.3520
  757MOL0     O 4387   7.155   9.849   0.246  0.2611  0.6922  0.0944
  757MOL0     C 4388   7.201   9.885   0.121  0.5127 -0.6088  1.2510
  757MOL0     C 4389   7.201  10.040   0.101  0.0147 -0.1526  1.3585
  757MOL0     C 4390   7.071  10.112   0.106  0.2274  0.1222  0.0413
  757MOL0     C 4391   6.952  10.041   0.044 -0.0150  0.0599 -0.5225
  757MOL0     C 4392   6.941  10.044  -0.108  0.8154  1.0619 -0.5629
  757MOL0     C 4393   6.905  10.049  -0.221  0.3699  0.1622 -0.7005
  757MOL0     C 4394   7.168   9.860   0.490 -0.0247  1.3060 -0.0191
  757MOL0     C 4395   7.240   9.882   0.607 -0.9030  1.2516 -0.3137
  757MOL0     C 4396   7.171   9.861   0.739  0.0859  1.0126 -0.1468
  757MOL0     H 4397   7.624  10.136   0.902  4.2244  0.8907  3.1557
  757MOL0     H 4398   7.726  10.155   1.101 -0.8999  0.1303 -1.9795
  757MOL0     H 4399   7.828  10.143   1.290  0.7630 -0.5205  0.2577
  757MOL0     H 4400   7.875   9.971   1.317 -1.8428 -1.4379 -1.9823
  757MOL0     H 4401   7.911  10.165   1.501 -0.7758  1.0329  0.2522
  757MOL0     H 4402   7.738  10.168   1.522  2.1780  0.7607  1.2580
  757MOL0     H 4403   7.723   9.932   1.571 -0.2607 -0.3084  2.3991
  757MOL0     H 4404   7.903   9.920   1.587  3.0132  3.8855 -3.5728
  757MOL0     H 4405   7.888  10.065   1.777 -0.4922  3.4769 -0.9885
  757MOL0     H 4406   7.722  10.123   1.730 -3.0876 -2.0857  1.7547
  757MOL0     H 4407   7.736   9.954   1.930 -1.2467  0.8882  0.1375
  757MOL0     H 4408   7.772   9.833   1.801 -0.5735  0.3867 -2.7585
  757MOL0     H 4409   7.508  10.000   1.838  0.2867  0.4736  1.6282
  757MOL0     H 4410   7.539   9.889   1.701 -2.2238  1.0700  0.4179
  757MOL0     H 4411   7.592   9.711   1.868  1.5655  1.3054 -0.9200
  757MOL0     H 4412   7.428   9.758   1.821  2.9688 -0.4192 -4.4770
  757MOL0     H 4413   7.571   9.848   2.085  0.3853  3.7833 -1.3281
  757MOL0     H 4414   7.409   9.893   2.041 -3.3809 -2.8943  0.8308
  757MOL0     H 4415   7.201   9.731   2.068 -0.3350 -0.8855  1.7416
  757MOL0     H 4416   7.085   9.539   2.221  0.1383 -0.5501 -0.1858
  757MOL0     H 4417   7.167   9.388   2.240  0.5680  1.3303  1.9010
  757MOL0     H 4418   7.070   9.456   1.966 -3.2986 -2.9708 -2.3012
  757MOL0     H 4419   7.102   9.305   2.040  2.0871  0.6096  0.7613
  757MOL0     H 4420   6.887   9.371   2.200  0.4616  2.6783  0.2424
  757MOL0     H 4421   6.891   9.519   2.115 -0.9583  0.1516 -1.0310
  757MOL0     H 4422   6.835   9.256   1.956 -2.2709  0.4372 -3.0753
  757MOL0     H 4423   6.728   9.365   2.033 -0.1967 -0.6204 -1.7734
  757MOL0     H 4424   6.820   9.600   1.689  1.4626 -0.6222  2.6778
  757MOL0     H 4425   6.652   9.598   1.383 -1.7774  1.7338  1.8509
  757MOL0     H 4426   6.825   9.585   1.361 -2.1677 -0.4751 -1.9762
  757MOL0     H 4427   6.754   9.687   1.488  2.2396 -0.3923  1.7904
  757MOL0     H 4428   6.520   8.925   1.353 -0.3292  0.5815  0.9481
  757MOL0     H 4429   6.382   8.819   1.172  2.4616 -0.7718  0.3062
  757MOL0     H 4430   6.272   8.744   0.934 -2.0217 -3.0100  1.1340
  757MOL0     H 4431   6.181   8.798   1.074  0.3637  0.6680  0.5036
  757MOL0     H 4432   6.045   8.717   0.894  1.3053 -0.5563  0.9198
  757MOL0     H 4433   6.012   8.894   0.908  1.0477  0.0427  1.3943
  757MOL0     H 4434   6.199   8.773   0.690  0.3332  1.3698 -0.6919
  757MOL0     H 4435   6.162   8.935   0.729 -1.2090  0.8588  0.1326
  757MOL0     H 4436   6.028   8.864   0.549 -0.1879 -0.4554 -0.0263
  757MOL0     H 4437   5.924   8.903   0.691  0.5600  3.3868 -4.1166
  757MOL0     H 4438   6.013   8.622   0.608 -1.5986 -0.4573  0.8181
  757MOL0     H 4439   5.886   8.657   0.721 -1.4560  3.8401 -0.1801
  757MOL0     H 4440   5.905   8.711   0.415  0.8465 -1.5775 -0.2763
  757MOL0     H 4441   5.774   8.769   0.494  1.5633 -0.0955 -1.6246
  757MOL0     H 4442   5.718   8.521   0.582 -0.7095 -0.0344 -0.4858
  757MOL0     H 4443   5.852   8.475   0.486 -2.4385 -1.0767 -0.5386
  757MOL0     H 4444   5.728   8.610   0.291 -0.3662  1.6840  1.3548
  757MOL0     H 4445   5.599   8.613   0.379 -1.1964 -0.5890 -5.0137
  757MOL0     H 4446   6.332   9.180   0.985  4.1387 -3.5116 -2.7588
  757MOL0     H 4447   6.443   9.302   1.160 -2.4768  0.5192  1.3847
  757MOL0     H 4448   6.637   9.164   1.601  1.2220 -0.7190  1.6003
  757MOL0     H 4449   6.696   9.213   1.821 -1.2566 -0.8248 -1.3945
  757MOL0     H 4450   7.469   9.844   1.270  2.0641 -2.3611 -0.6382
  757MOL0     H 4451   7.367   9.817   1.038  0.4978  1.1279 -0.1472
  757MOL0     H 4452   7.530   9.999   0.462 -0.1566  1.8244 -2.8863
  757MOL0     H 4453   7.413   9.938   0.259 -3.0177 -1.6817 -2.6059
  757MOL0     H 4454   7.302   9.850   0.097 -0.3271 -1.0909 -2.0617
  757MOL0     H 4455   7.141   9.838   0.043  0.7270  1.1370 -0.0277
  757MOL0     H 4456   7.252  10.065   0.008  2.8540  2.4844  3.4225
  757MOL0     H 4457   7.267  10.084   0.177  0.7044  1.7929 -0.2812
  757MOL0     H 4458   7.038  10.127   0.210 -1.4035 -1.5655 -0.1892
  757MOL0     H 4459   7.071  10.212   0.062  1.6944  0.8963  1.6795
  757MOL0     H 4460   6.872  10.103   0.085  0.3933 -0.7597  1.6577
  757MOL0     H 4461   6.937   9.944   0.091  5.9796 -1.7629 -1.4633
  757MOL0     H 4462   6.882  10.037  -0.325  1.1139 -0.7699 -0.7686
  757MOL0     H 4463   7.066   9.821   0.489  0.7823 -0.9982 -1.1621
  757MOL0     H 4464   7.222   9.802   0.816 -1.8694 -2.3473 -1.1939
  757MOL0     H 4465   7.128   9.948   0.788  4.9105  1.4457  4.1803
  757MOL0     H 4466   7.086   9.796   0.714  2.6080 -3.3173  1.3337
  758MOL0     O 4467  10.328   9.486   7.601  0.7231 -0.4626  1.2100
  758MOL0     C 4468  10.324   9.435   7.709  0.5582  1.2280 -0.3858
  758MOL0     O 4469  10.375   9.493   7.824  0.0980  0.6067  0.0153
  758MOL0     C 4470  10.449   9.608   7.825  0.5544  0.2532  0.1966
  758MOL0     C 4471  10.414   9.710   7.750 -0.9612 -0.5186  0.6264
  758MOL0     C 4472  10.497   9.824   7.756 -0.4979 -0.5148  0.0624
  758MOL0     C 4473  10.629   9.823   7.819  0.7025  0.4398 -0.2443
  758MOL0     O 4474  10.717   9.927   7.803 -0.8957 -0.1622 -0.0909
  758MOL0     C 4475  10.763   9.940   7.667  0.1780 -1.3132 -0.4616
  758MOL0     C 4476  10.811   9.811   7.613 -0.5410  0.3424 -0.8628
  758MOL0     C 4477  10.863   9.819   7.470 -0.3180  0.0490 -0.8520
  758MOL0     C 4478  10.740   9.841   7.379  0.0378 -0.6419  0.8286
  758MOL0     C 4479  10.793   9.831   7.235 -0.0680 -0.1076 -0.0179
  758MOL0     C 4480  10.871   9.952   7.182  0.2920  0.1640 -0.3919
  758MOL0     C 4481  10.803  10.089   7.192  1.0652  0.0805 -0.3256
  758MOL0     C 4482  10.875  10.201   7.113 -0.5059  0.4621 -0.4324
  758MOL0     N 4483  10.826  10.334   7.153  0.7603  0.1580 -0.2537
  758MOL0     C 4484  10.697  10.376   7.129  0.9086 -0.5206  0.0456
  758MOL0     C 4485  10.698  10.500   7.180 -0.6637  0.3486 -0.4440
  758MOL0     C 4486  10.590  10.597   7.173  0.4350 -0.2996  0.8535
  758MOL0     C 4487  10.458  10.543   7.226  0.4400  0.2301  0.0201
  758MOL0     C 4488  10.474  10.492   7.373 -0.1027  1.7295  0.1238
  758MOL0     C 4489  10.352  10.468   7.457 -0.4030 -0.2104  0.2433
  758MOL0     O 4490  10.240  10.431   7.374 -0.1712 -0.3580 -0.1180
  758MOL0     C 4491  10.115  10.467   7.415  0.4015  0.1793  0.2216
  758MOL0     C 4492  10.080  10.508   7.540  0.6036  0.0261 -0.0682
  758MOL0     C 4493   9.943  10.544   7.568  0.2315 -0.0630 -0.3607
  758MOL0     C 4494   9.903  10.582   7.708 -0.4783 -0.0500 -1.0617
  758MOL0     C 4495   9.842  10.541   7.469 -0.0328 -1.3161  0.0091
  758MOL0     C 4496   9.698  10.578   7.480 -0.2994 -0.3537 -0.9532
  758MOL0     O 4497   9.625  10.591   7.356 -0.1179 -0.3821  0.1186
  758MOL0     C 4498   9.492  10.575   7.347 -0.4378  0.2448  0.5025
  758MOL0     C 4499   9.394  10.548   7.446  0.2316 -0.1865  0.0910
  758MOL0     C 4500   9.259  10.553   7.411  0.4317 -0.1040  0.4826
  758MOL0     C 4501   9.219  10.564   7.281 -0.1529 -0.0858 -0.2037
  758MOL0     O 4502   9.076  10.554   7.268  0.0068 -0.2094 -0.2053
  758MOL0     C 4503   8.993  10.631   7.358  0.0451 -0.4385 -0.2181
  758MOL0     C 4504   8.874  10.698   7.288 -0.1762 -0.0106 -0.1598
  758MOL0     C 4505   8.777  10.591   7.221  0.4215  0.1292 -0.1644
  758MOL0     C 4506   8.667  10.648   7.120  0.0688 -0.0782 -0.8256
  758MOL0     C 4507   8.707  10.613   6.984 -1.2255  0.2419 -0.8291
  758MOL0     C 4508   8.814  10.714   6.928  0.7549  0.1596 -0.6009
  758MOL0     C 4509   8.821  10.698   6.769  0.5896 -0.9729  1.0692
  758MOL0     C 4510   8.845  10.553   6.728 -0.4662 -0.1054 -0.7217
  758MOL0    Cl 4511   8.833  10.536   6.549  0.1006 -0.2078  0.3319
  758MOL0     C 4512   9.315  10.592   7.179  0.0360 -0.2424  0.2838
  758MOL0     C 4513   9.448  10.595   7.210  0.6476  0.1616 -0.8026
  758MOL0     O 4514   9.650  10.599   7.592 -0.2964  0.5315  0.3223
  758MOL0     C 4515   9.890  10.498   7.349 -0.0295 -0.2160  0.7968
  758MOL0     C 4516  10.019  10.462   7.319 -0.3079  0.2481  0.0177
  758MOL0     N 4517  10.823  10.529   7.228 -0.2839  0.2866  0.6477
  758MOL0     N 4518  10.900  10.423   7.221  0.2413 -0.1354  0.8108
  758MOL0     C 4519  10.658   9.704   7.886 -0.0533 -0.2623 -0.5948
  758MOL0     C 4520  10.566   9.602   7.899  0.0779 -0.5503 -0.1655
  758MOL0     C 4521  10.245   9.302   7.727 -0.0710  0.3909 -0.9282
  758MOL0     C 4522  10.268   9.220   7.841 -0.7665  0.8323  0.2709
  758MOL0     C 4523  10.199   9.099   7.863 -0.3038  0.2567  0.2778
  758MOL0     C 4524  10.094   9.071   7.783  0.6763  0.9697  0.4339
  758MOL0     O 4525  10.021   8.946   7.797 -0.3069  0.3983 -0.3055
  758MOL0     C 4526   9.928   8.906   7.705  0.0821  0.2824  0.6287
  758MOL0     C 4527   9.906   8.756   7.728 -0.1655  0.2920 -0.7488
  758MOL0     C 4528   9.839   8.707   7.604 -0.5660  0.6021  0.2011
  758MOL0     C 4529   9.896   8.566   7.565  0.5503  0.1246 -0.1637
  758MOL0     C 4530   9.826   8.517   7.449 -0.3264 -0.2177 -0.6400
  758MOL0     C 4531   9.762   8.483   7.348 -0.2927 -0.0032  0.3584
  758MOL0     C 4532  10.055   9.156   7.672  0.1230 -0.3055 -0.2845
  758MOL0     C 4533  10.132   9.264   7.646 -0.3631  0.7571 -0.1532
  758MOL0     C 4534  10.085   9.342   7.521  0.3294 -0.4267  0.4516
  758MOL0     H 4535  10.320   9.729   7.698 -0.5804  1.5919  0.6139
  758MOL0     H 4536  10.472   9.919   7.710 -0.7111  0.0754  1.3407
  758MOL0     H 4537  10.845  10.012   7.666 -1.4171  0.8117  3.2162
  758MOL0     H 4538  10.679   9.986   7.612  1.0863  1.5001  0.3620
  758MOL0     H 4539  10.902   9.784   7.667  1.2766  3.0549 -2.3269
  758MOL0     H 4540  10.733   9.734   7.612  0.7698 -1.0336 -0.8357
  758MOL0     H 4541  10.936   9.900   7.457 -3.5675  4.0649  2.6908
  758MOL0     H 4542  10.903   9.719   7.451 -0.9658 -0.4646  0.4026
  758MOL0     H 4543  10.668   9.762   7.403  0.8094 -2.5523 -2.5549
  758MOL0     H 4544  10.700   9.942   7.391 -0.3912 -0.4487 -1.7405
  758MOL0     H 4545  10.708   9.821   7.167 -0.1753 -0.4706  0.1711
  758MOL0     H 4546  10.850   9.738   7.238 -0.1464 -0.1537  2.3413
  758MOL0     H 4547  10.968   9.962   7.230  0.4289 -2.2449 -0.0426
  758MOL0     H 4548  10.881   9.928   7.076 -3.0784 -0.2179 -0.7491
  758MOL0     H 4549  10.796  10.122   7.296  0.4815  1.2018 -0.7015
  758MOL0     H 4550  10.701  10.079   7.154  1.0940  2.2138 -1.0545
  758MOL0     H 4551  10.981  10.189   7.138 -1.4373 -3.1102  2.5887
  758MOL0     H 4552  10.864  10.185   7.005  0.6401  0.2337 -0.5308
  758MOL0     H 4553  10.621  10.321   7.074 -0.8507  1.7054  0.1196
  758MOL0     H 4554  10.581  10.638   7.072  0.9954 -1.4780  0.3001
  758MOL0     H 4555  10.622  10.677   7.239  2.2459 -1.0943  0.9914
  758MOL0     H 4556  10.394  10.631   7.218 -0.1462 -0.2528 -0.7890
  758MOL0     H 4557  10.410  10.461   7.170 -1.2638  1.0567  0.1969
  758MOL0     H 4558  10.510  10.391   7.354 -0.6712  1.9735 -2.7607
  758MOL0     H 4559  10.542  10.553   7.433 -1.0304 -0.4201  3.6501
  758MOL0     H 4560  10.380  10.396   7.535  4.0824  0.2673 -0.6651
  758MOL0     H 4561  10.329  10.561   7.511 -2.4961 -1.3029  1.3928
  758MOL0     H 4562  10.155  10.502   7.619  2.1038 -0.2940 -1.4498
  758MOL0     H 4563   9.863  10.683   7.718  3.0037  1.3265  1.0180
  758MOL0     H 4564   9.988  10.581   7.777  1.6926  1.2126 -3.5323
  758MOL0     H 4565   9.826  10.517   7.749  0.3863 -1.4138 -1.5330
  758MOL0     H 4566   9.426  10.529   7.548  0.0458 -0.7473  0.0522
  758MOL0     H 4567   9.189  10.536   7.491 -0.3885 -1.3856 -0.4689
  758MOL0     H 4568   8.955  10.559   7.432 -0.0368 -0.1244  0.0495
  758MOL0     H 4569   9.056  10.700   7.415  1.5332 -0.2603 -1.9969
  758MOL0     H 4570   8.823  10.760   7.362  0.4935  0.0417  0.2646
  758MOL0     H 4571   8.909  10.766   7.210 -1.7059  0.7385 -0.2208
  758MOL0     H 4572   8.724  10.544   7.305  1.6480 -0.1371  0.4852
  758MOL0     H 4573   8.831  10.512   7.168 -0.2439  0.0411 -0.7320
  758MOL0     H 4574   8.651  10.754   7.140  2.1042  0.3065 -1.0132
  758MOL0     H 4575   8.578  10.589   7.143  2.2362 -2.8603  1.1214
  758MOL0     H 4576   8.744  10.510   6.984  2.4005  1.2550  2.8949
  758MOL0     H 4577   8.615  10.627   6.926 -0.5286  5.8752 -1.1537
  758MOL0     H 4578   8.912  10.699   6.976  2.3903  1.3899 -3.3229
  758MOL0     H 4579   8.779  10.813   6.955 -2.5806 -0.2946 -2.7351
  758MOL0     H 4580   8.905  10.761   6.739 -2.0924  1.6183 -1.7305
  758MOL0     H 4581   8.735  10.747   6.723  2.0569  0.5988 -0.1534
  758MOL0     H 4582   8.770  10.487   6.772  0.0455 -0.6743 -0.6845
  758MOL0     H 4583   8.946  10.527   6.763 -0.8872  1.4116  1.9378
  758MOL0     H 4584   9.285  10.596   7.075  5.2737 -3.3304 -1.7342
  758MOL0     H 4585   9.519  10.609   7.128  0.4485  1.9491 -0.7183
  758MOL0     H 4586   9.814  10.494   7.272  1.3002  3.3354 -0.8885
  758MOL0     H 4587  10.050  10.417   7.225 -1.1236  0.2808 -0.2772
  758MOL0     H 4588  10.759   9.694   7.924  0.0423 -1.1431 -1.0559
  758MOL0     H 4589  10.600   9.512   7.949  1.9816 -0.9747 -2.0796
  758MOL0     H 4590  10.351   9.253   7.903 -0.3978 -0.4377  0.4859
  758MOL0     H 4591  10.227   9.028   7.940  5.4820  0.5249 -1.1589
  758MOL0     H 4592   9.834   8.961   7.717 -0.2840 -0.1399 -0.2392
  758MOL0     H 4593   9.963   8.919   7.602 -0.6521 -1.8135  0.0748
  758MOL0     H 4594   9.838   8.732   7.809 -0.8180  0.9747 -1.0826
  758MOL0     H 4595  10.000   8.701   7.731  0.7855  1.8651 -0.2586
  758MOL0     H 4596   9.730   8.704   7.606 -0.6146  0.2913 -1.5393
  758MOL0     H 4597   9.866   8.775   7.523 -1.5552  4.9343  3.1549
  758MOL0     H 4598   9.892   8.491   7.645  1.9932 -0.6538 -0.7766
  758MOL0     H 4599  10.003   8.571   7.539  0.1747  0.5575 -1.7048
  758MOL0     H 4600   9.703   8.451   7.265 -0.3503  1.3126 -0.1231
  758MOL0     H 4601   9.969   9.132   7.610  1.3598 -1.5444 -1.6211
  758MOL0     H 4602  10.030   9.274   7.455 -0.8878 -0.7950  1.7893
  758MOL0     H 4603  10.010   9.415   7.553  0.6214  0.8290 -1.5341
  758MOL0     H 4604  10.158   9.398   7.462 -0.3931  1.7185  1.4753
  759MOL0     O 4605   4.580   6.248   2.301 -0.0246 -0.1298 -0.1089
  759MOL0     C 4606   4.474   6.249   2.232 -0.7837 -0.6954  1.0142
  759MOL0     O 4607   4.462   6.320   2.110 -0.0100  0.4611 -0.7255
  759MOL0     C 4608   4.583   6.383   2.061  0.5280  0.0713 -0.1085
  759MOL0     C 4609   4.647   6.507   2.092 -0.0809  0.3960 -0.6745
  759MOL0     C 4610   4.768   6.541   2.029  1.5303 -0.2939 -0.1154
  759MOL0     C 4611   4.830   6.448   1.950 -0.0696 -1.3134  0.2323
  759MOL0     O 4612   4.954   6.475   1.909  0.2353  0.7348 -0.2204
  759MOL0     C 4613   5.032   6.494   2.031  0.7359  0.5354  0.7223
  759MOL0     C 4614   5.177   6.500   1.988  0.0697 -0.3583 -0.2892
  759MOL0     C 4615   5.269   6.512   2.108 -1.1683  0.4860 -0.3354
  759MOL0     C 4616   5.280   6.658   2.165  0.2001 -0.0563  1.2269
  759MOL0     C 4617   5.367   6.663   2.289  0.3579 -0.4724 -0.7288
  759MOL0     C 4618   5.512   6.629   2.254 -0.3371 -0.1461 -0.0842
  759MOL0     C 4619   5.614   6.634   2.368 -0.4488 -0.3724  0.3423
  759MOL0     C 4620   5.760   6.638   2.312  0.7130  0.7438  0.2918
  759MOL0     N 4621   5.851   6.577   2.411 -0.0343  0.0886 -0.9777
  759MOL0     C 4622   5.835   6.567   2.546  0.2849  0.0295 -0.1164
  759MOL0     C 4623   5.955   6.529   2.599 -0.6588 -0.1659  0.1685
  759MOL0     C 4624   5.975   6.495   2.739 -0.0447 -0.3944 -0.5581
  759MOL0     C 4625   6.117   6.432   2.763 -0.2694  0.3398  0.5413
  759MOL0     C 4626   6.103   6.329   2.877  0.7508 -0.3997 -1.2775
  759MOL0     C 4627   6.220   6.244   2.900 -0.7299  0.0549 -0.5108
  759MOL0     O 4628   6.206   6.183   3.028 -0.4416  0.0145 -0.2649
  759MOL0     C 4629   6.154   6.055   3.024  0.3776  0.4897  0.1045
  759MOL0     C 4630   6.240   5.951   3.002  0.0787 -0.7629  0.7051
  759MOL0     C 4631   6.201   5.819   2.975  0.4819 -0.0827 -0.6446
  759MOL0     C 4632   6.317   5.722   2.950 -0.1702 -0.0324 -0.4545
  759MOL0     C 4633   6.066   5.788   2.998 -0.6536  0.5141  0.6728
  759MOL0     C 4634   6.010   5.649   2.988 -0.6027 -0.6724 -0.3635
  759MOL0     O 4635   5.872   5.645   2.966  0.8198  0.2673 -0.2184
  759MOL0     C 4636   5.805   5.529   2.963  0.1713 -0.4130  0.0218
  759MOL0     C 4637   5.818   5.421   3.050  0.0876 -0.2432  0.7472
  759MOL0     C 4638   5.742   5.303   3.032 -0.1950  0.4588 -0.4876
  759MOL0     C 4639   5.633   5.304   2.946  0.6511 -0.1181  0.3394
  759MOL0     O 4640   5.548   5.195   2.974  0.1641  0.3131  0.7699
  759MOL0     C 4641   5.593   5.058   2.970  0.3216 -0.3926  0.4053
  759MOL0     C 4642   5.545   4.991   2.848  0.4122 -0.1458  0.1331
  759MOL0     C 4643   5.602   4.843   2.858  0.6476  0.0853 -0.3554
  759MOL0     C 4644   5.540   4.760   2.752  0.2356  0.1657 -0.4785
  759MOL0     C 4645   5.535   4.609   2.769  0.5338 -1.2184 -0.3125
  759MOL0     C 4646   5.671   4.543   2.765 -0.1302 -0.2506  0.3776
  759MOL0     C 4647   5.662   4.405   2.823  0.3431  0.2533 -0.0335
  759MOL0     C 4648   5.797   4.333   2.829  0.1752 -0.3303  0.1108
  759MOL0    Cl 4649   5.933   4.433   2.915 -0.4122 -0.4675  0.0324
  759MOL0     C 4650   5.616   5.406   2.855  0.8623  0.3376  0.5071
  759MOL0     C 4651   5.702   5.522   2.867  0.3170  1.1821 -0.5011
  759MOL0     O 4652   6.076   5.557   3.014 -0.7464  0.0514  0.8534
  759MOL0     C 4653   5.974   5.893   3.007  0.2393  0.5457 -0.1732
  759MOL0     C 4654   6.021   6.023   3.028 -0.0340 -0.8695 -0.5759
  759MOL0     N 4655   6.048   6.522   2.492  0.2008 -0.2183  0.6241
  759MOL0     N 4656   5.978   6.556   2.385 -0.7521 -0.0900 -0.0937
  759MOL0     C 4657   4.767   6.339   1.908  0.6841  0.4180 -0.4333
  759MOL0     C 4658   4.639   6.308   1.961  0.3882 -0.0154 -1.3227
  759MOL0     C 4659   4.374   6.143   2.272  0.2136 -0.2433  0.1789
  759MOL0     C 4660   4.384   6.091   2.403 -0.3250  0.3487  0.3451
  759MOL0     C 4661   4.307   5.991   2.454  0.5386  0.3974  0.1859
  759MOL0     C 4662   4.206   5.942   2.375 -0.4848  0.5648  0.2063
  759MOL0     O 4663   4.136   5.846   2.439  0.4963 -0.3273 -0.4426
  759MOL0     C 4664   4.042   5.771   2.364 -0.9967  1.2518 -0.5098
  759MOL0     C 4665   3.957   5.681   2.455  0.0347  0.3876 -0.5101
  759MOL0     C 4666   4.037   5.593   2.563 -0.8090  0.3967 -0.2512
  759MOL0     C 4667   4.148   5.508   2.496  0.2485  0.1517 -0.6652
  759MOL0     C 4668   4.234   5.454   2.601 -0.3528  0.6695 -0.1295
  759MOL0     C 4669   4.313   5.398   2.674  0.2968 -0.4900  0.3687
  759MOL0     C 4670   4.181   5.988   2.242 -0.0709  0.5806 -0.2958
  759MOL0     C 4671   4.263   6.092   2.198  0.2713 -0.4480 -0.2054
  759MOL0     C 4672   4.233   6.134   2.054 -0.4238  0.7214  0.7360
  759MOL0     H 4673   4.607   6.568   2.172  2.6766 -0.6896  1.6861
  759MOL0     H 4674   4.818   6.636   2.045 -1.2486  1.0757  1.1153
  759MOL0     H 4675   5.010   6.413   2.101 -0.0548  0.0439 -0.0800
  759MOL0     H 4676   5.006   6.591   2.076  1.4053  1.5224 -0.9373
  759MOL0     H 4677   5.204   6.409   1.933  1.0216  0.2375 -0.8276
  759MOL0     H 4678   5.192   6.587   1.923 -1.6641  0.4651  0.3595
  759MOL0     H 4679   5.240   6.440   2.185 -1.0723  0.4712 -0.3125
  759MOL0     H 4680   5.371   6.485   2.082  0.9228  6.5296 -0.0983
  759MOL0     H 4681   5.321   6.724   2.089  0.1480 -2.2289 -0.7751
  759MOL0     H 4682   5.181   6.701   2.184  0.4412  1.1203 -0.0508
  759MOL0     H 4683   5.328   6.595   2.365 -1.0691 -2.3144 -2.9653
  759MOL0     H 4684   5.367   6.767   2.323  0.6690 -0.6039 -0.3146
  759MOL0     H 4685   5.529   6.538   2.197  2.9684  1.0008 -1.1885
  759MOL0     H 4686   5.550   6.708   2.189  1.0559 -0.3039  0.5025
  759MOL0     H 4687   5.596   6.546   2.431 -3.2447 -0.8432 -0.9316
  759MOL0     H 4688   5.591   6.726   2.423 -2.2818 -0.2971 -0.4784
  759MOL0     H 4689   5.766   6.580   2.219 -0.8376  1.0376 -0.0285
  759MOL0     H 4690   5.788   6.742   2.299  1.6462  1.1667  4.5235
  759MOL0     H 4691   5.742   6.562   2.602  1.2656 -2.9645  1.5086
  759MOL0     H 4692   5.901   6.417   2.758 -0.2252 -0.8991 -3.0639
  759MOL0     H 4693   5.956   6.585   2.798  2.3991 -0.4661  0.4787
  759MOL0     H 4694   6.160   6.392   2.671 -2.3314  1.9895 -1.2264
  759MOL0     H 4695   6.190   6.508   2.793 -0.8307  0.0589  2.8426
  759MOL0     H 4696   6.066   6.384   2.963 -1.0500 -0.1346 -2.1791
  759MOL0     H 4697   6.025   6.254   2.859 -0.8097 -0.1078  3.1879
  759MOL0     H 4698   6.234   6.174   2.817 -0.1855 -2.3382  1.4626
  759MOL0     H 4699   6.310   6.305   2.908 -0.2340 -0.5810 -1.1256
  759MOL0     H 4700   6.343   5.981   2.988  0.0639 -1.2913 -0.6557
  759MOL0     H 4701   6.334   5.699   2.845  1.4948 -0.8703 -0.0256
  759MOL0     H 4702   6.303   5.625   2.999  2.8762 -0.9969 -1.2904
  759MOL0     H 4703   6.408   5.770   2.985 -0.1113  0.2851 -1.0268
  759MOL0     H 4704   5.881   5.419   3.138  1.4814  2.8806 -0.0565
  759MOL0     H 4705   5.743   5.216   3.097 -0.7430  1.2721  0.6587
  759MOL0     H 4706   5.702   5.047   2.974  0.5831  1.8386  0.5620
  759MOL0     H 4707   5.548   5.012   3.058  0.3262 -4.1744 -1.3643
  759MOL0     H 4708   5.438   5.000   2.829  0.7781  0.0974 -2.2001
  759MOL0     H 4709   5.593   5.040   2.762 -1.5774  2.6532  0.4972
  759MOL0     H 4710   5.569   4.813   2.958 -1.2813 -0.1986 -1.0193
  759MOL0     H 4711   5.709   4.823   2.853  0.7633  0.1540  1.3099
  759MOL0     H 4712   5.575   4.777   2.650  1.4143 -1.0733 -0.3104
  759MOL0     H 4713   5.436   4.795   2.742  0.5221  1.3536  0.3787
  759MOL0     H 4714   5.498   4.585   2.870  0.6823  3.9274  1.2798
  759MOL0     H 4715   5.472   4.559   2.695  0.6417 -0.4590 -0.9290
  759MOL0     H 4716   5.737   4.606   2.826  0.2433  2.1991 -2.3278
  759MOL0     H 4717   5.730   4.534   2.674 -0.1895 -1.0056  0.4077
  759MOL0     H 4718   5.594   4.357   2.752 -0.1425 -0.7555  1.0688
  759MOL0     H 4719   5.612   4.395   2.920 -2.0509 -0.0905 -1.2327
  759MOL0     H 4720   5.834   4.302   2.730  1.5672 -2.9311  1.3512
  759MOL0     H 4721   5.778   4.242   2.887 -0.1442 -1.1617 -1.2466
  759MOL0     H 4722   5.525   5.416   2.798  1.7103 -1.6557 -1.3250
  759MOL0     H 4723   5.686   5.603   2.796 -2.1813  1.8125  0.6809
  759MOL0     H 4724   5.870   5.870   3.026 -0.8953 -0.5787 -5.8960
  759MOL0     H 4725   5.947   6.102   3.036  0.9273 -0.1397  1.7956
  759MOL0     H 4726   4.806   6.269   1.834 -0.0742  0.2463 -0.6840
  759MOL0     H 4727   4.591   6.215   1.934 -1.5534  0.8616 -1.0560
  759MOL0     H 4728   4.460   6.124   2.473  0.5886 -2.2814  0.7093
  759MOL0     H 4729   4.340   5.938   2.543 -1.7454  0.0458  0.8978
  759MOL0     H 4730   3.972   5.842   2.320 -3.7597  0.2839  1.9686
  759MOL0     H 4731   4.101   5.715   2.291  0.8152  0.3885  1.4863
  759MOL0     H 4732   3.889   5.627   2.388 -0.9324  1.4963 -0.4512
  759MOL0     H 4733   3.886   5.749   2.502 -2.4505 -0.2332 -3.0516
  759MOL0     H 4734   4.072   5.656   2.645  0.2507  0.7236 -0.9406
  759MOL0     H 4735   3.973   5.528   2.623  1.4217 -0.2027  1.6049
  759MOL0     H 4736   4.211   5.560   2.424  2.7883 -1.5344  0.2051
  759MOL0     H 4737   4.090   5.432   2.442  1.1531  0.4966 -2.1786
  759MOL0     H 4738   4.370   5.347   2.749 -0.0348  1.3367  1.9289
  759MOL0     H 4739   4.108   5.945   2.173  0.1985  2.0805 -1.5502
  759MOL0     H 4740   4.313   6.110   1.983  0.3945  1.6559  1.3110
  759MOL0     H 4741   4.142   6.101   2.004  0.4723  1.1346 -1.2845
  759MOL0     H 4742   4.213   6.241   2.055 -0.0550  0.8141  2.8449
  760MOL0     O 4743  10.634   5.978   1.025  0.6167  0.1749  0.1779
  760MOL0     C 4744  10.556   6.056   1.077  0.2985 -0.3185  0.1843
  760MOL0     O 4745  10.594   6.132   1.185  0.5338 -0.1577  0.2940
  760MOL0     C 4746  10.694   6.070   1.259  0.2485 -0.6910 -0.2102
  760MOL0     C 4747  10.659   6.007   1.386 -0.6237  0.4718 -0.3277
  760MOL0     C 4748  10.762   5.939   1.458  0.0825 -0.1113 -0.2494
  760MOL0     C 4749  10.897   5.955   1.433 -0.6829 -0.8583  0.7314
  760MOL0     O 4750  10.979   5.878   1.503 -0.1169  0.3174 -1.2586
  760MOL0     C 4751  11.110   5.848   1.452  0.4403  0.0366  0.4238
  760MOL0     C 4752  11.152   5.724   1.522  1.0320  0.2656 -0.2912
  760MOL0     C 4753  11.294   5.692   1.530 -0.6336 -1.1098 -0.0849
  760MOL0     C 4754  11.336   5.623   1.398  0.1554 -0.2569 -0.9519
  760MOL0     C 4755  11.489   5.579   1.416 -0.0870 -0.0994 -0.1976
  760MOL0     C 4756  11.593   5.698   1.412 -0.5386 -0.7381  0.4788
  760MOL0     C 4757  11.735   5.641   1.427  0.2884  0.1977 -0.3499
  760MOL0     C 4758  11.793   5.569   1.313 -0.4140  0.0339 -0.4622
  760MOL0     N 4759  11.901   5.473   1.344  1.0156 -0.3541  0.9539
  760MOL0     C 4760  12.034   5.482   1.308  0.3137  0.1010  0.1669
  760MOL0     C 4761  12.098   5.367   1.358  0.5936 -0.0090 -0.6544
  760MOL0     C 4762  12.247   5.337   1.384 -0.0623 -1.0124 -0.0093
  760MOL0     C 4763  12.317   5.340   1.246  0.6270  0.6241  0.0374
  760MOL0     C 4764  12.468   5.312   1.268  0.3269 -0.5695 -0.1673
  760MOL0     C 4765  12.541   5.425   1.344  0.1755 -0.7311 -0.5846
  760MOL0     O 4766  12.673   5.385   1.359  0.3309 -0.1834 -0.7690
  760MOL0     C 4767  12.734   5.368   1.487 -0.1101 -1.0471  0.3360
  760MOL0     C 4768  12.748   5.480   1.570  0.0470 -0.3210  1.1562
  760MOL0     C 4769  12.808   5.465   1.693  0.2430  0.9492  0.1513
  760MOL0     C 4770  12.818   5.584   1.780  0.4218 -0.2437 -0.2733
  760MOL0     C 4771  12.867   5.343   1.730  0.0627  0.1061 -0.9361
  760MOL0     C 4772  12.943   5.331   1.858 -0.1178  0.0845  0.6971
  760MOL0     O 4773  12.935   5.207   1.917  0.0341 -0.9031 -0.2075
  760MOL0     C 4774  13.040   5.166   1.999  0.5510 -0.1697 -0.1594
  760MOL0     C 4775  13.012   5.134   2.134  0.3538 -0.6905  1.1831
  760MOL0     C 4776  13.110   5.092   2.216 -0.4031  1.0028 -0.6282
  760MOL0     C 4777  13.236   5.053   2.173  0.8389 -0.1064  0.3425
  760MOL0     O 4778  13.326   4.984   2.253  0.3056  0.0122  0.4631
  760MOL0     C 4779  13.456   5.035   2.248 -0.3715  0.0522  0.7893
  760MOL0     C 4780  13.507   5.037   2.391 -0.6288  0.6135  0.3501
  760MOL0     C 4781  13.648   5.105   2.396  0.2636  1.4877 -0.8906
  760MOL0     C 4782  13.769   5.021   2.369  0.3173  0.1830  0.0743
  760MOL0     C 4783  13.904   5.094   2.374  1.0944 -0.3622 -0.0961
  760MOL0     C 4784  13.925   5.161   2.509  0.1955  0.2636 -0.0642
  760MOL0     C 4785  14.058   5.229   2.531  1.5712  0.1760 -0.6134
  760MOL0     C 4786  14.046   5.308   2.663  0.1799  0.8615 -0.5728
  760MOL0    Cl 4787  13.999   5.207   2.797  0.0128  0.0270  0.2471
  760MOL0     C 4788  13.261   5.078   2.033  0.0006  0.1160  0.7034
  760MOL0     C 4789  13.171   5.143   1.956 -0.4888  0.1750 -0.7379
  760MOL0     O 4790  13.016   5.425   1.892 -0.5234  0.2240 -0.4329
  760MOL0     C 4791  12.856   5.236   1.641 -1.4184 -0.3034  0.7855
  760MOL0     C 4792  12.790   5.247   1.515 -0.4789 -0.5711  0.0715
  760MOL0     N 4793  11.996   5.292   1.404  0.1729 -0.1436  0.1965
  760MOL0     N 4794  11.877   5.349   1.394 -0.6258 -0.4180 -0.6842
  760MOL0     C 4795  10.931   6.019   1.314 -0.2735 -0.8462 -0.6543
  760MOL0     C 4796  10.832   6.071   1.226  0.7192 -0.3261  0.2055
  760MOL0     C 4797  10.432   6.078   1.004  0.0652 -0.0914  0.6766
  760MOL0     C 4798  10.404   6.025   0.874  0.3001 -0.2523 -0.7528
  760MOL0     C 4799  10.298   6.060   0.793 -0.4331 -0.0074  0.5516
  760MOL0     C 4800  10.204   6.160   0.845 -0.2934 -0.0278  0.6424
  760MOL0     O 4801  10.097   6.208   0.770 -0.2359 -0.0900 -0.9605
  760MOL0     C 4802  10.077   6.196   0.627 -0.4424  0.2307  0.5064
  760MOL0     C 4803   9.928   6.190   0.574  0.4914 -0.0984 -0.5174
  760MOL0     C 4804   9.847   6.072   0.624  0.2960  0.4385 -0.8838
  760MOL0     C 4805   9.778   6.082   0.758 -0.4374 -0.6061  0.3747
  760MOL0     C 4806   9.679   6.198   0.763  0.1600 -0.5639 -0.0571
  760MOL0     C 4807   9.613   6.297   0.764 -0.4340 -0.2184 -0.8225
  760MOL0     C 4808  10.228   6.222   0.965 -0.3356 -0.2489 -0.5281
  760MOL0     C 4809  10.336   6.178   1.045  0.5435  0.2584  0.3926
  760MOL0     C 4810  10.346   6.254   1.171  0.5577  0.5535 -0.1055
  760MOL0     H 4811  10.557   6.008   1.423 -0.6601 -4.3203  0.2820
  760MOL0     H 4812  10.742   5.879   1.546 -0.8642 -2.4393 -1.9560
  760MOL0     H 4813  11.186   5.924   1.471  0.2546  0.6909 -1.2669
  760MOL0     H 4814  11.107   5.826   1.345 -0.3250 -3.1019  0.9961
  760MOL0     H 4815  11.119   5.721   1.626  0.7920  1.0555 -0.3380
  760MOL0     H 4816  11.096   5.642   1.476 -1.5496 -0.2423  3.3209
  760MOL0     H 4817  11.351   5.785   1.539  1.9958 -2.8084  2.4764
  760MOL0     H 4818  11.326   5.631   1.615  0.9664 -0.6247 -0.3042
  760MOL0     H 4819  11.271   5.537   1.383  1.2699 -0.9945 -1.6666
  760MOL0     H 4820  11.332   5.683   1.307  1.2200  2.2442  0.5276
  760MOL0     H 4821  11.499   5.512   1.330 -2.5265 -1.8243  0.7285
  760MOL0     H 4822  11.513   5.522   1.506  2.1512 -1.4610 -1.5570
  760MOL0     H 4823  11.592   5.751   1.316 -0.9380 -1.3713  0.1278
  760MOL0     H 4824  11.571   5.768   1.493  0.1871  0.1923 -0.1193
  760MOL0     H 4825  11.738   5.576   1.515 -0.1021  0.2935 -0.2617
  760MOL0     H 4826  11.799   5.728   1.443  0.2730 -0.2408  2.6389
  760MOL0     H 4827  11.721   5.513   1.251 -1.2423  3.1895 -2.6034
  760MOL0     H 4828  11.831   5.647   1.246  0.5329  2.8409  3.0562
  760MOL0     H 4829  12.075   5.572   1.262 -0.8883  0.1789 -0.8338
  760MOL0     H 4830  12.272   5.243   1.434  2.4009  0.4866  1.8390
  760MOL0     H 4831  12.295   5.419   1.439  0.8453 -1.6328  0.1420
  760MOL0     H 4832  12.266   5.267   1.183  0.2248 -0.7091  1.8378
  760MOL0     H 4833  12.311   5.435   1.192 -0.0459  0.4574 -0.1900
  760MOL0     H 4834  12.501   5.219   1.317  2.3914 -0.2501 -0.8581
  760MOL0     H 4835  12.517   5.292   1.172  0.8287  0.8054 -0.2161
  760MOL0     H 4836  12.533   5.526   1.302  0.6932 -0.0408  0.8995
  760MOL0     H 4837  12.496   5.437   1.443 -3.6185  0.8765 -2.2934
  760MOL0     H 4838  12.709   5.577   1.543  1.6976  0.4873  1.5362
  760MOL0     H 4839  12.780   5.559   1.879 -0.1172 -1.4638 -0.7575
  760MOL0     H 4840  12.760   5.663   1.732 -1.2320 -0.6515  0.9626
  760MOL0     H 4841  12.924   5.609   1.783 -0.0570  1.9642 -0.0864
  760MOL0     H 4842  12.909   5.126   2.165 -0.5811 -0.6498 -1.6145
  760MOL0     H 4843  13.078   5.064   2.316 -2.4058  1.8426 -0.9938
  760MOL0     H 4844  13.523   4.978   2.182  1.6879  3.5872 -0.4382
  760MOL0     H 4845  13.462   5.136   2.207 -1.4030 -0.1095  0.2123
  760MOL0     H 4846  13.447   5.099   2.458 -0.4172  1.1198  0.0796
  760MOL0     H 4847  13.516   4.935   2.430 -1.1519  1.1837  2.0629
  760MOL0     H 4848  13.659   5.134   2.501 -2.2998  0.1027 -0.1370
  760MOL0     H 4849  13.652   5.201   2.344 -2.9872  1.7078 -0.9492
  760MOL0     H 4850  13.752   4.987   2.266  0.7422 -0.7021  0.2899
  760MOL0     H 4851  13.764   4.936   2.438 -0.8847 -0.7644 -1.1132
  760MOL0     H 4852  13.979   5.016   2.356  2.7727  1.5354 -1.9884
  760MOL0     H 4853  13.912   5.167   2.293 -1.5684 -1.7805 -1.8044
  760MOL0     H 4854  13.922   5.078   2.580 -1.0303  0.2057 -0.1655
  760MOL0     H 4855  13.839   5.223   2.534 -0.4168  1.0481 -3.5757
  760MOL0     H 4856  14.090   5.283   2.442 -3.2969  1.2656 -2.0047
  760MOL0     H 4857  14.136   5.157   2.556  0.5652 -0.8591 -0.3926
  760MOL0     H 4858  13.971   5.384   2.641 -0.8578 -0.1180 -0.5304
  760MOL0     H 4859  14.144   5.353   2.680 -0.2887  1.9688 -0.7036
  760MOL0     H 4860  13.361   5.045   2.005  0.1892 -0.3658  1.8597
  760MOL0     H 4861  13.197   5.161   1.853  0.5399  1.1068 -0.3332
  760MOL0     H 4862  12.898   5.139   1.665 -0.4706 -0.0617  0.1572
  760MOL0     H 4863  12.760   5.161   1.456 -1.1403  0.0228 -0.4872
  760MOL0     H 4864  11.034   6.031   1.282  0.1419  0.6915  1.0990
  760MOL0     H 4865  10.851   6.118   1.131 -0.2412 -0.5698 -0.1162
  760MOL0     H 4866  10.480   5.954   0.843 -0.1845 -1.2832  0.3309
  760MOL0     H 4867  10.295   6.022   0.692 -1.0595 -2.1488  1.3346
  760MOL0     H 4868  10.124   6.281   0.577 -1.8523  0.0862 -1.1704
  760MOL0     H 4869  10.136   6.112   0.590 -1.3400  0.4017 -1.4220
  760MOL0     H 4870   9.936   6.176   0.465 -0.5568 -0.4672 -0.5585
  760MOL0     H 4871   9.877   6.284   0.594  1.6055  0.2529  0.8175
  760MOL0     H 4872   9.767   6.059   0.551 -1.0432  1.8922  0.2486
  760MOL0     H 4873   9.901   5.977   0.622 -0.7505 -0.1821 -0.4358
  760MOL0     H 4874   9.850   6.097   0.839 -1.9294  1.1550  1.4561
  760MOL0     H 4875   9.725   5.987   0.765  1.7220 -1.8265  0.8331
  760MOL0     H 4876   9.556   6.387   0.779 -0.4168 -0.1579 -1.1258
  760MOL0     H 4877  10.158   6.298   0.999  0.4798  0.2013  0.2064
  760MOL0     H 4878  10.259   6.313   1.204  0.5264 -0.8397  2.6746
  760MOL0     H 4879  10.357   6.185   1.255 -0.4160  0.6639  0.1276
  760MOL0     H 4880  10.435   6.317   1.176  1.1271 -0.3118  1.5284
  761MOL0     O 4881   8.526   7.625   5.825 -0.4495 -0.3946  0.1034
  761MOL0     C 4882   8.416   7.666   5.815  0.3035  0.3915 -0.3169
  761MOL0     O 4883   8.356   7.705   5.702 -0.2155  0.2685 -0.0717
  761MOL0     C 4884   8.437   7.737   5.594  1.2412 -0.0355  1.0307
  761MOL0     C 4885   8.555   7.803   5.609  0.5696 -0.4753  0.3194
  761MOL0     C 4886   8.617   7.872   5.500  0.9380 -0.2998 -0.2816
  761MOL0     C 4887   8.550   7.882   5.377 -0.4043 -0.2457 -0.1070
  761MOL0     O 4888   8.608   7.964   5.281  0.5621 -0.0106 -0.3710
  761MOL0     C 4889   8.537   7.996   5.165 -0.2177 -0.3118  1.0163
  761MOL0     C 4890   8.531   7.896   5.054 -0.1895 -0.1747 -0.8883
  761MOL0     C 4891   8.424   7.911   4.957 -0.0334 -0.5423 -0.1261
  761MOL0     C 4892   8.293   7.864   5.012  0.7377  0.1521 -0.8604
  761MOL0     C 4893   8.172   7.865   4.920  0.2051 -1.0819  0.6333
  761MOL0     C 4894   8.032   7.839   4.986 -0.0488  0.7951 -0.1912
  761MOL0     C 4895   7.977   7.958   5.061  0.2591 -0.2944 -0.0635
  761MOL0     C 4896   7.818   7.946   5.085  0.0301 -0.2182 -0.6886
  761MOL0     N 4897   7.738   7.933   4.970  0.6652 -0.0360  0.3367
  761MOL0     C 4898   7.619   7.863   4.952  0.0444  0.3850  0.4682
  761MOL0     C 4899   7.584   7.896   4.825  0.6672 -0.0938 -0.1920
  761MOL0     C 4900   7.457   7.858   4.760 -0.5382 -0.2107  0.3603
  761MOL0     C 4901   7.357   7.978   4.736  0.2974  0.5574 -0.4917
  761MOL0     C 4902   7.253   7.954   4.626  0.1153  0.6138 -0.4713
  761MOL0     C 4903   7.150   8.060   4.612 -0.0229 -0.1907 -0.2070
  761MOL0     O 4904   7.070   8.040   4.500 -0.8772  0.2123 -0.2409
  761MOL0     C 4905   7.099   8.112   4.386 -0.1702 -1.1060 -0.6021
  761MOL0     C 4906   7.221   8.156   4.343  0.6195 -0.4335 -0.3625
  761MOL0     C 4907   7.239   8.207   4.213 -0.1926 -0.3750  0.1854
  761MOL0     C 4908   7.379   8.235   4.176  0.1509 -0.5861 -0.3301
  761MOL0     C 4909   7.127   8.247   4.136 -0.0682 -0.2146  0.2638
  761MOL0     C 4910   7.133   8.319   4.003  0.5260 -1.1296 -0.0808
  761MOL0     O 4911   7.018   8.337   3.930  0.3714  0.4440 -0.3683
  761MOL0     C 4912   7.019   8.390   3.796  0.2007  0.7820 -0.2142
  761MOL0     C 4913   7.122   8.384   3.706 -0.4691  0.2816 -0.0383
  761MOL0     C 4914   7.131   8.466   3.590 -0.4860  0.8400 -1.1687
  761MOL0     C 4915   7.031   8.562   3.566  0.3595  0.1809  0.1526
  761MOL0     O 4916   7.024   8.657   3.461  0.4505 -0.6934  0.4999
  761MOL0     C 4917   7.150   8.677   3.392  0.4816 -0.5916  0.4892
  761MOL0     C 4918   7.170   8.815   3.338  0.1322  0.4902  0.1532
  761MOL0     C 4919   7.047   8.854   3.259  0.8555 -0.3376  0.3583
  761MOL0     C 4920   7.081   8.976   3.173 -0.0312 -0.3939 -0.0209
  761MOL0     C 4921   6.987   9.001   3.058  0.6274 -0.7821 -0.6359
  761MOL0     C 4922   7.049   9.124   2.980 -0.2981 -0.3466 -0.7309
  761MOL0     C 4923   6.946   9.146   2.869 -0.3885 -0.2404 -0.1555
  761MOL0     C 4924   6.988   9.258   2.768 -0.6056 -0.4159  0.2957
  761MOL0    Cl 4925   7.010   9.420   2.854 -0.6495  0.0994  0.3112
  761MOL0     C 4926   6.921   8.575   3.658 -0.0119 -0.0319  0.3939
  761MOL0     C 4927   6.922   8.491   3.769 -0.4715 -0.4725 -0.7277
  761MOL0     O 4928   7.245   8.354   3.960 -0.1289 -0.3573 -0.8276
  761MOL0     C 4929   6.997   8.208   4.188 -0.4354  0.0571  0.2947
  761MOL0     C 4930   6.986   8.134   4.306  0.0684 -1.0256 -0.4122
  761MOL0     N 4931   7.673   7.986   4.769 -0.8409  0.4020  0.8251
  761MOL0     N 4932   7.772   7.994   4.852  0.5577  0.7013  1.2525
  761MOL0     C 4933   8.428   7.818   5.365 -0.0933  1.0748  1.0110
  761MOL0     C 4934   8.375   7.744   5.468 -0.6310 -0.0537 -0.8951
  761MOL0     C 4935   8.333   7.677   5.930 -0.7667 -0.3211 -0.2896
  761MOL0     C 4936   8.284   7.807   5.944 -0.7667  0.4576 -0.4335
  761MOL0     C 4937   8.184   7.818   6.039  0.0920  0.6132  0.1979
  761MOL0     C 4938   8.141   7.718   6.131 -0.6227  0.2939 -0.1635
  761MOL0     O 4939   8.035   7.730   6.224  0.3465 -0.2835 -0.2284
  761MOL0     C 4940   7.946   7.855   6.220 -0.4112  0.0641 -0.1636
  761MOL0     C 4941   7.850   7.845   6.347 -0.6026  0.6171  0.3204
  761MOL0     C 4942   7.923   7.857   6.475 -0.4153  0.1173  0.2044
  761MOL0     C 4943   7.908   7.999   6.532  0.0416 -0.2066 -0.3807
  761MOL0     C 4944   7.982   8.013   6.659 -0.1213 -0.4649 -0.1586
  761MOL0     C 4945   8.037   8.029   6.764  0.2808 -0.0089  0.3495
  761MOL0     C 4946   8.214   7.599   6.128 -1.2794  0.6687 -0.4398
  761MOL0     C 4947   8.305   7.579   6.023  0.1910  0.3022 -0.2065
  761MOL0     C 4948   8.361   7.439   6.016  0.3724  1.2881  0.9444
  761MOL0     H 4949   8.599   7.817   5.708 -1.2140 -1.9618  1.3840
  761MOL0     H 4950   8.710   7.926   5.514  1.5159 -0.4869 -2.9484
  761MOL0     H 4951   8.585   8.087   5.129  1.3668 -1.2099  0.7908
  761MOL0     H 4952   8.442   8.038   5.201 -0.8575 -2.4220  1.9089
  761MOL0     H 4953   8.620   7.915   4.993 -0.5187  0.2211 -1.2536
  761MOL0     H 4954   8.534   7.792   5.088  0.7275  0.3404  0.6860
  761MOL0     H 4955   8.417   8.017   4.932  0.5552 -0.3201  0.6266
  761MOL0     H 4956   8.455   7.857   4.867  2.1348 -2.2736  1.5580
  761MOL0     H 4957   8.291   7.765   5.057 -2.0495  0.9742  1.1349
  761MOL0     H 4958   8.276   7.930   5.098  2.7286 -0.1920 -0.1479
  761MOL0     H 4959   8.188   7.784   4.848 -1.0553 -2.5150  1.8930
  761MOL0     H 4960   8.173   7.960   4.866  1.7074 -3.0962 -3.3346
  761MOL0     H 4961   7.957   7.820   4.909 -1.0591  1.0792  0.6972
  761MOL0     H 4962   8.034   7.745   5.041  0.3468 -0.2941 -1.9909
  761MOL0     H 4963   7.997   8.058   5.022  1.7951 -0.6166 -0.1477
  761MOL0     H 4964   8.016   7.953   5.163 -1.4315 -0.5598  0.6038
  761MOL0     H 4965   7.799   7.861   5.152  2.2154  0.5575  1.0384
  761MOL0     H 4966   7.779   8.035   5.134  0.2775  0.8340 -2.3412
  761MOL0     H 4967   7.566   7.804   5.026  2.6248  0.1239  2.2508
  761MOL0     H 4968   7.406   7.784   4.823 -1.7725 -1.1734 -1.6494
  761MOL0     H 4969   7.471   7.815   4.660 -1.3729  2.0274 -0.7996
  761MOL0     H 4970   7.315   8.014   4.830 -0.7585  1.9754 -1.4646
  761MOL0     H 4971   7.417   8.057   4.692  2.6909 -1.6463 -1.4216
  761MOL0     H 4972   7.296   7.936   4.527  1.7944  2.8588 -0.2135
  761MOL0     H 4973   7.202   7.861   4.654  1.6384  0.2414  1.2169
  761MOL0     H 4974   7.091   8.077   4.702  0.6775 -2.3080  0.7097
  761MOL0     H 4975   7.210   8.151   4.602  0.2987 -0.5082 -1.4028
  761MOL0     H 4976   7.300   8.149   4.417 -1.7131  3.0244  2.7792
  761MOL0     H 4977   7.392   8.340   4.200 -2.3528 -0.2638 -0.1462
  761MOL0     H 4978   7.403   8.204   4.073 -1.8658 -5.0536  0.2959
  761MOL0     H 4979   7.439   8.168   4.238  2.3538  1.9217  0.4284
  761MOL0     H 4980   7.200   8.313   3.734 -1.2276  0.0542  1.5713
  761MOL0     H 4981   7.211   8.447   3.520  1.9546 -2.8326  2.2209
  761MOL0     H 4982   7.239   8.661   3.453  1.0153 -0.9100 -0.3631
  761MOL0     H 4983   7.138   8.606   3.310 -0.3086  0.0828  0.0018
  761MOL0     H 4984   7.214   8.889   3.405  0.6426  0.0157  0.3525
  761MOL0     H 4985   7.253   8.802   3.268 -1.1028 -2.8143 -0.9065
  761MOL0     H 4986   6.969   8.874   3.334 -0.2086  2.1638 -1.2844
  761MOL0     H 4987   7.018   8.777   3.187  1.6839 -0.1575 -0.1792
  761MOL0     H 4988   7.182   8.964   3.131  0.0303  1.8801 -0.6385
  761MOL0     H 4989   7.075   9.059   3.243  1.7563  1.0304 -1.4327
  761MOL0     H 4990   6.996   8.909   3.000 -0.5690 -1.3056 -0.0311
  761MOL0     H 4991   6.883   9.020   3.088  0.6800 -3.2355  1.4185
  761MOL0     H 4992   7.154   9.117   2.951  0.7278  0.6086  2.3914
  761MOL0     H 4993   7.046   9.205   3.053  0.4498 -2.0020  1.2163
  761MOL0     H 4994   6.849   9.174   2.913  0.7940  1.2654  1.6923
  761MOL0     H 4995   6.935   9.056   2.808  0.0775  0.7607 -1.7754
  761MOL0     H 4996   6.918   9.268   2.685 -1.7064 -1.5356  1.0462
  761MOL0     H 4997   7.082   9.227   2.721  0.1737 -0.1385  1.6196
  761MOL0     H 4998   6.850   8.656   3.652  2.2914  2.2004  1.2335
  761MOL0     H 4999   6.836   8.511   3.833 -0.5642  1.5591 -1.4375
  761MOL0     H 5000   6.912   8.233   4.125 -0.0400 -0.4070 -0.4471
  761MOL0     H 5001   6.889   8.100   4.342  0.8903 -1.6368  1.3332
  761MOL0     H 5002   8.366   7.847   5.281  0.5002  1.1609  0.6018
  761MOL0     H 5003   8.277   7.697   5.460 -0.4050 -0.6659 -0.2686
  761MOL0     H 5004   8.310   7.893   5.883  1.1179  1.8988  2.2409
  761MOL0     H 5005   8.137   7.915   6.047 -0.9949 -0.0190  5.0105
  761MOL0     H 5006   7.994   7.954   6.222  0.5135 -0.3868  0.9508
  761MOL0     H 5007   7.884   7.858   6.130 -1.4589  2.7052  0.5526
  761MOL0     H 5008   7.808   7.744   6.343  1.2113 -0.1725  0.6626
  761MOL0     H 5009   7.767   7.914   6.326 -0.9737 -0.3104 -1.4476
  761MOL0     H 5010   7.884   7.789   6.551 -0.3168  0.5921  0.6821
  761MOL0     H 5011   8.029   7.830   6.468 -0.3927  0.2262  0.1269
  761MOL0     H 5012   7.799   8.005   6.546  0.0177 -3.8611  2.8436
  761MOL0     H 5013   7.943   8.068   6.455 -1.3780  2.7297  1.4327
  761MOL0     H 5014   8.096   8.029   6.853  0.0809  0.3065  0.4801
  761MOL0     H 5015   8.181   7.522   6.197  0.1011  0.5540  0.1256
  761MOL0     H 5016   8.374   7.398   5.916  2.4410 -0.2843  1.7805
  761MOL0     H 5017   8.460   7.426   6.060 -0.2430 -1.1570  1.7789
  761MOL0     H 5018   8.296   7.367   6.067  1.6575 -0.9411 -0.3999
  762MOL0     O 5019   9.335   4.492   6.994 -0.2430 -0.1922  0.6469
  762MOL0     C 5020   9.217   4.453   6.982 -0.0025  0.2147  0.2130
  762MOL0     O 5021   9.172   4.330   6.933 -0.4047 -0.4324 -0.2888
  762MOL0     C 5022   9.264   4.247   6.865  0.1744 -0.3940  0.9016
  762MOL0     C 5023   9.296   4.121   6.915 -0.6314  0.5897  0.6811
  762MOL0     C 5024   9.360   4.024   6.841 -0.3043 -0.3042 -0.5774
  762MOL0     C 5025   9.406   4.059   6.715  0.7287 -0.0019  0.3509
  762MOL0     O 5026   9.479   3.956   6.655  0.1463 -1.1456  0.2309
  762MOL0     C 5027   9.526   3.983   6.522  0.4847 -0.1311  0.2704
  762MOL0     C 5028   9.588   3.854   6.474  0.5713  1.0742 -0.0442
  762MOL0     C 5029   9.713   3.805   6.554  0.6794 -0.2336  0.2353
  762MOL0     C 5030   9.841   3.855   6.476  0.3981 -0.1857  0.1252
  762MOL0     C 5031   9.965   3.804   6.547 -0.4393 -0.6618  0.5625
  762MOL0     C 5032  10.086   3.798   6.441  0.3273 -0.1284 -0.2174
  762MOL0     C 5033  10.130   3.934   6.368 -0.6622 -0.8570  0.3443
  762MOL0     C 5034  10.201   3.936   6.233 -0.6601  0.4245  0.6240
  762MOL0     N 5035  10.108   3.879   6.130  1.0934 -0.0721  0.7544
  762MOL0     C 5036   9.996   3.943   6.082 -0.6849  0.1688 -0.4247
  762MOL0     C 5037   9.946   3.869   5.977  0.0836  0.7363 -0.7317
  762MOL0     C 5038   9.846   3.921   5.883  0.2348 -0.0524  0.4244
  762MOL0     C 5039   9.893   3.974   5.759  0.8325 -0.3482  1.1456
  762MOL0     C 5040   9.782   4.046   5.672 -0.3628  0.0165 -0.4599
  762MOL0     C 5041   9.835   4.104   5.537  1.0444  0.6989 -0.0737
  762MOL0     O 5042   9.935   4.201   5.554  0.4246 -0.1093 -0.8094
  762MOL0     C 5043   9.960   4.285   5.452 -0.1996  0.4108 -0.1500
  762MOL0     C 5044  10.028   4.395   5.479 -0.9676 -0.5142  0.0452
  762MOL0     C 5045  10.081   4.484   5.373 -0.5583 -0.0982 -0.3003
  762MOL0     C 5046  10.133   4.620   5.414 -0.8532  0.0963 -0.3161
  762MOL0     C 5047  10.065   4.436   5.239  0.1032  0.9019  0.9551
  762MOL0     C 5048  10.110   4.505   5.112 -0.5162  0.2299 -0.3440
  762MOL0     O 5049  10.082   4.443   4.993  0.3265  0.1081  0.1183
  762MOL0     C 5050  10.120   4.506   4.878 -0.4298 -0.4538 -0.5517
  762MOL0     C 5051  10.015   4.552   4.787 -0.0373  0.0826 -0.0214
  762MOL0     C 5052  10.042   4.618   4.660  0.2233 -0.3644 -0.3005
  762MOL0     C 5053  10.171   4.654   4.627  0.4369  0.2286 -0.1666
  762MOL0     O 5054  10.217   4.718   4.517 -0.5377 -0.0100  0.3951
  762MOL0     C 5055  10.161   4.693   4.394  0.5850 -0.2723 -0.9522
  762MOL0     C 5056  10.043   4.790   4.373  0.1317  0.1566  0.0080
  762MOL0     C 5057  10.033   4.839   4.229 -0.1275  0.6607  0.2359
  762MOL0     C 5058   9.906   4.921   4.198  0.0532  0.5579 -0.5444
  762MOL0     C 5059   9.886   4.953   4.056  0.1324  0.0888 -1.4362
  762MOL0     C 5060   9.884   4.821   3.970  0.3182  0.4716 -0.2175
  762MOL0     C 5061   9.774   4.725   4.010 -0.2046  0.4812 -0.1622
  762MOL0     C 5062   9.635   4.793   3.986  0.3359 -0.7360 -0.0448
  762MOL0    Cl 5063   9.512   4.668   4.025 -0.1945 -0.1061 -0.6756
  762MOL0     C 5064  10.269   4.636   4.723  0.5974  0.4562 -0.4622
  762MOL0     C 5065  10.251   4.561   4.852  0.5415  0.1089 -0.3641
  762MOL0     O 5066  10.150   4.628   5.117 -0.0406 -0.0031  0.2346
  762MOL0     C 5067   9.985   4.317   5.216  0.0838  0.1043  0.2283
  762MOL0     C 5068   9.936   4.242   5.320 -0.7555  0.5483 -0.1996
  762MOL0     N 5069  10.026   3.753   5.965  0.3662  0.8476  1.0546
  762MOL0     N 5070  10.114   3.755   6.065 -0.2206 -0.3568  0.8478
  762MOL0     C 5071   9.377   4.183   6.656  1.2328 -0.3668  0.1924
  762MOL0     C 5072   9.299   4.275   6.732  0.1478 -0.1170 -0.4189
  762MOL0     C 5073   9.111   4.533   7.055  0.2672 -0.4495 -1.2057
  762MOL0     C 5074   8.981   4.476   7.057 -0.1921 -0.3250  0.0297
  762MOL0     C 5075   8.871   4.543   7.129  0.5142  0.3649  0.8985
  762MOL0     C 5076   8.885   4.675   7.184 -0.5782 -0.1841  0.8363
  762MOL0     O 5077   8.787   4.745   7.242  0.3756  0.1636 -0.2750
  762MOL0     C 5078   8.643   4.716   7.227  0.4585 -0.0185  0.4536
  762MOL0     C 5079   8.590   4.753   7.079 -0.4589  1.2071 -0.5962
  762MOL0     C 5080   8.613   4.897   7.048 -0.1051 -0.3108 -0.1024
  762MOL0     C 5081   8.544   4.935   6.917  0.4576  0.7074 -0.4025
  762MOL0     C 5082   8.397   4.938   6.930 -0.6046 -0.5012 -0.9825
  762MOL0     C 5083   8.283   4.952   6.913  0.0947  0.0316 -0.3247
  762MOL0     C 5084   9.015   4.733   7.165  0.8740  0.6230  0.5206
  762MOL0     C 5085   9.121   4.666   7.119 -1.5953  0.4235  0.1048
  762MOL0     C 5086   9.244   4.751   7.109  0.0968  0.2506  0.5359
  762MOL0     H 5087   9.268   4.092   7.016  0.9956  0.6321  1.1849
  762MOL0     H 5088   9.397   3.933   6.885 -3.3859 -1.8487 -0.9263
  762MOL0     H 5089   9.602   4.061   6.529  0.7685 -0.4728  1.1212
  762MOL0     H 5090   9.438   4.006   6.461 -0.6683  0.0402  1.9393
  762MOL0     H 5091   9.513   3.775   6.476  2.2483 -0.5764  1.3631
  762MOL0     H 5092   9.626   3.874   6.373  1.6728 -0.7006 -0.0353
  762MOL0     H 5093   9.720   3.828   6.660  1.8029  0.1126  0.0971
  762MOL0     H 5094   9.692   3.697   6.555 -3.3363  0.3622 -0.5673
  762MOL0     H 5095   9.836   3.829   6.370 -1.6949  0.6966 -0.0471
  762MOL0     H 5096   9.839   3.962   6.502 -0.9801 -0.3981  1.0176
  762MOL0     H 5097   9.951   3.701   6.582  1.1583 -1.2434 -0.3851
  762MOL0     H 5098   9.983   3.867   6.634 -0.5179  1.3038 -0.7903
  762MOL0     H 5099  10.181   3.765   6.483  1.5271  1.2346 -1.7479
  762MOL0     H 5100  10.063   3.729   6.359  2.6127  0.4355 -1.4114
  762MOL0     H 5101  10.185   3.995   6.440 -2.4662  1.1495  0.1289
  762MOL0     H 5102  10.035   3.983   6.344 -0.3342 -0.6177 -0.5390
  762MOL0     H 5103  10.250   4.032   6.215  1.6820 -0.1983  3.0007
  762MOL0     H 5104  10.285   3.866   6.237 -1.3108 -0.6200 -1.7795
  762MOL0     H 5105   9.950   4.037   6.111  0.4369 -0.0247  2.3916
  762MOL0     H 5106   9.791   4.006   5.924 -0.3138 -1.1012  1.9557
  762MOL0     H 5107   9.781   3.835   5.865  0.7168 -0.3050 -0.1549
  762MOL0     H 5108   9.973   4.047   5.776 -0.4077  1.1335  0.8079
  762MOL0     H 5109   9.937   3.890   5.703 -2.1128 -2.1063  1.2554
  762MOL0     H 5110   9.704   3.972   5.653 -3.6571  2.7956  1.3115
  762MOL0     H 5111   9.752   4.125   5.741 -2.4885 -3.3297  2.8354
  762MOL0     H 5112   9.880   4.024   5.476  0.1929  0.3712 -0.2934
  762MOL0     H 5113   9.752   4.147   5.480 -0.6415 -3.7461 -1.4573
  762MOL0     H 5114  10.061   4.421   5.579 -2.4178  0.6019  0.2637
  762MOL0     H 5115  10.154   4.635   5.521  1.8558  3.4344 -1.1219
  762MOL0     H 5116  10.060   4.690   5.373 -3.0550 -0.4685  2.3258
  762MOL0     H 5117  10.232   4.625   5.367 -0.6971  2.5253  0.1226
  762MOL0     H 5118   9.910   4.532   4.804 -1.1072  2.1774 -3.2970
  762MOL0     H 5119   9.966   4.653   4.591 -0.0311 -2.1809 -1.0146
  762MOL0     H 5120  10.253   4.705   4.337  1.7672 -1.2604  0.6267
  762MOL0     H 5121  10.120   4.591   4.392  1.3113 -0.6685  1.1087
  762MOL0     H 5122   9.947   4.752   4.409 -1.3651  2.6059 -1.0818
  762MOL0     H 5123  10.043   4.879   4.437 -2.0422  0.0806  0.1895
  762MOL0     H 5124  10.040   4.756   4.158 -1.5302  0.7047  0.0187
  762MOL0     H 5125  10.108   4.913   4.200 -2.7836  1.9956 -4.1283
  762MOL0     H 5126   9.914   5.014   4.255 -1.1114  2.3723 -3.1584
  762MOL0     H 5127   9.821   4.866   4.239  1.1006 -0.9755 -0.3412
  762MOL0     H 5128   9.798   5.015   4.038  0.6114  0.9217 -0.9462
  762MOL0     H 5129   9.982   4.993   4.022 -0.3000  0.0130 -2.8201
  762MOL0     H 5130   9.974   4.760   3.981 -0.4921 -0.4310  1.9609
  762MOL0     H 5131   9.874   4.866   3.871  1.2810  2.3341  0.4784
  762MOL0     H 5132   9.795   4.689   4.111 -1.1407 -1.3620 -0.5863
  762MOL0     H 5133   9.783   4.650   3.931  1.7268  0.9345 -0.4085
  762MOL0     H 5134   9.607   4.826   3.886 -1.2374  3.7128  1.5716
  762MOL0     H 5135   9.623   4.882   4.049 -2.4572 -1.8924  1.2071
  762MOL0     H 5136  10.365   4.684   4.706  1.4197 -1.5915 -2.0450
  762MOL0     H 5137  10.330   4.546   4.924 -0.4934 -2.3302  0.3525
  762MOL0     H 5138   9.983   4.273   5.117  0.8966  0.3104  0.1158
  762MOL0     H 5139   9.903   4.142   5.294  3.3633 -1.5847  1.7248
  762MOL0     H 5140   9.424   4.215   6.564  1.2122  0.2591  0.3987
  762MOL0     H 5141   9.258   4.368   6.695 -3.2111  0.1422  3.3090
  762MOL0     H 5142   8.968   4.378   7.013  0.6042 -2.5001  4.0819
  762MOL0     H 5143   8.771   4.503   7.120  2.0956 -3.9652 -0.1402
  762MOL0     H 5144   8.616   4.612   7.246 -0.1607 -0.0119 -0.3536
  762MOL0     H 5145   8.585   4.775   7.298  1.5227  1.1113  0.4265
  762MOL0     H 5146   8.485   4.722   7.077  0.3414 -2.0118  0.7595
  762MOL0     H 5147   8.655   4.692   7.015  2.3234  0.6352  2.5059
  762MOL0     H 5148   8.579   4.964   7.128 -1.5062 -1.0792 -0.0221
  762MOL0     H 5149   8.721   4.910   7.052 -0.1356 -0.3473  1.2119
  762MOL0     H 5150   8.565   4.863   6.837 -1.0032 -0.4194  0.1765
  762MOL0     H 5151   8.583   5.031   6.881 -0.9790  1.6418  0.4455
  762MOL0     H 5152   8.181   4.965   6.883  0.6577  0.6965 -2.0209
  762MOL0     H 5153   9.027   4.838   7.192  1.6445  0.0879  2.4049
  762MOL0     H 5154   9.337   4.700   7.133  1.2515  1.9118 -0.2674
  762MOL0     H 5155   9.257   4.782   7.005  4.6087 -0.8457  0.6057
  762MOL0     H 5156   9.235   4.836   7.178 -0.9991 -1.5313  2.7562
  763MOL0     O 5157  10.003   7.691   3.431 -0.2084 -0.1196 -0.1425
  763MOL0     C 5158  10.096   7.762   3.472  0.6390  0.1685 -1.2273
  763MOL0     O 5159  10.143   7.867   3.410 -0.8703 -0.2969  0.2163
  763MOL0     C 5160  10.144   7.873   3.274  0.2246 -0.3389  1.0134
  763MOL0     C 5161  10.158   7.759   3.194 -0.8344  0.1649 -0.2215
  763MOL0     C 5162  10.154   7.759   3.057  0.7713 -0.2815  0.4998
  763MOL0     C 5163  10.140   7.886   2.992  0.2069  0.5867  0.1276
  763MOL0     O 5164  10.157   7.888   2.859 -0.3961  0.1732 -0.3196
  763MOL0     C 5165  10.258   7.972   2.815 -0.5446  0.1852 -0.4401
  763MOL0     C 5166  10.297   7.928   2.672  0.3272  0.4665 -0.3497
  763MOL0     C 5167  10.180   7.936   2.564 -0.0816 -0.2773  0.7449
  763MOL0     C 5168  10.117   7.797   2.534  0.0541 -0.9853  0.0647
  763MOL0     C 5169  10.001   7.827   2.439 -0.7138  0.7142  0.2486
  763MOL0     C 5170   9.937   7.710   2.362  0.3420  0.3362  0.5120
  763MOL0     C 5171   9.796   7.734   2.306 -0.1119  0.0242  0.4736
  763MOL0     C 5172   9.764   7.877   2.262 -1.1315  0.1311 -0.5455
  763MOL0     N 5173   9.855   7.920   2.149 -0.3095 -0.3854  0.1404
  763MOL0     C 5174   9.857   7.861   2.022 -0.8268  0.2665  0.0452
  763MOL0     C 5175   9.946   7.934   1.951  0.6373  0.2238 -1.0083
  763MOL0     C 5176  10.001   7.895   1.819  0.4002 -0.0232  0.4421
  763MOL0     C 5177   9.888   7.905   1.711 -0.6141 -0.5555 -0.3714
  763MOL0     C 5178   9.819   8.042   1.723 -0.4106  1.0727  0.6088
  763MOL0     C 5179   9.917   8.148   1.685  0.1926 -0.5309 -0.8599
  763MOL0     O 5180   9.961   8.114   1.547 -0.2059  0.0803  0.3822
  763MOL0     C 5181  10.091   8.140   1.527  0.5235  0.1970  0.0223
  763MOL0     C 5182  10.158   8.251   1.579  0.2575 -0.1051  0.1061
  763MOL0     C 5183  10.297   8.269   1.566  0.2369 -0.8353  0.1070
  763MOL0     C 5184  10.365   8.367   1.667 -0.1088 -0.1000  0.6487
  763MOL0     C 5185  10.362   8.199   1.470 -0.4573  0.1193 -0.3096
  763MOL0     C 5186  10.507   8.215   1.440  0.4858 -0.1282  0.4697
  763MOL0     O 5187  10.562   8.339   1.452  0.0554 -0.2166 -0.1266
  763MOL0     C 5188  10.692   8.359   1.443 -0.2115 -0.9395 -0.5145
  763MOL0     C 5189  10.755   8.433   1.548  0.0745  0.4559 -0.3455
  763MOL0     C 5190  10.895   8.449   1.548 -0.1074 -0.0891  0.0422
  763MOL0     C 5191  10.973   8.389   1.452 -0.3220 -1.3893  0.4377
  763MOL0     O 5192  11.111   8.421   1.432  0.1931  0.1185  0.8558
  763MOL0     C 5193  11.188   8.418   1.554  0.2761 -0.0463  0.9598
  763MOL0     C 5194  11.332   8.399   1.497  0.2731 -0.0034  0.3270
  763MOL0     C 5195  11.424   8.352   1.614  0.0298 -0.6209  0.2453
  763MOL0     C 5196  11.573   8.348   1.553  0.7413  0.8714 -0.1114
  763MOL0     C 5197  11.660   8.259   1.638  0.1513  0.4254 -0.0412
  763MOL0     C 5198  11.792   8.224   1.563  0.8700 -0.2159 -0.6115
  763MOL0     C 5199  11.866   8.120   1.649 -0.1662 -0.2443 -0.6658
  763MOL0     C 5200  12.003   8.087   1.591 -0.1653 -0.6724  0.3746
  763MOL0    Cl 5201  12.111   8.239   1.586  0.0653  0.2905  0.6327
  763MOL0     C 5202  10.907   8.325   1.349 -0.4951  0.2238 -0.8851
  763MOL0     C 5203  10.773   8.297   1.343 -0.5943 -0.1539  0.4306
  763MOL0     O 5204  10.564   8.107   1.428 -0.2639 -0.1465 -0.4733
  763MOL0     C 5205  10.293   8.091   1.405 -0.0659  0.0764  0.7330
  763MOL0     C 5206  10.153   8.060   1.437 -0.0220 -1.2333  0.9730
  763MOL0     N 5207  10.004   8.029   2.039  0.3739 -0.3267 -0.0420
  763MOL0     N 5208   9.943   8.025   2.156 -0.1808  0.8299  0.3225
  763MOL0     C 5209  10.122   8.005   3.068 -0.2297  0.1542  0.2955
  763MOL0     C 5210  10.132   7.996   3.215 -0.0200 -0.9557  0.9146
  763MOL0     C 5211  10.153   7.734   3.609  0.0528  0.3145  0.5380
  763MOL0     C 5212  10.276   7.797   3.645  0.6096 -0.3613  0.9774
  763MOL0     C 5213  10.344   7.766   3.761 -0.5719 -0.2900  0.7675
  763MOL0     C 5214  10.297   7.667   3.848 -0.0490  0.6332  0.2448
  763MOL0     O 5215  10.379   7.655   3.954  0.0477 -0.7412  0.0705
  763MOL0     C 5216  10.366   7.564   4.058  0.1626 -0.0977 -0.6090
  763MOL0     C 5217  10.492   7.476   4.055 -0.2978 -1.2275 -0.1387
  763MOL0     C 5218  10.495   7.381   4.165  0.0276  0.1687 -0.3193
  763MOL0     C 5219  10.629   7.307   4.155 -1.2169  0.0842 -0.7829
  763MOL0     C 5220  10.634   7.182   4.235  0.5123 -0.5497 -1.1012
  763MOL0     C 5221  10.642   7.085   4.301 -0.5327 -0.3425  0.4895
  763MOL0     C 5222  10.175   7.604   3.823  0.1325  0.0235  0.9634
  763MOL0     C 5223  10.102   7.636   3.700 -0.9537  0.0100 -0.8629
  763MOL0     C 5224   9.980   7.554   3.670 -0.3645 -0.2035  0.8583
  763MOL0     H 5225  10.171   7.663   3.242 -0.9923  0.1753 -0.1551
  763MOL0     H 5226  10.170   7.672   2.993 -1.4904  0.8879 -1.8553
  763MOL0     H 5227  10.347   7.965   2.879 -0.3987 -3.7101 -0.8744
  763MOL0     H 5228  10.214   8.073   2.819 -2.2854 -0.3937 -2.6139
  763MOL0     H 5229  10.376   7.997   2.640 -0.4195  2.1731  1.3241
  763MOL0     H 5230  10.343   7.829   2.672  1.4812  0.9768  0.9296
  763MOL0     H 5231  10.095   7.999   2.594  0.2175  0.9770 -0.8890
  763MOL0     H 5232  10.214   7.998   2.481 -0.6998  0.8628  1.3065
  763MOL0     H 5233  10.202   7.742   2.491 -0.0081  0.0003 -1.3828
  763MOL0     H 5234  10.082   7.746   2.624  0.4308 -1.1821  0.1037
  763MOL0     H 5235  10.038   7.905   2.372  3.0731 -0.9235  0.1763
  763MOL0     H 5236   9.923   7.883   2.491  1.0888  3.4842  0.1675
  763MOL0     H 5237  10.008   7.690   2.281  0.6504  0.1918  0.8176
  763MOL0     H 5238   9.932   7.628   2.434 -0.3127 -0.3662 -0.3115
  763MOL0     H 5239   9.726   7.708   2.385 -0.2023 -0.3234  0.2816
  763MOL0     H 5240   9.772   7.663   2.226 -0.6290  0.0652  0.5909
  763MOL0     H 5241   9.667   7.885   2.211 -1.4665 -2.7169 -0.4978
  763MOL0     H 5242   9.783   7.954   2.337 -2.9741 -0.6200  0.7848
  763MOL0     H 5243   9.799   7.774   1.993 -1.4613 -0.2565  2.6108
  763MOL0     H 5244  10.042   7.794   1.818  1.7335  0.4808  1.3077
  763MOL0     H 5245  10.086   7.955   1.785  0.3843 -1.3482 -2.2098
  763MOL0     H 5246   9.931   7.889   1.612  0.7567  1.5663 -0.1805
  763MOL0     H 5247   9.818   7.823   1.727  0.3124 -1.3053 -0.0543
  763MOL0     H 5248   9.734   8.034   1.654 -0.1508 -4.4923  0.5099
  763MOL0     H 5249   9.768   8.044   1.820 -0.7081 -4.2904  0.8740
  763MOL0     H 5250   9.863   8.242   1.700 -1.7682 -2.0077  2.4670
  763MOL0     H 5251   9.993   8.132   1.761  0.1125 -3.3406 -1.2748
  763MOL0     H 5252  10.104   8.321   1.642 -0.5870 -0.5581 -0.1054
  763MOL0     H 5253  10.444   8.433   1.629 -2.7422  2.6483 -0.4764
  763MOL0     H 5254  10.395   8.313   1.757 -0.1059  1.1870  1.4448
  763MOL0     H 5255  10.284   8.430   1.704 -0.9389 -0.5661 -0.2949
  763MOL0     H 5256  10.699   8.485   1.626 -0.1500 -1.9414  1.2101
  763MOL0     H 5257  10.940   8.503   1.631  0.9194 -1.1380  0.1935
  763MOL0     H 5258  11.183   8.513   1.609  3.2230  0.9784 -0.2823
  763MOL0     H 5259  11.178   8.328   1.615 -1.2539 -1.4694 -1.2614
  763MOL0     H 5260  11.320   8.322   1.420  3.8848 -0.3707 -0.0344
  763MOL0     H 5261  11.374   8.490   1.453  0.6455  1.5783  3.6188
  763MOL0     H 5262  11.391   8.256   1.656 -1.4492  0.0684  0.7298
  763MOL0     H 5263  11.413   8.417   1.701  2.7569  0.8102 -0.3920
  763MOL0     H 5264  11.608   8.451   1.551  1.0621  0.7443 -1.3938
  763MOL0     H 5265  11.578   8.310   1.451  0.5792 -0.1308  0.2324
  763MOL0     H 5266  11.688   8.308   1.732 -2.6688 -0.0711  1.1776
  763MOL0     H 5267  11.608   8.174   1.684  2.0187 -0.9219 -0.3358
  763MOL0     H 5268  11.858   8.310   1.548 -0.3125  0.3773 -2.6941
  763MOL0     H 5269  11.758   8.179   1.470 -2.0514  0.2262  0.1592
  763MOL0     H 5270  11.803   8.031   1.661  0.1504 -0.1445  2.8197
  763MOL0     H 5271  11.882   8.147   1.754  0.6160 -3.4645  0.1593
  763MOL0     H 5272  11.977   8.062   1.488  0.7387  1.6929 -0.4962
  763MOL0     H 5273  12.059   8.003   1.632  1.3351 -0.4844 -1.1950
  763MOL0     H 5274  10.964   8.276   1.270 -1.7986 -1.4650 -0.8445
  763MOL0     H 5275  10.729   8.237   1.264 -2.7569  2.4619 -0.4837
  763MOL0     H 5276  10.347   8.023   1.339  2.0099  0.9780  1.4207
  763MOL0     H 5277  10.102   7.984   1.379 -0.6141 -0.3273  0.2801
  763MOL0     H 5278  10.103   8.096   3.012  4.0999  1.4584  0.5647
  763MOL0     H 5279  10.132   8.082   3.282 -2.4008 -0.3862  0.3006
  763MOL0     H 5280  10.328   7.864   3.577 -2.6052  0.9085 -0.4211
  763MOL0     H 5281  10.422   7.831   3.797 -0.9186  0.6291 -0.0815
  763MOL0     H 5282  10.359   7.615   4.154 -1.1446  0.6424 -1.0734
  763MOL0     H 5283  10.286   7.490   4.045  0.6662 -1.4331  2.7412
  763MOL0     H 5284  10.588   7.529   4.058 -1.2140  0.4764  0.0567
  763MOL0     H 5285  10.490   7.425   3.958 -5.2957 -0.7589 -0.5284
  763MOL0     H 5286  10.497   7.442   4.255 -0.6005  0.8151 -0.7371
  763MOL0     H 5287  10.414   7.308   4.165 -0.2322  0.4460  0.7724
  763MOL0     H 5288  10.703   7.377   4.194 -0.9635  0.7676 -2.4317
  763MOL0     H 5289  10.654   7.278   4.053 -1.0333 -2.7944 -0.0196
  763MOL0     H 5290  10.655   6.986   4.340  0.1046 -2.0137 -3.5423
  763MOL0     H 5291  10.135   7.530   3.891  0.8851 -2.4131 -1.0848
  763MOL0     H 5292   9.977   7.513   3.569  1.8658  2.5245 -0.4557
  763MOL0     H 5293   9.975   7.480   3.751 -2.0937  0.8215  1.7463
  763MOL0     H 5294   9.897   7.624   3.683 -0.0548  0.1147  1.1564
  764MOL0     O 5295   3.066   3.692   0.699 -0.1733 -1.2243 -0.5568
  764MOL0     C 5296   3.099   3.809   0.708 -0.2089 -0.5406 -0.4412
  764MOL0     O 5297   3.227   3.856   0.732  0.4799  0.8181  0.0646
  764MOL0     C 5298   3.312   3.755   0.785 -0.4321  0.1612 -0.3714
  764MOL0     C 5299   3.294   3.712   0.914 -0.6034 -0.0025 -0.2601
  764MOL0     C 5300   3.382   3.617   0.969 -1.1488  0.3545 -0.0201
  764MOL0     C 5301   3.491   3.564   0.900  0.2496 -0.3794  0.3524
  764MOL0     O 5302   3.578   3.467   0.953  0.1206  0.4707  0.3493
  764MOL0     C 5303   3.593   3.442   1.096  0.5400 -0.1978  0.3023
  764MOL0     C 5304   3.675   3.554   1.152 -0.3169 -0.7342 -0.3057
  764MOL0     C 5305   3.824   3.549   1.104  0.0023  0.9179  0.3285
  764MOL0     C 5306   3.888   3.670   1.172  0.5493  0.5932 -1.3482
  764MOL0     C 5307   4.043   3.669   1.153  0.0164 -0.8466 -0.2212
  764MOL0     C 5308   4.117   3.539   1.193 -0.2536 -0.0982  0.6215
  764MOL0     C 5309   4.263   3.569   1.217 -0.6281  0.2488 -0.4072
  764MOL0     C 5310   4.345   3.437   1.247  0.8357  0.6427 -0.0025
  764MOL0     N 5311   4.494   3.447   1.243 -0.5973  0.3762 -0.2572
  764MOL0     C 5312   4.567   3.454   1.363  0.8293 -0.2430 -0.6104
  764MOL0     C 5313   4.693   3.437   1.311  0.7028 -0.0692  0.5627
  764MOL0     C 5314   4.813   3.434   1.401 -0.7518  0.1037 -0.6697
  764MOL0     C 5315   4.905   3.305   1.399 -0.4361  0.4823  0.1465
  764MOL0     C 5316   4.830   3.190   1.479 -0.5050  0.0943  0.1297
  764MOL0     C 5317   4.901   3.063   1.455 -0.2714  0.3001  0.4171
  764MOL0     O 5318   4.814   2.959   1.491  0.1341  0.4184 -0.3417
  764MOL0     C 5319   4.869   2.830   1.514 -0.5778  0.4246  0.0129
  764MOL0     C 5320   4.780   2.728   1.548  0.1066  0.5332 -0.6748
  764MOL0     C 5321   4.820   2.596   1.575 -0.6974 -0.4556  0.3283
  764MOL0     C 5322   4.711   2.502   1.619  0.4905 -0.0577  0.2765
  764MOL0     C 5323   4.959   2.571   1.578  0.0982 -0.5688 -0.1933
  764MOL0     C 5324   5.021   2.442   1.615  0.1701  0.2815 -0.1730
  764MOL0     O 5325   4.942   2.339   1.664  1.1561  0.8788  0.1031
  764MOL0     C 5326   4.999   2.223   1.714 -0.5814 -0.5407 -0.1566
  764MOL0     C 5327   5.051   2.141   1.621 -0.5122 -0.4539 -0.2102
  764MOL0     C 5328   5.114   2.024   1.659  0.9958 -0.5303  0.3994
  764MOL0     C 5329   5.124   1.997   1.796 -0.5021 -0.3974 -1.7501
  764MOL0     O 5330   5.191   1.886   1.851 -0.1178 -0.9735  0.2704
  764MOL0     C 5331   5.153   1.760   1.796  0.3658  0.7979 -1.4438
  764MOL0     C 5332   5.190   1.652   1.894  0.3974  0.6680 -0.4132
  764MOL0     C 5333   5.109   1.636   2.028  0.3202 -0.4561  0.0955
  764MOL0     C 5334   5.161   1.535   2.132  0.8813  1.3288  0.7092
  764MOL0     C 5335   5.077   1.521   2.255  0.2665 -0.8013 -0.4867
  764MOL0     C 5336   5.108   1.635   2.342  0.2852 -0.1276 -0.3717
  764MOL0     C 5337   5.040   1.650   2.478 -0.8683  0.4284  0.5437
  764MOL0     C 5338   4.891   1.681   2.464 -0.3313 -0.6808  0.2263
  764MOL0    Cl 5339   4.819   1.760   2.612 -0.1319  0.2573 -0.0695
  764MOL0     C 5340   5.062   2.085   1.891 -0.0452  0.4399 -0.5183
  764MOL0     C 5341   5.014   2.205   1.856 -0.6377 -0.3554 -0.1837
  764MOL0     O 5342   5.135   2.430   1.584  0.5180 -0.0151  0.3318
  764MOL0     C 5343   5.043   2.680   1.548 -0.2935 -0.1177 -0.8209
  764MOL0     C 5344   5.002   2.802   1.505  0.4505  0.1006  0.5139
  764MOL0     N 5345   4.686   3.408   1.176 -0.8650  0.2642 -0.5685
  764MOL0     N 5346   4.568   3.406   1.141  0.4118 -0.6877  0.1024
  764MOL0     C 5347   3.509   3.615   0.774 -0.2103  0.4180  0.5835
  764MOL0     C 5348   3.428   3.716   0.719  0.1934  0.6103  0.4511
  764MOL0     C 5349   2.995   3.921   0.698  0.2657  0.6507 -0.6153
  764MOL0     C 5350   3.033   4.051   0.736 -0.3211 -0.7372 -0.0554
  764MOL0     C 5351   2.935   4.156   0.740 -0.0614 -0.8446 -0.2998
  764MOL0     C 5352   2.808   4.128   0.708 -0.0479 -0.6054  0.3716
  764MOL0     O 5353   2.712   4.220   0.749 -0.6024  0.2063 -1.0111
  764MOL0     C 5354   2.570   4.195   0.743 -0.1961  0.2504  0.2974
  764MOL0     C 5355   2.506   4.240   0.614 -0.8283 -0.2877 -0.3626
  764MOL0     C 5356   2.500   4.151   0.493 -0.8088  0.0780 -0.3069
  764MOL0     C 5357   2.428   4.200   0.370  0.2715 -0.6789  0.4991
  764MOL0     C 5358   2.291   4.229   0.376 -0.3461  0.1279  0.0104
  764MOL0     C 5359   2.173   4.236   0.352 -0.0744 -0.3026 -0.1919
  764MOL0     C 5360   2.769   4.004   0.657 -0.1026 -0.6129 -0.6419
  764MOL0     C 5361   2.864   3.899   0.651 -0.1361 -0.1487  0.2406
  764MOL0     C 5362   2.808   3.759   0.618  0.3199 -0.2562  0.0407
  764MOL0     H 5363   3.217   3.764   0.971  0.8024  3.8001 -1.4977
  764MOL0     H 5364   3.365   3.600   1.074  1.8627 -0.7559  0.3911
  764MOL0     H 5365   3.635   3.346   1.126  0.0463 -0.0024  1.6742
  764MOL0     H 5366   3.496   3.449   1.146  1.4491 -0.0224  2.1232
  764MOL0     H 5367   3.633   3.652   1.130  1.8939  1.0521  2.6590
  764MOL0     H 5368   3.666   3.549   1.261 -4.3139  2.6532 -0.1960
  764MOL0     H 5369   3.864   3.449   1.117 -1.1055  0.2336 -1.2779
  764MOL0     H 5370   3.828   3.571   0.997 -1.1068  0.3825  0.1631
  764MOL0     H 5371   3.862   3.768   1.132  0.1037  0.1921 -2.0540
  764MOL0     H 5372   3.853   3.664   1.276  1.8468  1.8187 -0.8105
  764MOL0     H 5373   4.087   3.752   1.210 -0.4122 -0.0875 -0.9735
  764MOL0     H 5374   4.076   3.673   1.049  0.4228 -0.9081 -0.0947
  764MOL0     H 5375   4.080   3.493   1.286  0.3798 -1.2533  0.3242
  764MOL0     H 5376   4.098   3.462   1.117  1.4058 -0.8053  0.8980
  764MOL0     H 5377   4.280   3.639   1.300  3.5518  0.0610 -0.8776
  764MOL0     H 5378   4.299   3.618   1.127 -2.9635  2.6566 -0.1670
  764MOL0     H 5379   4.311   3.377   1.333  1.6778 -1.0230 -0.7856
  764MOL0     H 5380   4.327   3.381   1.155  0.1077 -1.2094  1.1911
  764MOL0     H 5381   4.546   3.471   1.468  2.9275 -0.2022 -0.1425
  764MOL0     H 5382   4.778   3.457   1.502  2.6529  2.9850  0.0427
  764MOL0     H 5383   4.882   3.514   1.374 -0.2745 -0.2481 -0.4930
  764MOL0     H 5384   4.919   3.276   1.295 -0.1694  3.3118 -0.6888
  764MOL0     H 5385   4.999   3.330   1.450 -0.0298 -0.7383  0.0447
  764MOL0     H 5386   4.811   3.205   1.585  1.4938 -3.1214  1.0867
  764MOL0     H 5387   4.734   3.180   1.428  0.1585  0.5803 -1.2695
  764MOL0     H 5388   4.923   3.050   1.348 -0.0047 -1.4277  0.6517
  764MOL0     H 5389   4.993   3.054   1.513 -1.7658  0.6264  2.9651
  764MOL0     H 5390   4.676   2.752   1.567 -0.2791 -2.9192  3.1958
  764MOL0     H 5391   4.721   2.488   1.727 -1.7002 -2.2598  0.2879
  764MOL0     H 5392   4.743   2.414   1.563  2.0166  0.1971  0.7176
  764MOL0     H 5393   4.608   2.529   1.592  1.8250  0.4699 -5.6007
  764MOL0     H 5394   5.042   2.162   1.515  2.2311 -0.2798 -0.4914
  764MOL0     H 5395   5.160   1.962   1.582 -0.5432  1.8688 -2.6917
  764MOL0     H 5396   5.044   1.752   1.793 -0.2055  2.0804  4.3525
  764MOL0     H 5397   5.210   1.745   1.704  0.8286  1.2565 -1.2403
  764MOL0     H 5398   5.179   1.568   1.825 -3.6554  1.4993 -1.0288
  764MOL0     H 5399   5.298   1.655   1.916  0.0648 -1.5475  1.9841
  764MOL0     H 5400   5.006   1.614   1.998  0.2409  1.5526 -1.3207
  764MOL0     H 5401   5.107   1.740   2.060 -2.6506  0.4565 -2.5300
  764MOL0     H 5402   5.264   1.558   2.160  1.0061  0.6759  0.8026
  764MOL0     H 5403   5.157   1.430   2.101 -1.3193  0.5240  3.3219
  764MOL0     H 5404   4.975   1.511   2.217  0.8693 -3.7972 -1.5734
  764MOL0     H 5405   5.110   1.431   2.308  0.2587 -1.4011 -1.4784
  764MOL0     H 5406   5.093   1.728   2.286 -0.4330  0.5454  0.8996
  764MOL0     H 5407   5.214   1.627   2.368 -0.2230  0.8479  2.3609
  764MOL0     H 5408   5.094   1.731   2.527 -1.4259  1.8959 -1.1536
  764MOL0     H 5409   5.058   1.555   2.528 -0.1886  0.0422 -0.3943
  764MOL0     H 5410   4.824   1.600   2.434 -3.3637  1.9778 -0.7641
  764MOL0     H 5411   4.870   1.755   2.387 -0.5780 -0.3914  0.5659
  764MOL0     H 5412   5.062   2.071   1.999  2.4642 -1.1770 -0.6462
  764MOL0     H 5413   4.974   2.285   1.917  0.0949 -0.7260  0.8092
  764MOL0     H 5414   5.149   2.664   1.564 -0.3706  0.0186 -0.1510
  764MOL0     H 5415   5.081   2.876   1.499  4.6087 -3.9237  0.4373
  764MOL0     H 5416   3.601   3.594   0.719 -0.6101  2.6978 -1.1082
  764MOL0     H 5417   3.452   3.775   0.631  1.5287  1.6327  1.4524
  764MOL0     H 5418   3.136   4.066   0.765  0.1979 -3.2336 -0.3641
  764MOL0     H 5419   2.948   4.255   0.783 -1.3773 -1.3344  1.3387
  764MOL0     H 5420   2.554   4.090   0.770  3.7138 -0.2896  1.1275
  764MOL0     H 5421   2.529   4.264   0.817  0.7880  1.1819 -0.0115
  764MOL0     H 5422   2.552   4.334   0.582 -1.1873 -0.8517 -2.7652
  764MOL0     H 5423   2.400   4.263   0.624 -0.9523 -1.5165  1.6084
  764MOL0     H 5424   2.605   4.136   0.466 -1.4741 -3.0388 -1.5972
  764MOL0     H 5425   2.450   4.056   0.515 -1.4117  0.1355 -1.3702
  764MOL0     H 5426   2.443   4.134   0.285  2.0205  0.4720 -0.1606
  764MOL0     H 5427   2.486   4.288   0.338  0.8641 -1.5878 -1.0416
  764MOL0     H 5428   2.068   4.241   0.334  0.0773  1.2498 -0.7849
  764MOL0     H 5429   2.667   3.990   0.623 -0.7045 -1.9777  1.5069
  764MOL0     H 5430   2.703   3.774   0.592  0.1365  0.9268  1.3272
  764MOL0     H 5431   2.865   3.714   0.536  1.8401  1.6633 -0.0260
  764MOL0     H 5432   2.806   3.683   0.696  0.2551  0.3629  0.6527
  765MOL0     O 5433   3.624   5.535   3.421 -0.0068 -0.3829  0.3574
  765MOL0     C 5434   3.645   5.589   3.307  0.6544 -0.9805  0.4443
  765MOL0     O 5435   3.716   5.704   3.279 -0.2658  0.4579 -0.0031
  765MOL0     C 5436   3.776   5.760   3.391  0.5846  0.6346  0.5923
  765MOL0     C 5437   3.876   5.696   3.463  0.0704 -0.0968 -0.0181
  765MOL0     C 5438   3.929   5.756   3.581  1.2707 -1.2236 -1.1281
  765MOL0     C 5439   3.887   5.875   3.624  0.3182 -1.0943 -0.1979
  765MOL0     O 5440   3.940   5.924   3.737 -0.0444  0.5242 -0.7331
  765MOL0     C 5441   3.952   6.065   3.761  0.6666 -0.8505 -0.7076
  765MOL0     C 5442   4.041   6.141   3.661  0.0165  0.4361  0.1743
  765MOL0     C 5443   4.182   6.084   3.677 -0.1664  0.2180  0.2953
  765MOL0     C 5444   4.273   6.139   3.789 -0.4775  0.3950 -0.2374
  765MOL0     C 5445   4.398   6.050   3.803 -0.9145  0.3179 -0.4954
  765MOL0     C 5446   4.517   6.135   3.854 -0.5320  1.0548 -0.8160
  765MOL0     C 5447   4.649   6.043   3.877  0.3103  0.2559 -0.6423
  765MOL0     C 5448   4.755   6.125   3.958  0.0255 -0.4364  1.0052
  765MOL0     N 5449   4.858   6.044   4.024 -0.3229  0.5395  0.2054
  765MOL0     C 5450   4.863   6.013   4.153 -0.5717  0.4359 -0.0268
  765MOL0     C 5451   4.983   5.948   4.168 -0.4643  0.5066 -0.6477
  765MOL0     C 5452   5.038   5.890   4.296 -0.0698 -0.4487 -0.3862
  765MOL0     C 5453   5.192   5.907   4.331  1.1282 -0.1741  0.1009
  765MOL0     C 5454   5.235   5.801   4.434 -0.3719  0.8871 -1.0399
  765MOL0     C 5455   5.388   5.777   4.429  0.1255 -0.1392  1.0221
  765MOL0     O 5456   5.412   5.648   4.484 -0.5746 -0.0971 -0.9387
  765MOL0     C 5457   5.548   5.622   4.517  0.0875  0.7406 -0.6536
  765MOL0     C 5458   5.584   5.512   4.595 -0.8810 -0.0265  0.2835
  765MOL0     C 5459   5.710   5.477   4.639 -0.6981 -0.3311 -0.3375
  765MOL0     C 5460   5.727   5.350   4.711 -0.2884  0.7325  0.2744
  765MOL0     C 5461   5.814   5.559   4.599  0.9169  0.1635 -0.3746
  765MOL0     C 5462   5.944   5.541   4.660  0.5860  0.3532 -0.8112
  765MOL0     O 5463   5.975   5.578   4.787  0.2106 -0.3117 -0.4660
  765MOL0     C 5464   5.917   5.687   4.848 -0.2510 -1.1828  0.1988
  765MOL0     C 5465   5.846   5.676   4.963  0.8104 -0.2208 -0.7674
  765MOL0     C 5466   5.794   5.789   5.028  0.4359 -0.0182 -0.5474
  765MOL0     C 5467   5.812   5.919   4.982 -0.7288 -0.7015 -0.8081
  765MOL0     O 5468   5.768   6.024   5.060 -0.1474  0.3762  0.6993
  765MOL0     C 5469   5.825   6.153   5.040 -0.3141 -0.3048  0.5846
  765MOL0     C 5470   5.735   6.268   5.082  0.2603 -1.1404 -0.6580
  765MOL0     C 5471   5.824   6.395   5.087  0.3401 -0.4139 -0.6839
  765MOL0     C 5472   5.742   6.516   5.135  0.3001 -0.3377 -0.0567
  765MOL0     C 5473   5.828   6.648   5.162  0.3532  1.4090 -0.1055
  765MOL0     C 5474   5.730   6.754   5.192 -0.4779 -0.0385 -0.4842
  765MOL0     C 5475   5.802   6.881   5.230  0.5080  0.4401  0.2485
  765MOL0     C 5476   5.902   6.934   5.124  0.7124 -0.6617 -0.6163
  765MOL0    Cl 5477   5.829   6.958   4.963  0.2966  0.4871 -0.1252
  765MOL0     C 5478   5.884   5.922   4.860  0.2068 -0.9335 -0.2017
  765MOL0     C 5479   5.935   5.817   4.792  0.0770 -0.5876 -0.3538
  765MOL0     O 5480   6.029   5.487   4.591  0.2081 -0.0681 -0.3332
  765MOL0     C 5481   5.791   5.667   4.524  0.0768 -0.4361 -0.0903
  765MOL0     C 5482   5.663   5.697   4.471  0.0554  1.0449  0.0165
  765MOL0     N 5483   5.055   5.959   4.048 -1.0207  0.5489  0.3258
  765MOL0     N 5484   4.968   6.010   3.965 -0.3473  0.1724 -0.6304
  765MOL0     C 5485   3.780   5.937   3.554 -0.1265  0.2018  0.3043
  765MOL0     C 5486   3.733   5.888   3.437 -0.6703 -0.6956  0.7019
  765MOL0     C 5487   3.565   5.544   3.193 -0.4895  0.0487  0.2632
  765MOL0     C 5488   3.485   5.639   3.127  0.5891 -0.0768 -0.0497
  765MOL0     C 5489   3.392   5.599   3.032 -0.1860  0.1251  1.2879
  765MOL0     C 5490   3.380   5.464   2.995  0.5366 -0.2226  0.1624
  765MOL0     O 5491   3.303   5.428   2.893 -0.0039  0.0395  0.1725
  765MOL0     C 5492   3.190   5.347   2.932 -0.1739 -0.4834  0.7089
  765MOL0     C 5493   3.063   5.429   2.972  0.4454  0.7386  0.2539
  765MOL0     C 5494   2.991   5.477   2.858  0.3151  0.1592  0.5566
  765MOL0     C 5495   3.064   5.567   2.761  0.1878 -0.1657  0.6246
  765MOL0     C 5496   2.980   5.612   2.648 -0.5518 -0.0171  0.2244
  765MOL0     C 5497   2.914   5.646   2.556  0.4764  0.3067  0.2781
  765MOL0     C 5498   3.463   5.370   3.058  0.8432 -0.0889 -0.3811
  765MOL0     C 5499   3.551   5.411   3.166  0.8519  0.7610  0.1539
  765MOL0     C 5500   3.624   5.307   3.240  0.1923 -0.8627 -0.5503
  765MOL0     H 5501   3.913   5.598   3.434 -0.7861 -0.0721 -1.2603
  765MOL0     H 5502   3.998   5.705   3.648  3.5150  3.1727  0.3016
  765MOL0     H 5503   3.996   6.082   3.860  1.3998  6.1112 -1.7004
  765MOL0     H 5504   3.854   6.114   3.767 -0.3686 -2.6658 -1.9691
  765MOL0     H 5505   3.997   6.129   3.561 -1.6639  4.0264  0.3076
  765MOL0     H 5506   4.058   6.243   3.697  1.3493 -0.3287  1.8200
  765MOL0     H 5507   4.170   5.975   3.681 -0.8558  0.0356 -3.2234
  765MOL0     H 5508   4.239   6.086   3.583 -1.5576 -2.2028 -0.7170
  765MOL0     H 5509   4.305   6.242   3.768  0.5778 -0.0601 -0.9249
  765MOL0     H 5510   4.210   6.149   3.877 -2.3057 -1.3470 -1.2666
  765MOL0     H 5511   4.427   6.003   3.708  2.2578  1.7152 -0.3579
  765MOL0     H 5512   4.362   5.971   3.869 -2.2685  1.1254 -0.2433
  765MOL0     H 5513   4.520   6.216   3.781 -1.5939  1.5490 -0.3381
  765MOL0     H 5514   4.496   6.192   3.944  2.5877  0.0712  0.6715
  765MOL0     H 5515   4.697   6.007   3.785 -0.5374  1.2868 -1.5245
  765MOL0     H 5516   4.614   5.963   3.942 -1.8254  0.6451 -1.2334
  765MOL0     H 5517   4.803   6.196   3.889 -2.2795 -2.1453 -2.7033
  765MOL0     H 5518   4.709   6.180   4.041  1.9292  0.2187  1.6745
  765MOL0     H 5519   4.791   6.014   4.235  0.6684  1.3145  1.0945
  765MOL0     H 5520   5.021   5.783   4.286 -1.9954 -0.3102  0.9693
  765MOL0     H 5521   4.986   5.919   4.388 -2.0017 -2.2175 -0.8542
  765MOL0     H 5522   5.254   5.891   4.242  1.9855 -0.6935  0.7829
  765MOL0     H 5523   5.225   6.006   4.363 -0.8175  0.3483  0.6157
  765MOL0     H 5524   5.216   5.833   4.537 -1.2742 -2.3759 -0.0720
  765MOL0     H 5525   5.175   5.709   4.440  1.7134 -0.4786 -0.1190
  765MOL0     H 5526   5.427   5.796   4.329  1.1167  0.4038  1.4966
  765MOL0     H 5527   5.435   5.857   4.487  1.0014 -0.1474  0.3395
  765MOL0     H 5528   5.505   5.448   4.633  0.3219 -0.4868  2.1762
  765MOL0     H 5529   5.778   5.271   4.654  2.4851  2.1218  0.6578
  765MOL0     H 5530   5.634   5.301   4.739 -0.1016 -0.1415 -0.5770
  765MOL0     H 5531   5.780   5.373   4.803  0.2454 -1.0762  0.4506
  765MOL0     H 5532   5.841   5.578   5.011  0.2543  0.6948  1.1469
  765MOL0     H 5533   5.735   5.781   5.118 -2.6168  0.6469 -2.3341
  765MOL0     H 5534   5.924   6.144   5.084  0.6112 -0.3972 -1.3882
  765MOL0     H 5535   5.852   6.172   4.935  6.5300 -1.2979  1.7508
  765MOL0     H 5536   5.665   6.277   4.999  0.9925 -0.8533 -1.2490
  765MOL0     H 5537   5.695   6.262   5.184 -2.1469 -0.8437 -1.5181
  765MOL0     H 5538   5.863   6.424   4.990 -2.9614  1.2779 -1.6549
  765MOL0     H 5539   5.905   6.385   5.160 -1.6682  0.2602  1.8297
  765MOL0     H 5540   5.673   6.493   5.216 -0.7819 -0.8725 -1.0911
  765MOL0     H 5541   5.676   6.529   5.049 -2.7643  2.5423  2.4664
  765MOL0     H 5542   5.891   6.615   5.246  1.0667  1.2365 -0.6922
  765MOL0     H 5543   5.883   6.674   5.072  2.0056  1.0538  0.7544
  765MOL0     H 5544   5.669   6.724   5.278 -0.4567  0.5253 -0.2672
  765MOL0     H 5545   5.655   6.771   5.114  2.1236  0.4697 -3.0626
  765MOL0     H 5546   5.864   6.863   5.318  1.1704  2.1014  0.1594
  765MOL0     H 5547   5.733   6.962   5.256 -2.5586 -1.4361 -1.3943
  765MOL0     H 5548   5.991   6.871   5.119  0.4350 -1.0540 -0.6241
  765MOL0     H 5549   5.939   7.032   5.155 -1.2344 -0.6111  1.8869
  765MOL0     H 5550   5.895   6.016   4.807 -0.1817 -1.5463 -1.4144
  765MOL0     H 5551   5.986   5.828   4.698  1.2186 -3.2824 -0.1589
  765MOL0     H 5552   5.876   5.732   4.507  1.8655 -2.5577  0.2552
  765MOL0     H 5553   5.648   5.781   4.404  1.6830 -0.7983 -2.9371
  765MOL0     H 5554   3.749   6.036   3.586 -0.7067 -0.1060  0.7139
  765MOL0     H 5555   3.679   5.951   3.367  0.4902 -0.6672 -0.2059
  765MOL0     H 5556   3.494   5.739   3.170  0.0598 -0.3756  0.7687
  765MOL0     H 5557   3.333   5.671   2.976  0.5512  2.2432  3.0641
  765MOL0     H 5558   3.172   5.271   2.855 -0.7219 -0.6794  1.0259
  765MOL0     H 5559   3.212   5.288   3.021 -1.7799 -0.9881  0.7985
  765MOL0     H 5560   3.098   5.518   3.024  2.7679  0.6991 -1.0842
  765MOL0     H 5561   2.998   5.373   3.040  0.0165  1.1315  0.1769
  765MOL0     H 5562   2.949   5.396   2.799  0.1674  0.1132  0.7215
  765MOL0     H 5563   2.912   5.538   2.902  1.1107  0.4333  1.6610
  765MOL0     H 5564   3.146   5.510   2.718 -0.1211 -1.1827  1.3471
  765MOL0     H 5565   3.105   5.648   2.822  1.1320 -0.2254  0.0816
  765MOL0     H 5566   2.843   5.660   2.477  0.2766  0.8868  0.5552
  765MOL0     H 5567   3.453   5.268   3.022  0.6922  0.2194 -1.2573
  765MOL0     H 5568   3.606   5.206   3.201 -1.5999 -1.1887  0.9608
  765MOL0     H 5569   3.729   5.337   3.246  0.6873 -2.4674 -0.7082
  765MOL0     H 5570   3.586   5.300   3.342 -0.8593  0.2098 -0.8458
  766MOL0     O 5571  11.163   2.869   9.446 -0.3928  1.2598  0.4673
  766MOL0     C 5572  11.212   2.769   9.487  0.8891  0.0694  0.3408
  766MOL0     O 5573  11.204   2.644   9.433 -0.4201 -0.0344 -0.0973
  766MOL0     C 5574  11.158   2.637   9.299 -0.6222  1.2854  0.0865
  766MOL0     C 5575  11.054   2.540   9.273 -0.7157 -0.2626  0.4094
  766MOL0     C 5576  11.004   2.525   9.147  0.2174  0.5529  0.2293
  766MOL0     C 5577  11.062   2.596   9.044  0.1521  0.8283  0.5079
  766MOL0     O 5578  11.022   2.594   8.909  0.0679 -0.2179  0.2692
  766MOL0     C 5579  10.898   2.522   8.886 -0.4022 -0.3728  0.8572
  766MOL0     C 5580  10.869   2.544   8.741  0.0885  0.6891  0.8787
  766MOL0     C 5581  10.981   2.489   8.637  0.0552 -0.8002  0.1422
  766MOL0     C 5582  10.971   2.559   8.497  0.1690  0.1615  0.1385
  766MOL0     C 5583  10.834   2.554   8.428  0.0814 -0.4497  0.4533
  766MOL0     C 5584  10.755   2.415   8.432  0.3955 -0.4129  0.1910
  766MOL0     C 5585  10.616   2.420   8.384 -0.3907 -0.3706  0.4283
  766MOL0     C 5586  10.600   2.439   8.238 -0.1047  0.3256  0.7778
  766MOL0     N 5587  10.472   2.401   8.205  0.1203  0.3136 -0.5320
  766MOL0     C 5588  10.365   2.485   8.200  0.1319  0.5121  0.1690
  766MOL0     C 5589  10.266   2.404   8.166 -0.1675  0.5511 -0.3762
  766MOL0     C 5590  10.129   2.459   8.163  1.4508 -0.4818  0.4228
  766MOL0     C 5591  10.055   2.415   8.289  0.5245 -0.1124 -0.0830
  766MOL0     C 5592   9.932   2.506   8.297 -0.5786  0.3951 -0.8252
  766MOL0     C 5593   9.824   2.471   8.404  0.4544 -0.6059  0.0037
  766MOL0     O 5594   9.712   2.571   8.396 -0.2290  0.5724 -0.0605
  766MOL0     C 5595   9.702   2.687   8.471 -0.1361  0.7551 -0.3943
  766MOL0     C 5596   9.811   2.745   8.539  0.3695  0.2594 -0.2616
  766MOL0     C 5597   9.799   2.869   8.615  0.1970 -0.3522  0.0880
  766MOL0     C 5598   9.927   2.917   8.688  0.1847 -0.3347 -0.1568
  766MOL0     C 5599   9.674   2.932   8.619 -0.6485 -0.5835  0.0597
  766MOL0     C 5600   9.652   3.065   8.687 -0.4784 -0.1841  1.3590
  766MOL0     O 5601   9.571   3.157   8.616 -0.2798  0.1431  1.3199
  766MOL0     C 5602   9.529   3.267   8.690  0.2850  0.5640  0.2368
  766MOL0     C 5603   9.419   3.257   8.767  0.8418 -0.4282 -0.1001
  766MOL0     C 5604   9.358   3.368   8.828 -1.0824 -0.3079 -0.4970
  766MOL0     C 5605   9.421   3.498   8.823 -0.2301  0.4824  0.4412
  766MOL0     O 5606   9.367   3.609   8.890 -0.1937  0.1142 -0.0498
  766MOL0     C 5607   9.450   3.724   8.913  0.4494 -0.1501 -0.7928
  766MOL0     C 5608   9.368   3.827   8.993  0.4105 -0.4848  0.4252
  766MOL0     C 5609   9.316   3.760   9.127 -0.1108  1.9332 -1.2891
  766MOL0     C 5610   9.411   3.778   9.242 -0.3192  0.7631  0.4649
  766MOL0     C 5611   9.353   3.731   9.372  0.3587  0.5549  0.5753
  766MOL0     C 5612   9.293   3.856   9.437  0.1983 -0.3524 -0.2207
  766MOL0     C 5613   9.302   3.848   9.590 -1.3027 -0.5898  0.0624
  766MOL0     C 5614   9.218   3.973   9.646 -0.7164  0.0474 -0.7105
  766MOL0    Cl 5615   9.213   3.945   9.814 -0.7035  0.0444 -0.1013
  766MOL0     C 5616   9.534   3.510   8.737  0.1726  0.2633 -1.1632
  766MOL0     C 5617   9.585   3.394   8.679 -0.4993 -0.1226 -0.7421
  766MOL0     O 5618   9.697   3.080   8.796  0.0899 -0.0634 -0.1694
  766MOL0     C 5619   9.572   2.877   8.550  0.2742  0.7795  0.3518
  766MOL0     C 5620   9.587   2.749   8.483  0.3005 -0.4317 -0.3657
  766MOL0     N 5621  10.315   2.275   8.144  0.1717  0.3433 -0.9118
  766MOL0     N 5622  10.436   2.273   8.174 -0.0311  0.6981  0.2322
  766MOL0     C 5623  11.173   2.685   9.059  0.1033 -1.3942  0.2114
  766MOL0     C 5624  11.202   2.714   9.188 -1.4680  0.0667  0.2674
  766MOL0     C 5625  11.291   2.783   9.609  0.9502 -0.4858  0.0393
  766MOL0     C 5626  11.385   2.886   9.614 -0.2470  0.3815 -0.3671
  766MOL0     C 5627  11.461   2.901   9.727  0.5183  0.8233 -0.4275
  766MOL0     C 5628  11.472   2.799   9.820 -0.2978  0.2851 -1.3470
  766MOL0     O 5629  11.567   2.821   9.925 -0.4345  0.0058 -0.3314
  766MOL0     C 5630  11.609   2.718  10.016  0.4550  0.1038 -0.7263
  766MOL0     C 5631  11.683   2.783  10.140  0.1753 -0.4744  0.2162
  766MOL0     C 5632  11.729   2.685  10.243  0.1729  0.6794 -0.1485
  766MOL0     C 5633  11.778   2.758  10.370 -0.2128  0.0683 -0.2286
  766MOL0     C 5634  11.926   2.786  10.369 -0.2004  0.7823  0.8541
  766MOL0     C 5635  12.050   2.777  10.378 -0.2386  0.7711 -0.4320
  766MOL0     C 5636  11.385   2.688   9.807 -0.4462 -0.9347 -0.2267
  766MOL0     C 5637  11.291   2.681   9.705  0.8526  0.0804 -0.2193
  766MOL0     C 5638  11.183   2.572   9.707 -0.4257 -0.5546 -0.2393
  766MOL0     H 5639  10.997   2.495   9.353  1.2150 -1.4926  1.1732
  766MOL0     H 5640  10.913   2.466   9.146  1.5555 -1.6154 -0.9767
  766MOL0     H 5641  10.818   2.554   8.954  1.2474 -2.2370  3.8896
  766MOL0     H 5642  10.907   2.414   8.903  1.8042 -0.8773 -2.6077
  766MOL0     H 5643  10.767   2.512   8.719 -0.7454  1.7075  2.9989
  766MOL0     H 5644  10.874   2.652   8.722  0.6286  0.5408  0.1331
  766MOL0     H 5645  11.077   2.519   8.679 -0.4684  2.3327 -0.6900
  766MOL0     H 5646  10.980   2.379   8.633 -3.1862 -0.8709  0.3709
  766MOL0     H 5647  10.995   2.664   8.519  0.3319 -0.0544  0.9925
  766MOL0     H 5648  11.047   2.504   8.441 -1.2071 -4.2323  2.1369
  766MOL0     H 5649  10.854   2.583   8.325 -0.2419  0.1511  0.5515
  766MOL0     H 5650  10.776   2.639   8.467  0.6354  0.0217  0.2661
  766MOL0     H 5651  10.816   2.333   8.391 -0.8138 -2.0631  1.5347
  766MOL0     H 5652  10.747   2.374   8.533  0.9627  0.1114  0.4508
  766MOL0     H 5653  10.558   2.497   8.435  4.1893  3.1904  0.9809
  766MOL0     H 5654  10.584   2.318   8.408  3.2913 -1.4126  1.6765
  766MOL0     H 5655  10.633   2.539   8.208 -0.1034 -0.1414 -0.8587
  766MOL0     H 5656  10.671   2.377   8.182 -1.5744 -0.3681 -0.3794
  766MOL0     H 5657  10.357   2.592   8.216 -1.1291  0.9858 -2.9041
  766MOL0     H 5658  10.086   2.416   8.072  0.5004  1.9118 -0.3340
  766MOL0     H 5659  10.116   2.568   8.163 -0.3620 -0.6152 -2.0716
  766MOL0     H 5660  10.026   2.310   8.286  1.1374 -0.2666 -0.7217
  766MOL0     H 5661  10.114   2.435   8.379 -1.0574 -1.2745  1.2652
  766MOL0     H 5662   9.969   2.601   8.335  1.0623 -1.1688  1.8493
  766MOL0     H 5663   9.891   2.504   8.196  0.4870 -1.5546 -1.2743
  766MOL0     H 5664   9.786   2.370   8.390 -0.7310 -0.2059  0.1820
  766MOL0     H 5665   9.860   2.481   8.507 -2.3985  1.2559  0.9382
  766MOL0     H 5666   9.904   2.690   8.536  1.3462  1.8078 -3.5765
  766MOL0     H 5667   9.942   3.025   8.685 -0.2340 -0.2419  0.8403
  766MOL0     H 5668  10.016   2.875   8.640  0.7835  2.5756 -1.8161
  766MOL0     H 5669   9.929   2.878   8.790  1.1625  2.1680  0.8797
  766MOL0     H 5670   9.383   3.156   8.785 -0.0717  0.1439  1.5197
  766MOL0     H 5671   9.282   3.347   8.903 -0.6816 -1.1387 -0.3109
  766MOL0     H 5672   9.540   3.701   8.972 -0.7205 -0.7424  0.8144
  766MOL0     H 5673   9.487   3.763   8.818 -1.6282  1.8011 -0.8950
  766MOL0     H 5674   9.437   3.910   9.013  0.8700 -0.9667  0.8773
  766MOL0     H 5675   9.289   3.873   8.934  2.0607 -0.8579 -2.2668
  766MOL0     H 5676   9.282   3.656   9.120  1.3004  1.3150  0.3680
  766MOL0     H 5677   9.223   3.810   9.157  0.1013  1.5676  0.0296
  766MOL0     H 5678   9.440   3.883   9.243 -0.8901  0.9608 -0.8973
  766MOL0     H 5679   9.497   3.711   9.229  1.2909  2.1782  3.0439
  766MOL0     H 5680   9.285   3.646   9.360  0.0134  0.8709  0.2515
  766MOL0     H 5681   9.435   3.697   9.436 -0.3763 -2.2554  0.1633
  766MOL0     H 5682   9.187   3.863   9.412  0.1637  1.7300  0.2734
  766MOL0     H 5683   9.336   3.954   9.415  0.2058 -0.6813 -1.7416
  766MOL0     H 5684   9.400   3.861   9.636  0.1209 -0.6403 -2.7600
  766MOL0     H 5685   9.261   3.758   9.638 -2.2481  0.8683  2.1454
  766MOL0     H 5686   9.116   3.970   9.606 -1.6184 -1.4240  1.5280
  766MOL0     H 5687   9.266   4.070   9.628  0.0635 -0.2161 -0.0979
  766MOL0     H 5688   9.595   3.599   8.743  2.9704 -1.5066 -1.2475
  766MOL0     H 5689   9.681   3.400   8.628 -0.2740  1.8109 -0.1837
  766MOL0     H 5690   9.475   2.926   8.552 -0.4081 -0.5107  0.2972
  766MOL0     H 5691   9.505   2.694   8.439 -0.5412  0.5844 -0.1219
  766MOL0     H 5692  11.212   2.745   8.977 -1.6202  2.1952  1.7648
  766MOL0     H 5693  11.281   2.785   9.213  1.1503 -2.1786 -1.0308
  766MOL0     H 5694  11.385   2.963   9.537 -4.4153 -1.0501 -2.0733
  766MOL0     H 5695  11.520   2.988   9.754  0.2107  0.8016  0.3474
  766MOL0     H 5696  11.520   2.659  10.038 -0.6998  0.8865 -2.9628
  766MOL0     H 5697  11.687   2.658   9.967  0.8793  2.1594 -2.7507
  766MOL0     H 5698  11.616   2.855  10.188 -1.5841 -2.0264  0.2249
  766MOL0     H 5699  11.768   2.840  10.103 -0.5276 -1.1474 -2.6868
  766MOL0     H 5700  11.639   2.624  10.259  0.0208  0.6629 -0.9983
  766MOL0     H 5701  11.814   2.628  10.203  0.1847  2.4183 -2.8296
  766MOL0     H 5702  11.758   2.687  10.451  0.8648 -1.7366 -1.4739
  766MOL0     H 5703  11.715   2.844  10.392 -1.2800 -1.0025  1.1359
  766MOL0     H 5704  12.154   2.756  10.398 -0.8745  0.7197  3.7781
  766MOL0     H 5705  11.392   2.604   9.876  0.7310  1.3430  2.6524
  766MOL0     H 5706  11.206   2.482   9.649 -0.3279 -1.4886  1.1979
  766MOL0     H 5707  11.159   2.538   9.808  3.2448 -2.4202  0.1696
  766MOL0     H 5708  11.093   2.614   9.660 -0.6259  1.8836  2.1260
  767MOL0     O 5709   2.163   3.225   9.702  0.3646 -0.0832  0.4361
  767MOL0     C 5710   2.129   3.345   9.705 -0.2301  0.7656 -0.4990
  767MOL0     O 5711   2.208   3.455   9.701  0.2539 -0.3907 -0.2827
  767MOL0     C 5712   2.335   3.424   9.676 -0.0704 -0.6365 -0.1177
  767MOL0     C 5713   2.422   3.403   9.786 -0.3727 -0.1305 -0.8540
  767MOL0     C 5714   2.550   3.355   9.758 -1.0023 -0.0861 -0.5631
  767MOL0     C 5715   2.601   3.335   9.631  0.0862  0.5794  0.2337
  767MOL0     O 5716   2.730   3.289   9.609  1.0051 -0.7242 -0.1794
  767MOL0     C 5717   2.795   3.301   9.484 -0.2475 -0.5677  0.6895
  767MOL0     C 5718   2.934   3.224   9.497 -0.0308  0.0041 -0.5789
  767MOL0     C 5719   2.906   3.076   9.526 -0.6665 -0.2606  0.0493
  767MOL0     C 5720   3.031   2.995   9.574 -0.4081 -0.7366 -0.5720
  767MOL0     C 5721   3.136   2.978   9.461  0.3001  0.2146 -0.5326
  767MOL0     C 5722   3.192   2.833   9.479 -0.1891 -0.5998  0.3597
  767MOL0     C 5723   3.334   2.820   9.410  0.4588  0.0609  0.0063
  767MOL0     C 5724   3.449   2.914   9.466 -0.6132 -0.3508  0.1090
  767MOL0     N 5725   3.467   2.904   9.611  0.0849 -0.1686  0.4361
  767MOL0     C 5726   3.430   2.998   9.694 -0.6334  0.8200 -0.4032
  767MOL0     C 5727   3.451   2.937   9.818 -1.0051  0.0464  0.2207
  767MOL0     C 5728   3.419   3.001   9.950  0.8729 -0.1662 -0.4559
  767MOL0     C 5729   3.273   2.980  10.008  0.2633  0.7901  0.6585
  767MOL0     C 5730   3.252   2.829   9.992 -0.6702 -0.1557  0.4590
  767MOL0     C 5731   3.344   2.757  10.083  0.4417  0.8859  0.3020
  767MOL0     O 5732   3.339   2.803  10.220 -0.0011 -0.2957 -0.5719
  767MOL0     C 5733   3.243   2.767  10.307  0.9443  0.8864 -0.0689
  767MOL0     C 5734   3.146   2.667  10.281  0.4542 -0.4574 -0.2276
  767MOL0     C 5735   3.046   2.636  10.377 -0.2537 -1.0958  0.6673
  767MOL0     C 5736   2.941   2.523  10.351  0.1742 -0.2158 -0.4211
  767MOL0     C 5737   3.033   2.720  10.494  0.1076  0.6434 -0.4231
  767MOL0     C 5738   2.933   2.710  10.604 -0.7602 -0.7482 -0.5394
  767MOL0     O 5739   2.911   2.822  10.688 -0.6872  0.1484 -0.2111
  767MOL0     C 5740   2.837   2.814  10.800 -0.2557 -0.0808 -0.2975
  767MOL0     C 5741   2.890   2.751  10.918 -0.9026 -0.7851  0.1830
  767MOL0     C 5742   2.822   2.759  11.034  0.3974  0.4775 -0.6925
  767MOL0     C 5743   2.685   2.795  11.039  0.1842  0.5101  0.1635
  767MOL0     O 5744   2.617   2.795  11.164  0.2420  0.2714 -0.0722
  767MOL0     C 5745   2.473   2.793  11.159 -0.0440  0.1244 -0.2415
  767MOL0     C 5746   2.425   2.803  11.309  0.2030  0.0075  0.3912
  767MOL0     C 5747   2.457   2.940  11.376 -0.5477 -0.8330  0.0042
  767MOL0     C 5748   2.406   2.949  11.527 -1.1967 -0.7798 -0.6839
  767MOL0     C 5749   2.250   2.963  11.543 -0.4299 -0.4611  0.1964
  767MOL0     C 5750   2.198   3.099  11.495 -0.6881 -0.2550  0.1054
  767MOL0     C 5751   2.174   3.208  11.597  0.4578 -0.0362  0.0569
  767MOL0     C 5752   2.093   3.328  11.528 -0.5646 -0.5147  0.3232
  767MOL0    Cl 5753   2.201   3.466  11.479  0.0392  0.1856  0.2757
  767MOL0     C 5754   2.630   2.853  10.923  0.1189  0.3799  0.6455
  767MOL0     C 5755   2.703   2.869  10.803 -0.9994  1.0447 -0.7210
  767MOL0     O 5756   2.879   2.601  10.627  0.2087 -0.8491 -0.0149
  767MOL0     C 5757   3.136   2.813  10.516  0.0759  0.9246  1.0472
  767MOL0     C 5758   3.240   2.838  10.425 -0.3724  1.0039 -1.2927
  767MOL0     N 5759   3.509   2.812   9.793  0.3535  0.1446 -0.5039
  767MOL0     N 5760   3.524   2.796   9.669 -0.2223  0.2609  0.5684
  767MOL0     C 5761   2.512   3.366   9.523 -0.7707  0.2834 -0.1045
  767MOL0     C 5762   2.378   3.408   9.542 -0.3649  0.0365  0.2569
  767MOL0     C 5763   1.978   3.359   9.737 -0.7590 -0.6442 -0.3903
  767MOL0     C 5764   1.898   3.236   9.743  0.3729 -0.2499 -0.1664
  767MOL0     C 5765   1.761   3.246   9.767 -0.5052 -0.3950 -0.5148
  767MOL0     C 5766   1.698   3.366   9.806  0.2880 -0.6035 -1.0926
  767MOL0     O 5767   1.563   3.396   9.828 -0.8410  0.3486 -0.3575
  767MOL0     C 5768   1.498   3.282   9.876  0.1053  0.6980 -0.2301
  767MOL0     C 5769   1.410   3.310   9.995  0.0949  0.2693  0.1804
  767MOL0     C 5770   1.313   3.198  10.014  0.0311  0.3273 -0.6998
  767MOL0     C 5771   1.222   3.216  10.133 -1.1943 -0.2165  0.2074
  767MOL0     C 5772   1.293   3.224  10.256 -1.2022  0.6107 -0.0686
  767MOL0     C 5773   1.349   3.202  10.357  0.0605 -0.8852 -0.5818
  767MOL0     C 5774   1.780   3.480   9.806  0.0330  0.3539  0.0745
  767MOL0     C 5775   1.919   3.481   9.782  0.1803  0.2065  0.8362
  767MOL0     C 5776   1.979   3.621   9.772 -0.1365  0.0100  0.0673
  767MOL0     H 5777   2.402   3.412   9.892  2.8769  0.0403 -0.1530
  767MOL0     H 5778   2.612   3.308   9.834  1.4082  0.8746 -1.8141
  767MOL0     H 5779   2.822   3.404   9.455  0.9174 -0.8962  0.5746
  767MOL0     H 5780   2.726   3.261   9.410  0.4541  2.5198 -1.8960
  767MOL0     H 5781   2.998   3.235   9.409  0.5500 -0.1817 -0.1816
  767MOL0     H 5782   2.989   3.258   9.585 -0.4785 -0.8649  0.0516
  767MOL0     H 5783   2.828   3.068   9.602  0.8024 -1.3952  1.5097
  767MOL0     H 5784   2.878   3.031   9.430  2.4163 -0.7176 -0.7674
  767MOL0     H 5785   3.083   3.052   9.651  0.4759 -0.3635 -1.4264
  767MOL0     H 5786   3.009   2.905   9.632  0.8145  1.2901  3.3611
  767MOL0     H 5787   3.219   3.048   9.472  2.6219 -2.2623 -1.3864
  767MOL0     H 5788   3.087   2.988   9.364  0.5537  2.2239 -0.4978
  767MOL0     H 5789   3.199   2.806   9.585 -1.5628  0.6355  0.7952
  767MOL0     H 5790   3.115   2.763   9.445 -1.1157  0.9788 -0.9297
  767MOL0     H 5791   3.306   2.848   9.308 -0.9564  3.0063  1.1132
  767MOL0     H 5792   3.361   2.714   9.424 -1.6469 -0.4388  0.5914
  767MOL0     H 5793   3.538   2.869   9.421 -0.1775 -0.1030  0.7186
  767MOL0     H 5794   3.467   3.016   9.430  3.7038 -0.1550  2.2996
  767MOL0     H 5795   3.391   3.096   9.667  0.1858  0.8356 -1.6169
  767MOL0     H 5796   3.428   3.110   9.938 -0.7887  0.5418  3.1233
  767MOL0     H 5797   3.493   2.978  10.027  0.1571  0.3591  0.4227
  767MOL0     H 5798   3.268   3.012  10.113 -2.3286 -5.1983  2.8813
  767MOL0     H 5799   3.201   3.035   9.948  0.5901  0.9022  0.3724
  767MOL0     H 5800   3.151   2.795  10.018  0.1721 -1.9262  1.6499
  767MOL0     H 5801   3.256   2.799   9.886 -0.0646 -0.8402  0.6666
  767MOL0     H 5802   3.320   2.651  10.075 -2.7421  1.6256 -1.4141
  767MOL0     H 5803   3.444   2.772  10.041  1.1423 -1.5041  0.9479
  767MOL0     H 5804   3.158   2.601  10.196 -1.6273  0.8986 -1.6789
  767MOL0     H 5805   2.839   2.560  10.366  0.5613  1.5072 -1.8077
  767MOL0     H 5806   2.957   2.432  10.410  0.9070  1.1094  1.5156
  767MOL0     H 5807   2.961   2.494  10.248 -0.3370 -1.3521 -0.2168
  767MOL0     H 5808   2.992   2.717  10.932 -0.2604  1.0590  0.3041
  767MOL0     H 5809   2.860   2.722  11.130  1.8883  1.3632 -0.9056
  767MOL0     H 5810   2.437   2.876  11.098 -0.0880 -0.1774 -0.6331
  767MOL0     H 5811   2.442   2.698  11.115 -0.6255  0.0270  0.3684
  767MOL0     H 5812   2.317   2.789  11.315  0.2505 -0.0554  1.2697
  767MOL0     H 5813   2.467   2.723  11.371 -0.7177  0.8714  2.2148
  767MOL0     H 5814   2.402   3.014  11.317  0.9469 -2.0058 -3.1412
  767MOL0     H 5815   2.565   2.956  11.387 -0.7614 -1.0040  3.1587
  767MOL0     H 5816   2.456   3.036  11.572 -0.0939 -1.6068 -0.2647
  767MOL0     H 5817   2.434   2.862  11.587  1.5774  1.3270  1.3717
  767MOL0     H 5818   2.208   2.881  11.485 -4.6696  0.2024  2.0067
  767MOL0     H 5819   2.225   2.934  11.646  0.0041  1.5352  0.9247
  767MOL0     H 5820   2.106   3.070  11.442 -0.4750 -1.5489  0.3940
  767MOL0     H 5821   2.269   3.140  11.424  1.9958  0.0629  2.7886
  767MOL0     H 5822   2.267   3.243  11.644  0.5403  0.9232 -0.7696
  767MOL0     H 5823   2.124   3.158  11.680 -0.5429 -1.4192 -1.3225
  767MOL0     H 5824   2.013   3.364  11.594 -2.2603 -1.7452 -0.9672
  767MOL0     H 5825   2.027   3.303  11.445 -2.2406  1.4093  0.9781
  767MOL0     H 5826   2.526   2.883  10.928 -0.2521 -0.9795  2.1012
  767MOL0     H 5827   2.650   2.914  10.720 -4.6323  0.6462  1.1874
  767MOL0     H 5828   3.147   2.860  10.613  2.7151  0.7895  0.9097
  767MOL0     H 5829   3.314   2.910  10.458  0.6617 -0.0888 -1.1411
  767MOL0     H 5830   2.543   3.343   9.422  0.6516 -0.9902  0.5736
  767MOL0     H 5831   2.318   3.438   9.457  2.2591 -1.4173 -2.2797
  767MOL0     H 5832   1.934   3.143   9.701 -1.3265  0.0627 -2.4984
  767MOL0     H 5833   1.712   3.151   9.748 -1.2603  0.3535 -2.6126
  767MOL0     H 5834   1.433   3.257   9.792  2.5271 -1.7445 -1.5609
  767MOL0     H 5835   1.548   3.186   9.896 -0.7122  0.5594  1.3712
  767MOL0     H 5836   1.359   3.405   9.973 -3.1850 -1.3077  0.3346
  767MOL0     H 5837   1.472   3.311  10.085 -0.6052 -2.6976  0.8171
  767MOL0     H 5838   1.255   3.188   9.921  0.1742  0.7542 -0.8390
  767MOL0     H 5839   1.379   3.115  10.039  1.6648  2.1251  1.2924
  767MOL0     H 5840   1.150   3.134  10.138  0.3423 -1.5575  2.7914
  767MOL0     H 5841   1.162   3.307  10.130 -0.0414  0.6602  1.7958
  767MOL0     H 5842   1.404   3.162  10.440  0.0636 -0.8070 -0.5470
  767MOL0     H 5843   1.737   3.577   9.827  0.4106  0.6189 -0.3555
  767MOL0     H 5844   2.062   3.627   9.843 -0.7410  1.3738  0.6898
  767MOL0     H 5845   2.013   3.633   9.669 -0.8158 -1.1248 -0.3092
  767MOL0     H 5846   1.907   3.696   9.806 -1.0342 -0.5315 -0.5822
  768MOL0     O 5847   3.914   3.142   1.648  0.5479 -0.1577  0.3498
  768MOL0     C 5848   3.839   3.231   1.612  0.1712 -0.5911 -0.1696
  768MOL0     O 5849   3.809   3.272   1.482 -0.7148  1.4253  0.0011
  768MOL0     C 5850   3.856   3.207   1.365  0.7024 -0.3897 -0.1685
  768MOL0     C 5851   3.769   3.177   1.265  0.3279  0.8635  0.2910
  768MOL0     C 5852   3.806   3.127   1.137  0.2218  0.1752 -0.0166
  768MOL0     C 5853   3.943   3.105   1.119  0.0373 -0.4420  1.2702
  768MOL0     O 5854   3.992   3.076   0.990 -0.3914 -0.4097  0.3400
  768MOL0     C 5855   3.895   3.071   0.892  0.6073 -0.8553  0.1616
  768MOL0     C 5856   3.976   3.054   0.771  0.1865  0.2258 -0.4904
  768MOL0     C 5857   4.032   2.910   0.760  0.7130  0.2162  0.1833
  768MOL0     C 5858   4.141   2.902   0.657 -0.3714 -0.4012  0.5026
  768MOL0     C 5859   4.206   2.758   0.653  0.3426 -0.4775 -0.2280
  768MOL0     C 5860   4.329   2.769   0.746  0.5474 -0.2550  0.9237
  768MOL0     C 5861   4.436   2.654   0.734 -0.4365  0.2035  0.1697
  768MOL0     C 5862   4.547   2.662   0.841 -0.4510  0.0920 -0.0045
  768MOL0     N 5863   4.619   2.524   0.836 -0.0211  0.1017 -0.2107
  768MOL0     C 5864   4.561   2.407   0.882  0.5010 -0.3917 -0.7026
  768MOL0     C 5865   4.658   2.319   0.882  0.3145  0.5188  0.2801
  768MOL0     C 5866   4.636   2.176   0.913  0.1046  0.0510  0.6588
  768MOL0     C 5867   4.536   2.109   0.805 -0.2031 -0.3355 -0.5296
  768MOL0     C 5868   4.570   2.134   0.664 -0.4834 -1.0250  0.4621
  768MOL0     C 5869   4.718   2.091   0.631  0.2306 -0.4095  0.3023
  768MOL0     O 5870   4.722   1.952   0.666  0.2452  0.5513 -0.4027
  768MOL0     C 5871   4.849   1.925   0.703 -0.5811  0.0919 -0.6598
  768MOL0     C 5872   4.945   1.920   0.612 -0.1059  0.4587  0.0551
  768MOL0     C 5873   5.079   1.902   0.637  0.1020  0.2850  0.0420
  768MOL0     C 5874   5.167   1.902   0.516 -0.0868 -0.3323  0.2460
  768MOL0     C 5875   5.123   1.875   0.765 -0.2119  0.1068 -0.2252
  768MOL0     C 5876   5.264   1.855   0.805 -0.4470 -0.4932 -0.8627
  768MOL0     O 5877   5.291   1.802   0.934 -0.0040  0.4454 -0.4315
  768MOL0     C 5878   5.421   1.761   0.959  0.6351 -0.0517 -1.2468
  768MOL0     C 5879   5.456   1.629   0.940 -0.6290 -0.5775  0.3005
  768MOL0     C 5880   5.598   1.601   0.959 -0.0682  0.9450  0.6383
  768MOL0     C 5881   5.693   1.688   1.012  0.8438  0.0093 -0.5300
  768MOL0     O 5882   5.821   1.649   1.029 -0.5687  0.3068 -0.2995
  768MOL0     C 5883   5.930   1.742   1.018  1.0866  0.0701 -0.9131
  768MOL0     C 5884   5.975   1.766   1.162  0.9276  0.1089  0.5928
  768MOL0     C 5885   6.109   1.834   1.183  0.2778  0.5244 -0.4726
  768MOL0     C 5886   6.104   1.967   1.263  0.9308 -0.7422  0.2457
  768MOL0     C 5887   6.229   2.034   1.319 -0.8912  0.5127  0.4702
  768MOL0     C 5888   6.199   2.097   1.449 -0.1807 -0.1449 -0.0818
  768MOL0     C 5889   6.274   2.224   1.466 -0.4450 -0.4920 -1.5662
  768MOL0     C 5890   6.425   2.198   1.488  0.8949 -0.7550  0.8092
  768MOL0    Cl 5891   6.521   2.349   1.470 -0.0457  0.0933  0.1331
  768MOL0     C 5892   5.649   1.817   1.054 -0.2799 -0.1978 -0.0187
  768MOL0     C 5893   5.509   1.847   1.028 -0.2078  0.2446  0.6276
  768MOL0     O 5894   5.354   1.871   0.727  0.5867  0.4652 -0.4530
  768MOL0     C 5895   5.030   1.877   0.870  0.9799  0.1312 -0.4921
  768MOL0     C 5896   4.887   1.902   0.838  0.6320  0.2150  0.1872
  768MOL0     N 5897   4.775   2.379   0.829 -0.4376 -0.7742 -0.6095
  768MOL0     N 5898   4.748   2.501   0.810  0.1871  0.3922 -0.4575
  768MOL0     C 5899   4.039   3.134   1.221  0.0326 -0.1552  0.1586
  768MOL0     C 5900   3.995   3.184   1.341  0.4211 -0.8939  0.7354
  768MOL0     C 5901   3.785   3.315   1.724 -0.9586  0.3720  0.5366
  768MOL0     C 5902   3.689   3.417   1.690 -0.0806 -0.4517 -0.8171
  768MOL0     C 5903   3.621   3.492   1.791 -0.6656 -0.0433  0.4058
  768MOL0     C 5904   3.658   3.472   1.922 -0.4762  0.1288 -0.3310
  768MOL0     O 5905   3.588   3.544   2.018  0.0498 -0.3217 -0.6937
  768MOL0     C 5906   3.589   3.501   2.155 -0.0724 -0.6979 -0.7718
  768MOL0     C 5907   3.468   3.552   2.235 -0.2601 -0.1698 -0.0679
  768MOL0     C 5908   3.462   3.535   2.387 -0.1459 -0.0086 -0.0846
  768MOL0     C 5909   3.345   3.597   2.463 -0.0555  0.1675  0.1731
  768MOL0     C 5910   3.330   3.735   2.415 -0.7150  0.0554  1.2360
  768MOL0     C 5911   3.322   3.844   2.366  0.4271  0.2159  0.5728
  768MOL0     C 5912   3.752   3.370   1.953  0.7292  0.3615  0.3939
  768MOL0     C 5913   3.819   3.298   1.859  0.6961 -0.3907 -0.2432
  768MOL0     C 5914   3.935   3.213   1.930  0.9171 -0.7519 -0.0413
  768MOL0     H 5915   3.663   3.184   1.288  0.2445 -1.7308  1.1068
  768MOL0     H 5916   3.730   3.093   1.067  1.1191  3.1720 -2.7169
  768MOL0     H 5917   3.845   3.166   0.876  1.3343 -0.3487  0.8318
  768MOL0     H 5918   3.823   2.988   0.901  0.2546 -0.6003 -0.2475
  768MOL0     H 5919   3.918   3.085   0.684  1.7835  0.5204 -1.4856
  768MOL0     H 5920   4.057   3.128   0.774  1.8059 -1.4455 -0.8169
  768MOL0     H 5921   4.067   2.876   0.858  0.7578  2.3900  0.9877
  768MOL0     H 5922   3.954   2.838   0.735 -0.1451  2.0503 -3.0569
  768MOL0     H 5923   4.102   2.918   0.556  0.2205 -2.0458 -0.0249
  768MOL0     H 5924   4.203   2.990   0.672  0.7635 -1.0581 -0.2064
  768MOL0     H 5925   4.230   2.748   0.547  0.2302 -1.1822 -0.1909
  768MOL0     H 5926   4.142   2.673   0.678  1.7031 -0.9404  2.0028
  768MOL0     H 5927   4.381   2.861   0.718  0.3270 -0.3878  0.0560
  768MOL0     H 5928   4.298   2.776   0.851 -0.7895  0.2021  0.5197
  768MOL0     H 5929   4.468   2.654   0.630  1.1544  1.5311  0.6167
  768MOL0     H 5930   4.389   2.555   0.741  0.9876 -0.5900 -0.9053
  768MOL0     H 5931   4.615   2.743   0.814 -1.4852  0.8570 -0.3961
  768MOL0     H 5932   4.528   2.688   0.946  0.9794  0.6012  0.1411
  768MOL0     H 5933   4.458   2.397   0.913  0.4963  0.9608 -0.2211
  768MOL0     H 5934   4.600   2.167   1.016  1.3632  2.8561  1.4193
  768MOL0     H 5935   4.737   2.134   0.908  0.2174  0.3292  0.5729
  768MOL0     H 5936   4.515   2.005   0.833  2.2586 -0.4969  0.9949
  768MOL0     H 5937   4.442   2.164   0.821 -0.2173 -0.9357  1.9134
  768MOL0     H 5938   4.494   2.085   0.602 -1.0376  1.9181 -1.3734
  768MOL0     H 5939   4.559   2.241   0.646  2.0652 -0.3074  2.5352
  768MOL0     H 5940   4.729   2.103   0.523 -0.5574  2.9399  0.4760
  768MOL0     H 5941   4.792   2.155   0.680  0.3437 -0.0077 -0.3730
  768MOL0     H 5942   4.907   1.934   0.511 -4.0052 -0.2022  1.2377
  768MOL0     H 5943   5.219   1.998   0.511  2.5583 -1.3933  3.7708
  768MOL0     H 5944   5.119   1.895   0.418  1.4529 -2.0716 -0.4369
  768MOL0     H 5945   5.232   1.814   0.520  0.7243 -0.0006 -2.6706
  768MOL0     H 5946   5.386   1.562   0.891  0.3505 -3.4875  2.5484
  768MOL0     H 5947   5.633   1.504   0.927 -0.9279  0.4540  1.1329
  768MOL0     H 5948   6.004   1.678   0.970  0.6723 -1.0995 -0.0378
  768MOL0     H 5949   5.910   1.832   0.958 -0.7274  0.2461 -0.1158
  768MOL0     H 5950   5.906   1.825   1.223 -0.1982 -0.0014 -0.5232
  768MOL0     H 5951   5.975   1.667   1.208 -0.1952 -0.3216 -0.2879
  768MOL0     H 5952   6.152   1.862   1.086  1.6339 -0.2110 -0.1175
  768MOL0     H 5953   6.160   1.760   1.246 -1.5563 -0.1772  0.2514
  768MOL0     H 5954   6.047   1.942   1.352  2.4775  0.7130  1.7116
  768MOL0     H 5955   6.051   2.045   1.207  0.5460 -1.5379 -0.5145
  768MOL0     H 5956   6.298   1.950   1.329 -0.4283  0.6663 -1.1394
  768MOL0     H 5957   6.275   2.102   1.247 -0.8556 -3.1766 -3.4104
  768MOL0     H 5958   6.235   2.033   1.530  6.0386 -1.4841 -3.2631
  768MOL0     H 5959   6.092   2.119   1.450  0.0964  1.3164 -0.0490
  768MOL0     H 5960   6.235   2.285   1.547  0.7257 -3.1956  1.2103
  768MOL0     H 5961   6.264   2.284   1.375  1.1569  0.4498 -1.1675
  768MOL0     H 5962   6.453   2.133   1.405 -2.3925  1.3463 -2.2553
  768MOL0     H 5963   6.441   2.149   1.584 -2.4152 -1.6689  1.0157
  768MOL0     H 5964   5.713   1.895   1.093  1.4245 -0.4782 -2.0695
  768MOL0     H 5965   5.471   1.948   1.041 -0.9325 -0.1261  1.5197
  768MOL0     H 5966   5.053   1.856   0.974 -0.8258 -1.2974 -0.3306
  768MOL0     H 5967   4.810   1.922   0.912 -0.6004 -0.6610 -0.8319
  768MOL0     H 5968   4.147   3.140   1.218  0.0668  1.5283  2.4048
  768MOL0     H 5969   4.056   3.224   1.421  0.5668  3.3768 -1.2261
  768MOL0     H 5970   3.670   3.443   1.586 -1.1059  1.8322 -0.1285
  768MOL0     H 5971   3.559   3.578   1.765 -0.9278 -0.4227 -0.2529
  768MOL0     H 5972   3.603   3.392   2.162  0.3138 -0.7164 -1.6514
  768MOL0     H 5973   3.671   3.553   2.205 -1.8462  2.0981 -0.5868
  768MOL0     H 5974   3.378   3.505   2.196 -1.1561  0.7848  0.7908
  768MOL0     H 5975   3.459   3.659   2.216  1.0811  0.0092  0.1728
  768MOL0     H 5976   3.455   3.427   2.403  1.4714 -0.2063 -0.5338
  768MOL0     H 5977   3.556   3.566   2.434 -1.3048  1.2246  1.5733
  768MOL0     H 5978   3.367   3.618   2.568  1.7576  0.8608 -0.2964
  768MOL0     H 5979   3.259   3.532   2.454  1.0945 -1.6703  1.8002
  768MOL0     H 5980   3.318   3.942   2.322  2.2823  0.3334  0.5938
  768MOL0     H 5981   3.779   3.370   2.058 -0.5685  1.1073  0.7532
  768MOL0     H 5982   3.921   3.196   2.037 -0.0484  0.6060  0.0699
  768MOL0     H 5983   3.954   3.118   1.879  2.8737  1.2775 -3.4360
  768MOL0     H 5984   4.028   3.269   1.912 -0.8566  1.5851 -2.8599
  769MOL0     O 5985  10.566   2.643   9.032 -0.5677  0.5594  0.3221
  769MOL0     C 5986  10.564   2.757   8.990 -0.4086  0.6819 -0.8865
  769MOL0     O 5987  10.493   2.795   8.880  0.3186 -0.2096 -0.3179
  769MOL0     C 5988  10.401   2.723   8.813  0.2804 -0.1563  0.1149
  769MOL0     C 5989  10.259   2.729   8.841  0.0126 -0.4264 -0.0174
  769MOL0     C 5990  10.168   2.644   8.773 -0.2758  0.7224  0.7263
  769MOL0     C 5991  10.206   2.546   8.688 -0.6643 -0.6932  0.2106
  769MOL0     O 5992  10.110   2.462   8.635 -0.3398  0.2034 -0.5462
  769MOL0     C 5993  10.103   2.327   8.686 -0.2812 -0.3049  0.1324
  769MOL0     C 5994  10.064   2.329   8.831  0.0579  0.4745 -0.5784
  769MOL0     C 5995  10.002   2.194   8.865 -0.5558  0.2249 -0.6267
  769MOL0     C 5996  10.101   2.072   8.879  0.0484 -0.3232  0.1517
  769MOL0     C 5997  10.026   1.937   8.915  0.1458 -0.2836 -0.0347
  769MOL0     C 5998   9.978   1.867   8.788  0.1821 -0.2289 -0.7365
  769MOL0     C 5999   9.899   1.733   8.804 -0.1995  1.2621  0.1507
  769MOL0     C 6000   9.916   1.643   8.675 -0.2935  0.4355 -0.0916
  769MOL0     N 6001   9.816   1.533   8.682 -1.1460  0.5302  0.6065
  769MOL0     C 6002   9.690   1.538   8.625  0.9058  0.6736  0.5120
  769MOL0     C 6003   9.611   1.469   8.711 -0.0117  0.9849 -0.3932
  769MOL0     C 6004   9.465   1.441   8.697  0.1911  1.3993 -0.4799
  769MOL0     C 6005   9.389   1.569   8.720 -0.0118  0.3875  0.0363
  769MOL0     C 6006   9.240   1.537   8.734 -0.6081  0.8939  0.3764
  769MOL0     C 6007   9.138   1.652   8.717 -0.3427  0.3091  0.1530
  769MOL0     O 6008   9.156   1.723   8.593 -0.3308 -0.5085 -1.1242
  769MOL0     C 6009   9.041   1.793   8.541 -0.0482  0.2322  0.1552
  769MOL0     C 6010   8.997   1.761   8.410  0.0449 -0.2833  0.0176
  769MOL0     C 6011   8.871   1.805   8.357  0.1558 -0.7340 -1.1372
  769MOL0     C 6012   8.839   1.770   8.211  0.1100  0.0831 -0.2234
  769MOL0     C 6013   8.800   1.907   8.436 -0.1090  0.7717 -0.3257
  769MOL0     C 6014   8.676   1.977   8.396 -0.2800 -0.1590  0.2764
  769MOL0     O 6015   8.629   2.078   8.485  0.4736 -0.3056  0.1377
  769MOL0     C 6016   8.499   2.116   8.478  0.1191  0.8379 -0.4506
  769MOL0     C 6017   8.476   2.245   8.462  0.6727 -0.4230  0.0284
  769MOL0     C 6018   8.349   2.295   8.477  0.9097 -1.0659 -0.6284
  769MOL0     C 6019   8.245   2.212   8.510  0.8208  0.5790  0.0545
  769MOL0     O 6020   8.114   2.253   8.528 -0.1115  0.0312  0.5049
  769MOL0     C 6021   8.077   2.394   8.522 -0.7114 -0.4988  0.9296
  769MOL0     C 6022   8.076   2.457   8.381 -0.1860 -0.2725  0.5285
  769MOL0     C 6023   7.941   2.440   8.302  0.0779  0.3378 -0.1012
  769MOL0     C 6024   7.899   2.290   8.295  0.3663 -0.5463 -0.1717
  769MOL0     C 6025   7.758   2.272   8.229 -0.3363  0.1166  0.3535
  769MOL0     C 6026   7.639   2.344   8.289 -0.2096  0.0704  0.0103
  769MOL0     C 6027   7.502   2.293   8.230 -0.0907  1.4749 -0.0510
  769MOL0     C 6028   7.443   2.162   8.297 -0.7144 -0.2882  0.5290
  769MOL0    Cl 6029   7.336   2.083   8.179 -0.0595  0.3220 -0.6271
  769MOL0     C 6030   8.271   2.072   8.514  0.0774 -0.4964 -1.0239
  769MOL0     C 6031   8.401   2.024   8.507 -0.0841 -0.1055  0.5910
  769MOL0     O 6032   8.627   1.955   8.289  0.4728  0.4615 -0.0066
  769MOL0     C 6033   8.854   1.938   8.562  0.5458 -0.2897  0.3441
  769MOL0     C 6034   8.973   1.879   8.615 -0.2344  0.6051 -0.1193
  769MOL0     N 6035   9.674   1.417   8.814 -0.6711 -0.1422  0.0239
  769MOL0     N 6036   9.802   1.460   8.797  0.4963 -0.5597 -0.2124
  769MOL0     C 6037  10.346   2.540   8.657  0.6227  0.1431  0.4884
  769MOL0     C 6038  10.437   2.626   8.715 -0.0057 -0.0855  0.6789
  769MOL0     C 6039  10.641   2.862   9.052 -0.2943 -0.8374  1.0513
  769MOL0     C 6040  10.773   2.822   9.094  0.2783 -0.3511  0.8603
  769MOL0     C 6041  10.872   2.913   9.140 -0.7875 -0.2477 -0.2093
  769MOL0     C 6042  10.842   3.053   9.148  0.2666  0.1745 -0.0508
  769MOL0     O 6043  10.936   3.155   9.183  0.8246  0.8280 -0.3014
  769MOL0     C 6044  11.030   3.132   9.286  0.0320 -0.3311  0.0356
  769MOL0     C 6045  11.099   3.261   9.316  0.2948  0.0551 -0.9489
  769MOL0     C 6046  11.207   3.242   9.434  0.0571  0.2210  0.6282
  769MOL0     C 6047  11.251   3.374   9.492 -0.2082 -0.5721 -0.6780
  769MOL0     C 6048  11.162   3.454   9.577  0.5284 -0.4428  0.2439
  769MOL0     C 6049  11.087   3.523   9.649  0.6447  0.1509  0.0913
  769MOL0     C 6050  10.709   3.089   9.116 -1.0590 -0.7481  0.5911
  769MOL0     C 6051  10.607   3.002   9.066  0.2035  0.2382  0.7174
  769MOL0     C 6052  10.466   3.048   9.027  0.0617  0.1036 -0.1808
  769MOL0     H 6053  10.231   2.798   8.920 -3.2763  1.1576 -2.3346
  769MOL0     H 6054  10.062   2.646   8.795 -0.4548  1.6561 -0.1615
  769MOL0     H 6055  10.197   2.274   8.668  1.1440  1.3443  2.1999
  769MOL0     H 6056  10.029   2.275   8.625 -0.9464  0.1551  0.5378
  769MOL0     H 6057  10.140   2.356   8.904 -0.1324  1.5887 -0.7742
  769MOL0     H 6058   9.987   2.404   8.855 -1.7229 -0.9295 -1.5827
  769MOL0     H 6059   9.946   2.193   8.960 -1.6610 -3.3733 -1.1492
  769MOL0     H 6060   9.934   2.170   8.783  0.5543  1.3071 -1.8996
  769MOL0     H 6061  10.153   2.070   8.783  1.3127 -1.6192  0.8320
  769MOL0     H 6062  10.169   2.106   8.957  1.1105  0.1820 -0.9581
  769MOL0     H 6063   9.944   1.969   8.980  0.0393  1.4178 -0.9567
  769MOL0     H 6064  10.094   1.873   8.972  1.8389  0.7614 -0.7959
  769MOL0     H 6065   9.916   1.939   8.733 -2.4590 -2.6402 -1.1881
  769MOL0     H 6066  10.066   1.851   8.726 -0.3310  0.3215 -1.6222
  769MOL0     H 6067   9.797   1.754   8.837 -0.3490  0.1943  0.3985
  769MOL0     H 6068   9.941   1.681   8.890  2.7746  2.6997 -0.3115
  769MOL0     H 6069   9.905   1.700   8.583  0.1918  1.8087  0.6721
  769MOL0     H 6070  10.014   1.595   8.680 -1.3004 -2.2610 -3.2357
  769MOL0     H 6071   9.655   1.604   8.547  3.5809  2.2166  0.5230
  769MOL0     H 6072   9.443   1.366   8.774  1.7932 -1.2441 -2.4201
  769MOL0     H 6073   9.447   1.402   8.596 -0.0314 -0.1619  0.1237
  769MOL0     H 6074   9.432   1.606   8.814  1.9047  0.0525 -0.6722
  769MOL0     H 6075   9.410   1.640   8.640 -3.5875  1.4633 -0.1323
  769MOL0     H 6076   9.216   1.462   8.658  0.7524  2.2691 -1.5056
  769MOL0     H 6077   9.220   1.488   8.830  1.6682 -0.2059  0.3502
  769MOL0     H 6078   9.036   1.615   8.731  0.9559 -4.5859 -1.1618
  769MOL0     H 6079   9.164   1.721   8.798  1.0245 -1.0175  0.9121
  769MOL0     H 6080   9.066   1.703   8.350  0.2365 -0.8381  0.7586
  769MOL0     H 6081   8.734   1.741   8.208  0.3741 -0.9071 -0.2222
  769MOL0     H 6082   8.905   1.689   8.177  1.5112  1.9681 -2.3132
  769MOL0     H 6083   8.869   1.857   8.152 -1.4836  0.7494 -0.0844
  769MOL0     H 6084   8.551   2.322   8.447 -1.2646  1.0021 -3.7525
  769MOL0     H 6085   8.332   2.402   8.482  1.2242 -0.8766 -2.6088
  769MOL0     H 6086   7.976   2.399   8.562 -1.1672  1.5458 -0.3446
  769MOL0     H 6087   8.150   2.445   8.586  2.9646 -3.6270 -0.3447
  769MOL0     H 6088   8.093   2.565   8.383  1.7080 -0.4537 -1.6739
  769MOL0     H 6089   8.168   2.438   8.325 -0.3768  0.9363 -0.2219
  769MOL0     H 6090   7.947   2.489   8.205  3.6706  0.0321 -0.1672
  769MOL0     H 6091   7.857   2.486   8.355  0.9157  0.7790  0.8731
  769MOL0     H 6092   7.901   2.230   8.386  0.6734 -2.9444 -1.6844
  769MOL0     H 6093   7.974   2.238   8.234 -0.3520 -1.6040 -0.1815
  769MOL0     H 6094   7.756   2.305   8.124  0.1540 -1.7852 -0.2970
  769MOL0     H 6095   7.727   2.168   8.237  1.5965 -0.4630  0.8251
  769MOL0     H 6096   7.642   2.452   8.272 -2.2974 -0.1272 -2.0105
  769MOL0     H 6097   7.626   2.321   8.395  1.6965  0.9731  0.4928
  769MOL0     H 6098   7.526   2.273   8.125  1.2979  0.5756  0.4242
  769MOL0     H 6099   7.431   2.377   8.232 -0.8392  0.8455  0.1545
  769MOL0     H 6100   7.394   2.190   8.391 -1.8168 -3.3599  1.0098
  769MOL0     H 6101   7.527   2.097   8.328 -1.2789 -0.5631  1.5387
  769MOL0     H 6102   8.192   1.999   8.527 -0.3241  0.0902  0.0355
  769MOL0     H 6103   8.423   1.917   8.511  1.8810  0.1403 -1.4935
  769MOL0     H 6104   8.803   2.007   8.629  1.7203  0.3978  0.5514
  769MOL0     H 6105   8.989   1.900   8.720 -3.7759  0.4258  0.5924
  769MOL0     H 6106  10.384   2.465   8.588  0.3437  0.6633 -0.2338
  769MOL0     H 6107  10.541   2.613   8.688  0.1323  0.0233  1.1457
  769MOL0     H 6108  10.803   2.718   9.085 -3.5254 -1.5621  0.0961
  769MOL0     H 6109  10.972   2.874   9.157 -2.3374 -4.4140  0.3961
  769MOL0     H 6110  10.988   3.103   9.382  0.4716 -1.3972 -0.0785
  769MOL0     H 6111  11.107   3.065   9.247  3.4629  1.8788  2.4242
  769MOL0     H 6112  11.022   3.332   9.347 -0.5444 -2.2349  2.7588
  769MOL0     H 6113  11.153   3.310   9.234  2.4294  0.4081  0.5937
  769MOL0     H 6114  11.177   3.178   9.517  2.4807 -0.6779  0.9059
  769MOL0     H 6115  11.296   3.200   9.386  0.0675  2.1896 -1.2907
  769MOL0     H 6116  11.288   3.441   9.414 -0.7266  0.5387 -0.0040
  769MOL0     H 6117  11.332   3.347   9.561 -2.1534 -0.0621  1.9902
  769MOL0     H 6118  11.022   3.575   9.716  0.3728  0.1714 -0.1893
  769MOL0     H 6119  10.691   3.196   9.122  3.5819  0.1719  2.4507
  769MOL0     H 6120  10.466   3.089   8.926 -1.6327  2.3982  0.6701
  769MOL0     H 6121  10.391   2.968   9.028 -2.0958  1.9888  1.3992
  769MOL0     H 6122  10.423   3.129   9.086 -1.0757  1.2812 -2.4942
  770MOL0     O 6123   5.985  10.785   3.009 -0.7285 -0.2842 -0.5776
  770MOL0     C 6124   6.100  10.815   3.055  0.2802  0.5374  0.2400
  770MOL0     O 6125   6.163  10.944   3.047  0.4942  0.0634 -0.0209
  770MOL0     C 6126   6.089  11.042   2.992 -0.1940 -0.1483  0.0669
  770MOL0     C 6127   6.137  11.111   2.881 -0.1451  0.2642 -0.5771
  770MOL0     C 6128   6.061  11.213   2.819 -0.8462 -0.2766  0.2795
  770MOL0     C 6129   5.940  11.251   2.866 -0.1697  0.0097  0.8438
  770MOL0     O 6130   5.882  11.350   2.788 -0.2806 -0.0862 -0.6648
  770MOL0     C 6131   5.741  11.347   2.785  0.0568 -0.3894  0.0282
  770MOL0     C 6132   5.703  11.437   2.677  0.1796 -0.8533  0.1222
  770MOL0     C 6133   5.697  11.584   2.717 -0.5224 -0.5662  0.1015
  770MOL0     C 6134   5.833  11.647   2.740 -0.8405  0.0698 -1.0517
  770MOL0     C 6135   5.812  11.797   2.776 -1.2759  0.4357 -0.5863
  770MOL0     C 6136   5.940  11.874   2.810 -1.0960  0.2888  0.3742
  770MOL0     C 6137   6.040  11.889   2.696  0.8325 -0.1261  0.2759
  770MOL0     C 6138   6.179  11.918   2.744 -0.0584 -0.9520 -1.1136
  770MOL0     N 6139   6.249  11.805   2.805 -0.4134  0.0649 -0.4683
  770MOL0     C 6140   6.241  11.759   2.929  0.1971  0.2205 -0.3021
  770MOL0     C 6141   6.307  11.640   2.920 -0.6388 -0.6275 -0.2436
  770MOL0     C 6142   6.293  11.552   3.037 -0.6141 -0.9752 -0.4835
  770MOL0     C 6143   6.163  11.475   3.035  0.3228  0.7886  0.2185
  770MOL0     C 6144   6.148  11.410   3.176 -0.3439  0.4044 -0.2233
  770MOL0     C 6145   6.250  11.296   3.206  0.6317  0.6409  0.5180
  770MOL0     O 6146   6.243  11.263   3.348  0.7014 -0.2746 -0.5997
  770MOL0     C 6147   6.308  11.162   3.403  0.1653  0.7677 -0.3236
  770MOL0     C 6148   6.299  11.161   3.538 -0.2256 -0.2341 -0.1802
  770MOL0     C 6149   6.383  11.087   3.621 -0.7555 -0.5328  0.0717
  770MOL0     C 6150   6.362  11.115   3.770 -0.5925  0.8258 -0.1942
  770MOL0     C 6151   6.482  11.004   3.564  0.1092  1.0226  0.1318
  770MOL0     C 6152   6.574  10.920   3.636 -0.5888  0.0693 -0.0623
  770MOL0     O 6153   6.618  10.813   3.570 -0.3927 -0.1689 -0.5029
  770MOL0     C 6154   6.699  10.720   3.631  0.6720  0.2256  0.7520
  770MOL0     C 6155   6.833  10.701   3.586  0.2435 -0.0607 -0.4169
  770MOL0     C 6156   6.919  10.615   3.658 -0.0285  0.1447 -0.1212
  770MOL0     C 6157   6.873  10.537   3.766  0.1231 -0.5292  1.6468
  770MOL0     O 6158   6.954  10.440   3.809  0.8695 -0.0396 -0.4387
  770MOL0     C 6159   6.957  10.415   3.951 -0.2470  0.6503  0.1181
  770MOL0     C 6160   7.079  10.332   3.995 -1.2671 -0.1231 -0.2272
  770MOL0     C 6161   7.131  10.208   3.912  0.0610  0.8867  0.0062
  770MOL0     C 6162   7.262  10.145   3.973 -0.4068 -0.5356 -0.4741
  770MOL0     C 6163   7.292  10.013   3.900  0.3744  0.2798 -0.8329
  770MOL0     C 6164   7.415   9.953   3.963 -0.5384 -0.7324 -0.3869
  770MOL0     C 6165   7.551  10.013   3.910  0.1948  0.8987 -0.0168
  770MOL0     C 6166   7.685   9.954   3.974  0.3971 -1.3788 -0.5261
  770MOL0    Cl 6167   7.709   9.777   3.961 -0.0322 -0.0777  0.1735
  770MOL0     C 6168   6.746  10.572   3.814 -0.9116  0.5808 -0.0977
  770MOL0     C 6169   6.661  10.652   3.744 -0.2275  0.1514  0.1739
  770MOL0     O 6170   6.615  10.958   3.744 -0.1989  0.6207  0.5836
  770MOL0     C 6171   6.488  10.996   3.430  0.2175 -0.6729  1.1354
  770MOL0     C 6172   6.406  11.082   3.345 -0.0284 -0.7495 -0.5660
  770MOL0     N 6173   6.358  11.617   2.792  1.1963  0.4664 -0.9470
  770MOL0     N 6174   6.316  11.723   2.722  0.1434  0.7042  1.2064
  770MOL0     C 6175   5.885  11.171   2.974 -0.4889 -0.4428 -1.2034
  770MOL0     C 6176   5.969  11.085   3.046 -0.5560  0.6907 -0.2191
  770MOL0     C 6177   6.193  10.714   3.122  0.1824  0.7486 -0.2336
  770MOL0     C 6178   6.266  10.755   3.235 -0.4624 -0.5177 -0.9457
  770MOL0     C 6179   6.335  10.668   3.319  0.2886  1.0564 -0.2684
  770MOL0     C 6180   6.323  10.529   3.285 -0.6351  0.0048 -0.7474
  770MOL0     O 6181   6.389  10.427   3.353 -0.1891  0.4823  0.5496
  770MOL0     C 6182   6.495  10.462   3.447 -0.4608  0.2265 -0.3478
  770MOL0     C 6183   6.564  10.333   3.498 -0.0433 -0.2188  0.2990
  770MOL0     C 6184   6.641  10.240   3.398 -0.8946  0.0296 -0.7538
  770MOL0     C 6185   6.740  10.307   3.309  0.3581 -1.0131 -0.2621
  770MOL0     C 6186   6.860  10.341   3.389 -0.0244 -0.5672 -0.2381
  770MOL0     C 6187   6.944  10.380   3.470 -1.3568  0.2130 -0.1244
  770MOL0     C 6188   6.248  10.487   3.178  0.5597  0.9872 -0.7224
  770MOL0     C 6189   6.182  10.574   3.095 -0.0758 -0.8177 -0.5750
  770MOL0     C 6190   6.114  10.522   2.978 -0.6635 -0.3589  0.4061
  770MOL0     H 6191   6.235  11.092   2.838  1.5386  1.6056  2.3849
  770MOL0     H 6192   6.101  11.262   2.730 -2.6767  1.1328  0.1841
  770MOL0     H 6193   5.695  11.373   2.881 -1.5678 -1.6130 -0.3787
  770MOL0     H 6194   5.698  11.250   2.761 -1.2194 -0.0419  0.8230
  770MOL0     H 6195   5.773  11.429   2.594 -0.8793  2.2370 -1.2222
  770MOL0     H 6196   5.601  11.407   2.649 -0.8545 -0.8448  3.4690
  770MOL0     H 6197   5.661  11.645   2.634  3.7151  3.4676  0.8067
  770MOL0     H 6198   5.635  11.602   2.806  0.4130  0.6802  0.5351
  770MOL0     H 6199   5.872  11.597   2.829 -1.5135 -0.2551 -0.9280
  770MOL0     H 6200   5.904  11.626   2.660  1.4824 -1.1962  1.2117
  770MOL0     H 6201   5.753  11.803   2.867 -1.5506  4.0040 -0.8782
  770MOL0     H 6202   5.770  11.851   2.691  1.0282 -2.4178 -3.8553
  770MOL0     H 6203   5.914  11.970   2.856  2.3844  1.1117  0.9495
  770MOL0     H 6204   5.981  11.818   2.894  0.3588 -0.9666 -1.1071
  770MOL0     H 6205   6.010  11.974   2.634  2.6581  1.8947  1.9935
  770MOL0     H 6206   6.048  11.803   2.630  2.1784 -1.2403  1.8167
  770MOL0     H 6207   6.239  11.956   2.661  1.3343 -4.4484 -1.9134
  770MOL0     H 6208   6.175  11.979   2.834 -6.3553 -1.9394 -0.2802
  770MOL0     H 6209   6.188  11.790   3.019 -0.1084 -1.0570 -0.0233
  770MOL0     H 6210   6.295  11.622   3.121 -1.0377  1.5969 -2.4907
  770MOL0     H 6211   6.372  11.477   3.041  0.9827  0.4558 -2.5892
  770MOL0     H 6212   6.082  11.542   3.003  0.0096 -1.1655 -3.7515
  770MOL0     H 6213   6.169  11.396   2.959  0.2873  1.6241 -0.6765
  770MOL0     H 6214   6.149  11.486   3.255 -1.5799  1.0401 -0.7959
  770MOL0     H 6215   6.050  11.359   3.177  1.1914 -2.8846  1.6658
  770MOL0     H 6216   6.221  11.207   3.149  1.4325  0.7636 -0.1088
  770MOL0     H 6217   6.351  11.318   3.170  0.5473 -0.7215 -0.6643
  770MOL0     H 6218   6.225  11.225   3.585 -0.4928  0.1336 -1.0730
  770MOL0     H 6219   6.459  11.131   3.817  0.7140  1.1254 -2.7592
  770MOL0     H 6220   6.313  11.029   3.814  1.5993  0.5141  1.8140
  770MOL0     H 6221   6.301  11.205   3.786  1.2419  2.4957 -1.8908
  770MOL0     H 6222   6.875  10.757   3.503 -2.7969  1.4243 -1.0992
  770MOL0     H 6223   7.023  10.591   3.639 -0.2136 -1.6699  0.9577
  770MOL0     H 6224   6.975  10.513   3.996  0.8921  0.3014  0.4504
  770MOL0     H 6225   6.864  10.382   3.998  1.6219 -2.3961  2.0234
  770MOL0     H 6226   7.158  10.407   3.984 -0.6340 -0.7811 -0.3087
  770MOL0     H 6227   7.063  10.302   4.100 -1.9425  0.3654 -0.1865
  770MOL0     H 6228   7.149  10.239   3.809  1.9230 -2.5590 -0.8827
  770MOL0     H 6229   7.058  10.128   3.922 -0.5839  1.3532 -0.8874
  770MOL0     H 6230   7.262  10.115   4.078  3.3620  2.0539  0.4917
  770MOL0     H 6231   7.345  10.216   3.962 -1.3687  0.8676  0.7707
  770MOL0     H 6232   7.211   9.943   3.922 -0.2749  1.0169 -0.8280
  770MOL0     H 6233   7.316  10.028   3.794  1.2121  0.8594 -0.5766
  770MOL0     H 6234   7.409   9.844   3.951 -2.7653 -0.5688 -1.2172
  770MOL0     H 6235   7.416   9.975   4.070 -0.1900  0.8114 -0.6832
  770MOL0     H 6236   7.559  10.121   3.931  1.7816  0.3684  2.5774
  770MOL0     H 6237   7.560   9.993   3.803  1.3778 -3.2632  0.6798
  770MOL0     H 6238   7.677   9.975   4.081 -2.2377  1.1702 -1.0888
  770MOL0     H 6239   7.769  10.009   3.931 -0.8816  0.6710 -0.5247
  770MOL0     H 6240   6.697  10.526   3.900  0.6393  0.6003  0.8276
  770MOL0     H 6241   6.555  10.651   3.764 -0.1670  0.5107  0.5209
  770MOL0     H 6242   6.567  10.942   3.378  0.9907  3.2702 -2.3198
  770MOL0     H 6243   6.413  11.077   3.236 -0.5362  0.7160 -0.6913
  770MOL0     H 6244   5.782  11.179   3.007  0.3654  0.0164  1.6842
  770MOL0     H 6245   5.920  11.044   3.134 -2.3233  2.2481 -0.4290
  770MOL0     H 6246   6.275  10.861   3.254  1.6147 -1.0022  1.3482
  770MOL0     H 6247   6.388  10.697   3.409 -1.1313 -1.4494  1.4985
  770MOL0     H 6248   6.574  10.516   3.393  0.6765 -1.9407 -0.9862
  770MOL0     H 6249   6.462  10.531   3.525 -0.1849 -1.1425  1.0188
  770MOL0     H 6250   6.477  10.277   3.534 -1.6720  2.1277  0.2935
  770MOL0     H 6251   6.637  10.373   3.569  0.6335  0.5604 -0.7968
  770MOL0     H 6252   6.683  10.157   3.454 -1.9194 -0.3447 -0.5136
  770MOL0     H 6253   6.571  10.193   3.328  1.0773  0.3061 -3.0309
  770MOL0     H 6254   6.705  10.398   3.259 -1.6156 -0.7108  1.4991
  770MOL0     H 6255   6.759  10.238   3.227 -0.0681 -1.4532  0.0082
  770MOL0     H 6256   7.024  10.419   3.529 -1.4278  0.7057 -0.3471
  770MOL0     H 6257   6.255  10.381   3.156  5.7100  1.1480 -0.9793
  770MOL0     H 6258   6.126  10.589   2.892 -2.9246 -0.2338  0.1054
  770MOL0     H 6259   6.159  10.427   2.947  0.5486  0.0657  0.8272
  770MOL0     H 6260   6.007  10.512   2.997 -1.1101 -0.6132 -1.9063
  771MOL0     O 6261   9.381   7.100   1.193 -0.0010 -0.2353 -0.5907
  771MOL0     C 6262   9.412   7.177   1.285 -0.6792 -0.0814  0.3523
  771MOL0     O 6263   9.397   7.307   1.287  0.4912  0.1239  0.8777
  771MOL0     C 6264   9.317   7.365   1.188 -0.0815 -0.1148 -0.4703
  771MOL0     C 6265   9.176   7.340   1.174  0.1414 -0.6462  0.1107
  771MOL0     C 6266   9.106   7.390   1.069  0.5802  0.2080  0.8119
  771MOL0     C 6267   9.170   7.474   0.972 -0.6200 -0.0338  0.1864
  771MOL0     O 6268   9.081   7.508   0.871 -0.3699 -0.2010  0.0936
  771MOL0     C 6269   9.108   7.613   0.778  0.7589  0.5568  0.1593
  771MOL0     C 6270   9.106   7.762   0.835 -0.8029  0.7865  0.5451
  771MOL0     C 6271   8.955   7.802   0.865 -0.6937 -0.2135 -0.2485
  771MOL0     C 6272   8.947   7.953   0.899 -0.0507  0.0776  0.2767
  771MOL0     C 6273   8.803   8.017   0.923  0.1792  0.0575 -0.4173
  771MOL0     C 6274   8.696   7.939   0.863 -0.5333 -0.2608  0.3111
  771MOL0     C 6275   8.556   8.000   0.873  0.0382 -0.5177 -0.5119
  771MOL0     C 6276   8.522   8.067   1.011 -0.5854 -0.1678 -1.0759
  771MOL0     N 6277   8.562   8.212   1.017  0.3555  0.0497  0.2661
  771MOL0     C 6278   8.497   8.313   0.948  0.6919  0.0405 -0.1931
  771MOL0     C 6279   8.565   8.417   0.982 -0.2289 -0.5642  1.2300
  771MOL0     C 6280   8.551   8.556   0.925 -0.0629  0.2110  0.2172
  771MOL0     C 6281   8.415   8.615   0.960  0.6493 -0.7328  0.5554
  771MOL0     C 6282   8.375   8.625   1.104 -0.4759 -0.2012 -1.2643
  771MOL0     C 6283   8.217   8.619   1.127 -0.9143 -0.5933 -0.1852
  771MOL0     O 6284   8.144   8.557   1.016  0.3446  0.0957 -0.6483
  771MOL0     C 6285   8.141   8.424   0.997  0.0379 -0.2000 -0.7467
  771MOL0     C 6286   8.132   8.331   1.099 -0.5253 -0.2871 -0.2068
  771MOL0     C 6287   8.142   8.191   1.065  0.5784 -0.4344 -0.2660
  771MOL0     C 6288   8.132   8.103   1.188  0.0204  1.0050 -0.5284
  771MOL0     C 6289   8.158   8.150   0.937  0.9614 -0.3271  0.9810
  771MOL0     C 6290   8.173   8.015   0.889 -0.8254  0.6011  0.2827
  771MOL0     O 6291   8.165   7.994   0.754 -0.8134  0.5476  0.2538
  771MOL0     C 6292   8.191   7.868   0.703 -0.1757 -0.7056  0.0977
  771MOL0     C 6293   8.302   7.845   0.627  0.3999  0.3987  0.4075
  771MOL0     C 6294   8.319   7.716   0.570 -0.0311  0.3020  0.7272
  771MOL0     C 6295   8.232   7.615   0.585 -0.8686 -0.1404  0.7424
  771MOL0     O 6296   8.240   7.494   0.524  0.5533 -0.4997  0.3994
  771MOL0     C 6297   8.359   7.421   0.553 -0.1008  0.3897  0.0001
  771MOL0     C 6298   8.349   7.280   0.488  0.2315 -0.4613 -0.2051
  771MOL0     C 6299   8.458   7.181   0.553  0.2356 -0.8098 -0.4225
  771MOL0     C 6300   8.467   7.039   0.494  0.4984 -0.3351 -0.9076
  771MOL0     C 6301   8.562   6.941   0.557  0.5911  0.4643 -0.5407
  771MOL0     C 6302   8.709   6.954   0.541 -0.2934  1.0826 -0.5002
  771MOL0     C 6303   8.765   6.953   0.397 -0.6170  0.8244  0.1409
  771MOL0     C 6304   8.913   6.944   0.413 -0.7650 -0.0200  0.7034
  771MOL0    Cl 6305   8.980   6.903   0.248 -0.4754 -0.5532 -0.6512
  771MOL0     C 6306   8.124   7.644   0.662  0.6049 -0.2247  0.5874
  771MOL0     C 6307   8.097   7.770   0.718  0.6788  0.7551 -0.2684
  771MOL0     O 6308   8.184   7.919   0.971 -0.5323 -1.1493  0.4650
  771MOL0     C 6309   8.154   8.251   0.835 -0.6370 -0.4779  0.0578
  771MOL0     C 6310   8.147   8.387   0.866 -0.2116 -0.2380  0.5601
  771MOL0     N 6311   8.660   8.385   1.076  0.7582 -0.2708  0.2349
  771MOL0     N 6312   8.667   8.255   1.083 -0.0661 -0.4015 -0.7798
  771MOL0     C 6313   9.305   7.518   0.998 -0.3601  0.0790 -0.1503
  771MOL0     C 6314   9.374   7.463   1.106  0.7713  1.0654 -0.8285
  771MOL0     C 6315   9.465   7.117   1.413 -0.8512  0.4600 -0.0601
  771MOL0     C 6316   9.444   7.188   1.531  1.2007 -0.1581  0.7695
  771MOL0     C 6317   9.474   7.132   1.663 -0.3724  0.0387  0.6516
  771MOL0     C 6318   9.542   7.014   1.661 -0.0474 -0.7483 -0.1493
  771MOL0     O 6319   9.569   6.956   1.778  0.2036 -0.6883  0.1391
  771MOL0     C 6320   9.688   7.010   1.843 -1.1765 -0.5552 -0.0935
  771MOL0     C 6321   9.709   6.959   1.977  0.4272  0.1094 -1.0415
  771MOL0     C 6322   9.832   7.020   2.026  0.3734  0.9428 -0.3787
  771MOL0     C 6323   9.848   6.974   2.172  0.9213 -0.6614  0.6659
  771MOL0     C 6324   9.975   7.027   2.220 -0.9585  0.3833  0.4457
  771MOL0     C 6325  10.067   7.082   2.276  0.1592 -0.8189 -0.3010
  771MOL0     C 6326   9.576   6.949   1.537 -0.0111  1.2151  0.8221
  771MOL0     C 6327   9.532   6.992   1.413 -0.6305 -0.0544  0.5606
  771MOL0     C 6328   9.585   6.913   1.288 -0.2846  0.4476 -0.3782
  771MOL0     H 6329   9.122   7.269   1.236 -0.2327  0.8670  1.5933
  771MOL0     H 6330   9.002   7.376   1.042  1.1626  1.1288 -2.4160
  771MOL0     H 6331   9.032   7.595   0.702  1.5800  0.4453 -0.6534
  771MOL0     H 6332   9.200   7.601   0.721  0.8170  2.2898 -0.1623
  771MOL0     H 6333   9.170   7.769   0.924  0.8858 -1.8141 -0.3615
  771MOL0     H 6334   9.150   7.827   0.758  1.7212  2.0397  2.8475
  771MOL0     H 6335   8.889   7.782   0.780 -1.2637  1.3323 -0.2102
  771MOL0     H 6336   8.920   7.741   0.949  0.2967  2.4068  2.2318
  771MOL0     H 6337   9.003   7.961   0.993  0.6014 -2.2838  0.1684
  771MOL0     H 6338   9.001   8.014   0.827  2.2463 -2.1185  0.0136
  771MOL0     H 6339   8.802   8.119   0.883  0.8976  0.6112  0.8814
  771MOL0     H 6340   8.804   8.032   1.032  1.2828 -0.1448 -0.3916
  771MOL0     H 6341   8.716   7.944   0.755 -1.5524  0.9574  0.1616
  771MOL0     H 6342   8.683   7.836   0.898 -0.2766 -0.0562  1.0211
  771MOL0     H 6343   8.480   7.922   0.865  0.5557 -1.8756  4.6336
  771MOL0     H 6344   8.534   8.069   0.791  0.6290 -1.7737 -1.7762
  771MOL0     H 6345   8.414   8.076   1.017 -0.5925 -0.6923 -0.3188
  771MOL0     H 6346   8.567   8.020   1.099  0.2247  2.1146 -0.1902
  771MOL0     H 6347   8.421   8.322   0.871 -1.3935 -3.0115  1.3058
  771MOL0     H 6348   8.571   8.546   0.818 -1.8502 -0.2139 -0.1072
  771MOL0     H 6349   8.625   8.629   0.960  1.6755 -0.2351 -2.2360
  771MOL0     H 6350   8.417   8.714   0.914 -1.5499 -2.3412 -3.5053
  771MOL0     H 6351   8.342   8.566   0.894 -1.7755  2.1587  0.8754
  771MOL0     H 6352   8.439   8.553   1.156  0.7026  1.8216  0.1917
  771MOL0     H 6353   8.406   8.724   1.137  2.5000 -2.6251  4.8825
  771MOL0     H 6354   8.188   8.563   1.217 -0.3098 -0.1042  0.3250
  771MOL0     H 6355   8.181   8.721   1.141  0.6109  0.3289 -2.3652
  771MOL0     H 6356   8.134   8.357   1.204  3.3056 -2.8518  0.5568
  771MOL0     H 6357   8.063   8.021   1.165  2.9783 -1.9202  0.1760
  771MOL0     H 6358   8.099   8.161   1.274  2.1205  1.9468 -0.2980
  771MOL0     H 6359   8.218   8.042   1.215 -0.9086 -1.0831 -1.9528
  771MOL0     H 6360   8.375   7.922   0.604  0.2330  0.3741 -0.2519
  771MOL0     H 6361   8.412   7.689   0.521  1.4993  0.4822  3.3392
  771MOL0     H 6362   8.448   7.477   0.522  0.8454 -0.8270  0.4392
  771MOL0     H 6363   8.363   7.403   0.660  0.9744 -2.0893 -0.3739
  771MOL0     H 6364   8.250   7.236   0.506 -0.1343 -0.0115 -1.0460
  771MOL0     H 6365   8.358   7.293   0.380  3.1537 -1.0211 -0.1088
  771MOL0     H 6366   8.426   7.176   0.658  3.3668  1.4453  0.8082
  771MOL0     H 6367   8.553   7.235   0.555 -1.3570  2.1608  0.2745
  771MOL0     H 6368   8.468   7.030   0.385  1.3397 -1.3577 -0.8396
  771MOL0     H 6369   8.364   7.012   0.519  0.0124  2.7570  0.9342
  771MOL0     H 6370   8.545   6.943   0.665  0.4819  3.1527 -0.5417
  771MOL0     H 6371   8.536   6.842   0.519 -0.9488 -0.2949  2.2374
  771MOL0     H 6372   8.752   6.872   0.600 -0.2152  1.0518 -0.6006
  771MOL0     H 6373   8.740   7.043   0.596  2.4567 -2.1417  3.8851
  771MOL0     H 6374   8.735   7.035   0.331  2.1329  0.4195 -1.7592
  771MOL0     H 6375   8.735   6.861   0.348 -0.0252  0.6987  0.0150
  771MOL0     H 6376   8.934   6.869   0.489 -0.6119 -0.2802  0.4058
  771MOL0     H 6377   8.954   7.040   0.448 -4.2916  1.6954  0.5838
  771MOL0     H 6378   8.062   7.557   0.684  2.2717 -1.5571  0.2200
  771MOL0     H 6379   8.022   7.778   0.796 -0.1029 -1.9520 -0.6616
  771MOL0     H 6380   8.165   8.215   0.733 -2.1077 -1.6585  0.2714
  771MOL0     H 6381   8.143   8.458   0.785  1.5302 -0.9433 -0.1870
  771MOL0     H 6382   9.362   7.575   0.925 -1.2787  1.4614  0.1727
  771MOL0     H 6383   9.478   7.487   1.127  0.9144 -0.9693  1.1800
  771MOL0     H 6384   9.391   7.283   1.532  0.6354 -0.2699 -2.8042
  771MOL0     H 6385   9.455   7.181   1.758  0.7977  0.4335  0.6985
  771MOL0     H 6386   9.775   7.001   1.777 -2.1931 -4.5708 -1.1413
  771MOL0     H 6387   9.666   7.117   1.844 -1.6996 -0.6606  0.3655
  771MOL0     H 6388   9.709   6.850   1.974 -2.3211 -0.0562  1.5645
  771MOL0     H 6389   9.633   6.995   2.046  2.1910 -0.4200  1.2756
  771MOL0     H 6390   9.919   6.984   1.970 -0.0028 -1.1799  0.3026
  771MOL0     H 6391   9.817   7.127   2.013  1.2685  0.9281 -1.7404
  771MOL0     H 6392   9.841   6.865   2.171 -1.6044 -0.6310 -2.1580
  771MOL0     H 6393   9.767   7.005   2.240 -1.4729 -0.2916 -2.1458
  771MOL0     H 6394  10.145   7.130   2.332  0.7869 -3.7145  1.5389
  771MOL0     H 6395   9.603   6.844   1.544 -1.3769  0.8217  0.4906
  771MOL0     H 6396   9.539   6.942   1.193  2.6636 -1.0478 -2.3986
  771MOL0     H 6397   9.691   6.926   1.262  0.0863 -1.8923 -0.2470
  771MOL0     H 6398   9.569   6.807   1.305  1.0828 -0.0312 -1.8866
  772MOL0     O 6399  10.702  11.181   1.022 -0.0166 -0.1881 -0.4146
  772MOL0     C 6400  10.685  11.159   1.143 -0.4488 -0.3096 -0.5193
  772MOL0     O 6401  10.778  11.190   1.243 -0.9389  0.1516  0.1145
  772MOL0     C 6402  10.909  11.224   1.213  0.1693 -0.3001  0.2377
  772MOL0     C 6403  10.995  11.125   1.171  0.7383  0.1792  0.5854
  772MOL0     C 6404  11.130  11.156   1.153  0.0944 -0.8152 -0.3002
  772MOL0     C 6405  11.180  11.285   1.182  0.1389  0.4232 -0.4523
  772MOL0     O 6406  11.311  11.312   1.160 -0.1345 -0.1482 -0.3950
  772MOL0     C 6407  11.380  11.434   1.195 -0.0681 -0.2360 -0.0681
  772MOL0     C 6408  11.531  11.415   1.188 -0.4474 -1.6201 -0.2832
  772MOL0     C 6409  11.579  11.309   1.284 -0.2929  1.1609  0.5048
  772MOL0     C 6410  11.731  11.275   1.268  0.4595  0.3564  0.5618
  772MOL0     C 6411  11.757  11.183   1.146  0.4326 -0.3257 -0.3399
  772MOL0     C 6412  11.900  11.132   1.138  0.1380  0.1503  0.6278
  772MOL0     C 6413  11.923  11.023   1.027  0.3591  0.0995  0.0759
  772MOL0     C 6414  11.900  11.064   0.883  0.0786  0.6021 -0.3006
  772MOL0     N 6415  11.982  11.179   0.843 -0.3862 -0.3956 -0.8813
  772MOL0     C 6416  12.105  11.172   0.795  0.4409 -0.3255 -0.1150
  772MOL0     C 6417  12.132  11.299   0.752  0.7538  0.2337 -0.0254
  772MOL0     C 6418  12.261  11.335   0.685  0.0501  0.3521 -0.3295
  772MOL0     C 6419  12.344  11.398   0.799 -0.4503  0.2534 -0.0631
  772MOL0     C 6420  12.439  11.505   0.750  0.3730 -0.4971 -0.3017
  772MOL0     C 6421  12.578  11.461   0.792 -0.8780 -0.2398  0.3673
  772MOL0     O 6422  12.588  11.439   0.937 -0.1648 -0.2894  0.1609
  772MOL0     C 6423  12.571  11.531   1.033  0.3836 -0.3446  0.6046
  772MOL0     C 6424  12.570  11.668   1.009  1.1199 -0.4974 -0.6103
  772MOL0     C 6425  12.548  11.769   1.107 -0.2992  0.3424 -0.6953
  772MOL0     C 6426  12.578  11.902   1.068  0.7132  0.2299  0.6875
  772MOL0     C 6427  12.512  11.723   1.238  0.2933  0.7047 -0.4860
  772MOL0     C 6428  12.472  11.819   1.351 -0.0806 -0.4610  1.2775
  772MOL0     O 6429  12.419  11.754   1.459  0.4579  0.3459 -0.0944
  772MOL0     C 6430  12.369  11.820   1.575  0.9075 -0.6772 -0.2695
  772MOL0     C 6431  12.278  11.746   1.660  0.7222  0.6018  0.0889
  772MOL0     C 6432  12.233  11.804   1.775  0.4582 -1.5268 -0.1684
  772MOL0     C 6433  12.271  11.934   1.812 -1.3078 -0.2382 -0.2996
  772MOL0     O 6434  12.200  11.987   1.916 -0.3787 -0.3991 -0.0395
  772MOL0     C 6435  12.280  12.027   2.025  0.8133  0.0938 -0.1735
  772MOL0     C 6436  12.196  12.050   2.159 -0.1846  0.1430  1.0325
  772MOL0     C 6437  12.103  12.164   2.159 -0.3715  0.2312 -0.0856
  772MOL0     C 6438  12.019  12.156   2.294  0.6103 -0.9272  0.1204
  772MOL0     C 6439  11.933  12.284   2.301  0.1519  0.0108  0.2883
  772MOL0     C 6440  11.841  12.286   2.424 -0.2872  0.6315  0.0308
  772MOL0     C 6441  11.738  12.403   2.419 -0.1062  0.5449 -0.6173
  772MOL0     C 6442  11.711  12.446   2.568 -0.0752 -0.0036 -0.1980
  772MOL0    Cl 6443  11.862  12.471   2.660 -0.0801  0.7784 -0.3131
  772MOL0     C 6444  12.367  12.001   1.737 -0.6497 -0.3602 -0.9529
  772MOL0     C 6445  12.419  11.941   1.630  0.1062  0.7862 -0.4032
  772MOL0     O 6446  12.476  11.942   1.340 -0.1453  0.1085  0.5560
  772MOL0     C 6447  12.505  11.583   1.262  0.5912 -0.0944  0.8356
  772MOL0     C 6448  12.536  11.489   1.162 -0.1369  0.1530 -0.4867
  772MOL0     N 6449  12.029  11.381   0.796 -0.0885  0.4123 -0.9057
  772MOL0     N 6450  11.940  11.306   0.851  0.3781 -0.1550 -0.1593
  772MOL0     C 6451  11.088  11.378   1.216  1.2721 -0.4701  0.7273
  772MOL0     C 6452  10.954  11.353   1.242 -0.1912 -0.0057  0.4210
  772MOL0     C 6453  10.569  11.067   1.186 -0.4355 -0.0150 -0.1114
  772MOL0     C 6454  10.554  11.038   1.321 -0.0195 -0.9053 -0.1337
  772MOL0     C 6455  10.442  10.962   1.361  0.9410  0.9015 -0.0288
  772MOL0     C 6456  10.347  10.906   1.272 -0.3153 -0.0816 -0.6552
  772MOL0     O 6457  10.237  10.836   1.302  0.7993 -0.6925  0.4339
  772MOL0     C 6458  10.195  10.845   1.434 -0.0939  0.5674  0.4097
  772MOL0     C 6459  10.067  10.779   1.474 -0.3575 -0.0885 -0.1193
  772MOL0     C 6460   9.952  10.804   1.378  0.5453  0.2729  0.1061
  772MOL0     C 6461   9.891  10.940   1.371 -0.5506  0.6052 -0.2739
  772MOL0     C 6462   9.841  10.970   1.509 -0.7533  1.1592  0.3781
  772MOL0     C 6463   9.786  10.986   1.614  0.2445  0.2166  0.5544
  772MOL0     C 6464  10.360  10.941   1.138  0.3932  1.1113  0.0415
  772MOL0     C 6465  10.465  11.019   1.092  0.3610  0.4975  0.4039
  772MOL0     C 6466  10.473  11.034   0.946 -0.3157 -0.4715 -0.1072
  772MOL0     H 6467  10.955  11.026   1.151  0.8930 -0.2555  2.2505
  772MOL0     H 6468  11.188  11.076   1.108  1.1540  1.1548 -2.6840
  772MOL0     H 6469  11.360  11.458   1.300  1.4680  3.4222 -0.4594
  772MOL0     H 6470  11.349  11.523   1.139 -0.9195  2.1660  3.8254
  772MOL0     H 6471  11.570  11.387   1.090  2.1002  0.8990 -0.1270
  772MOL0     H 6472  11.584  11.508   1.212 -2.5491  0.7299 -3.7659
  772MOL0     H 6473  11.564  11.347   1.386 -0.7289  0.1359  0.8364
  772MOL0     H 6474  11.527  11.214   1.265  0.6344  1.0894 -2.0056
  772MOL0     H 6475  11.796  11.363   1.263 -1.2833  1.6497 -3.2049
  772MOL0     H 6476  11.754  11.214   1.356 -0.1585 -0.4858  0.1516
  772MOL0     H 6477  11.728  11.245   1.061  1.8628 -1.7011 -1.9124
  772MOL0     H 6478  11.686  11.100   1.156  0.7836 -0.4783  1.0651
  772MOL0     H 6479  11.963  11.219   1.121  4.0134 -2.5993 -0.6292
  772MOL0     H 6480  11.930  11.094   1.236 -3.0317 -0.7734  1.3583
  772MOL0     H 6481  11.867  10.932   1.055 -0.4124  0.7249  0.6222
  772MOL0     H 6482  12.026  10.996   1.051  0.6127  0.0044 -1.0781
  772MOL0     H 6483  11.921  10.973   0.827  1.0647  0.6153  0.0318
  772MOL0     H 6484  11.795  11.090   0.868 -0.4359  0.9108  2.9341
  772MOL0     H 6485  12.164  11.081   0.792  1.0410 -0.2277  3.8334
  772MOL0     H 6486  12.238  11.410   0.609 -1.5506 -0.3167 -0.5671
  772MOL0     H 6487  12.318  11.258   0.633  0.1035  0.9399 -1.1500
  772MOL0     H 6488  12.283  11.437   0.881 -1.1739 -2.9045  1.0515
  772MOL0     H 6489  12.392  11.312   0.847 -0.9901 -0.9549 -1.6332
  772MOL0     H 6490  12.432  11.514   0.641 -2.0944  1.7437 -0.0676
  772MOL0     H 6491  12.415  11.598   0.803  1.1481 -1.1493  1.2601
  772MOL0     H 6492  12.604  11.366   0.746  1.0011 -0.3799  1.5892
  772MOL0     H 6493  12.648  11.539   0.758 -1.4287  0.5343  0.9640
  772MOL0     H 6494  12.603  11.698   0.910  3.3586  0.5706  0.4040
  772MOL0     H 6495  12.620  11.956   1.154 -1.1823 -1.7305  2.9874
  772MOL0     H 6496  12.491  11.959   1.033  2.0680  1.1189 -1.4796
  772MOL0     H 6497  12.650  11.905   0.986  0.6194 -0.5657  0.5701
  772MOL0     H 6498  12.248  11.649   1.621  3.3459  0.5030 -1.9668
  772MOL0     H 6499  12.150  11.759   1.830 -0.6647  0.0386 -0.5348
  772MOL0     H 6500  12.356  11.949   2.038 -1.3468 -2.3031 -1.1544
  772MOL0     H 6501  12.333  12.120   2.002  1.1821 -0.2439 -0.7060
  772MOL0     H 6502  12.134  11.970   2.202 -0.8418  1.2728  2.2569
  772MOL0     H 6503  12.271  12.083   2.232  2.5240  0.6333 -1.7938
  772MOL0     H 6504  12.037  12.148   2.074  1.6029 -2.6295 -1.2356
  772MOL0     H 6505  12.153  12.261   2.157 -1.2797  0.7463  0.9054
  772MOL0     H 6506  12.083  12.149   2.383  1.7908 -0.2646 -0.6584
  772MOL0     H 6507  11.947  12.074   2.298 -0.5733  0.0127 -1.0192
  772MOL0     H 6508  11.998  12.372   2.295 -0.2061  0.2826  0.3312
  772MOL0     H 6509  11.868  12.283   2.213 -2.6801  2.2705  2.1522
  772MOL0     H 6510  11.908  12.274   2.509  1.2733 -0.2079 -1.2674
  772MOL0     H 6511  11.777  12.197   2.434  0.2675  0.2665  0.3900
  772MOL0     H 6512  11.641  12.376   2.374 -0.6232 -1.0186  1.3132
  772MOL0     H 6513  11.783  12.489   2.368  0.2133  0.0092 -1.2588
  772MOL0     H 6514  11.648  12.376   2.623 -1.2416  1.6231  0.6208
  772MOL0     H 6515  11.649  12.536   2.566 -0.7126 -0.3034  2.7245
  772MOL0     H 6516  12.414  12.095   1.763 -3.1639  1.0833 -1.2578
  772MOL0     H 6517  12.496  11.992   1.573 -2.2432  4.0469 -1.0013
  772MOL0     H 6518  12.483  11.543   1.361  0.1831  1.7266  1.5187
  772MOL0     H 6519  12.523  11.383   1.181 -0.0268 -0.9632 -5.3750
  772MOL0     H 6520  11.127  11.479   1.230  1.0372 -0.1014 -1.0580
  772MOL0     H 6521  10.880  11.423   1.280  0.1486  3.1282 -3.9447
  772MOL0     H 6522  10.621  11.088   1.391  1.2777 -2.6007 -0.0907
  772MOL0     H 6523  10.434  10.951   1.469  1.5155  1.0163  0.0265
  772MOL0     H 6524  10.271  10.804   1.501  0.5127 -1.1692 -1.2431
  772MOL0     H 6525  10.189  10.952   1.453 -1.9300  1.0912 -2.4165
  772MOL0     H 6526  10.045  10.809   1.577  1.0817  4.1912 -0.8377
  772MOL0     H 6527  10.086  10.672   1.468 -1.3965 -0.2751 -0.2542
  772MOL0     H 6528   9.987  10.788   1.275 -1.2265 -1.0470 -0.3342
  772MOL0     H 6529   9.866  10.737   1.382  0.6755  0.1549  1.4890
  772MOL0     H 6530   9.804  10.935   1.306  1.3202  1.5094 -2.9953
  772MOL0     H 6531   9.971  11.006   1.335 -0.0187 -0.8368 -1.8874
  772MOL0     H 6532   9.737  10.991   1.710  1.9593  2.0653  1.3883
  772MOL0     H 6533  10.291  10.892   1.070 -0.8878  1.7579  0.8292
  772MOL0     H 6534  10.568  10.993   0.912  0.1183 -2.0196  2.7073
  772MOL0     H 6535  10.402  10.968   0.895 -1.1253 -0.3937  0.9005
  772MOL0     H 6536  10.467  11.141   0.922 -1.5575 -0.0100  1.9966
  773MOL0     O 6537   0.295  10.126   6.107 -0.5460 -0.3804 -0.4698
  773MOL0     C 6538   0.308  10.129   5.982 -0.2724  0.5396 -0.3326
  773MOL0     O 6539   0.349  10.029   5.912 -0.4231  0.3432  0.7199
  773MOL0     C 6540   0.357   9.903   5.974  0.5380 -0.5315 -0.4666
  773MOL0     C 6541   0.248   9.835   6.014 -0.5218 -0.6168 -0.1465
  773MOL0     C 6542   0.253   9.700   6.054 -0.2890  0.8196  0.1024
  773MOL0     C 6543   0.379   9.638   6.071 -0.5479 -0.2135  0.2521
  773MOL0     O 6544   0.406   9.508   6.116  0.0338  0.0883  0.4917
  773MOL0     C 6545   0.306   9.419   6.136  0.2737  0.1544 -0.4292
  773MOL0     C 6546   0.366   9.301   6.221 -1.2555 -0.1025 -1.5298
  773MOL0     C 6547   0.264   9.186   6.204  0.3014 -0.1982 -0.0587
  773MOL0     C 6548   0.257   9.088   6.330  0.0893 -0.4224  0.0720
  773MOL0     C 6549   0.124   9.018   6.344  0.3113  0.6809 -0.5977
  773MOL0     C 6550   0.143   8.911   6.463 -0.1827  0.6248 -0.6068
  773MOL0     C 6551   0.015   8.844   6.479  1.1388 -0.1513  0.1476
  773MOL0     C 6552   0.027   8.723   6.580  0.4494 -0.5880 -0.1181
  773MOL0     N 6553   0.069   8.747   6.716  0.2163  0.8765  0.3785
  773MOL0     C 6554   0.194   8.773   6.774 -0.1057 -0.3445  0.1653
  773MOL0     C 6555   0.174   8.756   6.908  1.0827  0.0824 -0.2108
  773MOL0     C 6556   0.280   8.756   7.011  0.7698  0.3651 -0.2980
  773MOL0     C 6557   0.214   8.713   7.145  0.7404 -0.1507  0.0695
  773MOL0     C 6558   0.339   8.690   7.245  1.0440 -1.0813  0.4247
  773MOL0     C 6559   0.416   8.810   7.304 -0.2806 -0.0022 -0.6272
  773MOL0     O 6560   0.321   8.873   7.395 -0.5645  0.0421 -0.0720
  773MOL0     C 6561   0.322   9.012   7.413  0.4494 -0.2342  0.4379
  773MOL0     C 6562   0.437   9.102   7.427  0.1012  0.3354  0.1105
  773MOL0     C 6563   0.423   9.236   7.472 -0.5832  0.0545  0.5089
  773MOL0     C 6564   0.552   9.311   7.493  1.2227  0.2540 -0.5038
  773MOL0     C 6565   0.301   9.290   7.503 -0.1687  0.5797  0.3091
  773MOL0     C 6566   0.281   9.422   7.561  0.2036 -0.4109  0.6451
  773MOL0     O 6567   0.155   9.446   7.614 -0.5146  0.8399  0.0623
  773MOL0     C 6568   0.125   9.557   7.678  0.1155  0.3537  0.0529
  773MOL0     C 6569   0.093   9.676   7.618 -0.3213 -0.8901  0.4494
  773MOL0     C 6570   0.046   9.786   7.697 -1.0147  0.2301 -0.3818
  773MOL0     C 6571   0.029   9.778   7.833 -0.2486  0.7163 -0.2960
  773MOL0     O 6572  -0.030   9.882   7.901  0.2837  0.1199 -0.3938
  773MOL0     C 6573  -0.120   9.858   8.004  0.2649  0.2936 -0.4647
  773MOL0     C 6574  -0.212   9.976   8.003 -0.6064 -0.6423 -0.8497
  773MOL0     C 6575  -0.315   9.994   7.888 -0.2044  0.0260  0.0997
  773MOL0     C 6576  -0.389  10.127   7.905 -0.9811  1.3119 -0.1592
  773MOL0     C 6577  -0.433  10.179   7.772  0.3341 -0.0156 -0.5568
  773MOL0     C 6578  -0.339  10.183   7.653 -0.1708 -0.1220 -0.0949
  773MOL0     C 6579  -0.394  10.258   7.534  0.7507 -0.3425 -0.1977
  773MOL0     C 6580  -0.296  10.271   7.417 -0.0998  0.2260  0.7012
  773MOL0    Cl 6581  -0.308  10.137   7.305 -0.3557  0.0988 -0.6120
  773MOL0     C 6582   0.051   9.653   7.894 -0.5936 -0.1679  0.9569
  773MOL0     C 6583   0.104   9.544   7.818 -0.2354  0.4431 -0.0729
  773MOL0     O 6584   0.370   9.507   7.565  0.3151  0.4190  0.0649
  773MOL0     C 6585   0.187   9.206   7.489  0.0806 -0.3659 -0.8462
  773MOL0     C 6586   0.200   9.072   7.439  0.5096 -0.0278  1.8163
  773MOL0     N 6587   0.040   8.733   6.927  0.2216 -0.3180  0.3710
  773MOL0     N 6588  -0.024   8.733   6.817 -0.3482  0.9741  0.0419
  773MOL0     C 6589   0.493   9.713   6.032 -0.4892  0.4585 -0.3611
  773MOL0     C 6590   0.480   9.844   5.991  0.0212  0.1106  0.6640
  773MOL0     C 6591   0.272  10.248   5.901 -0.6254 -0.1891  0.1246
  773MOL0     C 6592   0.218  10.229   5.774  1.0005  0.0232  0.6201
  773MOL0     C 6593   0.170  10.334   5.692  0.0606 -0.0479 -1.0127
  773MOL0     C 6594   0.188  10.465   5.740 -0.0066  0.4709 -0.1989
  773MOL0     O 6595   0.124  10.556   5.671  0.7054 -0.5015  0.5500
  773MOL0     C 6596   0.183  10.696   5.666  0.1402  0.0805 -0.7188
  773MOL0     C 6597   0.076  10.792   5.608 -0.4326 -0.0349  0.3559
  773MOL0     C 6598  -0.058  10.816   5.678  0.2221  0.0167 -0.0204
  773MOL0     C 6599  -0.158  10.702   5.677 -0.5915 -0.6654 -0.6173
  773MOL0     C 6600  -0.298  10.757   5.678 -0.9563 -0.6667  0.4994
  773MOL0     C 6601  -0.408  10.813   5.669  0.0891  0.7719 -1.2738
  773MOL0     C 6602   0.258  10.486   5.857 -0.5188 -0.7476 -1.0853
  773MOL0     C 6603   0.305  10.377   5.935 -0.2599 -0.1733 -0.1751
  773MOL0     C 6604   0.382  10.408   6.064  0.1174  0.4036  0.2731
  773MOL0     H 6605   0.154   9.886   5.991  0.6593  1.9521  0.3345
  773MOL0     H 6606   0.156   9.656   6.073 -0.8559  1.5773 -0.9315
  773MOL0     H 6607   0.277   9.377   6.040  1.5945 -0.8003 -0.4350
  773MOL0     H 6608   0.222   9.459   6.194 -0.1237 -0.4366 -0.5904
  773MOL0     H 6609   0.462   9.260   6.188 -1.0083 -1.4260  0.6810
  773MOL0     H 6610   0.387   9.337   6.322  0.5641 -0.7088 -1.6417
  773MOL0     H 6611   0.164   9.227   6.187 -0.2412 -2.4251 -2.8706
  773MOL0     H 6612   0.286   9.132   6.112  0.9759  0.7886 -0.4874
  773MOL0     H 6613   0.332   9.009   6.322 -0.7115 -1.3813  1.6394
  773MOL0     H 6614   0.290   9.143   6.419  3.0444  1.9002 -2.2427
  773MOL0     H 6615   0.107   8.970   6.248  1.2986 -0.4497 -0.2386
  773MOL0     H 6616   0.038   9.085   6.355 -0.7448 -0.8083  0.8591
  773MOL0     H 6617   0.215   8.838   6.424 -0.1953 -0.0687  0.6210
  773MOL0     H 6618   0.192   8.950   6.552 -1.7441 -0.5361  0.8319
  773MOL0     H 6619  -0.011   8.804   6.381  4.3256 -2.5258  0.1252
  773MOL0     H 6620  -0.059   8.913   6.520  3.2991  1.8359  0.9222
  773MOL0     H 6621  -0.075   8.687   6.592 -0.4110  2.0811  1.2873
  773MOL0     H 6622   0.084   8.648   6.524  0.4507 -0.8688  0.2549
  773MOL0     H 6623   0.294   8.787   6.734  0.5142 -0.7123  1.5160
  773MOL0     H 6624   0.322   8.857   7.018  1.8037  0.0400 -1.4750
  773MOL0     H 6625   0.355   8.682   6.984 -1.1903 -1.5389 -0.8003
  773MOL0     H 6626   0.150   8.794   7.179  2.7302  0.8841  1.5748
  773MOL0     H 6627   0.157   8.621   7.127  1.0899 -0.3207 -0.1933
  773MOL0     H 6628   0.304   8.639   7.335 -1.9289  1.4444  0.8723
  773MOL0     H 6629   0.411   8.628   7.191  1.4225  0.7445 -1.3221
  773MOL0     H 6630   0.501   8.769   7.360 -0.3606  0.4857 -0.1369
  773MOL0     H 6631   0.447   8.880   7.226  1.5443 -0.6039 -0.4821
  773MOL0     H 6632   0.538   9.069   7.410 -0.4721 -0.5616 -1.8570
  773MOL0     H 6633   0.552   9.330   7.601 -1.5234 -0.4713 -0.2808
  773MOL0     H 6634   0.571   9.403   7.437  2.0817 -0.4143 -1.3401
  773MOL0     H 6635   0.641   9.249   7.477  1.6551  0.9189 -0.7141
  773MOL0     H 6636   0.097   9.692   7.511 -0.0540  0.0025  0.5785
  773MOL0     H 6637   0.026   9.885   7.659 -1.2323 -0.1219 -1.2089
  773MOL0     H 6638  -0.182   9.772   7.977  1.0112 -1.2839  2.4539
  773MOL0     H 6639  -0.076   9.844   8.103 -1.5927  0.3057  0.4159
  773MOL0     H 6640  -0.253   9.978   8.104 -0.7055 -0.9473 -0.8834
  773MOL0     H 6641  -0.148  10.065   8.001  2.4567 -2.5735  1.7269
  773MOL0     H 6642  -0.389   9.914   7.900 -1.2192  0.9593  0.2491
  773MOL0     H 6643  -0.251   9.976   7.801  1.1975 -3.8837  1.7184
  773MOL0     H 6644  -0.314  10.197   7.941 -0.5798  0.3984  0.8305
  773MOL0     H 6645  -0.476  10.118   7.971 -3.8275  0.3525 -3.6887
  773MOL0     H 6646  -0.519  10.118   7.742 -0.0940  0.2232  0.1448
  773MOL0     H 6647  -0.466  10.280   7.798  0.9318  0.0740 -0.1331
  773MOL0     H 6648  -0.300  10.083   7.631  3.0879  0.9153  0.3925
  773MOL0     H 6649  -0.249  10.240   7.679 -0.7720  1.1025 -0.5788
  773MOL0     H 6650  -0.420  10.362   7.555 -0.9339  0.0633 -3.5988
  773MOL0     H 6651  -0.484  10.202   7.507  0.3989  1.5272 -3.3888
  773MOL0     H 6652  -0.191  10.286   7.442  0.0205  0.6884 -0.0321
  773MOL0     H 6653  -0.313  10.369   7.371  0.4199 -0.0903 -0.1970
  773MOL0     H 6654   0.036   9.622   7.997  2.3255 -3.3628  0.6175
  773MOL0     H 6655   0.106   9.440   7.849 -0.7738 -0.3621 -2.5346
  773MOL0     H 6656   0.087   9.235   7.520  0.6093 -0.4303  1.0026
  773MOL0     H 6657   0.117   9.003   7.422 -1.8303  2.4375  2.4810
  773MOL0     H 6658   0.596   9.678   6.032 -0.4674  0.5007 -1.5713
  773MOL0     H 6659   0.569   9.897   5.960 -0.7690  1.4150  0.5515
  773MOL0     H 6660   0.189  10.128   5.749 -0.1444  0.5110 -0.0631
  773MOL0     H 6661   0.115  10.323   5.599 -0.3574  1.0295 -0.9060
  773MOL0     H 6662   0.186  10.735   5.768 -2.8791 -1.7085  0.1976
  773MOL0     H 6663   0.280  10.713   5.617  0.2585  1.7029  0.0255
  773MOL0     H 6664   0.054  10.775   5.502 -0.2049  3.6495 -0.4288
  773MOL0     H 6665   0.126  10.890   5.597 -1.9477  0.6434 -0.8840
  773MOL0     H 6666  -0.042  10.851   5.780  0.4420  0.5648 -0.2381
  773MOL0     H 6667  -0.101  10.903   5.627 -1.8660 -0.6491  0.4717
  773MOL0     H 6668  -0.137  10.631   5.758  3.0615 -0.4183 -1.1388
  773MOL0     H 6669  -0.146  10.644   5.585  3.6265  1.7279 -1.8868
  773MOL0     H 6670  -0.507  10.855   5.671 -0.7210 -0.9621 -2.2012
  773MOL0     H 6671   0.276  10.586   5.895 -0.0453  0.2199 -3.6927
  773MOL0     H 6672   0.424  10.508   6.053  2.3559 -0.7301 -3.5231
  773MOL0     H 6673   0.317  10.405   6.152  1.5250 -1.4307  1.3314
  773MOL0     H 6674   0.464  10.339   6.086 -0.9938 -1.0867 -0.0745
  774MOL0     O 6675   2.975   5.302   4.197 -0.9125 -0.4620  0.3755
  774MOL0     C 6676   2.972   5.360   4.306 -0.7294  0.2191  0.8434
  774MOL0     O 6677   2.886   5.456   4.339 -0.6723  0.0247 -0.7254
  774MOL0     C 6678   2.788   5.512   4.263 -0.9226  0.2995  0.4365
  774MOL0     C 6679   2.751   5.466   4.141  0.7512  0.4193 -0.0674
  774MOL0     C 6680   2.644   5.520   4.074  0.2642  0.5668 -0.8231
  774MOL0     C 6681   2.568   5.623   4.129 -0.4436  0.4237 -0.1331
  774MOL0     O 6682   2.464   5.667   4.050 -0.4078  0.2379 -0.6267
  774MOL0     C 6683   2.405   5.787   4.078 -0.1234  0.2798  0.0392
  774MOL0     C 6684   2.384   5.871   3.950 -0.3646  0.2590 -0.8407
  774MOL0     C 6685   2.324   6.003   3.993 -0.1191 -0.1240 -0.1716
  774MOL0     C 6686   2.266   6.083   3.874  0.1968 -0.7755 -0.5058
  774MOL0     C 6687   2.224   6.226   3.923  0.0835 -0.6485  0.0773
  774MOL0     C 6688   2.151   6.314   3.823  0.2409  0.8909 -0.3744
  774MOL0     C 6689   2.218   6.326   3.688 -0.2661 -0.2148 -0.0211
  774MOL0     C 6690   2.195   6.457   3.608 -0.4032  0.7775 -0.4418
  774MOL0     N 6691   2.052   6.471   3.587 -0.1643 -0.3880 -0.0732
  774MOL0     C 6692   1.964   6.395   3.518 -0.4515  0.5039 -0.3342
  774MOL0     C 6693   1.852   6.458   3.511  0.2148  0.5499 -0.9579
  774MOL0     C 6694   1.721   6.401   3.459 -0.4902  1.2205 -0.1798
  774MOL0     C 6695   1.641   6.484   3.351 -0.1770 -0.6336 -0.3076
  774MOL0     C 6696   1.712   6.481   3.220 -0.0490  0.2826  1.6774
  774MOL0     C 6697   1.635   6.559   3.108  0.7692 -0.3661 -1.2243
  774MOL0     O 6698   1.673   6.511   2.973 -0.1147  0.3073  0.0064
  774MOL0     C 6699   1.633   6.397   2.921 -0.1916  0.8746  0.3123
  774MOL0     C 6700   1.533   6.322   2.982 -0.1137  0.3108 -0.4320
  774MOL0     C 6701   1.473   6.214   2.920  0.2823  0.5134  0.2640
  774MOL0     C 6702   1.378   6.126   3.000  0.6206 -0.5421 -1.5351
  774MOL0     C 6703   1.496   6.186   2.789 -0.0147  0.2297 -0.1018
  774MOL0     C 6704   1.433   6.078   2.710  0.3868 -0.6514 -0.5921
  774MOL0     O 6705   1.495   5.957   2.679 -0.1368 -1.0434 -0.4999
  774MOL0     C 6706   1.624   5.935   2.735  0.6229  0.3708  0.0923
  774MOL0     C 6707   1.632   5.884   2.863  0.9308 -0.3591  0.3865
  774MOL0     C 6708   1.760   5.879   2.915 -0.9838  1.2275 -0.1900
  774MOL0     C 6709   1.873   5.919   2.844 -0.0206  0.7775  0.5242
  774MOL0     O 6710   1.996   5.914   2.908  0.1366  0.3583  0.8090
  774MOL0     C 6711   2.095   5.996   2.852  0.5650 -1.2292  1.0367
  774MOL0     C 6712   2.212   5.986   2.955  0.0677 -0.1417 -0.1770
  774MOL0     C 6713   2.322   6.097   2.911  0.0777  0.3403 -0.0530
  774MOL0     C 6714   2.430   6.109   3.019 -0.1457  0.0602  1.1168
  774MOL0     C 6715   2.546   6.205   2.976 -0.3133  0.0019 -0.2816
  774MOL0     C 6716   2.517   6.354   2.932  0.2112 -0.7144  0.8877
  774MOL0     C 6717   2.646   6.440   2.900 -0.5383  0.3813  0.6281
  774MOL0     C 6718   2.637   6.594   2.922  0.1719 -0.0463  0.4019
  774MOL0    Cl 6719   2.486   6.628   2.838 -0.1200 -0.7244 -0.0700
  774MOL0     C 6720   1.859   5.966   2.717  0.5682  0.5117 -0.3365
  774MOL0     C 6721   1.733   5.977   2.662 -1.0743  0.6663  0.6705
  774MOL0     O 6722   1.316   6.102   2.691 -0.1350  0.2971 -0.2172
  774MOL0     C 6723   1.602   6.255   2.725  0.3040  0.7871  0.2125
  774MOL0     C 6724   1.669   6.361   2.788 -0.3845 -0.0960 -0.4998
  774MOL0     N 6725   1.863   6.580   3.580  0.8342  0.6733  0.4165
  774MOL0     N 6726   1.980   6.583   3.627  0.5385 -0.2127  0.3881
  774MOL0     C 6727   2.612   5.677   4.254  0.1012  0.0660  1.5702
  774MOL0     C 6728   2.720   5.623   4.315 -0.4172  0.4673  0.1262
  774MOL0     C 6729   3.071   5.327   4.412 -0.4534  0.1983  0.7919
  774MOL0     C 6730   3.084   5.188   4.431  0.5216  0.5670 -0.3189
  774MOL0     C 6731   3.175   5.143   4.530 -0.2967  0.0114 -0.7675
  774MOL0     C 6732   3.257   5.231   4.602 -0.7467 -0.0049  0.3351
  774MOL0     O 6733   3.358   5.181   4.681  0.3864  0.3872  0.1012
  774MOL0     C 6734   3.433   5.268   4.767  0.7153  0.0905 -0.1567
  774MOL0     C 6735   3.579   5.216   4.790 -0.5919  0.3316  0.1053
  774MOL0     C 6736   3.570   5.094   4.880  0.9716 -0.4480  0.3208
  774MOL0     C 6737   3.555   4.965   4.787 -0.7995 -0.0439  0.6416
  774MOL0     C 6738   3.577   4.846   4.868  0.9386 -0.1330 -0.8963
  774MOL0     C 6739   3.604   4.759   4.942  0.4512 -0.6348  0.5669
  774MOL0     C 6740   3.236   5.365   4.576  0.0810 -0.5658  0.8184
  774MOL0     C 6741   3.139   5.413   4.486  0.7117 -0.3572 -0.0972
  774MOL0     C 6742   3.116   5.560   4.480 -0.6078  0.5887  0.4917
  774MOL0     H 6743   2.787   5.386   4.078 -1.7338 -0.1987 -0.8001
  774MOL0     H 6744   2.625   5.469   3.979  1.0927 -1.0184 -0.1792
  774MOL0     H 6745   2.450   5.848   4.157 -4.0437  0.7085  2.2424
  774MOL0     H 6746   2.308   5.762   4.123  0.0134 -3.4055 -1.3356
  774MOL0     H 6747   2.476   5.889   3.895 -1.0743  3.4163 -1.1499
  774MOL0     H 6748   2.307   5.826   3.887 -3.2776  1.5871  1.5315
  774MOL0     H 6749   2.239   5.991   4.062  0.6065  2.9813  1.4767
  774MOL0     H 6750   2.403   6.063   4.039  2.0704 -2.3994 -0.8132
  774MOL0     H 6751   2.337   6.085   3.791  1.5079  1.0299  0.6018
  774MOL0     H 6752   2.176   6.032   3.837 -0.5333 -1.3452  1.8971
  774MOL0     H 6753   2.313   6.284   3.947 -1.0368  2.1323 -1.9413
  774MOL0     H 6754   2.160   6.213   4.011  0.6573  1.2960  0.8287
  774MOL0     H 6755   2.055   6.264   3.804  0.6734  0.0118 -0.3056
  774MOL0     H 6756   2.128   6.407   3.875 -1.9021 -0.6693  1.6861
  774MOL0     H 6757   2.184   6.244   3.624  2.1485  0.0709 -1.7919
  774MOL0     H 6758   2.326   6.313   3.690 -0.3475 -2.5783 -3.0328
  774MOL0     H 6759   2.230   6.543   3.665  0.5849  0.0201  0.1346
  774MOL0     H 6760   2.249   6.456   3.512  0.2973  2.0210 -0.0808
  774MOL0     H 6761   1.983   6.297   3.474 -1.8109 -1.5382  3.1732
  774MOL0     H 6762   1.659   6.379   3.546  1.1007 -3.3186  0.0754
  774MOL0     H 6763   1.739   6.305   3.410  1.7834  1.2023  0.5956
  774MOL0     H 6764   1.550   6.424   3.342  0.7228 -2.1813  0.4555
  774MOL0     H 6765   1.612   6.587   3.377 -2.6610 -1.2860 -0.2041
  774MOL0     H 6766   1.810   6.526   3.236  0.9153 -1.3139  0.6439
  774MOL0     H 6767   1.731   6.378   3.186  0.2218  0.0769  2.4429
  774MOL0     H 6768   1.528   6.555   3.127  0.6527 -3.4028 -2.0191
  774MOL0     H 6769   1.658   6.665   3.124  3.9241 -1.3149  1.6386
  774MOL0     H 6770   1.508   6.348   3.084  0.9084  1.2791 -0.4111
  774MOL0     H 6771   1.351   6.031   2.953 -1.5672 -0.3203 -0.8733
  774MOL0     H 6772   1.296   6.191   3.031  0.0412 -1.6982 -0.5283
  774MOL0     H 6773   1.427   6.100   3.094 -2.9409 -0.5460  0.5150
  774MOL0     H 6774   1.542   5.843   2.909  1.8809 -0.9766  1.7504
  774MOL0     H 6775   1.768   5.828   3.011 -3.1624 -0.1533 -0.6583
  774MOL0     H 6776   2.130   5.957   2.755 -1.8667  1.9408 -1.3521
  774MOL0     H 6777   2.066   6.100   2.834  0.0544 -1.8101 -2.0877
  774MOL0     H 6778   2.177   6.006   3.057 -1.1055  0.6108 -0.7145
  774MOL0     H 6779   2.253   5.884   2.948 -1.2700 -0.6075 -2.4587
  774MOL0     H 6780   2.275   6.194   2.896  2.7143  1.6220 -0.6003
  774MOL0     H 6781   2.373   6.058   2.822  3.1733  0.2277  1.6235
  774MOL0     H 6782   2.472   6.008   3.024  0.1241  0.1459  0.6011
  774MOL0     H 6783   2.402   6.129   3.123 -2.9940  1.1394  0.2186
  774MOL0     H 6784   2.598   6.208   3.072 -0.4489 -1.0655 -0.1626
  774MOL0     H 6785   2.612   6.158   2.902  1.0827  0.1637  0.8100
  774MOL0     H 6786   2.478   6.398   3.024  0.3850  1.7083 -0.1236
  774MOL0     H 6787   2.442   6.364   2.854 -0.1100  2.3095  1.4526
  774MOL0     H 6788   2.676   6.419   2.796  2.4054  0.5201  1.3392
  774MOL0     H 6789   2.735   6.406   2.954 -1.2137 -0.4455  1.2374
  774MOL0     H 6790   2.712   6.654   2.870  0.3749  0.8604  1.6802
  774MOL0     H 6791   2.626   6.626   3.026 -3.1925 -1.3864  0.5730
  774MOL0     H 6792   1.941   5.997   2.653  0.9818  0.1058 -0.0115
  774MOL0     H 6793   1.722   6.013   2.560  1.0186  0.5362  0.3376
  774MOL0     H 6794   1.635   6.221   2.628  1.6381  1.2389  0.4712
  774MOL0     H 6795   1.752   6.414   2.741  0.0653  0.7162  1.1332
  774MOL0     H 6796   2.551   5.750   4.306 -0.5228  0.9303 -0.2716
  774MOL0     H 6797   2.761   5.668   4.405 -0.0936  1.2358 -0.3906
  774MOL0     H 6798   3.049   5.125   4.350 -0.3867  3.4763 -2.3580
  774MOL0     H 6799   3.181   5.038   4.554 -0.3716 -0.5936 -3.1067
  774MOL0     H 6800   3.452   5.364   4.718 -1.6632  1.1984  0.9316
  774MOL0     H 6801   3.371   5.293   4.853  0.2409  0.8584 -0.7115
  774MOL0     H 6802   3.621   5.296   4.851 -1.4129  0.4913  0.4827
  774MOL0     H 6803   3.639   5.193   4.702 -3.1480  0.3075 -1.7660
  774MOL0     H 6804   3.666   5.096   4.933  0.9645  2.1022  0.3648
  774MOL0     H 6805   3.497   5.090   4.962  2.5907 -2.1837  1.7804
  774MOL0     H 6806   3.632   4.968   4.710 -2.2056  3.5856 -0.8583
  774MOL0     H 6807   3.461   4.958   4.733  0.7544 -1.7440 -2.0755
  774MOL0     H 6808   3.630   4.689   5.019  3.4431 -1.4060 -0.9742
  774MOL0     H 6809   3.281   5.436   4.645 -1.2744 -0.0277  1.1839
  774MOL0     H 6810   3.021   5.589   4.525 -1.4919  0.5547 -1.2682
  774MOL0     H 6811   3.197   5.609   4.535 -1.0510 -0.1296  1.8265
  774MOL0     H 6812   3.117   5.596   4.376 -0.6904  0.2759  0.3827
  775MOL0     O 6813   4.051   7.377  10.317  0.7995  0.3456  0.1118
  775MOL0     C 6814   4.079   7.490  10.283 -0.5925 -0.8422  0.4199
  775MOL0     O 6815   4.202   7.541  10.300 -0.3320  0.1435  0.5548
  775MOL0     C 6816   4.296   7.478  10.374  0.7636 -0.0731  0.0909
  775MOL0     C 6817   4.365   7.365  10.327  0.3336  0.1343  0.0300
  775MOL0     C 6818   4.484   7.319  10.390  0.4198  0.3471  0.0829
  775MOL0     C 6819   4.528   7.376  10.513  0.1154  0.3339  0.3482
  775MOL0     O 6820   4.649   7.323  10.564  0.4318  0.9288  0.0600
  775MOL0     C 6821   4.704   7.393  10.673 -0.2698 -0.1548  0.4180
  775MOL0     C 6822   4.831   7.333  10.733 -0.5277  0.3746  0.4550
  775MOL0     C 6823   4.959   7.333  10.653  0.1360 -0.7159 -0.4538
  775MOL0     C 6824   5.059   7.221  10.693  0.2438 -0.3222  0.6107
  775MOL0     C 6825   5.158   7.267  10.812 -0.6546 -0.4447 -1.2661
  775MOL0     C 6826   5.108   7.206  10.949  0.9546  0.3290  0.5994
  775MOL0     C 6827   5.209   7.232  11.059  0.3998  0.2473  0.3994
  775MOL0     C 6828   5.155   7.218  11.197 -0.9106  0.4752 -0.8598
  775MOL0     N 6829   5.245   7.284  11.293  0.3652 -0.2727  0.2658
  775MOL0     C 6830   5.377   7.236  11.316  0.2349 -0.2018 -0.1247
  775MOL0     C 6831   5.410   7.315  11.417  0.3478  0.6509  0.0868
  775MOL0     C 6832   5.552   7.323  11.467  0.7794  0.5122 -0.2911
  775MOL0     C 6833   5.589   7.464  11.533  0.8698  0.7923  0.3216
  775MOL0     C 6834   5.727   7.487  11.592  0.4588 -0.6308 -0.2301
  775MOL0     C 6835   5.834   7.499  11.483  0.1989 -0.3831  0.0030
  775MOL0     O 6836   5.946   7.545  11.553 -0.2520 -0.2047 -0.5180
  775MOL0     C 6837   6.060   7.550  11.476 -0.2318 -0.6288  0.2651
  775MOL0     C 6838   6.077   7.517  11.341 -0.4027 -0.2146 -0.3989
  775MOL0     C 6839   6.206   7.513  11.287 -0.9101 -0.6174 -0.1706
  775MOL0     C 6840   6.213   7.469  11.139 -0.4646 -0.3536 -0.8494
  775MOL0     C 6841   6.316   7.559  11.365 -0.2468 -0.2083 -0.3673
  775MOL0     C 6842   6.454   7.555  11.313 -0.7536 -0.2569  0.1334
  775MOL0     O 6843   6.560   7.576  11.404 -0.0662 -0.7608  0.4386
  775MOL0     C 6844   6.678   7.629  11.349 -0.8383  0.0122 -0.0769
  775MOL0     C 6845   6.687   7.738  11.252 -0.6992  0.1092  0.4040
  775MOL0     C 6846   6.806   7.808  11.223  0.5055 -0.2095 -0.3242
  775MOL0     C 6847   6.924   7.782  11.303  0.4975 -0.2482 -0.2038
  775MOL0     O 6848   7.043   7.845  11.275  0.5446 -0.4681 -0.3123
  775MOL0     C 6849   7.061   7.978  11.251  0.3358 -0.0212 -0.1726
  775MOL0     C 6850   7.102   7.994  11.105 -0.2047 -0.5044  0.3160
  775MOL0     C 6851   7.241   7.948  11.070 -0.7440  0.1761  0.0681
  775MOL0     C 6852   7.344   8.060  11.074  0.4255  1.0345 -0.1007
  775MOL0     C 6853   7.483   8.003  11.072  0.4038 -0.8500  0.3947
  775MOL0     C 6854   7.531   7.978  10.925  0.4738  0.6294 -1.0131
  775MOL0     C 6855   7.668   8.054  10.902 -0.1323  0.1593 -0.1762
  775MOL0     C 6856   7.658   8.200  10.865  0.2028  0.1131 -0.5694
  775MOL0    Cl 6857   7.804   8.286  10.909 -0.0510  0.2336  0.5657
  775MOL0     C 6858   6.912   7.671  11.386 -0.1777 -0.1133  0.0903
  775MOL0     C 6859   6.797   7.600  11.413  0.3692  0.7926  0.3096
  775MOL0     O 6860   6.469   7.558  11.190 -0.6141  0.5024 -0.5047
  775MOL0     C 6861   6.292   7.597  11.503 -0.0725 -0.0166 -0.6769
  775MOL0     C 6862   6.164   7.594  11.543  0.4568 -0.9244 -0.2144
  775MOL0     N 6863   5.310   7.396  11.446  0.6985  0.4101 -0.2072
  775MOL0     N 6864   5.209   7.381  11.372  0.5838 -0.3659  0.4033
  775MOL0     C 6865   4.448   7.480  10.562  0.4339 -0.6519  0.1645
  775MOL0     C 6866   4.340   7.537  10.488  0.9677  0.6202 -0.8086
  775MOL0     C 6867   3.981   7.578  10.211  0.1400 -1.0520  0.0150
  775MOL0     C 6868   4.034   7.672  10.122  0.0261 -0.1909  0.3718
  775MOL0     C 6869   3.946   7.775  10.076  0.1056 -0.5216 -0.2220
  775MOL0     C 6870   3.809   7.772  10.113  0.4653 -0.8760  0.2290
  775MOL0     O 6871   3.747   7.868  10.036  0.8875  0.0279  0.2225
  775MOL0     C 6872   3.604   7.876  10.050 -0.2370  0.1351  0.5882
  775MOL0     C 6873   3.553   7.968   9.943 -0.0027  0.1356 -0.0368
  775MOL0     C 6874   3.396   7.965   9.929  0.7511  0.0203 -0.8218
  775MOL0     C 6875   3.333   8.054  10.036  0.0487  0.0685 -0.6281
  775MOL0     C 6876   3.352   8.205  10.030  0.2596  0.1954 -1.0477
  775MOL0     C 6877   3.366   8.323  10.007  0.0038  0.0323  0.6511
  775MOL0     C 6878   3.758   7.674  10.196  0.3777 -0.3589  0.4625
  775MOL0     C 6879   3.842   7.577  10.246 -0.3156 -0.1432 -0.9326
  775MOL0     C 6880   3.777   7.481  10.350 -0.8166 -0.9703 -0.0407
  775MOL0     H 6881   4.337   7.338  10.226  0.2597 -0.8034  0.2971
  775MOL0     H 6882   4.537   7.236  10.343  4.4637  1.6171  1.8797
  775MOL0     H 6883   4.633   7.375  10.754 -2.4872 -3.4145 -1.9591
  775MOL0     H 6884   4.723   7.498  10.650 -1.8352  1.0325  3.9332
  775MOL0     H 6885   4.848   7.397  10.820 -2.8880 -0.2691  1.4879
  775MOL0     H 6886   4.820   7.230  10.768 -1.9507  0.5039  0.4389
  775MOL0     H 6887   4.930   7.313  10.550  0.1330 -1.3407 -0.3395
  775MOL0     H 6888   5.005   7.430  10.673  0.0377 -1.1925  2.4704
  775MOL0     H 6889   5.001   7.131  10.716  1.8126 -1.3509  0.6873
  775MOL0     H 6890   5.128   7.203  10.610 -2.7705  1.8900 -2.6549
  775MOL0     H 6891   5.152   7.376  10.823 -0.8458 -0.5372 -0.4449
  775MOL0     H 6892   5.263   7.245  10.790 -0.2958  1.1947 -1.3845
  775MOL0     H 6893   5.006   7.235  10.976  0.0022 -3.0321  1.0863
  775MOL0     H 6894   5.109   7.097  10.941  0.3969  0.2857  1.0654
  775MOL0     H 6895   5.254   7.332  11.058  0.7064  0.1243  1.1404
  775MOL0     H 6896   5.290   7.159  11.049  0.9644  0.5739  2.1600
  775MOL0     H 6897   5.060   7.271  11.210 -0.0361  1.5763  1.8924
  775MOL0     H 6898   5.145   7.115  11.233 -0.3662  1.5441  2.7940
  775MOL0     H 6899   5.431   7.166  11.253  0.6087 -0.7172  0.7456
  775MOL0     H 6900   5.614   7.308  11.379  1.1642  0.8634 -0.0854
  775MOL0     H 6901   5.572   7.244  11.540  1.8428  1.1642  0.1478
  775MOL0     H 6902   5.570   7.541  11.458  1.8327 -0.7319 -1.5791
  775MOL0     H 6903   5.515   7.465  11.614 -0.1243 -4.3070 -0.1830
  775MOL0     H 6904   5.719   7.575  11.657 -1.3361 -2.1491  1.7931
  775MOL0     H 6905   5.751   7.407  11.663 -1.7724 -0.4955  0.7796
  775MOL0     H 6906   5.842   7.404  11.430  0.5316  0.1559 -0.9309
  775MOL0     H 6907   5.808   7.576  11.410 -3.5991 -2.0008 -0.5772
  775MOL0     H 6908   5.993   7.486  11.280 -2.0574  3.7716 -0.4749
  775MOL0     H 6909   6.276   7.380  11.128 -2.2486 -2.0472  1.5571
  775MOL0     H 6910   6.247   7.563  11.094 -4.7572  2.7730  1.6253
  775MOL0     H 6911   6.116   7.441  11.097 -0.5167  0.1203 -1.0580
  775MOL0     H 6912   6.598   7.773  11.201 -0.3621  1.1992  0.5330
  775MOL0     H 6913   6.795   7.899  11.165 -0.9112  0.0932  0.3837
  775MOL0     H 6914   6.969   8.034  11.269 -0.3698 -1.3650  0.5782
  775MOL0     H 6915   7.135   8.013  11.323  1.1403  0.1583 -1.0580
  775MOL0     H 6916   7.027   7.945  11.043 -0.1049  1.1089 -1.1303
  775MOL0     H 6917   7.086   8.100  11.082 -0.2902 -0.5862 -0.0007
  775MOL0     H 6918   7.239   7.903  10.970  2.4234 -1.3138  0.5652
  775MOL0     H 6919   7.277   7.865  11.131 -1.1743 -0.0181  0.0604
  775MOL0     H 6920   7.335   8.111  11.171  2.7434  0.8888  0.2334
  775MOL0     H 6921   7.349   8.133  10.993 -0.3770  1.5958  0.3364
  775MOL0     H 6922   7.538   8.085  11.120  0.2350 -1.6689  2.0439
  775MOL0     H 6923   7.493   7.924  11.147 -1.1722  1.4813  3.2749
  775MOL0     H 6924   7.460   7.999  10.844 -1.9752  0.2254  0.9219
  775MOL0     H 6925   7.538   7.869  10.932  1.6045  0.6821 -1.1333
  775MOL0     H 6926   7.721   7.999  10.823 -3.7453 -1.5588 -1.6124
  775MOL0     H 6927   7.726   8.037  10.993  2.0540  3.2663 -0.8241
  775MOL0     H 6928   7.588   8.248  10.934  0.9760  2.5320 -1.3629
  775MOL0     H 6929   7.639   8.203  10.758 -0.4217 -1.4919 -0.5184
  775MOL0     H 6930   7.009   7.651  11.431  1.0351  0.4906 -2.1002
  775MOL0     H 6931   6.799   7.523  11.489  0.2815  1.2200  0.7539
  775MOL0     H 6932   6.377   7.630  11.562  1.2018  0.3736 -2.6309
  775MOL0     H 6933   6.145   7.624  11.646 -1.5280  0.3270 -0.8931
  775MOL0     H 6934   4.467   7.521  10.661  0.8181  1.1085 -0.5919
  775MOL0     H 6935   4.298   7.632  10.519 -1.5005 -0.0270 -1.9196
  775MOL0     H 6936   4.140   7.683  10.103 -0.0806  0.5018  0.1649
  775MOL0     H 6937   3.993   7.849  10.012  2.1915 -1.4808  0.1082
  775MOL0     H 6938   3.564   7.775  10.035 -1.6921  0.5692  1.4041
  775MOL0     H 6939   3.566   7.912  10.146 -3.1877 -0.9778 -0.0554
  775MOL0     H 6940   3.594   7.943   9.845  1.2408  1.8071  0.0099
  775MOL0     H 6941   3.588   8.070   9.964 -0.2490  0.5186 -1.3496
  775MOL0     H 6942   3.348   8.004   9.838 -1.8372  1.9397  1.1989
  775MOL0     H 6943   3.364   7.861   9.938  1.4443 -0.3370 -2.2051
  775MOL0     H 6944   3.379   8.030  10.132  1.6652 -1.0460 -1.6435
  775MOL0     H 6945   3.226   8.032  10.040 -0.2793  1.4786 -1.0477
  775MOL0     H 6946   3.393   8.421   9.975  1.9144  0.0089  1.9894
  775MOL0     H 6947   3.655   7.668  10.230  0.4483 -1.0384  0.5527
  775MOL0     H 6948   3.671   7.503  10.369 -0.4509 -0.4028  1.5466
  775MOL0     H 6949   3.770   7.383  10.303  0.3229 -0.4308 -1.3838
  775MOL0     H 6950   3.842   7.471  10.438 -0.0732  0.8619 -0.3461
  776MOL0     O 6951   8.195   0.974   1.729 -0.7467 -0.7394 -0.1470
  776MOL0     C 6952   8.180   0.891   1.635  0.3591 -0.0755 -0.0077
  776MOL0     O 6953   8.285   0.844   1.567 -0.3452  0.0892 -0.1068
  776MOL0     C 6954   8.409   0.878   1.619 -0.0374  0.0151  0.6514
  776MOL0     C 6955   8.471   1.001   1.596 -0.2906  0.0583  0.1853
  776MOL0     C 6956   8.590   1.030   1.668 -0.0050 -0.5052  0.1242
  776MOL0     C 6957   8.659   0.935   1.742 -0.0177  0.5602  0.5274
  776MOL0     O 6958   8.783   0.976   1.789 -0.2226 -0.6376 -0.7894
  776MOL0     C 6959   8.851   0.894   1.888  0.5543  0.1492  0.8941
  776MOL0     C 6960   8.986   0.847   1.828 -0.6490  0.8068  0.5937
  776MOL0     C 6961   8.956   0.733   1.729  0.7176 -0.1880  0.7104
  776MOL0     C 6962   9.082   0.678   1.659 -0.2863  0.4769  0.5789
  776MOL0     C 6963   9.054   0.568   1.555  0.2573  0.2804  0.3417
  776MOL0     C 6964   9.171   0.481   1.493 -0.0253  0.1293 -0.0334
  776MOL0     C 6965   9.285   0.446   1.592 -0.2758  0.1142 -0.4958
  776MOL0     C 6966   9.237   0.346   1.697  0.3289 -0.9412  0.0486
  776MOL0     N 6967   9.310   0.343   1.821 -0.6190  0.6639 -0.0081
  776MOL0     C 6968   9.442   0.336   1.844 -0.7896 -0.1025 -0.2603
  776MOL0     C 6969   9.465   0.333   1.975  0.0164 -0.3951 -0.5817
  776MOL0     C 6970   9.592   0.298   2.046 -0.1366  0.5150 -0.4119
  776MOL0     C 6971   9.601   0.152   2.073  0.1069  0.3113 -0.3076
  776MOL0     C 6972   9.738   0.110   2.138 -0.5881  0.6334 -0.1804
  776MOL0     C 6973   9.864   0.117   2.058  0.5284 -0.7030  0.1933
  776MOL0     O 6974   9.962   0.028   2.104  0.3662  0.1179  0.4843
  776MOL0     C 6975  10.077   0.064   2.175 -0.0971  0.2448  0.4856
  776MOL0     C 6976  10.094   0.188   2.234 -0.2755  0.5866  0.3396
  776MOL0     C 6977  10.203   0.218   2.319 -0.0202  0.0152  0.1075
  776MOL0     C 6978  10.211   0.356   2.369  0.0629 -0.6214  0.0130
  776MOL0     C 6979  10.304   0.117   2.331  0.2736 -0.0601  0.8137
  776MOL0     C 6980  10.431   0.144   2.403 -0.7724  0.0096 -0.8737
  776MOL0     O 6981  10.522   0.039   2.407 -0.0327  0.6007 -0.2062
  776MOL0     C 6982  10.645   0.053   2.469  0.0316 -0.5013 -0.1046
  776MOL0     C 6983  10.730   0.160   2.497 -0.0582  0.1226 -0.5424
  776MOL0     C 6984  10.855   0.150   2.572  0.2881 -0.3123  0.5820
  776MOL0     C 6985  10.895   0.020   2.612 -0.0356 -0.7808  0.1789
  776MOL0     O 6986  11.004   0.003   2.695 -0.1359  0.1473 -1.0503
  776MOL0     C 6987  11.101   0.095   2.733  0.4008 -0.0882  0.4915
  776MOL0     C 6988  11.227   0.031   2.789 -0.4523 -0.1436 -0.0096
  776MOL0     C 6989  11.313  -0.050   2.693 -0.6192  0.0604 -0.4524
  776MOL0     C 6990  11.437  -0.111   2.762  0.2603 -0.3569 -1.1646
  776MOL0     C 6991  11.500  -0.218   2.674  0.3314 -0.0776 -0.1943
  776MOL0     C 6992  11.560  -0.184   2.540  0.2933 -0.2741  0.5532
  776MOL0     C 6993  11.622  -0.311   2.470 -0.0696  0.1438  0.2324
  776MOL0     C 6994  11.666  -0.281   2.332 -0.8694  0.7177 -0.3740
  776MOL0    Cl 6995  11.703  -0.418   2.221 -0.0475  0.0194 -0.5009
  776MOL0     C 6996  10.814  -0.091   2.580 -0.6831 -0.4725  0.1641
  776MOL0     C 6997  10.693  -0.075   2.504  0.4348 -0.2194 -0.4503
  776MOL0     O 6998  10.439   0.244   2.467  0.5217 -0.1668  0.2358
  776MOL0     C 6999  10.285  -0.014   2.273  0.6540  0.0319  0.2054
  776MOL0     C 7000  10.167  -0.040   2.197  0.7813 -0.8123  0.0232
  776MOL0     N 7001   9.333   0.343   2.030  0.5945 -0.3988 -0.0694
  776MOL0     N 7002   9.246   0.354   1.940  0.1044 -0.3657 -0.3993
  776MOL0     C 7003   8.602   0.801   1.748 -0.1732 -0.6476 -0.7145
  776MOL0     C 7004   8.480   0.776   1.681  0.1191  0.1112 -0.4464
  776MOL0     C 7005   8.049   0.821   1.618  0.6554  0.1252  0.1973
  776MOL0     C 7006   8.051   0.693   1.562  1.3233 -0.3309 -0.1711
  776MOL0     C 7007   7.937   0.622   1.541  0.3870  0.2651  0.0670
  776MOL0     C 7008   7.820   0.659   1.595  0.5145 -0.4160 -0.0384
  776MOL0     O 7009   7.720   0.563   1.584  0.1429 -0.6943 -0.2483
  776MOL0     C 7010   7.647   0.535   1.708 -0.7279 -0.1872 -0.2387
  776MOL0     C 7011   7.491   0.537   1.695  0.4975 -0.1945 -0.3688
  776MOL0     C 7012   7.440   0.665   1.625 -0.3365 -0.2670  0.5109
  776MOL0     C 7013   7.300   0.698   1.680  0.6336 -0.4199 -0.0074
  776MOL0     C 7014   7.245   0.791   1.582  0.3073 -1.0227  0.2351
  776MOL0     C 7015   7.210   0.866   1.500  0.4354 -0.0787 -0.3749
  776MOL0     C 7016   7.805   0.780   1.662  0.7060 -1.2432 -0.8714
  776MOL0     C 7017   7.921   0.862   1.673  0.8010 -0.1870 -0.1869
  776MOL0     C 7018   7.890   0.993   1.749  0.1260  0.5507  0.2983
  776MOL0     H 7019   8.435   1.067   1.519 -0.2743 -2.2290 -1.9145
  776MOL0     H 7020   8.641   1.125   1.660 -2.1073  0.6007 -1.1810
  776MOL0     H 7021   8.794   0.808   1.923 -2.9789  1.3042 -1.4832
  776MOL0     H 7022   8.869   0.953   1.979 -2.1322  1.5996  0.5679
  776MOL0     H 7023   9.033   0.925   1.768  3.0636  0.6371  2.9517
  776MOL0     H 7024   9.057   0.815   1.904 -0.3727 -0.8816 -0.3376
  776MOL0     H 7025   8.909   0.647   1.777  1.3599 -0.3866  0.9815
  776MOL0     H 7026   8.881   0.778   1.662 -0.0062 -0.1022  1.5606
  776MOL0     H 7027   9.126   0.759   1.599  0.8004 -2.0213 -2.2497
  776MOL0     H 7028   9.146   0.651   1.743 -0.3435 -0.4600  0.3274
  776MOL0     H 7029   9.014   0.613   1.464 -0.5985  0.0125  0.5705
  776MOL0     H 7030   8.970   0.507   1.590 -2.3882  0.4743 -4.6876
  776MOL0     H 7031   9.130   0.398   1.434  0.9059 -0.5265  0.2224
  776MOL0     H 7032   9.204   0.553   1.417 -1.4464  0.5028 -0.3238
  776MOL0     H 7033   9.326   0.538   1.635 -2.6573  1.0469 -0.0687
  776MOL0     H 7034   9.376   0.414   1.540  0.8073 -0.2995  1.5233
  776MOL0     H 7035   9.133   0.357   1.727  0.5056  0.0359  0.3453
  776MOL0     H 7036   9.235   0.247   1.651  1.5756 -0.6033 -0.7895
  776MOL0     H 7037   9.530   0.329   1.781  1.7065  1.0190  2.7941
  776MOL0     H 7038   9.600   0.359   2.137  1.2660  0.8926 -0.7650
  776MOL0     H 7039   9.673   0.323   1.977 -0.4116 -1.2318 -1.4440
  776MOL0     H 7040   9.517   0.121   2.135 -0.7421 -0.6689 -1.8928
  776MOL0     H 7041   9.590   0.094   1.981 -0.8708 -0.0607  0.0383
  776MOL0     H 7042   9.743   0.179   2.223 -1.7561 -1.6234  1.8618
  776MOL0     H 7043   9.729   0.007   2.173 -0.4120  0.8804  0.6159
  776MOL0     H 7044   9.858   0.102   1.950  2.6959  0.2331 -0.1105
  776MOL0     H 7045   9.888   0.224   2.062  1.2114 -0.8184 -0.5450
  776MOL0     H 7046  10.025   0.270   2.217 -1.0772  0.9829  4.4065
  776MOL0     H 7047  10.294   0.404   2.317 -0.6037  0.4460 -0.1016
  776MOL0     H 7048  10.223   0.359   2.477 -0.5264 -2.9045  0.2019
  776MOL0     H 7049  10.124   0.421   2.359  1.1805  1.3349  2.1852
  776MOL0     H 7050  10.689   0.257   2.470 -0.9875 -0.0873  0.0455
  776MOL0     H 7051  10.917   0.236   2.594 -0.1543 -0.5812  3.1376
  776MOL0     H 7052  11.132   0.153   2.646  0.2377 -0.3311  0.2688
  776MOL0     H 7053  11.053   0.172   2.796 -1.9056 -0.8302 -0.2403
  776MOL0     H 7054  11.282   0.106   2.847  1.7159 -1.2181 -0.5614
  776MOL0     H 7055  11.189  -0.034   2.869  4.3108  0.1599  2.8939
  776MOL0     H 7056  11.341   0.018   2.612  0.4831  2.5874  1.9064
  776MOL0     H 7057  11.256  -0.133   2.649 -0.4939 -0.9409  1.2047
  776MOL0     H 7058  11.416  -0.149   2.863 -0.2606 -3.3590 -2.3143
  776MOL0     H 7059  11.504  -0.024   2.771 -0.1547 -0.1435  0.1177
  776MOL0     H 7060  11.574  -0.256   2.745 -4.4352 -0.5274  5.2227
  776MOL0     H 7061  11.421  -0.289   2.649  0.3397  0.6802 -2.6829
  776MOL0     H 7062  11.634  -0.104   2.548 -0.8629  1.1254 -1.5055
  776MOL0     H 7063  11.480  -0.145   2.475  2.0755 -0.8760 -2.1664
  776MOL0     H 7064  11.543  -0.387   2.461 -2.2167  2.2005  0.7872
  776MOL0     H 7065  11.710  -0.337   2.530 -1.6378 -3.1652  1.3423
  776MOL0     H 7066  11.757  -0.220   2.336 -1.6503  2.0549 -1.9462
  776MOL0     H 7067  11.595  -0.218   2.278 -0.2979  0.8769 -0.9464
  776MOL0     H 7068  10.859  -0.188   2.600  5.5047  1.9780  0.4345
  776MOL0     H 7069  10.640  -0.165   2.474  0.9840 -0.5885 -0.3362
  776MOL0     H 7070  10.364  -0.088   2.280 -0.0290 -0.9683 -1.7895
  776MOL0     H 7071  10.151  -0.132   2.140  0.4814 -0.2871 -0.7652
  776MOL0     H 7072   8.648   0.728   1.814 -1.8855 -0.6348  0.5760
  776MOL0     H 7073   8.436   0.679   1.699  1.7901 -1.0257 -2.0802
  776MOL0     H 7074   8.150   0.657   1.538  1.3809 -0.5304  0.3433
  776MOL0     H 7075   7.970   0.522   1.515  1.7683 -0.0566  2.7749
  776MOL0     H 7076   7.684   0.443   1.755 -1.9186  0.6065  2.4181
  776MOL0     H 7077   7.670   0.614   1.781 -1.9408 -1.2194  1.3246
  776MOL0     H 7078   7.444   0.531   1.794 -0.6745 -1.5198 -0.9723
  776MOL0     H 7079   7.467   0.451   1.632  1.1382  0.2931 -1.3115
  776MOL0     H 7080   7.508   0.749   1.644  0.6706 -0.9088 -0.1683
  776MOL0     H 7081   7.443   0.654   1.516  0.3130 -2.0017  0.6703
  776MOL0     H 7082   7.310   0.762   1.768  2.5500 -0.7831  0.0993
  776MOL0     H 7083   7.231   0.618   1.708  0.6289  0.3334  2.3166
  776MOL0     H 7084   7.171   0.942   1.436 -2.8322 -1.9625 -0.8411
  776MOL0     H 7085   7.709   0.824   1.687  1.8500  2.6453 -2.4855
  776MOL0     H 7086   7.793   1.036   1.726  0.3769  0.3503 -1.3190
  776MOL0     H 7087   7.893   0.982   1.858  0.2825  0.2588  0.2675
  776MOL0     H 7088   7.965   1.067   1.721 -0.4361  0.6688 -0.9799
  777MOL0     O 7089   1.164   6.216   2.024  0.8944  0.5255 -0.5100
  777MOL0     C 7090   1.232   6.206   1.922 -0.4260  0.4756  0.4808
  777MOL0     O 7091   1.199   6.258   1.799  0.0177  0.2502  0.0552
  777MOL0     C 7092   1.124   6.372   1.797  0.3035 -0.2658  0.4160
  777MOL0     C 7093   1.007   6.375   1.722 -1.4302 -0.0588  1.0538
  777MOL0     C 7094   0.929   6.490   1.716  0.5049  0.5160 -0.3924
  777MOL0     C 7095   0.962   6.606   1.792  0.9440  0.9331 -0.8557
  777MOL0     O 7096   0.882   6.721   1.785  0.0569 -0.4017 -0.3167
  777MOL0     C 7097   0.851   6.769   1.916 -0.2185 -0.2460  0.3502
  777MOL0     C 7098   0.748   6.879   1.899  0.2768  1.1095  0.5389
  777MOL0     C 7099   0.618   6.843   1.833 -0.6637 -0.4400 -1.4083
  777MOL0     C 7100   0.514   6.956   1.852  0.2602  0.0869 -0.2577
  777MOL0     C 7101   0.378   6.918   1.789  0.1207 -0.1589 -0.1550
  777MOL0     C 7102   0.306   7.048   1.758  0.5809  0.3474  0.1539
  777MOL0     C 7103   0.255   7.115   1.884 -0.1894 -0.1645 -0.2482
  777MOL0     C 7104   0.160   7.239   1.843 -0.8341  0.2554 -0.4752
  777MOL0     N 7105   0.107   7.315   1.953  0.0041  0.5128 -0.0701
  777MOL0     C 7106   0.050   7.272   2.068  0.4291 -0.6383  0.3214
  777MOL0     C 7107   0.011   7.386   2.135  0.8428 -0.0729  0.0667
  777MOL0     C 7108  -0.060   7.394   2.269  0.6066  0.2501  0.1281
  777MOL0     C 7109  -0.015   7.505   2.353 -0.0095 -0.2566  0.2169
  777MOL0     C 7110   0.115   7.481   2.442  0.6068 -0.2731 -0.2000
  777MOL0     C 7111   0.244   7.445   2.366  0.0873 -0.9796 -0.0100
  777MOL0     O 7112   0.355   7.482   2.451 -0.2983 -1.1445 -0.5420
  777MOL0     C 7113   0.466   7.533   2.391 -1.4358  0.4283 -0.2887
  777MOL0     C 7114   0.544   7.626   2.465  0.6705  1.1214 -0.2887
  777MOL0     C 7115   0.663   7.675   2.424 -0.2062 -0.7020 -0.3098
  777MOL0     C 7116   0.733   7.763   2.527  0.1394 -0.3078 -0.1244
  777MOL0     C 7117   0.713   7.636   2.300  0.1877  0.5083  0.5061
  777MOL0     C 7118   0.855   7.670   2.250 -0.0942 -0.0944  0.5766
  777MOL0     O 7119   0.884   7.620   2.128  0.2230 -0.2667  0.2906
  777MOL0     C 7120   1.006   7.648   2.075  0.2524 -0.4950  0.1321
  777MOL0     C 7121   1.104   7.550   2.109 -0.0197 -0.5920  0.9856
  777MOL0     C 7122   1.229   7.566   2.049 -0.8930 -0.4191 -0.0185
  777MOL0     C 7123   1.254   7.676   1.958 -0.5781  1.4416  0.0989
  777MOL0     O 7124   1.361   7.677   1.883 -0.8055 -0.3943 -0.1642
  777MOL0     C 7125   1.471   7.751   1.950  0.9110  0.1592  0.1887
  777MOL0     C 7126   1.614   7.709   1.904  0.2488 -0.0039  0.5205
  777MOL0     C 7127   1.694   7.822   1.855  0.5043 -0.5735 -0.4564
  777MOL0     C 7128   1.671   7.861   1.715  0.3581  0.6368  0.1566
  777MOL0     C 7129   1.757   7.985   1.682  0.6372  0.0524  0.6292
  777MOL0     C 7130   1.712   8.057   1.556 -0.0907  0.2687  0.0733
  777MOL0     C 7131   1.774   8.193   1.544  0.1045 -0.3076  0.0943
  777MOL0     C 7132   1.929   8.198   1.519  1.0885 -0.0703 -0.8209
  777MOL0    Cl 7133   2.042   8.154   1.651  0.1523 -0.1180 -0.4324
  777MOL0     C 7134   1.151   7.762   1.924 -0.3091 -0.1370  0.0533
  777MOL0     C 7135   1.023   7.749   1.984 -0.8628 -0.2239  0.4793
  777MOL0     O 7136   0.926   7.747   2.313  0.1629 -0.1979 -0.6269
  777MOL0     C 7137   0.642   7.541   2.226  0.0477 -0.1765  0.2659
  777MOL0     C 7138   0.515   7.502   2.259  0.3390  0.7629 -0.6768
  777MOL0     N 7139   0.047   7.500   2.051  0.5282  0.2889 -0.0967
  777MOL0     N 7140   0.104   7.448   1.956  0.7202 -0.3286  0.4107
  777MOL0     C 7141   1.081   6.597   1.866 -0.0187 -0.7116  0.6198
  777MOL0     C 7142   1.170   6.483   1.873 -0.1441  0.3087 -0.4442
  777MOL0     C 7143   1.346   6.107   1.921  0.6445 -0.4907  0.1157
  777MOL0     C 7144   1.465   6.163   1.871 -0.0574  0.3889  0.2721
  777MOL0     C 7145   1.578   6.082   1.870  0.2615 -0.7705 -0.0402
  777MOL0     C 7146   1.582   5.947   1.915  0.2008 -0.1683  0.5244
  777MOL0     O 7147   1.695   5.869   1.923  0.0325  0.0006  0.4765
  777MOL0     C 7148   1.830   5.938   1.912  1.0105  0.3792 -0.6006
  777MOL0     C 7149   1.937   5.833   1.916 -0.4786 -0.5504  0.7479
  777MOL0     C 7150   2.083   5.871   1.903 -0.1933  0.5105 -0.0669
  777MOL0     C 7151   2.146   5.958   2.015  0.1702 -0.1448  1.2282
  777MOL0     C 7152   2.156   5.894   2.149  0.5901 -0.1693  0.3800
  777MOL0     C 7153   2.149   5.845   2.255  0.0252  0.2269 -0.3527
  777MOL0     C 7154   1.457   5.895   1.955 -0.6638  0.7228 -0.0187
  777MOL0     C 7155   1.345   5.975   1.966  0.3155 -0.4682  0.2423
  777MOL0     C 7156   1.214   5.912   2.020 -0.0676 -0.2985 -0.1894
  777MOL0     H 7157   0.986   6.285   1.665  5.4171 -2.7678  1.8141
  777MOL0     H 7158   0.838   6.497   1.656 -1.5099  0.1261  2.4553
  777MOL0     H 7159   0.934   6.821   1.965 -0.1209  1.9944 -1.9612
  777MOL0     H 7160   0.821   6.686   1.981  1.7286 -2.4151 -1.3712
  777MOL0     H 7161   0.721   6.921   1.996 -0.6026  2.3528 -0.2152
  777MOL0     H 7162   0.795   6.967   1.854  0.5721  2.6033  3.5482
  777MOL0     H 7163   0.640   6.837   1.726 -1.2751  0.4019 -1.5942
  777MOL0     H 7164   0.579   6.749   1.871 -1.0813 -0.4734 -1.9013
  777MOL0     H 7165   0.489   6.979   1.956  0.1257  0.7000 -0.4243
  777MOL0     H 7166   0.551   7.049   1.808  0.9757  0.0165  0.1749
  777MOL0     H 7167   0.318   6.859   1.859  0.6981 -0.5950 -0.0259
  777MOL0     H 7168   0.394   6.851   1.704 -1.5433  0.1606 -0.7609
  777MOL0     H 7169   0.361   7.124   1.702  0.1909  1.8616  1.7021
  777MOL0     H 7170   0.229   7.019   1.686  0.7687  0.6513 -0.1711
  777MOL0     H 7171   0.341   7.150   1.941 -1.6840  2.3632  0.6632
  777MOL0     H 7172   0.194   7.042   1.938  0.6892  0.4217  1.5995
  777MOL0     H 7173   0.217   7.307   1.779  0.2027 -1.0350 -0.9783
  777MOL0     H 7174   0.084   7.205   1.771  2.7420 -1.1293 -3.9572
  777MOL0     H 7175   0.036   7.167   2.092 -1.0519 -0.5232  0.0712
  777MOL0     H 7176  -0.048   7.299   2.322 -1.5567  0.5874  1.3344
  777MOL0     H 7177  -0.168   7.404   2.252  0.4702 -1.6998 -0.4016
  777MOL0     H 7178  -0.000   7.596   2.295 -2.6291  0.7526  0.9818
  777MOL0     H 7179  -0.099   7.524   2.421  0.2131 -0.1572  0.4649
  777MOL0     H 7180   0.126   7.564   2.513 -1.5406  0.4676 -0.6477
  777MOL0     H 7181   0.079   7.399   2.504 -0.8776 -0.5192 -1.3454
  777MOL0     H 7182   0.250   7.340   2.335 -0.3313 -2.0726  3.2415
  777MOL0     H 7183   0.244   7.499   2.271 -2.5196 -0.0867  0.4126
  777MOL0     H 7184   0.512   7.641   2.568  1.1727  1.6796 -0.2126
  777MOL0     H 7185   0.772   7.848   2.470 -2.1888 -1.1305 -3.2127
  777MOL0     H 7186   0.807   7.704   2.582  2.0391  1.4661 -0.6499
  777MOL0     H 7187   0.653   7.791   2.596  0.1760 -1.0897  0.2429
  777MOL0     H 7188   1.076   7.466   2.172 -1.0090 -2.7813 -2.1634
  777MOL0     H 7189   1.310   7.496   2.068  0.4382  1.0681  0.0736
  777MOL0     H 7190   1.472   7.859   1.935  1.5415  0.0001 -1.0595
  777MOL0     H 7191   1.459   7.746   2.059  0.8223 -0.8026  0.1438
  777MOL0     H 7192   1.666   7.647   1.977 -0.9745  0.0478  1.4594
  777MOL0     H 7193   1.596   7.643   1.818  2.3490  1.7260 -1.3607
  777MOL0     H 7194   1.799   7.795   1.863  0.5124 -0.3263  0.3524
  777MOL0     H 7195   1.697   7.913   1.916 -1.0515  0.1471 -1.3823
  777MOL0     H 7196   1.565   7.866   1.688 -0.1751 -3.1972  0.9496
  777MOL0     H 7197   1.703   7.783   1.645  1.8923  0.5487  0.9094
  777MOL0     H 7198   1.735   8.049   1.768 -3.7223  0.4342 -0.4913
  777MOL0     H 7199   1.862   7.957   1.685  1.1832  1.7178 -0.9772
  777MOL0     H 7200   1.606   8.070   1.578 -0.7262 -2.0676 -1.2620
  777MOL0     H 7201   1.718   7.998   1.464 -1.2424  0.4374 -0.1275
  777MOL0     H 7202   1.761   8.261   1.629 -1.9292  1.0479 -1.2064
  777MOL0     H 7203   1.733   8.249   1.459  1.0690  1.2635  0.6075
  777MOL0     H 7204   1.948   8.303   1.493 -4.0709  1.3452  0.1902
  777MOL0     H 7205   1.952   8.134   1.433  2.1648  0.1435 -0.7165
  777MOL0     H 7206   1.184   7.828   1.844 -2.1993  1.1732  0.2937
  777MOL0     H 7207   0.951   7.827   1.963  0.7634  1.2951  0.3523
  777MOL0     H 7208   0.649   7.514   2.121 -0.0278 -0.3191  0.2968
  777MOL0     H 7209   0.456   7.440   2.192 -0.0559  1.9095 -1.4250
  777MOL0     H 7210   1.087   6.690   1.922  0.2571 -0.8756  0.8655
  777MOL0     H 7211   1.255   6.488   1.939 -0.1331 -1.0676 -0.3347
  777MOL0     H 7212   1.485   6.257   1.821  0.9790  0.5377  0.9408
  777MOL0     H 7213   1.670   6.122   1.827 -0.0221 -1.1014 -0.9826
  777MOL0     H 7214   1.851   6.000   1.824  3.9907 -1.2314 -1.1419
  777MOL0     H 7215   1.832   6.008   1.996 -2.5054  1.2408 -1.0703
  777MOL0     H 7216   1.916   5.759   1.839 -0.1593 -0.8242  0.9230
  777MOL0     H 7217   1.927   5.796   2.019 -1.4235  0.6513  1.1148
  777MOL0     H 7218   2.143   5.780   1.899 -0.5503  0.3172 -1.2062
  777MOL0     H 7219   2.113   5.910   1.805  0.5574  0.7207  0.2326
  777MOL0     H 7220   2.080   6.045   2.023 -1.2961 -1.1333  0.3772
  777MOL0     H 7221   2.245   5.992   1.985 -1.0513  2.4297 -0.1598
  777MOL0     H 7222   2.153   5.810   2.356  3.4007  2.9783  0.6734
  777MOL0     H 7223   1.455   5.794   1.996  1.8996  0.1398 -1.1173
  777MOL0     H 7224   1.122   5.950   1.973 -0.7540 -0.7530  0.7586
  777MOL0     H 7225   1.225   5.804   2.023  0.0743 -0.3292 -1.4068
  777MOL0     H 7226   1.200   5.945   2.123 -1.0723 -0.2970 -0.3137
  778MOL0     O 7227   6.694   5.510   8.971 -0.6198  1.0216  1.2755
  778MOL0     C 7228   6.744   5.421   8.907 -0.0204  0.2674  0.3747
  778MOL0     O 7229   6.778   5.425   8.776  0.1122  0.2749 -0.5985
  778MOL0     C 7230   6.789   5.544   8.705 -0.4418  1.1043  0.1254
  778MOL0     C 7231   6.845   5.663   8.772  0.2626  0.2963 -1.1723
  778MOL0     C 7232   6.859   5.784   8.696  0.0230  0.9589  0.4267
  778MOL0     C 7233   6.814   5.795   8.567 -0.5016  0.3821  0.1007
  778MOL0     O 7234   6.834   5.916   8.511 -0.6792 -0.1342  0.1451
  778MOL0     C 7235   6.767   5.937   8.383 -0.6516 -0.3404  0.5146
  778MOL0     C 7236   6.764   6.083   8.351 -0.3026  1.0424 -0.0735
  778MOL0     C 7237   6.726   6.119   8.198 -0.3001  0.2150 -0.6194
  778MOL0     C 7238   6.775   6.265   8.180  0.8166 -0.4024  0.6233
  778MOL0     C 7239   6.704   6.322   8.048  0.2153  1.3063 -0.0313
  778MOL0     C 7240   6.700   6.472   8.020  0.0985  0.2859  0.1581
  778MOL0     C 7241   6.840   6.528   8.015  0.3220  1.1241 -0.7816
  778MOL0     C 7242   6.845   6.659   7.945  0.8422  0.8090  0.1552
  778MOL0     N 7243   6.952   6.752   7.993  0.4238  0.9961  0.0193
  778MOL0     C 7244   6.929   6.826   8.108 -0.6052  0.0458  1.4290
  778MOL0     C 7245   7.031   6.913   8.108 -0.4619 -0.2552  0.6548
  778MOL0     C 7246   7.067   7.025   8.206  0.0244 -0.0574  0.0519
  778MOL0     C 7247   7.100   6.972   8.350 -0.4447 -0.1586  0.3822
  778MOL0     C 7248   7.146   7.089   8.435 -0.7698 -0.3464 -0.9271
  778MOL0     C 7249   7.205   7.051   8.570  0.3392  0.1554  0.9864
  778MOL0     O 7250   7.132   6.954   8.638  0.7419 -0.0750  0.9815
  778MOL0     C 7251   7.055   7.013   8.741  0.7730 -0.4903  0.3899
  778MOL0     C 7252   6.910   7.011   8.722 -0.1073  0.2369 -0.6458
  778MOL0     C 7253   6.825   7.073   8.813  0.4715  0.2492  0.1510
  778MOL0     C 7254   6.677   7.051   8.761  0.1426 -0.3056  0.0241
  778MOL0     C 7255   6.879   7.135   8.930 -0.5316 -0.3902 -0.2286
  778MOL0     C 7256   6.801   7.210   9.031  0.6137 -0.4066  0.8543
  778MOL0     O 7257   6.871   7.253   9.154  0.0051  0.3282  0.5556
  778MOL0     C 7258   6.827   7.349   9.245  0.0309 -0.5108  0.5199
  778MOL0     C 7259   6.924   7.407   9.327 -0.4462  0.1785  0.1896
  778MOL0     C 7260   6.883   7.515   9.408 -0.6626  0.4150  0.4892
  778MOL0     C 7261   6.753   7.571   9.406 -1.1257  0.0506 -0.6433
  778MOL0     O 7262   6.710   7.677   9.484 -0.2607 -0.0364 -0.6774
  778MOL0     C 7263   6.599   7.648   9.575 -0.6820 -0.2085  0.2258
  778MOL0     C 7264   6.665   7.570   9.698  0.0449  1.1000  1.1307
  778MOL0     C 7265   6.756   7.655   9.785  0.5086 -0.1969 -0.2485
  778MOL0     C 7266   6.784   7.574   9.905  0.0090  1.0170  0.9572
  778MOL0     C 7267   6.862   7.659  10.011 -0.4235 -0.7479  1.2466
  778MOL0     C 7268   6.912   7.568  10.134 -0.2560 -0.6145 -0.6758
  778MOL0     C 7269   6.930   7.650  10.260  1.0313 -0.0436 -0.2729
  778MOL0     C 7270   7.013   7.564  10.360 -0.1042  0.4759 -0.0135
  778MOL0    Cl 7271   6.906   7.430  10.437  0.0588  0.5927  0.1192
  778MOL0     C 7272   6.663   7.515   9.318  0.0038 -0.0500  0.4749
  778MOL0     C 7273   6.700   7.397   9.253  0.5658  0.4952 -0.3705
  778MOL0     O 7274   6.686   7.232   8.999 -0.5636 -0.3778  0.9086
  778MOL0     C 7275   7.020   7.140   8.939  0.2636  0.9555 -0.8581
  778MOL0     C 7276   7.102   7.077   8.847  0.7506  0.6141  1.2069
  778MOL0     N 7277   7.115   6.896   8.001  0.1922 -0.5281  0.2530
  778MOL0     N 7278   7.066   6.800   7.932 -0.7326  0.2667  0.4612
  778MOL0     C 7279   6.760   5.678   8.494  0.7951 -0.1952 -0.6174
  778MOL0     C 7280   6.754   5.552   8.572  0.2634  0.3757 -0.9454
  778MOL0     C 7281   6.741   5.292   8.976 -0.4460 -0.5154  0.3457
  778MOL0     C 7282   6.745   5.179   8.895  0.1972 -0.3551  0.5416
  778MOL0     C 7283   6.733   5.059   8.962 -0.4168 -0.2378  0.4643
  778MOL0     C 7284   6.715   5.046   9.100  0.4543  0.3572  0.4156
  778MOL0     O 7285   6.678   4.927   9.152  0.1155  0.6264 -0.3830
  778MOL0     C 7286   6.787   4.870   9.232 -1.2518  1.5974 -0.1233
  778MOL0     C 7287   6.727   4.763   9.327 -0.0913 -0.0724 -0.3917
  778MOL0     C 7288   6.670   4.841   9.453  0.0460 -0.3419 -0.7686
  778MOL0     C 7289   6.600   4.744   9.545  0.1973 -0.2452  1.1612
  778MOL0     C 7290   6.698   4.646   9.597 -0.4859  0.7848  0.0684
  778MOL0     C 7291   6.767   4.558   9.653 -0.1113 -0.0183  0.8044
  778MOL0     C 7292   6.730   5.152   9.186 -0.5459 -0.5899  0.0382
  778MOL0     C 7293   6.741   5.275   9.119 -0.3731  0.2824  0.0629
  778MOL0     C 7294   6.756   5.395   9.221 -0.2325  0.4559 -0.4002
  778MOL0     H 7295   6.889   5.670   8.871 -1.8682  0.1982 -0.1750
  778MOL0     H 7296   6.911   5.868   8.741  2.0386 -0.7288  1.4314
  778MOL0     H 7297   6.664   5.901   8.391 -0.7542 -0.3547 -0.7361
  778MOL0     H 7298   6.811   5.872   8.307  0.8859  1.3604 -0.1035
  778MOL0     H 7299   6.683   6.130   8.408 -0.1278  2.4680 -0.9535
  778MOL0     H 7300   6.858   6.121   8.394  1.1585 -3.2707  1.0632
  778MOL0     H 7301   6.789   6.062   8.128  3.3000  1.3291  1.4620
  778MOL0     H 7302   6.621   6.112   8.168 -0.7690  1.3555  0.6673
  778MOL0     H 7303   6.740   6.315   8.271  0.4873  0.2703  0.1287
  778MOL0     H 7304   6.884   6.277   8.176  0.9540 -1.0129  1.8653
  778MOL0     H 7305   6.599   6.292   8.056  0.1897  1.4485  0.1684
  778MOL0     H 7306   6.751   6.280   7.958 -0.8964  0.9618 -0.4659
  778MOL0     H 7307   6.645   6.469   7.925  1.1229  2.3391 -0.5479
  778MOL0     H 7308   6.642   6.529   8.093 -0.8946  1.6681 -1.6123
  778MOL0     H 7309   6.899   6.457   7.956 -1.9110  0.1149 -1.9718
  778MOL0     H 7310   6.869   6.541   8.119 -1.9523  0.3177  0.0130
  778MOL0     H 7311   6.865   6.640   7.839  1.6466 -1.9218  0.7285
  778MOL0     H 7312   6.746   6.706   7.947 -1.2297 -3.1294  0.2448
  778MOL0     H 7313   6.851   6.811   8.182  0.6934 -0.0856  2.8223
  778MOL0     H 7314   6.985   7.096   8.192 -0.5280 -0.8403 -0.8881
  778MOL0     H 7315   7.162   7.068   8.173  0.0570  1.2857  1.7982
  778MOL0     H 7316   7.007   6.930   8.390 -1.1735 -0.6169 -1.6629
  778MOL0     H 7317   7.176   6.894   8.350 -0.3931 -0.1070  0.6514
  778MOL0     H 7318   7.223   7.150   8.387  0.8181  0.3033  2.1869
  778MOL0     H 7319   7.062   7.156   8.455 -1.7147 -1.2649 -1.7056
  778MOL0     H 7320   7.306   7.013   8.551 -0.2533 -0.5660 -0.9679
  778MOL0     H 7321   7.222   7.140   8.631 -0.1948 -0.8102  2.6145
  778MOL0     H 7322   6.875   6.962   8.632  0.0735 -1.0728 -0.0143
  778MOL0     H 7323   6.608   6.998   8.828  0.7542 -1.8144 -0.5084
  778MOL0     H 7324   6.667   6.995   8.667 -1.5864 -2.4709  1.4198
  778MOL0     H 7325   6.627   7.147   8.742 -1.4602 -1.1323 -0.1072
  778MOL0     H 7326   7.026   7.369   9.319 -1.2932 -1.9460 -2.8902
  778MOL0     H 7327   6.965   7.560   9.463 -0.7706  2.3426 -0.8195
  778MOL0     H 7328   6.558   7.746   9.603 -2.2017 -0.6328 -0.4734
  778MOL0     H 7329   6.514   7.601   9.527 -1.6127  2.5107 -0.9847
  778MOL0     H 7330   6.584   7.525   9.757  0.1698  0.4701  0.8355
  778MOL0     H 7331   6.730   7.489   9.662  0.8701  2.0684  0.3916
  778MOL0     H 7332   6.709   7.751   9.807  1.0151  0.1504 -0.6561
  778MOL0     H 7333   6.854   7.670   9.738  0.0151  2.2167 -0.6219
  778MOL0     H 7334   6.833   7.481   9.875  0.5833  1.5705  0.1507
  778MOL0     H 7335   6.687   7.544   9.944 -1.6825  0.0870 -3.4438
  778MOL0     H 7336   6.953   7.700   9.967 -2.0931  2.5419  0.5704
  778MOL0     H 7337   6.799   7.743  10.041 -0.6209 -0.9688  1.4620
  778MOL0     H 7338   7.002   7.514  10.106  0.1230  0.6348 -2.0239
  778MOL0     H 7339   6.829   7.502  10.159 -0.6251 -0.4710 -1.4772
  778MOL0     H 7340   6.843   7.676  10.321  2.2939 -0.1758  1.6728
  778MOL0     H 7341   6.980   7.742  10.227 -0.2087  0.4678 -0.7728
  778MOL0     H 7342   7.050   7.636  10.433 -2.6914 -1.7966  3.8876
  778MOL0     H 7343   7.108   7.519  10.328  0.1022  1.2469 -0.4992
  778MOL0     H 7344   6.560   7.548   9.306  0.2660  0.2612 -1.1974
  778MOL0     H 7345   6.625   7.344   9.196  2.0890 -2.1181 -0.0739
  778MOL0     H 7346   7.073   7.175   9.027 -0.1361 -1.3382  0.3664
  778MOL0     H 7347   7.210   7.085   8.858  1.0066  5.2021 -2.0874
  778MOL0     H 7348   6.727   5.691   8.391  1.3687  4.4979 -0.4086
  778MOL0     H 7349   6.716   5.455   8.541 -1.7645 -0.1267  2.5362
  778MOL0     H 7350   6.763   5.195   8.789  4.4979  1.5391  1.3752
  778MOL0     H 7351   6.744   4.958   8.924  2.5703 -0.0055  0.4232
  778MOL0     H 7352   6.862   4.822   9.168  0.1344  0.4204  2.2563
  778MOL0     H 7353   6.854   4.941   9.281 -0.0757  0.4641 -0.0380
  778MOL0     H 7354   6.804   4.692   9.360  0.4458 -0.0276 -1.4883
  778MOL0     H 7355   6.645   4.714   9.274  1.0317 -2.3200 -0.1602
  778MOL0     H 7356   6.758   4.874   9.509 -0.8290 -3.6342  2.9358
  778MOL0     H 7357   6.606   4.927   9.430 -1.0722 -0.3377  1.9763
  778MOL0     H 7358   6.521   4.691   9.491  1.0782  0.2006 -0.6290
  778MOL0     H 7359   6.555   4.798   9.629 -3.9365 -2.0619  0.3394
  778MOL0     H 7360   6.820   4.479   9.702  1.4099  0.3131 -0.2375
  778MOL0     H 7361   6.728   5.160   9.294  1.2376  3.4034 -0.0327
  778MOL0     H 7362   6.791   5.352   9.316 -0.0099 -1.9222 -1.5017
  778MOL0     H 7363   6.836   5.465   9.193  1.0040 -0.5491  0.4914
  778MOL0     H 7364   6.664   5.456   9.220 -0.4818  0.1035  0.2354
  779MOL0     O 7365   4.326  11.151   0.663 -0.3455  0.4698  0.2930
  779MOL0     C 7366   4.371  11.104   0.769 -0.2879 -0.2965 -0.1634
  779MOL0     O 7367   4.403  11.177   0.876  1.0447 -0.0911  0.1709
  779MOL0     C 7368   4.399  11.313   0.875  0.4947 -0.2738 -0.0317
  779MOL0     C 7369   4.463  11.387   0.781 -0.3791  0.1593 -0.0410
  779MOL0     C 7370   4.470  11.531   0.791 -0.4064 -0.4625 -0.3259
  779MOL0     C 7371   4.417  11.600   0.905  1.3432  0.2541  0.7480
  779MOL0     O 7372   4.416  11.744   0.914 -0.2252  0.1854 -0.0180
  779MOL0     C 7373   4.531  11.814   0.869  0.7366 -1.0536 -0.4669
  779MOL0     C 7374   4.540  11.968   0.912  0.1455 -0.3046  0.0345
  779MOL0     C 7375   4.540  11.989   1.060 -0.6898  0.1177 -0.3175
  779MOL0     C 7376   4.678  11.939   1.124  0.4742  1.0898  0.3123
  779MOL0     C 7377   4.679  11.980   1.267 -0.1377 -0.4929  0.1674
  779MOL0     C 7378   4.789  11.906   1.347  0.3235  0.2407  0.5475
  779MOL0     C 7379   4.839  11.974   1.473  0.5038 -0.0946  0.7117
  779MOL0     C 7380   4.955  12.074   1.442  0.8939 -0.3169 -0.8679
  779MOL0     N 7381   5.008  12.120   1.578  0.0402  0.0155  0.1546
  779MOL0     C 7382   5.097  12.048   1.653  0.7648 -0.5030 -0.5292
  779MOL0     C 7383   5.121  12.133   1.761  0.1163  0.7904 -0.2160
  779MOL0     C 7384   5.219  12.099   1.884  0.4579  0.3417 -0.0822
  779MOL0     C 7385   5.160  12.176   2.000 -0.1873 -0.1310 -0.2942
  779MOL0     C 7386   5.209  12.106   2.133 -0.1843 -1.1652 -0.3523
  779MOL0     C 7387   5.180  12.188   2.253 -0.3283 -0.1721 -0.2515
  779MOL0     O 7388   5.264  12.302   2.246  0.1971 -1.0053 -0.2765
  779MOL0     C 7389   5.267  12.381   2.360 -0.1314  0.3438 -0.7668
  779MOL0     C 7390   5.389  12.439   2.381  0.2861  1.0771 -0.2878
  779MOL0     C 7391   5.410  12.532   2.478  0.1691  0.0573 -0.3431
  779MOL0     C 7392   5.545  12.594   2.490 -0.3221 -0.4095  0.5728
  779MOL0     C 7393   5.299  12.577   2.558 -0.8223  0.3279 -0.1883
  779MOL0     C 7394   5.298  12.686   2.652 -0.4242 -0.9681 -0.2037
  779MOL0     O 7395   5.204  12.678   2.746  0.3447 -0.2649  0.7095
  779MOL0     C 7396   5.167  12.784   2.824 -0.0504 -0.4938  0.2035
  779MOL0     C 7397   5.107  12.901   2.773  0.5779 -0.2530 -0.0037
  779MOL0     C 7398   5.072  13.006   2.857  0.3970 -0.9581 -0.0997
  779MOL0     C 7399   5.108  13.003   2.989 -0.0104 -0.6218  0.2770
  779MOL0     O 7400   5.077  13.104   3.074  0.1503 -0.1727 -0.5925
  779MOL0     C 7401   4.945  13.157   3.066  0.1154 -0.3778  0.2291
  779MOL0     C 7402   4.929  13.251   3.173 -0.0029 -0.6548 -1.0339
  779MOL0     C 7403   5.040  13.348   3.197 -0.1120  0.9538  0.2003
  779MOL0     C 7404   4.986  13.459   3.291  0.1283  0.7184 -0.2084
  779MOL0     C 7405   5.061  13.591   3.257 -0.7775 -0.7082 -0.8255
  779MOL0     C 7406   5.212  13.579   3.265 -0.3146 -0.9251 -0.0816
  779MOL0     C 7407   5.272  13.724   3.280 -0.1975 -0.8553 -0.2510
  779MOL0     C 7408   5.407  13.749   3.205  0.2656  0.4929  0.2686
  779MOL0    Cl 7409   5.529  13.700   3.328  0.1453 -0.1552  0.0721
  779MOL0     C 7410   5.156  12.884   3.044  0.2553  0.3135 -0.2971
  779MOL0     C 7411   5.185  12.772   2.960 -0.5818  0.3630 -0.5552
  779MOL0     O 7412   5.364  12.787   2.643 -0.4178  0.0398 -0.2326
  779MOL0     C 7413   5.173  12.515   2.536  0.1113 -0.2147  0.0301
  779MOL0     C 7414   5.156  12.424   2.434 -0.4970  0.3988  0.3745
  779MOL0     N 7415   5.075  12.259   1.736 -0.4004 -0.4648  0.5380
  779MOL0     N 7416   5.002  12.249   1.625  0.2938 -0.5889 -0.5286
  779MOL0     C 7417   4.348  11.522   1.000 -0.4991 -1.3509 -0.7491
  779MOL0     C 7418   4.342  11.375   0.988 -0.0100  0.9373 -0.3702
  779MOL0     C 7419   4.399  10.959   0.780 -0.6436  0.0107 -0.8648
  779MOL0     C 7420   4.525  10.910   0.809 -0.5266  0.0675 -0.1710
  779MOL0     C 7421   4.561  10.779   0.812 -0.0610 -1.1103  0.3791
  779MOL0     C 7422   4.459  10.688   0.762  0.4406  0.6272  0.1324
  779MOL0     O 7423   4.465  10.556   0.734 -0.3956 -0.0153  0.6523
  779MOL0     C 7424   4.599  10.510   0.698  0.6608  0.1239 -0.6917
  779MOL0     C 7425   4.654  10.585   0.578  0.3448  0.4690 -0.3954
  779MOL0     C 7426   4.750  10.495   0.500 -0.4571  0.2661  0.0521
  779MOL0     C 7427   4.784  10.557   0.365 -0.1092  0.2776 -0.2263
  779MOL0     C 7428   4.862  10.468   0.275  0.3543 -0.0766  0.0385
  779MOL0     C 7429   4.909  10.396   0.192  0.5955 -0.1341  0.2271
  779MOL0     C 7430   4.326  10.732   0.732 -0.0526  1.5960 -0.8925
  779MOL0     C 7431   4.293  10.867   0.748 -0.3725 -0.5008  0.1368
  779MOL0     C 7432   4.152  10.912   0.719 -0.1325 -0.1012  0.1232
  779MOL0     H 7433   4.509  11.354   0.689 -0.2232  3.0994 -1.1145
  779MOL0     H 7434   4.528  11.576   0.712  1.5079 -0.1800  1.1866
  779MOL0     H 7435   4.544  11.806   0.760 -0.2492  1.4514 -0.8514
  779MOL0     H 7436   4.621  11.772   0.913  1.0991  0.2988  0.1298
  779MOL0     H 7437   4.631  12.015   0.872  0.7257  0.7566  2.4551
  779MOL0     H 7438   4.457  12.027   0.870  1.9135  1.8750 -0.6218
  779MOL0     H 7439   4.523  12.094   1.083  0.3506 -0.0064  1.1904
  779MOL0     H 7440   4.457  11.935   1.106 -0.5923  2.2942  2.7084
  779MOL0     H 7441   4.688  11.830   1.122  0.8636  1.1085 -2.1155
  779MOL0     H 7442   4.764  11.979   1.070  1.3959 -0.9716  0.1655
  779MOL0     H 7443   4.581  11.968   1.314 -0.4407  0.0155 -0.3254
  779MOL0     H 7444   4.695  12.088   1.265 -0.1531 -0.4739  0.8960
  779MOL0     H 7445   4.751  11.808   1.376  1.5220 -0.0366  1.2586
  779MOL0     H 7446   4.872  11.878   1.281 -1.3804 -2.0407 -0.7532
  779MOL0     H 7447   4.869  11.897   1.544 -1.1786 -0.8146  0.6842
  779MOL0     H 7448   4.752  12.032   1.504 -0.5084 -0.5283 -1.1707
  779MOL0     H 7449   5.021  12.007   1.387 -1.0517 -2.6136 -0.5671
  779MOL0     H 7450   4.915  12.155   1.380 -1.3400 -1.3231 -0.8293
  779MOL0     H 7451   5.147  11.953   1.635  3.0111  0.5170 -0.0235
  779MOL0     H 7452   5.322  12.132   1.873  1.6255 -1.1766  4.2780
  779MOL0     H 7453   5.221  11.990   1.894  0.9574  0.4456  1.0212
  779MOL0     H 7454   5.191  12.279   1.978  0.8678 -0.3620  0.0510
  779MOL0     H 7455   5.051  12.172   1.998 -0.2821 -2.5784  2.8591
  779MOL0     H 7456   5.154  12.012   2.143  0.4254 -1.8132 -2.5728
  779MOL0     H 7457   5.315  12.079   2.134 -0.0780 -0.8049 -1.1854
  779MOL0     H 7458   5.075  12.217   2.266  0.0754  0.1786  3.0354
  779MOL0     H 7459   5.202  12.118   2.333  0.5857 -0.7588 -0.9977
  779MOL0     H 7460   5.463  12.407   2.308 -0.8372 -1.0607 -0.5651
  779MOL0     H 7461   5.613  12.513   2.461 -2.1347 -2.3006  1.2794
  779MOL0     H 7462   5.577  12.634   2.587  3.4447 -1.3746 -0.1384
  779MOL0     H 7463   5.543  12.671   2.413  1.4485 -2.8478 -2.0737
  779MOL0     H 7464   5.075  12.900   2.669 -0.6070  2.0075  0.2730
  779MOL0     H 7465   5.027  13.091   2.807 -2.1039 -2.6837 -0.9809
  779MOL0     H 7466   4.930  13.212   2.973  0.5427 -0.7833 -0.0813
  779MOL0     H 7467   4.861  13.088   3.070 -1.9412  2.0171  0.8391
  779MOL0     H 7468   4.842  13.312   3.147 -3.3023 -3.9352  1.4652
  779MOL0     H 7469   4.909  13.205   3.270  5.0737  0.2781  0.7827
  779MOL0     H 7470   5.071  13.382   3.098  0.1744 -1.7053 -0.7202
  779MOL0     H 7471   5.121  13.293   3.246 -0.3112  1.1417  0.7467
  779MOL0     H 7472   5.006  13.431   3.395 -0.7198 -1.7836 -0.6301
  779MOL0     H 7473   4.878  13.471   3.280  0.1162 -0.8568 -2.6227
  779MOL0     H 7474   5.042  13.619   3.153 -1.2962 -0.8377 -0.7686
  779MOL0     H 7475   5.020  13.673   3.317 -0.0594 -0.5061 -0.6019
  779MOL0     H 7476   5.247  13.540   3.169 -2.1173  0.6423 -1.4534
  779MOL0     H 7477   5.234  13.519   3.354 -1.6728 -3.3315 -1.2714
  779MOL0     H 7478   5.297  13.752   3.382  1.3920 -2.7151 -0.0809
  779MOL0     H 7479   5.211  13.804   3.236  0.1751 -0.4564 -0.0412
  779MOL0     H 7480   5.412  13.854   3.177  1.5854  1.0329  2.3574
  779MOL0     H 7481   5.431  13.690   3.116 -1.8526 -0.1478  0.0480
  779MOL0     H 7482   5.179  12.869   3.149 -2.7647  1.8797  0.7064
  779MOL0     H 7483   5.220  12.681   3.008 -0.0896  1.6823  1.7565
  779MOL0     H 7484   5.078  12.535   2.585 -0.5429 -0.5762 -1.0734
  779MOL0     H 7485   5.051  12.402   2.415 -1.1141  1.2567  2.5077
  779MOL0     H 7486   4.305  11.575   1.084 -1.1568  1.8980 -2.9370
  779MOL0     H 7487   4.291  11.319   1.065  2.5605 -1.1154 -0.0584
  779MOL0     H 7488   4.610  10.975   0.827 -0.4600  0.2382 -1.0855
  779MOL0     H 7489   4.664  10.750   0.831  0.7612 -0.6822 -2.7908
  779MOL0     H 7490   4.658  10.520   0.790 -0.1829  2.5777 -0.3291
  779MOL0     H 7491   4.589  10.405   0.671 -0.8151 -0.1863  0.8923
  779MOL0     H 7492   4.708  10.673   0.614 -1.0304  1.7943 -1.4831
  779MOL0     H 7493   4.573  10.621   0.514  0.5013  1.9995  0.2311
  779MOL0     H 7494   4.842  10.483   0.558 -1.3331 -0.5826  1.3341
  779MOL0     H 7495   4.713  10.392   0.497 -0.0953  0.1580 -1.1533
  779MOL0     H 7496   4.847  10.645   0.385  1.7269 -1.3230  1.4243
  779MOL0     H 7497   4.690  10.586   0.319 -1.8536 -2.3434  1.4095
  779MOL0     H 7498   4.939  10.326   0.116 -2.9595  1.3060 -2.8258
  779MOL0     H 7499   4.248  10.659   0.711  1.8184 -0.2626 -1.6247
  779MOL0     H 7500   4.079  10.831   0.716  1.4146 -1.7547  2.8250
  779MOL0     H 7501   4.122  10.968   0.808 -1.4046 -2.6751  1.4013
  779MOL0     H 7502   4.148  10.976   0.630  1.3953 -0.9380 -0.6071
  780MOL0     O 7503   5.098   3.783  10.195 -1.1819  0.6479 -0.3206
  780MOL0     C 7504   5.159   3.884  10.147 -0.5048 -0.0055 -0.0821
  780MOL0     O 7505   5.159   4.011  10.202 -0.5530 -0.2603  0.1576
  780MOL0     C 7506   5.096   4.042  10.316 -0.2563  0.2370 -0.6851
  780MOL0     C 7507   4.995   4.141  10.312  0.4300 -0.1054  0.2522
  780MOL0     C 7508   4.915   4.163  10.419 -0.1794  0.5140 -0.4074
  780MOL0     C 7509   4.936   4.095  10.540  0.0977 -0.7702  0.2227
  780MOL0     O 7510   4.854   4.121  10.641 -0.0272  1.0818  0.0874
  780MOL0     C 7511   4.781   4.006  10.677 -0.1537  0.4537  0.3136
  780MOL0     C 7512   4.685   4.047  10.784  0.5188 -0.0760 -0.7234
  780MOL0     C 7513   4.570   4.137  10.749  0.4854 -0.4904  0.4222
  780MOL0     C 7514   4.502   4.189  10.871  0.6682  0.3786 -0.3080
  780MOL0     C 7515   4.362   4.252  10.854 -0.8311 -0.1526 -0.8204
  780MOL0     C 7516   4.308   4.298  10.990 -0.3795  0.4944 -0.7240
  780MOL0     C 7517   4.186   4.399  10.986  0.4331 -1.0267 -0.2804
  780MOL0     C 7518   4.163   4.487  11.112 -0.4182  0.6159 -0.0465
  780MOL0     N 7519   4.111   4.422  11.233  0.1691  0.2278 -0.0957
  780MOL0     C 7520   4.164   4.410  11.359 -0.1613  0.6583 -0.1251
  780MOL0     C 7521   4.069   4.346  11.426 -0.0126  0.1692 -0.0409
  780MOL0     C 7522   4.086   4.321  11.576 -0.3995 -0.9334 -0.2125
  780MOL0     C 7523   4.083   4.457  11.636 -0.5773  0.5151 -1.3481
  780MOL0     C 7524   4.103   4.454  11.793  0.3354 -0.1442  0.3741
  780MOL0     C 7525   3.975   4.456  11.872 -0.3916 -0.3849 -0.1646
  780MOL0     O 7526   3.909   4.580  11.854 -0.3320 -0.1911  0.5738
  780MOL0     C 7527   3.787   4.593  11.917 -0.0087  0.0399 -0.0958
  780MOL0     C 7528   3.718   4.717  11.916  0.0824 -0.2319 -0.0794
  780MOL0     C 7529   3.593   4.734  11.963 -0.3484 -0.8731  0.5691
  780MOL0     C 7530   3.535   4.880  11.946 -0.6923  0.9632  0.5233
  780MOL0     C 7531   3.526   4.634  12.027 -0.6131 -0.9794 -0.2450
  780MOL0     C 7532   3.386   4.641  12.077 -0.1028 -0.1947  0.1936
  780MOL0     O 7533   3.346   4.584  12.191  0.4451 -0.7521  0.0224
  780MOL0     C 7534   3.224   4.617  12.254 -0.2904  0.3779  0.1075
  780MOL0     C 7535   3.154   4.528  12.330  0.1566  0.2429 -0.0521
  780MOL0     C 7536   3.031   4.555  12.392 -0.2921  0.6660  0.1414
  780MOL0     C 7537   2.964   4.673  12.359  0.1901  0.1350 -0.1874
  780MOL0     O 7538   2.837   4.693  12.409  0.0335 -0.0528  0.3987
  780MOL0     C 7539   2.772   4.817  12.410 -0.0498  0.0981  0.2804
  780MOL0     C 7540   2.677   4.845  12.285 -0.1252  0.2609 -0.2166
  780MOL0     C 7541   2.586   4.967  12.281 -0.4158 -0.4516 -0.3194
  780MOL0     C 7542   2.482   4.970  12.388 -0.1470 -0.1019 -0.4365
  780MOL0     C 7543   2.376   5.074  12.393 -0.9962 -0.6313 -0.4820
  780MOL0     C 7544   2.306   5.087  12.527 -0.1396  0.4318  0.4222
  780MOL0     C 7545   2.257   4.948  12.588  0.3919 -0.8134  0.5961
  780MOL0     C 7546   2.169   4.955  12.713  0.1743 -0.0943  0.2876
  780MOL0    Cl 7547   2.250   4.879  12.856 -0.1110 -0.1308 -0.2881
  780MOL0     C 7548   3.024   4.752  12.262  0.4049 -0.6135 -0.4116
  780MOL0     C 7549   3.158   4.746  12.227  0.3003  0.3026  0.5390
  780MOL0     O 7550   3.315   4.700  11.992  0.2761 -0.1556  0.1056
  780MOL0     C 7551   3.604   4.516  12.045  0.5793 -0.6799 -0.4206
  780MOL0     C 7552   3.718   4.486  11.975  0.4258 -0.0624 -0.5633
  780MOL0     N 7553   3.961   4.302  11.344  0.1639  0.1134  0.4961
  780MOL0     N 7554   4.002   4.347  11.226  0.3139  0.8020 -1.0278
  780MOL0     C 7555   5.045   4.009  10.554 -0.4004 -0.1788 -1.0777
  780MOL0     C 7556   5.119   3.970  10.438 -0.2120 -0.6200 -0.0644
  780MOL0     C 7557   5.223   3.866  10.017 -0.6609  0.8148  0.7404
  780MOL0     C 7558   5.260   3.733   9.978  0.6511 -0.4686 -0.2411
  780MOL0     C 7559   5.339   3.711   9.862  0.3997  0.9142 -0.3586
  780MOL0     C 7560   5.367   3.817   9.772  0.2554 -0.3835  0.1164
  780MOL0     O 7561   5.439   3.816   9.654 -0.3064 -0.4644  0.1894
  780MOL0     C 7562   5.496   3.700   9.593 -0.4240 -1.4299 -0.9201
  780MOL0     C 7563   5.392   3.627   9.512  0.3137  0.2126  1.1384
  780MOL0     C 7564   5.463   3.531   9.418  0.2043  1.3242 -1.1145
  780MOL0     C 7565   5.372   3.402   9.412  0.4065  0.1377 -0.3655
  780MOL0     C 7566   5.404   3.313   9.299 -0.1849  0.3718  0.8344
  780MOL0     C 7567   5.444   3.258   9.196  0.7287  0.1112  0.7026
  780MOL0     C 7568   5.331   3.946   9.807 -0.6411  0.4310  0.2891
  780MOL0     C 7569   5.255   3.971   9.925  0.6264  0.1677  0.2639
  780MOL0     C 7570   5.196   4.114   9.935  0.0432 -0.5748 -0.6567
  780MOL0     H 7571   4.991   4.194  10.217  0.5133  1.8358  1.2882
  780MOL0     H 7572   4.826   4.226  10.421 -1.0717 -0.6274 -1.8716
  780MOL0     H 7573   4.860   3.941  10.715  1.5136 -0.1136 -3.6274
  780MOL0     H 7574   4.732   3.947  10.599  1.9103 -1.1722  0.1605
  780MOL0     H 7575   4.644   3.952  10.821  0.6109  0.3988  0.6472
  780MOL0     H 7576   4.736   4.091  10.870  1.0326  1.3617 -1.7255
  780MOL0     H 7577   4.605   4.221  10.689 -1.2907  0.1231  0.1677
  780MOL0     H 7578   4.497   4.081  10.688  3.0369 -1.1125 -2.2774
  780MOL0     H 7579   4.491   4.101  10.934  0.6057  0.3414 -0.3711
  780MOL0     H 7580   4.556   4.267  10.925  0.4177  0.9885 -0.9226
  780MOL0     H 7581   4.293   4.178  10.813  0.7136 -1.7131 -0.7702
  780MOL0     H 7582   4.391   4.342  10.800  1.9352  1.2052  2.5120
  780MOL0     H 7583   4.284   4.204  11.042  1.4360 -0.6310 -1.7867
  780MOL0     H 7584   4.383   4.358  11.043 -1.4613  0.4448  0.9534
  780MOL0     H 7585   4.095   4.346  10.958  1.2794 -2.6039 -0.1997
  780MOL0     H 7586   4.222   4.459  10.901  2.8375 -2.9240 -0.7132
  780MOL0     H 7587   4.255   4.541  11.135 -0.0171  2.7483 -5.1283
  780MOL0     H 7588   4.086   4.557  11.079 -0.5328  0.8515  0.7163
  780MOL0     H 7589   4.257   4.456  11.389 -0.3264  1.8499 -1.3088
  780MOL0     H 7590   4.172   4.261  11.606  1.0922  1.4103  0.4570
  780MOL0     H 7591   3.997   4.267  11.609 -1.4146  1.7418  1.7437
  780MOL0     H 7592   4.159   4.529  11.604  0.0780  1.0389  1.1630
  780MOL0     H 7593   3.992   4.510  11.610 -3.0036 -0.4945  3.7171
  780MOL0     H 7594   4.167   4.369  11.818  1.2464  0.6644  0.9047
  780MOL0     H 7595   4.163   4.542  11.821  2.0538 -1.2943  0.4779
  780MOL0     H 7596   3.921   4.363  11.857 -1.2579 -0.0402  0.7625
  780MOL0     H 7597   4.007   4.459  11.976  0.6091 -0.8740 -0.4410
  780MOL0     H 7598   3.784   4.790  11.871  4.0622 -2.1023  2.1574
  780MOL0     H 7599   3.486   4.910  12.039  2.1253  1.6750  1.8786
  780MOL0     H 7600   3.478   4.881  11.852 -0.8572 -0.4139  0.5883
  780MOL0     H 7601   3.611   4.957  11.934  0.4719 -0.4442 -1.7681
  780MOL0     H 7602   3.207   4.436  12.353  0.7655 -0.4905 -3.7929
  780MOL0     H 7603   3.001   4.475  12.459 -0.9960  0.2620 -0.6422
  780MOL0     H 7604   2.713   4.842  12.499 -1.5994  3.5863 -1.5653
  780MOL0     H 7605   2.846   4.896  12.401 -0.8833  0.9436  0.6929
  780MOL0     H 7606   2.739   4.843  12.195  2.4350  2.0958  1.3663
  780MOL0     H 7607   2.611   4.758  12.287 -0.7531  0.6478 -2.1323
  780MOL0     H 7608   2.538   4.970  12.183  2.0655 -2.8161 -1.7518
  780MOL0     H 7609   2.654   5.051  12.297 -2.2700  0.8183  1.4499
  780MOL0     H 7610   2.534   4.985  12.483  1.5126 -0.5711 -1.2378
  780MOL0     H 7611   2.439   4.870  12.384 -3.0032  0.9815  0.3743
  780MOL0     H 7612   2.419   5.170  12.365  1.6133 -1.3735  0.6633
  780MOL0     H 7613   2.306   5.046  12.314  1.6555 -0.6519 -2.9591
  780MOL0     H 7614   2.222   5.155  12.513  0.0206  0.2420 -1.8458
  780MOL0     H 7615   2.376   5.130  12.600 -0.0352 -2.3745  2.1202
  780MOL0     H 7616   2.333   4.875  12.617 -1.4842 -2.3884  1.8279
  780MOL0     H 7617   2.199   4.899  12.509  1.4340 -3.0607  1.1448
  780MOL0     H 7618   2.074   4.901  12.710 -1.9200  3.3222 -0.6387
  780MOL0     H 7619   2.134   5.059  12.716 -2.2619 -0.7979 -1.0259
  780MOL0     H 7620   2.967   4.837  12.226  1.7994 -0.1163 -1.5831
  780MOL0     H 7621   3.204   4.832  12.179 -1.6570  0.0287 -1.9869
  780MOL0     H 7622   3.573   4.426  12.098 -0.5184 -0.6303 -0.9576
  780MOL0     H 7623   3.752   4.384  11.988  0.2848 -0.3731 -2.4590
  780MOL0     H 7624   5.051   3.953  10.647 -0.5155  0.7878 -0.4759
  780MOL0     H 7625   5.198   3.896  10.444 -0.7726 -1.1684  0.8625
  780MOL0     H 7626   5.242   3.649  10.044 -2.0880 -0.2555 -0.6326
  780MOL0     H 7627   5.368   3.608   9.843  0.3477  0.8533 -0.1153
  780MOL0     H 7628   5.578   3.735   9.530  0.6273  0.2730  1.2403
  780MOL0     H 7629   5.532   3.631   9.670 -0.4552  0.1719  0.6044
  780MOL0     H 7630   5.326   3.702   9.469  1.0835  1.7108  2.4279
  780MOL0     H 7631   5.320   3.573   9.574 -2.3560  0.7814 -1.2841
  780MOL0     H 7632   5.481   3.572   9.318  0.5744  0.5578 -1.3738
  780MOL0     H 7633   5.557   3.503   9.467  0.4758  1.1287 -1.7375
  780MOL0     H 7634   5.264   3.417   9.398  0.5215  0.0329 -1.4526
  780MOL0     H 7635   5.392   3.343   9.502 -1.7833  0.3262  0.3009
  780MOL0     H 7636   5.456   3.195   9.110 -1.5619  0.5682 -0.0149
  780MOL0     H 7637   5.358   4.030   9.744 -1.4657  0.2745 -0.2929
  780MOL0     H 7638   5.093   4.102   9.970  0.9423 -0.8170  2.1970
  780MOL0     H 7639   5.242   4.180  10.010 -1.3057 -0.4441  0.0758
  780MOL0     H 7640   5.207   4.175   9.845  0.6685  0.2067 -0.0727
  781MOL0     O 7641   8.173   3.242   8.916 -0.3643  0.1323  0.6537
  781MOL0     C 7642   8.175   3.195   9.026  0.3930 -0.4255  0.1496
  781MOL0     O 7643   8.275   3.193   9.113  0.9875  0.0734  0.9155
  781MOL0     C 7644   8.397   3.216   9.053  0.0768 -0.2286  0.0431
  781MOL0     C 7645   8.471   3.331   9.089 -0.1936 -0.5439  0.1226
  781MOL0     C 7646   8.594   3.356   9.020  0.2594  0.7081  0.3913
  781MOL0     C 7647   8.655   3.261   8.936 -0.4526 -0.5717  0.6808
  781MOL0     O 7648   8.763   3.271   8.856  0.7525  0.5823 -0.5368
  781MOL0     C 7649   8.829   3.397   8.869 -0.4198 -0.3083 -0.6131
  781MOL0     C 7650   8.959   3.398   8.778  0.1063 -0.3427 -0.5918
  781MOL0     C 7651   8.921   3.385   8.635 -0.3140  0.1626 -0.8342
  781MOL0     C 7652   9.032   3.435   8.538 -0.5314  0.1101  0.4435
  781MOL0     C 7653   9.011   3.408   8.391 -0.0760 -0.0645  0.0557
  781MOL0     C 7654   9.108   3.476   8.296 -1.3724  0.9276  0.0753
  781MOL0     C 7655   9.245   3.423   8.308 -0.4218  0.6342  1.0910
  781MOL0     C 7656   9.339   3.487   8.212 -0.5340  0.2333  0.8520
  781MOL0     N 7657   9.479   3.441   8.240  1.1434  0.0045 -0.2452
  781MOL0     C 7658   9.525   3.313   8.206  0.2223  0.1014  0.3942
  781MOL0     C 7659   9.632   3.298   8.283  0.4569  0.0661  0.3800
  781MOL0     C 7660   9.713   3.178   8.311  0.2377  0.9374  0.7829
  781MOL0     C 7661   9.833   3.168   8.206 -0.6821  0.7176 -0.5178
  781MOL0     C 7662   9.935   3.057   8.220  0.0946 -0.0077 -0.2460
  781MOL0     C 7663  10.022   3.075   8.339  0.0179 -0.7696 -0.3346
  781MOL0     O 7664  10.108   2.962   8.362 -0.0805  0.3231  0.2089
  781MOL0     C 7665  10.226   2.973   8.433  0.1347  1.0292 -0.5995
  781MOL0     C 7666  10.276   3.089   8.491  0.2871 -1.2364 -0.4278
  781MOL0     C 7667  10.406   3.091   8.548  0.1978 -0.0631 -0.1577
  781MOL0     C 7668  10.450   3.227   8.603  1.3917  0.4790  0.7062
  781MOL0     C 7669  10.489   2.975   8.542 -0.1195 -0.2842 -0.3123
  781MOL0     C 7670  10.628   2.974   8.582 -0.0019 -0.4312 -0.0495
  781MOL0     O 7671  10.678   3.071   8.666  0.9465  0.4222  0.0872
  781MOL0     C 7672  10.802   3.067   8.727  0.4055 -0.0941 -1.0940
  781MOL0     C 7673  10.865   3.185   8.766  0.8964  0.2391  0.5694
  781MOL0     C 7674  10.985   3.184   8.837  0.9814  0.6292  0.2513
  781MOL0     C 7675  11.048   3.061   8.851  0.3418 -0.1564  0.4597
  781MOL0     O 7676  11.171   3.048   8.904  0.1105  0.2352  0.5887
  781MOL0     C 7677  11.247   3.148   8.968 -0.1727 -0.1916  0.3790
  781MOL0     C 7678  11.390   3.084   8.983 -0.4220  0.1351  0.4785
  781MOL0     C 7679  11.468   3.193   9.063 -0.3291  0.5896 -0.0651
  781MOL0     C 7680  11.608   3.150   9.059 -0.2641  0.4130  0.0004
  781MOL0     C 7681  11.699   3.222   9.153 -0.2769  0.3891  0.2253
  781MOL0     C 7682  11.682   3.195   9.306  0.2420 -0.0562 -0.6662
  781MOL0     C 7683  11.739   3.311   9.388  0.0048 -0.4231 -0.1338
  781MOL0     C 7684  11.770   3.258   9.527  0.0323 -0.2102 -0.2150
  781MOL0    Cl 7685  11.608   3.206   9.583 -0.7955  0.6274  0.2569
  781MOL0     C 7686  10.992   2.941   8.808  0.0474 -0.2364 -0.1031
  781MOL0     C 7687  10.865   2.940   8.754 -0.5774 -0.2170 -0.8071
  781MOL0     O 7688  10.699   2.887   8.537 -0.2963 -0.1096 -0.6144
  781MOL0     C 7689  10.433   2.866   8.484 -0.3042 -0.1139  0.2462
  781MOL0     C 7690  10.307   2.869   8.428 -0.5195 -0.3802 -0.4660
  781MOL0     N 7691   9.659   3.417   8.353 -0.0481  0.2646  0.4247
  781MOL0     N 7692   9.561   3.504   8.324 -0.4827  0.5605  0.0434
  781MOL0     C 7693   8.583   3.143   8.917 -0.6974 -0.6364  0.6896
  781MOL0     C 7694   8.452   3.115   8.968 -0.6867  0.7764 -0.2213
  781MOL0     C 7695   8.044   3.130   9.071 -0.2069  0.4401 -0.1167
  781MOL0     C 7696   8.035   3.097   9.205  0.5714 -0.6085 -0.4089
  781MOL0     C 7697   7.928   3.020   9.258 -0.2931 -0.1371  0.3234
  781MOL0     C 7698   7.822   2.987   9.182  1.0057  0.0242  0.0635
  781MOL0     O 7699   7.721   2.915   9.243  0.0966  0.6574  0.6864
  781MOL0     C 7700   7.587   2.900   9.189  0.1886 -0.7480 -0.4614
  781MOL0     C 7701   7.577   2.769   9.114 -0.3837  0.1328  0.0641
  781MOL0     C 7702   7.433   2.735   9.057  0.6659 -0.5580  0.3975
  781MOL0     C 7703   7.375   2.827   8.951 -0.4292  0.2535  0.2554
  781MOL0     C 7704   7.229   2.823   8.956  0.5261  0.0621 -0.1386
  781MOL0     C 7705   7.104   2.818   8.953  0.1365 -0.1471 -0.0031
  781MOL0     C 7706   7.823   3.024   9.047 -0.8176 -0.4052  0.0136
  781MOL0     C 7707   7.931   3.102   8.995  0.1486 -0.0769  0.3175
  781MOL0     C 7708   7.928   3.134   8.853 -0.5879  0.7387 -0.0171
  781MOL0     H 7709   8.442   3.415   9.152  0.2085  0.4370 -0.9704
  781MOL0     H 7710   8.631   3.457   9.034 -0.2086  0.7211  1.6873
  781MOL0     H 7711   8.863   3.427   8.968  1.8715  0.1264 -1.4495
  781MOL0     H 7712   8.760   3.473   8.830 -1.6279  0.3903  2.5679
  781MOL0     H 7713   9.015   3.488   8.802  1.9953 -2.3134  3.1986
  781MOL0     H 7714   9.026   3.319   8.814 -0.5358 -0.4074  0.4838
  781MOL0     H 7715   8.904   3.279   8.618 -0.9851 -0.3974  2.6214
  781MOL0     H 7716   8.824   3.432   8.617 -1.3173 -2.1261 -1.7335
  781MOL0     H 7717   9.053   3.542   8.554  0.3735  0.3318 -1.8141
  781MOL0     H 7718   9.125   3.386   8.569  0.2633  0.6607 -0.9458
  781MOL0     H 7719   8.918   3.458   8.363 -0.7696 -1.5258 -0.3684
  781MOL0     H 7720   8.994   3.300   8.379 -1.5156  0.3468 -2.2273
  781MOL0     H 7721   9.067   3.469   8.195 -1.3015 -3.6902  0.1712
  781MOL0     H 7722   9.117   3.583   8.318 -0.3970  0.8712  0.0181
  781MOL0     H 7723   9.261   3.317   8.284 -1.1344  0.2484  2.2186
  781MOL0     H 7724   9.270   3.434   8.414  0.7986  0.1223  0.8681
  781MOL0     H 7725   9.311   3.462   8.109  0.1781 -2.7072  1.2825
  781MOL0     H 7726   9.318   3.594   8.223  0.6938  0.4186  1.5290
  781MOL0     H 7727   9.479   3.246   8.134  2.5121  0.9292 -2.0021
  781MOL0     H 7728   9.649   3.089   8.304 -2.0015  2.5927 -1.2121
  781MOL0     H 7729   9.751   3.193   8.412  1.3992  0.9588  0.3697
  781MOL0     H 7730   9.779   3.145   8.114 -1.6514 -0.5279  0.3363
  781MOL0     H 7731   9.889   3.262   8.196  1.9486 -0.6889 -0.0935
  781MOL0     H 7732   9.876   2.972   8.255  0.9763 -0.1368  0.9780
  781MOL0     H 7733   9.995   3.031   8.132 -0.1371 -2.8510  0.3492
  781MOL0     H 7734  10.090   3.157   8.315  0.0353 -0.5979  0.3037
  781MOL0     H 7735   9.956   3.084   8.425 -0.9292 -1.1375 -1.0000
  781MOL0     H 7736  10.211   3.176   8.484  0.3961 -1.1207 -0.0290
  781MOL0     H 7737  10.457   3.214   8.711 -1.6220 -6.4282  0.6240
  781MOL0     H 7738  10.375   3.304   8.582  0.4348  0.2556  3.0012
  781MOL0     H 7739  10.542   3.260   8.554 -0.1168 -0.0248 -2.8105
  781MOL0     H 7740  10.806   3.272   8.741 -1.1839 -1.4006 -0.6072
  781MOL0     H 7741  11.036   3.275   8.870  1.0362  0.9281 -0.6455
  781MOL0     H 7742  11.265   3.243   8.918  2.3059  0.0071  1.5217
  781MOL0     H 7743  11.201   3.164   9.066 -2.1333 -1.7146 -0.2152
  781MOL0     H 7744  11.376   2.992   9.040 -1.5044 -0.2758 -0.4078
  781MOL0     H 7745  11.429   3.059   8.884 -2.9999 -0.5633 -0.4532
  781MOL0     H 7746  11.433   3.198   9.167  1.7090  1.3331  0.6281
  781MOL0     H 7747  11.473   3.291   9.016  1.4614  0.0856 -1.0232
  781MOL0     H 7748  11.647   3.159   8.958  2.5361  0.9274  1.0436
  781MOL0     H 7749  11.619   3.046   9.091 -0.4675  0.7661  1.2974
  781MOL0     H 7750  11.798   3.184   9.129 -1.7348 -2.3928 -1.9265
  781MOL0     H 7751  11.681   3.329   9.141 -0.0730  0.5385  1.1472
  781MOL0     H 7752  11.748   3.109   9.317  1.1720  0.8013  0.7813
  781MOL0     H 7753  11.582   3.161   9.331  0.8286  1.1369  4.2499
  781MOL0     H 7754  11.679   3.403   9.385 -0.8030 -0.9036  0.7828
  781MOL0     H 7755  11.834   3.336   9.339 -0.7886  1.1077 -0.9874
  781MOL0     H 7756  11.821   3.329   9.592 -1.1116  0.1000  0.3705
  781MOL0     H 7757  11.843   3.177   9.517 -1.9114 -2.0935  0.0511
  781MOL0     H 7758  11.048   2.848   8.811 -1.8875 -1.4389  1.7718
  781MOL0     H 7759  10.806   2.854   8.728 -1.1948  1.1441 -4.5216
  781MOL0     H 7760  10.494   2.777   8.469  1.1439  0.8840  0.0548
  781MOL0     H 7761  10.282   2.772   8.384 -2.8545  0.3724 -0.9391
  781MOL0     H 7762   8.630   3.061   8.863 -1.0290 -0.3463 -0.0498
  781MOL0     H 7763   8.405   3.018   8.958 -0.2869  0.4708  0.7424
  781MOL0     H 7764   8.112   3.139   9.269 -0.3706  1.4227 -0.5209
  781MOL0     H 7765   7.925   2.988   9.362 -1.7851  3.2646  1.4586
  781MOL0     H 7766   7.510   2.891   9.267  2.4134 -1.7482  1.7300
  781MOL0     H 7767   7.573   2.977   9.112  3.9724  0.7344  0.1446
  781MOL0     H 7768   7.601   2.681   9.173 -0.8947  0.3115  0.5527
  781MOL0     H 7769   7.655   2.779   9.038 -0.0588  2.2910  0.6052
  781MOL0     H 7770   7.428   2.637   9.011 -0.5198 -1.1643  1.7436
  781MOL0     H 7771   7.364   2.722   9.141 -0.9511  0.8415 -0.6660
  781MOL0     H 7772   7.409   2.802   8.850 -0.5540 -3.3732  0.9658
  781MOL0     H 7773   7.411   2.929   8.964  0.3993 -0.1043  0.8165
  781MOL0     H 7774   7.002   2.808   8.985  0.8237  0.4169  2.5561
  781MOL0     H 7775   7.745   2.993   8.978  3.3012 -4.2056 -3.5973
  781MOL0     H 7776   7.930   3.243   8.846 -0.4214  0.8691  1.6235
  781MOL0     H 7777   8.014   3.085   8.807 -0.0027 -0.0687  1.8452
  781MOL0     H 7778   7.837   3.087   8.814 -0.5648 -1.0298  1.8781
  782MOL0     O 7779   2.557  10.347   9.803 -0.1490  0.4129 -0.4023
  782MOL0     C 7780   2.556  10.229   9.827 -0.1517  0.9370  0.3437
  782MOL0     O 7781   2.642  10.150   9.758  0.1897  0.0005 -0.2619
  782MOL0     C 7782   2.733  10.204   9.663  0.8679 -0.2540 -0.2984
  782MOL0     C 7783   2.873  10.207   9.690  0.2106  0.7882  0.0471
  782MOL0     C 7784   2.973  10.243   9.598  0.5677  0.1684  0.7534
  782MOL0     C 7785   2.919  10.296   9.475 -0.2770  0.5523  0.0100
  782MOL0     O 7786   3.005  10.331   9.382  0.4514 -0.4909  0.1541
  782MOL0     C 7787   3.104  10.424   9.425  0.1919 -0.1952 -0.8251
  782MOL0     C 7788   3.247  10.374   9.443 -0.9123  0.0306  0.2916
  782MOL0     C 7789   3.337  10.490   9.474  0.0397 -0.4231  0.0565
  782MOL0     C 7790   3.368  10.583   9.359 -0.0861 -0.3637  0.7331
  782MOL0     C 7791   3.502  10.673   9.388 -0.6611  0.0423  0.5691
  782MOL0     C 7792   3.632  10.606   9.346 -0.1617 -0.7058 -0.1167
  782MOL0     C 7793   3.763  10.664   9.402  0.9038  0.0988  0.0015
  782MOL0     C 7794   3.747  10.813   9.404 -0.3131 -0.0034  0.6252
  782MOL0     N 7795   3.881  10.865   9.443  0.1767  0.1242  0.7502
  782MOL0     C 7796   3.966  10.840   9.552  0.0559 -0.1904 -0.4829
  782MOL0     C 7797   4.066  10.933   9.539  0.6456  0.2445  0.3573
  782MOL0     C 7798   4.174  10.968   9.642  0.0281 -0.1764 -1.0895
  782MOL0     C 7799   4.246  11.095   9.602 -0.0469 -0.2268 -0.6685
  782MOL0     C 7800   4.350  11.150   9.703  0.7116 -0.2717  0.5425
  782MOL0     C 7801   4.459  11.047   9.753  0.4127  1.0355  1.5285
  782MOL0     O 7802   4.561  11.109   9.832 -0.1830  0.9839 -0.4827
  782MOL0     C 7803   4.661  11.181   9.771 -0.5623  0.0363  0.0098
  782MOL0     C 7804   4.680  11.191   9.633 -0.0554 -1.0164  0.5334
  782MOL0     C 7805   4.767  11.286   9.580  0.4425 -0.6126  0.2417
  782MOL0     C 7806   4.772  11.299   9.427  0.6615 -0.1856  0.2903
  782MOL0     C 7807   4.862  11.358   9.668  0.4201  0.8011  0.0798
  782MOL0     C 7808   4.963  11.461   9.626 -0.2258 -0.2225 -0.1374
  782MOL0     O 7809   4.997  11.477   9.495  0.4039 -0.6678 -0.5209
  782MOL0     C 7810   5.081  11.584   9.460  0.4549  0.6984  0.7807
  782MOL0     C 7811   5.046  11.667   9.356 -0.7967  0.2871  0.0260
  782MOL0     C 7812   5.118  11.775   9.327  0.7600 -1.3902 -0.0593
  782MOL0     C 7813   5.241  11.801   9.384  0.1699  0.1284 -0.2950
  782MOL0     O 7814   5.299  11.921   9.383  0.2650  0.1330  0.3753
  782MOL0     C 7815   5.283  12.018   9.278  0.7731 -0.0575  0.4654
  782MOL0     C 7816   5.319  11.967   9.134  0.6362 -0.1389  0.8176
  782MOL0     C 7817   5.450  11.889   9.138  0.6702 -0.4313  0.0147
  782MOL0     C 7818   5.435  11.739   9.112  0.3687  0.2884  0.2290
  782MOL0     C 7819   5.566  11.663   9.093  0.2418  0.1535 -0.3291
  782MOL0     C 7820   5.531  11.513   9.095 -0.5633  0.4403  0.0505
  782MOL0     C 7821   5.640  11.431   9.020 -0.0455  0.1416  0.4496
  782MOL0     C 7822   5.722  11.354   9.113 -0.4988  1.0412  0.3244
  782MOL0    Cl 7823   5.863  11.270   9.028 -0.2000 -0.2158  0.6294
  782MOL0     C 7824   5.287  11.707   9.477 -0.5756  0.4544 -0.3061
  782MOL0     C 7825   5.205  11.597   9.512  0.1111 -0.4056  0.1018
  782MOL0     O 7826   5.028  11.510   9.717  0.0852  0.6888  0.5052
  782MOL0     C 7827   4.833  11.349   9.807 -1.3737 -0.0309 -0.3348
  782MOL0     C 7828   4.732  11.266   9.857 -0.2223 -0.0891  0.6728
  782MOL0     N 7829   4.038  10.998   9.422 -0.4178 -0.0508  1.0916
  782MOL0     N 7830   3.930  10.964   9.372  0.2497  0.0444 -0.6966
  782MOL0     C 7831   2.784  10.292   9.445  0.0744  0.8086  0.8590
  782MOL0     C 7832   2.692  10.244   9.534  0.1594 -1.3993 -0.7117
  782MOL0     C 7833   2.466  10.185   9.940 -0.3436 -0.6889  0.9542
  782MOL0     C 7834   2.529  10.120  10.043  0.4612 -0.7044 -0.3615
  782MOL0     C 7835   2.456  10.087  10.163  0.4621  0.5728  0.2366
  782MOL0     C 7836   2.323  10.124  10.186 -0.0652  0.3007  0.4516
  782MOL0     O 7837   2.262  10.084  10.305 -0.0924 -0.7629 -0.2893
  782MOL0     C 7838   2.143  10.144  10.342  0.6205 -0.5954  0.2112
  782MOL0     C 7839   2.112  10.097  10.490 -0.1326  0.0831  0.3992
  782MOL0     C 7840   1.972  10.142  10.532 -0.1951 -0.2640 -0.2526
  782MOL0     C 7841   1.950  10.095  10.680  0.0955 -0.5033  0.9447
  782MOL0     C 7842   2.027  10.188  10.761 -0.4167  0.1599 -0.0022
  782MOL0     C 7843   2.097  10.269  10.824 -0.1859  0.6058  0.7021
  782MOL0     C 7844   2.262  10.208  10.078 -0.1241  0.4868 -0.2494
  782MOL0     C 7845   2.331  10.235   9.958  0.1897  0.6022  0.1556
  782MOL0     C 7846   2.266  10.320   9.848  0.5642 -0.9080 -1.1355
  782MOL0     H 7847   2.906  10.165   9.785  1.9701 -0.5538 -1.1033
  782MOL0     H 7848   3.076  10.214   9.616  0.3274 -0.8431  0.5409
  782MOL0     H 7849   3.065  10.458   9.521 -2.5952  0.7418 -2.2004
  782MOL0     H 7850   3.107  10.517   9.367  4.3442 -0.0692 -0.7596
  782MOL0     H 7851   3.251  10.301   9.525 -2.7038 -4.9562 -3.5709
  782MOL0     H 7852   3.284  10.320   9.355 -0.3444 -0.8573  1.0522
  782MOL0     H 7853   3.296  10.552   9.554  1.0438  0.4982 -0.1139
  782MOL0     H 7854   3.431  10.447   9.511  0.2013  1.0441  1.4959
  782MOL0     H 7855   3.375  10.526   9.266 -3.8430  0.8902 -0.5161
  782MOL0     H 7856   3.287  10.655   9.342 -0.0590 -0.6310 -0.6532
  782MOL0     H 7857   3.511  10.703   9.493 -2.3807  1.0302  0.4707
  782MOL0     H 7858   3.479  10.763   9.331 -4.0130 -0.6594  0.6289
  782MOL0     H 7859   3.635  10.501   9.373 -1.4901 -1.1458 -1.5553
  782MOL0     H 7860   3.651  10.618   9.238  0.9794  1.4530  0.2543
  782MOL0     H 7861   3.839  10.621   9.338 -0.3090 -2.3710  0.1018
  782MOL0     H 7862   3.778  10.630   9.505 -2.4900  2.1894  1.3693
  782MOL0     H 7863   3.707  10.842   9.307  1.0659 -1.7790 -0.5369
  782MOL0     H 7864   3.680  10.849   9.483  0.7062  0.1625  1.4375
  782MOL0     H 7865   3.955  10.787   9.646  0.9720  1.2974  0.5107
  782MOL0     H 7866   4.249  10.889   9.656  1.5476  1.3625 -0.1655
  782MOL0     H 7867   4.131  10.993   9.739 -2.3637  1.9639 -2.5707
  782MOL0     H 7868   4.302  11.094   9.509 -3.5688 -0.3928 -2.9825
  782MOL0     H 7869   4.180  11.180   9.581  2.5943  1.6454 -1.8835
  782MOL0     H 7870   4.403  11.222   9.640  3.6468 -3.0490 -0.4786
  782MOL0     H 7871   4.306  11.194   9.793  2.3687 -1.2121  1.8874
  782MOL0     H 7872   4.409  10.961   9.798 -0.8330  1.1433  0.4095
  782MOL0     H 7873   4.502  11.000   9.663 -1.4880 -1.3389  1.7766
  782MOL0     H 7874   4.620  11.138   9.560  1.2833 -1.2832 -0.4213
  782MOL0     H 7875   4.692  11.245   9.375  0.4506  0.0517  0.3660
  782MOL0     H 7876   4.864  11.247   9.401  0.2236 -0.7366 -0.1908
  782MOL0     H 7877   4.774  11.404   9.396 -2.0866  0.2831  1.4204
  782MOL0     H 7878   4.941  11.659   9.330 -0.9185  1.3452  0.1259
  782MOL0     H 7879   5.058  11.839   9.262 -0.3121  0.0239  2.1929
  782MOL0     H 7880   5.184  12.063   9.287  1.5139  1.9472 -0.8375
  782MOL0     H 7881   5.355  12.097   9.298  1.5067 -0.7354  0.5716
  782MOL0     H 7882   5.237  11.905   9.095  0.0744  1.2405 -0.2800
  782MOL0     H 7883   5.325  12.048   9.061  1.7209 -2.2130 -1.5670
  782MOL0     H 7884   5.497  11.899   9.237 -0.0655 -1.8461  0.5173
  782MOL0     H 7885   5.518  11.927   9.060  0.9547 -1.5383 -0.2881
  782MOL0     H 7886   5.372  11.725   9.024 -0.4058  1.2530  0.5996
  782MOL0     H 7887   5.377  11.699   9.196  1.1160 -1.4584 -0.0545
  782MOL0     H 7888   5.611  11.695   8.998  0.7684  1.4392  0.3212
  782MOL0     H 7889   5.637  11.682   9.175  0.9475  1.3984 -1.1886
  782MOL0     H 7890   5.433  11.495   9.051 -0.8342  2.5707 -0.3118
  782MOL0     H 7891   5.514  11.483   9.199 -1.5620 -1.8953 -0.7107
  782MOL0     H 7892   5.700  11.506   8.968  0.3457 -0.0805  0.5726
  782MOL0     H 7893   5.605  11.366   8.938  0.1944 -1.0192  1.2437
  782MOL0     H 7894   5.666  11.276   9.165  1.0242  0.5330  1.2807
  782MOL0     H 7895   5.765  11.418   9.191  1.4718 -1.2087  1.2207
  782MOL0     H 7896   5.382  11.696   9.529 -0.9927  2.5658  1.0177
  782MOL0     H 7897   5.238  11.530   9.591 -0.1966 -2.8053 -1.6896
  782MOL0     H 7898   4.896  11.386   9.887  1.2148 -1.5340 -1.5291
  782MOL0     H 7899   4.713  11.264   9.964  1.1841  0.2934  0.9404
  782MOL0     H 7900   2.755  10.312   9.342 -0.1792  0.3050  0.8256
  782MOL0     H 7901   2.586  10.237   9.514 -0.5241  3.3081  0.0484
  782MOL0     H 7902   2.635  10.095  10.044  0.1387 -2.1061  0.3454
  782MOL0     H 7903   2.507  10.028  10.238  1.2425 -1.0050 -1.4496
  782MOL0     H 7904   2.148  10.252  10.328 -1.5405 -0.3577  0.9407
  782MOL0     H 7905   2.059  10.124  10.275 -0.2968  1.8328  0.5442
  782MOL0     H 7906   2.191  10.144  10.548  0.9013  1.1034 -1.7272
  782MOL0     H 7907   2.131   9.990  10.501  1.6603  0.4293  0.9953
  782MOL0     H 7908   1.962  10.248  10.507  1.1389 -0.6401 -2.6563
  782MOL0     H 7909   1.902  10.084  10.471  0.7447 -0.4484 -1.1765
  782MOL0     H 7910   1.996   9.996  10.681  2.4324  0.3920 -2.1342
  782MOL0     H 7911   1.845  10.090  10.709 -0.3003 -2.3255 -0.6469
  782MOL0     H 7912   2.157  10.346  10.868  1.2231 -1.3451  2.4161
  782MOL0     H 7913   2.160  10.245  10.090  0.8143  3.9248 -1.7446
  782MOL0     H 7914   2.291  10.280   9.749 -1.4550  0.7690 -2.4076
  782MOL0     H 7915   2.157  10.320   9.852  0.4096 -0.9485 -3.6849
  782MOL0     H 7916   2.303  10.422   9.856  2.8361 -1.8224  3.1847
  783MOL0     O 7917   4.401   5.376  10.259  1.0497  0.1242 -0.3050
  783MOL0     C 7918   4.396   5.489  10.220 -0.2682 -0.4306  1.3186
  783MOL0     O 7919   4.465   5.595  10.282  0.0596 -0.6637  0.1400
  783MOL0     C 7920   4.562   5.580  10.373  0.3270  0.1901  0.0894
  783MOL0     C 7921   4.688   5.523  10.358  0.7456  0.0991 -0.7643
  783MOL0     C 7922   4.777   5.526  10.457 -0.0247 -0.7378 -0.3431
  783MOL0     C 7923   4.750   5.585  10.580 -0.0500 -0.1471 -0.1863
  783MOL0     O 7924   4.841   5.605  10.685 -0.1818  0.8589 -0.1354
  783MOL0     C 7925   4.982   5.611  10.663  0.5470 -0.6809 -0.1898
  783MOL0     C 7926   5.053   5.693  10.769  0.1017 -0.6969 -0.1002
  783MOL0     C 7927   5.196   5.661  10.763 -1.2681  0.5089 -0.2131
  783MOL0     C 7928   5.276   5.725  10.883  0.8390  1.0342 -0.4304
  783MOL0     C 7929   5.410   5.665  10.890 -0.2253 -0.4069 -0.2800
  783MOL0     C 7930   5.500   5.736  10.996  0.1377 -0.6589  0.4666
  783MOL0     C 7931   5.485   5.655  11.140  0.2973  0.9383  0.0175
  783MOL0     C 7932   5.590   5.541  11.147  0.2423 -0.0072  0.2778
  783MOL0     N 7933   5.718   5.584  11.202  0.7091 -0.0750  0.2633
  783MOL0     C 7934   5.776   5.534  11.317 -0.2208  0.4517 -0.5230
  783MOL0     C 7935   5.903   5.588  11.324  0.8560  1.0218 -0.7884
  783MOL0     C 7936   6.004   5.548  11.435 -0.0494 -0.6274  1.1004
  783MOL0     C 7937   6.039   5.402  11.452  0.1827  0.0709  0.0435
  783MOL0     C 7938   6.136   5.355  11.347 -0.2869  0.3182  1.1866
  783MOL0     C 7939   6.076   5.349  11.202  0.1646  0.3122  0.2864
  783MOL0     O 7940   5.957   5.264  11.212 -0.4164 -0.2011  0.4840
  783MOL0     C 7941   5.892   5.254  11.092 -0.5843  0.0731  0.6166
  783MOL0     C 7942   5.918   5.338  10.983 -0.9010  0.4591  0.6201
  783MOL0     C 7943   5.847   5.343  10.862  0.1102  0.3170 -0.1293
  783MOL0     C 7944   5.862   5.464  10.772  0.4367  0.6828 -0.3333
  783MOL0     C 7945   5.740   5.253  10.851  0.1246 -0.7970  0.4716
  783MOL0     C 7946   5.641   5.255  10.735 -0.1176  0.6190  0.2049
  783MOL0     O 7947   5.529   5.185  10.767 -0.8669  0.4023 -0.3222
  783MOL0     C 7948   5.430   5.189  10.673  0.2063  0.3797 -0.0765
  783MOL0     C 7949   5.418   5.070  10.582  0.0986  0.0610  0.0347
  783MOL0     C 7950   5.325   5.074  10.474  0.2233  0.4780 -0.4821
  783MOL0     C 7951   5.230   5.180  10.466 -0.3179 -0.0650 -0.4238
  783MOL0     O 7952   5.135   5.171  10.364  0.5626  0.2876  0.5217
  783MOL0     C 7953   5.039   5.275  10.340  0.1005 -0.4820  0.8784
  783MOL0     C 7954   4.919   5.232  10.269 -0.2879  0.3853 -0.2454
  783MOL0     C 7955   4.956   5.228  10.121  0.1405  0.1684  0.1979
  783MOL0     C 7956   4.853   5.150  10.037 -0.0851  0.4400  0.4791
  783MOL0     C 7957   4.718   5.222  10.030 -0.5323 -0.7511 -0.4414
  783MOL0     C 7958   4.616   5.128   9.952 -0.6755 -0.3242  0.1523
  783MOL0     C 7959   4.482   5.207   9.959 -0.0392 -0.5842 -0.2308
  783MOL0     C 7960   4.375   5.185   9.847  0.2637  0.1799 -0.6137
  783MOL0    Cl 7961   4.418   5.142   9.680  0.0661 -0.1498 -0.1260
  783MOL0     C 7962   5.249   5.292  10.557  0.2893 -0.7987  0.0915
  783MOL0     C 7963   5.348   5.295  10.661  0.0318 -0.0354  0.0324
  783MOL0     O 7964   5.677   5.302  10.625  0.3619 -0.2332  0.0063
  783MOL0     C 7965   5.717   5.159  10.961  0.3322  0.4671  0.6175
  783MOL0     C 7966   5.791   5.170  11.077  0.0335 -0.3959  0.4076
  783MOL0     N 7967   5.918   5.668  11.225 -0.2115 -0.6236  0.2927
  783MOL0     N 7968   5.814   5.662  11.147  0.3713 -0.2531  1.0711
  783MOL0     C 7969   4.627   5.646  10.595  1.0314  0.7563 -0.2699
  783MOL0     C 7970   4.537   5.649  10.489  0.7758 -0.5414  0.6991
  783MOL0     C 7971   4.319   5.514  10.099  0.8304 -0.3516  0.1145
  783MOL0     C 7972   4.377   5.604  10.013 -0.8055  0.9259 -0.3353
  783MOL0     C 7973   4.316   5.630   9.892 -0.2591  0.7794 -0.3763
  783MOL0     C 7974   4.190   5.573   9.859  1.0095  0.4626  0.5053
  783MOL0     O 7975   4.146   5.593   9.734  0.1697  0.2878  0.2656
  783MOL0     C 7976   4.005   5.563   9.698  0.4303 -0.4149  0.2442
  783MOL0     C 7977   3.907   5.678   9.736  0.0743 -1.2364 -0.0857
  783MOL0     C 7978   3.948   5.817   9.686 -1.0726  0.4723 -0.1079
  783MOL0     C 7979   3.830   5.912   9.686  0.6478  0.3825 -0.2340
  783MOL0     C 7980   3.790   5.943   9.828  0.0427 -0.7339  0.0637
  783MOL0     C 7981   3.740   5.964   9.937 -0.0362 -0.4315 -1.1276
  783MOL0     C 7982   4.130   5.491   9.959  0.3191  0.7766  0.0487
  783MOL0     C 7983   4.192   5.456  10.077  0.3148  0.7036  0.7555
  783MOL0     C 7984   4.142   5.333  10.145  0.3562  0.4423 -0.0595
  783MOL0     H 7985   4.714   5.470  10.267  0.6575  0.3625 -0.9462
  783MOL0     H 7986   4.882   5.498  10.456  0.3527  0.1301  3.0823
  783MOL0     H 7987   5.009   5.662  10.570 -2.5441  1.2166 -0.1674
  783MOL0     H 7988   5.012   5.506  10.657 -0.1160 -0.9439  0.8057
  783MOL0     H 7989   5.039   5.801  10.755  4.0490  0.2450  1.7955
  783MOL0     H 7990   5.016   5.674  10.870 -0.0012  1.9305  0.4326
  783MOL0     H 7991   5.231   5.557  10.752 -1.3328  0.3301  1.1669
  783MOL0     H 7992   5.235   5.702  10.669  0.9896  0.5910  0.6800
  783MOL0     H 7993   5.269   5.834  10.887 -1.9991  0.9243 -0.2219
  783MOL0     H 7994   5.214   5.698  10.969 -1.2416  4.0907 -0.8007
  783MOL0     H 7995   5.442   5.665  10.785 -2.2629 -0.7316 -0.9562
  783MOL0     H 7996   5.395   5.558  10.906  0.5977 -0.7991 -1.8603
  783MOL0     H 7997   5.605   5.747  10.969 -0.2909  2.7878 -0.2738
  783MOL0     H 7998   5.463   5.838  11.013 -1.0784 -0.4361 -2.8315
  783MOL0     H 7999   5.383   5.616  11.150  1.0126 -0.8265  0.7424
  783MOL0     H 8000   5.502   5.711  11.233 -0.2010 -0.3284  0.8960
  783MOL0     H 8001   5.554   5.454  11.202  1.0806  1.4312  3.2945
  783MOL0     H 8002   5.607   5.502  11.046 -2.6714  0.0265 -0.3256
  783MOL0     H 8003   5.743   5.452  11.380 -0.5383  0.3999 -0.7528
  783MOL0     H 8004   5.972   5.589  11.531 -1.7354 -0.1834  0.3927
  783MOL0     H 8005   6.097   5.603  11.416  0.3246 -1.4885  0.3390
  783MOL0     H 8006   6.081   5.379  11.550  0.8985 -1.9525 -0.6922
  783MOL0     H 8007   5.935   5.367  11.455 -0.1296  0.9976  0.3601
  783MOL0     H 8008   6.214   5.431  11.358  1.6940 -1.6027  1.0986
  783MOL0     H 8009   6.182   5.259  11.371  2.1394  0.1979 -2.9161
  783MOL0     H 8010   6.056   5.451  11.170 -1.0439  0.0598  0.1855
  783MOL0     H 8011   6.155   5.300  11.144  0.7694  0.1267  1.2397
  783MOL0     H 8012   5.993   5.416  10.985 -2.6731  2.4483 -2.4226
  783MOL0     H 8013   5.781   5.536  10.789 -0.2889 -0.7732  3.0535
  783MOL0     H 8014   5.870   5.445  10.664 -0.0300  1.6963 -0.5600
  783MOL0     H 8015   5.953   5.516  10.802  1.2698 -1.5398  1.1951
  783MOL0     H 8016   5.486   4.988  10.603  0.8038  0.0312 -2.1150
  783MOL0     H 8017   5.336   4.994  10.401  0.0935  2.5213 -2.8630
  783MOL0     H 8018   4.999   5.303  10.438 -1.2929 -4.1259  1.5087
  783MOL0     H 8019   5.083   5.358  10.284 -1.2629 -0.1535  0.2631
  783MOL0     H 8020   4.884   5.133  10.298 -0.6666  0.5152 -0.2572
  783MOL0     H 8021   4.844   5.311  10.275  2.4671  3.1231  1.8329
  783MOL0     H 8022   5.052   5.176  10.111 -0.1069 -0.1840 -0.3907
  783MOL0     H 8023   4.959   5.334  10.093  1.1090 -0.0231 -0.4971
  783MOL0     H 8024   4.842   5.049  10.078  0.8332 -0.7479 -2.0189
  783MOL0     H 8025   4.903   5.148   9.940 -1.2128  0.1662 -0.1183
  783MOL0     H 8026   4.673   5.238  10.128 -2.1124 -1.5791 -0.9826
  783MOL0     H 8027   4.731   5.322   9.987  1.4230 -1.2528 -1.1123
  783MOL0     H 8028   4.605   5.027   9.992 -0.5885 -0.8041 -1.0116
  783MOL0     H 8029   4.649   5.114   9.849  4.2898 -0.2147  1.4958
  783MOL0     H 8030   4.510   5.312   9.967 -0.4831 -0.2764 -2.0930
  783MOL0     H 8031   4.433   5.182  10.054 -0.8297 -1.7185 -0.9138
  783MOL0     H 8032   4.320   5.280   9.848 -1.1125 -0.5180  2.2217
  783MOL0     H 8033   4.309   5.104   9.881 -1.3005  1.3531 -0.7431
  783MOL0     H 8034   5.196   5.385  10.539 -0.6732 -1.6886 -1.9416
  783MOL0     H 8035   5.339   5.376  10.732 -2.4713  0.8158 -1.1387
  783MOL0     H 8036   5.642   5.082  10.953 -0.9977  1.8743 -1.3155
  783MOL0     H 8037   5.761   5.094  11.148  0.4210  1.7670  3.0375
  783MOL0     H 8038   4.603   5.703  10.685 -2.0073  0.3667 -0.7142
  783MOL0     H 8039   4.449   5.711  10.495  1.6667  1.2592 -2.3135
  783MOL0     H 8040   4.469   5.644  10.053 -0.9144 -0.6197  1.6317
  783MOL0     H 8041   4.363   5.685   9.811 -0.9968  1.3912 -0.4051
  783MOL0     H 8042   4.001   5.550   9.590  0.1506  2.0614 -0.0879
  783MOL0     H 8043   3.965   5.474   9.748 -0.9070 -0.8084 -1.4368
  783MOL0     H 8044   3.894   5.693   9.844 -1.1984  6.0992 -0.7874
  783MOL0     H 8045   3.813   5.656   9.685  0.1406 -1.7677  0.0148
  783MOL0     H 8046   4.020   5.860   9.756  0.3734 -0.4596 -0.9590
  783MOL0     H 8047   4.000   5.802   9.591 -0.0868 -2.0239  0.7131
  783MOL0     H 8048   3.737   5.875   9.643  0.2060  0.2098  0.8263
  783MOL0     H 8049   3.861   6.000   9.628 -1.2017 -0.0497 -1.9655
  783MOL0     H 8050   3.711   5.969  10.040  0.7875 -0.3761 -0.8885
  783MOL0     H 8051   4.026   5.463   9.943  0.2105  0.2367  1.5589
  783MOL0     H 8052   4.217   5.253  10.149 -1.7515 -1.6038  1.8541
  783MOL0     H 8053   4.122   5.362  10.248  0.1535  2.4607 -0.6298
  783MOL0     H 8054   4.056   5.281  10.100  2.5404 -3.5338 -0.1620
  784MOL0     O 8055   4.062   6.645  10.746 -0.0697  0.4353  0.5802
  784MOL0     C 8056   4.056   6.605  10.861 -0.1801  1.4545 -0.7672
  784MOL0     O 8057   4.075   6.673  10.975  0.5957  0.0472 -0.2420
  784MOL0     C 8058   4.065   6.814  10.972 -0.7058 -0.4425  0.5657
  784MOL0     C 8059   4.135   6.887  11.070  0.9338  0.1978 -0.3542
  784MOL0     C 8060   4.121   7.020  11.088 -0.2210  0.0153 -0.5003
  784MOL0     C 8061   4.043   7.104  11.001 -0.3936  0.5935  0.1677
  784MOL0     O 8062   4.028   7.242  11.023 -0.4960 -0.1400 -1.0171
  784MOL0     C 8063   4.010   7.314  10.903 -1.3986  0.3111  0.4922
  784MOL0     C 8064   4.030   7.467  10.914  0.4267  0.2401  0.6523
  784MOL0     C 8065   4.032   7.540  10.771  0.0651  0.0199 -0.3573
  784MOL0     C 8066   4.003   7.684  10.790 -0.2967  0.7264  0.6606
  784MOL0     C 8067   4.008   7.733  10.642 -0.4504  0.2906  0.7307
  784MOL0     C 8068   3.957   7.877  10.628 -0.4237 -1.1646 -0.5207
  784MOL0     C 8069   3.814   7.903  10.624 -0.7341  1.0981  0.2659
  784MOL0     C 8070   3.763   7.861  10.492  0.6956  0.6665  0.0795
  784MOL0     N 8071   3.632   7.924  10.470  0.9150 -0.1609 -0.8076
  784MOL0     C 8072   3.512   7.878  10.521  0.3571 -1.1006 -0.1819
  784MOL0     C 8073   3.417   7.947  10.454  0.1273  0.3692 -0.6420
  784MOL0     C 8074   3.268   7.937  10.489  0.4700 -0.0313  0.2045
  784MOL0     C 8075   3.222   7.980  10.629 -0.1664 -0.5630  0.4251
  784MOL0     C 8076   3.072   7.988  10.647  0.1887  0.0893  0.0254
  784MOL0     C 8077   3.002   7.852  10.648  0.3589 -0.0989 -0.2156
  784MOL0     O 8078   3.036   7.765  10.758 -0.3880  0.7370 -0.0850
  784MOL0     C 8079   3.014   7.631  10.739  0.3421 -0.1645 -1.0394
  784MOL0     C 8080   3.098   7.536  10.793  0.4535  0.1399  0.5121
  784MOL0     C 8081   3.107   7.397  10.763  0.3276 -1.0708  0.5877
  784MOL0     C 8082   3.212   7.306  10.826  0.1261 -0.4256 -0.8293
  784MOL0     C 8083   2.997   7.353  10.681 -0.4263  0.7873  0.2044
  784MOL0     C 8084   2.982   7.217  10.638 -0.1130  0.0510 -0.7658
  784MOL0     O 8085   2.919   7.188  10.518  0.2921  0.1024 -0.4175
  784MOL0     C 8086   2.946   7.069  10.451 -0.4870 -0.3378 -0.7581
  784MOL0     C 8087   2.835   6.987  10.414 -0.3111  0.2603 -0.6104
  784MOL0     C 8088   2.861   6.864  10.353  0.1824  0.9576  0.6592
  784MOL0     C 8089   2.992   6.822  10.323 -0.7960  0.0749 -0.2438
  784MOL0     O 8090   2.999   6.699  10.265 -0.2124  0.1572 -0.0317
  784MOL0     C 8091   3.091   6.609  10.324 -0.5941  0.7176 -0.1564
  784MOL0     C 8092   3.083   6.469  10.249  0.8365  0.5124 -0.4107
  784MOL0     C 8093   3.182   6.375  10.320  0.4441  0.4668 -0.1890
  784MOL0     C 8094   3.323   6.393  10.267 -0.2099 -0.9039 -0.3794
  784MOL0     C 8095   3.424   6.282  10.314 -1.0481 -0.3815  0.2223
  784MOL0     C 8096   3.374   6.141  10.270  0.9028 -0.5856 -0.9866
  784MOL0     C 8097   3.479   6.039  10.318 -0.0349  0.7096 -0.0291
  784MOL0     C 8098   3.448   5.896  10.281 -0.7978  0.5474  0.2920
  784MOL0    Cl 8099   3.409   5.788  10.424  0.2610 -0.0861  0.0060
  784MOL0     C 8100   3.103   6.900  10.366 -1.3597  0.4442  0.4708
  784MOL0     C 8101   3.077   7.024  10.430 -0.0072  0.0630 -0.5623
  784MOL0     O 8102   3.015   7.129  10.719  0.1786  0.5775 -0.1379
  784MOL0     C 8103   2.906   7.444  10.616 -0.2992 -0.0114  0.0936
  784MOL0     C 8104   2.912   7.582  10.650  0.5388 -0.0158  0.2476
  784MOL0     N 8105   3.474   8.047  10.382  0.3477  0.0104 -0.1102
  784MOL0     N 8106   3.605   8.039  10.402  0.8998  0.0738 -0.1858
  784MOL0     C 8107   3.979   7.029  10.895  0.0171  0.1454 -0.0683
  784MOL0     C 8108   3.983   6.891  10.880  0.1282  0.6019 -0.0030
  784MOL0     C 8109   4.063   6.457  10.880 -0.6645  0.6149 -0.1857
  784MOL0     C 8110   4.105   6.381  10.768  0.5824 -0.3321 -0.1999
  784MOL0     C 8111   4.117   6.239  10.776  0.1528 -0.6552 -1.1797
  784MOL0     C 8112   4.090   6.179  10.898  0.4010  0.9872  0.7027
  784MOL0     O 8113   4.085   6.041  10.886 -0.6170  0.2643  0.2505
  784MOL0     C 8114   4.093   5.956  11.001  0.0721 -0.5869 -0.0870
  784MOL0     C 8115   4.151   5.814  10.961  0.3976 -0.4978 -0.1197
  784MOL0     C 8116   4.103   5.746  10.828  0.1587 -0.2015  0.0115
  784MOL0     C 8117   4.201   5.673  10.731 -0.6079 -0.1144 -0.0800
  784MOL0     C 8118   4.268   5.559  10.804  0.6494  0.5869  0.0911
  784MOL0     C 8119   4.326   5.482  10.874  0.1960  0.0011 -0.6864
  784MOL0     C 8120   4.050   6.246  11.007 -1.1145  0.0743 -0.6318
  784MOL0     C 8121   4.035   6.386  11.001  0.1581 -0.6931  0.0915
  784MOL0     C 8122   3.989   6.453  11.132 -0.6429 -0.4795 -0.3445
  784MOL0     H 8123   4.197   6.835  11.144 -1.3032 -2.3769 -0.1375
  784MOL0     H 8124   4.176   7.065  11.170  1.5687 -0.7439 -1.2240
  784MOL0     H 8125   3.915   7.291  10.855  0.2941 -2.7678 -1.7134
  784MOL0     H 8126   4.086   7.274  10.836  0.4170  0.5421  2.3147
  784MOL0     H 8127   3.955   7.503  10.985  0.8272  0.0051  1.2094
  784MOL0     H 8128   4.135   7.483  10.944  0.4976  1.8777 -0.3328
  784MOL0     H 8129   4.129   7.533  10.721 -0.7405 -1.0392 -1.8314
  784MOL0     H 8130   3.963   7.484  10.708 -0.9479 -1.1966  1.7227
  784MOL0     H 8131   3.908   7.706  10.838 -2.3444 -3.0270 -1.2853
  784MOL0     H 8132   4.084   7.723  10.853  0.9498 -0.5995 -0.0457
  784MOL0     H 8133   3.950   7.668  10.576  0.5549 -0.4170  0.5343
  784MOL0     H 8134   4.110   7.736  10.604  1.6029 -0.6932  5.5071
  784MOL0     H 8135   3.993   7.930  10.716 -0.4644 -0.2396 -1.0462
  784MOL0     H 8136   4.011   7.920  10.543 -0.1111  1.3288  0.8554
  784MOL0     H 8137   3.798   8.011  10.615 -0.6803  0.9314 -2.6193
  784MOL0     H 8138   3.764   7.860  10.711  3.4767 -1.1922  1.8453
  784MOL0     H 8139   3.839   7.894  10.421  0.8984  0.6469  0.2862
  784MOL0     H 8140   3.747   7.753  10.484  1.6340  0.4552  0.8723
  784MOL0     H 8141   3.488   7.812  10.604 -3.3470  1.3203  0.9629
  784MOL0     H 8142   3.235   7.837  10.461 -0.3529  0.3604 -0.2732
  784MOL0     H 8143   3.219   8.003  10.417  0.9220 -0.3898 -0.4479
  784MOL0     H 8144   3.264   7.917  10.707  0.1479 -2.1414 -0.9651
  784MOL0     H 8145   3.259   8.082  10.643 -0.3992 -0.6235  1.5287
  784MOL0     H 8146   3.052   8.039  10.741  1.7739  0.2490  0.3041
  784MOL0     H 8147   3.022   8.045  10.568  1.2115 -1.7933 -2.1153
  784MOL0     H 8148   2.895   7.865  10.666  0.3053 -0.9964  0.1593
  784MOL0     H 8149   3.018   7.806  10.550 -0.9251 -0.1058 -0.4334
  784MOL0     H 8150   3.175   7.579  10.856 -2.8683  1.5017  4.0193
  784MOL0     H 8151   3.246   7.239  10.747 -1.4145 -2.0348 -0.2095
  784MOL0     H 8152   3.176   7.257  10.917 -1.2494 -0.9492 -1.6215
  784MOL0     H 8153   3.309   7.353  10.845  0.6430 -1.3514 -1.1468
  784MOL0     H 8154   2.737   7.028  10.436  1.0754  1.7999  3.6318
  784MOL0     H 8155   2.782   6.815  10.298  0.0220  3.3697 -1.4516
  784MOL0     H 8156   3.197   6.638  10.315  0.1076 -0.2520  3.5192
  784MOL0     H 8157   3.065   6.596  10.429 -2.0273 -3.1960 -0.8369
  784MOL0     H 8158   2.980   6.433  10.245  1.1672 -0.5553  0.3814
  784MOL0     H 8159   3.117   6.482  10.145  1.6973  0.3745 -0.1499
  784MOL0     H 8160   3.153   6.272  10.294  1.6278  0.2027 -0.5035
  784MOL0     H 8161   3.187   6.395  10.427  1.7516 -2.5780  0.4211
  784MOL0     H 8162   3.362   6.494  10.284  0.0934 -1.1235  0.2202
  784MOL0     H 8163   3.324   6.392  10.157 -1.3529  0.7688 -0.4517
  784MOL0     H 8164   3.512   6.302  10.252 -1.6106 -2.2923 -1.2687
  784MOL0     H 8165   3.454   6.291  10.419 -0.6620  0.6730  0.0326
  784MOL0     H 8166   3.360   6.140  10.161 -0.8990 -1.8822 -0.7945
  784MOL0     H 8167   3.282   6.109  10.319  1.9149 -3.3560 -0.6885
  784MOL0     H 8168   3.499   6.043  10.426  2.4039  4.0842 -0.4847
  784MOL0     H 8169   3.569   6.074  10.267  0.7515 -0.9250  0.1489
  784MOL0     H 8170   3.539   5.866  10.227 -0.0442  2.0870  0.6547
  784MOL0     H 8171   3.375   5.880  10.201  0.9693  1.8470 -1.6806
  784MOL0     H 8172   3.205   6.863  10.356 -2.1141 -1.5513 -0.4438
  784MOL0     H 8173   3.158   7.090  10.461  0.0673 -0.7505  1.1190
  784MOL0     H 8174   2.828   7.415  10.546  0.2627  0.8371 -0.9256
  784MOL0     H 8175   2.845   7.649  10.597  0.3962 -2.2090 -2.5764
  784MOL0     H 8176   3.911   7.076  10.824  0.2568 -1.3005 -1.3262
  784MOL0     H 8177   3.916   6.833  10.817  1.9834 -1.4348 -0.2356
  784MOL0     H 8178   4.132   6.422  10.671 -1.5134  1.4834 -0.0860
  784MOL0     H 8179   4.142   6.181  10.687  0.4803 -0.2269 -1.3692
  784MOL0     H 8180   4.155   6.002  11.078 -1.2643  2.9093 -0.9144
  784MOL0     H 8181   3.990   5.962  11.040  0.0987  1.1643 -0.2305
  784MOL0     H 8182   4.129   5.746  11.044  0.2191 -1.8078 -1.2071
  784MOL0     H 8183   4.260   5.818  10.961  0.5207 -2.6524 -0.8098
  784MOL0     H 8184   4.023   5.676  10.854  1.7467 -1.4310  1.8798
  784MOL0     H 8185   4.059   5.826  10.769 -0.8596 -2.1339 -1.9939
  784MOL0     H 8186   4.272   5.739  10.680 -2.2180  0.9746 -1.0245
  784MOL0     H 8187   4.139   5.627  10.653 -0.5434  3.2824 -2.3747
  784MOL0     H 8188   4.393   5.412  10.918 -0.2590 -0.3174 -0.4968
  784MOL0     H 8189   4.050   6.195  11.103  3.1815 -0.9257 -0.9646
  784MOL0     H 8190   3.915   6.530  11.110  1.0049  1.7843  1.4479
  784MOL0     H 8191   3.939   6.390  11.207  0.7371 -0.5088  0.5872
  784MOL0     H 8192   4.066   6.513  11.182 -2.0644 -0.4497  1.9664
  785MOL0     O 8193   3.852   0.461   9.663  0.0198  0.0979  0.2205
  785MOL0     C 8194   3.912   0.355   9.687  0.4478 -0.8910 -0.1374
  785MOL0     O 8195   3.864   0.223   9.659 -0.5856  0.1702 -0.6147
  785MOL0     C 8196   3.746   0.214   9.595  0.1093  0.0101  0.4493
  785MOL0     C 8197   3.692   0.304   9.502  0.0942 -0.7426  0.6958
  785MOL0     C 8198   3.564   0.280   9.443 -0.0743 -0.3549  0.8569
  785MOL0     C 8199   3.499   0.158   9.455  0.2862 -0.4630 -0.2618
  785MOL0     O 8200   3.382   0.119   9.392 -1.0867  0.3574 -0.1027
  785MOL0     C 8201   3.408   0.053   9.267 -0.0922  0.6446  0.5361
  785MOL0     C 8202   3.277   0.050   9.178  0.2014 -0.6168 -1.0956
  785MOL0     C 8203   3.239   0.196   9.135  0.2314 -0.0790 -0.5648
  785MOL0     C 8204   3.352   0.280   9.078  0.2560 -0.3134  0.8070
  785MOL0     C 8205   3.293   0.403   9.020 -0.2569  0.9351 -0.2873
  785MOL0     C 8206   3.365   0.471   8.906 -0.2411  0.2036  0.6939
  785MOL0     C 8207   3.498   0.547   8.933 -0.2728 -1.2146 -1.1258
  785MOL0     C 8208   3.620   0.482   8.865  0.4307  0.6050 -1.0808
  785MOL0     N 8209   3.670   0.363   8.930 -0.0997  0.0581  0.4382
  785MOL0     C 8210   3.680   0.241   8.870  0.0804 -1.2130 -0.3086
  785MOL0     C 8211   3.718   0.156   8.972 -0.0848  0.1112  0.3079
  785MOL0     C 8212   3.747   0.010   8.960 -0.1851  0.0385  0.1308
  785MOL0     C 8213   3.880  -0.017   8.903  0.2744  0.4919 -0.0992
  785MOL0     C 8214   3.880  -0.030   8.750 -0.5961 -0.3335 -0.0773
  785MOL0     C 8215   4.015  -0.083   8.720  0.1608  0.0091 -0.2811
  785MOL0     O 8216   4.049  -0.046   8.586 -0.2572 -0.2995 -0.3056
  785MOL0     C 8217   4.147  -0.129   8.530  0.4399 -0.1573 -0.4914
  785MOL0     C 8218   4.137  -0.266   8.514  0.3929  0.2268 -0.6193
  785MOL0     C 8219   4.236  -0.339   8.450  0.5896 -1.0615 -0.6196
  785MOL0     C 8220   4.206  -0.489   8.437  0.1712 -0.5573  0.4346
  785MOL0     C 8221   4.361  -0.275   8.426  1.5446  0.0129  0.5343
  785MOL0     C 8222   4.472  -0.327   8.355  0.3721  0.1737  0.3104
  785MOL0     O 8223   4.579  -0.239   8.338 -0.1617  0.4470  0.1971
  785MOL0     C 8224   4.678  -0.282   8.249  1.0195  0.0721  0.4890
  785MOL0     C 8225   4.810  -0.271   8.295 -0.3872  0.9568  0.7347
  785MOL0     C 8226   4.920  -0.308   8.204  0.8330 -0.7817 -0.3727
  785MOL0     C 8227   4.884  -0.339   8.073 -0.1595  0.3601  0.2242
  785MOL0     O 8228   4.989  -0.360   7.988  0.1361  0.5468 -0.0144
  785MOL0     C 8229   4.977  -0.360   7.845 -0.1965 -0.2272 -0.2934
  785MOL0     C 8230   5.101  -0.402   7.763  0.0771  0.2989  0.1674
  785MOL0     C 8231   5.114  -0.548   7.738  0.3948 -1.0123 -0.4949
  785MOL0     C 8232   5.249  -0.589   7.685  0.4507 -0.1014  0.5404
  785MOL0     C 8233   5.257  -0.736   7.667 -0.5724  0.1222  0.0472
  785MOL0     C 8234   5.396  -0.775   7.600 -0.1794 -0.6145  0.0901
  785MOL0     C 8235   5.386  -0.924   7.578  0.3137 -1.0876 -0.2641
  785MOL0     C 8236   5.482  -0.954   7.456 -0.0528  0.0005  0.1167
  785MOL0    Cl 8237   5.657  -0.915   7.492 -0.2859  0.1354  0.2319
  785MOL0     C 8238   4.751  -0.347   8.031 -0.6213  0.0029 -0.6193
  785MOL0     C 8239   4.645  -0.312   8.115 -0.1847  0.5214 -0.4370
  785MOL0     O 8240   4.476  -0.445   8.330  0.0032  0.4147 -0.3516
  785MOL0     C 8241   4.377  -0.142   8.468 -0.1475  0.6623 -0.2261
  785MOL0     C 8242   4.271  -0.069   8.519  0.7754  0.1900  0.2389
  785MOL0     N 8243   3.718   0.223   9.086  1.0867  0.1822  0.1044
  785MOL0     N 8244   3.709   0.345   9.054 -0.7564  0.0566 -0.5139
  785MOL0     C 8245   3.563   0.064   9.535 -0.3294 -0.3530 -0.0948
  785MOL0     C 8246   3.685   0.091   9.617  0.7158  0.1628  0.1362
  785MOL0     C 8247   4.048   0.356   9.742  0.3124 -0.3827  0.7712
  785MOL0     C 8248   4.117   0.237   9.780  0.1167 -0.2569  0.1046
  785MOL0     C 8249   4.241   0.239   9.846  0.2514  0.3849  0.5004
  785MOL0     C 8250   4.315   0.356   9.865  0.8916  0.4083 -0.1132
  785MOL0     O 8251   4.429   0.368   9.939  0.7935 -0.3492  0.0071
  785MOL0     C 8252   4.501   0.248   9.986  0.6333 -1.1354  0.1651
  785MOL0     C 8253   4.637   0.284  10.049  0.2647 -0.1425  0.2323
  785MOL0     C 8254   4.722   0.146  10.057  0.4116  0.2616  0.6092
  785MOL0     C 8255   4.876   0.187  10.061  1.1764  0.4574 -0.0107
  785MOL0     C 8256   4.915   0.219  10.196 -0.6471  0.5587  0.1559
  785MOL0     C 8257   4.937   0.259  10.304 -1.4051  0.5197 -0.5048
  785MOL0     C 8258   4.249   0.470   9.828 -1.2151 -0.0332 -0.0398
  785MOL0     C 8259   4.116   0.476   9.765  0.2117  0.1724  0.3050
  785MOL0     C 8260   4.066   0.613   9.737 -0.3478 -0.9374  0.0960
  785MOL0     H 8261   3.741   0.397   9.472  1.2078 -1.8060 -0.9124
  785MOL0     H 8262   3.508   0.348   9.380 -2.0878 -0.4105  2.4736
  785MOL0     H 8263   3.427  -0.052   9.294  3.5825  1.3133  1.0204
  785MOL0     H 8264   3.495   0.092   9.212  0.6702 -3.1923 -1.4187
  785MOL0     H 8265   3.295  -0.018   9.094  0.2837 -1.5301 -0.3454
  785MOL0     H 8266   3.200   0.018   9.249  1.3084  2.5168  1.7672
  785MOL0     H 8267   3.147   0.193   9.076 -0.3104 -0.6264  0.2865
  785MOL0     H 8268   3.204   0.247   9.225 -2.1835 -0.2679 -1.3412
  785MOL0     H 8269   3.428   0.294   9.154  0.4000  1.5090  0.3695
  785MOL0     H 8270   3.395   0.220   8.997 -0.9892  2.8464 -2.4605
  785MOL0     H 8271   3.287   0.479   9.098 -3.0845  0.2700  0.2573
  785MOL0     H 8272   3.188   0.391   8.990 -0.6310  0.0907  1.2465
  785MOL0     H 8273   3.376   0.385   8.838 -1.2628 -0.0243  0.8009
  785MOL0     H 8274   3.296   0.542   8.859  2.6531  2.2945 -0.7366
  785MOL0     H 8275   3.507   0.555   9.042 -1.1820 -0.5991 -1.0799
  785MOL0     H 8276   3.490   0.651   8.900  2.1294  0.1739  2.1628
  785MOL0     H 8277   3.607   0.469   8.758 -0.2653 -1.6356 -0.7753
  785MOL0     H 8278   3.707   0.549   8.867  2.5537 -1.9670  0.1384
  785MOL0     H 8279   3.660   0.210   8.768 -1.4582 -1.7968  0.1422
  785MOL0     H 8280   3.668  -0.047   8.910 -1.3208  1.2992  0.4398
  785MOL0     H 8281   3.747  -0.027   9.063  2.3384 -2.3571 -0.5848
  785MOL0     H 8282   3.960   0.053   8.931 -0.7270  0.8704  1.9345
  785MOL0     H 8283   3.907  -0.116   8.940  1.0069  1.4036  1.9364
  785MOL0     H 8284   3.797  -0.094   8.717  1.0752 -2.8240  0.2532
  785MOL0     H 8285   3.859   0.066   8.703  1.0963 -1.1273 -2.6955
  785MOL0     H 8286   4.089  -0.036   8.785 -1.0965  1.7503 -0.0444
  785MOL0     H 8287   4.018  -0.191   8.736 -2.7472 -0.0189  0.5477
  785MOL0     H 8288   4.044  -0.312   8.545 -0.2911  0.2673 -2.4768
  785MOL0     H 8289   4.111  -0.514   8.484  1.5694 -3.3676  2.0032
  785MOL0     H 8290   4.278  -0.543   8.500 -1.7966 -2.7158  0.9684
  785MOL0     H 8291   4.201  -0.514   8.331  1.0912 -0.3377  0.3303
  785MOL0     H 8292   4.821  -0.249   8.400  2.6635  1.2415  0.4432
  785MOL0     H 8293   5.025  -0.315   8.231  1.0406  0.9381 -0.5833
  785MOL0     H 8294   4.888  -0.416   7.816 -0.8273  1.0262 -0.8435
  785MOL0     H 8295   4.960  -0.256   7.814 -1.9829 -0.5052 -0.3306
  785MOL0     H 8296   5.092  -0.363   7.661  0.8922 -3.0065 -1.3077
  785MOL0     H 8297   5.189  -0.355   7.807  0.8018  0.5744 -1.4912
  785MOL0     H 8298   5.036  -0.572   7.665 -2.5620 -1.7717  2.6826
  785MOL0     H 8299   5.096  -0.602   7.832  2.1840 -0.4368  0.2178
  785MOL0     H 8300   5.328  -0.555   7.753  0.4070  1.0529  0.0426
  785MOL0     H 8301   5.263  -0.536   7.591 -0.8221  0.5872  0.7168
  785MOL0     H 8302   5.261  -0.786   7.764 -0.9737  1.8173  0.9935
  785MOL0     H 8303   5.168  -0.761   7.608  0.0881 -0.2951 -0.7890
  785MOL0     H 8304   5.479  -0.738   7.661  0.0031  1.7131 -1.4320
  785MOL0     H 8305   5.400  -0.720   7.506 -0.3963 -0.8111 -0.0349
  785MOL0     H 8306   5.286  -0.960   7.549 -2.2308  4.1786  0.6834
  785MOL0     H 8307   5.419  -0.950   7.679 -1.7511  0.1517  0.7967
  785MOL0     H 8308   5.446  -0.890   7.375 -4.4863  0.1582  1.9079
  785MOL0     H 8309   5.483  -1.056   7.418 -0.3457 -0.6452  1.7414
  785MOL0     H 8310   4.720  -0.355   7.927 -1.5432 -3.7131 -0.2093
  785MOL0     H 8311   4.544  -0.323   8.076 -0.3985 -1.8574  0.6149
  785MOL0     H 8312   4.468  -0.083   8.457 -1.7910  3.2135 -1.1798
  785MOL0     H 8313   4.287   0.029   8.561 -1.0291  0.0734  1.3202
  785MOL0     H 8314   3.530  -0.039   9.533 -2.1166  0.1820  0.0907
  785MOL0     H 8315   3.724   0.015   9.684 -3.5921  1.1713  4.4077
  785MOL0     H 8316   4.063   0.148   9.751 -0.5536 -0.3450  1.5961
  785MOL0     H 8317   4.286   0.148   9.883  1.1957  0.2287 -0.9259
  785MOL0     H 8318   4.435   0.198  10.058  0.6940 -0.5976  0.5946
  785MOL0     H 8319   4.519   0.186   9.897  2.3506  1.5658 -1.4838
  785MOL0     H 8320   4.618   0.322  10.150  0.8564  2.8286 -0.6792
  785MOL0     H 8321   4.689   0.369  10.005 -0.1466  1.9265  3.4031
  785MOL0     H 8322   4.688   0.080  10.138 -1.0901 -0.6983 -0.7565
  785MOL0     H 8323   4.708   0.083   9.969 -2.0502  1.8260 -0.2189
  785MOL0     H 8324   4.892   0.264   9.985  1.0513 -1.2654 -1.8574
  785MOL0     H 8325   4.935   0.104  10.021 -1.2633  0.9285 -5.4881
  785MOL0     H 8326   4.955   0.301  10.400  1.6785  1.4937 -1.3911
  785MOL0     H 8327   4.307   0.561   9.839 -0.9515 -0.2307  0.2153
  785MOL0     H 8328   4.148   0.685   9.736  0.7548 -2.0859  1.7504
  785MOL0     H 8329   4.010   0.624   9.644 -0.7206 -1.0962  0.2989
  785MOL0     H 8330   3.998   0.647   9.816  0.7612  0.4062  0.5177
  786MOL0     O 8331   9.297   8.171   7.022 -0.5291 -0.2643 -0.8009
  786MOL0     C 8332   9.404   8.182   6.970 -0.4670 -0.1633  0.3372
  786MOL0     O 8333   9.507   8.246   7.029  0.5232  0.9409  0.1352
  786MOL0     C 8334   9.483   8.320   7.137  0.2881  0.1818  0.4343
  786MOL0     C 8335   9.493   8.261   7.261  0.5268 -0.3857 -0.8822
  786MOL0     C 8336   9.460   8.332   7.378  0.7835 -0.5620  0.2168
  786MOL0     C 8337   9.426   8.474   7.374 -0.4573 -0.2562 -1.1691
  786MOL0     O 8338   9.396   8.563   7.477 -0.1104 -0.4683 -0.1145
  786MOL0     C 8339   9.401   8.505   7.610 -0.0952 -0.6076  0.5338
  786MOL0     C 8340   9.362   8.617   7.717  0.1085  0.1749  0.1320
  786MOL0     C 8341   9.475   8.732   7.719 -0.6419 -0.7496  0.6928
  786MOL0     C 8342   9.452   8.837   7.831  0.0961  0.7913  0.2074
  786MOL0     C 8343   9.551   8.948   7.820  0.0851 -0.3565  1.2123
  786MOL0     C 8344   9.538   9.060   7.926 -0.6953  0.0451  0.1401
  786MOL0     C 8345   9.596   9.007   8.058 -0.0152 -0.2560  0.0691
  786MOL0     C 8346   9.572   9.125   8.168  0.4564 -0.2955  0.3660
  786MOL0     N 8347   9.669   9.243   8.139 -0.7879  0.0164 -0.5839
  786MOL0     C 8348   9.803   9.233   8.126  0.5296  0.6036  0.3605
  786MOL0     C 8349   9.848   9.356   8.116 -0.3722  0.3408 -0.9529
  786MOL0     C 8350   9.985   9.384   8.075 -0.5529  0.4243 -0.0886
  786MOL0     C 8351  10.063   9.456   8.180  0.6931 -0.5598 -0.0680
  786MOL0     C 8352  10.018   9.608   8.175 -0.5519  0.4003  0.0977
  786MOL0     C 8353  10.090   9.674   8.062  0.2152 -0.0472  0.3831
  786MOL0     O 8354  10.046   9.808   8.057 -0.1594 -0.9905 -0.5995
  786MOL0     C 8355  10.134   9.905   8.008 -0.3735  0.7177 -0.3466
  786MOL0     C 8356  10.077  10.009   7.935 -0.3412  0.6789  0.5847
  786MOL0     C 8357  10.149  10.126   7.895 -0.1726  0.6784 -0.6802
  786MOL0     C 8358  10.060  10.248   7.845 -0.0065  0.8816 -0.0922
  786MOL0     C 8359  10.294  10.115   7.903 -0.0904  0.1957 -0.3648
  786MOL0     C 8360  10.381  10.223   7.862 -0.0012  0.0924  1.0422
  786MOL0     O 8361  10.513  10.220   7.909 -0.7061 -0.4872  0.0822
  786MOL0     C 8362  10.616  10.294   7.858 -0.8508 -0.0336 -0.0711
  786MOL0     C 8363  10.627  10.339   7.725  0.0774  0.0406  0.2565
  786MOL0     C 8364  10.721  10.435   7.691  0.0429  0.5428  0.2567
  786MOL0     C 8365  10.808  10.485   7.781  0.2491 -0.7725 -0.3611
  786MOL0     O 8366  10.903  10.587   7.760 -0.0226 -0.1700 -0.1873
  786MOL0     C 8367  10.890  10.685   7.656 -0.0509 -0.6353  1.4950
  786MOL0     C 8368  10.985  10.813   7.678 -0.8432  0.5695 -0.9889
  786MOL0     C 8369  11.128  10.779   7.670 -0.3314 -0.5284  0.2851
  786MOL0     C 8370  11.211  10.909   7.628 -0.3120 -0.4850 -0.2717
  786MOL0     C 8371  11.362  10.888   7.674 -0.0525  0.0581 -0.0807
  786MOL0     C 8372  11.433  11.033   7.685 -0.0545  0.2490  0.6504
  786MOL0     C 8373  11.577  11.019   7.737 -0.3230  0.0551 -0.8802
  786MOL0     C 8374  11.623  11.165   7.758 -0.1253 -0.0605  0.6573
  786MOL0    Cl 8375  11.804  11.169   7.804  0.2438  0.2107 -0.6077
  786MOL0     C 8376  10.805  10.427   7.909  0.8771  0.1369 -0.6224
  786MOL0     C 8377  10.714  10.329   7.946  0.1534  0.2849 -0.1011
  786MOL0     O 8378  10.341  10.300   7.771 -0.3625 -0.1998  0.4260
  786MOL0     C 8379  10.354  10.000   7.959  0.0678  0.0428  0.3996
  786MOL0     C 8380  10.278   9.901   8.021 -0.1633  0.0345 -0.4777
  786MOL0     N 8381   9.738   9.443   8.110  0.0130 -0.0577  1.1123
  786MOL0     N 8382   9.627   9.372   8.122  0.3824  0.7268  0.1803
  786MOL0     C 8383   9.430   8.535   7.246  0.4138 -0.1763 -0.8643
  786MOL0     C 8384   9.457   8.461   7.127 -0.2286 -1.0087  0.6218
  786MOL0     C 8385   9.437   8.136   6.830 -0.1320  0.2383  1.7477
  786MOL0     C 8386   9.561   8.163   6.767 -0.8822  0.5032  0.6393
  786MOL0     C 8387   9.596   8.122   6.640 -0.5751 -0.4436 -0.2112
  786MOL0     C 8388   9.503   8.073   6.552  0.7961 -0.0425  0.3380
  786MOL0     O 8389   9.509   8.039   6.415  0.4417 -0.4307  0.2201
  786MOL0     C 8390   9.635   8.042   6.349  0.6458  0.6098 -1.0887
  786MOL0     C 8391   9.633   7.960   6.217 -0.4637  0.8556  0.1943
  786MOL0     C 8392   9.640   7.808   6.248 -0.2840  0.9544  0.4243
  786MOL0     C 8393   9.498   7.746   6.251 -0.5681 -0.5721  0.0792
  786MOL0     C 8394   9.449   7.717   6.117 -0.1316 -0.4026  0.9822
  786MOL0     C 8395   9.391   7.690   6.016  1.3114  0.4762  0.5792
  786MOL0     C 8396   9.373   8.035   6.606 -0.1393 -0.1267 -0.0348
  786MOL0     C 8397   9.343   8.066   6.741  0.3695  1.0312 -0.9367
  786MOL0     C 8398   9.203   8.012   6.785 -0.4429 -0.0975 -0.6576
  786MOL0     H 8399   9.516   8.156   7.273 -0.0918 -0.5426 -1.0269
  786MOL0     H 8400   9.460   8.284   7.475 -1.1603  1.2269  1.1625
  786MOL0     H 8401   9.501   8.469   7.636  0.1861  0.0918  0.4649
  786MOL0     H 8402   9.323   8.429   7.619 -1.0966  0.3180 -0.1202
  786MOL0     H 8403   9.261   8.647   7.688 -0.7074 -2.5233 -0.1391
  786MOL0     H 8404   9.361   8.578   7.820 -1.1173 -1.9017 -0.6105
  786MOL0     H 8405   9.563   8.671   7.740 -0.4117 -0.9720 -0.7599
  786MOL0     H 8406   9.496   8.790   7.628  0.9785 -0.7486  1.0388
  786MOL0     H 8407   9.350   8.876   7.838  0.2154  0.8860  1.8015
  786MOL0     H 8408   9.461   8.774   7.920  0.9304 -1.8927 -1.6366
  786MOL0     H 8409   9.535   8.980   7.716 -2.5540 -3.2294  0.5659
  786MOL0     H 8410   9.652   8.905   7.825  0.3839 -0.2502 -1.8398
  786MOL0     H 8411   9.583   9.154   7.892 -2.1919  0.9288  0.4969
  786MOL0     H 8412   9.431   9.081   7.936 -0.6609 -0.0641  0.7870
  786MOL0     H 8413   9.701   8.986   8.036 -0.5110 -2.2190 -0.6800
  786MOL0     H 8414   9.540   8.924   8.102  0.7691 -1.1935 -0.6648
  786MOL0     H 8415   9.467   9.149   8.153  0.6570  0.4166  0.0539
  786MOL0     H 8416   9.582   9.092   8.272  1.7982  2.5902  1.2436
  786MOL0     H 8417   9.849   9.135   8.125 -5.8244 -2.8614 -0.7847
  786MOL0     H 8418   9.999   9.432   7.978  4.0968  0.4648  0.3644
  786MOL0     H 8419  10.031   9.286   8.061  2.0514  1.3267  1.5358
  786MOL0     H 8420  10.034   9.425   8.281 -1.2045  3.6674  0.9428
  786MOL0     H 8421  10.171   9.450   8.164  1.0984  2.0616  1.0923
  786MOL0     H 8422   9.909   9.612   8.163 -0.5242 -1.2272 -0.9017
  786MOL0     H 8423  10.051   9.653   8.269  1.7403 -1.2277  0.1593
  786MOL0     H 8424  10.198   9.664   8.072  0.5172 -0.6565 -2.6002
  786MOL0     H 8425  10.064   9.620   7.970  0.2723  1.7158 -0.7113
  786MOL0     H 8426   9.969  10.004   7.928 -0.6412  1.6095  3.4522
  786MOL0     H 8427  10.077  10.266   7.739  0.8850 -0.8856 -0.2827
  786MOL0     H 8428  10.089  10.338   7.901 -2.2130  2.0482 -0.7042
  786MOL0     H 8429   9.953  10.231   7.861 -0.1727  0.1537 -1.8596
  786MOL0     H 8430  10.558  10.298   7.652  0.5204  1.4282 -1.0051
  786MOL0     H 8431  10.717  10.474   7.589  0.6615 -1.5020 -0.6109
  786MOL0     H 8432  10.926  10.644   7.562 -1.2339 -2.1627  1.6764
  786MOL0     H 8433  10.787  10.712   7.629  0.8934  0.3564 -1.5076
  786MOL0     H 8434  10.960  10.884   7.598 -0.1978  0.8817 -0.9145
  786MOL0     H 8435  10.952  10.854   7.774 -0.6745 -1.7539  0.1242
  786MOL0     H 8436  11.149  10.704   7.592  0.3307  1.8861 -2.0045
  786MOL0     H 8437  11.173  10.734   7.759  0.6528 -1.2805 -0.5565
  786MOL0     H 8438  11.173  10.991   7.690 -1.8107 -1.5486  0.2713
  786MOL0     H 8439  11.207  10.927   7.521 -0.4036  5.2859  0.4012
  786MOL0     H 8440  11.381  10.846   7.773  0.3544  1.1960  0.3393
  786MOL0     H 8441  11.410  10.822   7.601  2.3441 -2.5518  3.5383
  786MOL0     H 8442  11.376  11.103   7.747  1.0102  1.0082  0.7927
  786MOL0     H 8443  11.442  11.072   7.584 -0.3108 -3.4325 -0.9783
  786MOL0     H 8444  11.647  10.965   7.672  1.9732  1.0010  0.6668
  786MOL0     H 8445  11.580  10.967   7.834  0.1202 -0.2403 -1.0511
  786MOL0     H 8446  11.555  11.205   7.834 -1.3064 -0.1262 -0.3477
  786MOL0     H 8447  11.626  11.228   7.669  2.4001  1.3695  1.6270
  786MOL0     H 8448  10.884  10.454   7.978  0.6406 -2.1845  0.6274
  786MOL0     H 8449  10.704  10.277   8.041  0.6208  1.8522  0.8370
  786MOL0     H 8450  10.461   9.992   7.947 -0.1693  0.7895 -3.3971
  786MOL0     H 8451  10.329   9.815   8.064  1.0856  1.4962  1.1213
  786MOL0     H 8452   9.408   8.641   7.245 -3.1156 -0.7801 -1.5568
  786MOL0     H 8453   9.444   8.506   7.029  0.6232 -0.9436  0.5309
  786MOL0     H 8454   9.634   8.201   6.838  1.5275 -1.6525 -0.4953
  786MOL0     H 8455   9.693   8.144   6.595 -0.7846 -0.9103 -0.9125
  786MOL0     H 8456   9.675   8.143   6.338  0.0022  1.1190  0.8580
  786MOL0     H 8457   9.717   8.002   6.409  1.1234  1.6460 -1.0233
  786MOL0     H 8458   9.726   7.973   6.161 -0.1869  0.6743  0.6072
  786MOL0     H 8459   9.548   7.996   6.159  0.3232  0.6475 -1.1458
  786MOL0     H 8460   9.699   7.759   6.170 -0.8398  0.9708 -0.0116
  786MOL0     H 8461   9.689   7.784   6.343  3.1465  0.1500 -1.3506
  786MOL0     H 8462   9.426   7.810   6.302  0.1006 -0.3720  0.7869
  786MOL0     H 8463   9.501   7.655   6.312 -0.3709  0.1878  1.2277
  786MOL0     H 8464   9.330   7.662   5.933  1.8763 -1.4200  0.7582
  786MOL0     H 8465   9.308   7.977   6.541 -1.2306  1.8745 -0.8139
  786MOL0     H 8466   9.203   7.940   6.867  0.5274  0.3982 -0.1998
  786MOL0     H 8467   9.142   8.094   6.824 -0.8000 -0.3551 -0.6743
  786MOL0     H 8468   9.147   7.965   6.704 -1.0084 -0.6886  0.0603
  787MOL0     O 8469   6.132   1.130   3.215 -0.5584  0.2502  0.1153
  787MOL0     C 8470   6.084   1.198   3.301  0.5893  0.7100  0.1335
  787MOL0     O 8471   6.056   1.331   3.291  0.3239  0.0353  0.7317
  787MOL0     C 8472   6.104   1.399   3.180 -0.2715  1.1090  0.4359
  787MOL0     C 8473   6.024   1.431   3.076  1.1048  0.0818 -0.4076
  787MOL0     C 8474   6.070   1.481   2.954  0.0577 -0.7601 -0.6653
  787MOL0     C 8475   6.207   1.517   2.950 -1.4699 -1.0729  0.4627
  787MOL0     O 8476   6.257   1.574   2.837 -0.5231 -0.8620  0.0867
  787MOL0     C 8477   6.394   1.617   2.823 -0.3341 -0.3851  0.5184
  787MOL0     C 8478   6.432   1.736   2.916  0.2348 -0.1913 -0.4377
  787MOL0     C 8479   6.584   1.766   2.905  1.6587 -0.3115 -0.2600
  787MOL0     C 8480   6.629   1.877   3.004 -0.0264  0.1591  0.3169
  787MOL0     C 8481   6.634   2.014   2.938 -0.3609  1.7219  0.2609
  787MOL0     C 8482   6.682   2.124   3.033  0.0777 -0.3196  0.0322
  787MOL0     C 8483   6.821   2.114   3.083  0.3656 -0.3454  0.3543
  787MOL0     C 8484   6.862   2.226   3.172 -0.4013  0.2241 -0.2921
  787MOL0     N 8485   6.991   2.186   3.230 -0.4489  0.0607 -0.5269
  787MOL0     C 8486   7.092   2.273   3.264 -0.3120  0.2365 -0.0138
  787MOL0     C 8487   7.179   2.191   3.323 -0.0463  0.1493  0.2692
  787MOL0     C 8488   7.307   2.226   3.394  0.3367  0.4972 -0.0067
  787MOL0     C 8489   7.443   2.164   3.340 -0.3970 -0.1714 -0.4813
  787MOL0     C 8490   7.486   2.210   3.193  0.4215  0.4014 -0.9344
  787MOL0     C 8491   7.620   2.171   3.125  0.2303  0.6166  0.1814
  787MOL0     O 8492   7.634   2.229   2.994  0.1964 -0.0007  0.4005
  787MOL0     C 8493   7.713   2.170   2.905 -0.7576  0.9098 -0.2226
  787MOL0     C 8494   7.825   2.091   2.944  0.8006  0.5855  0.2450
  787MOL0     C 8495   7.919   2.039   2.846  0.3017 -0.5897 -1.0837
  787MOL0     C 8496   8.036   1.977   2.918 -0.5366 -0.3084 -0.0132
  787MOL0     C 8497   7.895   2.061   2.706 -0.1778  0.3252  0.1648
  787MOL0     C 8498   7.977   2.002   2.592  0.4788  0.1880 -0.2752
  787MOL0     O 8499   7.921   2.013   2.471  0.1868 -0.7618 -0.2587
  787MOL0     C 8500   7.990   1.952   2.364 -0.0579  0.0152 -0.0048
  787MOL0     C 8501   7.972   1.814   2.346 -0.0075 -0.0603  0.4479
  787MOL0     C 8502   8.034   1.749   2.239  0.8289 -0.3871 -0.1452
  787MOL0     C 8503   8.104   1.816   2.150 -0.5757 -0.5978  0.1931
  787MOL0     O 8504   8.150   1.765   2.037 -0.1653  0.2028  0.0607
  787MOL0     C 8505   8.132   1.623   2.006  0.2638  0.3131 -0.2471
  787MOL0     C 8506   8.150   1.593   1.860  0.2416 -0.4535  0.3868
  787MOL0     C 8507   8.197   1.450   1.824 -0.2762 -0.2346 -0.3652
  787MOL0     C 8508   8.211   1.408   1.671  0.1244 -0.3832 -0.3983
  787MOL0     C 8509   8.081   1.394   1.601 -0.1069  0.0171  0.4187
  787MOL0     C 8510   8.109   1.339   1.454 -1.0212 -0.5923  0.1637
  787MOL0     C 8511   7.978   1.338   1.381  0.7119 -0.8349 -0.2011
  787MOL0     C 8512   8.009   1.302   1.239 -0.4524  0.2572  0.2813
  787MOL0    Cl 8513   8.080   1.447   1.144  0.0077  0.0346 -0.0384
  787MOL0     C 8514   8.123   1.958   2.158 -0.8274  0.2474 -0.3836
  787MOL0     C 8515   8.062   2.029   2.267 -0.7886  0.0560 -0.3024
  787MOL0     O 8516   8.084   1.939   2.613  0.2964 -0.0630  0.0304
  787MOL0     C 8517   7.784   2.143   2.678  0.0225 -0.1633 -0.1959
  787MOL0     C 8518   7.701   2.193   2.769 -0.4306 -0.6520 -0.0641
  787MOL0     N 8519   7.151   2.063   3.289 -0.4265  0.0755 -0.0783
  787MOL0     N 8520   7.034   2.058   3.249 -0.2322  0.0136 -0.0878
  787MOL0     C 8521   6.294   1.492   3.060  1.0420  0.0315  0.2178
  787MOL0     C 8522   6.239   1.428   3.165 -0.1390  1.0081 -0.3974
  787MOL0     C 8523   6.058   1.149   3.439  0.2010  0.1971 -0.1664
  787MOL0     C 8524   6.058   1.247   3.540  0.3268  0.5050 -0.5487
  787MOL0     C 8525   6.036   1.220   3.674  0.1914  0.6939  0.1110
  787MOL0     C 8526   6.028   1.087   3.710  0.6260 -0.0068 -0.5609
  787MOL0     O 8527   6.025   1.050   3.843  0.3658  0.7995 -0.0929
  787MOL0     C 8528   6.011   1.152   3.944  0.6811 -0.2971  0.2372
  787MOL0     C 8529   6.150   1.209   3.979 -0.0582  0.5387 -0.0215
  787MOL0     C 8530   6.237   1.116   4.065 -0.9707  0.2385 -0.1087
  787MOL0     C 8531   6.361   1.191   4.118  1.0322 -0.4563 -0.4930
  787MOL0     C 8532   6.479   1.210   4.023 -0.3153  0.1272 -0.5227
  787MOL0     C 8533   6.569   1.251   3.954 -0.6084 -0.2016  0.6375
  787MOL0     C 8534   6.025   0.991   3.612 -0.1696  0.7566 -0.2687
  787MOL0     C 8535   6.036   1.018   3.473  0.1578  1.4637  0.2187
  787MOL0     C 8536   6.031   0.902   3.380  0.3741 -0.0393  0.1373
  787MOL0     H 8537   5.919   1.417   3.102  1.4482 -1.4581  0.2824
  787MOL0     H 8538   6.007   1.513   2.871  0.8394  1.4492 -0.4792
  787MOL0     H 8539   6.415   1.646   2.720  1.6314 -2.4021  0.2831
  787MOL0     H 8540   6.464   1.534   2.837 -0.6189 -0.2559  3.1789
  787MOL0     H 8541   6.383   1.829   2.888 -1.3646 -0.4340  1.3260
  787MOL0     H 8542   6.401   1.708   3.018  0.2875 -0.7474 -0.5686
  787MOL0     H 8543   6.637   1.675   2.937 -0.6600 -0.5279  3.6083
  787MOL0     H 8544   6.622   1.804   2.809  1.0935 -1.4717 -0.9683
  787MOL0     H 8545   6.563   1.872   3.092  0.3308  0.6524  0.6158
  787MOL0     H 8546   6.725   1.851   3.048  0.6293 -0.5458 -1.4668
  787MOL0     H 8547   6.534   2.030   2.897 -0.5386 -0.4897 -0.2616
  787MOL0     H 8548   6.707   2.020   2.857  1.3694  1.7750  1.7572
  787MOL0     H 8549   6.677   2.221   2.982 -2.4315 -0.3699  0.0604
  787MOL0     H 8550   6.613   2.135   3.117  0.4518  2.3755  0.0874
  787MOL0     H 8551   6.897   2.101   3.006  0.6276  0.1492  0.5266
  787MOL0     H 8552   6.828   2.017   3.135  1.0705 -0.2585  0.4240
  787MOL0     H 8553   6.855   2.323   3.123 -2.9789 -0.0784 -0.6260
  787MOL0     H 8554   6.786   2.227   3.250 -1.0860 -1.3132 -0.8898
  787MOL0     H 8555   7.102   2.380   3.250  0.2681  0.3980  1.5030
  787MOL0     H 8556   7.294   2.192   3.497 -0.2941 -0.1149 -0.2872
  787MOL0     H 8557   7.328   2.334   3.395 -2.9156  1.2649 -0.6014
  787MOL0     H 8558   7.530   2.195   3.398  0.2988 -1.3129 -0.8643
  787MOL0     H 8559   7.438   2.054   3.339 -2.8989 -0.2411  2.9781
  787MOL0     H 8560   7.407   2.179   3.124  0.9624 -0.6923 -1.0771
  787MOL0     H 8561   7.477   2.319   3.190  0.5006  0.4967  0.8821
  787MOL0     H 8562   7.701   2.215   3.184  1.0023 -0.3788 -0.1182
  787MOL0     H 8563   7.632   2.063   3.136  0.7076  0.9327  3.8180
  787MOL0     H 8564   7.847   2.082   3.050 -2.0202 -1.1698  0.7921
  787MOL0     H 8565   8.019   1.871   2.899  1.6632 -0.2746 -2.7868
  787MOL0     H 8566   8.041   2.000   3.024 -1.5806 -0.8932  0.1740
  787MOL0     H 8567   8.128   2.006   2.865 -1.3121  1.2074 -0.6181
  787MOL0     H 8568   7.933   1.755   2.428 -0.5468  4.0170  3.4415
  787MOL0     H 8569   8.020   1.641   2.249  0.6470 -0.3126  0.4958
  787MOL0     H 8570   8.206   1.566   2.064 -0.8250  1.6932  2.6640
  787MOL0     H 8571   8.028   1.595   2.025  0.3169 -0.2363 -0.7274
  787MOL0     H 8572   8.059   1.597   1.800  1.1976 -3.1123 -1.4358
  787MOL0     H 8573   8.224   1.664   1.823 -1.7383 -0.2696 -3.7045
  787MOL0     H 8574   8.129   1.377   1.871 -1.8644 -0.4021 -2.7285
  787MOL0     H 8575   8.298   1.441   1.865  0.2626 -1.5069 -1.8918
  787MOL0     H 8576   8.264   1.313   1.669  0.5740 -0.1288 -2.1332
  787MOL0     H 8577   8.271   1.481   1.617 -1.9817  2.5228  0.9039
  787MOL0     H 8578   8.028   1.321   1.664  1.2138  0.8987  2.6711
  787MOL0     H 8579   8.018   1.483   1.605 -0.8754 -0.4194 -1.0716
  787MOL0     H 8580   8.151   1.238   1.450  1.2980  0.3164 -0.0935
  787MOL0     H 8581   8.179   1.407   1.405 -0.1918 -1.0298  0.7042
  787MOL0     H 8582   7.922   1.432   1.388  1.3863 -0.5210  1.4057
  787MOL0     H 8583   7.919   1.260   1.429  1.9417 -2.3158 -1.0018
  787MOL0     H 8584   7.919   1.274   1.184 -0.8605 -0.0623  1.0931
  787MOL0     H 8585   8.074   1.214   1.242 -1.4892 -0.5105  2.4013
  787MOL0     H 8586   8.175   2.009   2.077  0.5022  1.4797  1.1633
  787MOL0     H 8587   8.079   2.136   2.263  1.3725 -0.2688 -1.3066
  787MOL0     H 8588   7.757   2.171   2.577  0.2047  2.3298  0.3719
  787MOL0     H 8589   7.619   2.258   2.740  0.8315  1.2906  0.5578
  787MOL0     H 8590   6.401   1.505   3.052  1.9373 -3.6864  3.1926
  787MOL0     H 8591   6.298   1.401   3.252  1.9154  3.9150 -0.7580
  787MOL0     H 8592   6.081   1.352   3.525 -0.9352  1.3343  2.6794
  787MOL0     H 8593   6.043   1.308   3.737 -2.1031  1.1409 -0.1777
  787MOL0     H 8594   5.947   1.233   3.907 -0.7358 -0.6265  1.8707
  787MOL0     H 8595   5.953   1.110   4.027  1.7037 -0.4606  0.8885
  787MOL0     H 8596   6.134   1.301   4.036 -1.8177  0.4351 -0.2937
  787MOL0     H 8597   6.206   1.238   3.890 -0.3687  3.0277  0.5186
  787MOL0     H 8598   6.177   1.087   4.151 -1.3153  1.1857 -0.0256
  787MOL0     H 8599   6.262   1.027   4.007 -0.7752  0.8196 -0.9332
  787MOL0     H 8600   6.392   1.135   4.207 -1.8523 -3.5107 -1.1954
  787MOL0     H 8601   6.328   1.290   4.149 -0.0795 -0.3098 -2.0039
  787MOL0     H 8602   6.643   1.275   3.880 -1.4677  0.1243 -0.1324
  787MOL0     H 8603   6.024   0.886   3.641 -0.1421  1.2990  1.8622
  787MOL0     H 8604   5.935   0.880   3.333  1.2448 -1.1297 -1.2408
  787MOL0     H 8605   6.111   0.913   3.306 -0.6238  2.0779 -0.7131
  787MOL0     H 8606   6.060   0.812   3.435 -1.8471 -0.7405  0.2519
  788MOL0     O 8607   0.046   2.099   8.120  0.2256  0.0746 -0.1847
  788MOL0     C 8608  -0.018   2.204   8.130  0.3276 -0.1452  0.2700
  788MOL0     O 8609   0.038   2.329   8.146 -0.2109  0.7033  0.5109
  788MOL0     C 8610   0.170   2.358   8.150 -0.0084 -0.5361  1.3513
  788MOL0     C 8611   0.213   2.462   8.235 -0.1413 -0.4300 -0.1720
  788MOL0     C 8612   0.344   2.494   8.235 -0.0132 -0.4505  0.4634
  788MOL0     C 8613   0.444   2.433   8.159  0.4807  0.5386 -0.1273
  788MOL0     O 8614   0.577   2.467   8.156 -0.2268  1.4697  0.4868
  788MOL0     C 8615   0.641   2.496   8.287 -0.6206  0.9489  0.2684
  788MOL0     C 8616   0.779   2.554   8.251  0.0626 -0.6360  0.0262
  788MOL0     C 8617   0.788   2.712   8.276 -0.3214 -0.3595 -0.3394
  788MOL0     C 8618   0.918   2.772   8.222  0.3536 -0.2656 -0.2173
  788MOL0     C 8619   0.938   2.917   8.274  0.1237  0.0047 -0.2191
  788MOL0     C 8620   1.039   3.002   8.198 -0.1170 -0.1793  0.7518
  788MOL0     C 8621   1.070   3.138   8.277 -0.5784  0.8467  0.7613
  788MOL0     C 8622   1.171   3.232   8.198  0.9717 -0.2045 -0.0528
  788MOL0     N 8623   1.306   3.188   8.204 -0.4586 -1.2236 -0.7825
  788MOL0     C 8624   1.357   3.118   8.100 -0.6834 -0.1974 -0.6135
  788MOL0     C 8625   1.492   3.114   8.132 -0.2863 -0.3650 -0.3479
  788MOL0     C 8626   1.614   3.036   8.078 -0.2556  0.8197 -0.5357
  788MOL0     C 8627   1.705   3.106   7.971  0.5874  1.1387  0.2360
  788MOL0     C 8628   1.779   3.227   8.015  0.1260 -0.2546 -0.6305
  788MOL0     C 8629   1.894   3.186   8.112 -0.1471 -0.4853  0.4104
  788MOL0     O 8630   1.961   3.303   8.155  0.0019 -0.6376  0.3833
  788MOL0     C 8631   1.940   3.334   8.286 -0.7054 -0.5488 -0.1666
  788MOL0     C 8632   1.821   3.367   8.348  0.4580  0.0702 -0.3823
  788MOL0     C 8633   1.821   3.412   8.485 -0.3003 -0.3646  1.1868
  788MOL0     C 8634   1.688   3.420   8.559  0.2846  0.0751 -0.0425
  788MOL0     C 8635   1.937   3.444   8.556 -0.4188  0.9662  0.9096
  788MOL0     C 8636   1.940   3.506   8.692  0.8118 -0.6552  0.0467
  788MOL0     O 8637   2.038   3.471   8.774 -0.1972 -0.1310  0.0996
  788MOL0     C 8638   2.046   3.507   8.902  0.5382 -0.8649 -0.8713
  788MOL0     C 8639   2.084   3.637   8.947 -0.2083 -0.6920  0.2652
  788MOL0     C 8640   2.125   3.659   9.076  0.7500  1.0855  0.1388
  788MOL0     C 8641   2.134   3.552   9.163  0.2678 -0.5924 -0.6741
  788MOL0     O 8642   2.169   3.559   9.296  0.4769  0.8781  0.4541
  788MOL0     C 8643   2.229   3.675   9.353  0.2249 -0.2713  0.5752
  788MOL0     C 8644   2.377   3.678   9.326 -1.4691 -0.2677  0.1224
  788MOL0     C 8645   2.468   3.770   9.409  0.8384  0.8299  0.0071
  788MOL0     C 8646   2.617   3.771   9.370  0.0115  0.6654 -0.5397
  788MOL0     C 8647   2.699   3.862   9.448 -0.5723  0.3894 -0.0141
  788MOL0     C 8648   2.845   3.806   9.449  1.0118 -0.3986 -0.0724
  788MOL0     C 8649   2.935   3.852   9.565 -0.2706 -0.3859 -0.2554
  788MOL0     C 8650   2.967   4.002   9.572  0.2741 -0.0691  0.6082
  788MOL0    Cl 8651   3.075   4.057   9.442 -0.5493 -0.0781  0.2888
  788MOL0     C 8652   2.099   3.428   9.121 -0.1449 -0.3741 -0.5928
  788MOL0     C 8653   2.060   3.396   8.995 -0.1603 -0.2824  0.3160
  788MOL0     O 8654   1.861   3.599   8.722 -0.3244  0.7156 -0.0016
  788MOL0     C 8655   2.059   3.411   8.491 -0.3309  0.8832  0.1408
  788MOL0     C 8656   2.062   3.363   8.361 -0.5119 -0.8463  0.4530
  788MOL0     N 8657   1.511   3.195   8.243 -0.0559 -0.0816  0.0928
  788MOL0     N 8658   1.404   3.235   8.285  0.6234  0.8413  0.3559
  788MOL0     C 8659   0.404   2.330   8.074 -0.2253 -0.5842 -0.7653
  788MOL0     C 8660   0.261   2.303   8.064  0.8746 -0.3391  0.1243
  788MOL0     C 8661  -0.160   2.204   8.122 -0.3677  0.2329 -0.5476
  788MOL0     C 8662  -0.223   2.332   8.135  0.5381  0.6009  0.0139
  788MOL0     C 8663  -0.363   2.345   8.142 -0.0100  1.0273 -0.6249
  788MOL0     C 8664  -0.446   2.231   8.128 -0.1973  0.5001  0.3262
  788MOL0     O 8665  -0.583   2.251   8.132 -0.0828  0.8536  0.0754
  788MOL0     C 8666  -0.654   2.194   8.028 -0.0642  0.3829  0.3922
  788MOL0     C 8667  -0.655   2.291   7.911  0.7646  1.1814 -0.2451
  788MOL0     C 8668  -0.529   2.274   7.816  0.1345  1.1105  0.4794
  788MOL0     C 8669  -0.552   2.363   7.692 -0.2046  0.1968  0.3348
  788MOL0     C 8670  -0.465   2.318   7.578  0.0693  0.7028  0.4024
  788MOL0     C 8671  -0.413   2.284   7.477 -0.0010  0.3383  0.5056
  788MOL0     C 8672  -0.386   2.103   8.123 -0.8458 -0.3852 -0.6978
  788MOL0     C 8673  -0.244   2.084   8.128  0.3830 -0.8259  0.6365
  788MOL0     C 8674  -0.192   1.943   8.129  0.5088 -1.2376 -0.6241
  788MOL0     H 8675   0.153   2.526   8.298 -1.1439 -1.2526 -0.2634
  788MOL0     H 8676   0.364   2.574   8.305  1.5158  0.5135 -0.9972
  788MOL0     H 8677   0.656   2.408   8.351 -2.4265  1.6655  1.7539
  788MOL0     H 8678   0.590   2.573   8.345 -0.3214  0.8886  0.6168
  788MOL0     H 8679   0.861   2.515   8.312  0.6454  2.6808  1.6229
  788MOL0     H 8680   0.804   2.534   8.146  1.0939  1.9177 -0.3129
  788MOL0     H 8681   0.709   2.770   8.228 -0.4123  0.6882  1.0241
  788MOL0     H 8682   0.785   2.734   8.383 -1.3360 -1.8657 -0.0379
  788MOL0     H 8683   1.001   2.712   8.260  0.7476  0.9149  0.8500
  788MOL0     H 8684   0.911   2.777   8.113  1.6921 -0.7025 -0.3449
  788MOL0     H 8685   0.966   2.910   8.380 -4.6763  0.0470  1.2840
  788MOL0     H 8686   0.846   2.976   8.287 -0.1635 -0.8034  1.9341
  788MOL0     H 8687   1.132   2.951   8.170 -0.9489 -0.2093 -2.2000
  788MOL0     H 8688   1.000   3.028   8.099 -2.8454 -2.7690  1.0134
  788MOL0     H 8689   1.126   3.115   8.369  0.0920 -1.2240 -0.1034
  788MOL0     H 8690   0.979   3.188   8.308 -0.2406  2.1145 -0.2184
  788MOL0     H 8691   1.134   3.254   8.097 -1.7882  0.6867  1.0452
  788MOL0     H 8692   1.165   3.329   8.247  1.4674  0.4617 -1.2679
  788MOL0     H 8693   1.313   3.051   8.026  1.3794 -1.2470 -0.9457
  788MOL0     H 8694   1.568   2.950   8.029 -0.2790  0.6885 -0.2862
  788MOL0     H 8695   1.674   2.990   8.157 -0.2018  0.8208 -0.5762
  788MOL0     H 8696   1.769   3.032   7.923 -2.8379 -1.8194 -0.1909
  788MOL0     H 8697   1.629   3.138   7.900  0.8118 -1.9982 -1.5946
  788MOL0     H 8698   1.816   3.274   7.923 -2.8875  2.3741 -0.6356
  788MOL0     H 8699   1.707   3.291   8.065 -1.2745 -2.6138  0.5766
  788MOL0     H 8700   1.861   3.125   8.196  1.8471 -1.3626  0.6232
  788MOL0     H 8701   1.958   3.116   8.056 -1.3698 -1.2389 -0.0853
  788MOL0     H 8702   1.726   3.351   8.298  0.1939  0.2713  0.0525
  788MOL0     H 8703   1.694   3.370   8.656  1.5945  1.1070  0.4295
  788MOL0     H 8704   1.612   3.371   8.498 -0.3118 -0.0779  0.8183
  788MOL0     H 8705   1.658   3.521   8.584  2.8317  0.8152  0.3544
  788MOL0     H 8706   2.096   3.714   8.871  1.8042 -0.6203  0.6013
  788MOL0     H 8707   2.171   3.747   9.119  1.0709  1.0827 -0.1860
  788MOL0     H 8708   2.174   3.766   9.328 -0.4212 -1.2280 -1.7330
  788MOL0     H 8709   2.228   3.671   9.462 -0.2880 -0.1735  0.5753
  788MOL0     H 8710   2.424   3.579   9.332 -1.1051 -0.0967  0.1619
  788MOL0     H 8711   2.387   3.709   9.221 -3.1491  0.0973  0.0506
  788MOL0     H 8712   2.461   3.737   9.513  0.2176 -0.8304 -0.5274
  788MOL0     H 8713   2.430   3.872   9.411  0.4372  0.7125 -1.1953
  788MOL0     H 8714   2.635   3.791   9.264  2.5627  0.4737 -0.1991
  788MOL0     H 8715   2.650   3.669   9.389 -0.0715  0.7127 -0.1321
  788MOL0     H 8716   2.703   3.963   9.406 -2.5148  0.0168 -1.2343
  788MOL0     H 8717   2.659   3.866   9.550 -0.6164  0.2604 -0.0256
  788MOL0     H 8718   2.893   3.839   9.357 -3.6284  2.7876 -1.7400
  788MOL0     H 8719   2.850   3.697   9.457  3.6283 -0.2323  2.1206
  788MOL0     H 8720   3.031   3.800   9.569 -0.0917  0.0431  2.4209
  788MOL0     H 8721   2.888   3.812   9.655  2.5559 -0.2951  1.3721
  788MOL0     H 8722   3.023   4.024   9.664  2.2302 -1.0604 -0.2876
  788MOL0     H 8723   2.870   4.050   9.562 -0.5017 -1.9047 -1.4123
  788MOL0     H 8724   2.102   3.350   9.197  0.6550 -0.4313 -0.6810
  788MOL0     H 8725   2.056   3.292   8.967 -1.3725 -0.1535 -0.0536
  788MOL0     H 8726   2.150   3.451   8.534  0.9961 -0.7616 -1.0747
  788MOL0     H 8727   2.157   3.372   8.307 -1.9280 -0.1891 -2.1007
  788MOL0     H 8728   0.481   2.276   8.021  0.6421  1.0240 -1.2234
  788MOL0     H 8729   0.226   2.236   7.986 -0.7222 -1.0290  1.3712
  788MOL0     H 8730  -0.170   2.423   8.161 -0.0190  0.4264  1.9223
  788MOL0     H 8731  -0.404   2.445   8.156  0.0352  1.4018 -2.7813
  788MOL0     H 8732  -0.619   2.099   7.987  0.5401  1.9058 -2.9071
  788MOL0     H 8733  -0.758   2.185   8.062 -1.1931 -0.0681 -2.8570
  788MOL0     H 8734  -0.658   2.389   7.959  2.3455 -0.1143  2.7982
  788MOL0     H 8735  -0.741   2.257   7.851  2.0093 -0.8034 -1.0094
  788MOL0     H 8736  -0.441   2.307   7.871 -1.4496  2.0049  2.6265
  788MOL0     H 8737  -0.520   2.169   7.788 -2.4085  0.9330  0.0889
  788MOL0     H 8738  -0.517   2.465   7.713  1.2765 -0.0533 -0.7592
  788MOL0     H 8739  -0.657   2.360   7.663 -0.3914 -2.1724  1.0611
  788MOL0     H 8740  -0.393   2.244   7.380  0.0196  0.6510  0.3798
  788MOL0     H 8741  -0.453   2.017   8.126  0.6846 -1.6136  1.7856
  788MOL0     H 8742  -0.132   1.937   8.221 -0.1010  1.0655 -0.0125
  788MOL0     H 8743  -0.263   1.862   8.113 -0.6967 -0.0727 -1.3450
  788MOL0     H 8744  -0.124   1.941   8.043  1.1921 -0.5699 -0.1213
  789MOL0     O 8745   2.664   2.122  10.996  0.0150  0.4015 -0.0469
  789MOL0     C 8746   2.719   2.089  11.102 -0.4354  0.3021  0.2471
  789MOL0     O 8747   2.856   2.084  11.123  0.5394  0.1729 -0.6269
  789MOL0     C 8748   2.947   2.144  11.030  0.1930  1.4489  0.3239
  789MOL0     C 8749   3.074   2.079  11.004  0.9887 -0.0962  0.3014
  789MOL0     C 8750   3.143   2.120  10.891  0.1537  0.3329  0.9913
  789MOL0     C 8751   3.124   2.241  10.820  0.1260 -0.2359 -0.1527
  789MOL0     O 8752   3.209   2.264  10.716 -0.4963  0.4906 -1.0702
  789MOL0     C 8753   3.203   2.393  10.652 -0.1705  0.3520  0.3492
  789MOL0     C 8754   3.334   2.428  10.588 -0.7456 -0.6502 -0.0761
  789MOL0     C 8755   3.458   2.418  10.680  0.5593 -0.2842 -0.1447
  789MOL0     C 8756   3.506   2.272  10.690 -0.2458  0.6670  0.2314
  789MOL0     C 8757   3.629   2.271  10.792  0.3297  0.1267  0.1689
  789MOL0     C 8758   3.644   2.128  10.847 -0.4531  0.6581  0.1949
  789MOL0     C 8759   3.665   2.011  10.745 -0.3895  0.3090  0.1483
  789MOL0     C 8760   3.804   2.024  10.688 -0.1330 -0.8875  0.8760
  789MOL0     N 8761   3.913   1.983  10.783 -0.3097  0.9502 -0.3148
  789MOL0     C 8762   3.903   1.889  10.889 -0.0855 -0.2763 -0.7839
  789MOL0     C 8763   4.031   1.886  10.938  0.1852  0.0891  0.4282
  789MOL0     C 8764   4.064   1.817  11.074  0.0164 -0.0273  0.0849
  789MOL0     C 8765   3.975   1.853  11.195 -0.3005 -0.4179  0.2555
  789MOL0     C 8766   4.037   1.818  11.332 -0.0449  1.3762  0.1464
  789MOL0     C 8767   4.052   1.659  11.351 -0.4144 -0.5385  1.0571
  789MOL0     O 8768   4.129   1.626  11.464  0.3479  0.0253  0.1291
  789MOL0     C 8769   4.264   1.592  11.463  0.9631  0.4455 -0.3215
  789MOL0     C 8770   4.341   1.565  11.349 -0.4281  0.2817 -0.6119
  789MOL0     C 8771   4.477   1.515  11.363  0.6489 -1.2199 -0.2500
  789MOL0     C 8772   4.552   1.463  11.236  0.6340 -0.2023  0.3787
  789MOL0     C 8773   4.524   1.493  11.498  0.6755  0.2551  0.0873
  789MOL0     C 8774   4.657   1.428  11.530  0.4050 -0.2992 -0.7535
  789MOL0     O 8775   4.678   1.385  11.662 -0.3522  0.0202  0.0267
  789MOL0     C 8776   4.780   1.302  11.697 -0.1716 -0.2352  0.2660
  789MOL0     C 8777   4.832   1.309  11.832 -0.5166  0.1873 -0.4319
  789MOL0     C 8778   4.952   1.255  11.868  0.0676 -0.4906 -1.0324
  789MOL0     C 8779   5.021   1.170  11.777 -0.3210  0.1598 -1.0429
  789MOL0     O 8780   5.147   1.118  11.787 -0.6064  0.5736 -0.9784
  789MOL0     C 8781   5.199   1.102  11.930  0.7538  0.4443 -0.3197
  789MOL0     C 8782   5.322   1.013  11.915  0.6226 -0.3380 -0.3174
  789MOL0     C 8783   5.425   1.072  11.820  0.2337  0.0211 -0.3584
  789MOL0     C 8784   5.537   0.965  11.808 -0.6707 -0.7000  0.4841
  789MOL0     C 8785   5.621   0.960  11.935  0.4101  0.4851  0.2226
  789MOL0     C 8786   5.757   0.885  11.907  0.5682 -0.0107  0.0269
  789MOL0     C 8787   5.808   0.820  12.037 -0.3331  0.4140  0.2093
  789MOL0     C 8788   5.874   0.918  12.126  0.4835  0.0182 -1.1209
  789MOL0    Cl 8789   5.941   0.825  12.261  0.4135  0.3166  0.3019
  789MOL0     C 8790   4.957   1.136  11.661 -0.1959 -1.0762 -0.0133
  789MOL0     C 8791   4.846   1.208  11.619 -0.6083  0.3643  0.9521
  789MOL0     O 8792   4.732   1.418  11.433  0.1224 -0.0815 -0.2225
  789MOL0     C 8793   4.444   1.521  11.601 -0.0828  0.1727 -0.0530
  789MOL0     C 8794   4.322   1.581  11.590  1.0126  0.0168 -0.6247
  789MOL0     N 8795   4.115   1.965  10.855  0.0546  0.4632  0.1221
  789MOL0     N 8796   4.041   2.029  10.775  0.4514 -0.2533  0.3889
  789MOL0     C 8797   3.005   2.315  10.856  0.2312  0.6694 -0.3512
  789MOL0     C 8798   2.914   2.261  10.951  0.4475 -0.2598 -0.1326
  789MOL0     C 8799   2.637   2.062  11.221 -0.0617 -0.3587  0.1503
  789MOL0     C 8800   2.713   2.003  11.330  0.2108  0.2284  0.7750
  789MOL0     C 8801   2.661   1.947  11.440  0.1594  0.1985 -0.1434
  789MOL0     C 8802   2.531   1.949  11.466  1.5067  0.1369  0.0032
  789MOL0     O 8803   2.487   1.903  11.594  0.6826  0.3829  0.0443
  789MOL0     C 8804   2.352   1.912  11.639  0.9376  0.5781  0.0151
  789MOL0     C 8805   2.327   1.830  11.765 -0.5993  0.0213  0.8268
  789MOL0     C 8806   2.417   1.868  11.886 -0.5000 -0.5357 -0.4597
  789MOL0     C 8807   2.410   2.012  11.942  0.3656 -0.4575  0.4696
  789MOL0     C 8808   2.273   2.050  11.980  0.6750  1.1261  0.1285
  789MOL0     C 8809   2.157   2.078  11.999 -0.0968 -0.3533 -0.1407
  789MOL0     C 8810   2.445   2.019  11.372 -0.6292 -0.0391  0.0193
  789MOL0     C 8811   2.494   2.059  11.245  0.3087 -0.9353 -0.0995
  789MOL0     C 8812   2.400   2.116  11.145  0.9828  0.0552 -0.2536
  789MOL0     H 8813   3.108   1.998  11.067 -0.0025 -1.2789 -0.6223
  789MOL0     H 8814   3.231   2.063  10.863  2.1064  2.9092  1.4910
  789MOL0     H 8815   3.181   2.477  10.719  3.5010  4.0213 -2.5740
  789MOL0     H 8816   3.120   2.379  10.582  0.2000 -0.8558  0.1340
  789MOL0     H 8817   3.358   2.363  10.504  1.7766  0.2769 -0.1480
  789MOL0     H 8818   3.320   2.530  10.551 -2.4669 -0.3065  1.3455
  789MOL0     H 8819   3.545   2.471  10.639 -0.2887  1.0274 -0.3283
  789MOL0     H 8820   3.429   2.459  10.777  2.8664 -0.4532  0.6960
  789MOL0     H 8821   3.425   2.211  10.732  2.3039 -1.4731  2.4905
  789MOL0     H 8822   3.532   2.222  10.596 -0.0732 -1.1572  1.1978
  789MOL0     H 8823   3.582   2.329  10.873 -0.7031 -2.8286  1.8587
  789MOL0     H 8824   3.717   2.321  10.752  1.7061  0.7615  3.6442
  789MOL0     H 8825   3.730   2.115  10.913  1.4605  0.9167 -2.1162
  789MOL0     H 8826   3.561   2.093  10.909  0.6826 -2.1794  0.3101
  789MOL0     H 8827   3.587   2.021  10.670 -3.2351 -0.7287  2.7397
  789MOL0     H 8828   3.651   1.911  10.788 -0.4540  0.2712  0.0393
  789MOL0     H 8829   3.817   1.964  10.597  0.2891 -2.2453  1.8076
  789MOL0     H 8830   3.819   2.127  10.654  0.9118 -0.9329  1.1825
  789MOL0     H 8831   3.817   1.845  10.939  0.1247 -1.1510 -1.1846
  789MOL0     H 8832   4.168   1.835  11.105  0.9850 -1.1572 -2.2150
  789MOL0     H 8833   4.061   1.710  11.049  5.8013 -0.7157  0.9185
  789MOL0     H 8834   3.965   1.961  11.190 -0.4985 -0.4783 -3.5839
  789MOL0     H 8835   3.877   1.803  11.192 -0.4935 -0.4066  3.3461
  789MOL0     H 8836   4.134   1.868  11.340  2.5413 -3.0956 -0.2113
  789MOL0     H 8837   3.982   1.854  11.420  0.3752  0.1279  0.9352
  789MOL0     H 8838   3.954   1.611  11.354 -0.7100 -0.0457 -0.1166
  789MOL0     H 8839   4.089   1.617  11.257  0.4413  0.0512  1.1139
  789MOL0     H 8840   4.311   1.587  11.247 -1.7748 -0.6024 -0.4362
  789MOL0     H 8841   4.491   1.480  11.147 -0.3549 -2.1768  0.6217
  789MOL0     H 8842   4.562   1.354  11.227  1.2721 -0.0242 -1.5946
  789MOL0     H 8843   4.642   1.521  11.215 -0.2757  0.4530 -2.0588
  789MOL0     H 8844   4.779   1.372  11.903 -1.0028  0.2107 -0.8141
  789MOL0     H 8845   4.999   1.281  11.962 -1.8349 -0.5565 -0.0205
  789MOL0     H 8846   5.244   1.195  11.965  1.6058 -0.5301  1.3065
  789MOL0     H 8847   5.123   1.063  11.998 -0.5484  1.8592 -0.8951
  789MOL0     H 8848   5.367   0.995  12.013  1.2833  1.0623 -0.3353
  789MOL0     H 8849   5.294   0.914  11.876  1.6044 -1.0646  0.7771
  789MOL0     H 8850   5.457   1.164  11.869 -1.3468  0.2021  0.3814
  789MOL0     H 8851   5.394   1.098  11.719  1.4957  1.1552 -0.4900
  789MOL0     H 8852   5.608   0.989  11.729 -3.0392  1.0402 -1.2458
  789MOL0     H 8853   5.496   0.869  11.776 -1.3315 -0.1140 -0.4750
  789MOL0     H 8854   5.647   1.058  11.976  0.6456  0.9122 -0.9109
  789MOL0     H 8855   5.571   0.892  12.004  0.4186 -2.0366 -2.0828
  789MOL0     H 8856   5.827   0.960  11.871  0.8908 -0.5511 -0.4969
  789MOL0     H 8857   5.729   0.815  11.827 -0.0400 -0.4470  0.6107
  789MOL0     H 8858   5.872   0.733  12.019 -0.7519 -0.0989  1.1595
  789MOL0     H 8859   5.726   0.777  12.094 -0.8601  1.3547  0.1840
  789MOL0     H 8860   5.790   0.974  12.168  0.5571  0.1850 -1.1940
  789MOL0     H 8861   5.948   0.975  12.068  1.0605  0.1475 -0.2829
  789MOL0     H 8862   4.995   1.056  11.597 -1.6186 -2.8402  1.2355
  789MOL0     H 8863   4.795   1.195  11.525 -1.9267 -1.2263  1.8315
  789MOL0     H 8864   4.479   1.512  11.703 -0.7845 -0.6903  0.1276
  789MOL0     H 8865   4.281   1.620  11.683 -0.8665 -2.1641 -0.4713
  789MOL0     H 8866   2.988   2.400  10.792  1.0589 -1.6174 -3.8678
  789MOL0     H 8867   2.821   2.312  10.974  0.3805  0.1750 -1.3402
  789MOL0     H 8868   2.821   2.014  11.319 -0.0213  1.2532 -0.8483
  789MOL0     H 8869   2.730   1.910  11.516 -1.6346  0.8788  1.9195
  789MOL0     H 8870   2.315   2.012  11.663 -5.5299 -1.7879  2.1114
  789MOL0     H 8871   2.280   1.877  11.565  0.5076 -1.0348  1.1318
  789MOL0     H 8872   2.346   1.727  11.737  0.1589  0.4095 -0.1207
  789MOL0     H 8873   2.222   1.825  11.794 -1.1320  2.1815 -0.5428
  789MOL0     H 8874   2.397   1.801  11.970  6.0584 -0.5956  1.6529
  789MOL0     H 8875   2.521   1.858  11.853 -0.2129 -0.9167  0.5285
  789MOL0     H 8876   2.457   2.072  11.864 -0.5462  1.4462  1.3375
  789MOL0     H 8877   2.471   2.011  12.033  1.0100 -1.4096  0.0396
  789MOL0     H 8878   2.055   2.097  12.023  0.7965 -1.3997  5.9164
  789MOL0     H 8879   2.340   2.010  11.398  0.1481 -2.5093  2.8700
  789MOL0     H 8880   2.423   2.079  11.045 -1.8782  0.0387 -1.0031
  789MOL0     H 8881   2.298   2.092  11.178  2.5283 -1.0465  4.5861
  789MOL0     H 8882   2.413   2.224  11.139 -1.0913  0.4371  0.9163
  790MOL0     O 8883   0.016   6.571   3.022 -0.3144 -0.0725  0.3277
  790MOL0     C 8884   0.086   6.477   2.977  1.0588 -0.4261  0.0814
  790MOL0     O 8885   0.182   6.412   3.051  1.0047 -0.5884  0.2058
  790MOL0     C 8886   0.227   6.476   3.167 -0.2460  0.9156  0.0774
  790MOL0     C 8887   0.197   6.419   3.288 -0.4304 -0.9266  0.7580
  790MOL0     C 8888   0.255   6.477   3.401 -1.0076 -0.1206 -0.8287
  790MOL0     C 8889   0.335   6.595   3.407  0.2172  0.1228  0.2508
  790MOL0     O 8890   0.379   6.650   3.527  0.5828 -0.6540  0.4179
  790MOL0     C 8891   0.448   6.779   3.520 -0.2130  0.5288  0.1902
  790MOL0     C 8892   0.476   6.817   3.667  0.2397 -0.0300 -0.0137
  790MOL0     C 8893   0.492   6.972   3.705 -0.4491 -1.0401  0.2499
  790MOL0     C 8894   0.595   7.040   3.608 -1.5823 -0.1182  0.6045
  790MOL0     C 8895   0.733   6.978   3.622  0.1933  0.1725  0.2173
  790MOL0     C 8896   0.818   7.050   3.513  0.7139 -0.4553 -0.2125
  790MOL0     C 8897   0.956   6.977   3.493  0.1479 -0.0667 -0.6757
  790MOL0     C 8898   1.043   7.060   3.391 -0.2926 -0.5021 -0.2858
  790MOL0     N 8899   1.010   7.033   3.248  0.0660  0.5616  0.0898
  790MOL0     C 8900   0.902   7.091   3.186 -0.6225 -0.3008  0.5490
  790MOL0     C 8901   0.875   7.027   3.074  0.2399  0.5677  0.6907
  790MOL0     C 8902   0.765   7.054   2.972  0.5283 -0.6267  0.5901
  790MOL0     C 8903   0.639   6.976   3.017  0.1602 -0.2508 -0.0570
  790MOL0     C 8904   0.517   7.008   2.931  0.5503 -0.1219  0.1609
  790MOL0     C 8905   0.389   6.935   2.985  0.0602  0.1756  0.8009
  790MOL0     O 8906   0.297   6.939   2.880  0.0706 -0.2195  0.0517
  790MOL0     C 8907   0.167   6.950   2.916 -0.5199 -0.0737 -0.3964
  790MOL0     C 8908   0.091   7.039   2.848 -0.2096  1.1728  0.9078
  790MOL0     C 8909  -0.042   7.067   2.873  0.6544  0.0973  0.7607
  790MOL0     C 8910  -0.100   7.186   2.792  0.9856 -0.2549 -0.2251
  790MOL0     C 8911  -0.108   6.991   2.968 -0.3820  0.0755 -1.3678
  790MOL0     C 8912  -0.247   7.011   3.004 -0.4886 -0.5388  0.7002
  790MOL0     O 8913  -0.276   7.008   3.133  0.9267 -0.0079  0.6432
  790MOL0     C 8914  -0.406   7.027   3.162  0.4393  0.6109 -0.2249
  790MOL0     C 8915  -0.490   6.925   3.214  0.0256  0.3336 -0.3687
  790MOL0     C 8916  -0.627   6.940   3.226 -0.1054  0.5936 -0.0886
  790MOL0     C 8917  -0.689   7.060   3.195 -0.3346  0.1764  0.1827
  790MOL0     O 8918  -0.828   7.084   3.195  0.3027 -0.0924  0.8604
  790MOL0     C 8919  -0.916   6.971   3.176  0.6497  0.2592 -0.5650
  790MOL0     C 8920  -1.067   7.020   3.174  0.3895 -0.4326 -0.0136
  790MOL0     C 8921  -1.157   6.897   3.166 -0.6023  0.2132  0.3808
  790MOL0     C 8922  -1.300   6.924   3.230  0.2318 -0.3752 -0.4434
  790MOL0     C 8923  -1.396   6.803   3.243 -0.1569  0.4378  0.3450
  790MOL0     C 8924  -1.542   6.845   3.261 -1.0645  0.0980  0.0927
  790MOL0     C 8925  -1.647   6.730   3.238  0.8992 -0.4108 -0.5309
  790MOL0     C 8926  -1.675   6.713   3.094 -0.6527 -0.6200  0.4200
  790MOL0    Cl 8927  -1.751   6.554   3.061 -0.2427  0.0493 -0.1418
  790MOL0     C 8928  -0.598   7.166   3.160 -0.0549  0.3489  0.5718
  790MOL0     C 8929  -0.460   7.155   3.144  0.1129  0.0191 -0.2737
  790MOL0     O 8930  -0.324   7.045   2.909 -0.0147 -0.2358 -0.8780
  790MOL0     C 8931  -0.033   6.892   3.034 -1.2456 -0.2199  0.6391
  790MOL0     C 8932   0.102   6.874   3.015  0.4265 -0.7381 -0.2671
  790MOL0     N 8933   0.969   6.920   3.069  0.1515  0.0171  1.0564
  790MOL0     N 8934   1.042   6.925   3.175 -0.3440 -0.0921  0.5907
  790MOL0     C 8935   0.365   6.654   3.280 -0.5483 -0.0090 -0.2240
  790MOL0     C 8936   0.316   6.587   3.158 -0.2389 -0.6338  0.2835
  790MOL0     C 8937   0.052   6.418   2.844 -0.7988 -0.5247 -0.1352
  790MOL0     C 8938   0.102   6.294   2.810 -0.8590  0.0748  0.1756
  790MOL0     C 8939   0.075   6.241   2.689 -0.3720  1.0933 -0.0140
  790MOL0     C 8940   0.004   6.305   2.587  0.5156 -0.1095  0.0866
  790MOL0     O 8941  -0.018   6.242   2.469 -0.4031 -0.4091 -0.2511
  790MOL0     C 8942   0.065   6.283   2.356  0.8327  0.3387  0.3567
  790MOL0     C 8943   0.222   6.275   2.373 -0.3621  0.2707 -0.3925
  790MOL0     C 8944   0.286   6.334   2.249 -0.0236 -0.1585  1.0114
  790MOL0     C 8945   0.437   6.323   2.255  0.9592  0.0848  0.0995
  790MOL0     C 8946   0.507   6.370   2.143 -0.2445 -0.0354 -0.2014
  790MOL0     C 8947   0.603   6.426   1.981  0.7073 -0.0634 -0.7941
  790MOL0     C 8948  -0.054   6.430   2.611 -0.1254 -0.4276 -0.0770
  790MOL0     C 8949  -0.024   6.489   2.739 -0.1576 -0.0262 -0.6847
  790MOL0     C 8950  -0.069   6.637   2.757 -0.2474  0.3686 -0.2296
  790MOL0     H 8951   0.143   6.325   3.283  3.7628 -3.5785  0.4740
  790MOL0     H 8952   0.230   6.421   3.491  5.0622 -1.2611  0.5858
  790MOL0     H 8953   0.376   6.850   3.480 -0.1838  1.7125  2.0827
  790MOL0     H 8954   0.545   6.760   3.473  0.8247 -2.5214  3.1078
  790MOL0     H 8955   0.385   6.794   3.723 -0.8492  0.4830 -1.5080
  790MOL0     H 8956   0.569   6.778   3.710  1.3647  2.1632 -0.2840
  790MOL0     H 8957   0.394   7.020   3.697 -0.2332 -0.8301 -1.7644
  790MOL0     H 8958   0.529   6.995   3.805  1.2319 -0.3663 -0.4890
  790MOL0     H 8959   0.545   7.031   3.511  0.4028  0.3295 -0.5231
  790MOL0     H 8960   0.602   7.146   3.633  2.2430 -0.0973  0.1219
  790MOL0     H 8961   0.727   6.873   3.592 -0.5240  0.2904 -0.0587
  790MOL0     H 8962   0.755   6.981   3.729  1.5022 -3.6955  0.2277
  790MOL0     H 8963   0.762   7.048   3.420 -0.6894 -4.9218  0.5278
  790MOL0     H 8964   0.822   7.157   3.539  3.5503  0.1666 -2.6683
  790MOL0     H 8965   0.940   6.879   3.447 -0.7751 -0.0217 -0.4661
  790MOL0     H 8966   1.022   6.972   3.580  2.2809 -2.4673 -2.2897
  790MOL0     H 8967   1.038   7.162   3.428  1.3089 -0.6290  0.3724
  790MOL0     H 8968   1.150   7.038   3.401 -0.1979 -0.1561 -0.5729
  790MOL0     H 8969   0.857   7.186   3.214  0.9278  1.8605 -3.4496
  790MOL0     H 8970   0.791   7.015   2.873 -1.5939 -3.5364  1.0502
  790MOL0     H 8971   0.754   7.163   2.971 -0.7569 -0.7463  0.5503
  790MOL0     H 8972   0.670   6.871   3.016  1.7655  0.2043 -1.5251
  790MOL0     H 8973   0.609   6.999   3.120  0.3439 -2.9508  0.7005
  790MOL0     H 8974   0.498   7.113   2.953  0.1899 -0.0453 -0.4963
  790MOL0     H 8975   0.539   6.994   2.825  3.6586  1.4032  0.4937
  790MOL0     H 8976   0.418   6.831   3.000  1.1821  0.3474 -0.0213
  790MOL0     H 8977   0.350   6.982   3.076 -1.7959  0.2566  0.0062
  790MOL0     H 8978   0.134   7.109   2.777  0.0359  0.7644  0.6523
  790MOL0     H 8979  -0.161   7.158   2.706  1.2725  1.7702 -1.1534
  790MOL0     H 8980  -0.024   7.256   2.756 -1.3668  2.8914  0.5278
  790MOL0     H 8981  -0.154   7.251   2.861  1.1859 -0.3373  0.0130
  790MOL0     H 8982  -0.460   6.821   3.228 -3.3739 -1.2156 -3.1087
  790MOL0     H 8983  -0.685   6.851   3.250  0.9171 -1.4947 -4.5024
  790MOL0     H 8984  -0.894   6.906   3.091 -0.1678  0.8477 -1.2459
  790MOL0     H 8985  -0.911   6.908   3.265  0.1948  3.0346  1.5581
  790MOL0     H 8986  -1.085   7.077   3.265  1.6051  0.8772 -0.5608
  790MOL0     H 8987  -1.085   7.078   3.083  1.7194 -4.0932 -2.8960
  790MOL0     H 8988  -1.122   6.804   3.211 -1.0841  0.1711  0.6786
  790MOL0     H 8989  -1.178   6.880   3.060 -3.5421  1.0254  0.7438
  790MOL0     H 8990  -1.361   7.002   3.183  0.0969 -0.0313  0.2693
  790MOL0     H 8991  -1.276   6.955   3.333  2.5432 -1.2601 -0.6722
  790MOL0     H 8992  -1.380   6.746   3.151 -3.2983 -1.1146  0.6458
  790MOL0     H 8993  -1.368   6.746   3.331  0.5010 -0.6915 -0.5644
  790MOL0     H 8994  -1.574   6.931   3.202  1.6809  1.5862  0.6245
  790MOL0     H 8995  -1.556   6.873   3.366  0.3519  1.8190 -0.1368
  790MOL0     H 8996  -1.741   6.772   3.276  1.2506  0.7413 -0.9015
  790MOL0     H 8997  -1.610   6.636   3.280 -1.0230 -0.1067  2.1076
  790MOL0     H 8998  -1.584   6.714   3.033 -1.7177  1.0533 -1.2320
  790MOL0     H 8999  -1.735   6.798   3.061  0.5698  0.2053  0.2920
  790MOL0     H 9000  -0.645   7.261   3.135 -0.9470 -0.2835 -0.2337
  790MOL0     H 9001  -0.391   7.229   3.103 -1.1889 -0.0554 -2.7792
  790MOL0     H 9002  -0.077   6.833   3.113 -3.2741  2.1351  1.4066
  790MOL0     H 9003   0.155   6.794   3.067  2.3919  1.3259  1.0901
  790MOL0     H 9004   0.421   6.746   3.270 -0.4284  0.1224  1.4143
  790MOL0     H 9005   0.333   6.631   3.060 -1.9977  0.2543  0.3310
  790MOL0     H 9006   0.157   6.234   2.881  1.0014 -0.3791 -1.5710
  790MOL0     H 9007   0.109   6.144   2.652 -2.5848  1.2586 -2.8815
  790MOL0     H 9008   0.022   6.225   2.273  0.1408  0.6585  0.4855
  790MOL0     H 9009   0.050   6.387   2.327 -1.8647 -0.6308 -2.1815
  790MOL0     H 9010   0.262   6.175   2.389  1.1514  0.6146 -1.8327
  790MOL0     H 9011   0.248   6.340   2.457 -0.6918 -1.5796  1.2060
  790MOL0     H 9012   0.246   6.281   2.163 -0.4532  0.1968  0.9882
  790MOL0     H 9013   0.262   6.438   2.227  0.2889  0.9386  5.0373
  790MOL0     H 9014   0.463   6.218   2.265  0.1321 -0.2680 -1.2573
  790MOL0     H 9015   0.479   6.383   2.336  0.0916 -0.0405  0.6645
  790MOL0     H 9016   0.656   6.439   1.889  1.6501 -1.3619 -0.4643
  790MOL0     H 9017  -0.103   6.489   2.534  0.3360  0.4878  0.3084
  790MOL0     H 9018  -0.075   6.694   2.663 -1.9416  1.5447  0.5456
  790MOL0     H 9019  -0.175   6.643   2.784 -1.1603  3.1661 -3.6847
  790MOL0     H 9020   0.009   6.687   2.814  0.6513 -0.8809 -0.3204
  791MOL0     O 9021   2.979   2.271   6.223 -0.7545 -0.2396 -0.0076
  791MOL0     C 9022   2.958   2.356   6.132  0.1185 -0.2057 -0.1658
  791MOL0     O 9023   2.842   2.418   6.102 -0.5187  0.5144  0.1585
  791MOL0     C 9024   2.743   2.402   6.194 -0.0713 -0.4809  0.0836
  791MOL0     C 9025   2.653   2.297   6.208 -0.7989 -0.1372  0.0422
  791MOL0     C 9026   2.542   2.303   6.291  0.8928  0.3157  0.3511
  791MOL0     C 9027   2.514   2.418   6.359 -0.2752 -0.2801  0.0016
  791MOL0     O 9028   2.403   2.421   6.439  0.1314 -0.0311  0.4408
  791MOL0     C 9029   2.400   2.512   6.550  1.1636 -0.7511  0.3718
  791MOL0     C 9030   2.299   2.459   6.655  0.7131  0.1550 -1.0409
  791MOL0     C 9031   2.339   2.320   6.696 -0.2787  0.0591 -0.5844
  791MOL0     C 9032   2.468   2.328   6.784  0.5879 -0.7499 -0.2597
  791MOL0     C 9033   2.541   2.189   6.802 -0.0570 -0.2105  0.1350
  791MOL0     C 9034   2.456   2.080   6.877  0.1050  0.2498 -0.1954
  791MOL0     C 9035   2.501   1.936   6.857  0.5085  0.5716  0.6264
  791MOL0     C 9036   2.560   1.893   6.714 -0.9169  0.7799  0.1774
  791MOL0     N 9037   2.461   1.909   6.601 -0.7574  0.3172 -0.0990
  791MOL0     C 9038   2.325   1.900   6.619  0.7937 -0.5817 -0.1395
  791MOL0     C 9039   2.274   1.945   6.502  0.4547  0.3560  0.5067
  791MOL0     C 9040   2.128   1.971   6.472  0.2317 -0.8295 -0.8793
  791MOL0     C 9041   2.094   2.115   6.439 -0.9086  0.0778 -0.6989
  791MOL0     C 9042   2.021   2.183   6.555 -0.4030 -0.8253 -0.4095
  791MOL0     C 9043   1.969   2.325   6.523 -0.2403  0.2091 -0.4871
  791MOL0     O 9044   1.863   2.317   6.434  0.3214  0.0460 -0.1345
  791MOL0     C 9045   1.826   2.431   6.373  0.6462 -0.2817  0.9067
  791MOL0     C 9046   1.842   2.552   6.439  0.7080  0.6213 -0.3582
  791MOL0     C 9047   1.800   2.671   6.385 -0.1884  0.3073 -1.0562
  791MOL0     C 9048   1.842   2.794   6.469 -0.3946 -0.3207  0.8100
  791MOL0     C 9049   1.734   2.671   6.261 -0.5082  0.1522 -0.1738
  791MOL0     C 9050   1.716   2.792   6.188  0.5137  0.2392 -1.0334
  791MOL0     O 9051   1.603   2.800   6.110 -0.7598  0.0435  0.2987
  791MOL0     C 9052   1.559   2.919   6.062  0.6407 -0.1234  1.1101
  791MOL0     C 9053   1.520   2.937   5.926 -0.7662 -0.2681  0.2780
  791MOL0     C 9054   1.447   3.057   5.887  0.3980  0.2972 -0.5729
  791MOL0     C 9055   1.416   3.153   5.983  0.2911  0.5561 -0.3100
  791MOL0     O 9056   1.345   3.259   5.941  0.6178  0.1882 -0.3628
  791MOL0     C 9057   1.210   3.237   5.981 -0.2105  0.8323  0.7190
  791MOL0     C 9058   1.127   3.324   5.888 -0.7690 -0.0479 -0.5523
  791MOL0     C 9059   1.156   3.473   5.880 -0.6042  0.2277  0.0316
  791MOL0     C 9060   1.156   3.538   6.026  0.4068 -0.3525  0.0725
  791MOL0     C 9061   1.188   3.688   6.022 -0.2219 -0.1748  0.6464
  791MOL0     C 9062   1.153   3.758   6.154  0.5965  0.1760 -0.0851
  791MOL0     C 9063   1.173   3.902   6.123 -0.5580 -0.3322  0.4253
  791MOL0     C 9064   1.104   3.986   6.232 -1.2277 -0.5042 -0.6249
  791MOL0    Cl 9065   1.163   4.153   6.263  0.0294 -0.1515  0.6260
  791MOL0     C 9066   1.460   3.143   6.116 -0.7339  0.6525  0.0552
  791MOL0     C 9067   1.533   3.029   6.149  0.4582  0.4740  0.2301
  791MOL0     O 9068   1.805   2.874   6.197  0.6019 -0.1330  0.3275
  791MOL0     C 9069   1.688   2.554   6.206  0.4899  0.4693 -0.5388
  791MOL0     C 9070   1.743   2.436   6.256 -0.7468  1.1112 -0.3284
  791MOL0     N 9071   2.376   1.954   6.412  0.0936 -0.2701  0.2758
  791MOL0     N 9072   2.486   1.931   6.468  0.7805 -0.5499 -0.5942
  791MOL0     C 9073   2.595   2.530   6.345 -0.4190  0.1079 -0.9148
  791MOL0     C 9074   2.704   2.519   6.260 -0.3792  0.0681 -0.0544
  791MOL0     C 9075   3.084   2.394   6.064 -0.6851  0.4358 -0.8295
  791MOL0     C 9076   3.214   2.358   6.117 -0.3224  0.4265 -0.4359
  791MOL0     C 9077   3.328   2.391   6.049  0.0877 -0.4795 -0.4757
  791MOL0     C 9078   3.329   2.479   5.939  0.1420  0.2396  0.9306
  791MOL0     O 9079   3.450   2.526   5.893  0.0997  0.5606 -0.6221
  791MOL0     C 9080   3.499   2.482   5.766 -0.2048 -0.9639 -0.6179
  791MOL0     C 9081   3.490   2.330   5.748  0.0968 -0.3513  0.9992
  791MOL0     C 9082   3.580   2.251   5.843 -0.6636 -0.5888 -0.1587
  791MOL0     C 9083   3.596   2.106   5.807 -0.7390 -0.9235 -0.2174
  791MOL0     C 9084   3.465   2.047   5.777 -0.5150  0.1238 -1.1020
  791MOL0     C 9085   3.367   1.980   5.752 -0.5087  0.1974 -0.9664
  791MOL0     C 9086   3.201   2.517   5.884  0.7551  0.3284  0.4863
  791MOL0     C 9087   3.084   2.459   5.936 -0.2547  0.9601 -0.0020
  791MOL0     C 9088   2.955   2.494   5.858  0.8802 -0.3978  0.2053
  791MOL0     H 9089   2.668   2.205   6.153  0.0951 -1.0857  1.7867
  791MOL0     H 9090   2.478   2.215   6.289 -2.6149  2.5590 -3.4732
  791MOL0     H 9091   2.360   2.607   6.515  2.3650 -0.6449 -0.8393
  791MOL0     H 9092   2.497   2.528   6.598  1.7502 -0.1407 -0.9581
  791MOL0     H 9093   2.306   2.529   6.738 -1.4615 -1.2285  0.4152
  791MOL0     H 9094   2.198   2.458   6.612 -0.7812 -1.3464  2.1876
  791MOL0     H 9095   2.265   2.269   6.758  0.5691  1.0824  1.3814
  791MOL0     H 9096   2.367   2.249   6.618  0.0083 -0.8088  0.2757
  791MOL0     H 9097   2.540   2.394   6.735 -2.8940  2.7798 -1.2239
  791MOL0     H 9098   2.446   2.378   6.879  2.4683 -0.9403  0.3060
  791MOL0     H 9099   2.638   2.207   6.848  1.3870  0.5050 -2.8973
  791MOL0     H 9100   2.563   2.159   6.699 -3.0069  1.5422 -1.1646
  791MOL0     H 9101   2.450   2.096   6.985 -0.8870 -1.7025  0.0903
  791MOL0     H 9102   2.354   2.074   6.838  1.7405 -1.8371 -4.7882
  791MOL0     H 9103   2.427   1.860   6.885  0.6715  0.8025  1.7490
  791MOL0     H 9104   2.585   1.911   6.923  1.0602  0.2435 -0.1788
  791MOL0     H 9105   2.657   1.940   6.699 -0.7100  0.1541 -0.5349
  791MOL0     H 9106   2.584   1.786   6.716  0.6936  0.9336 -3.2168
  791MOL0     H 9107   2.272   1.870   6.708 -3.8092  2.1155 -1.6380
  791MOL0     H 9108   2.067   1.937   6.556  0.9866  0.0442  0.0377
  791MOL0     H 9109   2.116   1.909   6.383  0.2483 -0.0846 -1.4109
  791MOL0     H 9110   2.190   2.167   6.434 -1.3244  1.0151  0.4168
  791MOL0     H 9111   2.035   2.124   6.347  0.1693  0.4087 -1.3721
  791MOL0     H 9112   1.936   2.125   6.592  0.0890 -0.0041  2.2552
  791MOL0     H 9113   2.085   2.191   6.643  1.7197  2.6331 -2.0354
  791MOL0     H 9114   1.934   2.375   6.614 -0.7831  0.6141 -0.9133
  791MOL0     H 9115   2.054   2.377   6.479  0.4095 -2.6843 -2.9374
  791MOL0     H 9116   1.894   2.556   6.534 -0.3333 -1.3102  0.3451
  791MOL0     H 9117   1.946   2.814   6.443 -0.8148  0.4122 -0.3871
  791MOL0     H 9118   1.829   2.770   6.575 -0.8629 -0.1144  0.8050
  791MOL0     H 9119   1.792   2.891   6.468  2.2282  1.1208  2.0166
  791MOL0     H 9120   1.542   2.855   5.859  4.3536  0.7477  0.3571
  791MOL0     H 9121   1.424   3.066   5.781 -1.0300  2.2391 -0.1646
  791MOL0     H 9122   1.185   3.134   5.954 -0.3492  1.3882 -1.5432
  791MOL0     H 9123   1.188   3.252   6.087 -0.8204 -2.4189  1.1619
  791MOL0     H 9124   1.136   3.276   5.790 -1.6785 -1.1620 -0.1191
  791MOL0     H 9125   1.024   3.314   5.924 -0.4755 -2.5784 -0.2483
  791MOL0     H 9126   1.080   3.518   5.815 -1.4873  0.0341  0.8975
  791MOL0     H 9127   1.253   3.491   5.833 -2.2171  4.5217 -2.2897
  791MOL0     H 9128   1.226   3.496   6.098 -0.7588 -2.0130  0.2931
  791MOL0     H 9129   1.063   3.524   6.082  1.1496 -3.3295  0.7598
  791MOL0     H 9130   1.295   3.697   6.001 -0.7143  2.5323 -1.2912
  791MOL0     H 9131   1.128   3.726   5.938  4.2952 -1.2344 -3.4863
  791MOL0     H 9132   1.215   3.721   6.235  1.1786  1.4668  0.0922
  791MOL0     H 9133   1.046   3.747   6.173  0.4034 -0.6948 -1.5143
  791MOL0     H 9134   1.117   3.939   6.037  0.3800  2.3948  0.8949
  791MOL0     H 9135   1.273   3.942   6.106 -0.5509 -0.0362  1.1220
  791MOL0     H 9136   1.136   3.933   6.323  3.4846  2.9498  0.0720
  791MOL0     H 9137   0.997   3.973   6.216 -0.9565 -0.5567 -2.6287
  791MOL0     H 9138   1.440   3.211   6.198 -2.3613 -0.0475  0.2851
  791MOL0     H 9139   1.552   3.019   6.255 -1.0321 -0.5307  0.4388
  791MOL0     H 9140   1.635   2.555   6.111 -0.3235  1.6747 -0.0971
  791MOL0     H 9141   1.711   2.344   6.207  0.2544  0.4584  0.2057
  791MOL0     H 9142   2.584   2.622   6.401  2.7578 -0.1657  0.3325
  791MOL0     H 9143   2.770   2.605   6.249 -1.6102  1.2526  1.4502
  791MOL0     H 9144   3.213   2.298   6.208  1.2326  0.8867 -0.0924
  791MOL0     H 9145   3.422   2.361   6.095 -0.5012 -0.2320  0.9402
  791MOL0     H 9146   3.440   2.538   5.693 -1.0181  0.1319  0.8444
  791MOL0     H 9147   3.603   2.514   5.755 -1.0801  2.0760 -0.9481
  791MOL0     H 9148   3.511   2.306   5.644 -1.2098 -2.6625  1.1895
  791MOL0     H 9149   3.388   2.296   5.770  0.2001  0.0899  2.2501
  791MOL0     H 9150   3.679   2.299   5.850  0.3188 -2.6247  0.6462
  791MOL0     H 9151   3.533   2.268   5.941  0.4589  0.1180  0.2900
  791MOL0     H 9152   3.646   2.053   5.889  0.2379  1.0078  0.5017
  791MOL0     H 9153   3.660   2.118   5.719 -3.2823  1.4941 -1.9496
  791MOL0     H 9154   3.283   1.922   5.720  0.8007 -1.8375 -0.8881
  791MOL0     H 9155   3.198   2.591   5.805  2.5936 -2.3002 -2.2192
  791MOL0     H 9156   2.887   2.411   5.837 -0.4523  0.6956  0.0115
  791MOL0     H 9157   2.905   2.571   5.917 -0.6716 -0.2162 -1.2593
  791MOL0     H 9158   2.980   2.543   5.763  2.3466  1.3326  1.4031
  792MOL0     O 9159   9.244   6.534   3.468  0.3065 -0.1224  0.2930
  792MOL0     C 9160   9.158   6.525   3.553 -0.0241  0.1518 -0.0611
  792MOL0     O 9161   9.022   6.508   3.532 -0.2241  0.3430 -0.9040
  792MOL0     C 9162   8.971   6.485   3.407 -0.8839  0.4661  0.1308
  792MOL0     C 9163   8.932   6.357   3.369  0.3571 -0.8859  0.0291
  792MOL0     C 9164   8.873   6.335   3.241 -0.0911  0.0887 -0.2759
  792MOL0     C 9165   8.859   6.440   3.156 -0.2390 -0.0107  0.9600
  792MOL0     O 9166   8.807   6.411   3.032 -0.0881 -0.2368 -0.5135
  792MOL0     C 9167   8.772   6.510   2.935  0.2758  0.7346 -0.6964
  792MOL0     C 9168   8.778   6.428   2.797 -0.3320 -0.3889  0.4475
  792MOL0     C 9169   8.923   6.384   2.779 -0.8157  0.1738  0.6384
  792MOL0     C 9170   8.954   6.320   2.644 -0.4048 -0.3456  0.3442
  792MOL0     C 9171   9.070   6.375   2.556  0.2723 -0.5702 -0.4904
  792MOL0     C 9172   9.212   6.346   2.624  0.6011  0.5852 -0.7635
  792MOL0     C 9173   9.325   6.387   2.544  0.1416 -0.6868 -0.3264
  792MOL0     C 9174   9.345   6.318   2.412  0.2706  0.4897 -0.3562
  792MOL0     N 9175   9.481   6.276   2.382  0.8108 -0.3753  0.7585
  792MOL0     C 9176   9.563   6.343   2.291 -0.6355  0.4288 -0.9910
  792MOL0     C 9177   9.681   6.271   2.303  0.4004  0.4868  0.4224
  792MOL0     C 9178   9.810   6.312   2.225  0.5921  0.3190  0.3821
  792MOL0     C 9179   9.919   6.373   2.324 -0.4940 -0.2703 -0.2164
  792MOL0     C 9180  10.039   6.446   2.260 -0.8046  0.1029  0.0146
  792MOL0     C 9181   9.985   6.550   2.165 -0.0045  0.3290  0.0774
  792MOL0     O 9182  10.073   6.668   2.146 -0.1585  0.9948 -0.1008
  792MOL0     C 9183  10.194   6.646   2.084 -0.3247  0.0219 -0.2211
  792MOL0     C 9184  10.236   6.537   1.999  0.3607 -1.0242 -1.4518
  792MOL0     C 9185  10.366   6.521   1.961 -0.2149 -0.3842 -0.6592
  792MOL0     C 9186  10.392   6.399   1.877  1.1187 -0.2068 -0.2909
  792MOL0     C 9187  10.462   6.630   1.981  0.4070 -0.1442 -0.0065
  792MOL0     C 9188  10.604   6.639   1.931  0.2271  0.1574 -1.0384
  792MOL0     O 9189  10.674   6.742   1.989 -0.2394 -0.1111  0.6743
  792MOL0     C 9190  10.781   6.789   1.924 -0.3561 -0.8593  0.7629
  792MOL0     C 9191  10.775   6.919   1.851 -0.2231  0.4000 -0.6517
  792MOL0     C 9192  10.898   6.988   1.817 -0.5830 -0.3612  0.1404
  792MOL0     C 9193  11.023   6.937   1.849  0.6402  0.2525  0.4441
  792MOL0     O 9194  11.147   6.993   1.825  1.1137 -0.7246  1.2866
  792MOL0     C 9195  11.150   7.128   1.781 -0.2998 -0.9780  0.3023
  792MOL0     C 9196  11.293   7.149   1.726 -0.5544 -0.8714 -0.3950
  792MOL0     C 9197  11.325   7.289   1.658  0.5091  0.5639  0.5000
  792MOL0     C 9198  11.302   7.415   1.735 -0.3376 -0.1569  0.0823
  792MOL0     C 9199  11.326   7.532   1.636 -0.4273 -0.5630 -0.5086
  792MOL0     C 9200  11.263   7.657   1.713 -0.5681 -0.3880  0.5483
  792MOL0     C 9201  11.188   7.757   1.623 -0.3319  0.0223 -0.4293
  792MOL0     C 9202  11.087   7.830   1.703  0.8790 -0.1262  0.0807
  792MOL0    Cl 9203  11.158   7.926   1.823  0.0861  0.0343 -0.4492
  792MOL0     C 9204  11.025   6.809   1.914 -0.8122 -0.4275 -0.4954
  792MOL0     C 9205  10.904   6.730   1.947  0.4245  0.8498  0.9290
  792MOL0     O 9206  10.644   6.564   1.842 -0.6575 -0.7183 -0.1981
  792MOL0     C 9207  10.412   6.740   2.067  0.4677 -0.4547  0.1557
  792MOL0     C 9208  10.278   6.747   2.101 -0.6937 -0.0557 -0.4272
  792MOL0     N 9209   9.654   6.154   2.380 -0.2389  0.0709  0.6428
  792MOL0     N 9210   9.542   6.162   2.423 -0.0984  0.0775  0.2101
  792MOL0     C 9211   8.910   6.568   3.189 -0.1670 -0.1210  0.3042
  792MOL0     C 9212   8.953   6.596   3.319 -0.3494  0.0831 -0.4971
  792MOL0     C 9213   9.191   6.546   3.693 -0.5485 -0.0070  0.5637
  792MOL0     C 9214   9.252   6.445   3.761 -1.3230  1.0245  0.1215
  792MOL0     C 9215   9.304   6.473   3.893  1.0959  0.1483  0.7268
  792MOL0     C 9216   9.271   6.589   3.959  0.0385 -0.3253  0.2527
  792MOL0     O 9217   9.328   6.599   4.090  0.5916 -0.5730 -0.4130
  792MOL0     C 9218   9.311   6.720   4.170 -0.4826 -0.3080  0.4892
  792MOL0     C 9219   9.183   6.718   4.260  0.1025  0.4042  0.1833
  792MOL0     C 9220   9.169   6.853   4.334 -0.0184 -0.7355  0.3675
  792MOL0     C 9221   9.038   6.861   4.413  0.6346 -0.1046  0.5526
  792MOL0     C 9222   9.050   6.807   4.549  0.5723 -0.1907 -0.3235
  792MOL0     C 9223   9.084   6.765   4.661 -1.3707  0.1236  0.3581
  792MOL0     C 9224   9.196   6.687   3.889 -0.2932 -0.1569 -0.6574
  792MOL0     C 9225   9.150   6.666   3.756  0.0747 -0.1612  0.1080
  792MOL0     C 9226   9.048   6.760   3.696 -0.2815  0.2482 -0.4222
  792MOL0     H 9227   8.929   6.275   3.440 -1.3858 -0.3162  0.6676
  792MOL0     H 9228   8.823   6.243   3.213 -3.8043  0.8836  2.8308
  792MOL0     H 9229   8.838   6.597   2.939  2.3940 -0.7371 -1.9745
  792MOL0     H 9230   8.669   6.544   2.955 -0.6446 -1.1382 -1.9362
  792MOL0     H 9231   8.718   6.337   2.788 -1.6254  0.5980 -1.6272
  792MOL0     H 9232   8.740   6.488   2.714  1.7685  1.4680  0.7245
  792MOL0     H 9233   8.981   6.476   2.783  0.1123 -0.3565 -0.1700
  792MOL0     H 9234   8.971   6.327   2.859  1.4467  1.4558  0.2779
  792MOL0     H 9235   8.972   6.213   2.656  0.6610  0.0461  2.9445
  792MOL0     H 9236   8.859   6.322   2.589 -0.8328  0.8081  1.0965
  792MOL0     H 9237   9.057   6.484   2.557 -0.4941 -0.6524 -0.5987
  792MOL0     H 9238   9.062   6.340   2.453  0.5943  0.0970 -0.7466
  792MOL0     H 9239   9.220   6.419   2.705  0.0773  0.9761 -1.0586
  792MOL0     H 9240   9.221   6.242   2.657  3.0664  0.8624 -0.3562
  792MOL0     H 9241   9.417   6.382   2.603 -0.7590  2.9021  1.6693
  792MOL0     H 9242   9.315   6.494   2.522  1.8180 -0.8972 -2.3949
  792MOL0     H 9243   9.282   6.230   2.404 -0.7398  1.2414 -0.9235
  792MOL0     H 9244   9.305   6.384   2.334 -4.2557 -0.5891  0.7778
  792MOL0     H 9245   9.544   6.434   2.235 -0.8204  0.7270 -0.4420
  792MOL0     H 9246   9.776   6.390   2.157 -2.9723  0.8004  2.4857
  792MOL0     H 9247   9.856   6.235   2.164  2.6902  2.7360 -1.3065
  792MOL0     H 9248   9.867   6.457   2.370  2.2017  0.1870  2.2380
  792MOL0     H 9249   9.955   6.305   2.402 -1.2943  0.9858  1.3120
  792MOL0     H 9250  10.094   6.485   2.347  0.1211 -2.4459  0.6623
  792MOL0     H 9251  10.102   6.374   2.207 -3.5634 -2.5798  0.1561
  792MOL0     H 9252   9.961   6.498   2.071 -1.7609  0.8925  0.1768
  792MOL0     H 9253   9.884   6.576   2.199 -0.6412 -5.5028  4.0963
  792MOL0     H 9254  10.157   6.467   1.973 -1.9661  0.7573  0.4559
  792MOL0     H 9255  10.376   6.423   1.771  1.1574  4.8287  0.6027
  792MOL0     H 9256  10.323   6.321   1.911  4.2402 -2.5032  1.2007
  792MOL0     H 9257  10.491   6.357   1.895  0.2883 -1.4626  1.7147
  792MOL0     H 9258  10.683   6.974   1.839  1.5601  2.9975 -4.0859
  792MOL0     H 9259  10.887   7.087   1.773  1.3848  0.0145  0.4132
  792MOL0     H 9260  11.088   7.151   1.694  3.7500  2.6569 -2.0139
  792MOL0     H 9261  11.137   7.191   1.870 -0.0414  0.6883 -0.8037
  792MOL0     H 9262  11.370   7.135   1.803  0.5994  0.7197 -1.2145
  792MOL0     H 9263  11.318   7.078   1.647  1.1530 -1.2275  0.4171
  792MOL0     H 9264  11.266   7.304   1.568  3.1557  2.7776 -1.0409
  792MOL0     H 9265  11.431   7.284   1.630  0.1665 -1.0232 -0.6066
  792MOL0     H 9266  11.358   7.426   1.829 -3.1277 -0.2858  1.8692
  792MOL0     H 9267  11.197   7.419   1.763 -0.5455  2.4508 -0.8450
  792MOL0     H 9268  11.433   7.546   1.617 -0.7198 -1.4050 -3.0634
  792MOL0     H 9269  11.288   7.516   1.535  0.0507  0.2562 -0.8328
  792MOL0     H 9270  11.356   7.691   1.759  0.8618 -4.8823  1.4941
  792MOL0     H 9271  11.203   7.619   1.796 -1.6118  1.1900  0.5468
  792MOL0     H 9272  11.139   7.699   1.544 -1.7233 -2.0031  1.7490
  792MOL0     H 9273  11.267   7.806   1.565 -0.9096  1.5496  0.0302
  792MOL0     H 9274  11.014   7.759   1.742 -1.1489  0.4347 -2.3550
  792MOL0     H 9275  11.022   7.892   1.640  2.4099  0.2437 -1.2030
  792MOL0     H 9276  11.123   6.771   1.938  0.3192  1.0758 -2.4190
  792MOL0     H 9277  10.913   6.636   2.001 -0.5605 -1.0504 -1.9472
  792MOL0     H 9278  10.464   6.834   2.078  0.6575 -0.5414  0.0071
  792MOL0     H 9279  10.248   6.837   2.153 -1.8603  0.9400 -2.6942
  792MOL0     H 9280   8.920   6.648   3.116  0.1873 -0.1999  0.2650
  792MOL0     H 9281   8.991   6.695   3.344  2.4915 -1.0384 -0.0570
  792MOL0     H 9282   9.289   6.358   3.708 -2.2643 -0.7863  2.2721
  792MOL0     H 9283   9.347   6.386   3.941 -0.0118 -0.7156  0.1653
  792MOL0     H 9284   9.400   6.718   4.233  0.0490  1.7639 -0.1169
  792MOL0     H 9285   9.322   6.812   4.111 -2.0124  0.8065  1.8418
  792MOL0     H 9286   9.194   6.633   4.329 -0.2619  0.4117  0.2511
  792MOL0     H 9287   9.101   6.708   4.189  1.3882  0.0710 -1.3169
  792MOL0     H 9288   9.251   6.862   4.407  0.6877  0.4681 -0.5402
  792MOL0     H 9289   9.174   6.941   4.270 -1.8172  0.4113  1.7198
  792MOL0     H 9290   8.949   6.836   4.355  0.3272  1.9812  0.0172
  792MOL0     H 9291   9.019   6.968   4.428 -0.1586 -0.3168  1.0912
  792MOL0     H 9292   9.110   6.727   4.758 -2.4888  0.5699  0.8407
  792MOL0     H 9293   9.168   6.778   3.942  0.2048 -1.0654  1.2545
  792MOL0     H 9294   8.957   6.701   3.711  0.5847 -0.9652  0.2451
  792MOL0     H 9295   9.048   6.853   3.753  0.9097 -0.6688  1.1571
  792MOL0     H 9296   9.070   6.781   3.591  1.7335 -0.6539 -0.2418
  793MOL0     O 9297   8.901   7.961   2.232  0.3655 -0.0873  0.5531
  793MOL0     C 9298   8.972   7.871   2.268  0.2001  0.5351 -0.3281
  793MOL0     O 9299   9.011   7.844   2.396  1.5403  0.3918  0.4687
  793MOL0     C 9300   8.979   7.915   2.510  0.4088 -0.4808 -0.1159
  793MOL0     C 9301   9.052   7.883   2.633 -0.9292  0.2296  0.3484
  793MOL0     C 9302   9.026   7.955   2.760  0.0054 -0.0722  0.7657
  793MOL0     C 9303   8.928   8.047   2.768  0.5267 -0.5720  0.2429
  793MOL0     O 9304   8.895   8.114   2.878  0.0660 -0.0583  0.7552
  793MOL0     C 9305   8.977   8.115   2.992 -0.0554 -0.0934  0.0309
  793MOL0     C 9306   8.933   8.228   3.085  0.1046 -0.2871 -0.9400
  793MOL0     C 9307   8.952   8.173   3.233 -0.4189  0.3324 -0.6413
  793MOL0     C 9308   8.841   8.069   3.286  0.3403 -0.3204 -0.1121
  793MOL0     C 9309   8.894   8.007   3.417  0.5011  0.3456 -0.0055
  793MOL0     C 9310   8.787   7.912   3.487 -0.3026 -1.1285  0.0440
  793MOL0     C 9311   8.682   7.995   3.559  0.2228 -0.3834 -0.8836
  793MOL0     C 9312   8.634   7.917   3.685  0.4589 -0.1736  0.7782
  793MOL0     N 9313   8.727   7.936   3.801  0.4515 -0.2804 -0.0923
  793MOL0     C 9314   8.679   7.938   3.935 -0.1575  0.0755  1.0779
  793MOL0     C 9315   8.792   7.967   4.008 -0.3120  0.8164  0.2887
  793MOL0     C 9316   8.816   7.991   4.148 -0.0172  0.2909 -0.1561
  793MOL0     C 9317   8.709   7.915   4.234  0.0986  0.5602 -0.2100
  793MOL0     C 9318   8.749   7.898   4.373  0.3749 -0.2239 -0.0011
  793MOL0     C 9319   8.649   7.824   4.451  0.2738  0.5579 -0.1695
  793MOL0     O 9320   8.594   7.711   4.382 -0.6828  0.1088  0.2656
  793MOL0     C 9321   8.525   7.616   4.454  0.0540  0.5381 -0.1895
  793MOL0     C 9322   8.507   7.610   4.593 -0.0614 -0.6543 -0.3413
  793MOL0     C 9323   8.421   7.512   4.651 -0.0752  0.4411 -0.2700
  793MOL0     C 9324   8.413   7.506   4.809  0.0965 -0.3112 -0.2153
  793MOL0     C 9325   8.352   7.420   4.574  0.1105  0.1417  0.4090
  793MOL0     C 9326   8.250   7.325   4.628  0.3981 -0.3549  0.3386
  793MOL0     O 9327   8.214   7.224   4.538 -0.1200  0.2700 -0.1944
  793MOL0     C 9328   8.149   7.114   4.579  0.3556  0.0369  0.0624
  793MOL0     C 9329   8.099   7.034   4.474 -1.3416  0.2111 -0.3547
  793MOL0     C 9330   8.037   6.918   4.497  0.2839  0.7901 -0.2849
  793MOL0     C 9331   8.019   6.880   4.631  0.2979  0.6199 -0.4578
  793MOL0     O 9332   7.947   6.767   4.667  0.2341  0.6026  0.7840
  793MOL0     C 9333   7.814   6.769   4.626  0.6951 -1.0003 -0.7164
  793MOL0     C 9334   7.729   6.644   4.677 -0.4489 -0.0737 -0.3092
  793MOL0     C 9335   7.784   6.521   4.605 -0.0757 -0.1475 -0.3148
  793MOL0     C 9336   7.681   6.410   4.590  0.0164 -0.9267  0.7516
  793MOL0     C 9337   7.727   6.292   4.504 -0.7362 -0.0144 -0.3638
  793MOL0     C 9338   7.629   6.168   4.525 -1.0627  0.0196 -0.6845
  793MOL0     C 9339   7.630   6.075   4.406 -0.2732 -0.4076  0.5013
  793MOL0     C 9340   7.544   5.949   4.440  0.4357 -0.1173  0.2257
  793MOL0    Cl 9341   7.494   5.861   4.284  0.0583 -0.1298  0.4918
  793MOL0     C 9342   8.073   6.948   4.734 -0.5602 -0.5877  0.0515
  793MOL0     C 9343   8.133   7.072   4.706  1.2581 -0.3237  0.5452
  793MOL0     O 9344   8.177   7.366   4.711  0.1609  0.4647 -0.9726
  793MOL0     C 9345   8.386   7.421   4.430 -0.3727  0.3191 -0.4425
  793MOL0     C 9346   8.472   7.518   4.379  0.3435 -0.0740 -0.2982
  793MOL0     N 9347   8.905   7.985   3.923 -0.6857  0.1135 -0.1709
  793MOL0     N 9348   8.864   7.963   3.804 -0.1540 -0.0473  0.0149
  793MOL0     C 9349   8.860   8.079   2.648 -0.3470  0.7553 -0.4875
  793MOL0     C 9350   8.886   8.010   2.529 -0.1511  0.8732  0.2121
  793MOL0     C 9351   8.998   7.763   2.174 -0.1507 -0.2176  0.6416
  793MOL0     C 9352   9.000   7.626   2.215 -0.5249 -0.6713 -0.2400
  793MOL0     C 9353   8.995   7.522   2.124 -0.4433  0.2980 -0.4441
  793MOL0     C 9354   9.002   7.543   1.991 -0.0478 -0.2559 -1.0113
  793MOL0     O 9355   9.015   7.440   1.900  0.1146  0.4724 -0.5076
  793MOL0     C 9356   9.088   7.317   1.940  0.6833  0.5182  0.6557
  793MOL0     C 9357   9.126   7.224   1.812 -0.9760 -0.3880 -0.3159
  793MOL0     C 9358   9.021   7.227   1.708  0.1990  0.3886 -0.7157
  793MOL0     C 9359   9.047   7.334   1.601  0.0094  0.6516 -0.4657
  793MOL0     C 9360   8.935   7.347   1.505  0.8117  0.9225 -0.2796
  793MOL0     C 9361   8.845   7.325   1.420  0.2482  0.2703 -0.5048
  793MOL0     C 9362   9.019   7.670   1.946  0.3887  0.1414  0.6982
  793MOL0     C 9363   9.015   7.782   2.034  0.6044 -0.3753  0.2039
  793MOL0     C 9364   9.027   7.915   1.964  0.0913 -0.4770 -0.2568
  793MOL0     H 9365   9.144   7.827   2.614 -0.7988  1.2588 -2.5551
  793MOL0     H 9366   9.085   7.936   2.849  0.0756  1.1911  1.0076
  793MOL0     H 9367   9.080   8.138   2.963  0.5146 -0.9657  1.2601
  793MOL0     H 9368   8.975   8.023   3.052 -1.6671 -0.4127 -0.4517
  793MOL0     H 9369   9.001   8.309   3.060 -0.6009  0.9114  0.8293
  793MOL0     H 9370   8.833   8.269   3.069  1.1169  2.2472 -1.1915
  793MOL0     H 9371   9.049   8.124   3.234 -1.2038 -1.3245  0.5790
  793MOL0     H 9372   8.971   8.257   3.300  0.8894  0.0325 -0.6122
  793MOL0     H 9373   8.742   8.113   3.303  1.3680  1.8275  0.6668
  793MOL0     H 9374   8.831   7.982   3.221  1.3166 -1.2396  0.9384
  793MOL0     H 9375   8.917   8.088   3.487  0.2516  0.8530 -0.4931
  793MOL0     H 9376   8.983   7.945   3.403  0.2381 -0.4722  1.7732
  793MOL0     H 9377   8.735   7.846   3.417  2.0572 -1.8511 -1.1075
  793MOL0     H 9378   8.840   7.849   3.559 -1.7915  0.5553  2.7885
  793MOL0     H 9379   8.600   8.023   3.492  0.5496  4.1767  0.2444
  793MOL0     H 9380   8.722   8.087   3.603  0.2277 -1.9713  2.8610
  793MOL0     H 9381   8.530   7.943   3.706  0.1292 -0.5525 -0.2679
  793MOL0     H 9382   8.635   7.809   3.665  4.4547 -0.4221  1.5751
  793MOL0     H 9383   8.576   7.920   3.961 -0.8201 -1.6444 -2.1310
  793MOL0     H 9384   8.810   8.096   4.180  1.8143 -0.1667  1.9505
  793MOL0     H 9385   8.912   7.954   4.184 -0.1908  0.8626  0.9482
  793MOL0     H 9386   8.618   7.972   4.217  0.5440  2.2600  2.5291
  793MOL0     H 9387   8.693   7.820   4.182 -0.3830  1.2101 -1.2797
  793MOL0     H 9388   8.841   7.839   4.369 -0.8919 -2.3394  0.4589
  793MOL0     H 9389   8.783   7.990   4.421  3.5605 -0.3029 -1.8546
  793MOL0     H 9390   8.690   7.797   4.549 -1.3216  1.1663  0.6965
  793MOL0     H 9391   8.563   7.891   4.462  0.8014  2.0932 -3.8510
  793MOL0     H 9392   8.550   7.696   4.644 -0.1779 -0.7657 -0.0491
  793MOL0     H 9393   8.362   7.422   4.857 -2.4510  0.7147 -0.9498
  793MOL0     H 9394   8.358   7.594   4.845 -1.1719 -1.3728  0.5294
  793MOL0     H 9395   8.510   7.508   4.860 -0.4332 -0.6323  0.8289
  793MOL0     H 9396   8.106   7.066   4.370  0.4251 -1.3168 -0.7573
  793MOL0     H 9397   8.002   6.859   4.413 -0.8816 -3.5339  2.9075
  793MOL0     H 9398   7.771   6.861   4.666 -0.4952 -1.4268 -1.0007
  793MOL0     H 9399   7.806   6.790   4.519  1.1210  3.2359 -0.0897
  793MOL0     H 9400   7.734   6.621   4.784  1.9086 -1.8761 -0.7124
  793MOL0     H 9401   7.628   6.662   4.641 -0.3513 -1.5855 -1.4595
  793MOL0     H 9402   7.863   6.472   4.663 -0.4960 -0.8138 -0.2897
  793MOL0     H 9403   7.815   6.550   4.504 -0.5209  0.1119 -0.3802
  793MOL0     H 9404   7.603   6.453   4.527  0.7308 -3.2615 -2.0005
  793MOL0     H 9405   7.639   6.370   4.682  0.2913 -0.3773  1.1156
  793MOL0     H 9406   7.706   6.310   4.398 -2.6505  0.1209 -0.0040
  793MOL0     H 9407   7.830   6.269   4.532 -0.8262  1.8399  1.7564
  793MOL0     H 9408   7.529   6.205   4.548 -1.2173 -0.4930 -0.5124
  793MOL0     H 9409   7.664   6.111   4.612  3.7455  3.6948  0.2247
  793MOL0     H 9410   7.733   6.048   4.381  0.0765 -1.3902  2.7570
  793MOL0     H 9411   7.583   6.123   4.319 -1.2910  0.1178  1.3249
  793MOL0     H 9412   7.465   5.994   4.500  1.1449  1.9318 -0.2842
  793MOL0     H 9413   7.601   5.884   4.508 -1.9487 -1.1116  1.3834
  793MOL0     H 9414   8.057   6.921   4.837  1.4842  2.1832  1.2311
  793MOL0     H 9415   8.141   7.133   4.795 -0.6137 -0.0693  0.5815
  793MOL0     H 9416   8.350   7.339   4.369  1.9613  0.4945 -2.2201
  793MOL0     H 9417   8.488   7.525   4.271 -0.2452 -3.3288 -0.7004
  793MOL0     H 9418   8.779   8.152   2.659 -0.9206  0.0284  0.2032
  793MOL0     H 9419   8.827   8.043   2.445  0.1075  2.8521  0.7543
  793MOL0     H 9420   9.009   7.602   2.321 -1.4453  2.9626  0.8150
  793MOL0     H 9421   9.000   7.417   2.150 -2.7366 -0.4485 -2.6244
  793MOL0     H 9422   9.174   7.328   2.006  2.0846  0.0352 -1.0230
  793MOL0     H 9423   9.022   7.257   2.003  0.9939 -2.7499 -1.8311
  793MOL0     H 9424   9.148   7.124   1.850 -1.8471 -0.3702  0.2755
  793MOL0     H 9425   9.221   7.249   1.765  1.0095 -1.9591  2.5758
  793MOL0     H 9426   9.015   7.129   1.660  1.4687 -0.0724  0.0245
  793MOL0     H 9427   8.924   7.245   1.756  1.2460 -0.3259  1.8399
  793MOL0     H 9428   9.131   7.304   1.537  0.6230 -2.1721  1.4412
  793MOL0     H 9429   9.070   7.427   1.654 -1.0454  0.7140 -0.1017
  793MOL0     H 9430   8.780   7.307   1.336  0.3161  1.4360 -0.8135
  793MOL0     H 9431   9.049   7.692   1.844 -1.0796 -1.0113 -0.0140
  793MOL0     H 9432   8.942   7.957   1.909  1.6702  1.9583 -0.9756
  793MOL0     H 9433   9.058   7.986   2.040  0.1682 -2.1945  1.3948
  793MOL0     H 9434   9.114   7.916   1.898  0.7303  3.8203  0.4054
  794MOL0     O 9435   2.575   1.475   7.278  0.4182 -0.1313  0.2882
  794MOL0     C 9436   2.572   1.453   7.399  0.0884 -0.4899  0.8679
  794MOL0     O 9437   2.657   1.508   7.484 -0.3266 -0.1162  0.4296
  794MOL0     C 9438   2.735   1.617   7.451  0.2746 -0.4062 -0.4984
  794MOL0     C 9439   2.688   1.728   7.389  0.2200 -0.3186  0.2221
  794MOL0     C 9440   2.773   1.832   7.371 -1.2920  0.0172 -0.1181
  794MOL0     C 9441   2.917   1.822   7.396 -0.0609  0.5640  0.2304
  794MOL0     O 9442   3.010   1.928   7.372  0.1388  0.0181 -0.1900
  794MOL0     C 9443   2.985   1.989   7.238  0.1972 -0.4992 -0.9930
  794MOL0     C 9444   3.124   2.012   7.178 -0.3219  0.0481  0.3790
  794MOL0     C 9445   3.115   2.081   7.035  0.7183  0.7640  0.9945
  794MOL0     C 9446   3.122   2.231   7.026 -0.2619  0.8889 -0.1606
  794MOL0     C 9447   3.118   2.291   6.884 -0.3718 -0.4486  0.4380
  794MOL0     C 9448   2.992   2.274   6.804  0.5519 -0.2029 -0.7216
  794MOL0     C 9449   2.990   2.326   6.659 -0.3978  0.3817  0.8048
  794MOL0     C 9450   3.078   2.244   6.566 -0.1274 -0.3722  0.7852
  794MOL0     N 9451   3.028   2.105   6.551  0.2794 -0.1892  0.0572
  794MOL0     C 9452   2.924   2.062   6.477  0.1757  0.5214  0.3809
  794MOL0     C 9453   2.915   1.931   6.509  0.6826  0.8168  0.2127
  794MOL0     C 9454   2.813   1.827   6.459 -0.4138 -0.2062  0.5860
  794MOL0     C 9455   2.872   1.692   6.427 -0.2338 -0.1534 -0.0018
  794MOL0     C 9456   2.862   1.600   6.548 -0.1574 -0.3981  0.0375
  794MOL0     C 9457   2.991   1.522   6.582 -0.8254 -0.0983  0.3765
  794MOL0     O 9458   2.953   1.448   6.701 -0.0174  0.2792 -0.0623
  794MOL0     C 9459   3.048   1.367   6.753 -0.3663  0.6122 -0.4118
  794MOL0     C 9460   2.997   1.264   6.832 -0.3522 -0.6145  0.2549
  794MOL0     C 9461   3.081   1.174   6.902 -0.1363  0.2451 -0.2471
  794MOL0     C 9462   3.013   1.063   6.974  0.0161  1.0148  0.2212
  794MOL0     C 9463   3.221   1.192   6.890  1.1711  0.4801 -0.1045
  794MOL0     C 9464   3.309   1.102   6.960  0.0366 -0.4273 -0.9369
  794MOL0     O 9465   3.419   1.062   6.895 -0.1998 -0.1574 -0.0514
  794MOL0     C 9466   3.507   0.978   6.954 -0.2005  0.1525  0.7808
  794MOL0     C 9467   3.605   1.018   7.041 -0.2049 -0.5319  0.4041
  794MOL0     C 9468   3.700   0.927   7.092 -0.2652 -0.0853 -0.3418
  794MOL0     C 9469   3.679   0.793   7.074 -0.2816  0.5615  1.0703
  794MOL0     O 9470   3.757   0.692   7.125  0.0971 -0.5203 -0.2122
  794MOL0     C 9471   3.816   0.697   7.249 -0.3051 -0.0422 -0.1316
  794MOL0     C 9472   3.771   0.595   7.355  0.9017  0.7902  0.4978
  794MOL0     C 9473   3.895   0.559   7.444 -0.8075 -0.2315  0.1183
  794MOL0     C 9474   3.889   0.472   7.560  0.2507  0.8862  0.9196
  794MOL0     C 9475   3.791   0.532   7.663  0.3696 -0.6403 -0.5438
  794MOL0     C 9476   3.747   0.433   7.777 -0.0913  0.0598 -0.5579
  794MOL0     C 9477   3.647   0.508   7.866 -0.4836  0.2837 -0.1438
  794MOL0     C 9478   3.564   0.414   7.948  0.5386  0.7874  0.1395
  794MOL0    Cl 9479   3.663   0.350   8.077 -0.1185 -0.3360 -0.1343
  794MOL0     C 9480   3.577   0.753   6.978 -0.3226 -0.0607 -0.1272
  794MOL0     C 9481   3.493   0.852   6.922 -0.9633  0.2933 -0.4986
  794MOL0     O 9482   3.284   1.072   7.078  0.3517 -0.1336 -0.0397
  794MOL0     C 9483   3.264   1.297   6.808 -0.7459  0.0871 -0.9468
  794MOL0     C 9484   3.188   1.387   6.734  0.5819 -0.3859  0.2170
  794MOL0     N 9485   3.018   1.900   6.600  0.6568  0.2447 -0.0039
  794MOL0     N 9486   3.083   2.009   6.617 -0.2947 -0.6384  0.4874
  794MOL0     C 9487   2.956   1.708   7.455 -0.1934  0.3792  0.1963
  794MOL0     C 9488   2.868   1.605   7.483 -0.2404  0.3537 -0.3488
  794MOL0     C 9489   2.464   1.361   7.432  0.3893  1.3808 -0.2384
  794MOL0     C 9490   2.379   1.314   7.334  0.1518 -0.0382 -0.3009
  794MOL0     C 9491   2.286   1.207   7.346 -0.9583 -0.6220  0.9884
  794MOL0     C 9492   2.281   1.136   7.458 -0.5128  0.1226  0.5138
  794MOL0     O 9493   2.203   1.028   7.481  0.8848 -0.4196 -0.2112
  794MOL0     C 9494   2.259   0.918   7.554 -0.5075  0.0692  0.2320
  794MOL0     C 9495   2.159   0.803   7.582 -0.4982  0.3889  0.0591
  794MOL0     C 9496   2.248   0.679   7.611 -0.1110  0.6717  0.6290
  794MOL0     C 9497   2.161   0.547   7.638 -0.2865 -0.3107  0.2533
  794MOL0     C 9498   2.079   0.511   7.519 -0.0836 -0.1512 -0.2474
  794MOL0     C 9499   2.008   0.488   7.425 -0.0688 -0.3816 -0.0376
  794MOL0     C 9500   2.367   1.185   7.565 -0.6604  0.1121  0.4250
  794MOL0     C 9501   2.457   1.294   7.554 -0.2608 -0.7630  0.1848
  794MOL0     C 9502   2.530   1.336   7.673  0.3478  0.3028  0.0545
  794MOL0     H 9503   2.584   1.744   7.362  0.3635 -0.6372 -0.5348
  794MOL0     H 9504   2.743   1.925   7.324 -0.3077  0.3843 -0.0423
  794MOL0     H 9505   2.929   2.083   7.238  0.5233 -0.3001 -0.8899
  794MOL0     H 9506   2.936   1.915   7.175  3.2219 -0.8542 -3.1400
  794MOL0     H 9507   3.185   2.075   7.245 -0.7178  0.8512 -0.0012
  794MOL0     H 9508   3.169   1.915   7.156 -1.5574  0.0799 -2.8173
  794MOL0     H 9509   3.202   2.046   6.978 -0.9133 -1.7490 -0.1191
  794MOL0     H 9510   3.032   2.046   6.973  0.9809  0.1038  1.0094
  794MOL0     H 9511   3.033   2.271   7.075  0.2690 -0.3584  1.9515
  794MOL0     H 9512   3.208   2.264   7.084 -0.3870  0.2567  0.3920
  794MOL0     H 9513   3.201   2.249   6.826 -1.3501  1.5159 -2.6432
  794MOL0     H 9514   3.125   2.399   6.894 -3.2336 -0.1584  0.0959
  794MOL0     H 9515   2.953   2.173   6.808  0.1855 -0.0790  3.7016
  794MOL0     H 9516   2.925   2.327   6.872  3.1336 -0.2577  2.1010
  794MOL0     H 9517   3.014   2.433   6.659 -2.3110  0.9567 -2.6632
  794MOL0     H 9518   2.886   2.316   6.626 -0.1530 -1.4072  0.5000
  794MOL0     H 9519   3.081   2.287   6.465 -1.5792 -0.2809  0.7464
  794MOL0     H 9520   3.177   2.242   6.612  1.5247  2.2918 -2.2524
  794MOL0     H 9521   2.875   2.126   6.404  1.2052 -0.1526 -0.9426
  794MOL0     H 9522   2.771   1.867   6.366 -0.7074 -1.5900  0.0925
  794MOL0     H 9523   2.724   1.815   6.522 -0.3562  4.2924  1.8457
  794MOL0     H 9524   2.811   1.645   6.349 -1.2048  3.1958 -1.4874
  794MOL0     H 9525   2.974   1.703   6.389  0.3398 -0.6877  1.3454
  794MOL0     H 9526   2.830   1.660   6.634 -2.9998  2.6165 -2.8074
  794MOL0     H 9527   2.773   1.538   6.531  0.0946 -0.7184 -0.1128
  794MOL0     H 9528   3.019   1.464   6.494 -0.5361 -1.1219  1.1234
  794MOL0     H 9529   3.076   1.590   6.591  0.7971 -2.3093  3.9885
  794MOL0     H 9530   2.888   1.256   6.836 -0.5002  0.9058 -0.0808
  794MOL0     H 9531   3.074   0.973   6.983 -1.3719  0.1884  1.7842
  794MOL0     H 9532   2.929   1.030   6.912 -0.6753  1.3564  0.9756
  794MOL0     H 9533   2.992   1.079   7.080  1.1019 -1.5648  0.9107
  794MOL0     H 9534   3.613   1.121   7.075  1.6229 -0.5596  0.1495
  794MOL0     H 9535   3.781   0.960   7.157 -1.5894  1.3926  0.6392
  794MOL0     H 9536   3.921   0.674   7.229 -0.3739  0.0020 -0.5449
  794MOL0     H 9537   3.807   0.792   7.301  2.0231  0.9844 -1.4627
  794MOL0     H 9538   3.692   0.640   7.416  1.2374  0.1757  1.4062
  794MOL0     H 9539   3.732   0.510   7.298  1.3827 -0.2877  1.7113
  794MOL0     H 9540   3.931   0.660   7.467  1.6597 -1.3377  1.4552
  794MOL0     H 9541   3.963   0.505   7.377  1.7207 -2.7185  4.2504
  794MOL0     H 9542   3.990   0.461   7.601  0.9114 -1.3183 -1.0242
  794MOL0     H 9543   3.839   0.385   7.516 -1.5736  2.9617 -1.3240
  794MOL0     H 9544   3.834   0.623   7.705  0.0201 -1.3167  1.3998
  794MOL0     H 9545   3.707   0.560   7.598 -0.8848  0.4956  1.4511
  794MOL0     H 9546   3.834   0.393   7.830  0.3911  0.7818 -0.7916
  794MOL0     H 9547   3.694   0.346   7.735 -1.1699  0.0015  0.8646
  794MOL0     H 9548   3.573   0.557   7.802  0.5530  0.2641 -1.4005
  794MOL0     H 9549   3.708   0.578   7.924  3.1428 -0.8338 -2.2772
  794MOL0     H 9550   3.506   0.341   7.890  1.6120  0.7628 -0.9258
  794MOL0     H 9551   3.489   0.476   7.999 -1.2003 -1.1836  0.1178
  794MOL0     H 9552   3.576   0.647   6.954  2.1548  0.0392 -0.9811
  794MOL0     H 9553   3.418   0.819   6.851 -1.8660  1.1236  0.0602
  794MOL0     H 9554   3.367   1.307   6.775 -1.0454  0.6551 -1.7474
  794MOL0     H 9555   3.230   1.457   6.663  0.0875  1.2490  1.4495
  794MOL0     H 9556   3.063   1.693   7.467  0.3049  2.8701 -0.6753
  794MOL0     H 9557   2.911   1.520   7.534  0.8342  0.4611 -1.0325
  794MOL0     H 9558   2.379   1.365   7.238 -1.1744  0.4636 -0.0557
  794MOL0     H 9559   2.223   1.164   7.269 -0.0794 -0.9261  0.4313
  794MOL0     H 9560   2.328   0.878   7.479 -1.6541 -2.6715  0.5344
  794MOL0     H 9561   2.301   0.945   7.651 -1.4741 -2.0120  1.3024
  794MOL0     H 9562   2.084   0.796   7.503 -0.5351  0.8519  0.0496
  794MOL0     H 9563   2.110   0.828   7.677  2.1871 -0.1106  1.6838
  794MOL0     H 9564   2.301   0.655   7.518 -2.3398 -0.6382 -0.3812
  794MOL0     H 9565   2.322   0.693   7.690  2.4761  0.8655 -1.6458
  794MOL0     H 9566   2.104   0.568   7.729  0.2508  0.7708  0.3574
  794MOL0     H 9567   2.239   0.471   7.652 -1.4894 -1.4941  0.6947
  794MOL0     H 9568   1.950   0.464   7.339  1.2396 -0.2876 -0.9794
  794MOL0     H 9569   2.367   1.137   7.662  2.2030 -2.6944 -0.7661
  794MOL0     H 9570   2.540   1.445   7.682 -0.5985  0.2640  2.2043
  794MOL0     H 9571   2.480   1.306   7.766  0.9236  2.5457  1.1673
  794MOL0     H 9572   2.630   1.292   7.668  0.8434  1.4741 -0.8698
  795MOL0     O 9573   4.387   5.091   2.655 -0.5470  1.1080 -0.2611
  795MOL0     C 9574   4.411   4.988   2.584  0.0972 -0.9246  0.5554
  795MOL0     O 9575   4.333   4.880   2.580  0.2147  0.1404  0.3069
  795MOL0     C 9576   4.239   4.870   2.677 -0.2748 -0.7178 -0.9565
  795MOL0     C 9577   4.100   4.873   2.646  0.0027 -0.2871  0.3038
  795MOL0     C 9578   3.997   4.869   2.743  0.0810 -0.3361  0.2038
  795MOL0     C 9579   4.035   4.860   2.873 -0.4530 -0.0834 -0.5062
  795MOL0     O 9580   3.932   4.873   2.969 -0.2136  0.4821 -0.1199
  795MOL0     C 9581   3.949   4.834   3.098  0.1294 -1.0068 -0.5578
  795MOL0     C 9582   3.962   4.685   3.108  0.2162 -0.4130  1.2797
  795MOL0     C 9583   3.940   4.614   3.244 -0.5347 -0.3461 -0.2681
  795MOL0     C 9584   3.783   4.597   3.285 -0.8119  0.0197  0.0913
  795MOL0     C 9585   3.762   4.508   3.408  0.0325  1.3149 -0.7827
  795MOL0     C 9586   3.621   4.515   3.465 -0.0915 -0.3624 -0.2178
  795MOL0     C 9587   3.514   4.458   3.363 -0.6295 -0.7851 -0.2673
  795MOL0     C 9588   3.389   4.402   3.443  0.0423  0.2701 -0.2199
  795MOL0     N 9589   3.429   4.275   3.506  0.2158 -0.4344  0.0482
  795MOL0     C 9590   3.412   4.156   3.448 -0.0398  0.5173 -0.2226
  795MOL0     C 9591   3.449   4.072   3.550  0.0352 -0.3069  0.2754
  795MOL0     C 9592   3.446   3.929   3.581 -0.0883 -0.3572 -0.0870
  795MOL0     C 9593   3.571   3.859   3.517 -0.2632 -0.3049  0.3787
  795MOL0     C 9594   3.532   3.795   3.379  0.4097 -0.8621  0.5906
  795MOL0     C 9595   3.638   3.784   3.269  0.3270  0.3483 -1.1055
  795MOL0     O 9596   3.746   3.721   3.332  0.1326  0.2635 -0.6397
  795MOL0     C 9597   3.827   3.641   3.263  0.4723 -0.2838  0.3374
  795MOL0     C 9598   3.870   3.517   3.310  0.0775 -0.4182 -0.1072
  795MOL0     C 9599   3.975   3.451   3.251 -1.1028  0.3885  0.0200
  795MOL0     C 9600   4.039   3.333   3.329 -0.0106 -0.2272 -0.7366
  795MOL0     C 9601   4.007   3.484   3.113 -0.5300 -1.0271 -0.5718
  795MOL0     C 9602   4.114   3.416   3.039  0.3574 -0.1018  0.1152
  795MOL0     O 9603   4.148   3.289   3.072 -0.3786  0.1875 -0.1095
  795MOL0     C 9604   4.273   3.255   3.016 -0.6733  0.0404 -0.7006
  795MOL0     C 9605   4.293   3.173   2.908 -0.6678  0.6211  0.0531
  795MOL0     C 9606   4.419   3.161   2.850 -0.3208  1.2222 -0.6259
  795MOL0     C 9607   4.528   3.229   2.895  0.3299 -0.1370 -0.1103
  795MOL0     O 9608   4.656   3.225   2.840 -0.2311 -0.6163  0.5000
  795MOL0     C 9609   4.675   3.136   2.724 -0.2823 -0.1195  0.8292
  795MOL0     C 9610   4.827   3.149   2.673 -0.0714  0.2817  0.4869
  795MOL0     C 9611   4.844   3.076   2.542  0.5765  1.5145  0.6978
  795MOL0     C 9612   4.993   3.075   2.511 -0.1615 -0.4674 -0.0097
  795MOL0     C 9613   5.022   3.029   2.370 -0.2807 -0.2784  0.8029
  795MOL0     C 9614   5.179   3.022   2.357  0.0297 -0.2761  0.9606
  795MOL0     C 9615   5.228   2.974   2.216  0.5620 -0.8243 -0.8777
  795MOL0     C 9616   5.371   2.925   2.222 -1.2094  0.3691 -0.4489
  795MOL0    Cl 9617   5.377   2.785   2.332 -0.2958 -0.1330 -0.0807
  795MOL0     C 9618   4.504   3.320   2.994  0.5200 -0.6069 -0.2332
  795MOL0     C 9619   4.384   3.323   3.063 -0.4540  0.2136  0.3096
  795MOL0     O 9620   4.163   3.484   2.951 -0.0338 -0.0039  0.3505
  795MOL0     C 9621   3.940   3.587   3.050  0.8410 -0.2849 -0.3106
  795MOL0     C 9622   3.865   3.674   3.133 -0.1270 -0.4054 -0.0402
  795MOL0     N 9623   3.494   4.144   3.656 -0.1035 -0.1376 -0.5829
  795MOL0     N 9624   3.474   4.264   3.635  0.7874 -0.4149 -0.1467
  795MOL0     C 9625   4.170   4.842   2.912  0.7880 -0.5022 -1.4061
  795MOL0     C 9626   4.267   4.838   2.816  0.4664  0.0022  0.4064
  795MOL0     C 9627   4.536   4.994   2.493  0.0662 -0.2555  0.0694
  795MOL0     C 9628   4.574   4.872   2.431  0.5299  0.4060  0.0766
  795MOL0     C 9629   4.682   4.873   2.346  0.2875  0.0411 -0.4898
  795MOL0     C 9630   4.766   4.984   2.330  1.6151  1.1449  0.6056
  795MOL0     O 9631   4.868   4.971   2.241  0.1993  0.1832  0.3743
  795MOL0     C 9632   4.879   4.868   2.144  0.4225 -0.1733 -0.5065
  795MOL0     C 9633   4.949   4.742   2.211  0.0440 -0.5805  0.6128
  795MOL0     C 9634   5.101   4.763   2.220  1.1784 -0.3126  0.2062
  795MOL0     C 9635   5.134   4.844   2.354  0.2909  0.4732 -0.6352
  795MOL0     C 9636   5.279   4.862   2.370  0.5573  0.2021  0.5035
  795MOL0     C 9637   5.397   4.854   2.389  0.4389 -0.4120  0.3994
  795MOL0     C 9638   4.732   5.101   2.389  0.4497  0.0823  0.2091
  795MOL0     C 9639   4.616   5.107   2.466  0.4569 -0.1216 -0.1362
  795MOL0     C 9640   4.580   5.244   2.527  0.9782 -0.3328 -0.3607
  795MOL0     H 9641   4.070   4.898   2.545 -0.5773 -1.2775  0.2153
  795MOL0     H 9642   3.891   4.883   2.724 -0.0158 -1.9680 -0.6631
  795MOL0     H 9643   3.853   4.861   3.142  0.5120  2.2873 -1.5145
  795MOL0     H 9644   4.031   4.892   3.141 -0.1617  1.9947 -3.6125
  795MOL0     H 9645   3.891   4.641   3.036  1.1545  1.8752 -1.2314
  795MOL0     H 9646   4.065   4.661   3.082  0.1472 -0.2128  0.8115
  795MOL0     H 9647   3.988   4.516   3.242  0.3488  0.0789 -2.2692
  795MOL0     H 9648   3.992   4.675   3.319  0.5352 -0.3276 -0.9945
  795MOL0     H 9649   3.725   4.688   3.303 -0.8107  0.0425 -0.0147
  795MOL0     H 9650   3.730   4.550   3.201 -4.3416  1.5571  1.2549
  795MOL0     H 9651   3.835   4.536   3.485 -1.6685 -0.0747  1.4540
  795MOL0     H 9652   3.787   4.404   3.387  0.5051  0.3549  3.5850
  795MOL0     H 9653   3.611   4.454   3.555  2.0063 -0.2933  0.1280
  795MOL0     H 9654   3.598   4.620   3.487  2.0766  0.0408  0.3792
  795MOL0     H 9655   3.551   4.374   3.304 -0.3433 -1.7022  1.1454
  795MOL0     H 9656   3.494   4.542   3.296 -1.9854 -0.9653 -0.1107
  795MOL0     H 9657   3.357   4.474   3.519  2.1399  0.0482  0.9800
  795MOL0     H 9658   3.296   4.388   3.388 -0.1685  0.7877  0.0054
  795MOL0     H 9659   3.376   4.142   3.347  1.7172  1.1114 -0.9727
  795MOL0     H 9660   3.346   3.895   3.553 -1.2978  1.5771  1.5854
  795MOL0     H 9661   3.455   3.923   3.690  0.6368  1.8378  0.0279
  795MOL0     H 9662   3.649   3.929   3.486  0.7099 -2.0536 -1.4163
  795MOL0     H 9663   3.611   3.782   3.584  2.1636  0.6751  0.1530
  795MOL0     H 9664   3.502   3.693   3.404  2.2583 -1.2202  1.6317
  795MOL0     H 9665   3.455   3.857   3.333  1.1426 -0.3130  0.0743
  795MOL0     H 9666   3.593   3.728   3.186  0.7389  1.9756 -2.4719
  795MOL0     H 9667   3.668   3.879   3.225  0.4614  1.0656  0.4787
  795MOL0     H 9668   3.819   3.495   3.403  0.5534  0.9489  0.4921
  795MOL0     H 9669   4.149   3.338   3.325  0.0574  3.2070  1.1995
  795MOL0     H 9670   3.997   3.242   3.285  1.5427 -0.7046 -1.3266
  795MOL0     H 9671   4.013   3.340   3.435 -3.0261  0.4748 -1.4261
  795MOL0     H 9672   4.207   3.117   2.875 -1.4575 -1.8357  5.2515
  795MOL0     H 9673   4.437   3.080   2.779 -2.5669  0.8319 -0.8206
  795MOL0     H 9674   4.648   3.033   2.747 -0.6537 -0.5384 -1.3106
  795MOL0     H 9675   4.613   3.171   2.641  0.4965  1.8993  1.0401
  795MOL0     H 9676   4.861   3.252   2.668  0.1402  0.1626 -0.7005
  795MOL0     H 9677   4.883   3.094   2.749 -2.9706  0.2183  2.7658
  795MOL0     H 9678   4.781   3.112   2.460 -0.0093  1.0949  0.9577
  795MOL0     H 9679   4.812   2.973   2.564  0.1898  1.3047 -0.7171
  795MOL0     H 9680   5.034   3.000   2.579 -2.0822 -0.6731  0.9752
  795MOL0     H 9681   5.036   3.175   2.516  1.1532 -1.0941  2.7931
  795MOL0     H 9682   4.979   2.928   2.371  1.6008 -1.1240  0.8389
  795MOL0     H 9683   4.987   3.093   2.289  1.2617  0.5013  0.7105
  795MOL0     H 9684   5.209   2.943   2.426 -1.1920 -0.2138  1.5889
  795MOL0     H 9685   5.215   3.122   2.385 -0.3843 -0.8890  4.0395
  795MOL0     H 9686   5.227   3.058   2.145  0.1371 -1.4272 -1.6025
  795MOL0     H 9687   5.153   2.907   2.174  1.0687 -1.1840 -1.2269
  795MOL0     H 9688   5.437   2.994   2.274  0.3764 -1.0091 -0.5438
  795MOL0     H 9689   5.398   2.907   2.118 -1.1320  3.6480 -1.0854
  795MOL0     H 9690   4.582   3.385   3.032 -0.2862 -0.2993  0.9430
  795MOL0     H 9691   4.365   3.392   3.145 -3.6523 -0.0679 -0.0478
  795MOL0     H 9692   3.967   3.614   2.948  0.2841  1.0513 -0.1227
  795MOL0     H 9693   3.837   3.768   3.087  2.7069  1.0935  1.0732
  795MOL0     H 9694   4.192   4.817   3.015 -2.6541 -0.2103 -0.4669
  795MOL0     H 9695   4.371   4.830   2.844  0.0720 -0.5641  1.8011
  795MOL0     H 9696   4.525   4.779   2.454 -0.1494  1.3483  2.8613
  795MOL0     H 9697   4.699   4.779   2.294 -0.0623 -0.9642  1.1528
  795MOL0     H 9698   4.787   4.823   2.106  0.2521  0.0299 -0.3387
  795MOL0     H 9699   4.930   4.904   2.054 -1.3127 -1.1015 -1.9208
  795MOL0     H 9700   4.931   4.648   2.158  1.1935 -1.5097  1.8089
  795MOL0     H 9701   4.906   4.727   2.310 -2.6185 -0.1309 -0.3701
  795MOL0     H 9702   5.140   4.661   2.221  0.8424 -0.4627 -0.6514
  795MOL0     H 9703   5.132   4.814   2.128 -3.4984  1.2059 -0.7977
  795MOL0     H 9704   5.097   4.783   2.437  0.1238  3.2878  1.5100
  795MOL0     H 9705   5.080   4.938   2.372  1.4044  1.3840 -1.8639
  795MOL0     H 9706   5.500   4.836   2.411  1.6680  1.4581 -2.9697
  795MOL0     H 9707   4.788   5.188   2.355  0.1324  0.0191 -0.5056
  795MOL0     H 9708   4.663   5.314   2.522 -0.4755  1.9566  3.3637
  795MOL0     H 9709   4.507   5.297   2.464  3.0352  0.5473 -2.1329
  795MOL0     H 9710   4.538   5.241   2.628 -1.7274 -0.5468 -1.3867
  796MOL0     O 9711   1.828   2.491   9.751  0.0243  0.5370  0.1940
  796MOL0     C 9712   1.746   2.407   9.790 -0.4241  0.5688  1.0822
  796MOL0     O 9713   1.675   2.319   9.709  0.6461  0.3459 -0.0369
  796MOL0     C 9714   1.687   2.327   9.571 -0.1475  0.7318  0.5093
  796MOL0     C 9715   1.571   2.262   9.506 -1.2125  0.1380 -0.5260
  796MOL0     C 9716   1.566   2.257   9.365 -0.1078 -0.2290 -0.3990
  796MOL0     C 9717   1.666   2.320   9.288  0.6958 -0.0386  0.1560
  796MOL0     O 9718   1.659   2.301   9.150 -0.3040 -0.0277 -0.2079
  796MOL0     C 9719   1.774   2.335   9.062 -0.6687 -0.2915  0.4270
  796MOL0     C 9720   1.761   2.264   8.928  0.4141  0.1759  0.9528
  796MOL0     C 9721   1.811   2.116   8.929 -0.7987  0.8102  0.0096
  796MOL0     C 9722   1.968   2.114   8.913  0.1587  1.0873  0.6548
  796MOL0     C 9723   2.016   1.973   8.874 -0.6737  0.0863  0.2345
  796MOL0     C 9724   2.172   1.947   8.860  0.7849  0.9820  0.6512
  796MOL0     C 9725   2.237   2.030   8.742  0.2352  0.2439  0.4173
  796MOL0     C 9726   2.184   1.987   8.599  0.2501  0.4458 -0.1932
  796MOL0     N 9727   2.286   2.019   8.492  0.5525 -0.1935  0.0803
  796MOL0     C 9728   2.380   2.123   8.488 -0.6064  0.8149 -0.0513
  796MOL0     C 9729   2.454   2.095   8.373 -0.1316 -0.4016  0.0651
  796MOL0     C 9730   2.578   2.160   8.322 -0.3660 -0.1327 -0.3896
  796MOL0     C 9731   2.707   2.138   8.411 -0.4009 -0.8467  0.1807
  796MOL0     C 9732   2.771   2.005   8.381  0.1311 -0.9782 -0.5417
  796MOL0     C 9733   2.870   1.979   8.497  0.4951 -0.3041 -1.0009
  796MOL0     O 9734   2.961   2.093   8.504 -0.1714  0.2967 -0.1238
  796MOL0     C 9735   3.008   2.128   8.624  0.3921 -0.3646 -0.4090
  796MOL0     C 9736   3.028   2.032   8.731 -0.4074  0.0498 -0.0898
  796MOL0     C 9737   3.058   2.073   8.864 -0.6016 -0.4627 -0.0983
  796MOL0     C 9738   3.063   1.962   8.968  0.0550 -0.5758  0.3143
  796MOL0     C 9739   3.079   2.208   8.892 -0.3188  0.1100 -0.1562
  796MOL0     C 9740   3.130   2.266   9.015 -0.1652 -0.6095 -0.4564
  796MOL0     O 9741   3.203   2.188   9.101  0.6875  0.1418  0.1810
  796MOL0     C 9742   3.240   2.249   9.216 -0.9819  0.3944  0.5615
  796MOL0     C 9743   3.378   2.286   9.230 -0.1137  0.2997  0.2667
  796MOL0     C 9744   3.400   2.367   9.344 -0.9432 -0.9842 -0.3333
  796MOL0     C 9745   3.309   2.386   9.444 -0.6061  0.2611 -0.3686
  796MOL0     O 9746   3.351   2.431   9.567 -0.5131  0.2125 -0.3037
  796MOL0     C 9747   3.487   2.403   9.621 -0.8744 -0.1377 -0.4381
  796MOL0     C 9748   3.486   2.434   9.779  0.2874 -0.0180 -0.1639
  796MOL0     C 9749   3.621   2.479   9.836  0.3982 -0.2459  0.2184
  796MOL0     C 9750   3.611   2.495   9.990 -0.2683 -0.0116  0.0011
  796MOL0     C 9751   3.726   2.568  10.054 -0.1961  1.1139 -0.2662
  796MOL0     C 9752   3.696   2.603  10.194 -0.4756  0.4543  0.3618
  796MOL0     C 9753   3.812   2.662  10.276  0.0832 -0.3652 -0.0341
  796MOL0     C 9754   3.767   2.795  10.327  0.2206 -0.7420  0.1780
  796MOL0    Cl 9755   3.886   2.830  10.453  0.1304  0.2951 -0.4323
  796MOL0     C 9756   3.180   2.341   9.430 -0.4048 -1.1751 -0.1282
  796MOL0     C 9757   3.143   2.266   9.317  0.0376 -0.5219  0.6213
  796MOL0     O 9758   3.077   2.369   9.052  0.9139  0.7145  0.6809
  796MOL0     C 9759   3.071   2.297   8.787 -0.1864 -0.2148  0.1768
  796MOL0     C 9760   3.031   2.262   8.663 -0.0260  0.1090 -0.0846
  796MOL0     N 9761   2.409   1.977   8.321 -0.2401 -0.0721  0.2949
  796MOL0     N 9762   2.302   1.937   8.383 -0.6147  0.9775 -0.2690
  796MOL0     C 9763   1.775   2.383   9.357  0.5359 -0.4783 -0.2017
  796MOL0     C 9764   1.793   2.373   9.495  0.7653  0.4320 -0.0963
  796MOL0     C 9765   1.736   2.385   9.934 -0.6780  0.2040 -0.6716
  796MOL0     C 9766   1.698   2.250   9.977 -0.2261 -0.7415 -0.1228
  796MOL0     C 9767   1.679   2.221  10.114  0.2403 -0.4497  0.3748
  796MOL0     C 9768   1.719   2.306  10.213  0.1669 -0.1006  0.8463
  796MOL0     O 9769   1.729   2.252  10.342 -0.2091 -0.1577 -0.0138
  796MOL0     C 9770   1.789   2.336  10.439  1.3544 -0.4698  0.2223
  796MOL0     C 9771   1.801   2.259  10.572 -0.9921  0.6737  0.0895
  796MOL0     C 9772   1.665   2.234  10.636  0.0797 -0.8029 -0.1719
  796MOL0     C 9773   1.644   2.086  10.669  0.3400  0.0731  1.3423
  796MOL0     C 9774   1.631   2.002  10.548  1.5116 -0.4866 -0.9016
  796MOL0     C 9775   1.618   1.950  10.441  0.5029  0.3259 -0.2007
  796MOL0     C 9776   1.757   2.437  10.175  0.6427 -0.0534 -0.2319
  796MOL0     C 9777   1.761   2.480  10.038  0.4894 -0.2160 -0.1617
  796MOL0     C 9778   1.812   2.622  10.018  0.1792  0.3326 -0.4339
  796MOL0     H 9779   1.499   2.224   9.577 -0.7652  1.5669  0.7589
  796MOL0     H 9780   1.482   2.214   9.310  0.6511 -0.1263 -1.6918
  796MOL0     H 9781   1.871   2.307   9.104 -0.4364 -1.3836 -0.7658
  796MOL0     H 9782   1.769   2.443   9.044 -3.2732 -0.4087  0.0538
  796MOL0     H 9783   1.653   2.261   8.909  0.3439  1.1090  1.1491
  796MOL0     H 9784   1.792   2.327   8.845 -1.6055 -0.1184 -0.1009
  796MOL0     H 9785   1.771   2.060   9.014  1.2234  0.9007  1.0798
  796MOL0     H 9786   1.785   2.073   8.832 -0.4416 -0.6299  0.5226
  796MOL0     H 9787   1.993   2.185   8.833 -1.0496 -0.8203 -1.5663
  796MOL0     H 9788   2.020   2.144   9.004  1.2437 -0.1208  0.4501
  796MOL0     H 9789   1.963   1.947   8.782  0.7473  0.6597 -0.7892
  796MOL0     H 9790   1.979   1.907   8.954 -0.6386  1.3833  1.3638
  796MOL0     H 9791   2.228   1.970   8.951  2.5791 -0.6509  0.0238
  796MOL0     H 9792   2.191   1.839   8.851  1.6108  1.1404  0.4137
  796MOL0     H 9793   2.344   2.007   8.741  1.0568  2.9506 -4.3980
  796MOL0     H 9794   2.235   2.139   8.746  2.2077  0.3604 -0.3076
  796MOL0     H 9795   2.170   1.878   8.596 -1.0166  0.6061 -0.3241
  796MOL0     H 9796   2.093   2.044   8.581  0.4055  0.3219 -1.4832
  796MOL0     H 9797   2.391   2.197   8.567  0.3425  1.0365 -0.3800
  796MOL0     H 9798   2.547   2.265   8.324  1.9204  0.6066 -1.0417
  796MOL0     H 9799   2.595   2.129   8.219 -1.8035 -1.0352 -0.3875
  796MOL0     H 9800   2.765   2.229   8.391  0.5266 -1.1709  1.2726
  796MOL0     H 9801   2.676   2.135   8.516 -2.1314 -1.1512 -0.3191
  796MOL0     H 9802   2.691   1.930   8.379 -1.6750  0.8589 -1.5512
  796MOL0     H 9803   2.827   2.014   8.287  2.2996 -1.1325  0.6700
  796MOL0     H 9804   2.811   1.973   8.589 -1.2819  4.0214 -1.6268
  796MOL0     H 9805   2.928   1.886   8.488  2.3171  0.9649 -3.6248
  796MOL0     H 9806   3.010   1.926   8.714  1.7408 -0.7992  2.3148
  796MOL0     H 9807   3.027   1.867   8.928 -2.4364  0.5222 -0.2479
  796MOL0     H 9808   2.989   1.983   9.046 -0.7012 -0.5977 -0.3861
  796MOL0     H 9809   3.160   1.942   9.014  0.7118  0.4843 -0.5650
  796MOL0     H 9810   3.462   2.270   9.164 -1.7748 -1.2662 -1.6152
  796MOL0     H 9811   3.496   2.415   9.361  0.1563 -1.9824 -3.1447
  796MOL0     H 9812   3.484   2.295   9.606 -2.6948 -0.0935 -0.6376
  796MOL0     H 9813   3.557   2.468   9.567  0.5604 -1.4686 -0.2284
  796MOL0     H 9814   3.415   2.512   9.805  1.5696  1.5982 -1.2794
  796MOL0     H 9815   3.453   2.341   9.828  0.0611 -2.0434 -3.8327
  796MOL0     H 9816   3.642   2.580   9.798  2.4978 -1.1378 -1.2167
  796MOL0     H 9817   3.704   2.416   9.801  2.2188  2.7792 -1.3546
  796MOL0     H 9818   3.583   2.399  10.035  1.2362 -0.5414 -0.1218
  796MOL0     H 9819   3.523   2.559   9.998  0.3711  1.3050 -2.5237
  796MOL0     H 9820   3.804   2.492  10.043 -1.0696 -0.2758  2.3174
  796MOL0     H 9821   3.738   2.657   9.993 -1.5495  2.4804  1.3575
  796MOL0     H 9822   3.654   2.520  10.253 -0.6218  1.3440  1.5449
  796MOL0     H 9823   3.616   2.677  10.191 -1.6300 -0.7740 -0.7847
  796MOL0     H 9824   3.891   2.695  10.209 -0.2746  0.0630 -0.2512
  796MOL0     H 9825   3.836   2.593  10.358 -2.0258 -2.1514 -0.8153
  796MOL0     H 9826   3.665   2.785  10.366  1.2644 -1.6717  2.8578
  796MOL0     H 9827   3.776   2.869  10.247  2.9006  0.7590  1.7073
  796MOL0     H 9828   3.110   2.341   9.513 -2.0030 -0.4175 -1.4257
  796MOL0     H 9829   3.039   2.236   9.314  1.1013 -4.7510 -2.6162
  796MOL0     H 9830   3.090   2.403   8.797  1.4539 -0.4706  0.0685
  796MOL0     H 9831   3.022   2.344   8.591  1.5158  1.3898  1.1128
  796MOL0     H 9832   1.857   2.431   9.304 -1.6703  1.9317 -1.6702
  796MOL0     H 9833   1.882   2.400   9.551 -0.1425 -1.3969  2.3884
  796MOL0     H 9834   1.664   2.178   9.904 -3.0848  1.7012 -1.4499
  796MOL0     H 9835   1.654   2.119  10.143  2.9030 -1.3497 -0.1597
  796MOL0     H 9836   1.892   2.363  10.413  1.7152  0.9051  2.7776
  796MOL0     H 9837   1.729   2.427  10.442 -1.0971 -1.9737 -0.6508
  796MOL0     H 9838   1.863   2.324  10.635  0.0426  0.2485 -0.4529
  796MOL0     H 9839   1.854   2.165  10.552 -0.8328  1.2383 -2.5092
  796MOL0     H 9840   1.645   2.293  10.726 -2.6505  1.0278 -1.8389
  796MOL0     H 9841   1.585   2.280  10.577  2.7026  3.2153 -0.9368
  796MOL0     H 9842   1.554   2.071  10.728 -1.2452 -1.8035 -1.3048
  796MOL0     H 9843   1.717   2.056  10.744  0.1749 -1.8147  0.7996
  796MOL0     H 9844   1.619   1.889  10.352  1.2463 -2.2536  1.4765
  796MOL0     H 9845   1.795   2.509  10.246 -0.1270  2.8432 -2.5596
  796MOL0     H 9846   1.787   2.690  10.101  3.2872  0.8611  0.2333
  796MOL0     H 9847   1.919   2.603  10.034 -0.1003  0.9341  2.9486
  796MOL0     H 9848   1.773   2.675   9.931 -1.5575 -0.9125 -0.4596
  797MOL0     O 9849   4.054   5.425  11.366 -0.1440  0.0597  0.1633
  797MOL0     C 9850   4.044   5.299  11.364  1.1817 -0.6105  0.5577
  797MOL0     O 9851   3.978   5.226  11.463  0.1035  0.6515  0.2407
  797MOL0     C 9852   3.863   5.271  11.514  0.7753  0.0412  0.0915
  797MOL0     C 9853   3.785   5.383  11.468  0.7121  0.0235  0.5161
  797MOL0     C 9854   3.668   5.417  11.538  0.0878 -0.8332  0.2259
  797MOL0     C 9855   3.612   5.336  11.632 -0.3693  0.4139 -0.0889
  797MOL0     O 9856   3.492   5.349  11.700 -0.2411  0.3433 -0.7713
  797MOL0     C 9857   3.437   5.484  11.695  0.1474 -0.0318 -0.1130
  797MOL0     C 9858   3.295   5.467  11.722  1.1572 -0.2161 -0.2643
  797MOL0     C 9859   3.209   5.597  11.704 -0.1889  0.0956 -0.6407
  797MOL0     C 9860   3.197   5.678  11.823 -0.6536 -0.3688 -0.4041
  797MOL0     C 9861   3.116   5.807  11.817  0.4058 -0.2230  1.3206
  797MOL0     C 9862   3.075   5.853  11.958  0.7125  0.2579  0.0494
  797MOL0     C 9863   2.992   5.983  11.955  0.3352  0.2206  0.5809
  797MOL0     C 9864   3.064   6.114  11.924 -0.7012  0.1396  0.0470
  797MOL0     N 9865   2.978   6.231  11.893 -0.3621 -0.3024  0.4557
  797MOL0     C 9866   3.012   6.365  11.886 -0.0302 -0.2664  0.2217
  797MOL0     C 9867   2.895   6.435  11.857  0.1357 -0.0287  0.0642
  797MOL0     C 9868   2.898   6.583  11.827  0.6732 -0.1277  0.4513
  797MOL0     C 9869   2.755   6.652  11.848  0.6967  0.0174 -0.9333
  797MOL0     C 9870   2.669   6.626  11.722  0.2229  0.0947 -0.6827
  797MOL0     C 9871   2.561   6.728  11.721  0.0562  0.0888  0.4158
  797MOL0     O 9872   2.631   6.855  11.683 -0.1208  0.0628 -0.2985
  797MOL0     C 9873   2.564   6.973  11.698 -0.9352 -0.0895  0.8531
  797MOL0     C 9874   2.649   7.078  11.685 -0.0497 -1.0458 -0.4025
  797MOL0     C 9875   2.615   7.210  11.706  0.3260 -0.0220  0.0648
  797MOL0     C 9876   2.728   7.312  11.740  0.2059  0.2689  0.0629
  797MOL0     C 9877   2.472   7.231  11.723  0.1617  1.2333 -0.0265
  797MOL0     C 9878   2.414   7.361  11.745  0.4443 -0.8985 -0.4207
  797MOL0     O 9879   2.276   7.369  11.771  0.8275 -0.3426  0.0268
  797MOL0     C 9880   2.222   7.502  11.784  0.6484 -0.0725 -0.0573
  797MOL0     C 9881   2.206   7.572  11.903  0.3639 -0.4315  0.4936
  797MOL0     C 9882   2.143   7.698  11.906 -0.7915  0.0716 -0.3922
  797MOL0     C 9883   2.099   7.755  11.791 -0.2078  0.2798 -0.0355
  797MOL0     O 9884   2.018   7.863  11.807  0.2577  0.5865  0.2988
  797MOL0     C 9885   2.078   7.971  11.724 -0.4981 -0.0901  0.3903
  797MOL0     C 9886   2.027   8.106  11.757  0.1995 -0.5249  0.2344
  797MOL0     C 9887   1.878   8.109  11.726  0.9229 -1.1472 -0.5206
  797MOL0     C 9888   1.812   8.239  11.772 -0.1945  0.2296 -0.8574
  797MOL0     C 9889   1.670   8.261  11.732  0.9753  0.3301 -0.4569
  797MOL0     C 9890   1.644   8.266  11.584  0.7246  1.1645 -0.2914
  797MOL0     C 9891   1.504   8.328  11.558  0.3594  0.8412 -0.1564
  797MOL0     C 9892   1.500   8.380  11.408 -0.0645  1.2281 -0.1894
  797MOL0    Cl 9893   1.617   8.519  11.380  0.0951  0.0543  0.2680
  797MOL0     C 9894   2.119   7.692  11.669  0.7911 -0.0389  0.4522
  797MOL0     C 9895   2.188   7.572  11.670  0.7142 -0.7811  0.3335
  797MOL0     O 9896   2.484   7.460  11.737  0.1922  0.0632  0.6921
  797MOL0     C 9897   2.384   7.119  11.730  0.7765 -0.6149  0.2559
  797MOL0     C 9898   2.428   6.991  11.718  0.5015  0.5246 -0.0827
  797MOL0     N 9899   2.794   6.344  11.852 -0.6751 -0.6366 -0.4181
  797MOL0     N 9900   2.841   6.228  11.872  0.3665  0.6266 -1.1795
  797MOL0     C 9901   3.688   5.224  11.676 -0.7334  0.4216 -0.3634
  797MOL0     C 9902   3.807   5.205  11.608 -0.1092  0.4811  0.1745
  797MOL0     C 9903   4.107   5.214  11.253  0.4632  0.1580 -1.1529
  797MOL0     C 9904   4.119   5.081  11.278 -1.5307  0.9198 -0.0030
  797MOL0     C 9905   4.188   4.994  11.198  0.1623  0.2032 -0.4583
  797MOL0     C 9906   4.243   5.049  11.084  0.3973  0.2329 -0.6460
  797MOL0     O 9907   4.318   4.978  10.997 -0.1753  0.1075 -0.3928
  797MOL0     C 9908   4.392   4.858  11.046 -0.9864 -1.5174  0.4429
  797MOL0     C 9909   4.451   4.788  10.928  0.5509  0.5600  0.7754
  797MOL0     C 9910   4.568   4.872  10.859 -0.4923  0.4110  0.2890
  797MOL0     C 9911   4.599   4.804  10.721  0.1160 -0.2326 -0.8738
  797MOL0     C 9912   4.601   4.654  10.713 -1.7083  0.4993 -0.5202
  797MOL0     C 9913   4.593   4.540  10.715  0.5309  0.3357 -0.7882
  797MOL0     C 9914   4.212   5.182  11.042  0.0553 -0.8347 -0.1103
  797MOL0     C 9915   4.133   5.262  11.124  0.0075 -0.0174 -0.0950
  797MOL0     C 9916   4.073   5.383  11.073  0.6747  1.5370  0.1640
  797MOL0     H 9917   3.817   5.452  11.390  5.4745 -0.7329  1.4481
  797MOL0     H 9918   3.617   5.507  11.506  3.7357  1.3984  0.0648
  797MOL0     H 9919   3.438   5.529  11.595 -0.0538  3.9689  1.5133
  797MOL0     H 9920   3.483   5.548  11.771 -1.0209  0.2489  0.3739
  797MOL0     H 9921   3.265   5.394  11.646  2.1074 -1.8967  0.9148
  797MOL0     H 9922   3.255   5.428  11.816 -2.3646  1.4435 -0.8988
  797MOL0     H 9923   3.261   5.651  11.624 -0.0025 -0.0039 -0.5869
  797MOL0     H 9924   3.112   5.565  11.665  0.3631 -0.5885 -1.4985
  797MOL0     H 9925   3.136   5.626  11.898 -2.3405  2.7799  0.5668
  797MOL0     H 9926   3.300   5.696  11.857 -0.1604 -5.0833  1.4047
  797MOL0     H 9927   3.026   5.788  11.758  1.3317 -3.3000  0.7139
  797MOL0     H 9928   3.174   5.881  11.760 -2.8180  1.2142 -0.3178
  797MOL0     H 9929   3.014   5.769  11.992 -2.3548  0.9946 -3.0232
  797MOL0     H 9930   3.160   5.876  12.023 -0.1635  4.3034  0.0388
  797MOL0     H 9931   2.953   5.995  12.056  1.6000 -0.7578  1.2174
  797MOL0     H 9932   2.912   5.974  11.881  1.3795 -0.5724 -0.4981
  797MOL0     H 9933   3.138   6.146  11.998 -0.6113 -0.6458  0.3110
  797MOL0     H 9934   3.119   6.103  11.830 -0.4280 -1.7456  0.3747
  797MOL0     H 9935   3.116   6.398  11.887  0.3879 -1.3846 -2.0452
  797MOL0     H 9936   2.928   6.600  11.723 -2.5643 -2.4189 -1.0325
  797MOL0     H 9937   2.966   6.635  11.896 -0.5913 -0.6941  2.1854
  797MOL0     H 9938   2.709   6.615  11.940  1.0424  1.5253 -0.1326
  797MOL0     H 9939   2.763   6.759  11.865  0.5887 -0.3697  2.2538
  797MOL0     H 9940   2.725   6.639  11.628 -0.5248  0.0927 -1.1371
  797MOL0     H 9941   2.631   6.524  11.728  2.3082 -0.6848  0.3576
  797MOL0     H 9942   2.492   6.695  11.643  0.8210  0.2978 -0.3655
  797MOL0     H 9943   2.512   6.747  11.817 -1.9883 -2.1604 -0.0908
  797MOL0     H 9944   2.754   7.050  11.682  0.3768  0.5149 -0.6075
  797MOL0     H 9945   2.745   7.385  11.661  0.6549  0.4510  0.3239
  797MOL0     H 9946   2.821   7.255  11.747  0.9700  1.5731  0.9834
  797MOL0     H 9947   2.707   7.362  11.835 -0.5027 -0.4192  0.2801
  797MOL0     H 9948   2.227   7.530  12.001  0.6664  1.2816  1.2061
  797MOL0     H 9949   2.124   7.742  12.003 -0.6360 -0.7360  0.0079
  797MOL0     H 9950   2.187   7.973  11.736 -0.3042  1.5439 -1.2931
  797MOL0     H 9951   2.068   7.947  11.618 -0.5176 -1.6148  0.7156
  797MOL0     H 9952   2.044   8.143  11.859  0.0601  1.8623 -0.5490
  797MOL0     H 9953   2.076   8.174  11.687  1.9092 -4.2455 -2.5305
  797MOL0     H 9954   1.831   8.031  11.785 -1.6703  0.8034  0.1681
  797MOL0     H 9955   1.844   8.093  11.623 -3.2037 -0.6208  0.5923
  797MOL0     H 9956   1.877   8.322  11.744  4.2038 -2.1796  1.2214
  797MOL0     H 9957   1.820   8.243  11.881 -1.7463 -1.5657 -0.6093
  797MOL0     H 9958   1.594   8.192  11.771  0.4187 -0.2606 -2.5097
  797MOL0     H 9959   1.640   8.362  11.763 -1.8982 -0.5391 -0.0569
  797MOL0     H 9960   1.650   8.171  11.531  1.2451  1.0974 -0.1127
  797MOL0     H 9961   1.720   8.331  11.539  0.3371  2.8942  1.4340
  797MOL0     H 9962   1.471   8.405  11.628  0.2954 -1.1409  2.1243
  797MOL0     H 9963   1.446   8.235  11.564  2.1285 -0.3548 -0.4720
  797MOL0     H 9964   1.403   8.419  11.375 -0.3725 -0.4343 -1.3486
  797MOL0     H 9965   1.521   8.298  11.338  0.9520  0.7507  0.6472
  797MOL0     H 9966   2.090   7.725  11.570  1.9977 -0.3553 -0.0150
  797MOL0     H 9967   2.199   7.528  11.571  1.1533 -2.9159  1.2725
  797MOL0     H 9968   2.279   7.139  11.750  1.4302  0.0242  3.5115
  797MOL0     H 9969   2.342   6.925  11.729  0.0831  1.3480  2.1353
  797MOL0     H 9970   3.661   5.145  11.745 -0.6940 -1.6353 -2.5833
  797MOL0     H 9971   3.866   5.119  11.640  0.5049  1.0362  0.5519
  797MOL0     H 9972   4.079   5.036  11.368 -2.2511  0.8653 -0.3508
  797MOL0     H 9973   4.183   4.889  11.222  1.4719 -0.2271 -1.8752
  797MOL0     H 9974   4.460   4.886  11.127 -0.4242  0.9134 -0.7816
  797MOL0     H 9975   4.316   4.791  11.086  0.7287 -2.1716  2.8065
  797MOL0     H 9976   4.372   4.764  10.856  2.5451 -0.4636 -1.1768
  797MOL0     H 9977   4.497   4.695  10.961 -0.0248 -1.0118 -2.4626
  797MOL0     H 9978   4.546   4.978  10.843  1.1797  1.0171  1.6434
  797MOL0     H 9979   4.658   4.876  10.921 -0.2664 -0.4169  0.0280
  797MOL0     H 9980   4.701   4.828  10.688  0.5027 -2.6916 -1.6470
  797MOL0     H 9981   4.543   4.856  10.642  3.5911  1.6792 -2.3324
  797MOL0     H 9982   4.609   4.435  10.705  1.8415  0.2832  1.4253
  797MOL0     H 9983   4.237   5.209  10.940 -0.1989 -1.6417 -0.3949
  797MOL0     H 9984   3.979   5.392  11.126 -0.4061 -3.4818 -0.4056
  797MOL0     H 9985   4.140   5.469  11.078  1.6332  0.8248  0.0008
  797MOL0     H 9986   4.055   5.377  10.965 -1.7709  0.0123  0.5817
  798MOL0     O 9987   1.456   9.031   8.185 -0.0217 -0.4398  0.0581
  798MOL0     C 9988   1.369   9.112   8.149  0.5168 -0.3794  0.7453
  798MOL0     O 9989   1.387   9.246   8.132  0.0003  0.1326 -0.3937
  798MOL0     C 9990   1.523   9.283   8.139 -0.1700  0.4347  0.6688
  798MOL0     C 9991   1.563   9.349   8.027  0.4146  0.5247  0.5169
  798MOL0     C 9992   1.695   9.398   8.031  0.4442  0.0518 -0.1409
  798MOL0     C 9993   1.784   9.369   8.135  0.3015 -0.9525 -0.1927
  798MOL0     O 9994   1.907   9.435   8.121  0.2607  0.0861  0.4725
  798MOL0     C 9995   2.004   9.411   8.219 -0.6763  0.5112  1.1164
  798MOL0     C 9996   2.136   9.486   8.193  0.4844  0.4868 -0.0817
  798MOL0     C 9997   2.230   9.414   8.086 -0.7866  0.2742 -0.3687
  798MOL0     C 9998   2.186   9.437   7.945  0.6030 -0.1858  0.3972
  798MOL0     C 9999   2.257   9.351   7.843 -0.1706  0.1356 -0.1158
  798MOL0     C10000   2.408   9.372   7.850 -0.2166  0.3472 -0.0946
  798MOL0     C10001   2.476   9.322   7.720  0.0979  0.7763 -1.0652
  798MOL0     C10002   2.451   9.409   7.590  0.0070 -0.2243 -0.7332
  798MOL0     N10003   2.561   9.398   7.492  0.1290  0.1996 -0.2080
  798MOL0     C10004   2.694   9.424   7.520  0.2018  0.2326 -0.7201
  798MOL0     C10005   2.759   9.406   7.404  0.4498  0.0942  0.1950
  798MOL0     C10006   2.904   9.427   7.389  0.3808  0.8679 -0.3405
  798MOL0     C10007   2.917   9.576   7.362  0.6731  0.1327 -0.3905
  798MOL0     C10008   3.062   9.638   7.354  0.2019  0.5360 -0.3303
  798MOL0     C10009   3.055   9.785   7.310 -0.7861 -0.2803  0.0180
  798MOL0     O10010   3.148   9.863   7.388  0.2200 -0.0447 -0.5354
  798MOL0     C10011   3.141  10.004   7.369  0.1523  0.4553 -0.0545
  798MOL0     C10012   3.233  10.074   7.451  0.1034 -1.0359 -0.0444
  798MOL0     C10013   3.249  10.214   7.438  0.4939  0.1817  0.3437
  798MOL0     C10014   3.353  10.274   7.531 -0.0514 -0.4118 -0.0170
  798MOL0     C10015   3.170  10.290   7.343 -0.1927  1.0422  0.2660
  798MOL0     C10016   3.174  10.439   7.322  0.3408 -0.4512 -0.3710
  798MOL0     O10017   3.277  10.503   7.389 -0.3152  0.8761 -0.5111
  798MOL0     C10018   3.304  10.634   7.398 -0.1704 -0.7156 -0.1710
  798MOL0     C10019   3.249  10.735   7.318  0.3724  0.5620  0.3015
  798MOL0     C10020   3.293  10.866   7.329  0.5432 -0.2151  0.6867
  798MOL0     C10021   3.414  10.904   7.399  0.1728  0.6885  0.1879
  798MOL0     O10022   3.478  11.016   7.387  0.2633 -0.1012 -0.1436
  798MOL0     C10023   3.408  11.138   7.358 -0.3419  0.3582  0.3145
  798MOL0     C10024   3.508  11.242   7.354 -0.0019 -0.1579 -0.2000
  798MOL0     C10025   3.445  11.378   7.304  0.5627  0.4647 -0.7136
  798MOL0     C10026   3.537  11.439   7.193 -0.2543  0.4299  0.4617
  798MOL0     C10027   3.676  11.499   7.253 -0.3690  0.4961 -0.1823
  798MOL0     C10028   3.749  11.590   7.146  0.2572  0.6383 -0.3501
  798MOL0     C10029   3.881  11.644   7.214 -0.1178 -0.6848 -0.4602
  798MOL0     C10030   3.945  11.740   7.113  0.6166  0.3119  0.1248
  798MOL0    Cl10031   3.829  11.882   7.051 -0.2561 -0.3512  0.6194
  798MOL0     C10032   3.471  10.801   7.480  0.1460  0.1119 -0.1679
  798MOL0     C10033   3.414  10.669   7.488 -0.0589 -0.3397 -1.1841
  798MOL0     O10034   3.089  10.487   7.252  0.5979 -0.0276 -1.1639
  798MOL0     C10035   3.083  10.213   7.258  0.1232 -0.1123  0.3505
  798MOL0     C10036   3.085  10.076   7.261 -0.0639  0.9393  0.5482
  798MOL0     N10037   2.663   9.380   7.303  0.2941 -0.6641  0.6046
  798MOL0     N10038   2.548   9.380   7.355 -0.0283 -0.5199 -0.1460
  798MOL0     C10039   1.741   9.294   8.251 -0.3579  0.3695  0.5879
  798MOL0     C10040   1.609   9.255   8.255  0.7173  0.0192  0.4216
  798MOL0     C10041   1.225   9.064   8.129  0.8827  0.5102  0.2063
  798MOL0     C10042   1.121   9.146   8.166  0.3027 -0.0764  0.6581
  798MOL0     C10043   0.990   9.102   8.163 -0.4000  0.7148  0.1417
  798MOL0     C10044   0.968   8.965   8.125  1.0281  0.1669 -0.4080
  798MOL0     O10045   0.845   8.900   8.121  0.4918  0.5036 -0.4055
  798MOL0     C10046   0.766   8.909   8.236 -0.5263  0.2716 -0.1867
  798MOL0     C10047   0.631   8.832   8.232 -0.2089  0.3229  0.3167
  798MOL0     C10048   0.555   8.849   8.105 -0.3814 -0.4539 -1.1237
  798MOL0     C10049   0.525   8.990   8.062 -0.2423 -0.5939  0.9675
  798MOL0     C10050   0.446   8.990   7.928  0.0030 -0.7180 -1.0969
  798MOL0     C10051   0.383   8.993   7.820 -0.0767 -0.2766 -0.8833
  798MOL0     C10052   1.069   8.887   8.071  0.1579  0.0888 -0.2056
  798MOL0     C10053   1.201   8.938   8.071  1.2439 -0.2366  0.2005
  798MOL0     C10054   1.305   8.849   8.007 -0.2223 -0.0701 -0.2678
  798MOL0     H10055   1.497   9.374   7.945  2.7561  0.1638 -1.5893
  798MOL0     H10056   1.720   9.465   7.949  0.4476  0.5530  0.2662
  798MOL0     H10057   2.023   9.303   8.210 -3.4891  0.1206 -1.4600
  798MOL0     H10058   1.965   9.429   8.320 -2.4776 -3.2056  1.2480
  798MOL0     H10059   2.107   9.587   8.162 -1.3099 -0.3026 -1.1245
  798MOL0     H10060   2.199   9.495   8.282 -0.2838  0.7100  0.4439
  798MOL0     H10061   2.334   9.448   8.092  0.4747 -2.7238 -2.3270
  798MOL0     H10062   2.228   9.306   8.108  1.9048 -0.4148 -2.8667
  798MOL0     H10063   2.081   9.418   7.919  0.6091  0.3912 -0.0828
  798MOL0     H10064   2.207   9.541   7.916 -0.9110 -0.3527 -1.5404
  798MOL0     H10065   2.224   9.382   7.744 -1.2683 -1.8092 -0.3970
  798MOL0     H10066   2.227   9.246   7.854  1.2158 -0.2090  0.7050
  798MOL0     H10067   2.438   9.477   7.860 -3.9138  1.6536 -1.3123
  798MOL0     H10068   2.453   9.309   7.929 -2.9022  1.2565  2.3278
  798MOL0     H10069   2.446   9.219   7.699  1.8957  0.2630 -1.2560
  798MOL0     H10070   2.581   9.305   7.748 -0.8353 -1.7103  1.3787
  798MOL0     H10071   2.350   9.385   7.555 -0.4182  0.3144  0.0937
  798MOL0     H10072   2.444   9.514   7.618  0.1427 -1.3070  4.1621
  798MOL0     H10073   2.727   9.453   7.619  0.6109 -0.6867 -0.5750
  798MOL0     H10074   2.941   9.359   7.311  1.8028 -1.2229  1.9759
  798MOL0     H10075   2.970   9.408   7.474 -0.9763 -1.2741  0.3047
  798MOL0     H10076   2.879   9.603   7.263  0.8447  0.8665 -0.2614
  798MOL0     H10077   2.854   9.635   7.429 -0.1352 -0.1523 -0.8794
  798MOL0     H10078   3.124   9.630   7.444  2.6143  0.5149 -1.8899
  798MOL0     H10079   3.117   9.589   7.273  1.6462  2.7795 -0.7834
  798MOL0     H10080   3.076   9.787   7.203  0.5146 -1.5626  0.2231
  798MOL0     H10081   2.953   9.824   7.325  0.3133  2.3797  1.2802
  798MOL0     H10082   3.282  10.005   7.519 -0.7493 -1.4584  0.1606
  798MOL0     H10083   3.384  10.204   7.609  2.7839 -0.5235 -1.1287
  798MOL0     H10084   3.325  10.367   7.582 -3.1921 -1.8829  1.2130
  798MOL0     H10085   3.449  10.291   7.481 -0.3781  2.1070  0.0921
  798MOL0     H10086   3.173  10.707   7.245  0.7505  0.0551  0.0934
  798MOL0     H10087   3.254  10.942   7.263  0.6722 -0.0097  0.8469
  798MOL0     H10088   3.369  11.121   7.258  1.9593  2.1241 -0.9736
  798MOL0     H10089   3.335  11.156   7.438 -0.1199 -4.3782  1.8826
  798MOL0     H10090   3.533  11.253   7.460  0.5355 -1.3149 -0.1910
  798MOL0     H10091   3.593  11.216   7.291 -0.9602  1.0689 -2.0952
  798MOL0     H10092   3.431  11.446   7.389 -0.3636 -1.1231  0.4653
  798MOL0     H10093   3.346  11.366   7.259 -0.9428 -3.0053  2.8678
  798MOL0     H10094   3.487  11.522   7.142  1.2908  0.9606 -0.2917
  798MOL0     H10095   3.555  11.363   7.116 -0.0015 -1.2993  2.1692
  798MOL0     H10096   3.663  11.566   7.338 -0.2599 -0.5044  0.6514
  798MOL0     H10097   3.750  11.424   7.285 -1.8378  0.2064  2.8929
  798MOL0     H10098   3.683  11.669   7.110 -1.9022 -0.3153  1.3491
  798MOL0     H10099   3.770  11.524   7.061  0.4563  2.2170 -1.5866
  798MOL0     H10100   3.950  11.564   7.244  0.4297  0.1158  0.5091
  798MOL0     H10101   3.847  11.679   7.312 -1.7777 -1.4053 -0.7574
  798MOL0     H10102   3.981  11.690   7.023 -3.1544 -1.0724 -0.7885
  798MOL0     H10103   4.033  11.790   7.155  2.0344 -0.0286 -2.2562
  798MOL0     H10104   3.559  10.805   7.544  2.4658 -4.6175 -2.4986
  798MOL0     H10105   3.463  10.601   7.558 -0.2486  0.3213 -0.4011
  798MOL0     H10106   3.023  10.257   7.180 -1.0813 -1.4583  0.4769
  798MOL0     H10107   3.027  10.026   7.184  3.3958 -0.8834 -1.1058
  798MOL0     H10108   1.801   9.274   8.339 -1.3699 -0.5866  1.0885
  798MOL0     H10109   1.559   9.205   8.337 -0.2251 -1.7542 -1.1593
  798MOL0     H10110   1.141   9.247   8.199 -1.7156  1.5959 -2.6048
  798MOL0     H10111   0.916   9.167   8.208  0.8054  2.7908 -0.7744
  798MOL0     H10112   0.818   8.873   8.326  0.2568  1.7136 -0.0240
  798MOL0     H10113   0.753   9.015   8.261 -1.2971  0.0957  0.1785
  798MOL0     H10114   0.576   8.862   8.321 -1.8787 -1.4876 -0.0536
  798MOL0     H10115   0.649   8.725   8.234  1.7236  0.5514 -1.1781
  798MOL0     H10116   0.606   8.807   8.017 -0.4647 -2.1251 -0.4208
  798MOL0     H10117   0.457   8.803   8.126 -0.3418 -0.5189 -1.0812
  798MOL0     H10118   0.619   9.044   8.043  0.0335 -2.2473 -3.8907
  798MOL0     H10119   0.468   9.049   8.134 -0.0632 -1.3801  1.7724
  798MOL0     H10120   0.336   9.007   7.725 -1.2861  1.7165 -0.0755
  798MOL0     H10121   1.050   8.786   8.035 -0.4153 -0.8200  2.4234
  798MOL0     H10122   1.366   8.797   8.081  1.1012 -0.4074 -1.5360
  798MOL0     H10123   1.270   8.778   7.931  3.3344 -1.1018 -1.1540
  798MOL0     H10124   1.378   8.914   7.956  2.0471  0.3786  3.2221
  799MOL0     O10125   1.227   2.206   6.444 -0.5335  0.7785 -0.2573
  799MOL0     C10126   1.311   2.131   6.400 -0.3734  1.2184  0.8939
  799MOL0     O10127   1.342   2.114   6.269  0.7199  0.3249  0.5146
  799MOL0     C10128   1.298   2.193   6.175  0.1749 -1.0884  0.5791
  799MOL0     C10129   1.401   2.217   6.079 -0.0712  0.9250  0.0420
  799MOL0     C10130   1.390   2.311   5.976  0.4515  1.0151 -0.5763
  799MOL0     C10131   1.270   2.384   5.962  0.2710  0.4796  0.5473
  799MOL0     O10132   1.253   2.472   5.855 -0.0061  0.2254  0.6738
  799MOL0     C10133   1.352   2.485   5.744  0.6703 -0.2490  0.4469
  799MOL0     C10134   1.324   2.610   5.652 -0.5940  0.0591  0.1490
  799MOL0     C10135   1.197   2.593   5.571  0.7608 -0.0544 -0.2899
  799MOL0     C10136   1.169   2.717   5.487  0.2443 -0.1603 -0.4340
  799MOL0     C10137   1.079   2.673   5.369 -0.3813  0.0426  0.3043
  799MOL0     C10138   1.077   2.791   5.262 -0.8158  1.6896 -0.6416
  799MOL0     C10139   0.993   2.761   5.143 -0.4116  0.8928 -0.2157
  799MOL0     C10140   0.847   2.763   5.167 -0.0648 -0.7402 -0.5175
  799MOL0     N10141   0.790   2.813   5.040 -0.3711 -0.0873  0.5847
  799MOL0     C10142   0.762   2.755   4.916 -0.0805 -0.4072  0.4695
  799MOL0     C10143   0.696   2.850   4.844  0.5019 -0.3835  0.1829
  799MOL0     C10144   0.636   2.841   4.709  0.7003  0.1462 -0.0369
  799MOL0     C10145   0.736   2.799   4.599  0.2825 -0.0145 -0.6103
  799MOL0     C10146   0.814   2.925   4.541 -0.5885  0.4899  0.1010
  799MOL0     C10147   0.885   3.000   4.647 -0.2488  0.4711  0.2033
  799MOL0     O10148   0.985   2.909   4.704  0.3526 -0.7112  0.4140
  799MOL0     C10149   1.070   2.958   4.800  0.6575 -0.0576 -0.9651
  799MOL0     C10150   1.191   2.886   4.830  0.9338  0.4894 -0.0868
  799MOL0     C10151   1.272   2.924   4.938  0.6261 -0.4299 -0.3951
  799MOL0     C10152   1.405   2.859   4.937 -0.5279  0.2866  0.0388
  799MOL0     C10153   1.238   3.040   5.018  0.4878  0.5580 -0.2287
  799MOL0     C10154   1.316   3.075   5.147  1.1127 -0.1090  0.0789
  799MOL0     O10155   1.396   2.981   5.197  0.3950  0.6911 -0.0257
  799MOL0     C10156   1.501   2.988   5.280  0.7564 -0.2900  0.0379
  799MOL0     C10157   1.537   3.102   5.356  0.2788  0.1640  0.1631
  799MOL0     C10158   1.640   3.098   5.454  0.4124  0.7787  0.4013
  799MOL0     C10159   1.722   2.988   5.476 -0.4541 -0.1515  0.5187
  799MOL0     O10160   1.789   2.968   5.595  0.4218  0.3554 -0.1683
  799MOL0     C10161   1.783   3.075   5.687  1.0465 -0.0904  0.5528
  799MOL0     C10162   1.860   3.041   5.818 -0.5590  0.6989 -0.3807
  799MOL0     C10163   2.006   3.018   5.785  0.5434  1.2746  0.6142
  799MOL0     C10164   2.071   2.975   5.923  0.6194 -0.4423 -0.3190
  799MOL0     C10165   2.050   2.823   5.936  0.0427  0.2776 -0.2229
  799MOL0     C10166   2.135   2.781   6.053 -0.6095 -0.1818 -0.2725
  799MOL0     C10167   2.148   2.629   6.071 -0.3688  0.4790 -0.0435
  799MOL0     C10168   2.242   2.575   6.185  0.4403 -0.2768 -0.8586
  799MOL0    Cl10169   2.175   2.656   6.337  0.1534  0.2019  0.0760
  799MOL0     C10170   1.699   2.881   5.391  0.1541  1.2793  0.2203
  799MOL0     C10171   1.591   2.877   5.298  0.7909 -0.4677 -0.6055
  799MOL0     O10172   1.313   3.191   5.184 -0.6358  0.3970 -0.0318
  799MOL0     C10173   1.127   3.116   4.986  0.5944  1.0788  0.3571
  799MOL0     C10174   1.051   3.077   4.872  0.5261  0.1384  0.0504
  799MOL0     N10175   0.681   2.964   4.923 -0.9219 -1.0148 -1.0163
  799MOL0     N10176   0.737   2.937   5.041 -0.6923  1.3399 -0.4435
  799MOL0     C10177   1.167   2.356   6.058  0.1664  0.1598  0.7014
  799MOL0     C10178   1.178   2.261   6.151 -0.5626  0.4344 -0.6862
  799MOL0     C10179   1.396   2.056   6.497  0.0156 -0.3401  0.5436
  799MOL0     C10180   1.532   2.066   6.481 -1.1155  0.6731  0.1260
  799MOL0     C10181   1.615   2.028   6.580  0.3770 -0.4796  0.3091
  799MOL0     C10182   1.553   1.966   6.700 -0.0271 -0.1874  0.0706
  799MOL0     O10183   1.612   1.932   6.819  0.2045  0.3605 -0.2063
  799MOL0     C10184   1.754   1.938   6.825 -0.0711 -1.3794 -0.5802
  799MOL0     C10185   1.817   2.078   6.835 -0.2208 -0.3858  0.4214
  799MOL0     C10186   1.793   2.145   6.971  0.6659 -0.6962 -0.3087
  799MOL0     C10187   1.858   2.283   6.982  0.4026 -0.4799 -0.3478
  799MOL0     C10188   2.001   2.283   6.989 -0.9453 -1.1449  0.8855
  799MOL0     C10189   2.118   2.283   7.008 -1.2084 -0.5939  0.6769
  799MOL0     C10190   1.417   1.941   6.695 -0.0276  0.5248 -0.0926
  799MOL0     C10191   1.337   1.974   6.592 -0.4902 -0.5276 -0.1760
  799MOL0     C10192   1.183   1.931   6.593  0.0739  0.6227 -0.2951
  799MOL0     H10193   1.490   2.154   6.081  0.1675  1.1290 -2.1419
  799MOL0     H10194   1.463   2.325   5.897  1.2448  1.5458  0.2257
  799MOL0     H10195   1.360   2.395   5.683 -1.8188 -0.8834  0.9838
  799MOL0     H10196   1.448   2.515   5.787 -0.0940  2.0378  0.6901
  799MOL0     H10197   1.313   2.701   5.711  0.1671  0.6247 -0.5514
  799MOL0     H10198   1.402   2.629   5.577  0.3445  0.4100  1.1986
  799MOL0     H10199   1.211   2.510   5.501 -0.3915  1.0379 -1.8883
  799MOL0     H10200   1.110   2.555   5.626  0.3494 -3.0567 -2.7170
  799MOL0     H10201   1.113   2.785   5.552  0.6894 -1.8042  1.7918
  799MOL0     H10202   1.259   2.770   5.454  1.3509 -2.1996 -0.8284
  799MOL0     H10203   0.981   2.640   5.405  0.1452 -1.0528  0.7684
  799MOL0     H10204   1.128   2.591   5.317 -0.2013 -0.2754  0.9714
  799MOL0     H10205   1.028   2.878   5.309  1.4222  2.1719  0.9909
  799MOL0     H10206   1.181   2.810   5.235 -0.1646 -0.0855  0.4956
  799MOL0     H10207   1.020   2.659   5.115  3.5025  0.3095  4.2795
  799MOL0     H10208   1.023   2.830   5.064 -1.6824  1.5508 -0.1526
  799MOL0     H10209   0.809   2.660   5.172 -1.0619 -0.3641 -0.1780
  799MOL0     H10210   0.815   2.812   5.259  3.4168  0.5562  0.1869
  799MOL0     H10211   0.795   2.658   4.880 -1.7060 -0.8560  0.0615
  799MOL0     H10212   0.573   2.927   4.687  0.9635  0.9448  2.1048
  799MOL0     H10213   0.557   2.765   4.707  0.8968 -0.0595 -0.0757
  799MOL0     H10214   0.798   2.716   4.635 -1.9260 -1.1763  0.6813
  799MOL0     H10215   0.677   2.761   4.515  0.5799  0.9457 -1.2663
  799MOL0     H10216   0.894   2.897   4.472  0.4121  2.6495  0.2961
  799MOL0     H10217   0.751   2.993   4.483  1.9471  2.1103 -0.9438
  799MOL0     H10218   0.927   3.093   4.610 -0.6791  2.2874  3.7907
  799MOL0     H10219   0.817   3.032   4.727 -1.0859 -0.0990 -0.2617
  799MOL0     H10220   1.213   2.807   4.760  0.4448  0.4886 -0.2441
  799MOL0     H10221   1.484   2.927   4.969 -1.6641  1.7446 -0.1849
  799MOL0     H10222   1.421   2.808   4.841 -0.5013 -3.4424  1.8527
  799MOL0     H10223   1.409   2.774   5.006  2.7172  0.4369  0.2302
  799MOL0     H10224   1.492   3.198   5.334  2.2015  1.0703  0.0161
  799MOL0     H10225   1.655   3.192   5.506  2.0827  1.4276 -1.1243
  799MOL0     H10226   1.813   3.170   5.641 -0.6142 -0.3391 -1.1831
  799MOL0     H10227   1.678   3.081   5.716  0.6171  0.9429 -1.0786
  799MOL0     H10228   1.850   3.120   5.894 -0.9119 -0.4780  0.8377
  799MOL0     H10229   1.820   2.948   5.859  0.3319 -1.4871 -4.0155
  799MOL0     H10230   2.044   3.105   5.729 -0.5860  0.9707 -0.6554
  799MOL0     H10231   2.027   2.943   5.708 -1.2032  2.7868 -1.4631
  799MOL0     H10232   2.015   3.024   6.003  0.5270  0.9541 -1.2017
  799MOL0     H10233   2.180   2.986   5.923  0.7957 -1.9196 -1.6317
  799MOL0     H10234   1.946   2.793   5.949 -0.1880  0.5550 -1.3631
  799MOL0     H10235   2.084   2.777   5.843  0.0570  0.9905 -0.5805
  799MOL0     H10236   2.081   2.825   6.138  1.9669  1.1854  0.8017
  799MOL0     H10237   2.235   2.826   6.049 -1.0031  0.7956  0.4295
  799MOL0     H10238   2.193   2.583   5.983  2.4823 -1.1973  2.1428
  799MOL0     H10239   2.044   2.604   6.095 -0.3597  1.6315  1.3003
  799MOL0     H10240   2.344   2.608   6.162  1.2368 -1.5273  0.6838
  799MOL0     H10241   2.248   2.467   6.195 -2.7183 -0.5603 -1.1424
  799MOL0     H10242   1.759   2.792   5.405 -1.5151  0.5305  3.6480
  799MOL0     H10243   1.580   2.801   5.222 -1.5377 -1.0212  0.2131
  799MOL0     H10244   1.101   3.199   5.050  0.5583  1.6596 -0.3886
  799MOL0     H10245   0.964   3.135   4.844  0.0730 -0.0439  1.0481
  799MOL0     H10246   1.068   2.399   6.051 -0.9280 -2.4464 -2.8005
  799MOL0     H10247   1.095   2.231   6.214  0.5419  0.3271  0.7638
  799MOL0     H10248   1.579   2.136   6.412 -1.1216 -1.1490 -1.8027
  799MOL0     H10249   1.718   2.058   6.563  0.2278 -0.2808 -0.2634
  799MOL0     H10250   1.792   1.887   6.914  0.4259  2.2907  1.5037
  799MOL0     H10251   1.805   1.889   6.741  0.0317 -0.6279 -0.9607
  799MOL0     H10252   1.771   2.144   6.761 -2.1908 -1.9419  0.1857
  799MOL0     H10253   1.922   2.065   6.805 -0.5727 -1.0833 -0.5420
  799MOL0     H10254   1.687   2.144   6.999  0.7190 -2.8218 -0.0471
  799MOL0     H10255   1.845   2.081   7.043 -0.2628 -0.2666  0.7717
  799MOL0     H10256   1.816   2.332   7.070  2.2980 -1.6690  1.3208
  799MOL0     H10257   1.827   2.335   6.891 -0.1557 -0.2075 -0.0054
  799MOL0     H10258   2.223   2.265   7.006 -1.1795 -0.4220  0.6093
  799MOL0     H10259   1.363   1.883   6.769  0.9069  0.3290  0.4381
  799MOL0     H10260   1.142   1.911   6.494  1.6048  3.4163 -1.6058
  799MOL0     H10261   1.162   1.846   6.658  0.0538  0.5079 -0.4518
  799MOL0     H10262   1.135   2.021   6.633  4.1817  1.8733  2.5271
  800MOL0     O10263   9.722   6.806   9.668 -0.7131 -0.0137  0.6758
  800MOL0     C10264   9.733   6.860   9.558 -0.2594 -0.6491 -0.1131
  800MOL0     O10265   9.773   6.982   9.529 -0.8095 -0.4530  0.4183
  800MOL0     C10266   9.809   7.051   9.642 -0.1029  0.0264  0.2733
  800MOL0     C10267   9.917   7.005   9.718  0.0600 -0.6903 -0.1404
  800MOL0     C10268   9.951   7.081   9.832 -0.1174 -0.2179  0.5340
  800MOL0     C10269   9.884   7.209   9.858 -0.6517 -0.1146  0.7774
  800MOL0     O10270   9.938   7.291   9.951 -0.2642 -0.1004 -0.3241
  800MOL0     C10271   9.878   7.426   9.964 -0.5726  0.0772 -0.0848
  800MOL0     C10272   9.976   7.492  10.062 -0.0564 -0.1487 -0.2819
  800MOL0     C10273   9.938   7.634  10.116  0.6482  0.2764  0.1711
  800MOL0     C10274   9.799   7.647  10.185  0.3762 -0.6479 -0.3942
  800MOL0     C10275   9.760   7.787  10.239 -0.2410 -0.2342 -0.0854
  800MOL0     C10276   9.714   7.895  10.138 -0.1984  0.0699 -0.5491
  800MOL0     C10277   9.720   8.035  10.203  0.2959 -0.1873  0.8743
  800MOL0     C10278   9.586   8.123  10.195  0.6346  0.7519  1.1291
  800MOL0     N10279   9.551   8.149  10.058 -0.1290  0.5948 -0.0589
  800MOL0     C10280   9.639   8.197   9.963  0.3755  0.1021  0.4253
  800MOL0     C10281   9.555   8.250   9.875 -0.0372  0.0059 -0.2819
  800MOL0     C10282   9.632   8.320   9.761 -0.4598 -0.1515  0.6824
  800MOL0     C10283   9.667   8.210   9.655 -0.1534 -0.5038  0.2878
  800MOL0     C10284   9.786   8.107   9.687  0.4735 -0.2018  0.2261
  800MOL0     C10285   9.919   8.174   9.737 -0.8097  0.3082  0.0052
  800MOL0     O10286  10.012   8.100   9.664  0.1922  0.2509  0.6332
  800MOL0     C10287  10.142   8.099   9.701 -0.4577 -0.8825 -0.6784
  800MOL0     C10288  10.204   8.193   9.786  0.8878 -0.0824  0.1064
  800MOL0     C10289  10.342   8.205   9.782 -0.1359  0.0353  0.9495
  800MOL0     C10290  10.397   8.323   9.861  0.4111 -0.1869  0.5624
  800MOL0     C10291  10.429   8.101   9.720  0.3484  0.3270 -0.2409
  800MOL0     C10292  10.569   8.093   9.714 -0.5311 -0.3634  0.9202
  800MOL0     O10293  10.629   8.137   9.830 -0.3543  0.1473 -0.3980
  800MOL0     C10294  10.761   8.147   9.869  0.1193  0.4698  0.3042
  800MOL0     C10295  10.801   8.116  10.005 -1.0050 -0.3632 -0.5704
  800MOL0     C10296  10.937   8.117  10.044 -0.5409  0.8228 -0.2266
  800MOL0     C10297  11.032   8.137   9.954 -0.7134  0.2842 -0.1333
  800MOL0     O10298  11.164   8.121   9.993 -0.7291  0.4759  0.3790
  800MOL0     C10299  11.249   8.018   9.940 -0.3145 -0.9393 -0.2571
  800MOL0     C10300  11.356   8.070   9.844 -0.2383 -1.0039 -0.6690
  800MOL0     C10301  11.438   8.179   9.913  0.6753 -1.0730  0.0742
  800MOL0     C10302  11.583   8.211   9.861  0.2041 -0.3144  0.2696
  800MOL0     C10303  11.657   8.074   9.850 -0.2151 -0.1995 -0.4241
  800MOL0     C10304  11.812   8.081   9.825  0.2405  0.5117 -0.5658
  800MOL0     C10305  11.876   7.953   9.778  0.5409  0.3169  0.2966
  800MOL0     C10306  11.896   7.847   9.882  0.6241  0.7145  0.2196
  800MOL0    Cl10307  12.021   7.882  10.003 -0.2065  0.5272  0.3189
  800MOL0     C10308  10.998   8.164   9.818 -0.7163  0.2290 -0.0620
  800MOL0     C10309  10.866   8.170   9.777  0.1796 -0.3289  1.1607
  800MOL0     O10310  10.630   8.049   9.614  0.6697  0.1236  0.0855
  800MOL0     C10311  10.359   8.000   9.655 -0.5689 -0.4457  0.6313
  800MOL0     C10312  10.224   8.005   9.631 -0.2614 -0.3415  0.3606
  800MOL0     N10313   9.426   8.235   9.907 -0.1367  0.4425  0.0189
  800MOL0     N10314   9.425   8.170  10.013 -0.7227 -0.4227  0.7529
  800MOL0     C10315   9.781   7.247   9.773 -0.3771 -0.7941 -0.4352
  800MOL0     C10316   9.743   7.169   9.671 -0.2138 -0.0071 -0.6001
  800MOL0     C10317   9.692   6.767   9.459 -0.1098 -0.9128  0.1496
  800MOL0     C10318   9.553   6.746   9.441 -0.1148  0.3486 -0.3876
  800MOL0     C10319   9.502   6.660   9.350  0.9057 -0.3113  0.1188
  800MOL0     C10320   9.583   6.591   9.264 -0.1871 -0.4945  0.3675
  800MOL0     O10321   9.520   6.507   9.174  0.0209 -0.1326  0.1121
  800MOL0     C10322   9.599   6.439   9.084 -0.4459 -0.1725 -0.1663
  800MOL0     C10323   9.510   6.362   8.983  0.3729  0.1836  0.5118
  800MOL0     C10324   9.579   6.260   8.898 -0.1204 -0.0093  0.2556
  800MOL0     C10325   9.686   6.326   8.806  0.2421  0.3241  0.0489
  800MOL0     C10326   9.726   6.245   8.702 -0.5799 -0.0597 -0.2637
  800MOL0     C10327   9.747   6.163   8.613  0.6298  0.4584 -0.5442
  800MOL0     C10328   9.723   6.598   9.291  0.5272  0.2187 -0.2364
  800MOL0     C10329   9.774   6.688   9.385 -0.0599  1.0555  0.0425
  800MOL0     C10330   9.923   6.695   9.393 -0.0123 -0.4496  0.6704
  800MOL0     H10331   9.968   6.910   9.707  0.4373 -0.2576 -2.8220
  800MOL0     H10332  10.026   7.043   9.901 -1.6236 -2.1747  1.1769
  800MOL0     H10333   9.776   7.416  10.001 -0.6863  1.8920  0.1495
  800MOL0     H10334   9.889   7.478   9.868 -0.2036 -1.5032 -0.9415
  800MOL0     H10335   9.976   7.434  10.154  2.5744  2.6411  1.6607
  800MOL0     H10336  10.078   7.497  10.022  0.9151  1.2445  2.1601
  800MOL0     H10337  10.021   7.651  10.185  0.0323  0.1393  0.9535
  800MOL0     H10338   9.943   7.701  10.029  0.5307  0.5754  0.3926
  800MOL0     H10339   9.717   7.600  10.129  0.8250 -2.0305  0.0683
  800MOL0     H10340   9.801   7.584  10.275 -1.4921  0.5678  0.5631
  800MOL0     H10341   9.835   7.830  10.306 -0.6283  1.2905 -0.5873
  800MOL0     H10342   9.676   7.750  10.299  1.4491  0.0653  2.6474
  800MOL0     H10343   9.783   7.885  10.054 -0.0115 -2.2865 -0.1812
  800MOL0     H10344   9.612   7.869  10.107 -0.5535 -0.1563  0.7521
  800MOL0     H10345   9.796   8.098  10.155 -1.0306  1.3243  0.6754
  800MOL0     H10346   9.749   8.017  10.307 -0.2962 -0.4231  1.0023
  800MOL0     H10347   9.502   8.066  10.236 -3.0620  5.0513  0.3734
  800MOL0     H10348   9.594   8.215  10.255 -4.3582  0.5499  2.5467
  800MOL0     H10349   9.743   8.224   9.948  0.1028 -0.0718 -2.4889
  800MOL0     H10350   9.715   8.375   9.806 -1.3829  0.9975  1.0390
  800MOL0     H10351   9.564   8.391   9.711  2.7251 -0.0048 -4.0347
  800MOL0     H10352   9.573   8.159   9.634 -0.8654  2.0714 -4.2363
  800MOL0     H10353   9.692   8.251   9.557 -3.3358 -0.2587 -0.5237
  800MOL0     H10354   9.755   8.045   9.771 -0.5317  1.8584  1.4649
  800MOL0     H10355   9.798   8.048   9.596 -1.8047  1.0257 -0.9661
  800MOL0     H10356   9.923   8.282   9.723 -0.8672  0.5083  1.3811
  800MOL0     H10357   9.930   8.165   9.846 -0.4501 -1.8649 -0.1747
  800MOL0     H10358  10.147   8.263   9.845 -3.3391 -3.9946  1.2888
  800MOL0     H10359  10.369   8.310   9.966  0.6799 -0.7787  0.5652
  800MOL0     H10360  10.359   8.416   9.818 -2.3993 -1.9707 -1.1551
  800MOL0     H10361  10.506   8.334   9.864  0.2513  2.2727 -0.4178
  800MOL0     H10362  10.722   8.087  10.074  1.5777 -0.9386  2.3494
  800MOL0     H10363  10.978   8.094  10.142  3.6041 -0.3963 -2.0280
  800MOL0     H10364  11.295   7.968  10.026  1.0381  3.0814  1.5851
  800MOL0     H10365  11.189   7.945   9.884 -1.8156 -1.1327  1.4946
  800MOL0     H10366  11.416   7.982   9.818  2.0778  0.2814  0.0035
  800MOL0     H10367  11.318   8.102   9.746 -0.1680 -1.6929 -0.9268
  800MOL0     H10368  11.444   8.150  10.018 -3.8744 -2.9536  0.0273
  800MOL0     H10369  11.391   8.278   9.911  0.4750 -1.0761  2.0807
  800MOL0     H10370  11.628   8.278   9.935  0.0936 -0.1638  0.2022
  800MOL0     H10371  11.584   8.248   9.758  1.2710  0.1959  0.4548
  800MOL0     H10372  11.639   8.024   9.945  0.2369  0.4909  0.0391
  800MOL0     H10373  11.617   8.005   9.776  2.5246 -1.6712 -0.6363
  800MOL0     H10374  11.861   8.097   9.921  1.0771  0.2706 -0.9399
  800MOL0     H10375  11.834   8.166   9.760  0.4129  0.6751 -0.2944
  800MOL0     H10376  11.980   7.978   9.755  0.9813 -1.5667  0.0701
  800MOL0     H10377  11.834   7.910   9.686 -0.0137 -1.7352  1.4276
  800MOL0     H10378  11.929   7.761   9.823  0.1052  1.4480 -1.1635
  800MOL0     H10379  11.798   7.822   9.923  0.5727  0.7446  0.1154
  800MOL0     H10380  11.081   8.179   9.750 -0.7682  2.5288  0.2950
  800MOL0     H10381  10.840   8.176   9.672  3.4275 -0.9455  0.1919
  800MOL0     H10382  10.419   7.924   9.607 -1.2413 -1.7397  1.7752
  800MOL0     H10383  10.191   7.927   9.564 -1.5164 -0.4320  1.0662
  800MOL0     H10384   9.728   7.341   9.785 -3.4022 -2.4297 -0.1020
  800MOL0     H10385   9.655   7.198   9.615 -2.0922 -0.4215  1.9617
  800MOL0     H10386   9.482   6.800   9.504  1.0428  0.4247  0.9252
  800MOL0     H10387   9.396   6.638   9.352  1.2341 -2.3279 -1.6422
  800MOL0     H10388   9.664   6.511   9.035  1.1852 -0.8151  0.9681
  800MOL0     H10389   9.663   6.375   9.145  1.9647  1.3973 -0.8942
  800MOL0     H10390   9.460   6.431   8.914  3.0957  0.9457 -0.8029
  800MOL0     H10391   9.427   6.312   9.034  0.1964 -1.0125 -0.8936
  800MOL0     H10392   9.634   6.185   8.955 -1.0070 -3.1305 -2.7052
  800MOL0     H10393   9.504   6.196   8.851 -1.8556 -0.6665  3.5536
  800MOL0     H10394   9.771   6.342   8.873 -0.0217  0.9535  0.2439
  800MOL0     H10395   9.650   6.415   8.753  2.5441  0.3435 -1.6473
  800MOL0     H10396   9.766   6.093   8.534 -1.8181 -0.3090 -0.5490
  800MOL0     H10397   9.794   6.539   9.234  1.2681  1.8280 -1.0151
  800MOL0     H10398   9.957   6.594   9.366 -1.7268 -0.7810 -0.3672
  800MOL0     H10399   9.956   6.764   9.315  1.9070 -0.1876  1.6384
  800MOL0     H10400   9.962   6.731   9.489  1.2119  0.1991 -0.0362
  801MOL0     O10401   3.410   0.667  10.998  0.2298  0.6452 -0.4057
  801MOL0     C10402   3.291   0.679  10.960  0.8321  0.9065  1.0069
  801MOL0     O10403   3.251   0.697  10.833  0.2463  0.3788  0.9616
  801MOL0     C10404   3.339   0.660  10.735 -0.2613 -1.0112  0.3122
  801MOL0     C10405   3.381   0.526  10.742 -0.3916  0.7700  0.0822
  801MOL0     C10406   3.453   0.467  10.637 -0.1405 -0.5943  0.0397
  801MOL0     C10407   3.480   0.547  10.526  1.3600  0.0811  0.3049
  801MOL0     O10408   3.558   0.492  10.427  0.1377 -0.5547  0.7371
  801MOL0     C10409   3.614   0.575  10.320  0.1103  0.9442 -0.2033
  801MOL0     C10410   3.750   0.639  10.369 -0.0066 -0.2301 -0.7510
  801MOL0     C10411   3.799   0.729  10.257  0.6211 -0.4297  0.8431
  801MOL0     C10412   3.737   0.865  10.234 -0.5290 -0.4697 -0.2313
  801MOL0     C10413   3.772   0.951  10.355  0.3401  0.5528 -0.7439
  801MOL0     C10414   3.713   1.088  10.329  0.4375  0.1187 -0.4196
  801MOL0     C10415   3.795   1.163  10.432 -0.6559 -1.0921 -1.1013
  801MOL0     C10416   3.785   1.318  10.458 -0.3827 -0.1688  0.1247
  801MOL0     N10417   3.890   1.369  10.559 -0.7434 -0.8796  0.1530
  801MOL0     C10418   4.014   1.421  10.533 -0.7120  0.8094 -0.1620
  801MOL0     C10419   4.050   1.495  10.645  0.4823  0.7389  0.0308
  801MOL0     C10420   4.158   1.598  10.644 -0.0695 -0.0197 -0.6926
  801MOL0     C10421   4.117   1.721  10.578 -0.0634 -0.8216 -0.1123
  801MOL0     C10422   4.215   1.830  10.554 -0.2474 -0.5929 -0.8654
  801MOL0     C10423   4.327   1.793  10.446 -0.1851  0.2156 -0.3563
  801MOL0     O10424   4.259   1.758  10.324  0.6236  0.5815 -0.0601
  801MOL0     C10425   4.328   1.733  10.211 -0.0951  0.6849 -0.2707
  801MOL0     C10426   4.464   1.721  10.193 -0.0591  0.0268  0.4346
  801MOL0     C10427   4.515   1.691  10.059 -0.2409 -1.0152 -0.1681
  801MOL0     C10428   4.663   1.681  10.050 -0.2594  0.4202 -0.3703
  801MOL0     C10429   4.420   1.685   9.951 -0.0695 -0.3718  0.8487
  801MOL0     C10430   4.463   1.669   9.799  0.3776  0.2906  0.0812
  801MOL0     O10431   4.377   1.609   9.716  0.3240 -0.1007 -0.5240
  801MOL0     C10432   4.401   1.601   9.587 -0.9429  1.0932 -0.5155
  801MOL0     C10433   4.374   1.711   9.501  0.3617  0.3260  0.5850
  801MOL0     C10434   4.411   1.693   9.370  0.7600 -0.1883 -0.2943
  801MOL0     C10435   4.458   1.566   9.317  0.1937  0.1235  0.8736
  801MOL0     O10436   4.483   1.542   9.182  0.4417  0.6560 -0.6899
  801MOL0     C10437   4.419   1.635   9.091 -0.3839  1.2800  0.0139
  801MOL0     C10438   4.440   1.576   8.954 -0.0984  0.0161 -0.2647
  801MOL0     C10439   4.365   1.446   8.913  0.0808 -1.0043  0.3830
  801MOL0     C10440   4.222   1.467   8.863  0.0048 -0.7471  0.3413
  801MOL0     C10441   4.184   1.339   8.798 -0.9328  0.4714 -0.1507
  801MOL0     C10442   4.035   1.349   8.771  0.5487  1.3176 -0.2014
  801MOL0     C10443   3.986   1.226   8.684 -0.8034 -0.3574 -0.6275
  801MOL0     C10444   3.834   1.237   8.649  0.1297 -0.2960  0.5485
  801MOL0    Cl10445   3.782   1.092   8.552 -0.5243  0.2839 -0.0453
  801MOL0     C10446   4.475   1.462   9.404  0.1549  0.6910 -0.3679
  801MOL0     C10447   4.453   1.474   9.545 -0.6016 -0.6752  0.4985
  801MOL0     O10448   4.569   1.717   9.767  0.2496 -0.0611  0.9381
  801MOL0     C10449   4.287   1.693   9.982 -0.0387 -0.4521  1.0319
  801MOL0     C10450   4.242   1.721  10.109  0.8141  0.4205 -0.2863
  801MOL0     N10451   3.963   1.466  10.747 -0.4463  0.1327  0.0437
  801MOL0     N10452   3.882   1.385  10.695  0.8720 -0.1268 -0.0076
  801MOL0     C10453   3.434   0.679  10.515 -0.5346  0.2799 -0.0990
  801MOL0     C10454   3.369   0.738  10.623 -1.0087  0.1353 -0.1462
  801MOL0     C10455   3.193   0.678  11.069  0.5014  0.0724 -0.1609
  801MOL0     C10456   3.065   0.743  11.048 -0.9600 -0.4483 -0.8563
  801MOL0     C10457   2.981   0.759  11.154  0.2540 -0.5457 -0.3393
  801MOL0     C10458   3.014   0.709  11.280 -0.0702 -0.5478 -1.1127
  801MOL0     O10459   2.919   0.735  11.383  0.5165 -0.1435 -0.0122
  801MOL0     C10460   2.970   0.779  11.514 -0.3279  0.0747 -1.0515
  801MOL0     C10461   3.066   0.895  11.502  0.3880 -0.3418  0.5276
  801MOL0     C10462   3.123   0.929  11.641  0.0193 -0.1628  0.1891
  801MOL0     C10463   3.263   0.876  11.672 -0.4354  1.6904 -0.0042
  801MOL0     C10464   3.285   0.729  11.669 -0.2390 -0.0505 -0.1428
  801MOL0     C10465   3.299   0.603  11.675  0.0902 -0.3486  0.1632
  801MOL0     C10466   3.138   0.654  11.302 -0.4112  0.8911  0.5458
  801MOL0     C10467   3.220   0.620  11.198  0.8532  0.5690 -0.0873
  801MOL0     C10468   3.337   0.524  11.217 -1.2564 -0.0010 -0.1088
  801MOL0     H10469   3.362   0.458  10.824  2.0766 -1.2914 -0.9332
  801MOL0     H10470   3.482   0.368  10.670 -2.0373  0.3968  6.1209
  801MOL0     H10471   3.545   0.644  10.271 -1.8976 -1.7689 -1.4747
  801MOL0     H10472   3.627   0.498  10.242  1.5884  0.4812  0.4624
  801MOL0     H10473   3.727   0.698  10.458 -1.2340 -3.1270  1.0159
  801MOL0     H10474   3.822   0.561  10.395  3.3488  2.8867  0.1326
  801MOL0     H10475   3.907   0.744  10.262  0.7661 -1.0201 -0.2440
  801MOL0     H10476   3.785   0.673  10.164  2.9978  1.3829 -0.7250
  801MOL0     H10477   3.770   0.913  10.141  1.6305 -1.9418 -0.2869
  801MOL0     H10478   3.629   0.845  10.231 -0.6209 -0.6280  2.3331
  801MOL0     H10479   3.881   0.955  10.369 -0.0523  1.6864  2.8460
  801MOL0     H10480   3.734   0.903  10.446 -0.0761  1.3148 -0.5143
  801MOL0     H10481   3.736   1.126  10.229 -2.1390 -1.7942 -1.8680
  801MOL0     H10482   3.605   1.089  10.341  0.5145  0.8721  0.2781
  801MOL0     H10483   3.903   1.153  10.419  0.5238  5.7517 -0.3093
  801MOL0     H10484   3.771   1.114  10.527 -0.5105  0.5551 -0.1839
  801MOL0     H10485   3.814   1.367  10.364  0.1634  2.1651  1.4132
  801MOL0     H10486   3.690   1.355  10.497  0.9477  1.3720  2.0600
  801MOL0     H10487   4.068   1.418  10.438  0.2134 -2.8496  0.3172
  801MOL0     H10488   4.243   1.550  10.595  2.8585  2.9432  1.0438
  801MOL0     H10489   4.192   1.627  10.744  0.1298 -0.7400 -0.5436
  801MOL0     H10490   4.058   1.694  10.490  0.2638  3.7520 -1.9995
  801MOL0     H10491   4.033   1.759  10.638 -0.3521 -2.3033  0.4649
  801MOL0     H10492   4.156   1.912  10.512  4.6843  2.5478 -2.5194
  801MOL0     H10493   4.269   1.866  10.643 -4.0251  1.6019  0.7873
  801MOL0     H10494   4.399   1.872  10.419 -2.7729  1.6161 -3.8643
  801MOL0     H10495   4.378   1.708  10.492 -0.8995  0.8316  1.6713
  801MOL0     H10496   4.530   1.731  10.278 -0.1855  2.5343  0.3001
  801MOL0     H10497   4.687   1.589   9.996  1.3659 -0.9040  2.4140
  801MOL0     H10498   4.717   1.679  10.145 -0.1680  0.9221 -0.4093
  801MOL0     H10499   4.704   1.764   9.991  0.4446  0.6404  0.4071
  801MOL0     H10500   4.335   1.802   9.545  2.1230  1.8526 -0.8553
  801MOL0     H10501   4.401   1.773   9.298  1.7909  2.0168  1.8745
  801MOL0     H10502   4.313   1.648   9.115 -0.6253 -1.0969  0.4869
  801MOL0     H10503   4.471   1.731   9.102  1.6872  0.1580  0.4693
  801MOL0     H10504   4.414   1.652   8.880  1.3523  3.0934  2.1759
  801MOL0     H10505   4.547   1.562   8.939 -0.0269  2.5873 -3.2593
  801MOL0     H10506   4.375   1.373   8.994  2.4678 -1.5603 -0.3284
  801MOL0     H10507   4.429   1.402   8.836 -2.0185 -3.4724 -0.0980
  801MOL0     H10508   4.206   1.537   8.781 -0.0349 -0.9021  0.2155
  801MOL0     H10509   4.157   1.500   8.944 -0.9060 -1.2862 -0.1585
  801MOL0     H10510   4.241   1.325   8.706 -1.1037 -1.1552 -0.0517
  801MOL0     H10511   4.212   1.255   8.863 -0.5254  1.5863  1.1439
  801MOL0     H10512   4.010   1.447   8.729 -4.2911  1.8398  3.0760
  801MOL0     H10513   3.983   1.341   8.867  3.0937  0.5745  1.1928
  801MOL0     H10514   3.987   1.135   8.744  0.0241  0.0476 -0.0125
  801MOL0     H10515   4.049   1.218   8.595  0.9583  0.5440  0.4716
  801MOL0     H10516   3.812   1.333   8.600 -0.4818 -0.6098  0.1906
  801MOL0     H10517   3.772   1.238   8.739 -1.0870 -3.6978 -0.1279
  801MOL0     H10518   4.514   1.377   9.349  2.3011  0.6022  1.2020
  801MOL0     H10519   4.487   1.396   9.612 -1.9703  0.1179  2.1941
  801MOL0     H10520   4.210   1.702   9.906  0.5891  1.6756  0.5811
  801MOL0     H10521   4.135   1.734  10.123  0.8468  2.8805 -1.7291
  801MOL0     H10522   3.442   0.745  10.429  0.3746  1.7429  1.0599
  801MOL0     H10523   3.330   0.839  10.619 -3.1595 -0.6968 -1.4997
  801MOL0     H10524   3.050   0.787  10.950 -1.6450 -1.3295 -1.1560
  801MOL0     H10525   2.890   0.814  11.132  0.3019 -0.1980  0.2916
  801MOL0     H10526   2.885   0.804  11.578  0.0885 -1.1748  0.0197
  801MOL0     H10527   3.033   0.703  11.562  0.9878  0.7180 -1.6817
  801MOL0     H10528   3.005   0.974  11.457  1.8390  0.5534  0.0492
  801MOL0     H10529   3.155   0.877  11.440  0.7209 -0.5056  1.0538
  801MOL0     H10530   3.122   1.039  11.635  1.3500  0.0481  2.5382
  801MOL0     H10531   3.043   0.910  11.713 -0.5726  1.4040  0.0027
  801MOL0     H10532   3.282   0.904  11.776  1.0794  1.2098 -0.1241
  801MOL0     H10533   3.332   0.925  11.603  1.5178 -0.2805  0.4153
  801MOL0     H10534   3.304   0.496  11.669 -0.4276 -0.3049 -1.8160
  801MOL0     H10535   3.154   0.617  11.403  2.1765  1.6637  0.4894
  801MOL0     H10536   3.318   0.471  11.311 -3.3127 -0.6579 -0.8439
  801MOL0     H10537   3.348   0.446  11.140  3.0299  0.0003  0.2487
  801MOL0     H10538   3.424   0.589  11.224  0.4663 -2.1270 -0.6130
  802MOL0     O10539   0.962   3.378   4.637  0.8063  0.2859 -0.0301
  802MOL0     C10540   0.852   3.415   4.659 -0.1075 -0.3248 -0.0899
  802MOL0     O10541   0.813   3.492   4.761 -0.4387 -0.2173  0.4249
  802MOL0     C10542   0.912   3.554   4.833  0.7447  0.4442  0.3689
  802MOL0     C10543   0.913   3.695   4.817 -0.2835 -0.0350 -0.6583
  802MOL0     C10544   0.993   3.768   4.910 -0.0285  1.4652 -0.0903
  802MOL0     C10545   1.074   3.707   5.014  0.2106  0.4090  1.1575
  802MOL0     O10546   1.155   3.785   5.093  0.2921 -0.1188  0.3822
  802MOL0     C10547   1.274   3.727   5.151  0.5050 -0.4110 -0.1247
  802MOL0     C10548   1.349   3.842   5.209  0.3069  0.1416 -0.1472
  802MOL0     C10549   1.274   3.973   5.249  0.2390  0.1550 -0.4322
  802MOL0     C10550   1.344   4.046   5.362 -0.2765  0.5247  0.1782
  802MOL0     C10551   1.266   4.165   5.433 -0.1862  0.4883 -0.2921
  802MOL0     C10552   1.194   4.271   5.337 -0.2909  0.2311 -0.2714
  802MOL0     C10553   1.135   4.379   5.427 -0.0319 -0.0236 -0.4310
  802MOL0     C10554   1.084   4.494   5.339  0.1511 -0.2913 -0.0382
  802MOL0     N10555   1.056   4.609   5.428  0.2516  0.0502  0.4178
  802MOL0     C10556   0.928   4.666   5.451 -0.6662 -0.3860  0.4006
  802MOL0     C10557   0.957   4.780   5.517  0.0159 -0.0143 -0.0606
  802MOL0     C10558   0.867   4.885   5.586 -0.1204 -0.7626 -0.6337
  802MOL0     C10559   0.802   4.985   5.490  0.0488  0.3776  0.3204
  802MOL0     C10560   0.671   4.931   5.441 -0.0405 -0.2717 -0.9134
  802MOL0     C10561   0.622   5.019   5.325  0.6528 -0.0739  0.6260
  802MOL0     O10562   0.518   4.959   5.249  0.6656  0.3003  0.1950
  802MOL0     C10563   0.383   4.992   5.262  0.2344 -0.0777 -0.2848
  802MOL0     C10564   0.295   4.945   5.161 -0.3025 -1.1829  0.1485
  802MOL0     C10565   0.156   4.978   5.166 -0.4748 -0.0846  0.0698
  802MOL0     C10566   0.059   4.905   5.072 -0.4571 -0.1050  0.3275
  802MOL0     C10567   0.105   5.046   5.283 -0.8058 -0.7089  0.1509
  802MOL0     C10568  -0.035   5.093   5.306  0.2217 -0.1845 -0.3103
  802MOL0     O10569  -0.096   5.141   5.199  0.5511  0.5222  0.2629
  802MOL0     C10570  -0.199   5.237   5.202 -1.2440 -0.5198  0.2144
  802MOL0     C10571  -0.195   5.345   5.296  0.1178  1.1990  0.8411
  802MOL0     C10572  -0.302   5.427   5.301 -0.5413 -0.1529 -0.1552
  802MOL0     C10573  -0.411   5.403   5.213  0.0824  0.5804  0.1302
  802MOL0     O10574  -0.523   5.485   5.218  0.0580  0.2613 -0.4339
  802MOL0     C10575  -0.569   5.523   5.352 -0.5785 -0.8812 -0.4659
  802MOL0     C10576  -0.711   5.585   5.336  0.1916 -0.5807 -0.0110
  802MOL0     C10577  -0.791   5.591   5.467 -0.6323 -0.3789  0.7866
  802MOL0     C10578  -0.921   5.656   5.420  0.5137 -0.5198  1.1944
  802MOL0     C10579  -1.024   5.671   5.536  0.1806 -0.9026  0.4306
  802MOL0     C10580  -1.075   5.533   5.587  0.4982 -0.7872 -0.0133
  802MOL0     C10581  -1.186   5.558   5.687 -0.7003  0.1032  0.3813
  802MOL0     C10582  -1.225   5.430   5.761  0.0562 -0.2418 -1.2943
  802MOL0    Cl10583  -1.388   5.367   5.711 -0.0126 -0.1484 -0.6194
  802MOL0     C10584  -0.412   5.306   5.117  0.1480  0.3462  0.2093
  802MOL0     C10585  -0.304   5.224   5.105  0.6980 -0.1910  0.2937
  802MOL0     O10586  -0.081   5.095   5.418 -0.2111  0.0439  0.0908
  802MOL0     C10587   0.197   5.082   5.385  0.8673 -0.6142 -0.1327
  802MOL0     C10588   0.332   5.064   5.365 -0.2084 -0.1041 -0.1611
  802MOL0     N10589   1.092   4.781   5.538 -0.3116  0.3121  0.2111
  802MOL0     N10590   1.153   4.679   5.489  0.1394  0.7400 -0.4768
  802MOL0     C10591   1.063   3.568   5.027 -0.1139  0.9062 -0.0902
  802MOL0     C10592   0.981   3.493   4.934  0.5692 -0.4102 -0.9413
  802MOL0     C10593   0.745   3.354   4.575  1.1663  0.8388  0.5588
  802MOL0     C10594   0.628   3.316   4.637  0.4016  0.1833 -0.2670
  802MOL0     C10595   0.532   3.245   4.561  1.1756  0.5132 -0.6334
  802MOL0     C10596   0.533   3.230   4.423  0.0821  0.2345  0.0456
  802MOL0     O10597   0.431   3.180   4.345 -0.7070 -0.5476  0.2427
  802MOL0     C10598   0.323   3.110   4.417  0.0807  0.2157  0.1138
  802MOL0     C10599   0.212   3.209   4.460 -0.4468  0.7010 -0.1921
  802MOL0     C10600   0.111   3.150   4.552 -0.8855  0.0117  0.4001
  802MOL0     C10601   0.135   3.176   4.706 -0.2093  0.3138  1.1414
  802MOL0     C10602   0.012   3.141   4.779  0.2278 -0.4752  0.1718
  802MOL0     C10603  -0.080   3.137   4.856  0.4791  0.1180 -0.8300
  802MOL0     C10604   0.656   3.257   4.364  0.7950  0.1736  0.2048
  802MOL0     C10605   0.762   3.323   4.440 -0.7353  0.0107 -0.3472
  802MOL0     C10606   0.890   3.355   4.365  1.1686  0.0485  0.8093
  802MOL0     H10607   0.848   3.742   4.744 -1.5171 -0.8262 -0.1100
  802MOL0     H10608   1.005   3.875   4.897  0.9168  1.3258 -0.4599
  802MOL0     H10609   1.333   3.672   5.076  1.4660  0.5838 -0.1329
  802MOL0     H10610   1.242   3.648   5.219  0.2171  0.0049  0.2260
  802MOL0     H10611   1.413   3.805   5.289  0.4993  0.0613 -0.3361
  802MOL0     H10612   1.411   3.865   5.121  1.7384  1.8923  1.2433
  802MOL0     H10613   1.250   4.041   5.167 -1.1159 -1.6489 -1.6009
  802MOL0     H10614   1.173   3.944   5.282  0.0532  3.0374  1.9088
  802MOL0     H10615   1.356   3.971   5.440 -1.9489 -1.1206 -1.0752
  802MOL0     H10616   1.447   4.073   5.335 -0.4583  0.7636 -0.2875
  802MOL0     H10617   1.330   4.231   5.492  0.4337  0.5967 -1.0616
  802MOL0     H10618   1.205   4.130   5.517 -0.1815 -1.8550 -1.2011
  802MOL0     H10619   1.273   4.306   5.271  0.6831 -0.1305  0.6718
  802MOL0     H10620   1.113   4.227   5.278 -1.5091  1.1301  0.6921
  802MOL0     H10621   1.218   4.420   5.486  1.4048 -0.8627 -1.7949
  802MOL0     H10622   1.054   4.348   5.494  0.2320  1.5892  0.7051
  802MOL0     H10623   1.168   4.514   5.272 -1.0132 -3.3303 -2.6593
  802MOL0     H10624   0.995   4.464   5.282  0.6123 -2.1939  0.1881
  802MOL0     H10625   0.826   4.634   5.429 -0.8584 -0.3438  1.1979
  802MOL0     H10626   0.932   4.932   5.660 -0.3140 -1.8662  0.2479
  802MOL0     H10627   0.798   4.825   5.646  0.3405  0.0148  0.7152
  802MOL0     H10628   0.783   5.084   5.533 -0.9791  2.4223 -4.2231
  802MOL0     H10629   0.859   4.995   5.397  0.4463 -0.2744  0.4851
  802MOL0     H10630   0.685   4.829   5.405 -0.2625 -0.1823 -1.2558
  802MOL0     H10631   0.596   4.938   5.520 -4.1008 -3.4199 -4.0341
  802MOL0     H10632   0.595   5.119   5.361 -0.3751 -0.1500  0.0690
  802MOL0     H10633   0.705   5.044   5.258  0.3851 -1.5186 -0.2730
  802MOL0     H10634   0.334   4.873   5.090 -0.0274 -1.0322  0.1438
  802MOL0     H10635  -0.001   4.826   5.117  0.3082 -0.7803  0.1810
  802MOL0     H10636   0.115   4.866   4.987 -0.8584  0.8593 -0.3969
  802MOL0     H10637  -0.017   4.973   5.033  1.0102  0.6611 -1.3326
  802MOL0     H10638  -0.115   5.340   5.369 -0.2878  2.7922  1.4354
  802MOL0     H10639  -0.297   5.513   5.367 -0.6313  0.0514 -0.4138
  802MOL0     H10640  -0.575   5.438   5.421  1.8824 -1.0556 -0.3773
  802MOL0     H10641  -0.507   5.599   5.399 -1.7893 -0.1094 -0.0848
  802MOL0     H10642  -0.689   5.684   5.295 -2.3709 -0.3542 -1.0056
  802MOL0     H10643  -0.767   5.523   5.265 -1.1001 -0.2260  0.6582
  802MOL0     H10644  -0.764   5.656   5.550 -0.3065 -1.1895  1.3243
  802MOL0     H10645  -0.797   5.492   5.512  0.3539 -1.2407 -0.8567
  802MOL0     H10646  -0.980   5.589   5.357  0.5959 -0.2501  0.8299
  802MOL0     H10647  -0.912   5.753   5.371 -0.0009 -0.0172  2.0628
  802MOL0     H10648  -0.973   5.722   5.618  1.7299 -0.6487 -0.6416
  802MOL0     H10649  -1.114   5.728   5.508  0.5007 -0.9033 -0.6401
  802MOL0     H10650  -0.984   5.492   5.630  2.4861 -0.2890 -3.4316
  802MOL0     H10651  -1.116   5.485   5.497 -0.6049 -1.7813  0.9798
  802MOL0     H10652  -1.276   5.599   5.641  1.2624  2.0480 -2.0040
  802MOL0     H10653  -1.139   5.630   5.755 -1.1317 -1.8207  2.8689
  802MOL0     H10654  -1.235   5.462   5.865 -0.9340 -0.4692 -1.3111
  802MOL0     H10655  -1.149   5.350   5.763 -1.9995 -2.2917  0.3794
  802MOL0     H10656  -0.507   5.289   5.067 -1.0599 -2.0047  3.0417
  802MOL0     H10657  -0.305   5.146   5.029 -0.6638 -0.1397  0.2424
  802MOL0     H10658   0.168   5.138   5.474  0.1132 -0.8866 -0.2015
  802MOL0     H10659   0.395   5.102   5.444  1.5344  0.2019 -1.6223
  802MOL0     H10660   1.118   3.511   5.101 -1.2276  1.5647  1.2888
  802MOL0     H10661   0.961   3.387   4.939  0.5919 -0.5634 -3.0215
  802MOL0     H10662   0.612   3.346   4.741  0.2400  2.6368 -0.9432
  802MOL0     H10663   0.446   3.218   4.621  2.1442 -1.2466  0.0315
  802MOL0     H10664   0.277   3.032   4.356  0.5538 -0.6887  0.9032
  802MOL0     H10665   0.359   3.061   4.508 -1.7956 -0.8955  0.2862
  802MOL0     H10666   0.155   3.241   4.373  0.3112  0.7441 -0.6831
  802MOL0     H10667   0.252   3.302   4.500 -2.2595  1.7299 -0.6602
  802MOL0     H10668   0.010   3.189   4.533 -0.8137  0.5060  1.0125
  802MOL0     H10669   0.116   3.044   4.525  4.0938  0.4582 -1.5999
  802MOL0     H10670   0.149   3.283   4.725 -1.3518  0.2949  2.2760
  802MOL0     H10671   0.220   3.118   4.744 -0.0403 -1.0928 -1.1951
  802MOL0     H10672  -0.159   3.142   4.929  1.3192 -3.3277  0.5208
  802MOL0     H10673   0.659   3.225   4.260 -0.2913 -0.9660  0.4954
  802MOL0     H10674   0.909   3.463   4.365 -2.9406  0.9712 -1.7071
  802MOL0     H10675   0.975   3.302   4.410 -1.6518 -2.8048  3.2751
  802MOL0     H10676   0.888   3.313   4.264  1.0369 -5.1503  2.6507
  803MOL0     O10677   9.068   7.330   9.100  0.5005 -0.4590 -0.2832
  803MOL0     C10678   8.981   7.248   9.063 -0.5832  0.3834  0.1589
  803MOL0     O10679   8.988   7.168   8.952 -0.6813 -0.0932 -0.0367
  803MOL0     C10680   9.099   7.166   8.868  0.3846 -0.5970  0.1225
  803MOL0     C10681   9.230   7.185   8.912 -0.3744 -0.5528  0.0460
  803MOL0     C10682   9.338   7.192   8.820  0.0943 -0.2711  0.5608
  803MOL0     C10683   9.313   7.179   8.686  0.7434 -0.2922 -0.3059
  803MOL0     O10684   9.417   7.194   8.597  0.4933  0.3814  0.1183
  803MOL0     C10685   9.423   7.115   8.480 -0.7785 -0.3173 -0.2069
  803MOL0     C10686   9.553   7.145   8.415  0.0803 -0.7652 -1.0194
  803MOL0     C10687   9.672   7.086   8.483  0.3365 -0.1456 -0.2125
  803MOL0     C10688   9.807   7.109   8.405  0.0645  0.0043  0.0869
  803MOL0     C10689   9.917   7.029   8.475 -1.2829  0.3261 -0.2763
  803MOL0     C10690  10.058   7.041   8.412 -0.0308 -0.2321 -0.0461
  803MOL0     C10691  10.170   6.940   8.444  0.5083 -0.4679 -0.8996
  803MOL0     C10692  10.275   6.960   8.331 -0.9174 -0.4727  0.7611
  803MOL0     N10693  10.334   7.090   8.318  0.6470  0.2158 -0.4206
  803MOL0     C10694  10.434   7.140   8.398 -0.5020 -0.3776 -0.2555
  803MOL0     C10695  10.482   7.252   8.342 -0.2250 -0.2767  0.2980
  803MOL0     C10696  10.593   7.330   8.404 -0.5787 -0.5077 -0.2691
  803MOL0     C10697  10.720   7.345   8.315  0.4666 -1.2733 -0.3420
  803MOL0     C10698  10.767   7.212   8.248 -0.5685 -0.2992 -1.0206
  803MOL0     C10699  10.874   7.253   8.149 -0.0965 -0.5570  1.4733
  803MOL0     O10700  11.012   7.272   8.194 -0.4281  0.2223  0.3219
  803MOL0     C10701  11.110   7.309   8.103 -0.3943  0.1734 -0.1491
  803MOL0     C10702  11.088   7.350   7.967 -0.0758  0.7110 -0.1777
  803MOL0     C10703  11.192   7.398   7.886 -0.7105 -1.3680 -0.8986
  803MOL0     C10704  11.165   7.417   7.740 -0.6219 -0.5578  0.5072
  803MOL0     C10705  11.325   7.405   7.937  0.1427  0.5851  1.3590
  803MOL0     C10706  11.456   7.451   7.869 -0.2703 -0.3139  0.4465
  803MOL0     O10707  11.571   7.405   7.916  0.4303 -0.6249 -1.0988
  803MOL0     C10708  11.684   7.461   7.867  0.5044  0.3054 -0.1526
  803MOL0     C10709  11.731   7.557   7.959  0.4861  0.1158  0.0562
  803MOL0     C10710  11.865   7.605   7.936  0.7121  0.7913  0.4801
  803MOL0     C10711  11.924   7.575   7.813  0.6373  0.2257  0.1215
  803MOL0     O10712  12.048   7.629   7.781 -0.0001  0.2353 -0.0160
  803MOL0     C10713  12.158   7.538   7.766  0.2715 -0.7321  0.0817
  803MOL0     C10714  12.244   7.574   7.894  0.6331  1.0233 -0.5372
  803MOL0     C10715  12.302   7.705   7.874  0.2845 -0.9174  0.3578
  803MOL0     C10716  12.403   7.746   7.976  0.5173 -0.1156  0.8693
  803MOL0     C10717  12.445   7.890   7.960 -0.1812  0.1603 -0.0676
  803MOL0     C10718  12.562   7.914   8.061  0.5671 -0.2897 -0.6773
  803MOL0     C10719  12.528   7.940   8.215 -0.0693  0.1144  0.4807
  803MOL0     C10720  12.653   7.918   8.315 -0.1561  0.0757  0.3486
  803MOL0    Cl10721  12.699   7.738   8.313 -0.2246  0.1388 -0.5805
  803MOL0     C10722  11.869   7.496   7.717 -1.4904 -0.3672  0.0361
  803MOL0     C10723  11.747   7.432   7.745 -0.2502  0.1722  0.3670
  803MOL0     O10724  11.443   7.537   7.774  0.0867  0.1465  0.0185
  803MOL0     C10725  11.343   7.372   8.072 -0.2502 -0.7999 -0.2097
  803MOL0     C10726  11.236   7.324   8.153  0.1198  0.1723  0.6533
  803MOL0     N10727  10.422   7.270   8.219 -0.2458  0.3785  0.6391
  803MOL0     N10728  10.337   7.166   8.212 -0.5453 -0.7600  0.2820
  803MOL0     C10729   9.185   7.156   8.645  0.0060  0.5584 -0.2634
  803MOL0     C10730   9.082   7.147   8.732  0.3226  0.1438  0.1391
  803MOL0     C10731   8.849   7.252   9.138  0.4429 -0.1380  0.5624
  803MOL0     C10732   8.847   7.314   9.269 -1.0795 -0.6261  0.9463
  803MOL0     C10733   8.737   7.309   9.349  0.4053  0.8535  0.1327
  803MOL0     C10734   8.620   7.244   9.308 -0.0920 -0.6519  0.1108
  803MOL0     O10735   8.512   7.239   9.395 -0.1957  0.4104  0.2697
  803MOL0     C10736   8.384   7.203   9.343  0.5852  0.1029  0.7165
  803MOL0     C10737   8.268   7.228   9.439  0.0596  0.5741 -0.3003
  803MOL0     C10738   8.260   7.375   9.490  0.1964 -0.6988  0.0632
  803MOL0     C10739   8.215   7.363   9.636 -0.6556  0.7184 -0.6104
  803MOL0     C10740   8.195   7.491   9.692  1.0665 -0.2785  0.5024
  803MOL0     C10741   8.198   7.602   9.739  0.8942 -1.0437 -0.0745
  803MOL0     C10742   8.614   7.189   9.175 -0.3898 -0.4718  0.1392
  803MOL0     C10743   8.731   7.190   9.093  0.1432 -0.1068 -0.3484
  803MOL0     C10744   8.716   7.132   8.954 -0.4054  0.0648  0.1001
  803MOL0     H10745   9.245   7.199   9.018 -0.7117  1.2370 -0.1185
  803MOL0     H10746   9.425   7.216   8.881  0.5179  1.1326 -0.5383
  803MOL0     H10747   9.354   7.137   8.398  1.3516 -1.7466 -2.5406
  803MOL0     H10748   9.420   7.009   8.506 -1.0198  0.1113  1.5969
  803MOL0     H10749   9.541   7.095   8.318  0.2697  0.5380 -1.7485
  803MOL0     H10750   9.564   7.252   8.395 -3.2959  0.7947  3.6952
  803MOL0     H10751   9.679   7.138   8.578 -1.3687  1.9643 -1.1521
  803MOL0     H10752   9.655   6.978   8.486  0.5960 -0.3293 -2.8440
  803MOL0     H10753   9.785   7.072   8.304 -1.8543 -2.7480  1.3885
  803MOL0     H10754   9.835   7.214   8.404  2.9204 -0.6685  0.5646
  803MOL0     H10755   9.901   6.922   8.457 -0.2282  0.5164 -2.5627
  803MOL0     H10756   9.925   7.057   8.581 -1.2095 -2.3693  0.5088
  803MOL0     H10757  10.046   7.040   8.304 -1.7941  0.9443  0.0972
  803MOL0     H10758  10.100   7.140   8.435 -1.1355  0.2895 -0.2040
  803MOL0     H10759  10.135   6.837   8.438 -0.4067 -0.1321 -1.5588
  803MOL0     H10760  10.206   6.960   8.545  2.2183  1.6522 -1.8521
  803MOL0     H10761  10.367   6.903   8.348  1.1508  2.9004  1.7709
  803MOL0     H10762  10.233   6.915   8.241 -2.0677 -3.5219  2.6489
  803MOL0     H10763  10.465   7.106   8.496  0.9203 -1.3932 -1.0216
  803MOL0     H10764  10.620   7.293   8.503 -2.1526 -1.0286 -0.0110
  803MOL0     H10765  10.556   7.432   8.419  1.1804  0.0434  0.6230
  803MOL0     H10766  10.717   7.418   8.234  2.0727 -1.6402 -0.7534
  803MOL0     H10767  10.798   7.378   8.383 -1.5947  0.2775  1.4082
  803MOL0     H10768  10.802   7.136   8.319 -2.5224  0.2958  0.6898
  803MOL0     H10769  10.682   7.173   8.191 -0.6602 -0.1617 -0.9774
  803MOL0     H10770  10.892   7.175   8.073  3.3099  1.6205 -0.2284
  803MOL0     H10771  10.844   7.337   8.086  1.2675 -2.3273 -1.8557
  803MOL0     H10772  10.989   7.336   7.927  0.1997 -0.3918 -0.5273
  803MOL0     H10773  11.260   7.427   7.687  0.0429 -0.2588  1.7131
  803MOL0     H10774  11.097   7.500   7.718 -0.2344 -0.7735 -1.6287
  803MOL0     H10775  11.109   7.332   7.701 -0.0449 -0.1462 -1.2742
  803MOL0     H10776  11.681   7.577   8.053 -1.4252 -0.7304 -0.7186
  803MOL0     H10777  11.913   7.667   8.011 -1.9445  3.5697  0.1054
  803MOL0     H10778  12.125   7.434   7.769 -1.9398 -0.0724  1.7017
  803MOL0     H10779  12.209   7.562   7.673 -3.2674 -0.3985 -1.9312
  803MOL0     H10780  12.183   7.562   7.984  0.9904 -0.1008 -0.4275
  803MOL0     H10781  12.323   7.498   7.905  0.8309  1.0310 -1.8225
  803MOL0     H10782  12.217   7.771   7.892 -0.6844 -2.5968  2.5294
  803MOL0     H10783  12.355   7.717   7.779  2.1280  0.1054  1.4508
  803MOL0     H10784  12.479   7.667   7.968 -1.5581 -2.1743  0.1529
  803MOL0     H10785  12.358   7.741   8.075 -1.3825  1.6214  0.1556
  803MOL0     H10786  12.488   7.910   7.862  0.2609 -0.1635  0.0565
  803MOL0     H10787  12.364   7.962   7.975 -1.9643 -2.2106  2.8703
  803MOL0     H10788  12.596   8.014   8.033 -0.5718 -0.0148 -1.1529
  803MOL0     H10789  12.640   7.840   8.041  1.9461  0.9325 -0.0145
  803MOL0     H10790  12.445   7.880   8.252 -1.0641  1.7226  0.9882
  803MOL0     H10791  12.512   8.048   8.222  1.9440  0.6820 -2.0717
  803MOL0     H10792  12.616   7.949   8.413 -0.0156 -1.4069  0.9069
  803MOL0     H10793  12.743   7.970   8.282 -1.1864  1.9823  0.4338
  803MOL0     H10794  11.918   7.485   7.621  1.0593 -0.6079  1.2826
  803MOL0     H10795  11.705   7.367   7.670  3.2452 -0.0866 -1.5594
  803MOL0     H10796  11.439   7.365   8.123 -1.0258 -1.5668  1.2211
  803MOL0     H10797  11.266   7.296   8.254 -0.4909 -1.3046  0.4603
  803MOL0     H10798   9.159   7.147   8.540 -0.7473 -0.7879  0.0222
  803MOL0     H10799   8.981   7.138   8.694 -0.5414  2.5122  1.6664
  803MOL0     H10800   8.919   7.388   9.300  0.0492 -0.7081 -1.3076
  803MOL0     H10801   8.736   7.348   9.451 -1.5706  1.4759 -0.0815
  803MOL0     H10802   8.366   7.265   9.254 -2.0358  2.8981  2.9541
  803MOL0     H10803   8.391   7.102   9.303 -3.7914 -0.3824  0.7016
  803MOL0     H10804   8.276   7.155   9.520 -1.4448 -0.6045 -1.1463
  803MOL0     H10805   8.172   7.204   9.391 -0.9415  3.0441  0.3140
  803MOL0     H10806   8.363   7.414   9.490  0.9703 -2.4972  2.3728
  803MOL0     H10807   8.194   7.439   9.430  1.2246  1.2999  0.9579
  803MOL0     H10808   8.285   7.311   9.702 -1.9422 -0.0904  0.1601
  803MOL0     H10809   8.122   7.306   9.636 -1.2529  1.6677 -0.4145
  803MOL0     H10810   8.184   7.705   9.762  2.1692 -0.6103 -1.1431
  803MOL0     H10811   8.519   7.147   9.142 -2.0998  2.0159  1.5499
  803MOL0     H10812   8.745   7.212   8.886 -0.0691  1.0701  1.3857
  803MOL0     H10813   8.779   7.044   8.936  0.0614  0.6369 -1.1715
  803MOL0     H10814   8.613   7.105   8.927 -0.7147  2.1623 -0.9954
  804MOL0     O10815   9.296  10.168   0.971  0.0771 -0.0742 -0.2087
  804MOL0     C10816   9.303  10.045   0.958  0.4867  0.5663 -1.1912
  804MOL0     O10817   9.347   9.957   1.061  0.3958 -0.1496  0.1977
  804MOL0     C10818   9.412  10.019   1.176  0.3115  0.6212 -0.4182
  804MOL0     C10819   9.342  10.028   1.296  0.3562  0.1120  0.1002
  804MOL0     C10820   9.397  10.084   1.413  0.6366  0.0316 -1.0348
  804MOL0     C10821   9.529  10.146   1.412  0.8085  1.2007  0.4305
  804MOL0     O10822   9.585  10.184   1.527  0.3322  0.4193 -0.6313
  804MOL0     C10823   9.717  10.240   1.525  1.4777  0.4450 -0.2272
  804MOL0     C10824   9.719  10.384   1.480 -0.2223  0.0295 -0.2430
  804MOL0     C10825   9.627  10.477   1.554  0.0037 -0.0713 -1.3755
  804MOL0     C10826   9.649  10.631   1.534  0.6882  0.5730  0.4557
  804MOL0     C10827   9.551  10.712   1.627  0.4113 -0.3192 -0.7566
  804MOL0     C10828   9.567  10.674   1.773 -0.1924  0.4949  0.4542
  804MOL0     C10829   9.520  10.785   1.874 -0.1531  0.6902 -1.1697
  804MOL0     C10830   9.531  10.738   2.017 -0.2166 -0.4473 -0.1145
  804MOL0     N10831   9.667  10.686   2.049  0.6768  0.0868  0.3169
  804MOL0     C10832   9.696  10.574   2.111  0.9554  0.6948 -0.0770
  804MOL0     C10833   9.827  10.583   2.141 -0.4499 -0.0428 -0.6128
  804MOL0     C10834   9.903  10.481   2.224  0.5794 -0.8906  1.4767
  804MOL0     C10835   9.983  10.556   2.326 -0.0584 -0.4193  0.4084
  804MOL0     C10836   9.896  10.631   2.441  0.1397 -0.6155  0.5296
  804MOL0     C10837   9.984  10.685   2.547 -0.3278 -0.8591 -0.5356
  804MOL0     O10838  10.073  10.790   2.482  0.2003  0.2662 -0.6441
  804MOL0     C10839  10.125  10.896   2.552  0.1885 -0.0351 -0.4446
  804MOL0     C10840  10.219  10.980   2.487 -0.2096  0.1676 -0.3777
  804MOL0     C10841  10.283  11.077   2.556 -0.0784 -0.3732 -0.5766
  804MOL0     C10842  10.390  11.158   2.488  1.2665  0.1392  0.8988
  804MOL0     C10843  10.257  11.093   2.696  0.3437 -0.0250  0.0317
  804MOL0     C10844  10.332  11.195   2.776 -0.6635  0.3686  1.1669
  804MOL0     O10845  10.365  11.314   2.720  0.4825  0.5270  0.2100
  804MOL0     C10846  10.442  11.400   2.789  0.0148 -0.3501 -0.5508
  804MOL0     C10847  10.527  11.375   2.897  0.1807  1.2735 -1.2096
  804MOL0     C10848  10.593  11.478   2.966 -0.3294 -0.3346  0.2224
  804MOL0     C10849  10.596  11.609   2.920  0.9264 -0.7226  0.5842
  804MOL0     O10850  10.679  11.701   2.977 -0.2075 -0.4791 -0.8532
  804MOL0     C10851  10.604  11.800   3.058 -1.2170 -0.5166  0.2239
  804MOL0     C10852  10.694  11.926   3.045  0.6627  0.8943 -0.2818
  804MOL0     C10853  10.711  11.957   2.898  0.6376  0.2923  0.0083
  804MOL0     C10854  10.755  12.093   2.868  0.1570  0.5470  0.1258
  804MOL0     C10855  10.868  12.144   2.956  0.1587 -0.6323 -0.0148
  804MOL0     C10856  10.911  12.267   2.876 -0.6526 -0.1785  0.0343
  804MOL0     C10857  10.976  12.380   2.963  0.3551 -0.2447 -0.1242
  804MOL0     C10858  11.114  12.340   3.015 -0.4366  0.3523  0.0794
  804MOL0    Cl10859  11.158  12.475   3.122 -0.2691 -0.2726  0.4789
  804MOL0     C10860  10.524  11.628   2.802  0.2987 -0.4619 -0.1407
  804MOL0     C10861  10.445  11.532   2.743  1.2834 -0.4693  0.1320
  804MOL0     O10862  10.365  11.152   2.890 -0.2707  0.2334 -0.4032
  804MOL0     C10863  10.159  11.012   2.760 -0.6800 -0.6863 -0.2134
  804MOL0     C10864  10.097  10.912   2.690  1.3293 -0.8720 -0.2068
  804MOL0     N10865   9.885  10.702   2.092  0.3561 -0.5023 -0.0646
  804MOL0     N10866   9.781  10.750   2.028  0.4013 -0.2110  0.2498
  804MOL0     C10867   9.586  10.146   1.288  0.0348  0.3009 -0.4607
  804MOL0     C10868   9.537  10.082   1.171 -0.4375  0.1490 -0.2987
  804MOL0     C10869   9.240   9.986   0.840  0.0149  0.0009 -0.4083
  804MOL0     C10870   9.304   9.874   0.782 -0.3458 -0.4044  0.7319
  804MOL0     C10871   9.261   9.825   0.657  0.4882 -0.8004 -0.0171
  804MOL0     C10872   9.151   9.890   0.594  0.1984 -0.6736  0.7363
  804MOL0     O10873   9.114   9.833   0.473  0.9450 -0.4837 -0.9430
  804MOL0     C10874   9.009   9.905   0.404  0.1666 -1.0620  0.5115
  804MOL0     C10875   8.979   9.810   0.294 -0.1274  0.3960  0.0174
  804MOL0     C10876   8.858   9.860   0.202 -0.1041 -1.0193 -0.6961
  804MOL0     C10877   8.914   9.962   0.101  0.1809  0.9202 -0.2642
  804MOL0     C10878   8.804  10.031   0.035  0.9058 -0.0489 -0.3538
  804MOL0     C10879   8.725  10.114   0.001 -0.5478  0.1553  0.2053
  804MOL0     C10880   9.091   9.998   0.652  0.8177 -0.1208  0.0194
  804MOL0     C10881   9.123  10.046   0.777 -1.0373  0.1586 -0.1066
  804MOL0     C10882   9.026  10.136   0.852 -0.7807 -0.2071 -0.0634
  804MOL0     H10883   9.235  10.007   1.301 -0.4214  2.9187 -1.9073
  804MOL0     H10884   9.347  10.075   1.509  0.9119 -1.9434 -1.0190
  804MOL0     H10885   9.781  10.172   1.468 -0.6100  0.0848 -2.2939
  804MOL0     H10886   9.750  10.244   1.629  2.9018  4.5036 -0.6646
  804MOL0     H10887   9.827  10.396   1.495  0.1435 -3.5947  0.9296
  804MOL0     H10888   9.697  10.393   1.373 -0.6819 -1.0862 -0.2483
  804MOL0     H10889   9.527  10.461   1.512 -1.2367  0.9503  1.0244
  804MOL0     H10890   9.622  10.451   1.660  0.8131  1.2397 -0.9954
  804MOL0     H10891   9.749  10.666   1.563  0.9709  1.7712 -1.6927
  804MOL0     H10892   9.637  10.656   1.428 -0.5173  1.5096  0.7961
  804MOL0     H10893   9.449  10.703   1.589  0.5854 -2.8541 -0.7993
  804MOL0     H10894   9.577  10.818   1.615  0.7169 -0.1117  1.3046
  804MOL0     H10895   9.499  10.592   1.797  1.2562 -0.9118 -0.0939
  804MOL0     H10896   9.668  10.639   1.795 -1.4365 -2.4637  1.8574
  804MOL0     H10897   9.420  10.817   1.843 -1.2486 -2.1856 -0.9408
  804MOL0     H10898   9.583  10.874   1.864 -0.1228  0.5933 -1.8862
  804MOL0     H10899   9.519  10.821   2.087 -0.3285 -0.6833  0.1481
  804MOL0     H10900   9.446  10.673   2.039 -1.3060  0.5551 -1.2814
  804MOL0     H10901   9.629  10.493   2.138 -0.0979  1.9160  1.0960
  804MOL0     H10902   9.975  10.429   2.160  1.5690  0.9030  1.0801
  804MOL0     H10903   9.838  10.411   2.278 -0.5669  0.3456  1.7337
  804MOL0     H10904  10.061  10.494   2.372  0.2482 -2.1734 -2.2544
  804MOL0     H10905  10.035  10.637   2.275 -2.6172 -0.4395 -2.5336
  804MOL0     H10906   9.838  10.714   2.400  2.5377  0.6872 -0.4298
  804MOL0     H10907   9.829  10.553   2.477  2.2753 -2.2777  1.1638
  804MOL0     H10908   9.932  10.734   2.630  1.4276  0.6555 -0.2550
  804MOL0     H10909  10.052  10.605   2.578 -1.3828 -1.8782 -0.8176
  804MOL0     H10910  10.246  10.974   2.382 -0.4094 -3.1497 -0.3485
  804MOL0     H10911  10.488  11.136   2.531  2.3148 -1.0012 -1.8752
  804MOL0     H10912  10.358  11.262   2.498  0.0825 -0.3635  2.9280
  804MOL0     H10913  10.403  11.145   2.380 -0.9119  0.6504  0.5284
  804MOL0     H10914  10.549  11.282   2.948  1.9518  0.6782 -2.9088
  804MOL0     H10915  10.657  11.457   3.051  1.5764  0.4570 -0.9573
  804MOL0     H10916  10.502  11.821   3.025 -0.2017  2.4984 -1.4012
  804MOL0     H10917  10.606  11.762   3.160 -1.0518 -1.5082 -0.1408
  804MOL0     H10918  10.656  12.014   3.098 -0.9709 -1.0745  2.0094
  804MOL0     H10919  10.785  11.896   3.096 -0.6959 -2.3616  0.4986
  804MOL0     H10920  10.616  11.933   2.849 -0.3852  2.4673  0.7845
  804MOL0     H10921  10.780  11.885   2.854 -2.0065 -2.4271  0.0006
  804MOL0     H10922  10.668  12.157   2.882 -0.2368  0.0703 -0.1147
  804MOL0     H10923  10.789  12.085   2.764 -2.0366  2.7030 -0.8505
  804MOL0     H10924  10.840  12.184   3.054 -0.5800  0.2464 -0.5640
  804MOL0     H10925  10.956  12.080   2.966  0.2599 -0.3587  0.9667
  804MOL0     H10926  10.826  12.317   2.828 -0.5345  2.1950  2.0617
  804MOL0     H10927  10.972  12.239   2.790 -1.1333  0.9359 -0.6952
  804MOL0     H10928  10.912  12.394   3.052 -1.5748 -1.5997 -1.2238
  804MOL0     H10929  10.990  12.479   2.917 -0.8462  0.8225  1.6583
  804MOL0     H10930  11.179  12.333   2.927 -2.3436 -1.2598 -1.2805
  804MOL0     H10931  11.109  12.243   3.065 -0.5519  0.7035  0.7538
  804MOL0     H10932  10.521  11.730   2.765  2.0000  0.2246  1.5174
  804MOL0     H10933  10.373  11.556   2.666  0.7074 -4.4728 -0.7808
  804MOL0     H10934  10.142  11.028   2.866  0.7522  0.8031 -0.1722
  804MOL0     H10935  10.029  10.862   2.758  2.4509 -1.6825  0.3568
  804MOL0     H10936   9.684  10.192   1.277  1.1876 -1.2684  2.2379
  804MOL0     H10937   9.600  10.082   1.083 -2.6766  1.9483 -2.0012
  804MOL0     H10938   9.380   9.826   0.843 -0.3367  1.9239  2.6872
  804MOL0     H10939   9.306   9.732   0.625  0.6097 -1.0918  0.9597
  804MOL0     H10940   8.928   9.933   0.472  2.4412  0.2026  2.8802
  804MOL0     H10941   9.055   9.997   0.369  1.6733 -1.1290  2.1751
  804MOL0     H10942   8.954   9.715   0.342 -0.6811  0.1069 -0.8023
  804MOL0     H10943   9.062   9.791   0.226 -1.1465 -1.4739 -0.8005
  804MOL0     H10944   8.804   9.783   0.145 -0.4547 -0.5167 -1.0489
  804MOL0     H10945   8.786   9.904   0.272 -2.7418 -0.9967 -3.2333
  804MOL0     H10946   8.983   9.915   0.031 -1.7175  0.2016 -1.7610
  804MOL0     H10947   8.970  10.041   0.152  1.2392  1.3709 -2.0635
  804MOL0     H10948   8.655  10.181  -0.044  0.1944  0.7682 -0.0483
  804MOL0     H10949   9.007  10.044   0.603  0.2385 -0.9891  0.1780
  804MOL0     H10950   9.015  10.110   0.958 -0.2391 -3.2450 -0.6581
  804MOL0     H10951   9.047  10.243   0.843 -2.2181 -0.0657 -2.4157
  804MOL0     H10952   8.926  10.110   0.817 -0.5549 -3.7092  1.4725
  805MOL0     O10953   3.475   5.873   0.256  0.3333 -0.5221  0.1153
  805MOL0     C10954   3.445   5.988   0.211 -0.7660 -0.7120 -1.1459
  805MOL0     O10955   3.404   6.011   0.085  0.6068 -0.2342 -0.5882
  805MOL0     C10956   3.390   5.898   0.001 -0.2375  0.9106  0.8568
  805MOL0     C10957   3.255   5.867  -0.029 -0.0400  0.2179  0.5582
  805MOL0     C10958   3.218   5.761  -0.130  1.0905 -1.0354  0.0340
  805MOL0     C10959   3.320   5.674  -0.168  0.0856  0.6998  0.0001
  805MOL0     O10960   3.285   5.557  -0.235  0.0121 -0.2686 -0.8781
  805MOL0     C10961   3.154   5.495  -0.217 -0.0735  0.0220 -0.2789
  805MOL0     C10962   3.056   5.537  -0.341 -0.5306  0.0278  0.7009
  805MOL0     C10963   2.939   5.448  -0.357  0.9353  0.6201 -0.3193
  805MOL0     C10964   2.849   5.478  -0.480 -0.8349  0.7115 -0.1230
  805MOL0     C10965   2.713   5.400  -0.473 -0.6481 -0.2971 -0.0763
  805MOL0     C10966   2.606   5.477  -0.561  0.4532  0.0777  0.0308
  805MOL0     C10967   2.469   5.418  -0.591 -0.0776  0.0400 -1.1651
  805MOL0     C10968   2.370   5.526  -0.631 -0.1902  0.5623 -0.2975
  805MOL0     N10969   2.231   5.480  -0.654 -0.9987 -0.4547  0.3319
  805MOL0     C10970   2.208   5.366  -0.730  0.8213  0.6748  0.2685
  805MOL0     C10971   2.069   5.358  -0.721 -0.4560  0.1204  1.1887
  805MOL0     C10972   1.985   5.265  -0.801  0.1566  0.1971 -0.0133
  805MOL0     C10973   1.853   5.318  -0.846  0.5516  1.4085 -0.6857
  805MOL0     C10974   1.863   5.429  -0.950  0.0717 -1.0252  0.9570
  805MOL0     C10975   1.734   5.480  -1.011  0.3283  0.0408  0.1197
  805MOL0     O10976   1.749   5.501  -1.154  0.7299  0.7135 -0.6957
  805MOL0     C10977   1.630   5.504  -1.234 -0.1024 -0.7250 -0.1967
  805MOL0     C10978   1.505   5.453  -1.201  0.7571 -0.3728  0.1838
  805MOL0     C10979   1.391   5.460  -1.289 -0.2861 -0.0749 -0.3049
  805MOL0     C10980   1.267   5.387  -1.234  0.4277  0.2444  0.1349
  805MOL0     C10981   1.406   5.503  -1.422  0.2505 -0.0995  0.4563
  805MOL0     C10982   1.298   5.510  -1.522  0.1574 -1.0294  0.6307
  805MOL0     O10983   1.163   5.480  -1.490  0.1802 -0.1457 -0.4871
  805MOL0     C10984   1.073   5.425  -1.569  0.5104  0.0997  0.9043
  805MOL0     C10985   0.946   5.415  -1.518 -0.4701 -0.1575  0.6550
  805MOL0     C10986   0.834   5.384  -1.598 -0.1606  1.4543  1.1293
  805MOL0     C10987   0.849   5.330  -1.732 -1.0109  0.5932  1.2500
  805MOL0     O10988   0.750   5.285  -1.817  0.0349 -0.0902  0.2127
  805MOL0     C10989   0.623   5.239  -1.759 -0.3153 -0.1298 -1.2338
  805MOL0     C10990   0.527   5.348  -1.768 -0.3792 -0.4295 -0.3517
  805MOL0     C10991   0.401   5.309  -1.692 -0.0035 -1.2749 -0.7058
  805MOL0     C10992   0.333   5.446  -1.659  1.3480  0.7462  0.3490
  805MOL0     C10993   0.188   5.415  -1.612 -1.0312  0.2630  0.6786
  805MOL0     C10994   0.116   5.535  -1.530  1.4496  0.6032  0.5250
  805MOL0     C10995  -0.039   5.509  -1.533 -0.3638  0.3167 -0.3660
  805MOL0     C10996  -0.126   5.566  -1.421  0.2992  1.0094  0.0219
  805MOL0    Cl10997  -0.079   5.520  -1.253 -0.5564 -0.5157  0.0937
  805MOL0     C10998   0.983   5.323  -1.775  0.3473  0.3766  0.5145
  805MOL0     C10999   1.091   5.366  -1.700  0.6520 -0.1615  0.1401
  805MOL0     O11000   1.334   5.533  -1.639  0.1622 -0.5924  0.3260
  805MOL0     C11001   1.533   5.561  -1.447  0.1266 -0.3368  0.8389
  805MOL0     C11002   1.643   5.558  -1.364  0.1602 -0.5790 -1.0164
  805MOL0     N11003   2.018   5.453  -0.634  0.2103  0.2537 -0.1521
  805MOL0     N11004   2.116   5.534  -0.600 -0.0171  0.2180 -0.0814
  805MOL0     C11005   3.449   5.699  -0.120 -0.1973  0.3416  0.0784
  805MOL0     C11006   3.491   5.816  -0.048 -0.7216  0.9874  0.3338
  805MOL0     C11007   3.441   6.103   0.297 -0.1830  0.0686  0.4469
  805MOL0     C11008   3.400   6.228   0.248  0.0526 -0.0513 -0.1896
  805MOL0     C11009   3.394   6.345   0.326 -0.0338  0.4668 -0.1998
  805MOL0     C11010   3.417   6.337   0.464  0.4015  0.2533  0.4890
  805MOL0     O11011   3.425   6.445   0.553  0.0439 -0.2311  0.9964
  805MOL0     C11012   3.342   6.564   0.527  0.5694 -0.2917 -0.5834
  805MOL0     C11013   3.392   6.693   0.594  0.7379 -0.0017  0.3918
  805MOL0     C11014   3.532   6.747   0.575 -0.7411  0.2604 -0.6894
  805MOL0     C11015   3.600   6.697   0.447  0.1328 -0.3048 -0.6845
  805MOL0     C11016   3.703   6.781   0.400  0.2765 -0.3087 -0.6966
  805MOL0     C11017   3.798   6.849   0.366  0.1415 -0.9493 -0.3481
  805MOL0     C11018   3.459   6.218   0.508 -0.0303 -0.4037  0.0719
  805MOL0     C11019   3.473   6.098   0.434  0.1978 -0.7741 -0.0891
  805MOL0     C11020   3.500   5.975   0.511  0.2220 -0.0093 -0.9004
  805MOL0     H11021   3.177   5.941  -0.014 -1.6286 -1.1046 -0.7130
  805MOL0     H11022   3.119   5.742  -0.171  1.7989 -1.2659 -1.6584
  805MOL0     H11023   3.117   5.521  -0.117 -0.0370  3.5156 -1.0458
  805MOL0     H11024   3.160   5.386  -0.212  0.7033  0.1014  1.4347
  805MOL0     H11025   3.023   5.640  -0.326 -0.1014  0.2228  0.3158
  805MOL0     H11026   3.107   5.531  -0.437 -1.4082  4.1278 -0.1732
  805MOL0     H11027   2.975   5.345  -0.366  1.0509  0.5797  0.5220
  805MOL0     H11028   2.880   5.445  -0.265 -0.8545  0.4978 -1.4220
  805MOL0     H11029   2.821   5.583  -0.485 -0.2715  0.9927  1.6398
  805MOL0     H11030   2.899   5.463  -0.576 -2.1397 -0.2040 -0.6943
  805MOL0     H11031   2.688   5.401  -0.367  1.7668  1.3717  0.5747
  805MOL0     H11032   2.725   5.300  -0.515 -0.2595  0.1212 -1.0130
  805MOL0     H11033   2.605   5.574  -0.510  1.4823  0.4864 -0.6927
  805MOL0     H11034   2.653   5.479  -0.660  0.0306  0.1022 -0.1725
  805MOL0     H11035   2.426   5.365  -0.505 -0.4075 -0.7053 -1.7694
  805MOL0     H11036   2.476   5.348  -0.675  0.5781 -1.2688 -0.0746
  805MOL0     H11037   2.369   5.605  -0.555  2.0627 -1.0434  1.5134
  805MOL0     H11038   2.403   5.574  -0.724  1.4311  3.0875  1.4408
  805MOL0     H11039   2.273   5.314  -0.800 -1.6325  1.5204 -2.8878
  805MOL0     H11040   1.997   5.168  -0.753  4.1179  0.6005  0.1773
  805MOL0     H11041   2.037   5.230  -0.891 -0.5488  0.2724 -0.4622
  805MOL0     H11042   1.801   5.233  -0.891  0.9227  1.2710 -0.8622
  805MOL0     H11043   1.790   5.344  -0.760 -0.4797 -2.6679 -0.0206
  805MOL0     H11044   1.909   5.520  -0.910  1.4525 -1.6914  0.9176
  805MOL0     H11045   1.913   5.389  -1.038 -2.0664 -1.8580  0.0488
  805MOL0     H11046   1.661   5.399  -1.003 -2.5984  2.2960 -1.8162
  805MOL0     H11047   1.694   5.568  -0.958 -0.3726 -1.7126  2.7369
  805MOL0     H11048   1.477   5.412  -1.104 -2.0005  0.4177 -0.1787
  805MOL0     H11049   1.283   5.357  -1.130  0.0982 -0.6377 -0.0614
  805MOL0     H11050   1.242   5.304  -1.300  0.7824  0.6300 -0.4888
  805MOL0     H11051   1.186   5.460  -1.236 -0.4979 -0.7760 -2.0225
  805MOL0     H11052   0.935   5.449  -1.416 -1.2621 -0.2032  0.5923
  805MOL0     H11053   0.731   5.381  -1.565 -0.6354  2.2466 -0.1727
  805MOL0     H11054   0.584   5.152  -1.813  0.6056 -2.0011  0.9466
  805MOL0     H11055   0.645   5.195  -1.662  0.9520 -4.4412 -3.2435
  805MOL0     H11056   0.566   5.442  -1.728 -0.0992 -0.1195 -1.3447
  805MOL0     H11057   0.522   5.372  -1.874 -1.4856  3.0867  0.3823
  805MOL0     H11058   0.435   5.268  -1.596  1.4608  1.7549  0.2430
  805MOL0     H11059   0.344   5.240  -1.753 -1.5512 -0.6333 -0.0397
  805MOL0     H11060   0.328   5.516  -1.743  0.2063  0.5428  0.2335
  805MOL0     H11061   0.393   5.495  -1.581  0.0661  2.0254  0.5685
  805MOL0     H11062   0.140   5.389  -1.706 -1.7030 -0.0360  1.1023
  805MOL0     H11063   0.186   5.323  -1.553 -2.0718  0.2604  0.6472
  805MOL0     H11064   0.135   5.632  -1.577  0.1403  0.0411 -1.2721
  805MOL0     H11065   0.144   5.542  -1.425 -1.1255  0.1075  1.3262
  805MOL0     H11066  -0.047   5.400  -1.536  5.2131 -0.3910 -2.1963
  805MOL0     H11067  -0.069   5.544  -1.632  3.5032 -1.9754 -2.6097
  805MOL0     H11068  -0.230   5.539  -1.439  0.0449  1.4598  0.7521
  805MOL0     H11069  -0.121   5.675  -1.425 -0.6120  1.0395 -3.9746
  805MOL0     H11070   1.014   5.271  -1.865  1.0593 -1.2840  1.6710
  805MOL0     H11071   1.193   5.357  -1.736  0.6458 -0.3049  0.1601
  805MOL0     H11072   1.548   5.599  -1.547  2.0905  1.2992  1.6854
  805MOL0     H11073   1.741   5.592  -1.396 -0.3318  2.9426  0.7417
  805MOL0     H11074   3.523   5.626  -0.150  0.7676  1.5908 -0.6803
  805MOL0     H11075   3.593   5.837  -0.018 -0.1605 -1.0264  0.0100
  805MOL0     H11076   3.375   6.242   0.144  2.5078 -1.4919 -1.0384
  805MOL0     H11077   3.381   6.438   0.271 -0.1215 -0.2930 -1.5107
  805MOL0     H11078   3.334   6.583   0.420  0.7408 -1.4615 -0.8184
  805MOL0     H11079   3.245   6.537   0.570  0.6242 -1.3262 -1.0826
  805MOL0     H11080   3.360   6.684   0.698  0.9872  4.0151  0.9479
  805MOL0     H11081   3.321   6.766   0.552 -2.6519 -2.1601  1.8828
  805MOL0     H11082   3.520   6.855   0.583 -1.8497  0.1363 -0.3947
  805MOL0     H11083   3.595   6.723   0.661 -1.4776 -0.6864 -0.3899
  805MOL0     H11084   3.527   6.702   0.366 -3.0654 -0.0116  2.0070
  805MOL0     H11085   3.634   6.595   0.466 -1.7180 -0.9187 -0.5654
  805MOL0     H11086   3.876   6.917   0.337 -0.7001  0.7688  1.1892
  805MOL0     H11087   3.474   6.226   0.615 -2.5124 -0.7139  0.5099
  805MOL0     H11088   3.510   6.003   0.617 -1.2430  2.1391 -1.2590
  805MOL0     H11089   3.414   5.908   0.505 -0.6483  0.8650  0.7794
  805MOL0     H11090   3.591   5.927   0.475 -1.2515 -5.1120  1.2655
  806MOL0     O11091   1.447   1.001   4.887  0.8537 -0.3001  0.4671
  806MOL0     C11092   1.412   0.898   4.951 -1.7607  0.7260  0.0610
  806MOL0     O11093   1.305   0.815   4.920  1.1973  0.5057 -0.5772
  806MOL0     C11094   1.296   0.779   4.789 -0.2472 -0.0093  0.4790
  806MOL0     C11095   1.229   0.859   4.691 -1.1536  0.4249  0.2713
  806MOL0     C11096   1.233   0.827   4.551  0.9397 -0.4146 -0.8140
  806MOL0     C11097   1.288   0.713   4.503  0.3823  0.9710 -0.2122
  806MOL0     O11098   1.289   0.678   4.372 -0.2160 -0.2689  0.0346
  806MOL0     C11099   1.251   0.777   4.273  0.2900 -0.3605  0.2099
  806MOL0     C11100   1.272   0.726   4.124  0.1827 -0.2665 -1.0071
  806MOL0     C11101   1.227   0.573   4.113  0.1234 -0.5310 -0.6807
  806MOL0     C11102   1.228   0.524   3.963  1.0184 -1.0561  0.1375
  806MOL0     C11103   1.148   0.401   3.948  0.4769  0.5134 -0.2820
  806MOL0     C11104   1.207   0.277   4.028  0.4757 -0.6976 -0.0937
  806MOL0     C11105   1.312   0.200   3.946 -0.4500 -0.1433  0.6413
  806MOL0     C11106   1.383   0.085   4.020  0.5218  0.4347 -0.5128
  806MOL0     N11107   1.481   0.152   4.113 -0.1872  0.1262  0.5019
  806MOL0     C11108   1.617   0.175   4.081 -0.2469  0.7916 -0.3369
  806MOL0     C11109   1.661   0.240   4.193  0.3996  0.6145  0.0570
  806MOL0     C11110   1.794   0.305   4.195  0.2534  0.6664 -0.1484
  806MOL0     C11111   1.828   0.355   4.333  0.2343  0.6262 -1.6092
  806MOL0     C11112   1.883   0.239   4.426  0.4946  0.0932  0.1266
  806MOL0     C11113   1.966   0.295   4.535 -0.9337 -1.2440 -0.1244
  806MOL0     O11114   1.947   0.208   4.653 -0.3487  0.3671  0.5622
  806MOL0     C11115   2.040   0.135   4.715 -0.0558 -0.2606 -0.4586
  806MOL0     C11116   1.988   0.034   4.798  0.6513  1.4160 -0.4270
  806MOL0     C11117   2.067  -0.069   4.856  0.4865 -0.4243  0.2458
  806MOL0     C11118   1.998  -0.178   4.937 -0.5346 -0.3611  0.7918
  806MOL0     C11119   2.203  -0.055   4.847 -0.7068 -0.3850 -0.5180
  806MOL0     C11120   2.303  -0.155   4.895  0.3434  0.3739  0.3428
  806MOL0     O11121   2.250  -0.277   4.942 -0.0287  0.0820 -0.2941
  806MOL0     C11122   2.341  -0.370   4.992  0.6996  0.1352  0.3860
  806MOL0     C11123   2.308  -0.433   5.117 -0.9413 -0.4159  0.2286
  806MOL0     C11124   2.394  -0.531   5.175 -0.8830 -0.0981 -0.5164
  806MOL0     C11125   2.517  -0.552   5.128 -0.9349 -0.1560 -0.2982
  806MOL0     O11126   2.619  -0.637   5.173  0.6388  0.2629 -0.8531
  806MOL0     C11127   2.582  -0.747   5.256 -0.6916 -0.5304  1.0458
  806MOL0     C11128   2.690  -0.848   5.268 -0.3495 -0.1071  1.1312
  806MOL0     C11129   2.744  -0.879   5.124 -0.5396 -0.6425 -0.0738
  806MOL0     C11130   2.888  -0.933   5.145 -0.2071  1.0884  0.0158
  806MOL0     C11131   2.995  -0.843   5.211  0.6567 -0.3242  0.2403
  806MOL0     C11132   3.150  -0.879   5.196 -0.1284 -0.0597 -0.4151
  806MOL0     C11133   3.232  -0.867   5.331  1.0518 -0.5850  0.0096
  806MOL0     C11134   3.217  -0.980   5.424 -0.8633  0.3950  0.2832
  806MOL0    Cl11135   3.302  -1.126   5.369  0.6109  0.4014 -0.0413
  806MOL0     C11136   2.551  -0.491   5.012 -0.9927  0.1348  0.7038
  806MOL0     C11137   2.467  -0.402   4.940  0.6923 -0.2139 -0.2026
  806MOL0     O11138   2.421  -0.124   4.896 -0.1626  0.6597  0.0782
  806MOL0     C11139   2.258   0.057   4.769 -0.7216 -0.4289 -0.4015
  806MOL0     C11140   2.184   0.145   4.690 -0.1170 -0.2703  0.0570
  806MOL0     N11141   1.555   0.241   4.290 -0.9586 -0.5818  0.5637
  806MOL0     N11142   1.450   0.194   4.238  0.0762  0.7337 -0.0887
  806MOL0     C11143   1.358   0.633   4.599  0.8908 -0.0754  0.3453
  806MOL0     C11144   1.354   0.666   4.736  0.8275  0.0635 -0.3831
  806MOL0     C11145   1.486   0.873   5.076  0.2989  0.4888 -0.2233
  806MOL0     C11146   1.547   0.745   5.097 -0.3943 -0.2360 -0.2195
  806MOL0     C11147   1.619   0.716   5.208  0.1248  0.2869  0.8855
  806MOL0     C11148   1.636   0.817   5.301 -0.7422 -0.2847 -0.4432
  806MOL0     O11149   1.713   0.791   5.412  0.2231 -0.1339 -0.0886
  806MOL0     C11150   1.850   0.820   5.392  0.0735 -0.2558  0.8254
  806MOL0     C11151   1.940   0.702   5.432  0.8221  0.3027  0.0840
  806MOL0     C11152   1.905   0.569   5.366 -0.7816 -0.1705 -0.4910
  806MOL0     C11153   2.031   0.481   5.362  0.0612 -0.5071  1.1981
  806MOL0     C11154   2.138   0.523   5.269  0.0282  1.4052  0.1091
  806MOL0     C11155   2.229   0.532   5.196 -0.6472 -0.6511 -0.1791
  806MOL0     C11156   1.589   0.950   5.289 -0.8887 -1.7263 -0.4389
  806MOL0     C11157   1.509   0.974   5.168  0.3133 -0.2216 -0.9306
  806MOL0     C11158   1.445   1.110   5.160  0.4663 -0.4425 -0.6227
  806MOL0     H11159   1.175   0.948   4.720  0.8403  2.8302 -2.8199
  806MOL0     H11160   1.178   0.900   4.492 -1.8030  0.1591  2.1458
  806MOL0     H11161   1.312   0.865   4.292  2.1585 -2.1025  2.9665
  806MOL0     H11162   1.144   0.791   4.287  0.3026  0.1689 -0.1841
  806MOL0     H11163   1.223   0.793   4.053  1.1184 -0.4241 -1.8204
  806MOL0     H11164   1.379   0.730   4.100 -0.1527 -0.7364 -2.6997
  806MOL0     H11165   1.298   0.519   4.175 -0.0021  1.1075  0.9879
  806MOL0     H11166   1.127   0.554   4.152  0.8865 -0.9038  1.1664
  806MOL0     H11167   1.193   0.596   3.889  2.1676 -0.0916  0.4995
  806MOL0     H11168   1.328   0.504   3.922  1.0109 -2.0938  0.5931
  806MOL0     H11169   1.151   0.373   3.842  2.6143 -1.7746  0.3066
  806MOL0     H11170   1.042   0.417   3.972  0.2542  0.9496 -1.4610
  806MOL0     H11171   1.247   0.318   4.122 -0.3557  2.7370 -1.0781
  806MOL0     H11172   1.126   0.206   4.044  2.1754 -3.2622 -1.9526
  806MOL0     H11173   1.379   0.265   3.888 -2.7564 -0.2140 -2.3797
  806MOL0     H11174   1.250   0.145   3.874 -0.2354 -0.7097  0.8847
  806MOL0     H11175   1.314   0.028   4.083  2.2671  1.4398  2.5283
  806MOL0     H11176   1.436   0.025   3.946 -1.9761 -1.9296 -0.5249
  806MOL0     H11177   1.679   0.155   3.995  4.0201  0.5713  2.4624
  806MOL0     H11178   1.793   0.383   4.119  0.5686 -0.8335 -1.7569
  806MOL0     H11179   1.871   0.241   4.149 -0.9789 -0.4378 -0.7295
  806MOL0     H11180   1.904   0.433   4.325 -0.4633  1.6704  1.0868
  806MOL0     H11181   1.741   0.406   4.376 -0.0890  1.2757 -2.9804
  806MOL0     H11182   1.800   0.180   4.465  0.0021 -0.9986 -2.3356
  806MOL0     H11183   1.945   0.170   4.368 -0.7196 -1.6163  0.8120
  806MOL0     H11184   2.066   0.307   4.492 -0.6732 -0.7492  0.5999
  806MOL0     H11185   1.922   0.388   4.572  0.4342 -1.5404  2.5248
  806MOL0     H11186   1.879   0.035   4.804  0.5432  2.7836 -1.9820
  806MOL0     H11187   2.047  -0.199   5.033  3.7387  0.4929 -0.9870
  806MOL0     H11188   2.010  -0.270   4.880  0.3005  0.0142  0.3473
  806MOL0     H11189   1.893  -0.164   4.963 -0.3469  1.9283  0.5128
  806MOL0     H11190   2.209  -0.417   5.159  0.2759  3.5063  2.0547
  806MOL0     H11191   2.362  -0.577   5.268 -1.7328  1.2057 -0.1384
  806MOL0     H11192   2.551  -0.699   5.349 -2.5640  1.5974 -0.5362
  806MOL0     H11193   2.498  -0.801   5.211  1.5102 -2.3630 -1.1304
  806MOL0     H11194   2.773  -0.813   5.329  0.0132  2.5406 -0.7136
  806MOL0     H11195   2.650  -0.941   5.309  0.5935 -1.6340 -1.1863
  806MOL0     H11196   2.749  -0.792   5.057  2.2601  0.8509  1.8499
  806MOL0     H11197   2.684  -0.959   5.079  0.1813 -0.0309 -2.2395
  806MOL0     H11198   2.914  -0.961   5.043 -1.3459  0.4788 -0.1253
  806MOL0     H11199   2.879  -1.022   5.209  1.4266  0.4890 -0.5428
  806MOL0     H11200   2.976  -0.747   5.162  0.6280 -0.2023  0.4870
  806MOL0     H11201   2.977  -0.829   5.318  0.6148 -1.1796  0.3472
  806MOL0     H11202   3.193  -0.808   5.125  0.0300  0.6566  0.3840
  806MOL0     H11203   3.158  -0.977   5.149  0.3221  0.2074 -0.9064
  806MOL0     H11204   3.210  -0.772   5.379  0.6570 -0.3668 -0.5971
  806MOL0     H11205   3.337  -0.859   5.302  0.7046 -2.2621 -2.0174
  806MOL0     H11206   3.110  -1.002   5.435 -1.0462  0.8490 -0.4938
  806MOL0     H11207   3.255  -0.953   5.523  0.3773  0.8137 -0.2909
  806MOL0     H11208   2.643  -0.513   4.959 -0.7917  1.4364  0.4685
  806MOL0     H11209   2.500  -0.359   4.846 -1.0026 -1.6045 -1.5044
  806MOL0     H11210   2.364   0.077   4.755 -0.9622 -0.0931 -1.9654
  806MOL0     H11211   2.220   0.210   4.611 -2.0723 -3.0070 -3.4374
  806MOL0     H11212   1.418   0.552   4.559  2.6062  2.1070 -1.8245
  806MOL0     H11213   1.414   0.598   4.796  1.9584 -0.4083 -1.9916
  806MOL0     H11214   1.512   0.676   5.021 -3.8228  0.1514  0.8361
  806MOL0     H11215   1.657   0.615   5.214  0.9245  0.5029 -0.1931
  806MOL0     H11216   1.868   0.842   5.286 -0.6109 -0.3990  0.6745
  806MOL0     H11217   1.883   0.909   5.447  2.5770 -0.4126 -0.2663
  806MOL0     H11218   1.918   0.686   5.538  2.0920 -0.5018  0.2527
  806MOL0     H11219   2.045   0.731   5.426  1.3178 -0.8636  1.9611
  806MOL0     H11220   1.828   0.526   5.431  1.5507 -1.6657  1.4647
  806MOL0     H11221   1.875   0.584   5.262  3.7373  0.9809 -1.8612
  806MOL0     H11222   1.975   0.392   5.332 -2.2718  0.8975  1.2056
  806MOL0     H11223   2.075   0.451   5.458  0.5655 -0.3531  1.0219
  806MOL0     H11224   2.297   0.538   5.114 -1.3885 -4.0740 -1.2196
  806MOL0     H11225   1.597   1.019   5.372 -0.9996 -1.5681 -0.5590
  806MOL0     H11226   1.477   1.175   5.079 -1.8865 -0.2471 -1.4797
  806MOL0     H11227   1.339   1.098   5.133 -0.0391  4.1130 -1.4344
  806MOL0     H11228   1.434   1.162   5.255  1.0646  0.7317 -1.1785
  807MOL0     O11229  10.647   3.267   3.026  1.4945  0.3585 -0.1998
  807MOL0     C11230  10.543   3.209   2.977  0.7580  0.9956 -0.2003
  807MOL0     O11231  10.514   3.203   2.839  0.1103  0.6810 -0.9784
  807MOL0     C11232  10.566   3.304   2.768 -1.4193  0.0634  0.3972
  807MOL0     C11233  10.657   3.274   2.667 -0.0306 -0.1160 -0.1845
  807MOL0     C11234  10.716   3.372   2.586 -1.5311  0.3554 -0.0820
  807MOL0     C11235  10.686   3.507   2.609  0.2198 -0.5371  0.5395
  807MOL0     O11236  10.754   3.605   2.532 -0.5609 -0.6258 -0.7166
  807MOL0     C11237  10.669   3.718   2.498 -0.4473  0.0855 -0.2713
  807MOL0     C11238  10.725   3.792   2.374 -1.0947 -0.6911  0.2603
  807MOL0     C11239  10.772   3.698   2.264  0.7545 -0.4911  0.4493
  807MOL0     C11240  10.848   3.765   2.150  0.0681  0.7936 -1.2276
  807MOL0     C11241  10.877   3.662   2.038 -0.2841 -0.3907 -0.4020
  807MOL0     C11242  10.759   3.588   1.973 -0.0570 -0.3614 -0.1637
  807MOL0     C11243  10.800   3.539   1.840  0.2496 -0.2572 -0.4307
  807MOL0     C11244  10.687   3.481   1.752  0.4328 -0.2522  0.3806
  807MOL0     N11245  10.658   3.339   1.776 -0.5912 -0.5564 -0.0923
  807MOL0     C11246  10.566   3.280   1.854  0.3632 -0.5166  0.8776
  807MOL0     C11247  10.558   3.151   1.807 -0.4684 -0.2700  0.6952
  807MOL0     C11248  10.464   3.055   1.861  0.3531  0.2869  0.5859
  807MOL0     C11249  10.332   3.064   1.786 -1.1305  1.3398  0.2713
  807MOL0     C11250  10.238   2.974   1.859 -0.4583 -0.2874 -0.0262
  807MOL0     C11251  10.101   2.997   1.810 -0.0263 -0.4106  0.4229
  807MOL0     O11252  10.001   2.914   1.855 -0.0642  0.1947  0.0588
  807MOL0     C11253   9.869   2.944   1.853 -0.0033 -0.2941  1.7097
  807MOL0     C11254   9.815   3.057   1.794 -0.2858  0.4065  0.4385
  807MOL0     C11255   9.678   3.075   1.781  0.6629 -0.8371 -0.6195
  807MOL0     C11256   9.617   3.196   1.716 -0.1947 -0.6601  0.5429
  807MOL0     C11257   9.594   2.976   1.835  0.2225  0.9932  0.3090
  807MOL0     C11258   9.450   2.974   1.821  0.0824  0.9203 -0.2392
  807MOL0     O11259   9.377   2.982   1.939 -0.4493  0.0936 -0.7488
  807MOL0     C11260   9.243   2.966   1.945  0.2175 -0.8821 -0.1075
  807MOL0     C11261   9.160   2.888   1.860 -0.4710  0.5863 -0.4176
  807MOL0     C11262   9.020   2.871   1.890 -0.3135 -0.1680  0.8532
  807MOL0     C11263   8.962   2.942   1.993 -0.8385 -0.2886 -0.8791
  807MOL0     O11264   8.836   2.906   2.045  0.0734 -1.0289  0.0383
  807MOL0     C11265   8.753   2.813   1.965  0.1256 -0.3809  0.5719
  807MOL0     C11266   8.617   2.809   2.038 -0.4268  0.1788  0.2093
  807MOL0     C11267   8.569   2.950   2.046  0.0232 -1.3388 -0.5277
  807MOL0     C11268   8.427   2.943   2.103 -0.1984  0.3364 -0.0855
  807MOL0     C11269   8.371   3.080   2.118 -0.1671 -0.5730 -0.0006
  807MOL0     C11270   8.238   3.083   2.194 -0.1450 -0.4526 -0.1804
  807MOL0     C11271   8.166   3.206   2.148 -0.8416 -0.3268 -0.8483
  807MOL0     C11272   8.048   3.224   2.247 -0.0859 -0.4417 -0.2389
  807MOL0    Cl11273   8.113   3.249   2.416 -0.2991  0.1901 -0.1146
  807MOL0     C11274   9.040   3.014   2.075 -0.3578  0.6906 -0.5591
  807MOL0     C11275   9.177   3.025   2.052  0.0068 -0.5885  0.3466
  807MOL0     O11276   9.400   2.978   1.704 -0.0144 -0.9591  0.1128
  807MOL0     C11277   9.648   2.864   1.913 -0.5782 -0.0347  0.4066
  807MOL0     C11278   9.790   2.854   1.921  0.5627  1.5003 -0.8663
  807MOL0     N11279  10.634   3.142   1.697 -0.2519  0.1253 -0.4838
  807MOL0     N11280  10.700   3.252   1.676 -0.4233 -0.0204 -0.2189
  807MOL0     C11281  10.592   3.539   2.713 -0.6672  0.3462  0.9740
  807MOL0     C11282  10.528   3.441   2.787 -0.6279  1.0863 -0.7002
  807MOL0     C11283  10.453   3.137   3.071 -0.2841  0.1333 -0.4425
  807MOL0     C11284  10.394   3.015   3.027 -0.0399 -0.1682  0.3729
  807MOL0     C11285  10.323   2.943   3.129 -0.2879 -0.0163 -0.4555
  807MOL0     C11286  10.301   2.983   3.262 -0.4936  0.1878 -0.0052
  807MOL0     O11287  10.241   2.902   3.353  0.4345 -0.0899  0.6603
  807MOL0     C11288  10.099   2.925   3.384 -0.4616  0.4671 -0.4427
  807MOL0     C11289  10.044   2.812   3.467 -0.5177 -1.0121  0.1962
  807MOL0     C11290   9.910   2.832   3.523  0.4524 -0.1125 -0.5568
  807MOL0     C11291   9.854   2.695   3.570 -0.4395  0.3396  0.0160
  807MOL0     C11292   9.727   2.694   3.649 -0.5920 -0.9414 -0.2247
  807MOL0     C11293   9.630   2.689   3.713  0.4672 -0.2876  0.0938
  807MOL0     C11294  10.367   3.103   3.297  0.0791  0.9284 -0.0723
  807MOL0     C11295  10.436   3.183   3.204  0.0968  0.2217 -0.3493
  807MOL0     C11296  10.503   3.307   3.259  0.0648 -0.0582 -0.0729
  807MOL0     H11297  10.672   3.172   2.634  0.2548  0.1233 -0.8244
  807MOL0     H11298  10.783   3.344   2.505 -0.8548 -1.6726  1.1360
  807MOL0     H11299  10.671   3.791   2.579  1.4460  1.7984 -1.7640
  807MOL0     H11300  10.571   3.682   2.464  0.1636 -1.8832 -0.0941
  807MOL0     H11301  10.651   3.857   2.326 -0.7172 -0.4192  0.0496
  807MOL0     H11302  10.806   3.855   2.412 -2.2779  0.7506  0.4910
  807MOL0     H11303  10.831   3.610   2.292  0.8529 -0.2665  0.9467
  807MOL0     H11304  10.686   3.657   2.211  1.5307  1.5017 -2.6386
  807MOL0     H11305  10.782   3.846   2.115 -2.7150 -1.1670 -0.8774
  807MOL0     H11306  10.943   3.808   2.181  0.5607  0.7317 -2.5953
  807MOL0     H11307  10.947   3.585   2.074 -1.8891 -2.3429 -1.2547
  807MOL0     H11308  10.942   3.716   1.969  0.9021 -1.9781 -0.6062
  807MOL0     H11309  10.738   3.501   2.035  1.9583 -1.1303 -0.4702
  807MOL0     H11310  10.672   3.654   1.979 -0.9424 -1.5769  1.0372
  807MOL0     H11311  10.880   3.465   1.851  0.3753 -0.9507 -4.4099
  807MOL0     H11312  10.838   3.630   1.793  0.0026 -1.1799 -2.5384
  807MOL0     H11313  10.598   3.545   1.755  0.8603  0.7099 -3.1202
  807MOL0     H11314  10.721   3.494   1.649 -0.1738 -0.6450  0.1228
  807MOL0     H11315  10.510   3.328   1.933 -0.0470 -0.7436  0.7262
  807MOL0     H11316  10.450   3.074   1.968  1.5995  2.2088  0.4625
  807MOL0     H11317  10.505   2.954   1.848 -1.5824 -0.4560 -0.0728
  807MOL0     H11318  10.291   3.165   1.793  1.7393  2.7657 -1.7228
  807MOL0     H11319  10.347   3.044   1.680 -1.6949  1.9703  0.0708
  807MOL0     H11320  10.260   2.872   1.827 -0.4984 -0.0805 -0.7411
  807MOL0     H11321  10.251   2.981   1.967  2.2133  1.3417 -0.3580
  807MOL0     H11322  10.074   3.097   1.843  1.4338 -0.0198  0.4727
  807MOL0     H11323  10.084   2.993   1.702 -3.3389 -0.0339  0.8383
  807MOL0     H11324   9.878   3.133   1.750 -1.1259  0.8152 -0.0872
  807MOL0     H11325   9.659   3.286   1.764 -1.6121  0.1049  0.3892
  807MOL0     H11326   9.508   3.191   1.719 -0.7221  4.5256 -0.2953
  807MOL0     H11327   9.650   3.200   1.612 -0.7814  0.7464  0.3883
  807MOL0     H11328   9.192   2.833   1.772 -1.1736  0.5631 -0.6613
  807MOL0     H11329   8.945   2.823   1.827 -0.2047 -1.8161  1.9189
  807MOL0     H11330   8.725   2.855   1.868 -3.6113  1.6880  2.3270
  807MOL0     H11331   8.790   2.710   1.960  0.3719 -0.2913 -4.6452
  807MOL0     H11332   8.542   2.751   1.982 -0.9924  2.1556 -1.1749
  807MOL0     H11333   8.624   2.778   2.143 -4.1859  1.9230  1.1665
  807MOL0     H11334   8.581   2.992   1.946  3.2170  2.3894  1.1341
  807MOL0     H11335   8.625   3.014   2.115 -0.3209 -1.6832  0.0723
  807MOL0     H11336   8.442   2.898   2.202  0.5632 -0.7656 -0.6816
  807MOL0     H11337   8.360   2.874   2.051 -1.2384  0.8519  0.5241
  807MOL0     H11338   8.438   3.152   2.167 -1.3261 -1.1584  2.6339
  807MOL0     H11339   8.357   3.105   2.013  0.8276 -3.3715 -0.8742
  807MOL0     H11340   8.254   3.073   2.301 -1.4567 -1.4803 -0.0506
  807MOL0     H11341   8.168   3.003   2.166 -1.0162 -0.4062  1.7534
  807MOL0     H11342   8.127   3.195   2.046  0.2525 -3.3231 -1.0404
  807MOL0     H11343   8.236   3.290   2.159  0.2429 -1.4484  1.5138
  807MOL0     H11344   7.975   3.143   2.248  0.8135 -1.2789 -0.5465
  807MOL0     H11345   7.996   3.313   2.210  2.3472  0.8004 -0.9554
  807MOL0     H11346   8.995   3.050   2.167 -0.3444  0.3774 -0.4301
  807MOL0     H11347   9.237   3.068   2.132 -1.0389 -1.0401  1.4211
  807MOL0     H11348   9.593   2.785   1.962  1.2370 -1.1661  0.6883
  807MOL0     H11349   9.840   2.774   1.975 -2.0386  1.2218  1.3391
  807MOL0     H11350  10.561   3.639   2.740 -0.9649  1.0790 -1.7767
  807MOL0     H11351  10.467   3.474   2.871  0.0758 -0.3941  0.4370
  807MOL0     H11352  10.403   2.978   2.926 -2.4234 -1.3444  0.5066
  807MOL0     H11353  10.288   2.846   3.095  2.8459 -1.8616  1.1732
  807MOL0     H11354  10.090   3.019   3.440  3.1390  0.4318  0.4146
  807MOL0     H11355  10.038   2.938   3.293  1.4884  1.1755 -1.7069
  807MOL0     H11356  10.117   2.804   3.548  0.8983  3.3443 -0.4144
  807MOL0     H11357  10.054   2.724   3.403  0.6782 -1.8885  1.5047
  807MOL0     H11358   9.921   2.902   3.606 -1.0356 -0.5337  0.0434
  807MOL0     H11359   9.832   2.879   3.462 -0.0744  1.3550  1.1510
  807MOL0     H11360   9.936   2.641   3.619  0.7626  0.6744 -1.5371
  807MOL0     H11361   9.828   2.638   3.481 -0.0962  1.2527 -0.6854
  807MOL0     H11362   9.532   2.675   3.754  0.6482 -1.9057  0.0389
  807MOL0     H11363  10.370   3.132   3.402  3.8128 -0.7405  0.4219
  807MOL0     H11364  10.463   3.330   3.359 -1.2435 -2.0638 -0.0679
  807MOL0     H11365  10.611   3.308   3.272  0.2344 -1.1564 -1.2812
  807MOL0     H11366  10.475   3.392   3.197 -1.5297 -0.0558  0.5775
  808MOL0     O11367   7.361   7.402   5.046 -0.0287  0.3200  0.2601
  808MOL0     C11368   7.372   7.503   4.982  1.3215 -0.6405 -0.1646
  808MOL0     O11369   7.481   7.576   4.963  0.9527  0.0629 -0.1974
  808MOL0     C11370   7.602   7.541   5.007  0.9819  1.2209 -1.0245
  808MOL0     C11371   7.710   7.542   4.918  0.7168 -0.4870  0.1188
  808MOL0     C11372   7.846   7.510   4.957 -0.1731  0.4680 -0.6822
  808MOL0     C11373   7.873   7.472   5.088 -1.1034 -0.3556 -0.4039
  808MOL0     O11374   8.003   7.459   5.134  0.3521  0.8406 -0.2500
  808MOL0     C11375   8.100   7.392   5.049  0.0401  0.3355 -0.3053
  808MOL0     C11376   8.218   7.353   5.133 -0.8158  0.1012 -0.4303
  808MOL0     C11377   8.290   7.489   5.178 -0.4951 -0.6641 -0.0236
  808MOL0     C11378   8.438   7.461   5.244  0.2852 -0.0907 -0.7653
  808MOL0     C11379   8.407   7.384   5.377 -0.0885 -0.7462 -0.4385
  808MOL0     C11380   8.540   7.372   5.445  0.1450  0.3843  1.0108
  808MOL0     C11381   8.524   7.306   5.586 -0.4601  0.0057 -0.0508
  808MOL0     C11382   8.654   7.329   5.661  0.1356 -0.3244 -0.6923
  808MOL0     N11383   8.649   7.258   5.790  0.3129 -0.0192 -0.6599
  808MOL0     C11384   8.699   7.301   5.911 -0.5650 -0.3186  0.1253
  808MOL0     C11385   8.694   7.186   5.995 -0.8410 -0.6566  0.0597
  808MOL0     C11386   8.743   7.179   6.132  0.1341  0.5238  0.2888
  808MOL0     C11387   8.894   7.179   6.140  0.1816 -0.3234  0.3914
  808MOL0     C11388   8.965   7.066   6.060  0.4259 -0.4427  0.4717
  808MOL0     C11389   8.929   6.930   6.107 -0.1741  0.1268 -0.0625
  808MOL0     O11390   9.028   6.838   6.049  0.5368 -0.1675  0.4457
  808MOL0     C11391   8.999   6.782   5.925  0.4110 -0.0681 -0.7273
  808MOL0     C11392   8.882   6.793   5.851 -0.0508  0.1490  0.3286
  808MOL0     C11393   8.871   6.748   5.718  1.7169  0.1217  0.0967
  808MOL0     C11394   8.731   6.782   5.662 -0.1700 -0.6971 -0.0444
  808MOL0     C11395   8.986   6.690   5.655 -0.6237  0.4004 -0.3301
  808MOL0     C11396   8.991   6.639   5.514 -0.8404 -0.7255 -0.0950
  808MOL0     O11397   9.116   6.630   5.455  0.2182  0.8085 -0.7426
  808MOL0     C11398   9.133   6.564   5.334 -0.0683 -0.4404  0.4656
  808MOL0     C11399   9.216   6.621   5.241 -0.3205  1.1090  0.5694
  808MOL0     C11400   9.248   6.561   5.112 -0.4289 -0.0841 -0.2720
  808MOL0     C11401   9.199   6.433   5.085 -0.6405  0.6505 -0.0067
  808MOL0     O11402   9.222   6.358   4.976  0.1190 -0.4123 -0.1820
  808MOL0     C11403   9.199   6.424   4.847  0.4878 -0.8023  0.1774
  808MOL0     C11404   9.246   6.337   4.733 -0.8342 -0.7143  0.2011
  808MOL0     C11405   9.222   6.412   4.604  0.2077 -0.4424  0.2928
  808MOL0     C11406   9.270   6.322   4.477 -0.8425 -0.9294  0.6193
  808MOL0     C11407   9.156   6.302   4.380  0.0931 -0.1704  0.1301
  808MOL0     C11408   9.205   6.293   4.237  0.4714  0.0641  0.0317
  808MOL0     C11409   9.093   6.309   4.138 -0.4034  0.0320  0.3568
  808MOL0     C11410   8.973   6.216   4.155  0.4579  0.1752  0.2086
  808MOL0    Cl11411   9.029   6.042   4.130 -0.1645  0.2723  0.4228
  808MOL0     C11412   9.109   6.373   5.180 -0.2981  0.0450  0.2777
  808MOL0     C11413   9.077   6.440   5.301 -0.4527 -0.6499 -0.0724
  808MOL0     O11414   8.887   6.605   5.456  0.5203 -0.8927 -0.4304
  808MOL0     C11415   9.101   6.668   5.734  0.4372 -0.3054  0.4181
  808MOL0     C11416   9.100   6.715   5.870 -0.0442  0.3862  0.3999
  808MOL0     N11417   8.657   7.077   5.920 -0.9470 -0.1521  0.0230
  808MOL0     N11418   8.636   7.121   5.805 -0.1248 -0.4043 -0.0016
  808MOL0     C11419   7.770   7.455   5.174 -0.0186 -0.1174 -0.0488
  808MOL0     C11420   7.643   7.495   5.141  0.0838 -0.7313  0.7559
  808MOL0     C11421   7.255   7.548   4.912 -0.2073  0.1708  0.3053
  808MOL0     C11422   7.255   7.547   4.774 -0.1209 -0.0954 -0.0978
  808MOL0     C11423   7.136   7.573   4.712  0.1850  0.5254  0.5898
  808MOL0     C11424   7.022   7.597   4.779  1.3913  0.3186 -0.2494
  808MOL0     O11425   6.900   7.613   4.717  0.3939  0.3895  0.1383
  808MOL0     C11426   6.886   7.724   4.625  0.2211 -0.7221 -0.1900
  808MOL0     C11427   6.864   7.843   4.716  0.6861 -0.0875  0.0507
  808MOL0     C11428   6.717   7.822   4.767  0.1852 -0.2496  0.1952
  808MOL0     C11429   6.726   7.823   4.924  0.4195  0.6699  0.7554
  808MOL0     C11430   6.595   7.865   4.983 -0.9184 -0.2177  0.6565
  808MOL0     C11431   6.488   7.889   5.034  0.4818  1.1213  0.7325
  808MOL0     C11432   7.024   7.609   4.920 -0.1939 -0.4447  0.8816
  808MOL0     C11433   7.136   7.572   4.983  0.6378 -0.4341 -0.2014
  808MOL0     C11434   7.137   7.568   5.139 -0.1854  0.8624  0.4257
  808MOL0     H11435   7.713   7.589   4.820 -1.0281 -2.2762 -0.8737
  808MOL0     H11436   7.924   7.522   4.882 -1.0288 -1.1607 -1.9000
  808MOL0     H11437   8.137   7.466   4.978 -1.9596  1.3803 -0.3076
  808MOL0     H11438   8.064   7.304   4.995 -0.5166  0.7992 -0.7018
  808MOL0     H11439   8.189   7.281   5.209 -1.4633 -0.3231 -1.0688
  808MOL0     H11440   8.287   7.294   5.073 -1.0150 -0.0089 -0.5525
  808MOL0     H11441   8.305   7.554   5.092  4.8393  3.7385  3.5245
  808MOL0     H11442   8.227   7.552   5.241 -0.8622 -0.0674 -0.9694
  808MOL0     H11443   8.507   7.398   5.188 -2.2764 -2.3448 -1.5687
  808MOL0     H11444   8.480   7.557   5.278  0.0601  0.1511 -1.1663
  808MOL0     H11445   8.356   7.290   5.353 -1.7392  0.3671 -1.5048
  808MOL0     H11446   8.334   7.438   5.438 -0.3751 -0.6225 -0.8852
  808MOL0     H11447   8.607   7.311   5.384  0.4895  1.6917  0.0303
  808MOL0     H11448   8.600   7.464   5.446  2.1887 -0.7804 -1.7404
  808MOL0     H11449   8.524   7.197   5.576  3.4330 -0.2028  0.7596
  808MOL0     H11450   8.431   7.334   5.637 -0.4718  0.8466 -0.5234
  808MOL0     H11451   8.738   7.311   5.594 -1.3501 -1.8041 -2.2549
  808MOL0     H11452   8.655   7.436   5.684  2.3855 -0.2881 -0.7710
  808MOL0     H11453   8.740   7.399   5.931 -2.2801  0.2376  1.1760
  808MOL0     H11454   8.709   7.079   6.158  0.3905 -0.8967 -4.0545
  808MOL0     H11455   8.709   7.267   6.189  0.8248  0.9423  0.0613
  808MOL0     H11456   8.912   7.284   6.112 -2.3317 -0.6093 -2.9492
  808MOL0     H11457   8.913   7.168   6.247  2.1274  1.9114  0.3466
  808MOL0     H11458   8.931   7.065   5.956  0.0947  2.3510  0.4779
  808MOL0     H11459   9.074   7.075   6.065  0.5140 -2.0186  2.8853
  808MOL0     H11460   8.953   6.928   6.214  1.2196  0.1775 -0.3543
  808MOL0     H11461   8.821   6.916   6.094 -1.4871  1.6347  6.0793
  808MOL0     H11462   8.802   6.853   5.892  2.0377  1.3676  2.9355
  808MOL0     H11463   8.710   6.729   5.569 -2.4678  0.0862 -0.0169
  808MOL0     H11464   8.732   6.888   5.637 -2.1205 -0.7865 -0.6718
  808MOL0     H11465   8.655   6.758   5.737  0.7554 -1.7986  0.5961
  808MOL0     H11466   9.270   6.709   5.275  0.9576  0.6826 -0.3194
  808MOL0     H11467   9.331   6.606   5.059  1.6686 -1.8376  1.3626
  808MOL0     H11468   9.096   6.457   4.831  1.1701  0.6133 -1.5445
  808MOL0     H11469   9.262   6.513   4.852 -0.2149 -0.3650  2.3182
  808MOL0     H11470   9.351   6.312   4.754 -0.6758 -2.1018 -1.8811
  808MOL0     H11471   9.188   6.248   4.709 -2.3940  0.7004 -1.6393
  808MOL0     H11472   9.272   6.509   4.602  2.4084 -1.5295 -0.6612
  808MOL0     H11473   9.114   6.429   4.603 -0.0151 -1.6224  1.4559
  808MOL0     H11474   9.296   6.222   4.512  0.6376 -1.2476 -1.2288
  808MOL0     H11475   9.359   6.366   4.431 -1.8954  1.0890  0.4150
  808MOL0     H11476   9.098   6.210   4.390  0.5721 -0.6829 -1.4987
  808MOL0     H11477   9.088   6.387   4.395 -0.2063 -0.1863 -1.0824
  808MOL0     H11478   9.246   6.193   4.222 -0.1361 -0.2265  0.2425
  808MOL0     H11479   9.272   6.374   4.205 -0.7681  0.8277 -0.7437
  808MOL0     H11480   9.132   6.310   4.036 -1.0944 -0.8850  0.0632
  808MOL0     H11481   9.058   6.412   4.146  1.8266  1.0320 -1.7117
  808MOL0     H11482   8.901   6.232   4.074  0.3404 -2.9485 -0.4454
  808MOL0     H11483   8.927   6.232   4.253  0.6132  1.8951  0.0238
  808MOL0     H11484   9.068   6.274   5.163 -4.2373  1.1599  2.1486
  808MOL0     H11485   9.013   6.386   5.370 -4.5588  2.4708 -1.0773
  808MOL0     H11486   9.193   6.628   5.692 -0.5677 -1.4064 -0.8563
  808MOL0     H11487   9.187   6.687   5.930 -1.4591 -2.7271  1.2310
  808MOL0     H11488   7.808   7.431   5.273  2.0504  0.8444 -0.5493
  808MOL0     H11489   7.574   7.479   5.223 -0.2834  0.6923  0.7598
  808MOL0     H11490   7.349   7.513   4.732  0.7401 -0.8023  2.2427
  808MOL0     H11491   7.124   7.572   4.604 -0.2197 -2.7812  0.5845
  808MOL0     H11492   6.974   7.737   4.562 -0.8880 -0.2105 -1.7034
  808MOL0     H11493   6.799   7.702   4.562 -1.3676  1.5124  1.0384
  808MOL0     H11494   6.868   7.928   4.647 -0.0687  0.0153  0.1248
  808MOL0     H11495   6.944   7.853   4.790 -0.1390 -0.9276  1.0866
  808MOL0     H11496   6.657   7.912   4.747 -0.4974 -0.5956  0.6591
  808MOL0     H11497   6.665   7.735   4.726 -1.2217  0.0362  1.2917
  808MOL0     H11498   6.803   7.888   4.967  0.0940 -0.9716  4.1691
  808MOL0     H11499   6.756   7.720   4.947 -0.6561  0.5274  1.6180
  808MOL0     H11500   6.389   7.905   5.070  0.2351  1.1748  0.0523
  808MOL0     H11501   6.941   7.620   4.990  1.0919  0.1212  2.3764
  808MOL0     H11502   7.197   7.647   5.184  0.4942  0.7402 -0.2439
  808MOL0     H11503   7.037   7.607   5.162 -1.0235 -1.8171  1.7794
  808MOL0     H11504   7.160   7.472   5.187 -1.4044  1.4918  2.3955
  809MOL0     O11505   5.224   8.443   1.896  0.3528  0.1896 -0.3828
  809MOL0     C11506   5.137   8.358   1.869 -0.0969  0.6885 -0.4953
  809MOL0     O11507   5.156   8.227   1.873  0.7952 -0.7301  0.3617
  809MOL0     C11508   5.281   8.181   1.868 -0.5100 -0.1048 -0.6313
  809MOL0     C11509   5.376   8.224   1.774 -0.9568 -0.8296  0.1694
  809MOL0     C11510   5.503   8.177   1.789 -0.1266  0.6456  0.4754
  809MOL0     C11511   5.539   8.081   1.890  0.9556 -0.1078  0.2906
  809MOL0     O11512   5.666   8.028   1.902 -1.0132 -0.5145 -0.6228
  809MOL0     C11513   5.774   8.122   1.908  0.3922 -0.0154 -0.3412
  809MOL0     C11514   5.900   8.050   1.856  0.4176  0.3358 -0.3981
  809MOL0     C11515   6.015   8.147   1.846 -0.4948 -0.0327  0.0376
  809MOL0     C11516   6.145   8.085   1.786  0.4240  0.3063 -0.4897
  809MOL0     C11517   6.233   8.200   1.729  0.2321 -0.4508 -0.5609
  809MOL0     C11518   6.329   8.131   1.628  0.5427 -0.2496 -0.6536
  809MOL0     C11519   6.416   8.235   1.552 -0.0326  0.0825  0.1806
  809MOL0     C11520   6.488   8.345   1.636 -0.8155  0.1159  0.2032
  809MOL0     N11521   6.606   8.398   1.571 -0.0600  0.2983 -0.6993
  809MOL0     C11522   6.607   8.498   1.475 -0.5033 -0.1283  0.0719
  809MOL0     C11523   6.732   8.511   1.444 -0.6180  0.1310  0.0382
  809MOL0     C11524   6.787   8.619   1.353  0.0567  0.3848 -0.3207
  809MOL0     C11525   6.720   8.614   1.208  0.0062  1.1534  0.6472
  809MOL0     C11526   6.803   8.676   1.094 -0.3478 -0.1434 -0.5814
  809MOL0     C11527   6.707   8.696   0.975 -0.6064 -0.6626  0.3032
  809MOL0     O11528   6.665   8.576   0.910  0.8622 -0.1579  0.6139
  809MOL0     C11529   6.573   8.573   0.808  0.3102 -0.6766  0.8658
  809MOL0     C11530   6.517   8.452   0.780  0.5055 -0.2109  0.6034
  809MOL0     C11531   6.418   8.445   0.675  0.1470 -0.5568 -0.5130
  809MOL0     C11532   6.382   8.305   0.635  0.4144  0.7612 -0.6803
  809MOL0     C11533   6.379   8.551   0.593  0.0079 -0.0120  0.6913
  809MOL0     C11534   6.304   8.550   0.465  0.1194  0.6157 -0.4966
  809MOL0     O11535   6.313   8.440   0.382  0.5175  0.2389 -1.4510
  809MOL0     C11536   6.242   8.434   0.263 -0.8269 -0.0226 -0.9089
  809MOL0     C11537   6.314   8.411   0.141 -0.5859 -0.4561 -0.5473
  809MOL0     C11538   6.245   8.381   0.025  0.1215  0.0215  0.3804
  809MOL0     C11539   6.103   8.393   0.020 -0.4770  0.2105 -1.0004
  809MOL0     O11540   6.054   8.381  -0.100 -0.3811 -0.2840 -0.1799
  809MOL0     C11541   5.912   8.389  -0.129 -0.9341  0.0984  0.6005
  809MOL0     C11542   5.903   8.457  -0.273 -0.0438  0.6025 -0.1200
  809MOL0     C11543   5.923   8.611  -0.270 -0.6767  0.2984 -0.0797
  809MOL0     C11544   5.937   8.671  -0.412 -0.0469  0.0479  0.0386
  809MOL0     C11545   5.948   8.827  -0.394  0.3212  1.0456  0.2975
  809MOL0     C11546   5.963   8.885  -0.527  0.6270 -0.6228  0.0221
  809MOL0     C11547   6.007   9.032  -0.520  0.0260 -0.7418  0.3308
  809MOL0     C11548   6.018   9.084  -0.663  0.4654  0.5954 -0.6632
  809MOL0    Cl11549   6.067   9.253  -0.663  0.0299  0.3054  0.0922
  809MOL0     C11550   6.029   8.415   0.143  0.3110  0.5807  0.5437
  809MOL0     C11551   6.100   8.432   0.262 -0.0607 -0.2386  0.0459
  809MOL0     O11552   6.228   8.645   0.445  0.8207 -0.5311 -0.0466
  809MOL0     C11553   6.437   8.675   0.635 -0.5085 -0.8514  0.3759
  809MOL0     C11554   6.543   8.689   0.730 -0.4476  0.4043 -0.2900
  809MOL0     N11555   6.805   8.412   1.506  0.8688 -0.0095 -0.5655
  809MOL0     N11556   6.728   8.347   1.583 -0.2742  0.5127 -0.1811
  809MOL0     C11557   5.436   8.032   1.965  0.0013 -0.2758  0.9094
  809MOL0     C11558   5.308   8.082   1.962 -0.6518  0.7030  0.0155
  809MOL0     C11559   4.999   8.403   1.879  0.0751  0.0599 -0.2668
  809MOL0     C11560   4.956   8.472   1.989  0.6992  0.1932  0.1788
  809MOL0     C11561   4.830   8.518   2.007  0.3129  1.3452 -0.2058
  809MOL0     C11562   4.740   8.492   1.911  0.1762  0.4006  0.1572
  809MOL0     O11563   4.604   8.520   1.917  0.1831  0.2831  0.7200
  809MOL0     C11564   4.552   8.553   2.045  0.2325 -0.8662 -0.6685
  809MOL0     C11565   4.398   8.543   2.037  0.7557  0.0630  0.2817
  809MOL0     C11566   4.322   8.642   1.942 -0.1716  0.5008  0.1719
  809MOL0     C11567   4.175   8.618   1.918 -0.7511  0.7666  0.7954
  809MOL0     C11568   4.120   8.714   1.826  0.1452 -0.0083 -0.4923
  809MOL0     C11569   4.051   8.779   1.748 -1.1476  0.4727 -0.1433
  809MOL0     C11570   4.773   8.416   1.804 -0.4724  0.1819  0.4857
  809MOL0     C11571   4.901   8.379   1.780 -0.5230  0.3066 -0.3179
  809MOL0     C11572   4.929   8.294   1.653 -0.5006  0.1053 -0.1654
  809MOL0     H11573   5.342   8.292   1.696 -1.0224 -0.1514  0.7721
  809MOL0     H11574   5.572   8.213   1.714 -2.3518 -1.1756 -2.7278
  809MOL0     H11575   5.796   8.162   2.007  1.9189  0.3787 -0.8013
  809MOL0     H11576   5.762   8.216   1.852  0.7132 -1.8750 -3.8083
  809MOL0     H11577   5.933   7.973   1.925 -0.8969 -1.5811 -1.7900
  809MOL0     H11578   5.884   8.004   1.758 -0.2716  2.9113 -1.5970
  809MOL0     H11579   5.984   8.235   1.788 -0.1047  0.6526  0.8422
  809MOL0     H11580   6.045   8.172   1.948  0.1902 -0.4229 -0.0690
  809MOL0     H11581   6.208   8.033   1.860 -1.1512  0.5383  1.0835
  809MOL0     H11582   6.113   8.021   1.703  1.6198  0.2015 -0.8955
  809MOL0     H11583   6.284   8.258   1.807 -0.6885  0.9044 -0.9305
  809MOL0     H11584   6.167   8.272   1.681 -2.5885 -1.1585  1.9396
  809MOL0     H11585   6.398   8.066   1.683  2.2847  0.8559 -1.4404
  809MOL0     H11586   6.273   8.062   1.563 -0.9737  0.3168 -0.0036
  809MOL0     H11587   6.353   8.281   1.475 -0.3802  0.8295  0.8853
  809MOL0     H11588   6.496   8.179   1.504 -0.6795  0.3145 -1.2396
  809MOL0     H11589   6.415   8.424   1.654 -2.0790 -0.8362 -0.5590
  809MOL0     H11590   6.530   8.294   1.723 -0.6345  0.4900  0.3390
  809MOL0     H11591   6.523   8.563   1.452 -1.1758 -1.2345 -0.7182
  809MOL0     H11592   6.896   8.607   1.353 -0.0917 -1.2618 -0.0670
  809MOL0     H11593   6.776   8.721   1.391  3.7601  1.5413 -1.8942
  809MOL0     H11594   6.700   8.513   1.173  1.2494  1.2492 -0.3935
  809MOL0     H11595   6.615   8.645   1.208 -0.7459 -1.0263 -1.7652
  809MOL0     H11596   6.842   8.773   1.124  2.4907 -0.6780 -2.1723
  809MOL0     H11597   6.879   8.607   1.054  1.2419  1.7153 -0.8970
  809MOL0     H11598   6.621   8.757   1.005 -0.2157 -0.2119  0.5326
  809MOL0     H11599   6.752   8.760   0.898 -1.1125  1.0771  1.4114
  809MOL0     H11600   6.563   8.368   0.830  0.0907 -1.4713 -1.0488
  809MOL0     H11601   6.273   8.295   0.623  0.3776 -7.1726  1.0192
  809MOL0     H11602   6.410   8.249   0.724 -2.5390  1.6538  0.9664
  809MOL0     H11603   6.428   8.273   0.542  1.1667 -0.0246 -0.0444
  809MOL0     H11604   6.422   8.413   0.149 -0.6127 -0.9563 -0.0158
  809MOL0     H11605   6.303   8.373  -0.066 -1.5377 -0.6434 -0.6713
  809MOL0     H11606   5.862   8.292  -0.123  1.4991 -1.3623 -0.8678
  809MOL0     H11607   5.855   8.452  -0.060 -2.2779 -0.5812  0.1502
  809MOL0     H11608   5.979   8.411  -0.337 -0.5551  1.6219 -1.5042
  809MOL0     H11609   5.808   8.437  -0.323  1.1002 -2.2876 -1.3897
  809MOL0     H11610   6.018   8.628  -0.219 -0.4110  1.9365 -1.0399
  809MOL0     H11611   5.839   8.659  -0.219 -1.0106 -0.0975 -0.2438
  809MOL0     H11612   5.848   8.648  -0.471 -2.2780  2.5529  2.1403
  809MOL0     H11613   6.020   8.624  -0.465  1.4513  1.2714  1.1871
  809MOL0     H11614   5.865   8.873  -0.340  0.5795  0.3548  1.3183
  809MOL0     H11615   6.041   8.845  -0.339  0.1453 -0.0326  0.9836
  809MOL0     H11616   5.866   8.895  -0.576  0.9436  4.8424 -0.0841
  809MOL0     H11617   6.029   8.825  -0.590 -1.0522 -0.2215 -2.2621
  809MOL0     H11618   6.099   9.046  -0.462 -0.1518  2.1660  0.0765
  809MOL0     H11619   5.933   9.090  -0.464  0.1600 -0.3500  0.1027
  809MOL0     H11620   5.924   9.058  -0.713  0.8037  0.1625 -1.0857
  809MOL0     H11621   6.095   9.028  -0.717 -3.2479 -0.8745 -5.0070
  809MOL0     H11622   5.922   8.402   0.152  0.1855 -1.3929 -2.3884
  809MOL0     H11623   6.055   8.447   0.359 -2.5417  0.4050 -1.1198
  809MOL0     H11624   6.407   8.762   0.577 -1.7167 -1.3147  0.2789
  809MOL0     H11625   6.600   8.780   0.743 -0.4567  0.0880  2.4262
  809MOL0     H11626   5.459   7.950   2.032 -1.4362 -1.8804 -0.4838
  809MOL0     H11627   5.232   8.047   2.030 -0.9191  1.7851  0.3004
  809MOL0     H11628   5.020   8.495   2.073  0.1911  5.2005 -0.4998
  809MOL0     H11629   4.798   8.569   2.098 -2.1154  0.5901 -0.5690
  809MOL0     H11630   4.586   8.490   2.128 -1.8282 -1.2183 -0.0237
  809MOL0     H11631   4.580   8.658   2.054 -1.6440  0.0108 -3.5863
  809MOL0     H11632   4.365   8.560   2.140 -1.1521  0.8146 -0.4196
  809MOL0     H11633   4.370   8.440   2.013  2.8762 -0.6371  0.5590
  809MOL0     H11634   4.341   8.746   1.967  0.6870  0.6543 -1.0279
  809MOL0     H11635   4.373   8.641   1.845 -0.2249 -0.3040  0.1410
  809MOL0     H11636   4.141   8.608   2.022  0.8244 -0.5280  1.2318
  809MOL0     H11637   4.178   8.523   1.864  0.1621  1.5968 -0.6928
  809MOL0     H11638   4.008   8.854   1.684  4.6056  2.5555 -2.2089
  809MOL0     H11639   4.702   8.391   1.725  0.4734 -1.4153  0.0929
  809MOL0     H11640   4.987   8.204   1.676 -0.1561 -0.9251 -4.2970
  809MOL0     H11641   4.833   8.258   1.616 -0.0337  0.7212 -2.0869
  809MOL0     H11642   4.985   8.335   1.568 -0.3021 -5.3751 -3.1496
  810MOL0     O11643   0.890   9.829   4.956 -0.2120  0.6063  0.5071
  810MOL0     C11644   0.995   9.809   5.018  1.0080  0.2396 -0.5825
  810MOL0     O11645   1.049   9.684   5.042 -0.2584 -0.4788 -0.2235
  810MOL0     C11646   0.988   9.564   4.996 -0.5912 -0.8709 -1.3508
  810MOL0     C11647   0.859   9.546   4.952 -0.3799  0.3824  0.1715
  810MOL0     C11648   0.819   9.420   4.912 -0.6608 -0.2998  0.0166
  810MOL0     C11649   0.906   9.308   4.928  0.0494  0.0915  0.4213
  810MOL0     O11650   0.849   9.183   4.921  0.1730  0.3574 -0.0780
  810MOL0     C11651   0.947   9.076   4.930 -0.1782 -0.4318  0.9649
  810MOL0     C11652   0.874   8.939   4.907  0.6946 -0.0884 -0.3517
  810MOL0     C11653   0.944   8.829   4.834 -0.0606  0.2600  0.5327
  810MOL0     C11654   0.850   8.743   4.758  0.4941 -0.3960  0.3305
  810MOL0     C11655   0.900   8.611   4.695 -1.1531 -0.0574 -0.4593
  810MOL0     C11656   1.030   8.633   4.613  0.2234  0.9209  0.8547
  810MOL0     C11657   1.092   8.507   4.570 -1.0961  1.0881  0.5038
  810MOL0     C11658   1.183   8.518   4.446  0.4113  0.1774 -0.0608
  810MOL0     N11659   1.095   8.554   4.339 -0.0540 -0.4315 -0.1695
  810MOL0     C11660   1.044   8.456   4.248  0.3785 -0.5456 -1.2612
  810MOL0     C11661   0.986   8.534   4.159  0.4118  0.0533 -0.4495
  810MOL0     C11662   0.904   8.482   4.049  0.5677 -0.7376  0.5164
  810MOL0     C11663   0.918   8.537   3.904  0.2224 -0.7194 -0.3849
  810MOL0     C11664   0.853   8.666   3.869 -0.3848 -0.3375 -0.2063
  810MOL0     C11665   0.707   8.669   3.890  0.3994 -1.2246 -0.3373
  810MOL0     O11666   0.643   8.546   3.858  0.2948  0.7125  0.3610
  810MOL0     C11667   0.510   8.549   3.849  0.2504 -0.9429 -0.5846
  810MOL0     C11668   0.447   8.474   3.747  0.1397 -0.3303  0.9327
  810MOL0     C11669   0.309   8.480   3.729 -0.8669  0.1771  0.2591
  810MOL0     C11670   0.269   8.418   3.602 -0.6142 -0.1511 -0.6722
  810MOL0     C11671   0.227   8.554   3.823 -0.1383 -0.1036  0.1950
  810MOL0     C11672   0.075   8.554   3.812  0.3280  0.0240  0.1147
  810MOL0     O11673   0.012   8.612   3.917 -0.2946 -0.5909 -0.1073
  810MOL0     C11674  -0.127   8.621   3.902 -0.8851 -0.1682 -0.3819
  810MOL0     C11675  -0.190   8.720   3.827  0.2296 -0.3820  0.6275
  810MOL0     C11676  -0.332   8.710   3.811 -0.1904 -0.2599 -0.0468
  810MOL0     C11677  -0.407   8.631   3.886 -0.6988 -0.5903  0.4140
  810MOL0     O11678  -0.550   8.638   3.886  0.0902  0.6932  0.5680
  810MOL0     C11679  -0.631   8.733   3.812 -0.6558 -0.6661  0.1080
  810MOL0     C11680  -0.776   8.691   3.815 -0.2785 -0.3026 -0.1874
  810MOL0     C11681  -0.804   8.560   3.739 -0.5904  0.7607  0.5563
  810MOL0     C11682  -0.862   8.579   3.595 -0.1548  0.3555 -0.4156
  810MOL0     C11683  -0.848   8.446   3.515 -0.6439 -0.6321  0.0184
  810MOL0     C11684  -0.859   8.474   3.361  0.4534 -0.9456 -0.7085
  810MOL0     C11685  -0.990   8.549   3.312  0.3308 -0.0447 -0.5929
  810MOL0     C11686  -1.124   8.482   3.371  0.5152 -0.0737  0.2979
  810MOL0    Cl11687  -1.154   8.316   3.296  0.2401  0.6866 -0.5482
  810MOL0     C11688  -0.338   8.534   3.968  0.0898  0.3669 -0.2251
  810MOL0     C11689  -0.203   8.525   3.972 -1.1409  0.5881  1.0795
  810MOL0     O11690   0.014   8.500   3.708 -0.7683  0.2856  0.0580
  810MOL0     C11691   0.287   8.617   3.930  0.3913  0.0445  0.0771
  810MOL0     C11692   0.423   8.611   3.944  0.1146 -0.3811 -0.1843
  810MOL0     N11693   1.021   8.666   4.177  1.0323 -0.4703  0.4930
  810MOL0     N11694   1.094   8.678   4.283 -0.4769  0.6651 -0.1990
  810MOL0     C11695   1.036   9.337   4.974  0.0991  0.6639 -0.0582
  810MOL0     C11696   1.075   9.462   4.998 -0.1576 -0.0710 -0.6672
  810MOL0     C11697   1.081   9.922   5.060  0.1220  1.3497  0.0473
  810MOL0     C11698   1.201   9.907   5.140  0.9511  0.5263 -0.1119
  810MOL0     C11699   1.274  10.015   5.188 -0.0530 -0.5899  0.5035
  810MOL0     C11700   1.245  10.144   5.156  0.3820  0.4095  0.2633
  810MOL0     O11701   1.324  10.243   5.205 -0.3305  0.4363 -0.5428
  810MOL0     C11702   1.298  10.384   5.185 -0.2896  0.1213 -0.2057
  810MOL0     C11703   1.382  10.440   5.072  0.8233  0.2938 -0.1681
  810MOL0     C11704   1.353  10.596   5.066 -0.0839  0.2536  0.3633
  810MOL0     C11705   1.462  10.657   4.974 -0.1930  0.5287 -0.5213
  810MOL0     C11706   1.464  10.804   4.983 -0.1364 -1.2195  0.8124
  810MOL0     C11707   1.475  10.928   4.991  0.0257 -0.2406 -0.3061
  810MOL0     C11708   1.134  10.161   5.080 -0.0653 -0.3929 -0.1351
  810MOL0     C11709   1.048  10.061   5.039  0.4498 -1.0127 -0.1097
  810MOL0     C11710   0.933  10.119   4.962  0.1202 -0.1917  1.1712
  810MOL0     H11711   0.776   9.614   4.964 -2.0552 -0.9385 -2.8474
  810MOL0     H11712   0.716   9.398   4.883 -0.6544  0.2047 -0.3949
  810MOL0     H11713   0.993   9.076   5.030 -2.0340  0.1642  1.8624
  810MOL0     H11714   1.027   9.088   4.856 -1.9484  1.9713 -0.7198
  810MOL0     H11715   0.849   8.909   5.009 -2.2414  3.4883  0.2237
  810MOL0     H11716   0.774   8.957   4.865  0.0156  1.4650  1.7513
  810MOL0     H11717   1.015   8.867   4.761  0.8394  0.2858  1.4033
  810MOL0     H11718   1.002   8.772   4.906 -0.3626  0.1959  0.7279
  810MOL0     H11719   0.775   8.706   4.829  0.7986  0.1349  0.9342
  810MOL0     H11720   0.800   8.806   4.684 -2.4409 -0.4819  2.0872
  810MOL0     H11721   0.818   8.574   4.632 -0.4259  3.2247 -3.7173
  810MOL0     H11722   0.913   8.543   4.779  3.7602 -1.0115 -1.6665
  810MOL0     H11723   0.998   8.694   4.528 -0.1057  0.9054  0.9649
  810MOL0     H11724   1.111   8.692   4.658  1.6604 -0.3259 -0.0302
  810MOL0     H11725   1.020   8.430   4.543  1.8639 -2.2601  1.3195
  810MOL0     H11726   1.148   8.467   4.656 -0.3018 -2.3132 -1.3895
  810MOL0     H11727   1.243   8.606   4.470 -1.6997  1.3995  1.1222
  810MOL0     H11728   1.248   8.432   4.435  0.5123  0.3351 -0.7448
  810MOL0     H11729   1.030   8.349   4.260 -0.8281 -0.0623  3.8615
  810MOL0     H11730   0.800   8.499   4.080 -0.2423 -1.2884 -1.7216
  810MOL0     H11731   0.924   8.375   4.043  0.1943 -0.7730 -0.1856
  810MOL0     H11732   1.027   8.545   3.889  0.1013 -0.2511 -1.0459
  810MOL0     H11733   0.885   8.454   3.841 -1.8690 -0.7933  0.7283
  810MOL0     H11734   0.893   8.754   3.921 -0.9436 -0.0317 -0.2885
  810MOL0     H11735   0.862   8.675   3.761 -0.7118  1.6421 -0.1052
  810MOL0     H11736   0.686   8.687   3.996 -0.3399 -3.4286 -0.0413
  810MOL0     H11737   0.664   8.749   3.829  0.3387  0.6041  1.9590
  810MOL0     H11738   0.513   8.430   3.673  0.7497  2.9341 -0.6806
  810MOL0     H11739   0.351   8.366   3.549 -0.2660  1.7333 -2.0955
  810MOL0     H11740   0.230   8.502   3.544  1.1825  0.6265 -0.8489
  810MOL0     H11741   0.184   8.353   3.621 -0.1133 -0.1713  1.7272
  810MOL0     H11742  -0.122   8.774   3.762  0.7315 -3.8622 -2.0967
  810MOL0     H11743  -0.369   8.774   3.732 -2.3992 -0.1000  1.0508
  810MOL0     H11744  -0.619   8.836   3.846 -2.1978  0.9140 -3.5154
  810MOL0     H11745  -0.602   8.740   3.707 -0.7845 -0.7893  0.0638
  810MOL0     H11746  -0.811   8.680   3.918 -1.0251  6.8580  0.7889
  810MOL0     H11747  -0.839   8.775   3.785 -0.5589  0.5261  2.4426
  810MOL0     H11748  -0.874   8.490   3.786  1.5748 -3.2632 -1.6348
  810MOL0     H11749  -0.712   8.502   3.729 -0.6431  0.7473  0.1363
  810MOL0     H11750  -0.802   8.658   3.549 -0.0152  0.0833 -0.7089
  810MOL0     H11751  -0.968   8.605   3.604  0.1626  1.0442  1.8778
  810MOL0     H11752  -0.748   8.402   3.518 -0.9982 -1.7744 -2.3575
  810MOL0     H11753  -0.923   8.374   3.549  0.2079 -1.2470  0.6666
  810MOL0     H11754  -0.858   8.385   3.298 -3.1789 -1.9891  0.4589
  810MOL0     H11755  -0.778   8.543   3.334 -0.1307  0.6757  1.3618
  810MOL0     H11756  -0.999   8.552   3.203  0.1148 -1.4246 -0.6301
  810MOL0     H11757  -0.982   8.648   3.358 -0.5083 -0.5435  0.6488
  810MOL0     H11758  -1.201   8.560   3.362  2.6994  2.0830 -0.7305
  810MOL0     H11759  -1.113   8.468   3.479 -0.9623  0.0384  0.4792
  810MOL0     H11760  -0.386   8.456   4.026  0.9354 -1.0177 -1.3120
  810MOL0     H11761  -0.152   8.452   4.033  0.5476  1.8035  1.1859
  810MOL0     H11762   0.221   8.665   4.002 -0.5994 -1.1597  0.0079
  810MOL0     H11763   0.461   8.646   4.039  0.2131 -0.0553 -0.3425
  810MOL0     H11764   1.101   9.259   5.012 -1.7895  0.4338  2.9994
  810MOL0     H11765   1.178   9.480   5.025 -1.2960  0.7140  4.2506
  810MOL0     H11766   1.232   9.807   5.168  0.4731  0.3980 -0.0361
  810MOL0     H11767   1.362  10.000   5.250 -0.2045  1.8870  1.4584
  810MOL0     H11768   1.196  10.409   5.156  0.6893  3.7805 -1.1406
  810MOL0     H11769   1.319  10.431   5.281 -4.8412  4.3298 -0.8583
  810MOL0     H11770   1.366  10.383   4.980  2.8226  0.4053 -0.6260
  810MOL0     H11771   1.487  10.426   5.099  0.5984  2.3526  2.1443
  810MOL0     H11772   1.262  10.629   5.016  0.9762  0.7453 -1.3075
  810MOL0     H11773   1.355  10.648   5.162  1.6129  2.8013 -0.9448
  810MOL0     H11774   1.461  10.628   4.869 -1.5997  0.3724 -0.4875
  810MOL0     H11775   1.552  10.608   5.013  0.8713  2.5325 -0.3172
  810MOL0     H11776   1.486  11.034   4.973  1.8948 -0.3841 -0.2569
  810MOL0     H11777   1.121  10.266   5.059  0.5528 -0.0933  0.9018
  810MOL0     H11778   0.843  10.062   4.988  1.0175 -1.4884  1.4794
  810MOL0     H11779   0.922  10.225   4.986 -1.7105 -0.2147  0.6173
  810MOL0     H11780   0.943  10.130   4.853 -3.7360  0.3229  0.6974
  811MOL0     O11781   0.883  10.231   3.107 -0.6827 -0.3749  0.1684
  811MOL0     C11782   0.921  10.237   3.228  0.4046  0.3146 -0.6318
  811MOL0     O11783   1.057  10.236   3.271 -0.6200 -1.0046 -0.4228
  811MOL0     C11784   1.154  10.191   3.177 -0.1640 -0.8844  0.8707
  811MOL0     C11785   1.280  10.261   3.151  0.0793  0.1254 -0.5833
  811MOL0     C11786   1.389  10.201   3.088  0.0514  1.3563 -0.5852
  811MOL0     C11787   1.371  10.075   3.030  0.0074  0.1564 -0.9053
  811MOL0     O11788   1.479  10.015   2.977  0.5441  1.3100 -0.4502
  811MOL0     C11789   1.453   9.911   2.877 -0.6816  1.2492 -0.6973
  811MOL0     C11790   1.586   9.863   2.817  0.2365 -0.0797  0.4754
  811MOL0     C11791   1.602   9.901   2.664 -0.9939  0.8827 -0.4396
  811MOL0     C11792   1.685  10.034   2.662  0.9783 -0.0440 -0.3413
  811MOL0     C11793   1.734  10.048   2.522 -0.1846  0.0169  0.2298
  811MOL0     C11794   1.800  10.193   2.516 -0.4326  0.7435  0.4690
  811MOL0     C11795   1.845  10.209   2.370 -0.0615 -1.4753  0.4723
  811MOL0     C11796   1.914  10.348   2.351  0.3401  1.1157  0.7517
  811MOL0     N11797   2.011  10.358   2.245 -1.0929 -0.0843  0.0052
  811MOL0     C11798   2.014  10.296   2.126  0.0077  0.6508  0.3402
  811MOL0     C11799   2.130  10.330   2.066  0.3095 -0.5337 -0.7352
  811MOL0     C11800   2.181  10.300   1.926 -0.5424 -0.2379  0.9501
  811MOL0     C11801   2.118  10.401   1.834  0.0927  0.1015 -0.2233
  811MOL0     C11802   2.200  10.425   1.711 -0.5850  1.0824  0.5464
  811MOL0     C11803   2.342  10.475   1.732  0.1144  0.2135  0.5051
  811MOL0     O11804   2.340  10.541   1.864 -0.1323 -0.5361 -0.0684
  811MOL0     C11805   2.459  10.589   1.916 -0.6240  0.2741 -0.1290
  811MOL0     C11806   2.454  10.666   2.035  0.3463  0.6900  0.7998
  811MOL0     C11807   2.568  10.710   2.106 -0.5446 -0.2602 -0.2303
  811MOL0     C11808   2.550  10.778   2.238  0.3586  0.3334 -0.6788
  811MOL0     C11809   2.692  10.696   2.049 -0.7829  0.1355  0.4487
  811MOL0     C11810   2.817  10.738   2.113  0.5948  0.6100  0.2467
  811MOL0     O11811   2.915  10.786   2.028  0.5753  1.1416  0.3414
  811MOL0     C11812   2.999  10.869   2.078 -0.2836 -0.0659 -0.6739
  811MOL0     C11813   2.969  11.001   2.077  0.2494 -1.0053 -0.6445
  811MOL0     C11814   3.067  11.101   2.102 -0.7030 -0.1042 -0.0324
  811MOL0     C11815   3.195  11.055   2.139  0.0062 -0.0142 -0.2182
  811MOL0     O11816   3.277  11.159   2.175 -0.4393 -0.6718  0.5461
  811MOL0     C11817   3.412  11.109   2.203  0.4610  0.0076  0.4745
  811MOL0     C11818   3.497  11.049   2.088 -0.6942 -0.5733  0.4712
  811MOL0     C11819   3.644  11.083   2.113  0.1215  0.4114 -0.3363
  811MOL0     C11820   3.729  11.030   2.004  0.3490 -0.8348  0.5659
  811MOL0     C11821   3.877  11.059   2.038  1.0598  0.1646 -0.6506
  811MOL0     C11822   3.990  10.979   1.954  0.5365 -0.0675 -0.0380
  811MOL0     C11823   4.129  10.977   2.027 -0.1100 -0.1631 -0.2328
  811MOL0     C11824   4.231  10.897   1.958 -0.0491 -0.5826  0.2239
  811MOL0    Cl11825   4.179  10.726   1.941  0.3311 -0.2628 -0.0310
  811MOL0     C11826   3.223  10.915   2.140  0.1736 -0.1794  0.1921
  811MOL0     C11827   3.124  10.820   2.117  0.0127 -0.3414  0.4271
  811MOL0     O11828   2.831  10.729   2.234  0.5238  0.5482  0.2930
  811MOL0     C11829   2.697  10.623   1.933 -0.2153 -0.2765  1.0647
  811MOL0     C11830   2.586  10.568   1.866 -0.5878  0.5255  0.4886
  811MOL0     N11831   2.191  10.419   2.151 -0.0706  0.0108 -0.4126
  811MOL0     N11832   2.117  10.439   2.255  1.0135  0.7727  0.2538
  811MOL0     C11833   1.250  10.007   3.056 -0.9501  0.0655  0.4972
  811MOL0     C11834   1.143  10.068   3.122 -0.5809  0.4306 -0.5623
  811MOL0     C11835   0.809  10.264   3.326  0.6896  0.7971 -1.1414
  811MOL0     C11836   0.858  10.314   3.450 -0.0120 -0.4213  0.6949
  811MOL0     C11837   0.766  10.360   3.541 -0.5665 -1.3017  0.0906
  811MOL0     C11838   0.627  10.374   3.507 -0.2446 -0.5342 -0.7649
  811MOL0     O11839   0.520  10.398   3.586  0.2755  0.7074  0.5387
  811MOL0     C11840   0.525  10.358   3.717  0.0741 -0.0581 -0.3923
  811MOL0     C11841   0.402  10.406   3.786 -0.3399  0.0211 -0.4303
  811MOL0     C11842   0.278  10.413   3.709  0.6145  0.4299  0.6061
  811MOL0     C11843   0.149  10.453   3.779 -0.1445  0.9888 -0.3524
  811MOL0     C11844   0.099  10.348   3.883 -0.2770  0.1075 -0.1738
  811MOL0     C11845   0.054  10.269   3.968 -0.2422  0.1793 -0.3177
  811MOL0     C11846   0.583  10.318   3.397  0.3705 -0.7145 -0.1883
  811MOL0     C11847   0.669  10.256   3.305  0.0146  0.0667  0.6272
  811MOL0     C11848   0.602  10.204   3.177  1.1741  0.0702  0.6563
  811MOL0     H11849   1.292  10.359   3.196 -4.5691  0.9170 -0.4773
  811MOL0     H11850   1.491  10.237   3.089  0.3959  0.4019  0.6869
  811MOL0     H11851   1.394   9.936   2.788  0.2771 -3.2455 -2.9054
  811MOL0     H11852   1.413   9.823   2.929 -0.7902  3.0774  2.5391
  811MOL0     H11853   1.662   9.919   2.872  0.9213 -2.5321  2.1801
  811MOL0     H11854   1.600   9.757   2.840  1.0671  0.3691  2.1434
  811MOL0     H11855   1.653   9.826   2.602  0.2389  2.8528 -1.9338
  811MOL0     H11856   1.505   9.920   2.618 -1.5120  0.4464  0.4461
  811MOL0     H11857   1.622  10.119   2.691 -0.0187  0.0296 -2.5272
  811MOL0     H11858   1.767  10.028   2.733 -1.2487 -1.9815  2.2847
  811MOL0     H11859   1.649  10.041   2.454 -0.2110  0.0369  0.2602
  811MOL0     H11860   1.803   9.972   2.487  1.3529  0.7520  1.5341
  811MOL0     H11861   1.727  10.267   2.549 -0.7997  1.4138 -1.6521
  811MOL0     H11862   1.886  10.208   2.583 -1.5032  1.2215  1.7769
  811MOL0     H11863   1.769  10.174   2.300 -0.7567 -0.6764  0.8018
  811MOL0     H11864   1.931  10.142   2.355 -1.0221 -2.4734 -0.8036
  811MOL0     H11865   1.837  10.424   2.334 -2.6782 -1.7860  0.1975
  811MOL0     H11866   1.963  10.376   2.444  0.0067  1.3415  0.8629
  811MOL0     H11867   1.942  10.223   2.089  0.7308  0.0081  0.1572
  811MOL0     H11868   2.152  10.200   1.890 -0.0400 -0.6780  1.7333
  811MOL0     H11869   2.289  10.316   1.917 -0.7381  0.3199 -0.8688
  811MOL0     H11870   2.018  10.377   1.796 -0.1832  3.3855 -1.9528
  811MOL0     H11871   2.110  10.496   1.889 -1.3051 -0.3109  0.3196
  811MOL0     H11872   2.203  10.333   1.652 -2.0526  1.7658 -0.6524
  811MOL0     H11873   2.134  10.499   1.665 -0.5367  1.1065  0.5161
  811MOL0     H11874   2.412  10.391   1.741 -0.0873 -0.1822 -1.2801
  811MOL0     H11875   2.374  10.543   1.653 -0.4980  1.6574  1.4580
  811MOL0     H11876   2.353  10.681   2.071 -0.1007  2.0332 -0.9030
  811MOL0     H11877   2.447  10.780   2.273  1.1669 -3.6356  2.6573
  811MOL0     H11878   2.591  10.880   2.232  2.5844 -0.3444  1.5338
  811MOL0     H11879   2.606  10.732   2.320 -0.5050 -0.5338 -0.5653
  811MOL0     H11880   2.873  11.033   2.039 -0.4823 -1.3826  0.8248
  811MOL0     H11881   3.059  11.209   2.093  0.0656 -0.1351 -1.3287
  811MOL0     H11882   3.465  11.197   2.242  2.0003 -0.9400  0.5796
  811MOL0     H11883   3.418  11.041   2.288  3.1930  1.1258  1.2883
  811MOL0     H11884   3.482  10.941   2.093 -0.6472 -0.5762  0.5451
  811MOL0     H11885   3.457  11.081   1.991  1.3081 -0.7244 -0.4339
  811MOL0     H11886   3.680  11.033   2.203  1.3328 -0.1344 -1.0974
  811MOL0     H11887   3.665  11.190   2.126  1.2172  0.3059 -1.0273
  811MOL0     H11888   3.696  11.071   1.909  2.9950 -1.6769 -0.8199
  811MOL0     H11889   3.720  10.921   1.993 -0.8452 -0.9492  2.2672
  811MOL0     H11890   3.895  11.165   2.018 -1.7518  1.1306  1.2721
  811MOL0     H11891   3.898  11.048   2.145 -0.6480  0.5895 -0.2404
  811MOL0     H11892   3.992  11.019   1.852  0.6697 -3.3889 -1.4417
  811MOL0     H11893   3.947  10.879   1.951 -3.6204  1.4826  0.2165
  811MOL0     H11894   4.115  10.938   2.128  0.6005  0.2670  0.0400
  811MOL0     H11895   4.174  11.075   2.049  0.7321 -0.8509  1.2657
  811MOL0     H11896   4.329  10.883   2.006 -0.9968 -3.0458  1.5878
  811MOL0     H11897   4.251  10.949   1.864  0.6833  2.4283  1.9123
  811MOL0     H11898   3.313  10.869   2.180 -0.3160  1.9547  4.1768
  811MOL0     H11899   3.147  10.715   2.123  0.3598 -0.2498  0.7748
  811MOL0     H11900   2.787  10.592   1.880 -1.9454 -1.0589 -1.6424
  811MOL0     H11901   2.609  10.494   1.790  0.1878 -0.7317  1.8978
  811MOL0     H11902   1.241   9.904   3.021 -0.6660  0.2951 -0.2705
  811MOL0     H11903   1.055  10.012   3.152 -2.3347  4.0350  1.7540
  811MOL0     H11904   0.962  10.315   3.482  0.4541 -2.4197 -0.5659
  811MOL0     H11905   0.814  10.404   3.627 -0.9939  2.7022 -1.4901
  811MOL0     H11906   0.552  10.252   3.717  2.9371  0.5965 -0.7571
  811MOL0     H11907   0.606  10.402   3.775  0.0661 -1.5810  0.8332
  811MOL0     H11908   0.417  10.504   3.834  1.2872  0.5657 -1.9360
  811MOL0     H11909   0.385  10.342   3.873 -1.5897  1.2344  0.2629
  811MOL0     H11910   0.301  10.486   3.630 -2.4568  0.8072 -0.0512
  811MOL0     H11911   0.265  10.319   3.654 -2.1725  0.4617  1.0896
  811MOL0     H11912   0.069  10.466   3.705 -0.9778  1.3285  0.5887
  811MOL0     H11913   0.174  10.550   3.822  1.6217  0.2377  0.3995
  811MOL0     H11914  -0.004  10.202   4.028  1.4820 -5.0027 -3.7712
  811MOL0     H11915   0.479  10.322   3.368  1.2695  1.8425 -3.7587
  811MOL0     H11916   0.665  10.137   3.118  1.5638 -0.8907  2.1239
  811MOL0     H11917   0.513  10.145   3.200  0.8563  0.9476  1.7871
  811MOL0     H11918   0.561  10.277   3.107 -0.6776 -0.3014  1.3109
  812MOL0     O11919   5.590   7.768   7.404 -0.5975  0.4129  0.8436
  812MOL0     C11920   5.506   7.825   7.339 -0.2453 -0.5043  0.9051
  812MOL0     O11921   5.467   7.954   7.364 -0.1082  0.0687  0.4929
  812MOL0     C11922   5.513   8.036   7.466  0.5290  0.2192  0.0714
  812MOL0     C11923   5.413   8.119   7.522 -0.3086  0.6949  0.7678
  812MOL0     C11924   5.444   8.175   7.644  0.0082 -0.0268 -0.3836
  812MOL0     C11925   5.580   8.193   7.683 -0.8494  0.2945  0.2897
  812MOL0     O11926   5.623   8.260   7.796 -0.1061 -0.7182 -0.5343
  812MOL0     C11927   5.586   8.398   7.792  0.4267 -0.0805  0.1135
  812MOL0     C11928   5.713   8.476   7.839 -0.2556  0.3534 -0.4943
  812MOL0     C11929   5.759   8.448   7.982  0.2042  0.3752 -0.7004
  812MOL0     C11930   5.884   8.531   8.027  0.5681 -0.6406 -0.1463
  812MOL0     C11931   5.937   8.510   8.173  0.4034 -0.7212 -0.1712
  812MOL0     C11932   6.005   8.379   8.187 -1.0517 -0.1107 -0.7055
  812MOL0     C11933   6.053   8.366   8.335 -0.1312  0.5197  0.6032
  812MOL0     C11934   6.150   8.244   8.330  0.8627 -0.6075 -0.8514
  812MOL0     N11935   6.211   8.247   8.464 -0.0325 -0.4309 -0.4141
  812MOL0     C11936   6.134   8.225   8.580  0.1231 -0.3312  0.2128
  812MOL0     C11937   6.225   8.184   8.680  0.5066 -0.6488  0.4389
  812MOL0     C11938   6.197   8.154   8.830 -0.1214  0.0635  0.9938
  812MOL0     C11939   6.272   8.255   8.907 -0.0958  0.4535  0.0358
  812MOL0     C11940   6.262   8.241   9.057 -0.8461  0.2294  0.0175
  812MOL0     C11941   6.141   8.304   9.122  0.6919  0.4627  0.2250
  812MOL0     O11942   6.176   8.351   9.245  0.1340  0.6099  0.4173
  812MOL0     C11943   6.094   8.457   9.294 -0.2783 -0.3600  0.4910
  812MOL0     C11944   5.958   8.482   9.275  0.2411 -0.6564 -1.2929
  812MOL0     C11945   5.893   8.593   9.325 -0.5083 -0.1063 -0.7857
  812MOL0     C11946   5.740   8.606   9.295  0.0563  0.5333 -0.3191
  812MOL0     C11947   5.975   8.686   9.404 -0.5363  0.2230 -0.3528
  812MOL0     C11948   5.930   8.818   9.469  0.1695 -0.0424 -0.0567
  812MOL0     O11949   5.798   8.851   9.458 -0.5838  0.7435  0.1378
  812MOL0     C11950   5.761   8.968   9.522  0.1692  0.2100  0.7691
  812MOL0     C11951   5.785   9.022   9.646  0.3982  0.6592 -0.2617
  812MOL0     C11952   5.714   9.135   9.698 -0.6559  0.0459  0.1116
  812MOL0     C11953   5.611   9.191   9.614 -0.3397  0.1393  0.1590
  812MOL0     O11954   5.535   9.300   9.656  0.4232 -0.0247  0.2951
  812MOL0     C11955   5.584   9.420   9.606 -0.2753 -0.0232 -0.1759
  812MOL0     C11956   5.677   9.492   9.705  0.6209  0.0541 -0.5476
  812MOL0     C11957   5.607   9.542   9.825  0.2031 -0.1531 -0.5832
  812MOL0     C11958   5.684   9.565   9.955 -0.7233  0.5555 -0.8077
  812MOL0     C11959   5.592   9.659  10.043 -0.3895 -0.2643 -0.1875
  812MOL0     C11960   5.655   9.702  10.175 -0.6601 -0.0085 -1.7230
  812MOL0     C11961   5.548   9.741  10.274  0.4258  0.3881 -0.1705
  812MOL0     C11962   5.601   9.733  10.419 -0.7237 -0.0101 -0.5211
  812MOL0    Cl11963   5.745   9.841  10.449 -0.1922 -0.0765 -0.3107
  812MOL0     C11964   5.595   9.142   9.489  0.7468 -0.1306  0.2131
  812MOL0     C11965   5.656   9.027   9.448 -0.8942  0.4612  0.6335
  812MOL0     O11966   6.016   8.889   9.521  0.3699  0.1341 -0.2008
  812MOL0     C11967   6.112   8.648   9.436 -0.7718 -0.2754 -0.0608
  812MOL0     C11968   6.166   8.534   9.381 -0.2612 -0.4215 -0.2423
  812MOL0     N11969   6.354   8.188   8.619  0.4633 -0.2850  0.2661
  812MOL0     N11970   6.344   8.232   8.493 -0.5917 -0.0253  0.3947
  812MOL0     C11971   5.681   8.144   7.605  0.4933  0.9442 -0.3204
  812MOL0     C11972   5.649   8.056   7.498 -0.0294 -0.9599  0.6411
  812MOL0     C11973   5.440   7.751   7.233 -0.1539 -0.1604  0.1254
  812MOL0     C11974   5.357   7.830   7.142  0.1130 -0.0154  0.0746
  812MOL0     C11975   5.288   7.768   7.038 -0.0425  0.4033 -0.2703
  812MOL0     C11976   5.275   7.630   7.035 -0.2686  0.7177  0.0671
  812MOL0     O11977   5.203   7.571   6.938  0.7151 -0.4466  0.7607
  812MOL0     C11978   5.060   7.583   6.936 -0.6350  0.4048  0.2426
  812MOL0     C11979   4.988   7.541   7.061  0.1797 -0.2191 -0.0374
  812MOL0     C11980   4.839   7.561   7.062  0.0876  0.2744  0.4107
  812MOL0     C11981   4.767   7.465   6.964 -0.3498  0.3020 -0.4060
  812MOL0     C11982   4.620   7.473   6.990 -0.2913 -0.3932  1.0382
  812MOL0     C11983   4.503   7.502   7.002 -0.4651 -1.1901  0.2278
  812MOL0     C11984   5.344   7.549   7.125  0.6090  0.1261 -0.7505
  812MOL0     C11985   5.433   7.606   7.220 -0.3525 -0.6129 -0.7722
  812MOL0     C11986   5.502   7.512   7.315  0.0114 -0.4814 -0.1499
  812MOL0     H11987   5.312   8.117   7.484  1.3415 -1.1790 -4.4214
  812MOL0     H11988   5.372   8.214   7.716  2.4226 -0.6666  2.5819
  812MOL0     H11989   5.507   8.413   7.867  1.9338  2.8358  1.2864
  812MOL0     H11990   5.561   8.426   7.690  2.0127  0.4273 -0.1579
  812MOL0     H11991   5.799   8.442   7.779  0.7470  2.2335 -0.2083
  812MOL0     H11992   5.713   8.585   7.829 -1.7714  0.5085  0.8390
  812MOL0     H11993   5.676   8.441   8.053 -3.2270 -1.9021 -4.4839
  812MOL0     H11994   5.799   8.347   7.981 -1.8330 -0.4955 -0.3289
  812MOL0     H11995   5.963   8.525   7.951 -0.3583  2.1864 -1.4853
  812MOL0     H11996   5.837   8.629   8.022  1.6899 -0.0873 -0.1677
  812MOL0     H11997   5.850   8.514   8.239  1.7725  1.0273  1.6352
  812MOL0     H11998   5.996   8.593   8.211 -2.9167  0.4170  3.0628
  812MOL0     H11999   5.936   8.295   8.175 -2.1945  0.4108  1.6052
  812MOL0     H12000   6.087   8.373   8.115  0.4611 -2.3180  1.0790
  812MOL0     H12001   5.969   8.372   8.405 -1.4527  0.1032 -0.8898
  812MOL0     H12002   6.116   8.455   8.347 -2.2796  2.3856 -0.8350
  812MOL0     H12003   6.086   8.156   8.317 -2.9465  1.0816  3.4999
  812MOL0     H12004   6.227   8.249   8.253  2.4043 -2.1787  0.4857
  812MOL0     H12005   6.027   8.241   8.585  0.2023 -0.1419  3.8639
  812MOL0     H12006   6.237   8.052   8.841  3.6952  1.5074  2.3036
  812MOL0     H12007   6.089   8.153   8.844 -0.7755  1.4742 -2.6592
  812MOL0     H12008   6.379   8.244   8.890  0.3474  1.6347  1.8019
  812MOL0     H12009   6.241   8.352   8.869  2.8745  1.9756  1.1694
  812MOL0     H12010   6.259   8.139   9.096 -3.8723  1.0100  2.1839
  812MOL0     H12011   6.358   8.276   9.097 -1.6975  1.0123  1.4222
  812MOL0     H12012   6.105   8.387   9.060 -0.6015  0.9433  1.5565
  812MOL0     H12013   6.060   8.231   9.132 -2.2465  3.2007 -1.2543
  812MOL0     H12014   5.912   8.405   9.213 -0.9501 -2.6203  1.7952
  812MOL0     H12015   5.673   8.592   9.381  1.4216  2.0073  1.0456
  812MOL0     H12016   5.710   8.539   9.214  0.9280  1.1284 -1.1589
  812MOL0     H12017   5.722   8.704   9.250  0.6250  0.6020 -0.4055
  812MOL0     H12018   5.853   8.965   9.709 -1.4465 -0.7908  0.5172
  812MOL0     H12019   5.737   9.167   9.799  1.5329 -0.9189 -0.0052
  812MOL0     H12020   5.636   9.408   9.510  0.2806  0.8530 -0.0023
  812MOL0     H12021   5.504   9.490   9.583 -2.1720 -2.7715 -2.6036
  812MOL0     H12022   5.754   9.422   9.739  1.6563  1.2226 -0.4102
  812MOL0     H12023   5.725   9.575   9.654 -0.7112  1.1391 -0.1111
  812MOL0     H12024   5.529   9.472   9.857 -0.4634  0.5310 -0.6939
  812MOL0     H12025   5.569   9.638   9.790  0.4248  0.0119 -0.3837
  812MOL0     H12026   5.781   9.609   9.931  0.1344 -0.5501  0.4785
  812MOL0     H12027   5.703   9.476  10.015  2.7249  3.4386  2.9880
  812MOL0     H12028   5.565   9.750   9.988 -0.5797 -0.0446  0.2661
  812MOL0     H12029   5.501   9.601  10.058  0.7576 -1.8693  0.9051
  812MOL0     H12030   5.724   9.786  10.164 -0.7353  0.4959  0.9213
  812MOL0     H12031   5.717   9.627  10.226 -1.9562  0.5769  0.8792
  812MOL0     H12032   5.464   9.671  10.267  0.8480 -0.2014  0.4939
  812MOL0     H12033   5.511   9.842  10.257  0.9231  0.2241 -2.5719
  812MOL0     H12034   5.641   9.638  10.457 -0.6498  1.4234  3.3853
  812MOL0     H12035   5.524   9.774  10.485 -0.5743 -0.4440 -0.0761
  812MOL0     H12036   5.521   9.187   9.423 -0.6381 -0.5949  1.3802
  812MOL0     H12037   5.622   8.990   9.352 -2.0400  0.9730  0.8252
  812MOL0     H12038   6.177   8.717   9.488  0.8874 -3.0291  1.7568
  812MOL0     H12039   6.271   8.514   9.405 -0.4899  0.2282  1.4597
  812MOL0     H12040   5.786   8.151   7.629  1.4765 -0.5218 -3.5616
  812MOL0     H12041   5.723   7.998   7.445  1.3688  0.6798  0.7129
  812MOL0     H12042   5.361   7.938   7.141 -1.5686  0.1419 -3.3210
  812MOL0     H12043   5.221   7.821   6.971 -1.3229 -0.3877  0.3580
  812MOL0     H12044   5.036   7.685   6.906 -0.1518  0.7117  0.9003
  812MOL0     H12045   5.032   7.515   6.855  1.6565  0.1730 -0.4139
  812MOL0     H12046   5.036   7.599   7.140  0.8685  0.6466 -1.0661
  812MOL0     H12047   5.012   7.437   7.085 -4.8177 -1.4824  0.7647
  812MOL0     H12048   4.806   7.545   7.165  1.0274 -3.4269  0.2699
  812MOL0     H12049   4.810   7.665   7.043 -1.2336 -0.1749 -0.1470
  812MOL0     H12050   4.796   7.361   6.985  1.9916  0.2588 -3.2482
  812MOL0     H12051   4.784   7.484   6.858 -4.4582  0.2181 -1.2385
  812MOL0     H12052   4.401   7.530   7.020 -0.3908 -0.5147 -0.3430
  812MOL0     H12053   5.329   7.441   7.122 -1.1821  0.3801 -2.3259
  812MOL0     H12054   5.444   7.514   7.407 -0.3507 -1.9328 -0.3193
  812MOL0     H12055   5.502   7.410   7.275  1.2161 -0.2661 -0.7334
  812MOL0     H12056   5.607   7.536   7.330  0.0930 -1.4335  0.8507
  813MOL0     O12057   7.044   0.794   2.182  0.1878  0.5407  0.4525
  813MOL0     C12058   7.030   0.674   2.203  0.1058 -0.3786 -0.5834
  813MOL0     O12059   7.109   0.565   2.161  0.4699  0.7702 -0.0469
  813MOL0     C12060   7.238   0.581   2.117  0.5095  0.1143 -0.4781
  813MOL0     C12061   7.276   0.694   2.048  0.2062 -0.2666 -0.5791
  813MOL0     C12062   7.407   0.719   2.010  0.1518  0.0315  0.4698
  813MOL0     C12063   7.506   0.635   2.054 -0.0182 -0.8878 -0.1448
  813MOL0     O12064   7.633   0.679   2.035 -0.1359 -0.4428  0.4539
  813MOL0     C12065   7.745   0.618   2.099  0.2943 -0.0802 -0.4017
  813MOL0     C12066   7.872   0.657   2.019  0.5466 -0.1657  0.5101
  813MOL0     C12067   7.997   0.614   2.092 -0.3004  0.5508  0.7423
  813MOL0     C12068   8.131   0.642   2.012 -0.3555  0.1142  0.7391
  813MOL0     C12069   8.231   0.525   2.017 -0.1582 -0.7022 -0.0773
  813MOL0     C12070   8.186   0.418   1.914  0.1385 -0.6079  0.6681
  813MOL0     C12071   8.259   0.279   1.924 -0.1163 -0.6223 -0.5451
  813MOL0     C12072   8.243   0.220   2.058 -0.3035  0.1304  0.1899
  813MOL0     N12073   8.304   0.089   2.068 -0.4736  0.5072 -0.1637
  813MOL0     C12074   8.436   0.059   2.060 -0.0667 -0.6307 -0.3950
  813MOL0     C12075   8.444  -0.069   2.099 -0.1048 -0.3456 -0.6410
  813MOL0     C12076   8.574  -0.138   2.100  0.0041 -0.4370 -0.0459
  813MOL0     C12077   8.617  -0.182   1.961  0.3825 -0.4417 -1.1448
  813MOL0     C12078   8.535  -0.304   1.913  0.7376 -0.0663  0.5173
  813MOL0     C12079   8.599  -0.395   1.814  0.6303 -0.7396 -0.1460
  813MOL0     O12080   8.619  -0.314   1.691 -0.2991 -0.3412  0.4115
  813MOL0     C12081   8.680  -0.375   1.587  0.4427  0.9001 -0.1697
  813MOL0     C12082   8.703  -0.298   1.478 -0.5908  1.0186 -0.1224
  813MOL0     C12083   8.765  -0.341   1.358  0.3246  0.4903 -0.9057
  813MOL0     C12084   8.784  -0.235   1.255  1.2564 -0.4083  0.6645
  813MOL0     C12085   8.798  -0.476   1.348  0.5083  0.1006 -0.1807
  813MOL0     C12086   8.869  -0.537   1.232 -0.1807 -0.7038  0.0615
  813MOL0     O12087   8.905  -0.673   1.252  0.4275  0.0264  0.5171
  813MOL0     C12088   8.943  -0.753   1.150  0.5724  0.2393 -0.0105
  813MOL0     C12089   8.873  -0.869   1.111  0.1862 -0.3324 -0.1068
  813MOL0     C12090   8.925  -0.953   1.010 -0.1105 -0.1259 -0.5919
  813MOL0     C12091   9.035  -0.918   0.940  0.3810 -0.4624  0.1697
  813MOL0     O12092   9.078  -1.007   0.843 -0.2377  0.1166 -0.1578
  813MOL0     C12093   9.190  -0.976   0.769  0.0468  0.3730  0.7619
  813MOL0     C12094   9.234  -1.105   0.688 -0.4698 -0.0848 -0.0614
  813MOL0     C12095   9.327  -1.075   0.559 -0.5855 -0.1982 -0.3570
  813MOL0     C12096   9.467  -1.021   0.602  0.3295  0.8619 -0.1216
  813MOL0     C12097   9.580  -1.039   0.500 -0.0127 -0.6988  0.5623
  813MOL0     C12098   9.570  -0.938   0.394  0.9164  0.2546 -0.3531
  813MOL0     C12099   9.574  -0.791   0.439  0.7470 -0.1479 -0.0542
  813MOL0     C12100   9.626  -0.695   0.319 -0.7077 -0.3195 -0.5088
  813MOL0    Cl12101   9.813  -0.706   0.320 -0.6706 -0.1731  0.1023
  813MOL0     C12102   9.089  -0.793   0.965 -0.5170 -0.6168  1.1032
  813MOL0     C12103   9.044  -0.711   1.067  0.0334 -0.4592  0.3725
  813MOL0     O12104   8.879  -0.476   1.129 -0.9659  0.2631 -0.3844
  813MOL0     C12105   8.765  -0.555   1.458 -0.0868  0.6686  0.3478
  813MOL0     C12106   8.702  -0.512   1.573  0.4510  0.7422  0.6455
  813MOL0     N12107   8.319  -0.119   2.114  0.4522  0.0400  0.4825
  813MOL0     N12108   8.234  -0.027   2.094  0.3612  0.0518 -0.2222
  813MOL0     C12109   7.472   0.518   2.123  0.4586  0.0730 -0.7441
  813MOL0     C12110   7.339   0.493   2.155  0.9646  0.0921 -0.9181
  813MOL0     C12111   6.905   0.633   2.249  0.5631  0.3965 -0.0552
  813MOL0     C12112   6.835   0.523   2.188 -0.4836  0.3550 -0.9659
  813MOL0     C12113   6.723   0.460   2.242  0.6951  0.4341  0.0403
  813MOL0     C12114   6.653   0.519   2.349  0.1302 -0.3111  0.8509
  813MOL0     O12115   6.540   0.466   2.397  0.5742  1.0326 -0.4638
  813MOL0     C12116   6.426   0.538   2.452 -0.1533  0.0047 -0.1200
  813MOL0     C12117   6.277   0.489   2.403 -0.0684  0.1751 -0.4213
  813MOL0     C12118   6.279   0.443   2.258  0.5590  0.6495 -0.7172
  813MOL0     C12119   6.137   0.436   2.184  0.1868 -0.0639  0.5522
  813MOL0     C12120   6.049   0.339   2.246  0.2507 -0.0141 -0.3913
  813MOL0     C12121   5.960   0.263   2.280 -0.2731  0.1823 -0.9098
  813MOL0     C12122   6.706   0.637   2.394 -0.9421  0.5228 -0.0639
  813MOL0     C12123   6.840   0.685   2.362  0.2103  0.3376 -0.2873
  813MOL0     C12124   6.891   0.804   2.439 -0.4719  0.5342 -0.1308
  813MOL0     H12125   7.200   0.768   2.024 -0.8009 -0.9767  0.3170
  813MOL0     H12126   7.437   0.812   1.961  2.5240  1.1033  3.6234
  813MOL0     H12127   7.733   0.510   2.087  2.5360 -0.6923  1.7602
  813MOL0     H12128   7.753   0.648   2.204 -2.9793  0.3967 -0.1986
  813MOL0     H12129   7.869   0.624   1.914 -3.2998 -1.6901  0.9403
  813MOL0     H12130   7.866   0.766   2.010  1.3047 -0.0762  0.9853
  813MOL0     H12131   8.009   0.666   2.188  0.9050 -1.2235  1.5999
  813MOL0     H12132   8.001   0.507   2.114  3.8988  0.3467 -0.0059
  813MOL0     H12133   8.113   0.661   1.905 -2.5519 -2.9215  0.4310
  813MOL0     H12134   8.180   0.728   2.058  3.2102 -2.1595  1.5952
  813MOL0     H12135   8.237   0.495   2.122  2.5011  1.6950  0.5721
  813MOL0     H12136   8.327   0.565   1.984  1.8964 -3.2494  2.2570
  813MOL0     H12137   8.078   0.408   1.928  0.1573 -1.2059  0.3984
  813MOL0     H12138   8.202   0.464   1.816  0.0717  3.0269  2.1975
  813MOL0     H12139   8.366   0.293   1.904  0.0333 -0.0593  0.5760
  813MOL0     H12140   8.216   0.220   1.843 -1.0054  0.7498 -1.1141
  813MOL0     H12141   8.308   0.283   2.120  1.3667 -0.2217 -1.1310
  813MOL0     H12142   8.142   0.221   2.101 -0.2765 -2.5026  0.5110
  813MOL0     H12143   8.519   0.128   2.046 -0.1680 -0.6705 -1.2447
  813MOL0     H12144   8.561  -0.224   2.166 -0.0534  2.2664  3.7985
  813MOL0     H12145   8.639  -0.068   2.153 -0.2052  1.3977 -2.0467
  813MOL0     H12146   8.617  -0.106   1.883 -1.0788 -1.9135 -2.6661
  813MOL0     H12147   8.723  -0.209   1.960  0.2540 -1.0407 -0.0749
  813MOL0     H12148   8.499  -0.367   1.995  0.4395 -0.1062  0.3611
  813MOL0     H12149   8.440  -0.269   1.870  1.8253  1.1408 -1.0230
  813MOL0     H12150   8.699  -0.420   1.852 -0.0428 -0.8072  1.6996
  813MOL0     H12151   8.538  -0.485   1.807 -2.4643  1.2965 -1.5049
  813MOL0     H12152   8.679  -0.192   1.485  0.7480  1.4900 -1.7445
  813MOL0     H12153   8.751  -0.272   1.157  1.0537  0.0300  0.5629
  813MOL0     H12154   8.891  -0.211   1.250  1.2100 -0.3790 -0.3247
  813MOL0     H12155   8.735  -0.138   1.265  1.8473  0.0445 -0.6290
  813MOL0     H12156   8.790  -0.912   1.166 -1.1290  0.8158 -1.1162
  813MOL0     H12157   8.883  -1.052   0.994 -1.9445  0.3531  0.8224
  813MOL0     H12158   9.187  -0.886   0.706  0.5621 -0.3734 -0.3788
  813MOL0     H12159   9.270  -0.952   0.838  3.3715 -1.1431 -2.2404
  813MOL0     H12160   9.277  -1.184   0.750  1.3682 -1.9880 -3.4661
  813MOL0     H12161   9.144  -1.144   0.639  0.2486 -2.1942  0.1892
  813MOL0     H12162   9.287  -1.002   0.489  3.8242  1.2426 -1.6686
  813MOL0     H12163   9.319  -1.173   0.510 -1.9754 -2.2817  3.5675
  813MOL0     H12164   9.489  -1.087   0.686 -2.5553  0.2817  0.3140
  813MOL0     H12165   9.450  -0.916   0.628 -0.2426  0.9827 -0.9227
  813MOL0     H12166   9.683  -1.031   0.537  0.1768 -1.2647  0.1681
  813MOL0     H12167   9.573  -1.132   0.443 -0.0239  0.0812 -0.7734
  813MOL0     H12168   9.475  -0.955   0.343  0.6546 -1.5270  0.6793
  813MOL0     H12169   9.642  -0.947   0.312 -2.0553 -0.8253 -3.0446
  813MOL0     H12170   9.606  -0.777   0.543 -0.1905 -3.0132  0.7126
  813MOL0     H12171   9.470  -0.757   0.438  0.2183 -1.6645  0.8940
  813MOL0     H12172   9.611  -0.588   0.337  1.4848 -0.2041  1.0852
  813MOL0     H12173   9.587  -0.721   0.220  1.1036 -1.2518 -1.0337
  813MOL0     H12174   9.178  -0.766   0.908 -0.3436 -0.4046  1.4702
  813MOL0     H12175   9.098  -0.619   1.089  0.4968 -0.6011 -0.1546
  813MOL0     H12176   8.798  -0.658   1.463 -0.1101  0.6973  1.5520
  813MOL0     H12177   8.677  -0.586   1.649  1.3973  0.4941  0.7306
  813MOL0     H12178   7.549   0.454   2.165  0.8369  0.7719 -0.3576
  813MOL0     H12179   7.317   0.395   2.194  0.4490  0.8851  0.8794
  813MOL0     H12180   6.863   0.478   2.093 -1.4994 -1.5213 -0.4216
  813MOL0     H12181   6.696   0.368   2.191 -0.3566  0.0491  1.2308
  813MOL0     H12182   6.430   0.535   2.561 -1.6448 -0.7580 -0.0721
  813MOL0     H12183   6.443   0.640   2.415  0.2044 -0.1060 -0.2642
  813MOL0     H12184   6.201   0.567   2.413  1.8827  1.9692  1.6409
  813MOL0     H12185   6.236   0.404   2.458 -2.4906 -1.4956 -4.4099
  813MOL0     H12186   6.351   0.508   2.206  1.4749  1.5762  1.6008
  813MOL0     H12187   6.331   0.346   2.259 -0.2958  0.1923 -0.0820
  813MOL0     H12188   6.140   0.410   2.078 -0.7383 -1.4587  0.8220
  813MOL0     H12189   6.103   0.540   2.179 -0.5587 -0.2726  0.9964
  813MOL0     H12190   5.881   0.214   2.333  2.0456 -2.7574  0.0694
  813MOL0     H12191   6.651   0.689   2.472  0.3709  2.1777 -0.1746
  813MOL0     H12192   6.839   0.799   2.535 -1.0420  1.4989 -0.3821
  813MOL0     H12193   7.000   0.797   2.448 -0.4074  1.8061  0.2511
  813MOL0     H12194   6.863   0.893   2.383  0.1794  0.5204 -0.4927
  814MOL0     O12195  10.241   5.186   7.794  0.1260 -1.1743  0.3383
  814MOL0     C12196  10.238   5.267   7.698  0.7658  0.3079  0.7931
  814MOL0     O12197  10.331   5.359   7.657 -0.3411 -0.5012 -0.5811
  814MOL0     C12198  10.440   5.376   7.737 -0.4192  0.4999 -0.6123
  814MOL0     C12199  10.449   5.501   7.796 -0.0848  0.2745 -0.0526
  814MOL0     C12200  10.559   5.533   7.876 -0.4758 -0.2861  0.6872
  814MOL0     C12201  10.661   5.443   7.900 -0.4352  0.0694 -0.0328
  814MOL0     O12202  10.782   5.485   7.959  0.4100 -0.4051 -0.2920
  814MOL0     C12203  10.860   5.604   7.930 -0.2396  0.5961  0.3124
  814MOL0     C12204  10.901   5.574   7.790  0.0914 -0.5081 -0.8359
  814MOL0     C12205  11.011   5.668   7.739 -0.6727 -0.9069 -1.0690
  814MOL0     C12206  10.962   5.808   7.712 -0.1971  0.2320 -0.0558
  814MOL0     C12207  11.086   5.884   7.653 -0.4680  1.1203  0.4156
  814MOL0     C12208  11.039   6.020   7.588  0.4561 -0.4647 -0.8635
  814MOL0     C12209  11.145   6.130   7.581  0.1694  0.9268  0.4124
  814MOL0     C12210  11.242   6.108   7.463 -0.2871 -0.0401  0.8353
  814MOL0     N12211  11.171   6.134   7.339  0.2969  0.3455 -0.5028
  814MOL0     C12212  11.142   6.042   7.228 -0.3465  0.1997 -0.0820
  814MOL0     C12213  11.133   6.126   7.120  0.3716  0.6500  0.7350
  814MOL0     C12214  11.111   6.085   6.981  0.6977 -0.1547 -0.0027
  814MOL0     C12215  11.201   5.974   6.932  0.4512  0.5921 -0.0649
  814MOL0     C12216  11.185   5.947   6.780 -0.3125  0.5324 -0.7220
  814MOL0     C12217  11.051   5.891   6.728 -0.3736  0.0107  0.5359
  814MOL0     O12218  11.004   5.798   6.824  0.4634  0.3573  0.3984
  814MOL0     C12219  10.871   5.755   6.809 -0.4492  0.1019 -0.8190
  814MOL0     C12220  10.823   5.678   6.922 -0.4581  0.5757  0.0315
  814MOL0     C12221  10.697   5.623   6.924 -0.5067 -0.7764  0.7602
  814MOL0     C12222  10.666   5.527   7.035  0.1444 -0.4458  0.2267
  814MOL0     C12223  10.610   5.663   6.820 -0.4903 -0.4601  0.0984
  814MOL0     C12224  10.474   5.620   6.807  0.8252  0.9828  0.7377
  814MOL0     O12225  10.407   5.616   6.918  0.2111  0.0415 -0.0814
  814MOL0     C12226  10.283   5.558   6.913  0.2321  0.9766 -0.1593
  814MOL0     C12227  10.255   5.417   6.907  1.2291  0.2837  0.2571
  814MOL0     C12228  10.122   5.373   6.878  0.3899 -0.7745  0.6124
  814MOL0     C12229  10.019   5.463   6.855 -0.0139 -0.5767  0.3341
  814MOL0     O12230   9.906   5.404   6.801 -0.0842  0.0826  0.0784
  814MOL0     C12231   9.798   5.485   6.746 -0.2249 -0.1051  0.1241
  814MOL0     C12232   9.675   5.398   6.738 -0.8306 -0.2560  1.4236
  814MOL0     C12233   9.546   5.476   6.735 -0.0906 -0.9149 -0.5822
  814MOL0     C12234   9.512   5.500   6.589  0.7104 -0.2004 -0.1882
  814MOL0     C12235   9.383   5.572   6.565  0.3767  0.5045  0.0868
  814MOL0     C12236   9.381   5.631   6.423  0.2970 -0.3655 -0.3990
  814MOL0     C12237   9.246   5.701   6.377 -0.3826 -0.6680 -0.1160
  814MOL0     C12238   9.146   5.601   6.316 -0.0778 -0.7448 -0.0086
  814MOL0    Cl12239   9.210   5.555   6.153  0.4198  0.1494 -0.2103
  814MOL0     C12240  10.047   5.605   6.871  0.5366  0.5396  0.8117
  814MOL0     C12241  10.175   5.646   6.910 -0.3816 -0.6404  0.0468
  814MOL0     O12242  10.425   5.603   6.689  0.2973 -0.0276  0.8259
  814MOL0     C12243  10.655   5.744   6.712  0.3928 -0.4006 -0.1786
  814MOL0     C12244  10.783   5.786   6.706  0.0550 -0.7090  0.6006
  814MOL0     N12245  11.136   6.255   7.163  0.1245 -0.4455  0.0783
  814MOL0     N12246  11.167   6.261   7.292  0.5829 -0.9510  0.6453
  814MOL0     C12247  10.651   5.312   7.840  0.4658 -0.1119 -0.5204
  814MOL0     C12248  10.547   5.283   7.755 -0.3693  0.3552  0.2157
  814MOL0     C12249  10.116   5.241   7.608 -0.3458 -0.1324  0.4346
  814MOL0     C12250  10.036   5.356   7.570  0.0567  0.7284  0.4787
  814MOL0     C12251   9.919   5.330   7.507  0.6311  0.2859 -0.3633
  814MOL0     C12252   9.875   5.205   7.472  0.0413  0.0705  0.8879
  814MOL0     O12253   9.755   5.183   7.417  0.6175 -0.0319  0.0001
  814MOL0     C12254   9.688   5.070   7.455  0.2973  1.0054  0.4803
  814MOL0     C12255   9.538   5.097   7.483  0.2152 -0.5362 -0.5198
  814MOL0     C12256   9.516   5.163   7.623 -0.0631  0.8835  0.4869
  814MOL0     C12257   9.592   5.295   7.650 -0.5380  0.0993  0.6028
  814MOL0     C12258   9.527   5.394   7.562  0.3923  0.9505  0.5708
  814MOL0     C12259   9.465   5.468   7.496  0.2439  0.0641  0.1993
  814MOL0     C12260   9.960   5.097   7.491  0.7018  0.2123 -0.1742
  814MOL0     C12261  10.070   5.110   7.574 -0.1827 -0.0942  0.5211
  814MOL0     C12262  10.152   4.988   7.616 -0.7573 -0.7361  0.9687
  814MOL0     H12263  10.370   5.573   7.775 -1.9589 -1.4574  0.6210
  814MOL0     H12264  10.567   5.636   7.910 -0.9714 -0.0800  0.1973
  814MOL0     H12265  10.944   5.597   8.000 -2.3812 -2.4423  2.8254
  814MOL0     H12266  10.811   5.701   7.943 -2.6138 -0.4454 -0.3281
  814MOL0     H12267  10.940   5.473   7.784  0.8363 -0.3520  0.9252
  814MOL0     H12268  10.813   5.589   7.725 -0.4931 -0.1515  0.0165
  814MOL0     H12269  11.083   5.667   7.820  0.4014  1.9453 -1.8587
  814MOL0     H12270  11.061   5.635   7.647  1.3599 -0.6043 -0.1181
  814MOL0     H12271  10.889   5.811   7.631  1.2634  0.7085 -1.4105
  814MOL0     H12272  10.915   5.850   7.802 -0.8895 -1.8775  0.6249
  814MOL0     H12273  11.139   5.825   7.578 -3.6478 -2.8535  1.0000
  814MOL0     H12274  11.161   5.899   7.732 -1.7591  1.4722  1.6156
  814MOL0     H12275  10.998   6.007   7.487  0.9836 -3.9413 -0.7405
  814MOL0     H12276  10.950   6.049   7.644 -0.9041 -0.1570 -3.0591
  814MOL0     H12277  11.208   6.141   7.670  1.1985 -1.1730  0.0055
  814MOL0     H12278  11.101   6.229   7.569  1.0359  1.5209  1.8954
  814MOL0     H12279  11.328   6.172   7.487  1.0979 -1.1182 -0.9166
  814MOL0     H12280  11.285   6.008   7.454  2.9589  0.9673  3.2303
  814MOL0     H12281  11.137   5.934   7.233  1.9672 -0.0720 -1.7419
  814MOL0     H12282  11.114   6.177   6.923  1.6402 -0.1936 -0.0360
  814MOL0     H12283  11.006   6.054   6.975  0.2828  1.3268 -0.8556
  814MOL0     H12284  11.306   5.989   6.957 -0.0541 -0.7938  3.4935
  814MOL0     H12285  11.166   5.886   6.986  1.7235  3.1694  5.7876
  814MOL0     H12286  11.214   6.039   6.728 -2.5561  2.6799  1.5735
  814MOL0     H12287  11.260   5.874   6.748  0.5918  1.5378 -0.9534
  814MOL0     H12288  10.979   5.971   6.708  2.5248  2.6222 -0.1618
  814MOL0     H12289  11.067   5.853   6.627 -2.2280 -2.2539  0.9911
  814MOL0     H12290  10.905   5.649   6.987  1.0380 -2.2109 -2.8305
  814MOL0     H12291  10.732   5.549   7.119  1.1859  1.0190 -0.9229
  814MOL0     H12292  10.696   5.426   7.007  0.4889 -0.4427  0.5657
  814MOL0     H12293  10.563   5.530   7.071  0.1029  0.9203  0.0436
  814MOL0     H12294  10.336   5.346   6.923  0.9683  0.0910  0.7299
  814MOL0     H12295  10.091   5.269   6.873  3.1912 -1.6886  0.6815
  814MOL0     H12296   9.780   5.575   6.806 -0.4857  0.2172 -0.4260
  814MOL0     H12297   9.822   5.530   6.649  1.3451  2.5420  1.6082
  814MOL0     H12298   9.674   5.326   6.655 -0.9449  2.7411 -1.3614
  814MOL0     H12299   9.677   5.335   6.827  0.4983 -0.3592  1.3409
  814MOL0     H12300   9.568   5.573   6.780  2.5523 -1.1533 -1.1779
  814MOL0     H12301   9.464   5.415   6.775 -1.1989  2.0979  2.2302
  814MOL0     H12302   9.515   5.405   6.534  4.9512  0.2429 -1.0542
  814MOL0     H12303   9.599   5.555   6.552 -0.0372  2.3925  1.6190
  814MOL0     H12304   9.291   5.512   6.575  0.9955 -0.8519 -1.8513
  814MOL0     H12305   9.369   5.648   6.643 -1.4904  0.8779 -0.5530
  814MOL0     H12306   9.403   5.548   6.355  1.4820  0.3414 -0.9040
  814MOL0     H12307   9.462   5.704   6.433 -1.4501  1.3943  2.0590
  814MOL0     H12308   9.254   5.778   6.300 -0.8387 -0.1526  0.3411
  814MOL0     H12309   9.196   5.751   6.461  0.7151 -0.3924  0.3906
  814MOL0     H12310   9.048   5.650   6.309 -0.5810 -1.3129  2.2301
  814MOL0     H12311   9.130   5.517   6.384 -2.0767  0.1463  0.7020
  814MOL0     H12312   9.975   5.686   6.863 -0.8689 -0.8460 -2.2360
  814MOL0     H12313  10.190   5.751   6.933 -1.7579 -0.8091  2.0199
  814MOL0     H12314  10.596   5.775   6.626 -0.2905 -1.6132 -0.1737
  814MOL0     H12315  10.823   5.828   6.614  0.5230  1.5989  1.7729
  814MOL0     H12316  10.722   5.230   7.852 -0.2242 -0.5433  0.7993
  814MOL0     H12317  10.549   5.181   7.718  0.4347  0.0940  0.9499
  814MOL0     H12318  10.053   5.459   7.601 -2.0485  0.3867  3.1386
  814MOL0     H12319   9.849   5.409   7.482 -0.4867 -0.7619 -0.6759
  814MOL0     H12320   9.697   5.010   7.364 -1.2551 -1.4073  1.8101
  814MOL0     H12321   9.715   5.027   7.552 -1.0343 -0.9230  0.0581
  814MOL0     H12322   9.472   5.012   7.465 -1.0610  0.5520 -1.1165
  814MOL0     H12323   9.510   5.165   7.402 -0.7945  1.7603  1.6337
  814MOL0     H12324   9.409   5.183   7.635 -0.5304 -0.1642 -1.4445
  814MOL0     H12325   9.557   5.098   7.700 -0.7223 -1.3580 -0.9490
  814MOL0     H12326   9.698   5.278   7.632 -0.6006 -1.1607  1.3064
  814MOL0     H12327   9.584   5.319   7.757 -1.8012 -0.5027  0.6674
  814MOL0     H12328   9.399   5.535   7.446 -0.7042  2.0419  3.7860
  814MOL0     H12329   9.930   5.001   7.452 -1.9554  1.4456 -1.4421
  814MOL0     H12330  10.115   4.908   7.551  0.8729 -0.5844 -0.2093
  814MOL0     H12331  10.259   4.998   7.595 -0.8752  3.6644  1.3459
  814MOL0     H12332  10.135   4.955   7.719  0.6105 -1.2176  1.0601
  815MOL0     O12333   6.351  10.419   0.700  0.6271  0.3195 -0.5437
  815MOL0     C12334   6.431  10.478   0.628 -0.1109 -0.0901 -0.4132
  815MOL0     O12335   6.486  10.433   0.521 -0.5073  0.2695 -0.6285
  815MOL0     C12336   6.458  10.307   0.471 -0.2402  0.0068 -0.1225
  815MOL0     C12337   6.444  10.294   0.333 -0.2254  0.0887 -0.1945
  815MOL0     C12338   6.383  10.175   0.281 -0.9486 -0.2013  1.2905
  815MOL0     C12339   6.358  10.065   0.357 -0.1328 -0.1413 -0.4996
  815MOL0     O12340   6.299   9.955   0.306  0.2929  0.6191  0.3582
  815MOL0     C12341   6.256   9.842   0.386  1.0900 -0.2315 -0.1898
  815MOL0     C12342   6.372   9.749   0.418  0.2581 -0.1284 -0.4886
  815MOL0     C12343   6.435   9.683   0.292  0.3925  0.4315 -0.1261
  815MOL0     C12344   6.335   9.598   0.215  0.2656  0.4251 -0.4602
  815MOL0     C12345   6.407   9.529   0.096 -0.3558 -0.5671 -0.0634
  815MOL0     C12346   6.317   9.424   0.032 -0.3279  0.4629 -0.2297
  815MOL0     C12347   6.209   9.486  -0.066  0.7095 -0.0099  1.1626
  815MOL0     C12348   6.108   9.381  -0.116 -0.7086  0.0723 -0.4421
  815MOL0     N12349   6.000   9.436  -0.198 -0.3804  0.0013 -0.6897
  815MOL0     C12350   6.031   9.470  -0.328 -0.4639  0.4624 -0.1840
  815MOL0     C12351   5.911   9.520  -0.371  0.4478 -0.7499 -0.1583
  815MOL0     C12352   5.864   9.561  -0.509 -0.3632 -0.3182  0.3858
  815MOL0     C12353   5.983   9.628  -0.589  0.0749  0.5304  0.0179
  815MOL0     C12354   5.967   9.638  -0.742  0.6735 -0.4461  0.4216
  815MOL0     C12355   6.073   9.712  -0.817  0.1389 -1.0818 -0.0072
  815MOL0     O12356   6.201   9.678  -0.768 -0.6537  0.6150  0.5989
  815MOL0     C12357   6.309   9.688  -0.857 -0.6392 -0.3180 -0.2056
  815MOL0     C12358   6.331   9.792  -0.952 -0.1765  0.1300 -0.2522
  815MOL0     C12359   6.443   9.788  -1.035 -1.2283  0.1586 -0.0827
  815MOL0     C12360   6.460   9.905  -1.122 -0.1419 -0.0009  0.6576
  815MOL0     C12361   6.531   9.672  -1.034  0.0087  0.4728  0.0737
  815MOL0     C12362   6.658   9.656  -1.114  0.8870 -0.4534  0.3233
  815MOL0     O12363   6.670   9.746  -1.215 -0.5348 -0.2067 -0.3183
  815MOL0     C12364   6.774   9.759  -1.296 -0.2899  0.0544 -0.1782
  815MOL0     C12365   6.815   9.886  -1.337  0.3067 -1.5448 -0.1494
  815MOL0     C12366   6.934   9.908  -1.409  0.5399  0.1677  0.1489
  815MOL0     C12367   6.996   9.798  -1.475 -0.9114  0.6188  0.5728
  815MOL0     O12368   7.099   9.818  -1.569 -0.4239  0.0011 -0.1272
  815MOL0     C12369   7.136   9.715  -1.659 -0.6465  0.0145 -0.1956
  815MOL0     C12370   7.251   9.755  -1.751 -0.1521 -0.1660  1.4375
  815MOL0     C12371   7.253   9.898  -1.794  0.1288  0.4553 -0.6098
  815MOL0     C12372   7.324   9.925  -1.929 -0.3291  0.1149  0.2099
  815MOL0     C12373   7.264  10.052  -1.989 -0.1946 -0.6841  0.5685
  815MOL0     C12374   7.342  10.112  -2.107  0.1567 -0.4577 -0.6169
  815MOL0     C12375   7.492  10.131  -2.085  0.6726  0.5835 -0.0271
  815MOL0     C12376   7.550  10.210  -2.203  0.3678 -1.0184 -0.2422
  815MOL0    Cl12377   7.712  10.276  -2.181  0.2837 -0.0552 -0.3809
  815MOL0     C12378   6.952   9.666  -1.439  0.5983  0.6256 -0.6594
  815MOL0     C12379   6.839   9.651  -1.348 -0.3089 -0.1476  0.6823
  815MOL0     O12380   6.734   9.562  -1.092 -0.4521 -0.2919 -0.2158
  815MOL0     C12381   6.487   9.560  -0.959 -0.5939  0.5709  0.5826
  815MOL0     C12382   6.377   9.568  -0.880  0.4715 -0.4662 -0.9972
  815MOL0     N12383   5.821   9.501  -0.262  0.4716  0.1257  0.7171
  815MOL0     N12384   5.875   9.459  -0.155 -0.0908  0.1751 -0.7027
  815MOL0     C12385   6.394  10.077   0.495 -0.0690 -1.4962 -0.1296
  815MOL0     C12386   6.444  10.193   0.549 -0.2171  0.6904 -0.0767
  815MOL0     C12387   6.468  10.610   0.681  0.3041  0.1998 -0.1272
  815MOL0     C12388   6.558  10.689   0.612  0.5073  0.1224  0.6202
  815MOL0     C12389   6.611  10.807   0.659  0.7278 -0.8816 -0.0212
  815MOL0     C12390   6.573  10.851   0.785 -0.4360  0.6238 -0.6817
  815MOL0     O12391   6.615  10.961   0.858  0.0596 -0.1926 -0.1522
  815MOL0     C12392   6.618  11.082   0.783 -0.3571 -0.7127 -0.2615
  815MOL0     C12393   6.565  11.204   0.865  0.0877  0.1268  0.4609
  815MOL0     C12394   6.419  11.199   0.891 -0.5349 -0.2720 -1.1029
  815MOL0     C12395   6.403  11.305   1.009  0.3983  0.0643  0.4186
  815MOL0     C12396   6.259  11.332   1.041 -0.0828 -0.7836 -0.1241
  815MOL0     C12397   6.135  11.347   1.063 -0.6206 -0.3505 -0.4804
  815MOL0     C12398   6.488  10.766   0.864  0.3466  0.9161  0.1231
  815MOL0     C12399   6.432  10.644   0.818  0.1234 -0.4853 -0.6171
  815MOL0     C12400   6.330  10.582   0.909 -0.1847  1.1388 -0.1971
  815MOL0     H12401   6.462  10.387   0.279  1.6629  0.9763  1.7998
  815MOL0     H12402   6.368  10.156   0.175  2.1453  1.0746  0.5035
  815MOL0     H12403   6.170   9.793   0.339  0.0004  1.9066 -0.5598
  815MOL0     H12404   6.206   9.888   0.472  1.0231 -1.7421  0.6172
  815MOL0     H12405   6.454   9.804   0.465 -0.6416  0.5555  0.2976
  815MOL0     H12406   6.327   9.682   0.492 -0.7012  1.0431  0.0055
  815MOL0     H12407   6.486   9.756   0.228  0.6735 -1.0806 -1.7273
  815MOL0     H12408   6.511   9.616   0.332  0.3959 -0.5612 -1.6757
  815MOL0     H12409   6.290   9.518   0.275  1.0231 -1.0593 -1.8025
  815MOL0     H12410   6.256   9.660   0.172 -0.1478 -1.2153 -2.1688
  815MOL0     H12411   6.490   9.474   0.141 -0.6993 -1.0627 -0.0351
  815MOL0     H12412   6.425   9.607   0.021  0.1284  0.8626  1.4820
  815MOL0     H12413   6.383   9.352  -0.017 -1.0536 -0.7195  0.5004
  815MOL0     H12414   6.260   9.370   0.108 -1.4907 -1.0925 -2.1387
  815MOL0     H12415   6.249   9.548  -0.147 -0.5935  0.2720  0.7092
  815MOL0     H12416   6.155   9.571  -0.022  0.8334 -0.7799  2.8519
  815MOL0     H12417   6.159   9.303  -0.173 -0.0936  1.8967 -2.5455
  815MOL0     H12418   6.059   9.341  -0.027 -1.0811  1.4214 -0.0090
  815MOL0     H12419   6.114   9.441  -0.391  1.8785 -0.4100  3.0659
  815MOL0     H12420   5.780   9.631  -0.511 -0.3067 -0.0165  3.9003
  815MOL0     H12421   5.838   9.470  -0.564 -0.6783 -0.0258  0.0443
  815MOL0     H12422   6.007   9.727  -0.549  0.2452 -0.1431  1.6981
  815MOL0     H12423   6.074   9.567  -0.585 -1.8726 -2.5538  1.1859
  815MOL0     H12424   5.962   9.535  -0.780  1.9955 -0.2738 -0.2935
  815MOL0     H12425   5.871   9.682  -0.769  2.6994  3.7549 -0.7753
  815MOL0     H12426   6.058   9.692  -0.924  0.1434 -0.2456 -0.1712
  815MOL0     H12427   6.069   9.821  -0.806  1.1561 -0.7082 -2.5891
  815MOL0     H12428   6.256   9.870  -0.947 -0.8367 -0.5767  1.4173
  815MOL0     H12429   6.488   9.884  -1.226 -1.3343  1.0861  0.0859
  815MOL0     H12430   6.541   9.968  -1.083 -1.3001  0.5364  2.2880
  815MOL0     H12431   6.365   9.958  -1.136 -0.1648 -0.2460 -0.2074
  815MOL0     H12432   6.754   9.963  -1.291 -0.1573 -0.6757 -2.1416
  815MOL0     H12433   6.959  10.012  -1.429  0.8101  0.2737  0.9764
  815MOL0     H12434   7.169   9.629  -1.600 -2.2785  1.3071  2.8558
  815MOL0     H12435   7.043   9.679  -1.704 -1.3745  0.7955  0.6199
  815MOL0     H12436   7.342   9.735  -1.695  0.7100  2.2527  1.0235
  815MOL0     H12437   7.245   9.694  -1.842 -1.7691  1.6002  0.2693
  815MOL0     H12438   7.319   9.944  -1.721 -0.8707 -1.3941  1.5978
  815MOL0     H12439   7.149   9.931  -1.793 -0.1301 -0.2128  2.0435
  815MOL0     H12440   7.311   9.847  -2.004  2.1470  0.1065 -0.3235
  815MOL0     H12441   7.432   9.930  -1.909  0.1674  1.5649 -2.4166
  815MOL0     H12442   7.158  10.036  -2.009 -0.4531 -0.5579  1.7935
  815MOL0     H12443   7.264  10.135  -1.918 -0.2682  0.1160 -0.3394
  815MOL0     H12444   7.294  10.209  -2.126 -1.5523 -0.9121  1.1065
  815MOL0     H12445   7.318  10.049  -2.193  1.8804 -1.0471 -0.7028
  815MOL0     H12446   7.546  10.037  -2.071 -3.8357 -1.9523  2.7831
  815MOL0     H12447   7.507  10.192  -1.994  0.7747 -2.6022  2.2511
  815MOL0     H12448   7.491  10.297  -2.232  2.3487  0.5600  0.2510
  815MOL0     H12449   7.553  10.149  -2.294 -0.6215  0.5667 -1.3891
  815MOL0     H12450   7.005   9.581  -1.479  2.9623  0.9200  1.6015
  815MOL0     H12451   6.803   9.554  -1.314  5.2929 -1.9567  2.5109
  815MOL0     H12452   6.518   9.456  -0.961 -2.9991 -0.2352  0.8483
  815MOL0     H12453   6.344   9.477  -0.832  0.5961 -1.0258 -1.9342
  815MOL0     H12454   6.388   9.995   0.565  1.9968 -0.2088  1.6890
  815MOL0     H12455   6.468  10.197   0.655  0.2034  0.2834 -0.1537
  815MOL0     H12456   6.571  10.665   0.506 -1.4621  1.6266 -0.0313
  815MOL0     H12457   6.664  10.875   0.593 -3.3172  1.6804 -1.0141
  815MOL0     H12458   6.725  11.094   0.764 -0.2925 -1.8626 -0.6818
  815MOL0     H12459   6.571  11.082   0.684  2.6882  1.7444 -1.8913
  815MOL0     H12460   6.582  11.296   0.808  1.0352  0.6881  1.6156
  815MOL0     H12461   6.621  11.208   0.959 -0.8492  0.5462  1.0117
  815MOL0     H12462   6.367  11.222   0.798 -1.8029 -2.8647 -1.1150
  815MOL0     H12463   6.369  11.109   0.926 -1.2807  1.3557  2.5930
  815MOL0     H12464   6.459  11.394   0.981  2.9435 -1.3210  0.8090
  815MOL0     H12465   6.449  11.264   1.099 -0.6001  1.2688  1.5086
  815MOL0     H12466   6.033  11.367   1.086 -1.2759 -4.3447  1.0020
  815MOL0     H12467   6.474  10.807   0.964  1.4128  0.3891  0.5139
  815MOL0     H12468   6.318  10.649   0.995  6.0591  1.5549  0.8458
  815MOL0     H12469   6.232  10.583   0.861 -0.6929  2.3042  0.7911
  815MOL0     H12470   6.361  10.481   0.935 -1.7715 -0.2649 -3.1991
  816MOL0     O12471  10.460  10.063   1.342  0.0206  0.0485  0.5664
  816MOL0     C12472  10.351  10.070   1.287  0.1281  0.4946  0.3297
  816MOL0     O12473  10.327  10.097   1.146 -0.5784  0.3734  0.9634
  816MOL0     C12474  10.442  10.116   1.071 -0.2968  0.3114 -0.8849
  816MOL0     C12475  10.537  10.006   1.062 -0.1613 -0.5112 -0.9043
  816MOL0     C12476  10.637  10.018   0.963  0.0509  0.1823  0.2449
  816MOL0     C12477  10.648  10.127   0.881  0.1307  0.2485  0.2275
  816MOL0     O12478  10.754  10.115   0.792  0.1115  0.1318  0.7233
  816MOL0     C12479  10.779  10.228   0.703 -0.9109  0.4214 -0.3561
  816MOL0     C12480  10.897  10.203   0.614 -0.0315  0.6236  0.2505
  816MOL0     C12481  11.037  10.207   0.676  0.7637 -0.0498 -1.1972
  816MOL0     C12482  11.141  10.173   0.578  0.5825 -0.4985  0.4250
  816MOL0     C12483  11.281  10.166   0.619 -0.4684  1.2138 -0.8860
  816MOL0     C12484  11.356  10.042   0.576  1.0801 -0.0194  0.2650
  816MOL0     C12485  11.495  10.061   0.635 -0.3976  0.4386  0.3835
  816MOL0     C12486  11.589   9.952   0.583  1.1040 -0.2171 -0.3715
  816MOL0     N12487  11.564   9.811   0.604  0.6220 -0.5214 -0.0071
  816MOL0     C12488  11.628   9.742   0.697 -1.1292  0.2789 -0.1602
  816MOL0     C12489  11.569   9.625   0.715  0.4806  0.2399  0.1878
  816MOL0     C12490  11.598   9.517   0.813 -0.4516  0.8111  0.3593
  816MOL0     C12491  11.702   9.418   0.770 -0.1379 -0.6636  0.3527
  816MOL0     C12492  11.835   9.467   0.842  0.7269  0.3930  0.6885
  816MOL0     C12493  11.951   9.379   0.820 -0.0550  0.7192 -0.0902
  816MOL0     O12494  11.965   9.340   0.679  0.3094  0.2790  0.3126
  816MOL0     C12495  12.087   9.274   0.639  0.2153 -0.0701 -0.8552
  816MOL0     C12496  12.190   9.247   0.722  0.1332  0.4526 -0.4250
  816MOL0     C12497  12.307   9.183   0.684 -0.9407 -0.0131  0.1190
  816MOL0     C12498  12.414   9.161   0.795 -0.3876  0.1695  1.2210
  816MOL0     C12499  12.328   9.145   0.546  0.0783  0.3851  0.0063
  816MOL0     C12500  12.458   9.090   0.496 -0.0863  0.3276  0.0322
  816MOL0     O12501  12.447   9.017   0.377  0.3250 -0.3113 -0.3411
  816MOL0     C12502  12.562   8.971   0.318  0.5158 -0.0102  0.3446
  816MOL0     C12503  12.592   9.017   0.186 -0.4877  0.2474 -0.6155
  816MOL0     C12504  12.713   8.975   0.121 -0.2315 -0.1731 -0.3573
  816MOL0     C12505  12.796   8.884   0.190  0.6818 -0.6713  0.9946
  816MOL0     O12506  12.918   8.838   0.142  0.7463  0.2162 -0.1282
  816MOL0     C12507  12.967   8.882   0.009  0.0184  0.1133 -0.6066
  816MOL0     C12508  13.021   9.024   0.014  0.0512 -0.9902 -0.4598
  816MOL0     C12509  13.077   9.076  -0.109 -0.0791  0.3080  0.1187
  816MOL0     C12510  13.120   9.231  -0.116  0.2214  0.2925 -0.0156
  816MOL0     C12511  13.217   9.279  -0.004 -0.7816 -0.1738  0.1572
  816MOL0     C12512  13.359   9.205   0.004  0.6213  0.8604  0.1594
  816MOL0     C12513  13.420   9.215   0.148 -0.0230 -0.2747 -0.2329
  816MOL0     C12514  13.413   9.359   0.206 -0.1640  0.1814 -0.3116
  816MOL0    Cl12515  13.503   9.370   0.364 -0.2237  0.0376 -0.3538
  816MOL0     C12516  12.763   8.835   0.313 -0.0889  0.3145  0.4900
  816MOL0     C12517  12.649   8.877   0.383 -0.1677  1.2350  0.2494
  816MOL0     O12518  12.566   9.117   0.548 -0.4560  0.1564  0.3563
  816MOL0     C12519  12.210   9.161   0.455 -0.3202  0.1611 -0.3998
  816MOL0     C12520  12.098   9.227   0.500  0.1646  0.6350  0.2004
  816MOL0     N12521  11.467   9.619   0.627  1.0599  0.7129  0.0029
  816MOL0     N12522  11.464   9.728   0.555  0.3947  0.2114 -0.0928
  816MOL0     C12523  10.559  10.235   0.893  0.0648 -0.7912 -0.5298
  816MOL0     C12524  10.454  10.229   0.992 -1.4014  0.0339 -0.0136
  816MOL0     C12525  10.221  10.037   1.367  0.1817  1.1266 -0.3596
  816MOL0     C12526  10.098  10.046   1.299 -0.8977 -0.1871 -0.3997
  816MOL0     C12527   9.982  10.021   1.364  0.9109  0.3356  0.2801
  816MOL0     C12528   9.974   9.979   1.495 -0.3974  0.8358 -1.0017
  816MOL0     O12529   9.850   9.938   1.538 -0.1454 -0.0062  0.5254
  816MOL0     C12530   9.838   9.796   1.574 -0.2364 -0.2176 -0.3461
  816MOL0     C12531   9.842   9.718   1.440 -0.1081  0.5880  0.2137
  816MOL0     C12532   9.826   9.558   1.453 -0.1480  0.2782  0.5869
  816MOL0     C12533   9.919   9.487   1.550 -0.8715 -0.1934 -0.6176
  816MOL0     C12534   9.875   9.512   1.684  0.2318  0.1908  0.0614
  816MOL0     C12535   9.831   9.515   1.797 -0.0500 -0.7273 -0.3145
  816MOL0     C12536  10.092   9.967   1.562 -0.3174 -0.2431 -0.2290
  816MOL0     C12537  10.218   9.996   1.509 -0.9222  0.2430 -0.3715
  816MOL0     C12538  10.339   9.991   1.606  0.3934  0.6227 -0.5686
  816MOL0     H12539  10.538   9.920   1.127  2.8641 -1.3031 -1.8398
  816MOL0     H12540  10.702   9.932   0.959 -0.9363 -0.6152  0.8532
  816MOL0     H12541  10.795  10.310   0.774  3.1320 -3.0235  3.2580
  816MOL0     H12542  10.685  10.243   0.648 -1.4430  1.2451  0.7520
  816MOL0     H12543  10.889  10.108   0.560 -0.5711  0.6677  0.2458
  816MOL0     H12544  10.885  10.281   0.538  0.1226 -1.0749 -1.6103
  816MOL0     H12545  11.046  10.310   0.712  1.6025 -0.7616  0.7435
  816MOL0     H12546  11.043  10.155   0.772 -0.8156 -0.0932 -1.0954
  816MOL0     H12547  11.122  10.069   0.548  1.3949 -0.5405  0.0018
  816MOL0     H12548  11.145  10.244   0.495 -0.7761  0.1405  0.8844
  816MOL0     H12549  11.284  10.174   0.728  0.1702  3.2635 -1.0048
  816MOL0     H12550  11.335  10.259   0.600  0.2344  1.1387  0.6283
  816MOL0     H12551  11.301   9.956   0.613 -3.0536  1.3160 -2.1126
  816MOL0     H12552  11.357  10.043   0.467  0.2945  2.2979  0.2124
  816MOL0     H12553  11.487  10.067   0.744  0.4356 -0.1982  0.4822
  816MOL0     H12554  11.537  10.146   0.580 -1.3186 -1.0590 -2.9154
  816MOL0     H12555  11.577   9.970   0.475 -0.1972  3.8096  0.2643
  816MOL0     H12556  11.694   9.967   0.611  1.3138 -0.1727 -1.1401
  816MOL0     H12557  11.723   9.768   0.743  0.0669 -3.0096 -0.5457
  816MOL0     H12558  11.502   9.468   0.831  0.0890 -0.1376  0.7206
  816MOL0     H12559  11.632   9.559   0.908  2.1701 -2.0098  0.8185
  816MOL0     H12560  11.683   9.318   0.810  1.9436 -0.2601  2.5582
  816MOL0     H12561  11.719   9.416   0.662 -0.9315 -0.6206  0.2251
  816MOL0     H12562  11.861   9.557   0.786 -0.6226 -0.3359 -1.1678
  816MOL0     H12563  11.824   9.474   0.951  1.2497 -0.7282  0.8317
  816MOL0     H12564  12.040   9.428   0.861 -1.1355  2.2106  0.5603
  816MOL0     H12565  11.937   9.285   0.874  0.8525  0.3387 -0.5073
  816MOL0     H12566  12.184   9.267   0.829  2.4263  0.6165 -0.2811
  816MOL0     H12567  12.460   9.063   0.778  0.8070  0.9980 -0.7161
  816MOL0     H12568  12.364   9.169   0.892 -3.7709  0.6446 -0.4071
  816MOL0     H12569  12.496   9.234   0.796  0.2716 -0.5732  2.0985
  816MOL0     H12570  12.533   9.090   0.132 -0.1425  1.5502  0.6790
  816MOL0     H12571  12.728   9.005   0.018 -1.1293 -0.6976 -0.6493
  816MOL0     H12572  13.043   8.812  -0.028  0.1343 -0.4209  0.5738
  816MOL0     H12573  12.877   8.870  -0.052  0.1114 -1.0289 -0.5382
  816MOL0     H12574  12.944   9.094   0.049  0.2443 -0.6744 -0.6606
  816MOL0     H12575  13.104   9.025   0.084  0.2457  4.4051 -0.3180
  816MOL0     H12576  13.007   9.061  -0.191 -1.0080  1.2669  0.7099
  816MOL0     H12577  13.165   9.013  -0.126 -1.7704 -2.4537  1.0178
  816MOL0     H12578  13.024   9.283  -0.104 -0.5306 -1.6039  3.2394
  816MOL0     H12579  13.149   9.254  -0.219 -4.1333  0.0488 -1.5185
  816MOL0     H12580  13.228   9.388  -0.002  1.3541 -0.3385  1.9563
  816MOL0     H12581  13.175   9.252   0.093 -2.0815 -1.9427 -0.8506
  816MOL0     H12582  13.423   9.261  -0.065  0.2828  1.3507  0.2329
  816MOL0     H12583  13.354   9.098  -0.019 -3.0952  0.7970  0.6872
  816MOL0     H12584  13.517   9.165   0.144 -0.4866 -1.1710 -0.5311
  816MOL0     H12585  13.352   9.154   0.209 -0.9393  1.2649  0.3504
  816MOL0     H12586  13.308   9.388   0.219  0.6193  3.6532 -0.6361
  816MOL0     H12587  13.467   9.429   0.141 -0.6034  0.7086 -0.1232
  816MOL0     H12588  12.826   8.758   0.356 -0.0762  1.1921  2.1060
  816MOL0     H12589  12.619   8.835   0.478  1.7639  0.5962  0.6243
  816MOL0     H12590  12.203   9.115   0.357 -0.2815 -1.7899  0.4525
  816MOL0     H12591  12.016   9.230   0.429  0.4308  1.4455 -0.0852
  816MOL0     H12592  10.567  10.328   0.837 -0.3403  0.3384  1.1940
  816MOL0     H12593  10.379  10.306   1.013  1.4563  1.9353  4.8082
  816MOL0     H12594  10.090  10.090   1.201 -0.4534  0.9151  0.0365
  816MOL0     H12595   9.892  10.013   1.303  0.6629 -0.7566  0.7787
  816MOL0     H12596   9.919   9.759   1.637 -1.3880 -3.1820 -0.4760
  816MOL0     H12597   9.744   9.766   1.622  0.2199 -1.2458 -0.0792
  816MOL0     H12598   9.942   9.720   1.396 -0.1508 -2.5421 -0.2951
  816MOL0     H12599   9.768   9.752   1.367  0.4859  1.4361 -0.0069
  816MOL0     H12600   9.723   9.532   1.476 -0.7687  2.3925  0.3917
  816MOL0     H12601   9.858   9.520   1.355 -0.6444  1.9662 -0.2628
  816MOL0     H12602  10.016   9.538   1.546 -1.3123  1.2818  3.4574
  816MOL0     H12603   9.927   9.382   1.519 -0.8374  0.2423 -2.1733
  816MOL0     H12604   9.813   9.513   1.903 -0.4420 -0.6792 -0.3812
  816MOL0     H12605  10.097   9.931   1.664  1.5694  2.1325  0.6228
  816MOL0     H12606  10.394  10.084   1.587  0.6202  0.6820  0.3483
  816MOL0     H12607  10.305  10.002   1.709  0.6881  1.9022 -0.5901
  816MOL0     H12608  10.401   9.903   1.592  0.8059  0.4066  2.1497
  817MOL0     O12609  10.257   9.994  11.372  0.0799  0.1846 -1.0434
  817MOL0     C12610  10.234  10.052  11.483  0.6457  0.9241  0.7458
  817MOL0     O12611  10.305  10.149  11.542 -0.1058  0.2411 -0.0421
  817MOL0     C12612  10.394  10.216  11.460 -0.3716  0.2377 -0.3937
  817MOL0     C12613  10.527  10.208  11.495  0.7788  0.0602 -0.1926
  817MOL0     C12614  10.625  10.270  11.422  0.0256  0.3769 -0.2339
  817MOL0     C12615  10.588  10.352  11.312  0.5186 -0.4143  0.2810
  817MOL0     O12616  10.692  10.420  11.243  0.5054 -0.2037  0.5248
  817MOL0     C12617  10.665  10.541  11.173 -0.0529  0.6800 -0.2824
  817MOL0     C12618  10.633  10.511  11.020  0.5962  0.7910 -0.1804
  817MOL0     C12619  10.742  10.435  10.948 -0.3416 -0.0110 -0.0635
  817MOL0     C12620  10.862  10.526  10.926  0.8227  0.4733  0.0107
  817MOL0     C12621  10.960  10.470  10.830 -0.3933 -0.1838  0.6147
  817MOL0     C12622  11.097  10.555  10.836  0.7425  0.0754  0.1706
  817MOL0     C12623  11.076  10.709  10.799 -0.2611  1.0009 -0.0965
  817MOL0     C12624  11.195  10.788  10.845 -0.1587  0.8958  0.2128
  817MOL0     N12625  11.221  10.803  10.988  0.1922 -0.4633  0.3850
  817MOL0     C12626  11.169  10.894  11.072 -0.1256  0.2307  0.1750
  817MOL0     C12627  11.211  10.883  11.198  0.3247 -0.6273  0.3744
  817MOL0     C12628  11.171  10.968  11.321 -0.0940  0.3655  0.6074
  817MOL0     C12629  11.023  10.966  11.349 -1.7012  0.5553  0.4080
  817MOL0     C12630  10.987  10.830  11.403  0.1473 -0.6688  0.7338
  817MOL0     C12631  10.836  10.801  11.385 -0.2907 -0.2352 -0.5548
  817MOL0     O12632  10.823  10.668  11.438 -0.3978 -0.4460 -0.2523
  817MOL0     C12633  10.810  10.646  11.579  0.8095 -0.1292  0.3516
  817MOL0     C12634  10.785  10.519  11.623 -0.0933  0.7694  0.4617
  817MOL0     C12635  10.742  10.482  11.754 -0.4651  0.0710 -0.5171
  817MOL0     C12636  10.709  10.342  11.780  0.0373  0.3326 -0.4262
  817MOL0     C12637  10.739  10.584  11.858 -0.2358 -0.1272 -0.2231
  817MOL0     C12638  10.703  10.559  11.998 -0.2638 -0.0177 -0.3938
  817MOL0     O12639  10.631  10.658  12.072  0.0354 -0.2528  0.2743
  817MOL0     C12640  10.618  10.639  12.206  0.1278  0.1755 -0.0952
  817MOL0     C12641  10.492  10.635  12.268  0.2966  0.7756 -0.1459
  817MOL0     C12642  10.472  10.608  12.404 -0.2170 -0.0030  0.4888
  817MOL0     C12643  10.586  10.580  12.489  0.5592 -0.7259  0.0029
  817MOL0     O12644  10.580  10.561  12.627 -0.5805  0.1942  0.3729
  817MOL0     C12645  10.445  10.547  12.678  0.0267  0.1776  0.0888
  817MOL0     C12646  10.439  10.478  12.806  0.1393 -0.2613  0.0564
  817MOL0     C12647  10.306  10.496  12.896 -0.4617  0.4068 -0.2748
  817MOL0     C12648  10.250  10.359  12.931 -0.8441 -0.6747  0.2206
  817MOL0     C12649  10.113  10.370  13.009 -1.1437 -0.1541 -0.1503
  817MOL0     C12650  10.135  10.385  13.163  0.1486 -0.3608 -1.1465
  817MOL0     C12651  10.011  10.430  13.233 -0.8895 -0.4425  0.4643
  817MOL0     C12652  10.019  10.433  13.383 -0.3925  0.2665 -0.3619
  817MOL0    Cl12653  10.067  10.274  13.453 -0.4119 -0.3676 -0.3447
  817MOL0     C12654  10.709  10.579  12.428  0.5237 -0.4084 -0.0332
  817MOL0     C12655  10.730  10.611  12.286  0.3583 -0.3759  0.5132
  817MOL0     O12656  10.744  10.451  12.040 -0.0585  0.0978  0.1350
  817MOL0     C12657  10.761  10.716  11.816 -0.0123  0.2153  0.3039
  817MOL0     C12658  10.796  10.747  11.681  0.3518  0.4272 -0.1474
  817MOL0     N12659  11.284  10.766  11.201  0.4209 -0.6845  0.2675
  817MOL0     N12660  11.290  10.721  11.074 -0.2763 -0.0229  0.6040
  817MOL0     C12661  10.454  10.369  11.277  0.9041  0.7495  0.4404
  817MOL0     C12662  10.352  10.306  11.358  0.4827 -0.8685 -1.1166
  817MOL0     C12663  10.131   9.991  11.566  0.8770  0.1874 -0.0242
  817MOL0     C12664  10.170   9.963  11.694  0.4635  0.6466  0.0437
  817MOL0     C12665  10.081   9.932  11.797  0.1257 -0.4924  0.3747
  817MOL0     C12666   9.941   9.919  11.764  0.0508 -0.2405 -0.8072
  817MOL0     O12667   9.848   9.893  11.859 -0.0276  0.0070 -1.0781
  817MOL0     C12668   9.892   9.922  11.989 -0.1400  0.0778 -1.5500
  817MOL0     C12669   9.778   9.907  12.100  0.8616  0.3143  1.1757
  817MOL0     C12670   9.777  10.029  12.194 -0.0388  0.4730  0.2545
  817MOL0     C12671   9.665  10.023  12.308 -0.2420 -0.6473  0.1443
  817MOL0     C12672   9.725   9.948  12.422  0.4613  0.0425 -1.0885
  817MOL0     C12673   9.799   9.891  12.502  0.3563 -0.5989 -1.0125
  817MOL0     C12674   9.901   9.927  11.630  0.7082  0.8597 -0.1693
  817MOL0     C12675   9.992   9.958  11.531  0.0100 -0.2313 -0.0263
  817MOL0     C12676   9.931   9.988  11.405 -0.3474 -0.2459  1.1592
  817MOL0     H12677  10.547  10.145  11.581 -1.9645  0.3894  0.8021
  817MOL0     H12678  10.731  10.259  11.446  0.4235  1.4015 -1.4120
  817MOL0     H12679  10.762  10.591  11.177  2.3026 -3.4450  3.5762
  817MOL0     H12680  10.581  10.593  11.220  0.3246  0.9884  0.0575
  817MOL0     H12681  10.537  10.458  11.020  1.1444 -0.2110 -0.4683
  817MOL0     H12682  10.615  10.608  10.972 -0.3460 -0.2404 -2.0553
  817MOL0     H12683  10.770  10.339  10.993 -1.9588 -0.7358 -0.5394
  817MOL0     H12684  10.699  10.393  10.857 -0.0325 -0.3750 -0.0475
  817MOL0     H12685  10.829  10.624  10.889  0.2524  0.5114  0.6057
  817MOL0     H12686  10.916  10.545  11.019 -1.4954  0.6895  1.4021
  817MOL0     H12687  10.924  10.468  10.727 -0.2744 -1.9387  0.5857
  817MOL0     H12688  11.003  10.374  10.859  4.0241  0.7775 -1.7263
  817MOL0     H12689  11.147  10.554  10.933 -2.3777  0.9273  1.9439
  817MOL0     H12690  11.169  10.517  10.763  0.8113  0.1150  0.2185
  817MOL0     H12691  10.994  10.752  10.858 -0.4111 -0.8983  1.1623
  817MOL0     H12692  11.060  10.704  10.691  3.9563 -3.6395 -0.8644
  817MOL0     H12693  11.287  10.742  10.808 -1.4284  0.3449 -2.4615
  817MOL0     H12694  11.176  10.885  10.799 -3.2503 -0.3376 -1.3645
  817MOL0     H12695  11.098  10.970  11.038  0.5517  0.6042 -0.4272
  817MOL0     H12696  11.213  11.069  11.319  1.9588 -0.3487  2.7029
  817MOL0     H12697  11.219  10.921  11.407  0.8602 -2.7201 -1.4388
  817MOL0     H12698  10.997  11.043  11.422  0.3223  2.2275 -0.5465
  817MOL0     H12699  10.957  10.980  11.263 -2.0215 -2.4781  0.0308
  817MOL0     H12700  11.042  10.749  11.354  2.9621  0.3645  1.9578
  817MOL0     H12701  11.016  10.837  11.509 -0.1469  0.6123  0.7463
  817MOL0     H12702  10.771  10.863  11.447  1.0455 -0.8779  1.5822
  817MOL0     H12703  10.807  10.805  11.279 -2.4022  0.0108 -0.0211
  817MOL0     H12704  10.791  10.432  11.558  0.0055  1.1303 -0.0238
  817MOL0     H12705  10.713  10.282  11.688  1.3970  1.5388 -1.1898
  817MOL0     H12706  10.605  10.335  11.813  0.2245 -1.5726 -0.1428
  817MOL0     H12707  10.784  10.308  11.851  0.7954  2.1640 -0.2877
  817MOL0     H12708  10.404  10.655  12.208  0.5066  1.5542 -0.2042
  817MOL0     H12709  10.371  10.617  12.443 -0.6595  0.2486 -0.7010
  817MOL0     H12710  10.384  10.638  12.685  0.6995  0.4925  3.7199
  817MOL0     H12711  10.401  10.486  12.597  1.8023 -1.7020  0.4716
  817MOL0     H12712  10.455  10.372  12.780 -3.6479 -0.5578 -1.8017
  817MOL0     H12713  10.517  10.515  12.872 -0.8576 -0.8081  1.5919
  817MOL0     H12714  10.225  10.553  12.850 -0.0129  1.0835 -0.2358
  817MOL0     H12715  10.339  10.541  12.990  1.0177  1.1411 -1.1226
  817MOL0     H12716  10.315  10.290  12.986 -2.1547 -1.4474  0.8806
  817MOL0     H12717  10.232  10.309  12.836  3.8368 -1.6675 -0.3806
  817MOL0     H12718  10.054  10.452  12.968 -2.8689 -1.0117  0.5371
  817MOL0     H12719  10.052  10.282  12.986  0.6033 -1.2717 -0.7974
  817MOL0     H12720  10.212  10.459  13.187 -0.9700  1.0719 -1.8182
  817MOL0     H12721  10.151  10.284  13.203 -0.3454  0.4757  1.3153
  817MOL0     H12722   9.929  10.362  13.208 -0.0470 -2.0517  1.8415
  817MOL0     H12723   9.983  10.532  13.204  1.5161 -0.0338 -0.6672
  817MOL0     H12724   9.923  10.462  13.427  0.3384  1.2445  0.6429
  817MOL0     H12725  10.082  10.515  13.419  0.1114  0.5023 -1.6990
  817MOL0     H12726  10.793  10.548  12.489  1.3886 -1.5081 -1.7107
  817MOL0     H12727  10.828  10.613  12.239  0.2557  3.6135  0.1214
  817MOL0     H12728  10.745  10.794  11.890  0.2190  2.1376 -1.5877
  817MOL0     H12729  10.799  10.853  11.659 -3.3543  0.7228  0.1924
  817MOL0     H12730  10.424  10.427  11.190 -0.7724 -1.1337 -0.3420
  817MOL0     H12731  10.252  10.323  11.319 -0.0016 -2.2501 -0.5329
  817MOL0     H12732  10.277   9.974  11.709  1.0468 -1.5550 -1.9461
  817MOL0     H12733  10.119   9.924  11.898 -1.4679 -0.1071  1.0390
  817MOL0     H12734   9.970   9.858  12.032  0.1672  0.6831 -1.1947
  817MOL0     H12735   9.915  10.029  11.993  0.9218 -0.1796  1.1552
  817MOL0     H12736   9.784   9.819  12.164 -0.4809  0.3375  1.3692
  817MOL0     H12737   9.678   9.902  12.055 -0.4021  0.8734  3.7575
  817MOL0     H12738   9.873  10.035  12.245 -0.5532 -0.2560  1.3507
  817MOL0     H12739   9.753  10.115  12.130  1.0501 -1.2400 -2.6859
  817MOL0     H12740   9.586   9.971  12.253  0.6003 -2.3939  0.5011
  817MOL0     H12741   9.630  10.123  12.335 -2.2461 -1.3029  0.2101
  817MOL0     H12742   9.869   9.852  12.572 -0.2435  2.0951  1.2911
  817MOL0     H12743   9.795   9.911  11.617  0.4330  0.0808  2.4106
  817MOL0     H12744   9.933  10.095  11.379  0.7765 -0.6855 -0.7489
  817MOL0     H12745   9.979   9.937  11.322 -0.7456 -2.5428  2.2809
  817MOL0     H12746   9.826   9.959  11.396 -0.2447  0.0899 -2.3786
  818MOL0     O12747   0.905   3.419   7.880  0.4434 -0.2534  0.2541
  818MOL0     C12748   0.784   3.396   7.881  0.1475 -0.7656 -0.0130
  818MOL0     O12749   0.686   3.488   7.863  0.9969  0.9396  0.4070
  818MOL0     C12750   0.703   3.620   7.880  0.5318  0.8974  0.1289
  818MOL0     C12751   0.821   3.694   7.837 -0.0553 -0.0954 -0.0627
  818MOL0     C12752   0.818   3.834   7.837 -0.2360 -0.9898  0.5928
  818MOL0     C12753   0.703   3.905   7.883 -0.1542  0.3176  0.7941
  818MOL0     O12754   0.712   4.043   7.886 -0.2422 -0.3563  0.0029
  818MOL0     C12755   0.661   4.120   8.003 -0.9633 -0.2291  0.3084
  818MOL0     C12756   0.716   4.259   7.968  0.3845 -0.2819  0.4785
  818MOL0     C12757   0.865   4.270   7.986 -0.3006 -0.0187  1.1676
  818MOL0     C12758   0.931   4.414   7.951  0.2884  0.2633 -0.1641
  818MOL0     C12759   1.077   4.415   7.919 -0.7692 -0.1089 -0.4018
  818MOL0     C12760   1.169   4.471   8.020  0.2241 -0.4738 -0.0647
  818MOL0     C12761   1.176   4.385   8.147 -1.5644 -0.9120 -0.5725
  818MOL0     C12762   1.255   4.465   8.249  0.2738  0.3042  0.3095
  818MOL0     N12763   1.396   4.471   8.212 -0.2542 -0.4401 -0.1847
  818MOL0     C12764   1.484   4.388   8.263 -0.1965 -0.1084 -0.2058
  818MOL0     C12765   1.603   4.439   8.219  0.0707  0.5272  0.0109
  818MOL0     C12766   1.731   4.368   8.246 -0.7687  0.2263 -0.0019
  818MOL0     C12767   1.800   4.289   8.133 -0.1881  0.0469 -0.0092
  818MOL0     C12768   1.952   4.275   8.165  0.2479 -0.5090  0.0662
  818MOL0     C12769   2.032   4.157   8.104  0.1260 -0.4865 -0.0611
  818MOL0     O12770   2.167   4.159   8.162  0.0591 -0.3525 -0.0670
  818MOL0     C12771   2.265   4.093   8.093  0.5418 -0.1000 -0.5077
  818MOL0     C12772   2.235   4.017   7.975 -0.8973 -0.2378 -0.3481
  818MOL0     C12773   2.344   3.953   7.909  0.5030 -0.3986  0.5409
  818MOL0     C12774   2.301   3.871   7.791 -0.1324 -0.1827 -0.5796
  818MOL0     C12775   2.479   3.975   7.953 -0.3261 -0.4625  0.8546
  818MOL0     C12776   2.607   3.922   7.896  0.4719 -0.2484  0.4564
  818MOL0     O12777   2.732   3.949   7.953  0.6226 -0.3641  0.3322
  818MOL0     C12778   2.835   3.863   7.951 -0.0972 -0.2327  0.0211
  818MOL0     C12779   2.964   3.914   7.965 -0.2506 -0.7289 -0.2828
  818MOL0     C12780   3.079   3.832   7.972  0.0666 -1.1817  0.2395
  818MOL0     C12781   3.073   3.694   7.962  0.9944  0.2031 -0.2761
  818MOL0     O12782   3.184   3.613   7.968  0.1490 -0.0409 -0.3834
  818MOL0     C12783   3.254   3.598   8.099 -0.2756  0.1615  0.3344
  818MOL0     C12784   3.375   3.698   8.105  0.5823 -0.3078  0.5542
  818MOL0     C12785   3.452   3.691   7.973 -0.5720 -0.1986  0.1092
  818MOL0     C12786   3.569   3.783   7.954  0.7162  0.7241 -0.4888
  818MOL0     C12787   3.699   3.722   8.031 -0.1114  0.0590 -1.2290
  818MOL0     C12788   3.820   3.810   8.013 -0.6889  0.7377 -0.0706
  818MOL0     C12789   3.951   3.763   8.075  0.0386  0.2927  0.2248
  818MOL0     C12790   4.066   3.867   8.058  0.4517  0.7347 -0.3193
  818MOL0    Cl12791   4.035   4.027   8.137  0.2211 -0.0336 -0.3437
  818MOL0     C12792   2.940   3.645   7.954  0.2081  0.1084  0.2124
  818MOL0     C12793   2.827   3.724   7.958 -0.5368  0.0674  1.2455
  818MOL0     O12794   2.588   3.872   7.789 -0.9718  0.1333  0.4347
  818MOL0     C12795   2.497   4.053   8.068 -0.2361  0.3558  0.1840
  818MOL0     C12796   2.394   4.107   8.139  0.2968 -0.5700 -0.9612
  818MOL0     N12797   1.582   4.538   8.134 -0.5743  0.5144  0.4074
  818MOL0     N12798   1.458   4.565   8.133  0.0380  0.2685  0.4025
  818MOL0     C12799   0.596   3.830   7.931 -0.1612 -0.4159  0.1364
  818MOL0     C12800   0.599   3.698   7.931 -0.5621  0.9878 -0.5527
  818MOL0     C12801   0.723   3.260   7.887 -0.3028 -0.4938  0.3462
  818MOL0     C12802   0.693   3.195   7.761  0.2374  0.0610 -0.1792
  818MOL0     C12803   0.647   3.064   7.759  0.8282 -0.5694 -0.1557
  818MOL0     C12804   0.627   2.998   7.873  0.0363 -0.4230 -0.4143
  818MOL0     O12805   0.564   2.870   7.866 -0.2219 -0.3818  0.2839
  818MOL0     C12806   0.484   2.826   7.976 -0.1559 -0.9729 -0.9450
  818MOL0     C12807   0.358   2.762   7.920 -0.5511 -0.0428  0.0447
  818MOL0     C12808   0.403   2.643   7.825  0.5223 -0.3317 -0.4807
  818MOL0     C12809   0.280   2.553   7.800 -0.3499  0.4509 -0.3556
  818MOL0     C12810   0.262   2.524   7.654  0.4896 -0.2177  0.2183
  818MOL0     C12811   0.237   2.490   7.541 -0.3228 -0.9011 -0.0201
  818MOL0     C12812   0.666   3.060   7.999 -0.1396 -0.3353 -0.2414
  818MOL0     C12813   0.711   3.191   8.008 -0.1189 -0.0048 -0.9188
  818MOL0     C12814   0.744   3.254   8.143  0.0390  0.2006  1.0893
  818MOL0     H12815   0.906   3.632   7.810  0.3554 -1.2271  3.3699
  818MOL0     H12816   0.899   3.897   7.800 -1.2800 -0.2480 -0.5372
  818MOL0     H12817   0.699   4.074   8.095  2.1261 -1.3692 -1.3974
  818MOL0     H12818   0.552   4.118   8.004 -1.0266  1.4822  2.1600
  818MOL0     H12819   0.689   4.282   7.864  2.0358  0.0726  0.0852
  818MOL0     H12820   0.663   4.335   8.025 -0.1489  2.1392 -2.9476
  818MOL0     H12821   0.899   4.250   8.088 -1.3640  1.3172  1.8125
  818MOL0     H12822   0.904   4.197   7.914 -1.0032  1.0354 -0.3359
  818MOL0     H12823   0.879   4.436   7.857 -2.1936 -4.6436 -0.2278
  818MOL0     H12824   0.905   4.492   8.023 -0.8936  0.5866 -0.9025
  818MOL0     H12825   1.100   4.480   7.833 -0.9637 -0.0647 -0.4202
  818MOL0     H12826   1.113   4.319   7.881 -3.9863 -0.4191 -3.0704
  818MOL0     H12827   1.270   4.464   7.979 -0.1049 -0.9809 -0.8198
  818MOL0     H12828   1.134   4.573   8.037  0.3452 -0.6784  1.5894
  818MOL0     H12829   1.212   4.283   8.132  3.4332  0.8297 -2.3262
  818MOL0     H12830   1.080   4.377   8.199  0.0456  0.8886  3.0489
  818MOL0     H12831   1.216   4.567   8.242 -2.0571 -0.6478 -2.4034
  818MOL0     H12832   1.240   4.429   8.351 -0.1505  0.9616  0.4901
  818MOL0     H12833   1.471   4.299   8.324 -0.3452  1.5398  2.3359
  818MOL0     H12834   1.718   4.290   8.322  1.7729 -2.0489 -1.6929
  818MOL0     H12835   1.805   4.437   8.288  0.6943 -1.0153 -0.4354
  818MOL0     H12836   1.748   4.194   8.121  3.6037 -2.0406 -1.5909
  818MOL0     H12837   1.789   4.343   8.039  0.2044  1.7886  0.8868
  818MOL0     H12838   2.008   4.364   8.134 -1.2087  0.4105 -0.0375
  818MOL0     H12839   1.958   4.274   8.274 -4.6697  2.3040  0.6678
  818MOL0     H12840   1.984   4.062   8.131 -0.6737 -0.3787 -1.0270
  818MOL0     H12841   2.032   4.175   7.996  0.7891  2.3399  0.3393
  818MOL0     H12842   2.137   3.986   7.940 -0.0710 -0.0914 -3.0157
  818MOL0     H12843   2.362   3.896   7.704  0.9024 -0.9136 -0.0898
  818MOL0     H12844   2.196   3.877   7.760 -0.2676 -0.4630 -0.1852
  818MOL0     H12845   2.316   3.764   7.807 -3.8805 -1.0125 -1.6809
  818MOL0     H12846   2.982   4.021   7.974  1.1710 -0.9515 -0.2489
  818MOL0     H12847   3.175   3.883   7.980 -1.1783  1.5029 -0.7830
  818MOL0     H12848   3.183   3.619   8.180  0.6800  1.0484  0.9665
  818MOL0     H12849   3.284   3.493   8.110 -1.8570 -0.0935  3.4198
  818MOL0     H12850   3.336   3.800   8.108 -0.1623 -0.5656 -0.0434
  818MOL0     H12851   3.443   3.662   8.183 -2.6201 -0.2187  3.5899
  818MOL0     H12852   3.378   3.721   7.899  0.8070  0.8072 -0.9236
  818MOL0     H12853   3.482   3.587   7.955 -1.1575  0.0012 -2.2911
  818MOL0     H12854   3.539   3.874   8.005  4.1263  0.5637  2.1734
  818MOL0     H12855   3.596   3.804   7.850  0.2694  4.3840  0.0247
  818MOL0     H12856   3.663   3.727   8.134 -0.8005  2.0172 -1.5372
  818MOL0     H12857   3.717   3.618   8.003 -0.4653 -0.0095 -1.2130
  818MOL0     H12858   3.800   3.907   8.058 -0.3112 -0.2102  2.2846
  818MOL0     H12859   3.850   3.832   7.910  1.3667  0.5346  0.4277
  818MOL0     H12860   3.984   3.671   8.027  1.3636  0.5275  0.6161
  818MOL0     H12861   3.926   3.731   8.177 -0.6070  0.3719  0.0937
  818MOL0     H12862   4.061   3.892   7.951 -2.3278  2.3745  0.0868
  818MOL0     H12863   4.157   3.816   8.089 -1.2359 -2.0511  0.3850
  818MOL0     H12864   2.921   3.539   7.939  1.4126 -0.2160  0.8225
  818MOL0     H12865   2.731   3.676   7.940 -0.7429  1.7640 -3.7332
  818MOL0     H12866   2.597   4.071   8.106 -0.4237 -0.9533  1.3591
  818MOL0     H12867   2.422   4.154   8.232 -0.4185 -1.4788 -0.2743
  818MOL0     H12868   0.508   3.883   7.966  1.3452  0.9553  2.1047
  818MOL0     H12869   0.519   3.635   7.970  0.5207  0.4757  0.9415
  818MOL0     H12870   0.713   3.238   7.664  0.6712 -1.0164 -0.5836
  818MOL0     H12871   0.640   3.023   7.659 -2.2707 -0.0088 -0.2596
  818MOL0     H12872   0.537   2.755   8.040  0.8731  0.3950 -0.2031
  818MOL0     H12873   0.449   2.914   8.031  1.3917 -1.5489  1.0797
  818MOL0     H12874   0.287   2.821   7.862  1.9445  1.7887 -1.2848
  818MOL0     H12875   0.302   2.728   8.008 -0.7320 -0.1518 -0.1121
  818MOL0     H12876   0.436   2.690   7.732 -0.5720 -0.9031 -1.1820
  818MOL0     H12877   0.482   2.577   7.862 -0.3689 -1.5389 -0.7051
  818MOL0     H12878   0.192   2.602   7.842  0.1750  0.1107  1.2287
  818MOL0     H12879   0.295   2.457   7.851  1.9508  0.3684 -1.0734
  818MOL0     H12880   0.222   2.481   7.435 -1.7380  0.8045 -0.0030
  818MOL0     H12881   0.649   3.007   8.092  2.1931 -0.3481  0.2321
  818MOL0     H12882   0.851   3.274   8.157 -0.2244  1.8875  0.8967
  818MOL0     H12883   0.693   3.351   8.152  0.9257  1.1940 -2.6876
  818MOL0     H12884   0.711   3.173   8.208 -1.3065 -0.2336 -0.0877
  819MOL0     O12885   6.626   1.152   9.206  0.7992  0.1281 -0.6174
  819MOL0     C12886   6.633   1.053   9.137 -0.6831 -0.3994  0.3889
  819MOL0     O12887   6.746   0.975   9.101 -0.2966 -0.2767  0.8360
  819MOL0     C12888   6.869   1.022   9.127 -0.7427 -0.4493  1.1725
  819MOL0     C12889   6.911   1.150   9.092  0.7574  0.8105 -0.1168
  819MOL0     C12890   7.036   1.202   9.112 -0.8485 -0.4320 -0.5274
  819MOL0     C12891   7.130   1.136   9.185  0.1390  0.7385  0.0175
  819MOL0     O12892   7.246   1.191   9.236 -0.5811 -0.4624  0.1458
  819MOL0     C12893   7.277   1.333   9.237 -0.3071 -0.3324 -0.1479
  819MOL0     C12894   7.383   1.356   9.354  0.6533 -0.5579  0.6702
  819MOL0     C12895   7.310   1.316   9.480 -0.5275 -0.8013  0.0059
  819MOL0     C12896   7.408   1.335   9.609 -0.7844  0.8899 -0.2768
  819MOL0     C12897   7.430   1.480   9.647 -0.9739  0.5060 -0.6474
  819MOL0     C12898   7.489   1.509   9.784 -0.7003  0.1112  0.3318
  819MOL0     C12899   7.423   1.450   9.907  0.5805 -0.3363 -1.0998
  819MOL0     C12900   7.478   1.496  10.043  0.1691  0.4066 -0.1520
  819MOL0     N12901   7.559   1.388  10.103 -0.1637  0.5803  0.1759
  819MOL0     C12902   7.681   1.334  10.061 -0.1638  0.7480  0.6355
  819MOL0     C12903   7.717   1.231  10.140  0.0438 -0.1864  0.4785
  819MOL0     C12904   7.840   1.152  10.129 -0.0636 -0.2606  0.5732
  819MOL0     C12905   7.939   1.218  10.213 -0.3621 -0.3524 -0.0829
  819MOL0     C12906   8.075   1.145  10.230  0.6145 -0.1364 -0.1656
  819MOL0     C12907   8.153   1.167  10.097 -0.5822  0.7024 -0.6008
  819MOL0     O12908   8.285   1.123  10.100 -0.3364  0.6556  0.3349
  819MOL0     C12909   8.387   1.196  10.153 -0.2232  0.0803  0.1528
  819MOL0     C12910   8.369   1.316  10.225  0.4035 -0.4747  0.5523
  819MOL0     C12911   8.477   1.391  10.276 -0.7338  0.6007 -0.4237
  819MOL0     C12912   8.433   1.519  10.342  0.3350 -0.2966  0.2161
  819MOL0     C12913   8.613   1.339  10.263 -0.3219 -0.0547 -0.0138
  819MOL0     C12914   8.724   1.402  10.331 -0.8606 -0.1283 -0.6965
  819MOL0     O12915   8.840   1.319  10.338  0.8723 -0.4579 -0.0853
  819MOL0     C12916   8.953   1.356  10.391 -0.4518 -0.5110 -0.7821
  819MOL0     C12917   9.007   1.315  10.508  0.7984  0.2170 -0.5118
  819MOL0     C12918   9.135   1.361  10.548 -1.1572  0.1106 -0.4607
  819MOL0     C12919   9.200   1.454  10.465  0.5070  1.1754 -0.0926
  819MOL0     O12920   9.320   1.514  10.492  0.1141 -0.3767 -0.4229
  819MOL0     C12921   9.366   1.522  10.623 -0.0148 -0.0128  0.0186
  819MOL0     C12922   9.480   1.621  10.618  0.2889 -0.0933 -0.8212
  819MOL0     C12923   9.558   1.665  10.744  0.3698  0.0468 -0.2284
  819MOL0     C12924   9.697   1.715  10.708  1.2848 -0.8774 -0.6819
  819MOL0     C12925   9.799   1.622  10.666  0.0616  0.0295 -0.2185
  819MOL0     C12926   9.875   1.563  10.782 -0.2857  0.2321  0.4979
  819MOL0     C12927   9.939   1.427  10.739  0.0204  0.1477 -0.1137
  819MOL0     C12928  10.007   1.365  10.863 -0.2051 -0.0022  0.7201
  819MOL0    Cl12929  10.125   1.486  10.950 -0.1747 -0.0314 -0.3590
  819MOL0     C12930   9.146   1.484  10.345 -0.4330 -0.0241 -0.3401
  819MOL0     C12931   9.018   1.448  10.312  1.0609  0.0498  0.0849
  819MOL0     O12932   8.718   1.514  10.362 -0.1901 -0.5335 -0.2596
  819MOL0     C12933   8.631   1.229  10.180 -0.0678 -0.5799  0.1910
  819MOL0     C12934   8.518   1.160  10.126  0.3820  0.0588 -0.6357
  819MOL0     N12935   7.618   1.227  10.238  0.5373  0.1518  0.2693
  819MOL0     N12936   7.528   1.316  10.209  0.3983 -0.1897 -0.0263
  819MOL0     C12937   7.098   1.003   9.221  0.0988 -0.3819  0.0431
  819MOL0     C12938   6.968   0.949   9.191  0.4175 -0.1103  0.5204
  819MOL0     C12939   6.505   1.003   9.082  0.3611 -0.6012  0.4870
  819MOL0     C12940   6.392   1.023   9.162 -0.6386 -0.7529 -0.6777
  819MOL0     C12941   6.268   0.983   9.127 -0.7247 -0.2873  0.0902
  819MOL0     C12942   6.245   0.913   9.008  0.5438  0.2784  0.5723
  819MOL0     O12943   6.116   0.865   8.991 -0.4616  0.9127 -0.2080
  819MOL0     C12944   6.077   0.754   8.908  0.9815 -0.2182  0.0728
  819MOL0     C12945   6.057   0.804   8.771 -0.0371  0.2707 -0.5948
  819MOL0     C12946   5.945   0.906   8.759 -0.7642 -0.6836  0.2959
  819MOL0     C12947   5.802   0.862   8.709 -0.0862 -0.0269 -0.3963
  819MOL0     C12948   5.813   0.809   8.570  0.0892 -0.5029  1.4093
  819MOL0     C12949   5.849   0.765   8.458  0.0105 -0.0587  0.9897
  819MOL0     C12950   6.357   0.895   8.922 -0.4477 -0.5907 -0.4497
  819MOL0     C12951   6.485   0.940   8.960  0.7568  0.2608  1.2329
  819MOL0     C12952   6.596   0.907   8.860 -0.4169 -0.3106 -0.0937
  819MOL0     H12953   6.839   1.204   9.031 -0.7304  0.0307  0.8830
  819MOL0     H12954   7.057   1.307   9.093  2.2526 -0.5735  1.4193
  819MOL0     H12955   7.188   1.385   9.275 -1.5489 -3.5217  1.6923
  819MOL0     H12956   7.302   1.366   9.136  0.5597 -2.1216 -0.5466
  819MOL0     H12957   7.466   1.286   9.340 -0.6140 -1.8452 -0.8080
  819MOL0     H12958   7.422   1.456   9.335  0.7416 -1.1976 -3.5285
  819MOL0     H12959   7.225   1.384   9.490  0.4734  0.8337 -2.0653
  819MOL0     H12960   7.268   1.215   9.474 -1.4157 -0.4368 -0.0149
  819MOL0     H12961   7.367   1.290   9.700  1.1230 -0.8523 -0.1918
  819MOL0     H12962   7.509   1.295   9.595 -1.1162  0.6191 -2.0684
  819MOL0     H12963   7.330   1.521   9.635 -1.9423 -2.3000 -3.8215
  819MOL0     H12964   7.503   1.517   9.575  1.9797  0.3877  2.0563
  819MOL0     H12965   7.592   1.475   9.798 -0.3698  1.6449  2.0285
  819MOL0     H12966   7.506   1.614   9.809  2.0233 -0.8200  3.1190
  819MOL0     H12967   7.433   1.342   9.910 -0.4592 -0.4196  0.7596
  819MOL0     H12968   7.316   1.474   9.899  0.4806 -0.5395 -0.4087
  819MOL0     H12969   7.539   1.586  10.028  1.1349 -0.4908 -1.8388
  819MOL0     H12970   7.386   1.519  10.099 -1.6674 -3.6177 -1.1423
  819MOL0     H12971   7.743   1.369   9.979 -0.6390  3.5764  1.3707
  819MOL0     H12972   7.875   1.153  10.026 -0.6175 -1.1647  0.3624
  819MOL0     H12973   7.832   1.046  10.154  2.9116 -1.2847 -2.2453
  819MOL0     H12974   7.954   1.320  10.174  0.3401  0.6742  2.6537
  819MOL0     H12975   7.904   1.234  10.315  3.7237  1.6399  1.2535
  819MOL0     H12976   8.128   1.202  10.307  1.8810  0.6015 -1.5222
  819MOL0     H12977   8.072   1.038  10.255  2.4192 -0.3077 -0.5493
  819MOL0     H12978   8.095   1.124  10.014 -0.4246  2.2353 -1.5285
  819MOL0     H12979   8.138   1.272  10.073 -1.3559  0.9337  0.7511
  819MOL0     H12980   8.270   1.353  10.249  0.0600 -1.4272  0.6071
  819MOL0     H12981   8.357   1.574  10.286 -0.4127  0.3735  1.8215
  819MOL0     H12982   8.515   1.588  10.362 -0.1183  1.0587 -2.2393
  819MOL0     H12983   8.386   1.487  10.436 -1.8503 -2.1133 -1.3692
  819MOL0     H12984   8.954   1.241  10.566  1.7797 -0.0374  0.0771
  819MOL0     H12985   9.173   1.319  10.641 -0.3789  0.4702 -0.6091
  819MOL0     H12986   9.292   1.560  10.694  0.9589 -0.0649  1.0952
  819MOL0     H12987   9.406   1.425  10.656  1.5688  1.5184  2.9793
  819MOL0     H12988   9.554   1.569  10.556 -0.8851 -1.5795 -1.0194
  819MOL0     H12989   9.439   1.708  10.566  0.1895  0.1400 -0.3563
  819MOL0     H12990   9.554   1.588  10.822 -2.9077  0.4112  0.1028
  819MOL0     H12991   9.521   1.759  10.785 -3.8791 -0.5650 -2.1773
  819MOL0     H12992   9.735   1.773  10.792 -1.0116  2.7219 -1.8467
  819MOL0     H12993   9.668   1.784  10.628 -2.0131 -0.9645  0.2816
  819MOL0     H12994   9.759   1.538  10.609 -2.0640  0.0193  1.1762
  819MOL0     H12995   9.870   1.678  10.605 -1.5610  1.7932 -0.5840
  819MOL0     H12996   9.807   1.552  10.868  1.3920 -0.9825  1.7307
  819MOL0     H12997   9.939   1.645  10.815  0.7910  1.1837 -3.4670
  819MOL0     H12998  10.015   1.454  10.665 -0.3665 -0.1125 -0.6115
  819MOL0     H12999   9.859   1.367  10.694 -0.8483  0.9915  0.2625
  819MOL0     H13000  10.061   1.278  10.826 -0.1495 -0.3540  1.6046
  819MOL0     H13001   9.937   1.332  10.941 -1.5604 -1.9564 -1.1853
  819MOL0     H13002   9.205   1.548  10.280 -1.1544  2.8512  1.6763
  819MOL0     H13003   8.972   1.481  10.219 -0.6634  1.0219  1.2175
  819MOL0     H13004   8.735   1.204  10.163  0.8797  2.4357  0.9240
  819MOL0     H13005   8.556   1.082  10.062  0.4414  0.6064 -1.2880
  819MOL0     H13006   7.173   0.950   9.279 -0.0151 -0.3007  0.2635
  819MOL0     H13007   6.945   0.849   9.226 -2.8351  0.7044  0.9768
  819MOL0     H13008   6.407   1.075   9.256  1.0775 -1.9934 -0.2067
  819MOL0     H13009   6.190   0.996   9.201 -2.1427 -4.5202 -0.4174
  819MOL0     H13010   6.151   0.674   8.916  1.8651  0.7521  2.2804
  819MOL0     H13011   5.986   0.703   8.940 -0.8077  3.3489  1.1477
  819MOL0     H13012   6.035   0.723   8.701 -0.6301  0.3153 -0.4716
  819MOL0     H13013   6.149   0.849   8.733 -0.6030  1.4164 -0.6474
  819MOL0     H13014   5.931   0.965   8.850  0.6660 -0.4837  0.4015
  819MOL0     H13015   5.975   0.980   8.685 -1.2232 -0.3962  0.3923
  819MOL0     H13016   5.738   0.951   8.712  1.7069  1.3136 -0.2516
  819MOL0     H13017   5.765   0.785   8.777 -1.1855 -0.0125 -0.9617
  819MOL0     H13018   5.855   0.710   8.367 -1.6919 -1.3053  1.5798
  819MOL0     H13019   6.341   0.837   8.831 -0.4677 -0.2582 -0.6566
  819MOL0     H13020   6.567   0.856   8.767 -0.3129  0.7397 -0.7252
  819MOL0     H13021   6.632   1.006   8.831 -0.3353 -0.1972  0.3905
  819MOL0     H13022   6.671   0.845   8.909  0.6615  0.3335 -0.8814
  820MOL0     O13023  10.161   2.270   6.491 -0.9709  0.2455 -0.4410
  820MOL0     C13024  10.161   2.305   6.373 -0.3430  1.4374  1.0079
  820MOL0     O13025  10.047   2.318   6.292  0.2343 -0.5749 -0.4029
  820MOL0     C13026   9.932   2.299   6.361  0.1060  0.0692  0.0012
  820MOL0     C13027   9.877   2.396   6.441  0.3366  0.6229  0.8544
  820MOL0     C13028   9.760   2.361   6.507 -0.6057  0.6648 -0.1694
  820MOL0     C13029   9.695   2.238   6.486 -0.1668 -0.1535 -0.6348
  820MOL0     O13030   9.581   2.209   6.553 -0.6898  0.4777  0.5833
  820MOL0     C13031   9.470   2.301   6.537  0.0242  0.3462  0.0487
  820MOL0     C13032   9.344   2.216   6.567  0.9430  0.8941 -0.3394
  820MOL0     C13033   9.318   2.090   6.485  0.3254 -0.3064  0.1275
  820MOL0     C13034   9.303   2.107   6.331  1.2396 -0.7839  0.7203
  820MOL0     C13035   9.303   1.975   6.248 -1.3821 -0.2042 -0.0970
  820MOL0     C13036   9.220   1.858   6.304  0.4624  0.0041  0.0894
  820MOL0     C13037   9.218   1.732   6.230  0.2970 -0.0033 -0.2731
  820MOL0     C13038   9.340   1.648   6.259 -0.0917 -0.3440  1.2191
  820MOL0     N13039   9.300   1.534   6.339 -0.2195  0.1096 -0.6119
  820MOL0     C13040   9.352   1.512   6.468  0.3597  0.6198  0.6915
  820MOL0     C13041   9.281   1.409   6.512  0.3079 -0.7840  0.0780
  820MOL0     C13042   9.301   1.345   6.650  0.5526 -0.4424 -0.6909
  820MOL0     C13043   9.444   1.295   6.673 -0.5195  0.5438  0.2749
  820MOL0     C13044   9.463   1.167   6.584 -0.4530 -0.5033  0.8455
  820MOL0     C13045   9.591   1.171   6.497 -1.0185 -0.4893  0.1103
  820MOL0     O13046   9.589   1.240   6.370  0.0198 -0.0598  0.2756
  820MOL0     C13047   9.709   1.252   6.304  0.4155 -0.7329 -0.0648
  820MOL0     C13048   9.699   1.288   6.169 -0.4008 -0.0883 -0.5222
  820MOL0     C13049   9.812   1.325   6.083 -0.0270  0.3633 -1.3498
  820MOL0     C13050   9.778   1.369   5.943 -0.7869 -0.2541  0.1862
  820MOL0     C13051   9.940   1.314   6.143 -0.2783 -0.3126 -0.7703
  820MOL0     C13052  10.069   1.350   6.075 -0.0942  0.8270  0.5160
  820MOL0     O13053  10.052   1.422   5.958  0.3656 -0.4531 -0.0151
  820MOL0     C13054  10.142   1.433   5.862 -0.5476  0.1577 -0.6974
  820MOL0     C13055  10.193   1.321   5.783  0.2130  0.2108  0.0286
  820MOL0     C13056  10.288   1.350   5.690 -0.6481  0.1796 -0.5075
  820MOL0     C13057  10.356   1.467   5.676 -0.1614  0.0124 -0.1138
  820MOL0     O13058  10.458   1.473   5.593  0.0152 -0.2388 -0.0276
  820MOL0     C13059  10.554   1.371   5.584 -0.5931  0.0380  0.6782
  820MOL0     C13060  10.698   1.433   5.589  0.3840 -0.1715 -0.1584
  820MOL0     C13061  10.730   1.504   5.462 -0.3397  0.0223  0.0362
  820MOL0     C13062  10.871   1.562   5.437  1.1158  0.4908 -0.2923
  820MOL0     C13063  10.976   1.459   5.454 -0.3774  0.0535  0.8085
  820MOL0     C13064  11.115   1.515   5.464 -0.1664 -0.2178  0.4701
  820MOL0     C13065  11.211   1.389   5.473  0.7208  0.3777 -0.2520
  820MOL0     C13066  11.358   1.410   5.472 -0.7396  1.0964  1.4156
  820MOL0    Cl13067  11.414   1.444   5.306  0.1066  0.1771  0.3854
  820MOL0     C13068  10.328   1.571   5.762 -0.2105  0.7849 -0.9227
  820MOL0     C13069  10.216   1.559   5.856  0.2609  0.1792 -0.5199
  820MOL0     O13070  10.173   1.302   6.111 -0.8596 -1.0095 -0.5894
  820MOL0     C13071   9.955   1.262   6.278  0.5091 -0.1210 -1.0041
  820MOL0     C13072   9.840   1.237   6.359 -0.5544  0.1268 -0.3607
  820MOL0     N13073   9.185   1.375   6.416 -0.6599 -0.2016  0.2156
  820MOL0     N13074   9.190   1.446   6.310  0.4266 -0.3287  0.7222
  820MOL0     C13075   9.749   2.142   6.398 -0.9955 -0.1420  0.3881
  820MOL0     C13076   9.867   2.175   6.337 -0.4909  0.0620 -0.0954
  820MOL0     C13077  10.294   2.330   6.319  1.2709 -1.1106  0.4673
  820MOL0     C13078  10.411   2.280   6.379 -0.1629 -0.3089 -0.0551
  820MOL0     C13079  10.533   2.300   6.320 -0.0969  1.0859  0.3948
  820MOL0     C13080  10.545   2.370   6.204 -0.0890  0.1417 -0.6372
  820MOL0     O13081  10.673   2.385   6.145 -0.0847  0.2539  0.1889
  820MOL0     C13082  10.688   2.434   6.014 -0.4512 -0.3292  0.9432
  820MOL0     C13083  10.620   2.352   5.903 -0.4355 -0.2407  0.2082
  820MOL0     C13084  10.697   2.376   5.772 -0.2257 -0.4681  0.1864
  820MOL0     C13085  10.637   2.300   5.645  0.8273 -1.1932  0.1518
  820MOL0     C13086  10.695   2.358   5.526  0.5239  0.1778  0.4228
  820MOL0     C13087  10.734   2.409   5.422  0.4542 -0.0425 -0.5563
  820MOL0     C13088  10.430   2.438   6.148 -0.7586  0.6171 -1.1706
  820MOL0     C13089  10.306   2.408   6.204 -0.0162  1.1322 -0.0564
  820MOL0     C13090  10.196   2.485   6.131 -0.0892 -0.5485  0.2277
  820MOL0     H13091   9.924   2.493   6.456 -1.8322  2.3294 -2.1660
  820MOL0     H13092   9.716   2.428   6.581 -1.5789  1.2124 -1.2292
  820MOL0     H13093   9.468   2.348   6.438 -0.3357  2.7279  1.1311
  820MOL0     H13094   9.481   2.385   6.605  0.6565 -0.5566  1.1044
  820MOL0     H13095   9.348   2.203   6.676  1.0685  1.1255 -0.3176
  820MOL0     H13096   9.260   2.284   6.548 -0.1508 -0.5184 -0.7802
  820MOL0     H13097   9.406   2.025   6.492  0.5479 -0.2001 -1.3739
  820MOL0     H13098   9.227   2.039   6.518  0.8087 -1.8758 -0.8241
  820MOL0     H13099   9.213   2.163   6.302  1.7754  0.6898  1.7470
  820MOL0     H13100   9.394   2.165   6.313 -0.4371  1.8477  0.1301
  820MOL0     H13101   9.405   1.937   6.239 -1.9743 -2.4993  1.9927
  820MOL0     H13102   9.269   1.996   6.146  0.8832 -2.6151 -1.4601
  820MOL0     H13103   9.259   1.833   6.403 -1.0800 -0.9620  0.5041
  820MOL0     H13104   9.117   1.894   6.306  0.5240  0.1537  0.7394
  820MOL0     H13105   9.203   1.753   6.123 -0.9544  1.7287  0.1902
  820MOL0     H13106   9.126   1.688   6.268  0.2421  1.6606  1.7145
  820MOL0     H13107   9.387   1.615   6.165 -0.7692  2.6405 -0.2827
  820MOL0     H13108   9.419   1.710   6.301 -1.0281  1.7528  0.0413
  820MOL0     H13109   9.436   1.562   6.515  1.0693  0.2139 -0.1094
  820MOL0     H13110   9.216   1.280   6.671 -0.5931  1.0480 -0.5869
  820MOL0     H13111   9.287   1.434   6.712  0.0706 -0.3523 -0.9238
  820MOL0     H13112   9.515   1.375   6.653 -1.3392  0.9651 -1.1480
  820MOL0     H13113   9.448   1.267   6.779  0.6202  1.7588  0.5821
  820MOL0     H13114   9.476   1.095   6.665 -2.8390  0.3676  2.1044
  820MOL0     H13115   9.375   1.139   6.526  0.8138 -2.9248 -0.0316
  820MOL0     H13116   9.670   1.213   6.559 -1.4106  0.8948 -0.2806
  820MOL0     H13117   9.615   1.068   6.469  2.4430  0.4630 -0.8030
  820MOL0     H13118   9.596   1.300   6.138  0.0579  2.6656 -1.2663
  820MOL0     H13119   9.806   1.475   5.939  2.7319 -0.9796  1.2728
  820MOL0     H13120   9.670   1.365   5.929 -0.8611 -0.0061  0.6642
  820MOL0     H13121   9.839   1.308   5.875  1.3199 -0.8056  2.4052
  820MOL0     H13122  10.161   1.219   5.800 -0.5806  0.3110 -0.8104
  820MOL0     H13123  10.317   1.269   5.623 -2.0904  1.3382 -2.6493
  820MOL0     H13124  10.542   1.299   5.665 -0.4990 -0.5734  0.1472
  820MOL0     H13125  10.543   1.308   5.496 -2.3145  2.0521 -0.6583
  820MOL0     H13126  10.696   1.498   5.677  0.2500 -0.3167 -0.0526
  820MOL0     H13127  10.763   1.346   5.603  1.9646  0.9959  0.1795
  820MOL0     H13128  10.656   1.582   5.441 -0.1232  0.7220  1.6797
  820MOL0     H13129  10.719   1.433   5.380 -1.5775 -2.0923  1.9256
  820MOL0     H13130  10.875   1.632   5.521 -2.7614  0.2441  0.2592
  820MOL0     H13131  10.875   1.623   5.346 -3.1776  2.3191  0.4972
  820MOL0     H13132  10.957   1.404   5.547 -2.8600  0.1220  0.4054
  820MOL0     H13133  10.975   1.399   5.363  1.4627  3.3273 -1.5942
  820MOL0     H13134  11.113   1.579   5.553 -0.9426  2.2540 -1.2147
  820MOL0     H13135  11.149   1.574   5.378 -3.6851  2.0472  0.4427
  820MOL0     H13136  11.180   1.323   5.392 -2.7121 -1.0803  2.0123
  820MOL0     H13137  11.180   1.336   5.563 -0.9129 -0.0664 -1.0518
  820MOL0     H13138  11.403   1.312   5.492 -2.5503 -1.5229 -4.7489
  820MOL0     H13139  11.381   1.489   5.544  0.6859 -1.2471  3.7331
  820MOL0     H13140  10.388   1.661   5.760  1.3824 -0.2580 -1.2599
  820MOL0     H13141  10.208   1.636   5.932  1.5375  1.6198 -1.7837
  820MOL0     H13142  10.050   1.230   6.319 -0.9476  0.0110  2.8181
  820MOL0     H13143   9.853   1.218   6.465 -0.3014  1.7751 -0.0639
  820MOL0     H13144   9.708   2.042   6.388 -0.8532 -0.0165 -1.9311
  820MOL0     H13145   9.919   2.107   6.270 -2.1083 -0.5365 -0.7794
  820MOL0     H13146  10.399   2.224   6.471  1.5249 -1.7136 -0.6345
  820MOL0     H13147  10.624   2.257   6.360  1.1380  2.3450 -0.9514
  820MOL0     H13148  10.664   2.541   6.007  0.0078 -0.1959  1.3827
  820MOL0     H13149  10.796   2.430   6.004 -0.5195 -1.6267  0.5924
  820MOL0     H13150  10.513   2.364   5.888 -0.2138  1.6977  0.0039
  820MOL0     H13151  10.637   2.253   5.947  0.1526 -0.0245  0.4744
  820MOL0     H13152  10.707   2.483   5.755  0.4259 -0.8902 -2.4437
  820MOL0     H13153  10.790   2.327   5.801  0.0873 -0.5627 -0.9363
  820MOL0     H13154  10.530   2.321   5.640  0.5263 -1.7637  2.8740
  820MOL0     H13155  10.641   2.191   5.642 -3.4689 -1.4782 -0.9268
  820MOL0     H13156  10.769   2.447   5.328  2.7700  0.6661  0.5233
  820MOL0     H13157  10.440   2.499   6.059 -2.2867 -1.0301 -2.5465
  820MOL0     H13158  10.228   2.548   6.047 -4.0306 -0.7728 -1.6681
  820MOL0     H13159  10.124   2.415   6.088  0.1984 -0.8795  0.2806
  820MOL0     H13160  10.153   2.554   6.205  0.2517 -1.5425  1.3956
  821MOL0     O13161   3.601   6.572  10.125  0.8545 -0.0154 -0.0590
  821MOL0     C13162   3.687   6.656  10.167 -0.4853  0.9533 -0.2926
  821MOL0     O13163   3.823   6.626  10.207  0.3628  0.5666 -0.0139
  821MOL0     C13164   3.892   6.506  10.187  0.1601  0.1343  1.2728
  821MOL0     C13165   4.017   6.485  10.248  0.5115  0.2918  0.3119
  821MOL0     C13166   4.090   6.365  10.232 -0.1873  0.6712  0.1266
  821MOL0     C13167   4.050   6.263  10.149  0.0564 -0.0812  0.0558
  821MOL0     O13168   4.134   6.157  10.137 -0.1925 -0.2540  0.6315
  821MOL0     C13169   4.105   6.049  10.053 -0.6434  0.4194 -0.2847
  821MOL0     C13170   4.144   6.065   9.911  1.0582 -0.0802  0.2737
  821MOL0     C13171   4.280   6.146   9.895  0.0898 -0.2127  0.9340
  821MOL0     C13172   4.302   6.175   9.743 -0.7661 -0.0319  0.0483
  821MOL0     C13173   4.446   6.234   9.716 -0.1465 -0.1951  0.0774
  821MOL0     C13174   4.551   6.140   9.736 -0.4004 -0.0729  0.4099
  821MOL0     C13175   4.695   6.204   9.732  0.8070 -0.5957  0.7937
  821MOL0     C13176   4.735   6.293   9.847 -0.2460 -0.6172  0.3356
  821MOL0     N13177   4.699   6.237   9.977 -0.7340 -0.0337  0.0595
  821MOL0     C13178   4.583   6.243  10.047  0.0416  0.4559 -0.1965
  821MOL0     C13179   4.603   6.204  10.172  0.1330  0.3833 -0.0095
  821MOL0     C13180   4.506   6.201  10.292  0.5406  0.6233  0.2615
  821MOL0     C13181   4.516   6.091  10.398  0.5827  0.7828 -0.4492
  821MOL0     C13182   4.397   6.112  10.497  0.3828 -0.2558 -0.1972
  821MOL0     C13183   4.375   5.989  10.578 -0.9541  0.2868  0.1249
  821MOL0     O13184   4.495   5.944  10.642 -0.2037 -0.4366 -0.7124
  821MOL0     C13185   4.551   6.018  10.743 -0.7631  0.3334 -0.2805
  821MOL0     C13186   4.482   6.043  10.861  0.2672  0.3704 -0.2009
  821MOL0     C13187   4.536   6.111  10.973 -0.6166  0.4731 -0.8966
  821MOL0     C13188   4.447   6.113  11.095 -0.2471 -0.2924  0.8104
  821MOL0     C13189   4.674   6.155  10.966  0.4703 -0.2716 -0.2100
  821MOL0     C13190   4.753   6.227  11.071 -0.0252 -0.2682 -0.1303
  821MOL0     O13191   4.873   6.278  11.046 -0.2867 -0.4036  0.8773
  821MOL0     C13192   4.964   6.317  11.144 -0.3441  0.1643 -0.4395
  821MOL0     C13193   4.972   6.251  11.270 -0.2854 -0.2722 -0.9506
  821MOL0     C13194   5.077   6.272  11.361 -0.1810 -0.3421 -0.0894
  821MOL0     C13195   5.177   6.357  11.325  0.2181  0.3964  0.3667
  821MOL0     O13196   5.280   6.396  11.408 -0.6884  0.9068 -0.2840
  821MOL0     C13197   5.248   6.414  11.544  0.1963 -0.6015 -0.4686
  821MOL0     C13198   5.306   6.546  11.594  0.3472 -0.6422  0.1427
  821MOL0     C13199   5.452   6.535  11.629  0.0127  0.0459  0.6693
  821MOL0     C13200   5.516   6.630  11.742 -0.5271 -0.0402 -0.6047
  821MOL0     C13201   5.666   6.669  11.702  0.2025 -0.1868 -0.4601
  821MOL0     C13202   5.730   6.741  11.821 -1.1390 -0.2725 -1.1958
  821MOL0     C13203   5.865   6.807  11.793  0.3316  0.0426 -0.1818
  821MOL0     C13204   5.978   6.711  11.719 -0.0398  0.3737 -0.0597
  821MOL0    Cl13205   6.125   6.794  11.695  0.0284 -0.2043  0.1135
  821MOL0     C13206   5.175   6.421  11.196 -0.2369  0.9817  0.3669
  821MOL0     C13207   5.072   6.390  11.105  0.7578 -0.2245  0.7066
  821MOL0     O13208   4.701   6.236  11.178 -0.6510 -0.6986 -0.0858
  821MOL0     C13209   4.742   6.121  10.849  0.4049 -0.1369 -0.2517
  821MOL0     C13210   4.681   6.065  10.743  0.0699 -0.2852  0.0366
  821MOL0     N13211   4.734   6.165  10.181 -0.0178  0.6491  0.8463
  821MOL0     N13212   4.789   6.182  10.065  1.1677 -0.4907 -0.5969
  821MOL0     C13213   3.928   6.277  10.086  0.6407 -0.1082 -0.0099
  821MOL0     C13214   3.851   6.399  10.113  0.3341 -0.0787 -0.5531
  821MOL0     C13215   3.638   6.795  10.177 -0.3719 -0.3802 -1.1189
  821MOL0     C13216   3.722   6.892  10.227 -0.9371  0.5741 -0.6422
  821MOL0     C13217   3.674   7.026  10.251 -0.2020  0.0158 -0.1362
  821MOL0     C13218   3.551   7.076  10.200  0.5995 -0.2270 -0.8952
  821MOL0     O13219   3.517   7.207  10.222  0.4973 -0.2013 -0.1329
  821MOL0     C13220   3.383   7.238  10.255  0.7465  0.9230  0.9966
  821MOL0     C13221   3.384   7.363  10.336 -0.3242 -0.1570 -0.3943
  821MOL0     C13222   3.242   7.411  10.399 -0.1731 -0.1143  0.0027
  821MOL0     C13223   3.234   7.563  10.410 -0.6245 -0.7468 -0.8718
  821MOL0     C13224   3.236   7.626  10.277 -1.2510  0.8324 -0.3464
  821MOL0     C13225   3.242   7.677  10.169  0.2637 -0.1043 -0.4912
  821MOL0     C13226   3.468   6.973  10.152  0.7862  0.9229  0.0963
  821MOL0     C13227   3.508   6.835  10.136 -0.0299 -0.7345  0.5650
  821MOL0     C13228   3.404   6.753  10.056  0.2923  0.3398  0.5893
  821MOL0     H13229   4.047   6.562  10.319 -3.5499  2.7658 -0.3479
  821MOL0     H13230   4.193   6.353  10.267  0.3452 -0.9426 -1.8301
  821MOL0     H13231   3.998   6.028  10.057 -1.1133  2.6033  0.2112
  821MOL0     H13232   4.161   5.965  10.094 -0.4549  0.5464 -0.2806
  821MOL0     H13233   4.164   5.969   9.863  2.5329  0.1663  0.3461
  821MOL0     H13234   4.062   6.120   9.865 -0.4968 -0.1374  2.7657
  821MOL0     H13235   4.267   6.245   9.940 -2.0991 -0.5989  1.2378
  821MOL0     H13236   4.368   6.109   9.949 -0.1866  0.0313  1.5668
  821MOL0     H13237   4.307   6.087   9.677  4.5049  1.7114 -2.4277
  821MOL0     H13238   4.234   6.251   9.704 -2.0009 -0.4366  1.3255
  821MOL0     H13239   4.468   6.307   9.795  1.0059 -0.4129 -0.0293
  821MOL0     H13240   4.451   6.275   9.615  3.6781  0.9470  0.5871
  821MOL0     H13241   4.539   6.069   9.819 -1.7156  0.3713  0.6168
  821MOL0     H13242   4.544   6.078   9.646  2.5959 -0.5142  0.3690
  821MOL0     H13243   4.708   6.270   9.646 -0.4199  4.6404  4.1236
  821MOL0     H13244   4.763   6.120   9.716 -2.8630 -3.1751 -3.6669
  821MOL0     H13245   4.842   6.316   9.847 -0.6358  1.6772 -1.7418
  821MOL0     H13246   4.688   6.391   9.841  1.2100  0.0527 -4.4514
  821MOL0     H13247   4.502   6.300  10.002  0.8285  2.6225  0.9683
  821MOL0     H13248   4.404   6.209  10.252 -0.2781  4.3468  2.6436
  821MOL0     H13249   4.514   6.295  10.346  0.8022  1.2863 -0.9056
  821MOL0     H13250   4.505   5.992  10.352 -1.2216  1.2505 -1.0985
  821MOL0     H13251   4.611   6.101  10.450  2.2415 -1.4920 -2.7512
  821MOL0     H13252   4.402   6.209  10.546 -1.1682 -0.6948  0.9263
  821MOL0     H13253   4.303   6.124  10.442 -1.3000 -1.0718  2.3034
  821MOL0     H13254   4.307   6.006  10.662 -1.9779 -3.8331  0.3528
  821MOL0     H13255   4.329   5.916  10.511 -2.1793  2.8650 -2.0483
  821MOL0     H13256   4.385   6.003  10.888  1.0288 -0.8951  0.7916
  821MOL0     H13257   4.507   6.103  11.186 -1.5678  0.5094  1.8122
  821MOL0     H13258   4.362   6.044  11.099 -4.0800  3.8489  5.6476
  821MOL0     H13259   4.401   6.213  11.097  1.1287  0.3958 -0.2141
  821MOL0     H13260   4.891   6.186  11.303  0.7026 -0.1529  2.0700
  821MOL0     H13261   5.074   6.219  11.456 -1.3844 -0.0022  0.0739
  821MOL0     H13262   5.139   6.421  11.552  0.1166  2.0765 -2.5380
  821MOL0     H13263   5.288   6.336  11.610  1.4179  0.6082  0.2658
  821MOL0     H13264   5.286   6.619  11.515 -1.9503 -1.2230  0.1186
  821MOL0     H13265   5.250   6.570  11.685 -1.0539  0.7951 -1.0256
  821MOL0     H13266   5.505   6.553  11.535  0.5296 -1.9916  0.5174
  821MOL0     H13267   5.479   6.435  11.663 -0.6915  0.4842  2.6126
  821MOL0     H13268   5.513   6.571  11.833  2.6584  3.6803  2.2682
  821MOL0     H13269   5.453   6.720  11.747  0.5222  0.7093 -0.4973
  821MOL0     H13270   5.715   6.573  11.681 -2.9456 -2.1091  0.2214
  821MOL0     H13271   5.668   6.733  11.614  3.0266 -0.5733 -0.7757
  821MOL0     H13272   5.743   6.674  11.907  1.9371 -0.7015 -1.8737
  821MOL0     H13273   5.663   6.824  11.848  0.6867  0.2273  2.3459
  821MOL0     H13274   5.915   6.836  11.886  0.9000 -0.0215 -0.4605
  821MOL0     H13275   5.845   6.904  11.747  0.2750 -0.1280 -0.5184
  821MOL0     H13276   5.948   6.691  11.615  1.1373  4.6007 -1.4226
  821MOL0     H13277   5.992   6.616  11.772  4.1081  1.5965  1.3979
  821MOL0     H13278   5.254   6.493  11.179 -0.7040  1.3688 -0.1827
  821MOL0     H13279   5.059   6.431  11.006 -1.1145 -1.9630  0.1935
  821MOL0     H13280   4.848   6.146  10.839  0.3316  0.1161 -0.3972
  821MOL0     H13281   4.740   6.034  10.657  3.0731  2.1181  1.0332
  821MOL0     H13282   3.882   6.189  10.042 -2.3511  0.9336  0.8269
  821MOL0     H13283   3.751   6.388  10.072  1.8219 -3.1941 -4.0083
  821MOL0     H13284   3.827   6.872  10.248 -1.4024 -2.2093 -0.6132
  821MOL0     H13285   3.746   7.085  10.307 -1.8665 -0.2411  2.4737
  821MOL0     H13286   3.324   7.256  10.165  5.0433 -0.2845 -2.4822
  821MOL0     H13287   3.325   7.162  10.308 -3.7794  2.2626 -1.5037
  821MOL0     H13288   3.431   7.443  10.279 -1.4429  2.4879  2.1452
  821MOL0     H13289   3.447   7.351  10.425 -0.3079  3.3838  0.2102
  821MOL0     H13290   3.165   7.382  10.327 -1.2495  1.2081  0.5786
  821MOL0     H13291   3.224   7.357  10.492  1.3543  0.4091  0.6321
  821MOL0     H13292   3.323   7.601  10.462 -1.8515  0.8386  0.1525
  821MOL0     H13293   3.139   7.601  10.449 -1.0460  0.0780 -2.6333
  821MOL0     H13294   3.245   7.719  10.071  2.5811 -1.8171 -1.2357
  821MOL0     H13295   3.367   6.997  10.118  0.6621 -0.0020 -0.2234
  821MOL0     H13296   3.315   6.809  10.027  0.5831  0.2232 -0.6130
  821MOL0     H13297   3.451   6.731   9.959  0.2563  2.1495  0.1259
  821MOL0     H13298   3.364   6.663  10.102 -2.2226  1.5530  0.9245
  822MOL0     O13299  11.075  10.806   8.251  0.7997  0.1408 -0.4145
  822MOL0     C13300  11.049  10.910   8.313 -0.3700 -0.0097 -0.6775
  822MOL0     O13301  11.115  10.960   8.418  0.7392  0.0155 -0.3759
  822MOL0     C13302  11.216  10.875   8.464  0.5096 -0.0146  0.2096
  822MOL0     C13303  11.346  10.925   8.465  0.6377  0.1006 -0.3625
  822MOL0     C13304  11.445  10.847   8.524 -0.1625  0.3502 -0.2881
  822MOL0     C13305  11.426  10.721   8.575  0.9517  0.1584  0.0811
  822MOL0     O13306  11.527  10.647   8.623 -0.0742 -0.3577 -0.5021
  822MOL0     C13307  11.531  10.513   8.570 -0.2478 -1.2643 -0.1844
  822MOL0     C13308  11.615  10.439   8.668 -0.0704 -0.2903  0.8285
  822MOL0     C13309  11.769  10.477   8.661  0.0998 -0.4868  0.2699
  822MOL0     C13310  11.844  10.440   8.536 -0.0640  0.2690  0.6867
  822MOL0     C13311  11.986  10.491   8.535  0.8708 -0.2700  0.0525
  822MOL0     C13312  11.993  10.643   8.526  0.1189  0.0049 -1.1220
  822MOL0     C13313  12.132  10.686   8.500  0.3211 -0.1468 -0.1375
  822MOL0     C13314  12.137  10.843   8.528 -0.3959  0.3010 -0.1512
  822MOL0     N13315  12.238  10.899   8.429 -0.1263  0.3730 -0.8654
  822MOL0     C13316  12.239  10.923   8.292  1.1745 -0.6994  0.0340
  822MOL0     C13317  12.361  10.984   8.265 -1.0072  0.0016  0.5522
  822MOL0     C13318  12.411  11.023   8.124 -0.5309  0.2396 -0.6995
  822MOL0     C13319  12.571  11.039   8.109  0.3257 -0.1350  0.5492
  822MOL0     C13320  12.637  11.168   8.169  0.4139  1.0004  0.3180
  822MOL0     C13321  12.786  11.176   8.130 -0.4176 -0.1490  1.3472
  822MOL0     O13322  12.853  11.296   8.178  0.0651  0.0384  0.0338
  822MOL0     C13323  12.979  11.300   8.138  0.3283  0.1784 -0.3784
  822MOL0     C13324  13.083  11.227   8.195 -0.3498  1.3980  0.0019
  822MOL0     C13325  13.220  11.236   8.163  0.7037 -0.1286 -1.0433
  822MOL0     C13326  13.323  11.140   8.222  0.5794  0.7190 -0.2410
  822MOL0     C13327  13.249  11.327   8.063  0.0473 -0.5427 -0.1470
  822MOL0     C13328  13.384  11.358   8.014 -0.4638  0.8194 -0.5154
  822MOL0     O13329  13.404  11.383   7.885  0.2728 -0.1008 -0.1404
  822MOL0     C13330  13.524  11.405   7.829  0.5871 -0.5998 -1.2405
  822MOL0     C13331  13.526  11.480   7.715 -0.6160 -0.3058 -0.2466
  822MOL0     C13332  13.639  11.524   7.656 -0.1393 -0.6955  0.0958
  822MOL0     C13333  13.769  11.491   7.699  1.0767  0.2051 -0.6186
  822MOL0     O13334  13.886  11.529   7.637 -0.2810 -0.3303 -0.2416
  822MOL0     C13335  13.885  11.643   7.540  0.2139  0.1973 -0.1729
  822MOL0     C13336  13.905  11.597   7.389  0.9220  0.1581 -0.6292
  822MOL0     C13337  14.020  11.494   7.388 -0.4950  0.2890 -0.1493
  822MOL0     C13338  14.050  11.432   7.252 -0.2124  0.3465 -0.4435
  822MOL0     C13339  14.156  11.317   7.267 -1.4489  0.3071 -1.0687
  822MOL0     C13340  14.297  11.375   7.306  0.2443 -0.1989 -0.1988
  822MOL0     C13341  14.403  11.266   7.263 -1.0596  0.4824  0.0704
  822MOL0     C13342  14.369  11.120   7.307 -0.9452 -0.3607  0.4841
  822MOL0    Cl13343  14.495  10.999   7.276  0.3100  0.8074  0.4880
  822MOL0     C13344  13.768  11.406   7.812 -0.5112  0.5695 -0.3386
  822MOL0     C13345  13.651  11.367   7.881  0.3718  0.1969  0.3217
  822MOL0     O13346  13.464  11.388   8.104  0.0859 -0.2357  0.2112
  822MOL0     C13347  13.141  11.390   7.994 -0.6260  1.1801  0.6591
  822MOL0     C13348  13.013  11.377   8.029 -0.0637 -0.5692  0.7804
  822MOL0     N13349  12.416  11.017   8.395 -0.1425  0.1522  0.1232
  822MOL0     N13350  12.348  10.967   8.488 -0.3828  0.3047 -0.6253
  822MOL0     C13351  11.293  10.680   8.580  0.6707 -0.7367 -0.3375
  822MOL0     C13352  11.187  10.748   8.524  0.0072  0.5946 -0.4876
  822MOL0     C13353  10.917  10.975   8.283 -0.1392  0.2817 -0.9775
  822MOL0     C13354  10.887  11.091   8.361  0.3016  0.9651  0.1052
  822MOL0     C13355  10.774  11.165   8.353 -0.0999  0.5258  0.3510
  822MOL0     C13356  10.676  11.130   8.261  0.8751  0.2177  0.4456
  822MOL0     O13357  10.564  11.195   8.230  0.2005  0.2074 -0.2338
  822MOL0     C13358  10.507  11.272   8.333 -0.3702  1.0630  0.2933
  822MOL0     C13359  10.352  11.293   8.333 -1.4088 -0.7443 -0.0785
  822MOL0     C13360  10.280  11.163   8.348  0.1314 -0.4900 -0.0941
  822MOL0     C13361  10.131  11.158   8.365 -0.2308 -0.0598  0.9282
  822MOL0     C13362  10.090  11.013   8.398 -0.0077  0.2971 -0.2642
  822MOL0     C13363  10.058  10.899   8.436  0.7945  0.3913  0.8301
  822MOL0     C13364  10.689  11.009   8.185 -0.3689  0.3702  0.0203
  822MOL0     C13365  10.806  10.934   8.201  0.2039  0.0496  0.4865
  822MOL0     C13366  10.804  10.800   8.117  1.3113  0.1168  0.2477
  822MOL0     H13367  11.368  11.024   8.427 -2.2236  0.1636 -2.2023
  822MOL0     H13368  11.551  10.871   8.534 -0.4564  1.5397  0.2260
  822MOL0     H13369  11.567  10.511   8.467  0.5251 -0.5525  0.0587
  822MOL0     H13370  11.430  10.472   8.581  0.5818 -2.8815  2.3395
  822MOL0     H13371  11.578  10.454   8.770  1.3757  1.8290  1.1090
  822MOL0     H13372  11.607  10.335   8.635 -1.2903 -0.0632  0.3628
  822MOL0     H13373  11.776  10.586   8.671  1.0415 -0.2649 -2.2527
  822MOL0     H13374  11.811  10.431   8.751  1.1489  1.7383  0.9844
  822MOL0     H13375  11.853  10.332   8.527  2.9611  0.3238  1.8188
  822MOL0     H13376  11.789  10.460   8.443  1.2932 -2.8768 -0.9381
  822MOL0     H13377  12.038  10.448   8.449  4.3091  0.3248  1.6330
  822MOL0     H13378  12.032  10.455   8.628  1.4410 -1.2065 -0.5756
  822MOL0     H13379  11.923  10.674   8.448 -3.9445  0.2017  2.2594
  822MOL0     H13380  11.963  10.696   8.617  3.1406  1.9006 -1.1042
  822MOL0     H13381  12.162  10.663   8.398  3.0147 -2.3063  0.9986
  822MOL0     H13382  12.206  10.637   8.564  1.3323  0.6394 -0.6845
  822MOL0     H13383  12.040  10.891   8.510 -0.2564  0.2526 -1.0770
  822MOL0     H13384  12.160  10.855   8.634  2.2624 -2.1677 -0.3207
  822MOL0     H13385  12.160  10.892   8.224 -2.1836 -0.0415  3.3294
  822MOL0     H13386  12.362  11.111   8.082 -4.6165 -0.2056  2.5484
  822MOL0     H13387  12.387  10.957   8.040  1.8686  0.6325 -1.8084
  822MOL0     H13388  12.621  10.944   8.128  0.9690 -1.0078 -4.1893
  822MOL0     H13389  12.590  11.045   8.001  0.6694 -0.3655  0.5931
  822MOL0     H13390  12.584  11.252   8.124 -1.1196  0.1466  0.4622
  822MOL0     H13391  12.622  11.164   8.277  1.4845 -0.5259  0.4583
  822MOL0     H13392  12.852  11.095   8.160  2.4572  0.5870 -2.2161
  822MOL0     H13393  12.789  11.184   8.020 -1.3857  1.8433  1.4104
  822MOL0     H13394  13.068  11.153   8.273  1.9400 -0.7408 -1.4450
  822MOL0     H13395  13.361  11.176   8.318  1.2603 -0.3911 -0.0716
  822MOL0     H13396  13.409  11.140   8.154  1.0763 -1.9116  0.2945
  822MOL0     H13397  13.298  11.035   8.238 -0.7788  0.8300 -1.4044
  822MOL0     H13398  13.426  11.506   7.682 -0.8156  1.3914  1.5206
  822MOL0     H13399  13.628  11.574   7.561  2.8427 -0.8497 -0.4117
  822MOL0     H13400  13.794  11.701   7.556  0.1418 -0.3888  1.8797
  822MOL0     H13401  13.969  11.712   7.556 -0.1482  0.2155  1.9436
  822MOL0     H13402  13.806  11.560   7.361 -0.0155  2.6477 -0.8745
  822MOL0     H13403  13.940  11.672   7.317 -0.3870 -0.5913 -2.1239
  822MOL0     H13404  13.980  11.415   7.451 -2.2574  0.3195 -1.1815
  822MOL0     H13405  14.110  11.541   7.428 -1.2321  1.5786  0.0488
  822MOL0     H13406  14.093  11.512   7.191 -1.5292  0.3367 -1.4409
  822MOL0     H13407  13.963  11.401   7.193 -0.2323 -0.5234  0.0386
  822MOL0     H13408  14.127  11.243   7.342  1.9222  0.7709  0.8922
  822MOL0     H13409  14.169  11.261   7.174 -0.1531 -1.3875  0.0667
  822MOL0     H13410  14.290  11.404   7.412 -1.3517  0.1927 -0.3803
  822MOL0     H13411  14.318  11.454   7.233  0.1450 -1.1727 -1.3026
  822MOL0     H13412  14.502  11.304   7.289 -0.3718  0.1287 -1.8759
  822MOL0     H13413  14.414  11.270   7.155  2.1930 -2.3730  0.1011
  822MOL0     H13414  14.275  11.087   7.260  1.3068 -1.0529 -4.0078
  822MOL0     H13415  14.354  11.127   7.416  1.7471 -0.0022  0.8912
  822MOL0     H13416  13.867  11.381   7.849 -1.3078  0.4432  1.8061
  822MOL0     H13417  13.651  11.298   7.965  1.3625 -0.6452 -0.3453
  822MOL0     H13418  13.171  11.455   7.912  0.2482 -1.3056 -1.0839
  822MOL0     H13419  12.937  11.441   7.986  1.5458 -0.3270 -1.9494
  822MOL0     H13420  11.271  10.591   8.638  0.4944  0.3351  1.3189
  822MOL0     H13421  11.084  10.716   8.526  0.5972 -1.4287  1.2854
  822MOL0     H13422  10.963  11.112   8.437  1.6421 -0.0146 -0.9196
  822MOL0     H13423  10.766  11.260   8.405  1.7738  0.9296 -0.0349
  822MOL0     H13424  10.531  11.229   8.431  0.3669  0.5265 -0.1126
  822MOL0     H13425  10.548  11.373   8.324 -0.5644  1.0020 -1.7301
  822MOL0     H13426  10.317  11.343   8.242 -1.6972  1.5031  1.1751
  822MOL0     H13427  10.319  11.370   8.404 -1.2039  1.5600 -2.3162
  822MOL0     H13428  10.294  11.105   8.257 -1.4283 -1.6298  0.3508
  822MOL0     H13429  10.333  11.109   8.427  1.7243 -1.5762 -1.8184
  822MOL0     H13430  10.086  11.190   8.270  0.5112 -1.4823  0.0658
  822MOL0     H13431  10.094  11.223   8.446  1.3735  1.3168  0.6252
  822MOL0     H13432  10.021  10.802   8.462 -1.0747  0.3855 -1.4999
  822MOL0     H13433  10.604  10.980   8.124 -0.5055  1.4054 -0.3086
  822MOL0     H13434  10.771  10.722   8.186 -1.9441  1.6689  0.6209
  822MOL0     H13435  10.726  10.802   8.040  0.0101 -0.0227  1.5040
  822MOL0     H13436  10.907  10.783   8.086  1.3178  0.3982  0.1170
  823MOL0     O13437   3.015   4.883   6.851 -0.3178 -0.4077 -0.4333
  823MOL0     C13438   3.102   4.802   6.878 -0.6087 -0.8143  0.5901
  823MOL0     O13439   3.198   4.824   6.961 -1.0971 -0.0875 -0.0787
  823MOL0     C13440   3.206   4.944   7.035  0.5602  0.9521  0.2526
  823MOL0     C13441   3.248   4.929   7.172  0.8136 -0.6375 -0.0628
  823MOL0     C13442   3.281   5.045   7.241 -0.4459 -0.8504  0.6434
  823MOL0     C13443   3.275   5.174   7.195 -0.6411 -0.0527 -0.0253
  823MOL0     O13444   3.320   5.269   7.285 -0.1587  0.4093 -0.1351
  823MOL0     C13445   3.268   5.397   7.271  0.4427 -0.1378  1.1526
  823MOL0     C13446   3.344   5.494   7.367 -0.2305 -0.5665  0.7045
  823MOL0     C13447   3.243   5.583   7.448 -0.6763 -0.3724  1.3036
  823MOL0     C13448   3.184   5.691   7.362  0.5466 -0.1834 -0.4553
  823MOL0     C13449   3.109   5.801   7.446  0.7175 -0.6109 -0.6095
  823MOL0     C13450   2.955   5.771   7.464  0.1283  0.3899 -0.2744
  823MOL0     C13451   2.879   5.820   7.336 -0.1985  0.0805 -0.1811
  823MOL0     C13452   2.880   5.967   7.286  0.0837 -0.3826  0.2740
  823MOL0     N13453   2.858   6.064   7.390  0.2297 -0.5854 -0.0910
  823MOL0     C13454   2.735   6.080   7.458  0.6395  0.3202 -0.7107
  823MOL0     C13455   2.754   6.200   7.524 -0.2814  0.0497  0.6638
  823MOL0     C13456   2.645   6.266   7.608  0.2364  0.0288 -0.3409
  823MOL0     C13457   2.532   6.306   7.504  0.7838  0.0339 -0.5190
  823MOL0     C13458   2.589   6.382   7.386  1.0581  0.6056 -0.3234
  823MOL0     C13459   2.469   6.436   7.310  0.2680 -0.6556 -0.0311
  823MOL0     O13460   2.390   6.321   7.281  0.0070 -0.2195  0.9052
  823MOL0     C13461   2.263   6.347   7.255 -0.8760  0.5894  0.2057
  823MOL0     C13462   2.161   6.278   7.316  0.2063 -0.2278 -0.0723
  823MOL0     C13463   2.023   6.292   7.284  0.0762 -0.1568  0.1828
  823MOL0     C13464   1.923   6.207   7.360 -0.1657 -0.4117 -0.6862
  823MOL0     C13465   1.991   6.399   7.197 -0.6202  0.4501 -0.3528
  823MOL0     C13466   1.847   6.436   7.151  0.5168  0.5140 -0.5115
  823MOL0     O13467   1.825   6.528   7.048  0.9450  0.5142 -0.1947
  823MOL0     C13468   1.710   6.591   7.051  0.6470 -0.1775 -0.0314
  823MOL0     C13469   1.573   6.537   7.058  0.2390  0.1286  0.0470
  823MOL0     C13470   1.460   6.620   7.070 -0.0124  0.4438  0.7792
  823MOL0     C13471   1.472   6.761   7.065 -0.1457 -0.5454  0.5015
  823MOL0     O13472   1.359   6.838   7.072  0.9276  0.3243  0.2661
  823MOL0     C13473   1.348   6.964   7.035 -0.3503  0.3096  0.1089
  823MOL0     C13474   1.198   6.999   7.048 -0.6869  0.1081  0.1516
  823MOL0     C13475   1.176   7.145   7.006  0.0087  0.1845 -0.6143
  823MOL0     C13476   1.029   7.192   7.035 -0.5184  0.8471 -0.4245
  823MOL0     C13477   0.982   7.196   7.183  0.1311  0.2246  0.2097
  823MOL0     C13478   0.849   7.274   7.182  0.0371 -0.5636 -0.7523
  823MOL0     C13479   0.782   7.254   7.320  0.5813 -0.3041 -0.3528
  823MOL0     C13480   0.637   7.319   7.332  0.1463 -0.0593 -0.4812
  823MOL0    Cl13481   0.576   7.289   7.496  0.0402 -0.1608 -0.0116
  823MOL0     C13482   1.603   6.812   7.052  0.5981  0.3035  0.6708
  823MOL0     C13483   1.715   6.728   7.055  1.1307 -0.1353  0.2870
  823MOL0     O13484   1.757   6.374   7.220 -0.5689 -0.1670  0.1704
  823MOL0     C13485   2.089   6.479   7.143  0.3527  0.7017  0.0640
  823MOL0     C13486   2.219   6.452   7.168  0.6291  0.8354 -0.2686
  823MOL0     N13487   2.881   6.244   7.492  0.9958 -0.4959 -0.2279
  823MOL0     N13488   2.945   6.163   7.420  0.3103  0.2119 -0.4096
  823MOL0     C13489   3.252   5.187   7.055 -0.4253  0.7226  0.1640
  823MOL0     C13490   3.215   5.074   6.977 -0.7024 -0.3523 -1.0174
  823MOL0     C13491   3.102   4.670   6.802 -0.2979 -0.7807 -0.9062
  823MOL0     C13492   3.221   4.590   6.824  0.2113 -0.3379  0.5526
  823MOL0     C13493   3.221   4.468   6.752  0.8585  0.5769 -0.9326
  823MOL0     C13494   3.115   4.421   6.673 -1.3145  0.1790 -0.2126
  823MOL0     O13495   3.128   4.288   6.617  0.0000 -0.0203  0.1278
  823MOL0     C13496   3.013   4.207   6.644  0.0501 -0.1544  0.1959
  823MOL0     C13497   3.025   4.076   6.573 -0.0624 -0.9098  0.2658
  823MOL0     C13498   3.152   4.004   6.594  0.6918 -0.4203  0.5275
  823MOL0     C13499   3.148   3.866   6.527  1.2851  0.0442  0.2062
  823MOL0     C13500   3.094   3.861   6.388  0.5814  0.1450 -0.4283
  823MOL0     C13501   3.059   3.836   6.281 -0.8857 -0.5450 -0.2872
  823MOL0     C13502   2.997   4.496   6.675 -0.1401  0.5566 -0.1692
  823MOL0     C13503   2.990   4.620   6.736 -0.1046 -0.8381  0.7189
  823MOL0     C13504   2.859   4.706   6.710  0.7843 -0.2718  0.6249
  823MOL0     H13505   3.250   4.834   7.225 -2.9731 -0.2655  1.0067
  823MOL0     H13506   3.318   5.028   7.342  1.1034  0.1790  0.2813
  823MOL0     H13507   3.162   5.389   7.296 -0.0395  0.5642 -0.5324
  823MOL0     H13508   3.268   5.425   7.165  0.6411 -1.8407  0.6811
  823MOL0     H13509   3.399   5.432   7.438  2.7203  1.5491  0.4341
  823MOL0     H13510   3.414   5.554   7.309 -1.4404 -0.1968 -0.4309
  823MOL0     H13511   3.174   5.524   7.509  0.0680 -0.9659  1.5936
  823MOL0     H13512   3.296   5.643   7.522  1.3227  1.6816 -1.5701
  823MOL0     H13513   3.256   5.752   7.306  1.8123  0.1528  1.4435
  823MOL0     H13514   3.107   5.648   7.297 -0.9859  1.1579  0.3932
  823MOL0     H13515   3.132   5.895   7.395 -0.1227 -1.1854 -2.0919
  823MOL0     H13516   3.163   5.808   7.541  0.4519 -0.1705 -0.4888
  823MOL0     H13517   2.945   5.663   7.480  0.5660  0.5718  1.5007
  823MOL0     H13518   2.926   5.837   7.547 -1.0478  5.3774 -4.1831
  823MOL0     H13519   2.773   5.800   7.349 -0.0213 -1.0516 -0.3173
  823MOL0     H13520   2.902   5.753   7.252  0.7037  1.2667 -0.9165
  823MOL0     H13521   2.983   5.971   7.251  0.1917  0.7167  0.6685
  823MOL0     H13522   2.811   5.973   7.201  3.4304  2.6706 -2.5208
  823MOL0     H13523   2.645   6.020   7.457  1.5918 -1.2151  0.2364
  823MOL0     H13524   2.679   6.363   7.645  0.8895 -1.2630  2.7375
  823MOL0     H13525   2.600   6.204   7.686 -2.2413  2.7405  0.5678
  823MOL0     H13526   2.482   6.212   7.481 -0.4861 -0.2887  2.9601
  823MOL0     H13527   2.466   6.377   7.554  0.6627 -1.6399  1.9051
  823MOL0     H13528   2.650   6.465   7.424 -0.4412 -0.0006  4.0010
  823MOL0     H13529   2.659   6.328   7.323  2.3570  0.1209  1.4573
  823MOL0     H13530   2.415   6.510   7.369  0.8778  0.0494 -0.3457
  823MOL0     H13531   2.504   6.492   7.223  0.7508  2.8394  2.2309
  823MOL0     H13532   2.186   6.212   7.398 -1.7591  0.7279  1.3808
  823MOL0     H13533   1.860   6.279   7.413 -1.5364  0.0131 -2.7787
  823MOL0     H13534   1.972   6.135   7.426 -0.4299 -0.6498 -0.7518
  823MOL0     H13535   1.872   6.145   7.286 -0.0928 -1.8358  0.4103
  823MOL0     H13536   1.579   6.429   7.070  1.3131  0.0546 -0.9864
  823MOL0     H13537   1.363   6.575   7.087 -0.9081  1.4666 -1.2637
  823MOL0     H13538   1.396   7.020   7.115 -0.0386 -2.1462  1.7678
  823MOL0     H13539   1.390   6.978   6.935  0.2234  1.4862  0.5083
  823MOL0     H13540   1.143   6.931   6.982 -1.1439  0.1828  0.4510
  823MOL0     H13541   1.178   6.972   7.152  0.8479 -4.6890 -0.5497
  823MOL0     H13542   1.189   7.126   6.899  3.7583 -5.0812  0.3697
  823MOL0     H13543   1.250   7.216   7.043 -0.2518  0.3909 -0.4850
  823MOL0     H13544   0.954   7.137   6.976  1.3087 -2.0058 -0.2979
  823MOL0     H13545   1.032   7.298   7.010 -1.1202  0.8279 -0.6024
  823MOL0     H13546   0.971   7.092   7.215 -1.3456 -0.4053 -2.1326
  823MOL0     H13547   1.048   7.246   7.255  1.3575 -3.1760  1.7145
  823MOL0     H13548   0.783   7.242   7.101 -0.0895 -0.5836 -0.6421
  823MOL0     H13549   0.860   7.380   7.160 -0.5959 -0.2457  0.3276
  823MOL0     H13550   0.834   7.308   7.400 -0.5799  1.8299 -0.9588
  823MOL0     H13551   0.769   7.146   7.333 -3.0466  0.3631  4.2286
  823MOL0     H13552   0.571   7.277   7.255 -0.4323  3.3077 -1.9671
  823MOL0     H13553   0.642   7.427   7.320 -2.3553  0.0687 -0.8775
  823MOL0     H13554   1.622   6.917   7.035  0.9516  0.7077  3.2585
  823MOL0     H13555   1.805   6.786   7.042 -1.0797  3.3162 -1.0665
  823MOL0     H13556   2.065   6.562   7.077  0.5673 -0.8016 -1.9891
  823MOL0     H13557   2.287   6.520   7.116  2.7363  3.6850  5.3416
  823MOL0     H13558   3.263   5.282   7.003  2.0856  0.0459 -0.6617
  823MOL0     H13559   3.208   5.081   6.869 -0.8526 -0.2994 -1.0053
  823MOL0     H13560   3.302   4.627   6.886 -0.4301  1.0564  0.5894
  823MOL0     H13561   3.305   4.401   6.767  0.5789  0.5644  0.6800
  823MOL0     H13562   3.014   4.200   6.753  0.8959 -1.3482  0.1274
  823MOL0     H13563   2.920   4.257   6.614  0.1444 -0.3212 -0.3913
  823MOL0     H13564   3.024   4.096   6.466 -0.5847 -2.4294 -0.0330
  823MOL0     H13565   2.941   4.009   6.596  1.1482 -2.0777  1.4532
  823MOL0     H13566   3.243   4.061   6.571 -0.0089  0.8133  0.7230
  823MOL0     H13567   3.162   3.978   6.700 -2.6045  0.1210  1.0815
  823MOL0     H13568   3.094   3.798   6.594  2.1760 -1.5230 -0.5904
  823MOL0     H13569   3.254   3.845   6.511  1.4501  1.7016 -1.1640
  823MOL0     H13570   3.036   3.808   6.180  1.4936  0.1894 -1.0845
  823MOL0     H13571   2.909   4.464   6.620 -0.5853  0.2439  0.7045
  823MOL0     H13572   2.876   4.811   6.688 -1.9477  0.4548  1.5777
  823MOL0     H13573   2.793   4.656   6.638 -0.1558  0.4400  0.9728
  823MOL0     H13574   2.795   4.702   6.798 -1.3317 -1.3499 -0.8667
  824MOL0     O13575   2.880   3.277   2.733 -0.2694  0.1020  0.4632
  824MOL0     C13576   2.791   3.204   2.687 -0.4488 -0.1904 -0.9138
  824MOL0     O13577   2.665   3.224   2.698 -0.2457 -0.0194  0.2698
  824MOL0     C13578   2.614   3.359   2.709  0.3972  0.1400  0.2498
  824MOL0     C13579   2.660   3.460   2.625 -0.7424 -0.5925 -0.5317
  824MOL0     C13580   2.613   3.594   2.629 -0.3975  0.6796  0.6232
  824MOL0     C13581   2.522   3.621   2.729 -0.0277 -0.0148 -0.7763
  824MOL0     O13582   2.470   3.758   2.756 -0.0142 -0.3534  0.1225
  824MOL0     C13583   2.480   3.854   2.645 -0.5239 -0.2111 -0.3488
  824MOL0     C13584   2.390   3.818   2.535 -0.7019 -0.1573 -0.2581
  824MOL0     C13585   2.392   3.929   2.428  0.2974  0.3098 -0.2974
  824MOL0     C13586   2.395   3.868   2.281  0.0478  0.0828  0.5324
  824MOL0     C13587   2.338   3.959   2.183 -0.3816  0.5559  0.1397
  824MOL0     C13588   2.437   4.073   2.135 -0.2128  0.6227 -0.4056
  824MOL0     C13589   2.371   4.207   2.087 -0.2715  0.8486 -0.6785
  824MOL0     C13590   2.306   4.296   2.193 -0.2214 -0.1921  0.1041
  824MOL0     N13591   2.261   4.422   2.126  0.9652 -0.8328 -0.7545
  824MOL0     C13592   2.158   4.436   2.029  0.1169  0.6479  0.0060
  824MOL0     C13593   2.157   4.569   2.002  0.3919  0.0040 -0.1352
  824MOL0     C13594   2.060   4.625   1.902  0.2716  0.4281 -0.4832
  824MOL0     C13595   2.103   4.589   1.763 -0.0155 -0.1692  0.2907
  824MOL0     C13596   2.253   4.618   1.727  0.0604  0.1099 -0.2139
  824MOL0     C13597   2.290   4.565   1.585 -0.5083 -0.3744  0.2932
  824MOL0     O13598   2.223   4.447   1.543  0.2504 -0.0778 -0.1487
  824MOL0     C13599   2.221   4.408   1.413 -0.0264  0.0158  0.1409
  824MOL0     C13600   2.269   4.488   1.296 -0.0149 -0.3158  0.4463
  824MOL0     C13601   2.263   4.447   1.160 -1.4349 -0.1892  0.0896
  824MOL0     C13602   2.311   4.546   1.059  0.2465  0.4372  0.1279
  824MOL0     C13603   2.229   4.313   1.141  0.2386  1.6145  0.4811
  824MOL0     C13604   2.220   4.254   1.002 -0.6646  0.6169 -0.2612
  824MOL0     O13605   2.180   4.118   0.997 -0.4588  0.8024  0.1355
  824MOL0     C13606   2.189   4.063   0.870 -0.0746 -0.6160 -0.2026
  824MOL0     C13607   2.280   3.968   0.835 -0.2244 -0.6513 -0.1255
  824MOL0     C13608   2.281   3.908   0.708  0.2885 -0.4365  0.7360
  824MOL0     C13609   2.180   3.944   0.615 -0.1922 -0.7695  0.3805
  824MOL0     O13610   2.150   3.882   0.494 -0.1109 -0.1663  0.4140
  824MOL0     C13611   2.240   3.780   0.452  0.2129 -0.3021  0.2425
  824MOL0     C13612   2.206   3.737   0.305  0.2085 -0.1852  0.0253
  824MOL0     C13613   2.224   3.846   0.204 -0.4354  0.3977 -0.2638
  824MOL0     C13614   2.191   3.799   0.055  0.2825 -0.0820  0.1738
  824MOL0     C13615   2.274   3.886  -0.041 -0.1004 -0.7543 -0.8764
  824MOL0     C13616   2.193   3.968  -0.140  0.0505  0.1524 -0.0366
  824MOL0     C13617   2.092   4.075  -0.085  0.1862  0.0020  0.3854
  824MOL0     C13618   2.055   4.176  -0.193  0.4483  1.1619  0.7771
  824MOL0    Cl13619   1.956   4.106  -0.328 -0.1716 -0.0813 -0.1990
  824MOL0     C13620   2.085   4.032   0.654  0.0148  1.3594  0.5904
  824MOL0     C13621   2.088   4.093   0.776 -0.8173  0.0720 -0.1645
  824MOL0     O13622   2.273   4.311   0.912  0.7338 -0.5293  0.4801
  824MOL0     C13623   2.201   4.228   1.257 -0.0515 -0.6909 -0.3682
  824MOL0     C13624   2.182   4.282   1.379  0.7959  0.2473  0.7286
  824MOL0     N13625   2.261   4.632   2.072  0.2452 -0.5723 -0.3267
  824MOL0     N13626   2.321   4.541   2.137  0.5564  0.5641  0.5109
  824MOL0     C13627   2.465   3.515   2.804 -0.0994 -0.4220 -1.0211
  824MOL0     C13628   2.515   3.386   2.797 -0.1149 -0.2971 -0.2230
  824MOL0     C13629   2.811   3.074   2.640 -0.2048 -0.5098  0.5850
  824MOL0     C13630   2.769   3.048   2.506 -1.2348 -0.5182  0.1521
  824MOL0     C13631   2.798   2.920   2.447 -0.1250 -0.2954  0.4491
  824MOL0     C13632   2.877   2.829   2.523 -0.5815 -0.4838  0.0975
  824MOL0     O13633   2.935   2.725   2.457 -0.7521  0.2217 -1.0945
  824MOL0     C13634   2.954   2.596   2.521  1.4843 -0.2921  0.3327
  824MOL0     C13635   2.829   2.509   2.532 -0.3729 -0.8061 -0.4174
  824MOL0     C13636   2.783   2.479   2.395 -0.4105  0.4646  0.3278
  824MOL0     C13637   2.645   2.423   2.384 -0.3634  0.6270  0.6225
  824MOL0     C13638   2.621   2.400   2.236  0.6897  0.7276  0.1064
  824MOL0     C13639   2.605   2.373   2.112  0.3610 -0.5933  0.4251
  824MOL0     C13640   2.906   2.852   2.656  1.5935 -0.6860 -0.2938
  824MOL0     C13641   2.864   2.968   2.723 -0.2412 -0.8034  0.5934
  824MOL0     C13642   2.907   2.998   2.861  0.4484  0.4101  0.2219
  824MOL0     H13643   2.742   3.431   2.559  0.4453  0.1279  0.5669
  824MOL0     H13644   2.652   3.664   2.555 -2.1610  0.0176 -1.0236
  824MOL0     H13645   2.585   3.858   2.616 -1.1973 -0.9722 -3.1694
  824MOL0     H13646   2.445   3.950   2.683  3.2908  1.2545 -0.0634
  824MOL0     H13647   2.413   3.718   2.497 -0.8539  0.7109 -2.8447
  824MOL0     H13648   2.288   3.801   2.571 -0.1454  1.4720  2.3595
  824MOL0     H13649   2.295   3.981   2.429 -0.8027 -1.4806 -3.2264
  824MOL0     H13650   2.469   4.005   2.447 -1.2118  1.4492  1.7165
  824MOL0     H13651   2.500   3.844   2.267 -0.1186  0.2848 -1.3206
  824MOL0     H13652   2.322   3.786   2.287 -3.2454  2.6357 -1.0154
  824MOL0     H13653   2.244   4.005   2.216  0.0793  0.6888  1.2799
  824MOL0     H13654   2.312   3.900   2.094  1.1448  2.0761 -1.3922
  824MOL0     H13655   2.499   4.100   2.221  0.6777  1.1240 -1.1943
  824MOL0     H13656   2.505   4.042   2.056 -0.6031 -1.2708 -0.0380
  824MOL0     H13657   2.296   4.190   2.009 -0.4649 -0.7118 -0.2005
  824MOL0     H13658   2.453   4.259   2.038 -2.0166  3.6089 -0.8741
  824MOL0     H13659   2.218   4.250   2.239 -0.3116  1.5378  1.8018
  824MOL0     H13660   2.380   4.319   2.270  0.8527 -2.2036 -0.2779
  824MOL0     H13661   2.097   4.354   1.993  3.2392 -2.0640  0.3774
  824MOL0     H13662   2.058   4.733   1.918 -1.4336  0.0066  3.0267
  824MOL0     H13663   1.970   4.565   1.913 -1.0615  2.1907 -1.3253
  824MOL0     H13664   2.084   4.481   1.752 -0.5806  0.0179 -0.6090
  824MOL0     H13665   2.034   4.636   1.693 -2.7118  0.8872  3.3943
  824MOL0     H13666   2.273   4.724   1.742  0.8759 -0.3539  2.5306
  824MOL0     H13667   2.312   4.560   1.799  0.4965 -0.5741 -1.0953
  824MOL0     H13668   2.266   4.644   1.513 -0.7399  0.3026  1.1016
  824MOL0     H13669   2.399   4.557   1.572 -0.4168 -3.1214  2.0968
  824MOL0     H13670   2.278   4.594   1.314 -4.7404  1.3449 -4.4160
  824MOL0     H13671   2.231   4.562   0.986  1.4657  2.4383 -0.8494
  824MOL0     H13672   2.395   4.500   1.007 -1.8587  0.0456 -3.2364
  824MOL0     H13673   2.352   4.641   1.095  1.6873 -0.4731  1.0064
  824MOL0     H13674   2.356   3.945   0.909 -2.5012  2.0099  3.3486
  824MOL0     H13675   2.347   3.822   0.693  1.5637  0.8302 -1.3780
  824MOL0     H13676   2.344   3.811   0.457  1.1728 -3.2353  0.3753
  824MOL0     H13677   2.233   3.691   0.516  3.9093 -1.2651 -0.4745
  824MOL0     H13678   2.268   3.652   0.277  0.8546  0.6725 -1.2259
  824MOL0     H13679   2.102   3.704   0.303 -0.4175  1.7011 -1.5357
  824MOL0     H13680   2.329   3.877   0.212  0.7661 -2.1171 -3.8417
  824MOL0     H13681   2.164   3.934   0.227 -2.1226 -0.0626 -2.5404
  824MOL0     H13682   2.085   3.813   0.034 -0.0364 -0.5666  1.3866
  824MOL0     H13683   2.224   3.696   0.041  1.1680  0.3746 -1.2551
  824MOL0     H13684   2.327   3.958   0.022 -4.1785  0.8395  1.0846
  824MOL0     H13685   2.339   3.816  -0.094 -0.5245 -1.4921 -0.4506
  824MOL0     H13686   2.133   3.896  -0.197 -1.1524  0.5948  0.6414
  824MOL0     H13687   2.260   4.020  -0.208  1.0939  0.9506  1.5654
  824MOL0     H13688   2.136   4.133  -0.004  1.7552  0.2223 -0.5990
  824MOL0     H13689   2.002   4.021  -0.053 -0.7651 -0.6732 -3.0097
  824MOL0     H13690   2.150   4.216  -0.231 -0.1548  2.1660  0.3069
  824MOL0     H13691   2.000   4.261  -0.151  0.7040  0.4773  2.5897
  824MOL0     H13692   2.008   4.071   0.588 -1.9183 -1.5931  0.9271
  824MOL0     H13693   2.015   4.169   0.802  0.7727  1.7647 -0.3723
  824MOL0     H13694   2.180   4.122   1.251 -3.9630 -0.1549  0.6167
  824MOL0     H13695   2.144   4.219   1.459 -1.8282  0.4972 -0.2195
  824MOL0     H13696   2.382   3.536   2.871 -0.2845 -2.7806 -0.3852
  824MOL0     H13697   2.469   3.310   2.859  2.7240 -0.4234  1.9665
  824MOL0     H13698   2.717   3.123   2.447  0.7187 -0.3526 -1.4791
  824MOL0     H13699   2.764   2.887   2.349 -2.2433 -1.4355  1.4784
  824MOL0     H13700   3.018   2.536   2.455  2.1626  2.0169 -1.2414
  824MOL0     H13701   3.005   2.603   2.617 -2.1095 -1.4238  2.5207
  824MOL0     H13702   2.756   2.571   2.585  1.9889  2.4361 -0.6562
  824MOL0     H13703   2.869   2.423   2.588 -1.2716 -1.7834 -1.2492
  824MOL0     H13704   2.796   2.567   2.331 -0.2984  1.0121  1.0928
  824MOL0     H13705   2.849   2.400   2.358 -0.4160 -0.1315  1.5560
  824MOL0     H13706   2.576   2.496   2.428 -1.3173  0.9584 -1.2923
  824MOL0     H13707   2.633   2.329   2.439 -2.3309  0.1370 -0.5496
  824MOL0     H13708   2.606   2.370   2.005  3.1588 -0.9597  0.3784
  824MOL0     H13709   2.961   2.772   2.705  0.5112 -0.1536  1.9317
  824MOL0     H13710   2.939   2.907   2.912  3.3560  1.6573  0.8560
  824MOL0     H13711   2.998   3.060   2.860  1.4354 -0.6947 -4.5312
  824MOL0     H13712   2.825   3.059   2.900  0.2223  0.3951 -0.2166
  825MOL0     O13713   6.179  10.338   2.074 -0.0159 -0.5599  0.0489
  825MOL0     C13714   6.121  10.250   2.126  0.9217  0.5141  0.0174
  825MOL0     O13715   5.993  10.227   2.117  0.0914 -0.0056 -0.2475
  825MOL0     C13716   5.909  10.330   2.077 -0.4048 -0.6568  0.6403
  825MOL0     C13717   5.928  10.457   2.120  0.7577 -0.1023  0.2837
  825MOL0     C13718   5.833  10.555   2.093 -0.5253  0.4036  0.7106
  825MOL0     C13719   5.718  10.541   2.021 -0.2676  0.7199  0.6401
  825MOL0     O13720   5.625  10.637   1.994 -0.1690  0.9571  0.2429
  825MOL0     C13721   5.679  10.744   1.924 -0.7121  0.0183  0.2327
  825MOL0     C13722   5.588  10.803   1.810  0.4122 -0.5234 -0.0712
  825MOL0     C13723   5.472  10.903   1.857 -0.7733  0.0988 -0.1985
  825MOL0     C13724   5.358  10.812   1.917 -0.4164 -0.7690  0.5100
  825MOL0     C13725   5.236  10.896   1.956  0.3804 -0.0215  0.3444
  825MOL0     C13726   5.117  10.807   1.994  0.4441 -0.2451  0.7696
  825MOL0     C13727   4.987  10.880   2.023 -1.1148 -0.6343  0.2024
  825MOL0     C13728   5.004  10.976   2.142 -0.3745  0.6285  0.9903
  825MOL0     N13729   4.874  11.010   2.201  0.1803 -0.0204  0.1041
  825MOL0     C13730   4.799  10.919   2.270 -0.4962  0.7787  0.1606
  825MOL0     C13731   4.676  10.971   2.293 -0.3842 -0.3932  0.2104
  825MOL0     C13732   4.560  10.898   2.345  0.4007  0.3841 -0.2977
  825MOL0     C13733   4.441  10.989   2.397 -0.7868 -0.6395  0.8913
  825MOL0     C13734   4.357  10.912   2.508 -0.1617  0.2058  0.2388
  825MOL0     C13735   4.234  10.987   2.565 -0.6840 -0.4358  0.4804
  825MOL0     O13736   4.157  11.043   2.456  0.0449 -0.5637 -0.3553
  825MOL0     C13737   4.030  11.089   2.479  0.2146  0.3632 -0.2338
  825MOL0     C13738   3.957  11.066   2.599  0.5760  0.0705  0.7464
  825MOL0     C13739   3.833  11.132   2.612  0.4991 -0.7526 -1.1173
  825MOL0     C13740   3.769  11.133   2.745 -0.2643  0.5476  1.1310
  825MOL0     C13741   3.778  11.213   2.505  0.6188 -0.1768 -1.0309
  825MOL0     C13742   3.644  11.283   2.513  0.2869  0.1104 -0.2175
  825MOL0     O13743   3.545  11.210   2.560  0.1354  0.3382  0.0758
  825MOL0     C13744   3.434  11.264   2.617 -0.3239 -0.4432  0.7315
  825MOL0     C13745   3.343  11.350   2.550 -0.3832 -0.0456 -0.5360
  825MOL0     C13746   3.222  11.386   2.618  0.5147  0.0767 -1.0131
  825MOL0     C13747   3.202  11.356   2.754  0.3014 -0.1089  0.0323
  825MOL0     O13748   3.107  11.402   2.840 -0.5490 -0.3498  0.1897
  825MOL0     C13749   3.059  11.530   2.830  0.1315 -0.0733 -0.5102
  825MOL0     C13750   3.103  11.600   2.961  0.3744  0.3921 -0.1052
  825MOL0     C13751   3.247  11.615   2.972  0.2532  0.1516 -0.2461
  825MOL0     C13752   3.299  11.710   3.076  1.2002  0.1179 -0.9713
  825MOL0     C13753   3.227  11.693   3.213  1.0525 -0.5772  0.7615
  825MOL0     C13754   3.241  11.564   3.289  0.1329  0.4658  0.0527
  825MOL0     C13755   3.382  11.517   3.325 -0.2070 -0.5264 -1.0369
  825MOL0     C13756   3.479  11.610   3.395  0.6086  0.6785 -0.8010
  825MOL0    Cl13757   3.637  11.549   3.420  0.1275  0.3001  0.0295
  825MOL0     C13758   3.299  11.277   2.814  0.4311  0.0378 -0.0955
  825MOL0     C13759   3.401  11.214   2.746  0.1242  0.4176  0.1585
  825MOL0     O13760   3.635  11.395   2.468 -0.0555  0.3652 -0.2287
  825MOL0     C13761   3.860  11.233   2.391 -0.4220 -0.3110 -0.3437
  825MOL0     C13762   3.981  11.165   2.386  0.1227 -0.6593  0.5332
  825MOL0     N13763   4.675  11.102   2.247  0.6601  0.9757  0.3448
  825MOL0     N13764   4.787  11.114   2.179 -0.2639 -1.0928  1.0892
  825MOL0     C13765   5.696  10.406   1.970  0.2637 -0.5556  0.0156
  825MOL0     C13766   5.795  10.307   1.996 -0.6474  0.1542 -0.4792
  825MOL0     C13767   6.188  10.148   2.199  0.2194  0.2223 -0.3766
  825MOL0     C13768   6.124  10.096   2.321  0.3908 -1.1564 -0.8039
  825MOL0     C13769   6.181  10.008   2.408 -0.6135 -0.4306 -0.6927
  825MOL0     C13770   6.298   9.949   2.371 -1.4936  0.5247  0.1287
  825MOL0     O13771   6.367   9.862   2.454 -0.7988  0.7165  0.5151
  825MOL0     C13772   6.305   9.807   2.572  0.2074 -1.3335  1.0099
  825MOL0     C13773   6.379   9.679   2.629  0.1436  1.0305 -0.0298
  825MOL0     C13774   6.319   9.645   2.764  0.7068  0.2696 -0.1415
  825MOL0     C13775   6.382   9.722   2.882  0.4624  0.5304  0.5073
  825MOL0     C13776   6.340   9.661   3.012  0.1950  0.1761  0.0222
  825MOL0     C13777   6.279   9.628   3.115  0.1590 -0.3628  0.7835
  825MOL0     C13778   6.367   9.984   2.248  0.1797 -0.3753 -0.2234
  825MOL0     C13779   6.304  10.083   2.165 -0.6887 -0.1286  0.7215
  825MOL0     C13780   6.373  10.105   2.034 -0.2532 -0.2247 -0.1377
  825MOL0     H13781   6.009  10.479   2.189 -1.9206  2.4187  2.8589
  825MOL0     H13782   5.855  10.644   2.151 -2.1824 -0.1711  2.3092
  825MOL0     H13783   5.765  10.711   1.864 -2.4402 -2.1556 -1.1874
  825MOL0     H13784   5.708  10.819   1.998 -0.7463 -1.5503  1.8967
  825MOL0     H13785   5.649  10.859   1.739  1.2909  1.0353  1.8296
  825MOL0     H13786   5.543  10.723   1.750  1.2100 -1.1236  0.1153
  825MOL0     H13787   5.503  10.977   1.933 -3.0291  1.1519 -0.2397
  825MOL0     H13788   5.442  10.967   1.774  0.3407  1.2986  0.2780
  825MOL0     H13789   5.333  10.735   1.843  2.1440  0.9828 -2.4520
  825MOL0     H13790   5.397  10.763   2.007  0.7462  1.1919  1.1425
  825MOL0     H13791   5.205  10.957   1.870  0.6844 -3.4200 -2.3927
  825MOL0     H13792   5.274  10.963   2.033 -0.4312 -0.1770  0.8959
  825MOL0     H13793   5.092  10.743   1.908  0.3477  0.2326  0.4388
  825MOL0     H13794   5.149  10.735   2.071  1.2639  0.5962  1.2287
  825MOL0     H13795   4.906  10.811   2.049 -2.4339  1.3473  1.5718
  825MOL0     H13796   4.951  10.932   1.934 -2.6027  1.8543  2.1526
  825MOL0     H13797   5.065  10.936   2.222  1.2609 -2.3951 -1.5409
  825MOL0     H13798   5.057  11.061   2.099  3.1815 -1.1367  1.5411
  825MOL0     H13799   4.818  10.814   2.290 -2.2855  0.6422  1.3987
  825MOL0     H13800   4.602  10.853   2.435  0.0263  2.9422  1.2684
  825MOL0     H13801   4.532  10.819   2.275  0.2897  0.7765 -0.7002
  825MOL0     H13802   4.476  11.088   2.427 -0.4915 -0.2999 -0.4757
  825MOL0     H13803   4.386  11.001   2.303  2.3867 -3.1362 -1.5472
  825MOL0     H13804   4.315  10.822   2.461  0.6046  0.9691 -2.0717
  825MOL0     H13805   4.425  10.867   2.580  1.0127 -1.2061 -1.6411
  825MOL0     H13806   4.169  10.919   2.620  1.3027  1.1553  5.2925
  825MOL0     H13807   4.273  11.056   2.641  0.6389  0.3798 -0.8666
  825MOL0     H13808   3.991  11.009   2.685 -0.0171  0.6468  1.3774
  825MOL0     H13809   3.841  11.115   2.825 -0.5199  1.6562  1.6243
  825MOL0     H13810   3.681  11.068   2.744 -0.1673  0.2308 -2.8975
  825MOL0     H13811   3.729  11.231   2.772 -0.5250 -0.1319  3.4255
  825MOL0     H13812   3.362  11.377   2.446 -1.1368  1.3743 -0.3292
  825MOL0     H13813   3.141  11.448   2.581  0.5557  1.8168  1.5616
  825MOL0     H13814   3.099  11.579   2.741  1.5876 -1.8328 -0.8960
  825MOL0     H13815   2.952  11.549   2.832  0.2339  0.7664  2.2986
  825MOL0     H13816   3.054  11.697   2.972  0.1830 -0.0057  4.4050
  825MOL0     H13817   3.065  11.536   3.041  3.5099  2.3564  3.2439
  825MOL0     H13818   3.274  11.629   2.867 -0.7263 -0.0590 -0.5358
  825MOL0     H13819   3.291  11.519   3.003 -0.1418 -0.8074 -2.5126
  825MOL0     H13820   3.290  11.817   3.050  1.8840 -0.2323 -2.8307
  825MOL0     H13821   3.404  11.697   3.100  0.8131  0.0058  0.7872
  825MOL0     H13822   3.269  11.776   3.270 -0.0763  0.2080  0.4850
  825MOL0     H13823   3.119  11.713   3.206  1.1641  0.0130  0.7152
  825MOL0     H13824   3.191  11.485   3.232 -0.2462 -0.3552  1.4750
  825MOL0     H13825   3.186  11.575   3.383 -3.5196  0.3893 -1.8694
  825MOL0     H13826   3.428  11.496   3.228  1.9386  0.1822 -0.2404
  825MOL0     H13827   3.372  11.420   3.374  2.0060  0.2314  1.1573
  825MOL0     H13828   3.444  11.633   3.496 -0.2287  2.2029 -1.3905
  825MOL0     H13829   3.471  11.707   3.344 -0.6617  0.2983 -1.3664
  825MOL0     H13830   3.296  11.243   2.917 -0.9800 -2.5632 -0.9024
  825MOL0     H13831   3.461  11.143   2.802 -0.7376 -3.2433 -3.1895
  825MOL0     H13832   3.838  11.295   2.305  2.1315  0.9459 -0.2003
  825MOL0     H13833   4.048  11.157   2.301  0.1133 -1.6652  0.6128
  825MOL0     H13834   5.605  10.379   1.917  0.9199 -2.1271 -0.3598
  825MOL0     H13835   5.772  10.202   1.981 -1.4062 -0.0364  1.6329
  825MOL0     H13836   6.033  10.135   2.364  3.0490  1.2403  3.3330
  825MOL0     H13837   6.126   9.979   2.497 -0.7637 -1.3481 -1.0745
  825MOL0     H13838   6.304   9.879   2.655 -2.7997  0.8113 -0.7020
  825MOL0     H13839   6.205   9.777   2.542 -0.4791  0.0359  1.8315
  825MOL0     H13840   6.486   9.698   2.638  0.1261  0.6986  0.9896
  825MOL0     H13841   6.358   9.594   2.564  0.3220 -1.9202  3.4219
  825MOL0     H13842   6.211   9.660   2.766  0.4364 -1.5275  2.2131
  825MOL0     H13843   6.329   9.541   2.796  3.5618  0.2910 -0.6493
  825MOL0     H13844   6.355   9.828   2.875  2.2260  0.9815 -0.0954
  825MOL0     H13845   6.490   9.719   2.867  0.0310  1.9810 -4.7536
  825MOL0     H13846   6.235   9.604   3.210  2.0547 -1.8172  1.3770
  825MOL0     H13847   6.456   9.935   2.211  0.9067  1.7090 -1.3785
  825MOL0     H13848   6.423  10.013   2.001 -1.3240 -1.3262  1.1470
  825MOL0     H13849   6.306  10.131   1.952 -2.1591 -0.8030  1.1601
  825MOL0     H13850   6.449  10.183   2.040 -2.9592  2.4926  2.3461
  826MOL0     O13851   8.093   0.025   7.574 -1.2731 -0.8369 -0.3457
  826MOL0     C13852   8.096  -0.011   7.462 -0.2110 -0.9416  0.9867
  826MOL0     O13853   8.182  -0.097   7.407 -0.2630 -0.7247 -0.5531
  826MOL0     C13854   8.290  -0.141   7.492  0.6377  0.0882  0.4616
  826MOL0     C13855   8.406  -0.065   7.492  0.3832  0.6173 -0.0990
  826MOL0     C13856   8.518  -0.110   7.564 -0.1553 -0.5623 -0.0087
  826MOL0     C13857   8.514  -0.231   7.623  0.1937  0.7041  1.1035
  826MOL0     O13858   8.622  -0.292   7.689 -0.2779  0.0544 -0.2753
  826MOL0     C13859   8.753  -0.238   7.667 -0.1258 -0.2364  0.1615
  826MOL0     C13860   8.862  -0.340   7.705  0.3984 -0.5902 -0.0401
  826MOL0     C13861   8.999  -0.271   7.695  0.3375  1.0609  1.0080
  826MOL0     C13862   9.125  -0.359   7.730 -0.6269 -0.0998 -0.2713
  826MOL0     C13863   9.255  -0.300   7.688 -0.7749  0.3356 -0.2725
  826MOL0     C13864   9.304  -0.200   7.785  0.5629 -0.3635 -0.6442
  826MOL0     C13865   9.435  -0.124   7.759  0.1883 -0.2795  0.4160
  826MOL0     C13866   9.567  -0.196   7.813  0.7277 -0.2176  0.1988
  826MOL0     N13867   9.679  -0.093   7.802  0.7334 -1.1407  0.0760
  826MOL0     C13868   9.721  -0.029   7.685  1.1306  1.4862  0.0670
  826MOL0     C13869   9.831   0.043   7.719  0.3869  0.2315 -0.3565
  826MOL0     C13870   9.918   0.123   7.628  0.3985 -0.5184 -0.2899
  826MOL0     C13871  10.033   0.195   7.702  0.2026 -0.4460 -0.1024
  826MOL0     C13872  10.100   0.303   7.615  0.4551  0.2739  0.2652
  826MOL0     C13873  10.211   0.391   7.689  0.4289  0.4422  1.0383
  826MOL0     O13874  10.276   0.477   7.596 -0.8393 -0.0319  0.7652
  826MOL0     C13875  10.366   0.565   7.649  0.6996  0.9303 -0.2717
  826MOL0     C13876  10.409   0.568   7.782 -0.9032  0.2281 -0.9962
  826MOL0     C13877  10.492   0.672   7.822 -0.3374 -0.9169 -0.5399
  826MOL0     C13878  10.527   0.675   7.966 -1.0174  0.0365  0.2350
  826MOL0     C13879  10.529   0.780   7.727  0.7744  0.5099  0.0396
  826MOL0     C13880  10.618   0.898   7.749  0.2885 -0.1475 -0.7003
  826MOL0     O13881  10.643   0.985   7.652  0.8295 -0.0306 -0.7540
  826MOL0     C13882  10.719   1.098   7.679 -0.8871 -0.5698 -0.1486
  826MOL0     C13883  10.682   1.208   7.607  0.5363  0.0903  0.2255
  826MOL0     C13884  10.754   1.327   7.618 -0.0085 -0.9192 -0.7173
  826MOL0     C13885  10.865   1.343   7.699 -0.2449 -0.5184  0.0679
  826MOL0     O13886  10.917   1.471   7.700 -0.4039  0.2840 -0.6165
  826MOL0     C13887  11.054   1.477   7.737 -0.0380  0.3434 -0.3813
  826MOL0     C13888  11.075   1.623   7.733  0.2292  0.0012  0.1070
  826MOL0     C13889  11.072   1.674   7.591 -0.0031 -0.6029  0.8153
  826MOL0     C13890  11.101   1.827   7.590  0.5003  0.5370 -0.0861
  826MOL0     C13891  11.063   1.902   7.459 -0.4327 -0.4864 -0.9341
  826MOL0     C13892  10.919   1.894   7.419 -0.3568 -0.4314 -0.3171
  826MOL0     C13893  10.878   2.012   7.327 -0.2342  0.3717  0.6300
  826MOL0     C13894  10.969   2.004   7.200 -0.1915 -0.1890  0.3669
  826MOL0    Cl13895  10.963   2.156   7.099 -0.1309 -0.0367  0.2022
  826MOL0     C13896  10.902   1.230   7.776 -1.1115  0.1036 -0.3869
  826MOL0     C13897  10.830   1.110   7.765 -0.0284  0.5207 -0.0092
  826MOL0     O13898  10.653   0.910   7.868 -0.1683 -0.7985 -0.3035
  826MOL0     C13899  10.491   0.753   7.595 -0.0116  0.1855  0.7461
  826MOL0     C13900  10.406   0.647   7.552 -1.1016 -0.2126  0.0242
  826MOL0     N13901   9.841   0.042   7.857 -0.5223  0.6627  0.3279
  826MOL0     N13902   9.752  -0.039   7.907 -0.2031  0.5296 -0.2421
  826MOL0     C13903   8.402  -0.320   7.615 -0.4392  1.2737 -0.3430
  826MOL0     C13904   8.288  -0.275   7.543 -0.0224 -1.1641 -0.2499
  826MOL0     C13905   8.004   0.065   7.380  0.5183  0.1894  0.5594
  826MOL0     C13906   7.902  -0.004   7.306  0.2613 -0.0870  0.3656
  826MOL0     C13907   7.826   0.053   7.210 -0.1671 -0.0245  0.5846
  826MOL0     C13908   7.849   0.182   7.174 -0.2997  0.3171  0.0430
  826MOL0     O13909   7.763   0.242   7.082 -0.0653  0.6500  0.5053
  826MOL0     C13910   7.763   0.380   7.045  0.6501  0.3274 -0.6841
  826MOL0     C13911   7.614   0.423   7.004  0.1114  0.2222  0.9132
  826MOL0     C13912   7.560   0.340   6.888  0.1299  0.5482  0.3612
  826MOL0     C13913   7.428   0.380   6.819 -0.1808 -0.0649  0.2962
  826MOL0     C13914   7.437   0.522   6.783  0.0390  0.8374  0.2973
  826MOL0     C13915   7.432   0.643   6.764  0.3444  0.5964 -0.4373
  826MOL0     C13916   7.944   0.256   7.246 -0.5752  0.1474 -0.1194
  826MOL0     C13917   8.030   0.199   7.343 -1.0730 -0.6274  0.0385
  826MOL0     C13918   8.154   0.279   7.389 -0.1800 -0.7680 -0.0700
  826MOL0     H13919   8.396   0.035   7.449 -1.2614  0.5904  0.1579
  826MOL0     H13920   8.607  -0.048   7.572 -2.8978  3.5608  1.1984
  826MOL0     H13921   8.764  -0.143   7.721 -1.1113 -0.4145  0.6773
  826MOL0     H13922   8.763  -0.214   7.561  1.4254 -2.3010 -0.2232
  826MOL0     H13923   8.844  -0.364   7.811  0.6939  2.1907  0.7250
  826MOL0     H13924   8.867  -0.425   7.637  1.7611  0.0344 -0.7411
  826MOL0     H13925   9.020  -0.241   7.592  3.5398  0.6941  1.4330
  826MOL0     H13926   9.011  -0.180   7.754  0.5680 -0.3242  3.2119
  826MOL0     H13927   9.118  -0.373   7.838 -1.2286 -0.7684 -0.3901
  826MOL0     H13928   9.108  -0.458   7.687 -3.2717  0.4584 -0.6482
  826MOL0     H13929   9.245  -0.255   7.589  0.9446  1.0263 -0.1652
  826MOL0     H13930   9.327  -0.383   7.689 -1.1332 -0.0052  1.9008
  826MOL0     H13931   9.229  -0.121   7.780  1.4560  0.6673  1.2736
  826MOL0     H13932   9.314  -0.239   7.887  0.8541  1.5577  0.1142
  826MOL0     H13933   9.438  -0.029   7.814  3.0773  0.3200 -0.6020
  826MOL0     H13934   9.436  -0.097   7.653 -2.1680 -0.4010  0.3166
  826MOL0     H13935   9.580  -0.232   7.915 -1.7865  0.4027  0.8267
  826MOL0     H13936   9.589  -0.282   7.750  0.3335 -0.8230  0.8747
  826MOL0     H13937   9.665  -0.041   7.593  2.4392 -3.2649 -0.3805
  826MOL0     H13938   9.851   0.198   7.584  0.9620 -0.5042 -1.1405
  826MOL0     H13939   9.952   0.053   7.551 -1.0684  0.7084 -2.1392
  826MOL0     H13940  10.003   0.242   7.797  0.9491  0.1470 -0.1457
  826MOL0     H13941  10.119   0.127   7.711  1.5652  0.6387 -3.3800
  826MOL0     H13942  10.150   0.266   7.524 -2.9669  3.4309 -3.2798
  826MOL0     H13943  10.015   0.359   7.573  0.9070 -0.4779 -1.8004
  826MOL0     H13944  10.162   0.464   7.755  0.2261  1.6791 -0.4162
  826MOL0     H13945  10.280   0.338   7.756  1.3940  0.2957 -0.0317
  826MOL0     H13946  10.373   0.494   7.852 -2.0659  0.0161 -1.7844
  826MOL0     H13947  10.481   0.755   8.024 -0.3505 -0.9914  2.2858
  826MOL0     H13948  10.636   0.681   7.974 -1.0178  0.8606 -0.2333
  826MOL0     H13949  10.491   0.592   8.027 -2.8615  1.4462  1.1802
  826MOL0     H13950  10.591   1.201   7.549  0.3592  1.9629  0.2400
  826MOL0     H13951  10.721   1.409   7.555 -5.2010 -3.4286 -1.7891
  826MOL0     H13952  11.070   1.442   7.840  0.5496  0.9228 -0.2721
  826MOL0     H13953  11.113   1.410   7.673  0.3604  0.5292 -0.2085
  826MOL0     H13954  10.990   1.666   7.788  0.7676  1.7880 -0.3746
  826MOL0     H13955  11.173   1.636   7.780 -0.7881  1.1195  2.0340
  826MOL0     H13956  10.979   1.651   7.539  1.2411  2.0959 -3.0657
  826MOL0     H13957  11.144   1.623   7.526 -2.2058 -2.3219 -0.3784
  826MOL0     H13958  11.205   1.847   7.614  0.4453 -0.2833  0.9148
  826MOL0     H13959  11.034   1.876   7.662  1.8900  1.9620  0.2908
  826MOL0     H13960  11.081   2.009   7.472 -3.3300  0.0235 -0.3282
  826MOL0     H13961  11.122   1.862   7.376  1.0948 -1.5091  0.5634
  826MOL0     H13962  10.859   1.906   7.510 -2.5617  2.5889 -2.0030
  826MOL0     H13963  10.893   1.794   7.385 -2.2487 -0.5018  1.1785
  826MOL0     H13964  10.897   2.113   7.366  0.4800  1.0555 -1.3568
  826MOL0     H13965  10.772   2.010   7.299 -0.2151 -0.6078  0.6038
  826MOL0     H13966  10.945   1.919   7.135 -0.7996  1.3947 -1.5990
  826MOL0     H13967  11.071   1.989   7.237 -1.3032 -4.4814  2.3102
  826MOL0     H13968  10.994   1.243   7.833 -1.0968 -1.0478 -0.1261
  826MOL0     H13969  10.870   1.018   7.806  0.6082  0.4840 -0.7015
  826MOL0     H13970  10.496   0.824   7.513  0.9613 -0.7775 -0.0640
  826MOL0     H13971  10.363   0.630   7.454  1.2380 -0.8956 -0.9563
  826MOL0     H13972   8.410  -0.418   7.661 -0.5564  0.7490 -1.4165
  826MOL0     H13973   8.202  -0.341   7.531 -2.2792  0.9408  2.6607
  826MOL0     H13974   7.890  -0.110   7.325  2.6852 -0.3979  0.4883
  826MOL0     H13975   7.754  -0.009   7.156  1.5590  0.1599 -2.1578
  826MOL0     H13976   7.786   0.442   7.132 -0.0187  0.9151 -0.9139
  826MOL0     H13977   7.835   0.398   6.964 -0.5987  1.5926 -1.5662
  826MOL0     H13978   7.618   0.529   6.976  0.8603 -0.3695 -1.5314
  826MOL0     H13979   7.545   0.397   7.085 -1.2650  1.1816  0.0997
  826MOL0     H13980   7.644   0.342   6.819  2.5707 -1.4145  2.9961
  826MOL0     H13981   7.554   0.237   6.924 -1.9787 -0.2355 -1.9508
  826MOL0     H13982   7.352   0.365   6.897 -0.0227 -3.0776 -0.0132
  826MOL0     H13983   7.411   0.318   6.731 -0.1800 -0.8259  0.8193
  826MOL0     H13984   7.432   0.746   6.734  3.0830  1.0149  0.6563
  826MOL0     H13985   7.953   0.360   7.218 -5.9267  1.4371  1.6152
  826MOL0     H13986   8.136   0.387   7.382 -2.4834 -0.7200  3.9044
  826MOL0     H13987   8.193   0.267   7.490 -2.7928  1.0898  1.2912
  826MOL0     H13988   8.242   0.252   7.329  1.5531 -0.0057  2.0235
  827MOL0     O13989   7.818  10.275   6.017 -0.1467 -1.0663  0.1859
  827MOL0     C13990   7.845  10.252   6.135  0.6844  0.0536  0.1192
  827MOL0     O13991   7.836  10.130   6.190  0.2326  0.1286 -0.4007
  827MOL0     C13992   7.770  10.033   6.118 -0.3224  0.5510 -0.3118
  827MOL0     C13993   7.830   9.913   6.077 -0.9722  0.0518 -0.7723
  827MOL0     C13994   7.757   9.825   5.998 -1.4501  0.2617 -0.6520
  827MOL0     C13995   7.624   9.852   5.962  0.1305  0.2058 -0.1561
  827MOL0     O13996   7.561   9.751   5.889 -0.2943 -0.8227 -0.1605
  827MOL0     C13997   7.485   9.785   5.766  0.4972 -0.0041 -0.4586
  827MOL0     C13998   7.410   9.651   5.719 -0.3235  0.5346 -0.1510
  827MOL0     C13999   7.283   9.690   5.646  0.0489  0.0356  0.6191
  827MOL0     C14000   7.224   9.569   5.573 -0.5662 -0.3091  0.1053
  827MOL0     C14001   7.115   9.613   5.476 -0.9419  0.4749 -0.2838
  827MOL0     C14002   7.083   9.499   5.374  0.5658 -0.0617  0.0085
  827MOL0     C14003   6.959   9.547   5.289 -0.1191  0.1099 -1.0264
  827MOL0     C14004   6.984   9.654   5.193  0.1152  0.0300  0.8382
  827MOL0     N14005   6.868   9.658   5.101  0.9287  0.0768 -0.1401
  827MOL0     C14006   6.882   9.621   4.971  0.5386 -0.4455  0.4356
  827MOL0     C14007   6.762   9.644   4.918 -0.1169  0.0119 -0.0494
  827MOL0     C14008   6.735   9.596   4.774 -0.2592 -1.0087 -0.7741
  827MOL0     C14009   6.622   9.698   4.722 -0.7668  0.8142  0.6942
  827MOL0     C14010   6.579   9.674   4.573  0.5999  0.4999  0.1961
  827MOL0     C14011   6.534   9.539   4.531 -0.9497  0.0753 -0.4640
  827MOL0     O14012   6.649   9.457   4.537 -0.0987  0.3012  0.6665
  827MOL0     C14013   6.650   9.358   4.441 -0.2666  0.0611  0.7491
  827MOL0     C14014   6.721   9.378   4.317  0.5070  0.1729 -0.6690
  827MOL0     C14015   6.729   9.274   4.221 -0.9127 -0.1342  0.4522
  827MOL0     C14016   6.819   9.319   4.100 -0.3802 -0.0068 -0.9959
  827MOL0     C14017   6.656   9.155   4.237  0.3410  0.6015  0.1645
  827MOL0     C14018   6.651   9.041   4.136 -0.3422  0.2808  0.1710
  827MOL0     O14019   6.549   8.942   4.151  0.1659  0.5931 -0.9434
  827MOL0     C14020   6.557   8.815   4.092 -0.3691 -0.2259 -0.1703
  827MOL0     C14021   6.634   8.780   3.976 -0.9871  0.4078  0.5590
  827MOL0     C14022   6.622   8.651   3.917  0.0154  0.7732  0.2313
  827MOL0     C14023   6.535   8.556   3.971 -0.1152  0.4496  0.4718
  827MOL0     O14024   6.528   8.435   3.907 -0.0316 -0.3809 -0.6531
  827MOL0     C14025   6.400   8.384   3.884 -0.0232 -0.4137  0.0478
  827MOL0     C14026   6.408   8.299   3.764  1.0646 -0.3499  0.2952
  827MOL0     C14027   6.281   8.223   3.736 -0.1888  0.1146  0.7283
  827MOL0     C14028   6.320   8.096   3.652  0.3579  0.5006 -0.9084
  827MOL0     C14029   6.201   8.038   3.569 -0.0058 -0.5409 -0.6461
  827MOL0     C14030   6.178   8.129   3.445 -0.8887 -0.6696  0.2780
  827MOL0     C14031   6.059   8.109   3.363  0.4606 -0.7326 -0.2514
  827MOL0     C14032   6.046   7.970   3.285  0.4120  0.0712 -0.6004
  827MOL0    Cl14033   6.185   7.917   3.197  0.0420 -0.4502 -0.3257
  827MOL0     C14034   6.447   8.601   4.075 -0.4583  0.3281  1.0458
  827MOL0     C14035   6.461   8.725   4.136 -0.0022  0.1234 -0.2419
  827MOL0     O14036   6.755   9.027   4.064  0.6454 -0.8311  0.6520
  827MOL0     C14037   6.584   9.141   4.357 -0.2681  0.1225  0.0012
  827MOL0     C14038   6.593   9.239   4.463 -0.2503 -0.0084  0.3278
  827MOL0     N14039   6.676   9.695   5.016  1.3278 -0.7131 -0.2650
  827MOL0     N14040   6.738   9.707   5.124 -0.0875 -0.9223 -0.5835
  827MOL0     C14041   7.561   9.966   6.003  0.6150 -0.6349  0.4857
  827MOL0     C14042   7.637  10.057   6.081  0.2109  0.1054 -0.1232
  827MOL0     C14043   7.892  10.367   6.222  0.1672  0.5029  1.3572
  827MOL0     C14044   7.841  10.492   6.181 -0.7826  0.6988 -0.3422
  827MOL0     C14045   7.866  10.605   6.273  0.2618  0.7224 -0.5897
  827MOL0     C14046   7.953  10.595   6.376  0.2326  0.4249 -0.1546
  827MOL0     O14047   7.979  10.710   6.444  0.1154  0.0391 -0.2572
  827MOL0     C14048   8.001  10.705   6.586 -0.5299  0.2335 -0.7641
  827MOL0     C14049   7.958  10.836   6.630  0.0697  1.1824 -0.0951
  827MOL0     C14050   8.051  10.944   6.596 -0.0007  0.8840 -1.7704
  827MOL0     C14051   7.971  11.065   6.606  0.1677 -0.6085  0.4315
  827MOL0     C14052   8.082  11.174   6.631  0.2876 -0.0669  0.9910
  827MOL0     C14053   8.168  11.267   6.636 -0.3464 -0.0377 -0.5032
  827MOL0     C14054   8.020  10.472   6.401 -1.0768  0.3660  0.1332
  827MOL0     C14055   7.982  10.352   6.327  0.2484  0.0099  0.3239
  827MOL0     C14056   8.061  10.234   6.363  0.4760  0.3490 -0.1810
  827MOL0     H14057   7.928   9.876   6.106 -1.4483  0.5312  1.6115
  827MOL0     H14058   7.825   9.746   5.969 -2.6650 -2.5617  3.3088
  827MOL0     H14059   7.552   9.813   5.685  1.0332 -1.0506 -0.3944
  827MOL0     H14060   7.409   9.861   5.787 -1.4995 -2.5779  2.7690
  827MOL0     H14061   7.470   9.584   5.656  0.6022 -0.1618  1.4193
  827MOL0     H14062   7.387   9.592   5.808  2.0233  0.1663  0.2885
  827MOL0     H14063   7.210   9.730   5.717 -0.5622  0.4519 -0.2419
  827MOL0     H14064   7.305   9.766   5.571 -2.5586  0.0470 -0.2321
  827MOL0     H14065   7.305   9.526   5.513 -0.6352 -2.0400  1.1777
  827MOL0     H14066   7.190   9.490   5.641  1.2186 -2.6211 -1.5112
  827MOL0     H14067   7.155   9.706   5.435 -1.2560  1.1792  0.9496
  827MOL0     H14068   7.024   9.637   5.532  0.4544  1.0983  1.8279
  827MOL0     H14069   7.167   9.492   5.304 -0.5100 -1.0281 -1.2497
  827MOL0     H14070   7.046   9.420   5.440  1.8143  1.1932  2.3145
  827MOL0     H14071   6.876   9.572   5.355 -1.1056 -1.3184 -1.6500
  827MOL0     H14072   6.919   9.456   5.241 -1.0408 -1.7048  2.7936
  827MOL0     H14073   7.000   9.747   5.247  1.3202  0.1092  0.3747
  827MOL0     H14074   7.068   9.627   5.128 -1.1598 -2.7078  0.1625
  827MOL0     H14075   6.956   9.574   4.908  0.4846  1.8815 -1.5260
  827MOL0     H14076   6.696   9.494   4.776 -0.2369 -1.0128 -0.0843
  827MOL0     H14077   6.830   9.602   4.721  0.1532 -1.8764 -0.1578
  827MOL0     H14078   6.526   9.688   4.773 -0.6134  0.2105  0.8704
  827MOL0     H14079   6.659   9.799   4.742  0.5065  0.3793  0.6382
  827MOL0     H14080   6.501   9.749   4.558 -0.2081 -0.4851 -0.6464
  827MOL0     H14081   6.652   9.694   4.494  2.4817 -1.7428  1.2414
  827MOL0     H14082   6.460   9.499   4.601  0.9477 -4.8037 -0.8686
  827MOL0     H14083   6.488   9.556   4.433  0.3373  1.8252 -0.8099
  827MOL0     H14084   6.754   9.479   4.294  0.5730 -0.0954 -1.8181
  827MOL0     H14085   6.821   9.428   4.101 -2.2564  0.0556 -0.2502
  827MOL0     H14086   6.771   9.294   4.005 -4.1190  0.8387  0.4948
  827MOL0     H14087   6.923   9.288   4.116  0.4948  1.6654 -3.0685
  827MOL0     H14088   6.710   8.846   3.935 -2.5831  1.9562 -0.0234
  827MOL0     H14089   6.677   8.627   3.826 -0.3851 -0.2147  0.2368
  827MOL0     H14090   6.348   8.325   3.960 -2.5298 -0.3816 -1.5222
  827MOL0     H14091   6.331   8.466   3.863 -2.3369 -1.8827  1.4826
  827MOL0     H14092   6.442   8.353   3.675  1.2297  0.0173  0.5765
  827MOL0     H14093   6.482   8.221   3.783  0.5979 -0.1769  3.4050
  827MOL0     H14094   6.209   8.288   3.685 -0.3311  0.6166  1.5591
  827MOL0     H14095   6.234   8.191   3.829 -0.1383  0.5507  0.9063
  827MOL0     H14096   6.351   8.019   3.722  0.0095  0.6284 -0.6106
  827MOL0     H14097   6.409   8.105   3.589  2.1569 -1.0151  1.2719
  827MOL0     H14098   6.232   7.939   3.533  2.0469 -1.0464  2.1660
  827MOL0     H14099   6.118   8.023   3.639  1.7031  1.1830  1.9120
  827MOL0     H14100   6.269   8.118   3.386 -1.0449 -0.5806  0.0190
  827MOL0     H14101   6.169   8.234   3.474  1.0227 -0.9471  2.1056
  827MOL0     H14102   6.053   8.195   3.295 -2.2440  1.3203  2.3064
  827MOL0     H14103   5.970   8.127   3.423  0.1029 -1.5089 -0.5362
  827MOL0     H14104   5.956   7.969   3.222  0.3408 -1.2799 -0.5147
  827MOL0     H14105   6.025   7.896   3.363  0.5581  2.0151  1.3820
  827MOL0     H14106   6.370   8.538   4.118 -0.0904  0.6660  2.2229
  827MOL0     H14107   6.398   8.754   4.220  1.2374 -0.8867  1.0915
  827MOL0     H14108   6.517   9.059   4.379  1.6287 -1.1524  1.3746
  827MOL0     H14109   6.558   9.233   4.566  1.9585  2.2639  1.3049
  827MOL0     H14110   7.466  10.014   5.980  1.5511  1.6266  1.1010
  827MOL0     H14111   7.597  10.152   6.115  1.2341  1.1475 -1.7169
  827MOL0     H14112   7.799  10.514   6.083  1.8533 -0.2699 -1.8065
  827MOL0     H14113   7.812  10.700   6.265 -2.8957 -0.7438  1.1564
  827MOL0     H14114   7.936  10.633   6.638 -4.9207  3.1583 -1.6736
  827MOL0     H14115   8.105  10.678   6.606 -0.3998  0.3198 -1.2966
  827MOL0     H14116   7.955  10.840   6.739  0.4274  2.1127 -0.1068
  827MOL0     H14117   7.855  10.844   6.595 -0.0637 -0.6134 -0.1753
  827MOL0     H14118   8.130  10.941   6.672 -1.6551  1.3909  0.0421
  827MOL0     H14119   8.093  10.938   6.495  0.9184  1.1135 -1.4177
  827MOL0     H14120   7.897  11.059   6.687 -1.4227  2.8744 -0.5803
  827MOL0     H14121   7.920  11.081   6.511 -0.9381  0.0465  1.1209
  827MOL0     H14122   8.246  11.328   6.677  0.0155 -2.8706  3.6383
  827MOL0     H14123   8.091  10.459   6.482 -2.4282 -0.2780  1.2639
  827MOL0     H14124   8.101  10.245   6.464  5.7935 -2.6371 -1.6052
  827MOL0     H14125   8.011  10.138   6.344  3.0501 -1.0101 -0.5593
  827MOL0     H14126   8.151  10.225   6.302 -0.8431 -1.1819 -2.0176
  828MOL0     O14127  10.828   8.062  10.388 -0.2724 -0.3100  0.4652
  828MOL0     C14128  10.846   8.107  10.497 -0.1668 -0.7198 -1.0240
  828MOL0     O14129  10.901   8.038  10.601 -0.3380  0.2351 -0.0498
  828MOL0     C14130  10.900   7.897  10.599 -0.7893 -0.3175  0.5566
  828MOL0     C14131  10.994   7.831  10.682 -1.1034  0.0584  0.0149
  828MOL0     C14132  11.008   7.695  10.700  0.6556  0.6250 -0.1851
  828MOL0     C14133  10.923   7.611  10.624 -0.0725 -0.1106 -0.0815
  828MOL0     O14134  10.957   7.476  10.640  0.6446  0.4004  0.8153
  828MOL0     C14135  10.961   7.398  10.518 -0.4337  1.0873  0.2156
  828MOL0     C14136  11.041   7.266  10.558 -0.2934 -0.5187 -0.2369
  828MOL0     C14137  11.017   7.167  10.450 -0.1127 -0.1136  0.8578
  828MOL0     C14138  11.102   7.041  10.459 -0.1658 -0.6240 -0.1402
  828MOL0     C14139  11.079   6.960  10.591  0.0672 -0.7851 -0.1556
  828MOL0     C14140  10.942   6.893  10.586 -0.3730 -0.8861 -0.6148
  828MOL0     C14141  10.895   6.819  10.723  0.0280 -0.8152  0.8479
  828MOL0     C14142  10.978   6.705  10.768 -0.6956  0.8197  0.1145
  828MOL0     N14143  10.954   6.575  10.710  0.1798 -0.7384 -0.3750
  828MOL0     C14144  11.031   6.516  10.614  0.0166  0.9111 -0.3485
  828MOL0     C14145  10.983   6.387  10.610 -0.6976 -0.6007 -0.5385
  828MOL0     C14146  11.031   6.292  10.498  0.6384  0.1738  0.1079
  828MOL0     C14147  11.105   6.168  10.548 -0.0991 -0.1875  0.2559
  828MOL0     C14148  11.208   6.207  10.653 -0.8991  0.4940 -0.9164
  828MOL0     C14149  11.308   6.093  10.675  0.4711 -0.8073  0.5169
  828MOL0     O14150  11.415   6.148  10.753  0.5442 -0.4946 -0.5508
  828MOL0     C14151  11.526   6.204  10.682  0.0739 -0.2032 -0.5449
  828MOL0     C14152  11.638   6.232  10.754 -0.2455 -0.8768 -0.7258
  828MOL0     C14153  11.754   6.303  10.703  0.2520  0.2855  0.4248
  828MOL0     C14154  11.872   6.322  10.799  0.2597 -0.1242  0.2473
  828MOL0     C14155  11.751   6.342  10.566  0.6882 -0.2571 -0.4186
  828MOL0     C14156  11.860   6.422  10.497  0.5548  1.9556  0.9632
  828MOL0     O14157  11.980   6.419  10.554  0.2683  0.5243 -0.8113
  828MOL0     C14158  12.089   6.477  10.496  0.0172  0.0604  0.0246
  828MOL0     C14159  12.214   6.407  10.486  0.4614 -1.1740  0.0471
  828MOL0     C14160  12.330   6.457  10.427  0.2251 -0.7280  0.1284
  828MOL0     C14161  12.316   6.580  10.358  0.0178  0.3728  0.2600
  828MOL0     O14162  12.421   6.623  10.285  0.7579  0.3969 -0.4747
  828MOL0     C14163  12.534   6.658  10.373 -0.5401 -0.1908  0.4963
  828MOL0     C14164  12.614   6.760  10.298  1.0301  0.6234 -0.4498
  828MOL0     C14165  12.668   6.711  10.165 -0.3255  0.2395  0.3795
  828MOL0     C14166  12.761   6.824  10.113 -0.2370  0.6103 -0.3542
  828MOL0     C14167  12.818   6.809   9.968  0.3671  0.1157  0.2947
  828MOL0     C14168  12.711   6.845   9.865  0.6618 -0.8173 -0.4589
  828MOL0     C14169  12.756   6.828   9.719  0.9616  1.1622 -0.6006
  828MOL0     C14170  12.901   6.862   9.683 -0.3360 -0.0287  0.1781
  828MOL0    Cl14171  12.940   7.035   9.717 -0.0923 -0.2398 -0.0867
  828MOL0     C14172  12.196   6.650  10.372  0.0215 -0.2910  0.3592
  828MOL0     C14173  12.089   6.605  10.447  0.4373  0.0799 -0.1457
  828MOL0     O14174  11.835   6.474  10.386 -0.2211 -0.2115 -0.0692
  828MOL0     C14175  11.631   6.317  10.493  0.3053 -0.3746 -0.6523
  828MOL0     C14176  11.527   6.256  10.553  0.5829 -0.1992 -1.0621
  828MOL0     N14177  10.881   6.376  10.697  0.4310 -0.9474 -0.7522
  828MOL0     N14178  10.866   6.490  10.758 -0.4757  0.7192  0.2022
  828MOL0     C14179  10.825   7.673  10.537 -0.2142  0.2870 -0.3376
  828MOL0     C14180  10.816   7.813  10.525 -1.0042 -0.4535  0.5286
  828MOL0     C14181  10.822   8.251  10.524  0.2721 -0.0967  0.2063
  828MOL0     C14182  10.887   8.306  10.632  0.4606 -0.6104 -0.6691
  828MOL0     C14183  10.865   8.443  10.658  0.1305 -0.0375  0.4667
  828MOL0     C14184  10.776   8.519  10.590  0.2231  0.0525  1.1809
  828MOL0     O14185  10.745   8.653  10.606 -0.0197 -0.9214  0.1478
  828MOL0     C14186  10.840   8.728  10.688  0.0159  0.1854 -0.2481
  828MOL0     C14187  10.814   8.883  10.656 -0.1740  0.1506 -0.2194
  828MOL0     C14188  10.923   8.979  10.710 -0.0734  0.0286 -0.8304
  828MOL0     C14189  10.906   9.016  10.862 -0.6284 -0.6760  0.0907
  828MOL0     C14190  10.805   9.119  10.875  0.4244 -0.1038 -0.5173
  828MOL0     C14191  10.732   9.214  10.872  0.7743  0.3295 -0.4767
  828MOL0     C14192  10.712   8.464  10.480  0.6160 -0.4556  0.6310
  828MOL0     C14193  10.730   8.329  10.449  0.4560  0.1574 -0.1044
  828MOL0     C14194  10.642   8.267  10.338 -0.0997  0.4496  0.6137
  828MOL0     H14195  11.059   7.894  10.742 -0.9968  0.4993 -0.5532
  828MOL0     H14196  11.081   7.645  10.764 -0.1860 -0.7399 -0.2615
  828MOL0     H14197  11.020   7.444  10.438  1.5787 -0.3433  0.8230
  828MOL0     H14198  10.860   7.380  10.479  0.3675  0.6635 -1.7891
  828MOL0     H14199  11.145   7.286  10.583 -0.7207  1.0905  0.3664
  828MOL0     H14200  10.994   7.228  10.649 -3.4008 -1.4252 -2.0659
  828MOL0     H14201  10.911   7.142  10.437 -0.9104  2.7636  1.0100
  828MOL0     H14202  11.044   7.213  10.355  0.6451 -4.7564 -1.4606
  828MOL0     H14203  11.087   6.981  10.369 -2.4368  0.5671 -0.6180
  828MOL0     H14204  11.206   7.075  10.466 -1.3291  3.1503  1.6120
  828MOL0     H14205  11.081   7.030  10.674 -2.0125 -1.2180  0.2981
  828MOL0     H14206  11.160   6.885  10.593  1.8779  0.9610 -2.0718
  828MOL0     H14207  10.861   6.963  10.563  0.1134 -1.1267 -3.3699
  828MOL0     H14208  10.951   6.824  10.502  0.0193 -0.5382 -0.8653
  828MOL0     H14209  10.791   6.789  10.707 -0.3254  1.5501 -2.7747
  828MOL0     H14210  10.885   6.894  10.801 -0.7465  1.1876 -1.0488
  828MOL0     H14211  11.082   6.736  10.760 -0.7087  1.2221  1.3145
  828MOL0     H14212  10.960   6.687  10.875 -0.3606 -2.8827 -0.3095
  828MOL0     H14213  11.114   6.557  10.558  0.2746  0.1757 -0.5147
  828MOL0     H14214  11.099   6.349  10.434  1.5655 -0.8678  0.1339
  828MOL0     H14215  10.953   6.244  10.437 -0.3862  0.7891  0.9067
  828MOL0     H14216  11.017   6.111  10.579  0.5324 -0.9788  0.6127
  828MOL0     H14217  11.148   6.113  10.465 -0.6589  0.7542 -0.6833
  828MOL0     H14218  11.258   6.303  10.640  1.4480 -0.1979  1.8752
  828MOL0     H14219  11.153   6.227  10.746  0.1290  3.8377 -0.9030
  828MOL0     H14220  11.253   6.014  10.727  2.7058 -1.3942  2.1202
  828MOL0     H14221  11.346   6.034  10.592  0.4648 -1.3257  0.8809
  828MOL0     H14222  11.631   6.214  10.861 -0.1071  2.4447 -0.0288
  828MOL0     H14223  11.904   6.427  10.803  0.2803 -0.1589  2.3468
  828MOL0     H14224  11.955   6.259  10.766  0.0212  0.9784 -2.8126
  828MOL0     H14225  11.838   6.296  10.900  1.1872 -0.3958  0.4993
  828MOL0     H14226  12.218   6.304  10.520 -0.7564 -1.0550  0.6024
  828MOL0     H14227  12.428   6.413  10.414  0.1379 -0.5965 -1.1065
  828MOL0     H14228  12.503   6.685  10.474 -0.8759  1.0783  0.0705
  828MOL0     H14229  12.589   6.567  10.398 -1.2782 -0.6039  0.6329
  828MOL0     H14230  12.539   6.836  10.272  2.8160  2.5118 -0.3446
  828MOL0     H14231  12.695   6.796  10.363 -0.2564  1.3228  0.8269
  828MOL0     H14232  12.589   6.715  10.089 -2.2712  2.7189  2.3405
  828MOL0     H14233  12.716   6.613  10.168 -1.5131 -0.3655  0.0344
  828MOL0     H14234  12.852   6.818  10.175 -0.4402 -0.3184 -0.1292
  828MOL0     H14235  12.707   6.918  10.122 -0.5901  0.4906 -1.1606
  828MOL0     H14236  12.903   6.876   9.956  0.7776 -0.6060 -1.0473
  828MOL0     H14237  12.867   6.712   9.955  2.1332  0.6244  2.5265
  828MOL0     H14238  12.673   6.947   9.877  2.1238 -0.4885  2.1309
  828MOL0     H14239  12.623   6.781   9.874 -0.9848  1.2536 -0.9027
  828MOL0     H14240  12.685   6.880   9.653  0.2975  0.4213 -0.4722
  828MOL0     H14241  12.735   6.728   9.683  0.3705  2.5191 -4.4935
  828MOL0     H14242  12.917   6.855   9.575  1.6456 -3.3603  0.5642
  828MOL0     H14243  12.971   6.802   9.742 -2.8155 -3.7342 -0.3146
  828MOL0     H14244  12.188   6.750  10.330 -2.6588 -0.1167  1.0993
  828MOL0     H14245  12.006   6.669  10.478 -0.0087 -0.4297 -0.2763
  828MOL0     H14246  11.620   6.347  10.389 -0.6537 -1.4549 -0.8853
  828MOL0     H14247  11.440   6.249  10.489 -1.7575 -4.5842  2.0693
  828MOL0     H14248  10.755   7.611  10.482 -2.3018  0.9929  1.3756
  828MOL0     H14249  10.740   7.850  10.458 -0.3386 -0.3059 -0.1572
  828MOL0     H14250  10.946   8.254  10.705  0.5745  1.4272  0.7760
  828MOL0     H14251  10.918   8.492  10.740 -4.0906  0.3997  3.2509
  828MOL0     H14252  10.818   8.701  10.791  0.2526 -0.5607 -0.3854
  828MOL0     H14253  10.944   8.704  10.661  0.0177  0.6091 -0.6257
  828MOL0     H14254  10.713   8.907  10.692 -0.2980 -0.2937 -0.2722
  828MOL0     H14255  10.816   8.900  10.548  0.0894  3.2065  0.1598
  828MOL0     H14256  11.023   8.937  10.694  0.9069  2.5603 -1.8521
  828MOL0     H14257  10.927   9.066  10.644  1.7690 -1.0338 -2.2200
  828MOL0     H14258  11.001   9.044  10.908 -1.9627  2.2553  1.3656
  828MOL0     H14259  10.869   8.927  10.914 -1.1940 -1.0744 -0.9700
  828MOL0     H14260  10.647   9.276  10.857  0.9099  0.4994 -0.5466
  828MOL0     H14261  10.646   8.523  10.417  1.7849  1.7187  1.3340
  828MOL0     H14262  10.696   8.203  10.267 -1.0557 -0.4538  0.6872
  828MOL0     H14263  10.561   8.209  10.383 -0.8514  0.4306 -0.7310
  828MOL0     H14264  10.597   8.347  10.279 -1.9378 -0.7491  0.2999
  829MOL0     O14265   3.929   4.286   9.465 -0.9653 -0.0929  0.6706
  829MOL0     C14266   3.988   4.361   9.396 -0.7364 -0.3835  0.2869
  829MOL0     O14267   4.103   4.333   9.331 -0.2306  0.2916  0.1995
  829MOL0     C14268   4.142   4.194   9.312  0.1381 -1.0261 -1.2319
  829MOL0     C14269   4.275   4.144   9.324 -0.4850  0.5723  0.5284
  829MOL0     C14270   4.302   4.015   9.296 -0.3247 -1.1643  0.0407
  829MOL0     C14271   4.200   3.923   9.257  0.8973  0.2618 -0.8201
  829MOL0     O14272   4.231   3.795   9.210 -0.1964 -0.2712  0.0950
  829MOL0     C14273   4.132   3.697   9.175  0.1274 -0.5130 -0.2143
  829MOL0     C14274   4.184   3.552   9.147  1.1741  1.3782 -0.8579
  829MOL0     C14275   4.268   3.487   9.258  0.1303 -0.2736 -1.0270
  829MOL0     C14276   4.196   3.446   9.381  1.1008 -0.6760  0.0705
  829MOL0     C14277   4.278   3.396   9.488  0.0568 -0.1580 -0.2190
  829MOL0     C14278   4.192   3.342   9.597  0.5765 -0.1776  0.0730
  829MOL0     C14279   4.271   3.289   9.716  0.2070  0.8015 -0.2471
  829MOL0     C14280   4.309   3.400   9.825  0.2791 -0.7198 -0.4819
  829MOL0     N14281   4.213   3.406   9.944 -0.2176  0.6629  0.0703
  829MOL0     C14282   4.083   3.460   9.952 -0.9119 -0.3907 -0.5473
  829MOL0     C14283   4.069   3.489  10.085 -1.0796  0.6306 -0.1175
  829MOL0     C14284   3.947   3.537  10.143  0.1049 -0.2902  0.1663
  829MOL0     C14285   3.875   3.432  10.220 -0.8983  0.4021  0.4332
  829MOL0     C14286   3.895   3.439  10.368 -0.2067  0.1965 -0.3615
  829MOL0     C14287   3.791   3.372  10.447  0.8898 -0.5923  0.1177
  829MOL0     O14288   3.835   3.342  10.582  0.6159 -0.2155 -0.1183
  829MOL0     C14289   3.793   3.238  10.655 -0.9152  1.1386 -0.4038
  829MOL0     C14290   3.682   3.156  10.639  1.3683 -0.4069 -1.0707
  829MOL0     C14291   3.652   3.050  10.715  0.2757  0.1096 -0.1320
  829MOL0     C14292   3.548   2.966  10.660  0.0535  0.0081  0.0868
  829MOL0     C14293   3.720   3.031  10.843  1.2036 -1.0064  0.0476
  829MOL0     C14294   3.689   2.927  10.945 -0.4318 -0.2020  0.1945
  829MOL0     O14295   3.730   2.954  11.078 -0.1065 -0.2062 -0.1931
  829MOL0     C14296   3.756   2.848  11.168 -0.7058 -0.5176 -0.2322
  829MOL0     C14297   3.833   2.732  11.135  1.0030 -0.3353  0.0919
  829MOL0     C14298   3.887   2.647  11.232 -0.0210  0.4849 -0.1117
  829MOL0     C14299   3.845   2.671  11.362  0.5214  0.3944  0.2072
  829MOL0     O14300   3.888   2.582  11.455 -0.0678  0.0516  0.3930
  829MOL0     C14301   3.905   2.634  11.588  0.1584 -0.1532  0.6515
  829MOL0     C14302   3.968   2.529  11.678 -0.2446  0.4313  0.8052
  829MOL0     C14303   4.003   2.569  11.819  0.5908  0.3271  0.0183
  829MOL0     C14304   4.088   2.461  11.893  0.4531 -0.3134  0.2277
  829MOL0     C14305   4.235   2.486  11.841  0.2843 -0.1127 -1.5542
  829MOL0     C14306   4.332   2.413  11.921 -0.8756  0.3119 -0.5023
  829MOL0     C14307   4.478   2.466  11.920  0.7139  0.0388 -0.2470
  829MOL0     C14308   4.545   2.383  11.801 -0.2879  0.7084 -0.0640
  829MOL0    Cl14309   4.574   2.222  11.858 -0.0208  0.2805 -0.1556
  829MOL0     C14310   3.750   2.767  11.394  0.6427  0.1787 -0.4912
  829MOL0     C14311   3.717   2.862  11.299 -0.1220 -0.8218  1.3408
  829MOL0     O14312   3.657   2.817  10.907  0.4707  0.0394  0.1092
  829MOL0     C14313   3.829   3.113  10.859  0.5689 -0.1678 -0.0358
  829MOL0     C14314   3.867   3.213  10.768 -0.4529 -0.2060 -0.3866
  829MOL0     N14315   4.184   3.469  10.154  0.0096  0.2194 -0.3596
  829MOL0     N14316   4.267   3.415  10.069 -0.2242  0.0119 -0.2021
  829MOL0     C14317   4.068   3.970   9.243 -0.5090 -0.9256  0.0784
  829MOL0     C14318   4.040   4.109   9.268  0.6470 -0.1338  0.4570
  829MOL0     C14319   3.947   4.504   9.382  0.1960 -0.3363  0.4867
  829MOL0     C14320   4.026   4.585   9.301 -0.3080 -0.5026 -1.3254
  829MOL0     C14321   3.994   4.722   9.284 -0.8410 -0.3138  0.1688
  829MOL0     C14322   3.872   4.771   9.335  0.6669 -0.5468 -0.2436
  829MOL0     O14323   3.842   4.906   9.327 -0.0029 -0.1714 -0.3716
  829MOL0     C14324   3.928   4.988   9.242  0.2631 -0.2317  0.9861
  829MOL0     C14325   4.038   5.066   9.324  0.2256  0.0782  0.9909
  829MOL0     C14326   3.969   5.127   9.450 -0.3302  0.6219  0.4750
  829MOL0     C14327   4.040   5.232   9.523  0.2956 -1.0798  1.2034
  829MOL0     C14328   4.051   5.227   9.672 -0.5504 -1.1118  1.3220
  829MOL0     C14329   4.043   5.212   9.789 -0.3070 -0.5350  0.1005
  829MOL0     C14330   3.790   4.683   9.404 -0.7212 -0.2153 -0.3639
  829MOL0     C14331   3.820   4.553   9.425  0.0858 -0.7259  0.0928
  829MOL0     C14332   3.718   4.473   9.501  0.5915  0.1241 -0.1968
  829MOL0     H14333   4.349   4.222   9.337 -0.1704  0.7392 -1.7461
  829MOL0     H14334   4.405   3.981   9.287 -0.4062 -1.2454 -0.6411
  829MOL0     H14335   4.088   3.726   9.079  3.0477  0.5755 -1.3237
  829MOL0     H14336   4.051   3.681   9.247 -0.4621 -0.8013 -0.9264
  829MOL0     H14337   4.097   3.487   9.135 -0.1574  1.9920  3.5222
  829MOL0     H14338   4.236   3.548   9.051  1.0132  2.5518 -1.0124
  829MOL0     H14339   4.319   3.400   9.215  1.0026  0.7258 -2.1055
  829MOL0     H14340   4.348   3.555   9.289  0.5997 -1.2450 -0.0480
  829MOL0     H14341   4.131   3.525   9.419  0.0767 -0.5244 -1.8749
  829MOL0     H14342   4.128   3.365   9.354 -0.2444  0.9907 -1.8308
  829MOL0     H14343   4.338   3.474   9.535 -2.3774  0.7070  1.6219
  829MOL0     H14344   4.351   3.327   9.445  2.7279  2.5370 -0.3451
  829MOL0     H14345   4.125   3.419   9.636 -0.8409 -1.1013 -0.4778
  829MOL0     H14346   4.126   3.267   9.554  1.8948 -0.8977 -0.7703
  829MOL0     H14347   4.355   3.230   9.679 -1.2544  0.1318 -2.7358
  829MOL0     H14348   4.218   3.204   9.759  2.5676 -0.4141  0.4127
  829MOL0     H14349   4.401   3.370   9.875 -0.2528  0.2820  1.2109
  829MOL0     H14350   4.309   3.500   9.780  0.1200 -1.1311 -1.4273
  829MOL0     H14351   4.012   3.481   9.872 -2.9219 -1.0494  0.9925
  829MOL0     H14352   3.880   3.564  10.061 -1.7060 -2.3311  0.8479
  829MOL0     H14353   3.972   3.625  10.202  1.9760  0.2812 -1.3967
  829MOL0     H14354   3.767   3.439  10.205 -1.2236 -3.0377  0.4058
  829MOL0     H14355   3.908   3.336  10.180  1.8931  1.5567 -0.2699
  829MOL0     H14356   3.988   3.391  10.400  1.1947  2.0694 -1.4029
  829MOL0     H14357   3.905   3.545  10.395 -1.8615  1.0988 -2.8403
  829MOL0     H14358   3.704   3.437  10.455  0.7087 -0.7854 -0.2499
  829MOL0     H14359   3.753   3.279  10.405 -2.8839 -1.5519  4.8008
  829MOL0     H14360   3.619   3.179  10.554  2.1673  2.2225 -1.0729
  829MOL0     H14361   3.481   2.948  10.744  1.0716  3.2804  1.7891
  829MOL0     H14362   3.586   2.872  10.620 -0.2755 -0.1664  0.1803
  829MOL0     H14363   3.494   3.022  10.583 -3.7379  2.0319  3.8587
  829MOL0     H14364   3.847   2.704  11.031 -0.7893 -2.5582  0.3783
  829MOL0     H14365   3.945   2.556  11.225 -0.4912 -0.0539  2.1013
  829MOL0     H14366   3.961   2.727  11.575 -0.6372  0.0549 -1.9787
  829MOL0     H14367   3.811   2.660  11.638  2.2960  0.1352  5.0232
  829MOL0     H14368   3.908   2.438  11.682 -2.4009  1.5430 -2.4368
  829MOL0     H14369   4.058   2.507  11.619  0.0645  0.7656  1.1517
  829MOL0     H14370   3.906   2.591  11.863 -0.4151 -1.0511 -1.4155
  829MOL0     H14371   4.055   2.664  11.806  1.0993 -0.2728 -3.4016
  829MOL0     H14372   4.051   2.363  11.863 -2.5370  0.2980  1.5318
  829MOL0     H14373   4.072   2.476  12.000 -2.6255  1.6197 -0.4024
  829MOL0     H14374   4.239   2.456  11.736 -4.1024 -0.9694 -1.6960
  829MOL0     H14375   4.249   2.594  11.849  1.2880 -0.3311 -0.1751
  829MOL0     H14376   4.329   2.313  11.878 -2.1924  0.4481 -0.7625
  829MOL0     H14377   4.303   2.418  12.026 -0.5779 -1.5371 -0.2974
  829MOL0     H14378   4.531   2.454  12.015 -0.7451  0.4543  0.6539
  829MOL0     H14379   4.466   2.572  11.893  0.8416  0.0312 -0.3364
  829MOL0     H14380   4.644   2.426  11.784  0.7206 -1.2699  0.4768
  829MOL0     H14381   4.502   2.386  11.700  0.7981  3.1174 -0.5143
  829MOL0     H14382   3.724   2.774  11.499  2.4749  0.0419 -0.0121
  829MOL0     H14383   3.657   2.952  11.313  0.3635  0.0811 -1.6962
  829MOL0     H14384   3.860   3.113  10.963 -0.4768  2.4051  0.3607
  829MOL0     H14385   3.951   3.281  10.782 -1.2782  0.4654  1.7621
  829MOL0     H14386   3.989   3.917   9.190 -1.3103  0.5865 -0.3059
  829MOL0     H14387   3.940   4.148   9.257  0.1141 -0.9166  2.0905
  829MOL0     H14388   4.124   4.554   9.266 -0.1034  0.3313 -1.5046
  829MOL0     H14389   4.064   4.782   9.227 -2.9196  3.4015  1.2435
  829MOL0     H14390   3.979   4.938   9.159  0.1238  0.2838  0.5920
  829MOL0     H14391   3.861   5.059   9.194  1.7186 -0.1447 -1.0553
  829MOL0     H14392   4.084   5.140   9.258 -0.7548  0.2698  0.4900
  829MOL0     H14393   4.110   4.990   9.356  1.7085  0.4375 -1.2734
  829MOL0     H14394   3.876   5.167   9.409  0.2006 -0.3519 -1.8542
  829MOL0     H14395   3.955   5.046   9.522  2.5475 -1.0007 -0.6046
  829MOL0     H14396   3.991   5.323   9.487  1.0126 -1.1566 -0.0308
  829MOL0     H14397   4.143   5.249   9.490  0.2470 -0.6965  1.2403
  829MOL0     H14398   4.023   5.186   9.891  2.3012  0.9011  1.0941
  829MOL0     H14399   3.693   4.719   9.438  0.6543  1.1450  2.4276
  829MOL0     H14400   3.700   4.385   9.438  2.7745 -0.1455 -0.5515
  829MOL0     H14401   3.749   4.429   9.597 -1.7205  0.3735  0.7162
  829MOL0     H14402   3.629   4.533   9.520  1.4639  2.4486 -2.7000
  830MOL0     O14403   3.623   4.514   0.845 -0.2675  0.3961 -0.4883
  830MOL0     C14404   3.677   4.623   0.835  0.5191  0.7027  0.8030
  830MOL0     O14405   3.806   4.648   0.796 -0.3579 -0.6206  0.5001
  830MOL0     C14406   3.902   4.557   0.764  0.2949 -0.9189  0.8602
  830MOL0     C14407   3.894   4.416   0.774  0.1757  0.4429  0.2280
  830MOL0     C14408   4.005   4.326   0.763  0.9018 -0.2139 -0.0663
  830MOL0     C14409   4.130   4.387   0.747 -0.7623 -0.8522 -0.5018
  830MOL0     O14410   4.254   4.322   0.730 -0.2508 -0.1330  0.0525
  830MOL0     C14411   4.274   4.180   0.755 -0.8691  0.8797  0.0861
  830MOL0     C14412   4.419   4.149   0.780 -0.5764 -0.6622  0.8474
  830MOL0     C14413   4.507   4.164   0.659  0.2972 -0.1482 -0.1448
  830MOL0     C14414   4.660   4.177   0.694  0.1355  0.6972 -0.1263
  830MOL0     C14415   4.744   4.170   0.564  0.2517 -0.6283 -0.4032
  830MOL0     C14416   4.744   4.298   0.480  0.0341 -0.7556  0.1658
  830MOL0     C14417   4.701   4.281   0.337 -0.4233 -0.0309 -0.6001
  830MOL0     C14418   4.550   4.242   0.336 -0.2238  0.2710  0.2763
  830MOL0     N14419   4.494   4.267   0.204  0.2013 -0.1978 -0.1737
  830MOL0     C14420   4.549   4.221   0.085 -0.4224 -0.2536  0.4175
  830MOL0     C14421   4.517   4.311  -0.008 -0.1095  0.3408  0.4670
  830MOL0     C14422   4.534   4.307  -0.155 -0.1980  0.4022  0.0516
  830MOL0     C14423   4.673   4.291  -0.196 -1.1509 -0.1946  0.8371
  830MOL0     C14424   4.754   4.417  -0.176  0.8842 -0.1862 -0.7391
  830MOL0     C14425   4.827   4.426  -0.039  0.1877 -0.0579  1.0727
  830MOL0     O14426   4.915   4.306  -0.026  0.0274  0.7470 -0.0737
  830MOL0     C14427   4.985   4.289   0.099 -0.0087 -0.4168 -0.3860
  830MOL0     C14428   5.015   4.394   0.194 -1.0660 -0.0848  0.1421
  830MOL0     C14429   5.095   4.371   0.308  0.1851  0.0238  0.5664
  830MOL0     C14430   5.102   4.486   0.401  0.2737 -0.5869  0.8962
  830MOL0     C14431   5.124   4.242   0.340 -0.8749  0.9786 -0.1495
  830MOL0     C14432   5.173   4.202   0.470  0.3372 -0.0514  0.0018
  830MOL0     O14433   5.287   4.131   0.463 -0.2411 -0.1610 -0.4390
  830MOL0     C14434   5.364   4.095   0.577  1.5696 -0.7041  0.3589
  830MOL0     C14435   5.365   4.163   0.703  0.1964  0.3659  1.0652
  830MOL0     C14436   5.478   4.133   0.784  0.7575  0.0942 -0.4030
  830MOL0     C14437   5.574   4.040   0.750 -0.4451  0.2205 -0.7909
  830MOL0     O14438   5.675   4.020   0.836  0.2876  0.1098  0.7015
  830MOL0     C14439   5.634   3.930   0.942  0.1859 -0.0565 -0.3958
  830MOL0     C14440   5.754   3.887   1.030 -0.1918  0.4485 -0.5357
  830MOL0     C14441   5.824   3.991   1.125  0.2645  1.0942  0.2510
  830MOL0     C14442   5.719   4.085   1.179 -0.3206 -0.1783  0.5548
  830MOL0     C14443   5.782   4.175   1.286 -0.8748  0.1588  0.1286
  830MOL0     C14444   5.891   4.275   1.234 -0.3681 -0.0702  0.3635
  830MOL0     C14445   5.921   4.385   1.337 -0.5012 -0.6399 -0.6849
  830MOL0     C14446   6.045   4.460   1.273 -0.0848 -0.2283  0.9747
  830MOL0    Cl14447   6.089   4.587   1.396 -0.6213 -0.0690  0.2114
  830MOL0     C14448   5.556   3.971   0.637  0.4226 -0.0602  0.4495
  830MOL0     C14449   5.441   3.987   0.555  0.0304  0.1885  0.3385
  830MOL0     O14450   5.108   4.232   0.567  1.0003  0.2390 -0.6684
  830MOL0     C14451   5.092   4.137   0.247  0.0911 -0.6300  0.0720
  830MOL0     C14452   5.028   4.165   0.124  0.3481 -0.4073  0.0362
  830MOL0     N14453   4.438   4.404   0.052 -0.1046  0.4241  0.5388
  830MOL0     N14454   4.426   4.381   0.174  0.3358  0.2051 -0.3344
  830MOL0     C14455   4.134   4.525   0.719  0.1651  0.0055 -0.8883
  830MOL0     C14456   4.027   4.613   0.739  0.1526 -0.3114 -0.1935
  830MOL0     C14457   3.587   4.743   0.846  1.0486 -0.2640 -0.1007
  830MOL0     C14458   3.622   4.857   0.769 -0.2349 -0.0023 -0.0334
  830MOL0     C14459   3.545   4.971   0.770 -0.2396 -0.8452 -0.9672
  830MOL0     C14460   3.427   4.981   0.845  0.5345 -0.0131  0.2885
  830MOL0     O14461   3.341   5.087   0.845 -0.1639  0.0394  0.0717
  830MOL0     C14462   3.230   5.104   0.932 -0.5301 -0.6019  0.3879
  830MOL0     C14463   3.093   5.061   0.884  0.9225 -0.8541  0.2299
  830MOL0     C14464   3.054   5.116   0.749 -1.1832 -0.0937  0.7543
  830MOL0     C14465   3.027   5.266   0.750  0.2584 -0.3063  0.6103
  830MOL0     C14466   2.901   5.284   0.821  0.1478  0.1309  0.3241
  830MOL0     C14467   2.802   5.304   0.891  0.9239  0.0608  0.2262
  830MOL0     C14468   3.392   4.865   0.919 -0.2133  0.5170  0.2676
  830MOL0     C14469   3.472   4.745   0.924  0.5740  0.4960  0.1271
  830MOL0     C14470   3.419   4.633   1.015  0.2433 -0.1249  0.4956
  830MOL0     H14471   3.800   4.368   0.798  0.4128  0.7232  1.8591
  830MOL0     H14472   3.990   4.219   0.774  1.3226 -0.4862 -1.8267
  830MOL0     H14473   4.243   4.128   0.663 -2.2565  1.2770  0.2995
  830MOL0     H14474   4.217   4.136   0.837 -1.7576  2.0230  0.1042
  830MOL0     H14475   4.442   4.219   0.860  3.1137  1.9347 -2.1272
  830MOL0     H14476   4.427   4.042   0.805  0.5170 -0.2451  2.3960
  830MOL0     H14477   4.501   4.072   0.600  1.5265  1.6978 -3.4015
  830MOL0     H14478   4.471   4.251   0.604 -1.2133 -0.1105  0.8668
  830MOL0     H14479   4.684   4.257   0.765  1.4243  0.7596 -0.6083
  830MOL0     H14480   4.701   4.083   0.732  0.5249  1.6961  2.1094
  830MOL0     H14481   4.724   4.081   0.503 -2.5390  0.6608 -1.5146
  830MOL0     H14482   4.849   4.158   0.591  0.3315  0.8335 -0.0001
  830MOL0     H14483   4.686   4.378   0.527 -2.3354 -2.2793 -0.0284
  830MOL0     H14484   4.847   4.337   0.481 -0.6477  1.1276  0.6584
  830MOL0     H14485   4.769   4.213   0.285  1.3918  1.6738 -0.6183
  830MOL0     H14486   4.718   4.378   0.288 -1.4816  0.1920 -0.5365
  830MOL0     H14487   4.536   4.139   0.370 -1.0162 -0.2817 -1.5844
  830MOL0     H14488   4.490   4.299   0.407 -2.4521 -1.8992  0.2596
  830MOL0     H14489   4.611   4.132   0.074 -2.0798 -1.3536 -0.3350
  830MOL0     H14490   4.485   4.395  -0.196 -1.3218 -0.5137 -0.6311
  830MOL0     H14491   4.471   4.224  -0.189 -0.9524  1.6886 -1.8595
  830MOL0     H14492   4.721   4.206  -0.146 -2.4110 -0.6504  1.3063
  830MOL0     H14493   4.668   4.259  -0.301 -4.8794 -1.9032  1.4058
  830MOL0     H14494   4.836   4.410  -0.248 -1.1448 -0.6127 -3.1299
  830MOL0     H14495   4.696   4.507  -0.194 -0.7719 -1.0618  0.0002
  830MOL0     H14496   4.870   4.526  -0.044 -2.5697  1.1676 -0.2892
  830MOL0     H14497   4.742   4.435   0.029  0.5033 -0.9973  1.6124
  830MOL0     H14498   4.969   4.488   0.165 -3.3015 -1.0731  0.2764
  830MOL0     H14499   5.146   4.572   0.352  4.2966 -2.5957  0.5568
  830MOL0     H14500   5.152   4.459   0.495  0.6021 -0.5258  0.7366
  830MOL0     H14501   4.997   4.505   0.427 -0.0005 -1.6699  0.6737
  830MOL0     H14502   5.302   4.245   0.736 -0.0748  0.1469  1.0956
  830MOL0     H14503   5.481   4.189   0.877  1.1988 -1.2929  0.4507
  830MOL0     H14504   5.553   3.978   0.999  0.4810 -0.0071 -0.0125
  830MOL0     H14505   5.593   3.833   0.913 -0.7698 -0.1954  1.2457
  830MOL0     H14506   5.716   3.818   1.106  1.6952  1.0819  1.0629
  830MOL0     H14507   5.826   3.829   0.970  0.2420  0.7396 -0.3017
  830MOL0     H14508   5.912   4.030   1.072 -0.0951  0.2935 -0.9749
  830MOL0     H14509   5.861   3.929   1.207 -0.1941 -2.0783 -1.7264
  830MOL0     H14510   5.634   4.030   1.220 -3.1901  2.4156 -1.5154
  830MOL0     H14511   5.665   4.145   1.105 -1.5342 -4.4705 -2.4025
  830MOL0     H14512   5.707   4.229   1.345 -0.7710 -0.0058  0.4101
  830MOL0     H14513   5.836   4.108   1.353 -0.3764 -1.5591 -1.8780
  830MOL0     H14514   5.842   4.323   1.149  0.5925  1.1560  0.4639
  830MOL0     H14515   5.982   4.224   1.201 -1.4057 -0.7769 -1.5995
  830MOL0     H14516   5.943   4.341   1.435 -0.5982 -0.4052 -0.5576
  830MOL0     H14517   5.840   4.457   1.347 -0.6843 -0.8963 -0.2920
  830MOL0     H14518   6.028   4.516   1.180 -0.7320  0.0486  1.2623
  830MOL0     H14519   6.125   4.388   1.251 -2.7494 -2.9808 -0.5238
  830MOL0     H14520   5.637   3.900   0.624  0.0691 -0.4033  0.1337
  830MOL0     H14521   5.421   3.927   0.467 -0.6185  0.2861  0.4207
  830MOL0     H14522   5.134   4.041   0.273  3.6130  0.5927 -0.5614
  830MOL0     H14523   5.016   4.089   0.048 -2.5703 -0.0833  0.0339
  830MOL0     H14524   4.230   4.575   0.710  2.3390 -3.3564  1.3477
  830MOL0     H14525   4.051   4.719   0.738  0.8999 -0.4727 -1.4596
  830MOL0     H14526   3.708   4.856   0.702  0.2098 -2.4905  0.4389
  830MOL0     H14527   3.570   5.054   0.704 -1.9007 -0.8774 -1.6765
  830MOL0     H14528   3.240   5.073   1.036 -1.8327 -1.1104  0.3851
  830MOL0     H14529   3.209   5.211   0.945  1.2582  0.0505 -1.4704
  830MOL0     H14530   3.022   5.084   0.964  1.0327 -0.2096  0.1509
  830MOL0     H14531   3.096   4.952   0.883 -2.8300 -1.1112 -2.0950
  830MOL0     H14532   3.123   5.088   0.668 -1.0735 -1.8796  1.4209
  830MOL0     H14533   2.971   5.059   0.706 -1.1805 -1.0471  1.9460
  830MOL0     H14534   3.023   5.310   0.650  2.4294 -3.4661 -1.0352
  830MOL0     H14535   3.113   5.319   0.791  0.9180  0.4283 -1.6043
  830MOL0     H14536   2.709   5.338   0.933  0.0318  0.1458 -1.6955
  830MOL0     H14537   3.302   4.852   0.979 -2.3735  0.1505 -2.8220
  830MOL0     H14538   3.393   4.535   0.973  2.1068 -0.8822  1.0037
  830MOL0     H14539   3.482   4.601   1.098  0.2922 -1.8760 -0.1643
  830MOL0     H14540   3.335   4.682   1.065 -0.2085  3.4523 -3.2628
  831MOL0     O14541   3.070   3.463   3.388  0.4100  0.1636  0.2636
  831MOL0     C14542   2.983   3.472   3.306 -0.1664  0.3700 -0.5916
  831MOL0     O14543   2.999   3.484   3.171  0.4183 -0.6085  0.1945
  831MOL0     C14544   3.116   3.502   3.101 -0.4672  0.6933 -0.3220
  831MOL0     C14545   3.124   3.442   2.973  0.1571 -0.0304  0.9988
  831MOL0     C14546   3.242   3.458   2.892 -0.1403 -0.0308  0.6787
  831MOL0     C14547   3.352   3.529   2.942  0.0793  0.4971 -0.6737
  831MOL0     O14548   3.440   3.577   2.842  0.2074 -0.2251 -0.2721
  831MOL0     C14549   3.575   3.618   2.870 -0.1652 -0.1265  0.2563
  831MOL0     C14550   3.669   3.611   2.750 -0.6942  0.3759  0.2935
  831MOL0     C14551   3.685   3.459   2.708 -0.0770 -0.1405 -0.0033
  831MOL0     C14552   3.785   3.442   2.597 -0.1526 -0.2281  0.6062
  831MOL0     C14553   3.934   3.447   2.631 -0.3627  0.8313  0.0396
  831MOL0     C14554   4.025   3.518   2.528  0.0354  0.1273  0.7905
  831MOL0     C14555   4.165   3.561   2.574 -0.8034  0.5743 -0.2940
  831MOL0     C14556   4.260   3.442   2.568 -0.5224  0.1853 -0.2432
  831MOL0     N14557   4.393   3.490   2.592 -0.7510  0.0449 -1.4926
  831MOL0     C14558   4.442   3.531   2.715 -0.4097  0.4685  0.2884
  831MOL0     C14559   4.578   3.551   2.691 -0.2678  0.0400 -0.4883
  831MOL0     C14560   4.667   3.611   2.798  0.0893  0.1151  0.5130
  831MOL0     C14561   4.817   3.579   2.778 -0.1179  0.7948 -1.0890
  831MOL0     C14562   4.882   3.664   2.666 -0.3233 -0.5726 -0.3817
  831MOL0     C14563   5.015   3.603   2.630 -0.8476 -0.5589  0.5426
  831MOL0     O14564   5.112   3.603   2.744 -0.1556 -0.0527  0.2758
  831MOL0     C14565   5.248   3.598   2.718 -0.2658  0.5991 -0.0737
  831MOL0     C14566   5.295   3.546   2.601  0.0162  0.4037 -0.4356
  831MOL0     C14567   5.431   3.525   2.571  0.5145 -0.4824  0.0507
  831MOL0     C14568   5.455   3.454   2.439  0.0872 -0.1738  0.9182
  831MOL0     C14569   5.527   3.568   2.675 -0.0394  0.1909  0.8785
  831MOL0     C14570   5.673   3.552   2.654 -0.1343  0.2302 -0.0429
  831MOL0     O14571   5.758   3.574   2.760 -0.2413 -0.4440  0.6778
  831MOL0     C14572   5.888   3.529   2.744 -0.4050 -0.3521  0.5600
  831MOL0     C14573   5.989   3.625   2.701 -0.1469  0.4956  1.2299
  831MOL0     C14574   6.118   3.576   2.678 -1.1182  0.1985  0.4023
  831MOL0     C14575   6.152   3.442   2.712  0.8359  0.3121  0.3853
  831MOL0     O14576   6.279   3.386   2.697  0.0964  0.6608  0.3055
  831MOL0     C14577   6.383   3.489   2.713 -0.7906  0.7734  0.3369
  831MOL0     C14578   6.519   3.412   2.755 -0.4061 -0.3489  0.0986
  831MOL0     C14579   6.571   3.321   2.637  0.5170  0.4122  0.2018
  831MOL0     C14580   6.721   3.328   2.646  0.5183  0.0503  0.1975
  831MOL0     C14581   6.798   3.245   2.536  0.1339  0.1243 -0.1020
  831MOL0     C14582   6.952   3.264   2.560 -0.5337  0.5739  0.4333
  831MOL0     C14583   7.037   3.215   2.445 -0.1740 -0.2276 -1.0071
  831MOL0     C14584   7.174   3.194   2.513  0.1442 -0.2924  0.2878
  831MOL0    Cl14585   7.281   3.172   2.376 -0.1065  0.3716 -0.0476
  831MOL0     C14586   6.047   3.354   2.758 -0.8054 -0.3381  1.0223
  831MOL0     C14587   5.918   3.394   2.774 -0.1311 -0.3869  0.5577
  831MOL0     O14588   5.711   3.522   2.541  0.3376 -0.0540 -0.0590
  831MOL0     C14589   5.481   3.625   2.792  0.4468  0.0096  0.2201
  831MOL0     C14590   5.342   3.641   2.811  0.5380 -0.2435 -1.7044
  831MOL0     N14591   4.602   3.511   2.560  0.1249  0.2418 -0.5034
  831MOL0     N14592   4.490   3.481   2.501  0.2269 -0.8483  0.0828
  831MOL0     C14593   3.348   3.564   3.076 -0.2351 -0.7914  0.5865
  831MOL0     C14594   3.235   3.556   3.150 -0.4936  0.4616 -0.5910
  831MOL0     C14595   2.832   3.458   3.342  0.1270 -0.4980 -0.7607
  831MOL0     C14596   2.733   3.535   3.280 -0.6645  0.2123 -0.2803
  831MOL0     C14597   2.601   3.524   3.299  0.6100 -0.1126  0.2421
  831MOL0     C14598   2.553   3.426   3.392  0.2019  0.2684 -0.0931
  831MOL0     O14599   2.425   3.399   3.408 -0.1422  0.1942  0.6561
  831MOL0     C14600   2.316   3.486   3.364  0.1561 -0.5119  0.3170
  831MOL0     C14601   2.284   3.455   3.218  0.0937 -0.0834  0.5125
  831MOL0     C14602   2.213   3.324   3.186 -0.5870  0.2949 -0.2300
  831MOL0     C14603   2.302   3.200   3.216  0.3519 -0.7127  0.0783
  831MOL0     C14604   2.420   3.196   3.137  0.2306 -0.5924  0.3003
  831MOL0     C14605   2.526   3.183   3.086 -0.0591  0.1213  0.0442
  831MOL0     C14606   2.648   3.361   3.463  0.9270  0.7066 -0.4453
  831MOL0     C14607   2.782   3.370   3.441 -0.4324 -0.6959 -0.1209
  831MOL0     C14608   2.870   3.265   3.515  0.2821 -0.5470 -0.4761
  831MOL0     H14609   3.037   3.396   2.928  0.0345 -1.1148  2.2913
  831MOL0     H14610   3.240   3.420   2.790 -2.9772 -2.5537  1.5200
  831MOL0     H14611   3.600   3.544   2.947 -1.8286 -0.0562  0.9137
  831MOL0     H14612   3.570   3.721   2.909 -2.9158  0.3329 -1.0707
  831MOL0     H14613   3.625   3.665   2.665  0.2412  0.7387  0.0227
  831MOL0     H14614   3.763   3.660   2.778 -0.5281 -0.6773  1.6489
  831MOL0     H14615   3.706   3.407   2.801 -0.6267  0.7965  0.6636
  831MOL0     H14616   3.587   3.418   2.682  0.0367 -0.0273 -0.6436
  831MOL0     H14617   3.776   3.342   2.553 -1.8331 -1.0539  2.6523
  831MOL0     H14618   3.758   3.511   2.517 -4.2656 -2.0757  0.1356
  831MOL0     H14619   3.977   3.349   2.656 -0.0305  0.2184 -2.6555
  831MOL0     H14620   3.936   3.498   2.728 -0.4947 -1.3599  1.2703
  831MOL0     H14621   4.026   3.449   2.443 -1.9572  0.7842  0.1735
  831MOL0     H14622   3.963   3.606   2.511  1.4848  0.4816 -4.1484
  831MOL0     H14623   4.152   3.591   2.678 -2.1049  4.1315 -1.3400
  831MOL0     H14624   4.203   3.640   2.508 -0.3066 -0.9245 -1.8911
  831MOL0     H14625   4.233   3.371   2.646 -0.2539  2.1126  1.7150
  831MOL0     H14626   4.261   3.402   2.467 -0.1072  2.5190 -1.2362
  831MOL0     H14627   4.389   3.536   2.809 -1.6433 -0.3399 -0.3496
  831MOL0     H14628   4.641   3.558   2.890 -0.5734  2.8001  1.9823
  831MOL0     H14629   4.644   3.717   2.810 -2.9783 -0.5824  1.7893
  831MOL0     H14630   4.866   3.596   2.874 -1.2863 -1.4565 -0.0251
  831MOL0     H14631   4.835   3.476   2.747 -1.7615  1.0320 -3.0431
  831MOL0     H14632   4.820   3.667   2.576 -2.1292 -0.5201  0.8172
  831MOL0     H14633   4.880   3.766   2.706  1.4882  0.2782 -2.2346
  831MOL0     H14634   4.995   3.504   2.589  0.1137  0.6398 -3.2311
  831MOL0     H14635   5.051   3.661   2.545 -1.1206 -0.2243  0.6556
  831MOL0     H14636   5.217   3.500   2.540 -0.3110 -0.4276  0.5859
  831MOL0     H14637   5.499   3.527   2.370  1.5308 -0.7992  1.1531
  831MOL0     H14638   5.364   3.409   2.399  1.3961 -1.1987 -1.0002
  831MOL0     H14639   5.534   3.381   2.455 -0.5714 -1.2198 -0.4563
  831MOL0     H14640   5.965   3.731   2.690 -2.1518 -0.2238 -3.8782
  831MOL0     H14641   6.194   3.643   2.639 -0.5302 -2.1388 -2.9876
  831MOL0     H14642   6.390   3.539   2.616  2.0781 -0.8996 -0.4322
  831MOL0     H14643   6.358   3.558   2.794  0.4560  1.9483 -0.2557
  831MOL0     H14644   6.593   3.488   2.783 -0.1472 -0.4623 -0.2621
  831MOL0     H14645   6.515   3.346   2.843  3.1418 -0.0160  0.6521
  831MOL0     H14646   6.536   3.365   2.543  1.7162  0.3834 -0.2780
  831MOL0     H14647   6.547   3.216   2.653  4.9868 -0.3726  3.6891
  831MOL0     H14648   6.744   3.299   2.749 -0.5883 -3.4309 -0.4095
  831MOL0     H14649   6.759   3.430   2.641 -2.9755  1.6344  1.9039
  831MOL0     H14650   6.771   3.139   2.543 -4.0852  0.9353 -1.4486
  831MOL0     H14651   6.773   3.280   2.435  0.8194 -2.0426 -1.0832
  831MOL0     H14652   6.973   3.206   2.651 -1.1233 -0.0027  0.2020
  831MOL0     H14653   6.968   3.371   2.580 -0.4458  0.6691 -0.1352
  831MOL0     H14654   7.050   3.289   2.365  0.4739 -0.7626 -1.4087
  831MOL0     H14655   6.999   3.125   2.395  1.2199 -1.7497  0.5588
  831MOL0     H14656   7.174   3.107   2.579 -0.4956  0.2175  0.9853
  831MOL0     H14657   7.201   3.284   2.569 -1.9458  1.9125 -1.9867
  831MOL0     H14658   6.078   3.252   2.776 -0.9498 -0.4707  0.5175
  831MOL0     H14659   5.842   3.323   2.801  1.7968 -2.1102  1.7027
  831MOL0     H14660   5.546   3.646   2.876  0.2801  0.2215  0.2982
  831MOL0     H14661   5.307   3.688   2.903  0.7111 -0.5096 -1.5016
  831MOL0     H14662   3.424   3.624   3.125 -2.6629  4.5586 -1.3943
  831MOL0     H14663   3.238   3.592   3.253 -2.2316 -2.2197  0.5030
  831MOL0     H14664   2.773   3.589   3.195  1.9109  0.7755  1.1713
  831MOL0     H14665   2.535   3.590   3.244  0.3402  0.7234  1.5416
  831MOL0     H14666   2.226   3.474   3.426  2.4602 -2.1823  3.6124
  831MOL0     H14667   2.340   3.592   3.371 -1.6061 -0.0448 -0.1061
  831MOL0     H14668   2.371   3.470   3.153  0.2139  0.1884  0.7297
  831MOL0     H14669   2.215   3.536   3.192  0.0554 -0.2837 -0.0160
  831MOL0     H14670   2.128   3.329   3.254 -0.6091 -0.7731 -0.1620
  831MOL0     H14671   2.181   3.315   3.081 -0.0680  0.0105 -0.3715
  831MOL0     H14672   2.238   3.115   3.190 -1.0083  0.0778  0.7504
  831MOL0     H14673   2.335   3.197   3.320  1.0213 -0.2107 -0.1116
  831MOL0     H14674   2.628   3.177   3.054  0.0540 -1.4033  0.6070
  831MOL0     H14675   2.602   3.277   3.515 -0.6657  0.5057 -2.0689
  831MOL0     H14676   2.934   3.317   3.588 -0.0769 -0.8587  0.0698
  831MOL0     H14677   2.808   3.194   3.570 -0.9297  0.7560 -0.1227
  831MOL0     H14678   2.936   3.213   3.445  0.5364  0.4062 -0.9636
  832MOL0     O14679   0.528   0.336   2.829  0.0895  0.7507 -0.0736
  832MOL0     C14680   0.546   0.231   2.889  0.5143  0.5204 -0.5516
  832MOL0     O14681   0.603   0.224   3.007 -0.3929  0.1784 -0.0274
  832MOL0     C14682   0.622   0.338   3.085  0.6363 -0.7317 -0.3831
  832MOL0     C14683   0.680   0.457   3.037 -0.5743  0.1087 -0.9203
  832MOL0     C14684   0.676   0.579   3.114  0.1339  0.3687  0.3888
  832MOL0     C14685   0.643   0.577   3.249 -0.3584  1.4833  0.9495
  832MOL0     O14686   0.654   0.681   3.336 -0.1527  0.6973 -0.2636
  832MOL0     C14687   0.535   0.762   3.335  1.6616  0.6080  0.4843
  832MOL0     C14688   0.530   0.887   3.418  0.9301  0.0241  0.8559
  832MOL0     C14689   0.548   0.859   3.568  0.6474 -0.6717  0.7366
  832MOL0     C14690   0.546   0.995   3.639  0.6703 -0.6999 -0.0847
  832MOL0     C14691   0.591   0.983   3.787 -0.0569  0.5011 -0.9406
  832MOL0     C14692   0.562   1.104   3.875  0.2421 -0.0060  0.1247
  832MOL0     C14693   0.629   1.125   4.007 -0.1253 -0.1643 -0.9025
  832MOL0     C14694   0.612   0.996   4.088 -0.6653  0.0592 -0.6187
  832MOL0     N14695   0.694   1.000   4.209 -0.8657 -0.2784  0.2165
  832MOL0     C14696   0.660   1.068   4.321  0.2062 -0.8642 -0.1678
  832MOL0     C14697   0.770   1.063   4.386 -0.1720 -0.5235  0.2805
  832MOL0     C14698   0.791   1.125   4.525  0.3858  0.0893  0.0749
  832MOL0     C14699   0.702   1.055   4.627  0.5715  0.7524  0.0468
  832MOL0     C14700   0.745   0.918   4.658  0.1830  0.7770  0.1762
  832MOL0     C14701   0.647   0.844   4.755  0.0581  0.2350  0.0606
  832MOL0     O14702   0.593   0.918   4.861  0.1357  0.0146  0.2734
  832MOL0     C14703   0.645   0.912   4.985 -0.9450 -0.6258  0.3976
  832MOL0     C14704   0.787   0.912   5.004 -0.8574 -1.2848  0.4747
  832MOL0     C14705   0.843   0.909   5.131 -0.9060  0.5127 -1.2832
  832MOL0     C14706   0.998   0.933   5.118 -0.4880  0.3115 -0.2546
  832MOL0     C14707   0.762   0.890   5.246  0.7530 -0.7903  0.0610
  832MOL0     C14708   0.801   0.867   5.391  0.3007  0.2260  0.0101
  832MOL0     O14709   0.927   0.888   5.421  0.2849  0.6721  0.2250
  832MOL0     C14710   0.966   0.857   5.548 -0.3923 -0.2529  0.0956
  832MOL0     C14711   0.957   0.947   5.653  0.1677  0.1967  0.0492
  832MOL0     C14712   1.016   0.930   5.777 -0.2167 -0.3047 -0.8238
  832MOL0     C14713   1.097   0.811   5.798 -0.3909  1.0723  0.0583
  832MOL0     O14714   1.157   0.791   5.923 -0.2544  0.5278 -0.5188
  832MOL0     C14715   1.225   0.667   5.946  0.1851 -0.6366  0.2068
  832MOL0     C14716   1.239   0.646   6.096 -0.9916  0.0263  0.2036
  832MOL0     C14717   1.288   0.508   6.148 -0.1198  0.4458 -0.6019
  832MOL0     C14718   1.295   0.505   6.299 -0.9890  0.1389 -0.3298
  832MOL0     C14719   1.280   0.360   6.344  0.2791  0.3342 -0.7019
  832MOL0     C14720   1.256   0.365   6.485 -0.1588 -0.1875 -0.5116
  832MOL0     C14721   1.253   0.229   6.551  0.0128 -0.1567  0.8531
  832MOL0     C14722   1.135   0.131   6.509  0.0780  0.3706 -0.5181
  832MOL0    Cl14723   1.177  -0.013   6.621 -0.5424 -0.0269  0.0842
  832MOL0     C14724   1.101   0.713   5.693 -0.1152 -0.7456  0.1379
  832MOL0     C14725   1.041   0.739   5.570  0.3306 -0.9186 -0.6002
  832MOL0     O14726   0.719   0.828   5.474 -0.5863 -0.1582  0.5291
  832MOL0     C14727   0.623   0.888   5.214  0.0720 -0.6768 -1.1324
  832MOL0     C14728   0.565   0.910   5.093 -0.5120  0.4252 -0.0846
  832MOL0     N14729   0.867   0.987   4.318  0.2759  1.1162  0.0868
  832MOL0     N14730   0.816   0.947   4.208  0.8669  0.7735 -0.8442
  832MOL0     C14731   0.583   0.463   3.288  0.0693 -0.3581 -0.7570
  832MOL0     C14732   0.561   0.343   3.211  0.8761  0.1427  0.1757
  832MOL0     C14733   0.517   0.115   2.805  0.0068  0.6414  1.2378
  832MOL0     C14734   0.420   0.122   2.690 -0.0072  0.2900  0.8974
  832MOL0     C14735   0.405   0.011   2.601 -0.6283 -0.1816  0.2472
  832MOL0     C14736   0.471  -0.109   2.635  0.7141  0.2820  0.3499
  832MOL0     O14737   0.441  -0.208   2.543  0.5168  0.5526  0.5975
  832MOL0     C14738   0.553  -0.300   2.525 -0.0446  0.0491  0.5808
  832MOL0     C14739   0.503  -0.385   2.406 -0.6293 -0.5002  0.2156
  832MOL0     C14740   0.504  -0.303   2.274  0.0026  0.1147  0.4261
  832MOL0     C14741   0.648  -0.287   2.212 -0.0916 -0.6737 -0.9136
  832MOL0     C14742   0.686  -0.151   2.169 -0.2186 -0.0255  0.4233
  832MOL0     C14743   0.707  -0.042   2.129  0.0638  0.2550  0.2001
  832MOL0     C14744   0.549  -0.124   2.745 -0.6800 -0.4956 -1.0183
  832MOL0     C14745   0.577  -0.010   2.826  1.1165 -0.2380  0.0869
  832MOL0     C14746   0.691  -0.031   2.930  0.7319  0.2357 -0.5325
  832MOL0     H14747   0.718   0.456   2.936 -0.5668 -0.9174 -0.9168
  832MOL0     H14748   0.709   0.677   3.083  0.7620  0.4089  1.1505
  832MOL0     H14749   0.457   0.695   3.372  2.9562 -0.5208  1.2110
  832MOL0     H14750   0.508   0.796   3.234 -0.7013  3.1188  1.8058
  832MOL0     H14751   0.609   0.955   3.387 -1.4635  2.0573 -1.2686
  832MOL0     H14752   0.434   0.934   3.395  1.2288 -0.0897 -0.7287
  832MOL0     H14753   0.474   0.791   3.611 -1.3821 -0.1594 -1.6782
  832MOL0     H14754   0.646   0.811   3.578  0.9090 -0.6274 -1.2182
  832MOL0     H14755   0.624   1.060   3.599  1.4412 -0.6876  1.3587
  832MOL0     H14756   0.454   1.050   3.620  1.0996 -0.5571 -1.9290
  832MOL0     H14757   0.697   0.959   3.775 -0.3192 -1.9011  0.7498
  832MOL0     H14758   0.538   0.897   3.829 -1.5495  1.2542 -1.2156
  832MOL0     H14759   0.566   1.193   3.812 -2.2562  0.7026  0.8614
  832MOL0     H14760   0.456   1.084   3.895  0.3729 -2.8700 -1.5164
  832MOL0     H14761   0.595   1.218   4.054  1.9016 -0.5276  1.4916
  832MOL0     H14762   0.737   1.141   4.000  0.0380 -0.3473  0.8413
  832MOL0     H14763   0.507   0.979   4.116  0.3925 -1.2640  3.1165
  832MOL0     H14764   0.651   0.908   4.036 -1.7802 -1.5819  1.1662
  832MOL0     H14765   0.570   1.125   4.339  1.2106  0.2394  1.5396
  832MOL0     H14766   0.775   1.234   4.522  2.3400  0.4793  1.8207
  832MOL0     H14767   0.893   1.133   4.564 -0.9444  0.4495  3.8503
  832MOL0     H14768   0.703   1.107   4.724 -1.0651 -2.3772  1.8941
  832MOL0     H14769   0.597   1.047   4.597  0.5136  1.5595 -0.0021
  832MOL0     H14770   0.741   0.856   4.568 -0.5971  0.0061  0.7256
  832MOL0     H14771   0.848   0.910   4.692 -0.0492 -1.2893  0.5160
  832MOL0     H14772   0.562   0.817   4.691  0.3977  1.1330 -0.8109
  832MOL0     H14773   0.691   0.747   4.779 -1.6963 -1.2188 -2.1342
  832MOL0     H14774   0.854   0.922   4.919 -1.6471  0.4361  0.0108
  832MOL0     H14775   1.055   0.852   5.164  0.0741 -0.2231 -1.8040
  832MOL0     H14776   1.020   1.028   5.167  0.1859  2.2642 -3.9457
  832MOL0     H14777   1.039   0.946   5.017 -0.2323 -1.1206 -0.3623
  832MOL0     H14778   0.905   1.039   5.632  0.9926  0.4805 -0.7934
  832MOL0     H14779   1.012   1.007   5.853  0.3932 -1.1172  0.0556
  832MOL0     H14780   1.163   0.585   5.910 -0.6703 -0.6730  1.6769
  832MOL0     H14781   1.321   0.673   5.894 -1.1641  2.2823 -2.2118
  832MOL0     H14782   1.312   0.724   6.123  0.9855 -2.1181  1.3935
  832MOL0     H14783   1.145   0.662   6.150 -1.6401 -2.7578  0.0204
  832MOL0     H14784   1.385   0.490   6.099  0.2611 -0.0213  0.3073
  832MOL0     H14785   1.221   0.435   6.101  1.8001  0.4934 -3.7167
  832MOL0     H14786   1.227   0.573   6.351  2.0226  2.5530  0.7856
  832MOL0     H14787   1.393   0.533   6.339 -1.8905  0.0491  2.0987
  832MOL0     H14788   1.191   0.316   6.297 -0.2213 -0.9662  1.3714
  832MOL0     H14789   1.366   0.299   6.316  1.1281 -0.3032  2.8536
  832MOL0     H14790   1.155   0.401   6.509 -0.8820 -0.8303 -2.3941
  832MOL0     H14791   1.325   0.429   6.541  0.7705 -1.7107  0.1284
  832MOL0     H14792   1.264   0.239   6.659  1.0908 -2.7693  1.0627
  832MOL0     H14793   1.340   0.171   6.520 -0.5371 -1.0112  0.8645
  832MOL0     H14794   1.137   0.101   6.404  0.9435  0.5934 -0.5753
  832MOL0     H14795   1.040   0.177   6.537 -0.2459  1.0485 -2.5272
  832MOL0     H14796   1.153   0.619   5.707 -0.6238 -0.7786  2.0898
  832MOL0     H14797   1.028   0.664   5.493 -0.7151 -2.1586  0.7230
  832MOL0     H14798   0.537   0.879   5.280 -1.0765  2.1128 -2.0981
  832MOL0     H14799   0.457   0.906   5.079 -0.6862  0.3099  1.2330
  832MOL0     H14800   0.541   0.455   3.388 -0.0951 -1.1831 -0.8791
  832MOL0     H14801   0.499   0.260   3.244  2.8239 -1.2082  0.6053
  832MOL0     H14802   0.364   0.213   2.669  0.0335  0.1549  0.1798
  832MOL0     H14803   0.343   0.017   2.511  3.9699 -1.1075 -3.3418
  832MOL0     H14804   0.635  -0.232   2.499 -0.8692  0.4275 -1.1371
  832MOL0     H14805   0.580  -0.357   2.614 -1.2205  0.0801  0.9684
  832MOL0     H14806   0.408  -0.435   2.427 -0.2878 -0.3607  2.3509
  832MOL0     H14807   0.576  -0.466   2.399  0.4625  0.4602  0.1072
  832MOL0     H14808   0.446  -0.355   2.198 -2.2683  3.0614 -0.0151
  832MOL0     H14809   0.455  -0.206   2.283 -1.1713 -0.6298  3.2081
  832MOL0     H14810   0.638  -0.361   2.132 -2.9520 -4.3002  2.3944
  832MOL0     H14811   0.727  -0.326   2.278 -0.4339 -3.1952 -1.8801
  832MOL0     H14812   0.706   0.057   2.090 -1.1196  1.2295  2.5188
  832MOL0     H14813   0.596  -0.220   2.767 -1.6090 -0.5069  1.1446
  832MOL0     H14814   0.757   0.055   2.937  0.5676  0.3032  0.2938
  832MOL0     H14815   0.648  -0.047   3.030  0.5191  1.4961 -0.4015
  832MOL0     H14816   0.734  -0.130   2.915 -3.1255 -1.4752 -1.7030
  833MOL0     O14817   7.877   4.248   9.512 -0.8883  0.0689 -0.2803
  833MOL0     C14818   7.774   4.255   9.450 -0.3660  0.3604 -0.1808
  833MOL0     O14819   7.754   4.221   9.323  0.3367 -0.2951 -0.3375
  833MOL0     C14820   7.860   4.193   9.253 -0.2107 -0.1718  0.9269
  833MOL0     C14821   7.937   4.293   9.185  0.9279 -0.3662 -0.3285
  833MOL0     C14822   8.057   4.254   9.126 -0.1373  0.2502  0.2071
  833MOL0     C14823   8.095   4.122   9.134 -0.7151  0.2068  0.2751
  833MOL0     O14824   8.210   4.090   9.065  0.3659  0.4496  0.0046
  833MOL0     C14825   8.329   4.033   9.128  0.2226 -0.3282 -0.5055
  833MOL0     C14826   8.324   3.881   9.126  0.1389  0.6000  0.3144
  833MOL0     C14827   8.304   3.831   8.982  0.5866  0.0703 -0.2617
  833MOL0     C14828   8.358   3.685   8.959  0.1691  0.6999 -0.1141
  833MOL0     C14829   8.272   3.603   8.856 -0.2054  0.8402 -0.4881
  833MOL0     C14830   8.300   3.628   8.715 -0.0518 -1.0132  0.2218
  833MOL0     C14831   8.175   3.590   8.633  0.2244  0.3297 -0.5327
  833MOL0     C14832   8.156   3.438   8.636  1.0699  0.2860  1.1162
  833MOL0     N14833   8.261   3.347   8.562  0.3907 -0.0445 -0.2909
  833MOL0     C14834   8.355   3.267   8.627 -0.0284  0.2185  0.4748
  833MOL0     C14835   8.421   3.194   8.531  0.3854 -0.2414  0.2986
  833MOL0     C14836   8.521   3.081   8.552  0.1716 -1.3598  0.0885
  833MOL0     C14837   8.662   3.129   8.503 -0.2442  0.4180  0.0041
  833MOL0     C14838   8.769   3.015   8.490 -0.4614 -0.0146 -0.1123
  833MOL0     C14839   8.761   2.921   8.608 -0.4963  0.5053  0.0260
  833MOL0     O14840   8.866   2.823   8.601 -0.3852 -1.3305  0.2083
  833MOL0     C14841   8.990   2.835   8.664  0.4393  0.9519 -0.2301
  833MOL0     C14842   9.081   2.730   8.665 -0.0991 -0.1548  0.1730
  833MOL0     C14843   9.200   2.725   8.738  0.3573 -0.6041 -0.4521
  833MOL0     C14844   9.255   2.592   8.724  0.2348 -0.1092  0.7134
  833MOL0     C14845   9.232   2.827   8.821 -0.6342  0.0775 -0.1440
  833MOL0     C14846   9.330   2.810   8.937  0.2131  0.4223 -0.6101
  833MOL0     O14847   9.342   2.925   9.016  0.4575 -0.1024  0.2054
  833MOL0     C14848   9.390   2.907   9.146 -0.1889  0.6639 -0.3253
  833MOL0     C14849   9.293   2.916   9.248  0.3570  1.0345  0.4421
  833MOL0     C14850   9.334   2.933   9.380 -0.6984 -0.0141  0.0281
  833MOL0     C14851   9.473   2.945   9.407 -0.3600  0.2116 -0.0137
  833MOL0     O14852   9.513   2.987   9.537 -0.1160  0.8041 -0.5584
  833MOL0     C14853   9.646   3.015   9.574  0.3878  0.6963 -0.2912
  833MOL0     C14854   9.648   3.090   9.709 -1.6857 -0.3105 -0.4500
  833MOL0     C14855   9.574   3.219   9.707  0.2102  0.0214  0.5853
  833MOL0     C14856   9.522   3.273   9.841  0.2889  0.1795 -0.2142
  833MOL0     C14857   9.443   3.409   9.844  0.3171  0.9882 -0.0025
  833MOL0     C14858   9.520   3.536   9.803 -0.6042  0.3632 -0.4183
  833MOL0     C14859   9.652   3.574   9.889  0.6554  0.1938 -0.6631
  833MOL0     C14860   9.705   3.709   9.854 -0.9321 -0.8109  0.3042
  833MOL0    Cl14861   9.733   3.722   9.676 -0.1533 -0.0298 -0.1879
  833MOL0     C14862   9.571   2.922   9.305  1.0141 -0.3012  0.9092
  833MOL0     C14863   9.525   2.904   9.177  0.0145 -0.6542 -0.4092
  833MOL0     O14864   9.391   2.703   8.952  0.1052 -0.1988  0.2431
  833MOL0     C14865   9.143   2.946   8.817  0.2477 -0.2829 -0.4305
  833MOL0     C14866   9.028   2.943   8.746  0.2890 -0.3025 -0.3785
  833MOL0     N14867   8.364   3.236   8.408  0.5328  0.0952 -0.1469
  833MOL0     N14868   8.279   3.322   8.427  0.7490  0.1659  0.3056
  833MOL0     C14869   8.021   4.020   9.196 -0.2409 -0.2323  0.0045
  833MOL0     C14870   7.904   4.061   9.250 -0.3797  0.1327 -0.3832
  833MOL0     C14871   7.657   4.307   9.524  0.6114  0.7313  0.1523
  833MOL0     C14872   7.652   4.306   9.666  0.6229 -0.8587  0.6952
  833MOL0     C14873   7.548   4.373   9.738 -0.1164  0.9984 -0.5963
  833MOL0     C14874   7.438   4.410   9.668 -0.3516 -0.2118 -0.9937
  833MOL0     O14875   7.346   4.462   9.760 -0.4943 -0.3690  0.9023
  833MOL0     C14876   7.211   4.457   9.717  0.1105 -0.4668  0.4949
  833MOL0     C14877   7.117   4.440   9.836 -0.6186 -0.9919  0.0945
  833MOL0     C14878   7.181   4.337   9.929  0.9370 -0.3820 -0.8308
  833MOL0     C14879   7.082   4.282  10.039 -0.2830  0.9774 -0.1790
  833MOL0     C14880   7.008   4.382  10.117  0.6212 -0.6474  0.4611
  833MOL0     C14881   6.966   4.469  10.193  0.8974 -0.7958  0.0265
  833MOL0     C14882   7.444   4.430   9.531  0.6544  0.3073  0.4853
  833MOL0     C14883   7.551   4.373   9.456  0.0706 -0.4196 -0.7901
  833MOL0     C14884   7.540   4.394   9.304 -1.1713  1.0839 -0.0337
  833MOL0     H14885   7.912   4.398   9.185 -0.7788 -0.7462  0.2745
  833MOL0     H14886   8.117   4.325   9.071 -0.2308  1.3079  1.4236
  833MOL0     H14887   8.343   4.081   9.225  2.1174  0.7602 -1.2572
  833MOL0     H14888   8.408   4.064   9.058  2.1407 -1.6675  0.9822
  833MOL0     H14889   8.427   3.860   9.158  1.5911  1.0224 -3.4859
  833MOL0     H14890   8.252   3.845   9.200  1.1145  0.1832  1.1001
  833MOL0     H14891   8.197   3.834   8.959  0.8589 -0.3509 -1.7127
  833MOL0     H14892   8.365   3.896   8.919  0.3039  0.3693 -0.2338
  833MOL0     H14893   8.460   3.699   8.925 -0.3246  6.5641 -0.2641
  833MOL0     H14894   8.374   3.634   9.055  0.4755  0.9821 -0.0116
  833MOL0     H14895   8.170   3.631   8.883 -0.2415 -0.2768  0.6163
  833MOL0     H14896   8.289   3.496   8.872 -3.5990 -0.6006 -4.6847
  833MOL0     H14897   8.332   3.732   8.707 -0.4530 -0.9359 -0.4746
  833MOL0     H14898   8.393   3.578   8.686  0.3705 -1.3876  2.0903
  833MOL0     H14899   8.180   3.630   8.532  0.0483 -0.3142 -0.7958
  833MOL0     H14900   8.092   3.637   8.687  0.8022  2.4540 -1.3581
  833MOL0     H14901   8.159   3.408   8.741 -2.0087  0.5120  1.3508
  833MOL0     H14902   8.057   3.414   8.597  1.7282  2.7181 -2.5913
  833MOL0     H14903   8.373   3.267   8.734 -2.0415  1.1067  0.8539
  833MOL0     H14904   8.488   3.002   8.484  0.4296  0.6403 -2.5328
  833MOL0     H14905   8.544   3.050   8.654 -1.8503 -1.9609  0.4013
  833MOL0     H14906   8.639   3.180   8.409  1.0211  3.1830  1.1033
  833MOL0     H14907   8.707   3.212   8.557  0.1317 -1.1736  2.3066
  833MOL0     H14908   8.749   2.962   8.396 -1.3500  0.7375 -0.3500
  833MOL0     H14909   8.865   3.068   8.491  1.5128 -3.2677 -1.0388
  833MOL0     H14910   8.761   2.978   8.702 -3.8343  0.0699  0.4047
  833MOL0     H14911   8.668   2.864   8.606 -0.2645  0.1422 -0.5445
  833MOL0     H14912   9.069   2.652   8.591  1.6337  0.2624 -0.6061
  833MOL0     H14913   9.362   2.574   8.738  1.4918  1.2059 -4.8190
  833MOL0     H14914   9.244   2.552   8.623  1.5208  0.4404  0.3280
  833MOL0     H14915   9.215   2.531   8.805  0.0275 -2.5145 -1.1005
  833MOL0     H14916   9.187   2.932   9.231  0.0823  0.0373  1.1261
  833MOL0     H14917   9.246   2.932   9.444 -0.3331 -1.4424  0.5413
  833MOL0     H14918   9.697   2.921   9.597 -1.1905  0.5031  2.9831
  833MOL0     H14919   9.695   3.076   9.497  0.4884  2.9997  1.5158
  833MOL0     H14920   9.620   3.035   9.799 -1.1245 -0.5050 -0.3881
  833MOL0     H14921   9.756   3.106   9.709 -1.9960  2.2670 -1.3848
  833MOL0     H14922   9.486   3.193   9.646  0.7561  0.2705 -0.3222
  833MOL0     H14923   9.642   3.280   9.648  2.3908 -0.9695  1.9452
  833MOL0     H14924   9.610   3.294   9.902 -0.3426  0.4790  0.6175
  833MOL0     H14925   9.469   3.198   9.901  1.1058 -0.8727 -0.7852
  833MOL0     H14926   9.358   3.405   9.775 -0.0111  2.2383  0.2988
  833MOL0     H14927   9.413   3.421   9.948  1.1356  2.9450  0.0691
  833MOL0     H14928   9.446   3.616   9.811 -2.0871 -1.0911  1.8691
  833MOL0     H14929   9.544   3.544   9.697  0.0649  2.0949 -0.1546
  833MOL0     H14930   9.738   3.507   9.879  2.6772  1.8745  3.3931
  833MOL0     H14931   9.627   3.574   9.995  1.1522  1.2642 -0.5315
  833MOL0     H14932   9.799   3.718   9.908  0.2729 -3.4178 -1.1517
  833MOL0     H14933   9.633   3.788   9.878 -1.0240 -0.3181 -1.4673
  833MOL0     H14934   9.677   2.917   9.325  1.0246 -2.2495  0.5360
  833MOL0     H14935   9.591   2.887   9.093 -2.4338 -0.7449 -2.4330
  833MOL0     H14936   9.161   3.015   8.900  0.7913 -2.9122  1.7848
  833MOL0     H14937   8.974   3.035   8.764 -0.4576 -0.8690  0.3658
  833MOL0     H14938   8.055   3.917   9.202  2.2965  0.3277 -2.4486
  833MOL0     H14939   7.851   3.981   9.301 -0.6802  0.3877 -0.2919
  833MOL0     H14940   7.735   4.258   9.718 -0.1583 -0.2086  2.6410
  833MOL0     H14941   7.552   4.382   9.846  0.4613  1.3002 -0.6409
  833MOL0     H14942   7.186   4.547   9.661  0.7230 -1.5123 -1.5591
  833MOL0     H14943   7.203   4.366   9.658  0.1682 -0.8288  1.0365
  833MOL0     H14944   7.019   4.413   9.797 -0.6086 -1.6582  0.5178
  833MOL0     H14945   7.126   4.531   9.896  3.0634 -1.3953  0.3813
  833MOL0     H14946   7.199   4.250   9.865 -0.1486 -1.8234  0.7375
  833MOL0     H14947   7.279   4.371   9.964  0.5397  1.5622 -1.5005
  833MOL0     H14948   7.144   4.238  10.117  0.8987  1.4712 -0.8112
  833MOL0     H14949   7.011   4.206  10.006  2.8361 -3.1197  1.6036
  833MOL0     H14950   6.933   4.543  10.263 -1.5611  1.2405 -3.0281
  833MOL0     H14951   7.365   4.480   9.475 -0.5474 -2.7274 -0.7149
  833MOL0     H14952   7.527   4.304   9.244 -2.3504  2.6636 -2.3326
  833MOL0     H14953   7.454   4.456   9.277 -0.3983  1.0541 -2.8183
  833MOL0     H14954   7.630   4.439   9.263  0.8215 -1.8671  0.7867
  834MOL0     O14955   7.479   7.217   2.459 -0.0481  0.5835 -0.2227
  834MOL0     C14956   7.529   7.117   2.410 -0.8187 -0.0675  0.2255
  834MOL0     O14957   7.609   7.128   2.303 -0.2083 -0.0968  0.3667
  834MOL0     C14958   7.673   7.249   2.263 -0.3801  0.9134  0.0705
  834MOL0     C14959   7.717   7.359   2.337 -1.0947  0.5980 -0.5371
  834MOL0     C14960   7.779   7.466   2.279  0.1292  0.0549 -0.1240
  834MOL0     C14961   7.803   7.462   2.142  0.2612  0.7817 -0.3554
  834MOL0     O14962   7.849   7.574   2.091 -0.7512  0.0203  0.0328
  834MOL0     C14963   7.851   7.609   1.952 -0.5721  1.0916 -0.2113
  834MOL0     C14964   7.719   7.634   1.877  0.0390 -0.4080 -0.0803
  834MOL0     C14965   7.723   7.586   1.726 -0.0018  0.6289  0.5143
  834MOL0     C14966   7.588   7.566   1.651  0.1670  0.6531  0.2848
  834MOL0     C14967   7.592   7.608   1.505 -0.4959  0.7310  0.5158
  834MOL0     C14968   7.459   7.581   1.429  0.2644 -1.1119 -0.3484
  834MOL0     C14969   7.468   7.608   1.281  0.4577 -0.2213 -0.3770
  834MOL0     C14970   7.508   7.748   1.247  0.5224  0.4692  0.6875
  834MOL0     N14971   7.502   7.783   1.106 -0.0864 -0.1264  0.1354
  834MOL0     C14972   7.477   7.690   1.000 -0.2803 -0.7372  0.7944
  834MOL0     C14973   7.461   7.770   0.894 -0.1430  0.5729 -0.0389
  834MOL0     C14974   7.407   7.722   0.755 -0.8472 -1.1196  0.3159
  834MOL0     C14975   7.512   7.765   0.656  0.6369 -0.2214  0.1118
  834MOL0     C14976   7.634   7.679   0.655 -0.8495 -0.7696  0.2820
  834MOL0     C14977   7.736   7.726   0.552 -1.1198  0.4922 -0.3773
  834MOL0     O14978   7.676   7.718   0.424 -0.7250 -0.3363  0.9855
  834MOL0     C14979   7.760   7.726   0.319  0.1208  0.9065  0.0795
  834MOL0     C14980   7.738   7.648   0.202  0.4904  0.1510 -1.0966
  834MOL0     C14981   7.822   7.657   0.096 -0.1996 -0.0232 -0.5416
  834MOL0     C14982   7.792   7.576  -0.031  0.2483  0.3665  0.3189
  834MOL0     C14983   7.934   7.747   0.097 -0.4999 -0.0647 -0.7006
  834MOL0     C14984   8.012   7.770  -0.028 -0.0516 -0.5674 -0.2362
  834MOL0     O14985   7.989   7.883  -0.100  0.0390 -0.2314 -0.4517
  834MOL0     C14986   8.026   7.881  -0.232  0.3544  0.7487 -0.4711
  834MOL0     C14987   7.934   7.847  -0.330 -0.7429  0.3008 -0.3824
  834MOL0     C14988   7.958   7.885  -0.466  0.2302  0.1501 -0.4290
  834MOL0     C14989   8.076   7.948  -0.497 -0.6716  0.4290 -0.1812
  834MOL0     O14990   8.085   7.999  -0.628  0.3507  0.2619  0.3832
  834MOL0     C14991   8.158   8.117  -0.649 -0.1956  0.8337  0.5020
  834MOL0     C14992   8.145   8.146  -0.800 -0.1084 -0.3073 -0.1915
  834MOL0     C14993   8.233   8.264  -0.832 -0.2625 -0.3795  0.4268
  834MOL0     C14994   8.212   8.305  -0.981  0.4693 -0.4245 -1.0196
  834MOL0     C14995   8.261   8.453  -1.003 -0.0067  0.5630  0.3967
  834MOL0     C14996   8.231   8.494  -1.156  0.4143  0.0039  0.5647
  834MOL0     C14997   8.324   8.418  -1.249  0.0877  0.9031  0.0563
  834MOL0     C14998   8.348   8.504  -1.376 -0.3227  0.4300  0.1646
  834MOL0    Cl14999   8.196   8.552  -1.449 -0.3478  0.2455 -0.6500
  834MOL0     C15000   8.173   7.966  -0.393 -0.4909 -0.6142  1.5003
  834MOL0     C15001   8.148   7.937  -0.263  0.0048 -0.4880 -1.1071
  834MOL0     O15002   8.097   7.686  -0.057  0.8591 -0.0509 -0.0714
  834MOL0     C15003   7.957   7.817   0.210 -0.2422  0.7946  0.1681
  834MOL0     C15004   7.866   7.813   0.319  0.2905 -0.1349 -0.5378
  834MOL0     N15005   7.474   7.898   0.928 -0.2973 -0.3157  0.1697
  834MOL0     N15006   7.492   7.907   1.052 -0.3997 -0.4182 -0.0476
  834MOL0     C15007   7.769   7.349   2.070 -0.1379 -0.9311 -0.0301
  834MOL0     C15008   7.708   7.238   2.124  0.0190  0.3121  1.2884
  834MOL0     C15009   7.503   6.981   2.463 -0.3058  0.1137 -0.1869
  834MOL0     C15010   7.572   6.884   2.397  0.3982 -0.0014 -0.0826
  834MOL0     C15011   7.559   6.748   2.419 -0.6865  0.4188 -0.3471
  834MOL0     C15012   7.485   6.699   2.530  0.0977  0.7111  0.8550
  834MOL0     O15013   7.469   6.564   2.555 -0.0498  0.0830  0.4770
  834MOL0     C15014   7.344   6.518   2.605  0.6814  0.0191 -0.9815
  834MOL0     C15015   7.341   6.505   2.759  0.1725  0.1595 -0.0371
  834MOL0     C15016   7.443   6.420   2.818 -0.1950  0.2315 -0.3662
  834MOL0     C15017   7.438   6.276   2.759  0.4720 -0.7007  0.2312
  834MOL0     C15018   7.564   6.209   2.799  0.4255  0.0143 -0.0634
  834MOL0     C15019   7.672   6.151   2.813  0.4811  0.0220  0.4408
  834MOL0     C15020   7.415   6.802   2.602  0.4298 -0.5881 -0.2345
  834MOL0     C15021   7.432   6.940   2.577 -0.4568 -0.7742  0.4900
  834MOL0     C15022   7.352   7.031   2.659 -0.5083 -1.5300 -0.5841
  834MOL0     H15023   7.712   7.382   2.443  1.9862  1.3472 -0.4728
  834MOL0     H15024   7.800   7.556   2.336 -3.3918  2.3160 -2.0250
  834MOL0     H15025   7.915   7.537   1.900 -1.0875  0.4061  0.0928
  834MOL0     H15026   7.897   7.708   1.950 -0.2690  0.9435 -0.7602
  834MOL0     H15027   7.632   7.586   1.922 -2.9058  2.1730 -2.5229
  834MOL0     H15028   7.690   7.740   1.879  1.7453  0.1219  3.0344
  834MOL0     H15029   7.793   7.650   1.670  0.7885 -0.6252  0.0362
  834MOL0     H15030   7.775   7.491   1.716 -1.0600 -0.2533  2.8473
  834MOL0     H15031   7.563   7.460   1.638  0.1006  0.8850 -1.7629
  834MOL0     H15032   7.500   7.612   1.697 -2.2401  0.6321 -3.8258
  834MOL0     H15033   7.677   7.558   1.458 -0.7680  0.6582  0.0883
  834MOL0     H15034   7.613   7.715   1.497  0.6193  0.4875  0.0338
  834MOL0     H15035   7.424   7.480   1.453 -1.5219  0.1732  3.2992
  834MOL0     H15036   7.388   7.658   1.461  2.7305  1.7580 -1.2782
  834MOL0     H15037   7.364   7.601   1.247  0.6030  0.8354 -1.0960
  834MOL0     H15038   7.530   7.528   1.239 -0.7506 -0.5308 -1.6466
  834MOL0     H15039   7.453   7.821   1.307  0.3577 -0.2292  1.3918
  834MOL0     H15040   7.615   7.759   1.270  0.2294  1.7363  1.5719
  834MOL0     H15041   7.450   7.585   1.001 -1.2706 -0.4994  0.0875
  834MOL0     H15042   7.309   7.763   0.732 -0.4086  0.1267  0.6272
  834MOL0     H15043   7.395   7.613   0.763  3.6192 -1.7956  0.3481
  834MOL0     H15044   7.474   7.740   0.557 -1.7039 -1.0916  1.1354
  834MOL0     H15045   7.532   7.872   0.667  0.5787  0.0023 -1.7517
  834MOL0     H15046   7.678   7.689   0.755 -0.1014  0.5325 -0.1456
  834MOL0     H15047   7.601   7.577   0.634 -1.2785 -0.7272  0.7177
  834MOL0     H15048   7.771   7.824   0.587 -2.2165  0.0596  2.1423
  834MOL0     H15049   7.818   7.655   0.562  0.0202  1.7866 -0.2228
  834MOL0     H15050   7.653   7.581   0.195  1.9993 -1.7743 -2.5356
  834MOL0     H15051   7.885   7.521  -0.047  0.3355  0.1441  1.4896
  834MOL0     H15052   7.787   7.645  -0.116 -3.5768  0.4127  0.4430
  834MOL0     H15053   7.705   7.511  -0.019  1.0202 -0.5457  1.1563
  834MOL0     H15054   7.839   7.799  -0.307 -0.5326  0.0953  0.0847
  834MOL0     H15055   7.880   7.861  -0.538  0.9250  0.0321 -1.1610
  834MOL0     H15056   8.120   8.196  -0.584 -0.6896 -1.1181  2.6937
  834MOL0     H15057   8.265   8.104  -0.630 -0.6749  0.3854  3.3344
  834MOL0     H15058   8.174   8.056  -0.855 -2.8902 -0.3273 -1.8279
  834MOL0     H15059   8.039   8.164  -0.822  0.2557  1.0181 -0.9745
  834MOL0     H15060   8.337   8.248  -0.801 -0.2052  0.3329  0.6186
  834MOL0     H15061   8.205   8.357  -0.780  1.5082  2.3197 -3.0000
  834MOL0     H15062   8.110   8.298  -1.019 -0.5179  1.1509  1.1487
  834MOL0     H15063   8.268   8.235  -1.044 -1.6391 -2.3730 -0.8742
  834MOL0     H15064   8.208   8.517  -0.932  1.6770  4.7117 -1.7839
  834MOL0     H15065   8.367   8.454  -0.974  0.4984  0.2634 -1.3221
  834MOL0     H15066   8.255   8.601  -1.157  1.2088 -0.1389 -1.6005
  834MOL0     H15067   8.126   8.491  -1.187  1.1259  0.9889 -2.2899
  834MOL0     H15068   8.273   8.324  -1.272  0.9948  0.5937 -0.7212
  834MOL0     H15069   8.420   8.397  -1.201  0.0861  0.4622 -0.1361
  834MOL0     H15070   8.402   8.433  -1.438  0.7521  0.5841  0.9097
  834MOL0     H15071   8.410   8.594  -1.367 -0.4339  1.0972 -3.9867
  834MOL0     H15072   8.261   8.026  -0.416 -3.5742  3.9667 -0.0130
  834MOL0     H15073   8.226   7.973  -0.197  0.4677  1.8174 -2.7785
  834MOL0     H15074   8.035   7.892   0.201  1.4020 -0.8502  0.0156
  834MOL0     H15075   7.887   7.884   0.399  0.0950 -0.7364  0.0642
  834MOL0     H15076   7.803   7.341   1.968  1.5796  0.9747  0.3278
  834MOL0     H15077   7.679   7.156   2.059  0.5665 -1.0040  2.6209
  834MOL0     H15078   7.626   6.906   2.306  1.4161 -0.8078  0.3011
  834MOL0     H15079   7.601   6.669   2.358 -0.8433  0.2917 -0.2910
  834MOL0     H15080   7.265   6.582   2.564  0.4420  0.5260  0.2378
  834MOL0     H15081   7.314   6.420   2.567 -1.5499  0.1489  0.2653
  834MOL0     H15082   7.241   6.485   2.799 -0.8400  4.1551 -0.2189
  834MOL0     H15083   7.355   6.603   2.804  0.5229 -0.5369  1.4397
  834MOL0     H15084   7.539   6.467   2.798  0.5339 -1.1138 -0.1378
  834MOL0     H15085   7.423   6.403   2.925  0.6986  0.5626 -0.1381
  834MOL0     H15086   7.452   6.288   2.651 -1.1841 -1.8996 -0.1672
  834MOL0     H15087   7.346   6.217   2.755  0.7594 -1.1356 -0.0445
  834MOL0     H15088   7.765   6.103   2.835  0.2598  0.1873  1.8219
  834MOL0     H15089   7.344   6.784   2.681 -1.6709 -1.5791 -2.2216
  834MOL0     H15090   7.410   7.087   2.734 -1.7100  1.3014 -1.6204
  834MOL0     H15091   7.293   7.097   2.595  0.6062 -1.2708 -1.3703
  834MOL0     H15092   7.286   6.982   2.731  1.4992 -1.8042  1.1901
  835MOL0     O15093   4.589   2.995   7.003 -0.1506  0.2710 -0.0034
  835MOL0     C15094   4.602   3.015   6.883 -0.1138 -0.1150 -0.1003
  835MOL0     O15095   4.641   2.931   6.788  0.4904 -0.4251 -0.0365
  835MOL0     C15096   4.609   2.809   6.812  0.0325  1.2171  0.6756
  835MOL0     C15097   4.707   2.706   6.821  0.2481 -0.5708 -0.1620
  835MOL0     C15098   4.670   2.574   6.797 -0.7012  0.0094 -0.0685
  835MOL0     C15099   4.534   2.541   6.783  0.2035 -0.0437  0.0992
  835MOL0     O15100   4.490   2.414   6.739 -0.1477  0.0667  0.2173
  835MOL0     C15101   4.588   2.325   6.683 -0.4208 -0.1328  0.1354
  835MOL0     C15102   4.523   2.227   6.595 -0.3652  0.3924  0.4170
  835MOL0     C15103   4.414   2.136   6.660  0.1712 -0.0989  0.2340
  835MOL0     C15104   4.435   1.992   6.608 -0.6775 -0.1688  0.3961
  835MOL0     C15105   4.543   1.905   6.666 -0.3175 -0.7252 -0.3704
  835MOL0     C15106   4.563   1.941   6.816 -0.3841  0.2274  0.2170
  835MOL0     C15107   4.667   1.848   6.868 -0.0336 -0.4527 -0.7095
  835MOL0     C15108   4.631   1.839   7.021 -0.2285  0.1256  0.1832
  835MOL0     N15109   4.712   1.759   7.103 -0.0906  0.5729  0.4268
  835MOL0     C15110   4.667   1.698   7.218  0.4013  0.0817  0.7778
  835MOL0     C15111   4.764   1.634   7.267  0.1406 -0.4671 -0.1020
  835MOL0     C15112   4.748   1.570   7.413  0.0610  0.2722  0.9293
  835MOL0     C15113   4.747   1.423   7.380 -0.3606  0.2695  0.1457
  835MOL0     C15114   4.722   1.352   7.514  0.1435  0.7538  0.3046
  835MOL0     C15115   4.572   1.368   7.572 -0.9731  0.4548 -0.0222
  835MOL0     O15116   4.487   1.334   7.460  0.4779  0.4496  0.0678
  835MOL0     C15117   4.370   1.270   7.473  0.3250  0.3274  0.1230
  835MOL0     C15118   4.299   1.236   7.598  0.4893 -0.2762 -0.3263
  835MOL0     C15119   4.172   1.176   7.594  0.6608  0.1352 -0.7334
  835MOL0     C15120   4.123   1.133   7.726 -0.9406 -1.1092  0.0898
  835MOL0     C15121   4.106   1.148   7.477 -0.5213 -0.0271  0.0598
  835MOL0     C15122   3.985   1.069   7.459 -0.3712 -0.2628  0.3292
  835MOL0     O15123   3.883   1.081   7.552 -0.6426  0.0337  0.2988
  835MOL0     C15124   3.756   1.025   7.513 -0.7143  0.6827 -0.4930
  835MOL0     C15125   3.708   0.929   7.599 -0.0708 -0.1530  0.7030
  835MOL0     C15126   3.576   0.876   7.571  0.2584  0.9602 -0.7049
  835MOL0     C15127   3.497   0.902   7.458 -0.2067 -1.0188  0.1798
  835MOL0     O15128   3.385   0.827   7.434  0.5187  0.3043 -1.0504
  835MOL0     C15129   3.400   0.747   7.315  0.0206 -0.1108  0.2115
  835MOL0     C15130   3.282   0.662   7.291  0.0143  0.5263 -0.0191
  835MOL0     C15131   3.169   0.743   7.216  0.7057  1.7572  0.3553
  835MOL0     C15132   3.037   0.658   7.218  0.1752  0.2027 -0.2474
  835MOL0     C15133   2.934   0.719   7.117  0.2940  0.3389  0.0273
  835MOL0     C15134   2.841   0.820   7.183 -0.3019 -0.0608  0.4075
  835MOL0     C15135   2.723   0.865   7.090 -0.4238  0.3204 -0.5798
  835MOL0     C15136   2.631   0.966   7.150  0.4402  0.8943 -0.3093
  835MOL0    Cl15137   2.565   0.929   7.317 -0.0733 -0.3169 -0.5852
  835MOL0     C15138   3.551   1.003   7.377  0.1273  0.5726 -0.5130
  835MOL0     C15139   3.679   1.066   7.404 -0.7176 -0.1179 -0.4970
  835MOL0     O15140   3.971   1.002   7.350  0.8793  0.5642  0.4834
  835MOL0     C15141   4.178   1.178   7.358 -0.3703  0.6076  0.2182
  835MOL0     C15142   4.305   1.236   7.353 -0.1413  0.2063 -1.3202
  835MOL0     N15143   4.874   1.658   7.188 -0.6558 -0.3984 -0.3539
  835MOL0     N15144   4.843   1.721   7.086  0.1522 -0.2135  0.0439
  835MOL0     C15145   4.430   2.637   6.801 -0.3124 -0.2838 -0.0020
  835MOL0     C15146   4.472   2.769   6.815 -0.1810 -0.0302 -0.0142
  835MOL0     C15147   4.569   3.146   6.843 -0.2129 -0.4714  0.4672
  835MOL0     C15148   4.651   3.207   6.748 -0.5503  0.2184  0.9147
  835MOL0     C15149   4.633   3.352   6.716 -0.1185 -1.0594  0.5264
  835MOL0     C15150   4.536   3.426   6.772  0.4897 -0.4130  0.9497
  835MOL0     O15151   4.535   3.560   6.739  0.4923  0.3757 -0.8086
  835MOL0     C15152   4.450   3.643   6.817  0.7353 -0.1280  0.0070
  835MOL0     C15153   4.478   3.792   6.789  0.1727 -0.3309 -0.1370
  835MOL0     C15154   4.614   3.835   6.848 -0.3007 -0.0565  0.7400
  835MOL0     C15155   4.635   3.989   6.834 -0.3850  0.5193  0.5022
  835MOL0     C15156   4.760   4.032   6.898  0.2349  0.6429 -0.8300
  835MOL0     C15157   4.868   4.056   6.949  0.1457 -0.3089 -0.7902
  835MOL0     C15158   4.453   3.364   6.872  0.7673 -0.1733  0.1778
  835MOL0     C15159   4.465   3.229   6.901 -0.8571  0.3934  1.1472
  835MOL0     C15160   4.375   3.171   7.004  0.0830  0.3941  0.0767
  835MOL0     H15161   4.809   2.741   6.829 -0.1619  1.3874 -2.2893
  835MOL0     H15162   4.753   2.507   6.779  2.4326  3.7448 -0.8135
  835MOL0     H15163   4.645   2.274   6.761 -2.8679 -1.9940  0.8164
  835MOL0     H15164   4.652   2.383   6.616 -1.4896  1.1295  0.1860
  835MOL0     H15165   4.486   2.287   6.511  0.9932  1.6386  0.6751
  835MOL0     H15166   4.597   2.161   6.550 -3.3507 -2.9951 -0.0248
  835MOL0     H15167   4.416   2.146   6.769 -0.7945 -0.6003  0.3046
  835MOL0     H15168   4.315   2.172   6.631 -1.1245 -0.9969  3.1117
  835MOL0     H15169   4.342   1.938   6.625 -1.4666 -0.1444 -3.0393
  835MOL0     H15170   4.455   1.998   6.500  1.6520 -0.1722  0.7717
  835MOL0     H15171   4.639   1.919   6.615 -0.4808  0.1177 -0.4587
  835MOL0     H15172   4.501   1.805   6.651  0.1924 -0.6012 -2.9305
  835MOL0     H15173   4.600   2.044   6.817  0.3448 -0.0132 -0.7828
  835MOL0     H15174   4.465   1.942   6.865  0.7095 -1.0627  2.5460
  835MOL0     H15175   4.765   1.898   6.865  0.1034 -0.6063  0.6413
  835MOL0     H15176   4.667   1.751   6.818  2.6320 -1.3596  0.8128
  835MOL0     H15177   4.625   1.934   7.074 -0.0231 -0.7200  1.7791
  835MOL0     H15178   4.533   1.789   7.024  1.2513 -2.9644  2.5849
  835MOL0     H15179   4.569   1.714   7.263  0.9885 -0.2163  2.2017
  835MOL0     H15180   4.658   1.603   7.464 -0.1193  3.0098 -0.9298
  835MOL0     H15181   4.835   1.603   7.472  1.1680  3.6152 -2.2204
  835MOL0     H15182   4.676   1.396   7.302  2.0046 -4.3569 -0.7938
  835MOL0     H15183   4.841   1.386   7.337 -0.6808 -1.4006  0.8123
  835MOL0     H15184   4.743   1.249   7.484  0.9264  0.4758  1.7322
  835MOL0     H15185   4.789   1.377   7.596  1.0257 -1.3904  0.2871
  835MOL0     H15186   4.549   1.294   7.649  3.5900 -1.1160  0.1521
  835MOL0     H15187   4.561   1.472   7.604 -0.6869  1.1599 -2.0869
  835MOL0     H15188   4.339   1.263   7.695  0.0172 -1.3966  0.1892
  835MOL0     H15189   4.063   1.042   7.720  0.1735 -1.7693 -3.0391
  835MOL0     H15190   4.066   1.218   7.765 -0.3377 -1.9132  2.9768
  835MOL0     H15191   4.200   1.109   7.800  2.3222 -0.7279 -2.8818
  835MOL0     H15192   3.762   0.899   7.689  1.6123 -0.9379 -0.5102
  835MOL0     H15193   3.524   0.816   7.646  0.2652  1.1932 -0.5114
  835MOL0     H15194   3.413   0.809   7.226  0.3390  0.9018  0.9401
  835MOL0     H15195   3.490   0.685   7.317 -0.5900 -1.0019  0.5464
  835MOL0     H15196   3.311   0.595   7.209 -1.0622  0.0526 -0.0348
  835MOL0     H15197   3.252   0.606   7.380  0.9909  0.9834  0.6118
  835MOL0     H15198   3.197   0.775   7.115  0.2131 -4.3394 -2.1210
  835MOL0     H15199   3.136   0.834   7.268 -3.3320  0.2719  0.7544
  835MOL0     H15200   2.993   0.655   7.318 -2.1555  0.7167 -1.1993
  835MOL0     H15201   3.059   0.554   7.190 -0.9836 -0.1875  0.2130
  835MOL0     H15202   2.974   0.767   7.028  3.4868  1.2771  1.8065
  835MOL0     H15203   2.870   0.635   7.088  1.3432 -1.4941  2.6044
  835MOL0     H15204   2.896   0.910   7.212  1.9378 -1.5334  1.0183
  835MOL0     H15205   2.797   0.772   7.272  0.0428  1.0258  1.1850
  835MOL0     H15206   2.657   0.780   7.070  0.3640  0.1404 -2.6953
  835MOL0     H15207   2.772   0.904   7.000  1.0883 -0.9153 -0.3254
  835MOL0     H15208   2.545   0.981   7.084 -0.0816  1.1814  0.4218
  835MOL0     H15209   2.691   1.058   7.152 -0.3292  1.4766  3.2074
  835MOL0     H15210   3.492   1.023   7.288 -1.2783 -2.3244 -0.3565
  835MOL0     H15211   3.717   1.143   7.337 -1.0396  0.1785 -0.3412
  835MOL0     H15212   4.141   1.144   7.262  0.0318 -0.6190  0.4758
  835MOL0     H15213   4.366   1.245   7.263  0.7250  2.5740 -0.5712
  835MOL0     H15214   4.325   2.614   6.786 -1.5505  3.6261  1.4399
  835MOL0     H15215   4.400   2.849   6.803  0.4175  0.7426  1.2655
  835MOL0     H15216   4.729   3.150   6.698 -2.8568 -3.8058  1.5315
  835MOL0     H15217   4.692   3.406   6.642  0.7264  0.0052  1.9074
  835MOL0     H15218   4.343   3.622   6.806  0.3821  1.1347  0.7337
  835MOL0     H15219   4.466   3.629   6.925 -1.6190  1.2182  0.6233
  835MOL0     H15220   4.398   3.861   6.820  1.7324  1.2091  0.6851
  835MOL0     H15221   4.467   3.799   6.681 -0.0042 -1.5451 -0.2084
  835MOL0     H15222   4.626   3.808   6.953 -0.3249 -0.1427  0.7207
  835MOL0     H15223   4.698   3.790   6.793 -0.5459 -2.1274  1.9657
  835MOL0     H15224   4.552   4.037   6.885 -2.5243  0.8179 -2.9283
  835MOL0     H15225   4.636   4.030   6.732  0.6481  1.9216  1.0506
  835MOL0     H15226   4.961   4.086   6.991 -0.4547  1.9327 -0.9426
  835MOL0     H15227   4.373   3.409   6.929  0.1181 -1.5848  0.4067
  835MOL0     H15228   4.361   3.062   7.003  2.4965 -0.0508  2.0470
  835MOL0     H15229   4.426   3.189   7.099 -1.0264  1.0963  0.5503
  835MOL0     H15230   4.279   3.222   7.001  0.0184  0.2322 -1.1744
  836MOL0     O15231   7.728   2.441   5.457 -0.1358  0.5080 -0.6593
  836MOL0     C15232   7.753   2.551   5.416  0.3332  0.4754  0.1273
  836MOL0     O15233   7.778   2.656   5.496 -0.4036 -0.3009  0.3127
  836MOL0     C15234   7.805   2.645   5.636  0.2250  0.0218 -0.9015
  836MOL0     C15235   7.906   2.556   5.684 -0.0954 -0.7668 -0.8094
  836MOL0     C15236   7.940   2.551   5.824  0.5880 -1.4173 -0.7872
  836MOL0     C15237   7.879   2.644   5.909  0.1225  0.1882 -0.3236
  836MOL0     O15238   7.903   2.669   6.048 -0.2566  0.0549  0.2375
  836MOL0     C15239   7.984   2.577   6.123 -0.6203  0.1740 -0.2792
  836MOL0     C15240   7.986   2.651   6.262  0.4575  0.0052  0.5263
  836MOL0     C15241   8.086   2.593   6.361  0.7914  0.0219 -0.2442
  836MOL0     C15242   8.046   2.456   6.416 -0.4362 -0.5034  0.3611
  836MOL0     C15243   8.111   2.340   6.337 -0.2028  0.4379  0.2557
  836MOL0     C15244   8.146   2.215   6.420 -0.2723  0.5654  0.5183
  836MOL0     C15245   8.232   2.110   6.339 -0.0846 -0.3381 -0.4442
  836MOL0     C15246   8.373   2.158   6.287 -0.4909  0.0358 -0.0681
  836MOL0     N15247   8.432   2.070   6.189  0.0518 -0.1773 -0.4104
  836MOL0     C15248   8.426   2.089   6.057 -0.0304  0.1261  0.5560
  836MOL0     C15249   8.498   1.988   6.003  0.6387 -0.1870  0.5903
  836MOL0     C15250   8.503   1.963   5.859 -0.1281 -0.6158 -0.3280
  836MOL0     C15251   8.616   2.039   5.796  0.2702  0.0534 -0.2192
  836MOL0     C15252   8.616   2.017   5.650  0.3762  0.0703  0.5419
  836MOL0     C15253   8.724   2.099   5.596 -0.3653  0.3169 -0.6244
  836MOL0     O15254   8.715   2.231   5.642 -0.4398 -0.2483 -0.2264
  836MOL0     C15255   8.825   2.318   5.626  0.2089 -0.5179 -0.7700
  836MOL0     C15256   8.926   2.312   5.538  0.5156 -0.6656 -0.6597
  836MOL0     C15257   9.018   2.421   5.532  0.5343  0.4930 -0.2351
  836MOL0     C15258   9.129   2.405   5.435 -0.0534 -0.1423 -0.3366
  836MOL0     C15259   9.009   2.545   5.615  0.6188  0.1933 -0.2696
  836MOL0     C15260   9.102   2.668   5.603  0.0103  0.2452  0.8284
  836MOL0     O15261   9.145   2.693   5.484  0.0501 -0.1964 -0.3421
  836MOL0     C15262   9.230   2.795   5.442 -0.0955 -0.3740 -0.2733
  836MOL0     C15263   9.323   2.870   5.523 -0.9144  0.6677  0.6397
  836MOL0     C15264   9.397   2.982   5.475 -0.5049  0.9006 -0.7725
  836MOL0     C15265   9.381   3.022   5.343 -0.6803  0.0307 -0.9546
  836MOL0     O15266   9.438   3.142   5.303  0.6377 -0.6442 -0.3643
  836MOL0     C15267   9.326   3.236   5.291  0.3778  0.4224  0.2140
  836MOL0     C15268   9.385   3.375   5.294  0.4270  0.7144  0.3156
  836MOL0     C15269   9.279   3.471   5.230 -0.2645 -0.0645 -0.4006
  836MOL0     C15270   9.189   3.552   5.329 -0.0627  0.1727  0.1628
  836MOL0     C15271   9.072   3.607   5.256  0.7159  1.4569 -0.4667
  836MOL0     C15272   8.971   3.485   5.225  0.1375  0.5646 -0.7869
  836MOL0     C15273   8.826   3.534   5.229 -0.2652 -0.4489 -0.0542
  836MOL0     C15274   8.795   3.663   5.148 -0.5308 -0.0656  0.0725
  836MOL0    Cl15275   8.816   3.636   4.976  0.2742  0.0463  0.0145
  836MOL0     C15276   9.304   2.937   5.257  0.1129 -0.1514 -0.3765
  836MOL0     C15277   9.237   2.826   5.303  0.3373  0.0752 -0.0918
  836MOL0     O15278   9.122   2.737   5.699 -0.8137 -0.2524 -0.4107
  836MOL0     C15279   8.903   2.543   5.699 -0.1473 -0.2054  0.4479
  836MOL0     C15280   8.812   2.435   5.703  0.3024  0.4550  0.5133
  836MOL0     N15281   8.555   1.914   6.099  1.0290 -0.1753  0.4957
  836MOL0     N15282   8.512   1.958   6.210  0.3016  0.2977  0.2595
  836MOL0     C15283   7.789   2.739   5.869 -0.3247 -0.2375  0.1349
  836MOL0     C15284   7.757   2.743   5.736  0.7191  0.7538  1.3801
  836MOL0     C15285   7.740   2.580   5.269 -0.0207 -0.0494  0.0967
  836MOL0     C15286   7.811   2.694   5.225  0.7224 -0.0297  0.3887
  836MOL0     C15287   7.805   2.743   5.093 -0.3727  0.9877 -0.3170
  836MOL0     C15288   7.705   2.687   5.012  0.7316  0.1563  0.6163
  836MOL0     O15289   7.676   2.722   4.885  0.2665 -0.2010 -0.0534
  836MOL0     C15290   7.793   2.751   4.805 -0.5525  0.3600 -0.2033
  836MOL0     C15291   7.748   2.732   4.659 -0.6980 -0.9187  0.8426
  836MOL0     C15292   7.648   2.843   4.605  0.2751 -0.1300 -0.3393
  836MOL0     C15293   7.562   2.809   4.484 -0.1961  0.8648 -0.2016
  836MOL0     C15294   7.455   2.903   4.456 -0.3679 -0.0274 -0.4895
  836MOL0     C15295   7.374   2.985   4.423  0.0785  0.3454  0.2081
  836MOL0     C15296   7.626   2.577   5.059 -0.1763 -0.0433 -0.5927
  836MOL0     C15297   7.654   2.513   5.176 -0.8196  0.9699 -1.2323
  836MOL0     C15298   7.578   2.385   5.203 -0.2970  0.5225 -0.4757
  836MOL0     H15299   7.970   2.498   5.618  2.8997  1.4114 -0.0542
  836MOL0     H15300   8.011   2.479   5.864  1.6316 -0.0737 -0.1269
  836MOL0     H15301   8.089   2.576   6.091 -0.4364  0.7470  0.2722
  836MOL0     H15302   7.945   2.477   6.142  0.5214  0.0321  1.6241
  836MOL0     H15303   8.018   2.755   6.254  3.5726 -0.8317  0.4741
  836MOL0     H15304   7.880   2.649   6.286 -0.9880  0.2228 -4.5695
  836MOL0     H15305   8.184   2.589   6.313  3.0251 -0.2496  3.9214
  836MOL0     H15306   8.083   2.653   6.453  0.6416 -0.2522 -0.0695
  836MOL0     H15307   8.079   2.465   6.520  1.0855 -0.8422 -0.0696
  836MOL0     H15308   7.939   2.440   6.426 -0.3697 -1.8257 -0.7136
  836MOL0     H15309   8.206   2.375   6.296 -0.0995 -0.6474 -0.4716
  836MOL0     H15310   8.042   2.313   6.257 -0.8373 -0.8751  1.1974
  836MOL0     H15311   8.217   2.236   6.501 -0.3725  2.5480  0.1298
  836MOL0     H15312   8.057   2.181   6.475 -1.4132  2.6222  0.0242
  836MOL0     H15313   8.177   2.075   6.251  5.2794 -3.8707 -2.8842
  836MOL0     H15314   8.263   2.026   6.402  1.2468 -0.0633 -0.7036
  836MOL0     H15315   8.360   2.258   6.246 -1.3456  0.2795  0.7550
  836MOL0     H15316   8.449   2.164   6.365  0.2836 -1.4990 -0.6680
  836MOL0     H15317   8.375   2.175   6.014  0.3490 -0.5831 -1.4333
  836MOL0     H15318   8.410   1.993   5.811  1.9771  3.3006 -2.4617
  836MOL0     H15319   8.512   1.855   5.848  0.1196 -0.6038 -0.2471
  836MOL0     H15320   8.607   2.145   5.818 -1.5490  0.1914 -1.4265
  836MOL0     H15321   8.712   2.005   5.838  0.4799  0.4741 -0.3519
  836MOL0     H15322   8.646   1.914   5.626  0.7522  0.4676 -0.7770
  836MOL0     H15323   8.525   2.049   5.600  0.9180 -1.7067 -1.7324
  836MOL0     H15324   8.821   2.058   5.629 -1.4720 -3.3725 -1.4211
  836MOL0     H15325   8.722   2.098   5.487  0.5421 -2.6608 -0.7078
  836MOL0     H15326   8.925   2.221   5.479 -0.7595 -1.6870  0.8596
  836MOL0     H15327   9.150   2.301   5.409 -2.3026 -1.0188  1.1076
  836MOL0     H15328   9.219   2.459   5.467 -0.7045  0.4551  0.5295
  836MOL0     H15329   9.107   2.436   5.332 -2.5864 -1.8437 -0.4031
  836MOL0     H15330   9.327   2.833   5.625 -1.7910 -0.3379  0.3374
  836MOL0     H15331   9.447   3.051   5.542 -2.6218  0.9530  0.8742
  836MOL0     H15332   9.275   3.205   5.199  1.2763  4.0400 -1.7232
  836MOL0     H15333   9.255   3.231   5.373 -1.7306 -0.8491 -1.5811
  836MOL0     H15334   9.403   3.408   5.397  3.5721 -1.9088  0.7680
  836MOL0     H15335   9.478   3.378   5.235  0.4929 -2.7501 -0.0174
  836MOL0     H15336   9.213   3.407   5.171 -0.0391 -2.3058  1.6315
  836MOL0     H15337   9.329   3.539   5.160 -0.9393  0.6928 -0.1636
  836MOL0     H15338   9.247   3.637   5.367  0.8653  2.0609 -4.6470
  836MOL0     H15339   9.160   3.480   5.406  1.6703 -0.6880  0.0421
  836MOL0     H15340   9.021   3.674   5.326  0.0713  2.1967 -1.6235
  836MOL0     H15341   9.094   3.654   5.160  0.7725  0.8475 -0.7568
  836MOL0     H15342   8.978   3.411   5.305 -0.3089  1.5387  0.1999
  836MOL0     H15343   8.994   3.431   5.133  1.8091  0.3347 -0.2623
  836MOL0     H15344   8.789   3.553   5.330 -2.8567 -2.1527 -0.5868
  836MOL0     H15345   8.758   3.456   5.194  3.7085 -4.0816 -0.5296
  836MOL0     H15346   8.869   3.738   5.175 -1.9638  0.6248  2.4646
  836MOL0     H15347   8.689   3.689   5.161 -0.1035  1.6898  0.3047
  836MOL0     H15348   9.298   2.954   5.150  2.5307  1.7634 -0.3107
  836MOL0     H15349   9.174   2.777   5.230  1.2232 -1.4825  0.1538
  836MOL0     H15350   8.883   2.629   5.763  3.2623  0.5390  0.6788
  836MOL0     H15351   8.729   2.434   5.772 -1.9904 -1.2928 -2.0596
  836MOL0     H15352   7.772   2.806   5.953  1.5101 -0.2734  0.5685
  836MOL0     H15353   7.694   2.823   5.700 -1.2359 -1.4260 -0.4147
  836MOL0     H15354   7.869   2.741   5.304  0.0601  2.1384 -0.3343
  836MOL0     H15355   7.862   2.832   5.070 -0.0885  1.2955  1.4355
  836MOL0     H15356   7.829   2.852   4.823  2.0858 -0.4808 -0.3404
  836MOL0     H15357   7.875   2.681   4.823  2.7625  3.8297 -0.6037
  836MOL0     H15358   7.704   2.632   4.656 -3.3043  0.1315  1.2254
  836MOL0     H15359   7.832   2.732   4.589 -2.4178  1.5637 -1.4347
  836MOL0     H15360   7.582   2.865   4.689 -1.4391 -1.5667 -1.2379
  836MOL0     H15361   7.701   2.935   4.581  0.5108 -0.6479 -1.9368
  836MOL0     H15362   7.531   2.705   4.493  1.9764  0.0918 -1.0532
  836MOL0     H15363   7.629   2.805   4.398 -0.9879  0.0476 -0.8075
  836MOL0     H15364   7.298   3.055   4.396 -0.4150 -0.6119 -1.0076
  836MOL0     H15365   7.548   2.536   4.996 -1.1495 -0.5086  0.8750
  836MOL0     H15366   7.641   2.308   5.248  2.9150  1.8412 -2.3443
  836MOL0     H15367   7.492   2.418   5.261 -0.9655  3.6492 -2.9440
  836MOL0     H15368   7.529   2.352   5.111  1.1885  1.4427 -1.6475
  837MOL0     O15369   7.725   3.330   8.642  0.2386 -0.8756  1.0168
  837MOL0     C15370   7.618   3.335   8.574 -0.7806 -0.8173 -0.1998
  837MOL0     O15371   7.502   3.293   8.621  1.0257  0.4324  0.5055
  837MOL0     C15372   7.468   3.266   8.749 -1.6318  0.0415 -0.4432
  837MOL0     C15373   7.350   3.197   8.764  0.1168  0.0517 -0.5967
  837MOL0     C15374   7.283   3.187   8.882 -0.0308  0.4763  0.4486
  837MOL0     C15375   7.350   3.227   8.997  1.1282  0.3653 -0.9164
  837MOL0     O15376   7.327   3.203   9.132  0.0069 -0.2301  0.7671
  837MOL0     C15377   7.227   3.110   9.168  0.2938  0.4484  0.5905
  837MOL0     C15378   7.154   3.158   9.292  0.4410 -0.0763 -1.0757
  837MOL0     C15379   7.248   3.173   9.409  0.6698  0.1781  0.3854
  837MOL0     C15380   7.293   3.318   9.435  0.0473 -0.2947  0.7402
  837MOL0     C15381   7.417   3.311   9.533  0.2845 -0.5090 -0.1684
  837MOL0     C15382   7.554   3.266   9.475 -0.3243 -0.1053  0.3978
  837MOL0     C15383   7.676   3.301   9.573 -0.2438 -0.9207  0.3103
  837MOL0     C15384   7.806   3.239   9.531 -0.1431 -0.2931  0.7012
  837MOL0     N15385   7.926   3.253   9.615 -0.5637 -0.5488 -0.2667
  837MOL0     C15386   7.950   3.371   9.682 -0.1877 -0.7974  0.3993
  837MOL0     C15387   8.075   3.364   9.738 -0.6759 -0.6987 -0.4102
  837MOL0     C15388   8.153   3.476   9.814 -0.0739 -0.2831  0.5010
  837MOL0     C15389   8.291   3.436   9.851  0.0907 -0.3130  0.1991
  837MOL0     C15390   8.394   3.402   9.739  0.5903 -0.1967  0.3755
  837MOL0     C15391   8.524   3.355   9.796 -0.1079 -0.8614  0.4130
  837MOL0     O15392   8.601   3.285   9.694  0.0191  0.0625  0.5533
  837MOL0     C15393   8.668   3.358   9.604  0.0563 -0.0137  0.3097
  837MOL0     C15394   8.791   3.426   9.635  0.1453  0.5935 -0.9070
  837MOL0     C15395   8.854   3.503   9.547  0.1255  0.5935 -0.5929
  837MOL0     C15396   8.987   3.556   9.591 -0.7883 -0.1079 -0.0607
  837MOL0     C15397   8.809   3.518   9.418  0.1440 -0.0643 -0.4756
  837MOL0     C15398   8.862   3.615   9.320 -0.9925 -0.6160  0.4354
  837MOL0     O15399   8.778   3.645   9.220 -0.0159  0.1891 -0.1423
  837MOL0     C15400   8.833   3.691   9.108  0.0574 -0.4721  0.8482
  837MOL0     C15401   8.733   3.745   9.018  0.5250  0.3992 -0.5653
  837MOL0     C15402   8.761   3.798   8.893 -1.0549 -0.0510  1.3249
  837MOL0     C15403   8.897   3.811   8.857  0.3049 -0.8743 -0.1748
  837MOL0     O15404   8.928   3.863   8.733  0.0677 -0.5903 -0.2610
  837MOL0     C15405   9.059   3.927   8.724 -0.1861 -0.2778  0.7168
  837MOL0     C15406   9.161   3.832   8.662  0.3401 -0.7597  0.4037
  837MOL0     C15407   9.272   3.895   8.586  0.0248  1.1591 -1.3255
  837MOL0     C15408   9.373   3.798   8.529  0.3048  0.0105  0.0743
  837MOL0     C15409   9.495   3.858   8.449  0.8333  0.2402  0.0034
  837MOL0     C15410   9.454   3.966   8.345  0.7849  0.2696 -0.5036
  837MOL0     C15411   9.583   4.011   8.267 -0.1222  0.1492  0.1304
  837MOL0     C15412   9.561   4.144   8.174 -0.1123  1.8300  0.2581
  837MOL0    Cl15413   9.710   4.170   8.078 -0.0036 -0.0126  0.0363
  837MOL0     C15414   8.993   3.761   8.936  0.0612  0.4670 -0.8462
  837MOL0     C15415   8.972   3.699   9.062 -0.1355 -0.6572  0.5114
  837MOL0     O15416   8.980   3.658   9.335  0.5992 -0.1773  0.1296
  837MOL0     C15417   8.698   3.442   9.388 -0.9367 -0.1536  0.4858
  837MOL0     C15418   8.633   3.351   9.471 -1.3653 -0.2621 -0.1577
  837MOL0     N15419   8.115   3.226   9.726 -0.6561  0.4144 -0.1668
  837MOL0     N15420   8.025   3.168   9.656 -0.7005  0.4587  0.4839
  837MOL0     C15421   7.476   3.292   8.983 -0.3676  0.3257  0.0072
  837MOL0     C15422   7.538   3.316   8.860 -0.0360  0.4765 -0.6192
  837MOL0     C15423   7.618   3.363   8.423  0.6720 -1.1956 -0.4099
  837MOL0     C15424   7.488   3.394   8.363  0.9290  0.9709 -0.3387
  837MOL0     C15425   7.474   3.400   8.226  0.2625 -0.1298  0.2492
  837MOL0     C15426   7.580   3.391   8.139 -0.7030  1.0528 -0.3531
  837MOL0     O15427   7.549   3.407   8.001 -0.6607 -0.2749 -0.2261
  837MOL0     C15428   7.642   3.359   7.911 -0.4696 -0.5692  0.5283
  837MOL0     C15429   7.674   3.206   7.909 -0.4669  0.5191  0.6820
  837MOL0     C15430   7.552   3.114   7.936  0.1018 -0.0122  0.3099
  837MOL0     C15431   7.435   3.125   7.827  0.0451 -1.0142 -0.9113
  837MOL0     C15432   7.395   3.261   7.772  0.3304  0.8144  0.5457
  837MOL0     C15433   7.355   3.368   7.745  1.1486 -0.0824 -0.0290
  837MOL0     C15434   7.711   3.374   8.192 -0.1967  0.5215  0.8017
  837MOL0     C15435   7.733   3.367   8.335  0.1666  0.1990  0.4716
  837MOL0     C15436   7.871   3.340   8.379  0.8116 -0.3204 -0.3370
  837MOL0     H15437   7.297   3.149   8.681  2.2489 -1.3421 -1.2418
  837MOL0     H15438   7.187   3.137   8.886  1.5985 -2.8647  1.1639
  837MOL0     H15439   7.260   3.008   9.187 -0.3976  0.2208  0.5991
  837MOL0     H15440   7.150   3.097   9.091  0.7411 -1.2404  0.3829
  837MOL0     H15441   7.090   3.246   9.278 -0.9566 -1.0914 -1.2399
  837MOL0     H15442   7.085   3.078   9.318  1.8908 -1.7053 -2.0570
  837MOL0     H15443   7.178   3.147   9.489 -1.6016 -1.6418 -2.0217
  837MOL0     H15444   7.324   3.094   9.404  0.6416  0.0572  1.5774
  837MOL0     H15445   7.333   3.378   9.353  1.2473 -0.3208  1.2821
  837MOL0     H15446   7.206   3.372   9.473  0.2943  0.7449 -0.1025
  837MOL0     H15447   7.387   3.254   9.621  0.7354  2.0828  1.7665
  837MOL0     H15448   7.430   3.415   9.563 -0.0623 -0.1122 -1.3278
  837MOL0     H15449   7.548   3.163   9.437 -4.6074  0.6012 -1.4139
  837MOL0     H15450   7.575   3.331   9.390 -2.0586 -0.3526 -0.2536
  837MOL0     H15451   7.654   3.264   9.674 -0.0069  0.8914  1.0608
  837MOL0     H15452   7.688   3.409   9.573  1.9885 -1.0999  2.0695
  837MOL0     H15453   7.794   3.130   9.526  0.1823 -0.3453  1.0609
  837MOL0     H15454   7.821   3.280   9.430 -5.5806 -0.6282 -0.5334
  837MOL0     H15455   7.897   3.464   9.670 -0.4001 -0.5912  2.6418
  837MOL0     H15456   8.085   3.498   9.897  0.3653  1.3936  0.4537
  837MOL0     H15457   8.160   3.562   9.746  1.8901 -0.4314  0.4641
  837MOL0     H15458   8.334   3.511   9.918  1.1885  0.8610 -1.7361
  837MOL0     H15459   8.283   3.345   9.913 -1.1066  1.4621  2.8413
  837MOL0     H15460   8.352   3.326   9.673  2.6552 -0.9265 -0.1878
  837MOL0     H15461   8.414   3.485   9.670 -0.3573 -0.1663  0.1258
  837MOL0     H15462   8.566   3.448   9.837 -1.3207  1.2305 -2.6885
  837MOL0     H15463   8.501   3.285   9.877  0.5354 -0.0703  1.3043
  837MOL0     H15464   8.827   3.425   9.738  0.1381 -0.2403 -0.9062
  837MOL0     H15465   9.071   3.537   9.523  0.0970 -5.1781  2.0262
  837MOL0     H15466   9.021   3.504   9.680 -0.7029 -0.4900 -0.3138
  837MOL0     H15467   8.981   3.663   9.611  0.6685  0.0828 -0.5155
  837MOL0     H15468   8.627   3.750   9.040  1.1496  2.3623  2.6429
  837MOL0     H15469   8.686   3.832   8.823  1.8357  2.2448 -0.9634
  837MOL0     H15470   9.035   4.009   8.656  2.2485 -1.6559 -1.9879
  837MOL0     H15471   9.096   3.972   8.817 -0.1068  3.2838 -0.8665
  837MOL0     H15472   9.203   3.773   8.744  2.7047  0.5054  0.1950
  837MOL0     H15473   9.109   3.767   8.591  1.3172 -0.8999 -0.2052
  837MOL0     H15474   9.318   3.960   8.661  0.7912 -1.8745  1.0652
  837MOL0     H15475   9.229   3.965   8.515 -2.0161  0.5642 -0.7452
  837MOL0     H15476   9.316   3.726   8.470 -0.7332  0.3383  0.6596
  837MOL0     H15477   9.404   3.734   8.611  2.0315 -0.1924 -0.6835
  837MOL0     H15478   9.564   3.910   8.516  2.5140 -1.2952 -0.4464
  837MOL0     H15479   9.549   3.779   8.395  1.2909  1.6181 -1.6357
  837MOL0     H15480   9.412   4.053   8.395  0.5571  0.6236 -1.2897
  837MOL0     H15481   9.378   3.920   8.281  0.3299 -2.4672  1.7987
  837MOL0     H15482   9.592   3.927   8.198  0.8983  0.7495 -0.4891
  837MOL0     H15483   9.672   4.019   8.331 -0.4513  1.5498  0.4511
  837MOL0     H15484   9.531   4.235   8.227 -1.0147  1.4619  0.3963
  837MOL0     H15485   9.474   4.119   8.113  0.2658  0.3519  0.3039
  837MOL0     H15486   9.099   3.776   8.921  0.5291 -1.8296 -0.2424
  837MOL0     H15487   9.045   3.654   9.128 -0.9351 -0.3234  1.6593
  837MOL0     H15488   8.652   3.451   9.290 -0.7253  2.6087  0.5531
  837MOL0     H15489   8.547   3.294   9.438 -3.3492  0.9762  2.4230
  837MOL0     H15490   7.522   3.319   9.077  1.9093 -1.5315 -0.4654
  837MOL0     H15491   7.630   3.372   8.847 -1.6206  2.8481 -2.5505
  837MOL0     H15492   7.391   3.401   8.412  1.3388 -1.0701  0.9037
  837MOL0     H15493   7.375   3.410   8.185  1.0185 -1.6669 -2.1911
  837MOL0     H15494   7.611   3.392   7.811  1.5175 -0.1727  0.0103
  837MOL0     H15495   7.735   3.415   7.918  0.0167 -1.5615  3.6579
  837MOL0     H15496   7.748   3.185   7.987 -0.5755 -0.7639  0.4532
  837MOL0     H15497   7.715   3.182   7.810 -0.8986  1.7256  0.1863
  837MOL0     H15498   7.600   3.016   7.943  0.0276  0.0924  3.5143
  837MOL0     H15499   7.506   3.134   8.033  1.1189  1.0502  0.5942
  837MOL0     H15500   7.343   3.091   7.874 -1.6752  1.5561 -2.2077
  837MOL0     H15501   7.457   3.059   7.742 -0.0033 -1.1663 -0.8073
  837MOL0     H15502   7.314   3.467   7.739  1.6277  0.1409  0.3001
  837MOL0     H15503   7.801   3.375   8.132 -0.6715  0.5985  0.0863
  837MOL0     H15504   7.925   3.328   8.285  1.7171 -0.4701  0.1952
  837MOL0     H15505   7.906   3.414   8.452 -1.1646  0.0014  0.3550
  837MOL0     H15506   7.858   3.246   8.433 -0.1480 -0.4814 -0.8334
  838MOL0     O15507   5.865   1.031   5.645  0.4329  0.1617  0.3970
  838MOL0     C15508   5.865   0.969   5.750 -0.0530  0.4136  1.1355
  838MOL0     O15509   5.754   0.947   5.824 -0.2003 -0.3787 -0.0317
  838MOL0     C15510   5.640   1.026   5.801  0.0771  0.0724 -1.4595
  838MOL0     C15511   5.638   1.163   5.831 -0.3175 -0.2995  0.1293
  838MOL0     C15512   5.516   1.239   5.832 -0.5519  0.0941  0.1573
  838MOL0     C15513   5.406   1.170   5.806 -1.0809 -0.0850 -0.6762
  838MOL0     O15514   5.283   1.232   5.806 -0.1819  0.5509 -0.2362
  838MOL0     C15515   5.274   1.370   5.760 -0.5310 -0.0711  0.6848
  838MOL0     C15516   5.141   1.386   5.699 -0.2304 -0.0230  1.8292
  838MOL0     C15517   5.107   1.301   5.576 -0.1344 -0.6724  0.3454
  838MOL0     C15518   5.086   1.402   5.474  0.7342 -0.5034  0.2122
  838MOL0     C15519   5.050   1.328   5.344  0.3909  0.2033 -0.4407
  838MOL0     C15520   5.011   1.402   5.215  0.4478  0.0530  0.0587
  838MOL0     C15521   5.109   1.514   5.196  0.7475 -0.1650  1.2344
  838MOL0     C15522   5.093   1.592   5.057 -1.1827  1.6800 -0.4970
  838MOL0     N15523   4.985   1.689   5.054  0.1143 -0.7245 -0.5129
  838MOL0     C15524   5.005   1.819   5.090 -1.1660 -0.3102  0.8524
  838MOL0     C15525   4.892   1.862   5.135  0.2077 -0.0726  0.4444
  838MOL0     C15526   4.861   2.005   5.187  1.2401  0.3036 -0.7056
  838MOL0     C15527   4.989   2.084   5.220  0.5745  0.8595  0.1547
  838MOL0     C15528   4.958   2.212   5.301 -0.3948  0.7488  0.1922
  838MOL0     C15529   5.088   2.248   5.379  0.1634 -0.3644  0.2766
  838MOL0     O15530   5.186   2.284   5.280 -0.2763 -0.0096 -0.5154
  838MOL0     C15531   5.306   2.329   5.328 -0.0172 -0.4140 -0.5338
  838MOL0     C15532   5.364   2.284   5.454 -0.3368 -0.6392  0.4384
  838MOL0     C15533   5.489   2.331   5.485 -0.6622  0.5444 -0.6883
  838MOL0     C15534   5.542   2.274   5.615  0.6298  0.3278 -0.7608
  838MOL0     C15535   5.572   2.412   5.399 -0.6605 -0.5692  0.0792
  838MOL0     C15536   5.708   2.467   5.427 -0.3696 -0.4642 -0.3120
  838MOL0     O15537   5.773   2.530   5.321 -0.2705 -0.1812  0.2896
  838MOL0     C15538   5.885   2.606   5.337 -0.6455  0.2566  0.3946
  838MOL0     C15539   5.951   2.634   5.214 -0.6740 -0.5300 -0.0959
  838MOL0     C15540   6.072   2.695   5.202  0.0275 -0.4680  0.7000
  838MOL0     C15541   6.117   2.771   5.313  0.6287  0.3491  0.1104
  838MOL0     O15542   6.225   2.856   5.318  0.2466 -0.3632 -0.0990
  838MOL0     C15543   6.312   2.870   5.202  0.6865  0.4649  0.1758
  838MOL0     C15544   6.439   2.940   5.240  0.0604 -0.1293  0.1250
  838MOL0     C15545   6.535   2.966   5.124 -0.4099 -0.1505  0.4027
  838MOL0     C15546   6.662   3.050   5.180 -0.0677 -0.9496 -0.1827
  838MOL0     C15547   6.788   3.032   5.097  0.4100 -0.0846 -0.5062
  838MOL0     C15548   6.907   3.086   5.178 -0.6227 -0.3233  0.2733
  838MOL0     C15549   7.037   3.074   5.097 -0.3757 -0.8388  0.3802
  838MOL0     C15550   7.143   3.166   5.154 -0.6284  0.1374  0.5466
  838MOL0    Cl15551   7.137   3.317   5.068 -0.0849 -0.0400  0.7087
  838MOL0     C15552   6.050   2.757   5.436  0.2478 -0.3027  0.1069
  838MOL0     C15553   5.944   2.660   5.448 -0.3266  0.3110  1.1279
  838MOL0     O15554   5.762   2.436   5.533 -0.7412  0.2292  0.7662
  838MOL0     C15555   5.511   2.456   5.285  0.5098 -0.2684 -0.3938
  838MOL0     C15556   5.377   2.421   5.253 -0.2501 -0.0487 -0.5952
  838MOL0     N15557   4.798   1.767   5.129  0.1427 -0.1760  0.3168
  838MOL0     N15558   4.847   1.656   5.078 -0.7144 -0.0211 -0.0753
  838MOL0     C15559   5.410   1.035   5.774  0.5854  0.1685 -0.2738
  838MOL0     C15560   5.527   0.966   5.764  0.7057  0.9456 -1.2770
  838MOL0     C15561   5.995   0.931   5.807 -0.1060  0.4964 -0.2659
  838MOL0     C15562   5.997   0.844   5.921 -0.0380  0.1801 -0.2709
  838MOL0     C15563   6.117   0.805   5.979 -0.0203  1.5684 -0.6254
  838MOL0     C15564   6.240   0.840   5.942  0.4676 -0.1925 -0.1480
  838MOL0     O15565   6.367   0.819   6.000  0.3359 -0.1474 -0.8219
  838MOL0     C15566   6.362   0.780   6.137 -0.0855  0.0364 -0.3226
  838MOL0     C15567   6.300   0.883   6.229 -0.0110 -0.2485 -0.2794
  838MOL0     C15568   6.372   1.019   6.217 -0.0260  0.0874  0.5196
  838MOL0     C15569   6.313   1.128   6.316 -0.0150 -0.6680  1.0796
  838MOL0     C15570   6.376   1.265   6.301  0.4747 -1.1740 -0.9393
  838MOL0     C15571   6.435   1.367   6.294  1.2343  0.0879 -0.3093
  838MOL0     C15572   6.243   0.919   5.825  0.5681  0.4194 -0.5604
  838MOL0     C15573   6.124   0.975   5.755 -0.4801  0.3581 -1.4003
  838MOL0     C15574   6.155   1.082   5.658 -0.7934 -0.2138  0.7522
  838MOL0     H15575   5.729   1.215   5.861  0.8235 -1.4739 -1.1875
  838MOL0     H15576   5.507   1.342   5.867 -0.2205  1.3944 -3.1863
  838MOL0     H15577   5.351   1.396   5.686 -2.4637  2.2298 -0.6664
  838MOL0     H15578   5.288   1.450   5.834  1.1177  1.4036 -1.1096
  838MOL0     H15579   5.076   1.339   5.774  3.4478 -2.2769  3.8622
  838MOL0     H15580   5.126   1.493   5.683 -0.0098 -0.2663 -0.3641
  838MOL0     H15581   5.177   1.218   5.567  0.3511 -0.4177  1.6296
  838MOL0     H15582   5.015   1.246   5.599  0.5146 -1.2305  1.7232
  838MOL0     H15583   5.001   1.465   5.502 -0.5553 -2.4690  0.9986
  838MOL0     H15584   5.169   1.471   5.460 -1.5217  2.2531 -0.3756
  838MOL0     H15585   4.960   1.268   5.360 -0.9144  1.9463 -0.9794
  838MOL0     H15586   5.135   1.261   5.328  0.0322  0.0521 -1.8234
  838MOL0     H15587   5.028   1.324   5.141  1.7945 -0.1138  0.5198
  838MOL0     H15588   4.909   1.443   5.219  0.9244  1.2219  0.7170
  838MOL0     H15589   5.212   1.483   5.218  1.1502 -0.6428 -1.0352
  838MOL0     H15590   5.084   1.592   5.269 -1.8757 -0.6622  0.9530
  838MOL0     H15591   5.189   1.643   5.050 -0.2082  0.0857  0.4242
  838MOL0     H15592   5.091   1.523   4.972  3.5928  0.8618 -0.2371
  838MOL0     H15593   5.101   1.865   5.110 -2.1294  0.3808  4.5866
  838MOL0     H15594   4.798   1.994   5.276 -1.4655 -0.8071 -2.6232
  838MOL0     H15595   4.810   2.065   5.111  1.8451  2.1642  0.3105
  838MOL0     H15596   5.057   2.018   5.273  0.6468 -0.3356 -1.3688
  838MOL0     H15597   5.039   2.114   5.127  2.5771  3.0089  1.7722
  838MOL0     H15598   4.926   2.287   5.228  1.9838 -0.4540 -2.2566
  838MOL0     H15599   4.881   2.188   5.374 -0.6797  0.3584 -0.2285
  838MOL0     H15600   5.066   2.326   5.452  0.2847 -0.7427  0.7247
  838MOL0     H15601   5.135   2.162   5.429  2.3125 -0.2402 -1.3823
  838MOL0     H15602   5.322   2.214   5.525 -2.3449 -1.4325 -1.3983
  838MOL0     H15603   5.501   2.178   5.650  4.6538 -1.7925 -1.2991
  838MOL0     H15604   5.550   2.354   5.689 -0.1214  2.5041 -2.9043
  838MOL0     H15605   5.649   2.253   5.604  1.2106  2.4031  0.4784
  838MOL0     H15606   5.913   2.592   5.121 -0.4805 -1.5410  0.2666
  838MOL0     H15607   6.130   2.689   5.111 -0.3142  1.6052  0.3091
  838MOL0     H15608   6.335   2.775   5.153 -1.0545 -0.4150  0.9563
  838MOL0     H15609   6.254   2.924   5.126  1.9541 -1.0916 -2.0239
  838MOL0     H15610   6.415   3.034   5.291  1.2112  0.1319  0.2306
  838MOL0     H15611   6.496   2.874   5.306  0.7480 -0.2806 -0.6090
  838MOL0     H15612   6.489   3.017   5.039  0.1750 -2.7680 -1.5821
  838MOL0     H15613   6.556   2.868   5.080 -0.1774  0.0468  0.0732
  838MOL0     H15614   6.690   3.020   5.281  3.5152  3.0152  0.2998
  838MOL0     H15615   6.643   3.156   5.201 -0.1862 -1.4384  2.5008
  838MOL0     H15616   6.805   2.926   5.077 -1.6650 -0.8449  1.3576
  838MOL0     H15617   6.773   3.080   5.000  2.6544 -0.5338 -1.1323
  838MOL0     H15618   6.922   3.023   5.267  0.1320 -0.7843 -0.1768
  838MOL0     H15619   6.885   3.190   5.204 -0.7887 -0.2498 -0.1518
  838MOL0     H15620   7.005   3.095   4.995  0.3418 -2.5301 -0.2312
  838MOL0     H15621   7.061   2.968   5.107  2.4329 -0.3885 -0.7123
  838MOL0     H15622   7.243   3.132   5.127 -0.3835  1.7891 -0.7717
  838MOL0     H15623   7.135   3.190   5.261 -0.8768 -0.2248  0.6150
  838MOL0     H15624   6.101   2.799   5.523 -1.3624  0.1391  0.8709
  838MOL0     H15625   5.900   2.635   5.544 -3.2649 -2.7477 -0.8075
  838MOL0     H15626   5.552   2.529   5.216 -1.5750  2.5654  1.1326
  838MOL0     H15627   5.330   2.459   5.163 -0.4993 -0.3882 -0.6100
  838MOL0     H15628   5.317   0.988   5.744  0.8788  0.1029 -1.0836
  838MOL0     H15629   5.513   0.861   5.740 -2.2252  0.6387  1.1594
  838MOL0     H15630   5.908   0.800   5.963 -0.1941  0.1839 -0.5991
  838MOL0     H15631   6.101   0.732   6.057  2.1654  1.1827 -0.4513
  838MOL0     H15632   6.308   0.686   6.152  0.4021 -0.2386 -0.2461
  838MOL0     H15633   6.463   0.765   6.177 -0.1318  0.2328 -0.1286
  838MOL0     H15634   6.314   0.841   6.329 -0.8345 -0.9092 -0.4246
  838MOL0     H15635   6.191   0.893   6.219 -0.1971 -2.6869 -1.4361
  838MOL0     H15636   6.480   1.007   6.233 -0.1141 -1.0978  0.2777
  838MOL0     H15637   6.366   1.059   6.115 -0.8973  1.2938  1.0178
  838MOL0     H15638   6.331   1.099   6.421  1.0332  1.3351  1.5074
  838MOL0     H15639   6.205   1.136   6.300 -0.0854 -3.4995 -0.5406
  838MOL0     H15640   6.507   1.447   6.289  1.7772 -0.4259 -0.8992
  838MOL0     H15641   6.337   0.951   5.781  1.5047 -2.3513 -0.7550
  838MOL0     H15642   6.117   1.063   5.557  2.4452 -0.3476 -0.5537
  838MOL0     H15643   6.119   1.175   5.702 -1.0164 -0.5322  1.2548
  838MOL0     H15644   6.263   1.095   5.647 -0.5015 -2.6214  0.1191
  839MOL0     O15645   5.692   0.796   7.481 -0.6645 -0.1834 -0.1118
  839MOL0     C15646   5.572   0.804   7.442 -0.6044 -0.2426 -0.5683
  839MOL0     O15647   5.499   0.920   7.438 -0.7759 -0.5976  0.2912
  839MOL0     C15648   5.542   1.037   7.500  0.2042 -0.5434  0.0845
  839MOL0     C15649   5.544   1.071   7.636 -0.4374 -0.7329  0.4188
  839MOL0     C15650   5.582   1.195   7.688 -1.0678  0.1363  0.2609
  839MOL0     C15651   5.611   1.296   7.596 -0.2170  0.8588  0.2162
  839MOL0     O15652   5.652   1.414   7.643  0.6790 -0.8352 -0.3210
  839MOL0     C15653   5.706   1.442   7.776  0.5336 -0.2175  0.2885
  839MOL0     C15654   5.823   1.345   7.813 -0.0927  0.1266 -0.8094
  839MOL0     C15655   5.857   1.348   7.967  0.1170 -0.2714 -0.3226
  839MOL0     C15656   5.949   1.219   7.999  0.3545 -0.1145  0.0601
  839MOL0     C15657   6.001   1.230   8.148 -0.2262  0.6454 -0.0299
  839MOL0     C15658   6.071   1.105   8.188  0.0096 -0.3161  0.5464
  839MOL0     C15659   6.195   1.067   8.110  0.0577  0.0654  0.5075
  839MOL0     C15660   6.287   1.187   8.082 -0.2967  0.1089 -0.4412
  839MOL0     N15661   6.404   1.129   8.017 -0.4394 -0.4267  0.2647
  839MOL0     C15662   6.507   1.062   8.078 -0.1192 -0.8531 -0.4851
  839MOL0     C15663   6.595   1.010   7.990  0.5188  0.3750 -0.3235
  839MOL0     C15664   6.710   0.911   8.010  1.0444  0.8689 -0.5626
  839MOL0     C15665   6.803   0.919   7.887  0.6242 -0.3446 -0.3225
  839MOL0     C15666   6.919   0.812   7.893  1.4756 -0.3835  0.1722
  839MOL0     C15667   6.859   0.683   7.855  0.2365  0.9200  0.6199
  839MOL0     O15668   6.916   0.577   7.931 -0.0027  0.3029  0.3457
  839MOL0     C15669   6.896   0.441   7.900  0.1353 -0.1358 -0.4287
  839MOL0     C15670   6.790   0.390   7.823  0.3326 -0.2101 -0.0314
  839MOL0     C15671   6.774   0.251   7.791  0.2606 -0.5161 -0.2899
  839MOL0     C15672   6.670   0.214   7.680  0.5109 -0.2518  0.3896
  839MOL0     C15673   6.878   0.166   7.840 -0.0026 -0.2588 -0.4863
  839MOL0     C15674   6.887   0.029   7.786  0.2353  0.1578 -0.3944
  839MOL0     O15675   6.816  -0.010   7.676  0.4732  0.3184 -0.3874
  839MOL0     C15676   6.853  -0.115   7.592  0.0161 -0.7571 -0.4082
  839MOL0     C15677   6.983  -0.150   7.562 -1.1734 -0.0492 -0.4706
  839MOL0     C15678   7.003  -0.266   7.483  0.6063  0.2818 -0.1553
  839MOL0     C15679   6.892  -0.346   7.453 -0.7938  0.4327  0.2604
  839MOL0     O15680   6.918  -0.473   7.411  0.3725  0.0396  0.5533
  839MOL0     C15681   6.908  -0.589   7.509  0.4207  0.0200  0.6643
  839MOL0     C15682   6.771  -0.657   7.496  0.3979 -0.6967 -0.6171
  839MOL0     C15683   6.776  -0.805   7.536 -0.5799 -0.1787  0.2670
  839MOL0     C15684   6.649  -0.854   7.600  1.0988  0.0858  0.0757
  839MOL0     C15685   6.671  -0.999   7.652  0.2293 -0.3321  0.8371
  839MOL0     C15686   6.719  -1.108   7.552 -0.0944  0.8550 -0.9016
  839MOL0     C15687   6.756  -1.239   7.632  0.0845 -0.5173 -0.3479
  839MOL0     C15688   6.657  -1.291   7.734  0.1347  1.0794  0.3562
  839MOL0    Cl15689   6.678  -1.459   7.764 -0.3021 -0.7505  0.6014
  839MOL0     C15690   6.761  -0.291   7.453 -0.4282  0.5240  0.5634
  839MOL0     C15691   6.746  -0.175   7.527  0.2784 -0.1917 -0.7042
  839MOL0     O15692   6.970  -0.043   7.843 -0.0884 -0.4359  0.7724
  839MOL0     C15693   6.968   0.214   7.930 -0.0063 -0.6905 -0.3475
  839MOL0     C15694   6.985   0.353   7.960  0.0110 -0.2107  0.1473
  839MOL0     N15695   6.523   1.023   7.871  0.0135 -0.8568  0.4284
  839MOL0     N15696   6.422   1.105   7.885 -0.0004 -0.3495 -0.3501
  839MOL0     C15697   5.618   1.270   7.457 -1.3134  0.2184  0.7653
  839MOL0     C15698   5.578   1.142   7.416  0.6092 -0.2022 -0.6098
  839MOL0     C15699   5.512   0.681   7.389  0.2522  0.3563  0.7321
  839MOL0     C15700   5.409   0.700   7.289 -0.9122  0.1097  0.1724
  839MOL0     C15701   5.342   0.596   7.230 -0.7843  0.2630 -0.1838
  839MOL0     C15702   5.366   0.467   7.263 -0.0315  0.0661  0.0709
  839MOL0     O15703   5.283   0.375   7.203 -0.3034 -0.3079 -0.1422
  839MOL0     C15704   5.230   0.283   7.289  0.0418  0.3652  0.3419
  839MOL0     C15705   5.096   0.238   7.237  0.0697 -0.7602 -1.1142
  839MOL0     C15706   5.100   0.171   7.097 -0.2694  0.4919  0.0170
  839MOL0     C15707   4.964   0.138   7.031 -0.9329  0.7802  0.5938
  839MOL0     C15708   4.858   0.129   7.124 -1.2580  0.3694  0.1776
  839MOL0     C15709   4.782   0.115   7.215  1.4591  0.1098  0.2523
  839MOL0     C15710   5.478   0.444   7.351  0.5004 -0.1350  0.6174
  839MOL0     C15711   5.544   0.550   7.415  0.0635 -0.0803 -0.4187
  839MOL0     C15712   5.660   0.508   7.503 -0.5118 -0.5108  0.1324
  839MOL0     H15713   5.516   0.998   7.711  0.1020 -1.1422  0.2229
  839MOL0     H15714   5.586   1.206   7.796 -0.7556 -2.1387  0.5172
  839MOL0     H15715   5.640   1.437   7.863 -1.7600 -2.8236 -1.4177
  839MOL0     H15716   5.734   1.547   7.767 -0.7152  0.2340  1.3730
  839MOL0     H15717   5.797   1.239   7.800  1.7293 -0.4341 -0.2195
  839MOL0     H15718   5.911   1.365   7.750  0.0969 -3.3781 -1.9096
  839MOL0     H15719   5.910   1.437   8.001 -1.1100  0.8364 -1.1847
  839MOL0     H15720   5.761   1.349   8.021  0.6516  1.9518  0.6901
  839MOL0     H15721   5.891   1.127   7.988 -0.3123  0.5471 -2.9899
  839MOL0     H15722   6.042   1.203   7.944  1.3008 -0.5778  1.7294
  839MOL0     H15723   5.920   1.252   8.218 -2.0970 -5.4719  0.3853
  839MOL0     H15724   6.062   1.319   8.163  1.1924 -0.5299  1.4619
  839MOL0     H15725   6.099   1.121   8.292  1.9322 -0.3965  0.0770
  839MOL0     H15726   6.005   1.018   8.177 -0.9092  0.3926  0.2979
  839MOL0     H15727   6.159   1.026   8.015  0.0636  0.7064  0.2235
  839MOL0     H15728   6.248   0.988   8.164  2.0540 -1.2164 -2.9597
  839MOL0     H15729   6.241   1.251   8.006 -0.9473 -1.0992 -1.1036
  839MOL0     H15730   6.317   1.249   8.167  0.0064  2.5824 -2.2410
  839MOL0     H15731   6.519   1.072   8.185 -0.4787  0.6161 -0.5573
  839MOL0     H15732   6.669   0.811   8.024 -0.7252  1.7336  0.8981
  839MOL0     H15733   6.772   0.918   8.100  1.6691 -0.9158 -0.8147
  839MOL0     H15734   6.745   0.909   7.795 -1.9060  1.6438  0.9492
  839MOL0     H15735   6.850   1.017   7.896 -1.6209  0.5983  2.5282
  839MOL0     H15736   7.004   0.854   7.839  1.1023  1.0738  0.6888
  839MOL0     H15737   6.941   0.794   7.999 -0.6274 -2.2047  0.3887
  839MOL0     H15738   6.751   0.686   7.868 -0.5706  0.8843 -4.0579
  839MOL0     H15739   6.883   0.673   7.748  1.7689  2.1329  0.8022
  839MOL0     H15740   6.730   0.475   7.790 -0.3797  0.7463  3.3283
  839MOL0     H15741   6.612   0.127   7.713 -2.2657  1.1205 -0.5433
  839MOL0     H15742   6.719   0.195   7.584 -0.2564  3.4182 -0.8883
  839MOL0     H15743   6.595   0.292   7.673  0.6045 -0.3111 -2.0591
  839MOL0     H15744   7.077  -0.104   7.588 -0.9769  0.0655 -1.3330
  839MOL0     H15745   7.102  -0.307   7.465  0.1189 -0.2696 -1.8486
  839MOL0     H15746   6.994  -0.655   7.497  1.5804  1.8474 -1.8159
  839MOL0     H15747   6.922  -0.554   7.612 -0.9567  0.8754  0.5834
  839MOL0     H15748   6.707  -0.613   7.573 -0.3172 -1.5350 -0.7237
  839MOL0     H15749   6.725  -0.638   7.399  3.6200  0.0357 -2.1558
  839MOL0     H15750   6.862  -0.810   7.603 -2.6278  2.4535  3.3763
  839MOL0     H15751   6.802  -0.865   7.448  1.7860  0.5058  0.4166
  839MOL0     H15752   6.565  -0.834   7.533  1.4063  2.1501  0.2407
  839MOL0     H15753   6.636  -0.791   7.689 -1.1906  1.4926 -1.1616
  839MOL0     H15754   6.739  -0.994   7.738  0.1447  0.9598  0.8469
  839MOL0     H15755   6.577  -1.041   7.687  1.4723 -1.3151  3.2149
  839MOL0     H15756   6.801  -1.079   7.486  0.1561 -3.3713 -2.7269
  839MOL0     H15757   6.631  -1.141   7.496 -1.5324  2.3206  0.3592
  839MOL0     H15758   6.855  -1.230   7.677  0.4447  0.2708 -1.2532
  839MOL0     H15759   6.763  -1.315   7.554  1.1682  2.1069 -3.0159
  839MOL0     H15760   6.550  -1.273   7.716 -0.5189 -0.3083  2.5181
  839MOL0     H15761   6.672  -1.236   7.827 -0.7716  1.7007  0.1532
  839MOL0     H15762   6.680  -0.347   7.408 -0.6038  1.6121 -0.5269
  839MOL0     H15763   6.649  -0.127   7.536 -0.7818 -2.2789 -0.4281
  839MOL0     H15764   7.035   0.137   7.966 -1.0288 -1.2498  0.3992
  839MOL0     H15765   7.064   0.372   8.032  1.6464 -0.7890 -1.4314
  839MOL0     H15766   5.631   1.346   7.380  0.8358 -2.3265 -1.6164
  839MOL0     H15767   5.577   1.135   7.308  1.3240  1.2555 -0.7372
  839MOL0     H15768   5.389   0.802   7.260  1.2028  0.8439  1.0710
  839MOL0     H15769   5.270   0.624   7.153  1.1731 -1.6496 -2.8952
  839MOL0     H15770   5.290   0.191   7.284  0.7365  0.8414 -0.1910
  839MOL0     H15771   5.216   0.316   7.393 -0.3526 -2.2597  1.2049
  839MOL0     H15772   5.032   0.326   7.245 -1.2657 -1.8467  1.4619
  839MOL0     H15773   5.056   0.171   7.314  0.3179  0.1345 -0.1800
  839MOL0     H15774   5.162   0.226   7.025  3.4643 -1.6238  1.3299
  839MOL0     H15775   5.160   0.079   7.094  1.8781  1.5569 -6.6155
  839MOL0     H15776   4.965   0.043   6.977 -0.4290  1.7313 -1.1750
  839MOL0     H15777   4.945   0.217   6.957 -2.0559 -0.7703 -0.8489
  839MOL0     H15778   4.703   0.114   7.287  2.5800 -0.4858  1.5325
  839MOL0     H15779   5.495   0.338   7.367  0.9049 -0.1371  0.2073
  839MOL0     H15780   5.758   0.501   7.455  1.0110 -1.1727  3.0702
  839MOL0     H15781   5.656   0.577   7.588 -2.2287  0.5470 -0.7460
  839MOL0     H15782   5.640   0.408   7.543 -0.4797 -1.0541 -1.1831
  840MOL0     O15783   7.893   2.693   3.292  0.6442 -0.5906 -0.7983
  840MOL0     C15784   7.900   2.742   3.405  0.0045  0.9393 -0.3772
  840MOL0     O15785   7.985   2.832   3.450  0.8289 -0.8001  0.2844
  840MOL0     C15786   8.097   2.874   3.383 -0.5585  0.1472  0.5229
  840MOL0     C15787   8.188   2.777   3.325  0.4707  0.0531 -0.4107
  840MOL0     C15788   8.304   2.809   3.258 -0.6899  0.6471 -0.0974
  840MOL0     C15789   8.349   2.948   3.258  0.9252  0.0228 -0.5566
  840MOL0     O15790   8.465   2.992   3.194  0.8806 -0.0973  0.2665
  840MOL0     C15791   8.526   2.924   3.087  0.2940  0.3204 -0.2473
  840MOL0     C15792   8.557   3.026   2.983 -0.2439  0.3305  0.0309
  840MOL0     C15793   8.679   3.112   3.001 -0.4438 -0.5847 -0.3577
  840MOL0     C15794   8.699   3.204   2.876  0.8391  0.2340  0.3977
  840MOL0     C15795   8.735   3.124   2.751 -0.2845 -0.1402 -0.3895
  840MOL0     C15796   8.828   3.207   2.658 -0.3998  1.3039 -0.0137
  840MOL0     C15797   8.834   3.141   2.520  0.2741 -0.0881 -1.7281
  840MOL0     C15798   8.919   3.220   2.410 -0.4859 -0.0021 -0.2985
  840MOL0     N15799   9.059   3.214   2.440  0.1148  0.6166 -0.2201
  840MOL0     C15800   9.122   3.306   2.521 -0.1993 -0.6323  0.7262
  840MOL0     C15801   9.252   3.303   2.481  0.3741  0.5989 -0.2094
  840MOL0     C15802   9.357   3.400   2.519 -0.4376 -0.1480  0.0664
  840MOL0     C15803   9.372   3.417   2.665 -0.7911 -0.7431  0.3578
  840MOL0     C15804   9.421   3.287   2.732  0.8814  1.4652 -1.0562
  840MOL0     C15805   9.491   3.315   2.864 -0.1016  0.1720  0.7866
  840MOL0     O15806   9.397   3.374   2.957 -0.4191  0.4839 -0.4119
  840MOL0     C15807   9.302   3.302   3.025  0.3298  0.4759  0.0199
  840MOL0     C15808   9.223   3.378   3.111  0.6695 -0.2281  0.2787
  840MOL0     C15809   9.133   3.311   3.192 -0.7575 -0.1529 -0.8201
  840MOL0     C15810   9.050   3.409   3.287  0.6381  0.7903 -0.7104
  840MOL0     C15811   9.124   3.164   3.190 -0.3601  0.1880 -0.4508
  840MOL0     C15812   9.031   3.091   3.274  0.6369 -0.7278  0.9269
  840MOL0     O15813   9.012   2.954   3.244 -0.4684 -0.8509  0.1846
  840MOL0     C15814   8.924   2.879   3.324  0.8942  0.0097 -0.0192
  840MOL0     C15815   8.808   2.923   3.391  0.6681  0.4102 -0.1580
  840MOL0     C15816   8.736   2.832   3.469  0.0585  0.8248 -0.3153
  840MOL0     C15817   8.767   2.695   3.474 -0.4964 -0.8412  0.6191
  840MOL0     O15818   8.684   2.608   3.533 -0.1232 -0.4042 -0.1765
  840MOL0     C15819   8.730   2.522   3.637  0.2087  0.3234 -0.5930
  840MOL0     C15820   8.753   2.583   3.776 -0.1751  0.5252  0.5403
  840MOL0     C15821   8.778   2.476   3.886 -0.9653 -0.9450 -0.3248
  840MOL0     C15822   8.731   2.542   4.014 -1.0502 -0.7475 -0.3416
  840MOL0     C15823   8.741   2.444   4.133  0.2108  0.4964 -0.1321
  840MOL0     C15824   8.667   2.482   4.255 -0.3827  0.4190  0.0279
  840MOL0     C15825   8.705   2.400   4.382 -0.7113  0.5253  0.7908
  840MOL0     C15826   8.618   2.430   4.507 -0.3784  0.1140 -0.2017
  840MOL0    Cl15827   8.662   2.311   4.623 -0.0306  0.2581 -0.1528
  840MOL0     C15828   8.882   2.653   3.403  0.4337  0.0984  0.7665
  840MOL0     C15829   8.960   2.743   3.330 -1.0595 -0.7450  1.3254
  840MOL0     O15830   8.979   3.152   3.367 -0.1348  0.3335  0.3686
  840MOL0     C15831   9.207   3.092   3.100 -0.1618  0.3601  0.4340
  840MOL0     C15832   9.301   3.161   3.020 -0.2777  1.1114 -0.4499
  840MOL0     N15833   9.273   3.201   2.387 -0.2362  0.1117 -0.2006
  840MOL0     N15834   9.154   3.149   2.361  0.1400 -0.2713  0.7290
  840MOL0     C15835   8.268   3.040   3.324  0.0255 -0.1773  0.5602
  840MOL0     C15836   8.146   3.001   3.383  0.1308 -0.3551  0.9583
  840MOL0     C15837   7.787   2.717   3.493 -0.5977  0.7567 -0.0581
  840MOL0     C15838   7.732   2.827   3.556 -0.0447 -0.4042 -0.1001
  840MOL0     C15839   7.622   2.812   3.643 -0.3475 -0.4660 -0.5215
  840MOL0     C15840   7.561   2.690   3.657  0.1847  0.3010  0.4252
  840MOL0     O15841   7.445   2.699   3.725 -0.2902  0.8735  0.3308
  840MOL0     C15842   7.331   2.684   3.641 -0.3231 -0.5048 -0.2448
  840MOL0     C15843   7.274   2.824   3.599 -0.5645  0.1082 -0.8141
  840MOL0     C15844   7.137   2.810   3.537  0.1559  1.0172  0.3124
  840MOL0     C15845   7.122   2.694   3.427 -0.1476  0.6605 -1.1606
  840MOL0     C15846   7.105   2.557   3.489 -0.0608  0.4088  0.0728
  840MOL0     C15847   7.074   2.448   3.547  0.1888 -0.8925  0.3925
  840MOL0     C15848   7.610   2.584   3.593  0.3761  0.6310  0.5522
  840MOL0     C15849   7.726   2.590   3.502 -0.4927 -0.7808 -0.2433
  840MOL0     C15850   7.762   2.468   3.417  0.2370 -0.7365 -0.1635
  840MOL0     H15851   8.160   2.675   3.349  0.7419 -0.0662 -0.6099
  840MOL0     H15852   8.355   2.723   3.216 -0.6666  0.5758  0.0767
  840MOL0     H15853   8.450   2.859   3.044  0.8467 -1.9113  1.9531
  840MOL0     H15854   8.612   2.866   3.121 -0.2818 -0.9328 -0.8629
  840MOL0     H15855   8.582   2.968   2.894 -1.6440 -1.7479  0.9042
  840MOL0     H15856   8.461   3.078   2.975 -0.2246  0.2716 -0.6356
  840MOL0     H15857   8.671   3.173   3.091  0.6080  1.5961 -1.6664
  840MOL0     H15858   8.769   3.053   3.023  1.0220  2.5116  3.1993
  840MOL0     H15859   8.620   3.277   2.860  2.6514  1.9161 -1.2897
  840MOL0     H15860   8.785   3.267   2.897 -0.4427  2.1230  0.2138
  840MOL0     H15861   8.642   3.099   2.700 -0.2523 -0.0455 -0.4963
  840MOL0     H15862   8.795   3.038   2.781 -4.0369 -2.6182  0.6447
  840MOL0     H15863   8.788   3.307   2.643  0.5794  1.6794 -0.2058
  840MOL0     H15864   8.925   3.213   2.709  1.5084 -2.4525 -2.7008
  840MOL0     H15865   8.730   3.129   2.488  0.5191  0.1874 -2.6714
  840MOL0     H15866   8.871   3.038   2.529  1.2667  0.1403 -2.9644
  840MOL0     H15867   8.915   3.180   2.308  2.0131  1.7144 -1.1564
  840MOL0     H15868   8.881   3.322   2.402 -0.5799 -0.0254 -0.1379
  840MOL0     H15869   9.073   3.384   2.578  0.9736  0.6783 -0.0036
  840MOL0     H15870   9.328   3.496   2.475 -1.3037  0.3000  1.5494
  840MOL0     H15871   9.452   3.381   2.468 -0.2259  0.2256  0.3140
  840MOL0     H15872   9.446   3.496   2.677 -1.7378  0.1978  0.0875
  840MOL0     H15873   9.277   3.454   2.704 -1.8921 -1.3303 -1.6326
  840MOL0     H15874   9.333   3.223   2.745  0.6681  1.7039 -1.3063
  840MOL0     H15875   9.485   3.232   2.663  0.9781  0.3272 -0.0882
  840MOL0     H15876   9.552   3.231   2.897  1.7138 -0.5496 -3.6984
  840MOL0     H15877   9.566   3.393   2.846  0.0425 -0.2013 -0.2742
  840MOL0     H15878   9.243   3.485   3.114 -1.2485  0.1926  3.6546
  840MOL0     H15879   9.077   3.514   3.277 -2.3206  1.7482  0.1957
  840MOL0     H15880   9.064   3.378   3.391 -1.9975 -1.1437 -0.8361
  840MOL0     H15881   8.942   3.405   3.266  0.2164 -1.0895  1.3818
  840MOL0     H15882   8.778   3.027   3.390  3.1585  1.1795  0.1863
  840MOL0     H15883   8.647   2.864   3.521  0.2303  0.7244  0.0461
  840MOL0     H15884   8.656   2.442   3.642  0.6564 -0.0672 -0.1369
  840MOL0     H15885   8.824   2.472   3.610 -0.3509 -1.7788  1.1261
  840MOL0     H15886   8.837   2.652   3.771  1.2514 -1.2088 -0.8446
  840MOL0     H15887   8.665   2.639   3.808 -2.4082 -1.3245 -1.8851
  840MOL0     H15888   8.883   2.447   3.887 -0.7278 -0.2458  2.4064
  840MOL0     H15889   8.721   2.383   3.874  2.7374 -3.4336 -0.0954
  840MOL0     H15890   8.633   2.590   4.015 -1.8355 -2.2557 -0.9617
  840MOL0     H15891   8.808   2.619   4.023 -0.7033 -1.1646  0.3577
  840MOL0     H15892   8.708   2.346   4.097 -1.3390  0.9483  0.0038
  840MOL0     H15893   8.846   2.428   4.160 -0.0232 -1.0192 -0.0237
  840MOL0     H15894   8.558   2.493   4.245 -0.1304  1.5573 -2.0356
  840MOL0     H15895   8.694   2.584   4.283  0.4133  1.0174 -2.6920
  840MOL0     H15896   8.813   2.416   4.392 -0.3909 -0.8518 -0.2175
  840MOL0     H15897   8.692   2.295   4.355  0.4538  0.6566 -0.3432
  840MOL0     H15898   8.512   2.425   4.483 -1.6058 -1.3514  4.5108
  840MOL0     H15899   8.642   2.526   4.553  1.3425 -1.8492  3.4473
  840MOL0     H15900   8.902   2.547   3.389 -1.3712 -0.2110  0.2414
  840MOL0     H15901   9.047   2.698   3.285 -0.9711 -2.0226  2.7216
  840MOL0     H15902   9.212   2.983   3.104 -1.5487  0.3017  1.3448
  840MOL0     H15903   9.373   3.112   2.956  1.4643  4.1722 -1.0488
  840MOL0     H15904   8.286   3.146   3.314  2.0140 -0.6762 -2.6483
  840MOL0     H15905   8.071   3.070   3.418 -0.2478  0.9705 -2.1563
  840MOL0     H15906   7.769   2.926   3.532  1.6945 -0.3013  2.5625
  840MOL0     H15907   7.559   2.896   3.670  1.8955  1.2860 -0.4542
  840MOL0     H15908   7.356   2.632   3.548  1.5701 -0.1450  0.0271
  840MOL0     H15909   7.258   2.625   3.698 -1.2709 -0.2457 -1.1765
  840MOL0     H15910   7.352   2.856   3.529 -0.2850  1.0858 -0.0680
  840MOL0     H15911   7.263   2.899   3.678 -1.1141  2.8813 -3.3383
  840MOL0     H15912   7.061   2.800   3.616  1.5485  2.0208  1.8558
  840MOL0     H15913   7.113   2.909   3.497  0.3725  0.0604 -2.3663
  840MOL0     H15914   7.211   2.699   3.364 -0.3162  2.5845 -1.2959
  840MOL0     H15915   7.031   2.698   3.366 -0.9219 -0.4612 -0.1262
  840MOL0     H15916   7.062   2.356   3.601  0.1305  0.2023  2.3364
  840MOL0     H15917   7.555   2.491   3.593 -1.0939  1.4219 -1.7592
  840MOL0     H15918   7.867   2.452   3.443  0.4098  0.2433 -0.2093
  840MOL0     H15919   7.708   2.377   3.444  1.6551 -0.8567  2.6463
  840MOL0     H15920   7.747   2.475   3.309  0.9888  0.0553 -0.2277
  841MOL0     O15921   1.451   2.184   0.938  0.1967 -0.2548 -0.0922
  841MOL0     C15922   1.443   2.241   0.830 -0.2656  0.1150  0.6764
  841MOL0     O15923   1.527   2.225   0.725  0.3988 -0.2842  0.8321
  841MOL0     C15924   1.639   2.151   0.738 -0.7101  0.5918 -0.1320
  841MOL0     C15925   1.734   2.148   0.843  0.3323 -0.2786  0.1887
  841MOL0     C15926   1.847   2.067   0.841 -0.7589  0.1468  0.1537
  841MOL0     C15927   1.858   1.978   0.746 -0.2163 -0.4394 -0.3053
  841MOL0     O15928   1.970   1.907   0.755 -0.3053 -0.1953  0.7827
  841MOL0     C15929   1.970   1.769   0.707 -0.2818 -1.0955  1.1122
  841MOL0     C15930   2.045   1.665   0.792  0.6185 -0.3169  0.1332
  841MOL0     C15931   2.048   1.528   0.716  0.4354 -0.6536  0.2057
  841MOL0     C15932   2.119   1.432   0.794 -0.5699  0.1891 -0.2097
  841MOL0     C15933   2.103   1.287   0.754  0.0424  0.3487  0.0621
  841MOL0     C15934   1.993   1.211   0.818 -0.8006 -0.3805  0.0757
  841MOL0     C15935   1.940   1.088   0.736  0.2257 -0.8192  0.7575
  841MOL0     C15936   2.038   0.976   0.744  0.1244  0.3259 -0.2104
  841MOL0     N15937   2.133   0.977   0.625  0.5069 -0.2049 -0.0731
  841MOL0     C15938   2.105   0.945   0.499  0.3314  0.1744  0.1062
  841MOL0     C15939   2.226   0.967   0.432  0.5057  0.2867  0.1405
  841MOL0     C15940   2.255   0.956   0.286  0.1279  0.3614 -0.6008
  841MOL0     C15941   2.231   0.825   0.222  0.2693 -0.2327 -0.1143
  841MOL0     C15942   2.235   0.841   0.069 -0.0088  0.2551  0.2750
  841MOL0     C15943   2.232   0.710  -0.002 -0.0232  0.3141  0.1924
  841MOL0     O15944   2.101   0.649  -0.002  0.1113 -0.1663 -0.2855
  841MOL0     C15945   2.051   0.582  -0.106  0.0876  0.0179  0.8707
  841MOL0     C15946   2.113   0.467  -0.159  0.0122  0.2122  0.0533
  841MOL0     C15947   2.060   0.391  -0.261 -0.0046 -0.3033  0.6075
  841MOL0     C15948   2.142   0.281  -0.326 -0.6447  0.3506  0.4867
  841MOL0     C15949   1.938   0.437  -0.316 -0.5546 -0.0283  0.4057
  841MOL0     C15950   1.862   0.347  -0.407  0.9163 -0.0938 -1.2766
  841MOL0     O15951   1.862   0.208  -0.389  0.5451  0.2915 -0.2463
  841MOL0     C15952   1.813   0.123  -0.488  0.0848  0.1866  0.1031
  841MOL0     C15953   1.782  -0.005  -0.443 -0.3349 -0.1206  0.3103
  841MOL0     C15954   1.740  -0.103  -0.541 -1.1028 -0.3622  0.8237
  841MOL0     C15955   1.744  -0.075  -0.680 -0.2844  0.4555  0.5051
  841MOL0     O15956   1.707  -0.169  -0.771  0.1653  0.4173  0.2035
  841MOL0     C15957   1.701  -0.303  -0.742 -0.4868  0.3560  0.2734
  841MOL0     C15958   1.659  -0.371  -0.879 -0.2741 -0.5735  0.2062
  841MOL0     C15959   1.776  -0.371  -0.974 -0.6184  0.6760 -0.0185
  841MOL0     C15960   1.781  -0.480  -1.084  0.0810  0.5468 -0.0050
  841MOL0     C15961   1.912  -0.479  -1.160 -0.1321  0.1517 -0.7595
  841MOL0     C15962   1.896  -0.550  -1.298  1.1615  0.0858  0.3226
  841MOL0     C15963   2.032  -0.563  -1.365 -0.2015  0.4529 -0.4670
  841MOL0     C15964   2.034  -0.641  -1.494 -0.2721 -0.0324  0.5421
  841MOL0    Cl15965   1.954  -0.533  -1.628  0.5157 -0.0290  0.0459
  841MOL0     C15966   1.787   0.048  -0.726  0.4739 -0.0820 -0.4327
  841MOL0     C15967   1.816   0.147  -0.637  0.0503  0.6083 -0.7213
  841MOL0     O15968   1.799   0.404  -0.497 -0.7716  0.5197  0.3111
  841MOL0     C15969   1.868   0.553  -0.265 -0.1963 -0.0663  1.2350
  841MOL0     C15970   1.930   0.622  -0.163 -0.2157 -0.6474  0.2176
  841MOL0     N15971   2.316   0.999   0.530  0.2367 -0.2505 -0.3399
  841MOL0     N15972   2.258   0.996   0.645 -0.9498 -0.0560 -0.0883
  841MOL0     C15973   1.764   1.969   0.649 -1.1935  1.2788  0.2815
  841MOL0     C15974   1.652   2.055   0.649  0.5487 -0.4714 -0.6296
  841MOL0     C15975   1.319   2.312   0.794 -0.2838  0.1147 -0.0328
  841MOL0     C15976   1.340   2.432   0.719  0.0605  0.0576  0.3097
  841MOL0     C15977   1.235   2.521   0.692  0.2375 -0.2238  0.1150
  841MOL0     C15978   1.103   2.481   0.713 -0.1517 -0.8483  0.0503
  841MOL0     O15979   0.987   2.529   0.657  0.1264 -0.1562  0.0382
  841MOL0     C15980   1.000   2.623   0.544 -0.0568  1.0028  0.0260
  841MOL0     C15981   0.868   2.670   0.491 -0.3431 -0.3459 -0.5451
  841MOL0     C15982   0.777   2.747   0.589 -0.7202  0.3316 -0.1094
  841MOL0     C15983   0.635   2.779   0.535  0.2057  0.2496  0.4992
  841MOL0     C15984   0.538   2.830   0.638  0.5926 -0.0970 -0.4085
  841MOL0     C15985   0.485   2.877   0.734  0.5167 -0.3192 -0.1653
  841MOL0     C15986   1.083   2.357   0.785 -0.3029  0.1030  0.6301
  841MOL0     C15987   1.186   2.280   0.835  0.8946  0.1912 -0.6704
  841MOL0     C15988   1.161   2.143   0.909  0.5238  0.1383 -0.4962
  841MOL0     H15989   1.717   2.207   0.932  1.4639  0.6378 -0.1818
  841MOL0     H15990   1.926   2.078   0.915 -1.1481  1.8436  0.3435
  841MOL0     H15991   2.015   1.773   0.608 -1.2217  0.1134  0.7115
  841MOL0     H15992   1.866   1.737   0.693  0.0123 -1.1285 -1.3864
  841MOL0     H15993   2.147   1.693   0.818 -0.5464  1.8740  2.7188
  841MOL0     H15994   1.987   1.635   0.879  0.5429 -2.4851 -0.5771
  841MOL0     H15995   1.945   1.500   0.692 -0.6784  0.9443  2.7579
  841MOL0     H15996   2.111   1.543   0.627  2.4996  1.5990  1.9071
  841MOL0     H15997   2.227   1.447   0.789  0.2710 -4.6511 -2.2823
  841MOL0     H15998   2.087   1.433   0.898 -1.6998  0.3837 -0.5455
  841MOL0     H15999   2.195   1.237   0.786  0.6930  2.2221  1.2838
  841MOL0     H16000   2.091   1.272   0.647 -2.5850 -3.0446  0.6493
  841MOL0     H16001   2.021   1.181   0.919 -4.0281 -1.0187  0.8794
  841MOL0     H16002   1.906   1.276   0.821 -0.5189 -0.0157  2.6763
  841MOL0     H16003   1.926   1.119   0.632  1.9348 -0.1566  0.6950
  841MOL0     H16004   1.848   1.041   0.772  0.3049 -2.3330 -0.8847
  841MOL0     H16005   2.076   0.992   0.846  0.5246  2.1628 -0.6071
  841MOL0     H16006   1.979   0.885   0.739 -0.9096  0.9723 -0.1407
  841MOL0     H16007   2.011   0.922   0.449  0.8050  2.2505 -1.9085
  841MOL0     H16008   2.360   0.980   0.265  0.0054  0.6000 -0.9452
  841MOL0     H16009   2.186   1.024   0.236 -1.7176 -0.4447  0.7285
  841MOL0     H16010   2.314   0.760   0.250  0.3886 -0.1179 -0.2027
  841MOL0     H16011   2.133   0.782   0.246  0.1631 -1.2587 -2.1783
  841MOL0     H16012   2.146   0.892   0.029 -1.0951 -0.8331  1.2153
  841MOL0     H16013   2.322   0.900   0.040 -0.9130  1.7771  0.5121
  841MOL0     H16014   2.260   0.726  -0.107 -1.8157 -0.1844 -0.3980
  841MOL0     H16015   2.299   0.645   0.055  1.9456  3.0230  1.2029
  841MOL0     H16016   2.203   0.433  -0.107 -0.7264  0.7161  1.7404
  841MOL0     H16017   2.154   0.310  -0.431 -0.8448  0.1811  0.4156
  841MOL0     H16018   2.092   0.183  -0.326  0.7976 -0.4621  2.9015
  841MOL0     H16019   2.236   0.263  -0.273 -1.4575 -1.5925  1.3663
  841MOL0     H16020   1.773  -0.029  -0.337  2.4226  0.1115  0.6671
  841MOL0     H16021   1.702  -0.194  -0.496  1.7842 -2.4327 -0.6092
  841MOL0     H16022   1.798  -0.345  -0.714 -2.0311 -2.3790  1.9394
  841MOL0     H16023   1.626  -0.327  -0.667 -0.7068 -1.5922 -0.5041
  841MOL0     H16024   1.637  -0.476  -0.858 -1.8682  0.4148  4.4662
  841MOL0     H16025   1.571  -0.327  -0.928  0.6680  0.4584 -0.6127
  841MOL0     H16026   1.870  -0.361  -0.919  0.3098  0.4574 -1.5272
  841MOL0     H16027   1.766  -0.281  -1.035 -0.3031 -0.3839 -1.6753
  841MOL0     H16028   1.696  -0.473  -1.152 -0.9876  0.1189  1.2368
  841MOL0     H16029   1.762  -0.576  -1.034 -0.7329  0.3599 -0.6485
  841MOL0     H16030   1.964  -0.383  -1.154  1.7644 -0.8741  3.9454
  841MOL0     H16031   1.984  -0.535  -1.099  1.5117  1.2848 -1.5837
  841MOL0     H16032   1.839  -0.490  -1.369  0.8848  0.6192  0.9784
  841MOL0     H16033   1.853  -0.651  -1.292 -1.3026  0.9466 -1.3560
  841MOL0     H16034   2.111  -0.611  -1.307  1.0157 -0.1576 -2.5360
  841MOL0     H16035   2.067  -0.461  -1.386  3.9394 -0.0441  2.6471
  841MOL0     H16036   1.963  -0.724  -1.490 -1.2808  0.6744 -1.2623
  841MOL0     H16037   2.138  -0.673  -1.505  0.2149  1.6014 -0.0357
  841MOL0     H16038   1.800   0.083  -0.827  1.1930 -0.5121 -0.4924
  841MOL0     H16039   1.859   0.245  -0.658 -1.7546  1.9567  1.3526
  841MOL0     H16040   1.773   0.588  -0.303 -2.7619 -3.3396  4.0215
  841MOL0     H16041   1.887   0.712  -0.119 -0.5862  0.8531 -2.9335
  841MOL0     H16042   1.796   1.900   0.571  2.0596  0.7294  1.9204
  841MOL0     H16043   1.577   2.064   0.570 -2.1630 -1.1536  1.7073
  841MOL0     H16044   1.444   2.452   0.698 -0.1652  1.6915  0.5662
  841MOL0     H16045   1.259   2.620   0.654  0.7178 -1.0176 -1.7553
  841MOL0     H16046   1.049   2.715   0.576 -1.9657  2.1921 -0.3407
  841MOL0     H16047   1.062   2.580   0.465  0.4825  1.8946 -0.0491
  841MOL0     H16048   0.816   2.581   0.455  0.2690 -1.1340  0.4683
  841MOL0     H16049   0.877   2.731   0.401 -1.6583 -1.5186 -1.5153
  841MOL0     H16050   0.783   2.683   0.677  2.8761 -3.8946 -2.9542
  841MOL0     H16051   0.827   2.840   0.615  2.1432  0.0759 -3.8974
  841MOL0     H16052   0.588   2.687   0.499  2.4212 -0.0865 -1.8706
  841MOL0     H16053   0.646   2.858   0.459  1.8402 -1.1213 -0.7829
  841MOL0     H16054   0.439   2.930   0.815 -0.0402  0.2900 -0.8505
  841MOL0     H16055   0.986   2.314   0.809 -0.0166 -0.8798  0.0836
  841MOL0     H16056   1.053   2.128   0.916  0.0658  0.7327 -4.1548
  841MOL0     H16057   1.201   2.055   0.859 -1.6035 -3.1306  3.0275
  841MOL0     H16058   1.192   2.143   1.014  0.1777  0.9197 -0.3838
  842MOL0     O16059   8.951   2.965   7.990 -0.7221 -0.1834 -0.6446
  842MOL0     C16060   8.894   2.990   8.095 -1.3801 -0.3487 -0.4268
  842MOL0     O16061   8.902   2.923   8.211  0.0352 -0.7408 -0.4409
  842MOL0     C16062   8.999   2.823   8.223 -0.1235  0.3454  0.3769
  842MOL0     C16063   9.071   2.807   8.340 -0.1689  0.0815 -0.7073
  842MOL0     C16064   9.175   2.709   8.359  0.4738  0.1625 -0.3694
  842MOL0     C16065   9.188   2.610   8.263 -0.5056 -0.0862  0.1204
  842MOL0     O16066   9.297   2.526   8.286 -0.2651  0.1683  0.2487
  842MOL0     C16067   9.331   2.441   8.183  0.1515 -0.2111  0.0103
  842MOL0     C16068   9.465   2.371   8.223  0.5598  0.3677  0.1168
  842MOL0     C16069   9.509   2.291   8.099  0.2186  0.0218  0.6411
  842MOL0     C16070   9.456   2.152   8.082 -0.2736  0.9030  0.0087
  842MOL0     C16071   9.556   2.059   8.010 -1.3107  0.4438  0.0006
  842MOL0     C16072   9.521   1.917   8.029 -0.3400  0.5174  0.0509
  842MOL0     C16073   9.615   1.810   7.963  0.8306 -0.0411  0.1612
  842MOL0     C16074   9.627   1.809   7.806 -1.2011  0.7134 -0.3796
  842MOL0     N16075   9.748   1.724   7.765 -0.7821 -0.1451 -1.2286
  842MOL0     C16076   9.737   1.593   7.721 -0.2273 -0.2003  0.0153
  842MOL0     C16077   9.860   1.548   7.725 -0.6479  0.6216  0.4691
  842MOL0     C16078   9.922   1.403   7.701  0.9634 -0.1982  0.0697
  842MOL0     C16079  10.069   1.395   7.658 -0.3444  0.5445  0.1120
  842MOL0     C16080  10.116   1.255   7.655  1.2633  1.0725 -0.0341
  842MOL0     C16081  10.043   1.169   7.543  0.1044  0.7170  0.2011
  842MOL0     O16082  10.014   1.227   7.409  0.1819 -0.0642 -0.3547
  842MOL0     C16083  10.121   1.271   7.342 -0.2601 -0.5101 -0.1381
  842MOL0     C16084  10.102   1.395   7.275 -0.0599 -0.4394  0.4927
  842MOL0     C16085  10.196   1.451   7.190 -0.1451 -0.5325 -0.1993
  842MOL0     C16086  10.152   1.566   7.104  0.1254 -0.0710  0.7303
  842MOL0     C16087  10.317   1.385   7.177  0.2134 -0.5463 -1.1354
  842MOL0     C16088  10.438   1.437   7.105  0.6668  0.4295  0.3047
  842MOL0     O16089  10.429   1.545   7.023  0.2934 -0.2204 -0.0692
  842MOL0     C16090  10.545   1.618   6.999  0.1467  0.7389  0.2329
  842MOL0     C16091  10.576   1.644   6.869 -0.1283  0.5655 -0.0831
  842MOL0     C16092  10.683   1.719   6.831 -1.1221 -0.6259 -0.9828
  842MOL0     C16093  10.776   1.759   6.931 -0.2919  0.0394  0.3116
  842MOL0     O16094  10.891   1.824   6.899 -0.5091  0.0104  0.9130
  842MOL0     C16095  10.905   1.901   6.778 -0.4717 -1.2866 -0.1707
  842MOL0     C16096  11.041   1.885   6.704  0.0295  0.4429 -0.2584
  842MOL0     C16097  11.086   1.741   6.665  0.0346 -0.0787 -0.1553
  842MOL0     C16098  10.990   1.675   6.553  0.0647 -0.1034 -1.0811
  842MOL0     C16099  11.051   1.533   6.521  0.1394 -0.0827 -0.0093
  842MOL0     C16100  11.000   1.473   6.384  0.3115 -0.2031  0.0080
  842MOL0     C16101  10.841   1.440   6.393  0.4472  0.4329  0.2885
  842MOL0     C16102  10.809   1.309   6.321  0.8691 -0.7668 -1.2254
  842MOL0    Cl16103  10.863   1.302   6.154  0.0806 -0.0316  0.0608
  842MOL0     C16104  10.741   1.746   7.069 -0.5486  0.7248  0.4052
  842MOL0     C16105  10.629   1.668   7.103  1.1575 -0.1835 -0.3669
  842MOL0     O16106  10.551   1.380   7.128 -0.0562  0.0754  0.0837
  842MOL0     C16107  10.342   1.264   7.253  1.4892 -0.4747 -1.0344
  842MOL0     C16108  10.245   1.205   7.338 -0.6762 -0.6618  0.1043
  842MOL0     N16109   9.947   1.651   7.766 -1.1376  0.6453 -0.2316
  842MOL0     N16110   9.874   1.753   7.795  0.3564 -0.4663  1.0456
  842MOL0     C16111   9.104   2.608   8.144  0.1148 -0.8752 -0.1526
  842MOL0     C16112   9.014   2.722   8.122  0.1712  0.8112 -0.4587
  842MOL0     C16113   8.796   3.105   8.085 -1.1065  0.7268  0.3127
  842MOL0     C16114   8.671   3.078   8.154 -0.5499 -0.7006 -0.1029
  842MOL0     C16115   8.576   3.184   8.153  0.1544  1.2443 -0.2643
  842MOL0     C16116   8.594   3.298   8.086  0.5805  0.2496 -0.1748
  842MOL0     O16117   8.502   3.389   8.096 -0.0199 -0.8047  0.6973
  842MOL0     C16118   8.377   3.375   8.016 -0.5310 -0.2047 -0.5300
  842MOL0     C16119   8.315   3.512   8.001  0.1579 -0.2425  0.2007
  842MOL0     C16120   8.164   3.535   8.034  0.0953 -0.4755 -0.4793
  842MOL0     C16121   8.131   3.510   8.184  1.0636 -0.4819  0.7928
  842MOL0     C16122   8.029   3.608   8.228 -0.2556  0.3581  0.4591
  842MOL0     C16123   7.945   3.688   8.263  0.4486 -0.0932  0.2499
  842MOL0     C16124   8.717   3.327   8.022  0.3743  0.1352  1.1398
  842MOL0     C16125   8.816   3.227   8.019 -0.0301  0.3765  0.4456
  842MOL0     C16126   8.942   3.252   7.949  1.3397  0.3046  0.2913
  842MOL0     H16127   9.063   2.889   8.410 -2.2075 -2.3173  2.0974
  842MOL0     H16128   9.240   2.704   8.445 -2.4273  2.0128  2.1288
  842MOL0     H16129   9.339   2.501   8.093  1.6911 -1.6472 -0.8755
  842MOL0     H16130   9.248   2.370   8.172 -0.1099  0.1950 -0.7062
  842MOL0     H16131   9.543   2.444   8.245 -0.3578  1.0070  1.3654
  842MOL0     H16132   9.452   2.302   8.307  0.1840  2.0809  1.5260
  842MOL0     H16133   9.511   2.346   8.005  1.0556 -0.8142  0.1481
  842MOL0     H16134   9.617   2.275   8.112  0.3703  1.8487  1.9570
  842MOL0     H16135   9.424   2.104   8.175 -0.6385 -4.5377 -2.5631
  842MOL0     H16136   9.362   2.159   8.027  0.1602  0.5942 -0.7808
  842MOL0     H16137   9.662   2.065   8.039 -0.9901 -0.6708 -0.8711
  842MOL0     H16138   9.554   2.074   7.902  1.6784  0.4361 -0.1476
  842MOL0     H16139   9.501   1.885   8.132 -1.7523  0.2284 -0.2935
  842MOL0     H16140   9.421   1.899   7.987  0.3222 -0.5128 -1.1677
  842MOL0     H16141   9.582   1.712   7.999  0.8759 -0.6905 -1.4739
  842MOL0     H16142   9.712   1.818   8.011 -0.1132  0.0425  2.1468
  842MOL0     H16143   9.539   1.777   7.749  0.4770 -0.2066 -2.6504
  842MOL0     H16144   9.645   1.910   7.769 -0.0993  0.1484 -1.4825
  842MOL0     H16145   9.652   1.527   7.704  0.0465 -0.4747 -0.3076
  842MOL0     H16146   9.860   1.358   7.624  0.5179  0.1428  0.2221
  842MOL0     H16147   9.909   1.357   7.800 -0.6119  1.0502  0.4963
  842MOL0     H16148  10.085   1.427   7.555  0.3263  1.9202  0.6289
  842MOL0     H16149  10.127   1.458   7.725  0.3050  0.4964 -0.3937
  842MOL0     H16150  10.224   1.256   7.635  0.7759  0.9868 -3.1823
  842MOL0     H16151  10.103   1.208   7.753  1.4207 -0.8391 -0.8799
  842MOL0     H16152  10.099   1.076   7.530  0.1017  0.7695 -0.2218
  842MOL0     H16153   9.946   1.142   7.586  0.0327 -1.1820 -1.0186
  842MOL0     H16154  10.004   1.442   7.288 -0.0865 -0.8672  2.0553
  842MOL0     H16155  10.044   1.582   7.116  0.5289  3.2016  1.0310
  842MOL0     H16156  10.177   1.549   6.999 -3.2383 -2.8103  0.2090
  842MOL0     H16157  10.187   1.658   7.152  0.0673  1.9354 -2.7411
  842MOL0     H16158  10.496   1.616   6.800 -2.4686 -2.2265  3.3918
  842MOL0     H16159  10.679   1.736   6.724  2.0794  0.2611 -1.0610
  842MOL0     H16160  10.838   1.873   6.696 -1.7625 -2.2363  1.1503
  842MOL0     H16161  10.901   2.005   6.811  2.0338 -1.9210  2.6648
  842MOL0     H16162  11.023   1.952   6.620 -2.3953 -0.3351 -0.4390
  842MOL0     H16163  11.123   1.926   6.763  1.8902  1.3992 -3.2766
  842MOL0     H16164  11.116   1.675   6.747  1.3420  0.4332 -0.1939
  842MOL0     H16165  11.180   1.771   6.619 -1.9892  2.5217 -2.9483
  842MOL0     H16166  10.968   1.737   6.466  0.5230 -0.0038 -1.1268
  842MOL0     H16167  10.896   1.653   6.605 -0.9200  1.7631 -1.9565
  842MOL0     H16168  11.160   1.546   6.522  0.3704 -1.7824  1.1626
  842MOL0     H16169  11.028   1.465   6.604  0.5925  0.1862  0.3439
  842MOL0     H16170  11.049   1.379   6.356  0.0362 -0.3319 -0.0387
  842MOL0     H16171  11.027   1.546   6.307 -0.8255  0.8468  0.5603
  842MOL0     H16172  10.782   1.514   6.338 -2.6395 -0.4696  2.1349
  842MOL0     H16173  10.827   1.459   6.500  0.7691 -1.2024  0.6443
  842MOL0     H16174  10.700   1.295   6.316  0.4240  1.7168 -0.0826
  842MOL0     H16175  10.860   1.238   6.387 -1.4188 -0.5210  0.9596
  842MOL0     H16176  10.806   1.780   7.150  2.4131  0.0595 -1.5326
  842MOL0     H16177  10.615   1.640   7.207 -2.2222 -1.2032 -0.9827
  842MOL0     H16178  10.438   1.214   7.258  1.5696 -0.2152  1.3333
  842MOL0     H16179  10.277   1.109   7.378 -1.3740 -1.1682 -0.5160
  842MOL0     H16180   9.109   2.542   8.058  0.2250  1.2920 -1.8865
  842MOL0     H16181   8.953   2.731   8.033 -2.3748  2.5793  1.2929
  842MOL0     H16182   8.648   2.987   8.209  0.4245 -1.0519 -0.2663
  842MOL0     H16183   8.484   3.169   8.209  0.9028  1.2075  1.0004
  842MOL0     H16184   8.391   3.334   7.915  0.0075  0.9857 -0.9519
  842MOL0     H16185   8.303   3.311   8.065  1.2900 -2.5053 -0.5474
  842MOL0     H16186   8.324   3.541   7.895 -2.5797 -0.2389 -0.1015
  842MOL0     H16187   8.375   3.586   8.055  0.5256 -1.5694  1.6851
  842MOL0     H16188   8.139   3.634   7.997 -2.7582  0.5522  3.4894
  842MOL0     H16189   8.096   3.467   7.982 -3.3039 -0.2347  3.1190
  842MOL0     H16190   8.223   3.519   8.242  1.1747 -0.1907  0.5761
  842MOL0     H16191   8.082   3.414   8.198 -0.0244 -0.0769 -0.0934
  842MOL0     H16192   7.866   3.758   8.282  0.1096 -0.2942 -0.4050
  842MOL0     H16193   8.726   3.415   7.960 -2.2761 -0.1441  0.2268
  842MOL0     H16194   8.952   3.357   7.919 -3.3413  1.6133  2.3760
  842MOL0     H16195   9.023   3.239   8.021 -1.7112  0.6075  4.1064
  842MOL0     H16196   8.953   3.178   7.869  1.4215 -1.1180  1.5889
  843MOL0     O16197   8.161   6.995   9.210  0.4306 -0.0076 -0.0956
  843MOL0     C16198   8.206   6.892   9.168 -0.2479 -0.2973  0.9337
  843MOL0     O16199   8.206   6.776   9.223 -0.5581 -0.3010 -0.6540
  843MOL0     C16200   8.178   6.771   9.356 -0.5870  0.5931  0.1320
  843MOL0     C16201   8.282   6.727   9.435  0.0582 -0.2301 -0.4366
  843MOL0     C16202   8.263   6.737   9.578 -0.2133 -0.4986  0.1135
  843MOL0     C16203   8.158   6.801   9.631  0.8564 -0.8536  0.1037
  843MOL0     O16204   8.148   6.812   9.765  0.3015 -0.0568  0.0001
  843MOL0     C16205   8.109   6.947   9.816 -0.2426  0.4245 -0.6176
  843MOL0     C16206   8.151   6.970   9.959  0.2902  0.7238 -0.6811
  843MOL0     C16207   8.296   6.989   9.992 -0.7109  0.3045  0.2278
  843MOL0     C16208   8.321   7.023  10.140 -0.0048  0.2540  0.2231
  843MOL0     C16209   8.235   7.133  10.212  0.5169 -0.5809 -0.3381
  843MOL0     C16210   8.255   7.277  10.149  0.1860 -0.0282  0.4225
  843MOL0     C16211   8.179   7.378  10.223  0.5125 -0.8857 -0.1483
  843MOL0     C16212   8.155   7.511  10.152 -0.0770  0.0195  0.8855
  843MOL0     N16213   8.265   7.605  10.165  0.2171 -0.5496 -0.3290
  843MOL0     C16214   8.377   7.628  10.092  0.0865  0.1097  0.3178
  843MOL0     C16215   8.435   7.736  10.141 -0.1668 -0.2113 -0.5214
  843MOL0     C16216   8.571   7.790  10.105  1.2244 -0.1111 -0.2434
  843MOL0     C16217   8.555   7.939  10.064  0.9139  0.3488  0.4431
  843MOL0     C16218   8.687   7.990  10.015 -0.0109  0.3823 -0.0958
  843MOL0     C16219   8.752   8.067  10.121 -0.3460  1.2327  0.1557
  843MOL0     O16220   8.685   8.191  10.156 -0.2975  0.3865  0.3727
  843MOL0     C16221   8.664   8.217  10.283  0.3246 -0.9919 -0.0549
  843MOL0     C16222   8.664   8.127  10.379 -0.8707  0.0879  0.7413
  843MOL0     C16223   8.627   8.156  10.509 -0.7009 -0.4856 -0.0381
  843MOL0     C16224   8.594   8.049  10.597  0.1912  0.5345  0.7788
  843MOL0     C16225   8.623   8.292  10.546  0.3232  0.2486 -1.0763
  843MOL0     C16226   8.611   8.331  10.695 -0.1793 -0.5917 -0.5469
  843MOL0     O16227   8.587   8.467  10.712  0.0489  0.8085  0.0420
  843MOL0     C16228   8.598   8.521  10.837 -0.5167  0.4319  0.4053
  843MOL0     C16229   8.703   8.601  10.884 -0.4238  0.1857  0.1805
  843MOL0     C16230   8.702   8.667  11.001  0.6611  0.1184 -0.5060
  843MOL0     C16231   8.582   8.667  11.080  0.2030  0.1604  0.6322
  843MOL0     O16232   8.562   8.746  11.190  0.3365  0.5061  0.3952
  843MOL0     C16233   8.640   8.866  11.205 -0.3248 -0.7701  0.2147
  843MOL0     C16234   8.569   8.946  11.311 -1.0164  0.7208  0.5131
  843MOL0     C16235   8.628   9.089  11.331 -0.1960  0.6441  0.1515
  843MOL0     C16236   8.534   9.183  11.392 -1.2816 -0.1153  0.1998
  843MOL0     C16237   8.594   9.327  11.422 -0.0819 -0.1303  0.5611
  843MOL0     C16238   8.668   9.350  11.546  0.6115 -0.6898 -0.0817
  843MOL0     C16239   8.812   9.299  11.563 -0.0953 -0.7564 -0.3641
  843MOL0     C16240   8.914   9.371  11.479  0.0890 -0.2404  0.1464
  843MOL0    Cl16241   8.888   9.541  11.475  0.1936  0.1730 -0.0565
  843MOL0     C16242   8.475   8.580  11.041 -1.0051  0.1529 -0.0411
  843MOL0     C16243   8.482   8.510  10.923  0.5805  0.4138 -0.1491
  843MOL0     O16244   8.615   8.253  10.785 -0.8766  0.0148 -0.1454
  843MOL0     C16245   8.632   8.389  10.450 -0.0684  0.5076  0.4263
  843MOL0     C16246   8.651   8.353  10.316 -0.1353 -0.9415  0.3835
  843MOL0     N16247   8.362   7.779  10.251 -0.2620 -0.1702  0.2711
  843MOL0     N16248   8.262   7.695  10.268  0.1069 -0.1729  0.6203
  843MOL0     C16249   8.047   6.842   9.549 -0.0505 -0.5821 -1.0235
  843MOL0     C16250   8.059   6.819   9.411  0.1332  0.5520  0.6230
  843MOL0     C16251   8.274   6.905   9.034  0.0978 -0.9753 -0.5171
  843MOL0     C16252   8.304   7.035   8.979  0.6898 -0.9943 -0.0908
  843MOL0     C16253   8.356   7.064   8.854 -0.7400  0.2221  0.6193
  843MOL0     C16254   8.392   6.957   8.775 -0.9325  0.0436  0.3518
  843MOL0     O16255   8.444   6.971   8.648 -0.7687 -0.0294 -0.1687
  843MOL0     C16256   8.491   7.101   8.617 -0.7183 -0.7949  0.6578
  843MOL0     C16257   8.377   7.184   8.558 -0.0226 -0.2835  0.2961
  843MOL0     C16258   8.340   7.148   8.414 -0.1604  0.9417 -0.6940
  843MOL0     C16259   8.198   7.185   8.394  0.5414  0.1786  0.6811
  843MOL0     C16260   8.139   7.089   8.303 -1.2875  0.1872  0.4801
  843MOL0     C16261   8.113   7.002   8.219  0.0980  1.0132  0.7040
  843MOL0     C16262   8.381   6.828   8.823 -0.9036 -0.1875  0.3950
  843MOL0     C16263   8.319   6.806   8.949 -0.8794  0.9522  0.5097
  843MOL0     C16264   8.301   6.654   8.973  0.0615 -0.2170 -0.5346
  843MOL0     H16265   8.376   6.689   9.396  0.2024 -1.3910  0.9725
  843MOL0     H16266   8.335   6.706   9.653 -1.8256 -2.1338  1.0576
  843MOL0     H16267   8.000   6.951   9.810 -0.4978 -0.5774  1.9538
  843MOL0     H16268   8.162   7.020   9.755  4.1503 -2.1999 -0.3912
  843MOL0     H16269   8.098   7.060   9.993  1.6698  0.6550  1.9050
  843MOL0     H16270   8.120   6.885  10.020  0.7720  0.1317 -1.2497
  843MOL0     H16271   8.352   6.902   9.957  2.0008  1.5804  1.1270
  843MOL0     H16272   8.334   7.078   9.943 -1.1031 -0.1285 -0.8938
  843MOL0     H16273   8.300   6.931  10.195  0.9526 -0.2386 -0.2172
  843MOL0     H16274   8.421   7.068  10.149  0.3788  0.2710 -2.9504
  843MOL0     H16275   8.257   7.128  10.319 -1.0031 -3.0661 -0.0570
  843MOL0     H16276   8.130   7.104  10.203  0.7983 -0.8600 -3.6118
  843MOL0     H16277   8.363   7.293  10.140 -0.1878  2.0876 -0.9689
  843MOL0     H16278   8.213   7.275  10.048  1.8499 -2.2257 -0.3077
  843MOL0     H16279   8.223   7.394  10.322 -2.1627  0.1030  0.9967
  843MOL0     H16280   8.076   7.341  10.231  0.3322 -0.7515 -1.5862
  843MOL0     H16281   8.131   7.503  10.045 -1.2358  0.6288  1.0894
  843MOL0     H16282   8.072   7.562  10.201  1.7705  6.3493 -1.5317
  843MOL0     H16283   8.397   7.581   9.996 -1.3681 -0.3387  0.2205
  843MOL0     H16284   8.625   7.729  10.031 -3.0679 -1.7386 -2.4206
  843MOL0     H16285   8.637   7.798  10.191  0.3031  2.7624  0.2967
  843MOL0     H16286   8.491   7.941   9.975  1.2933 -3.1275 -0.0491
  843MOL0     H16287   8.515   8.007  10.138  1.1659  1.1857 -0.1741
  843MOL0     H16288   8.740   7.900   9.982 -0.0134 -0.2235  1.4771
  843MOL0     H16289   8.679   8.062   9.933 -1.4323 -0.1658 -0.4678
  843MOL0     H16290   8.779   7.995  10.199  0.2095  0.0257 -1.1011
  843MOL0     H16291   8.850   8.093  10.081  0.2410 -0.0821  0.6822
  843MOL0     H16292   8.664   8.022  10.349  0.7646 -0.0807  1.2139
  843MOL0     H16293   8.513   8.080  10.663 -0.2464  0.0295  0.4847
  843MOL0     H16294   8.683   8.012  10.649 -0.3256  1.5171  2.4288
  843MOL0     H16295   8.549   7.969  10.537  2.3764 -1.2541  1.3806
  843MOL0     H16296   8.774   8.635  10.810 -0.0173  2.1515  1.3929
  843MOL0     H16297   8.786   8.734  11.020  1.3970  0.2610 -3.7883
  843MOL0     H16298   8.743   8.837  11.229  0.0360 -4.3922 -4.4783
  843MOL0     H16299   8.640   8.925  11.113  0.8629  1.3049  1.4536
  843MOL0     H16300   8.463   8.959  11.288 -1.3371 -0.3397  1.3236
  843MOL0     H16301   8.571   8.886  11.403  1.2796 -0.1786 -0.0615
  843MOL0     H16302   8.644   9.134  11.233 -2.1353  1.6557  0.2562
  843MOL0     H16303   8.726   9.085  11.379  0.8871  1.0548 -1.8895
  843MOL0     H16304   8.509   9.133  11.487 -1.6325  0.6115  0.4939
  843MOL0     H16305   8.442   9.191  11.333 -2.2291  0.1367  1.6518
  843MOL0     H16306   8.648   9.348  11.329  2.2307  1.8037  2.2254
  843MOL0     H16307   8.513   9.400  11.417 -0.2105  0.1444  4.0562
  843MOL0     H16308   8.626   9.295  11.630  0.9287  1.2252  1.3996
  843MOL0     H16309   8.649   9.454  11.576 -0.2322 -0.0916 -2.4796
  843MOL0     H16310   8.828   9.191  11.553  1.0278 -0.8112  1.6006
  843MOL0     H16311   8.841   9.317  11.667 -1.0329  0.3335 -0.2687
  843MOL0     H16312   8.900   9.332  11.378 -1.7342 -1.0918  0.6636
  843MOL0     H16313   9.011   9.345  11.523 -0.0704  2.9051  2.7949
  843MOL0     H16314   8.401   8.571  11.120 -0.3476  0.7209  0.6438
  843MOL0     H16315   8.401   8.442  10.896  1.0196 -0.4381  0.6245
  843MOL0     H16316   8.660   8.493  10.453  0.0802  0.7106 -3.0518
  843MOL0     H16317   8.659   8.428  10.238 -0.7433 -2.2540 -0.9876
  843MOL0     H16318   7.952   6.875   9.591  1.1741  3.1221 -0.8485
  843MOL0     H16319   7.984   6.824   9.333  0.7116 -3.1394 -0.3409
  843MOL0     H16320   8.282   7.126   9.034  1.6001 -0.5014 -0.5242
  843MOL0     H16321   8.369   7.169   8.829 -1.7176  0.0777 -0.5675
  843MOL0     H16322   8.538   7.144   8.705  0.0264 -2.3463  1.0584
  843MOL0     H16323   8.576   7.089   8.549 -1.3928  3.4982 -1.2435
  843MOL0     H16324   8.403   7.290   8.568  0.6452 -0.3808 -0.3419
  843MOL0     H16325   8.293   7.167   8.626  1.1946  0.1613  1.9590
  843MOL0     H16326   8.402   7.196   8.337  1.8334 -1.2121 -0.5475
  843MOL0     H16327   8.353   7.040   8.404  0.0434  0.8832  0.1014
  843MOL0     H16328   8.197   7.285   8.349  1.3721 -0.5352 -1.0065
  843MOL0     H16329   8.136   7.174   8.484 -3.8524  1.0571 -1.9434
  843MOL0     H16330   8.085   6.926   8.149 -0.2864  1.6455  0.1496
  843MOL0     H16331   8.404   6.747   8.754 -1.4805 -2.2953  2.5173
  843MOL0     H16332   8.353   6.597   8.895 -3.5798 -0.9093 -2.6862
  843MOL0     H16333   8.347   6.633   9.070  1.1210  1.3525 -0.6455
  843MOL0     H16334   8.193   6.638   8.969 -0.2082  1.5137 -1.4961
  844MOL0     O16335   2.482   0.152   5.879  0.4866  0.4286 -0.3495
  844MOL0     C16336   2.572   0.175   5.965 -0.0706 -0.5233  0.2646
  844MOL0     O16337   2.542   0.258   6.074 -0.7810  0.2965 -0.6713
  844MOL0     C16338   2.410   0.296   6.105 -0.2653  0.3080 -1.1169
  844MOL0     C16339   2.341   0.393   6.032 -0.2577  0.1173  0.7745
  844MOL0     C16340   2.213   0.429   6.074  0.1283  0.9665  0.1928
  844MOL0     C16341   2.149   0.372   6.178 -0.7078  0.8755 -0.2021
  844MOL0     O16342   2.013   0.402   6.192  0.5778  0.0654  0.6709
  844MOL0     C16343   1.935   0.289   6.233  0.9258  0.9592  0.0713
  844MOL0     C16344   1.787   0.322   6.250  0.4619  0.3312  0.2529
  844MOL0     C16345   1.749   0.448   6.337 -0.9069  0.3118  1.2273
  844MOL0     C16346   1.822   0.443   6.471  0.8153  0.7343 -0.2749
  844MOL0     C16347   1.748   0.548   6.551 -1.2810 -0.3695  0.6832
  844MOL0     C16348   1.823   0.577   6.675  0.0876 -0.1842 -0.1974
  844MOL0     C16349   1.771   0.687   6.768 -0.1933  0.9864 -0.7408
  844MOL0     C16350   1.642   0.650   6.845 -0.9496  0.4317  0.4213
  844MOL0     N16351   1.660   0.527   6.917 -0.4716 -0.0949 -0.0441
  844MOL0     C16352   1.599   0.411   6.880  0.4647  0.1049  0.5236
  844MOL0     C16353   1.598   0.341   6.991 -0.4090  0.6653 -0.2759
  844MOL0     C16354   1.544   0.199   7.005  1.3380  0.1885  0.5024
  844MOL0     C16355   1.391   0.176   6.974 -0.7407  0.2915  0.7383
  844MOL0     C16356   1.335   0.080   7.074  0.1817  0.0809  0.4437
  844MOL0     C16357   1.366  -0.064   7.038 -0.3560  0.0174  0.8303
  844MOL0     O16358   1.258  -0.100   6.942  0.0781  0.4983 -0.2863
  844MOL0     C16359   1.157  -0.183   6.982 -0.1295 -0.4500 -0.3131
  844MOL0     C16360   1.161  -0.263   7.094 -0.2193  0.4612  0.3248
  844MOL0     C16361   1.040  -0.343   7.129  0.7207 -0.0514  0.6336
  844MOL0     C16362   1.036  -0.414   7.271  0.4088 -1.1469 -1.3092
  844MOL0     C16363   0.922  -0.342   7.050  0.7460 -0.8936  0.6862
  844MOL0     C16364   0.789  -0.407   7.088  0.0341  0.7580 -0.7132
  844MOL0     O16365   0.681  -0.325   7.085  0.3520  0.6258  0.5119
  844MOL0     C16366   0.554  -0.379   7.123  0.4810  0.0763 -0.8798
  844MOL0     C16367   0.518  -0.383   7.259 -0.4096 -0.8739  0.7319
  844MOL0     C16368   0.384  -0.424   7.283 -0.0645  0.2429 -0.1627
  844MOL0     C16369   0.295  -0.456   7.179  0.6019  0.2230 -0.0590
  844MOL0     O16370   0.173  -0.508   7.224  0.1056 -0.6846 -0.3597
  844MOL0     C16371   0.080  -0.574   7.137  0.4891  0.0448  0.0351
  844MOL0     C16372  -0.011  -0.648   7.234 -0.5965 -0.0894  0.6505
  844MOL0     C16373  -0.094  -0.738   7.158  0.0409  0.6157  0.5255
  844MOL0     C16374  -0.203  -0.799   7.246  0.1089  1.1160  0.3511
  844MOL0     C16375  -0.303  -0.890   7.171  0.3244 -0.7289 -0.2387
  844MOL0     C16376  -0.237  -1.000   7.082 -0.3008  1.0734  0.3253
  844MOL0     C16377  -0.332  -1.096   7.024 -0.0454  1.1668 -0.5967
  844MOL0     C16378  -0.256  -1.203   6.951 -0.2598 -0.0642 -0.0987
  844MOL0    Cl16379  -0.360  -1.350   6.915 -0.2048  0.0142 -0.0030
  844MOL0     C16380   0.335  -0.452   7.047 -0.3318  0.0786  0.4297
  844MOL0     C16381   0.468  -0.419   7.023  0.4985 -0.5588  0.8366
  844MOL0     O16382   0.792  -0.521   7.140  0.8271  0.0524 -0.0998
  844MOL0     C16383   0.924  -0.249   6.947 -0.2654 -0.2794  0.2968
  844MOL0     C16384   1.040  -0.176   6.905  0.4454 -0.5662 -0.3249
  844MOL0     N16385   1.676   0.408   7.090 -0.1769  0.6012  0.7451
  844MOL0     N16386   1.709   0.516   7.041  0.8562  0.1889  0.2398
  844MOL0     C16387   2.223   0.282   6.255 -0.3571  1.0459  0.1917
  844MOL0     C16388   2.353   0.248   6.225  0.8161 -0.1379 -0.1265
  844MOL0     C16389   2.713   0.128   5.948  0.0322 -0.1135  0.1346
  844MOL0     C16390   2.817   0.192   6.028 -0.1656 -0.7135 -0.7387
  844MOL0     C16391   2.950   0.151   6.009  0.7184 -1.2700 -0.5207
  844MOL0     C16392   2.976   0.043   5.934 -0.0880 -0.6580  0.3909
  844MOL0     O16393   3.110   0.007   5.936  1.4735 -0.6539  0.5121
  844MOL0     C16394   3.133  -0.123   5.908 -0.4114 -0.3783  0.5437
  844MOL0     C16395   3.282  -0.147   5.939  0.4542 -0.0179 -0.3930
  844MOL0     C16396   3.331  -0.137   6.081 -0.2389 -0.4785 -0.2445
  844MOL0     C16397   3.303   0.010   6.135 -0.3615  0.1762  0.0338
  844MOL0     C16398   3.393   0.017   6.246  0.0145  0.2683  0.8947
  844MOL0     C16399   3.474   0.033   6.337 -0.2856 -0.7319  0.5340
  844MOL0     C16400   2.880  -0.024   5.851 -0.5192 -0.8725  0.5696
  844MOL0     C16401   2.753   0.023   5.862  0.5416  1.3400  0.2774
  844MOL0     C16402   2.646  -0.067   5.790 -0.7017  0.1408 -0.0079
  844MOL0     H16403   2.384   0.429   5.939  1.9808 -0.6608  1.4473
  844MOL0     H16404   2.168   0.512   6.022  0.8143  1.9611  1.1475
  844MOL0     H16405   1.972   0.252   6.329  1.3566 -2.6439 -1.3115
  844MOL0     H16406   1.932   0.211   6.156 -2.8009  0.6823  0.3196
  844MOL0     H16407   1.741   0.334   6.152 -1.5778 -3.7023  0.4823
  844MOL0     H16408   1.742   0.229   6.286  1.6787 -0.4869 -0.2904
  844MOL0     H16409   1.760   0.542   6.281 -1.2586 -1.2539 -1.6332
  844MOL0     H16410   1.642   0.439   6.353 -1.0619 -0.2443  0.0205
  844MOL0     H16411   1.831   0.345   6.517  0.4878  1.4699  1.4240
  844MOL0     H16412   1.929   0.465   6.468  0.8649  0.5267 -0.0707
  844MOL0     H16413   1.647   0.516   6.578 -1.3038 -0.8363  0.0829
  844MOL0     H16414   1.745   0.630   6.479 -0.9331 -3.0495 -2.7019
  844MOL0     H16415   1.825   0.481   6.726  1.2979 -0.8317 -1.4226
  844MOL0     H16416   1.927   0.598   6.649 -0.9891  2.5985 -2.9252
  844MOL0     H16417   1.756   0.783   6.718 -1.9078  0.7027 -0.8373
  844MOL0     H16418   1.841   0.688   6.852 -0.2806 -3.6538 -0.3735
  844MOL0     H16419   1.607   0.732   6.909 -3.6431 -0.4918  0.2757
  844MOL0     H16420   1.555   0.637   6.780 -1.3221  0.6133  0.8755
  844MOL0     H16421   1.584   0.377   6.778  6.0217 -1.1262 -0.2209
  844MOL0     H16422   1.581   0.181   7.107 -1.1708 -0.7063  1.3283
  844MOL0     H16423   1.604   0.127   6.949  1.7673 -0.2237  1.4691
  844MOL0     H16424   1.340   0.273   6.983  1.6198  1.7446 -0.5017
  844MOL0     H16425   1.388   0.129   6.875  1.5856 -2.4202  1.8083
  844MOL0     H16426   1.376   0.091   7.174  4.6689 -3.5006 -0.6596
  844MOL0     H16427   1.227   0.092   7.085  0.5761  1.1813  5.0767
  844MOL0     H16428   1.462  -0.070   6.986 -0.4004  0.1341  0.7340
  844MOL0     H16429   1.380  -0.129   7.125  1.6919 -2.2479 -1.0458
  844MOL0     H16430   1.249  -0.279   7.156 -1.6259 -3.3943  1.6571
  844MOL0     H16431   1.092  -0.361   7.349 -1.2993 -1.6955  0.3591
  844MOL0     H16432   1.066  -0.518   7.257  0.8291 -1.4908  1.5869
  844MOL0     H16433   0.936  -0.425   7.314  0.9257  2.0658  1.1180
  844MOL0     H16434   0.593  -0.361   7.335 -0.8329 -2.0331  1.5313
  844MOL0     H16435   0.356  -0.441   7.386  0.3653  0.5229  0.0025
  844MOL0     H16436   0.007  -0.507   7.091  0.7929  0.3264 -0.0399
  844MOL0     H16437   0.125  -0.645   7.067  0.5091 -1.6683  1.7144
  844MOL0     H16438   0.060  -0.709   7.290 -0.2862 -0.5957 -0.2741
  844MOL0     H16439  -0.079  -0.589   7.297 -1.2089 -0.8920  0.7540
  844MOL0     H16440  -0.029  -0.807   7.104 -0.2533  1.2685 -0.7328
  844MOL0     H16441  -0.156  -0.690   7.080 -4.1384  0.8126  3.6187
  844MOL0     H16442  -0.263  -0.723   7.298 -1.1184 -0.6519  1.5987
  844MOL0     H16443  -0.147  -0.863   7.314  0.3434 -0.2807 -1.1094
  844MOL0     H16444  -0.374  -0.927   7.245  0.9302  0.8568  1.2084
  844MOL0     H16445  -0.358  -0.814   7.114 -1.5262 -1.4080  0.5476
  844MOL0     H16446  -0.176  -1.048   7.159 -4.5938 -2.2850  2.0686
  844MOL0     H16447  -0.166  -0.965   7.007  1.6292  0.2379  1.6694
  844MOL0     H16448  -0.396  -1.047   6.949  3.2272  1.9421 -3.1194
  844MOL0     H16449  -0.391  -1.142   7.103  2.2863 -3.0283 -1.0215
  844MOL0     H16450  -0.189  -1.248   7.025 -2.4753 -0.2359  1.9285
  844MOL0     H16451  -0.209  -1.159   6.863 -2.1127 -1.2228 -1.7618
  844MOL0     H16452   0.270  -0.478   6.965 -0.3748 -3.8135  1.4518
  844MOL0     H16453   0.507  -0.412   6.922 -0.4941 -4.3556  0.0490
  844MOL0     H16454   0.838  -0.227   6.885 -0.4134 -1.1831  0.1715
  844MOL0     H16455   1.020  -0.103   6.828  2.1516 -0.2341 -0.5024
  844MOL0     H16456   2.195   0.249   6.354 -0.3816  0.9693  0.1593
  844MOL0     H16457   2.408   0.177   6.286  1.5579  0.6081  0.0906
  844MOL0     H16458   2.798   0.269   6.101  1.4543 -2.3510  1.5632
  844MOL0     H16459   3.023   0.208   6.066 -1.4913  0.6174  0.5951
  844MOL0     H16460   3.071  -0.193   5.964 -1.4815  2.4819  3.2279
  844MOL0     H16461   3.123  -0.141   5.801  2.6397  2.6428 -0.4690
  844MOL0     H16462   3.333  -0.066   5.885  0.2094  0.8889  0.6994
  844MOL0     H16463   3.299  -0.245   5.893 -1.0598 -0.2729 -0.4611
  844MOL0     H16464   3.278  -0.215   6.135 -0.0113 -1.6366 -1.6546
  844MOL0     H16465   3.436  -0.168   6.091 -0.5249 -1.4192 -0.1108
  844MOL0     H16466   3.203   0.041   6.167  1.3196  0.9730  5.6457
  844MOL0     H16467   3.344   0.081   6.063  4.2284  1.1495  3.1595
  844MOL0     H16468   3.543   0.057   6.415 -0.8303  0.5422  0.6540
  844MOL0     H16469   2.904  -0.112   5.792  0.9927  1.0036 -1.7968
  844MOL0     H16470   2.672  -0.173   5.783  1.0997  0.5456  0.0058
  844MOL0     H16471   2.548  -0.061   5.838  0.1584  0.7338  1.7791
  844MOL0     H16472   2.637  -0.016   5.693  0.2913  1.0007  0.3276
  845MOL0     O16473   1.237   5.133   8.878 -0.1075 -0.6177  0.2217
  845MOL0     C16474   1.193   5.121   8.992  0.3401  0.4062  0.0561
  845MOL0     O16475   1.271   5.082   9.101  0.5389 -0.1024 -0.1250
  845MOL0     C16476   1.403   5.063   9.075 -0.1956  0.4892 -0.6020
  845MOL0     C16477   1.455   4.986   8.977 -0.7997  0.1854 -0.4600
  845MOL0     C16478   1.592   4.979   8.952  0.2543  0.3439  0.1473
  845MOL0     C16479   1.682   5.069   9.019 -0.6113  0.0110 -0.7391
  845MOL0     O16480   1.818   5.087   8.997  0.1858  0.2990  0.3143
  845MOL0     C16481   1.870   4.981   8.913 -0.0796 -0.3634  0.0437
  845MOL0     C16482   2.025   4.970   8.925  0.5683  0.2979  0.6259
  845MOL0     C16483   2.085   4.839   8.886 -0.3795  0.4135 -0.8407
  845MOL0     C16484   2.242   4.851   8.890 -0.4937 -0.1088 -0.4104
  845MOL0     C16485   2.309   4.720   8.847 -0.4274 -0.3944  0.2065
  845MOL0     C16486   2.443   4.762   8.782 -0.5412  0.5674 -0.5162
  845MOL0     C16487   2.433   4.856   8.655 -0.2193  0.6767 -0.4165
  845MOL0     C16488   2.541   4.822   8.553  0.3414  0.1629  0.0926
  845MOL0     N16489   2.682   4.804   8.600  0.1464  0.1656  0.3014
  845MOL0     C16490   2.784   4.899   8.609  0.5009 -0.6064 -0.2445
  845MOL0     C16491   2.889   4.823   8.628  0.1547 -0.0456 -0.1105
  845MOL0     C16492   3.032   4.868   8.639 -0.6370  1.3824  0.0884
  845MOL0     C16493   3.051   4.998   8.715 -0.2011 -0.1901 -0.4847
  845MOL0     C16494   3.085   4.979   8.867  0.5365  0.3908  0.1186
  845MOL0     C16495   2.958   4.920   8.937  0.1810 -0.6089 -1.8781
  845MOL0     O16496   2.866   5.016   8.978  1.0839  0.0768  0.2516
  845MOL0     C16497   2.755   4.978   9.049 -0.1519 -0.5688 -0.6482
  845MOL0     C16498   2.670   5.076   9.075  0.2691 -0.0198  0.8140
  845MOL0     C16499   2.548   5.051   9.152  0.3391 -0.5424 -0.7585
  845MOL0     C16500   2.463   5.173   9.163  0.8036 -0.4913 -0.2835
  845MOL0     C16501   2.509   4.916   9.190  0.6546  0.4839  0.3958
  845MOL0     C16502   2.386   4.885   9.259  1.3494  1.0853 -0.0504
  845MOL0     O16503   2.297   4.984   9.282  0.8127  0.1120  0.1127
  845MOL0     C16504   2.184   4.968   9.357  0.8559  0.5654 -0.0108
  845MOL0     C16505   2.085   4.880   9.304 -0.4422 -0.5692 -0.4386
  845MOL0     C16506   1.967   4.863   9.383  0.0091 -0.7757  0.0678
  845MOL0     C16507   1.939   4.928   9.497  1.2020 -0.3564 -0.4693
  845MOL0     O16508   1.827   4.889   9.572 -0.2463  0.0867  0.0277
  845MOL0     C16509   1.748   5.001   9.605 -0.2649 -0.3481 -0.1785
  845MOL0     C16510   1.600   4.967   9.656 -0.3883 -0.2439 -0.0006
  845MOL0     C16511   1.511   4.873   9.569 -0.5290 -0.2161 -0.3351
  845MOL0     C16512   1.470   4.933   9.431  0.0458  0.3809 -0.4853
  845MOL0     C16513   1.400   4.827   9.341 -0.7781 -0.8464  0.4425
  845MOL0     C16514   1.261   4.820   9.372 -0.3286  0.5578  0.7244
  845MOL0     C16515   1.197   4.686   9.341  0.5337  0.2262  0.2527
  845MOL0     C16516   1.210   4.647   9.196 -0.3401 -0.1872  0.2842
  845MOL0    Cl16517   1.158   4.758   9.064 -0.0229  0.1180 -0.5128
  845MOL0     C16518   2.028   5.023   9.542 -0.1022  0.5879 -0.6143
  845MOL0     C16519   2.155   5.043   9.470  0.8561  0.1429 -0.3917
  845MOL0     O16520   2.366   4.768   9.292  0.5244 -0.0792  0.7710
  845MOL0     C16521   2.600   4.811   9.152 -0.5045 -0.2346 -0.6380
  845MOL0     C16522   2.718   4.841   9.079 -0.1753 -0.8454 -0.5823
  845MOL0     N16523   2.851   4.692   8.632 -0.5296 -0.0384 -0.3368
  845MOL0     N16524   2.725   4.678   8.618 -0.6780  0.2312 -0.7069
  845MOL0     C16525   1.620   5.142   9.126  0.4398 -0.0500  0.2869
  845MOL0     C16526   1.485   5.140   9.152  0.7728  0.5070 -0.0519
  845MOL0     C16527   1.051   5.147   9.014  0.4525  0.3009 -0.2180
  845MOL0     C16528   1.002   5.135   9.143 -0.4834 -0.3311 -0.3582
  845MOL0     C16529   0.871   5.177   9.178 -1.1648 -0.6036  0.7190
  845MOL0     C16530   0.786   5.216   9.087  0.5502  0.8796 -0.3033
  845MOL0     O16531   0.662   5.250   9.141  1.0141 -0.0217  0.3885
  845MOL0     C16532   0.558   5.253   9.049  0.2214  0.8790 -0.5939
  845MOL0     C16533   0.423   5.270   9.120  0.0361  0.8554 -0.3678
  845MOL0     C16534   0.302   5.257   9.021 -0.4908 -0.1287 -0.4451
  845MOL0     C16535   0.180   5.202   9.095 -0.4018  0.4983  0.5992
  845MOL0     C16536   0.136   5.287   9.202 -0.1485  0.2526  0.1940
  845MOL0     C16537   0.099   5.375   9.278 -0.3590  0.2661 -0.8905
  845MOL0     C16538   0.825   5.230   8.958 -0.6303  0.2941 -0.3984
  845MOL0     C16539   0.961   5.201   8.919 -0.2878  0.2112  0.2250
  845MOL0     C16540   1.004   5.247   8.787  0.1994 -0.4088  0.3049
  845MOL0     H16541   1.386   4.927   8.917  0.1570 -0.4248 -0.9782
  845MOL0     H16542   1.631   4.922   8.869 -0.8576  0.1412 -0.2547
  845MOL0     H16543   1.842   5.012   8.812  0.9940  3.2413  0.7283
  845MOL0     H16544   1.827   4.886   8.948 -2.7410  1.0493  0.8879
  845MOL0     H16545   2.081   5.049   8.873  0.0692 -0.2347 -0.7837
  845MOL0     H16546   2.059   4.983   9.028  3.3285  0.8731 -0.2764
  845MOL0     H16547   2.059   4.757   8.953  1.8797  0.5721  0.3368
  845MOL0     H16548   2.067   4.823   8.779  0.9962  3.4587 -1.6410
  845MOL0     H16549   2.271   4.923   8.813  1.9917 -1.0819 -0.4995
  845MOL0     H16550   2.263   4.875   8.995 -2.5441 -1.9912  0.5289
  845MOL0     H16551   2.243   4.660   8.784  2.1285 -1.3319 -1.7990
  845MOL0     H16552   2.325   4.661   8.937 -0.4086  1.4259  1.4598
  845MOL0     H16553   2.508   4.809   8.855 -1.8616 -2.7210  3.0947
  845MOL0     H16554   2.496   4.671   8.752 -3.3654 -2.0989  1.8634
  845MOL0     H16555   2.445   4.962   8.678 -3.1457  1.5094 -2.1631
  845MOL0     H16556   2.334   4.867   8.610 -0.7493  1.8133  0.9730
  845MOL0     H16557   2.518   4.729   8.500  3.0855  0.1953 -1.3116
  845MOL0     H16558   2.546   4.898   8.475 -3.2273  0.0881 -0.3581
  845MOL0     H16559   2.762   5.005   8.600  0.6755 -0.7083 -2.5187
  845MOL0     H16560   3.077   4.873   8.539  1.6998 -0.0216  1.0062
  845MOL0     H16561   3.085   4.785   8.687  0.3927  1.1972 -1.2921
  845MOL0     H16562   3.135   5.044   8.662 -0.5583 -0.1907 -1.0604
  845MOL0     H16563   2.968   5.069   8.712 -2.4957 -2.2967  3.9722
  845MOL0     H16564   3.175   4.920   8.883 -0.4837 -1.6420 -1.2074
  845MOL0     H16565   3.097   5.080   8.908  0.1170  0.3319  0.3967
  845MOL0     H16566   2.916   4.847   8.867  0.5483 -2.2532 -0.4458
  845MOL0     H16567   2.986   4.864   9.026 -0.5145  0.7813 -0.7608
  845MOL0     H16568   2.689   5.174   9.032 -0.2788 -0.0556  0.4764
  845MOL0     H16569   2.513   5.265   9.132 -0.8988  1.6160  2.6741
  845MOL0     H16570   2.425   5.187   9.265 -3.7218 -0.2166 -1.7828
  845MOL0     H16571   2.369   5.169   9.107  0.0201 -0.1121  0.9564
  845MOL0     H16572   2.077   4.834   9.206 -2.9305 -3.0459  0.7728
  845MOL0     H16573   1.879   4.806   9.355 -1.5253  0.2829  2.3571
  845MOL0     H16574   1.784   5.042   9.700  0.1345 -2.2594  0.5293
  845MOL0     H16575   1.754   5.085   9.536 -0.3109  0.7746  1.1350
  845MOL0     H16576   1.607   4.915   9.752 -0.3592 -2.1505 -0.9738
  845MOL0     H16577   1.542   5.059   9.663 -1.5537 -1.0039  0.6153
  845MOL0     H16578   1.426   4.844   9.631  0.3559  0.7240  1.3727
  845MOL0     H16579   1.561   4.778   9.553 -1.3771 -0.4085 -2.0979
  845MOL0     H16580   1.556   4.974   9.377  0.9015 -1.1533 -0.3744
  845MOL0     H16581   1.409   5.021   9.452 -0.1239  0.0181  0.6420
  845MOL0     H16582   1.404   4.847   9.233  0.0879 -0.8086  0.4747
  845MOL0     H16583   1.454   4.733   9.353  5.0454  1.6019 -2.2574
  845MOL0     H16584   1.204   4.896   9.319  2.3147  2.0755 -0.1215
  845MOL0     H16585   1.244   4.844   9.478 -3.1703  1.4834  0.1406
  845MOL0     H16586   1.092   4.689   9.371  0.3659  2.2843 -0.3731
  845MOL0     H16587   1.245   4.599   9.388 -1.0283  0.0668  1.6394
  845MOL0     H16588   1.164   4.548   9.192  1.2191 -0.9609  0.4888
  845MOL0     H16589   1.317   4.636   9.177 -0.2216  0.6456  0.4418
  845MOL0     H16590   2.014   5.080   9.633  0.4860  0.4796 -0.4534
  845MOL0     H16591   2.218   5.118   9.518  1.4031 -1.8298  2.2426
  845MOL0     H16592   2.566   4.710   9.172 -0.1342 -0.4531 -1.0789
  845MOL0     H16593   2.783   4.758   9.053 -1.5921 -1.7048 -1.4788
  845MOL0     H16594   1.680   5.196   9.198  2.4823 -4.2758  2.0875
  845MOL0     H16595   1.446   5.199   9.234 -0.0497 -3.3245  2.5725
  845MOL0     H16596   1.067   5.105   9.225 -2.2911  2.5708  2.3993
  845MOL0     H16597   0.845   5.177   9.283  0.5357  0.3446  1.1782
  845MOL0     H16598   0.564   5.340   8.983 -1.5737  1.6174  0.1630
  845MOL0     H16599   0.570   5.159   8.995  2.4677  1.6452 -1.5710
  845MOL0     H16600   0.415   5.366   9.171  1.4296  1.3150 -0.9659
  845MOL0     H16601   0.413   5.199   9.203 -0.3312 -0.7820 -1.7494
  845MOL0     H16602   0.288   5.347   8.961 -0.4287  0.6647  0.7161
  845MOL0     H16603   0.331   5.177   8.952  0.2613 -1.6544  1.5627
  845MOL0     H16604   0.210   5.106   9.139  3.9178  0.5797 -1.6759
  845MOL0     H16605   0.109   5.197   9.012  0.7804  2.6445 -0.6072
  845MOL0     H16606   0.083   5.447   9.355  0.9186 -0.4790  0.1041
  845MOL0     H16607   0.758   5.282   8.890 -1.5521 -0.8730 -0.4097
  845MOL0     H16608   1.092   5.311   8.797  0.1548 -0.7123  3.4874
  845MOL0     H16609   1.040   5.164   8.726  2.4594  1.5996 -1.2845
  845MOL0     H16610   0.925   5.304   8.739  0.0634  1.6121  2.7324
  846MOL0     O16611  11.352   0.845   6.066 -0.3435  0.8053 -0.0470
  846MOL0     C16612  11.297   0.768   5.986 -0.2357 -0.2209 -0.3086
  846MOL0     O16613  11.166   0.738   5.978  0.3551 -0.4577  0.1953
  846MOL0     C16614  11.075   0.803   6.056 -0.8558 -0.5229 -0.2897
  846MOL0     C16615  10.968   0.729   6.106  0.2460 -0.5846 -0.6298
  846MOL0     C16616  10.873   0.783   6.189  0.3206 -0.1247  0.3817
  846MOL0     C16617  10.884   0.916   6.236 -1.0885  0.8046  0.3398
  846MOL0     O16618  10.805   0.979   6.331 -0.1760  0.0274 -0.4249
  846MOL0     C16619  10.680   0.939   6.369  0.4744  0.1880  0.1388
  846MOL0     C16620  10.643   1.021   6.493  0.2018 -0.6727  0.8834
  846MOL0     C16621  10.725   0.978   6.614  1.0082 -0.4653 -0.6158
  846MOL0     C16622  10.645   1.022   6.729  0.3546 -0.1699 -0.2710
  846MOL0     C16623  10.722   0.988   6.856  0.2412 -0.0099 -0.0721
  846MOL0     C16624  10.627   0.987   6.979  0.4087 -0.6499 -0.0229
  846MOL0     C16625  10.719   0.977   7.108  0.6444  0.0218 -0.3316
  846MOL0     C16626  10.630   0.955   7.241  0.0810 -1.2999 -0.2129
  846MOL0     N16627  10.512   0.872   7.233  1.1435  0.0396 -0.0186
  846MOL0     C16628  10.511   0.739   7.198  0.1316  0.6924  0.6814
  846MOL0     C16629  10.378   0.690   7.198 -0.2034 -0.4976  0.0826
  846MOL0     C16630  10.332   0.547   7.181 -0.1677  0.3781 -0.8836
  846MOL0     C16631  10.339   0.502   7.037 -0.8236  0.0113  0.2890
  846MOL0     C16632  10.282   0.360   6.995 -0.2444  0.6639 -0.8413
  846MOL0     C16633  10.322   0.316   6.851  0.0887 -0.2927 -0.5345
  846MOL0     O16634  10.243   0.390   6.750  0.5653  0.2283 -0.1475
  846MOL0     C16635  10.258   0.364   6.618  0.6507  0.6013 -0.2842
  846MOL0     C16636  10.327   0.261   6.561 -0.3909  0.4804 -1.1615
  846MOL0     C16637  10.339   0.234   6.429 -0.0610  0.2549  0.1996
  846MOL0     C16638  10.449   0.142   6.381  0.0237  0.8782  0.3716
  846MOL0     C16639  10.258   0.309   6.342 -0.2922  0.4566  0.1798
  846MOL0     C16640  10.239   0.295   6.197 -0.5999 -0.7553  0.4009
  846MOL0     O16641  10.111   0.319   6.151  0.1573 -0.4783  0.1379
  846MOL0     C16642  10.083   0.368   6.025 -0.0666  0.2988 -0.7631
  846MOL0     C16643  10.139   0.482   5.970  0.3862  1.2568 -0.0092
  846MOL0     C16644  10.092   0.518   5.841  0.4076  0.1313 -1.2126
  846MOL0     C16645  10.009   0.434   5.762 -0.1800  0.1832 -0.5489
  846MOL0     O16646   9.997   0.466   5.630 -0.0435 -0.1864 -0.0203
  846MOL0     C16647   9.875   0.422   5.559 -0.4869 -0.3212 -0.3536
  846MOL0     C16648   9.858   0.513   5.436 -0.7273 -0.2285 -0.3366
  846MOL0     C16649   9.853   0.660   5.484 -0.8049 -1.1135 -0.0714
  846MOL0     C16650   9.867   0.766   5.373 -0.0389 -0.3427  0.4677
  846MOL0     C16651   9.889   0.901   5.440  0.5255 -0.7365  0.1743
  846MOL0     C16652   9.775   0.946   5.534  0.5997  0.4474 -0.1664
  846MOL0     C16653   9.823   1.078   5.611 -0.0062  0.2072  0.6359
  846MOL0     C16654   9.692   1.152   5.661  0.1807 -0.6585  0.2140
  846MOL0    Cl16655   9.578   1.205   5.527  0.4028  0.1681  0.0505
  846MOL0     C16656   9.956   0.322   5.815 -0.1319  0.7416  0.3001
  846MOL0     C16657   9.993   0.291   5.948  0.4436 -0.3259 -0.2315
  846MOL0     O16658  10.339   0.266   6.123  0.3470 -0.2770  0.2503
  846MOL0     C16659  10.178   0.416   6.396 -1.7135  0.5073  0.3340
  846MOL0     C16660  10.183   0.440   6.531  0.9826 -1.0722 -0.1881
  846MOL0     N16661  10.306   0.800   7.238  0.6757 -0.1122  0.0309
  846MOL0     N16662  10.383   0.909   7.263  0.1231  0.4112  0.1962
  846MOL0     C16663  10.996   0.993   6.192 -0.5680 -0.3659 -0.5981
  846MOL0     C16664  11.086   0.934   6.106 -0.1638 -1.1317  0.0851
  846MOL0     C16665  11.375   0.714   5.872 -0.4412  0.0394 -0.0070
  846MOL0     C16666  11.302   0.640   5.774 -0.1210 -0.3137  0.0452
  846MOL0     C16667  11.361   0.583   5.665 -0.7836 -0.4685 -0.4702
  846MOL0     C16668  11.499   0.594   5.647  0.0056  0.4637  0.7259
  846MOL0     O16669  11.555   0.542   5.528 -0.0466  0.2008  0.5224
  846MOL0     C16670  11.518   0.422   5.467  0.4939  0.8641  0.0388
  846MOL0     C16671  11.537   0.303   5.558  0.6675  0.8283 -0.5580
  846MOL0     C16672  11.679   0.296   5.590  0.3595 -0.3141  0.3680
  846MOL0     C16673  11.698   0.180   5.682  0.0283 -0.9046 -0.0962
  846MOL0     C16674  11.843   0.167   5.706  0.0178  0.4345 -0.6492
  846MOL0     C16675  11.963   0.165   5.720  0.2669  0.0323  0.6294
  846MOL0     C16676  11.569   0.665   5.738  0.6694  0.0660 -0.3953
  846MOL0     C16677  11.516   0.722   5.855  0.2707 -0.2629 -0.2212
  846MOL0     C16678  11.605   0.795   5.949 -0.8495  0.4053 -0.7019
  846MOL0     H16679  10.943   0.628   6.075  0.2592 -0.4593 -1.0681
  846MOL0     H16680  10.790   0.722   6.220  0.5326 -1.5703 -1.6999
  846MOL0     H16681  10.673   0.830   6.373  0.7995  0.1873  0.6601
  846MOL0     H16682  10.615   0.973   6.287 -0.0019  1.2203  0.9161
  846MOL0     H16683  10.661   1.128   6.481 -0.7096 -0.3563  2.0753
  846MOL0     H16684  10.537   1.007   6.515 -0.5612 -0.0057 -2.0580
  846MOL0     H16685  10.741   0.870   6.614 -3.5834 -1.3566 -1.5761
  846MOL0     H16686  10.821   1.031   6.610 -0.8814  3.3519 -0.7462
  846MOL0     H16687  10.613   1.126   6.714 -1.3075 -0.2464  2.2233
  846MOL0     H16688  10.551   0.967   6.726  0.1289  0.1644 -4.2507
  846MOL0     H16689  10.811   1.051   6.869  0.5436  0.2153 -2.7051
  846MOL0     H16690  10.740   0.881   6.843 -0.0781 -0.0823  0.0654
  846MOL0     H16691  10.561   1.074   6.980 -0.2767 -1.1622  0.3818
  846MOL0     H16692  10.570   0.894   6.976  1.6236 -1.5382  1.8630
  846MOL0     H16693  10.778   1.069   7.111 -0.3693  0.8439 -3.0745
  846MOL0     H16694  10.794   0.899   7.094  2.1036  1.6487 -2.1114
  846MOL0     H16695  10.699   0.902   7.308  2.1483 -0.6207 -1.7246
  846MOL0     H16696  10.596   1.048   7.287 -0.7851 -2.3201  1.3004
  846MOL0     H16697  10.596   0.679   7.166 -1.4627 -1.6241  0.5703
  846MOL0     H16698  10.235   0.523   7.227  0.6890  2.3690  2.2549
  846MOL0     H16699  10.405   0.483   7.231 -0.1962  0.4591 -0.7375
  846MOL0     H16700  10.288   0.579   6.978 -0.7927 -0.3872 -0.2635
  846MOL0     H16701  10.443   0.503   7.003 -1.7668  0.0641 -2.8475
  846MOL0     H16702  10.333   0.296   7.067  0.9948  3.3366  0.8409
  846MOL0     H16703  10.173   0.354   7.006 -0.1650  1.7548  1.1319
  846MOL0     H16704  10.429   0.337   6.852  0.4529 -2.0679 -0.0330
  846MOL0     H16705  10.299   0.209   6.842  1.9104 -0.6252 -1.7208
  846MOL0     H16706  10.379   0.200   6.634 -0.0081  0.1350 -1.7177
  846MOL0     H16707  10.546   0.188   6.398 -0.3970  1.5510  1.0038
  846MOL0     H16708  10.435   0.121   6.274 -1.1773 -0.5016  0.7675
  846MOL0     H16709  10.452   0.050   6.440 -0.6757  0.7440  0.2107
  846MOL0     H16710  10.208   0.541   6.030  1.5975 -0.3831  0.2782
  846MOL0     H16711  10.135   0.606   5.793  2.6946 -0.8612 -1.1496
  846MOL0     H16712   9.890   0.317   5.531 -2.3190 -0.3492 -1.3163
  846MOL0     H16713   9.791   0.435   5.628  0.5149 -2.1573  1.3471
  846MOL0     H16714   9.942   0.491   5.370  0.3430 -0.9954  1.2117
  846MOL0     H16715   9.768   0.495   5.376 -0.3151  0.7062 -1.2615
  846MOL0     H16716   9.926   0.693   5.558 -1.0009  2.3166 -1.2236
  846MOL0     H16717   9.750   0.678   5.515 -0.3761 -0.8548  1.2410
  846MOL0     H16718   9.780   0.764   5.306  0.5403  2.0211 -0.4696
  846MOL0     H16719   9.955   0.744   5.313  0.2022  0.0443  0.6746
  846MOL0     H16720   9.990   0.894   5.481  1.3825  0.2334 -1.6781
  846MOL0     H16721   9.893   0.976   5.361 -2.4959 -1.1759 -0.5217
  846MOL0     H16722   9.762   0.865   5.607  1.6361  1.8915  1.7054
  846MOL0     H16723   9.680   0.956   5.482  0.9696 -2.3968 -1.6409
  846MOL0     H16724   9.867   1.142   5.534  0.3419 -0.3380  0.3826
  846MOL0     H16725   9.900   1.066   5.688  0.0782  0.4350  0.5891
  846MOL0     H16726   9.725   1.239   5.719 -1.3532  1.8651 -2.4507
  846MOL0     H16727   9.641   1.081   5.727 -1.0798 -1.6389 -1.7527
  846MOL0     H16728   9.882   0.254   5.772 -2.0935  2.5047  0.7257
  846MOL0     H16729   9.945   0.205   5.994 -2.3626  0.4678 -1.4793
  846MOL0     H16730  10.115   0.483   6.338 -3.6995  1.9576  3.8922
  846MOL0     H16731  10.126   0.519   6.580  0.4493 -1.5441 -0.0297
  846MOL0     H16732  11.006   1.098   6.219 -1.2268 -0.3782 -0.2938
  846MOL0     H16733  11.168   0.996   6.072 -1.0355 -0.8300 -1.5735
  846MOL0     H16734  11.195   0.632   5.766 -0.2092  0.0656  0.7070
  846MOL0     H16735  11.298   0.531   5.593  1.3671 -2.1968 -1.2087
  846MOL0     H16736  11.409   0.429   5.453  0.2060  1.6947  2.2625
  846MOL0     H16737  11.566   0.416   5.369 -1.6504  1.0824 -1.0967
  846MOL0     H16738  11.495   0.217   5.506  1.0655  1.0320 -1.2226
  846MOL0     H16739  11.475   0.333   5.644  3.0172  2.2389  0.7592
  846MOL0     H16740  11.743   0.279   5.502  1.4526  3.6009  0.2153
  846MOL0     H16741  11.701   0.395   5.630 -0.5705  0.4711 -0.9931
  846MOL0     H16742  11.654   0.083   5.655  0.3084 -0.4133 -2.6276
  846MOL0     H16743  11.659   0.216   5.777  0.5269 -0.6640  0.0170
  846MOL0     H16744  12.069   0.163   5.737 -0.1616 -1.4355  3.7874
  846MOL0     H16745  11.677   0.669   5.723  0.5702 -0.8206 -1.4469
  846MOL0     H16746  11.709   0.791   5.916 -0.7024  2.3320 -0.6276
  846MOL0     H16747  11.585   0.903   5.940  1.9107  1.2149  1.4090
  846MOL0     H16748  11.600   0.760   6.053 -1.1562  1.7207 -0.2501
  847MOL0     O16749   4.238   8.618   4.037  0.1478 -0.1946 -0.0286
  847MOL0     C16750   4.218   8.740   4.036 -0.3550 -0.0694  0.0984
  847MOL0     O16751   4.159   8.813   3.940  0.4402  0.5984  0.8997
  847MOL0     C16752   4.124   8.761   3.813 -0.2568 -0.7801  0.8928
  847MOL0     C16753   4.067   8.639   3.784  0.1093  0.5727 -0.3209
  847MOL0     C16754   4.015   8.602   3.660 -0.6888  0.0407 -0.8335
  847MOL0     C16755   4.025   8.690   3.551 -0.0652 -0.1909  0.0835
  847MOL0     O16756   3.971   8.672   3.428  0.5436  0.8309  0.9235
  847MOL0     C16757   3.894   8.553   3.413  0.5866  0.4576 -0.8135
  847MOL0     C16758   3.828   8.564   3.269  0.3689  0.4443  0.6589
  847MOL0     C16759   3.737   8.685   3.246  0.3036  0.0035  0.7029
  847MOL0     C16760   3.602   8.666   3.309  0.2306 -0.3483  0.6629
  847MOL0     C16761   3.503   8.767   3.266  0.3369  0.2446  0.3028
  847MOL0     C16762   3.366   8.714   3.282  0.0624 -0.5684  0.0251
  847MOL0     C16763   3.314   8.681   3.414  0.1046 -0.6286 -0.2702
  847MOL0     C16764   3.311   8.795   3.523  1.0550  0.0106 -0.3331
  847MOL0     N16765   3.423   8.784   3.623  0.2130  0.4043  0.1192
  847MOL0     C16766   3.527   8.870   3.617  0.7221  0.1993 -0.3889
  847MOL0     C16767   3.606   8.832   3.719 -0.4957  0.6413 -0.5142
  847MOL0     C16768   3.741   8.877   3.742  0.8143 -0.2508 -0.5406
  847MOL0     C16769   3.743   8.991   3.849  0.3637  0.0686  1.1570
  847MOL0     C16770   3.881   9.056   3.851 -0.3337 -0.6814 -0.8124
  847MOL0     C16771   3.880   9.176   3.951 -0.8079 -0.4426 -0.3412
  847MOL0     O16772   3.769   9.269   3.937 -0.0563 -0.1101  0.3662
  847MOL0     C16773   3.755   9.371   4.019  0.5820  0.5593 -0.6223
  847MOL0     C16774   3.647   9.442   3.997  0.4569 -0.8801 -0.2705
  847MOL0     C16775   3.614   9.570   4.057  0.1123  0.3987  0.1594
  847MOL0     C16776   3.487   9.625   4.039 -1.1741 -0.3938 -0.7579
  847MOL0     C16777   3.712   9.620   4.154  0.9202 -1.0446 -1.0479
  847MOL0     C16778   3.680   9.742   4.241 -0.2876  0.0040  0.4129
  847MOL0     O16779   3.795   9.801   4.290  0.0860 -0.3751  0.6541
  847MOL0     C16780   3.797   9.897   4.389 -0.9082  0.0456  0.1206
  847MOL0     C16781   3.918   9.959   4.418  0.8831 -1.1781  0.7128
  847MOL0     C16782   3.934  10.048   4.521 -0.7406  0.2970 -0.0100
  847MOL0     C16783   3.827  10.099   4.590 -0.7801  0.3534  0.1099
  847MOL0     O16784   3.848  10.206   4.665  0.5734 -0.0046 -0.1193
  847MOL0     C16785   3.737  10.300   4.686  0.0012 -0.6828 -0.5852
  847MOL0     C16786   3.780  10.447   4.728 -0.0190  0.2426  1.1430
  847MOL0     C16787   3.888  10.444   4.829  0.2668  0.8178  0.1843
  847MOL0     C16788   3.900  10.580   4.896 -0.2269 -0.4309  0.4062
  847MOL0     C16789   4.000  10.587   5.009 -0.3849 -0.3722 -0.4430
  847MOL0     C16790   4.153  10.580   4.967 -0.4373 -0.1272 -1.0471
  847MOL0     C16791   4.240  10.624   5.079 -0.4148  0.5255 -0.1643
  847MOL0     C16792   4.388  10.637   5.037  0.2928 -0.7609 -1.0827
  847MOL0    Cl16793   4.481  10.707   5.165 -0.0677  0.0875 -0.1113
  847MOL0     C16794   3.708  10.027   4.573 -0.2020  0.9013  0.5319
  847MOL0     C16795   3.686   9.924   4.471 -0.0732 -0.3829 -0.5336
  847MOL0     O16796   3.566   9.790   4.252 -0.8108 -0.5477 -0.0976
  847MOL0     C16797   3.826   9.546   4.178 -0.0419 -0.3539 -0.3757
  847MOL0     C16798   3.846   9.426   4.113  0.0093  0.3886 -0.2129
  847MOL0     N16799   3.534   8.738   3.785 -0.0655 -0.2866  0.9346
  847MOL0     N16800   3.421   8.707   3.733 -0.7853 -0.0110  0.3140
  847MOL0     C16801   4.101   8.808   3.566 -0.1346 -0.7446 -0.4008
  847MOL0     C16802   4.148   8.839   3.694 -0.1655  0.0780  0.1548
  847MOL0     C16803   4.264   8.824   4.151  0.5671 -0.5596 -0.1019
  847MOL0     C16804   4.217   8.962   4.162 -0.2442 -0.1339  0.2134
  847MOL0     C16805   4.235   9.035   4.274  0.6713  0.9637 -1.3634
  847MOL0     C16806   4.295   8.979   4.387  0.4671  0.6976 -0.5189
  847MOL0     O16807   4.313   9.069   4.491  0.0261  0.0249 -0.1574
  847MOL0     C16808   4.324   9.024   4.629  0.1053  0.4911  0.6841
  847MOL0     C16809   4.193   9.043   4.703  0.3415  0.7664  0.1605
  847MOL0     C16810   4.194   9.167   4.801  0.5189 -0.3468 -0.3711
  847MOL0     C16811   4.284   9.150   4.932  0.0811 -0.0712 -0.1150
  847MOL0     C16812   4.282   9.266   5.007  0.5003 -0.7682 -1.0906
  847MOL0     C16813   4.274   9.357   5.089 -0.2325 -0.4786 -0.8069
  847MOL0     C16814   4.348   8.852   4.382  0.8726 -0.9018  0.3966
  847MOL0     C16815   4.334   8.773   4.266  0.1334  0.1010 -0.4857
  847MOL0     C16816   4.403   8.648   4.263 -0.2902  0.6297 -0.3484
  847MOL0     H16817   4.066   8.571   3.869  0.0101 -0.7706 -1.3585
  847MOL0     H16818   3.966   8.505   3.654  0.0396 -0.3186 -1.0660
  847MOL0     H16819   3.820   8.564   3.492  0.0803 -0.0248 -1.2157
  847MOL0     H16820   3.950   8.460   3.420 -1.6057 -0.8030  1.4153
  847MOL0     H16821   3.910   8.570   3.197 -0.2648 -0.6580 -0.1917
  847MOL0     H16822   3.771   8.474   3.242 -1.7551  1.6516  0.8671
  847MOL0     H16823   3.792   8.769   3.290  2.7619 -0.5851 -1.0421
  847MOL0     H16824   3.720   8.702   3.139 -0.4231 -3.1819  0.2046
  847MOL0     H16825   3.553   8.570   3.290 -2.1933  0.8165  0.5878
  847MOL0     H16826   3.611   8.675   3.418  0.0516 -0.7553  0.7146
  847MOL0     H16827   3.511   8.789   3.159 -1.6485 -2.4960 -0.5204
  847MOL0     H16828   3.516   8.864   3.314 -0.8177  1.0633 -0.9460
  847MOL0     H16829   3.302   8.789   3.233 -0.1954 -3.2930 -4.3336
  847MOL0     H16830   3.355   8.627   3.217 -0.1886 -0.6604  0.1915
  847MOL0     H16831   3.368   8.592   3.448  1.4859  0.5859  0.8439
  847MOL0     H16832   3.208   8.665   3.390 -0.3085  1.5277 -0.1259
  847MOL0     H16833   3.301   8.898   3.488  0.0395  0.3630  0.9444
  847MOL0     H16834   3.217   8.775   3.576  0.1031 -1.1395 -2.3343
  847MOL0     H16835   3.546   8.931   3.530 -1.7878  1.2884 -0.2620
  847MOL0     H16836   3.777   8.907   3.643 -0.5245  2.3042 -0.3429
  847MOL0     H16837   3.794   8.787   3.775  0.3990  0.5178  2.5059
  847MOL0     H16838   3.667   9.063   3.818 -0.6184 -1.0645  0.8629
  847MOL0     H16839   3.721   8.954   3.949 -0.5805 -0.8032  0.6360
  847MOL0     H16840   3.956   8.990   3.896 -1.6194 -0.4989  1.7638
  847MOL0     H16841   3.916   9.089   3.753  0.7384  0.1439 -0.1774
  847MOL0     H16842   3.885   9.148   4.057 -1.3637  1.1952  0.1448
  847MOL0     H16843   3.967   9.242   3.948 -3.2490  3.3514  2.4511
  847MOL0     H16844   3.573   9.401   3.930  0.7113 -2.0818  0.1548
  847MOL0     H16845   3.454   9.608   3.936 -1.3341  0.9721 -0.9569
  847MOL0     H16846   3.479   9.733   4.053 -0.9662 -0.3915 -0.6592
  847MOL0     H16847   3.428   9.567   4.111  1.2648 -1.6385  0.3397
  847MOL0     H16848   4.002   9.929   4.357  0.4681 -0.3195 -0.3048
  847MOL0     H16849   4.028  10.100   4.538 -0.2543 -0.0938 -1.3687
  847MOL0     H16850   3.682  10.312   4.592 -1.3020 -0.8984  0.1338
  847MOL0     H16851   3.657  10.255   4.745 -3.6427  2.6829 -2.5336
  847MOL0     H16852   3.827  10.489   4.638  2.8355 -5.6380 -0.6338
  847MOL0     H16853   3.695  10.503   4.766  0.1195  0.7582  0.6988
  847MOL0     H16854   3.987  10.432   4.783  0.0350  1.9079 -0.6527
  847MOL0     H16855   3.871  10.367   4.904 -1.1963 -2.1452 -2.8981
  847MOL0     H16856   3.802  10.603   4.938 -0.9129  0.6181 -1.6284
  847MOL0     H16857   3.929  10.653   4.820  1.8352  1.7421  3.0611
  847MOL0     H16858   3.977  10.675   5.070  0.8276 -1.1068  1.1361
  847MOL0     H16859   3.981  10.505   5.078  0.8541 -0.4459 -0.1716
  847MOL0     H16860   4.166  10.637   4.874  1.4671 -2.1672 -2.1137
  847MOL0     H16861   4.170  10.477   4.935 -1.9238 -0.7924  0.1878
  847MOL0     H16862   4.244  10.549   5.159 -1.2334  2.3339  1.6500
  847MOL0     H16863   4.210  10.720   5.121  0.4738  1.4731 -1.6135
  847MOL0     H16864   4.398  10.711   4.956 -1.8966  1.0611  0.1935
  847MOL0     H16865   4.422  10.539   5.002  1.5708 -1.3635  1.6136
  847MOL0     H16866   3.627  10.052   4.640 -0.9731  0.6715 -0.2980
  847MOL0     H16867   3.592   9.871   4.471 -0.6456  0.5978 -0.5633
  847MOL0     H16868   3.897   9.572   4.255 -0.2207 -0.0418 -0.3159
  847MOL0     H16869   3.935   9.371   4.141 -2.3447 -3.4064  0.6450
  847MOL0     H16870   4.109   8.874   3.479  0.1509 -0.1483  0.0711
  847MOL0     H16871   4.173   8.938   3.728 -1.7808  0.0051  1.7019
  847MOL0     H16872   4.182   9.017   4.075  0.3065  0.4128  0.3276
  847MOL0     H16873   4.191   9.134   4.281 -0.2958  0.4542  0.1107
  847MOL0     H16874   4.348   8.918   4.636 -2.6589 -0.2191  0.8197
  847MOL0     H16875   4.403   9.087   4.670 -0.4155  1.0790  0.8101
  847MOL0     H16876   4.155   8.950   4.748  1.6947  1.2772  2.5572
  847MOL0     H16877   4.116   9.067   4.629 -0.7194 -1.6204  0.3987
  847MOL0     H16878   4.244   9.244   4.741  3.1825 -1.0163  0.8107
  847MOL0     H16879   4.099   9.192   4.849  1.1740  1.6395 -0.0187
  847MOL0     H16880   4.388   9.135   4.903 -0.0785  1.2913 -1.5661
  847MOL0     H16881   4.249   9.071   4.999 -0.6603  1.5868  1.5346
  847MOL0     H16882   4.264   9.433   5.164  1.2789 -0.5943 -0.4518
  847MOL0     H16883   4.406   8.817   4.467  0.7427  0.8451  1.2535
  847MOL0     H16884   4.331   8.566   4.254  1.8052 -1.5683  1.3572
  847MOL0     H16885   4.465   8.628   4.176  0.3204 -1.1617  0.4423
  847MOL0     H16886   4.461   8.617   4.351  1.5074 -0.6799 -1.9179
  848MOL0     O16887   5.536   8.485   8.330 -0.8801  0.0559  0.4695
  848MOL0     C16888   5.532   8.416   8.428  0.2766  0.1275  0.3725
  848MOL0     O16889   5.552   8.467   8.556 -0.2512  0.2861  0.3532
  848MOL0     C16890   5.521   8.603   8.583 -0.5564 -0.5426  0.6318
  848MOL0     C16891   5.605   8.659   8.686 -0.0327 -0.0077 -0.0092
  848MOL0     C16892   5.586   8.788   8.730  1.1532 -0.2844  0.8695
  848MOL0     C16893   5.490   8.866   8.671  1.1793 -1.3168 -0.9435
  848MOL0     O16894   5.459   9.001   8.706  0.2374  0.2781 -0.0590
  848MOL0     C16895   5.530   9.073   8.814  0.4701 -0.0099  0.2043
  848MOL0     C16896   5.475   9.041   8.954 -0.2001 -0.4035 -1.1204
  848MOL0     C16897   5.465   9.147   9.072  0.3355  0.3930  0.5377
  848MOL0     C16898   5.581   9.253   9.077  0.2598  0.3318  0.2559
  848MOL0     C16899   5.533   9.365   9.169  0.1836  0.7516  0.3224
  848MOL0     C16900   5.643   9.468   9.204  0.2724  0.5834  0.1198
  848MOL0     C16901   5.686   9.541   9.075  0.5229  0.9547 -1.3389
  848MOL0     C16902   5.775   9.657   9.110 -0.3316  0.1331 -0.4591
  848MOL0     N16903   5.782   9.738   8.985  0.1750 -1.2295 -0.7333
  848MOL0     C16904   5.688   9.828   8.933 -0.2663 -0.6976 -0.7250
  848MOL0     C16905   5.753   9.893   8.832  0.1100 -0.4085 -0.5133
  848MOL0     C16906   5.707  10.009   8.756 -0.1583  0.5092  0.5456
  848MOL0     C16907   5.810  10.127   8.743 -0.5349  0.0779  0.1084
  848MOL0     C16908   5.902  10.098   8.622  0.2662  0.5843 -0.6923
  848MOL0     C16909   6.047  10.051   8.648  0.5018 -0.0781 -0.4502
  848MOL0     O16910   6.112  10.149   8.726 -0.2423 -0.1898 -0.2945
  848MOL0     C16911   6.160  10.266   8.672 -0.3049 -0.6675 -0.0150
  848MOL0     C16912   6.155  10.302   8.538  1.5155 -0.2183 -0.0900
  848MOL0     C16913   6.213  10.421   8.481 -0.1150 -0.0771  0.8448
  848MOL0     C16914   6.176  10.449   8.331 -0.1535  0.2467  0.1664
  848MOL0     C16915   6.281  10.510   8.566 -0.8595  0.8381 -0.5230
  848MOL0     C16916   6.339  10.639   8.523  0.1223 -0.0974 -0.4070
  848MOL0     O16917   6.371  10.709   8.634 -0.3071 -0.0597  0.1477
  848MOL0     C16918   6.477  10.804   8.639 -0.4493  0.0442 -0.3192
  848MOL0     C16919   6.508  10.849   8.765  0.5817 -0.8340 -0.1660
  848MOL0     C16920   6.604  10.942   8.785 -0.5804  0.1480 -0.4759
  848MOL0     C16921   6.693  10.982   8.695  0.0659  0.4119  0.1510
  848MOL0     O16922   6.784  11.073   8.739  0.1755 -0.0405 -0.0826
  848MOL0     C16923   6.886  11.121   8.643 -0.1718 -0.6452  0.6146
  848MOL0     C16924   6.926  11.252   8.698  0.2361  0.3000 -0.0250
  848MOL0     C16925   7.009  11.353   8.607 -0.0881  0.4255 -0.0534
  848MOL0     C16926   7.157  11.314   8.628 -0.5128 -0.2729  0.4243
  848MOL0     C16927   7.246  11.350   8.510  0.0776 -0.4965  0.3212
  848MOL0     C16928   7.269  11.498   8.482 -0.6686  0.9697 -0.0875
  848MOL0     C16929   7.314  11.583   8.600 -1.0040  0.7846  0.6209
  848MOL0     C16930   7.348  11.731   8.548  0.6866  0.0189  0.3460
  848MOL0    Cl16931   7.206  11.809   8.490 -0.1414  0.6639  0.6280
  848MOL0     C16932   6.672  10.933   8.562  0.0725  0.4470  0.3787
  848MOL0     C16933   6.562  10.847   8.532 -0.3627 -0.2748  0.5852
  848MOL0     O16934   6.345  10.679   8.410 -0.7546  1.3472  0.9315
  848MOL0     C16935   6.280  10.470   8.705 -0.9449 -0.6775  0.5433
  848MOL0     C16936   6.220  10.356   8.753 -0.8154 -0.2608 -0.7618
  848MOL0     N16937   5.874   9.827   8.813  0.0032  0.6278 -0.4353
  848MOL0     N16938   5.894   9.745   8.910 -0.5973  0.5503 -0.8734
  848MOL0     C16939   5.412   8.818   8.561 -0.1247 -0.3301 -0.4084
  848MOL0     C16940   5.425   8.680   8.523 -0.4093 -0.0007 -0.1822
  848MOL0     C16941   5.537   8.272   8.400  0.6890 -0.1896 -0.2856
  848MOL0     C16942   5.603   8.198   8.499 -0.3588 -0.1862  0.1712
  848MOL0     C16943   5.602   8.051   8.499  0.2985 -0.4773 -0.4369
  848MOL0     C16944   5.546   7.986   8.388  0.3958  0.7776  0.0985
  848MOL0     O16945   5.548   7.852   8.396 -0.4176 -0.2196  0.3377
  848MOL0     C16946   5.474   7.758   8.303 -0.2154 -0.1656 -0.4218
  848MOL0     C16947   5.367   7.676   8.377  0.7334 -0.0465  0.6635
  848MOL0     C16948   5.279   7.743   8.480  0.1465 -0.3729 -1.0310
  848MOL0     C16949   5.339   7.746   8.621 -0.0028 -0.1642  0.3346
  848MOL0     C16950   5.266   7.831   8.722 -0.1556 -0.6824  0.2431
  848MOL0     C16951   5.208   7.907   8.804 -0.4654  0.9941  0.1476
  848MOL0     C16952   5.490   8.064   8.281 -0.2296  0.4651 -0.7980
  848MOL0     C16953   5.492   8.203   8.287 -0.6583 -1.2061 -0.6841
  848MOL0     C16954   5.433   8.267   8.163  0.6099  0.0914 -0.3016
  848MOL0     H16955   5.670   8.593   8.742 -1.2787 -1.9033 -0.6982
  848MOL0     H16956   5.643   8.810   8.820  1.7983 -0.9900  0.6480
  848MOL0     H16957   5.520   9.180   8.795  2.1772  0.3053  0.9448
  848MOL0     H16958   5.635   9.045   8.808  0.2041 -1.0473  0.2450
  848MOL0     H16959   5.375   9.000   8.933 -1.2804  2.4835 -2.0862
  848MOL0     H16960   5.542   8.962   8.991  0.6634  1.5381  1.8484
  848MOL0     H16961   5.372   9.206   9.064  0.4858  0.6974  1.0268
  848MOL0     H16962   5.457   9.091   9.165  0.1394  1.0847  0.9429
  848MOL0     H16963   5.668   9.208   9.125  0.2133  0.6154  0.6101
  848MOL0     H16964   5.599   9.285   8.973 -1.1491 -0.8951 -0.4054
  848MOL0     H16965   5.499   9.328   9.266 -0.1803 -1.8418 -0.7276
  848MOL0     H16966   5.452   9.414   9.115 -0.0006 -0.0410 -0.1314
  848MOL0     H16967   5.614   9.544   9.277  1.8484 -0.7915  2.2982
  848MOL0     H16968   5.730   9.419   9.247 -0.5022  0.5884  1.7828
  848MOL0     H16969   5.606   9.584   9.015  1.0546  1.2588 -1.8448
  848MOL0     H16970   5.721   9.468   9.001 -1.3433 -0.0220 -1.3306
  848MOL0     H16971   5.729   9.723   9.185 -1.4173 -0.3624 -0.6815
  848MOL0     H16972   5.870   9.611   9.141 -1.5379 -1.7336  0.6791
  848MOL0     H16973   5.586   9.847   8.967 -0.4681 -0.0218 -1.6634
  848MOL0     H16974   5.618  10.039   8.813 -1.5855 -1.7706 -0.3481
  848MOL0     H16975   5.675   9.964   8.662  0.7582  2.6824 -0.8915
  848MOL0     H16976   5.763  10.223   8.720  1.0630  1.5404  2.4871
  848MOL0     H16977   5.860  10.137   8.840  0.8300 -0.4076 -0.5170
  848MOL0     H16978   5.849  10.034   8.550 -0.8137 -1.9437  2.1408
  848MOL0     H16979   5.921  10.196   8.576  1.6586 -0.4358 -2.4068
  848MOL0     H16980   6.050   9.954   8.698 -0.6498  0.3985  0.5958
  848MOL0     H16981   6.107  10.030   8.558 -2.9687  0.0879 -3.0203
  848MOL0     H16982   6.100  10.231   8.477 -3.3673  2.4860  0.6958
  848MOL0     H16983   6.129  10.361   8.286 -1.4272  1.1201 -0.2456
  848MOL0     H16984   6.272  10.457   8.279  0.5161  0.3022  1.3569
  848MOL0     H16985   6.120  10.541   8.318 -0.8674 -0.6437 -4.5542
  848MOL0     H16986   6.437  10.823   8.843 -2.3896  2.1840 -1.6094
  848MOL0     H16987   6.621  10.973   8.888 -1.5275 -2.1501  0.4575
  848MOL0     H16988   6.970  11.052   8.653 -0.3799 -0.7353  1.8673
  848MOL0     H16989   6.855  11.134   8.538 -0.9423  1.1582  1.0146
  848MOL0     H16990   6.835  11.307   8.725  0.7427  1.3334 -0.3752
  848MOL0     H16991   6.985  11.235   8.789 -1.0031 -1.7128  0.4552
  848MOL0     H16992   7.009  11.457   8.639  2.4372  0.3189  0.5357
  848MOL0     H16993   6.976  11.353   8.502 -0.8021 -3.9003 -0.0208
  848MOL0     H16994   7.167  11.206   8.641  1.5307 -0.2895 -0.7460
  848MOL0     H16995   7.202  11.360   8.717 -0.3109  1.0169 -0.3251
  848MOL0     H16996   7.349  11.323   8.533  1.4246  2.8234 -1.1440
  848MOL0     H16997   7.215  11.296   8.419  1.4129 -0.2383 -0.3116
  848MOL0     H16998   7.173  11.540   8.449 -1.9922 -3.0415 -1.9734
  848MOL0     H16999   7.349  11.509   8.408 -1.6360  1.1289 -1.1482
  848MOL0     H17000   7.406  11.544   8.643 -0.8432  1.2999  0.7529
  848MOL0     H17001   7.232  11.595   8.672 -0.1791 -3.3841  2.5654
  848MOL0     H17002   7.424  11.742   8.471  0.3416  1.9706  0.2222
  848MOL0     H17003   7.371  11.795   8.634 -2.4539  1.3274  0.3642
  848MOL0     H17004   6.741  10.963   8.483  1.8725 -2.4257  0.6990
  848MOL0     H17005   6.545  10.804   8.433 -1.7749 -0.1492  0.7550
  848MOL0     H17006   6.336  10.530   8.776  0.6011 -0.0892 -1.0980
  848MOL0     H17007   6.223  10.341   8.860 -2.3334 -0.5331 -0.7416
  848MOL0     H17008   5.334   8.887   8.529 -1.1899 -1.5656 -0.5201
  848MOL0     H17009   5.356   8.653   8.444 -1.2931 -2.8753  1.4509
  848MOL0     H17010   5.659   8.252   8.574 -0.4302  1.9279 -1.2294
  848MOL0     H17011   5.649   7.989   8.574  1.1968 -0.6354 -1.1175
  848MOL0     H17012   5.428   7.809   8.218 -1.8856 -1.1811 -0.1839
  848MOL0     H17013   5.544   7.681   8.268 -0.5168 -1.3383  1.3832
  848MOL0     H17014   5.409   7.578   8.405  2.9795  0.1383 -1.6654
  848MOL0     H17015   5.296   7.644   8.300 -0.3364 -1.0346  2.0036
  848MOL0     H17016   5.256   7.841   8.437  1.0148 -0.9615 -2.9675
  848MOL0     H17017   5.186   7.687   8.488  0.3945 -0.6969 -0.3505
  848MOL0     H17018   5.443   7.780   8.619  0.2536 -0.7999  1.9099
  848MOL0     H17019   5.358   7.647   8.662  0.3483  0.3669  1.4783
  848MOL0     H17020   5.160   7.968   8.877  1.1550  4.9095 -1.7878
  848MOL0     H17021   5.451   8.017   8.191 -3.7642  1.1788  0.1675
  848MOL0     H17022   5.326   8.243   8.164  0.7116 -0.9726 -3.3044
  848MOL0     H17023   5.449   8.374   8.147 -0.7057  0.0848 -2.0249
  848MOL0     H17024   5.470   8.220   8.072  1.2893 -1.3725  0.6938
  849MOL0     O17025   1.336   2.224   2.112 -0.0923  0.0693 -0.9788
  849MOL0     C17026   1.223   2.257   2.152  0.6841 -0.8975 -0.1860
  849MOL0     O17027   1.107   2.280   2.064  0.2219  0.3634 -0.4954
  849MOL0     C17028   1.122   2.290   1.933  0.1782 -0.3770  0.3405
  849MOL0     C17029   1.017   2.239   1.857 -0.1333 -0.7824  0.0492
  849MOL0     C17030   1.026   2.243   1.717  0.3419  0.1169 -0.3256
  849MOL0     C17031   1.139   2.290   1.652 -0.0489 -0.3583  0.8764
  849MOL0     O17032   1.160   2.283   1.512  0.1265 -0.3694  0.1555
  849MOL0     C17033   1.097   2.177   1.439  0.2129  0.1047  0.4317
  849MOL0     C17034   1.213   2.079   1.458 -0.2115 -0.3474 -0.0924
  849MOL0     C17035   1.328   2.108   1.357 -0.2404 -1.0506  1.0221
  849MOL0     C17036   1.395   2.247   1.380 -0.4861 -0.7880  0.1451
  849MOL0     C17037   1.531   2.250   1.302  0.3701  0.5469 -0.0256
  849MOL0     C17038   1.648   2.221   1.401 -0.3417  0.5210 -0.1867
  849MOL0     C17039   1.781   2.231   1.321  0.0123 -0.3548  0.7090
  849MOL0     C17040   1.828   2.102   1.263 -0.1520  0.2347 -0.1173
  849MOL0     N17041   1.952   2.112   1.188  0.3046 -0.3491 -0.4851
  849MOL0     C17042   2.052   2.014   1.184 -0.1715  0.2944  0.0583
  849MOL0     C17043   2.144   2.076   1.109  0.1225  0.2803  0.1982
  849MOL0     C17044   2.277   2.020   1.073 -0.5489  0.0615  0.6771
  849MOL0     C17045   2.249   1.889   1.013  0.0977  0.4163 -0.7204
  849MOL0     C17046   2.372   1.819   0.935  0.0775  0.9157 -0.2213
  849MOL0     C17047   2.399   1.870   0.797 -0.4651  0.7094 -0.2205
  849MOL0     O17048   2.537   1.855   0.750 -0.2851 -0.1739 -0.4648
  849MOL0     C17049   2.631   1.944   0.802  0.7084  0.3126  1.2051
  849MOL0     C17050   2.625   2.086   0.815 -0.4499  1.1462 -0.1160
  849MOL0     C17051   2.734   2.165   0.866 -0.2742  0.2931  0.5907
  849MOL0     C17052   2.715   2.310   0.907 -0.0407 -0.4264 -0.0221
  849MOL0     C17053   2.856   2.094   0.895 -0.4720  0.2635 -0.4740
  849MOL0     C17054   2.981   2.164   0.927 -0.1759  0.0953 -0.6260
  849MOL0     O17055   3.043   2.125   1.042  0.9444  0.7216 -0.0723
  849MOL0     C17056   3.136   2.210   1.096 -0.2092 -1.0301 -0.1111
  849MOL0     C17057   3.271   2.174   1.109  0.0183  0.7801  0.3620
  849MOL0     C17058   3.367   2.267   1.146 -0.0408 -1.5121 -0.2638
  849MOL0     C17059   3.325   2.398   1.181  0.5615  0.4688 -0.5796
  849MOL0     O17060   3.416   2.489   1.219  0.1910 -0.3821 -0.0795
  849MOL0     C17061   3.424   2.626   1.178 -0.3020 -0.5343 -0.6157
  849MOL0     C17062   3.529   2.687   1.259 -0.1057  0.1820 -0.2630
  849MOL0     C17063   3.488   2.723   1.408 -0.1602 -0.5759 -0.1761
  849MOL0     C17064   3.612   2.749   1.490  0.1201  0.7230  0.0368
  849MOL0     C17065   3.596   2.805   1.625  0.1215  0.9901 -0.0972
  849MOL0     C17066   3.701   2.793   1.730 -0.3206  0.8053  0.5094
  849MOL0     C17067   3.754   2.643   1.754  0.6516 -0.4871  0.0498
  849MOL0     C17068   3.652   2.564   1.818 -0.4806  0.2446  0.2374
  849MOL0    Cl17069   3.613   2.615   1.984  0.0360  0.2952 -0.3427
  849MOL0     C17070   3.189   2.421   1.187  0.4569 -0.4137 -0.1537
  849MOL0     C17071   3.093   2.333   1.154  0.0404  0.0695  1.2811
  849MOL0     O17072   3.016   2.256   0.854  0.4721  0.8001 -0.1132
  849MOL0     C17073   2.852   1.957   0.903  0.8046  0.4855  0.1931
  849MOL0     C17074   2.742   1.880   0.851  0.5418  0.1378 -0.0271
  849MOL0     N17075   2.099   2.197   1.063  0.2876 -0.0981 -0.8130
  849MOL0     N17076   1.981   2.217   1.113  0.6913 -0.0443 -0.7562
  849MOL0     C17077   1.236   2.352   1.723  0.9891 -1.1797 -0.3171
  849MOL0     C17078   1.228   2.356   1.862  0.8895  1.3721 -0.2392
  849MOL0     C17079   1.218   2.286   2.295  0.5296 -0.3810  0.5672
  849MOL0     C17080   1.301   2.210   2.379 -0.7255  0.3224 -0.3369
  849MOL0     C17081   1.314   2.254   2.514 -0.1409 -0.1737  0.0053
  849MOL0     C17082   1.240   2.368   2.557  0.6048 -0.0164 -0.9226
  849MOL0     O17083   1.237   2.410   2.692  0.1930  0.4193 -0.6979
  849MOL0     C17084   1.307   2.335   2.798  0.1133 -0.1031  0.2085
  849MOL0     C17085   1.270   2.394   2.938  0.4958  0.0294  0.7484
  849MOL0     C17086   1.261   2.276   3.032  0.9714 -0.1922  0.3596
  849MOL0     C17087   1.277   2.314   3.188 -0.1351  0.0746  0.1946
  849MOL0     C17088   1.154   2.383   3.238 -0.1463  0.7305 -0.4575
  849MOL0     C17089   1.058   2.440   3.276 -0.2468  0.7394 -0.2435
  849MOL0     C17090   1.167   2.444   2.471  0.5968  0.5590 -0.2870
  849MOL0     C17091   1.159   2.406   2.336  0.0996 -0.1489 -1.1763
  849MOL0     C17092   1.072   2.487   2.247  0.0332  0.4065  0.4373
  849MOL0     H17093   0.924   2.197   1.892 -1.0051  1.6895  0.9014
  849MOL0     H17094   0.941   2.199   1.665  2.5187 -4.1668 -0.7093
  849MOL0     H17095   1.096   2.194   1.331  2.4744  2.0296  0.6414
  849MOL0     H17096   0.997   2.143   1.467  0.1282 -0.8960 -0.9503
  849MOL0     H17097   1.242   2.071   1.563 -1.0538 -2.7320  0.0223
  849MOL0     H17098   1.181   1.977   1.437  0.8788 -1.2277  2.1535
  849MOL0     H17099   1.404   2.032   1.374  1.4416 -0.9369 -4.3099
  849MOL0     H17100   1.294   2.109   1.253 -0.5015  3.3371  0.9577
  849MOL0     H17101   1.329   2.332   1.359 -0.9191 -0.6567  1.9003
  849MOL0     H17102   1.409   2.254   1.488 -0.4727 -0.1984  0.1061
  849MOL0     H17103   1.541   2.349   1.258 -1.4584  1.9111  2.4310
  849MOL0     H17104   1.524   2.179   1.219 -2.0936 -0.1955  0.7355
  849MOL0     H17105   1.646   2.289   1.486 -2.3470 -3.7664  3.6314
  849MOL0     H17106   1.648   2.121   1.446 -0.4510  1.4115  1.9162
  849MOL0     H17107   1.857   2.274   1.386  0.2841  1.6800 -0.8750
  849MOL0     H17108   1.765   2.299   1.236 -1.4173 -0.6394  0.7207
  849MOL0     H17109   1.837   2.026   1.341 -0.4228  1.0697  0.7423
  849MOL0     H17110   1.757   2.072   1.185  2.6927 -3.0227 -1.7522
  849MOL0     H17111   2.048   1.917   1.233 -1.6361 -1.5214 -3.3566
  849MOL0     H17112   2.340   2.004   1.160 -2.1426  1.2370  2.1151
  849MOL0     H17113   2.328   2.090   1.005  3.9029 -4.2815 -1.0499
  849MOL0     H17114   2.219   1.817   1.090  2.4628 -0.0940 -0.2178
  849MOL0     H17115   2.165   1.899   0.944  1.2703 -3.2423 -2.9132
  849MOL0     H17116   2.449   1.826   1.013 -0.0114 -0.7532  0.0474
  849MOL0     H17117   2.339   1.718   0.911  0.7004  0.5843  0.2663
  849MOL0     H17118   2.334   1.814   0.729  1.9712 -1.8481 -0.6329
  849MOL0     H17119   2.373   1.976   0.794  0.3222  0.8877 -1.3409
  849MOL0     H17120   2.527   2.132   0.810 -1.4325 -0.2727  3.1930
  849MOL0     H17121   2.766   2.365   0.827  0.7037 -3.7355 -2.0337
  849MOL0     H17122   2.766   2.335   1.000 -3.5247 -2.3669  2.6452
  849MOL0     H17123   2.612   2.345   0.918  0.3063  0.6281 -0.0051
  849MOL0     H17124   3.307   2.079   1.071 -0.4461  0.0636  1.6596
  849MOL0     H17125   3.470   2.237   1.126 -0.3307 -3.0999  0.4475
  849MOL0     H17126   3.451   2.627   1.072  0.0574  0.3247 -0.5154
  849MOL0     H17127   3.336   2.686   1.201  1.2319  1.6427 -0.1216
  849MOL0     H17128   3.607   2.611   1.267  0.4793  0.9679  3.6165
  849MOL0     H17129   3.567   2.781   1.218  3.8741 -1.2999 -0.4211
  849MOL0     H17130   3.428   2.643   1.452 -3.1955  1.8134  0.3839
  849MOL0     H17131   3.436   2.819   1.394  0.7594 -0.0777 -0.2537
  849MOL0     H17132   3.678   2.810   1.427  2.5171 -1.3520  0.3906
  849MOL0     H17133   3.666   2.654   1.497 -0.9881  0.0994  0.3093
  849MOL0     H17134   3.584   2.914   1.623 -0.0632  0.9909  0.8137
  849MOL0     H17135   3.509   2.758   1.670  1.0858  2.9148  4.2600
  849MOL0     H17136   3.672   2.841   1.824  2.4610  0.3343  1.7212
  849MOL0     H17137   3.789   2.844   1.689 -1.4571  0.8000 -2.1234
  849MOL0     H17138   3.849   2.649   1.809  1.6096  1.5384 -1.6855
  849MOL0     H17139   3.782   2.592   1.661  2.7192  0.1923  0.2416
  849MOL0     H17140   3.689   2.461   1.812 -0.1756  0.3309 -5.2376
  849MOL0     H17141   3.561   2.561   1.757  0.8359 -0.4121 -1.8346
  849MOL0     H17142   3.160   2.523   1.210  1.1527 -0.5888  1.6899
  849MOL0     H17143   2.995   2.379   1.158  0.7237  1.8474 -0.5524
  849MOL0     H17144   2.948   1.907   0.910  1.2802  1.4070  0.4700
  849MOL0     H17145   2.737   1.772   0.850 -1.9464  0.1331 -2.9469
  849MOL0     H17146   1.319   2.407   1.681  1.3358  1.1933  3.0991
  849MOL0     H17147   1.294   2.409   1.929 -1.0225  0.6008  2.4425
  849MOL0     H17148   1.362   2.127   2.346  1.5528  2.0045 -0.6605
  849MOL0     H17149   1.381   2.207   2.585  1.7390  0.6709 -1.0898
  849MOL0     H17150   1.265   2.235   2.786 -1.0530  0.3127  0.5936
  849MOL0     H17151   1.414   2.350   2.781  0.1748  0.2963  0.9089
  849MOL0     H17152   1.175   2.447   2.947  1.0063  1.1631 -0.3044
  849MOL0     H17153   1.348   2.457   2.981  0.5973 -0.8954  2.0061
  849MOL0     H17154   1.175   2.212   3.012  1.2395 -0.2744 -0.5586
  849MOL0     H17155   1.348   2.209   3.030  1.9518  0.9319  2.3328
  849MOL0     H17156   1.365   2.379   3.200 -0.3706  0.5541 -0.6495
  849MOL0     H17157   1.299   2.224   3.247 -0.5640  1.2331  2.2521
  849MOL0     H17158   0.973   2.493   3.314 -0.9739  0.4685 -1.4328
  849MOL0     H17159   1.114   2.533   2.503  0.9930  0.5230  0.4733
  849MOL0     H17160   0.984   2.433   2.212 -0.4515  1.8819 -0.7518
  849MOL0     H17161   1.040   2.583   2.289 -0.0944  0.3115  0.5537
  849MOL0     H17162   1.131   2.518   2.160 -0.7715  0.6049 -0.0478
  850MOL0     O17163   8.634   4.823   0.832  0.0679  0.1451 -0.1840
  850MOL0     C17164   8.652   4.876   0.723 -0.1916 -0.2656  0.9265
  850MOL0     O17165   8.560   4.939   0.659  0.1962 -0.7250  0.6887
  850MOL0     C17166   8.445   4.993   0.727  0.7167 -0.5313 -0.3815
  850MOL0     C17167   8.450   5.050   0.859 -0.4813  0.0305 -0.5682
  850MOL0     C17168   8.329   5.099   0.920 -0.5431  0.8539  0.4155
  850MOL0     C17169   8.207   5.089   0.845 -0.0428 -0.1165 -1.0242
  850MOL0     O17170   8.084   5.127   0.894 -0.1816 -0.1650  0.0016
  850MOL0     C17171   8.079   5.253   0.965 -0.0287  0.5225  0.6820
  850MOL0     C17172   8.076   5.245   1.118 -0.0834  0.2915  0.5516
  850MOL0     C17173   7.955   5.164   1.163 -0.1562 -1.1276  1.2336
  850MOL0     C17174   7.969   5.121   1.309 -0.1381 -0.7840  0.6538
  850MOL0     C17175   7.848   5.035   1.344  0.0577  0.5864 -0.0201
  850MOL0     C17176   7.848   4.973   1.483  0.8279  0.1459 -0.4635
  850MOL0     C17177   7.709   4.898   1.505  0.5627 -0.5097  0.0200
  850MOL0     C17178   7.585   4.989   1.482  0.8598  1.0798 -0.4737
  850MOL0     N17179   7.458   4.914   1.479  0.1000 -0.5281 -1.1165
  850MOL0     C17180   7.352   4.933   1.392  0.1288  0.1784 -0.0712
  850MOL0     C17181   7.273   4.831   1.426  0.9309  0.2238 -0.9572
  850MOL0     C17182   7.131   4.793   1.377 -0.6811 -0.2642 -0.2587
  850MOL0     C17183   7.138   4.664   1.304 -0.1075 -0.0465  0.4090
  850MOL0     C17184   7.210   4.678   1.169  0.3050 -0.0900  0.3249
  850MOL0     C17185   7.200   4.548   1.096  0.0287  1.0799  0.3463
  850MOL0     O17186   7.313   4.538   1.001  0.1415  0.3326  0.5853
  850MOL0     C17187   7.317   4.607   0.878 -0.2563 -0.6596 -0.3985
  850MOL0     C17188   7.213   4.682   0.826 -0.3716  0.2834 -0.4569
  850MOL0     C17189   7.228   4.766   0.712  0.0911 -0.9492 -0.4832
  850MOL0     C17190   7.109   4.842   0.662 -0.0276  0.0489 -0.1949
  850MOL0     C17191   7.361   4.767   0.650  0.2028  0.3556 -0.6267
  850MOL0     C17192   7.386   4.827   0.517 -0.6604 -0.0007  0.1341
  850MOL0     O17193   7.513   4.871   0.498 -0.0712 -0.3335 -0.3810
  850MOL0     C17194   7.556   4.912   0.370  1.1299  0.3741 -0.9011
  850MOL0     C17195   7.509   4.849   0.253  0.5203  0.2040  0.1129
  850MOL0     C17196   7.541   4.898   0.127  0.0086  0.1407  0.1797
  850MOL0     C17197   7.631   5.010   0.118  0.2523 -0.9100 -0.4342
  850MOL0     O17198   7.652   5.059  -0.003  0.2192 -0.3623 -0.4470
  850MOL0     C17199   7.778   5.066  -0.062  0.0885 -1.0557  0.5950
  850MOL0     C17200   7.768   5.174  -0.167 -0.8492 -0.6561 -0.7725
  850MOL0     C17201   7.862   5.137  -0.278 -0.3719 -0.5187  1.0317
  850MOL0     C17202   7.835   5.227  -0.392 -0.1818  0.3498 -0.1534
  850MOL0     C17203   7.942   5.212  -0.504  0.7208  0.4305  0.2457
  850MOL0     C17204   7.924   5.315  -0.620 -0.2495  0.4919  0.0305
  850MOL0     C17205   8.032   5.263  -0.739  0.8049 -0.5307 -0.4484
  850MOL0     C17206   8.076   5.387  -0.824  0.7501 -0.4129  0.8705
  850MOL0    Cl17207   8.130   5.525  -0.717 -0.2618 -0.0162  0.0206
  850MOL0     C17208   7.686   5.064   0.233 -0.1345 -0.5014 -0.3613
  850MOL0     C17209   7.653   5.017   0.359  0.6663  0.6063 -0.2992
  850MOL0     O17210   7.293   4.847   0.438  0.2579 -0.5987  0.0422
  850MOL0     C17211   7.469   4.681   0.697  0.4210 -0.2334  0.4905
  850MOL0     C17212   7.444   4.613   0.816  0.6167  0.3790  0.2964
  850MOL0     N17213   7.320   4.768   1.539  0.0501  0.1735  0.4610
  850MOL0     N17214   7.436   4.820   1.571 -0.9702 -0.0649 -0.5986
  850MOL0     C17215   8.205   5.033   0.721 -0.0354 -0.4848  0.9945
  850MOL0     C17216   8.324   4.996   0.658 -0.3632  0.6298 -0.0046
  850MOL0     C17217   8.788   4.850   0.661 -0.4700 -0.3118 -0.1553
  850MOL0     C17218   8.802   4.876   0.526  0.6404  0.0829  1.1477
  850MOL0     C17219   8.920   4.845   0.453 -0.1376 -0.3152 -0.0017
  850MOL0     C17220   9.024   4.779   0.518 -1.2951  0.2375  0.2585
  850MOL0     O17221   9.144   4.742   0.468  0.5098  0.3199 -0.5370
  850MOL0     C17222   9.166   4.772   0.336 -0.1666 -0.3018  0.8319
  850MOL0     C17223   9.289   4.709   0.277 -0.2142  0.1794 -0.4898
  850MOL0     C17224   9.288   4.552   0.297  0.0370  0.3201 -0.0351
  850MOL0     C17225   9.404   4.485   0.213  0.1988 -0.1337 -0.9641
  850MOL0     C17226   9.336   4.467   0.083  0.0934  0.4110 -0.1535
  850MOL0     C17227   9.272   4.446  -0.023  0.7086 -1.2745 -0.3860
  850MOL0     C17228   9.009   4.762   0.654  0.3808  0.1948 -0.5510
  850MOL0     C17229   8.898   4.793   0.723 -0.3601 -0.1876  0.5178
  850MOL0     C17230   8.897   4.772   0.871  0.0899  0.3252 -0.6405
  850MOL0     H17231   8.542   5.040   0.917 -1.6306 -1.5949  1.0711
  850MOL0     H17232   8.339   5.154   1.014  2.0306 -0.4140  0.9556
  850MOL0     H17233   7.998   5.313   0.923  1.6213  0.7559 -2.4902
  850MOL0     H17234   8.164   5.317   0.938  1.5603 -0.1236  3.7027
  850MOL0     H17235   8.170   5.199   1.151  1.1427  1.7688 -0.6982
  850MOL0     H17236   8.071   5.345   1.162  2.0501  0.9091 -0.4552
  850MOL0     H17237   7.865   5.222   1.140  2.2644  2.1376 -0.8793
  850MOL0     H17238   7.945   5.083   1.091  1.1776  1.3519 -1.9839
  850MOL0     H17239   8.063   5.067   1.319  0.8927  0.8104  0.0778
  850MOL0     H17240   7.961   5.207   1.376 -1.6370 -0.3105 -0.0925
  850MOL0     H17241   7.843   4.958   1.266 -0.9869 -1.0429  1.5909
  850MOL0     H17242   7.761   5.100   1.328  0.3841  1.0184 -0.0601
  850MOL0     H17243   7.925   4.895   1.483 -3.0143 -4.0935  0.8743
  850MOL0     H17244   7.860   5.050   1.560  4.2669 -1.9448  1.3427
  850MOL0     H17245   7.699   4.870   1.610 -0.6408 -1.1799 -0.2567
  850MOL0     H17246   7.706   4.804   1.450 -1.1752 -2.2920  2.8899
  850MOL0     H17247   7.591   5.072   1.553  1.9363  1.0593 -0.5361
  850MOL0     H17248   7.579   5.029   1.381  0.2048  1.6294 -0.2269
  850MOL0     H17249   7.327   4.994   1.306 -0.7655 -2.7276 -2.0177
  850MOL0     H17250   7.095   4.877   1.316 -1.3711  0.3892  1.0211
  850MOL0     H17251   7.071   4.798   1.468  0.8295  3.8198  0.6928
  850MOL0     H17252   7.193   4.590   1.363  0.1372 -1.4445 -1.5094
  850MOL0     H17253   7.039   4.617   1.299 -0.4027  0.4289  1.4347
  850MOL0     H17254   7.176   4.756   1.100  2.9030  1.9888  1.2601
  850MOL0     H17255   7.315   4.699   1.188  0.7481  1.4483 -3.0585
  850MOL0     H17256   7.214   4.459   1.157  0.2524 -0.4562 -1.8097
  850MOL0     H17257   7.096   4.543   1.061  0.1664  0.7663 -0.0244
  850MOL0     H17258   7.113   4.674   0.867 -1.1627 -0.7113 -2.4671
  850MOL0     H17259   7.143   4.932   0.611 -1.4503  0.3358 -0.6836
  850MOL0     H17260   7.036   4.875   0.737 -1.0067  2.5560 -2.0992
  850MOL0     H17261   7.051   4.792   0.583 -3.0859  3.0311 -0.0874
  850MOL0     H17262   7.465   4.750   0.262 -1.0002  0.5355 -2.5464
  850MOL0     H17263   7.484   4.855   0.045 -1.9854  0.7348  1.1929
  850MOL0     H17264   7.855   5.086   0.013  1.3623 -3.1018 -0.0860
  850MOL0     H17265   7.791   4.965  -0.101 -0.2390  0.2326 -3.3085
  850MOL0     H17266   7.667   5.189  -0.207 -0.7668  0.5715 -0.5457
  850MOL0     H17267   7.787   5.270  -0.119 -4.6885 -1.7613  3.6693
  850MOL0     H17268   7.843   5.038  -0.320  0.2837  0.0701 -0.7297
  850MOL0     H17269   7.968   5.140  -0.252 -0.4813 -1.2602  1.6066
  850MOL0     H17270   7.851   5.331  -0.363 -0.0246  0.9019 -2.0715
  850MOL0     H17271   7.735   5.221  -0.436  0.0892  0.1079 -0.7541
  850MOL0     H17272   8.042   5.214  -0.459  0.8292 -1.8925  0.2121
  850MOL0     H17273   7.931   5.114  -0.551  2.4085  1.2629 -2.1361
  850MOL0     H17274   7.943   5.418  -0.589 -0.1088  0.2771  0.6619
  850MOL0     H17275   7.822   5.318  -0.662 -0.4009  1.6004  0.4400
  850MOL0     H17276   7.986   5.177  -0.787  0.6799 -1.6706  1.6243
  850MOL0     H17277   8.112   5.224  -0.674 -0.8444  0.1081  2.1107
  850MOL0     H17278   7.990   5.425  -0.881 -2.4528 -4.0837  2.7603
  850MOL0     H17279   8.153   5.354  -0.895  0.5190 -1.3180  1.0177
  850MOL0     H17280   7.747   5.154   0.224 -1.8362  1.2099  3.2356
  850MOL0     H17281   7.679   5.054   0.457 -1.5563 -3.9385  2.3692
  850MOL0     H17282   7.568   4.668   0.654  0.4994 -2.8352  1.2722
  850MOL0     H17283   7.524   4.561   0.867 -1.0032 -1.6002  0.9591
  850MOL0     H17284   8.109   5.008   0.676 -0.2774 -1.7008  2.1343
  850MOL0     H17285   8.313   4.947   0.562 -3.6537  0.8918  0.1396
  850MOL0     H17286   8.721   4.908   0.462  1.3452 -0.8158 -0.2399
  850MOL0     H17287   8.928   4.872   0.348  1.4642 -0.7309 -0.0237
  850MOL0     H17288   9.087   4.716   0.284  0.1017 -1.0593  1.2302
  850MOL0     H17289   9.155   4.876   0.302  1.5266 -1.4468 -4.0976
  850MOL0     H17290   9.378   4.748   0.328 -0.7375  0.0150  0.5784
  850MOL0     H17291   9.297   4.750   0.176  0.1056  1.4030  0.0120
  850MOL0     H17292   9.313   4.522   0.399 -1.3213  2.0354  0.8558
  850MOL0     H17293   9.188   4.510   0.278  0.4964 -0.8041 -0.0610
  850MOL0     H17294   9.416   4.388   0.261 -1.7559 -0.4749 -1.0855
  850MOL0     H17295   9.497   4.543   0.219  0.1673 -0.2197  0.8787
  850MOL0     H17296   9.219   4.425  -0.113 -1.0450 -1.1234  0.5667
  850MOL0     H17297   9.091   4.708   0.702 -0.1332 -1.0336 -1.0124
  850MOL0     H17298   8.832   4.687   0.892  0.8327 -0.1468 -0.2393
  850MOL0     H17299   8.996   4.743   0.907 -0.3709  0.2823  0.6299
  850MOL0     H17300   8.873   4.863   0.926  4.7931  1.8043 -0.5309
  851MOL0     O17301   1.239   9.651   2.049  0.3169  0.3938  0.3790
  851MOL0     C17302   1.291   9.763   2.042 -0.1934 -0.7051  0.0137
  851MOL0     O17303   1.396   9.789   1.959 -0.1305 -0.2029  0.2424
  851MOL0     C17304   1.418   9.729   1.839 -0.3842  0.3509 -0.2883
  851MOL0     C17305   1.324   9.673   1.751 -0.6328 -1.2846  0.6585
  851MOL0     C17306   1.380   9.606   1.628  0.3674  0.2252  0.6076
  851MOL0     C17307   1.518   9.587   1.609 -0.4637  1.1753 -0.4694
  851MOL0     O17308   1.584   9.513   1.509 -0.3658 -0.2340  0.2689
  851MOL0     C17309   1.505   9.408   1.450  0.4720 -0.2296 -0.4719
  851MOL0     C17310   1.600   9.336   1.361 -0.3394 -0.7318  0.4045
  851MOL0     C17311   1.684   9.233   1.432  0.3297 -0.2649  0.4421
  851MOL0     C17312   1.782   9.168   1.336  0.5442  0.9159  0.0614
  851MOL0     C17313   1.865   9.048   1.404 -0.2989 -0.9297  0.8919
  851MOL0     C17314   2.004   9.012   1.323 -0.9038 -0.9214 -0.6474
  851MOL0     C17315   2.045   8.871   1.354  0.2284 -0.1867  0.1346
  851MOL0     C17316   2.185   8.841   1.299  1.2697  0.4063 -0.1001
  851MOL0     N17317   2.297   8.934   1.319 -0.6856  0.4053 -0.7340
  851MOL0     C17318   2.340   8.985   1.439 -1.0306 -0.0713 -0.6611
  851MOL0     C17319   2.446   9.073   1.402 -0.0272 -0.2127  0.0496
  851MOL0     C17320   2.547   9.138   1.485  0.1423 -1.1557 -0.0884
  851MOL0     C17321   2.676   9.075   1.469  0.5576  0.2862  0.4148
  851MOL0     C17322   2.805   9.168   1.470  0.8341  0.5418  0.5107
  851MOL0     C17323   2.930   9.088   1.453  0.2264  0.6127  0.5136
  851MOL0     O17324   2.946   9.003   1.570 -0.7484  0.2369  0.1926
  851MOL0     C17325   3.066   8.959   1.624  0.0775 -1.2155  0.7120
  851MOL0     C17326   3.190   8.983   1.561  0.9026  0.0362  0.1065
  851MOL0     C17327   3.310   8.957   1.631 -0.5730 -0.0620 -0.0780
  851MOL0     C17328   3.450   8.999   1.584  0.4275 -0.2170 -0.0658
  851MOL0     C17329   3.313   8.897   1.762  0.7417 -0.2213 -0.6855
  851MOL0     C17330   3.438   8.871   1.830  0.6824 -0.2646  0.3876
  851MOL0     O17331   3.493   8.980   1.893  0.3138 -0.0955 -0.5087
  851MOL0     C17332   3.589   8.960   1.985 -0.1032  0.2090  0.2583
  851MOL0     C17333   3.715   8.930   1.942  0.4132 -0.1750  0.2099
  851MOL0     C17334   3.815   8.893   2.035 -0.8073  0.5292 -0.0519
  851MOL0     C17335   3.791   8.914   2.172  0.5730 -0.1060 -0.8940
  851MOL0     O17336   3.873   8.893   2.286 -0.8805 -0.3254  0.7366
  851MOL0     C17337   4.012   8.859   2.261  0.5687  0.7439  0.2954
  851MOL0     C17338   4.081   8.849   2.397 -0.0518  0.1866 -0.6867
  851MOL0     C17339   4.235   8.863   2.371  0.4997 -0.5940 -1.1356
  851MOL0     C17340   4.312   8.876   2.507  1.1685 -0.2904  0.6687
  851MOL0     C17341   4.383   8.752   2.555  0.7110  0.5111  0.0196
  851MOL0     C17342   4.480   8.686   2.459 -0.1290  0.2984  0.1533
  851MOL0     C17343   4.546   8.568   2.540 -0.8706  0.0859 -0.6125
  851MOL0     C17344   4.628   8.490   2.432 -1.2008 -0.5698 -0.4782
  851MOL0    Cl17345   4.782   8.571   2.402 -0.1541  0.1456 -0.2185
  851MOL0     C17346   3.658   8.946   2.214 -0.5646  0.0435 -0.3606
  851MOL0     C17347   3.555   8.965   2.119 -0.3012 -0.5191  0.1375
  851MOL0     O17348   3.478   8.754   1.821 -0.2443  0.1611 -0.9979
  851MOL0     C17349   3.190   8.889   1.832  0.7883 -0.0613  0.3642
  851MOL0     C17350   3.074   8.903   1.756  0.1813 -0.1709 -0.5608
  851MOL0     N17351   2.439   9.087   1.265 -0.5079 -2.0506 -0.4313
  851MOL0     N17352   2.348   9.012   1.222 -1.0479 -0.4600 -0.7555
  851MOL0     C17353   1.605   9.648   1.701 -0.6925  0.2176  0.6539
  851MOL0     C17354   1.548   9.722   1.811 -0.1655  0.7330  0.7538
  851MOL0     C17355   1.233   9.878   2.116  1.0056  0.2839 -0.8659
  851MOL0     C17356   1.308   9.998   2.119  0.3362 -0.0416 -0.9045
  851MOL0     C17357   1.252  10.123   2.154  0.5843 -0.2525 -0.1335
  851MOL0     C17358   1.127  10.123   2.216  0.7909 -0.2072  0.4976
  851MOL0     O17359   1.067  10.236   2.269 -0.5662  0.0474 -0.0718
  851MOL0     C17360   1.074  10.243   2.416 -0.5740  0.5713 -0.3234
  851MOL0     C17361   1.013  10.377   2.470 -0.2932  0.4729 -1.1757
  851MOL0     C17362   0.867  10.405   2.430  0.6143  0.3189 -0.3485
  851MOL0     C17363   0.799  10.513   2.521 -0.4911 -0.1241  0.0851
  851MOL0     C17364   0.784  10.638   2.452  0.1532  0.0605 -0.7671
  851MOL0     C17365   0.757  10.739   2.390 -0.4215  0.1722 -0.1709
  851MOL0     C17366   1.055  10.005   2.229 -0.3111  0.5873  0.0663
  851MOL0     C17367   1.107   9.877   2.177  0.1659 -0.0064 -0.7385
  851MOL0     C17368   1.025   9.753   2.200  0.4917  0.2946 -0.0265
  851MOL0     H17369   1.218   9.667   1.773 -0.6556 -4.5249  0.0974
  851MOL0     H17370   1.319   9.560   1.551 -0.4311  1.2957  0.5771
  851MOL0     H17371   1.413   9.436   1.397 -0.2960 -3.9317 -1.4042
  851MOL0     H17372   1.476   9.334   1.526 -4.7630 -0.2550 -2.0569
  851MOL0     H17373   1.539   9.286   1.286  0.1632 -2.4804  1.1279
  851MOL0     H17374   1.654   9.414   1.306 -0.6080 -0.8802 -0.0663
  851MOL0     H17375   1.732   9.269   1.524  0.9406 -2.5217  1.0666
  851MOL0     H17376   1.621   9.153   1.471  2.2063 -1.3252  1.4206
  851MOL0     H17377   1.726   9.130   1.250 -2.4136  4.0485  0.3851
  851MOL0     H17378   1.848   9.241   1.288 -0.1816  0.5546 -1.5654
  851MOL0     H17379   1.798   8.962   1.409 -1.5028 -0.0075  1.1316
  851MOL0     H17380   1.896   9.074   1.506  1.7538  1.6723 -0.2799
  851MOL0     H17381   1.993   9.026   1.215  2.6132  1.4919 -0.8612
  851MOL0     H17382   2.079   9.090   1.342 -1.6121 -0.4526  0.3062
  851MOL0     H17383   1.978   8.798   1.308  0.8240 -0.3285 -0.5266
  851MOL0     H17384   2.038   8.858   1.462  0.2245  1.7707  0.4167
  851MOL0     H17385   2.214   8.748   1.350 -1.9518  0.2807  1.7272
  851MOL0     H17386   2.171   8.822   1.192 -0.3821  1.7602 -0.1508
  851MOL0     H17387   2.314   8.954   1.540  1.1530  1.0092  0.3001
  851MOL0     H17388   2.511   9.137   1.589  0.3710  0.8582  0.0608
  851MOL0     H17389   2.542   9.244   1.455 -0.0713 -0.6864  1.5158
  851MOL0     H17390   2.699   9.006   1.550 -2.2925  1.3364  2.2920
  851MOL0     H17391   2.684   9.024   1.373  1.7661 -0.2016  0.7572
  851MOL0     H17392   2.802   9.247   1.394  1.5058  0.3420  0.2658
  851MOL0     H17393   2.806   9.228   1.561 -2.2134  1.2455  0.1991
  851MOL0     H17394   2.939   9.022   1.367  1.7426  0.5626  0.6821
  851MOL0     H17395   3.014   9.156   1.441  1.1574 -0.9897 -3.3932
  851MOL0     H17396   3.186   9.036   1.466 -0.2851  0.8531  0.5880
  851MOL0     H17397   3.430   9.039   1.485 -1.0202 -1.6345 -0.3921
  851MOL0     H17398   3.519   8.914   1.582 -0.9092 -1.3372 -2.4773
  851MOL0     H17399   3.500   9.070   1.651 -0.6459  2.3578 -1.8660
  851MOL0     H17400   3.733   8.934   1.836 -0.5436 -2.5450 -0.1206
  851MOL0     H17401   3.910   8.856   2.000 -2.0529 -2.5584 -0.5105
  851MOL0     H17402   4.015   8.763   2.209  1.0714 -0.0686  1.7818
  851MOL0     H17403   4.064   8.933   2.199 -1.1336  0.7756 -1.1749
  851MOL0     H17404   4.041   8.938   2.446 -0.2121  1.1238 -2.4341
  851MOL0     H17405   4.057   8.763   2.461  0.5951 -1.2899 -2.3224
  851MOL0     H17406   4.255   8.955   2.315  0.0340 -0.2729 -0.7835
  851MOL0     H17407   4.269   8.777   2.312 -0.1427 -0.9194 -1.0471
  851MOL0     H17408   4.242   8.903   2.586 -0.1555  1.3662 -0.9788
  851MOL0     H17409   4.388   8.953   2.491  3.5126 -3.0546 -3.4261
  851MOL0     H17410   4.433   8.781   2.648  1.6789  3.4662 -1.2952
  851MOL0     H17411   4.312   8.674   2.583  0.8382 -0.4928 -2.2504
  851MOL0     H17412   4.552   8.747   2.405 -0.8579  0.7080 -0.3676
  851MOL0     H17413   4.413   8.645   2.383  0.6713 -3.2822  1.1723
  851MOL0     H17414   4.467   8.503   2.578 -0.0791 -0.1221  0.7422
  851MOL0     H17415   4.609   8.592   2.626 -0.3704 -3.4758  0.1630
  851MOL0     H17416   4.589   8.486   2.330  3.2687 -2.4539 -2.3966
  851MOL0     H17417   4.646   8.384   2.454 -0.1522 -0.1644  0.7618
  851MOL0     H17418   3.652   8.952   2.323 -0.4511 -0.7343 -0.3037
  851MOL0     H17419   3.454   8.984   2.155  0.0407  1.8535  0.0016
  851MOL0     H17420   3.172   8.872   1.937  0.2126  2.8852  0.8324
  851MOL0     H17421   2.980   8.887   1.807 -0.2987  0.4987 -1.2098
  851MOL0     H17422   1.713   9.655   1.694 -0.5583 -0.3776  1.8115
  851MOL0     H17423   1.620   9.763   1.882  0.6023 -1.2963  1.2058
  851MOL0     H17424   1.403  10.002   2.067 -0.5064  1.4252 -2.4032
  851MOL0     H17425   1.295  10.220   2.134  0.8051 -0.3280 -0.0308
  851MOL0     H17426   1.026  10.158   2.466  3.1245  1.7992  6.4634
  851MOL0     H17427   1.177  10.234   2.450 -1.3289  2.4356  3.0164
  851MOL0     H17428   1.084  10.450   2.429  1.3017 -2.2686 -3.7766
  851MOL0     H17429   1.026  10.357   2.576  0.3814  1.2413 -1.1036
  851MOL0     H17430   0.879  10.436   2.326  2.3036 -1.3747 -0.7318
  851MOL0     H17431   0.805  10.315   2.430  0.5635  0.2622 -3.2249
  851MOL0     H17432   0.860  10.523   2.611 -2.1355  0.3608  1.1965
  851MOL0     H17433   0.700  10.483   2.558  0.4352 -2.1531  1.0755
  851MOL0     H17434   0.717  10.813   2.324 -0.9011  0.0424 -0.0263
  851MOL0     H17435   0.960   9.993   2.280 -0.1183 -1.7563  0.0152
  851MOL0     H17436   0.975   9.716   2.110 -1.0368 -1.4673  1.4457
  851MOL0     H17437   1.094   9.680   2.244  0.1229  0.3184  0.5966
  851MOL0     H17438   0.935   9.769   2.260  0.3367  2.4344 -0.7393
  852MOL0     O17439  10.147   2.905   7.375  0.0914  0.5660  0.5435
  852MOL0     C17440  10.165   2.787   7.413 -0.5497  0.9184 -0.1696
  852MOL0     O17441  10.287   2.737   7.457  0.8380 -0.2845 -0.0745
  852MOL0     C17442  10.392   2.827   7.472 -0.6649 -0.3365  0.2848
  852MOL0     C17443  10.490   2.835   7.377 -0.4730 -0.4518 -0.6381
  852MOL0     C17444  10.600   2.921   7.409  0.0046 -0.2201  0.2328
  852MOL0     C17445  10.607   3.001   7.521 -0.7601  0.0661 -0.2423
  852MOL0     O17446  10.723   3.069   7.555 -0.6051  0.4033  0.2559
  852MOL0     C17447  10.844   3.073   7.478  0.5673  0.6059  0.5463
  852MOL0     C17448  10.943   3.146   7.559  0.3280 -0.2180 -0.5099
  852MOL0     C17449  11.081   3.155   7.501 -1.0424 -0.3179 -0.3934
  852MOL0     C17450  11.185   3.214   7.608  0.9415 -0.2104  0.1110
  852MOL0     C17451  11.162   3.367   7.634  0.7278  0.1234  0.8318
  852MOL0     C17452  11.258   3.417   7.744 -0.1888 -0.4771 -0.9456
  852MOL0     C17453  11.218   3.555   7.805 -0.5156  0.3499 -0.4820
  852MOL0     C17454  11.180   3.682   7.726  0.5622  1.2606 -0.0646
  852MOL0     N17455  11.252   3.700   7.595 -0.1022  0.3092 -0.2794
  852MOL0     C17456  11.385   3.698   7.579 -0.0765  0.2141  0.2959
  852MOL0     C17457  11.404   3.754   7.455  0.7624 -0.4250  0.6999
  852MOL0     C17458  11.533   3.795   7.387 -0.0545 -0.3352  1.0333
  852MOL0     C17459  11.545   3.728   7.251  0.2929  0.0485 -0.2714
  852MOL0     C17460  11.689   3.737   7.189  0.0774  1.3446 -0.5899
  852MOL0     C17461  11.698   3.654   7.052  0.8389 -0.4247  0.0011
  852MOL0     O17462  11.690   3.513   7.088 -0.4011  0.2342 -0.3647
  852MOL0     C17463  11.749   3.413   7.015 -0.0041  0.6691  0.4599
  852MOL0     C17464  11.709   3.274   7.037  0.3954 -0.0611  0.0117
  852MOL0     C17465  11.788   3.168   6.976 -0.1782  1.3790  0.1564
  852MOL0     C17466  11.749   3.021   7.011  0.2092  0.9967 -0.4755
  852MOL0     C17467  11.900   3.196   6.896 -0.4689 -0.3109  1.0516
  852MOL0     C17468  11.989   3.084   6.836  0.9659  0.1950  0.2295
  852MOL0     O17469  11.989   3.083   6.697 -0.4197  0.5241  0.2631
  852MOL0     C17470  12.067   2.995   6.638 -0.1192  0.3143 -0.7616
  852MOL0     C17471  12.170   3.040   6.553  0.4470 -0.3826  0.3894
  852MOL0     C17472  12.248   2.944   6.478  0.2097  0.1797 -0.4982
  852MOL0     C17473  12.228   2.810   6.499  0.4134  1.1984 -0.8757
  852MOL0     O17474  12.301   2.720   6.424  0.4235 -0.8491 -0.0728
  852MOL0     C17475  12.441   2.724   6.429 -0.4320  0.9533 -0.1041
  852MOL0     C17476  12.503   2.581   6.410 -0.4219 -0.4498  0.6092
  852MOL0     C17477  12.653   2.585   6.375 -0.3063 -0.0989 -0.2355
  852MOL0     C17478  12.736   2.618   6.504 -0.1041  0.0988 -0.1554
  852MOL0     C17479  12.892   2.631   6.464  0.5304  0.8565 -0.0634
  852MOL0     C17480  12.993   2.677   6.570 -0.6589 -0.3193  0.4544
  852MOL0     C17481  12.980   2.605   6.712  0.0456 -0.2942  0.7920
  852MOL0     C17482  12.998   2.458   6.701  0.1488  0.7408  0.2574
  852MOL0    Cl17483  12.993   2.379   6.872 -0.2548  0.3248  0.1004
  852MOL0     C17484  12.120   2.769   6.576  0.3790 -0.5770  0.1587
  852MOL0     C17485  12.043   2.863   6.652 -0.4121  0.1161 -0.1495
  852MOL0     O17486  12.042   3.004   6.919 -0.2310 -0.4627  0.0645
  852MOL0     C17487  11.935   3.331   6.880  0.2506 -0.4781  0.0029
  852MOL0     C17488  11.855   3.434   6.928 -0.2991  0.5465 -0.6716
  852MOL0     N17489  11.273   3.770   7.399  0.2228  0.1120 -0.3664
  852MOL0     N17490  11.187   3.725   7.482 -0.4156 -0.0952 -0.2847
  852MOL0     C17491  10.502   2.986   7.610 -0.3361 -0.6240  0.1982
  852MOL0     C17492  10.397   2.901   7.590 -0.1141 -0.0320 -0.9561
  852MOL0     C17493  10.053   2.695   7.402 -0.3499  0.0744 -0.1383
  852MOL0     C17494  10.091   2.562   7.383  0.3012 -0.4306 -0.0628
  852MOL0     C17495   9.990   2.460   7.358 -0.8616 -0.1776 -0.7522
  852MOL0     C17496   9.860   2.492   7.379  0.1173 -0.3655 -0.1032
  852MOL0     O17497   9.773   2.403   7.327  0.5418  0.0053 -0.1223
  852MOL0     C17498   9.687   2.453   7.219 -0.4511 -0.2284  0.6701
  852MOL0     C17499   9.575   2.361   7.182 -0.3413  0.4187  0.1864
  852MOL0     C17500   9.496   2.398   7.055 -0.2032  0.0161 -0.6806
  852MOL0     C17501   9.563   2.340   6.927  0.0079 -0.6471 -0.0322
  852MOL0     C17502   9.672   2.427   6.881  0.2358  0.0707 -0.3196
  852MOL0     C17503   9.774   2.500   6.848  0.4910 -1.2419 -0.3729
  852MOL0     C17504   9.821   2.619   7.417  0.1235 -0.1372  0.5645
  852MOL0     C17505   9.916   2.722   7.423 -0.3134 -0.7208 -0.2542
  852MOL0     C17506   9.872   2.855   7.475 -1.3698  0.2413  1.1055
  852MOL0     H17507  10.484   2.768   7.292 -1.6389 -3.1323  1.4122
  852MOL0     H17508  10.676   2.940   7.333  0.5535  2.9325  1.4022
  852MOL0     H17509  10.822   3.119   7.381  0.9178 -0.8880 -0.2731
  852MOL0     H17510  10.873   2.968   7.469 -2.9734 -0.4395 -0.7072
  852MOL0     H17511  10.899   3.244   7.577  0.6196 -0.0749 -0.5710
  852MOL0     H17512  10.951   3.097   7.656  1.1464  0.3590 -0.2732
  852MOL0     H17513  11.122   3.061   7.464  0.7183  0.6321 -0.9827
  852MOL0     H17514  11.085   3.214   7.409  2.5952 -4.1769 -3.0763
  852MOL0     H17515  11.154   3.166   7.701 -2.1158 -2.2926 -1.7790
  852MOL0     H17516  11.289   3.192   7.582  1.3617 -1.8114  2.7635
  852MOL0     H17517  11.059   3.386   7.666  0.6028  0.5945  0.1593
  852MOL0     H17518  11.185   3.423   7.543  1.5643 -0.5287  0.6259
  852MOL0     H17519  11.257   3.341   7.823  2.2572 -0.7824 -1.1499
  852MOL0     H17520  11.357   3.431   7.701 -0.5889  0.7752 -1.5042
  852MOL0     H17521  11.302   3.599   7.861 -1.3059  2.5103 -0.9145
  852MOL0     H17522  11.151   3.537   7.890  0.3323 -3.5113 -0.4535
  852MOL0     H17523  11.073   3.688   7.708  0.3741  0.8567  0.8542
  852MOL0     H17524  11.203   3.764   7.796  0.2635  1.1830  0.1247
  852MOL0     H17525  11.469   3.684   7.646  1.5535  0.6906 -1.5551
  852MOL0     H17526  11.615   3.766   7.453  1.4260 -1.7029 -1.2961
  852MOL0     H17527  11.544   3.902   7.367 -0.3158 -0.6142 -0.7400
  852MOL0     H17528  11.503   3.627   7.257 -2.3738  0.9576 -1.6247
  852MOL0     H17529  11.481   3.781   7.179  1.6400  0.3661 -1.2853
  852MOL0     H17530  11.711   3.837   7.151  0.5644  0.1218 -3.7582
  852MOL0     H17531  11.768   3.698   7.254 -1.0174 -0.1545 -0.1104
  852MOL0     H17532  11.616   3.682   6.987  2.6892  1.0826 -1.8167
  852MOL0     H17533  11.796   3.681   7.011  0.9046 -0.0544  0.3954
  852MOL0     H17534  11.628   3.241   7.101  2.1403 -0.6824  1.9660
  852MOL0     H17535  11.732   2.975   6.914  2.0765 -0.3910 -0.1848
  852MOL0     H17536  11.660   3.016   7.075  1.6593  0.1578  1.5710
  852MOL0     H17537  11.828   2.978   7.072  1.0885  0.6726 -1.8076
  852MOL0     H17538  12.170   3.146   6.529  0.3348 -0.3199  0.6648
  852MOL0     H17539  12.328   2.974   6.411  0.3698  1.3434  0.1864
  852MOL0     H17540  12.486   2.789   6.353  2.1069  0.6420  1.0483
  852MOL0     H17541  12.480   2.764   6.522 -1.9150  2.5602 -0.1188
  852MOL0     H17542  12.472   2.511   6.488 -0.9130 -1.8053 -0.7613
  852MOL0     H17543  12.445   2.561   6.319  0.5069  2.8479 -0.8740
  852MOL0     H17544  12.671   2.664   6.301  1.8023  0.1789  0.4886
  852MOL0     H17545  12.693   2.491   6.335 -2.3898 -1.0090 -0.3105
  852MOL0     H17546  12.717   2.539   6.578 -0.7098 -0.7931 -1.2419
  852MOL0     H17547  12.707   2.717   6.540  1.7575  0.9006 -0.7662
  852MOL0     H17548  12.914   2.532   6.424 -2.9801  0.1136 -0.4305
  852MOL0     H17549  12.908   2.696   6.377  0.7731 -2.3646 -2.6070
  852MOL0     H17550  12.973   2.784   6.576  0.1847  0.1270 -2.9633
  852MOL0     H17551  13.094   2.655   6.533 -1.9579  0.7384 -4.4070
  852MOL0     H17552  12.881   2.611   6.759 -0.0900 -0.2115  0.4991
  852MOL0     H17553  13.044   2.640   6.793  0.9428 -1.8762  0.8211
  852MOL0     H17554  13.094   2.429   6.657  0.6323  3.4597 -0.6507
  852MOL0     H17555  12.923   2.416   6.634 -1.7652  2.0777  1.4588
  852MOL0     H17556  12.089   2.666   6.590 -0.0932 -0.4573 -0.0060
  852MOL0     H17557  11.952   2.830   6.701 -0.4008  0.4486  0.0945
  852MOL0     H17558  12.020   3.359   6.818 -0.8249  2.0573 -0.4802
  852MOL0     H17559  11.872   3.540   6.912  2.7922 -0.1240 -2.6906
  852MOL0     H17560  10.512   3.031   7.709 -2.8081 -1.5262  0.9347
  852MOL0     H17561  10.323   2.887   7.667  0.9690 -1.7488 -0.1572
  852MOL0     H17562  10.190   2.525   7.358  0.4032  1.3515 -2.6188
  852MOL0     H17563  10.019   2.366   7.314  0.3034 -0.4670  0.5414
  852MOL0     H17564   9.635   2.543   7.255 -3.6150 -0.7615 -2.0276
  852MOL0     H17565   9.747   2.487   7.134  0.3921  2.1145  2.1049
  852MOL0     H17566   9.520   2.370   7.276 -0.9681  5.2625 -0.3621
  852MOL0     H17567   9.605   2.258   7.161 -2.8858  0.0873 -2.5099
  852MOL0     H17568   9.394   2.366   7.077 -0.6746  3.5593  3.6093
  852MOL0     H17569   9.491   2.506   7.040 -2.8247  0.0232 -0.2025
  852MOL0     H17570   9.488   2.328   6.848  0.5813 -1.6392 -0.4377
  852MOL0     H17571   9.591   2.234   6.924  0.3449 -0.5777 -3.5547
  852MOL0     H17572   9.853   2.566   6.820 -0.4897  1.1022  1.9552
  852MOL0     H17573   9.714   2.632   7.409  0.4616  2.1212 -1.9115
  852MOL0     H17574   9.790   2.850   7.548  0.4930 -0.1297  3.3009
  852MOL0     H17575   9.957   2.904   7.523  1.6475 -1.4203 -2.0608
  852MOL0     H17576   9.837   2.919   7.394 -0.0908  0.9840  1.1061
  853MOL0     O17577   3.474  10.345  10.205 -0.7570 -0.2062 -0.6050
  853MOL0     C17578   3.510  10.455  10.168 -0.3457 -0.5980  0.2741
  853MOL0     O17579   3.629  10.486  10.096  0.0925  0.7927 -0.3431
  853MOL0     C17580   3.709  10.379  10.082 -0.3054  0.0149  0.9796
  853MOL0     C17581   3.766  10.312  10.182  0.2641  0.0855 -0.3573
  853MOL0     C17582   3.823  10.182  10.164 -0.3758  1.2974 -0.0950
  853MOL0     C17583   3.860  10.140  10.034  0.3855 -0.1774 -0.1728
  853MOL0     O17584   3.939  10.033  10.006 -0.6890 -0.0092 -0.5451
  853MOL0     C17585   3.949   9.914  10.092 -0.7920 -0.1769  0.0106
  853MOL0     C17586   3.820   9.831  10.094 -0.3685 -0.5665  0.3836
  853MOL0     C17587   3.844   9.674  10.116 -0.2827 -0.5192  0.4506
  853MOL0     C17588   3.724   9.591  10.171 -0.5603  0.9387 -0.1534
  853MOL0     C17589   3.769   9.455  10.207 -0.2784 -0.3377 -0.0011
  853MOL0     C17590   3.658   9.366  10.258 -1.0438  1.3661 -0.1405
  853MOL0     C17591   3.709   9.221  10.230 -1.0911 -0.3427 -0.7643
  853MOL0     C17592   3.608   9.121  10.292 -0.0113 -0.3809 -0.1648
  853MOL0     N17593   3.659   9.078  10.429  0.6152 -0.3740  0.2583
  853MOL0     C17594   3.752   8.975  10.455  0.2938 -0.5376 -0.3406
  853MOL0     C17595   3.784   8.988  10.586  0.5429 -0.0831  0.7022
  853MOL0     C17596   3.892   8.908  10.662  0.2170  0.0654 -0.5894
  853MOL0     C17597   4.035   8.927  10.627 -0.0306  0.1857 -0.2545
  853MOL0     C17598   4.078   9.075  10.646 -0.5216  0.2249 -0.2094
  853MOL0     C17599   4.238   9.080  10.634  0.3106  0.4079 -0.2322
  853MOL0     O17600   4.265   9.087  10.491  0.5652 -0.2625 -0.2827
  853MOL0     C17601   4.381   9.051  10.431 -0.8804 -0.2641 -0.8157
  853MOL0     C17602   4.391   9.051  10.288 -1.0916  0.0623 -0.8044
  853MOL0     C17603   4.513   9.016  10.222 -0.3493  0.0594  0.2093
  853MOL0     C17604   4.505   9.022  10.073 -0.7031  0.5620  0.3400
  853MOL0     C17605   4.628   8.971  10.291  0.5483 -0.4991 -0.2587
  853MOL0     C17606   4.770   8.936  10.225  1.1910 -0.6469 -1.0482
  853MOL0     O17607   4.878   8.974  10.298 -0.8394  1.0786  0.3421
  853MOL0     C17608   5.006   8.944  10.266 -0.5082 -0.3894 -0.1675
  853MOL0     C17609   5.093   8.910  10.376  0.8640  0.4193  1.8241
  853MOL0     C17610   5.230   8.891  10.347 -0.5747 -0.7251 -1.1372
  853MOL0     C17611   5.278   8.899  10.217  0.6412 -0.9353 -0.0711
  853MOL0     O17612   5.416   8.891  10.201 -1.1497 -1.0759  0.3370
  853MOL0     C17613   5.478   8.876  10.065 -0.4062  0.3811  0.5457
  853MOL0     C17614   5.636   8.863  10.082  0.5742  1.0408 -0.3338
  853MOL0     C17615   5.699   8.762   9.988  0.0513 -0.1024  0.2889
  853MOL0     C17616   5.852   8.776   9.989 -0.4287 -0.2258  0.2652
  853MOL0     C17617   5.919   8.711   9.869  0.0376  0.3523  0.4296
  853MOL0     C17618   6.066   8.741   9.844 -0.7203 -0.3202 -0.4023
  853MOL0     C17619   6.165   8.622   9.889 -0.2904 -0.4181  0.0005
  853MOL0     C17620   6.159   8.607  10.043  0.4082 -0.3720  1.0014
  853MOL0    Cl17621   6.039   8.479  10.091  0.1282 -0.2758  0.0847
  853MOL0     C17622   5.194   8.938  10.115 -0.3589 -0.2122 -0.1474
  853MOL0     C17623   5.057   8.963  10.141 -0.7914 -0.0426  0.4660
  853MOL0     O17624   4.771   8.865  10.120 -0.6739 -0.4703  0.2087
  853MOL0     C17625   4.623   8.978  10.433 -0.1321  1.3654  0.8327
  853MOL0     C17626   4.500   9.010  10.492 -0.2817  0.4001 -0.3330
  853MOL0     N17627   3.703   9.088  10.647  0.2401 -0.9712 -0.2913
  853MOL0     N17628   3.627   9.137  10.550 -0.6291 -0.1390  0.2598
  853MOL0     C17629   3.811  10.217   9.931 -0.7713 -0.4379  0.5304
  853MOL0     C17630   3.733  10.340   9.952 -0.4001  0.2146  0.6795
  853MOL0     C17631   3.411  10.572  10.202  0.2195  0.0031 -0.8462
  853MOL0     C17632   3.438  10.695  10.137  0.0586  0.7220 -0.4832
  853MOL0     C17633   3.363  10.807  10.166 -0.2415 -0.1525  0.3227
  853MOL0     C17634   3.250  10.805  10.247 -0.1207 -0.5524  0.5594
  853MOL0     O17635   3.194  10.925  10.276 -0.9105 -0.0483  0.7466
  853MOL0     C17636   3.058  10.930  10.304  0.6039  0.7085 -0.0611
  853MOL0     C17637   3.008  11.071  10.311  0.2700 -0.2844  0.0686
  853MOL0     C17638   3.114  11.181  10.348 -0.2463  0.5306 -0.6541
  853MOL0     C17639   3.048  11.320  10.335  0.1459 -0.8582 -0.6019
  853MOL0     C17640   3.069  11.413  10.449  0.0494 -0.2824  0.3355
  853MOL0     C17641   3.097  11.486  10.543  0.2732 -0.8087  0.3707
  853MOL0     C17642   3.215  10.677  10.305  0.5198 -0.3763  0.3820
  853MOL0     C17643   3.293  10.563  10.290 -0.8043  0.1054 -0.5128
  853MOL0     C17644   3.264  10.436  10.371 -0.2350 -1.4627 -0.2363
  853MOL0     H17645   3.770  10.349  10.284  1.2317 -0.1118 -0.3108
  853MOL0     H17646   3.842  10.127  10.255  1.6376  1.9705 -0.0656
  853MOL0     H17647   3.975   9.936  10.196  2.9754  1.3061 -1.0909
  853MOL0     H17648   4.025   9.846  10.053  1.4582  2.4025 -0.3829
  853MOL0     H17649   3.760   9.858  10.182  2.6625 -1.7330  3.0046
  853MOL0     H17650   3.761   9.844  10.003  0.2848 -0.4035 -0.0179
  853MOL0     H17651   3.859   9.634  10.015 -2.4014  1.9516 -0.9667
  853MOL0     H17652   3.933   9.657  10.177 -0.6182 -0.8058  0.8647
  853MOL0     H17653   3.696   9.632  10.268  1.5338 -1.4566  1.6021
  853MOL0     H17654   3.638   9.592  10.103  1.9252  1.8748 -3.5169
  853MOL0     H17655   3.855   9.457  10.274  0.0456  1.1441 -0.4260
  853MOL0     H17656   3.807   9.412  10.113  1.0156  0.3529  0.1879
  853MOL0     H17657   3.655   9.371  10.367 -1.0099 -0.6458 -0.0104
  853MOL0     H17658   3.557   9.372  10.217 -1.0035  0.0510 -0.4966
  853MOL0     H17659   3.802   9.221  10.287 -0.5867  3.5689 -1.3333
  853MOL0     H17660   3.724   9.202  10.123 -1.5137  1.1332 -1.1095
  853MOL0     H17661   3.514   9.176  10.307 -0.1224 -0.0181 -1.8832
  853MOL0     H17662   3.598   9.032  10.229 -1.8375 -0.5866  0.3424
  853MOL0     H17663   3.788   8.897  10.388  0.1639  1.3163 -2.7235
  853MOL0     H17664   3.856   8.805  10.659 -2.8795  0.8574  2.4221
  853MOL0     H17665   3.885   8.938  10.767  3.2777 -0.5538 -0.1350
  853MOL0     H17666   4.085   8.862  10.698  0.2988  1.2343  0.4851
  853MOL0     H17667   4.054   8.892  10.525 -0.1192 -2.0633  0.4455
  853MOL0     H17668   4.027   9.138  10.573  1.1148  0.8629 -0.8548
  853MOL0     H17669   4.043   9.110  10.744 -1.2574  0.5810 -0.5925
  853MOL0     H17670   4.269   9.175  10.679  0.5197 -0.6576  2.0214
  853MOL0     H17671   4.285   9.000  10.691  1.8303  0.1815 -1.7524
  853MOL0     H17672   4.302   9.074  10.230 -3.2121 -2.1241  1.3412
  853MOL0     H17673   4.537   8.925  10.033 -3.8052  0.5821 -2.6598
  853MOL0     H17674   4.581   9.091  10.037 -0.8684  0.2573 -0.6303
  853MOL0     H17675   4.408   9.042  10.026  0.0561  2.6270 -0.4500
  853MOL0     H17676   5.057   8.900  10.478  1.7461 -3.2590  1.9470
  853MOL0     H17677   5.305   8.862  10.420 -1.0051 -0.9573 -0.7798
  853MOL0     H17678   5.444   8.781  10.023  0.9672 -0.3264  0.9863
  853MOL0     H17679   5.460   8.954   9.990 -0.9194 -0.7904 -0.5835
  853MOL0     H17680   5.684   8.959  10.064  4.8538 -1.1746 -2.1625
  853MOL0     H17681   5.663   8.826  10.181 -2.7392 -1.5931 -0.2205
  853MOL0     H17682   5.680   8.785   9.883 -2.1132  0.2706  0.7246
  853MOL0     H17683   5.679   8.657  10.008  2.4172 -0.4190  1.3596
  853MOL0     H17684   5.893   8.744  10.085  1.6517  1.1895 -0.0913
  853MOL0     H17685   5.882   8.881   9.989  1.5382 -0.7368  0.9125
  853MOL0     H17686   5.904   8.602   9.873  2.5157 -0.0303  0.5376
  853MOL0     H17687   5.855   8.738   9.784 -1.0630 -0.8588  0.8395
  853MOL0     H17688   6.095   8.828   9.905 -2.9693 -2.1836  3.7603
  853MOL0     H17689   6.091   8.767   9.741  3.3111  0.6983  0.6203
  853MOL0     H17690   6.267   8.658   9.875 -0.8187  1.3530  0.4669
  853MOL0     H17691   6.152   8.531   9.831 -1.8999 -0.9564  1.1377
  853MOL0     H17692   6.153   8.707  10.087 -3.5877  0.3318 -0.7026
  853MOL0     H17693   6.256   8.562  10.065  0.3659 -2.0898 -1.8291
  853MOL0     H17694   5.236   8.966  10.019  1.2816 -1.2779  0.2189
  853MOL0     H17695   5.004   8.999  10.053  0.9228  1.3433 -0.0483
  853MOL0     H17696   4.711   8.942  10.485  0.5427 -1.7543 -2.0953
  853MOL0     H17697   4.504   9.010  10.600  0.6338 -3.5107 -0.2136
  853MOL0     H17698   3.830  10.189   9.828 -4.9583  0.1492 -0.5667
  853MOL0     H17699   3.696  10.403   9.872 -1.6028 -1.7458 -0.3998
  853MOL0     H17700   3.515  10.723  10.065 -0.8739  2.6617 -0.8016
  853MOL0     H17701   3.384  10.909  10.134 -0.7272 -0.2566 -0.3700
  853MOL0     H17702   3.007  10.869  10.229 -1.5886  2.1110  0.1858
  853MOL0     H17703   3.034  10.883  10.400 -3.6345  3.4143  0.4918
  853MOL0     H17704   2.911  11.078  10.361 -0.3158  0.7616 -1.1357
  853MOL0     H17705   2.983  11.098  10.207  2.3275  2.7842  0.2383
  853MOL0     H17706   3.149  11.168  10.451 -3.3807  1.0858  0.5940
  853MOL0     H17707   3.206  11.174  10.290  0.5394  1.4859  0.4198
  853MOL0     H17708   2.939  11.315  10.325 -0.2546 -1.2349  2.8737
  853MOL0     H17709   3.088  11.369  10.246  5.0669 -0.7011  1.4098
  853MOL0     H17710   3.123  11.533  10.636 -1.5783  1.6627 -0.2843
  853MOL0     H17711   3.129  10.678  10.372 -1.4949  2.1756 -2.0180
  853MOL0     H17712   3.181  10.462  10.437  0.6340  1.6812 -0.2371
  853MOL0     H17713   3.234  10.346  10.316 -0.7477  0.6003 -3.6372
  853MOL0     H17714   3.351  10.423  10.436  1.0837  4.5711 -0.1917
  854MOL0     O17715   1.106   2.992   0.690  0.8840  0.2668 -0.0494
  854MOL0     C17716   1.070   3.056   0.590  0.9004 -0.4079 -0.4461
  854MOL0     O17717   1.138   3.064   0.472  0.0123  0.4131  0.1986
  854MOL0     C17718   1.238   2.972   0.470 -0.6139  0.5692 -0.7983
  854MOL0     C17719   1.207   2.845   0.418 -0.2505 -0.4130  0.1225
  854MOL0     C17720   1.305   2.742   0.416  0.4995  0.7332  0.0055
  854MOL0     C17721   1.432   2.765   0.471 -0.0526 -0.1052  0.8208
  854MOL0     O17722   1.518   2.667   0.474 -0.0257  0.0515  0.3089
  854MOL0     C17723   1.523   2.563   0.377 -0.0221 -0.1959  0.0024
  854MOL0     C17724   1.626   2.455   0.418 -0.1951 -0.3377 -0.4059
  854MOL0     C17725   1.765   2.509   0.447 -0.4646  0.9839 -0.3500
  854MOL0     C17726   1.862   2.394   0.494  0.2554 -0.8334 -0.3562
  854MOL0     C17727   1.929   2.441   0.622 -0.3829  0.6530 -0.1032
  854MOL0     C17728   2.039   2.351   0.658  0.4972 -0.7451  0.0202
  854MOL0     C17729   2.114   2.403   0.782 -0.4795 -0.1065 -0.3558
  854MOL0     C17730   2.245   2.329   0.811  0.0055  0.9524 -0.5290
  854MOL0     N17731   2.371   2.397   0.766 -0.0189 -0.1879  0.3239
  854MOL0     C17732   2.403   2.417   0.640 -0.5352 -0.2854  0.5864
  854MOL0     C17733   2.506   2.504   0.649 -0.3011 -0.8184  0.0636
  854MOL0     C17734   2.585   2.548   0.535 -0.6039  1.0183  0.0511
  854MOL0     C17735   2.579   2.704   0.508 -0.6504 -0.5759  1.5513
  854MOL0     C17736   2.632   2.777   0.632 -0.3023 -0.1733 -0.4327
  854MOL0     C17737   2.683   2.917   0.609 -0.8183  0.2036  0.3114
  854MOL0     O17738   2.588   2.993   0.530  0.1267 -0.1511  0.1113
  854MOL0     C17739   2.631   3.117   0.476  0.0509 -0.3770 -1.0762
  854MOL0     C17740   2.747   3.184   0.517  0.4376  0.5826  0.7170
  854MOL0     C17741   2.789   3.303   0.462  0.6088  0.7210  0.0498
  854MOL0     C17742   2.915   3.369   0.520 -0.0850 -0.1454 -0.5273
  854MOL0     C17743   2.714   3.365   0.357 -0.1302  0.8573 -0.8172
  854MOL0     C17744   2.738   3.499   0.304 -0.1335 -1.6753  0.6471
  854MOL0     O17745   2.645   3.542   0.213  0.2284 -0.3548 -0.3926
  854MOL0     C17746   2.650   3.670   0.159  0.7917 -0.2734  0.4836
  854MOL0     C17747   2.660   3.691   0.022  0.4883 -0.9099 -1.0810
  854MOL0     C17748   2.657   3.822  -0.029  0.4200 -1.0386  0.0985
  854MOL0     C17749   2.671   3.932   0.046 -0.4212 -0.8191 -0.6928
  854MOL0     O17750   2.686   4.060  -0.006 -0.1695 -0.3546 -0.6665
  854MOL0     C17751   2.584   4.157   0.034  0.2055  0.1110  0.9085
  854MOL0     C17752   2.600   4.281  -0.043  0.0143  0.1513  0.2284
  854MOL0     C17753   2.529   4.397   0.008  0.1417  0.3557  0.5466
  854MOL0     C17754   2.597   4.476   0.117  0.1915 -0.4677  0.3120
  854MOL0     C17755   2.514   4.600   0.152  0.1385 -0.8876 -0.7097
  854MOL0     C17756   2.391   4.579   0.246 -0.7627 -1.3801 -0.5979
  854MOL0     C17757   2.421   4.598   0.393 -0.7981 -0.1197  0.1121
  854MOL0     C17758   2.292   4.570   0.474  0.7135  1.1278 -0.0930
  854MOL0    Cl17759   2.313   4.599   0.654  0.1446  0.3700 -0.5591
  854MOL0     C17760   2.673   3.916   0.186  0.0308 -0.9311  0.7450
  854MOL0     C17761   2.659   3.790   0.241  0.0866 -0.1326  1.1813
  854MOL0     O17762   2.841   3.562   0.334  0.6137 -0.4313  0.3036
  854MOL0     C17763   2.588   3.302   0.321 -0.1991  0.0950 -0.1067
  854MOL0     C17764   2.559   3.178   0.379  0.2257  0.5372 -0.7162
  854MOL0     N17765   2.520   2.546   0.778 -1.1979  0.0333 -0.0778
  854MOL0     N17766   2.432   2.489   0.839  0.2348 -0.8480 -0.5923
  854MOL0     C17767   1.464   2.892   0.506 -0.1759 -0.1980 -0.7528
  854MOL0     C17768   1.375   2.997   0.506 -0.4791  0.1921 -0.2555
  854MOL0     C17769   0.931   3.109   0.595 -0.6266 -0.5024  0.8496
  854MOL0     C17770   0.850   3.105   0.482  0.2333  0.0586  0.1870
  854MOL0     C17771   0.718   3.143   0.480 -0.4301 -0.9521 -0.6494
  854MOL0     C17772   0.654   3.196   0.598  0.4586  0.5351  0.2689
  854MOL0     O17773   0.519   3.224   0.596  0.0204 -0.2191 -0.0164
  854MOL0     C17774   0.455   3.294   0.699  0.6561 -0.1969 -0.4845
  854MOL0     C17775   0.400   3.425   0.649  0.1461 -0.0508 -0.0385
  854MOL0     C17776   0.517   3.512   0.594 -0.3281 -0.6382  0.4383
  854MOL0     C17777   0.469   3.662   0.558  0.0058  0.5375  0.0612
  854MOL0     C17778   0.373   3.660   0.447 -0.7577  0.2759 -0.0584
  854MOL0     C17779   0.302   3.647   0.348 -0.3497  0.1079  0.1382
  854MOL0     C17780   0.739   3.204   0.702  0.3397  0.0057 -1.0795
  854MOL0     C17781   0.873   3.169   0.708 -0.5711  0.3258 -0.6287
  854MOL0     C17782   0.946   3.194   0.839  0.6438  0.5292  0.0348
  854MOL0     H17783   1.104   2.831   0.387 -0.7856 -0.2431  1.7591
  854MOL0     H17784   1.276   2.653   0.360  0.4061 -0.1710  1.4373
  854MOL0     H17785   1.560   2.611   0.285 -0.6007  1.8982  0.8060
  854MOL0     H17786   1.427   2.511   0.364  0.2838 -0.6732 -0.4038
  854MOL0     H17787   1.584   2.399   0.503 -1.0417 -1.1117 -1.2983
  854MOL0     H17788   1.647   2.385   0.337  3.9465 -2.4195  2.1463
  854MOL0     H17789   1.797   2.557   0.354 -0.8314  0.0018 -1.0118
  854MOL0     H17790   1.762   2.590   0.520  0.0262  0.3067  0.4393
  854MOL0     H17791   1.810   2.304   0.528  1.8587 -0.8648  2.3186
  854MOL0     H17792   1.924   2.355   0.413 -0.0738 -0.5179 -0.7650
  854MOL0     H17793   1.850   2.452   0.697  2.3335 -4.5060  4.2147
  854MOL0     H17794   1.980   2.537   0.608  2.3121 -0.5181  0.9637
  854MOL0     H17795   1.994   2.252   0.670 -0.2759 -0.1687  2.3751
  854MOL0     H17796   2.114   2.341   0.579  0.5719  0.8524 -0.1289
  854MOL0     H17797   2.055   2.395   0.874  1.7004 -0.3373  1.1005
  854MOL0     H17798   2.138   2.509   0.770  3.3657 -0.7407  0.3847
  854MOL0     H17799   2.248   2.327   0.921 -0.8583  4.9014 -0.2856
  854MOL0     H17800   2.243   2.226   0.774 -1.1621  0.2531  1.3428
  854MOL0     H17801   2.366   2.375   0.547  2.0473 -1.4326 -0.0414
  854MOL0     H17802   2.566   2.488   0.446  3.9517  0.0118 -0.4704
  854MOL0     H17803   2.687   2.517   0.557 -0.3304  2.0463  0.3227
  854MOL0     H17804   2.646   2.729   0.426 -2.1480 -1.2161  0.0824
  854MOL0     H17805   2.479   2.739   0.481 -1.1554 -4.3718 -2.9402
  854MOL0     H17806   2.550   2.782   0.705 -1.3038  0.5170 -1.5546
  854MOL0     H17807   2.706   2.715   0.683  0.7139 -0.8149 -2.5875
  854MOL0     H17808   2.675   2.964   0.707 -3.2758  1.4547 -0.3916
  854MOL0     H17809   2.786   2.918   0.574  0.0420 -3.1783  2.2381
  854MOL0     H17810   2.813   3.135   0.587  1.7702  0.4438 -0.5859
  854MOL0     H17811   3.002   3.393   0.458  0.7964  0.1652  0.7829
  854MOL0     H17812   2.949   3.316   0.609  1.8940 -3.2000 -2.9048
  854MOL0     H17813   2.888   3.466   0.563  0.7125  0.2547 -0.9089
  854MOL0     H17814   2.644   3.600  -0.036 -2.5190 -0.8361 -0.5642
  854MOL0     H17815   2.658   3.832  -0.137  1.8898 -0.1658  0.1589
  854MOL0     H17816   2.484   4.114   0.022  0.6980 -0.3149 -3.0737
  854MOL0     H17817   2.609   4.185   0.137  4.9587 -0.4954  0.1466
  854MOL0     H17818   2.708   4.299  -0.042  0.4170 -1.9458  0.7044
  854MOL0     H17819   2.554   4.259  -0.140 -2.7781  0.3187  1.4380
  854MOL0     H17820   2.428   4.365   0.033 -0.5269  2.4355  0.6298
  854MOL0     H17821   2.529   4.456  -0.084 -0.2856 -0.3539  0.0881
  854MOL0     H17822   2.696   4.512   0.086  1.4913 -1.5198  2.9127
  854MOL0     H17823   2.619   4.426   0.212 -2.3515  0.1951  1.3268
  854MOL0     H17824   2.568   4.687   0.192 -2.1026  1.1414 -1.8046
  854MOL0     H17825   2.477   4.644   0.059  0.8547 -2.6276 -1.8693
  854MOL0     H17826   2.344   4.484   0.216  0.1933 -1.7281 -1.0197
  854MOL0     H17827   2.333   4.669   0.225  2.2162  1.0628  0.9898
  854MOL0     H17828   2.464   4.696   0.419  2.6828 -2.1042  2.7465
  854MOL0     H17829   2.498   4.523   0.411  1.8422  1.5132 -3.1259
  854MOL0     H17830   2.252   4.472   0.445  2.5301  0.3061  0.0493
  854MOL0     H17831   2.212   4.641   0.451 -0.6841 -0.0292  1.0646
  854MOL0     H17832   2.690   4.006   0.243 -2.3912  2.9923 -4.0081
  854MOL0     H17833   2.660   3.795   0.349  2.7457  0.3914  1.2066
  854MOL0     H17834   2.537   3.346   0.236 -2.1197  0.2760  1.0638
  854MOL0     H17835   2.476   3.120   0.340 -1.6347  1.7266  1.2101
  854MOL0     H17836   1.562   2.906   0.551 -1.6736  4.1174  1.8982
  854MOL0     H17837   1.397   3.097   0.540 -2.6761 -0.2421  2.9357
  854MOL0     H17838   0.891   3.065   0.389  2.1438 -0.9048  1.3851
  854MOL0     H17839   0.651   3.137   0.395 -0.3901  0.6110 -0.8335
  854MOL0     H17840   0.368   3.238   0.733  0.1061  0.3429 -0.9876
  854MOL0     H17841   0.523   3.315   0.783  0.0217 -0.5734  0.1281
  854MOL0     H17842   0.342   3.474   0.727 -1.2865 -2.6829  0.6888
  854MOL0     H17843   0.322   3.395   0.578  1.1199 -2.0178 -0.3602
  854MOL0     H17844   0.596   3.513   0.669 -1.3612 -1.0103  1.5664
  854MOL0     H17845   0.549   3.468   0.499 -0.4678  0.9609 -0.3863
  854MOL0     H17846   0.550   3.723   0.518 -1.1927  2.6834  0.7125
  854MOL0     H17847   0.428   3.715   0.645 -3.4385  2.1168 -2.2751
  854MOL0     H17848   0.244   3.624   0.261 -2.5285  2.0122  1.0039
  854MOL0     H17849   0.712   3.238   0.801  1.7223 -0.5094 -0.4948
  854MOL0     H17850   0.880   3.243   0.912 -2.5935  0.8711 -2.8446
  854MOL0     H17851   0.973   3.099   0.886  1.1105  1.2778  1.3348
  854MOL0     H17852   1.040   3.249   0.829  1.7412 -1.5218 -2.0242
  855MOL0     O17853   3.382   1.744   8.161 -0.9261 -0.2480  0.4239
  855MOL0     C17854   3.376   1.836   8.078  0.0441 -0.1324  0.0739
  855MOL0     O17855   3.267   1.857   8.005 -0.0409 -0.4938 -0.8164
  855MOL0     C17856   3.148   1.793   8.016 -0.6299  0.7876  0.7936
  855MOL0     C17857   3.078   1.759   7.897  0.1609 -0.5584  0.3068
  855MOL0     C17858   2.951   1.696   7.892  0.3342  0.4377  0.5720
  855MOL0     C17859   2.880   1.675   8.010  0.3211  0.2033  0.3752
  855MOL0     O17860   2.761   1.607   7.995 -0.9099 -0.1878 -0.1586
  855MOL0     C17861   2.695   1.583   8.124  0.0748 -0.7038 -0.2699
  855MOL0     C17862   2.561   1.502   8.123  0.8123  0.9509  0.2376
  855MOL0     C17863   2.597   1.353   8.092  0.0677 -0.3621 -0.3403
  855MOL0     C17864   2.477   1.259   8.083 -0.9350 -0.3029  0.3466
  855MOL0     C17865   2.513   1.102   8.086 -0.5044 -0.3579 -1.1433
  855MOL0     C17866   2.390   1.024   8.121 -0.2283 -0.8403  0.3518
  855MOL0     C17867   2.428   0.877   8.097  0.6284  0.0043 -0.6160
  855MOL0     C17868   2.309   0.794   8.080 -0.1642  0.4669 -0.6173
  855MOL0     N17869   2.342   0.658   8.055 -0.6267 -0.5676  0.1552
  855MOL0     C17870   2.263   0.543   8.086  0.7928 -0.1140  0.5393
  855MOL0     C17871   2.331   0.428   8.053  1.0557 -0.6484  0.6892
  855MOL0     C17872   2.290   0.284   8.066  0.5359  0.0328 -0.1387
  855MOL0     C17873   2.157   0.255   8.003 -0.4399  0.6376 -0.4794
  855MOL0     C17874   2.039   0.323   8.079 -0.7056 -0.4806  0.2511
  855MOL0     C17875   1.909   0.251   8.087  0.7114  0.5598  0.1766
  855MOL0     O17876   1.868   0.239   7.951  0.2280 -1.1396 -0.8795
  855MOL0     C17877   1.733   0.254   7.932  0.7491 -0.7823 -1.4613
  855MOL0     C17878   1.622   0.239   8.026  0.1188  0.1870  0.9735
  855MOL0     C17879   1.492   0.234   7.976  0.7516 -0.4649  0.0865
  855MOL0     C17880   1.381   0.205   8.083 -0.9753  0.8324  0.3930
  855MOL0     C17881   1.468   0.246   7.830  0.2972 -0.3840  0.9870
  855MOL0     C17882   1.333   0.251   7.763  0.2601  1.1043  0.1544
  855MOL0     O17883   1.331   0.250   7.621 -0.3008  0.2387 -0.2182
  855MOL0     C17884   1.222   0.285   7.545  0.2192  0.2743  0.5335
  855MOL0     C17885   1.092   0.321   7.593  0.9733 -0.3039  0.0559
  855MOL0     C17886   0.991   0.335   7.502  1.0580  0.2438  0.8333
  855MOL0     C17887   1.006   0.336   7.361 -1.0573  0.0508 -0.4464
  855MOL0     O17888   0.899   0.355   7.273 -0.5561 -0.1171  0.3863
  855MOL0     C17889   0.773   0.297   7.298  0.1259 -1.1744 -0.1012
  855MOL0     C17890   0.691   0.301   7.165 -0.3254 -0.1556 -0.0039
  855MOL0     C17891   0.555   0.238   7.175 -0.5417 -0.8104  0.4289
  855MOL0     C17892   0.484   0.244   7.034 -0.2882 -0.0001  0.3207
  855MOL0     C17893   0.348   0.175   7.024 -0.0599 -0.8898  1.0102
  855MOL0     C17894   0.238   0.223   7.113  0.2198  0.1437  0.0410
  855MOL0     C17895   0.100   0.193   7.060 -0.0459 -0.7006  0.1646
  855MOL0     C17896  -0.005   0.236   7.162  0.7317 -0.1339  0.9305
  855MOL0    Cl17897  -0.158   0.171   7.101 -0.0869 -0.3231 -0.1863
  855MOL0     C17898   1.137   0.314   7.318  0.0178  0.3310 -0.6743
  855MOL0     C17899   1.238   0.276   7.405  0.8762 -0.4910 -0.5385
  855MOL0     O17900   1.239   0.258   7.837  0.0010 -0.3486 -0.2904
  855MOL0     C17901   1.578   0.261   7.743 -0.3823 -0.1949 -0.3971
  855MOL0     C17902   1.709   0.255   7.793  0.3530 -0.3298 -0.4521
  855MOL0     N17903   2.453   0.476   8.009  0.0002 -0.2327  0.6133
  855MOL0     N17904   2.457   0.607   7.999 -0.5498 -0.0731 -0.9298
  855MOL0     C17905   2.950   1.704   8.136 -0.3833 -0.1171 -0.4047
  855MOL0     C17906   3.078   1.761   8.138 -0.5877  1.2819  0.1563
  855MOL0     C17907   3.492   1.924   8.056 -0.1220  1.0739 -0.3774
  855MOL0     C17908   3.513   1.958   7.921  0.6681 -0.1134  0.3605
  855MOL0     C17909   3.611   2.042   7.883 -0.0409  0.3938  0.4236
  855MOL0     C17910   3.686   2.112   7.977 -0.1415  0.2061  0.1266
  855MOL0     O17911   3.776   2.196   7.923 -0.0332 -0.4215  0.0202
  855MOL0     C17912   3.864   2.281   7.993 -0.2186 -0.3076 -0.2114
  855MOL0     C17913   3.796   2.414   8.027  0.6984  0.3666  0.6594
  855MOL0     C17914   3.752   2.482   7.895  0.5836  1.6539 -0.1123
  855MOL0     C17915   3.624   2.568   7.905  0.1699  0.6634 -0.2116
  855MOL0     C17916   3.551   2.577   7.784  0.9223 -0.3580  0.6685
  855MOL0     C17917   3.476   2.608   7.686 -0.5579  1.3878 -0.9021
  855MOL0     C17918   3.677   2.072   8.113 -0.2580 -0.5186  0.6511
  855MOL0     C17919   3.581   1.982   8.156 -0.0546  0.7072  0.2186
  855MOL0     C17920   3.581   1.936   8.304  0.0224  0.0637  0.2224
  855MOL0     H17921   3.136   1.782   7.808  1.4717  0.3027  1.3564
  855MOL0     H17922   2.893   1.668   7.804  0.7805  0.3746  0.2943
  855MOL0     H17923   2.684   1.684   8.166  2.2793 -0.2416 -0.6932
  855MOL0     H17924   2.765   1.520   8.179  0.8310  0.3981  0.0469
  855MOL0     H17925   2.506   1.496   8.217  0.5381 -1.3581 -0.0123
  855MOL0     H17926   2.489   1.536   8.048 -1.3361 -2.9518  0.2602
  855MOL0     H17927   2.645   1.357   7.994  1.4882  1.6571  0.3598
  855MOL0     H17928   2.670   1.319   8.166  1.4209  3.2687  0.1932
  855MOL0     H17929   2.413   1.278   8.169  2.2515 -1.5850  3.2639
  855MOL0     H17930   2.431   1.280   7.986 -1.3416 -0.7808  0.4350
  855MOL0     H17931   2.584   1.069   8.163  0.4861  1.1332 -1.3767
  855MOL0     H17932   2.557   1.081   7.988  0.7416 -1.1616 -0.4446
  855MOL0     H17933   2.357   1.035   8.225 -1.1132 -3.0346  0.3514
  855MOL0     H17934   2.317   1.064   8.051 -0.3554  2.8303  2.3422
  855MOL0     H17935   2.487   0.824   8.173 -1.2350 -1.1027  0.1425
  855MOL0     H17936   2.489   0.876   8.006  0.9438  2.2799 -0.4924
  855MOL0     H17937   2.257   0.801   8.175 -0.1477 -0.1521 -0.5635
  855MOL0     H17938   2.246   0.837   8.002 -1.6544 -2.2659 -1.0379
  855MOL0     H17939   2.169   0.546   8.140  1.2863 -1.5779  1.5254
  855MOL0     H17940   2.282   0.273   8.175 -3.0133  2.8625  0.0883
  855MOL0     H17941   2.365   0.213   8.030  0.8684 -0.4044  1.3275
  855MOL0     H17942   2.160   0.277   7.896 -0.4671 -3.8092 -1.5971
  855MOL0     H17943   2.143   0.147   8.013  3.5322 -0.1207 -1.5513
  855MOL0     H17944   2.076   0.333   8.182  1.9383  0.0484 -0.6828
  855MOL0     H17945   2.013   0.418   8.032  1.0289  0.8818  1.8623
  855MOL0     H17946   1.924   0.155   8.139  0.8252  0.6987  0.4017
  855MOL0     H17947   1.830   0.296   8.147 -1.7061 -0.0104 -2.3812
  855MOL0     H17948   1.640   0.237   8.133 -2.8376  1.6520  1.6044
  855MOL0     H17949   1.332   0.116   8.044  0.3933  0.0373  0.4082
  855MOL0     H17950   1.308   0.286   8.085 -1.9579 -0.0203  0.1745
  855MOL0     H17951   1.425   0.192   8.182 -2.3841  0.2112  0.9609
  855MOL0     H17952   1.070   0.338   7.698  2.1280  0.3484  0.2045
  855MOL0     H17953   0.891   0.349   7.543  0.3204 -0.1761 -0.7463
  855MOL0     H17954   0.793   0.201   7.347  2.6013  0.0972  1.5822
  855MOL0     H17955   0.718   0.356   7.372 -1.6075 -4.1860  1.1930
  855MOL0     H17956   0.686   0.407   7.139  1.3174  0.0399  0.3577
  855MOL0     H17957   0.743   0.242   7.089 -1.4279  0.5588 -1.3651
  855MOL0     H17958   0.489   0.282   7.250 -0.3240 -1.6830  1.1475
  855MOL0     H17959   0.574   0.135   7.208 -2.2985 -1.6580 -1.0278
  855MOL0     H17960   0.549   0.203   6.956  0.6669  0.5920  0.7737
  855MOL0     H17961   0.487   0.349   7.002  3.0272 -0.1769 -0.3417
  855MOL0     H17962   0.324   0.193   6.919 -0.7124  0.3118  1.3449
  855MOL0     H17963   0.365   0.069   7.044 -0.7873 -1.7964 -2.5831
  855MOL0     H17964   0.243   0.333   7.114  3.2905  0.1178 -1.4734
  855MOL0     H17965   0.261   0.196   7.217  0.3482  2.2014  0.6110
  855MOL0     H17966   0.081   0.085   7.061  0.7275 -0.8799  2.9248
  855MOL0     H17967   0.084   0.231   6.958 -1.4650  0.1219  0.6654
  855MOL0     H17968  -0.009   0.345   7.171 -0.0445 -0.1775  1.2192
  855MOL0     H17969   0.021   0.187   7.257 -0.1092  0.4744  1.4979
  855MOL0     H17970   1.160   0.303   7.212  1.9752  1.5999 -0.4452
  855MOL0     H17971   1.333   0.249   7.359  0.6489 -0.2941 -1.1293
  855MOL0     H17972   1.562   0.282   7.638 -1.9679 -0.4825 -0.2353
  855MOL0     H17973   1.792   0.257   7.723 -1.0542  2.7932 -2.2293
  855MOL0     H17974   2.914   1.686   8.237  0.3963  0.7717  0.0455
  855MOL0     H17975   3.135   1.779   8.228  0.6363 -1.2634 -0.0047
  855MOL0     H17976   3.453   1.918   7.839  0.4022 -0.2220  0.6053
  855MOL0     H17977   3.618   2.068   7.778  0.3226  1.5272  0.7207
  855MOL0     H17978   3.897   2.231   8.084 -3.1406 -2.1891 -0.0939
  855MOL0     H17979   3.943   2.301   7.920  0.3614 -2.5116 -0.2324
  855MOL0     H17980   3.857   2.486   8.080  1.0284 -0.3582  1.2763
  855MOL0     H17981   3.707   2.398   8.089 -0.2818  1.2934 -0.4363
  855MOL0     H17982   3.839   2.534   7.854  0.4837  0.9944 -1.2019
  855MOL0     H17983   3.722   2.406   7.823 -0.4074  3.3723 -1.5764
  855MOL0     H17984   3.649   2.672   7.929  0.8148  0.5491 -0.3746
  855MOL0     H17985   3.549   2.534   7.977 -1.3469  3.2380 -0.4146
  855MOL0     H17986   3.419   2.639   7.601 -0.9816  1.6720 -0.5188
  855MOL0     H17987   3.733   2.134   8.182 -1.2542 -0.3488  1.3420
  855MOL0     H17988   3.616   1.833   8.303 -1.9625 -0.6504 -0.3661
  855MOL0     H17989   3.634   2.011   8.363 -0.3578  0.4919  0.0259
  855MOL0     H17990   3.479   1.930   8.342  0.5153 -1.0139  1.4382
  856MOL0     O17991   6.683   1.997   1.034 -0.1145 -0.3590 -0.0643
  856MOL0     C17992   6.788   1.931   1.023  0.0408 -0.3793 -0.4354
  856MOL0     O17993   6.871   1.884   1.127 -0.3320 -0.2119 -0.1949
  856MOL0     C17994   6.855   1.909   1.260 -0.8347 -0.3315 -0.9714
  856MOL0     C17995   6.937   1.832   1.342  0.2715  0.0059  0.5698
  856MOL0     C17996   6.920   1.841   1.479 -0.7439 -0.7775  0.1537
  856MOL0     C17997   6.824   1.926   1.531  0.0705 -0.4764 -0.8172
  856MOL0     O17998   6.819   1.931   1.670 -0.4767 -0.2328  0.0719
  856MOL0     C17999   6.708   1.998   1.726  0.1459 -0.3496 -0.1104
  856MOL0     C18000   6.738   2.022   1.875  1.1232 -0.1891 -0.5672
  856MOL0     C18001   6.606   2.068   1.944 -0.3027  0.1554  0.5533
  856MOL0     C18002   6.622   2.054   2.095  0.3231  0.0473 -0.6231
  856MOL0     C18003   6.529   2.153   2.165 -0.7831  0.6707  0.7019
  856MOL0     C18004   6.545   2.116   2.312  0.0200  0.6143 -0.0324
  856MOL0     C18005   6.459   2.190   2.402 -0.1935  0.1249  0.7660
  856MOL0     C18006   6.497   2.341   2.434 -0.4663  0.6302 -0.3524
  856MOL0     N18007   6.636   2.348   2.490 -0.5685  0.3242 -0.2683
  856MOL0     C18008   6.680   2.307   2.604 -0.6244  0.2022 -0.2480
  856MOL0     C18009   6.808   2.330   2.610 -0.5762  1.1667  0.3782
  856MOL0     C18010   6.881   2.294   2.742  0.2423  0.1061 -0.1877
  856MOL0     C18011   7.028   2.262   2.740  0.8916  0.6918  0.4288
  856MOL0     C18012   7.094   2.276   2.879  0.2785  0.5223 -0.2184
  856MOL0     C18013   7.205   2.380   2.891  0.2694  0.0979  0.5289
  856MOL0     O18014   7.206   2.442   3.016  0.0027  0.6791  0.0835
  856MOL0     C18015   7.147   2.561   3.029  0.2548 -0.4362 -0.1169
  856MOL0     C18016   7.215   2.671   3.089 -0.0908  0.5752  0.6516
  856MOL0     C18017   7.151   2.796   3.116  0.5077  0.4519  0.5388
  856MOL0     C18018   7.232   2.904   3.177  0.2058 -0.2365 -0.2875
  856MOL0     C18019   7.013   2.810   3.083  0.7733  0.2618  0.8428
  856MOL0     C18020   6.929   2.933   3.116  0.0075 -0.4904  0.5109
  856MOL0     O18021   6.814   2.943   3.043  0.0576 -0.3522  0.5243
  856MOL0     C18022   6.715   3.040   3.065 -0.4473 -0.4674 -0.3070
  856MOL0     C18023   6.604   3.028   2.981 -0.3258 -0.5667  1.0525
  856MOL0     C18024   6.494   3.110   3.000 -0.8979  0.1999 -0.0893
  856MOL0     C18025   6.487   3.198   3.111 -0.7982  0.2666 -0.7230
  856MOL0     O18026   6.376   3.266   3.149  1.1828 -0.2442  0.2732
  856MOL0     C18027   6.264   3.268   3.066  0.8188  0.7472  0.1795
  856MOL0     C18028   6.161   3.360   3.133 -0.1035 -0.3167 -0.2967
  856MOL0     C18029   6.228   3.497   3.178 -0.6138  0.1113  0.7710
  856MOL0     C18030   6.318   3.574   3.078  0.0871 -0.2085  0.2086
  856MOL0     C18031   6.396   3.687   3.146  0.7389  0.3183  1.1600
  856MOL0     C18032   6.415   3.815   3.062 -0.1521  0.2955 -0.1002
  856MOL0     C18033   6.462   3.934   3.144  0.0494  0.0414 -0.0142
  856MOL0     C18034   6.502   4.048   3.051  0.6167  0.1751  0.3733
  856MOL0    Cl18035   6.370   4.134   2.975 -0.0507 -0.4716  0.0832
  856MOL0     C18036   6.598   3.206   3.201  0.2431 -0.5000  0.2390
  856MOL0     C18037   6.714   3.135   3.175  0.2856  0.6295 -0.2398
  856MOL0     O18038   6.963   2.999   3.212  0.0160  0.1458  0.4875
  856MOL0     C18039   6.951   2.699   3.035 -0.1970  0.2413  0.3861
  856MOL0     C18040   7.016   2.579   3.008  0.9334  0.1967 -0.5094
  856MOL0     N18041   6.847   2.393   2.489 -0.2167 -0.2458  0.7113
  856MOL0     N18042   6.737   2.401   2.421  1.6347  0.6932  0.3768
  856MOL0     C18043   6.749   2.006   1.445  0.3096 -0.2309 -0.3954
  856MOL0     C18044   6.767   2.007   1.309 -0.0312 -0.3678  0.2856
  856MOL0     C18045   6.826   1.877   0.883  0.2534 -0.7763  0.9962
  856MOL0     C18046   6.801   1.734   0.852  0.4332 -0.4570  0.5092
  856MOL0     C18047   6.840   1.687   0.727  0.5612  0.1900 -0.3777
  856MOL0     C18048   6.886   1.772   0.626 -0.7622  0.7811  0.3316
  856MOL0     O18049   6.935   1.715   0.509 -0.1474 -0.5603  0.9308
  856MOL0     C18050   6.844   1.753   0.405 -0.4366  0.0251 -0.3265
  856MOL0     C18051   6.757   1.625   0.357  0.6620 -0.4766 -0.0737
  856MOL0     C18052   6.834   1.516   0.277 -0.5842  0.1747  0.6732
  856MOL0     C18053   6.745   1.403   0.224 -1.1045  0.6273  0.0456
  856MOL0     C18054   6.650   1.360   0.334  0.1734  0.0713  0.2001
  856MOL0     C18055   6.568   1.347   0.420 -1.2993  0.4621 -0.4742
  856MOL0     C18056   6.913   1.905   0.655 -0.3723  0.2823 -0.2652
  856MOL0     C18057   6.876   1.961   0.781  0.4954  0.3519  0.4200
  856MOL0     C18058   6.883   2.111   0.794  0.4555  0.2083 -0.1759
  856MOL0     H18059   7.007   1.763   1.298  2.6531  1.3901  1.9998
  856MOL0     H18060   6.977   1.779   1.548 -1.9603 -0.7013  1.2734
  856MOL0     H18061   6.616   1.940   1.726  2.2129 -3.9708  1.3963
  856MOL0     H18062   6.682   2.095   1.682 -1.4954 -1.0483 -0.7109
  856MOL0     H18063   6.750   1.922   1.917 -0.0959 -0.0372  0.2027
  856MOL0     H18064   6.831   2.074   1.896  1.4262 -1.5504  1.8603
  856MOL0     H18065   6.590   2.172   1.913  1.5429  0.4139  0.3493
  856MOL0     H18066   6.531   1.996   1.913 -1.7207  1.3525  1.0750
  856MOL0     H18067   6.598   1.952   2.127  1.4408 -0.8771 -2.5441
  856MOL0     H18068   6.723   2.074   2.135  0.5608 -2.6774  0.3417
  856MOL0     H18069   6.426   2.144   2.129  0.4316 -1.8844 -2.6122
  856MOL0     H18070   6.565   2.255   2.149  0.6466  0.6504  3.2815
  856MOL0     H18071   6.516   2.011   2.322  1.4293  0.3630  1.9041
  856MOL0     H18072   6.652   2.119   2.329  0.8712 -0.3849 -4.0635
  856MOL0     H18073   6.449   2.137   2.497  1.8195 -0.4268  0.7075
  856MOL0     H18074   6.359   2.196   2.357  0.2121  0.6236 -0.0948
  856MOL0     H18075   6.490   2.402   2.343 -2.5082  0.3116 -0.4464
  856MOL0     H18076   6.415   2.374   2.498 -2.9096 -0.0702 -2.8872
  856MOL0     H18077   6.628   2.246   2.677  2.3432  1.0830  2.8762
  856MOL0     H18078   6.835   2.208   2.792  2.6311 -2.3312 -1.9076
  856MOL0     H18079   6.854   2.382   2.800  0.0807  0.3476 -0.6228
  856MOL0     H18080   7.039   2.159   2.706  1.8750  0.3000  1.8703
  856MOL0     H18081   7.085   2.331   2.677  1.1329 -1.3663 -1.7509
  856MOL0     H18082   7.020   2.292   2.958  1.2104  2.8305  0.2559
  856MOL0     H18083   7.144   2.182   2.904  1.1253  1.3368  1.2694
  856MOL0     H18084   7.301   2.329   2.897  0.0329 -0.2798  1.2421
  856MOL0     H18085   7.204   2.463   2.819  0.5005 -1.1918 -1.0153
  856MOL0     H18086   7.320   2.663   3.115 -0.2077 -0.6309  0.7791
  856MOL0     H18087   7.184   3.001   3.157 -0.3321  0.3550  3.2204
  856MOL0     H18088   7.328   2.911   3.125  0.6069  2.0345  0.6601
  856MOL0     H18089   7.239   2.901   3.286 -4.0403 -0.9927  0.1541
  856MOL0     H18090   6.599   2.965   2.892 -0.3349  0.6823  0.1396
  856MOL0     H18091   6.408   3.114   2.933  0.0976 -0.6050 -1.4683
  856MOL0     H18092   6.282   3.315   2.969  1.3029 -0.8022 -0.5053
  856MOL0     H18093   6.230   3.166   3.051 -3.6115  1.7272  2.1377
  856MOL0     H18094   6.071   3.364   3.071 -0.0647 -0.2861 -0.3519
  856MOL0     H18095   6.128   3.304   3.221  2.2210 -2.4736 -0.6614
  856MOL0     H18096   6.286   3.478   3.269  1.9554  1.5118 -0.4862
  856MOL0     H18097   6.142   3.563   3.196 -1.2218  0.0043 -1.4288
  856MOL0     H18098   6.255   3.627   3.006 -1.4213 -0.7413  1.0843
  856MOL0     H18099   6.389   3.512   3.022 -1.2481  0.4621 -2.3773
  856MOL0     H18100   6.335   3.713   3.234  0.4358 -1.6063  1.5706
  856MOL0     H18101   6.487   3.638   3.181  1.8488  1.1781 -0.4103
  856MOL0     H18102   6.321   3.845   3.013 -1.6004 -2.6041  0.6404
  856MOL0     H18103   6.476   3.803   2.972 -0.9292  0.4591 -0.6690
  856MOL0     H18104   6.554   3.896   3.191  1.7490  0.6363 -2.6426
  856MOL0     H18105   6.397   3.978   3.220  0.3100  0.8178 -0.2246
  856MOL0     H18106   6.568   4.011   2.972  0.3115 -3.6169  1.7138
  856MOL0     H18107   6.559   4.128   3.099 -0.2264  0.0869  1.5835
  856MOL0     H18108   6.602   3.267   3.291  0.2350 -0.7293  0.3942
  856MOL0     H18109   6.794   3.141   3.248  1.1173 -0.4868 -1.0393
  856MOL0     H18110   6.847   2.698   3.004  0.1018 -0.8113 -0.6606
  856MOL0     H18111   6.956   2.497   2.972  0.6248 -1.6376  3.5672
  856MOL0     H18112   6.688   2.081   1.493  2.8940 -0.0635  3.0571
  856MOL0     H18113   6.719   2.082   1.247 -0.5629  0.7537  1.9924
  856MOL0     H18114   6.773   1.665   0.930  0.9543 -1.2121  0.0382
  856MOL0     H18115   6.823   1.581   0.710 -2.6636  0.9660 -3.2312
  856MOL0     H18116   6.760   1.815   0.437 -0.1603  2.0457 -3.1345
  856MOL0     H18117   6.894   1.793   0.316 -1.9908  1.2154 -0.7026
  856MOL0     H18118   6.680   1.662   0.289  0.4445  0.5642  0.7067
  856MOL0     H18119   6.705   1.585   0.445 -0.2844 -0.7176 -0.7231
  856MOL0     H18120   6.871   1.564   0.186 -2.2562  1.6070  0.6956
  856MOL0     H18121   6.920   1.469   0.325 -0.7205 -1.5979 -0.7160
  856MOL0     H18122   6.820   1.333   0.187 -1.4907  1.1192 -1.7525
  856MOL0     H18123   6.680   1.421   0.138  1.4290  1.9856 -1.7297
  856MOL0     H18124   6.498   1.340   0.501  0.4478  1.8315  1.2476
  856MOL0     H18125   6.962   1.966   0.580  2.6233  0.0514  1.3472
  856MOL0     H18126   6.780   2.139   0.820 -0.0040 -0.4098 -1.2460
  856MOL0     H18127   6.953   2.141   0.872  0.8924  0.3498 -0.6257
  856MOL0     H18128   6.909   2.159   0.699  0.4539  3.6270  1.4036
  857MOL0     O18129   1.031   8.629   7.755 -0.4376  0.2958 -0.1984
  857MOL0     C18130   0.914   8.659   7.716  0.5582  1.0399  0.4483
  857MOL0     O18131   0.800   8.617   7.779  1.0263 -0.0147 -0.3183
  857MOL0     C18132   0.797   8.520   7.872 -0.0585  0.3039  0.2324
  857MOL0     C18133   0.786   8.380   7.852 -0.1189  0.7484 -0.3681
  857MOL0     C18134   0.796   8.290   7.960 -0.5291  0.6673  0.1946
  857MOL0     C18135   0.825   8.343   8.085  0.3135  0.0030  0.5505
  857MOL0     O18136   0.857   8.255   8.189 -0.5795 -0.1936  0.3301
  857MOL0     C18137   0.819   8.296   8.316  0.0863 -0.0377  0.6126
  857MOL0     C18138   0.818   8.181   8.416  0.5424  0.2768  0.0432
  857MOL0     C18139   0.726   8.067   8.369  0.0545 -0.3738 -1.1058
  857MOL0     C18140   0.570   8.095   8.388 -0.8907 -0.2252 -0.1898
  857MOL0     C18141   0.477   7.971   8.385 -0.4501 -1.6335 -0.6759
  857MOL0     C18142   0.475   7.889   8.265  0.3381  0.3867 -0.4651
  857MOL0     C18143   0.417   7.953   8.139 -0.2771 -0.3528 -0.1222
  857MOL0     C18144   0.513   8.056   8.070 -0.1156  0.1135 -0.2255
  857MOL0     N18145   0.490   8.047   7.926 -0.3325 -0.3354  0.2506
  857MOL0     C18146   0.517   7.949   7.837 -0.0222  1.4272 -0.2165
  857MOL0     C18147   0.511   8.002   7.716 -0.5225  0.4332 -0.2811
  857MOL0     C18148   0.543   7.939   7.576 -0.0402 -0.1777  0.6238
  857MOL0     C18149   0.689   7.951   7.533  0.7284 -0.7472 -0.3817
  857MOL0     C18150   0.725   7.860   7.416  0.0509 -0.9879  0.8242
  857MOL0     C18151   0.874   7.865   7.377 -0.0993  0.0542 -1.1356
  857MOL0     O18152   0.969   7.872   7.480 -0.2916  0.0756  0.3120
  857MOL0     C18153   1.022   7.772   7.554  0.2357  0.4712  0.0667
  857MOL0     C18154   1.000   7.637   7.537  0.2725 -0.1267 -0.1179
  857MOL0     C18155   1.057   7.536   7.621 -0.7603 -0.2564  1.3827
  857MOL0     C18156   1.002   7.393   7.609  0.0104 -0.0135 -0.1328
  857MOL0     C18157   1.152   7.576   7.710 -0.1246  0.8717 -0.7978
  857MOL0     C18158   1.227   7.477   7.779 -0.8288  0.6981 -0.4848
  857MOL0     O18159   1.176   7.447   7.898  0.0803 -0.3571 -0.0058
  857MOL0     C18160   1.242   7.365   7.997 -0.3137 -0.0760  0.0036
  857MOL0     C18161   1.334   7.260   7.966 -0.0749 -0.5770  0.5405
  857MOL0     C18162   1.381   7.185   8.070 -1.2017 -0.3477 -0.4872
  857MOL0     C18163   1.358   7.224   8.211  0.1050 -0.3122  0.0829
  857MOL0     O18164   1.417   7.162   8.318 -0.1151 -1.0090  0.5912
  857MOL0     C18165   1.451   7.019   8.317 -0.5740 -0.1776  0.1076
  857MOL0     C18166   1.341   6.931   8.270 -0.0121  0.4952 -0.4046
  857MOL0     C18167   1.304   6.812   8.368  1.2081 -0.3260 -0.6741
  857MOL0     C18168   1.237   6.835   8.501 -0.1984 -0.1032 -0.1229
  857MOL0     C18169   1.251   6.714   8.593  0.2990 -0.2308  0.2491
  857MOL0     C18170   1.158   6.603   8.543 -1.1254  0.1978 -0.1661
  857MOL0     C18171   1.181   6.474   8.625 -0.0964  0.4768 -0.0533
  857MOL0     C18172   1.077   6.378   8.593  0.1713  0.1545  0.2071
  857MOL0    Cl18173   1.090   6.256   8.714  0.0026 -0.3575  0.1036
  857MOL0     C18174   1.283   7.334   8.236  0.4678 -0.0259  0.9324
  857MOL0     C18175   1.218   7.405   8.134 -0.3847  0.2376  1.2284
  857MOL0     O18176   1.342   7.440   7.733 -0.2407 -0.1303 -0.0429
  857MOL0     C18177   1.185   7.707   7.724  0.2015  0.0042 -0.7385
  857MOL0     C18178   1.118   7.808   7.653  0.3605 -0.5126 -0.6073
  857MOL0     N18179   0.491   8.141   7.728 -0.4807  0.3244 -0.3957
  857MOL0     N18180   0.486   8.163   7.856  0.2904  0.0068  0.4239
  857MOL0     C18181   0.821   8.487   8.105  0.2754 -1.0434 -0.9756
  857MOL0     C18182   0.803   8.568   8.001 -0.1673  0.4269  0.3329
  857MOL0     C18183   0.903   8.749   7.595 -0.3122 -0.2650 -0.7304
  857MOL0     C18184   1.000   8.735   7.491 -0.5035  0.2166 -0.5964
  857MOL0     C18185   1.010   8.844   7.398 -0.8230 -0.2571  0.7587
  857MOL0     C18186   0.919   8.951   7.398 -0.0900 -1.0786  0.4786
  857MOL0     O18187   0.902   9.052   7.301 -0.5952  0.4542 -0.9091
  857MOL0     C18188   0.966   9.046   7.175 -0.5697  0.5118 -0.3512
  857MOL0     C18189   1.088   9.137   7.180 -0.3980  0.3884  0.0182
  857MOL0     C18190   1.058   9.286   7.232 -0.0078  0.9786  0.1592
  857MOL0     C18191   1.030   9.299   7.381  0.6935 -0.4776  0.7324
  857MOL0     C18192   1.047   9.433   7.442 -0.2852  0.1346 -0.3138
  857MOL0     C18193   1.061   9.534   7.502 -0.5051  0.3204  0.2186
  857MOL0     C18194   0.828   8.953   7.498 -1.3840 -0.8497 -1.1486
  857MOL0     C18195   0.814   8.855   7.598 -0.5282  0.3398  0.0806
  857MOL0     C18196   0.716   8.889   7.714  1.0411  0.4698 -0.5345
  857MOL0     H18197   0.789   8.348   7.748  3.2787  1.5950 -0.6535
  857MOL0     H18198   0.793   8.181   7.963  2.6715  0.4400 -1.0889
  857MOL0     H18199   0.719   8.340   8.313 -0.6849 -1.7437  0.0013
  857MOL0     H18200   0.890   8.372   8.350 -0.3985  0.0804  1.3751
  857MOL0     H18201   0.922   8.150   8.429  2.0885  4.2597 -1.3682
  857MOL0     H18202   0.788   8.229   8.510  0.0516  1.7253 -0.8193
  857MOL0     H18203   0.769   8.038   8.273  4.3247  1.0932  0.1408
  857MOL0     H18204   0.754   7.982   8.432  0.2260  0.7390  0.3736
  857MOL0     H18205   0.558   8.130   8.491 -1.6301 -0.6692 -0.1217
  857MOL0     H18206   0.535   8.179   8.327 -0.1157 -0.2974 -0.7492
  857MOL0     H18207   0.378   8.010   8.411  0.9979  0.8879  1.4891
  857MOL0     H18208   0.510   7.906   8.467 -2.0248 -1.7842 -0.1308
  857MOL0     H18209   0.568   7.836   8.244 -0.4329 -0.8107 -0.9878
  857MOL0     H18210   0.398   7.816   8.293 -1.0211  2.4640  1.6105
  857MOL0     H18211   0.321   8.004   8.153  0.9104  2.8664 -2.4411
  857MOL0     H18212   0.402   7.872   8.067  1.5336  2.5428 -4.1327
  857MOL0     H18213   0.500   8.156   8.113  1.8826  0.2618  0.1258
  857MOL0     H18214   0.620   8.037   8.072  1.1709  5.3476 -2.4979
  857MOL0     H18215   0.537   7.845   7.862 -0.7616  0.9320 -1.5304
  857MOL0     H18216   0.487   7.999   7.504  1.5428 -0.7694 -1.1925
  857MOL0     H18217   0.503   7.838   7.572  2.6007 -1.2717 -0.0486
  857MOL0     H18218   0.717   8.055   7.517  0.7163 -0.7743 -0.5919
  857MOL0     H18219   0.753   7.921   7.616  0.7401  0.3356  0.0115
  857MOL0     H18220   0.693   7.757   7.433  2.2526 -1.4032  2.9962
  857MOL0     H18221   0.680   7.903   7.326 -1.3081 -0.7601  1.5893
  857MOL0     H18222   0.902   7.800   7.294 -0.0982  1.5507 -2.3571
  857MOL0     H18223   0.893   7.966   7.338 -2.7145  0.6095 -1.1892
  857MOL0     H18224   0.935   7.607   7.456  1.0623 -2.4934  0.0370
  857MOL0     H18225   0.899   7.392   7.571  0.0337 -1.6181 -0.2326
  857MOL0     H18226   0.997   7.347   7.708  1.9613 -1.6395 -0.7013
  857MOL0     H18227   1.057   7.324   7.543 -1.5016 -2.7274  1.2471
  857MOL0     H18228   1.347   7.229   7.863 -1.8151 -2.6535  0.8976
  857MOL0     H18229   1.445   7.099   8.052 -1.9262 -0.4556 -2.8585
  857MOL0     H18230   1.533   7.004   8.247 -2.0551 -0.2171 -1.7025
  857MOL0     H18231   1.480   6.983   8.417  0.5591 -0.8958 -0.4623
  857MOL0     H18232   1.253   6.990   8.241 -0.3783  0.2105  0.1148
  857MOL0     H18233   1.371   6.882   8.178  0.1557 -0.5420  0.1925
  857MOL0     H18234   1.388   6.743   8.375  0.5950 -1.0642 -0.4144
  857MOL0     H18235   1.221   6.766   8.314  1.2951 -0.0620 -1.0355
  857MOL0     H18236   1.131   6.853   8.484 -0.1647 -0.8655 -1.2155
  857MOL0     H18237   1.288   6.924   8.539 -0.2846  1.3598 -3.1315
  857MOL0     H18238   1.355   6.685   8.609  1.0396  0.9750 -1.9741
  857MOL0     H18239   1.221   6.747   8.693  0.7102  1.3275 -0.1138
  857MOL0     H18240   1.180   6.596   8.436  2.4774 -3.3389  0.5575
  857MOL0     H18241   1.053   6.630   8.552 -1.8921 -2.8060  0.9313
  857MOL0     H18242   1.183   6.494   8.732  1.8026  1.4184 -0.2088
  857MOL0     H18243   1.282   6.440   8.599  0.1114  0.0830  1.2407
  857MOL0     H18244   1.099   6.336   8.495 -0.6211 -1.7294  0.7962
  857MOL0     H18245   0.976   6.421   8.595  0.4076  0.7199  0.2886
  857MOL0     H18246   1.262   7.351   8.341 -0.1195 -0.3913  0.8821
  857MOL0     H18247   1.156   7.492   8.153 -0.6460  0.5687 -0.9096
  857MOL0     H18248   1.254   7.728   7.806 -0.7975  0.9944 -0.1280
  857MOL0     H18249   1.131   7.915   7.669  1.5795 -0.7076 -0.2014
  857MOL0     H18250   0.822   8.534   8.203  1.1576  0.0906 -1.5069
  857MOL0     H18251   0.820   8.675   8.013  1.0069 -0.0388  3.8174
  857MOL0     H18252   1.059   8.645   7.481  1.0943  1.2017 -0.3893
  857MOL0     H18253   1.084   8.848   7.319 -0.3302  1.1174  1.2459
  857MOL0     H18254   1.000   8.945   7.148  1.5719  0.9183  0.6710
  857MOL0     H18255   0.898   9.074   7.094 -0.5622 -1.5364 -1.1347
  857MOL0     H18256   1.128   9.143   7.078 -2.1056 -0.5461 -0.7538
  857MOL0     H18257   1.171   9.090   7.233 -2.2908  0.1668  3.0074
  857MOL0     H18258   1.142   9.350   7.202  1.2119  0.2715  1.8920
  857MOL0     H18259   0.966   9.324   7.188  0.2750  1.7788  0.2384
  857MOL0     H18260   1.099   9.233   7.435  2.7887  2.8254  2.4680
  857MOL0     H18261   0.929   9.262   7.402  0.0348 -1.8043 -3.7219
  857MOL0     H18262   1.053   9.629   7.551 -1.3310 -0.3659  1.4664
  857MOL0     H18263   0.762   9.040   7.496 -1.0810 -0.6054 -3.1353
  857MOL0     H18264   0.762   8.859   7.808 -3.3216  0.3918  1.8257
  857MOL0     H18265   0.710   8.998   7.721  1.4503  0.5490 -1.2600
  857MOL0     H18266   0.612   8.856   7.711  1.0170  0.1858  1.5958
  858MOL0     O18267   2.315   1.786   4.833  0.2131 -0.4295 -0.3201
  858MOL0     C18268   2.375   1.695   4.891 -0.6131  0.7327  0.8070
  858MOL0     O18269   2.334   1.565   4.906  0.4226 -0.8741 -1.1945
  858MOL0     C18270   2.206   1.532   4.895  0.8234 -0.1804  0.5185
  858MOL0     C18271   2.110   1.586   4.809 -0.1416  0.3872  0.7610
  858MOL0     C18272   1.973   1.549   4.818 -0.4453 -0.9203  0.2141
  858MOL0     C18273   1.928   1.452   4.913  1.2768  0.3435  0.3343
  858MOL0     O18274   1.795   1.427   4.912  0.1864 -0.4392 -0.7841
  858MOL0     C18275   1.760   1.305   4.853 -0.6538  0.8695  0.3024
  858MOL0     C18276   1.622   1.327   4.779  0.6595  0.2458 -1.1759
  858MOL0     C18277   1.649   1.335   4.631  0.0238  0.3872 -0.0850
  858MOL0     C18278   1.524   1.362   4.551 -0.2244 -0.4455 -0.0540
  858MOL0     C18279   1.563   1.375   4.406  0.0278 -0.3577  0.1947
  858MOL0     C18280   1.445   1.398   4.323  0.2274  0.7991  0.1315
  858MOL0     C18281   1.484   1.367   4.182 -0.1611 -0.5660 -0.1714
  858MOL0     C18282   1.422   1.452   4.069 -0.9203  0.3496 -0.9404
  858MOL0     N18283   1.275   1.430   4.041 -0.4004  0.4029  0.5414
  858MOL0     C18284   1.174   1.382   4.125 -1.0534  0.5274  0.2353
  858MOL0     C18285   1.061   1.401   4.054 -0.6823 -0.6267  0.0034
  858MOL0     C18286   0.922   1.360   4.109 -0.4622  1.0397  0.6083
  858MOL0     C18287   0.866   1.467   4.205  0.2718  0.1184 -0.2847
  858MOL0     C18288   0.807   1.591   4.129  0.4407  0.4442  0.1409
  858MOL0     C18289   0.663   1.554   4.077  0.0180  0.1532  0.3677
  858MOL0     O18290   0.564   1.529   4.179 -0.0051 -0.5908 -0.0014
  858MOL0     C18291   0.446   1.475   4.146 -0.0284 -0.1242  0.7328
  858MOL0     C18292   0.399   1.460   4.015  0.1682 -0.1678 -0.1083
  858MOL0     C18293   0.269   1.422   3.986 -0.0492  0.1420 -0.6617
  858MOL0     C18294   0.215   1.447   3.851  0.0276  0.0918 -0.0763
  858MOL0     C18295   0.190   1.366   4.095 -0.6914 -0.7911  0.7269
  858MOL0     C18296   0.047   1.316   4.081  0.0528 -0.2467  0.8265
  858MOL0     O18297   0.011   1.274   3.949  0.2966 -0.0542  0.3711
  858MOL0     C18298  -0.114   1.221   3.924  0.9207  0.9951 -0.2803
  858MOL0     C18299  -0.235   1.270   3.980 -0.1432  1.0366 -0.4293
  858MOL0     C18300  -0.357   1.232   3.927 -0.4209 -0.2935  0.3231
  858MOL0     C18301  -0.372   1.139   3.825  0.0972  0.7053 -0.2241
  858MOL0     O18302  -0.506   1.130   3.785  0.5972 -0.1027 -0.2561
  858MOL0     C18303  -0.542   1.031   3.688 -1.0276 -0.1315 -0.2144
  858MOL0     C18304  -0.526   1.092   3.548 -0.0108  1.5208  0.6934
  858MOL0     C18305  -0.633   1.198   3.513 -0.4317  0.0467 -0.0895
  858MOL0     C18306  -0.632   1.207   3.356  0.1257 -0.6672  1.1717
  858MOL0     C18307  -0.706   1.332   3.305 -0.1348 -0.2230 -0.0224
  858MOL0     C18308  -0.704   1.323   3.152 -0.0488 -0.2697 -1.0945
  858MOL0     C18309  -0.833   1.391   3.091 -0.3688  0.4296  0.4992
  858MOL0     C18310  -0.836   1.382   2.937 -0.3439  0.3797 -0.4757
  858MOL0    Cl18311  -0.853   1.216   2.875 -0.1168 -0.3554 -0.3268
  858MOL0     C18312  -0.253   1.089   3.760 -1.1332 -0.3384  0.4493
  858MOL0     C18313  -0.127   1.132   3.810 -0.5135 -0.2407  0.9424
  858MOL0     O18314  -0.024   1.322   4.177  0.4675 -0.2915 -0.1488
  858MOL0     C18315   0.244   1.366   4.231 -0.3846 -0.3038 -0.4577
  858MOL0     C18316   0.366   1.426   4.255 -0.0749  0.5371 -0.7748
  858MOL0     N18317   1.098   1.448   3.938  0.6549 -0.5025 -0.5340
  858MOL0     N18318   1.224   1.463   3.925 -0.1052  0.4015 -0.3037
  858MOL0     C18319   2.011   1.401   5.004 -0.5966 -0.4764 -0.5717
  858MOL0     C18320   2.152   1.437   4.994  0.4072 -0.8802  0.3411
  858MOL0     C18321   2.508   1.732   4.939 -0.6763  0.1110  0.3917
  858MOL0     C18322   2.590   1.796   4.843 -0.3437 -0.4116  0.0669
  858MOL0     C18323   2.726   1.821   4.871  0.8192  0.5278 -0.7548
  858MOL0     C18324   2.771   1.792   5.005 -1.1890  0.0736  0.7391
  858MOL0     O18325   2.906   1.809   5.033  0.1520 -0.1973  0.7932
  858MOL0     C18326   2.992   1.700   4.987 -0.5684  0.6468  0.3540
  858MOL0     C18327   3.068   1.732   4.849  0.1357 -0.3816 -0.3442
  858MOL0     C18328   3.168   1.850   4.864  0.9944 -0.5546  0.0055
  858MOL0     C18329   3.231   1.863   4.724 -0.0724  0.2497  0.3732
  858MOL0     C18330   3.320   1.982   4.733  0.7855  0.4673 -0.1463
  858MOL0     C18331   3.367   2.087   4.745 -0.6178  0.0162  0.0785
  858MOL0     C18332   2.687   1.741   5.106  0.7164 -0.2296 -0.2950
  858MOL0     C18333   2.554   1.705   5.072 -0.1483 -0.0039  0.2637
  858MOL0     C18334   2.466   1.656   5.184  0.2488 -0.5495 -0.1052
  858MOL0     H18335   2.152   1.659   4.741  0.2276  1.4665  2.1219
  858MOL0     H18336   1.905   1.598   4.749  1.9281 -0.9014 -2.2744
  858MOL0     H18337   1.746   1.234   4.935 -1.0224  0.2754 -0.2673
  858MOL0     H18338   1.837   1.265   4.786 -3.1830 -6.5528  0.8941
  858MOL0     H18339   1.547   1.250   4.800  1.8777 -0.7242 -0.3052
  858MOL0     H18340   1.575   1.422   4.807  1.0586 -0.2868  1.4931
  858MOL0     H18341   1.725   1.413   4.620  1.1216 -0.3791  1.4598
  858MOL0     H18342   1.695   1.244   4.593 -2.3226 -1.4252  1.1378
  858MOL0     H18343   1.464   1.271   4.565  1.1017 -1.5021 -1.0039
  858MOL0     H18344   1.475   1.453   4.585 -3.0628 -1.7397 -0.3758
  858MOL0     H18345   1.610   1.281   4.378 -0.6569 -0.3811 -0.9632
  858MOL0     H18346   1.629   1.459   4.383 -1.5472  0.6842 -0.7527
  858MOL0     H18347   1.360   1.337   4.353 -0.5575  2.5986  1.7047
  858MOL0     H18348   1.406   1.498   4.341 -0.6249  0.4366  0.3232
  858MOL0     H18349   1.460   1.261   4.172  2.0401 -0.9969 -2.0239
  858MOL0     H18350   1.593   1.373   4.168 -0.0441 -1.4136  0.3219
  858MOL0     H18351   1.419   1.555   4.105  0.9428  0.3017 -0.5919
  858MOL0     H18352   1.495   1.438   3.989  2.7323  1.9650  1.8090
  858MOL0     H18353   1.184   1.344   4.226  1.2538  2.7406  0.9442
  858MOL0     H18354   0.942   1.264   4.158  2.8699  0.9535 -0.6709
  858MOL0     H18355   0.852   1.347   4.026  0.4837  1.3186 -0.2426
  858MOL0     H18356   0.789   1.431   4.274 -0.2554 -0.2390 -1.0425
  858MOL0     H18357   0.948   1.493   4.273  2.9259 -0.4858 -3.0602
  858MOL0     H18358   0.803   1.672   4.203 -0.3861  0.4452  0.1033
  858MOL0     H18359   0.870   1.615   4.042 -0.6471  3.4671  0.0887
  858MOL0     H18360   0.635   1.639   4.013 -1.3736 -0.2908  0.3590
  858MOL0     H18361   0.661   1.465   4.013  0.2844 -1.3869  2.4152
  858MOL0     H18362   0.452   1.490   3.925  0.9579 -0.7973  0.1340
  858MOL0     H18363   0.262   1.524   3.790 -0.0025  0.8939  0.8747
  858MOL0     H18364   0.107   1.463   3.846 -0.0220 -0.0760  0.3736
  858MOL0     H18365   0.232   1.356   3.793 -4.0428  0.0247 -1.4915
  858MOL0     H18366  -0.220   1.346   4.056  3.2242 -0.3834  0.5179
  858MOL0     H18367  -0.456   1.260   3.960  0.0158  3.1255 -0.8457
  858MOL0     H18368  -0.480   0.941   3.688 -1.1696 -0.2320  0.2007
  858MOL0     H18369  -0.641   0.996   3.715 -0.5014 -0.6746  1.1183
  858MOL0     H18370  -0.427   1.137   3.535  1.6679 -1.8045  0.8235
  858MOL0     H18371  -0.534   1.018   3.468 -2.3717  2.3888  0.0638
  858MOL0     H18372  -0.601   1.290   3.564  0.8640 -0.4722  0.0700
  858MOL0     H18373  -0.734   1.176   3.547 -0.6976 -1.1231 -1.5414
  858MOL0     H18374  -0.663   1.115   3.305 -0.0530  0.0192 -0.0094
  858MOL0     H18375  -0.527   1.219   3.328 -0.7923  0.1459 -2.6378
  858MOL0     H18376  -0.809   1.335   3.343  0.0557  0.2328  0.4779
  858MOL0     H18377  -0.655   1.419   3.348 -0.5486  0.2030 -0.3786
  858MOL0     H18378  -0.705   1.218   3.121 -0.3932 -0.3852 -0.7081
  858MOL0     H18379  -0.615   1.363   3.104  0.7713 -1.5548 -0.7113
  858MOL0     H18380  -0.841   1.495   3.123  0.0059  0.4897  0.3961
  858MOL0     H18381  -0.925   1.346   3.130  1.0448 -0.7952  2.6170
  858MOL0     H18382  -0.743   1.433   2.911 -1.1692  2.0629 -0.2332
  858MOL0     H18383  -0.916   1.444   2.898 -0.1782  0.1203 -1.2477
  858MOL0     H18384  -0.265   1.025   3.673 -2.4258  0.1031  0.2754
  858MOL0     H18385  -0.034   1.100   3.765 -1.6948 -3.8720  0.7079
  858MOL0     H18386   0.176   1.332   4.309  0.6801 -0.4497  0.4262
  858MOL0     H18387   0.388   1.433   4.360  0.4796 -1.3931 -0.7266
  858MOL0     H18388   1.981   1.327   5.077 -0.0348 -2.0144 -1.8523
  858MOL0     H18389   2.216   1.385   5.065 -2.2747 -0.5287  3.2097
  858MOL0     H18390   2.554   1.820   4.743  1.8920  1.1184 -0.4253
  858MOL0     H18391   2.788   1.864   4.793  0.1511 -0.2322 -1.7478
  858MOL0     H18392   3.068   1.681   5.063  1.4645  0.5072 -1.6199
  858MOL0     H18393   2.936   1.608   4.971  1.3871 -0.1203 -2.9923
  858MOL0     H18394   2.988   1.747   4.776 -0.7251 -0.6260  0.5415
  858MOL0     H18395   3.128   1.643   4.825 -0.3558 -0.8869  0.2744
  858MOL0     H18396   3.123   1.943   4.898  1.2820 -0.3339 -0.2183
  858MOL0     H18397   3.244   1.826   4.939  1.9520  2.4287  0.1029
  858MOL0     H18398   3.162   1.887   4.642  1.6584  1.1279 -0.9053
  858MOL0     H18399   3.283   1.773   4.693 -0.1121  0.1612  0.5623
  858MOL0     H18400   3.419   2.181   4.750  3.7354 -2.0675 -0.7054
  858MOL0     H18401   2.729   1.718   5.203 -1.3583 -2.5968  0.1349
  858MOL0     H18402   2.401   1.573   5.154 -0.4468 -0.5762  1.3781
  858MOL0     H18403   2.531   1.615   5.263 -0.5541  0.9000  1.3730
  858MOL0     H18404   2.400   1.732   5.226  0.4841  0.3059 -1.2583
  859MOL0     O18405   8.808  10.144   9.953 -0.3072 -1.2273 -0.3586
  859MOL0     C18406   8.734  10.142  10.054 -0.3468  0.7231 -0.8642
  859MOL0     O18407   8.753  10.212  10.169 -0.2138 -0.4716 -0.2762
  859MOL0     C18408   8.865  10.301  10.166  0.4390 -0.0786  0.3574
  859MOL0     C18409   8.993  10.252  10.177  0.6283  0.1425 -0.6936
  859MOL0     C18410   9.104  10.336  10.143 -0.0272  0.0003  0.0471
  859MOL0     C18411   9.084  10.472  10.125 -0.6258 -0.3100  0.4604
  859MOL0     O18412   9.179  10.569  10.111 -0.6104  0.6971 -0.8266
  859MOL0     C18413   9.302  10.556  10.175 -0.6529 -0.0679  0.7486
  859MOL0     C18414   9.358  10.687  10.223 -0.0780 -0.0378 -1.1405
  859MOL0     C18415   9.414  10.781  10.115 -0.0429  0.2546 -0.0659
  859MOL0     C18416   9.523  10.724  10.023  0.2990 -0.8468 -0.5632
  859MOL0     C18417   9.543  10.810   9.902 -0.5099  0.5893  0.3893
  859MOL0     C18418   9.678  10.766   9.820  0.4929 -1.3609  0.3737
  859MOL0     C18419   9.729  10.871   9.715  0.0530  0.0112 -0.4033
  859MOL0     C18420   9.625  10.891   9.612  0.5068  0.1283 -0.7290
  859MOL0     N18421   9.682  10.932   9.483  0.0628  0.2771 -0.8619
  859MOL0     C18422   9.703  10.845   9.379 -0.0323 -0.2847 -0.5746
  859MOL0     C18423   9.782  10.911   9.289  1.0481  0.1682 -0.6740
  859MOL0     C18424   9.847  10.854   9.175 -0.1270  0.2417 -0.4096
  859MOL0     C18425   9.838  10.940   9.046 -0.1770  0.2546  1.2677
  859MOL0     C18426   9.907  10.871   8.920  0.8777 -0.1569  1.0637
  859MOL0     C18427   9.897  10.952   8.790 -0.2232 -0.4835 -0.0603
  859MOL0     O18428   9.960  11.078   8.783 -0.3941  0.5221  0.3361
  859MOL0     C18429  10.096  11.091   8.756 -0.0455 -0.1125 -0.0098
  859MOL0     C18430  10.147  11.214   8.772  0.2671  0.8684 -0.3973
  859MOL0     C18431  10.274  11.246   8.765 -0.0838 -0.2158  0.5147
  859MOL0     C18432  10.321  11.390   8.786 -0.0383 -0.5942 -0.5972
  859MOL0     C18433  10.376  11.142   8.745 -0.5167  0.0942 -0.0241
  859MOL0     C18434  10.520  11.172   8.730  0.2408  0.6079  0.8617
  859MOL0     O18435  10.578  11.288   8.771  0.7770  0.0858 -0.2143
  859MOL0     C18436  10.714  11.319   8.746 -0.0513  0.2164  0.0351
  859MOL0     C18437  10.821  11.228   8.762  0.4399  0.1266  0.0961
  859MOL0     C18438  10.950  11.259   8.723 -0.0036  0.2782 -0.1974
  859MOL0     C18439  10.980  11.390   8.682  1.3316  0.6715 -0.8996
  859MOL0     O18440  11.109  11.432   8.640 -0.0044  1.0162 -0.3936
  859MOL0     C18441  11.192  11.328   8.586  0.4488 -0.4407  0.3311
  859MOL0     C18442  11.299  11.298   8.692 -0.6212  1.2807 -0.0107
  859MOL0     C18443  11.384  11.417   8.741 -0.6264  0.3518  0.9924
  859MOL0     C18444  11.513  11.368   8.822 -0.7649 -0.5213 -0.3882
  859MOL0     C18445  11.642  11.438   8.777  0.4414  0.1711 -0.4283
  859MOL0     C18446  11.688  11.438   8.630  0.1910 -0.6351 -1.0318
  859MOL0     C18447  11.660  11.309   8.545  0.6481 -0.3320  0.2831
  859MOL0     C18448  11.743  11.200   8.603  0.0969  0.0105 -0.2198
  859MOL0    Cl18449  11.760  11.058   8.486  0.0666 -0.1890 -0.1027
  859MOL0     C18450  10.874  11.487   8.656 -0.6873 -0.4275  0.0476
  859MOL0     C18451  10.745  11.448   8.688 -0.0733  0.6188 -0.1013
  859MOL0     O18452  10.586  11.074   8.693 -0.4031  0.2098 -0.2312
  859MOL0     C18453  10.324  11.012   8.726  1.0948  0.4589  0.5177
  859MOL0     C18454  10.182  10.986   8.740 -0.6780 -0.2237  0.1691
  859MOL0     N18455   9.791  11.043   9.334 -0.1985  0.2212  0.9777
  859MOL0     N18456   9.728  11.057   9.446 -0.2853  0.4315  0.3555
  859MOL0     C18457   8.955  10.516  10.114  0.2355 -0.0678 -0.5994
  859MOL0     C18458   8.847  10.434  10.140  0.3811  0.0484 -0.2618
  859MOL0     C18459   8.612  10.060  10.054  0.1240 -0.5771 -0.4986
  859MOL0     C18460   8.583   9.986  10.170 -0.4046 -0.2211  0.0360
  859MOL0     C18461   8.471   9.905  10.177 -0.3851  0.4398 -1.5336
  859MOL0     C18462   8.393   9.882  10.061  0.2421 -0.6558  0.2697
  859MOL0     O18463   8.281   9.809  10.088  0.2766  0.6330 -0.2635
  859MOL0     C18464   8.183   9.781   9.986  0.0673 -0.4197 -0.9971
  859MOL0     C18465   8.066   9.689  10.037  0.9478  0.0501 -0.8414
  859MOL0     C18466   7.980   9.769  10.144 -0.0464  0.0978  0.2922
  859MOL0     C18467   7.840   9.710  10.146 -0.3057 -0.3639 -0.6359
  859MOL0     C18468   7.751   9.749  10.039  0.1435 -0.2870 -0.4770
  859MOL0     C18469   7.685   9.775   9.937  0.0079 -0.3617 -0.3614
  859MOL0     C18470   8.433   9.953   9.939  0.9447 -0.4288 -0.0209
  859MOL0     C18471   8.540  10.033   9.936 -0.3542 -0.6002  1.0330
  859MOL0     C18472   8.595  10.069   9.799 -0.0874  0.4227 -0.2700
  859MOL0     H18473   9.005  10.148  10.204 -1.5370 -0.4811 -1.9450
  859MOL0     H18474   9.206  10.301  10.139  1.3668  3.4485  1.8282
  859MOL0     H18475   9.375  10.503  10.114 -1.0737 -0.6107  0.7091
  859MOL0     H18476   9.289  10.499  10.268  2.8764  1.2102  2.1747
  859MOL0     H18477   9.282  10.739  10.282  1.3924  0.8998 -0.0025
  859MOL0     H18478   9.439  10.667  10.294 -0.3229 -2.4703 -1.4761
  859MOL0     H18479   9.333  10.815  10.050 -0.2876  0.7640  0.5016
  859MOL0     H18480   9.452  10.865  10.174 -0.3240 -1.4883  2.8290
  859MOL0     H18481   9.622  10.736  10.069 -0.0674  1.0538 -0.1819
  859MOL0     H18482   9.494  10.626   9.984 -5.3050  1.4195 -3.2686
  859MOL0     H18483   9.548  10.912   9.941 -5.2666  0.7241  1.2562
  859MOL0     H18484   9.455  10.798   9.838 -1.2415  4.9894  0.2522
  859MOL0     H18485   9.762  10.742   9.886  4.7593  1.2867 -3.4997
  859MOL0     H18486   9.660  10.670   9.770  3.1545 -1.9683  0.4460
  859MOL0     H18487   9.819  10.832   9.667  1.2139 -0.2866  1.8517
  859MOL0     H18488   9.765  10.961   9.766 -0.9901  0.1591  0.0968
  859MOL0     H18489   9.563  10.802   9.603  0.4486 -0.1321  1.6462
  859MOL0     H18490   9.557  10.971   9.642  0.6851 -0.2271  0.6745
  859MOL0     H18491   9.679  10.740   9.374  2.6374 -1.0221  0.4396
  859MOL0     H18492   9.804  10.756   9.156  0.1333  0.0744 -0.1399
  859MOL0     H18493   9.953  10.844   9.202  0.1702 -0.7597 -1.8424
  859MOL0     H18494   9.730  10.945   9.031 -0.1897 -3.0792 -0.5778
  859MOL0     H18495   9.893  11.030   9.075  0.6468 -0.5337  2.2188
  859MOL0     H18496  10.011  10.847   8.945  1.6087 -0.4257 -1.9119
  859MOL0     H18497   9.846  10.781   8.907  0.8289  0.3425 -5.1682
  859MOL0     H18498   9.919  10.894   8.700 -0.9612 -2.5258  1.0149
  859MOL0     H18499   9.798  10.999   8.786  0.8245  2.1657  2.1609
  859MOL0     H18500  10.072  11.290   8.791 -1.0079 -0.1767 -1.0530
  859MOL0     H18501  10.238  11.457   8.811  1.7428  1.5898 -0.1902
  859MOL0     H18502  10.379  11.432   8.703  1.2581 -3.4168 -1.2500
  859MOL0     H18503  10.383  11.404   8.875 -3.7160  3.9640  1.6573
  859MOL0     H18504  10.799  11.131   8.806 -2.4012  0.1240 -1.0943
  859MOL0     H18505  11.023  11.180   8.735 -0.4627  0.1423  2.1127
  859MOL0     H18506  11.143  11.232   8.564 -2.1561 -0.2751  4.3788
  859MOL0     H18507  11.247  11.359   8.497 -0.8334  1.1434  0.0519
  859MOL0     H18508  11.256  11.267   8.788  0.1928 -2.2823 -0.6537
  859MOL0     H18509  11.359  11.209   8.668 -0.2214  1.1369  1.4229
  859MOL0     H18510  11.323  11.477   8.809 -0.1558  1.9093  0.0956
  859MOL0     H18511  11.397  11.482   8.654  0.4245 -1.0591  0.0482
  859MOL0     H18512  11.533  11.261   8.811 -1.8327 -0.8455  0.6837
  859MOL0     H18513  11.500  11.404   8.924 -0.3853 -0.6538 -0.2940
  859MOL0     H18514  11.640  11.541   8.814 -4.2542  0.3290 -0.4736
  859MOL0     H18515  11.719  11.395   8.841 -0.0258 -2.3547 -1.4315
  859MOL0     H18516  11.792  11.467   8.642  0.2388 -1.7702  2.1276
  859MOL0     H18517  11.644  11.527   8.582 -0.5280  0.7065  1.8962
  859MOL0     H18518  11.684  11.344   8.444 -1.9206  1.1563  0.0972
  859MOL0     H18519  11.553  11.289   8.551  0.2684  0.1305 -3.2335
  859MOL0     H18520  11.705  11.168   8.701  1.0015  0.0028  0.1347
  859MOL0     H18521  11.843  11.237   8.624  0.4705  0.2513 -2.1867
  859MOL0     H18522  10.901  11.583   8.614 -0.4371 -0.9356 -0.9849
  859MOL0     H18523  10.660  11.514   8.674 -2.0236 -1.0474  2.6510
  859MOL0     H18524  10.389  10.925   8.722  0.0195 -0.4366  1.7013
  859MOL0     H18525  10.135  10.888   8.741  0.3012 -0.7002 -0.0232
  859MOL0     H18526   8.940  10.623  10.109 -0.0367 -0.0056  1.1624
  859MOL0     H18527   8.745  10.471  10.130 -0.7295 -2.7917 -0.4622
  859MOL0     H18528   8.647   9.988  10.257 -0.2755 -0.5135 -0.0513
  859MOL0     H18529   8.439   9.853  10.266 -0.6716  0.9405 -1.3381
  859MOL0     H18530   8.137   9.878   9.963 -1.2604 -1.2769 -2.0881
  859MOL0     H18531   8.236   9.747   9.897  1.2707 -1.4201  0.0488
  859MOL0     H18532   8.088   9.587  10.069 -0.2500  0.0493  0.0411
  859MOL0     H18533   8.003   9.668   9.950  3.0787  0.6283 -2.6282
  859MOL0     H18534   8.027   9.757  10.242 -2.5615 -1.0254  1.4610
  859MOL0     H18535   7.973   9.870  10.104  0.9425 -0.8638 -2.5196
  859MOL0     H18536   7.787   9.745  10.235 -0.5097  0.4687 -1.0766
  859MOL0     H18537   7.848   9.602  10.162  1.3384  0.0524  2.0442
  859MOL0     H18538   7.634   9.787   9.844  2.3483 -0.8912 -1.7976
  859MOL0     H18539   8.380   9.943   9.845  1.0743 -0.3591 -0.1022
  859MOL0     H18540   8.679  10.001   9.779 -2.0003 -1.7690 -1.4195
  859MOL0     H18541   8.520  10.046   9.723  1.6599  1.3954 -2.3906
  859MOL0     H18542   8.627  10.173   9.792 -0.0740  0.5183  0.9842
  860MOL0     O18543  11.176   7.571   4.325  0.2013 -0.7043  0.7079
  860MOL0     C18544  11.228   7.540   4.434 -0.2555  0.2350 -1.0408
  860MOL0     O18545  11.323   7.618   4.495  0.6165  0.4873  0.7244
  860MOL0     C18546  11.397   7.706   4.422 -1.3148  0.5056 -0.6919
  860MOL0     C18547  11.447   7.677   4.298  0.3857 -0.0469  0.2564
  860MOL0     C18548  11.524   7.768   4.229 -1.0477  0.1968  0.0761
  860MOL0     C18549  11.548   7.892   4.278 -0.2451  0.3750 -0.0942
  860MOL0     O18550  11.632   7.969   4.206 -0.1043 -0.5190 -0.1069
  860MOL0     C18551  11.604   8.105   4.198  0.4431 -0.1489 -0.7898
  860MOL0     C18552  11.650   8.172   4.071 -0.4272 -0.0628 -0.1413
  860MOL0     C18553  11.798   8.202   4.036  0.1917 -0.4625  0.0143
  860MOL0     C18554  11.886   8.232   4.162  0.4501  0.4821  0.4345
  860MOL0     C18555  12.025   8.254   4.123 -1.0697 -0.7871  0.7015
  860MOL0     C18556  12.143   8.292   4.210 -0.3229  0.2401  0.1224
  860MOL0     C18557  12.125   8.242   4.354 -0.3502  0.7123 -0.0387
  860MOL0     C18558  12.239   8.271   4.446  0.0066 -0.0156 -0.1457
  860MOL0     N18559  12.345   8.171   4.424  0.0221 -0.6433 -0.2125
  860MOL0     C18560  12.352   8.045   4.491 -0.8874 -0.6156 -0.4811
  860MOL0     C18561  12.444   7.974   4.423 -0.9569 -0.0889 -0.3788
  860MOL0     C18562  12.510   7.844   4.448 -0.0062 -0.1658 -0.3284
  860MOL0     C18563  12.612   7.848   4.561 -0.9956  0.4313  0.4856
  860MOL0     C18564  12.666   7.705   4.593  0.2905 -0.6710  0.3143
  860MOL0     C18565  12.779   7.707   4.699  1.2603  1.0415  0.3109
  860MOL0     O18566  12.759   7.583   4.774  0.1080  0.4568  0.4068
  860MOL0     C18567  12.846   7.489   4.726  0.2430  0.2443 -0.7939
  860MOL0     C18568  12.837   7.427   4.600  0.0124 -0.4348 -0.3703
  860MOL0     C18569  12.931   7.351   4.549  0.1177 -0.3911 -0.0634
  860MOL0     C18570  12.896   7.295   4.415 -0.3275 -0.1291 -0.3703
  860MOL0     C18571  13.050   7.315   4.630 -0.1677 -0.2336  0.2217
  860MOL0     C18572  13.162   7.226   4.578  0.1899 -0.3849  0.3060
  860MOL0     O18573  13.123   7.119   4.514  0.7522  0.1647  0.8102
  860MOL0     C18574  13.210   7.031   4.456  1.1755  0.1614 -0.0057
  860MOL0     C18575  13.350   7.020   4.464  0.2141  0.4507 -0.4841
  860MOL0     C18576  13.414   6.906   4.410  0.1542 -0.6595 -0.1440
  860MOL0     C18577  13.336   6.806   4.343 -0.5231 -0.5078  0.0214
  860MOL0     O18578  13.388   6.698   4.289 -0.0545 -0.7131  1.0968
  860MOL0     C18579  13.504   6.707   4.218  0.6210 -0.4328 -0.5589
  860MOL0     C18580  13.510   6.598   4.111  0.4963  0.1692  0.2692
  860MOL0     C18581  13.550   6.453   4.173  0.7881  0.3985  0.2588
  860MOL0     C18582  13.420   6.369   4.202 -0.2543 -0.2154  0.2617
  860MOL0     C18583  13.449   6.272   4.317  1.2056  0.6313  1.0230
  860MOL0     C18584  13.565   6.179   4.296 -0.6490  0.1097 -0.1451
  860MOL0     C18585  13.584   6.081   4.410 -0.0297 -0.8736  0.5201
  860MOL0     C18586  13.678   5.976   4.364  0.0868 -0.3922  0.2845
  860MOL0    Cl18587  13.604   5.864   4.245 -0.0623 -0.2967 -0.4603
  860MOL0     C18588  13.201   6.817   4.328 -0.2205  0.2935 -0.1265
  860MOL0     C18589  13.137   6.929   4.384  0.1435 -0.0531  0.1573
  860MOL0     O18590  13.274   7.260   4.602  0.4635 -0.2017 -0.0052
  860MOL0     C18591  13.066   7.377   4.757 -0.2192 -1.0023 -0.7211
  860MOL0     C18592  12.964   7.470   4.805  0.0166 -1.1558  0.7462
  860MOL0     N18593  12.499   8.059   4.323  0.0977 -0.1762 -0.7267
  860MOL0     N18594  12.432   8.161   4.316  0.0058  0.0772 -0.6158
  860MOL0     C18595  11.499   7.931   4.398 -0.1371  0.1224  0.3697
  860MOL0     C18596  11.425   7.835   4.469 -0.2291 -0.4860  0.5716
  860MOL0     C18597  11.184   7.420   4.497  0.2569  0.8881  0.8027
  860MOL0     C18598  11.261   7.377   4.608 -0.7360  1.0592 -0.1456
  860MOL0     C18599  11.220   7.262   4.676  0.2069 -1.3374  0.4701
  860MOL0     C18600  11.100   7.199   4.643  0.5252  0.0392  0.0497
  860MOL0     O18601  11.042   7.093   4.714  0.8427 -0.0110  0.4122
  860MOL0     C18602  11.130   7.004   4.784 -0.2450 -0.2547 -0.1313
  860MOL0     C18603  11.066   6.865   4.799  0.0535 -0.6447  0.0036
  860MOL0     C18604  11.041   6.787   4.674 -0.0816  0.9779  0.2007
  860MOL0     C18605  10.934   6.854   4.582 -0.0982 -0.3183 -0.0474
  860MOL0     C18606  10.900   6.777   4.470  0.1481 -0.4352  0.1071
  860MOL0     C18607  10.880   6.707   4.367 -0.5062  0.1150  0.0430
  860MOL0     C18608  11.033   7.239   4.531 -0.2055 -0.8053 -0.2201
  860MOL0     C18609  11.065   7.347   4.457 -0.6838  0.0863 -0.4836
  860MOL0     C18610  10.971   7.377   4.346 -1.0393  0.2889  0.3617
  860MOL0     H18611  11.431   7.586   4.240  2.8262  1.0674 -2.4451
  860MOL0     H18612  11.569   7.750   4.132 -3.1128  0.2372 -0.9452
  860MOL0     H18613  11.647   8.157   4.284  0.8444 -2.1568  0.2959
  860MOL0     H18614  11.497   8.123   4.212  1.1927  2.6944  2.8708
  860MOL0     H18615  11.600   8.122   3.987  2.9530 -0.4272 -2.0986
  860MOL0     H18616  11.606   8.272   4.073  1.2771  0.7278  2.1689
  860MOL0     H18617  11.835   8.109   3.991  0.6347 -0.3716  0.1858
  860MOL0     H18618  11.801   8.288   3.969  1.8990 -1.5008 -1.3620
  860MOL0     H18619  11.847   8.314   4.223 -0.6212 -0.5421  1.1750
  860MOL0     H18620  11.883   8.142   4.224  2.1443  1.2321  1.6836
  860MOL0     H18621  12.017   8.331   4.046 -2.5040 -0.6982  0.9014
  860MOL0     H18622  12.055   8.157   4.082  1.2182  0.3421 -0.4238
  860MOL0     H18623  12.233   8.243   4.171 -0.6159 -1.1052  1.0747
  860MOL0     H18624  12.150   8.402   4.215 -2.1773  0.3460  1.0717
  860MOL0     H18625  12.099   8.136   4.364  1.2684  0.3535  0.7523
  860MOL0     H18626  12.038   8.296   4.392 -1.6176 -1.9648  1.0616
  860MOL0     H18627  12.280   8.371   4.432 -2.6912  1.0422 -0.9690
  860MOL0     H18628  12.205   8.269   4.550 -0.9525 -0.3404 -0.4529
  860MOL0     H18629  12.280   8.015   4.566 -0.9564  0.3307 -0.1564
  860MOL0     H18630  12.545   7.797   4.356  2.9915  1.7556 -0.2933
  860MOL0     H18631  12.421   7.791   4.485 -0.5025  0.5033 -0.5483
  860MOL0     H18632  12.697   7.916   4.559 -0.4558 -0.1993  1.3534
  860MOL0     H18633  12.555   7.883   4.648 -2.0761  1.2448 -0.5076
  860MOL0     H18634  12.592   7.628   4.616  2.2521 -3.6058 -2.2883
  860MOL0     H18635  12.700   7.655   4.502 -2.6781 -1.2931 -0.5613
  860MOL0     H18636  12.878   7.707   4.652  1.9814 -1.8749  1.6421
  860MOL0     H18637  12.779   7.794   4.765  2.2181  2.3295 -1.2874
  860MOL0     H18638  12.749   7.454   4.543  0.1843  0.7815 -0.0895
  860MOL0     H18639  12.825   7.357   4.358 -2.1141 -0.8658  0.9769
  860MOL0     H18640  12.841   7.202   4.431  4.3343 -3.1558 -0.0477
  860MOL0     H18641  12.981   7.265   4.353 -0.7648 -3.7781  0.5797
  860MOL0     H18642  13.417   7.081   4.524 -0.2816  2.7192 -2.1174
  860MOL0     H18643  13.521   6.892   4.419  0.0797 -1.1651 -0.0539
  860MOL0     H18644  13.498   6.803   4.167 -0.5446 -0.4960 -0.5606
  860MOL0     H18645  13.586   6.682   4.286  1.2148 -0.8120 -1.3928
  860MOL0     H18646  13.418   6.586   4.053 -0.9573 -1.2188  2.7064
  860MOL0     H18647  13.596   6.627   4.049 -1.4056  1.2999 -2.0309
  860MOL0     H18648  13.606   6.464   4.267 -2.9000 -1.3773  2.9159
  860MOL0     H18649  13.610   6.397   4.101  2.5251 -0.9151  2.5606
  860MOL0     H18650  13.399   6.297   4.122 -2.2461 -0.3896  0.8731
  860MOL0     H18651  13.325   6.420   4.217 -0.3737 -0.7757  1.5752
  860MOL0     H18652  13.463   6.330   4.408 -3.1315  1.1946  1.5580
  860MOL0     H18653  13.365   6.203   4.332  0.2093  1.8113  1.1511
  860MOL0     H18654  13.647   6.251   4.302 -1.2491  0.6517  3.0147
  860MOL0     H18655  13.554   6.134   4.197  2.7107 -2.1831  0.3453
  860MOL0     H18656  13.488   6.035   4.436  0.8338 -1.1999  3.5178
  860MOL0     H18657  13.615   6.133   4.501 -0.0730  1.5449 -0.7870
  860MOL0     H18658  13.702   5.913   4.451  3.1239 -0.2864 -0.3436
  860MOL0     H18659  13.763   6.025   4.317  0.0823 -2.2435 -1.8024
  860MOL0     H18660  13.151   6.740   4.270  1.8303 -1.1808 -0.0390
  860MOL0     H18661  13.029   6.927   4.372  0.1263 -2.4013  0.2972
  860MOL0     H18662  13.152   7.352   4.818 -0.8051  0.6484  0.8645
  860MOL0     H18663  12.976   7.520   4.901 -2.6318  0.2744  0.4112
  860MOL0     H18664  11.532   8.027   4.437 -0.8304  0.1637  0.8701
  860MOL0     H18665  11.380   7.854   4.566 -0.2106 -1.8906  0.8759
  860MOL0     H18666  11.354   7.425   4.636 -0.5885  0.6728  0.0244
  860MOL0     H18667  11.286   7.240   4.759  3.4672  0.0321 -1.5853
  860MOL0     H18668  11.220   6.987   4.725  0.2153  0.8075  0.2389
  860MOL0     H18669  11.163   7.048   4.879  3.4684 -4.2690  0.7382
  860MOL0     H18670  10.979   6.867   4.865  1.4820 -0.8043  1.9878
  860MOL0     H18671  11.142   6.812   4.858  1.7510  0.9996 -0.6126
  860MOL0     H18672  11.140   6.774   4.629 -0.2808 -0.5419  0.1318
  860MOL0     H18673  11.009   6.688   4.706 -0.3623  0.7832 -0.6596
  860MOL0     H18674  10.978   6.938   4.529 -2.5106 -0.2838 -2.1730
  860MOL0     H18675  10.854   6.890   4.648  0.8071  0.0334  0.8860
  860MOL0     H18676  10.868   6.644   4.280  5.2834 -0.0154 -1.0593
  860MOL0     H18677  10.934   7.193   4.532 -0.6249 -0.1366  3.6157
  860MOL0     H18678  10.944   7.483   4.342 -0.5318  0.3639 -2.3227
  860MOL0     H18679  11.032   7.365   4.256  1.2933 -0.2868  1.9255
  860MOL0     H18680  10.886   7.308   4.344 -2.2989  1.7867  0.6827
  861MOL0     O18681   9.629   5.770   0.444  0.0458 -0.0771 -0.0464
  861MOL0     C18682   9.673   5.654   0.417  0.4471 -0.0719 -0.3922
  861MOL0     O18683   9.749   5.575   0.502  0.0508  0.4058 -0.2947
  861MOL0     C18684   9.786   5.623   0.627  0.7943 -0.3871  0.1400
  861MOL0     C18685   9.684   5.649   0.725 -0.3167 -0.2866  0.6891
  861MOL0     C18686   9.718   5.697   0.850 -0.3090  0.4166 -0.7274
  861MOL0     C18687   9.852   5.709   0.891  1.0015  0.7482  0.3664
  861MOL0     O18688   9.893   5.757   1.011  0.0440 -0.2617 -0.1764
  861MOL0     C18689   9.800   5.802   1.109  0.4301 -0.4964  0.6402
  861MOL0     C18690   9.770   5.957   1.093  0.0197 -0.3186 -0.2380
  861MOL0     C18691   9.901   6.044   1.124  0.1080  0.4749  1.4709
  861MOL0     C18692   9.919   6.059   1.276  0.1969 -0.9294  0.3642
  861MOL0     C18693  10.053   6.132   1.308  0.5022  0.5516  0.1427
  861MOL0     C18694  10.099   6.141   1.457 -0.2742  0.5913  0.0062
  861MOL0     C18695   9.987   6.200   1.540 -0.5311  0.5399 -0.3007
  861MOL0     C18696  10.031   6.229   1.682  0.6730  0.9416  0.5042
  861MOL0     N18697   9.960   6.347   1.738  0.0642  0.5144  1.1203
  861MOL0     C18698  10.021   6.470   1.728  0.3011  0.4311  1.5487
  861MOL0     C18699   9.923   6.554   1.764 -0.0517 -0.2313 -1.4173
  861MOL0     C18700   9.928   6.706   1.763  0.4534 -1.0009 -0.1080
  861MOL0     C18701   9.870   6.753   1.632 -0.8341  0.4168  0.5881
  861MOL0     C18702   9.951   6.718   1.514 -0.3916 -0.7255 -0.2797
  861MOL0     C18703  10.075   6.812   1.506  0.5970  0.4658  0.9659
  861MOL0     O18704  10.183   6.767   1.582 -0.4649 -0.4092 -0.5191
  861MOL0     C18705  10.305   6.810   1.559 -0.2850  0.3770 -0.1529
  861MOL0     C18706  10.338   6.919   1.479 -0.9256 -0.0902  0.6445
  861MOL0     C18707  10.471   6.940   1.439  0.5835 -0.6142  0.0876
  861MOL0     C18708  10.488   7.059   1.343 -0.0175 -0.2076 -1.3636
  861MOL0     C18709  10.575   6.856   1.480  0.0540 -0.5045 -0.1046
  861MOL0     C18710  10.723   6.885   1.455 -0.3239 -0.4094 -0.1413
  861MOL0     O18711  10.797   6.787   1.407 -0.7729  1.3686  0.4618
  861MOL0     C18712  10.929   6.794   1.439 -0.2810 -0.1861  0.6841
  861MOL0     C18713  10.973   6.733   1.555  0.2987 -0.5652  0.2145
  861MOL0     C18714  11.107   6.733   1.580 -0.2814 -0.9733  0.9252
  861MOL0     C18715  11.204   6.790   1.499 -1.3072 -0.8119  0.4516
  861MOL0     O18716  11.337   6.786   1.509  0.3302 -0.6816  0.2700
  861MOL0     C18717  11.387   6.657   1.515 -0.3051 -0.0051  0.5660
  861MOL0     C18718  11.533   6.670   1.540  0.4669 -0.1917  1.3097
  861MOL0     C18719  11.619   6.695   1.411 -0.7195  0.8212  0.6136
  861MOL0     C18720  11.770   6.696   1.447  0.2059  0.1561  0.4670
  861MOL0     C18721  11.861   6.766   1.341  0.6717 -0.0810  0.5815
  861MOL0     C18722  12.016   6.762   1.385  1.3206 -0.6214 -0.3388
  861MOL0     C18723  12.096   6.637   1.366  0.8431  0.0666  0.1485
  861MOL0     C18724  12.143   6.585   1.498 -0.1561  0.0912  0.0193
  861MOL0    Cl18725  12.027   6.545   1.621  0.0745  0.0029 -0.3903
  861MOL0     C18726  11.164   6.853   1.380 -0.3466  1.2590 -0.2463
  861MOL0     C18727  11.024   6.857   1.349 -0.4442 -0.4150  1.0552
  861MOL0     O18728  10.763   6.999   1.482  0.2920  0.3023 -0.2010
  861MOL0     C18729  10.539   6.752   1.563 -0.0607  0.8647  0.1995
  861MOL0     C18730  10.407   6.725   1.601  0.1789  0.0122  0.4834
  861MOL0     N18731   9.808   6.486   1.795  0.6816 -0.3601 -0.2011
  861MOL0     N18732   9.828   6.364   1.775 -0.5187 -0.3768  0.3301
  861MOL0     C18733   9.954   5.686   0.798 -1.0590  0.5315  0.4083
  861MOL0     C18734   9.921   5.643   0.663  0.2758  0.4797  0.6776
  861MOL0     C18735   9.645   5.597   0.281  0.4142  0.0899  0.5341
  861MOL0     C18736   9.512   5.607   0.230  0.0010 -0.9754  0.3101
  861MOL0     C18737   9.475   5.546   0.110 -0.4209 -0.2575 -0.2495
  861MOL0     C18738   9.564   5.472   0.036  0.5049 -0.3985 -0.3930
  861MOL0     O18739   9.538   5.427  -0.087  0.1513  0.3672  0.2029
  861MOL0     C18740   9.465   5.509  -0.177 -0.2589  0.2701  0.2483
  861MOL0     C18741   9.472   5.443  -0.316 -0.4961 -0.0061 -0.2030
  861MOL0     C18742   9.616   5.456  -0.373  0.1960  1.0403  0.7283
  861MOL0     C18743   9.617   5.511  -0.520  0.2123 -0.3453  0.4965
  861MOL0     C18744   9.755   5.499  -0.568 -0.0777 -0.4346  0.3696
  861MOL0     C18745   9.870   5.487  -0.603 -0.8023  0.2366  0.1832
  861MOL0     C18746   9.691   5.448   0.096  0.3646 -0.0044  1.0154
  861MOL0     C18747   9.733   5.517   0.211  0.2252 -0.0549 -0.6402
  861MOL0     C18748   9.878   5.493   0.262  0.1873  0.5269 -0.0553
  861MOL0     H18749   9.582   5.646   0.688 -0.3220 -1.4562  0.7396
  861MOL0     H18750   9.633   5.731   0.909  0.1885 -0.5346  0.5927
  861MOL0     H18751   9.836   5.782   1.211 -2.8423 -1.6004  1.7128
  861MOL0     H18752   9.702   5.754   1.104 -0.5043  1.4237 -0.3518
  861MOL0     H18753   9.754   5.964   0.985  2.6627 -2.7186 -0.9133
  861MOL0     H18754   9.686   5.992   1.153  0.6526  0.2096  0.3547
  861MOL0     H18755   9.992   5.995   1.088 -0.7918 -1.1059  1.2720
  861MOL0     H18756   9.893   6.141   1.073 -1.5420 -0.0049  0.7693
  861MOL0     H18757   9.840   6.126   1.312  0.9343  0.1287  0.0584
  861MOL0     H18758   9.919   5.964   1.329  0.6283  0.4844  3.0899
  861MOL0     H18759  10.053   6.231   1.261 -1.9205  0.2098 -0.7171
  861MOL0     H18760  10.132   6.070   1.265  3.9358  1.9013  3.8426
  861MOL0     H18761  10.129   6.038   1.477  1.3470 -0.0079 -4.3799
  861MOL0     H18762  10.178   6.215   1.474 -0.1282 -0.0309  2.4150
  861MOL0     H18763   9.906   6.128   1.552 -0.6687  0.8852  1.0432
  861MOL0     H18764   9.956   6.294   1.493 -3.5335  1.0586  2.3776
  861MOL0     H18765  10.009   6.143   1.747 -0.8427  1.6373  0.9754
  861MOL0     H18766  10.138   6.251   1.684  1.8433 -3.8051  0.8438
  861MOL0     H18767  10.116   6.498   1.683 -0.1667  1.3519  1.1106
  861MOL0     H18768  10.023   6.758   1.775 -0.4760  0.9282 -0.6499
  861MOL0     H18769   9.856   6.746   1.835  0.3570 -1.3143 -0.0300
  861MOL0     H18770   9.772   6.706   1.614 -0.0654 -1.6671  1.5437
  861MOL0     H18771   9.848   6.859   1.646 -1.4833  0.1355  1.8333
  861MOL0     H18772   9.988   6.616   1.516  0.2054 -0.5059  0.5264
  861MOL0     H18773   9.908   6.743   1.417 -1.7298  2.0865  0.8990
  861MOL0     H18774  10.103   6.808   1.401 -2.2453  0.2535  0.1243
  861MOL0     H18775  10.049   6.915   1.532  0.0728  0.1296  1.8213
  861MOL0     H18776  10.267   6.993   1.446  0.4362  1.0600  0.1694
  861MOL0     H18777  10.422   7.042   1.257  0.2205 -0.1156 -1.5677
  861MOL0     H18778  10.588   7.074   1.300  0.7610  0.8008  0.7082
  861MOL0     H18779  10.460   7.150   1.395  1.8424 -2.0084  3.2838
  861MOL0     H18780  10.892   6.703   1.621 -0.0703 -0.0908 -0.0132
  861MOL0     H18781  11.131   6.698   1.680  4.2295  0.5129  0.5673
  861MOL0     H18782  11.326   6.601   1.586 -2.9152 -0.8938 -2.1366
  861MOL0     H18783  11.380   6.612   1.415 -2.5605  2.5248 -0.5216
  861MOL0     H18784  11.546   6.755   1.608  0.1308 -0.2093  1.4000
  861MOL0     H18785  11.575   6.580   1.586 -0.5109 -0.3061  2.0138
  861MOL0     H18786  11.594   6.791   1.365 -0.7368  1.2718  1.5267
  861MOL0     H18787  11.607   6.616   1.337 -1.8977  1.4304  0.1184
  861MOL0     H18788  11.801   6.592   1.464 -1.8355 -0.5617  0.1175
  861MOL0     H18789  11.762   6.764   1.532  2.1582  0.6748  0.2894
  861MOL0     H18790  11.865   6.711   1.246  3.7291 -0.0387  0.5826
  861MOL0     H18791  11.828   6.868   1.318 -1.0878 -0.5049  1.0505
  861MOL0     H18792  12.029   6.801   1.486 -0.2671 -1.0596  0.0526
  861MOL0     H18793  12.043   6.825   1.299 -0.5005 -1.6041 -1.6822
  861MOL0     H18794  12.180   6.663   1.301 -0.5239  1.4532 -1.1665
  861MOL0     H18795  12.037   6.559   1.316 -0.0220  1.4544 -1.0817
  861MOL0     H18796  12.219   6.654   1.536  0.9109 -1.3700  0.6582
  861MOL0     H18797  12.202   6.495   1.476  0.3894  0.8081 -1.5378
  861MOL0     H18798  11.239   6.892   1.312  0.3050 -1.0004 -0.9235
  861MOL0     H18799  10.989   6.905   1.258 -1.0859  0.5907  1.8132
  861MOL0     H18800  10.614   6.683   1.600  1.2388  0.5377 -2.8012
  861MOL0     H18801  10.378   6.646   1.669 -0.6170  1.0173  1.3416
  861MOL0     H18802  10.061   5.697   0.805 -0.8125 -0.6694 -1.0765
  861MOL0     H18803   9.976   5.631   0.570 -1.0369 -0.5067 -0.0089
  861MOL0     H18804   9.443   5.668   0.288  0.4146  1.8653 -1.9544
  861MOL0     H18805   9.375   5.555   0.069 -0.5470 -1.3165 -0.2139
  861MOL0     H18806   9.357   5.514  -0.159 -0.8207 -0.0993 -2.5787
  861MOL0     H18807   9.498   5.613  -0.168  0.4100  0.1888 -1.0542
  861MOL0     H18808   9.402   5.498  -0.381 -0.1968  3.0734  1.8358
  861MOL0     H18809   9.436   5.340  -0.317 -0.7829  0.0785  0.9477
  861MOL0     H18810   9.696   5.510  -0.321  3.1716 -1.4385 -0.9316
  861MOL0     H18811   9.660   5.356  -0.374 -3.0796 -0.5604 -1.0613
  861MOL0     H18812   9.579   5.613  -0.506 -2.0925 -0.8774 -1.2697
  861MOL0     H18813   9.548   5.469  -0.594  0.2179 -2.9738  1.9024
  861MOL0     H18814   9.975   5.497  -0.621 -0.7896 -1.7001 -1.0794
  861MOL0     H18815   9.754   5.393   0.027 -0.0391 -0.6934  1.1935
  861MOL0     H18816   9.929   5.587   0.284  0.4589  0.4884 -0.4938
  861MOL0     H18817   9.871   5.426   0.348  3.0468 -0.5573 -0.5370
  861MOL0     H18818   9.937   5.444   0.184  0.9388  0.0650  0.7898
  862MOL0     O18819   9.055   1.868   3.197  0.4374  0.1383 -0.3883
  862MOL0     C18820   9.096   1.843   3.085 -0.3024  0.6461 -0.2804
  862MOL0     O18821   9.019   1.810   2.975 -0.0547  0.2891 -0.0089
  862MOL0     C18822   8.881   1.811   2.995 -0.0360  0.4557  0.2137
  862MOL0     C18823   8.810   1.931   2.979 -0.8642 -0.3728 -0.1070
  862MOL0     C18824   8.673   1.938   2.963  0.2279  0.6748  0.1327
  862MOL0     C18825   8.609   1.813   2.975  0.5208  0.5508  0.2706
  862MOL0     O18826   8.469   1.812   2.965  0.2621 -0.2429  0.4851
  862MOL0     C18827   8.423   1.861   2.835 -0.8314  0.1748 -0.5283
  862MOL0     C18828   8.470   1.783   2.708 -0.4259 -0.4515  0.7984
  862MOL0     C18829   8.395   1.839   2.576  0.2331 -0.1322 -1.0186
  862MOL0     C18830   8.492   1.816   2.455 -0.3222 -0.4758 -0.1175
  862MOL0     C18831   8.448   1.904   2.335 -0.1973  0.1356 -0.1688
  862MOL0     C18832   8.552   1.906   2.226  0.0177 -0.3997  0.8700
  862MOL0     C18833   8.534   1.783   2.130 -0.0283  0.9135 -0.1810
  862MOL0     C18834   8.604   1.789   1.996 -0.0637 -0.0014  1.1742
  862MOL0     N18835   8.756   1.811   1.997  0.1778 -0.4699 -0.2099
  862MOL0     C18836   8.852   1.782   2.094  0.4604 -0.4124 -0.3251
  862MOL0     C18837   8.967   1.841   2.050  0.1689 -0.0374 -0.1817
  862MOL0     C18838   9.100   1.814   2.110  0.3449  0.3181  0.3148
  862MOL0     C18839   9.203   1.761   2.021  0.2898 -0.4870 -0.3349
  862MOL0     C18840   9.267   1.864   1.924  0.3371 -0.5753  0.7821
  862MOL0     C18841   9.343   1.793   1.820 -0.3235 -0.8213 -0.7865
  862MOL0     O18842   9.447   1.718   1.886 -0.1471 -0.8013  0.7834
  862MOL0     C18843   9.569   1.701   1.834  0.0866  0.4614 -0.1713
  862MOL0     C18844   9.620   1.748   1.716 -0.9017 -0.9130 -0.2053
  862MOL0     C18845   9.750   1.736   1.675 -0.5328 -0.0219 -0.0398
  862MOL0     C18846   9.810   1.791   1.550  0.3532  0.5338 -0.6023
  862MOL0     C18847   9.840   1.659   1.750 -0.3926  0.9238 -0.1757
  862MOL0     C18848   9.972   1.608   1.697 -0.0787 -0.6787 -0.3104
  862MOL0     O18849  10.008   1.489   1.735 -0.2232  0.0364 -0.7487
  862MOL0     C18850  10.138   1.453   1.690 -0.0613  0.8799 -0.7484
  862MOL0     C18851  10.151   1.400   1.558 -0.2573  0.3682  0.0116
  862MOL0     C18852  10.279   1.383   1.506  0.0156  0.0853  0.2263
  862MOL0     C18853  10.393   1.398   1.588  0.0104  1.1351  0.2326
  862MOL0     O18854  10.515   1.376   1.554 -0.7329 -0.4449  0.0398
  862MOL0     C18855  10.542   1.285   1.451  0.0996  0.0759  0.5168
  862MOL0     C18856  10.685   1.242   1.431  0.1794  0.1520 -0.1327
  862MOL0     C18857  10.732   1.156   1.558  0.5821  0.0187  0.1250
  862MOL0     C18858  10.769   1.246   1.681 -0.7160  0.5184  0.1020
  862MOL0     C18859  10.821   1.175   1.800  0.2317 -0.0792  0.6046
  862MOL0     C18860  10.724   1.054   1.851  0.4480 -0.5113  0.3154
  862MOL0     C18861  10.571   1.085   1.864 -0.0200 -0.0026  0.1116
  862MOL0     C18862  10.534   1.190   1.969  0.1381 -0.3681 -0.7022
  862MOL0    Cl18863  10.350   1.165   1.984 -0.1202  0.2380  0.2965
  862MOL0     C18864  10.378   1.431   1.722  0.5238  0.2255 -0.8565
  862MOL0     C18865  10.249   1.464   1.770  0.5916  0.3493 -0.8008
  862MOL0     O18866  10.050   1.689   1.654 -0.6158 -0.7319 -0.3069
  862MOL0     C18867   9.783   1.593   1.868 -0.2691 -0.0974  0.7729
  862MOL0     C18868   9.655   1.621   1.909  0.7764  0.1943  0.8623
  862MOL0     N18869   8.934   1.906   1.929  0.5152 -0.7867 -0.1257
  862MOL0     N18870   8.806   1.892   1.896  0.0350  0.3968  0.1908
  862MOL0     C18871   8.679   1.688   3.003  0.4710 -0.0891  0.0961
  862MOL0     C18872   8.813   1.692   3.023  0.0986  0.3780 -0.2213
  862MOL0     C18873   9.242   1.843   3.052 -0.7180  0.4171  0.2822
  862MOL0     C18874   9.270   1.881   2.919  1.2504 -0.5008 -0.9208
  862MOL0     C18875   9.402   1.893   2.876  0.3409 -0.1219 -0.1622
  862MOL0     C18876   9.510   1.844   2.958 -0.1888 -0.2358  0.2761
  862MOL0     O18877   9.644   1.847   2.912 -0.8402 -0.3624 -0.7845
  862MOL0     C18878   9.670   1.888   2.774 -0.3698 -0.4087 -0.0606
  862MOL0     C18879   9.630   1.778   2.667 -0.9237  0.4441 -0.0394
  862MOL0     C18880   9.722   1.643   2.659  0.0698 -0.4175 -0.0280
  862MOL0     C18881   9.874   1.670   2.636 -0.0209  0.5754  0.0206
  862MOL0     C18882   9.906   1.719   2.500 -0.1353 -0.5736 -1.1934
  862MOL0     C18883   9.947   1.772   2.402 -0.0736 -0.3186  0.3950
  862MOL0     C18884   9.478   1.800   3.087  0.1031  1.2771 -0.1727
  862MOL0     C18885   9.351   1.795   3.138  0.2525 -0.5522  0.0356
  862MOL0     C18886   9.326   1.742   3.270 -0.3546  0.2171  0.5853
  862MOL0     H18887   8.872   2.019   2.968  2.2384 -2.3750  0.0377
  862MOL0     H18888   8.615   2.018   2.920 -1.0294 -0.9778 -1.3856
  862MOL0     H18889   8.452   1.965   2.820 -2.4454  0.2579 -4.1724
  862MOL0     H18890   8.315   1.848   2.847 -0.2826 -3.6003  2.3564
  862MOL0     H18891   8.576   1.809   2.709 -0.9265  1.9100 -0.3496
  862MOL0     H18892   8.440   1.679   2.721 -0.1777 -0.4903  1.0630
  862MOL0     H18893   8.302   1.782   2.562  0.7343 -1.3205  0.3160
  862MOL0     H18894   8.369   1.944   2.592  0.3925 -0.1342 -0.7472
  862MOL0     H18895   8.593   1.851   2.479  0.3894 -1.3332 -1.6973
  862MOL0     H18896   8.497   1.711   2.425  0.9902 -0.3252 -0.4694
  862MOL0     H18897   8.425   2.010   2.354 -0.0943  0.7280 -2.9521
  862MOL0     H18898   8.357   1.858   2.294 -0.1903 -0.9338  0.9722
  862MOL0     H18899   8.531   1.989   2.158 -0.8375  0.2022  1.8458
  862MOL0     H18900   8.655   1.920   2.258 -0.1115  1.5288  0.5410
  862MOL0     H18901   8.426   1.772   2.114 -0.5198 -2.4662  3.7357
  862MOL0     H18902   8.577   1.696   2.182 -1.6109  0.4029  0.3252
  862MOL0     H18903   8.590   1.692   1.947  3.3883  0.4661 -1.1267
  862MOL0     H18904   8.561   1.867   1.931  3.1059 -0.6684 -2.0539
  862MOL0     H18905   8.855   1.712   2.178  0.6775 -1.1976 -0.9688
  862MOL0     H18906   9.102   1.740   2.191  2.8146 -1.3180 -1.1044
  862MOL0     H18907   9.134   1.906   2.159  0.0792  0.9843 -0.7317
  862MOL0     H18908   9.277   1.731   2.095 -0.6351 -0.7667  0.4848
  862MOL0     H18909   9.162   1.670   1.978  1.7745 -1.2629 -0.1780
  862MOL0     H18910   9.191   1.927   1.877  1.0652  0.2880  0.7328
  862MOL0     H18911   9.327   1.931   1.986  0.1172 -0.3152  0.7201
  862MOL0     H18912   9.285   1.726   1.756  4.3174 -2.6229 -3.6536
  862MOL0     H18913   9.391   1.862   1.750  2.0284 -2.1652 -0.6224
  862MOL0     H18914   9.561   1.803   1.643  0.5372  1.8478  0.5816
  862MOL0     H18915   9.738   1.825   1.475 -1.6143 -3.2782 -0.6799
  862MOL0     H18916   9.874   1.721   1.495 -1.3293 -1.2982 -0.2951
  862MOL0     H18917   9.871   1.873   1.590 -1.0703  0.9048  0.9050
  862MOL0     H18918  10.061   1.398   1.498 -1.0458  2.2191  1.0522
  862MOL0     H18919  10.287   1.351   1.403  0.4199 -2.1124  0.8817
  862MOL0     H18920  10.476   1.202   1.478 -0.7129  0.1347 -1.1216
  862MOL0     H18921  10.514   1.320   1.350  0.3807 -4.6400 -1.4374
  862MOL0     H18922  10.699   1.181   1.341 -0.5049 -1.4036  0.7710
  862MOL0     H18923  10.752   1.326   1.413  0.1122 -0.0145 -1.2161
  862MOL0     H18924  10.816   1.092   1.529 -0.8422 -1.2376 -1.4506
  862MOL0     H18925  10.662   1.075   1.583  2.4650 -1.5831  0.4660
  862MOL0     H18926  10.685   1.313   1.705 -0.5310  1.8795 -2.6644
  862MOL0     H18927  10.854   1.309   1.653 -1.6856  0.4414 -3.4457
  862MOL0     H18928  10.920   1.136   1.777  0.0788 -0.3719  0.4443
  862MOL0     H18929  10.840   1.254   1.874  1.5839 -1.3990  1.7327
  862MOL0     H18930  10.760   1.021   1.949  1.7991  2.1404  0.8007
  862MOL0     H18931  10.729   0.965   1.788 -0.9310 -1.3991  1.3878
  862MOL0     H18932  10.511   0.996   1.884 -1.1539  0.0152 -2.6902
  862MOL0     H18933  10.542   1.111   1.761  2.1020 -2.3563 -1.1881
  862MOL0     H18934  10.557   1.290   1.933 -2.1325 -0.3957 -2.4444
  862MOL0     H18935  10.577   1.174   2.068  0.1738  2.0371 -0.2853
  862MOL0     H18936  10.466   1.432   1.785 -0.5817 -3.1447  1.0260
  862MOL0     H18937  10.243   1.505   1.870  1.4415  0.6245 -0.8535
  862MOL0     H18938   9.836   1.512   1.916  2.1624  1.1976  0.4844
  862MOL0     H18939   9.605   1.582   1.997  3.0325  0.7115  2.4581
  862MOL0     H18940   8.618   1.599   3.008 -1.6060  1.3169  1.6523
  862MOL0     H18941   8.864   1.596   3.035 -2.6110 -1.0802  0.3535
  862MOL0     H18942   9.195   1.931   2.860  1.6879  1.2504 -0.0555
  862MOL0     H18943   9.410   1.956   2.788  0.2842 -0.3443 -0.3285
  862MOL0     H18944   9.624   1.985   2.754 -0.3282 -0.7312 -1.8827
  862MOL0     H18945   9.778   1.901   2.787 -0.7950  4.7309  0.4672
  862MOL0     H18946   9.638   1.827   2.569  0.5589 -0.3487 -0.3499
  862MOL0     H18947   9.534   1.726   2.666 -0.1877 -0.9750 -0.8074
  862MOL0     H18948   9.719   1.593   2.756  2.0837  0.2573  0.4293
  862MOL0     H18949   9.688   1.583   2.575  0.0908  0.9560 -1.0520
  862MOL0     H18950   9.935   1.587   2.673 -1.8184 -0.5479  0.5942
  862MOL0     H18951   9.898   1.747   2.709 -1.4453 -0.3746  1.5406
  862MOL0     H18952  10.003   1.816   2.323 -0.1089 -0.5128  0.2613
  862MOL0     H18953   9.562   1.764   3.147 -2.6648 -2.0547  2.1228
  862MOL0     H18954   9.416   1.754   3.331  1.3023  1.3127 -1.8690
  862MOL0     H18955   9.248   1.793   3.326 -3.3522 -3.8080  0.4906
  862MOL0     H18956   9.291   1.640   3.254 -0.0674  0.1401  0.4231
  863MOL0     O18957   7.308   4.531   2.569 -1.1225  0.3411 -0.4098
  863MOL0     C18958   7.256   4.426   2.542 -0.7046 -0.1358  0.0788
  863MOL0     O18959   7.118   4.405   2.499  0.1762 -0.2027 -0.0355
  863MOL0     C18960   7.042   4.518   2.466  0.0686 -0.2089  0.0688
  863MOL0     C18961   6.902   4.519   2.497  0.7785  0.1980 -0.6125
  863MOL0     C18962   6.834   4.640   2.488  0.2078  0.1852  1.7889
  863MOL0     C18963   6.890   4.762   2.433  0.0245 -0.7565 -0.6200
  863MOL0     O18964   6.819   4.877   2.413  1.2628 -0.3872 -0.2585
  863MOL0     C18965   6.677   4.866   2.409 -0.0024  0.4321 -0.1298
  863MOL0     C18966   6.631   4.983   2.319  1.1133  0.6171  0.0445
  863MOL0     C18967   6.473   4.990   2.346 -0.2654  1.1322  0.2856
  863MOL0     C18968   6.396   4.867   2.284 -0.2427 -0.3041  0.7862
  863MOL0     C18969   6.244   4.890   2.294 -0.0778  0.2485  0.2013
  863MOL0     C18970   6.191   5.003   2.198 -0.0484 -0.1427  0.2105
  863MOL0     C18971   6.039   5.012   2.203  0.4335 -0.3096 -0.9911
  863MOL0     C18972   5.982   4.961   2.076 -1.2463  0.1992 -0.2556
  863MOL0     N18973   5.841   4.932   2.079  0.7079 -0.4989  0.3190
  863MOL0     C18974   5.766   4.899   1.969 -0.0184 -0.9630 -0.1375
  863MOL0     C18975   5.665   4.823   2.021 -0.1842  0.1204  0.1825
  863MOL0     C18976   5.561   4.756   1.944 -0.3478  0.4925 -0.1045
  863MOL0     C18977   5.425   4.790   1.975  0.0360  0.1807 -0.6570
  863MOL0     C18978   5.313   4.709   1.905  0.7067 -0.1286 -0.0103
  863MOL0     C18979   5.304   4.564   1.957 -0.4333 -0.3772 -0.2946
  863MOL0     O18980   5.173   4.520   1.985 -0.0463 -0.5668  0.0148
  863MOL0     C18981   5.088   4.484   1.883 -0.4139  0.2926  0.0846
  863MOL0     C18982   4.958   4.441   1.912 -0.4797  0.6525  1.0558
  863MOL0     C18983   4.866   4.399   1.821 -0.1227 -0.6344  0.8410
  863MOL0     C18984   4.738   4.349   1.876 -0.2690 -0.1379  0.9586
  863MOL0     C18985   4.895   4.404   1.683  1.4110 -1.1772  0.4926
  863MOL0     C18986   4.799   4.366   1.579  0.4664  0.2385  0.1065
  863MOL0     O18987   4.668   4.372   1.610  0.5381  0.1560  0.4644
  863MOL0     C18988   4.576   4.301   1.537  1.0385 -0.1188 -0.1069
  863MOL0     C18989   4.546   4.161   1.546  0.2898  0.4470  0.2056
  863MOL0     C18990   4.446   4.104   1.460 -0.1196 -0.5412  0.1627
  863MOL0     C18991   4.359   4.187   1.380  0.8072  0.1662 -0.9578
  863MOL0     O18992   4.260   4.130   1.305  0.1449 -0.3978 -1.1347
  863MOL0     C18993   4.257   4.175   1.164 -0.8158  0.1016 -0.0411
  863MOL0     C18994   4.147   4.275   1.126  0.0157  0.4728 -0.6025
  863MOL0     C18995   4.008   4.219   1.110  0.3610 -0.0049 -0.1203
  863MOL0     C18996   3.932   4.171   1.237 -0.3366  0.5380 -0.0365
  863MOL0     C18997   3.793   4.104   1.212 -0.6193 -0.0073  0.3302
  863MOL0     C18998   3.693   4.189   1.128  0.3838  0.2329 -0.3550
  863MOL0     C18999   3.558   4.121   1.080 -0.2731 -0.2023  0.6966
  863MOL0     C19000   3.499   4.206   0.972  0.8061 -0.0446 -0.2454
  863MOL0    Cl19001   3.342   4.138   0.917  0.2414  0.0105 -0.1777
  863MOL0     C19002   4.381   4.323   1.388 -1.2277  0.6845  0.4340
  863MOL0     C19003   4.485   4.378   1.460  0.5274  0.0349 -0.0775
  863MOL0     O19004   4.847   4.317   1.471  0.1520  0.0225 -0.8945
  863MOL0     C19005   5.025   4.453   1.646  0.0797 -0.3594 -0.3800
  863MOL0     C19006   5.117   4.481   1.748 -0.0646 -0.6292 -0.0580
  863MOL0     N19007   5.672   4.834   2.157  0.5315 -0.1826  0.0402
  863MOL0     N19008   5.781   4.894   2.188 -0.3707  0.6508  0.2753
  863MOL0     C19009   7.019   4.762   2.406 -0.7764 -0.7563  0.9815
  863MOL0     C19010   7.096   4.645   2.405 -0.7080  0.5287  0.4690
  863MOL0     C19011   7.339   4.298   2.555 -0.3697  0.7673  0.3721
  863MOL0     C19012   7.295   4.188   2.482  0.0645  0.1205  0.4365
  863MOL0     C19013   7.365   4.061   2.477  0.0269  0.0220 -0.0121
  863MOL0     C19014   7.474   4.045   2.561  0.3006 -0.1082 -0.7873
  863MOL0     O19015   7.526   3.921   2.561 -0.5870  0.1173 -0.4504
  863MOL0     C19016   7.674   3.913   2.563  0.3058 -0.6324  0.7223
  863MOL0     C19017   7.748   3.962   2.437  0.0116 -0.3947  0.1071
  863MOL0     C19018   7.906   3.956   2.434  0.0437  0.4299  0.4807
  863MOL0     C19019   7.985   3.995   2.564  0.7427 -0.1733  0.3340
  863MOL0     C19020   7.965   4.138   2.582 -0.5933 -0.6532 -0.1335
  863MOL0     C19021   7.945   4.257   2.599  0.8044 -0.3425 -0.1231
  863MOL0     C19022   7.524   4.154   2.628  0.2269  0.1768 -0.8012
  863MOL0     C19023   7.464   4.278   2.626  0.1175  0.5881  0.0245
  863MOL0     C19024   7.530   4.391   2.694 -0.2532  0.4898  1.1145
  863MOL0     H19025   6.855   4.426   2.531  0.8101 -0.0867 -1.3292
  863MOL0     H19026   6.732   4.643   2.523 -1.9342  1.4742 -3.5564
  863MOL0     H19027   6.620   4.854   2.501  0.3707  0.2106  0.0711
  863MOL0     H19028   6.660   4.773   2.354  2.8562  0.6204 -1.5036
  863MOL0     H19029   6.681   5.074   2.355  1.5023 -0.6431  2.9654
  863MOL0     H19030   6.662   4.957   2.217  1.1353 -1.2284  0.4911
  863MOL0     H19031   6.453   4.991   2.454 -1.6368 -3.1420  0.2486
  863MOL0     H19032   6.437   5.085   2.307  1.9597  1.3280 -1.5078
  863MOL0     H19033   6.437   4.853   2.183  1.2925 -1.4586  1.5388
  863MOL0     H19034   6.427   4.779   2.340 -0.9243 -0.3539  1.0965
  863MOL0     H19035   6.230   4.919   2.399 -1.3350  0.9839 -0.1485
  863MOL0     H19036   6.196   4.794   2.270 -0.3542  0.2366  0.7755
  863MOL0     H19037   6.235   5.101   2.220  0.2842 -1.0413  4.4424
  863MOL0     H19038   6.230   4.971   2.101  1.3388 -0.8070  0.9488
  863MOL0     H19039   6.012   5.118   2.204  2.9413  0.4138 -1.5646
  863MOL0     H19040   5.995   4.965   2.292 -1.2246 -0.4387 -1.8501
  863MOL0     H19041   6.000   5.022   1.987 -2.5045  1.8320  0.5579
  863MOL0     H19042   6.031   4.863   2.069 -1.4149 -0.4514  4.4277
  863MOL0     H19043   5.789   4.926   1.867  1.4332  0.0070  0.4006
  863MOL0     H19044   5.598   4.654   1.964 -2.5689  0.1752  3.1781
  863MOL0     H19045   5.578   4.786   1.840  3.5995  2.2928  0.8460
  863MOL0     H19046   5.410   4.790   2.084  2.8727 -1.9356 -0.1384
  863MOL0     H19047   5.413   4.892   1.938  0.1179 -0.6508 -3.1763
  863MOL0     H19048   5.217   4.760   1.921  0.4195 -0.0846 -1.7119
  863MOL0     H19049   5.343   4.715   1.800  3.0924 -0.8153  0.5814
  863MOL0     H19050   5.362   4.495   1.896  0.4362 -1.4548  1.6611
  863MOL0     H19051   5.349   4.553   2.056 -0.5324 -1.9860 -0.4031
  863MOL0     H19052   4.942   4.427   2.019 -0.2117  1.3284  1.1858
  863MOL0     H19053   4.720   4.246   1.847  0.2871 -0.5266  1.9435
  863MOL0     H19054   4.653   4.412   1.847 -0.2567 -0.8133 -0.6709
  863MOL0     H19055   4.748   4.346   1.985  3.5498 -1.4385  0.7116
  863MOL0     H19056   4.605   4.085   1.596  0.3523 -0.5094 -1.2443
  863MOL0     H19057   4.437   3.996   1.460 -1.3699 -0.4499  0.1252
  863MOL0     H19058   4.346   4.220   1.120 -1.5323 -0.0556 -1.7726
  863MOL0     H19059   4.229   4.098   1.091  0.4984 -0.1777 -0.2648
  863MOL0     H19060   4.150   4.351   1.204 -2.6550  0.3494 -0.2991
  863MOL0     H19061   4.178   4.328   1.036 -2.5538  3.3778  0.0573
  863MOL0     H19062   4.000   4.136   1.039  0.5684 -2.1200  2.1449
  863MOL0     H19063   3.951   4.307   1.080  2.7553  2.3050  1.6215
  863MOL0     H19064   3.920   4.266   1.290 -0.7143  1.5159 -1.8061
  863MOL0     H19065   4.001   4.114   1.300  0.2423  0.1979 -0.9473
  863MOL0     H19066   3.804   4.017   1.146 -1.0878 -0.3194  0.6602
  863MOL0     H19067   3.749   4.092   1.311  0.3573  1.4592  0.9825
  863MOL0     H19068   3.739   4.231   1.039  3.9853 -3.6522 -0.6875
  863MOL0     H19069   3.674   4.275   1.192 -2.6268  0.6494 -1.6782
  863MOL0     H19070   3.484   4.108   1.159  1.9295 -1.1009  2.7172
  863MOL0     H19071   3.588   4.022   1.043  1.3589  0.7758 -0.7914
  863MOL0     H19072   3.567   4.206   0.886  0.9866 -1.5999 -0.1398
  863MOL0     H19073   3.494   4.308   1.011  1.2118 -0.4083  0.8046
  863MOL0     H19074   4.319   4.390   1.330 -2.4292  0.1738  1.0988
  863MOL0     H19075   4.518   4.481   1.459  1.7732 -0.2467  2.7976
  863MOL0     H19076   5.047   4.456   1.539 -1.2948  1.6278 -0.6626
  863MOL0     H19077   5.222   4.494   1.721  0.1799  0.6456  1.3443
  863MOL0     H19078   7.067   4.848   2.361 -2.2732 -1.4098 -2.0837
  863MOL0     H19079   7.197   4.638   2.367 -1.7044 -0.5448 -2.2953
  863MOL0     H19080   7.208   4.196   2.417 -0.8408 -1.4117  1.3901
  863MOL0     H19081   7.323   3.975   2.425 -1.1577  0.7285 -0.2685
  863MOL0     H19082   7.717   3.975   2.642  1.1179  1.8649 -1.5496
  863MOL0     H19083   7.708   3.811   2.585  0.1726 -0.8719 -0.1480
  863MOL0     H19084   7.724   4.064   2.405  0.1728 -0.2277  0.5163
  863MOL0     H19085   7.712   3.895   2.358 -1.6330 -0.4259  0.8551
  863MOL0     H19086   7.937   3.855   2.407  0.3932 -0.1936  2.9696
  863MOL0     H19087   7.943   4.033   2.365 -1.2463  0.6955  0.0551
  863MOL0     H19088   8.091   3.971   2.555  2.0137  4.5729  0.0148
  863MOL0     H19089   7.949   3.946   2.655 -2.6218  0.4805 -0.4907
  863MOL0     H19090   7.912   4.358   2.613  1.0188 -0.3128  0.1698
  863MOL0     H19091   7.614   4.147   2.687 -2.0020  2.5327  3.3090
  863MOL0     H19092   7.547   4.480   2.633 -4.4898  1.4419  1.0470
  863MOL0     H19093   7.462   4.421   2.775 -2.7805 -1.6345 -0.0780
  863MOL0     H19094   7.624   4.353   2.735 -0.4000 -0.5541  0.5167
  864MOL0     O19095   2.405  11.312   3.264 -0.3949  0.2408 -0.0374
  864MOL0     C19096   2.444  11.373   3.363 -0.3267  0.6337  0.2089
  864MOL0     O19097   2.578  11.376   3.393 -0.0877  0.1582 -0.1743
  864MOL0     C19098   2.673  11.302   3.322  0.4792  0.4446 -0.5298
  864MOL0     C19099   2.672  11.159   3.297  0.0539 -1.2889 -0.5556
  864MOL0     C19100   2.775  11.103   3.230 -0.1488 -0.1600 -0.2329
  864MOL0     C19101   2.896  11.173   3.192 -0.0872 -0.3510  0.5589
  864MOL0     O19102   3.017  11.122   3.150  0.0155  0.3378  0.1502
  864MOL0     C19103   3.094  11.084   3.269 -0.0304  0.4283 -0.0862
  864MOL0     C19104   3.239  11.139   3.260  0.3310 -0.3703  0.9170
  864MOL0     C19105   3.340  11.078   3.357  0.2552 -0.8547  0.5322
  864MOL0     C19106   3.485  11.128   3.323  0.3311  0.2106  0.1085
  864MOL0     C19107   3.576  11.030   3.393 -0.1397  0.3594 -0.4333
  864MOL0     C19108   3.712  11.088   3.398 -0.7156 -0.3580 -0.1840
  864MOL0     C19109   3.819  10.989   3.429 -0.9344  1.0325  0.3845
  864MOL0     C19110   3.892  10.943   3.305 -0.3500  0.3695 -0.0448
  864MOL0     N19111   4.032  10.906   3.320  0.2060 -0.5101 -0.2845
  864MOL0     C19112   4.119  11.007   3.353 -1.2211  0.6691  0.2028
  864MOL0     C19113   4.243  10.948   3.327  0.0984 -0.1686  0.3996
  864MOL0     C19114   4.385  11.007   3.330  0.1811  1.5475 -0.3545
  864MOL0     C19115   4.414  11.086   3.453  0.1172 -0.0600  0.4338
  864MOL0     C19116   4.469  10.992   3.567 -0.0412  0.0894 -0.2674
  864MOL0     C19117   4.588  11.052   3.645  0.3397  0.6992 -0.5439
  864MOL0     O19118   4.704  11.033   3.566  0.7077  0.5737  0.4837
  864MOL0     C19119   4.752  11.150   3.506 -0.8703 -0.5270  0.0565
  864MOL0     C19120   4.731  11.173   3.371  0.2092  0.3427  0.1729
  864MOL0     C19121   4.777  11.289   3.298 -0.2033  0.0310 -0.8164
  864MOL0     C19122   4.741  11.300   3.152  0.1089  0.1332 -0.3648
  864MOL0     C19123   4.845  11.396   3.368 -0.3179 -0.0392  1.1613
  864MOL0     C19124   4.910  11.511   3.301  0.9805 -0.4254 -0.6911
  864MOL0     O19125   4.983  11.588   3.388  0.1090  0.2393 -0.5290
  864MOL0     C19126   5.093  11.659   3.344  0.4805  0.5066  0.3069
  864MOL0     C19127   5.142  11.753   3.442 -0.9505 -1.4239  0.9661
  864MOL0     C19128   5.265  11.815   3.415  0.2375 -0.3733  0.4060
  864MOL0     C19129   5.321  11.810   3.287 -0.0399  0.5107  0.8677
  864MOL0     O19130   5.421  11.892   3.241 -0.5268 -0.3238  0.0419
  864MOL0     C19131   5.434  12.027   3.305  0.2176 -0.1318 -0.3235
  864MOL0     C19132   5.494  12.127   3.202 -0.8836 -0.6440  0.1365
  864MOL0     C19133   5.468  12.276   3.227  0.1805 -0.3011 -0.3018
  864MOL0     C19134   5.597  12.353   3.272 -0.3455  0.8127 -0.3325
  864MOL0     C19135   5.544  12.490   3.323  0.1287  0.4349 -0.9703
  864MOL0     C19136   5.667  12.586   3.363  0.2951  0.8875 -0.0926
  864MOL0     C19137   5.602  12.724   3.397  0.0328 -0.0707 -0.2037
  864MOL0     C19138   5.684  12.801   3.508  0.2808 -0.0436 -0.0829
  864MOL0    Cl19139   5.599  12.945   3.554 -0.0655 -0.0256  0.2675
  864MOL0     C19140   5.271  11.719   3.189  0.4888 -0.2691  0.0650
  864MOL0     C19141   5.155  11.649   3.214  1.0814  0.0091 -0.4861
  864MOL0     O19142   4.891  11.531   3.185 -0.2174  0.3295  0.8511
  864MOL0     C19143   4.866  11.370   3.508  0.0386  0.2009 -0.4090
  864MOL0     C19144   4.810  11.253   3.576 -0.2789 -0.0661 -0.0320
  864MOL0     N19145   4.216  10.817   3.285  0.4980  0.5448  0.3942
  864MOL0     N19146   4.089  10.793   3.275  0.0002  0.7097  0.0285
  864MOL0     C19147   2.892  11.314   3.210 -0.0416  0.3144  0.6287
  864MOL0     C19148   2.783  11.375   3.281 -0.7169 -0.4601 -0.5228
  864MOL0     C19149   2.350  11.437   3.452 -1.0234 -0.6062 -0.0289
  864MOL0     C19150   2.390  11.493   3.582 -0.1548 -0.2635  0.7271
  864MOL0     C19151   2.301  11.559   3.662  0.6698 -0.3383 -0.7086
  864MOL0     C19152   2.171  11.577   3.630  0.6895 -0.4339  0.3794
  864MOL0     O19153   2.085  11.646   3.710  0.4111 -0.2948  0.0130
  864MOL0     C19154   2.095  11.676   3.848 -0.6766  0.4434 -1.0985
  864MOL0     C19155   2.052  11.549   3.921 -0.1305 -0.0155 -0.1505
  864MOL0     C19156   2.098  11.537   4.067  0.1363 -0.7203  0.6648
  864MOL0     C19157   2.051  11.409   4.137 -0.5005  0.2488  0.1462
  864MOL0     C19158   1.915  11.423   4.185 -0.3316  0.2125  0.3837
  864MOL0     C19159   1.795  11.408   4.225 -0.8664  0.4971 -0.5487
  864MOL0     C19160   2.138  11.531   3.506 -0.4110 -0.3909  0.6573
  864MOL0     C19161   2.213  11.452   3.424  0.3102 -0.4493  1.4356
  864MOL0     C19162   2.147  11.397   3.299 -0.1992 -0.0735 -0.4200
  864MOL0     H19163   2.586  11.108   3.339 -3.8844  4.1728 -0.9338
  864MOL0     H19164   2.790  10.995   3.220  1.2293 -0.1982  1.6117
  864MOL0     H19165   3.104  10.975   3.259  3.7372  0.5953  0.5080
  864MOL0     H19166   3.049  11.127   3.359  0.3970  3.4946 -1.2065
  864MOL0     H19167   3.281  11.123   3.160  0.9270  3.2858  0.4400
  864MOL0     H19168   3.239  11.247   3.271  1.9072 -0.4602  2.0565
  864MOL0     H19169   3.310  11.093   3.462 -2.9234  1.4161 -0.5454
  864MOL0     H19170   3.335  10.974   3.325 -2.2582 -0.5701 -0.2343
  864MOL0     H19171   3.501  11.125   3.215  1.3560  0.6964  0.2412
  864MOL0     H19172   3.496  11.233   3.351  0.4212 -0.5604  3.4053
  864MOL0     H19173   3.574  10.930   3.349  0.8581 -0.2175  0.7568
  864MOL0     H19174   3.536  11.006   3.493 -0.1882  0.6332 -0.3850
  864MOL0     H19175   3.722  11.138   3.301 -1.6579  0.0040 -0.1047
  864MOL0     H19176   3.702  11.158   3.481  4.0438  0.5106 -0.0988
  864MOL0     H19177   3.791  10.909   3.498  1.2951 -0.2833 -0.1104
  864MOL0     H19178   3.891  11.047   3.489  2.4698 -0.5502 -1.8656
  864MOL0     H19179   3.831  10.856   3.278 -0.6166  1.2446 -2.4776
  864MOL0     H19180   3.883  11.013   3.222  0.1382  0.4229 -0.0584
  864MOL0     H19181   4.103  11.110   3.383  2.4885  1.6260 -0.5509
  864MOL0     H19182   4.394  11.067   3.239  0.8059  2.2625  0.1625
  864MOL0     H19183   4.459  10.926   3.323 -0.5933  0.9483 -2.0657
  864MOL0     H19184   4.480  11.171   3.433 -0.3832  0.4068  0.7498
  864MOL0     H19185   4.322  11.138   3.482  0.2459  1.2766 -1.3230
  864MOL0     H19186   4.379  10.992   3.629  2.9346  2.6629  4.6464
  864MOL0     H19187   4.501  10.892   3.536 -1.4904 -0.3623 -0.3843
  864MOL0     H19188   4.586  11.156   3.680  0.4926  0.0385  1.5737
  864MOL0     H19189   4.599  11.003   3.742 -0.3359  0.6310 -0.4951
  864MOL0     H19190   4.682  11.093   3.317  2.5174  0.3132 -2.1105
  864MOL0     H19191   4.695  11.399   3.143 -1.5050 -0.4889  0.7740
  864MOL0     H19192   4.664  11.227   3.125 -2.1355  1.8908  0.9051
  864MOL0     H19193   4.834  11.293   3.094  0.1341 -0.1871 -0.2864
  864MOL0     H19194   5.103  11.757   3.543  0.8350  0.7359  1.6506
  864MOL0     H19195   5.321  11.876   3.485  0.2610  0.8112 -0.6150
  864MOL0     H19196   5.332  12.060   3.323  0.2825  0.3826 -0.8759
  864MOL0     H19197   5.495  12.031   3.396  0.3360 -2.2451 -0.2574
  864MOL0     H19198   5.600  12.112   3.181 -0.8824  0.9215 -1.1842
  864MOL0     H19199   5.444  12.102   3.108 -0.5098 -0.4405 -0.1210
  864MOL0     H19200   5.390  12.281   3.304 -0.0741 -2.4131 -0.3390
  864MOL0     H19201   5.416  12.317   3.140 -2.9882  1.0675  2.0116
  864MOL0     H19202   5.663  12.374   3.187 -4.0447 -0.1503 -3.7553
  864MOL0     H19203   5.652  12.291   3.343 -1.7583 -1.2293 -0.9338
  864MOL0     H19204   5.486  12.537   3.244 -1.0064  1.0564  0.1899
  864MOL0     H19205   5.469  12.466   3.399 -0.7575 -0.2438 -2.0367
  864MOL0     H19206   5.731  12.583   3.274 -2.0558  2.5633 -1.9692
  864MOL0     H19207   5.724  12.552   3.450  0.6697  1.5130 -0.0875
  864MOL0     H19208   5.505  12.709   3.447  0.5889 -1.9905  0.3790
  864MOL0     H19209   5.582  12.779   3.305 -0.6415  0.1234  0.0479
  864MOL0     H19210   5.781  12.834   3.471 -0.0842  0.8158 -0.2985
  864MOL0     H19211   5.694  12.736   3.595  0.0578 -0.5126 -0.4012
  864MOL0     H19212   5.323  11.698   3.095 -3.0650 -2.8759 -1.5560
  864MOL0     H19213   5.120  11.575   3.142 -0.5556 -0.1862  0.4720
  864MOL0     H19214   4.919  11.440   3.572 -2.6674 -1.6420  4.3403
  864MOL0     H19215   4.811  11.249   3.684 -0.5091  0.3642 -0.0085
  864MOL0     H19216   2.973  11.377   3.175  0.8561  0.2017  2.3706
  864MOL0     H19217   2.784  11.483   3.287  3.6140 -0.3520 -0.1917
  864MOL0     H19218   2.495  11.492   3.612 -0.2533 -0.3491  1.0806
  864MOL0     H19219   2.334  11.597   3.758  1.4480 -0.0780 -1.0711
  864MOL0     H19220   2.199  11.699   3.875 -0.2490 -3.4943  1.4185
  864MOL0     H19221   2.019  11.752   3.868 -2.0510 -1.1783  0.0591
  864MOL0     H19222   2.092  11.460   3.871  0.7779 -0.7200  1.7361
  864MOL0     H19223   1.943  11.548   3.915 -0.2172  0.1377  1.0800
  864MOL0     H19224   2.205  11.517   4.052 -0.3873 -3.5672  0.1553
  864MOL0     H19225   2.087  11.629   4.126 -0.7778  0.8444 -1.7725
  864MOL0     H19226   2.120  11.384   4.217  1.5781  1.0431 -1.3148
  864MOL0     H19227   2.051  11.325   4.067 -0.5628  0.6566 -0.3545
  864MOL0     H19228   1.706  11.391   4.282  0.7505 -1.5815  1.6019
  864MOL0     H19229   2.035  11.560   3.485 -0.2509 -0.5580 -0.4088
  864MOL0     H19230   2.202  11.442   3.216  0.8474 -0.0538  0.2603
  864MOL0     H19231   2.164  11.290   3.291 -2.0158 -0.4112 -0.0657
  864MOL0     H19232   2.044  11.427   3.281 -0.6193 -1.4526 -0.3976
  865MOL0     O19233   5.525   4.486   9.957 -0.0716 -0.2400  0.2979
  865MOL0     C19234   5.529   4.593   9.896  0.6248 -0.4679  0.4215
  865MOL0     O19235   5.572   4.711   9.946 -0.6519  0.2554  0.4907
  865MOL0     C19236   5.620   4.712  10.076 -0.5270 -0.3024  0.0926
  865MOL0     C19237   5.758   4.747  10.094  0.1159  1.1419 -0.0967
  865MOL0     C19238   5.809   4.770  10.221  0.8476 -0.3480  0.3934
  865MOL0     C19239   5.722   4.750  10.328 -0.2299 -0.1486 -0.0327
  865MOL0     O19240   5.757   4.776  10.464  0.2483  0.3889  0.2678
  865MOL0     C19241   5.740   4.660  10.550  0.2747  0.4160  0.9835
  865MOL0     C19242   5.864   4.649  10.642 -0.0438 -0.2251  0.1725
  865MOL0     C19243   5.872   4.775  10.734  0.1647  0.2881  0.7704
  865MOL0     C19244   5.964   4.905  10.702 -0.1732 -0.5259  0.0916
  865MOL0     C19245   6.116   4.869  10.675  0.5908 -0.1361  0.4928
  865MOL0     C19246   6.181   4.777  10.774 -1.1631  0.1749  0.3499
  865MOL0     C19247   6.305   4.709  10.723 -1.3054 -0.1566 -0.4163
  865MOL0     C19248   6.385   4.617  10.823 -0.5816  0.5742 -0.5893
  865MOL0     N19249   6.509   4.557  10.771  0.7167 -0.4903 -0.3173
  865MOL0     C19250   6.620   4.622  10.735 -0.1902  0.1249  0.5844
  865MOL0     C19251   6.714   4.531  10.726  0.2837  0.0130 -0.5215
  865MOL0     C19252   6.848   4.564  10.681 -0.9754 -0.0372  0.2809
  865MOL0     C19253   6.931   4.540  10.805 -0.2673  0.8315 -0.1086
  865MOL0     C19254   7.082   4.528  10.788  0.2617 -0.2241 -0.7159
  865MOL0     C19255   7.149   4.498  10.921 -0.3697  0.2829 -0.1410
  865MOL0     O19256   7.123   4.598  11.014 -0.1160  0.1734 -0.3098
  865MOL0     C19257   7.206   4.591  11.124 -0.1416  0.6283 -0.0741
  865MOL0     C19258   7.175   4.681  11.224  0.0694  0.6519 -0.3376
  865MOL0     C19259   7.244   4.681  11.346 -1.3828 -0.7334  0.1481
  865MOL0     C19260   7.193   4.792  11.438  0.0094  0.0080 -0.4603
  865MOL0     C19261   7.361   4.589  11.365  1.1227 -0.0819  0.2127
  865MOL0     C19262   7.437   4.582  11.492  0.1091  0.2396 -1.2546
  865MOL0     O19263   7.577   4.568  11.499 -0.7277 -0.5543 -0.5561
  865MOL0     C19264   7.662   4.577  11.394  0.3627  0.2097  0.1413
  865MOL0     C19265   7.776   4.492  11.390 -0.2845  0.3270  0.1744
  865MOL0     C19266   7.862   4.498  11.287  0.9471 -0.6659 -0.5202
  865MOL0     C19267   7.846   4.593  11.181  0.1645  0.4346 -0.5071
  865MOL0     O19268   7.937   4.581  11.076 -0.7553  0.7373 -0.0047
  865MOL0     C19269   7.934   4.673  10.962 -0.9392 -0.1252 -1.0892
  865MOL0     C19270   7.818   4.659  10.870  0.0080 -0.1516  0.2368
  865MOL0     C19271   7.812   4.765  10.757 -0.2582  0.5731  1.0160
  865MOL0     C19272   7.941   4.748  10.660 -0.0376  0.1389 -0.7870
  865MOL0     C19273   7.922   4.837  10.534  0.9448  0.3382  0.1618
  865MOL0     C19274   8.048   4.858  10.443  0.0582 -0.1939 -0.4022
  865MOL0     C19275   8.146   4.738  10.422 -0.1612 -0.0002  0.3249
  865MOL0     C19276   8.248   4.759  10.305  0.4089  0.6098  0.0670
  865MOL0    Cl19277   8.173   4.751  10.143 -0.0396 -0.3496  0.3255
  865MOL0     C19278   7.740   4.686  11.191  0.6020 -0.8915 -0.5574
  865MOL0     C19279   7.657   4.681  11.302 -0.1117 -1.0854 -0.1441
  865MOL0     O19280   7.368   4.589  11.593  0.4775  0.0990  0.3692
  865MOL0     C19281   7.392   4.506  11.261  0.2476 -0.0877 -1.0470
  865MOL0     C19282   7.312   4.501  11.147 -1.0826  0.0340  0.6192
  865MOL0     N19283   6.660   4.413  10.755 -0.0579  0.7047  0.4048
  865MOL0     N19284   6.537   4.432  10.804  0.5999 -0.1778  0.3842
  865MOL0     C19285   5.584   4.722  10.313 -0.1674 -0.7568 -0.5793
  865MOL0     C19286   5.534   4.699  10.182 -0.4476 -0.7519 -0.0841
  865MOL0     C19287   5.513   4.587   9.750  0.2165 -0.6552  0.0075
  865MOL0     C19288   5.599   4.670   9.676  0.0492  0.2601 -0.6076
  865MOL0     C19289   5.606   4.664   9.538 -0.2961  0.0832 -0.5864
  865MOL0     C19290   5.514   4.583   9.468 -0.6032 -0.2445  0.7404
  865MOL0     O19291   5.518   4.577   9.329  0.3361  0.0269  0.4162
  865MOL0     C19292   5.642   4.581   9.266  0.2513 -0.7209 -1.0188
  865MOL0     C19293   5.649   4.489   9.154  0.8554  0.6578  0.7863
  865MOL0     C19294   5.634   4.342   9.195  0.4221  0.5706  0.9626
  865MOL0     C19295   5.726   4.282   9.301  0.4287 -0.2158 -0.4157
  865MOL0     C19296   5.864   4.338   9.296  0.4018 -0.5683  1.3840
  865MOL0     C19297   5.977   4.389   9.294 -0.3568  0.1316  0.3914
  865MOL0     C19298   5.423   4.510   9.537  0.0649  0.3047 -0.5109
  865MOL0     C19299   5.422   4.503   9.681 -0.1537 -0.2856 -0.2977
  865MOL0     C19300   5.326   4.425   9.755 -0.0329  0.5685 -0.6711
  865MOL0     H19301   5.836   4.769  10.022  1.8819 -3.7179 -0.0398
  865MOL0     H19302   5.905   4.819  10.227  1.6517 -1.3274 -2.5558
  865MOL0     H19303   5.735   4.565  10.495 -3.2139  0.0831  1.6837
  865MOL0     H19304   5.652   4.658  10.615 -0.2987 -1.9211  0.2371
  865MOL0     H19305   5.850   4.555  10.694  0.5896  0.3023  1.3338
  865MOL0     H19306   5.954   4.627  10.585  0.3684 -1.5957  1.3117
  865MOL0     H19307   5.772   4.805  10.765  0.1846  2.3812 -0.9232
  865MOL0     H19308   5.904   4.717  10.820 -0.4127  0.0960  0.8603
  865MOL0     H19309   5.917   4.978  10.636 -0.9058 -0.0489  1.1044
  865MOL0     H19310   5.960   4.947  10.803 -2.3332 -0.0773 -0.1383
  865MOL0     H19311   6.180   4.958  10.669 -1.0199  1.1250  1.2830
  865MOL0     H19312   6.116   4.822  10.576  1.5771  2.5040 -0.8766
  865MOL0     H19313   6.188   4.828  10.871 -0.5704  0.0102  0.4001
  865MOL0     H19314   6.112   4.695  10.794 -2.0144  0.5691 -0.8414
  865MOL0     H19315   6.378   4.785  10.692 -1.0115 -0.1427  0.2885
  865MOL0     H19316   6.284   4.649  10.634  0.8562 -0.3371 -0.8774
  865MOL0     H19317   6.406   4.670  10.916  1.0577 -0.6290 -0.2119
  865MOL0     H19318   6.322   4.536  10.863  2.6583  0.1929  4.7650
  865MOL0     H19319   6.659   4.722  10.722  1.7881 -0.7150 -0.3415
  865MOL0     H19320   6.851   4.659  10.627 -0.6257 -2.6030 -4.8048
  865MOL0     H19321   6.880   4.497  10.601 -0.9632  0.9256 -0.5389
  865MOL0     H19322   6.914   4.620  10.878  2.2322  0.1021  1.3914
  865MOL0     H19323   6.897   4.451  10.860  2.9643 -0.3411  0.2090
  865MOL0     H19324   7.100   4.448  10.715 -2.1217  0.2220 -1.8769
  865MOL0     H19325   7.104   4.619  10.732 -1.4890  0.8445  0.2544
  865MOL0     H19326   7.120   4.399  10.958 -2.2983  0.8323 -0.0798
  865MOL0     H19327   7.254   4.490  10.891 -0.5097 -0.7710 -0.3895
  865MOL0     H19328   7.090   4.747  11.213  0.3202  1.1902  0.8355
  865MOL0     H19329   7.286   4.837  11.473  1.8893 -3.6588 -0.2212
  865MOL0     H19330   7.138   4.751  11.523  0.0075  2.8599  1.0124
  865MOL0     H19331   7.127   4.857  11.379 -0.9962 -1.2513 -0.7813
  865MOL0     H19332   7.783   4.413  11.463  1.5986  1.6554  1.5235
  865MOL0     H19333   7.944   4.426  11.280  3.0157  1.3023  1.6392
  865MOL0     H19334   7.935   4.774  11.003  0.5245 -0.9627  1.0749
  865MOL0     H19335   8.032   4.657  10.915  1.0817 -0.6505  2.9232
  865MOL0     H19336   7.817   4.560  10.823  0.4776  0.6360 -1.5126
  865MOL0     H19337   7.726   4.660  10.929  0.0258 -1.5087  0.3274
  865MOL0     H19338   7.799   4.871  10.782  0.1099  1.0500 -0.6803
  865MOL0     H19339   7.722   4.734  10.703  1.1692 -2.3049  0.0619
  865MOL0     H19340   7.941   4.641  10.637 -2.7109  0.3790 -2.4334
  865MOL0     H19341   8.034   4.787  10.703 -0.1100 -0.5724  0.0367
  865MOL0     H19342   7.838   4.794  10.479  1.2680  0.1817 -0.2170
  865MOL0     H19343   7.900   4.939  10.568 -0.4778 -0.4291  1.6832
  865MOL0     H19344   8.111   4.936  10.488  0.6659 -0.4351 -0.8214
  865MOL0     H19345   8.015   4.894  10.345 -0.1664 -3.6884 -1.7572
  865MOL0     H19346   8.091   4.650  10.388  0.9114 -0.3745 -0.5107
  865MOL0     H19347   8.205   4.708  10.508  0.3958  0.6314  0.1731
  865MOL0     H19348   8.328   4.688  10.329  1.8438  2.2383  0.3199
  865MOL0     H19349   8.306   4.852  10.310  0.6770  0.4982 -0.8060
  865MOL0     H19350   7.721   4.762  11.115 -5.5196 -1.3059  0.0964
  865MOL0     H19351   7.579   4.756  11.309 -0.7158 -1.4773 -2.0258
  865MOL0     H19352   7.457   4.422  11.286 -0.1039 -0.2075 -0.5450
  865MOL0     H19353   7.336   4.423  11.076  0.4172 -0.4018  1.5430
  865MOL0     H19354   5.521   4.715  10.401  1.1687  2.9296  0.8789
  865MOL0     H19355   5.428   4.675  10.183 -1.2057  2.0228  3.1881
  865MOL0     H19356   5.666   4.737   9.730 -1.1086 -0.8549  2.4073
  865MOL0     H19357   5.678   4.734   9.498  0.6483 -1.3427 -1.4932
  865MOL0     H19358   5.664   4.683   9.234  2.6086 -1.0285 -0.5660
  865MOL0     H19359   5.720   4.555   9.339  0.5670 -0.5886 -1.3109
  865MOL0     H19360   5.747   4.499   9.106  0.5399 -1.9128 -0.6097
  865MOL0     H19361   5.572   4.513   9.080 -0.7859 -1.6447  1.6085
  865MOL0     H19362   5.528   4.328   9.216  0.7558 -0.6348  1.9905
  865MOL0     H19363   5.651   4.286   9.103  0.6818  1.8730  0.1895
  865MOL0     H19364   5.736   4.174   9.287 -3.0668 -0.4427 -2.4259
  865MOL0     H19365   5.680   4.301   9.399 -2.2263  1.5447 -1.8594
  865MOL0     H19366   6.072   4.436   9.310  0.7121 -1.9309  0.4165
  865MOL0     H19367   5.366   4.449   9.467  1.4888 -0.3672 -1.1330
  865MOL0     H19368   5.231   4.408   9.703 -1.2926 -5.3099  2.6246
  865MOL0     H19369   5.364   4.326   9.784  3.7487  1.3016 -2.5233
  865MOL0     H19370   5.287   4.476   9.844  3.0353  0.6933  0.7013
  866MOL0     O19371   3.748   4.662   1.498 -0.5579 -0.0351  0.1027
  866MOL0     C19372   3.847   4.736   1.472 -0.7364  0.4383 -0.2598
  866MOL0     O19373   3.932   4.781   1.569  0.0001  0.4667  0.2560
  866MOL0     C19374   3.922   4.744   1.697 -0.3799  0.1467  0.0386
  866MOL0     C19375   3.855   4.821   1.787 -0.2122 -0.0631 -0.4575
  866MOL0     C19376   3.825   4.762   1.905 -0.5082 -0.4720 -0.1729
  866MOL0     C19377   3.867   4.633   1.943  0.6045 -0.8621  0.4502
  866MOL0     O19378   3.822   4.585   2.068  0.2359  0.1842 -0.5263
  866MOL0     C19379   3.819   4.442   2.088 -0.4308  0.2776  0.4144
  866MOL0     C19380   3.690   4.395   2.156 -0.1941  0.6898  1.0764
  866MOL0     C19381   3.584   4.428   2.047  0.8814  0.8150  0.0933
  866MOL0     C19382   3.450   4.374   2.095  0.0656  0.2875  0.0797
  866MOL0     C19383   3.338   4.400   1.988 -0.5159 -0.3776 -0.0596
  866MOL0     C19384   3.191   4.400   2.047  0.0577 -0.3457  1.0857
  866MOL0     C19385   3.136   4.271   2.056  1.1539  0.5066  0.0403
  866MOL0     C19386   2.984   4.271   2.072  0.2507 -0.0190 -0.2605
  866MOL0     N19387   2.917   4.136   2.086  0.6148 -0.2614 -0.2011
  866MOL0     C19388   2.981   4.022   2.148  0.1552  0.4092 -0.6121
  866MOL0     C19389   2.885   3.917   2.139 -0.4270 -0.7844  0.1529
  866MOL0     C19390   2.897   3.786   2.201 -0.2679 -0.5646  0.2976
  866MOL0     C19391   2.906   3.793   2.356  0.1097 -0.3915  1.1259
  866MOL0     C19392   2.939   3.656   2.417  0.8663  0.0593 -0.4047
  866MOL0     C19393   2.957   3.650   2.566  0.5994 -0.1607  0.0269
  866MOL0     O19394   3.069   3.736   2.599 -0.4053  0.1660  0.3176
  866MOL0     C19395   3.097   3.763   2.731 -0.2437  0.4434  0.1342
  866MOL0     C19396   3.222   3.827   2.766  0.6731 -0.0567 -0.0442
  866MOL0     C19397   3.245   3.877   2.893  0.0227 -0.4638  0.1838
  866MOL0     C19398   3.369   3.963   2.897 -0.1702 -0.0139 -0.2354
  866MOL0     C19399   3.143   3.864   2.998  0.1708  0.0178 -0.3710
  866MOL0     C19400   3.143   3.929   3.139 -0.4200  0.1130  0.6970
  866MOL0     O19401   3.040   3.905   3.219  0.0355  0.0416 -1.0337
  866MOL0     C19402   3.055   3.938   3.352  1.7264  0.7030  0.0314
  866MOL0     C19403   3.032   3.836   3.446 -0.3535 -0.3291  1.3158
  866MOL0     C19404   3.036   3.861   3.580 -0.5490  0.4621 -0.0603
  866MOL0     C19405   3.069   3.989   3.627 -0.5696 -0.1828 -0.1492
  866MOL0     O19406   3.062   4.003   3.766  0.5288 -0.0449  0.6019
  866MOL0     C19407   3.038   4.137   3.814 -0.3596  1.1873  0.4308
  866MOL0     C19408   3.131   4.156   3.931 -0.8348 -0.0173  0.9136
  866MOL0     C19409   3.277   4.172   3.894 -0.4628 -0.8799 -0.8958
  866MOL0     C19410   3.348   4.187   4.032 -0.3827 -0.6186 -0.4701
  866MOL0     C19411   3.487   4.246   4.004 -0.3562  0.9849 -0.7693
  866MOL0     C19412   3.498   4.405   4.012 -0.1973  0.2902 -0.3060
  866MOL0     C19413   3.571   4.437   4.136  0.3634  0.2122 -0.8078
  866MOL0     C19414   3.608   4.586   4.143 -0.3898  0.7781  1.3350
  866MOL0    Cl19415   3.700   4.597   4.296  0.0150  0.3440 -0.3138
  866MOL0     C19416   3.096   4.087   3.530  1.2127 -0.3759 -0.3422
  866MOL0     C19417   3.081   4.066   3.391  0.2251 -0.0253 -0.6343
  866MOL0     O19418   3.240   4.002   3.165 -0.2867  0.2884 -0.8149
  866MOL0     C19419   3.026   3.794   2.961  1.1282  0.3767 -0.7086
  866MOL0     C19420   3.002   3.755   2.834  0.1757 -0.4474  0.1570
  866MOL0     N19421   2.774   3.980   2.081  0.5324 -0.2295  0.6671
  866MOL0     N19422   2.795   4.099   2.037 -0.8002  0.1222 -0.4651
  866MOL0     C19423   3.943   4.564   1.847  0.5239  0.1490 -0.1248
  866MOL0     C19424   3.967   4.617   1.725 -0.0964 -0.1019 -0.8446
  866MOL0     C19425   3.892   4.769   1.335  0.8465  0.5707  0.9740
  866MOL0     C19426   3.984   4.869   1.326 -0.3916 -0.5290  0.4950
  866MOL0     C19427   4.017   4.937   1.213  0.1106  0.0948  0.4109
  866MOL0     C19428   3.947   4.905   1.096 -0.1538 -0.4765 -0.3106
  866MOL0     O19429   3.963   4.964   0.971  0.2409  0.2055 -0.1662
  866MOL0     C19430   4.072   5.053   0.956  0.3671 -0.7150  0.4283
  866MOL0     C19431   4.079   5.133   0.819 -0.8559 -0.1428 -0.9800
  866MOL0     C19432   4.122   5.044   0.697  0.0395 -0.7251  1.5243
  866MOL0     C19433   4.000   4.983   0.613  0.6191 -0.6858 -0.0854
  866MOL0     C19434   3.913   5.080   0.542 -0.3840 -0.1824  0.0040
  866MOL0     C19435   3.833   5.158   0.489  0.5691 -1.7774  0.3734
  866MOL0     C19436   3.860   4.801   1.098  0.6284 -0.6027  0.9630
  866MOL0     C19437   3.835   4.730   1.215  0.3772 -0.4931 -0.4284
  866MOL0     C19438   3.759   4.599   1.204 -0.4526  0.1208  0.0575
  866MOL0     H19439   3.803   4.915   1.775 -0.8558 -0.3241  0.1815
  866MOL0     H19440   3.764   4.799   1.986 -0.1191 -3.4405  1.6068
  866MOL0     H19441   3.906   4.410   2.145  0.0853  0.0772 -0.4776
  866MOL0     H19442   3.826   4.390   1.992  0.4407  0.7082  0.2391
  866MOL0     H19443   3.691   4.287   2.177 -0.1460  0.3074 -0.7449
  866MOL0     H19444   3.684   4.448   2.251 -0.7080 -1.1061  2.1013
  866MOL0     H19445   3.575   4.536   2.029  0.1501  0.7578  0.0940
  866MOL0     H19446   3.607   4.385   1.949 -0.3682 -0.9473  0.5177
  866MOL0     H19447   3.450   4.267   2.116  0.0787  0.9128  4.0678
  866MOL0     H19448   3.418   4.408   2.193 -3.9229 -4.0896  0.6326
  866MOL0     H19449   3.343   4.330   1.904  0.0647 -1.9821  1.2532
  866MOL0     H19450   3.356   4.495   1.938 -1.2096 -0.7723 -1.0943
  866MOL0     H19451   3.202   4.449   2.144 -0.8614  1.7521  0.1794
  866MOL0     H19452   3.122   4.450   1.979  0.9574 -0.7728 -0.1620
  866MOL0     H19453   3.182   4.211   2.136 -1.1424  0.7364  1.6387
  866MOL0     H19454   3.154   4.215   1.964 -0.5354 -0.3222  0.1778
  866MOL0     H19455   2.969   4.348   2.149 -2.5637 -1.3562  0.6915
  866MOL0     H19456   2.948   4.304   1.974  1.2975 -0.9213 -0.9678
  866MOL0     H19457   3.074   4.021   2.205 -0.1912 -2.8771  0.1038
  866MOL0     H19458   2.993   3.740   2.175  0.6408  0.3256  1.9419
  866MOL0     H19459   2.811   3.728   2.166 -1.1138  1.1019 -0.4731
  866MOL0     H19460   2.984   3.864   2.385 -1.9219  2.7815 -0.6388
  866MOL0     H19461   2.813   3.830   2.399 -1.4261 -3.0732  0.3599
  866MOL0     H19462   2.848   3.598   2.404  0.5510 -0.0542  1.8544
  866MOL0     H19463   3.021   3.607   2.363  1.6729 -0.4898  1.2191
  866MOL0     H19464   2.867   3.694   2.609 -0.6952 -3.0110  0.4890
  866MOL0     H19465   2.980   3.551   2.607 -2.6314 -1.3815 -0.7210
  866MOL0     H19466   3.290   3.852   2.684  1.0055 -1.3814 -0.1919
  866MOL0     H19467   3.432   3.956   2.807  0.5541 -0.8393  0.3166
  866MOL0     H19468   3.430   3.920   2.977  2.0903  1.6498 -0.9756
  866MOL0     H19469   3.345   4.069   2.910 -1.1086 -0.2979  0.3961
  866MOL0     H19470   3.027   3.734   3.411  0.3604 -0.4368  1.5123
  866MOL0     H19471   3.025   3.775   3.645 -0.4917  0.9386  0.5905
  866MOL0     H19472   3.048   4.215   3.738  0.7870 -0.2068 -0.9065
  866MOL0     H19473   2.934   4.140   3.846 -0.7581 -0.4059 -0.6489
  866MOL0     H19474   3.089   4.238   3.989 -2.3251 -1.0758  1.3911
  866MOL0     H19475   3.125   4.062   3.987  0.4150 -1.9615 -1.9341
  866MOL0     H19476   3.290   4.256   3.825  0.9242  0.5442  0.9777
  866MOL0     H19477   3.308   4.084   3.837 -1.1362 -0.8807 -1.2781
  866MOL0     H19478   3.343   4.094   4.088 -0.1379 -0.7785 -0.7150
  866MOL0     H19479   3.291   4.261   4.089 -2.1895 -1.3258 -1.2639
  866MOL0     H19480   3.562   4.197   4.067 -0.8632 -0.6943 -1.3986
  866MOL0     H19481   3.522   4.210   3.906  3.5500 -0.8871  1.0789
  866MOL0     H19482   3.400   4.454   4.004 -1.0198 -1.0883  0.7067
  866MOL0     H19483   3.560   4.449   3.934  0.2223  2.7496  1.2891
  866MOL0     H19484   3.655   4.368   4.147 -0.6819 -0.6710  2.8123
  866MOL0     H19485   3.504   4.414   4.219  2.5683 -1.6505  0.5856
  866MOL0     H19486   3.525   4.657   4.137 -1.0319 -0.0465  0.0073
  866MOL0     H19487   3.680   4.607   4.063 -2.1628  2.3148  0.0471
  866MOL0     H19488   3.124   4.188   3.561 -1.0312 -0.1747  1.2636
  866MOL0     H19489   3.096   4.148   3.321  1.5596  0.5510  0.2825
  866MOL0     H19490   2.944   3.787   3.032  0.5416  1.4018 -1.2712
  866MOL0     H19491   2.908   3.702   2.820 -0.3950  0.3757  0.7999
  866MOL0     H19492   3.987   4.474   1.889 -0.9518  1.2255  4.2425
  866MOL0     H19493   4.025   4.561   1.653  1.3219 -0.6015  0.6078
  866MOL0     H19494   4.029   4.911   1.415  4.6794 -3.8164 -0.0712
  866MOL0     H19495   4.093   5.014   1.211 -0.1239  0.3241  0.2490
  866MOL0     H19496   4.070   5.132   1.032 -1.5641 -0.5429  0.2404
  866MOL0     H19497   4.163   4.992   0.964  0.1982 -1.4239 -2.1523
  866MOL0     H19498   4.138   5.222   0.846 -1.8784  0.6801 -1.3718
  866MOL0     H19499   3.982   5.174   0.791 -0.9888  0.8569  0.8441
  866MOL0     H19500   4.177   5.111   0.630 -1.2734 -0.3001  0.8403
  866MOL0     H19501   4.187   4.960   0.721 -0.2155 -1.7034 -0.9203
  866MOL0     H19502   3.936   4.915   0.669 -1.0657 -0.1842 -1.3199
  866MOL0     H19503   4.038   4.919   0.533 -1.8935  1.8354 -3.5824
  866MOL0     H19504   3.768   5.232   0.449  0.8809 -1.3530  0.6393
  866MOL0     H19505   3.829   4.769   0.999  2.3162 -0.4747  0.3562
  866MOL0     H19506   3.809   4.516   1.253 -0.6154 -1.0660 -1.6914
  866MOL0     H19507   3.662   4.614   1.252 -0.1870  0.9071  0.3737
  866MOL0     H19508   3.730   4.570   1.103 -1.1431  3.6624 -0.8998
  867MOL0     O19509   9.319   9.712   3.270  0.0726 -0.5624  0.4053
  867MOL0     C19510   9.265   9.609   3.306  0.3075 -0.2971 -0.6029
  867MOL0     O19511   9.144   9.551   3.260 -0.3607 -0.4488 -1.0707
  867MOL0     C19512   9.067   9.626   3.179 -0.0308 -0.2061 -0.1079
  867MOL0     C19513   8.993   9.553   3.083 -0.0606 -0.6687  0.8726
  867MOL0     C19514   8.895   9.612   3.003 -0.6879  0.3250 -0.7605
  867MOL0     C19515   8.877   9.752   3.003 -0.4378 -0.2992 -0.6217
  867MOL0     O19516   8.784   9.836   2.934 -0.2440  0.7185  0.1072
  867MOL0     C19517   8.687   9.770   2.850 -0.4867  0.8091 -0.5467
  867MOL0     C19518   8.568   9.734   2.937  0.0345 -0.5935  0.4694
  867MOL0     C19519   8.486   9.860   2.985 -0.3472  0.1584  0.5485
  867MOL0     C19520   8.370   9.824   3.067 -0.8190  0.9680  0.3475
  867MOL0     C19521   8.270   9.933   3.098 -0.6457  0.0658  0.7453
  867MOL0     C19522   8.132   9.876   3.135 -0.2122  0.3197 -1.3611
  867MOL0     C19523   8.047   9.989   3.197  0.8523  0.7511 -0.0176
  867MOL0     C19524   7.906   9.939   3.225 -0.4043 -0.9755  0.7941
  867MOL0     N19525   7.835  10.034   3.312  0.2901  0.6005  0.0072
  867MOL0     C19526   7.728  10.000   3.397 -0.5928 -1.2073 -0.3969
  867MOL0     C19527   7.678  10.114   3.447  0.7367 -0.1621  1.3484
  867MOL0     C19528   7.570  10.139   3.550 -0.5264 -0.1730 -0.2147
  867MOL0     C19529   7.521  10.284   3.535 -0.2124  0.1337  0.3089
  867MOL0     C19530   7.405  10.327   3.633  0.3631  0.0186  0.8250
  867MOL0     C19531   7.373  10.478   3.629  0.2895 -0.1744  0.6809
  867MOL0     O19532   7.433  10.561   3.725 -0.0321  0.3933 -0.3817
  867MOL0     C19533   7.361  10.626   3.819 -0.0216  0.2082 -1.5573
  867MOL0     C19534   7.255  10.703   3.788  0.4600  0.2270  0.7273
  867MOL0     C19535   7.171  10.761   3.888 -0.3136  0.7077 -1.0161
  867MOL0     C19536   7.061  10.851   3.853 -0.1004 -0.1456 -0.6537
  867MOL0     C19537   7.215  10.744   4.026 -0.4504 -0.1506 -0.3784
  867MOL0     C19538   7.138  10.797   4.147  1.4328 -0.2908  0.0683
  867MOL0     O19539   7.006  10.825   4.125 -0.1906  1.1328  0.5501
  867MOL0     C19540   6.937  10.871   4.228 -0.7764  1.2488 -0.9922
  867MOL0     C19541   6.958  10.834   4.362  0.0511 -0.5993 -0.0389
  867MOL0     C19542   6.879  10.895   4.464 -1.1539  0.2125 -0.3011
  867MOL0     C19543   6.796  10.997   4.434  1.5813 -0.2549  0.9866
  867MOL0     O19544   6.715  11.074   4.518  0.5060 -0.0094 -0.2771
  867MOL0     C19545   6.765  11.103   4.649  0.8819  0.2697  0.5369
  867MOL0     C19546   6.868  11.228   4.656 -0.1104  0.2602 -0.0054
  867MOL0     C19547   6.877  11.278   4.809  0.0296  0.0188  1.0625
  867MOL0     C19548   7.000  11.369   4.826  0.1746  1.0220  0.7728
  867MOL0     C19549   6.993  11.494   4.738  0.0273 -0.2180  0.0460
  867MOL0     C19550   6.900  11.609   4.791 -0.8809 -0.2970 -0.6223
  867MOL0     C19551   6.883  11.715   4.688  0.2850 -0.4565 -0.0942
  867MOL0     C19552   6.850  11.862   4.733 -0.0633 -0.6907  0.0919
  867MOL0    Cl19553   6.708  11.876   4.834 -0.0284  0.4195 -0.1934
  867MOL0     C19554   6.760  11.022   4.298 -0.0197  0.1438  0.6191
  867MOL0     C19555   6.834  10.962   4.195 -0.0221  0.1215 -0.8329
  867MOL0     O19556   7.204  10.805   4.251  0.0921 -0.0342 -0.2436
  867MOL0     C19557   7.333  10.671   4.059  0.4313  0.3921  0.6233
  867MOL0     C19558   7.394  10.602   3.954  0.4392 -0.1069 -0.6237
  867MOL0     N19559   7.757  10.214   3.399  0.3043  0.8753 -0.0871
  867MOL0     N19560   7.847  10.165   3.318  0.0119 -0.4539  0.3610
  867MOL0     C19561   8.955   9.837   3.097 -0.1243 -0.1302 -0.2791
  867MOL0     C19562   9.049   9.770   3.187  0.4186 -0.4148  0.1287
  867MOL0     C19563   9.341   9.527   3.396 -0.2183 -0.2525  0.0288
  867MOL0     C19564   9.390   9.403   3.350  0.4436  0.0472  0.7466
  867MOL0     C19565   9.470   9.335   3.427  0.2829 -0.0506 -0.2462
  867MOL0     C19566   9.503   9.371   3.560  0.7266  0.2792  0.6826
  867MOL0     O19567   9.591   9.287   3.624 -0.1735  0.2181  0.0114
  867MOL0     C19568   9.657   9.326   3.749  0.3456  0.7286  0.8352
  867MOL0     C19569   9.770   9.425   3.716 -1.0820  0.0830  0.3621
  867MOL0     C19570   9.865   9.345   3.626 -1.5438 -0.6528 -0.4128
  867MOL0     C19571   9.965   9.276   3.721 -1.3586 -0.3736  0.0122
  867MOL0     C19572  10.051   9.380   3.787  0.1408  0.4815 -0.0189
  867MOL0     C19573  10.105   9.474   3.844  0.4099  0.0660  0.2376
  867MOL0     C19574   9.450   9.493   3.612 -0.2660  0.2870  1.0360
  867MOL0     C19575   9.377   9.572   3.528 -0.1254  0.7516 -0.2632
  867MOL0     C19576   9.334   9.697   3.585  1.2678  0.1283  0.1367
  867MOL0     H19577   9.002   9.446   3.077  0.0769 -0.9602  4.1374
  867MOL0     H19578   8.838   9.541   2.943 -2.6528  0.1053  1.2255
  867MOL0     H19579   8.739   9.687   2.802  1.7371  1.1680  1.1025
  867MOL0     H19580   8.670   9.841   2.768  0.6873 -1.8094 -3.2722
  867MOL0     H19581   8.504   9.688   2.862 -1.4170  1.4931  0.3201
  867MOL0     H19582   8.598   9.667   3.018  2.4524 -0.1541  0.0023
  867MOL0     H19583   8.551   9.910   3.057 -0.8356  1.3791  0.1655
  867MOL0     H19584   8.454   9.929   2.906 -2.1124 -1.5098 -0.2688
  867MOL0     H19585   8.314   9.739   3.028  0.4212 -0.1325  0.8882
  867MOL0     H19586   8.414   9.781   3.158  0.9686  2.8007  0.4249
  867MOL0     H19587   8.256   9.995   3.009 -3.4402  0.0829  1.0935
  867MOL0     H19588   8.308   9.999   3.176 -0.0874  1.6179 -0.7838
  867MOL0     H19589   8.077   9.835   3.050 -1.9170  3.6490 -2.0200
  867MOL0     H19590   8.133   9.803   3.217 -2.4673 -0.6387 -2.1022
  867MOL0     H19591   8.041  10.075   3.130  0.1752 -0.6665 -1.8859
  867MOL0     H19592   8.099  10.030   3.284  2.3153 -0.6894 -0.1550
  867MOL0     H19593   7.848   9.925   3.133 -0.1233  0.4128  0.3864
  867MOL0     H19594   7.923   9.844   3.275 -3.1336 -1.7741  0.4032
  867MOL0     H19595   7.688   9.906   3.432  0.6143 -0.1726  4.5484
  867MOL0     H19596   7.607  10.123   3.651 -3.3260  0.7397  1.0551
  867MOL0     H19597   7.488  10.067   3.547 -0.4895 -0.3785  2.2094
  867MOL0     H19598   7.606  10.352   3.548 -0.5250  0.1856  2.2166
  867MOL0     H19599   7.489  10.300   3.431 -1.0261  0.2846  0.5826
  867MOL0     H19600   7.315  10.270   3.609  0.9722 -2.0132  2.9549
  867MOL0     H19601   7.439  10.311   3.736 -0.2144 -0.4903  0.9426
  867MOL0     H19602   7.405  10.521   3.533 -3.7593  1.9527  0.0664
  867MOL0     H19603   7.264  10.479   3.637  0.3590 -1.8899  3.0228
  867MOL0     H19604   7.228  10.709   3.683 -5.8625  0.5494  1.9670
  867MOL0     H19605   7.049  10.858   3.745  1.4542 -0.7731 -0.8997
  867MOL0     H19606   7.085  10.950   3.893  0.7037 -0.2625 -0.8303
  867MOL0     H19607   6.963  10.814   3.885 -1.2882  1.8358 -1.7811
  867MOL0     H19608   7.024  10.758   4.403 -0.3405  0.0740  1.9663
  867MOL0     H19609   6.925  10.902   4.562 -0.0629  1.5223 -0.8750
  867MOL0     H19610   6.680  11.139   4.707  0.8103  0.2763  0.4298
  867MOL0     H19611   6.806  11.010   4.689 -0.6955  0.3640  2.5011
  867MOL0     H19612   6.968  11.195   4.626  0.1286  0.3489  0.6735
  867MOL0     H19613   6.833  11.308   4.590 -0.7849 -1.6134 -2.0513
  867MOL0     H19614   6.901  11.194   4.876 -2.3893  0.5743  2.7482
  867MOL0     H19615   6.786  11.326   4.847 -0.0332  3.0616 -2.4158
  867MOL0     H19616   7.086  11.313   4.789 -2.1659 -1.7225 -0.8726
  867MOL0     H19617   7.016  11.397   4.931 -0.1837  1.4553  0.7160
  867MOL0     H19618   7.095  11.533   4.731 -0.5856  1.4313 -0.1691
  867MOL0     H19619   6.958  11.478   4.635 -1.6248  1.9184  0.2218
  867MOL0     H19620   6.941  11.670   4.872 -2.0798 -1.9218  1.3106
  867MOL0     H19621   6.802  11.571   4.820 -1.5034  1.1341 -0.7873
  867MOL0     H19622   6.807  11.680   4.619 -2.8059  2.1986  1.6638
  867MOL0     H19623   6.979  11.727   4.637 -0.1267  0.8910 -0.6173
  867MOL0     H19624   6.829  11.915   4.639  2.3617  0.1873 -0.0203
  867MOL0     H19625   6.942  11.903   4.774  1.3362 -1.9432 -1.6561
  867MOL0     H19626   6.684  11.095   4.271  0.1387 -0.4043 -1.4091
  867MOL0     H19627   6.824  10.981   4.088 -2.9882  0.7891 -0.5148
  867MOL0     H19628   7.375  10.658   4.158  2.2605  1.1686 -0.0130
  867MOL0     H19629   7.478  10.539   3.981 -1.0119 -2.4402 -1.3040
  867MOL0     H19630   8.942   9.945   3.102  0.7046 -0.0979  2.2017
  867MOL0     H19631   9.110   9.827   3.256  0.3239 -2.4549  2.0267
  867MOL0     H19632   9.369   9.374   3.247  2.8168 -0.0311  0.2369
  867MOL0     H19633   9.508   9.239   3.393  2.5186  0.6248  0.1701
  867MOL0     H19634   9.591   9.382   3.816 -0.1982  2.5170 -1.0734
  867MOL0     H19635   9.689   9.234   3.799 -3.6050 -0.2803  1.8281
  867MOL0     H19636   9.811   9.463   3.810 -0.1306 -0.1089  0.0277
  867MOL0     H19637   9.732   9.518   3.673  2.9484  1.8505  0.2144
  867MOL0     H19638   9.819   9.267   3.565 -0.1073 -2.6784  0.9637
  867MOL0     H19639   9.911   9.418   3.559 -0.9893  1.8655  2.4686
  867MOL0     H19640  10.020   9.194   3.676  1.1729  0.2106  1.8335
  867MOL0     H19641   9.912   9.232   3.805 -0.1832 -0.4140  0.7493
  867MOL0     H19642  10.182   9.535   3.887  0.9344 -1.0627  0.9455
  867MOL0     H19643   9.462   9.528   3.714  2.0752  0.4246  0.7590
  867MOL0     H19644   9.275   9.677   3.675  2.8271 -1.0128  0.9431
  867MOL0     H19645   9.429   9.738   3.620  0.0352  2.6946  0.7717
  867MOL0     H19646   9.286   9.772   3.521  0.4022 -0.8906 -0.4322
  868MOL0     O19647   4.030   1.050   2.019  0.7585 -1.3512  0.2617
  868MOL0     C19648   3.965   1.137   1.967  0.3971  0.2257  0.6137
  868MOL0     O19649   4.011   1.254   1.922 -0.0667  0.0486 -0.4179
  868MOL0     C19650   4.141   1.297   1.945  0.4629  0.1150 -1.0464
  868MOL0     C19651   4.250   1.275   1.857  0.7072  0.5095  0.2130
  868MOL0     C19652   4.374   1.317   1.882  0.1315  0.0629  0.2589
  868MOL0     C19653   4.405   1.386   2.000 -0.4000 -0.2944  0.9379
  868MOL0     O19654   4.539   1.419   2.020  0.1101 -0.5638 -0.4765
  868MOL0     C19655   4.564   1.507   2.123 -0.2118 -0.0366  0.0669
  868MOL0     C19656   4.699   1.582   2.106  0.2934 -0.2388 -0.8867
  868MOL0     C19657   4.686   1.693   2.003 -0.3854 -0.2092  0.4916
  868MOL0     C19658   4.717   1.629   1.860  0.0819  0.3705 -0.7558
  868MOL0     C19659   4.709   1.723   1.748  0.9634 -0.6720  0.3247
  868MOL0     C19660   4.561   1.781   1.727 -0.4207  0.5714  0.2846
  868MOL0     C19661   4.464   1.675   1.670 -0.3819 -0.6594 -0.4126
  868MOL0     C19662   4.323   1.749   1.653 -0.1906  0.1337 -0.1420
  868MOL0     N19663   4.221   1.671   1.577 -0.1706 -0.2379 -0.2108
  868MOL0     C19664   4.177   1.551   1.600 -0.1672  0.5838 -0.2330
  868MOL0     C19665   4.065   1.540   1.521 -0.4214  0.8082  0.5459
  868MOL0     C19666   3.968   1.427   1.510 -0.0753 -0.4049 -0.1201
  868MOL0     C19667   3.827   1.482   1.553 -0.3060 -0.1351  0.1162
  868MOL0     C19668   3.709   1.382   1.529 -0.9234  0.2617  0.5498
  868MOL0     C19669   3.577   1.457   1.562  0.2287 -0.2994  0.4660
  868MOL0     O19670   3.469   1.430   1.473  0.5003  0.6371 -0.5355
  868MOL0     C19671   3.342   1.426   1.521 -0.1245 -0.1172  0.0134
  868MOL0     C19672   3.289   1.470   1.641 -0.2922 -0.4052  0.2066
  868MOL0     C19673   3.153   1.444   1.670  0.3138 -0.5940 -0.4945
  868MOL0     C19674   3.095   1.497   1.809 -0.6609  0.6654  0.5111
  868MOL0     C19675   3.074   1.365   1.587 -0.5845  0.0387  0.1757
  868MOL0     C19676   2.936   1.345   1.610 -0.1427  0.5091 -0.5549
  868MOL0     O19677   2.850   1.442   1.655 -0.1239 -0.0366 -0.0319
  868MOL0     C19678   2.716   1.400   1.671 -0.6801 -0.2858 -0.1201
  868MOL0     C19679   2.687   1.284   1.752  0.1860  0.7081 -0.5750
  868MOL0     C19680   2.556   1.256   1.791  0.4406  0.8037  0.1944
  868MOL0     C19681   2.448   1.339   1.755 -0.3838 -0.4659 -0.2272
  868MOL0     O19682   2.326   1.306   1.811 -0.1671 -1.3977  0.0728
  868MOL0     C19683   2.207   1.379   1.766  0.7343 -0.2142 -0.2591
  868MOL0     C19684   2.094   1.331   1.843  0.3953  0.7372  0.3813
  868MOL0     C19685   1.956   1.401   1.816  0.2527  0.8085 -0.4324
  868MOL0     C19686   1.949   1.552   1.859 -0.6096  0.3674 -0.5656
  868MOL0     C19687   1.809   1.608   1.882  0.4490 -0.5268 -0.5972
  868MOL0     C19688   1.714   1.540   1.986  0.0733  0.3604  0.0886
  868MOL0     C19689   1.574   1.600   1.987  0.4409  0.0438  0.3211
  868MOL0     C19690   1.559   1.751   2.020 -0.0494  0.1881  0.2818
  868MOL0    Cl19691   1.391   1.798   2.060 -0.0693  0.1420  0.4866
  868MOL0     C19692   2.478   1.441   1.658  0.1315 -0.1907 -0.1018
  868MOL0     C19693   2.606   1.466   1.615  0.2459  0.6100  0.4240
  868MOL0     O19694   2.903   1.229   1.585 -0.0747 -0.5219 -0.0717
  868MOL0     C19695   3.132   1.307   1.474  0.3135 -1.2697  0.5341
  868MOL0     C19696   3.255   1.353   1.435  0.2254 -0.4305 -0.1728
  868MOL0     N19697   4.049   1.664   1.461 -0.0010 -0.0422 -0.3414
  868MOL0     N19698   4.154   1.743   1.487 -0.1381 -0.1770  0.0922
  868MOL0     C19699   4.299   1.403   2.093 -0.9680 -0.3579  0.4661
  868MOL0     C19700   4.169   1.367   2.063 -0.0038  0.0832  0.9099
  868MOL0     C19701   3.822   1.093   1.928 -0.5474 -0.3412 -0.5465
  868MOL0     C19702   3.736   1.208   1.908 -0.6989  0.9560  0.2409
  868MOL0     C19703   3.613   1.188   1.852  0.3946 -0.1534 -0.2319
  868MOL0     C19704   3.554   1.059   1.848 -0.8818 -0.0731 -0.5419
  868MOL0     O19705   3.422   1.028   1.825  1.0273  0.1740 -0.5118
  868MOL0     C19706   3.331   1.134   1.789  0.3025 -1.2795 -0.1927
  868MOL0     C19707   3.179   1.096   1.837 -0.9088 -0.8236 -0.1010
  868MOL0     C19708   3.121   0.970   1.772  0.0640 -0.1326  0.2313
  868MOL0     C19709   2.976   0.964   1.815  0.0322  0.7481  0.0099
  868MOL0     C19710   2.909   0.851   1.751 -0.5602 -0.2581  0.5770
  868MOL0     C19711   2.851   0.772   1.678  1.1591  0.1691  0.1759
  868MOL0     C19712   3.643   0.951   1.870 -0.1344 -0.1657  0.3138
  868MOL0     C19713   3.772   0.964   1.917 -0.9385  0.2018  0.5324
  868MOL0     C19714   3.856   0.846   1.913 -0.7137 -0.6450 -0.9662
  868MOL0     H19715   4.233   1.226   1.762  3.9789  2.8535 -1.7931
  868MOL0     H19716   4.449   1.294   1.807 -0.1011 -2.5252  0.7531
  868MOL0     H19717   4.570   1.451   2.217  0.2263  0.1563  0.1530
  868MOL0     H19718   4.490   1.587   2.138 -1.4374 -1.1050 -0.0905
  868MOL0     H19719   4.712   1.631   2.203 -0.6666 -1.2047 -0.2467
  868MOL0     H19720   4.785   1.516   2.093  1.3238  1.2924 -2.1269
  868MOL0     H19721   4.584   1.732   2.010 -0.1226  0.5828 -0.0217
  868MOL0     H19722   4.762   1.772   2.004  0.4639 -1.0104  1.7722
  868MOL0     H19723   4.815   1.581   1.850 -0.3445 -0.8726  0.6552
  868MOL0     H19724   4.642   1.551   1.845 -1.9256  1.9925  0.4056
  868MOL0     H19725   4.733   1.669   1.656 -0.2175  0.9241 -0.9649
  868MOL0     H19726   4.794   1.791   1.761  1.6944 -1.4979 -0.0090
  868MOL0     H19727   4.524   1.839   1.812 -0.8972 -0.7938  1.0376
  868MOL0     H19728   4.573   1.846   1.640  1.5093  0.1800  0.2347
  868MOL0     H19729   4.450   1.602   1.750 -0.3951  1.7028  1.8665
  868MOL0     H19730   4.505   1.630   1.579 -0.8403  0.1201 -1.0199
  868MOL0     H19731   4.287   1.774   1.753  4.3564  0.7259  1.6027
  868MOL0     H19732   4.345   1.844   1.604  0.6839  0.6290  1.1425
  868MOL0     H19733   4.212   1.480   1.673  2.9644  2.9462  0.7911
  868MOL0     H19734   4.002   1.344   1.572  0.6155  0.6241  0.9228
  868MOL0     H19735   3.967   1.400   1.404  0.2696 -0.5949 -0.0745
  868MOL0     H19736   3.831   1.512   1.658 -0.0325 -3.5448  1.1863
  868MOL0     H19737   3.809   1.573   1.495  0.2485 -1.0065 -1.4654
  868MOL0     H19738   3.718   1.364   1.421 -0.6821  2.1103  0.2235
  868MOL0     H19739   3.704   1.288   1.585 -0.9566 -1.3491 -2.0173
  868MOL0     H19740   3.552   1.431   1.665 -0.1124 -1.1247  0.1767
  868MOL0     H19741   3.585   1.566   1.577  0.2177 -0.1397 -0.6239
  868MOL0     H19742   3.341   1.522   1.721 -1.4336  2.2142 -0.6691
  868MOL0     H19743   3.013   1.567   1.793  1.1869  3.4491  2.2026
  868MOL0     H19744   3.177   1.559   1.848 -0.2775  1.8930 -2.0208
  868MOL0     H19745   3.068   1.407   1.864  2.0247 -0.6468 -0.1407
  868MOL0     H19746   2.774   1.225   1.780 -0.0723  1.4492  2.0276
  868MOL0     H19747   2.540   1.171   1.857 -1.1369  0.2318 -0.8585
  868MOL0     H19748   2.216   1.487   1.781 -0.5697  0.2281 -2.3423
  868MOL0     H19749   2.188   1.370   1.659  0.4749 -2.0808 -0.0929
  868MOL0     H19750   2.084   1.225   1.817 -0.4381  0.4195  1.8957
  868MOL0     H19751   2.115   1.338   1.950 -0.0602  0.8956  0.4645
  868MOL0     H19752   1.876   1.346   1.866  2.5992 -1.7458  0.7504
  868MOL0     H19753   1.934   1.395   1.709  2.0762  0.5381 -0.8323
  868MOL0     H19754   1.996   1.606   1.777 -2.4502 -0.9044 -2.5736
  868MOL0     H19755   2.004   1.556   1.953 -0.0235 -3.5145 -0.5881
  868MOL0     H19756   1.831   1.708   1.921 -1.6711 -0.1997 -0.1212
  868MOL0     H19757   1.746   1.603   1.793 -4.0847 -2.6394  2.3109
  868MOL0     H19758   1.753   1.547   2.088 -0.7823  0.2649  0.4229
  868MOL0     H19759   1.692   1.436   1.961  2.4614  0.0537 -1.0610
  868MOL0     H19760   1.529   1.533   2.061 -0.5972 -1.3019 -1.4509
  868MOL0     H19761   1.527   1.575   1.892 -0.9266 -0.2157  1.0364
  868MOL0     H19762   1.592   1.812   1.935 -0.1012  1.5694  1.2125
  868MOL0     H19763   1.617   1.786   2.106 -0.1805  0.1804  0.3739
  868MOL0     H19764   2.398   1.508   1.627 -0.0092  1.6361  3.5538
  868MOL0     H19765   2.627   1.547   1.545  0.0912  1.0303  0.8549
  868MOL0     H19766   3.080   1.251   1.398  0.2343 -1.2005  0.5367
  868MOL0     H19767   3.292   1.328   1.336  0.0981  2.8601 -1.1674
  868MOL0     H19768   4.314   1.444   2.192  2.1320 -0.4261  0.1122
  868MOL0     H19769   4.080   1.383   2.123 -2.8224 -0.7703 -2.6786
  868MOL0     H19770   3.773   1.309   1.928 -0.2651  1.1467 -1.3780
  868MOL0     H19771   3.545   1.268   1.823  1.1370  0.3992 -0.4704
  868MOL0     H19772   3.346   1.225   1.847 -5.9161  0.1693 -0.1229
  868MOL0     H19773   3.328   1.161   1.683 -2.8039  1.2548  0.3635
  868MOL0     H19774   3.112   1.181   1.825  2.4424  1.8743 -1.0615
  868MOL0     H19775   3.176   1.085   1.946  0.4011 -0.9971 -0.0642
  868MOL0     H19776   3.128   0.976   1.663 -3.9224  2.0891 -0.1069
  868MOL0     H19777   3.169   0.880   1.812  0.8850 -0.2708 -1.0004
  868MOL0     H19778   2.931   1.057   1.779 -0.5875  0.0093 -1.1687
  868MOL0     H19779   2.964   0.948   1.923 -0.5795 -0.6606 -0.2510
  868MOL0     H19780   2.803   0.698   1.619 -1.7146  2.3324 -0.4359
  868MOL0     H19781   3.593   0.854   1.868  3.8913 -2.4563 -0.1063
  868MOL0     H19782   3.804   0.750   1.907  1.5138 -1.8725 -2.0153
  868MOL0     H19783   3.927   0.851   1.830  0.0563 -1.9084 -0.4190
  868MOL0     H19784   3.918   0.835   2.003  0.0333  0.4436 -1.3217
  869MOL0     O19785   4.777   7.537   9.711 -0.2892  0.7614  0.3636
  869MOL0     C19786   4.684   7.547   9.627  1.6141  0.0569  0.2438
  869MOL0     O19787   4.646   7.673   9.567  0.2058 -0.1606  0.5346
  869MOL0     C19788   4.680   7.799   9.619 -0.0562 -0.1557  0.0037
  869MOL0     C19789   4.666   7.904   9.533  0.3079 -0.0812  0.6535
  869MOL0     C19790   4.701   8.031   9.576  1.0203 -0.7795  0.2997
  869MOL0     C19791   4.740   8.054   9.707  0.4949  0.4095  0.2287
  869MOL0     O19792   4.769   8.188   9.741 -0.6710  0.0709  0.3212
  869MOL0     C19793   4.697   8.236   9.853 -0.7666 -0.1729 -0.2578
  869MOL0     C19794   4.789   8.226   9.975  0.1302  0.0121  0.3036
  869MOL0     C19795   4.773   8.347  10.072 -0.1994 -0.4291 -0.0159
  869MOL0     C19796   4.879   8.330  10.180 -0.3673 -0.8505  0.8742
  869MOL0     C19797   4.852   8.412  10.310 -0.2613 -0.2714  0.0394
  869MOL0     C19798   4.835   8.562  10.295 -0.8131  0.5094 -0.1493
  869MOL0     C19799   4.788   8.632  10.416  0.8590  0.6466  0.4124
  869MOL0     C19800   4.887   8.636  10.523  0.1314  0.2458 -0.8299
  869MOL0     N19801   4.854   8.716  10.645 -0.1697 -0.7520 -0.4160
  869MOL0     C19802   4.737   8.713  10.714 -0.1941  0.2180  0.2313
  869MOL0     C19803   4.737   8.820  10.792 -0.2560  0.2286  0.1704
  869MOL0     C19804   4.610   8.859  10.875 -0.4087 -0.5062  0.5004
  869MOL0     C19805   4.663   8.947  10.990  0.2837 -0.9694  0.0265
  869MOL0     C19806   4.571   8.998  11.101 -0.1710  0.0229  0.4454
  869MOL0     C19807   4.488   9.119  11.060  0.3639 -0.2664 -0.0032
  869MOL0     O19808   4.567   9.242  11.062  0.1438 -0.6838 -0.0673
  869MOL0     C19809   4.501   9.355  11.045 -0.4089 -0.4779 -0.6390
  869MOL0     C19810   4.551   9.479  11.096  0.0137  0.5007 -0.4956
  869MOL0     C19811   4.480   9.598  11.092 -0.2624  1.3837 -0.4812
  869MOL0     C19812   4.555   9.712  11.157 -0.5076 -0.6107  0.4372
  869MOL0     C19813   4.365   9.612  11.016 -0.3068 -0.3368  0.0626
  869MOL0     C19814   4.299   9.747  10.992 -0.3117 -0.2019 -0.0055
  869MOL0     O19815   4.356   9.859  11.042  0.1393  0.0593 -0.4228
  869MOL0     C19816   4.333   9.988  11.005 -0.3858 -0.9051 -0.0731
  869MOL0     C19817   4.363  10.099  11.089  0.2815  0.3968 -0.8836
  869MOL0     C19818   4.363  10.227  11.040 -0.5825  0.1588  0.3809
  869MOL0     C19819   4.344  10.259  10.902  0.0982 -0.5928 -0.1425
  869MOL0     O19820   4.350  10.390  10.857 -0.0195 -0.0878 -0.5250
  869MOL0     C19821   4.441  10.416  10.753  0.3768 -0.3361  0.1581
  869MOL0     C19822   4.493  10.559  10.762  0.5189  1.1285  0.2117
  869MOL0     C19823   4.395  10.686  10.759 -0.0691 -0.0420 -1.1186
  869MOL0     C19824   4.329  10.692  10.620  1.1464  0.6024 -0.3821
  869MOL0     C19825   4.209  10.795  10.609  0.4040 -0.4056  0.3871
  869MOL0     C19826   4.261  10.934  10.610 -0.5691 -0.4484  0.2163
  869MOL0     C19827   4.159  11.026  10.537  0.4605 -0.1910 -0.9161
  869MOL0     C19828   4.209  11.165  10.503 -0.0765 -0.4411  0.4975
  869MOL0    Cl19829   4.074  11.268  10.443 -0.0111  0.6646 -0.1968
  869MOL0     C19830   4.322  10.156  10.816 -0.2141  0.0800 -0.1363
  869MOL0     C19831   4.324  10.025  10.870 -0.2953  0.1768  0.6955
  869MOL0     O19832   4.193   9.743  10.936  0.0194  0.1890  0.5905
  869MOL0     C19833   4.312   9.496  10.965  0.2567  0.5125 -0.4026
  869MOL0     C19834   4.382   9.372  10.978  0.8770 -0.2911  0.9287
  869MOL0     N19835   4.844   8.898  10.748 -0.1799  0.4992  0.0117
  869MOL0     N19836   4.922   8.832  10.667  0.1894 -0.2196  0.3380
  869MOL0     C19837   4.760   7.948   9.797  0.6583 -0.1710 -0.0424
  869MOL0     C19838   4.730   7.823   9.753 -0.3718  0.1484 -0.2584
  869MOL0     C19839   4.605   7.427   9.584 -0.1431  0.5664 -0.4673
  869MOL0     C19840   4.663   7.302   9.624 -0.1751 -0.0971 -0.7666
  869MOL0     C19841   4.594   7.178   9.600 -0.4247 -0.6107  0.6223
  869MOL0     C19842   4.476   7.175   9.537  0.2479 -0.0844  1.1804
  869MOL0     O19843   4.392   7.065   9.515  0.4115  0.3343 -0.3450
  869MOL0     C19844   4.458   6.979   9.417  0.5345 -0.2612 -0.1181
  869MOL0     C19845   4.477   6.839   9.469 -0.1051 -0.1729  0.5882
  869MOL0     C19846   4.348   6.772   9.504 -0.2819 -0.0779  0.2364
  869MOL0     C19847   4.354   6.628   9.553 -0.1499 -0.7161  0.3337
  869MOL0     C19848   4.420   6.609   9.681  0.7542  0.3353  0.3561
  869MOL0     C19849   4.479   6.599   9.787 -0.2928  0.6566 -0.5358
  869MOL0     C19850   4.418   7.295   9.493 -0.7330  0.6688  0.0511
  869MOL0     C19851   4.484   7.422   9.514 -0.7642  0.2968  1.1653
  869MOL0     C19852   4.414   7.551   9.465 -0.0388  0.6563  0.0344
  869MOL0     H19853   4.627   7.893   9.432  1.4957 -0.4065  0.2181
  869MOL0     H19854   4.688   8.111   9.503 -0.5943 -1.6790 -0.4631
  869MOL0     H19855   4.616   8.164   9.864  1.8666 -3.1875  1.1263
  869MOL0     H19856   4.664   8.338   9.833  1.5922  1.2025  2.0762
  869MOL0     H19857   4.766   8.142  10.040 -4.0247  0.5438 -0.2171
  869MOL0     H19858   4.894   8.213   9.946 -0.8042  0.5495 -4.1623
  869MOL0     H19859   4.787   8.438  10.013 -3.0906 -0.8703 -1.5548
  869MOL0     H19860   4.677   8.334  10.122  1.2531 -2.0436  2.5268
  869MOL0     H19861   4.889   8.228  10.217 -0.1480 -1.0053  0.4020
  869MOL0     H19862   4.978   8.351  10.138 -0.6419 -1.1982  0.0398
  869MOL0     H19863   4.938   8.392  10.375 -0.9951 -0.9625  0.8321
  869MOL0     H19864   4.774   8.355  10.361  1.1453 -1.1519  1.2877
  869MOL0     H19865   4.928   8.610  10.262 -0.4931  0.9157  1.3026
  869MOL0     H19866   4.759   8.582  10.218 -0.1289  0.0645 -0.9614
  869MOL0     H19867   4.691   8.586  10.438  0.7478  1.3042  1.3289
  869MOL0     H19868   4.763   8.734  10.385 -1.0955  0.8195  2.2947
  869MOL0     H19869   4.902   8.532  10.554 -1.3576  0.0015 -0.8216
  869MOL0     H19870   4.985   8.674  10.495  0.7044 -1.5660 -1.4087
  869MOL0     H19871   4.666   8.631  10.705  1.1016 -0.9709  0.4827
  869MOL0     H19872   4.568   8.764  10.910 -2.5382 -0.4595 -1.7041
  869MOL0     H19873   4.538   8.913  10.813  1.7139  0.7430 -0.9952
  869MOL0     H19874   4.739   8.892  11.047 -2.1458 -3.6234  0.9350
  869MOL0     H19875   4.714   9.031  10.942 -2.8550  0.4362 -1.0849
  869MOL0     H19876   4.505   8.915  11.129  0.9285 -0.5329  1.5274
  869MOL0     H19877   4.633   9.017  11.189  0.9313 -1.2709 -0.0147
  869MOL0     H19878   4.447   9.115  10.959  0.1707 -1.0577  0.0965
  869MOL0     H19879   4.407   9.120  11.134  0.2571 -2.6389  0.0102
  869MOL0     H19880   4.654   9.474  11.131 -0.1531 -1.0157 -0.1627
  869MOL0     H19881   4.497   9.767  11.232 -1.1761  0.7852 -1.0344
  869MOL0     H19882   4.582   9.781  11.077  0.9878 -2.1309 -0.4372
  869MOL0     H19883   4.655   9.693  11.196  0.5922 -0.5371 -2.1509
  869MOL0     H19884   4.392  10.082  11.192  2.1455  0.4259 -1.3769
  869MOL0     H19885   4.395  10.314  11.097  2.0244  0.5774 -1.5498
  869MOL0     H19886   4.530  10.355  10.771 -0.7593 -1.9513  0.5219
  869MOL0     H19887   4.406  10.392  10.652  1.2855 -2.4859  0.3025
  869MOL0     H19888   4.552  10.559  10.854 -1.6172  0.6014  1.6533
  869MOL0     H19889   4.570  10.558  10.684  0.5445  3.1581  0.1685
  869MOL0     H19890   4.454  10.774  10.785  1.5650 -1.1620 -0.8726
  869MOL0     H19891   4.321  10.679  10.840  0.4105  1.4089 -0.5298
  869MOL0     H19892   4.287  10.594  10.595  0.2189  0.9900 -0.3797
  869MOL0     H19893   4.398  10.716  10.538 -1.6643  1.3582 -2.7114
  869MOL0     H19894   4.152  10.767  10.520  1.2409 -1.4647  0.1612
  869MOL0     H19895   4.136  10.794  10.690  0.7969  2.1201  0.8606
  869MOL0     H19896   4.357  10.940  10.557 -1.5852  0.0849 -1.6692
  869MOL0     H19897   4.275  10.977  10.709 -1.7388 -0.8996  0.5945
  869MOL0     H19898   4.065  11.034  10.592 -0.5459 -2.9961 -2.0071
  869MOL0     H19899   4.138  10.978  10.440 -2.2722 -1.5296  0.2437
  869MOL0     H19900   4.283  11.150  10.423  0.5279  0.0035  0.9681
  869MOL0     H19901   4.253  11.219  10.588  2.0570 -0.7936 -0.3112
  869MOL0     H19902   4.307  10.160  10.708  1.0301 -0.8714 -0.3695
  869MOL0     H19903   4.314   9.937  10.808  2.6027  0.5810 -0.4886
  869MOL0     H19904   4.220   9.478  10.911 -0.1771 -1.2536  0.8511
  869MOL0     H19905   4.335   9.279  10.946 -1.0101 -0.2327  3.1962
  869MOL0     H19906   4.797   7.971   9.896  0.1670 -0.5378  0.2276
  869MOL0     H19907   4.734   7.737   9.819  1.1163 -0.0076 -0.5160
  869MOL0     H19908   4.750   7.307   9.689 -0.3866  2.1344 -0.5913
  869MOL0     H19909   4.630   7.083   9.638 -2.8870 -0.9390  2.2908
  869MOL0     H19910   4.390   6.986   9.332  3.1170 -0.7784 -2.3496
  869MOL0     H19911   4.553   7.018   9.380  0.0692 -1.7056 -3.1287
  869MOL0     H19912   4.546   6.857   9.552 -0.0313 -0.2964  0.5555
  869MOL0     H19913   4.528   6.797   9.382 -0.0092  1.7296 -0.3097
  869MOL0     H19914   4.305   6.844   9.574  0.9424 -0.8920  1.9034
  869MOL0     H19915   4.279   6.780   9.419 -0.3522 -1.0747  0.1918
  869MOL0     H19916   4.396   6.562   9.476 -2.6919 -0.9341 -1.0229
  869MOL0     H19917   4.255   6.583   9.566  0.0429 -1.9836 -2.0603
  869MOL0     H19918   4.528   6.585   9.882 -0.8960 -3.8655 -0.7054
  869MOL0     H19919   4.318   7.296   9.451 -0.7292  0.8410  0.0467
  869MOL0     H19920   4.472   7.593   9.382  1.7515  0.9359  1.3612
  869MOL0     H19921   4.313   7.521   9.438  0.3031 -0.2116 -0.3051
  869MOL0     H19922   4.415   7.635   9.536  3.4951 -1.2085  2.5179
  870MOL0     O19923   9.128   1.732   9.843  1.0880  0.4362 -0.0117
  870MOL0     C19924   9.046   1.811   9.888  0.6262 -0.1880 -0.7620
  870MOL0     O19925   9.051   1.859  10.017  0.0704  0.4079  0.6483
  870MOL0     C19926   9.177   1.865  10.069 -0.2596  1.3889 -0.1876
  870MOL0     C19927   9.284   1.930   9.998  0.3679  0.2472  0.0729
  870MOL0     C19928   9.415   1.924  10.033 -0.6374  0.6886 -0.5192
  870MOL0     C19929   9.448   1.861  10.158  0.0706  0.5983  0.4017
  870MOL0     O19930   9.577   1.839  10.216  0.6778 -0.7213 -0.0248
  870MOL0     C19931   9.679   1.812  10.106  0.2855 -0.2976  0.0895
  870MOL0     C19932   9.801   1.742  10.168 -0.4652 -0.2700 -0.6593
  870MOL0     C19933   9.902   1.833  10.243 -0.5926  1.0368  0.1628
  870MOL0     C19934  10.008   1.750  10.315 -0.4472 -0.3075  0.6919
  870MOL0     C19935  10.123   1.837  10.375  1.2439 -1.3786 -0.1944
  870MOL0     C19936  10.201   1.765  10.486 -0.3297 -0.3484 -0.1045
  870MOL0     C19937  10.299   1.860  10.566  1.3789  0.5316  0.7667
  870MOL0     C19938  10.365   1.786  10.683  0.3352  0.5242 -0.1136
  870MOL0     N19939  10.470   1.689  10.645 -0.1732  0.4667 -0.0970
  870MOL0     C19940  10.582   1.720  10.571 -0.1907  0.6411  0.4095
  870MOL0     C19941  10.670   1.622  10.597 -0.9028  0.3692 -0.1693
  870MOL0     C19942  10.813   1.626  10.541 -0.0804 -0.0296 -1.0598
  870MOL0     C19943  10.902   1.519  10.618 -0.6616  0.0485  0.6890
  870MOL0     C19944  11.041   1.541  10.546  1.4239  0.1254  0.1565
  870MOL0     C19945  11.152   1.468  10.615 -0.1371  0.3411  0.0839
  870MOL0     O19946  11.196   1.527  10.732  0.0338  0.2488 -0.8945
  870MOL0     C19947  11.318   1.480  10.783 -0.7807  0.1366  0.3894
  870MOL0     C19948  11.392   1.369  10.744 -0.1501  0.9059 -0.9254
  870MOL0     C19949  11.519   1.336  10.806  0.4623 -0.7991  0.3411
  870MOL0     C19950  11.599   1.215  10.758 -0.1394 -0.1309  1.2025
  870MOL0     C19951  11.573   1.426  10.906 -0.1056  0.6736  0.3470
  870MOL0     C19952  11.699   1.406  10.989 -0.0653 -0.0614 -0.1476
  870MOL0     O19953  11.734   1.500  11.080 -0.3069  0.0395  1.1151
  870MOL0     C19954  11.847   1.496  11.160  0.8509  0.6320 -0.7732
  870MOL0     C19955  11.837   1.526  11.292 -0.6732 -0.0405 -0.0551
  870MOL0     C19956  11.945   1.513  11.383 -0.2185  0.2263  0.2565
  870MOL0     C19957  12.068   1.467  11.340  0.6376  0.0214  0.8549
  870MOL0     O19958  12.175   1.457  11.419 -0.1435  0.2788 -0.0604
  870MOL0     C19959  12.213   1.561  11.506 -1.0006  0.3923 -0.9485
  870MOL0     C19960  12.313   1.510  11.621  0.1879  0.6122  1.0952
  870MOL0     C19961  12.274   1.538  11.755 -0.3544 -0.1062  0.4528
  870MOL0     C19962  12.300   1.419  11.853 -0.5502 -0.3506  0.0434
  870MOL0     C19963  12.218   1.296  11.826  0.2942 -0.0460  0.8025
  870MOL0     C19964  12.077   1.296  11.874  0.5817 -0.0486  0.1636
  870MOL0     C19965  12.063   1.290  12.027 -0.0723  0.3444 -0.2282
  870MOL0     C19966  11.916   1.333  12.088 -0.3872  0.3946  0.3562
  870MOL0    Cl19967  11.767   1.261  12.021 -0.0484  0.2667 -0.0260
  870MOL0     C19968  12.081   1.462  11.198  0.0909 -0.2863 -0.0803
  870MOL0     C19969  11.973   1.475  11.110 -0.0912  0.9521 -0.6436
  870MOL0     O19970  11.761   1.307  10.973 -0.2853  0.3763 -0.1643
  870MOL0     C19971  11.496   1.543  10.927  0.2593 -0.2688  0.3259
  870MOL0     C19972  11.372   1.569  10.864 -0.3710  0.8949 -0.2058
  870MOL0     N19973  10.607   1.529  10.690 -0.0384 -0.3859  0.0360
  870MOL0     N19974  10.494   1.573  10.718 -0.0715  0.3408 -0.1905
  870MOL0     C19975   9.347   1.800  10.229  0.0186  0.0312  0.0941
  870MOL0     C19976   9.208   1.795  10.180 -0.6535  0.2724 -0.3235
  870MOL0     C19977   8.935   1.856   9.815 -0.8127  0.1040 -0.0276
  870MOL0     C19978   8.822   1.906   9.879 -0.6381  0.2275  0.8619
  870MOL0     C19979   8.698   1.933   9.820 -0.0947  0.2540  0.0910
  870MOL0     C19980   8.687   1.919   9.679 -1.0905 -0.1027  0.7064
  870MOL0     O19981   8.565   1.938   9.612 -0.7829 -0.5856 -0.4660
  870MOL0     C19982   8.461   2.013   9.672 -0.1165  0.8382 -0.2049
  870MOL0     C19983   8.348   2.009   9.578  0.7941 -0.5562  0.1447
  870MOL0     C19984   8.277   1.876   9.564  0.2818  0.3702 -0.3799
  870MOL0     C19985   8.123   1.897   9.532  0.2847 -0.4920 -0.1137
  870MOL0     C19986   8.105   1.956   9.399  0.8728 -0.0897  0.8636
  870MOL0     C19987   8.129   2.008   9.290  0.5307 -0.5133 -0.0001
  870MOL0     C19988   8.798   1.879   9.604  0.5498 -0.2712  0.4327
  870MOL0     C19989   8.925   1.858   9.666 -0.0764  0.3679  0.0765
  870MOL0     C19990   9.039   1.818   9.582 -0.4242 -0.6539  0.1093
  870MOL0     H19991   9.249   1.992   9.916 -2.5042 -2.3873 -0.8900
  870MOL0     H19992   9.487   1.974   9.970  0.9476 -1.3569 -0.4332
  870MOL0     H19993   9.713   1.905  10.060 -1.0309  0.0799 -0.1397
  870MOL0     H19994   9.630   1.748  10.033  0.6267  0.3205 -0.6909
  870MOL0     H19995   9.769   1.679  10.251 -3.0480 -0.8965 -2.0091
  870MOL0     H19996   9.850   1.677  10.095  1.2125 -0.4973  0.6210
  870MOL0     H19997   9.962   1.879  10.165  2.8024 -3.6638 -0.4372
  870MOL0     H19998   9.851   1.899  10.314  2.3568  1.7018  1.8320
  870MOL0     H19999   9.960   1.685  10.388 -1.1769 -0.1149  0.3872
  870MOL0     H20000  10.057   1.678  10.248  2.3088  2.5348 -0.6101
  870MOL0     H20001  10.077   1.922  10.427  0.5982 -0.7497 -1.7338
  870MOL0     H20002  10.195   1.876  10.302 -0.1069  2.3913  0.2450
  870MOL0     H20003  10.132   1.724  10.560  0.1968  0.4884  0.8704
  870MOL0     H20004  10.247   1.679  10.436 -1.1421 -1.9363  1.7496
  870MOL0     H20005  10.238   1.940  10.606 -1.2656 -1.0820  0.2066
  870MOL0     H20006  10.375   1.904  10.500 -0.4899 -0.0191 -1.9520
  870MOL0     H20007  10.405   1.860  10.752  0.6836 -0.5143  0.8291
  870MOL0     H20008  10.288   1.732  10.739 -0.5431  3.3381  1.5795
  870MOL0     H20009  10.569   1.802  10.501 -0.7552 -0.7944 -1.2525
  870MOL0     H20010  10.849   1.729  10.551 -0.4344  0.0219 -0.2024
  870MOL0     H20011  10.806   1.602  10.435  5.0460 -0.2792 -1.6213
  870MOL0     H20012  10.918   1.538  10.724  0.0664  1.6978  0.3103
  870MOL0     H20013  10.868   1.416  10.602 -0.4500  0.2219 -1.1167
  870MOL0     H20014  11.041   1.504  10.443  2.2104  0.4207  0.0417
  870MOL0     H20015  11.071   1.646  10.554 -0.1396  0.4644  2.4576
  870MOL0     H20016  11.109   1.373  10.646 -2.3337  0.3269 -2.7001
  870MOL0     H20017  11.241   1.456  10.553  1.3749  2.3107  1.6945
  870MOL0     H20018  11.352   1.302  10.668  0.7158  3.1351 -3.4955
  870MOL0     H20019  11.550   1.185  10.665 -3.1804 -0.5666  2.7974
  870MOL0     H20020  11.579   1.136  10.832 -2.9483  1.5934  2.4523
  870MOL0     H20021  11.704   1.244  10.753  0.0391 -1.0046 -1.5813
  870MOL0     H20022  11.749   1.548  11.352  1.1521  1.8559  2.1066
  870MOL0     H20023  11.938   1.535  11.490  0.1308  4.6888 -0.4458
  870MOL0     H20024  12.265   1.644  11.457 -0.0629 -0.3851 -1.2993
  870MOL0     H20025  12.123   1.599  11.557  0.3096  0.5316  1.4142
  870MOL0     H20026  12.326   1.402  11.611 -2.7187 -0.1593  3.9918
  870MOL0     H20027  12.412   1.552  11.599  0.6441 -0.1157  1.7539
  870MOL0     H20028  12.170   1.574  11.759 -0.1520  0.6078 -0.4473
  870MOL0     H20029  12.326   1.629  11.784 -0.9130  0.3780 -0.0284
  870MOL0     H20030  12.272   1.466  11.947 -1.9313  1.9613 -1.4264
  870MOL0     H20031  12.408   1.399  11.845 -0.9962 -3.1735  0.0176
  870MOL0     H20032  12.214   1.263  11.721 -0.0985  1.4372  0.3309
  870MOL0     H20033  12.268   1.214  11.879  1.4470  0.3582  0.3746
  870MOL0     H20034  12.013   1.222  11.825  2.1225 -2.4259  1.5229
  870MOL0     H20035  12.025   1.390  11.853 -1.1946 -0.7309  1.3548
  870MOL0     H20036  12.124   1.364  12.080 -1.9760  1.6331  0.2669
  870MOL0     H20037  12.094   1.191  12.061  0.8256  0.4425 -0.7461
  870MOL0     H20038  11.906   1.440  12.071  1.3433  0.1856 -2.5047
  870MOL0     H20039  11.920   1.297  12.191  1.5003 -2.0968 -0.4901
  870MOL0     H20040  12.175   1.428  11.155  1.1539  1.4347  0.7565
  870MOL0     H20041  11.986   1.454  11.004  1.1181 -1.9507 -0.0243
  870MOL0     H20042  11.521   1.601  11.016  1.4476 -2.1879  1.3050
  870MOL0     H20043  11.305   1.648  10.897 -1.1510 -0.2256  0.9557
  870MOL0     H20044   9.361   1.742  10.320 -2.0643 -1.2457 -0.3405
  870MOL0     H20045   9.137   1.737  10.238 -1.7567  3.4460  1.7936
  870MOL0     H20046   8.818   1.894   9.987  0.7992 -0.0004  0.9140
  870MOL0     H20047   8.609   1.952   9.879 -0.6232 -2.5408  0.3059
  870MOL0     H20048   8.419   1.989   9.770 -3.5028  1.4398 -1.3627
  870MOL0     H20049   8.496   2.117   9.672  4.3499 -0.4767 -0.1783
  870MOL0     H20050   8.380   2.031   9.476 -4.1848 -0.1247 -1.5718
  870MOL0     H20051   8.285   2.093   9.608  1.3389  1.0577 -2.7837
  870MOL0     H20052   8.329   1.828   9.481 -0.0512  0.2902 -0.5432
  870MOL0     H20053   8.294   1.827   9.660  0.4974  1.1344 -0.0146
  870MOL0     H20054   8.082   1.961   9.611  1.9092  3.0197 -1.9085
  870MOL0     H20055   8.074   1.800   9.522 -2.0041  0.6025 -0.2101
  870MOL0     H20056   8.152   2.056   9.197 -1.0701  0.5059  0.0892
  870MOL0     H20057   8.772   1.871   9.499 -0.1514 -2.4929  0.7270
  870MOL0     H20058   9.050   1.710   9.573  1.9113 -0.4275 -0.3607
  870MOL0     H20059   9.024   1.868   9.485 -0.1306 -1.6535 -0.4614
  870MOL0     H20060   9.133   1.859   9.621 -0.5981  0.0897 -0.2219
  871MOL0     O20061   1.961   5.853   7.145  0.7606  0.2287 -0.4325
  871MOL0     C20062   2.011   5.941   7.067 -0.2039  0.0940  0.0667
  871MOL0     O20063   2.144   5.958   7.040 -0.0518 -0.2091 -0.1445
  871MOL0     C20064   2.242   5.903   7.122 -0.2652 -0.3389  0.9306
  871MOL0     C20065   2.251   5.762   7.159  0.1305 -0.6303  0.6332
  871MOL0     C20066   2.345   5.731   7.258  0.1625  0.0407 -0.3847
  871MOL0     C20067   2.428   5.829   7.308  0.1878 -0.2029  0.2988
  871MOL0     O20068   2.527   5.802   7.403  0.6705 -0.0889 -0.2203
  871MOL0     C20069   2.508   5.681   7.477 -0.6576 -1.1001 -1.0267
  871MOL0     C20070   2.610   5.688   7.606 -0.2247 -0.0713 -0.2525
  871MOL0     C20071   2.589   5.569   7.715 -0.0683  0.2087 -0.1552
  871MOL0     C20072   2.638   5.632   7.853  0.4006 -0.1355 -0.6806
  871MOL0     C20073   2.650   5.524   7.958  0.5066  1.1455  0.1726
  871MOL0     C20074   2.721   5.573   8.076 -0.2813 -0.5250 -0.7810
  871MOL0     C20075   2.793   5.468   8.165 -0.1929 -0.0918  0.1829
  871MOL0     C20076   2.896   5.377   8.091  0.6181 -0.2712  0.1267
  871MOL0     N20077   2.982   5.445   7.991  0.6425  0.2095 -0.4179
  871MOL0     C20078   3.099   5.508   8.030  0.2178  0.4532  0.3750
  871MOL0     C20079   3.166   5.529   7.913 -0.1024  1.3470 -0.1695
  871MOL0     C20080   3.294   5.614   7.919  0.2556  0.2000 -0.7765
  871MOL0     C20081   3.427   5.540   7.932 -0.2325  0.3950  0.7148
  871MOL0     C20082   3.515   5.597   8.052  0.9841 -0.6410  0.5374
  871MOL0     C20083   3.603   5.706   8.016  0.6826  0.2578  0.0278
  871MOL0     O20084   3.657   5.750   8.145 -0.2735  0.0825 -0.2096
  871MOL0     C20085   3.750   5.842   8.143  0.4952 -1.0855 -0.4569
  871MOL0     C20086   3.833   5.870   8.257 -0.0064 -0.3616  0.5076
  871MOL0     C20087   3.926   5.983   8.270  0.8700 -0.0757 -0.6091
  871MOL0     C20088   3.986   5.989   8.412  0.3523  0.0850  0.4527
  871MOL0     C20089   3.959   6.058   8.154 -0.7102 -0.9289 -0.4218
  871MOL0     C20090   4.049   6.177   8.146 -1.1500 -0.3448  0.4304
  871MOL0     O20091   4.110   6.225   8.261  0.0448  0.1240 -0.2163
  871MOL0     C20092   4.187   6.342   8.248 -0.3987  0.6467 -0.0357
  871MOL0     C20093   4.316   6.345   8.188  0.1490 -0.2328  0.9942
  871MOL0     C20094   4.396   6.458   8.182 -0.1372 -0.5393 -0.4448
  871MOL0     C20095   4.366   6.576   8.258  0.5200 -0.4902 -0.4200
  871MOL0     O20096   4.446   6.688   8.252 -0.2258  0.2482  0.3762
  871MOL0     C20097   4.394   6.813   8.215 -0.1153  0.8203  0.4683
  871MOL0     C20098   4.488   6.921   8.256 -0.3190 -1.0807 -0.5657
  871MOL0     C20099   4.526   6.927   8.409  0.2435  0.3558 -0.0005
  871MOL0     C20100   4.636   7.019   8.441 -0.4624  0.4468 -0.0779
  871MOL0     C20101   4.624   7.070   8.586  0.3523 -0.7469  0.7487
  871MOL0     C20102   4.763   7.070   8.646 -0.3296  0.1523 -0.6766
  871MOL0     C20103   4.815   6.935   8.676 -0.8438  0.2606 -0.3265
  871MOL0     C20104   4.964   6.928   8.703 -0.2074 -0.0393  0.4075
  871MOL0    Cl20105   5.013   6.995   8.860 -0.2435 -0.2377 -0.5211
  871MOL0     C20106   4.245   6.569   8.329 -1.0530 -0.2077 -0.2837
  871MOL0     C20107   4.162   6.458   8.325  0.2310  0.0222  0.0162
  871MOL0     O20108   4.070   6.230   8.031 -0.1182  0.1434 -0.1969
  871MOL0     C20109   3.875   6.037   8.044 -0.4959 -1.2882  0.0401
  871MOL0     C20110   3.780   5.934   8.035  0.9206  0.1081  0.2480
  871MOL0     N20111   3.095   5.475   7.815 -0.4520  0.0045  0.5309
  871MOL0     N20112   2.981   5.435   7.853  0.0792  0.6989  0.1022
  871MOL0     C20113   2.421   5.960   7.271 -0.0517 -0.0441  0.8212
  871MOL0     C20114   2.332   5.998   7.173  1.0075  0.2715 -0.3360
  871MOL0     C20115   1.909   6.045   7.005  0.1029  0.0958  0.1549
  871MOL0     C20116   1.967   6.151   6.935 -0.1973 -0.3063  1.0183
  871MOL0     C20117   1.896   6.252   6.864 -0.3358 -0.6672  0.3705
  871MOL0     C20118   1.760   6.246   6.857 -0.0096 -0.8496 -0.3689
  871MOL0     O20119   1.675   6.337   6.800 -0.1078 -0.0168  0.0218
  871MOL0     C20120   1.732   6.427   6.711  0.0003 -0.6025  0.7665
  871MOL0     C20121   1.618   6.497   6.639 -0.0214 -0.4626  0.9678
  871MOL0     C20122   1.521   6.570   6.742  0.1747 -0.2940  0.1205
  871MOL0     C20123   1.404   6.643   6.671  0.3048 -0.8812  0.7014
  871MOL0     C20124   1.455   6.755   6.585  1.2349  0.7532 -0.1411
  871MOL0     C20125   1.501   6.843   6.508  0.1234 -0.5455 -0.1752
  871MOL0     C20126   1.698   6.137   6.920 -0.5582 -0.6588  0.1342
  871MOL0     C20127   1.766   6.038   6.994  0.5390 -0.7692 -0.5106
  871MOL0     C20128   1.675   5.943   7.067  0.1377 -0.2599 -0.1861
  871MOL0     H20129   2.176   5.691   7.125 -0.5658 -0.5062  1.8616
  871MOL0     H20130   2.360   5.629   7.294  0.5631  0.1414 -0.2589
  871MOL0     H20131   2.529   5.595   7.413 -1.6584 -1.4372 -0.9125
  871MOL0     H20132   2.413   5.673   7.531  0.8888 -0.1941  2.0565
  871MOL0     H20133   2.716   5.679   7.578  0.1639 -2.2480  1.6125
  871MOL0     H20134   2.585   5.786   7.648 -0.1867  0.6559 -1.8606
  871MOL0     H20135   2.483   5.540   7.723 -0.6139  2.1487  0.0872
  871MOL0     H20136   2.653   5.484   7.690 -1.3182 -0.9310  0.3548
  871MOL0     H20137   2.740   5.669   7.838  0.3629 -0.0502 -0.7275
  871MOL0     H20138   2.578   5.715   7.889 -0.6197 -1.3547  0.4957
  871MOL0     H20139   2.708   5.447   7.907 -0.4490 -0.1816  1.0392
  871MOL0     H20140   2.553   5.482   7.985 -0.2189  3.3122  1.1759
  871MOL0     H20141   2.798   5.642   8.043  2.3441 -2.6598  0.4705
  871MOL0     H20142   2.652   5.629   8.140  0.0745 -1.8803  0.8678
  871MOL0     H20143   2.719   5.405   8.214 -0.8079  0.4273 -0.0570
  871MOL0     H20144   2.854   5.514   8.243  0.5421 -2.7879  1.3207
  871MOL0     H20145   2.961   5.337   8.169 -0.1996 -2.8181 -0.3966
  871MOL0     H20146   2.841   5.293   8.047 -2.3742  1.0237  1.1272
  871MOL0     H20147   3.125   5.536   8.131 -0.5618 -0.4858  0.8565
  871MOL0     H20148   3.288   5.677   8.009  0.4525 -0.7329 -0.0932
  871MOL0     H20149   3.306   5.681   7.833  2.4780 -0.1680 -0.8105
  871MOL0     H20150   3.403   5.439   7.967 -0.6297  0.6382  1.1587
  871MOL0     H20151   3.482   5.541   7.838  0.7610 -0.5379  1.2691
  871MOL0     H20152   3.456   5.643   8.132  0.3372  1.5290 -1.0858
  871MOL0     H20153   3.569   5.515   8.101  1.7482  0.4854  1.6606
  871MOL0     H20154   3.682   5.669   7.950  0.5279 -1.9070  0.9536
  871MOL0     H20155   3.538   5.779   7.968 -1.7101 -0.8035  1.4539
  871MOL0     H20156   3.824   5.810   8.347  1.6027 -1.5409 -0.0683
  871MOL0     H20157   4.001   5.894   8.463 -1.6246 -0.6065 -0.1913
  871MOL0     H20158   3.926   6.052   8.478 -1.2193 -0.6155 -0.2672
  871MOL0     H20159   4.089   6.027   8.409 -0.1258  1.8012  2.7132
  871MOL0     H20160   4.361   6.255   8.149  0.1619 -0.4107  1.4171
  871MOL0     H20161   4.481   6.456   8.115  0.6681 -0.5182  0.5606
  871MOL0     H20162   4.379   6.822   8.107 -1.0026 -1.0283  0.4030
  871MOL0     H20163   4.303   6.823   8.276 -1.3819  0.1567 -1.2097
  871MOL0     H20164   4.583   6.925   8.202  1.7763 -1.3752  2.8161
  871MOL0     H20165   4.439   7.017   8.240  2.5269  1.0451  2.2235
  871MOL0     H20166   4.562   6.827   8.438 -0.8714 -0.2762 -0.7518
  871MOL0     H20167   4.431   6.940   8.462 -1.0703 -0.8316 -1.9664
  871MOL0     H20168   4.620   7.108   8.379 -1.6747  1.4590  1.5984
  871MOL0     H20169   4.734   6.978   8.416  0.0179  1.9305 -0.7462
  871MOL0     H20170   4.582   7.171   8.586 -0.1228 -0.9174 -0.7153
  871MOL0     H20171   4.567   7.010   8.657 -1.9221 -2.7893 -2.5425
  871MOL0     H20172   4.758   7.135   8.734 -1.3897  1.3452 -1.5769
  871MOL0     H20173   4.826   7.126   8.576  1.8958  0.0329  1.1272
  871MOL0     H20174   4.790   6.868   8.594  0.1913 -0.7331  0.1391
  871MOL0     H20175   4.768   6.880   8.758  1.4860  1.1829  1.7694
  871MOL0     H20176   5.008   6.979   8.616 -0.5035 -3.2924 -1.8624
  871MOL0     H20177   4.999   6.825   8.691  0.1049  0.2411 -1.4836
  871MOL0     H20178   4.235   6.654   8.396  0.8411 -0.6501  0.6359
  871MOL0     H20179   4.081   6.446   8.395  0.5474  0.4427  0.4599
  871MOL0     H20180   3.875   6.107   7.960  2.2725  1.3440  2.0264
  871MOL0     H20181   3.721   5.925   7.944  3.3046 -2.4910 -1.2039
  871MOL0     H20182   2.457   6.044   7.329 -1.2939  0.5893  0.7055
  871MOL0     H20183   2.315   6.097   7.133 -1.0979  0.6200  1.2519
  871MOL0     H20184   2.071   6.177   6.957  0.4000 -2.9768  1.6262
  871MOL0     H20185   1.941   6.345   6.831 -1.7504  0.5309  1.6306
  871MOL0     H20186   1.808   6.490   6.758 -0.9817  0.6584  0.7165
  871MOL0     H20187   1.790   6.370   6.638  0.8121  1.3672 -0.2004
  871MOL0     H20188   1.570   6.435   6.563 -1.3939  2.2906 -0.5635
  871MOL0     H20189   1.657   6.580   6.579  0.8384 -1.3371  0.2909
  871MOL0     H20190   1.476   6.506   6.818 -0.1123  1.5613  1.5990
  871MOL0     H20191   1.584   6.640   6.799  1.0259 -1.3815  0.5654
  871MOL0     H20192   1.350   6.689   6.755 -0.8159 -1.9400  0.5862
  871MOL0     H20193   1.328   6.583   6.621  0.4581  0.5953 -1.4567
  871MOL0     H20194   1.519   6.936   6.459 -3.4517  1.0741  1.2407
  871MOL0     H20195   1.591   6.139   6.908 -0.8676  0.8052  2.3962
  871MOL0     H20196   1.589   6.002   7.098 -1.6025 -2.1375 -1.2159
  871MOL0     H20197   1.644   5.859   7.005 -0.5280  0.1828 -0.4572
  871MOL0     H20198   1.720   5.911   7.162  4.5550 -0.0115 -1.9323
  872MOL0     O20199   9.602   9.994   5.417 -1.0793 -0.2178  0.1652
  872MOL0     C20200   9.663  10.078   5.482 -0.3997 -0.1438 -0.2092
  872MOL0     O20201   9.618  10.130   5.602 -0.3840 -0.2627 -0.2097
  872MOL0     C20202   9.499  10.079   5.656 -0.5269  0.4365  1.1902
  872MOL0     C20203   9.379  10.112   5.596 -0.5286  0.0557 -0.3002
  872MOL0     C20204   9.260  10.078   5.656 -0.6286 -0.7187 -0.5385
  872MOL0     C20205   9.261  10.003   5.774  0.5598 -0.0339  0.0880
  872MOL0     O20206   9.140   9.974   5.841 -0.0191 -0.2536 -0.0844
  872MOL0     C20207   9.025   9.931   5.774 -0.4140 -0.4476 -0.2475
  872MOL0     C20208   8.989   9.791   5.825  0.2418  0.0455 -0.1866
  872MOL0     C20209   9.113   9.700   5.827 -0.4218  0.3129 -0.9023
  872MOL0     C20210   9.086   9.558   5.872 -0.2898 -0.0434  0.4633
  872MOL0     C20211   9.204   9.461   5.836  0.3291 -0.4577 -0.0905
  872MOL0     C20212   9.322   9.500   5.910  0.2850 -0.7345  0.3039
  872MOL0     C20213   9.423   9.384   5.889 -0.0651 -0.3309  0.1708
  872MOL0     C20214   9.557   9.424   5.946  0.4208  0.0359  0.1030
  872MOL0     N20215   9.621   9.543   5.891 -0.2655  0.1279  0.3293
  872MOL0     C20216   9.625   9.576   5.757  0.3878  0.0495  0.0472
  872MOL0     C20217   9.720   9.680   5.746  0.4667 -0.0604 -0.1071
  872MOL0     C20218   9.771   9.752   5.624 -0.0937 -0.2642 -0.8270
  872MOL0     C20219   9.910   9.692   5.610 -0.0804 -0.0780 -0.1994
  872MOL0     C20220   9.976   9.772   5.496 -0.3393  0.3469  0.2776
  872MOL0     C20221  10.125   9.744   5.472 -0.1358  0.0492  0.0831
  872MOL0     O20222  10.152   9.601   5.470 -0.0778  0.3636 -0.6344
  872MOL0     C20223  10.272   9.563   5.421  0.8493 -0.3434 -0.7635
  872MOL0     C20224  10.376   9.642   5.369 -0.4915 -0.4015  0.8259
  872MOL0     C20225  10.489   9.582   5.322 -0.3403 -0.1689  0.1288
  872MOL0     C20226  10.580   9.691   5.278  0.6860  0.4045  0.4748
  872MOL0     C20227  10.513   9.441   5.336 -0.3780  0.8919  0.3267
  872MOL0     C20228  10.640   9.379   5.283 -0.5520  0.8666 -0.7647
  872MOL0     O20229  10.641   9.242   5.293 -0.4279 -0.0877 -0.8167
  872MOL0     C20230  10.738   9.184   5.214 -0.0309  0.4681  0.4674
  872MOL0     C20231  10.726   9.186   5.071 -0.4073 -0.6459 -0.5249
  872MOL0     C20232  10.819   9.125   4.990  0.3426  0.1911  0.2591
  872MOL0     C20233  10.923   9.053   5.040  0.3692 -0.0075  0.6636
  872MOL0     O20234  11.009   8.999   4.947 -0.4051  0.1539  0.1625
  872MOL0     C20235  11.128   8.939   4.991  0.0483  0.4286 -0.2870
  872MOL0     C20236  11.185   8.903   4.855 -1.4474 -0.1474 -0.0897
  872MOL0     C20237  11.105   8.791   4.787  0.0494  0.0001 -0.0201
  872MOL0     C20238  11.145   8.758   4.635  0.0382 -0.3194 -0.2123
  872MOL0     C20239  11.261   8.653   4.632 -0.3747  0.6310  0.0158
  872MOL0     C20240  11.259   8.564   4.504 -0.7378 -0.4669 -0.5995
  872MOL0     C20241  11.381   8.468   4.513  0.4627  0.2520  0.3198
  872MOL0     C20242  11.434   8.436   4.374  0.2053 -0.0316  0.1467
  872MOL0    Cl20243  11.524   8.581   4.309 -0.0504  0.3923 -0.3873
  872MOL0     C20244  10.926   9.033   5.177 -0.3522  0.6841  0.2312
  872MOL0     C20245  10.846   9.105   5.263  0.1884  0.3006 -1.0519
  872MOL0     O20246  10.727   9.445   5.224  0.4140 -0.9413 -0.8568
  872MOL0     C20247  10.415   9.364   5.393 -0.2392  0.3736 -0.0968
  872MOL0     C20248  10.300   9.427   5.438  0.3119 -0.1086  0.3073
  872MOL0     N20249   9.757   9.707   5.873  0.1324 -0.4032  0.2850
  872MOL0     N20250   9.703   9.626   5.951  0.0270 -0.3506  0.6532
  872MOL0     C20251   9.384   9.965   5.831 -0.3121  0.3928  1.0212
  872MOL0     C20252   9.507  10.001   5.773  0.1776 -2.0509 -0.8591
  872MOL0     C20253   9.789  10.143   5.428  0.6700 -0.1612 -0.1398
  872MOL0     C20254   9.850  10.251   5.500  0.0529  0.3453 -0.7931
  872MOL0     C20255   9.967  10.312   5.456  0.0570 -0.2734  0.0429
  872MOL0     C20256  10.017  10.282   5.332 -0.6296  0.0022  0.6190
  872MOL0     O20257  10.133  10.348   5.289  0.4887 -0.1238 -0.3024
  872MOL0     C20258  10.201  10.293   5.172 -0.1046 -0.4095 -0.7112
  872MOL0     C20259  10.301  10.201   5.224 -0.7443  0.6914  0.3088
  872MOL0     C20260  10.390  10.237   5.347 -0.3434 -0.6714  0.4874
  872MOL0     C20261  10.438  10.118   5.432 -0.3129  0.6871 -0.0833
  872MOL0     C20262  10.566  10.074   5.368  0.7897 -0.5376 -0.5506
  872MOL0     C20263  10.680  10.048   5.328 -0.2460  0.2091 -0.2156
  872MOL0     C20264   9.958  10.172   5.267  0.0399  0.8147 -0.0311
  872MOL0     C20265   9.844  10.103   5.313  1.2483  0.7818  0.4145
  872MOL0     C20266   9.793   9.985   5.219 -0.1301 -0.5631  0.5801
  872MOL0     H20267   9.385  10.170   5.505 -0.8700  0.0327 -0.3388
  872MOL0     H20268   9.165  10.107   5.613 -0.2246 -1.3571 -1.9555
  872MOL0     H20269   9.033   9.919   5.666 -0.0807 -0.3643 -0.2347
  872MOL0     H20270   8.944  10.001   5.792  0.5298  1.0542 -1.6091
  872MOL0     H20271   8.964   9.804   5.931 -1.2232  0.0726 -0.5278
  872MOL0     H20272   8.905   9.754   5.766 -1.0784 -0.8572  2.1209
  872MOL0     H20273   9.163   9.705   5.729  3.3929  0.4075  0.8740
  872MOL0     H20274   9.188   9.746   5.892 -1.7172  1.1043  0.0552
  872MOL0     H20275   9.049   9.538   5.973 -1.5426  1.4805  0.3489
  872MOL0     H20276   9.002   9.531   5.807  0.0963  0.5883 -0.3166
  872MOL0     H20277   9.224   9.455   5.729  0.6699 -1.8957  0.0374
  872MOL0     H20278   9.165   9.361   5.856 -3.1505  0.7853 -0.0151
  872MOL0     H20279   9.359   9.597   5.878  0.5304 -0.4113  1.5233
  872MOL0     H20280   9.295   9.504   6.016  1.5666 -2.5008  0.7640
  872MOL0     H20281   9.435   9.370   5.781 -1.4164 -0.1786 -0.0201
  872MOL0     H20282   9.388   9.286   5.923  1.2251 -0.7140  0.4380
  872MOL0     H20283   9.545   9.439   6.054  1.9628 -1.2671  0.4911
  872MOL0     H20284   9.623   9.338   5.940  0.1566 -0.2448  1.0045
  872MOL0     H20285   9.575   9.526   5.675 -0.5472 -0.2424  0.7865
  872MOL0     H20286   9.768   9.858   5.649  0.3483 -0.2527 -0.8172
  872MOL0     H20287   9.710   9.725   5.538  0.0265 -0.0772 -0.9696
  872MOL0     H20288   9.966   9.702   5.703 -2.6906  0.5176  1.4312
  872MOL0     H20289   9.896   9.586   5.587 -0.1274 -0.3966  1.2295
  872MOL0     H20290   9.930   9.744   5.401 -0.8762 -1.1284  0.9409
  872MOL0     H20291   9.962   9.880   5.507 -2.5694  0.2255 -0.8083
  872MOL0     H20292  10.151   9.797   5.381 -3.6889  1.1479 -0.4699
  872MOL0     H20293  10.190   9.778   5.554  0.2296 -3.9422  1.6932
  872MOL0     H20294  10.362   9.747   5.347 -0.5065 -0.9308 -2.1345
  872MOL0     H20295  10.544   9.794   5.273 -0.5150  0.0558  1.4965
  872MOL0     H20296  10.619   9.679   5.177  0.4149  2.0817  0.1422
  872MOL0     H20297  10.678   9.698   5.328  0.5063 -2.6611  1.4724
  872MOL0     H20298  10.636   9.230   5.030  1.0576  1.7503 -1.3843
  872MOL0     H20299  10.801   9.133   4.883 -0.9335  1.3582  0.5305
  872MOL0     H20300  11.196   9.006   5.044  1.5377 -0.8150 -0.5537
  872MOL0     H20301  11.117   8.840   5.038  0.1925  1.1360  1.2838
  872MOL0     H20302  11.192   8.997   4.800  3.2382  0.9583  1.9424
  872MOL0     H20303  11.287   8.866   4.868 -0.8438  1.5692  0.2696
  872MOL0     H20304  11.002   8.827   4.787  0.5535  1.5713 -1.0718
  872MOL0     H20305  11.101   8.701   4.849  0.7874 -0.2654 -0.3515
  872MOL0     H20306  11.178   8.850   4.585 -2.3065  1.7162  1.7300
  872MOL0     H20307  11.056   8.714   4.590 -0.5232 -0.0689  0.6300
  872MOL0     H20308  11.354   8.711   4.628 -1.3008  2.1166 -1.2263
  872MOL0     H20309  11.267   8.591   4.721  2.6398  1.2456  0.3351
  872MOL0     H20310  11.257   8.624   4.413 -1.7799  1.3230  0.5504
  872MOL0     H20311  11.168   8.504   4.507 -1.3557  0.4263 -1.2124
  872MOL0     H20312  11.359   8.370   4.556  2.1189 -1.0510 -1.6106
  872MOL0     H20313  11.451   8.518   4.581 -0.4814 -0.2017  1.6537
  872MOL0     H20314  11.349   8.411   4.310 -0.6763 -1.2800  1.7414
  872MOL0     H20315  11.506   8.354   4.386 -1.7544 -1.4382  3.9122
  872MOL0     H20316  11.007   8.973   5.218 -1.4931 -0.0343  1.4937
  872MOL0     H20317  10.865   9.101   5.370  1.3544  0.7444 -1.2202
  872MOL0     H20318  10.423   9.256   5.384 -1.8330  0.3563 -1.7820
  872MOL0     H20319  10.228   9.352   5.469 -0.5154 -0.0415 -1.3088
  872MOL0     H20320   9.366   9.907   5.921 -0.4045 -1.2905 -0.0314
  872MOL0     H20321   9.599   9.980   5.826  2.5846  2.0843 -2.8912
  872MOL0     H20322   9.819  10.275   5.602 -0.1677  3.0306 -1.4223
  872MOL0     H20323  10.011  10.385   5.523  0.6168  0.2311 -0.8443
  872MOL0     H20324  10.139  10.242   5.098 -0.0055 -1.1915 -0.2692
  872MOL0     H20325  10.243  10.377   5.115 -1.0190  0.6293  0.1046
  872MOL0     H20326  10.372  10.174   5.144 -1.3352 -1.5253  0.4610
  872MOL0     H20327  10.240  10.113   5.245  0.9552 -0.9849 -1.3817
  872MOL0     H20328  10.481  10.285   5.311  2.3822 -4.7153  1.3154
  872MOL0     H20329  10.347  10.310   5.416 -1.5514  0.6009 -1.5028
  872MOL0     H20330  10.366  10.036   5.438  0.9023 -0.5562 -1.4917
  872MOL0     H20331  10.464  10.155   5.532 -0.3509  0.6578 -0.0623
  872MOL0     H20332  10.777  10.049   5.282 -0.4771 -0.7660 -0.7451
  872MOL0     H20333   9.998  10.127   5.177  0.7759  0.8529  0.2697
  872MOL0     H20334   9.698  10.011   5.172 -0.8826 -0.3296  2.1728
  872MOL0     H20335   9.855   9.990   5.130  1.3179  2.1313  1.6009
  872MOL0     H20336   9.788   9.887   5.267 -0.8313  0.9103  3.8306
  873MOL0     O20337   5.832   9.793   8.126  0.1446 -0.3105 -1.3754
  873MOL0     C20338   5.786   9.797   8.240  0.1959 -0.8122 -0.8620
  873MOL0     O20339   5.858   9.774   8.356 -0.3378 -0.2276 -0.0813
  873MOL0     C20340   5.988   9.796   8.369 -0.1962 -0.7185  0.2549
  873MOL0     C20341   6.072   9.874   8.285  0.4993  0.1936 -0.3223
  873MOL0     C20342   6.211   9.881   8.313  1.1386  0.0856  0.6859
  873MOL0     C20343   6.267   9.812   8.422 -0.2964 -0.1480 -0.4892
  873MOL0     O20344   6.399   9.812   8.463 -0.4910  0.1811 -0.0810
  873MOL0     C20345   6.507   9.870   8.380  0.1068  0.9961  0.0350
  873MOL0     C20346   6.638   9.827   8.432 -0.0395 -0.3994 -0.5342
  873MOL0     C20347   6.765   9.865   8.343  0.3119 -0.7740 -0.0362
  873MOL0     C20348   6.805  10.009   8.373  0.1077  0.0919 -0.4011
  873MOL0     C20349   6.915  10.045   8.274  0.6898 -0.6701  0.5334
  873MOL0     C20350   6.970  10.181   8.324  0.6762 -0.2551  0.6677
  873MOL0     C20351   7.071  10.166   8.433 -0.0376 -0.3530  0.5757
  873MOL0     C20352   7.105  10.302   8.495  0.4867 -0.4419  0.2503
  873MOL0     N20353   7.194  10.382   8.404 -0.3502 -0.7818  0.0508
  873MOL0     C20354   7.330  10.385   8.409 -0.0310 -0.3463  0.1269
  873MOL0     C20355   7.364  10.475   8.313 -0.9432 -1.1540  0.2737
  873MOL0     C20356   7.500  10.523   8.284  0.1449 -0.5174 -0.8173
  873MOL0     C20357   7.531  10.661   8.342 -0.1194 -0.0661  0.4862
  873MOL0     C20358   7.679  10.663   8.372  0.6612 -0.4830 -0.0466
  873MOL0     C20359   7.725  10.614   8.517  0.1208  0.9332  0.4243
  873MOL0     O20360   7.663  10.694   8.613 -0.4927  0.7205 -0.0669
  873MOL0     C20361   7.541  10.653   8.662 -0.6995 -0.3025  0.1518
  873MOL0     C20362   7.453  10.745   8.708 -1.2739 -0.7562 -0.6919
  873MOL0     C20363   7.319  10.727   8.746  0.2731  0.7006 -0.4984
  873MOL0     C20364   7.237  10.846   8.773  0.0177 -0.2648 -0.8996
  873MOL0     C20365   7.276  10.591   8.746 -0.1692  0.5143  0.1080
  873MOL0     C20366   7.142  10.556   8.792 -0.7420  0.6996  0.1319
  873MOL0     O20367   7.045  10.655   8.775 -0.1029  0.2502  0.4529
  873MOL0     C20368   6.921  10.607   8.815  0.0225  0.0403  0.0489
  873MOL0     C20369   6.836  10.552   8.718 -0.0944  0.6485  0.0275
  873MOL0     C20370   6.719  10.491   8.748 -0.5031 -0.1891 -0.0110
  873MOL0     C20371   6.676  10.491   8.884 -0.1335  0.3560  0.1203
  873MOL0     O20372   6.564  10.414   8.897 -0.7248 -0.2819  0.5423
  873MOL0     C20373   6.496  10.412   9.028 -0.2791  0.7308  0.0169
  873MOL0     C20374   6.568  10.305   9.117 -0.7768  0.1820  0.3717
  873MOL0     C20375   6.531  10.313   9.269  0.3779 -0.1082  0.3217
  873MOL0     C20376   6.604  10.210   9.356 -0.7501 -0.4808 -0.7609
  873MOL0     C20377   6.603  10.243   9.507  0.4868  0.3460 -0.5598
  873MOL0     C20378   6.680  10.374   9.549 -0.4897  0.5260 -0.4717
  873MOL0     C20379   6.826  10.403   9.512  0.5761 -0.2614  1.7549
  873MOL0     C20380   6.913  10.305   9.584  0.3640 -0.1878 -0.0961
  873MOL0    Cl20381   7.074  10.322   9.512  0.5214  0.1130 -0.4021
  873MOL0     C20382   6.745  10.553   8.986 -0.0363 -1.1476  0.7950
  873MOL0     C20383   6.873  10.608   8.947  0.6123 -0.1121  0.1055
  873MOL0     O20384   7.117  10.439   8.817 -0.2654  0.6072  0.3195
  873MOL0     C20385   7.366  10.486   8.714 -0.6452  0.3172  0.1887
  873MOL0     C20386   7.501  10.516   8.668  0.0803 -0.0767 -0.8389
  873MOL0     N20387   7.246  10.525   8.256 -0.2013 -0.0070 -0.3150
  873MOL0     N20388   7.140  10.466   8.310 -0.0779 -0.5514  0.3960
  873MOL0     C20389   6.179   9.751   8.512  0.0835  0.1505 -0.9757
  873MOL0     C20390   6.040   9.739   8.489  0.0831  0.6532  0.3754
  873MOL0     C20391   5.639   9.787   8.243  0.0192 -0.0154  0.7952
  873MOL0     C20392   5.581   9.701   8.332 -0.2084  0.2311  0.1283
  873MOL0     C20393   5.448   9.688   8.350 -0.0418 -0.2512 -0.7743
  873MOL0     C20394   5.361   9.775   8.283 -0.1314 -0.4536  0.1642
  873MOL0     O20395   5.224   9.772   8.284 -0.1030 -0.3502 -0.3760
  873MOL0     C20396   5.158   9.657   8.337  0.0715  0.4117 -0.0303
  873MOL0     C20397   5.010   9.673   8.315  0.5945  0.7957 -0.1546
  873MOL0     C20398   4.956   9.765   8.435 -0.7236  1.2869  1.0087
  873MOL0     C20399   4.800   9.776   8.419  0.6479  0.5552  0.8167
  873MOL0     C20400   4.728   9.877   8.503 -0.7802  0.3149 -1.0692
  873MOL0     C20401   4.665   9.963   8.566 -0.5884  0.2103  0.6071
  873MOL0     C20402   5.412   9.866   8.193 -0.1007  0.6980 -0.9889
  873MOL0     C20403   5.550   9.871   8.166 -0.2718  0.5164  0.3604
  873MOL0     C20404   5.606   9.948   8.054  0.6954 -0.3890  0.7212
  873MOL0     H20405   6.032   9.932   8.202 -0.4638  0.1565  0.1077
  873MOL0     H20406   6.270   9.940   8.243  0.8500 -1.4537 -0.9329
  873MOL0     H20407   6.500   9.980   8.377 -4.0821  0.8927 -0.5234
  873MOL0     H20408   6.489   9.843   8.276 -1.9868  1.6371  0.1918
  873MOL0     H20409   6.654   9.868   8.532  0.8770 -1.5915 -0.1640
  873MOL0     H20410   6.638   9.718   8.445  2.4507 -0.5719 -1.4310
  873MOL0     H20411   6.851   9.804   8.372  2.1777  1.4678 -0.5956
  873MOL0     H20412   6.746   9.846   8.237 -1.0274  3.2458 -0.6693
  873MOL0     H20413   6.725  10.083   8.369 -0.6822 -0.5796  1.6315
  873MOL0     H20414   6.851  10.005   8.472  1.0012 -1.2047 -0.8384
  873MOL0     H20415   6.866  10.074   8.181  0.2052  2.0815  1.5429
  873MOL0     H20416   6.988   9.965   8.260  0.5971 -0.5526 -0.7454
  873MOL0     H20417   7.030  10.225   8.243 -0.6955  1.8447  0.7312
  873MOL0     H20418   6.888  10.245   8.356 -0.4068 -2.4054  2.4332
  873MOL0     H20419   7.158  10.124   8.382  0.2424 -0.7638  1.3679
  873MOL0     H20420   7.038  10.089   8.503  0.7232 -1.0070  0.2246
  873MOL0     H20421   7.003  10.338   8.512  0.6585  1.3436 -2.1253
  873MOL0     H20422   7.157  10.288   8.591  2.8138 -0.0499 -0.8980
  873MOL0     H20423   7.396  10.331   8.476 -0.0253 -2.3586 -1.4089
  873MOL0     H20424   7.505  10.530   8.175 -0.1496 -2.3102 -0.9834
  873MOL0     H20425   7.571  10.444   8.308 -2.0195 -1.9360  1.4965
  873MOL0     H20426   7.507  10.725   8.256 -0.8202  1.2288  1.6188
  873MOL0     H20427   7.460  10.680   8.422 -0.3763 -1.3874  0.5937
  873MOL0     H20428   7.726  10.584   8.312  0.2443 -1.4027  0.8246
  873MOL0     H20429   7.725  10.758   8.345  2.0163 -0.7905  1.0785
  873MOL0     H20430   7.713  10.508   8.541 -0.4889  1.5548  3.2626
  873MOL0     H20431   7.834  10.625   8.522  0.0218  1.7893  0.9004
  873MOL0     H20432   7.494  10.845   8.718  0.2724 -1.5258  1.4416
  873MOL0     H20433   7.165  10.869   8.695 -1.8783 -0.0973  0.8073
  873MOL0     H20434   7.290  10.941   8.783  2.7408 -1.7683  0.2897
  873MOL0     H20435   7.190  10.835   8.872  0.4676  0.5695 -0.5775
  873MOL0     H20436   6.877  10.551   8.617 -0.2395  1.6356 -0.0524
  873MOL0     H20437   6.664  10.453   8.663  3.1116 -2.2793 -1.6611
  873MOL0     H20438   6.506  10.501   9.090  0.4153  1.0166 -0.4910
  873MOL0     H20439   6.389  10.391   9.017 -0.4953  2.4223 -1.7161
  873MOL0     H20440   6.544  10.213   9.064 -0.3689 -0.1694  0.7858
  873MOL0     H20441   6.677  10.320   9.113 -0.9286  1.2508  0.0310
  873MOL0     H20442   6.425  10.290   9.284  0.3699  0.2479  0.8424
  873MOL0     H20443   6.536  10.416   9.305 -2.0364 -0.5244  2.1411
  873MOL0     H20444   6.710  10.210   9.329  0.7534  3.4176  3.7012
  873MOL0     H20445   6.552  10.116   9.338  0.9227 -0.9679 -3.7736
  873MOL0     H20446   6.502  10.269   9.538  0.2240  3.7375 -3.5234
  873MOL0     H20447   6.649  10.159   9.559  0.2421 -1.6731 -3.3729
  873MOL0     H20448   6.676  10.380   9.658  0.7688  3.9044 -0.4983
  873MOL0     H20449   6.619  10.459   9.516  1.5662  2.6280  0.7869
  873MOL0     H20450   6.851  10.506   9.541  0.8584  0.9221 -2.1328
  873MOL0     H20451   6.839  10.397   9.404  1.0573  3.4775  1.4561
  873MOL0     H20452   6.881  10.200   9.580  2.3989 -0.8547  0.1022
  873MOL0     H20453   6.909  10.334   9.689 -0.4741 -0.3223 -0.0809
  873MOL0     H20454   6.704  10.554   9.086 -2.7548 -1.5097 -0.2388
  873MOL0     H20455   6.945  10.643   9.021 -1.0024  0.6321  1.4037
  873MOL0     H20456   7.347  10.379   8.717 -0.6123  0.3227  0.6414
  873MOL0     H20457   7.549  10.420   8.655 -1.2989 -0.8443 -0.5110
  873MOL0     H20458   6.209   9.697   8.602 -0.9600 -0.9022 -1.2469
  873MOL0     H20459   5.973   9.696   8.562  3.7389  0.1313  3.8210
  873MOL0     H20460   5.633   9.630   8.396 -2.0951 -1.4940 -0.1799
  873MOL0     H20461   5.408   9.606   8.410 -0.8858  1.2520  0.8459
  873MOL0     H20462   5.194   9.571   8.280  0.5919  1.2277 -0.9803
  873MOL0     H20463   5.177   9.651   8.444 -0.3189 -0.1283  0.0116
  873MOL0     H20464   4.956   9.578   8.308  1.4916  0.1577  1.2080
  873MOL0     H20465   4.997   9.725   8.219  0.8359 -1.4270 -1.4758
  873MOL0     H20466   4.977   9.706   8.524  2.1399  3.0367  1.6219
  873MOL0     H20467   5.014   9.858   8.438  0.4690  0.5716  0.8815
  873MOL0     H20468   4.744   9.683   8.422  1.4429  0.0818  1.3229
  873MOL0     H20469   4.791   9.817   8.318  3.6186 -0.2954  0.0960
  873MOL0     H20470   4.623  10.046   8.620  2.1773 -0.5358  4.3781
  873MOL0     H20471   5.345   9.928   8.133  0.8794 -1.3939 -4.5734
  873MOL0     H20472   5.525   9.991   7.994 -0.5193 -4.2210 -0.6700
  873MOL0     H20473   5.659  10.037   8.090 -0.6638  0.3008  1.1108
  873MOL0     H20474   5.668   9.895   7.981  1.5419 -0.6339  1.5942
  874MOL0     O20475   0.659   8.058   3.182  0.3487 -0.1899 -0.0428
  874MOL0     C20476   0.767   8.031   3.218 -0.2587  0.6714 -0.2543
  874MOL0     O20477   0.791   7.954   3.337 -0.4468 -0.0884  0.1835
  874MOL0     C20478   0.670   7.938   3.406 -0.0464  0.3485  0.6708
  874MOL0     C20479   0.569   7.843   3.369 -0.0718  0.2724 -0.2241
  874MOL0     C20480   0.444   7.834   3.440 -1.1827 -0.5926 -0.1304
  874MOL0     C20481   0.425   7.922   3.552  0.3262  0.3749  0.4060
  874MOL0     O20482   0.321   7.926   3.633 -0.0708  0.2429 -0.4457
  874MOL0     C20483   0.264   8.057   3.645 -0.0649 -0.0775  0.7010
  874MOL0     C20484   0.137   8.047   3.718  0.2702 -0.1933 -0.5236
  874MOL0     C20485   0.018   8.011   3.634  0.3381 -0.1381 -0.5683
  874MOL0     C20486  -0.115   8.032   3.703  0.0876  1.3822 -0.3534
  874MOL0     C20487  -0.142   7.923   3.808 -0.3962 -0.9674 -0.1186
  874MOL0     C20488  -0.262   7.948   3.887  0.1142 -0.7113 -0.9488
  874MOL0     C20489  -0.277   7.854   4.007 -0.0539 -0.9019  0.2739
  874MOL0     C20490  -0.415   7.834   4.065 -0.1178  1.0345  0.7758
  874MOL0     N20491  -0.498   7.743   3.986  0.5905  0.3486  0.1938
  874MOL0     C20492  -0.513   7.605   4.008  0.1859 -0.4548  0.1063
  874MOL0     C20493  -0.612   7.572   3.920  0.5965 -0.1845  0.2380
  874MOL0     C20494  -0.670   7.439   3.900  0.0868  0.7722  0.0496
  874MOL0     C20495  -0.624   7.389   3.760 -1.0345 -0.8570 -0.5774
  874MOL0     C20496  -0.725   7.279   3.707 -0.0086  0.2457 -0.4252
  874MOL0     C20497  -0.692   7.230   3.559 -0.5989 -0.4251  0.8317
  874MOL0     O20498  -0.701   7.350   3.471  0.5836 -0.3827  0.6672
  874MOL0     C20499  -0.594   7.409   3.408  0.2900 -0.5843 -0.0014
  874MOL0     C20500  -0.612   7.486   3.291 -0.0648 -1.1415  0.4553
  874MOL0     C20501  -0.519   7.529   3.205  0.8148  0.5289  0.7195
  874MOL0     C20502  -0.576   7.602   3.084  0.3657 -1.3908  0.4326
  874MOL0     C20503  -0.387   7.486   3.226 -0.1557 -0.1689 -0.3482
  874MOL0     C20504  -0.274   7.517   3.138 -0.6201  0.2336  0.3263
  874MOL0     O20505  -0.280   7.622   3.052 -0.4222 -0.9832  0.4197
  874MOL0     C20506  -0.166   7.662   2.988  0.6181 -0.6415  0.0475
  874MOL0     C20507  -0.132   7.793   2.983  0.1019  0.4040 -0.9151
  874MOL0     C20508  -0.031   7.839   2.892  0.0752 -0.2934 -0.2522
  874MOL0     C20509   0.041   7.751   2.815  0.6747  1.0706  1.0035
  874MOL0     O20510   0.145   7.780   2.731  0.2921  0.6137 -0.3879
  874MOL0     C20511   0.158   7.916   2.686  0.4779  0.2163 -1.6706
  874MOL0     C20512   0.246   7.930   2.567  0.0856 -0.2267 -0.2956
  874MOL0     C20513   0.193   7.881   2.435 -0.0053  0.9349  0.8889
  874MOL0     C20514   0.288   7.911   2.321  0.1715 -0.6644  0.8128
  874MOL0     C20515   0.227   7.868   2.197 -0.4551 -0.3511  0.2789
  874MOL0     C20516   0.107   7.939   2.145 -0.3063 -0.9268  0.6930
  874MOL0     C20517   0.094   7.916   1.996 -0.4225 -0.4686  0.1446
  874MOL0     C20518  -0.022   7.994   1.932 -0.7343 -0.0297  0.0081
  874MOL0    Cl20519  -0.006   8.168   1.949  0.4088 -0.3684  0.5953
  874MOL0     C20520  -0.000   7.616   2.817  0.6058  0.7219 -0.8616
  874MOL0     C20521  -0.101   7.576   2.909 -0.9426 -0.0306  0.7183
  874MOL0     O20522  -0.172   7.445   3.151  0.1615  0.0973  0.4335
  874MOL0     C20523  -0.362   7.417   3.352  0.7590  0.3760  0.3977
  874MOL0     C20524  -0.467   7.384   3.439 -0.8738 -0.1914 -0.2901
  874MOL0     N20525  -0.657   7.683   3.853 -0.2652  0.8615 -1.0654
  874MOL0     N20526  -0.584   7.785   3.890 -0.0385 -0.0227 -0.5373
  874MOL0     C20527   0.537   7.999   3.588 -0.4762 -0.6868  0.1808
  874MOL0     C20528   0.654   8.013   3.517 -0.4013  0.6868  0.2193
  874MOL0     C20529   0.883   8.051   3.122 -0.1394  0.9870 -0.6227
  874MOL0     C20530   1.003   7.993   3.166 -0.0328  0.2071 -0.3551
  874MOL0     C20531   1.122   8.001   3.093 -0.7187 -0.7901 -0.1555
  874MOL0     C20532   1.125   8.071   2.971 -0.4329  0.3062 -0.0551
  874MOL0     O20533   1.240   8.088   2.894  0.6000  0.3435 -0.0395
  874MOL0     C20534   1.362   8.097   2.966  0.4212 -0.6399 -0.2119
  874MOL0     C20535   1.465   8.175   2.887 -0.6710  0.2583 -0.7653
  874MOL0     C20536   1.605   8.166   2.944 -0.9782  0.4606 -0.9619
  874MOL0     C20537   1.624   8.220   3.083 -0.4783 -1.2762 -0.4013
  874MOL0     C20538   1.752   8.165   3.132 -0.7554 -0.9064 -0.1537
  874MOL0     C20539   1.860   8.117   3.159  0.1159  0.0568 -0.4074
  874MOL0     C20540   1.007   8.114   2.916  0.2813 -0.3040 -0.3467
  874MOL0     C20541   0.888   8.116   2.993 -0.2187  0.7094  0.2588
  874MOL0     C20542   0.760   8.164   2.912  0.6844 -0.4174 -0.1444
  874MOL0     H20543   0.585   7.786   3.278  1.0702  0.9556 -0.4711
  874MOL0     H20544   0.359   7.773   3.410 -2.1095  0.4257  0.3265
  874MOL0     H20545   0.252   8.107   3.549  0.1106 -2.0117 -0.3818
  874MOL0     H20546   0.327   8.112   3.715 -0.1716  0.2507  0.5420
  874MOL0     H20547   0.144   7.984   3.808  1.0593  0.8850  0.1912
  874MOL0     H20548   0.109   8.144   3.760 -0.5735 -1.3813  1.8621
  874MOL0     H20549   0.016   8.084   3.552  1.1691 -1.5346 -1.8909
  874MOL0     H20550   0.041   7.913   3.592  4.1438 -0.2638  1.4069
  874MOL0     H20551  -0.119   8.131   3.749 -0.4046  1.5321 -0.7046
  874MOL0     H20552  -0.194   8.018   3.627 -1.3445 -3.7948  1.6423
  874MOL0     H20553  -0.065   7.913   3.885 -0.8994 -2.4504  0.2208
  874MOL0     H20554  -0.145   7.825   3.759 -0.0017 -0.9302 -0.2227
  874MOL0     H20555  -0.253   8.052   3.919 -3.0532 -0.8114  0.7105
  874MOL0     H20556  -0.346   7.939   3.818  0.5655 -0.4617 -1.5363
  874MOL0     H20557  -0.220   7.905   4.085 -4.0985  1.1850  2.1998
  874MOL0     H20558  -0.237   7.757   3.980  1.4440 -0.1746 -0.2117
  874MOL0     H20559  -0.401   7.799   4.168  0.0033 -0.7182  0.2000
  874MOL0     H20560  -0.463   7.932   4.072 -4.1782 -0.5375 -1.5085
  874MOL0     H20561  -0.466   7.536   4.077 -0.7465 -4.9744 -3.3622
  874MOL0     H20562  -0.775   7.468   3.905  0.2776  1.3730  0.9178
  874MOL0     H20563  -0.644   7.370   3.980  0.8973  1.5778  0.5024
  874MOL0     H20564  -0.631   7.478   3.698  0.2013  1.1004  1.8910
  874MOL0     H20565  -0.521   7.353   3.771 -0.2662  1.8474  3.6132
  874MOL0     H20566  -0.716   7.192   3.772 -0.2323 -2.0158 -3.2050
  874MOL0     H20567  -0.829   7.312   3.709 -0.1251 -0.0864 -0.8538
  874MOL0     H20568  -0.596   7.178   3.552  1.5373  2.9933  2.1865
  874MOL0     H20569  -0.772   7.158   3.538 -0.3984 -0.2988 -0.4335
  874MOL0     H20570  -0.718   7.499   3.270  0.0612 -0.3620  0.2613
  874MOL0     H20571  -0.573   7.526   3.006 -0.8102 -2.9536  1.8451
  874MOL0     H20572  -0.502   7.681   3.067  1.6074 -2.8540 -1.3124
  874MOL0     H20573  -0.676   7.636   3.113  1.5378  1.1125  1.8587
  874MOL0     H20574  -0.197   7.860   3.039 -1.3434  0.3313 -2.3995
  874MOL0     H20575  -0.005   7.945   2.898 -1.9030  0.1699  1.3782
  874MOL0     H20576   0.059   7.957   2.664  0.4388  0.1497 -1.6183
  874MOL0     H20577   0.206   7.969   2.768 -3.4531 -0.1343  1.1263
  874MOL0     H20578   0.266   8.037   2.552 -0.7741 -0.1507 -1.0170
  874MOL0     H20579   0.341   7.881   2.589 -0.2587 -1.1658 -0.8467
  874MOL0     H20580   0.096   7.925   2.407 -1.6899 -3.1505 -0.4938
  874MOL0     H20581   0.170   7.775   2.426 -0.4160  0.9144  2.0499
  874MOL0     H20582   0.385   7.861   2.327  0.1469 -0.7962  0.1820
  874MOL0     H20583   0.305   8.019   2.315  1.8410 -0.9630 -0.5146
  874MOL0     H20584   0.302   7.880   2.118 -1.2853  3.7602 -0.0975
  874MOL0     H20585   0.209   7.761   2.211 -1.4628  0.1387  4.0423
  874MOL0     H20586   0.127   8.045   2.161 -4.6950  0.2423 -0.2414
  874MOL0     H20587   0.010   7.914   2.187 -1.1119 -1.2610 -1.2580
  874MOL0     H20588   0.091   7.810   1.969 -0.9111 -0.0234 -1.7374
  874MOL0     H20589   0.177   7.967   1.945  1.4422 -1.9167  1.6135
  874MOL0     H20590  -0.121   7.968   1.969 -2.7869  3.5657 -2.3572
  874MOL0     H20591  -0.025   7.977   1.824 -1.3921  2.5139 -0.4170
  874MOL0     H20592   0.046   7.545   2.750  0.6386  2.0258 -2.2795
  874MOL0     H20593  -0.145   7.476   2.909 -1.6907  0.2951  0.4299
  874MOL0     H20594  -0.262   7.391   3.384  0.5322 -0.9800  0.0424
  874MOL0     H20595  -0.432   7.346   3.535  0.0096  2.6856  0.6509
  874MOL0     H20596   0.539   8.047   3.686  0.7085  1.4766 -0.8444
  874MOL0     H20597   0.736   8.070   3.557  0.5673 -1.1487  0.9562
  874MOL0     H20598   1.015   7.962   3.270  1.0307 -0.7334 -0.7369
  874MOL0     H20599   1.209   7.955   3.138 -1.3605 -1.0046  0.9146
  874MOL0     H20600   1.342   8.141   3.065 -0.0146  0.1233 -0.6262
  874MOL0     H20601   1.393   7.994   2.986  0.3172 -0.3649  1.6007
  874MOL0     H20602   1.441   8.280   2.866  0.5574  0.3445 -1.9040
  874MOL0     H20603   1.466   8.126   2.789 -0.3530 -2.1896  0.3910
  874MOL0     H20604   1.649   8.068   2.959 -1.0767  0.8841  3.2796
  874MOL0     H20605   1.665   8.223   2.872 -0.9908  0.8672 -0.6562
  874MOL0     H20606   1.546   8.182   3.148 -0.3871 -0.0007  0.4935
  874MOL0     H20607   1.620   8.329   3.080  0.8906 -1.2074 -0.3249
  874MOL0     H20608   1.962   8.090   3.183 -0.0868  1.2933  2.1802
  874MOL0     H20609   1.000   8.162   2.819 -2.2392  2.1444  0.8963
  874MOL0     H20610   0.699   8.217   2.985 -1.0909 -3.6483  0.9240
  874MOL0     H20611   0.791   8.232   2.832  0.6426 -1.0485 -0.7046
  874MOL0     H20612   0.705   8.079   2.871  0.6798 -1.5402  2.0341
  875MOL0     O20613   0.519   0.304   3.688 -0.2917 -0.2880  0.3302
  875MOL0     C20614   0.536   0.214   3.602  0.0262 -0.0267  0.7035
  875MOL0     O20615   0.435   0.137   3.552 -0.2165  1.4454 -0.0670
  875MOL0     C20616   0.312   0.172   3.567  1.1805 -0.1252 -0.1791
  875MOL0     C20617   0.236   0.081   3.637  0.3390 -0.3073  0.6954
  875MOL0     C20618   0.098   0.099   3.649 -0.0534  0.6520  0.6566
  875MOL0     C20619   0.045   0.217   3.598  0.0183 -0.1542  0.1265
  875MOL0     O20620  -0.094   0.245   3.599 -0.6605  0.2622  0.3308
  875MOL0     C20621  -0.186   0.147   3.638 -0.0408  0.3663 -0.4807
  875MOL0     C20622  -0.331   0.193   3.600 -0.2611 -0.5782  1.0150
  875MOL0     C20623  -0.426   0.078   3.584  0.0206  1.1259 -0.5220
  875MOL0     C20624  -0.573   0.116   3.601  0.4373  1.0726  0.2567
  875MOL0     C20625  -0.671  -0.006   3.611  0.1667  0.2886  0.1606
  875MOL0     C20626  -0.690  -0.088   3.485  0.4633  0.2361 -0.1705
  875MOL0     C20627  -0.828  -0.148   3.484  0.0658 -0.1757 -0.5163
  875MOL0     C20628  -0.857  -0.245   3.371 -0.5563  0.1957  0.3151
  875MOL0     N20629  -0.979  -0.321   3.402  0.2599 -0.0658  0.2446
  875MOL0     C20630  -1.096  -0.310   3.333 -0.8794  0.0943 -0.4569
  875MOL0     C20631  -1.172  -0.407   3.390  0.6888  0.3257 -1.3049
  875MOL0     C20632  -1.319  -0.421   3.366 -0.5306  0.0678 -0.0013
  875MOL0     C20633  -1.354  -0.508   3.243 -0.7698 -0.1258  0.3037
  875MOL0     C20634  -1.312  -0.653   3.261 -0.2692  0.2764  0.2658
  875MOL0     C20635  -1.294  -0.735   3.135  0.3914 -1.0380 -0.2349
  875MOL0     O20636  -1.428  -0.730   3.071 -0.2351 -0.3516  0.4573
  875MOL0     C20637  -1.477  -0.827   2.986 -0.3558 -1.0057 -0.4645
  875MOL0     C20638  -1.411  -0.939   2.942  0.0551  0.0341  0.6584
  875MOL0     C20639  -1.473  -1.050   2.877 -0.6258 -0.2913  0.3470
  875MOL0     C20640  -1.375  -1.164   2.845  0.0150 -0.8679 -0.0008
  875MOL0     C20641  -1.606  -1.035   2.830 -0.4064  0.3564  0.1569
  875MOL0     C20642  -1.671  -1.134   2.741  0.6544  0.0428  0.0490
  875MOL0     O20643  -1.807  -1.119   2.741  0.6394 -0.0648  0.0716
  875MOL0     C20644  -1.894  -1.193   2.661  0.4666 -0.9196  0.7560
  875MOL0     C20645  -2.022  -1.226   2.723  0.6472 -0.8577  0.7854
  875MOL0     C20646  -2.122  -1.285   2.649  0.3066  0.3341  0.3671
  875MOL0     C20647  -2.097  -1.327   2.519 -0.8982  0.3000 -0.2539
  875MOL0     O20648  -2.193  -1.396   2.450 -0.7444  0.4912  0.1543
  875MOL0     C20649  -2.150  -1.507   2.359  0.9233  0.1970  0.4259
  875MOL0     C20650  -2.075  -1.627   2.420 -0.4052  0.8477  0.1425
  875MOL0     C20651  -2.172  -1.722   2.505 -0.7891 -0.2466  0.8548
  875MOL0     C20652  -2.113  -1.835   2.578  1.3680  0.3134  0.8115
  875MOL0     C20653  -2.219  -1.929   2.645  0.6951 -0.6071 -0.6851
  875MOL0     C20654  -2.163  -2.020   2.759 -0.6066  0.1061  0.1747
  875MOL0     C20655  -2.270  -2.096   2.836 -0.7103 -0.0366 -0.0806
  875MOL0     C20656  -2.308  -2.230   2.767  0.7353  0.5435  0.6551
  875MOL0    Cl20657  -2.413  -2.328   2.884  0.4005 -0.2209  0.1514
  875MOL0     C20658  -1.976  -1.288   2.450 -0.2962  0.1773 -0.5613
  875MOL0     C20659  -1.872  -1.224   2.526 -0.1250 -0.3532 -0.4640
  875MOL0     O20660  -1.606  -1.220   2.691  0.0867 -0.0166 -0.4912
  875MOL0     C20661  -1.676  -0.922   2.882  0.0544 -0.5002 -0.0092
  875MOL0     C20662  -1.610  -0.814   2.953  1.3181  0.2819 -0.1269
  875MOL0     N20663  -1.095  -0.474   3.487  0.0503 -0.1817 -0.0385
  875MOL0     N20664  -0.976  -0.422   3.488  0.2681 -0.4293 -0.5385
  875MOL0     C20665   0.125   0.309   3.524 -0.1099  1.3407  0.2668
  875MOL0     C20666   0.258   0.285   3.510  0.1611  0.2927  0.6014
  875MOL0     C20667   0.665   0.201   3.532 -0.1574  0.2256  0.1168
  875MOL0     C20668   0.694   0.075   3.479 -0.8417 -0.1014 -0.1115
  875MOL0     C20669   0.812   0.047   3.404  0.6065 -0.1317 -0.0060
  875MOL0     C20670   0.914   0.146   3.388  0.5278  0.8914 -0.9238
  875MOL0     O20671   1.037   0.117   3.329  0.3687  0.2423 -0.0162
  875MOL0     C20672   1.060   0.003   3.260  0.1858 -0.4195  0.4525
  875MOL0     C20673   1.211   0.025   3.227 -1.2690  0.5680  0.7183
  875MOL0     C20674   1.243  -0.036   3.093 -0.1274 -0.1115  0.3157
  875MOL0     C20675   1.385  -0.007   3.034 -0.3241 -0.3884  0.9900
  875MOL0     C20676   1.390   0.140   3.003  0.3756  0.7144 -0.4806
  875MOL0     C20677   1.406   0.258   2.968  0.7165  1.3047  0.7431
  875MOL0     C20678   0.893   0.270   3.458  0.0643  0.5042  0.3328
  875MOL0     C20679   0.771   0.296   3.529 -0.2807 -0.6709 -0.0410
  875MOL0     C20680   0.779   0.436   3.589  0.2490 -0.7318  0.2153
  875MOL0     H20681   0.285  -0.004   3.681  2.3747  0.3595 -0.1562
  875MOL0     H20682   0.031   0.027   3.696 -0.2038 -2.3741 -3.5973
  875MOL0     H20683  -0.177   0.144   3.747  1.1748  3.5721 -0.3757
  875MOL0     H20684  -0.161   0.049   3.597 -0.9801 -1.6963  3.4096
  875MOL0     H20685  -0.367   0.259   3.679 -2.5575  0.1499 -0.5525
  875MOL0     H20686  -0.335   0.242   3.502 -0.7424 -1.9943  0.3086
  875MOL0     H20687  -0.412   0.026   3.489 -3.8575  1.9519 -1.7157
  875MOL0     H20688  -0.413  -0.001   3.659  1.6795 -0.9741 -2.8547
  875MOL0     H20689  -0.588   0.172   3.693 -3.2665  1.7888 -0.6177
  875MOL0     H20690  -0.589   0.174   3.509  2.9995  2.2921  0.4778
  875MOL0     H20691  -0.772   0.030   3.635 -0.0464 -0.4655  0.4189
  875MOL0     H20692  -0.639  -0.079   3.685 -2.5114 -3.7179 -2.2625
  875MOL0     H20693  -0.675  -0.031   3.392  2.0536 -0.4111 -0.3401
  875MOL0     H20694  -0.608  -0.159   3.473  1.3171  1.3566 -1.4492
  875MOL0     H20695  -0.899  -0.065   3.485  1.6268  1.2361  0.1243
  875MOL0     H20696  -0.841  -0.197   3.581  1.9478  0.4594  0.1191
  875MOL0     H20697  -0.850  -0.206   3.269 -0.4936 -1.6854 -0.4488
  875MOL0     H20698  -0.772  -0.314   3.382  2.5456  3.9034  1.9339
  875MOL0     H20699  -1.136  -0.230   3.270 -2.4384 -1.3750 -1.4355
  875MOL0     H20700  -1.367  -0.323   3.357 -0.0385  0.2226 -1.1033
  875MOL0     H20701  -1.356  -0.478   3.451 -0.8504 -1.8963 -1.3949
  875MOL0     H20702  -1.462  -0.511   3.225 -0.6355  0.5445 -0.6669
  875MOL0     H20703  -1.305  -0.467   3.155  0.7497 -1.2343  0.5972
  875MOL0     H20704  -1.223  -0.653   3.325 -0.7197  2.0737  0.9698
  875MOL0     H20705  -1.388  -0.703   3.322 -0.1656  0.0799  0.2325
  875MOL0     H20706  -1.207  -0.689   3.088  0.5496 -0.9727  0.1216
  875MOL0     H20707  -1.272  -0.838   3.168 -2.3544 -1.0798  1.8391
  875MOL0     H20708  -1.310  -0.954   2.977 -0.3338  1.5831  2.6375
  875MOL0     H20709  -1.333  -1.153   2.745  0.7033 -1.6667  0.1945
  875MOL0     H20710  -1.423  -1.261   2.858 -1.7871 -0.0545 -0.2425
  875MOL0     H20711  -1.287  -1.161   2.910  2.5706 -1.9192 -3.1630
  875MOL0     H20712  -2.034  -1.195   2.827 -2.8185  1.9595 -0.2461
  875MOL0     H20713  -2.217  -1.293   2.700  1.5989  0.9318  3.1060
  875MOL0     H20714  -2.232  -1.541   2.296  0.2490  0.7168  1.0053
  875MOL0     H20715  -2.081  -1.471   2.283  0.7695 -0.9841 -0.3086
  875MOL0     H20716  -2.039  -1.677   2.329 -2.3642  0.2561 -0.3663
  875MOL0     H20717  -1.985  -1.594   2.473  3.1633 -2.1176 -3.4535
  875MOL0     H20718  -2.236  -1.763   2.427  0.6465  0.9491 -1.0355
  875MOL0     H20719  -2.243  -1.675   2.575  0.0291  0.8506  0.9767
  875MOL0     H20720  -2.047  -1.799   2.658  0.5317 -1.7667  2.5501
  875MOL0     H20721  -2.061  -1.893   2.501 -0.8177 -0.1929 -0.3765
  875MOL0     H20722  -2.287  -1.857   2.689  0.3642  1.0475 -3.6455
  875MOL0     H20723  -2.270  -1.992   2.570 -0.1415 -0.7485 -0.0110
  875MOL0     H20724  -2.095  -1.960   2.822  0.8003 -2.4560  1.2363
  875MOL0     H20725  -2.090  -2.080   2.705  2.0448  0.1981  3.3469
  875MOL0     H20726  -2.356  -2.029   2.843 -0.4603  0.6284 -2.4595
  875MOL0     H20727  -2.229  -2.119   2.935  0.6119 -2.2162 -1.0488
  875MOL0     H20728  -2.224  -2.291   2.733  1.0252  2.0091 -1.4649
  875MOL0     H20729  -2.370  -2.202   2.682 -0.1628 -3.3927 -0.1801
  875MOL0     H20730  -1.969  -1.307   2.343 -0.1250 -1.6411 -0.2582
  875MOL0     H20731  -1.769  -1.211   2.497  0.0834  1.4221  0.8936
  875MOL0     H20732  -1.782  -0.912   2.860 -0.1251 -1.5509  0.3206
  875MOL0     H20733  -1.667  -0.728   2.987  3.1088  0.5853  2.4476
  875MOL0     H20734   0.071   0.393   3.483 -0.2090  1.0234 -0.2621
  875MOL0     H20735   0.313   0.352   3.445 -2.9610 -0.2656 -2.9431
  875MOL0     H20736   0.615   0.001   3.484  0.8533 -2.0552 -0.7117
  875MOL0     H20737   0.812  -0.041   3.341 -1.3311  1.3222 -2.1916
  875MOL0     H20738   1.041  -0.087   3.318  1.8596  0.3169  2.2547
  875MOL0     H20739   0.998   0.018   3.170  1.8412 -1.4805 -0.9332
  875MOL0     H20740   1.281  -0.018   3.299  2.5471  1.8299 -1.9191
  875MOL0     H20741   1.230   0.132   3.213 -1.9364  0.3992 -1.9651
  875MOL0     H20742   1.226  -0.143   3.105  1.6949 -0.4817 -0.2176
  875MOL0     H20743   1.172   0.000   3.017  1.9467  2.6650 -0.4700
  875MOL0     H20744   1.396  -0.061   2.940 -0.4550  0.2388  0.6111
  875MOL0     H20745   1.468  -0.026   3.103 -0.3645  2.7710  2.0553
  875MOL0     H20746   1.413   0.361   2.939 -2.0788  1.2416 -0.5272
  875MOL0     H20747   0.963   0.353   3.453 -1.7592  2.0629 -1.1600
  875MOL0     H20748   0.847   0.497   3.529 -1.2739  0.6009 -0.1992
  875MOL0     H20749   0.685   0.491   3.596 -0.9285 -1.7922 -4.1685
  875MOL0     H20750   0.812   0.442   3.693 -2.8379  1.8528  1.1896
  876MOL0     O20751   6.794   6.966   6.678 -0.6678 -0.8640  0.5422
  876MOL0     C20752   6.856   6.906   6.763 -0.9042 -0.3457 -0.0887
  876MOL0     O20753   6.812   6.796   6.831 -0.7745 -0.4349 -0.3019
  876MOL0     C20754   6.682   6.764   6.823 -0.5596 -0.4011  0.7109
  876MOL0     C20755   6.590   6.848   6.871 -0.1166  0.7715 -0.4731
  876MOL0     C20756   6.452   6.803   6.865 -0.7993 -0.9655  0.3559
  876MOL0     C20757   6.416   6.680   6.801  0.9382 -1.0096  0.4372
  876MOL0     O20758   6.284   6.647   6.790  0.6658 -0.2001 -0.4546
  876MOL0     C20759   6.195   6.753   6.749 -0.0796 -0.0334 -0.6057
  876MOL0     C20760   6.056   6.690   6.710 -0.3346 -0.5253 -0.4078
  876MOL0     C20761   6.054   6.597   6.598 -1.1339  0.9333  0.3031
  876MOL0     C20762   5.912   6.600   6.538 -0.6311 -0.9355  1.1146
  876MOL0     C20763   5.915   6.519   6.402 -0.9525  0.1653 -0.6611
  876MOL0     C20764   5.784   6.489   6.342  0.1756  0.0327 -0.2753
  876MOL0     C20765   5.691   6.602   6.305 -0.1546  0.4886  0.6419
  876MOL0     C20766   5.552   6.545   6.265 -0.1076 -0.3044  0.6103
  876MOL0     N20767   5.473   6.658   6.221  0.5386 -0.2756 -0.0551
  876MOL0     C20768   5.386   6.724   6.292  0.7299  0.1369  0.3725
  876MOL0     C20769   5.361   6.828   6.207 -0.5587  0.2310  0.7295
  876MOL0     C20770   5.289   6.957   6.233  0.3913 -0.1730 -0.1821
  876MOL0     C20771   5.143   6.949   6.232  0.0362 -0.4668 -0.9169
  876MOL0     C20772   5.082   6.960   6.378 -0.1849 -0.2611  0.2165
  876MOL0     C20773   4.932   6.970   6.388  0.3306  0.6275 -0.3752
  876MOL0     O20774   4.875   6.932   6.517 -0.0062 -0.5993 -0.0097
  876MOL0     C20775   4.920   7.001   6.626  0.0714 -0.0670  0.3333
  876MOL0     C20776   4.939   6.912   6.738 -0.4239 -0.2194  0.4642
  876MOL0     C20777   4.985   6.971   6.856  0.1522  0.0677 -0.3523
  876MOL0     C20778   5.043   6.870   6.951  0.2169  0.4115 -0.9228
  876MOL0     C20779   4.997   7.116   6.874  0.6729  0.1576  0.0197
  876MOL0     C20780   5.049   7.173   6.998 -0.4289 -0.3362 -0.4580
  876MOL0     O20781   4.988   7.141   7.114  0.3473 -0.0450 -0.1861
  876MOL0     C20782   5.023   7.204   7.234  0.0691 -0.2201 -0.4381
  876MOL0     C20783   4.923   7.270   7.308 -0.1896  0.0706  0.2572
  876MOL0     C20784   4.943   7.332   7.423  0.0751  0.2492  0.1215
  876MOL0     C20785   5.073   7.342   7.473 -0.2072 -0.1722 -0.9809
  876MOL0     O20786   5.088   7.416   7.590  0.0760  0.0884 -0.3447
  876MOL0     C20787   5.195   7.515   7.607 -0.2544 -0.0196 -0.5498
  876MOL0     C20788   5.153   7.669   7.587  0.7739  0.4771 -0.2369
  876MOL0     C20789   5.135   7.699   7.440  0.0090 -0.6227  0.6525
  876MOL0     C20790   5.101   7.842   7.419 -0.5399  0.0642  1.0657
  876MOL0     C20791   5.011   7.868   7.292  0.0727  0.6036  0.4379
  876MOL0     C20792   5.019   8.006   7.232  0.0197 -0.2294  0.2760
  876MOL0     C20793   4.888   8.047   7.158  0.3937  1.0384 -0.4823
  876MOL0     C20794   4.882   8.193   7.128 -0.4624  0.3006 -0.2450
  876MOL0    Cl20795   5.044   8.261   7.066 -0.4340  0.3790  0.0412
  876MOL0     C20796   5.181   7.274   7.412  0.4569  0.9737  0.8172
  876MOL0     C20797   5.153   7.208   7.299  0.0440 -0.0547  0.0894
  876MOL0     O20798   5.152   7.236   6.984  0.2907 -0.5589 -0.4012
  876MOL0     C20799   4.974   7.200   6.766 -1.0391  0.1492  0.8023
  876MOL0     C20800   4.938   7.143   6.641 -0.2136  0.1668 -0.4072
  876MOL0     N20801   5.411   6.807   6.083  0.6249  0.0516 -0.8299
  876MOL0     N20802   5.481   6.699   6.090  0.0197 -0.3273 -0.2835
  876MOL0     C20803   6.520   6.596   6.757  0.0244 -0.8684 -0.5531
  876MOL0     C20804   6.655   6.638   6.766  0.0729 -0.4270 -0.8478
  876MOL0     C20805   6.993   6.944   6.788 -0.3857 -0.8598  0.2047
  876MOL0     C20806   7.031   6.939   6.930 -0.1654  0.2663 -0.3885
  876MOL0     C20807   7.165   6.965   6.960  0.0068 -1.1383 -0.5098
  876MOL0     C20808   7.251   7.044   6.869  0.1615  0.8823 -0.1086
  876MOL0     O20809   7.374   7.092   6.911  0.4392  0.1484  0.2952
  876MOL0     C20810   7.466   7.138   6.812  0.2850  0.1379 -0.3603
  876MOL0     C20811   7.586   7.185   6.892  0.3705  0.3909  0.7721
  876MOL0     C20812   7.664   7.061   6.940  0.3299 -0.5392 -0.4514
  876MOL0     C20813   7.776   7.114   7.041 -0.1902 -0.5539 -0.8157
  876MOL0     C20814   7.879   7.011   7.046  0.5332 -0.1034  0.0050
  876MOL0     C20815   7.983   6.950   7.048  0.8914 -0.6568 -0.0215
  876MOL0     C20816   7.199   7.053   6.735  0.4878 -0.8822 -0.6740
  876MOL0     C20817   7.078   6.999   6.686  0.8040  0.3442  0.0488
  876MOL0     C20818   7.040   7.023   6.536 -0.1675 -0.3924 -1.9074
  876MOL0     H20819   6.623   6.945   6.909  6.0349 -1.6868  1.7415
  876MOL0     H20820   6.387   6.886   6.893  1.3462  1.7587 -2.1337
  876MOL0     H20821   6.230   6.811   6.664  1.0035  1.0358  0.5289
  876MOL0     H20822   6.175   6.827   6.827 -2.4462 -0.4054 -0.7912
  876MOL0     H20823   6.014   6.636   6.796  1.1521 -0.2960  0.5013
  876MOL0     H20824   5.996   6.781   6.703  0.5165  0.4303  2.7934
  876MOL0     H20825   6.135   6.614   6.526 -0.3112 -1.7235  0.4967
  876MOL0     H20826   6.080   6.497   6.632  0.7084  0.4585 -2.1903
  876MOL0     H20827   5.846   6.559   6.615 -0.1489 -1.9289  1.0235
  876MOL0     H20828   5.879   6.702   6.521 -0.9965 -1.1911  0.2646
  876MOL0     H20829   5.969   6.424   6.416 -3.1952 -1.9646 -4.6312
  876MOL0     H20830   5.975   6.570   6.326  1.2398 -0.2732  0.7050
  876MOL0     H20831   5.812   6.435   6.251 -6.1803  0.3274 -2.8982
  876MOL0     H20832   5.723   6.421   6.403 -1.5603 -0.3644 -2.3282
  876MOL0     H20833   5.726   6.678   6.235  0.0408  2.1885  2.4717
  876MOL0     H20834   5.673   6.651   6.402  1.0853 -0.9703  1.6605
  876MOL0     H20835   5.565   6.490   6.172 -2.1669  0.1951 -0.0322
  876MOL0     H20836   5.496   6.489   6.340 -1.0820  1.4998  1.3153
  876MOL0     H20837   5.359   6.721   6.397 -1.1455  0.9905 -0.0482
  876MOL0     H20838   5.326   7.031   6.163  1.9975 -2.9374 -2.4696
  876MOL0     H20839   5.328   6.988   6.331  2.9776 -2.7273 -0.2466
  876MOL0     H20840   5.113   7.025   6.159 -0.5461  0.2432  0.0481
  876MOL0     H20841   5.099   6.856   6.194 -1.8505  0.3031 -0.7213
  876MOL0     H20842   5.123   6.879   6.440  2.1503  0.6651 -0.0074
  876MOL0     H20843   5.115   7.055   6.423  2.2198 -0.7644 -0.3885
  876MOL0     H20844   4.903   7.071   6.358 -0.1100  0.7030  0.2823
  876MOL0     H20845   4.890   6.903   6.312 -0.9019 -0.7255  1.4207
  876MOL0     H20846   4.929   6.807   6.714 -0.2759  0.1752 -1.4758
  876MOL0     H20847   5.149   6.894   6.957  0.1673  1.0860 -2.3457
  876MOL0     H20848   5.015   6.767   6.927 -2.9225  1.4016 -2.0289
  876MOL0     H20849   4.999   6.890   7.049  0.2416 -2.6349 -0.2061
  876MOL0     H20850   4.829   7.271   7.254 -0.1676 -0.0463  0.2162
  876MOL0     H20851   4.857   7.368   7.479 -1.3301 -1.2608 -0.9886
  876MOL0     H20852   5.245   7.508   7.704 -0.9948  0.2961 -0.1356
  876MOL0     H20853   5.274   7.502   7.533  0.9574  4.9246 -0.4682
  876MOL0     H20854   5.052   7.683   7.627 -0.4608  1.7644 -3.4565
  876MOL0     H20855   5.226   7.740   7.626 -1.5909  2.0005  1.7807
  876MOL0     H20856   5.041   7.646   7.420 -3.4316  4.0703  2.2633
  876MOL0     H20857   5.225   7.668   7.387  1.8089  0.2623  3.0157
  876MOL0     H20858   5.195   7.895   7.399 -0.4825 -0.1631  0.7367
  876MOL0     H20859   5.051   7.866   7.514  1.3254 -0.7544  2.3283
  876MOL0     H20860   5.060   7.818   7.208  1.8847  3.4632 -0.3453
  876MOL0     H20861   4.910   7.834   7.318 -0.3831 -0.4943 -2.4262
  876MOL0     H20862   5.102   8.030   7.165 -1.9139  0.7622 -1.9331
  876MOL0     H20863   5.019   8.071   7.320  3.0093  1.0536 -0.5452
  876MOL0     H20864   4.799   8.030   7.219  2.2723 -4.2700  1.3405
  876MOL0     H20865   4.874   7.994   7.063  1.0800  1.5016 -0.8515
  876MOL0     H20866   4.855   8.252   7.216  0.0167 -0.3454  0.3589
  876MOL0     H20867   4.807   8.211   7.051 -0.1726  1.2239 -0.3241
  876MOL0     H20868   5.280   7.267   7.457  0.0756 -0.5058  1.4693
  876MOL0     H20869   5.241   7.168   7.250 -0.5899 -1.4346  0.0408
  876MOL0     H20870   4.995   7.305   6.784  0.9848 -0.3218  1.4132
  876MOL0     H20871   4.929   7.209   6.556  1.3319  2.7061  1.2744
  876MOL0     H20872   6.506   6.496   6.716 -1.0834 -1.3846  0.9555
  876MOL0     H20873   6.737   6.574   6.735 -0.0577  0.7698 -4.0987
  876MOL0     H20874   6.977   6.905   7.017  1.2932  1.1269  0.8993
  876MOL0     H20875   7.204   6.957   7.061 -3.7645 -1.2159  1.1524
  876MOL0     H20876   7.487   7.064   6.735 -0.2387 -0.9828  0.5396
  876MOL0     H20877   7.422   7.228   6.768 -0.4365  0.0792  0.2107
  876MOL0     H20878   7.555   7.241   6.980  0.9587 -3.5054  3.7359
  876MOL0     H20879   7.647   7.252   6.831  0.4494  1.2847  1.8026
  876MOL0     H20880   7.604   6.986   6.991 -0.4340 -0.3398 -1.0439
  876MOL0     H20881   7.710   7.011   6.854 -1.9641  2.3613 -3.6228
  876MOL0     H20882   7.738   7.125   7.143  0.9223  0.0086 -0.4495
  876MOL0     H20883   7.814   7.212   7.010 -2.4590  1.2179  1.5448
  876MOL0     H20884   8.085   6.918   7.051  0.3939 -2.3209  2.2719
  876MOL0     H20885   7.262   7.102   6.662  1.3626 -1.1228 -0.0963
  876MOL0     H20886   6.976   6.944   6.496 -1.0133 -0.9736  0.4279
  876MOL0     H20887   6.981   7.115   6.540  1.2908  0.5585  0.8731
  876MOL0     H20888   7.131   7.027   6.476  1.4723  3.5215  0.4247
  877MOL0     O20889  10.817   8.839   7.515 -0.2104  0.2015 -0.2620
  877MOL0     C20890  10.927   8.875   7.469  0.0090  0.5615  0.6351
  877MOL0     O20891  10.965   8.852   7.338 -0.1351  0.2169 -0.2795
  877MOL0     C20892  10.884   8.772   7.270 -0.3243 -0.1881 -0.4260
  877MOL0     C20893  10.930   8.634   7.256 -0.3615 -0.6674  0.4772
  877MOL0     C20894  10.860   8.548   7.186  0.2795  0.0283 -0.7536
  877MOL0     C20895  10.741   8.586   7.124  0.4350 -0.3522  0.1819
  877MOL0     O20896  10.681   8.485   7.049 -0.1916 -0.1656 -0.9491
  877MOL0     C20897  10.573   8.512   6.956 -0.2621 -0.7805 -0.0427
  877MOL0     C20898  10.555   8.388   6.869  0.7995  1.1192  0.9128
  877MOL0     C20899  10.679   8.378   6.780  0.3937 -0.2502 -0.1226
  877MOL0     C20900  10.653   8.265   6.673  0.0101  0.5554  0.1785
  877MOL0     C20901  10.772   8.246   6.593 -0.9669 -0.3946 -0.1451
  877MOL0     C20902  10.763   8.125   6.493 -0.0627  0.3116  0.6264
  877MOL0     C20903  10.804   8.001   6.575 -0.1271 -0.3448  0.3302
  877MOL0     C20904  10.776   7.871   6.495  0.1585  0.4363  0.6394
  877MOL0     N20905  10.882   7.783   6.537 -0.0921 -0.6231  0.8819
  877MOL0     C20906  11.001   7.769   6.464  1.0528 -0.4060 -0.8594
  877MOL0     C20907  11.062   7.665   6.533  0.2489 -0.4738 -0.8311
  877MOL0     C20908  11.205   7.612   6.524 -0.2174  0.4600  0.5835
  877MOL0     C20909  11.207   7.482   6.444 -0.0958 -0.8687  0.6532
  877MOL0     C20910  11.168   7.503   6.286 -0.7393  1.1558 -0.4155
  877MOL0     C20911  11.152   7.375   6.202 -0.5382 -0.0699 -0.9164
  877MOL0     O20912  11.275   7.300   6.186 -0.1175  0.4295  0.1147
  877MOL0     C20913  11.362   7.344   6.091 -0.1643  0.5943 -0.4437
  877MOL0     C20914  11.499   7.328   6.124  0.2384  0.8227 -0.1573
  877MOL0     C20915  11.599   7.404   6.056  1.1677 -0.5670  0.9792
  877MOL0     C20916  11.744   7.374   6.086 -0.4360 -0.0681  0.0346
  877MOL0     C20917  11.549   7.482   5.941 -0.0935 -0.8004  0.3120
  877MOL0     C20918  11.647   7.557   5.851 -0.4548 -0.8268  0.8756
  877MOL0     O20919  11.602   7.618   5.730 -0.0246 -0.7728 -0.1214
  877MOL0     C20920  11.697   7.651   5.633  0.0570  1.4861  0.3317
  877MOL0     C20921  11.665   7.762   5.549  0.3359  0.7063  0.0466
  877MOL0     C20922  11.762   7.796   5.457  0.2437 -0.2694  0.7862
  877MOL0     C20923  11.864   7.706   5.418  0.6501 -0.7507  0.3239
  877MOL0     O20924  11.956   7.715   5.320  0.2379  0.0524 -0.0504
  877MOL0     C20925  11.933   7.802   5.210 -0.2362 -0.5807 -0.0484
  877MOL0     C20926  12.019   7.769   5.086  0.8215 -0.1822 -0.4987
  877MOL0     C20927  12.148   7.831   5.102 -0.1435 -0.8720  0.2096
  877MOL0     C20928  12.221   7.814   4.975 -0.1891 -0.4964 -0.0866
  877MOL0     C20929  12.352   7.899   4.966  0.3423  0.2005  0.4643
  877MOL0     C20930  12.327   8.050   4.931  0.2678  0.2464  0.7142
  877MOL0     C20931  12.416   8.145   5.009 -0.3028 -0.3101  0.3069
  877MOL0     C20932  12.420   8.282   4.929  0.1316  0.4900 -0.6917
  877MOL0    Cl20933  12.484   8.263   4.762 -0.0345 -0.2024 -0.0106
  877MOL0     C20934  11.876   7.590   5.490 -0.2408 -0.7218  0.0635
  877MOL0     C20935  11.804   7.563   5.610 -0.0558 -0.5975  0.4971
  877MOL0     O20936  11.758   7.566   5.896 -0.2806  0.2598  0.2410
  877MOL0     C20937  11.413   7.483   5.903 -0.8435 -0.2103 -0.1944
  877MOL0     C20938  11.322   7.414   5.975  0.4543 -0.0955 -1.0374
  877MOL0     N20939  10.973   7.601   6.628  0.3607 -0.2077 -0.4650
  877MOL0     N20940  10.867   7.685   6.626 -0.1459  1.3771 -0.2585
  877MOL0     C20941  10.692   8.721   7.144 -0.1260 -0.6872  0.0466
  877MOL0     C20942  10.766   8.814   7.212  0.6316 -0.4876 -0.5419
  877MOL0     C20943  11.012   8.958   7.559 -0.2535 -0.0376  0.6796
  877MOL0     C20944  11.098   9.052   7.492 -0.2752 -0.2418 -0.1254
  877MOL0     C20945  11.179   9.136   7.565 -0.2333 -0.8426 -0.4221
  877MOL0     C20946  11.187   9.125   7.706 -0.3667  0.1898  0.7652
  877MOL0     O20947  11.275   9.210   7.765 -0.1317 -0.2339 -0.0642
  877MOL0     C20948  11.333   9.149   7.882 -0.0008  0.3280 -0.3274
  877MOL0     C20949  11.456   9.217   7.935 -0.1002  0.4634  0.4507
  877MOL0     C20950  11.510   9.139   8.062 -0.0322 -0.5117  0.3479
  877MOL0     C20951  11.569   9.000   8.025  0.7825 -0.9392 -0.1323
  877MOL0     C20952  11.635   8.951   8.148  0.9775  0.2696  0.7853
  877MOL0     C20953  11.704   8.913   8.242 -0.0002 -0.4481 -0.5776
  877MOL0     C20954  11.113   9.025   7.764 -0.0116 -0.2341 -0.0388
  877MOL0     C20955  11.028   8.943   7.697  0.3916 -1.0228 -0.2340
  877MOL0     C20956  10.942   8.848   7.776  0.2325 -0.8412 -0.9528
  877MOL0     H20957  11.021   8.605   7.308  0.2024  0.2781  0.0339
  877MOL0     H20958  10.883   8.445   7.163 -1.9550 -0.5665 -0.5855
  877MOL0     H20959  10.598   8.588   6.882  1.6121  1.7926  2.9798
  877MOL0     H20960  10.482   8.552   7.002 -1.4819 -1.6816 -1.5488
  877MOL0     H20961  10.539   8.299   6.930 -0.7980 -0.0987 -1.1627
  877MOL0     H20962  10.471   8.400   6.800  0.6705 -3.9152 -0.1547
  877MOL0     H20963  10.688   8.466   6.715  1.9982 -1.7919 -2.1284
  877MOL0     H20964  10.773   8.375   6.836  1.5018  0.0048 -1.8920
  877MOL0     H20965  10.620   8.172   6.720 -3.3331  1.8316  0.5871
  877MOL0     H20966  10.574   8.294   6.603 -0.8733 -2.2019 -0.0766
  877MOL0     H20967  10.846   8.230   6.673 -1.2272 -0.0710  0.1659
  877MOL0     H20968  10.771   8.337   6.532 -1.9234 -1.4825 -1.8017
  877MOL0     H20969  10.660   8.104   6.460 -0.1467  0.7530  0.6003
  877MOL0     H20970  10.826   8.144   6.406 -0.1433  2.1338  0.9293
  877MOL0     H20971  10.764   7.991   6.676  1.6289 -0.9463  1.0079
  877MOL0     H20972  10.913   8.009   6.588  0.1415 -0.3363 -1.5156
  877MOL0     H20973  10.679   7.837   6.533 -0.3218  0.7848 -0.2352
  877MOL0     H20974  10.774   7.884   6.386 -0.7994  0.9777  0.7034
  877MOL0     H20975  11.042   7.823   6.379 -3.0756  1.6513 -1.7991
  877MOL0     H20976  11.258   7.604   6.619 -0.8253 -1.7131  0.7977
  877MOL0     H20977  11.270   7.677   6.465  1.8494 -2.6983 -0.8689
  877MOL0     H20978  11.312   7.452   6.441  0.4550  1.0085 -1.8248
  877MOL0     H20979  11.142   7.412   6.497  1.8660 -4.4779 -1.2940
  877MOL0     H20980  11.079   7.566   6.276 -2.0068 -0.2747  1.2964
  877MOL0     H20981  11.245   7.564   6.236 -0.5848  0.8619 -0.5422
  877MOL0     H20982  11.077   7.310   6.248 -2.9090 -1.7000 -6.3526
  877MOL0     H20983  11.115   7.387   6.100 -2.3513 -2.0390 -0.5588
  877MOL0     H20984  11.524   7.260   6.205  3.1060  0.3847 -1.3065
  877MOL0     H20985  11.812   7.459   6.097 -2.2650  1.4762 -0.0883
  877MOL0     H20986  11.789   7.305   6.014  0.5962 -0.0105  0.6045
  877MOL0     H20987  11.752   7.318   6.179 -0.5179 -3.9325 -2.0538
  877MOL0     H20988  11.574   7.819   5.562 -0.6363 -1.1760  2.2445
  877MOL0     H20989  11.770   7.888   5.401 -2.8160 -1.0134 -1.1240
  877MOL0     H20990  11.827   7.806   5.181  0.2817  0.7652 -1.9160
  877MOL0     H20991  11.956   7.903   5.245  3.7973 -0.9527 -1.1728
  877MOL0     H20992  12.020   7.661   5.069  0.1065 -0.9995  3.5988
  877MOL0     H20993  11.965   7.805   4.998 -1.8699 -0.8223  0.7818
  877MOL0     H20994  12.209   7.800   5.187  0.1970  0.7619  0.6014
  877MOL0     H20995  12.126   7.937   5.116  0.6547 -0.8467  1.4420
  877MOL0     H20996  12.164   7.854   4.890  2.2978  0.6841 -1.3296
  877MOL0     H20997  12.247   7.709   4.959  2.8858  0.4795 -2.6437
  877MOL0     H20998  12.410   7.889   5.058 -0.9841  1.9116  1.5555
  877MOL0     H20999  12.415   7.857   4.887 -0.3853  2.9782 -1.7544
  877MOL0     H21000  12.226   8.060   4.972 -0.1860 -0.1535 -0.2727
  877MOL0     H21001  12.314   8.067   4.824  0.3947 -0.9614  0.4931
  877MOL0     H21002  12.518   8.106   5.012 -0.1310 -0.0225 -1.2803
  877MOL0     H21003  12.379   8.158   5.112  0.3148  2.0720  0.2775
  877MOL0     H21004  12.481   8.347   4.992  1.8838 -0.6647 -1.1373
  877MOL0     H21005  12.318   8.322   4.928 -0.8414 -0.8905  4.7973
  877MOL0     H21006  11.936   7.508   5.451 -1.0891 -2.0218  1.4081
  877MOL0     H21007  11.825   7.476   5.671 -1.9280 -1.0533  0.5277
  877MOL0     H21008  11.389   7.545   5.817  2.1764 -0.2122 -1.1662
  877MOL0     H21009  11.220   7.431   5.941  0.6322  1.2891 -0.9404
  877MOL0     H21010  10.595   8.745   7.100 -2.5472 -0.9804  4.6616
  877MOL0     H21011  10.733   8.914   7.185  0.9426 -0.9171 -2.6499
  877MOL0     H21012  11.103   9.060   7.384  0.3764 -2.2010 -0.2810
  877MOL0     H21013  11.246   9.205   7.514 -0.8520  0.6611  0.6973
  877MOL0     H21014  11.258   9.156   7.962 -0.6626 -2.1066 -0.6723
  877MOL0     H21015  11.358   9.045   7.861 -0.3345  0.2940 -0.5586
  877MOL0     H21016  11.443   9.323   7.958  0.0660  0.2333  1.6890
  877MOL0     H21017  11.533   9.217   7.858 -1.3948  1.0031 -0.8949
  877MOL0     H21018  11.581   9.209   8.106 -0.8628  1.3165 -1.0713
  877MOL0     H21019  11.429   9.134   8.135 -1.1036  0.8479 -0.6899
  877MOL0     H21020  11.646   9.017   7.949  0.3927 -3.7143 -1.2595
  877MOL0     H21021  11.488   8.937   7.988 -2.1932  2.7458 -0.4100
  877MOL0     H21022  11.767   8.890   8.326  0.5173  0.6879 -0.6469
  877MOL0     H21023  11.129   9.009   7.870  2.7967 -1.8600 -0.5937
  877MOL0     H21024  10.956   8.852   7.885 -0.6984 -1.2625 -0.8009
  877MOL0     H21025  10.835   8.866   7.760  0.5989  2.0915 -0.6037
  877MOL0     H21026  10.950   8.744   7.742  1.9268 -1.9602  2.3541
  878MOL0     O21027   6.344   2.803   0.023  0.2115  0.2243  0.5278
  878MOL0     C21028   6.430   2.874   0.066 -0.3379 -0.4165 -0.2348
  878MOL0     O21029   6.531   2.831   0.145 -0.5849  1.6429 -0.1167
  878MOL0     C21030   6.551   2.693   0.162 -0.3899  0.2000 -0.0541
  878MOL0     C21031   6.562   2.634   0.289 -0.6333  0.3105 -0.5952
  878MOL0     C21032   6.596   2.493   0.302  0.0307 -0.6954 -0.8516
  878MOL0     C21033   6.635   2.425   0.191 -0.1448 -0.5972 -0.1190
  878MOL0     O21034   6.665   2.288   0.192 -0.2305 -0.0398  0.1014
  878MOL0     C21035   6.708   2.222   0.310 -0.3713 -0.5470 -0.1118
  878MOL0     C21036   6.811   2.104   0.284 -0.0415 -0.1960 -0.0446
  878MOL0     C21037   6.946   2.163   0.234 -0.3450 -0.1865 -0.2731
  878MOL0     C21038   7.072   2.078   0.211 -0.2130 -0.6658 -0.0940
  878MOL0     C21039   7.195   2.162   0.162 -0.0901 -0.0619  0.6464
  878MOL0     C21040   7.298   2.051   0.124 -0.2968 -0.0774 -0.0198
  878MOL0     C21041   7.445   2.102   0.110  0.0404 -0.3477  0.6163
  878MOL0     C21042   7.545   1.991   0.082  0.4924  0.4674 -0.3959
  878MOL0     N21043   7.670   2.050   0.027 -0.3684 -0.6472  0.4840
  878MOL0     C21044   7.694   2.041  -0.098  0.3514  0.0162 -0.2251
  878MOL0     C21045   7.817   2.103  -0.124  0.3752  0.0479 -0.6135
  878MOL0     C21046   7.868   2.142  -0.257 -0.0504  1.2443  0.9709
  878MOL0     C21047   7.834   2.282  -0.287 -0.5789 -0.0205 -0.0643
  878MOL0     C21048   7.879   2.332  -0.422  0.3598  1.0052  0.2937
  878MOL0     C21049   7.808   2.466  -0.459  0.4888  0.0747 -0.1813
  878MOL0     O21050   7.701   2.436  -0.553 -0.4890  0.0873  0.0334
  878MOL0     C21051   7.650   2.531  -0.634 -0.3122 -0.9003  0.2474
  878MOL0     C21052   7.622   2.665  -0.603 -0.2493  0.6674 -0.3433
  878MOL0     C21053   7.564   2.752  -0.696  0.3453 -0.4072  0.1746
  878MOL0     C21054   7.537   2.892  -0.652  0.0811  1.3420  0.5231
  878MOL0     C21055   7.519   2.698  -0.818  0.1379 -0.5400  0.3189
  878MOL0     C21056   7.436   2.769  -0.923  0.1158  0.3995  0.0939
  878MOL0     O21057   7.355   2.701  -0.999  0.5771  0.2649 -0.1641
  878MOL0     C21058   7.281   2.754  -1.107 -0.2964 -0.3518  0.1547
  878MOL0     C21059   7.294   2.881  -1.160  0.4391  0.6446 -0.9212
  878MOL0     C21060   7.225   2.915  -1.283 -0.1509 -0.1516  0.0560
  878MOL0     C21061   7.138   2.830  -1.346  0.2366  1.4987 -0.3928
  878MOL0     O21062   7.074   2.862  -1.464 -0.2218 -0.0936  0.8605
  878MOL0     C21063   6.939   2.900  -1.439  0.4338 -0.8885  0.1864
  878MOL0     C21064   6.864   2.930  -1.566 -0.0647  0.1047 -1.4848
  878MOL0     C21065   6.711   2.924  -1.527  0.2944 -0.1119 -0.0894
  878MOL0     C21066   6.676   3.058  -1.448  0.2998  0.3711  1.2923
  878MOL0     C21067   6.525   3.084  -1.458 -0.3841 -0.3309  0.8746
  878MOL0     C21068   6.494   3.222  -1.406 -0.4676 -0.4144  0.4971
  878MOL0     C21069   6.575   3.271  -1.278 -0.3406  0.5228 -0.2354
  878MOL0     C21070   6.512   3.391  -1.217  1.1055 -0.4585 -0.8436
  878MOL0    Cl21071   6.360   3.342  -1.134 -0.4935 -0.6797 -0.1130
  878MOL0     C21072   7.113   2.701  -1.288 -0.1892  0.3135  0.0562
  878MOL0     C21073   7.186   2.672  -1.169 -0.9358  0.0742 -0.3500
  878MOL0     O21074   7.445   2.895  -0.923 -0.6333  0.2812 -0.2452
  878MOL0     C21075   7.535   2.558  -0.840  0.4331 -0.7982 -0.2798
  878MOL0     C21076   7.605   2.481  -0.753 -0.0688 -0.6475 -0.3850
  878MOL0     N21077   7.859   2.155   0.002 -0.5332  0.6776 -0.1913
  878MOL0     N21078   7.764   2.126   0.091 -0.1271  0.0523  0.6428
  878MOL0     C21079   6.633   2.484   0.070 -0.1422  0.9558  0.0183
  878MOL0     C21080   6.586   2.614   0.049 -0.0830 -0.0156 -0.2902
  878MOL0     C21081   6.439   3.018   0.025 -0.2398  0.6912 -0.0083
  878MOL0     C21082   6.565   3.068   0.020 -0.5531  0.0456  0.1908
  878MOL0     C21083   6.590   3.197  -0.018 -0.3673  0.0518  0.6825
  878MOL0     C21084   6.485   3.286  -0.062 -0.1218  0.2820 -1.3583
  878MOL0     O21085   6.512   3.409  -0.122 -0.6598  0.2298 -0.1291
  878MOL0     C21086   6.412   3.509  -0.128 -0.2022 -0.5276  0.2961
  878MOL0     C21087   6.463   3.619  -0.214 -0.5050  0.3525 -0.8074
  878MOL0     C21088   6.370   3.733  -0.200 -0.4135 -0.1737 -0.0345
  878MOL0     C21089   6.411   3.857  -0.285  0.6235 -0.9417  0.1264
  878MOL0     C21090   6.336   3.863  -0.405  0.3009 -0.1221 -0.5676
  878MOL0     C21091   6.286   3.861  -0.515  0.2769  0.4654 -0.1121
  878MOL0     C21092   6.354   3.237  -0.059 -0.4525  0.1631  0.2099
  878MOL0     C21093   6.329   3.108  -0.013 -1.4921  0.7403  0.2466
  878MOL0     C21094   6.188   3.056  -0.035  0.4257  0.3097  0.2821
  878MOL0     H21095   6.553   2.683   0.385  0.1580 -1.3645  0.3868
  878MOL0     H21096   6.601   2.438   0.395 -0.0809  1.6563  0.6137
  878MOL0     H21097   6.615   2.183   0.352 -0.7866 -1.1401 -1.5056
  878MOL0     H21098   6.756   2.289   0.382 -2.9008 -0.6224  1.7726
  878MOL0     H21099   6.822   2.044   0.375 -0.2124 -1.0169 -0.5530
  878MOL0     H21100   6.766   2.045   0.203 -0.2986  0.0010 -0.0479
  878MOL0     H21101   6.916   2.228   0.152  0.9908  0.6083 -0.1546
  878MOL0     H21102   6.980   2.219   0.321  0.3044 -1.0653  0.0505
  878MOL0     H21103   7.113   2.032   0.301  2.2014  0.2769 -0.6249
  878MOL0     H21104   7.049   1.999   0.139  1.3492 -0.8563 -0.4286
  878MOL0     H21105   7.229   2.235   0.237 -1.5869  1.2491  0.0905
  878MOL0     H21106   7.173   2.213   0.068  2.4641 -0.5341 -0.2863
  878MOL0     H21107   7.294   1.964   0.191 -1.8265 -1.2226 -1.5235
  878MOL0     H21108   7.276   2.015   0.023  0.4037  0.4839 -0.3809
  878MOL0     H21109   7.472   2.150   0.204 -1.7570 -0.4826  1.2503
  878MOL0     H21110   7.431   2.175   0.029 -1.4067 -1.7862 -0.5097
  878MOL0     H21111   7.563   1.949   0.182  1.3304  1.6493 -0.0335
  878MOL0     H21112   7.497   1.921   0.012  0.9894 -1.4025  1.0345
  878MOL0     H21113   7.623   1.986  -0.159  1.8933 -3.9778  1.2353
  878MOL0     H21114   7.822   2.070  -0.324  2.1092 -0.0035  0.7501
  878MOL0     H21115   7.974   2.115  -0.269 -0.5957  0.0736 -1.7514
  878MOL0     H21116   7.726   2.297  -0.296 -0.3701  1.2136 -0.7486
  878MOL0     H21117   7.880   2.356  -0.222  1.0639  0.6739 -1.9124
  878MOL0     H21118   7.988   2.332  -0.428  0.4184 -0.2232  0.9276
  878MOL0     H21119   7.839   2.270  -0.502 -0.5841  2.8374 -0.7340
  878MOL0     H21120   7.759   2.519  -0.377 -3.8415  0.7632 -2.9130
  878MOL0     H21121   7.874   2.529  -0.520  0.4421 -0.3079 -0.6373
  878MOL0     H21122   7.650   2.706  -0.507  0.1968 -0.0787 -0.1488
  878MOL0     H21123   7.599   2.912  -0.565  0.7965 -1.6668  0.8211
  878MOL0     H21124   7.432   2.904  -0.625 -0.1761  0.0360  0.1803
  878MOL0     H21125   7.567   2.958  -0.734 -0.4372 -0.5461 -1.2844
  878MOL0     H21126   7.368   2.951  -1.124  1.1652 -1.2375  1.4655
  878MOL0     H21127   7.253   3.015  -1.314  2.8945 -0.9286  0.0109
  878MOL0     H21128   6.892   2.812  -1.396 -0.7449  0.7120  2.4091
  878MOL0     H21129   6.944   2.985  -1.370  0.7071 -1.5391  0.9776
  878MOL0     H21130   6.903   3.028  -1.595  0.5691  0.9309  1.7807
  878MOL0     H21131   6.883   2.860  -1.647  2.6735  0.0377 -0.8619
  878MOL0     H21132   6.689   2.828  -1.479 -2.4002 -0.8274 -2.4713
  878MOL0     H21133   6.667   2.935  -1.626 -0.3078 -0.1098  0.1728
  878MOL0     H21134   6.740   3.139  -1.483 -1.5642  1.6810  0.7533
  878MOL0     H21135   6.706   3.053  -1.343  3.5297 -1.0298  0.4193
  878MOL0     H21136   6.496   3.092  -1.563 -0.4459  0.2271  0.9331
  878MOL0     H21137   6.453   3.011  -1.418 -1.9133  1.9369  2.4990
  878MOL0     H21138   6.385   3.232  -1.396 -0.6697  0.5850 -2.0030
  878MOL0     H21139   6.529   3.294  -1.480 -1.5781  0.1894  0.5236
  878MOL0     H21140   6.682   3.284  -1.296 -0.0229 -0.0820  1.0939
  878MOL0     H21141   6.571   3.192  -1.202 -0.3281 -0.3250 -1.0970
  878MOL0     H21142   6.497   3.472  -1.289 -1.7511 -0.4355 -0.3225
  878MOL0     H21143   6.572   3.433  -1.135 -0.4876 -0.8982  0.6188
  878MOL0     H21144   7.044   2.631  -1.334  1.5626 -1.7243  0.4077
  878MOL0     H21145   7.172   2.574  -1.123  0.0992  0.6614  1.3128
  878MOL0     H21146   7.505   2.514  -0.934  3.0598 -3.5035  0.0008
  878MOL0     H21147   7.626   2.377  -0.774  0.4794 -0.2013 -2.1527
  878MOL0     H21148   6.669   2.419  -0.010 -0.4641 -0.5816  1.0740
  878MOL0     H21149   6.605   2.657  -0.049 -0.3177  2.8775  0.8290
  878MOL0     H21150   6.650   3.007   0.049 -1.0380 -0.4766  0.5320
  878MOL0     H21151   6.695   3.221  -0.029 -0.2160 -1.7196 -2.8477
  878MOL0     H21152   6.320   3.474  -0.177 -1.3349  1.4436  0.9024
  878MOL0     H21153   6.396   3.554  -0.029  1.0841 -0.1859  0.3697
  878MOL0     H21154   6.467   3.590  -0.320  0.1878  1.4477 -1.0997
  878MOL0     H21155   6.566   3.637  -0.183 -1.2969  1.6502  1.2738
  878MOL0     H21156   6.280   3.693  -0.249  0.7603  0.4310 -2.8463
  878MOL0     H21157   6.359   3.756  -0.093  0.6503 -0.0544  0.0599
  878MOL0     H21158   6.514   3.882  -0.315  0.5902  1.9793  2.0002
  878MOL0     H21159   6.362   3.936  -0.228  1.1931 -0.9087  0.5824
  878MOL0     H21160   6.239   3.856  -0.611  2.2357  0.3519 -1.1033
  878MOL0     H21161   6.268   3.294  -0.092 -0.7741 -1.2522 -1.5520
  878MOL0     H21162   6.105   3.126  -0.043 -1.2498 -1.6949 -0.8978
  878MOL0     H21163   6.187   2.989  -0.122  1.9609 -0.7209  1.0125
  878MOL0     H21164   6.146   2.995   0.046 -1.5689  3.3524  1.7134
  879MOL0     O21165  10.062   6.955   0.291 -0.2474  0.0933 -0.2386
  879MOL0     C21166  10.080   7.000   0.182  0.1036 -0.7759  0.7404
  879MOL0     O21167  10.108   7.130   0.144 -0.3535  0.3322 -0.4240
  879MOL0     C21168  10.177   7.214   0.227 -0.7015 -0.2583  0.3621
  879MOL0     C21169  10.122   7.248   0.353 -0.3466 -0.6808  0.3630
  879MOL0     C21170  10.188   7.347   0.433  0.3180 -0.1722 -0.0317
  879MOL0     C21171  10.305   7.413   0.398 -0.6315  0.0012  0.3316
  879MOL0     O21172  10.385   7.492   0.477 -0.3229  0.3223  0.1094
  879MOL0     C21173  10.340   7.529   0.608 -1.0276  0.1944 -0.5369
  879MOL0     C21174  10.362   7.674   0.637  0.0961 -0.0830 -0.0351
  879MOL0     C21175  10.505   7.702   0.673 -0.2618  0.3226 -0.0987
  879MOL0     C21176  10.539   7.852   0.655 -0.4843  1.1322 -0.4294
  879MOL0     C21177  10.696   7.873   0.664  0.6602  0.5127 -0.4150
  879MOL0     C21178  10.751   7.977   0.564 -0.3352 -0.2096  0.5072
  879MOL0     C21179  10.716   7.942   0.416  1.4599 -0.7745  0.1071
  879MOL0     C21180  10.759   8.045   0.314 -0.7164  0.0738  0.1610
  879MOL0     N21181  10.885   8.002   0.238 -0.4368  0.1164  0.3392
  879MOL0     C21182  10.918   7.890   0.162 -0.2018  0.2727 -0.0271
  879MOL0     C21183  11.031   7.914   0.095  0.0012  0.4021  0.1678
  879MOL0     C21184  11.095   7.824  -0.010 -0.1883 -0.5083 -0.1114
  879MOL0     C21185  11.038   7.855  -0.152 -0.2422  0.6769 -0.8261
  879MOL0     C21186  11.044   7.732  -0.244 -0.1267  0.1054  0.0824
  879MOL0     C21187  10.981   7.751  -0.378 -0.0137 -0.1241  0.3630
  879MOL0     O21188  10.830   7.745  -0.376 -0.4571 -0.5477 -0.1151
  879MOL0     C21189  10.756   7.807  -0.473  0.7912 -0.0894 -1.1230
  879MOL0     C21190  10.621   7.775  -0.465 -0.0497  0.3558  0.6539
  879MOL0     C21191  10.521   7.828  -0.555  0.2223  0.1992  0.0930
  879MOL0     C21192  10.387   7.771  -0.551  1.0203 -1.1457 -0.8802
  879MOL0     C21193  10.557   7.949  -0.623 -0.2904  0.3361  0.2658
  879MOL0     C21194  10.458   8.041  -0.705 -0.2547  0.2485 -0.6963
  879MOL0     O21195  10.513   8.139  -0.785 -0.1342 -0.5367 -0.0387
  879MOL0     C21196  10.423   8.211  -0.871  0.1768 -0.0161 -0.2753
  879MOL0     C21197  10.314   8.151  -0.944 -0.3777  0.3563  0.4907
  879MOL0     C21198  10.220   8.237  -1.006  0.4716 -0.6103  0.2697
  879MOL0     C21199  10.223   8.377  -0.999 -0.2316 -0.0723 -0.3604
  879MOL0     O21200  10.145   8.456  -1.076  0.3900 -0.1681 -0.2573
  879MOL0     C21201  10.006   8.436  -1.057 -0.2482  0.5275 -0.3402
  879MOL0     C21202   9.957   8.528  -1.161 -0.7185 -0.0452  0.0217
  879MOL0     C21203   9.811   8.509  -1.198  0.0518 -1.1618  0.9767
  879MOL0     C21204   9.761   8.603  -1.306  0.0748  0.1811  0.7951
  879MOL0     C21205   9.612   8.600  -1.334 -0.2540 -0.7597  0.3656
  879MOL0     C21206   9.582   8.680  -1.454  0.7462 -0.3012  0.4079
  879MOL0     C21207   9.436   8.701  -1.470  0.5557  1.1007 -0.3273
  879MOL0     C21208   9.346   8.571  -1.499 -0.9287  0.1994  0.5512
  879MOL0    Cl21209   9.338   8.473  -1.363 -0.4426 -0.3032  0.5535
  879MOL0     C21210  10.335   8.431  -0.924  0.2751  0.8021  0.4622
  879MOL0     C21211  10.435   8.350  -0.864 -0.7369  0.1150 -0.5661
  879MOL0     O21212  10.342   8.021  -0.700  0.2002 -0.5493  0.0487
  879MOL0     C21213  10.700   7.979  -0.634  0.3299  0.1356 -0.1303
  879MOL0     C21214  10.795   7.902  -0.562  0.0058  0.1746  0.5235
  879MOL0     N21215  11.073   8.044   0.137  0.0754 -0.3594 -0.1717
  879MOL0     N21216  10.992   8.088   0.229 -0.0056 -0.7734 -0.0998
  879MOL0     C21217  10.353   7.389   0.268 -0.1967  0.2332  0.2321
  879MOL0     C21218  10.298   7.297   0.189  0.6244  0.1834 -0.1720
  879MOL0     C21219  10.051   6.913   0.069 -0.0971  0.1804 -0.5619
  879MOL0     C21220   9.990   6.977  -0.035  0.6765  0.2842 -0.1919
  879MOL0     C21221   9.943   6.893  -0.141  0.9327  0.3445 -0.8652
  879MOL0     C21222   9.971   6.758  -0.149 -0.5449  0.3027 -0.1246
  879MOL0     O21223   9.917   6.692  -0.252  0.0071  0.4443  0.3503
  879MOL0     C21224   9.964   6.563  -0.273  0.7228 -0.6235 -0.0324
  879MOL0     C21225   9.904   6.499  -0.395 -0.8505  0.6533  0.5305
  879MOL0     C21226   9.951   6.356  -0.409  0.0607 -0.3014 -0.6139
  879MOL0     C21227  10.097   6.326  -0.450 -0.5861 -0.7151 -0.1006
  879MOL0     C21228  10.173   6.316  -0.328  0.1727 -0.0048 -0.6919
  879MOL0     C21229  10.243   6.297  -0.226 -1.5985  0.4382  0.3873
  879MOL0     C21230  10.025   6.690  -0.036 -0.5733  0.0933  0.5934
  879MOL0     C21231  10.080   6.777   0.063  0.6989  0.1310  0.2493
  879MOL0     C21232  10.158   6.709   0.173 -0.6789 -0.0354  0.3056
  879MOL0     H21233  10.042   7.195   0.405  0.6550 -0.5783  2.1027
  879MOL0     H21234  10.151   7.361   0.534  4.1109 -0.9566  1.6347
  879MOL0     H21235  10.398   7.467   0.677 -0.7227  1.2350  0.1642
  879MOL0     H21236  10.235   7.507   0.631 -1.4126  1.6913 -0.7105
  879MOL0     H21237  10.326   7.722   0.545 -0.4675  1.2627  0.8513
  879MOL0     H21238  10.296   7.709   0.717  1.4468  1.5269  0.4178
  879MOL0     H21239  10.515   7.673   0.778 -1.5018 -0.9560 -0.3166
  879MOL0     H21240  10.572   7.644   0.608  0.6631 -1.0122  1.9357
  879MOL0     H21241  10.496   7.892   0.563 -0.7666  0.6069 -0.5332
  879MOL0     H21242  10.498   7.913   0.735 -1.0633  0.1563  0.0419
  879MOL0     H21243  10.743   7.774   0.659  1.6614  0.9588  0.0071
  879MOL0     H21244  10.706   7.919   0.763 -0.8006  0.1006 -0.0446
  879MOL0     H21245  10.706   8.074   0.589 -1.1798 -0.9280  1.8043
  879MOL0     H21246  10.857   7.993   0.584 -0.1414 -1.4670  0.5625
  879MOL0     H21247  10.609   7.927   0.399  1.2861  1.8118 -1.6183
  879MOL0     H21248  10.762   7.843   0.403  0.3284 -1.5663  1.8013
  879MOL0     H21249  10.672   8.067   0.251 -0.8679 -1.4513 -0.1888
  879MOL0     H21250  10.789   8.136   0.367  1.4053 -0.0911 -0.6624
  879MOL0     H21251  10.839   7.817   0.151 -1.4009  1.6307 -0.8405
  879MOL0     H21252  11.067   7.723   0.021  1.7424 -2.0151 -2.9467
  879MOL0     H21253  11.204   7.828  -0.012  0.0693 -4.2688  0.3635
  879MOL0     H21254  10.939   7.902  -0.155 -0.5036  0.1890 -0.2364
  879MOL0     H21255  11.094   7.935  -0.200  0.3908  1.5775  1.3203
  879MOL0     H21256  11.149   7.702  -0.249 -0.0747  0.1586  0.7831
  879MOL0     H21257  10.996   7.647  -0.194 -0.8448  0.4787  0.0418
  879MOL0     H21258  11.007   7.854  -0.403  3.1519 -1.0435 -0.6607
  879MOL0     H21259  11.027   7.684  -0.451  1.2185 -1.2469  2.0878
  879MOL0     H21260  10.587   7.705  -0.389 -3.5480 -0.2001 -1.2275
  879MOL0     H21261  10.314   7.835  -0.500  3.2360  0.9467 -0.1182
  879MOL0     H21262  10.385   7.669  -0.513 -0.2193 -1.1834 -1.0178
  879MOL0     H21263  10.349   7.761  -0.653  0.1861 -1.7910 -0.5149
  879MOL0     H21264  10.328   8.049  -0.978  1.7701  1.5247 -2.5255
  879MOL0     H21265  10.137   8.192  -1.059  2.5073 -2.9864 -1.1118
  879MOL0     H21266   9.965   8.340  -1.086 -1.8340  0.1737  2.6364
  879MOL0     H21267   9.975   8.461  -0.955  0.5184  1.3330 -0.2914
  879MOL0     H21268   9.975   8.628  -1.122  3.4230 -1.3858  2.0800
  879MOL0     H21269  10.012   8.512  -1.254  2.1902  0.9208  1.4567
  879MOL0     H21270   9.745   8.524  -1.111  0.2728 -0.4160  1.0227
  879MOL0     H21271   9.791   8.404  -1.222  0.6607 -0.8700 -0.9594
  879MOL0     H21272   9.818   8.573  -1.395 -1.2992 -0.6112  0.1651
  879MOL0     H21273   9.792   8.704  -1.276  1.1174  0.0448  0.2584
  879MOL0     H21274   9.586   8.494  -1.342  1.4326 -1.1165 -0.8749
  879MOL0     H21275   9.553   8.627  -1.246 -0.1467 -2.1678  0.8923
  879MOL0     H21276   9.627   8.637  -1.544  3.3562  1.0454  0.9880
  879MOL0     H21277   9.617   8.783  -1.454  0.8192 -0.3026 -0.7794
  879MOL0     H21278   9.424   8.753  -1.565  2.0643 -2.4504 -2.6564
  879MOL0     H21279   9.398   8.750  -1.379  3.1353 -1.3123  2.2620
  879MOL0     H21280   9.396   8.518  -1.580 -2.8637  2.3465 -2.2454
  879MOL0     H21281   9.247   8.598  -1.538  0.6799  2.3433 -2.4036
  879MOL0     H21282  10.362   8.535  -0.932  2.7016  0.2951  1.2556
  879MOL0     H21283  10.517   8.397  -0.810 -1.5655 -0.0751  0.8988
  879MOL0     H21284  10.733   8.063  -0.694  1.5836 -0.2508 -0.0127
  879MOL0     H21285  10.900   7.927  -0.558  0.2073 -0.0814 -1.7165
  879MOL0     H21286  10.440   7.438   0.224  0.6235 -0.8935  0.5551
  879MOL0     H21287  10.327   7.290   0.085 -3.4282 -1.1897 -1.4373
  879MOL0     H21288   9.962   7.081  -0.039 -0.4786 -0.0526 -1.2093
  879MOL0     H21289   9.901   6.941  -0.229  1.0331  0.0168 -1.0940
  879MOL0     H21290  10.072   6.577  -0.284  0.5081 -0.6607 -3.2742
  879MOL0     H21291   9.951   6.500  -0.185  0.7662  2.4533  2.3298
  879MOL0     H21292   9.918   6.566  -0.480  0.7952  0.2145  0.4221
  879MOL0     H21293   9.797   6.496  -0.371 -0.6963 -0.2466  1.1663
  879MOL0     H21294   9.929   6.297  -0.320  1.6708  1.0812  0.7757
  879MOL0     H21295   9.908   6.321  -0.503 -1.2667 -1.8189  0.5011
  879MOL0     H21296  10.132   6.404  -0.517 -1.2078 -2.5440 -2.6843
  879MOL0     H21297  10.103   6.237  -0.512 -1.1400 -2.0844  1.7053
  879MOL0     H21298  10.311   6.284  -0.145  0.3416  1.9722 -0.8979
  879MOL0     H21299  10.050   6.585  -0.034 -3.3237 -0.7124 -1.4627
  879MOL0     H21300  10.242   6.778   0.186 -0.5176 -0.4242  1.4755
  879MOL0     H21301  10.100   6.695   0.265 -1.9358  1.6511 -0.1877
  879MOL0     H21302  10.195   6.614   0.134 -0.5224  0.4332 -0.7019
  880MOL0     O21303   3.053  10.775   9.160  0.0681  0.2505  0.2127
  880MOL0     C21304   3.006  10.803   9.272 -0.5211 -0.5780 -0.3156
  880MOL0     O21305   3.067  10.885   9.370 -0.3776 -0.4355  0.2560
  880MOL0     C21306   3.183  10.962   9.345 -0.1118  0.5525 -1.5723
  880MOL0     C21307   3.272  10.971   9.452  0.9040 -0.7651  0.0604
  880MOL0     C21308   3.385  11.054   9.430 -0.1524 -0.8389  0.1836
  880MOL0     C21309   3.398  11.134   9.314  0.5039 -0.7782 -0.3259
  880MOL0     O21310   3.506  11.219   9.311  0.1897 -0.5821  0.3121
  880MOL0     C21311   3.623  11.150   9.264 -0.6538 -0.2277 -0.0716
  880MOL0     C21312   3.730  11.257   9.264 -0.1670 -0.0349  0.0083
  880MOL0     C21313   3.771  11.324   9.394  0.3605  0.5653  0.2401
  880MOL0     C21314   3.848  11.452   9.360 -0.1480 -0.8603 -0.4416
  880MOL0     C21315   3.982  11.432   9.282 -0.5016  0.8312 -0.4635
  880MOL0     C21316   4.053  11.570   9.263  0.2617  0.1733  0.0318
  880MOL0     C21317   4.148  11.606   9.381  0.1116  0.4751  0.1965
  880MOL0     C21318   4.266  11.511   9.397  0.2830  0.0813 -0.1054
  880MOL0     N21319   4.383  11.556   9.478  0.3882 -0.8098 -0.1261
  880MOL0     C21320   4.460  11.666   9.451 -0.4292 -0.0508 -0.7352
  880MOL0     C21321   4.530  11.683   9.568 -0.8564 -0.0006 -0.6530
  880MOL0     C21322   4.606  11.807   9.594 -0.8050 -0.5710 -0.0129
  880MOL0     C21323   4.751  11.768   9.616 -0.3435 -0.4415 -0.8950
  880MOL0     C21324   4.838  11.890   9.622 -0.7681  0.4946  0.2996
  880MOL0     C21325   4.977  11.855   9.678 -0.8989  0.0215 -0.7860
  880MOL0     O21326   5.042  11.967   9.729  0.3419 -0.5415  0.5486
  880MOL0     C21327   5.175  11.962   9.768 -1.3619  1.2212 -0.6420
  880MOL0     C21328   5.256  11.846   9.771  0.7468  0.1783  0.4887
  880MOL0     C21329   5.388  11.839   9.805 -0.8684 -0.3317  0.7285
  880MOL0     C21330   5.466  11.708   9.786 -0.2905 -0.2629 -0.1232
  880MOL0     C21331   5.445  11.970   9.844  0.3388  0.2957  0.6345
  880MOL0     C21332   5.594  11.979   9.892  0.5639 -0.0839 -0.2548
  880MOL0     O21333   5.658  12.099   9.858 -0.3486 -0.0639  0.2241
  880MOL0     C21334   5.791  12.103   9.890  0.0465 -0.0699 -0.1207
  880MOL0     C21335   5.839  12.142  10.014 -0.1074 -0.6073 -0.9511
  880MOL0     C21336   5.980  12.169  10.030  0.0896  0.3355 -0.1997
  880MOL0     C21337   6.075  12.139   9.929 -0.3164  0.2754  0.4652
  880MOL0     O21338   6.211  12.159   9.957  0.2128  1.0251 -0.5866
  880MOL0     C21339   6.302  12.095   9.861 -0.3246 -0.4288 -1.0362
  880MOL0     C21340   6.433  12.063   9.933  0.0118  0.5392 -0.3991
  880MOL0     C21341   6.534  11.983   9.847  0.9057  0.0211 -0.3829
  880MOL0     C21342   6.594  12.073   9.739  0.2531  0.1676 -0.4455
  880MOL0     C21343   6.678  11.986   9.646  0.2980 -0.0259  0.6768
  880MOL0     C21344   6.756  12.081   9.563 -0.1752  1.3016  0.6929
  880MOL0     C21345   6.814  12.018   9.434  0.4052 -0.2047 -0.2010
  880MOL0     C21346   6.898  12.113   9.346 -0.5045 -0.9726 -0.4108
  880MOL0    Cl21347   6.937  12.028   9.195  0.1578  0.7814  0.4522
  880MOL0     C21348   6.024  12.107   9.805  0.4625 -0.4509  0.0366
  880MOL0     C21349   5.884  12.081   9.786 -0.1736  0.2783 -0.9416
  880MOL0     O21350   5.646  11.882   9.957 -0.2667 -0.1164 -0.1111
  880MOL0     C21351   5.364  12.084   9.837 -1.0700  0.7326 -1.2671
  880MOL0     C21352   5.228  12.079   9.811 -1.1584  0.7791  0.7606
  880MOL0     N21353   4.505  11.585   9.654 -0.6508  0.4771 -0.5162
  880MOL0     N21354   4.419  11.501   9.603  1.2313  0.8807  1.0703
  880MOL0     C21355   3.300  11.116   9.215 -0.0080 -0.0796  0.1084
  880MOL0     C21356   3.202  11.026   9.230  0.2100 -0.8901 -0.3092
  880MOL0     C21357   2.880  10.738   9.310  0.3958 -0.8069 -0.0326
  880MOL0     C21358   2.836  10.763   9.440 -0.1599 -0.4125  0.0460
  880MOL0     C21359   2.718  10.705   9.488  0.7718  0.3290  0.3792
  880MOL0     C21360   2.643  10.616   9.412  0.3520  0.6067  0.1266
  880MOL0     O21361   2.525  10.572   9.463 -0.5342 -0.1612  0.2803
  880MOL0     C21362   2.459  10.473   9.383  0.2519  0.3895 -0.1222
  880MOL0     C21363   2.339  10.423   9.457 -1.1076 -0.8348 -0.1529
  880MOL0     C21364   2.214  10.534   9.456 -1.4047  0.4776  0.2742
  880MOL0     C21365   2.081  10.491   9.521 -0.1551 -0.0310  0.3516
  880MOL0     C21366   2.080  10.524   9.667  0.2789  0.8550  0.6513
  880MOL0     C21367   2.083  10.555   9.784  0.3714 -0.1135 -0.5125
  880MOL0     C21368   2.698  10.576   9.281  1.0914  0.2654 -0.3167
  880MOL0     C21369   2.809  10.644   9.234 -0.7848 -0.2248  0.6201
  880MOL0     C21370   2.840  10.603   9.087 -0.8876 -0.0948 -0.1058
  880MOL0     H21371   3.268  10.907   9.540 -0.5196 -2.3698 -1.0972
  880MOL0     H21372   3.461  11.069   9.506  1.0273 -2.6230 -0.5720
  880MOL0     H21373   3.597  11.109   9.166  0.4979  2.2389 -1.5045
  880MOL0     H21374   3.650  11.069   9.332 -1.1659  0.9545  1.6122
  880MOL0     H21375   3.819  11.202   9.231  0.0272 -1.0671  2.0920
  880MOL0     H21376   3.707  11.338   9.195  1.7832  3.4410  3.1035
  880MOL0     H21377   3.674  11.344   9.441 -0.6938  0.3486 -1.7511
  880MOL0     H21378   3.822  11.250   9.456  3.1102 -0.6229 -3.1530
  880MOL0     H21379   3.795  11.536   9.314  1.1343 -0.5746 -1.4659
  880MOL0     H21380   3.879  11.496   9.455  2.2463 -0.9016 -1.1381
  880MOL0     H21381   3.951  11.405   9.181 -0.6361  5.2562 -1.8418
  880MOL0     H21382   4.039  11.353   9.331 -1.7787  0.9970  1.4231
  880MOL0     H21383   4.116  11.564   9.173  0.9798  0.8163  0.4796
  880MOL0     H21384   3.977  11.648   9.247  2.0970  1.7678 -1.5343
  880MOL0     H21385   4.098  11.593   9.478 -0.6250  1.5081 -0.0292
  880MOL0     H21386   4.185  11.708   9.372  0.8652  0.1500 -0.4964
  880MOL0     H21387   4.217  11.425   9.444  1.0635  1.6938  4.0714
  880MOL0     H21388   4.312  11.492   9.299 -2.0364  2.6701 -1.8425
  880MOL0     H21389   4.460  11.734   9.366 -0.5639  1.2639  0.2659
  880MOL0     H21390   4.574  11.877   9.672  2.5920 -0.8722  1.8397
  880MOL0     H21391   4.602  11.868   9.504  0.9284  0.1679  0.3629
  880MOL0     H21392   4.761  11.706   9.706 -0.2986  1.0393  0.1474
  880MOL0     H21393   4.796  11.703   9.540  1.0088  0.4901 -0.9216
  880MOL0     H21394   4.855  11.941   9.527  0.3945  1.6076  1.0703
  880MOL0     H21395   4.803  11.961   9.697 -0.2874 -1.5699  2.6280
  880MOL0     H21396   4.970  11.784   9.761 -3.0955  0.8640 -0.1672
  880MOL0     H21397   5.029  11.824   9.587 -2.8112 -1.0297 -1.5667
  880MOL0     H21398   5.219  11.751   9.732  0.1835  0.5502  0.1160
  880MOL0     H21399   5.391  11.641   9.743  0.5369 -1.8735  0.8704
  880MOL0     H21400   5.511  11.658   9.872 -0.5584  2.0547  1.4777
  880MOL0     H21401   5.550  11.728   9.718 -0.7071  0.7261 -0.3694
  880MOL0     H21402   5.767  12.163  10.092 -0.5740 -0.1128 -1.5028
  880MOL0     H21403   6.030  12.204  10.120  1.9343  2.1913 -1.8372
  880MOL0     H21404   6.265  12.002   9.819 -1.0521 -0.8327  0.4513
  880MOL0     H21405   6.319  12.175   9.787 -0.2877  3.3976  2.6910
  880MOL0     H21406   6.487  12.155   9.959 -0.6202  0.1146  2.8053
  880MOL0     H21407   6.410  11.997  10.017  1.4105  0.8123  0.2306
  880MOL0     H21408   6.466  11.909   9.805 -2.3589  1.6021  1.7592
  880MOL0     H21409   6.612  11.936   9.908 -0.6974 -0.1888  1.5802
  880MOL0     H21410   6.656  12.145   9.794  0.5877 -2.7773  3.4964
  880MOL0     H21411   6.516  12.125   9.682 -0.0183 -1.4687 -1.6221
  880MOL0     H21412   6.741  11.912   9.697  1.0762  0.0983 -0.0687
  880MOL0     H21413   6.605  11.945   9.576 -1.0513  2.4530  0.5173
  880MOL0     H21414   6.829  12.143   9.617 -1.1610  0.3315  3.2742
  880MOL0     H21415   6.684  12.154   9.525  0.3360 -0.0137 -3.3647
  880MOL0     H21416   6.735  11.977   9.371  0.6546 -1.4475  0.2578
  880MOL0     H21417   6.878  11.934   9.466 -0.2670 -0.6241  0.0641
  880MOL0     H21418   6.988  12.150   9.397 -2.4503  0.9789  1.8582
  880MOL0     H21419   6.836  12.201   9.328  0.0381 -0.3099  0.8207
  880MOL0     H21420   6.088  12.099   9.717 -0.7080  0.0385 -0.8738
  880MOL0     H21421   5.850  12.041   9.691  0.7018 -3.1439  0.0371
  880MOL0     H21422   5.419  12.175   9.857  0.0703 -0.0614 -0.6459
  880MOL0     H21423   5.163  12.163   9.791 -1.1377  0.4105 -1.0592
  880MOL0     H21424   3.310  11.174   9.123 -2.9048 -0.5445 -0.5913
  880MOL0     H21425   3.137  11.003   9.146 -0.6364  0.6816 -0.1195
  880MOL0     H21426   2.885  10.831   9.509  0.3300 -0.9642  0.2411
  880MOL0     H21427   2.688  10.740   9.586  2.3290  0.8873  0.6862
  880MOL0     H21428   2.432  10.516   9.286  4.6920  1.3707 -1.1658
  880MOL0     H21429   2.528  10.388   9.382  0.3421  0.3402  2.5709
  880MOL0     H21430   2.362  10.393   9.559  0.3201  1.3744  0.2531
  880MOL0     H21431   2.305  10.329   9.412  4.1754 -1.7944 -2.9462
  880MOL0     H21432   2.252  10.627   9.498 -1.9514  0.9117 -0.1727
  880MOL0     H21433   2.191  10.561   9.352  1.0159  1.3345 -0.0963
  880MOL0     H21434   2.066  10.389   9.485 -1.8706  1.0026 -2.2200
  880MOL0     H21435   1.998  10.546   9.475 -0.0123 -0.0917  0.0181
  880MOL0     H21436   2.085  10.591   9.885 -0.9877 -0.0284 -0.5055
  880MOL0     H21437   2.641  10.505   9.223  0.6398 -0.1540  0.6148
  880MOL0     H21438   2.845  10.696   9.029  0.0120  0.6964  1.1909
  880MOL0     H21439   2.939  10.558   9.082 -1.2301 -2.0988  5.2093
  880MOL0     H21440   2.766  10.537   9.041  1.2931 -3.0024  0.2325
  881MOL0     O21441  11.486   3.697   4.032  1.0892 -0.7538 -0.0451
  881MOL0     C21442  11.600   3.720   3.990  0.3332 -0.0053 -0.4078
  881MOL0     O21443  11.628   3.718   3.857  0.3953 -0.6492  0.7104
  881MOL0     C21444  11.542   3.744   3.753 -0.4357 -0.4360 -0.8533
  881MOL0     C21445  11.601   3.819   3.647 -0.1582  0.7320 -0.9184
  881MOL0     C21446  11.529   3.850   3.533 -0.6323 -0.2906  0.4634
  881MOL0     C21447  11.386   3.825   3.520  0.4009 -0.0312  0.0374
  881MOL0     O21448  11.310   3.858   3.413 -0.0878 -0.5984  0.7756
  881MOL0     C21449  11.380   3.875   3.289  0.0081 -0.2699  0.8464
  881MOL0     C21450  11.269   3.865   3.175 -0.0760  0.0713 -0.2963
  881MOL0     C21451  11.134   3.939   3.207  0.0496 -0.6523 -0.0296
  881MOL0     C21452  11.169   4.085   3.236  0.0771 -0.2167  0.6752
  881MOL0     C21453  11.039   4.161   3.269 -0.0965  0.2824  0.8006
  881MOL0     C21454  11.039   4.279   3.356 -0.7527 -0.6728 -0.3228
  881MOL0     C21455  11.109   4.257   3.486 -0.1617  0.0029  0.2854
  881MOL0     C21456  11.249   4.308   3.489  0.2371 -0.3440 -0.6032
  881MOL0     N21457  11.308   4.296   3.628 -0.1009  0.3904  0.0203
  881MOL0     C21458  11.345   4.183   3.690  0.9174 -0.4066 -0.2507
  881MOL0     C21459  11.359   4.225   3.824 -0.3426  0.9047 -0.9161
  881MOL0     C21460  11.396   4.142   3.948 -0.5319  0.7070 -0.9443
  881MOL0     C21461  11.331   3.998   3.959 -0.6938 -0.6437 -0.4029
  881MOL0     C21462  11.180   3.997   3.921  0.8770  0.6368 -1.2146
  881MOL0     C21463  11.122   3.862   3.972 -0.2402  0.1722 -0.5867
  881MOL0     O21464  10.979   3.854   3.962 -1.0516  0.5326 -0.4345
  881MOL0     C21465  10.916   3.731   3.992  0.8669 -0.1907  0.0437
  881MOL0     C21466  10.778   3.737   3.997  0.2206 -0.6079 -0.4522
  881MOL0     C21467  10.705   3.630   4.029  0.5561  0.3895  0.5605
  881MOL0     C21468  10.556   3.653   4.009  0.1324  0.4790  0.4608
  881MOL0     C21469  10.770   3.507   4.077  2.0105 -0.4131 -0.2642
  881MOL0     C21470  10.689   3.391   4.120  0.2152  0.4693  0.1957
  881MOL0     O21471  10.563   3.408   4.180  0.3451  0.0260  0.2616
  881MOL0     C21472  10.492   3.295   4.226 -0.2908  0.3772  0.6243
  881MOL0     C21473  10.430   3.312   4.349 -0.2871  0.5048 -1.0064
  881MOL0     C21474  10.348   3.205   4.407  0.2382 -0.6567 -0.2566
  881MOL0     C21475  10.334   3.090   4.345 -0.7084  0.7235 -0.2581
  881MOL0     O21476  10.248   2.990   4.399 -0.2786  0.0255  0.2981
  881MOL0     C21477  10.190   2.884   4.314  0.9788 -0.2896 -0.4927
  881MOL0     C21478  10.045   2.847   4.359  0.2664 -0.7967  1.3777
  881MOL0     C21479   9.974   2.738   4.263  0.9188 -0.4838  0.2812
  881MOL0     C21480   9.824   2.734   4.293 -0.1490  0.2021  0.1225
  881MOL0     C21481   9.773   2.616   4.217  0.4059  0.2719 -0.7465
  881MOL0     C21482   9.620   2.594   4.241  0.1224 -0.4285 -0.5258
  881MOL0     C21483   9.573   2.454   4.261 -0.0528  0.3690  1.0147
  881MOL0     C21484   9.429   2.461   4.300 -0.3609 -0.5482 -0.0561
  881MOL0    Cl21485   9.377   2.308   4.359 -0.6701  0.4543 -0.2710
  881MOL0     C21486  10.409   3.068   4.225 -1.1463 -0.7366 -0.3536
  881MOL0     C21487  10.479   3.173   4.166 -0.4086 -0.2132  0.5638
  881MOL0     O21488  10.746   3.286   4.113  0.2954  0.7884 -0.0322
  881MOL0     C21489  10.908   3.503   4.084  0.5580  0.1754 -0.7175
  881MOL0     C21490  10.982   3.615   4.028 -0.2690 -0.8425  0.0285
  881MOL0     N21491  11.330   4.358   3.837  0.4068 -0.1064 -0.3778
  881MOL0     N21492  11.322   4.402   3.716  0.4057 -0.6249  0.3603
  881MOL0     C21493  11.333   3.747   3.623 -0.1538 -0.1873  0.1182
  881MOL0     C21494  11.412   3.703   3.731  0.5205  0.4013 -0.7209
  881MOL0     C21495  11.706   3.727   4.082 -0.0690  0.3020 -0.0396
  881MOL0     C21496  11.745   3.609   4.142 -0.1604  0.5554  0.0802
  881MOL0     C21497  11.837   3.609   4.242 -0.4754  0.0243  0.1389
  881MOL0     C21498  11.905   3.724   4.279  0.8590 -0.3451 -0.0523
  881MOL0     O21499  11.989   3.696   4.381 -0.0222 -0.0216  0.3898
  881MOL0     C21500  12.076   3.798   4.431  0.3882 -0.5926  1.2445
  881MOL0     C21501  12.147   3.754   4.553 -0.2572 -0.2572 -0.6745
  881MOL0     C21502  12.044   3.746   4.661 -0.5054 -0.0589 -0.6273
  881MOL0     C21503  11.986   3.874   4.715 -0.2853  0.1942 -0.1782
  881MOL0     C21504  12.026   3.911   4.852  0.2198 -0.5906 -0.4807
  881MOL0     C21505  12.061   3.940   4.962 -0.0868  0.1665 -0.7767
  881MOL0     C21506  11.868   3.853   4.213 -0.4202  0.0119 -0.0692
  881MOL0     C21507  11.766   3.849   4.119 -0.7363  0.4704  0.1240
  881MOL0     C21508  11.728   3.974   4.054 -1.0326  0.0357 -0.3495
  881MOL0     H21509  11.706   3.843   3.660  0.9376 -1.7507 -4.0094
  881MOL0     H21510  11.576   3.914   3.459 -0.2115 -2.2808 -1.0559
  881MOL0     H21511  11.462   3.806   3.268  0.5148  0.7885 -0.9128
  881MOL0     H21512  11.425   3.975   3.291  0.3837 -0.4320  0.7025
  881MOL0     H21513  11.315   3.904   3.084 -0.8743  0.1883 -0.6574
  881MOL0     H21514  11.244   3.759   3.164 -3.0604  0.8952 -2.9384
  881MOL0     H21515  11.063   3.925   3.125  0.3596 -1.8967 -0.0998
  881MOL0     H21516  11.085   3.897   3.296 -1.1239  0.1259 -0.2790
  881MOL0     H21517  11.244   4.094   3.315 -0.7942  1.1116  1.3861
  881MOL0     H21518  11.211   4.134   3.147  0.8547 -0.4518  0.9062
  881MOL0     H21519  10.964   4.094   3.311 -0.7241  2.3328  3.1775
  881MOL0     H21520  11.005   4.196   3.171 -0.5185  0.8278  1.1378
  881MOL0     H21521  11.096   4.355   3.301  0.7121 -0.0966  1.8784
  881MOL0     H21522  10.935   4.309   3.375 -1.3273 -3.1260  0.7645
  881MOL0     H21523  11.114   4.150   3.510 -2.2082 -0.3852 -0.8239
  881MOL0     H21524  11.039   4.293   3.562 -1.8540  2.4148 -2.2746
  881MOL0     H21525  11.309   4.254   3.414 -1.4690 -0.9650 -1.5606
  881MOL0     H21526  11.252   4.416   3.470 -1.6516  0.7868  4.1325
  881MOL0     H21527  11.351   4.082   3.652  1.3640 -0.8394  0.9097
  881MOL0     H21528  11.378   4.203   4.038 -0.7427  2.0524 -1.8592
  881MOL0     H21529  11.504   4.131   3.964 -0.8700  1.9110  3.4334
  881MOL0     H21530  11.380   3.931   3.888 -0.6405 -2.0796  0.9325
  881MOL0     H21531  11.348   3.959   4.059  3.0084  2.2407  0.3554
  881MOL0     H21532  11.116   4.078   3.956  0.0246 -0.5116  0.0112
  881MOL0     H21533  11.161   4.001   3.813  0.4295 -1.0208 -1.2260
  881MOL0     H21534  11.172   3.782   3.917 -0.1534  0.9452 -1.6733
  881MOL0     H21535  11.148   3.859   4.078  1.6062  0.8578 -0.9790
  881MOL0     H21536  10.730   3.824   3.954  2.2001  1.9643  2.2007
  881MOL0     H21537  10.518   3.563   3.959  0.7874  2.0386 -3.1331
  881MOL0     H21538  10.529   3.747   3.960  0.7255 -0.3018 -1.4472
  881MOL0     H21539  10.512   3.654   4.109  0.1949 -0.3627  0.4990
  881MOL0     H21540  10.447   3.409   4.394  0.0432  0.0110 -0.0339
  881MOL0     H21541  10.293   3.217   4.499  2.2142 -0.1048  0.9050
  881MOL0     H21542  10.183   2.910   4.208  0.2834  3.2295  0.2844
  881MOL0     H21543  10.257   2.798   4.308 -2.2697 -2.9463 -1.4554
  881MOL0     H21544  10.054   2.798   4.456 -1.1502  0.1344  2.0078
  881MOL0     H21545   9.989   2.941   4.364 -0.5904 -1.2225  0.3225
  881MOL0     H21546  10.023   2.643   4.285  1.5042 -0.0679  0.8037
  881MOL0     H21547   9.980   2.771   4.159  0.1513  0.3231  0.4788
  881MOL0     H21548   9.777   2.829   4.265 -1.0406 -1.2145 -3.7052
  881MOL0     H21549   9.806   2.714   4.399 -2.2312 -2.8277 -0.6642
  881MOL0     H21550   9.794   2.628   4.110  0.1452  1.9663 -0.6260
  881MOL0     H21551   9.825   2.531   4.263 -0.1244  0.2902 -0.0953
  881MOL0     H21552   9.561   2.645   4.165 -1.1794 -1.4635 -0.2371
  881MOL0     H21553   9.593   2.642   4.336 -2.7897 -1.1727 -0.8954
  881MOL0     H21554   9.635   2.418   4.344 -1.6947  1.2934  2.7136
  881MOL0     H21555   9.584   2.387   4.175  1.7259 -2.7444  3.4444
  881MOL0     H21556   9.359   2.499   4.226 -1.7169  0.4743  1.6722
  881MOL0     H21557   9.427   2.539   4.377  2.6363 -0.9470  0.5636
  881MOL0     H21558  10.422   2.967   4.189  1.6687 -1.3287  1.9664
  881MOL0     H21559  10.530   3.151   4.072 -1.4034 -0.6302  0.1124
  881MOL0     H21560  10.959   3.412   4.113  1.7495  1.0042 -0.1281
  881MOL0     H21561  11.089   3.618   4.045 -0.0052  2.6811 -1.4002
  881MOL0     H21562  11.230   3.721   3.604 -0.3290  1.5789 -1.7402
  881MOL0     H21563  11.376   3.637   3.809  0.7541 -0.4841 -1.3327
  881MOL0     H21564  11.689   3.519   4.119  0.9952  0.1730 -1.4046
  881MOL0     H21565  11.864   3.525   4.305 -0.8427  1.6077  2.5381
  881MOL0     H21566  12.147   3.817   4.350 -1.2550  2.1428  0.3187
  881MOL0     H21567  12.024   3.894   4.439  1.1777  0.0921 -1.0400
  881MOL0     H21568  12.212   3.838   4.579 -0.5256  0.0777 -1.0785
  881MOL0     H21569  12.212   3.670   4.529  2.2910  1.7025 -1.1634
  881MOL0     H21570  11.958   3.693   4.618  0.1861 -0.2634 -1.7975
  881MOL0     H21571  12.083   3.678   4.739 -0.7769  2.3584  1.7713
  881MOL0     H21572  11.878   3.858   4.725 -0.4885  1.5162  0.0150
  881MOL0     H21573  12.014   3.957   4.649 -0.1370  0.7762  0.5923
  881MOL0     H21574  12.109   3.960   5.056  0.0585 -0.3104 -0.7482
  881MOL0     H21575  11.914   3.944   4.250  0.0051 -0.4441  0.5337
  881MOL0     H21576  11.678   3.968   3.957 -1.0680  0.7608 -0.3830
  881MOL0     H21577  11.669   4.045   4.113 -1.5748  0.5669 -1.5025
  881MOL0     H21578  11.825   4.022   4.043  0.7076 -3.5788 -2.5192
  882MOL0     O21579   1.243  11.406   1.703 -0.4072 -0.0749 -0.7111
  882MOL0     C21580   1.281  11.463   1.597 -0.1773 -0.7241  0.2607
  882MOL0     O21581   1.330  11.591   1.594  0.1781  0.0934 -0.1676
  882MOL0     C21582   1.297  11.654   1.714 -0.2891 -0.5860  1.4382
  882MOL0     C21583   1.384  11.655   1.818 -0.0031  0.4664  0.5333
  882MOL0     C21584   1.347  11.728   1.939  0.0177 -0.2101 -0.2848
  882MOL0     C21585   1.215  11.786   1.954 -0.9054  0.2898  1.2041
  882MOL0     O21586   1.164  11.859   2.059  0.7097  0.4160  0.3484
  882MOL0     C21587   1.257  11.916   2.147  0.2303  0.5464 -0.4891
  882MOL0     C21588   1.199  11.991   2.259 -0.2202 -0.7378 -0.5136
  882MOL0     C21589   1.101  12.107   2.213  0.3519 -0.4458 -0.6172
  882MOL0     C21590   1.018  12.149   2.334  0.0895  0.6008 -0.2104
  882MOL0     C21591   0.946  12.284   2.304 -1.1807  0.0897  0.8485
  882MOL0     C21592   0.845  12.335   2.402 -1.1122 -0.3449  0.2493
  882MOL0     C21593   0.778  12.467   2.373  0.2913 -0.5006  0.2414
  882MOL0     C21594   0.677  12.493   2.483  0.1320 -0.2135 -0.4706
  882MOL0     N21595   0.599  12.616   2.453 -0.2883 -0.5352  0.0068
  882MOL0     C21596   0.572  12.712   2.543  0.3389 -0.2981  0.9800
  882MOL0     C21597   0.474  12.786   2.488  0.2458  0.6197  1.0348
  882MOL0     C21598   0.400  12.897   2.552  0.3371 -0.3807 -0.0833
  882MOL0     C21599   0.256  12.886   2.587  0.4239 -0.9330  0.2227
  882MOL0     C21600   0.190  13.010   2.641  0.0692 -1.2914 -0.5229
  882MOL0     C21601   0.040  13.000   2.683 -0.3567  0.0411  0.9057
  882MOL0     O21602  -0.039  12.985   2.566 -0.8194 -0.1339 -0.2692
  882MOL0     C21603  -0.173  12.945   2.589  0.3355 -0.1287  0.2264
  882MOL0     C21604  -0.238  12.947   2.712  0.8000 -0.9841  0.1046
  882MOL0     C21605  -0.369  12.901   2.730  0.4340 -0.3816 -1.0815
  882MOL0     C21606  -0.426  12.900   2.872 -0.5646  0.2878 -0.1715
  882MOL0     C21607  -0.436  12.852   2.620  0.3264  0.5425  0.4773
  882MOL0     C21608  -0.573  12.811   2.616 -0.3753 -0.3093  0.2192
  882MOL0     O21609  -0.603  12.716   2.524 -0.0249  0.3265  0.1878
  882MOL0     C21610  -0.733  12.678   2.519 -0.5574  0.8599  0.3035
  882MOL0     C21611  -0.818  12.741   2.427  0.4394 -0.1443 -0.0117
  882MOL0     C21612  -0.951  12.688   2.414 -1.0969 -0.7463  0.6493
  882MOL0     C21613  -0.997  12.582   2.493  0.9906  0.0698 -0.3777
  882MOL0     O21614  -1.119  12.528   2.464  0.0298 -0.5459 -0.9499
  882MOL0     C21615  -1.146  12.399   2.506  0.2665 -0.1926 -0.2583
  882MOL0     C21616  -1.271  12.351   2.464  0.7635  0.8266  0.1223
  882MOL0     C21617  -1.397  12.412   2.538 -0.6569 -0.2841  1.4706
  882MOL0     C21618  -1.523  12.358   2.476 -0.1466  0.1010 -0.3640
  882MOL0     C21619  -1.643  12.417   2.539  0.4293  0.8664 -0.0318
  882MOL0     C21620  -1.656  12.411   2.698 -0.4640  0.3972  0.9817
  882MOL0     C21621  -1.786  12.442   2.762 -0.2418 -0.0974 -0.5275
  882MOL0     C21622  -1.765  12.438   2.911  0.5712 -0.1675  0.5879
  882MOL0    Cl21623  -1.699  12.293   2.979  0.2805 -0.3913 -0.1713
  882MOL0     C21624  -0.906  12.532   2.597  0.2871  0.4286 -0.0439
  882MOL0     C21625  -0.777  12.570   2.596 -0.8652  0.9955 -0.5323
  882MOL0     O21626  -0.654  12.876   2.690 -0.5646 -0.0867  0.3253
  882MOL0     C21627  -0.365  12.850   2.496 -0.7708  1.0573  0.2722
  882MOL0     C21628  -0.240  12.908   2.482 -0.5585 -0.5730  0.0455
  882MOL0     N21629   0.436  12.729   2.376 -0.1567 -0.6540 -0.4050
  882MOL0     N21630   0.514  12.627   2.347  0.5875 -0.4539  0.2396
  882MOL0     C21631   1.130  11.761   1.844  0.2619  0.3071 -1.0177
  882MOL0     C21632   1.165  11.710   1.722 -0.0802 -0.2131 -0.2779
  882MOL0     C21633   1.299  11.365   1.480  0.1010  0.5739  0.5795
  882MOL0     C21634   1.416  11.390   1.397 -0.8549 -0.6173 -0.6093
  882MOL0     C21635   1.437  11.301   1.294 -0.3364 -0.3710 -0.4591
  882MOL0     C21636   1.345  11.203   1.258 -0.0108 -0.4599 -0.1327
  882MOL0     O21637   1.372  11.134   1.141 -0.1782  0.5125  0.1974
  882MOL0     C21638   1.279  11.169   1.044  0.4665 -0.3009  0.4029
  882MOL0     C21639   1.305  11.097   0.912  0.0005  0.0191  0.0788
  882MOL0     C21640   1.445  11.144   0.865 -0.0581 -0.0251  0.3519
  882MOL0     C21641   1.477  11.093   0.721  0.4605  0.4694  0.2427
  882MOL0     C21642   1.484  10.943   0.717  0.4437 -0.0892  0.0777
  882MOL0     C21643   1.468  10.827   0.728 -0.0145  0.8651 -0.1361
  882MOL0     C21644   1.225  11.190   1.334 -0.2918 -0.4003  0.8423
  882MOL0     C21645   1.205  11.260   1.450  0.4287  0.3639 -0.9792
  882MOL0     C21646   1.068  11.262   1.506  0.8103 -0.4070  0.1891
  882MOL0     H21647   1.474  11.596   1.804  0.6301  1.5001  0.1627
  882MOL0     H21648   1.405  11.754   2.027 -0.6321  0.8179 -0.1350
  882MOL0     H21649   1.325  11.979   2.089  2.4373 -0.9320  0.3505
  882MOL0     H21650   1.311  11.835   2.198  0.4462  0.8595 -0.2134
  882MOL0     H21651   1.133  11.920   2.309 -1.0393 -0.8552 -1.7093
  882MOL0     H21652   1.281  12.016   2.326  1.4721 -0.2995 -2.6291
  882MOL0     H21653   1.159  12.196   2.184 -0.6092  0.8982  1.3229
  882MOL0     H21654   1.040  12.083   2.126  1.0602  1.8244 -1.8263
  882MOL0     H21655   0.945  12.074   2.365  0.8274  0.2928  0.8572
  882MOL0     H21656   1.087  12.160   2.418  0.2288 -0.5767 -0.1480
  882MOL0     H21657   0.895  12.268   2.209 -1.3564  1.0896  0.7633
  882MOL0     H21658   1.021  12.362   2.287 -0.1049 -1.1990 -0.5507
  882MOL0     H21659   0.770  12.258   2.418  1.1621 -2.6882  0.2617
  882MOL0     H21660   0.905  12.348   2.493 -1.6382 -0.7963  0.6675
  882MOL0     H21661   0.721  12.448   2.282  1.7905  0.4334 -0.9384
  882MOL0     H21662   0.842  12.554   2.356  0.5909 -1.1874 -2.7743
  882MOL0     H21663   0.615  12.404   2.498 -0.4753  0.2076 -0.4725
  882MOL0     H21664   0.724  12.521   2.578  0.0928  1.1680 -0.8378
  882MOL0     H21665   0.607  12.730   2.644  2.4707 -0.6934  0.3594
  882MOL0     H21666   0.412  12.988   2.491  1.5793 -0.1537  0.4778
  882MOL0     H21667   0.445  12.922   2.648  0.0473  0.7785 -0.2321
  882MOL0     H21668   0.198  12.862   2.498  3.5133 -0.2069 -2.1333
  882MOL0     H21669   0.248  12.806   2.662 -1.5770  1.8237  3.2419
  882MOL0     H21670   0.252  13.047   2.723  2.8247 -1.5827 -2.3400
  882MOL0     H21671   0.200  13.096   2.574 -0.6470 -2.7826 -2.6102
  882MOL0     H21672   0.029  12.906   2.739 -1.8897 -0.7447 -0.5815
  882MOL0     H21673   0.007  13.086   2.742 -1.1595 -0.6400  1.4793
  882MOL0     H21674  -0.194  12.982   2.805 -1.0097 -0.9442  0.9963
  882MOL0     H21675  -0.525  12.944   2.885  0.1033  1.1994  2.6347
  882MOL0     H21676  -0.358  12.951   2.941  0.1872  1.0852 -1.4647
  882MOL0     H21677  -0.425  12.801   2.919  1.6912  0.2940 -0.0731
  882MOL0     H21678  -0.790  12.832   2.375 -1.5810 -0.2651 -1.4094
  882MOL0     H21679  -1.028  12.735   2.351 -2.9463 -1.2286  2.4441
  882MOL0     H21680  -1.061  12.333   2.487 -0.7823 -1.6480 -0.0833
  882MOL0     H21681  -1.158  12.404   2.615  0.8863  0.2738 -0.2088
  882MOL0     H21682  -1.271  12.361   2.355  0.2758  0.5611  0.0942
  882MOL0     H21683  -1.273  12.245   2.493 -2.5844 -0.0007 -2.4285
  882MOL0     H21684  -1.395  12.521   2.543  1.6353 -0.0277 -1.9126
  882MOL0     H21685  -1.387  12.383   2.643 -0.7997 -2.2675  0.9839
  882MOL0     H21686  -1.525  12.249   2.484  2.3559 -0.2251 -2.8068
  882MOL0     H21687  -1.525  12.369   2.367 -2.8047 -0.9264 -0.5123
  882MOL0     H21688  -1.641  12.523   2.512  0.3069  0.9550  0.3003
  882MOL0     H21689  -1.735  12.381   2.493  1.3054 -0.2951 -0.9376
  882MOL0     H21690  -1.581  12.480   2.738  0.4242 -0.7742  1.3984
  882MOL0     H21691  -1.621  12.311   2.726  0.1037 -0.4716 -2.3724
  882MOL0     H21692  -1.860  12.365   2.737  0.1234 -0.8089  0.5033
  882MOL0     H21693  -1.814  12.544   2.736 -1.2056 -0.3640 -0.5668
  882MOL0     H21694  -1.865  12.445   2.957  0.5870 -2.2730  1.0166
  882MOL0     H21695  -1.696  12.520   2.933  1.4991 -1.0080  0.8354
  882MOL0     H21696  -0.940  12.451   2.661 -0.6226  1.4865  0.8756
  882MOL0     H21697  -0.710  12.527   2.669 -0.8955 -0.2588 -1.2298
  882MOL0     H21698  -0.423  12.818   2.409 -0.3419  0.0011  0.3525
  882MOL0     H21699  -0.200  12.905   2.381 -2.2655 -3.4606 -0.6880
  882MOL0     H21700   1.029  11.798   1.854  0.6679  1.3627 -0.7104
  882MOL0     H21701   1.104  11.695   1.633 -1.2097 -0.9110  0.5924
  882MOL0     H21702   1.494  11.462   1.422  0.4134 -2.3588  0.7614
  882MOL0     H21703   1.519  11.340   1.234  1.2600 -0.0773  1.7999
  882MOL0     H21704   1.178  11.143   1.075  1.1925 -2.5752  1.0242
  882MOL0     H21705   1.271  11.275   1.019 -1.8106 -0.7857 -1.2407
  882MOL0     H21706   1.222  11.109   0.841  1.7603 -0.2148 -2.1439
  882MOL0     H21707   1.305  10.989   0.930 -1.5523 -0.1653 -0.8345
  882MOL0     H21708   1.450  11.254   0.863  0.4052 -0.0368  0.5183
  882MOL0     H21709   1.523  11.102   0.930 -0.0251 -2.8738 -1.3723
  882MOL0     H21710   1.570  11.137   0.682 -0.2206  3.1910  1.4325
  882MOL0     H21711   1.386  11.112   0.664  0.5550 -0.7719 -0.3543
  882MOL0     H21712   1.473  10.724   0.758  2.3410  0.5741 -1.2819
  882MOL0     H21713   1.144  11.121   1.312 -1.6786  1.1650  0.8417
  882MOL0     H21714   1.057  11.206   1.600  1.9933 -2.2745 -0.7475
  882MOL0     H21715   1.040  11.365   1.530  0.4459 -0.0244 -1.7328
  882MOL0     H21716   1.005  11.223   1.426  0.9255 -0.5727  0.1814
  883MOL0     O21717   9.531  10.500   3.615  0.0476  0.5844 -0.1488
  883MOL0     C21718   9.513  10.484   3.739  0.7910 -0.1555  0.7366
  883MOL0     O21719   9.537  10.584   3.826 -0.7173 -0.0907  0.5373
  883MOL0     C21720   9.608  10.690   3.793  0.0728 -0.0137 -0.2306
  883MOL0     C21721   9.744  10.678   3.766 -0.0015  0.6634 -0.3001
  883MOL0     C21722   9.823  10.784   3.732  0.5733 -0.1450 -0.3907
  883MOL0     C21723   9.757  10.910   3.705  0.0095 -0.4320 -0.3832
  883MOL0     O21724   9.831  11.022   3.664 -0.6629  0.0834  0.0808
  883MOL0     C21725   9.854  11.121   3.762 -0.9034 -0.1206  0.2689
  883MOL0     C21726   9.970  11.201   3.696 -0.0877 -0.0443  0.2109
  883MOL0     C21727   9.980  11.340   3.759 -0.1959  0.4725  0.4113
  883MOL0     C21728   9.942  11.370   3.902  0.0042 -0.8777 -0.7265
  883MOL0     C21729  10.001  11.509   3.955  0.2384 -0.4500 -0.1273
  883MOL0     C21730   9.993  11.499   4.102  0.1071 -0.2668 -0.0479
  883MOL0     C21731   9.858  11.517   4.162 -0.5682 -0.1798 -0.8321
  883MOL0     C21732   9.791  11.655   4.144  0.6000  0.0489  0.4158
  883MOL0     N21733   9.880  11.764   4.176  0.1451 -0.9978  0.1204
  883MOL0     C21734   9.943  11.847   4.084 -0.4075  0.6097 -0.4087
  883MOL0     C21735  10.022  11.928   4.154 -0.5644  0.3844 -0.4753
  883MOL0     C21736  10.096  12.041   4.085  0.1560 -0.6664  0.1541
  883MOL0     C21737  10.005  12.161   4.094 -0.4249 -0.2966  0.3651
  883MOL0     C21738  10.006  12.229   4.232 -0.6488 -0.6246 -0.4204
  883MOL0     C21739   9.881  12.304   4.269 -0.3225  0.0227  0.0268
  883MOL0     O21740   9.916  12.406   4.365 -0.5561 -0.0794 -0.1397
  883MOL0     C21741   9.822  12.496   4.408  0.0057 -0.5119 -1.1043
  883MOL0     C21742   9.685  12.490   4.371 -0.5992 -0.7507 -0.0840
  883MOL0     C21743   9.596  12.589   4.416  0.2093  0.7045  0.6200
  883MOL0     C21744   9.462  12.581   4.356 -0.5696 -0.6167 -0.2631
  883MOL0     C21745   9.648  12.689   4.505  0.0263 -0.2039  0.2449
  883MOL0     C21746   9.550  12.781   4.572 -0.2654 -0.3156 -0.4541
  883MOL0     O21747   9.607  12.894   4.632  0.0466  0.0324 -0.2893
  883MOL0     C21748   9.541  12.960   4.738  0.5632 -0.1374  1.0157
  883MOL0     C21749   9.461  12.900   4.831 -0.3460  0.3249 -1.2032
  883MOL0     C21750   9.397  12.971   4.935  0.0871  0.7150  0.0712
  883MOL0     C21751   9.416  13.108   4.951  0.4768  0.0556  0.6894
  883MOL0     O21752   9.376  13.162   5.067  0.2520  0.3965 -0.3681
  883MOL0     C21753   9.465  13.257   5.126  0.8108 -0.3405 -0.0725
  883MOL0     C21754   9.414  13.282   5.264 -0.7978 -0.2803  0.2468
  883MOL0     C21755   9.443  13.422   5.312  0.2560 -0.1129 -0.2786
  883MOL0     C21756   9.598  13.449   5.321  1.1211 -0.2229  0.3385
  883MOL0     C21757   9.631  13.582   5.391 -0.2152  0.5881  1.1172
  883MOL0     C21758   9.783  13.588   5.422  0.0722 -0.2160 -0.6725
  883MOL0     C21759   9.885  13.553   5.308  0.2977 -0.4722 -0.0879
  883MOL0     C21760  10.027  13.602   5.352 -0.5556  0.2385 -0.5986
  883MOL0    Cl21761  10.041  13.778   5.393  0.1017 -0.5880  0.1571
  883MOL0     C21762   9.503  13.171   4.860 -0.7129  0.5875 -0.0347
  883MOL0     C21763   9.561  13.094   4.759 -0.2701  0.4028  0.2600
  883MOL0     O21764   9.438  12.737   4.583 -0.2216 -0.3146 -0.3754
  883MOL0     C21765   9.781  12.689   4.537  0.2775 -0.2109 -0.2856
  883MOL0     C21766   9.867  12.591   4.491 -0.2113  0.2806  0.7823
  883MOL0     N21767   9.999  11.903   4.288  0.0309  0.6634 -0.0089
  883MOL0     N21768   9.918  11.801   4.299 -0.0418 -0.3983 -0.1689
  883MOL0     C21769   9.615  10.918   3.718 -0.2965  0.2482  0.1461
  883MOL0     C21770   9.544  10.806   3.765  0.6392  0.0938  0.6530
  883MOL0     C21771   9.450  10.357   3.792 -1.2608  0.7948  1.0399
  883MOL0     C21772   9.390  10.355   3.914  0.3803 -0.9177 -0.1244
  883MOL0     C21773   9.327  10.243   3.955  0.2411 -0.4984  0.2553
  883MOL0     C21774   9.329  10.117   3.891  0.3806  0.2040  0.0789
  883MOL0     O21775   9.280   9.999   3.943 -0.3065 -0.9407  0.3289
  883MOL0     C21776   9.291   9.985   4.090  0.0654  0.6041 -0.2500
  883MOL0     C21777   9.328   9.831   4.093  0.3098  0.6897  0.1147
  883MOL0     C21778   9.454   9.790   4.028  0.3727  1.1208  0.9838
  883MOL0     C21779   9.504   9.654   4.081  0.1318  0.1670  0.3299
  883MOL0     C21780   9.649   9.653   4.064 -0.6828 -0.3668  0.0986
  883MOL0     C21781   9.769   9.638   4.046  0.2838 -0.2226 -0.7199
  883MOL0     C21782   9.403  10.113   3.772  0.9092  0.1694  0.2832
  883MOL0     C21783   9.464  10.230   3.723 -0.2725  0.2402 -0.4380
  883MOL0     C21784   9.516  10.215   3.586  0.8684 -0.0060  0.6838
  883MOL0     H21785   9.801  10.586   3.780  1.1500  1.1665 -1.4270
  883MOL0     H21786   9.927  10.778   3.700  1.1773  0.6329  1.2807
  883MOL0     H21787   9.877  11.085   3.863  2.4647  0.2920 -0.2544
  883MOL0     H21788   9.774  11.194   3.781 -0.1867  1.3261 -1.9894
  883MOL0     H21789  10.064  11.145   3.698  0.6748  1.1728 -0.6780
  883MOL0     H21790   9.945  11.209   3.590  4.9640  1.8229 -1.1136
  883MOL0     H21791  10.079  11.378   3.730 -1.1234  0.5024 -3.1921
  883MOL0     H21792   9.902  11.384   3.696  0.6877 -2.5914 -3.2617
  883MOL0     H21793   9.835  11.395   3.911  0.1900  0.1116 -1.0961
  883MOL0     H21794   9.961  11.289   3.972 -0.7866 -0.0452  0.5084
  883MOL0     H21795   9.952  11.596   3.909 -0.5130 -0.3219  0.8793
  883MOL0     H21796  10.106  11.522   3.929 -0.2574  3.3339 -0.8833
  883MOL0     H21797  10.025  11.399   4.132 -0.7125 -0.2622  0.9217
  883MOL0     H21798  10.068  11.559   4.154  2.0027 -2.0774 -0.5636
  883MOL0     H21799   9.872  11.507   4.270 -1.1020  2.8108 -0.3988
  883MOL0     H21800   9.782  11.443   4.137 -1.0344  0.5752 -1.7424
  883MOL0     H21801   9.760  11.647   4.039  4.0681 -0.4093 -0.6925
  883MOL0     H21802   9.705  11.677   4.208  0.0636 -0.0145 -0.2714
  883MOL0     H21803   9.945  11.849   3.976  1.4353 -1.2080 -0.4696
  883MOL0     H21804  10.123  12.022   3.980 -2.2570  2.6529 -1.2230
  883MOL0     H21805  10.187  12.075   4.135 -0.6129  2.0903 -0.2004
  883MOL0     H21806  10.042  12.235   4.023  0.8462  1.2197  2.4675
  883MOL0     H21807   9.904  12.126   4.067 -0.3057 -1.1180  0.9314
  883MOL0     H21808  10.029  12.149   4.303 -0.1707 -1.7879 -1.8394
  883MOL0     H21809  10.103  12.280   4.234 -0.3328 -1.2186 -0.4632
  883MOL0     H21810   9.848  12.358   4.180  1.3120  3.5360  1.3686
  883MOL0     H21811   9.809  12.237   4.316 -0.6183  0.3351  0.0275
  883MOL0     H21812   9.656  12.415   4.297  1.8327  0.2243 -2.2124
  883MOL0     H21813   9.459  12.519   4.266  1.6187 -0.2061 -0.6628
  883MOL0     H21814   9.428  12.684   4.339 -0.7956 -0.6472 -0.0034
  883MOL0     H21815   9.399  12.531   4.430 -0.4848 -1.3042 -0.6534
  883MOL0     H21816   9.460  12.791   4.825  0.4772  0.3080 -1.1406
  883MOL0     H21817   9.332  12.910   4.997  0.9056 -3.0778 -2.4203
  883MOL0     H21818   9.569  13.224   5.124  1.4240  1.3998  1.2982
  883MOL0     H21819   9.445  13.354   5.079 -1.2031 -0.0280  1.2777
  883MOL0     H21820   9.307  13.265   5.251 -0.5483  0.3649 -4.8873
  883MOL0     H21821   9.460  13.206   5.327 -1.2861 -1.2278 -0.5200
  883MOL0     H21822   9.400  13.415   5.412 -0.4920 -1.4409 -0.6777
  883MOL0     H21823   9.385  13.498   5.258 -2.0450 -1.0820  0.7178
  883MOL0     H21824   9.634  13.444   5.218  0.7258 -0.5002  0.2115
  883MOL0     H21825   9.657  13.370   5.368  2.8931  0.4958 -0.6005
  883MOL0     H21826   9.598  13.663   5.325 -3.3893 -1.3691  0.0722
  883MOL0     H21827   9.581  13.595   5.488 -1.2189 -1.2350  0.9045
  883MOL0     H21828   9.802  13.520   5.505  0.6792 -0.6515 -1.1616
  883MOL0     H21829   9.798  13.691   5.456  0.4093  0.1312 -1.8204
  883MOL0     H21830   9.858  13.604   5.215 -1.7602  0.2174  0.8198
  883MOL0     H21831   9.882  13.446   5.286  1.0840 -0.1753 -1.8268
  883MOL0     H21832  10.097  13.582   5.270 -0.8692  1.2187 -1.1243
  883MOL0     H21833  10.068  13.530   5.423  0.1076  1.3725  0.1997
  883MOL0     H21834   9.539  13.272   4.875  0.7706 -0.0418  0.9727
  883MOL0     H21835   9.621  13.153   4.689 -2.7393  1.8549 -0.7455
  883MOL0     H21836   9.814  12.767   4.605 -0.7603 -0.7045  0.8291
  883MOL0     H21837   9.968  12.582   4.530 -0.3825 -0.5712  1.0662
  883MOL0     H21838   9.566  11.013   3.704 -2.6496 -1.1552 -1.9408
  883MOL0     H21839   9.442  10.816   3.799 -0.7034 -0.9697 -2.6167
  883MOL0     H21840   9.375  10.442   3.977  0.5277 -1.8980  1.3263
  883MOL0     H21841   9.281  10.253   4.053  2.3795 -1.3762  1.4140
  883MOL0     H21842   9.368  10.041   4.144  0.6521 -1.5285  1.2652
  883MOL0     H21843   9.197   9.988   4.146 -0.7982 -2.3019 -1.3813
  883MOL0     H21844   9.245   9.773   4.052 -0.2328 -0.5405  2.7014
  883MOL0     H21845   9.327   9.804   4.199  0.9812 -1.6125 -0.4231
  883MOL0     H21846   9.442   9.777   3.920  0.0317 -0.7785  1.2219
  883MOL0     H21847   9.530   9.867   4.041  0.1441  1.1485  2.3375
  883MOL0     H21848   9.454   9.567   4.036 -1.9527  0.1721  2.4206
  883MOL0     H21849   9.473   9.645   4.186  2.9699 -3.4741  1.0763
  883MOL0     H21850   9.872   9.623   4.021 -0.0921 -2.4775 -1.1158
  883MOL0     H21851   9.399  10.031   3.700 -0.4925  1.7299 -1.5368
  883MOL0     H21852   9.605  10.274   3.560 -0.4547  1.1549 -1.5036
  883MOL0     H21853   9.542  10.110   3.573  0.0429 -0.2940  1.2890
  883MOL0     H21854   9.431  10.246   3.525  0.9523  1.2446  1.1622
  884MOL0     O21855   1.136   5.654   7.879 -0.1812  0.4407 -0.1012
  884MOL0     C21856   1.077   5.558   7.939 -0.4577  0.1290  0.0705
  884MOL0     O21857   1.123   5.434   7.935  0.5860  0.3171 -0.0693
  884MOL0     C21858   1.252   5.418   7.896  0.7826 -0.5362 -0.1477
  884MOL0     C21859   1.359   5.432   7.992  0.0686  0.7073  0.3468
  884MOL0     C21860   1.490   5.423   7.943  0.8527  0.0675  0.4595
  884MOL0     C21861   1.525   5.408   7.811 -0.4096 -0.4231  0.6247
  884MOL0     O21862   1.654   5.403   7.766  0.1618  0.0638 -0.4437
  884MOL0     C21863   1.682   5.342   7.642  1.5920  0.1101  0.2607
  884MOL0     C21864   1.825   5.287   7.639 -0.9284 -0.4046 -0.0717
  884MOL0     C21865   1.825   5.158   7.547  0.9538 -0.1562 -0.1202
  884MOL0     C21866   1.960   5.089   7.567  0.6704 -1.4326 -0.1561
  884MOL0     C21867   1.982   4.974   7.470  0.5942 -0.1639 -0.5883
  884MOL0     C21868   2.116   4.900   7.501  0.4797  0.5872  0.4048
  884MOL0     C21869   2.211   4.872   7.373  0.2371  0.6760  0.5219
  884MOL0     C21870   2.304   4.753   7.406  0.4439 -0.4705  1.1499
  884MOL0     N21871   2.395   4.768   7.515 -0.3156  0.1150 -0.5896
  884MOL0     C21872   2.401   4.677   7.617  0.8664 -0.4109 -0.0555
  884MOL0     C21873   2.501   4.723   7.693 -0.3704  0.4255 -0.4335
  884MOL0     C21874   2.554   4.684   7.823 -0.7310 -0.0460  0.7577
  884MOL0     C21875   2.437   4.629   7.910  0.6032  1.3434 -0.4580
  884MOL0     C21876   2.476   4.593   8.058  0.6144  0.5298  0.0181
  884MOL0     C21877   2.594   4.494   8.079 -0.7536  0.0921 -0.1235
  884MOL0     O21878   2.617   4.475   8.212  0.4723 -0.5237 -0.6197
  884MOL0     C21879   2.746   4.420   8.235 -0.7324 -0.0684 -0.5802
  884MOL0     C21880   2.841   4.477   8.323  0.3524 -0.3687 -0.2410
  884MOL0     C21881   2.969   4.427   8.343 -0.1404 -0.4739 -0.3063
  884MOL0     C21882   3.069   4.513   8.418  0.2274 -0.2390  0.2693
  884MOL0     C21883   3.003   4.304   8.282  0.1682 -0.7128 -0.9485
  884MOL0     C21884   3.128   4.227   8.326  1.0019  0.7255 -0.8909
  884MOL0     O21885   3.180   4.150   8.224  0.9094 -0.0836 -0.7012
  884MOL0     C21886   3.303   4.086   8.260 -0.3589 -0.8169 -0.5304
  884MOL0     C21887   3.302   3.977   8.350 -0.3243 -0.3840  0.3675
  884MOL0     C21888   3.416   3.913   8.389 -0.0066  0.9267 -0.7227
  884MOL0     C21889   3.536   3.941   8.332  0.0524 -1.4341 -0.1100
  884MOL0     O21890   3.650   3.865   8.340  0.4129  0.8035  0.3803
  884MOL0     C21891   3.669   3.785   8.458 -0.1263 -0.4551 -0.3990
  884MOL0     C21892   3.722   3.885   8.564  0.1099  0.6416 -0.5490
  884MOL0     C21893   3.717   3.810   8.706  1.0710  0.7747 -0.4214
  884MOL0     C21894   3.823   3.852   8.810 -0.3795  0.9408  0.6432
  884MOL0     C21895   3.767   3.802   8.944  0.2230 -1.0513  0.2147
  884MOL0     C21896   3.768   3.646   8.950  0.2214 -0.1100 -0.9385
  884MOL0     C21897   3.769   3.608   9.092 -0.8068  0.1790 -0.5585
  884MOL0     C21898   3.776   3.451   9.104 -0.6632  0.3101  0.6461
  884MOL0    Cl21899   3.866   3.415   9.253 -0.3875 -0.2520  0.0772
  884MOL0     C21900   3.540   4.049   8.237  0.3539 -0.2074  0.0308
  884MOL0     C21901   3.416   4.121   8.199  0.4013  0.2385 -0.8995
  884MOL0     O21902   3.166   4.225   8.445  0.7590  0.2532 -0.0444
  884MOL0     C21903   2.909   4.243   8.199 -0.4970  0.2994 -0.2810
  884MOL0     C21904   2.780   4.296   8.179 -0.6930 -0.0695  0.4101
  884MOL0     N21905   2.551   4.839   7.633  0.1466 -0.7004  0.2817
  884MOL0     N21906   2.478   4.870   7.531  0.0319  0.4222 -0.0452
  884MOL0     C21907   1.424   5.415   7.718  0.5876  0.0638 -0.2031
  884MOL0     C21908   1.282   5.423   7.759 -0.8947 -0.4073  1.3236
  884MOL0     C21909   0.967   5.583   8.041 -0.0659  0.2874 -0.6174
  884MOL0     C21910   0.900   5.473   8.098 -0.0124 -0.6573  0.5149
  884MOL0     C21911   0.791   5.489   8.190  0.6531 -0.2930  0.2838
  884MOL0     C21912   0.749   5.619   8.224  0.1229  0.0891  0.2691
  884MOL0     O21913   0.647   5.657   8.308 -0.4080  0.4020 -0.3095
  884MOL0     C21914   0.529   5.583   8.295 -0.4847  0.8331  0.9278
  884MOL0     C21915   0.410   5.657   8.358  1.3401  0.7492 -0.3826
  884MOL0     C21916   0.394   5.800   8.310  0.6150 -1.0496 -0.1622
  884MOL0     C21917   0.310   5.820   8.183  0.2944 -0.4871  0.6916
  884MOL0     C21918   0.168   5.796   8.200  0.4108  1.0154 -0.0163
  884MOL0     C21919   0.047   5.778   8.196 -0.0340 -0.2768 -0.2159
  884MOL0     C21920   0.813   5.725   8.158  0.0850 -0.9810  0.5996
  884MOL0     C21921   0.912   5.711   8.065 -0.6121  0.0304 -0.4567
  884MOL0     C21922   0.945   5.832   7.990  0.4557  0.1071  0.5528
  884MOL0     H21923   1.339   5.438   8.098 -0.0052 -0.4437  0.4131
  884MOL0     H21924   1.576   5.411   8.009  1.8288 -2.2696 -1.1057
  884MOL0     H21925   1.674   5.413   7.560  0.8155 -0.8401 -0.5021
  884MOL0     H21926   1.605   5.267   7.622 -1.3208  2.8546  0.3802
  884MOL0     H21927   1.890   5.365   7.599  0.1524 -1.8702 -1.2720
  884MOL0     H21928   1.861   5.268   7.741 -0.0877  0.6832 -0.1537
  884MOL0     H21929   1.751   5.087   7.586  1.6547 -1.0562 -0.4041
  884MOL0     H21930   1.789   5.188   7.448  0.2129  2.8751  0.9525
  884MOL0     H21931   2.046   5.157   7.571  0.0210 -0.6562  2.6633
  884MOL0     H21932   1.964   5.047   7.668  1.2382 -0.8668  0.0649
  884MOL0     H21933   1.990   5.022   7.372 -3.4703  0.6039 -0.6877
  884MOL0     H21934   1.904   4.898   7.480  0.0987  0.6226  4.7762
  884MOL0     H21935   2.169   4.963   7.574  2.2396 -0.6799  0.2832
  884MOL0     H21936   2.093   4.810   7.558 -0.9613  0.4271 -0.3797
  884MOL0     H21937   2.278   4.957   7.357 -1.1562  1.7845  0.3356
  884MOL0     H21938   2.163   4.844   7.279  1.4312  0.7986 -0.1343
  884MOL0     H21939   2.241   4.666   7.426  0.1897 -0.4646  0.3884
  884MOL0     H21940   2.359   4.743   7.312 -0.2877  0.3062  0.6146
  884MOL0     H21941   2.333   4.593   7.627 -0.3069  0.4939 -0.1884
  884MOL0     H21942   2.597   4.771   7.873  1.3267 -1.9683  2.5233
  884MOL0     H21943   2.639   4.616   7.813 -0.6405 -0.0428  1.4662
  884MOL0     H21944   2.350   4.696   7.910 -1.7540 -1.4718  1.6283
  884MOL0     H21945   2.407   4.542   7.852 -1.7082  2.6025 -1.2935
  884MOL0     H21946   2.487   4.689   8.110 -2.2037 -0.4379  2.6512
  884MOL0     H21947   2.390   4.542   8.103 -0.3625  2.7530  0.8257
  884MOL0     H21948   2.576   4.396   8.036  2.0093 -0.8802  0.7658
  884MOL0     H21949   2.679   4.531   8.021  1.2805 -1.8472  1.4672
  884MOL0     H21950   2.815   4.566   8.380 -1.7298 -0.6090 -0.7237
  884MOL0     H21951   3.042   4.619   8.419  3.8276  0.9185 -2.7616
  884MOL0     H21952   3.162   4.498   8.362 -0.2482  1.2842 -0.9920
  884MOL0     H21953   3.078   4.472   8.519 -1.5805  2.2992  1.5486
  884MOL0     H21954   3.209   3.944   8.396 -0.5040 -0.6656 -0.1781
  884MOL0     H21955   3.404   3.827   8.454  1.1304  1.0155 -0.3787
  884MOL0     H21956   3.580   3.732   8.495 -1.7236  1.9165 -0.6671
  884MOL0     H21957   3.745   3.709   8.438 -0.6846 -1.4972  1.2219
  884MOL0     H21958   3.826   3.884   8.532  0.6901 -2.8306  0.9860
  884MOL0     H21959   3.664   3.978   8.565  0.5892  0.9989  2.1010
  884MOL0     H21960   3.726   3.702   8.693  2.9674  0.7403  0.7119
  884MOL0     H21961   3.618   3.832   8.747  0.7394 -0.1783 -0.6779
  884MOL0     H21962   3.832   3.961   8.803  0.0466  0.8085 -2.3616
  884MOL0     H21963   3.922   3.807   8.796 -0.2400  0.6342  2.4287
  884MOL0     H21964   3.828   3.836   9.028  2.0846  1.3385 -1.9400
  884MOL0     H21965   3.661   3.823   8.964  0.8021  3.4796 -0.3993
  884MOL0     H21966   3.856   3.608   8.897  2.5639  2.2003  1.0551
  884MOL0     H21967   3.683   3.599   8.900  1.0658  0.8612 -3.4577
  884MOL0     H21968   3.679   3.650   9.139  1.3510  2.9812  1.3456
  884MOL0     H21969   3.859   3.648   9.138 -0.0284  0.3992 -2.1960
  884MOL0     H21970   3.840   3.408   9.028  0.9090 -1.7316  2.9729
  884MOL0     H21971   3.682   3.395   9.100 -0.1458 -0.5046 -3.1728
  884MOL0     H21972   3.628   4.058   8.174  1.8886  0.3481  2.1545
  884MOL0     H21973   3.422   4.196   8.121 -4.4806  1.6808 -0.2179
  884MOL0     H21974   2.931   4.149   8.149  1.1722  0.1181  0.7138
  884MOL0     H21975   2.711   4.249   8.110 -1.5906  1.7128  0.0149
  884MOL0     H21976   1.438   5.407   7.611  1.0284 -0.3256 -0.1189
  884MOL0     H21977   1.206   5.420   7.681  1.3253 -0.9390 -0.9601
  884MOL0     H21978   0.933   5.374   8.068  2.6593 -0.8087  3.4451
  884MOL0     H21979   0.756   5.403   8.246 -1.4708  0.8649  0.8491
  884MOL0     H21980   0.516   5.573   8.186  0.8574 -0.8673  0.8690
  884MOL0     H21981   0.552   5.486   8.339 -1.5869  0.9067  1.6829
  884MOL0     H21982   0.422   5.652   8.466  0.0741 -3.0392 -0.2855
  884MOL0     H21983   0.313   5.612   8.339  0.6378  2.2269 -0.4416
  884MOL0     H21984   0.348   5.853   8.394  0.8585 -0.4111 -0.4249
  884MOL0     H21985   0.488   5.854   8.294  0.7505  0.4309  4.2310
  884MOL0     H21986   0.335   5.741   8.111 -1.5061 -0.9325  0.5082
  884MOL0     H21987   0.326   5.922   8.148  0.3305 -1.1875 -1.5211
  884MOL0     H21988  -0.059   5.778   8.187 -0.1286 -0.0844  0.7443
  884MOL0     H21989   0.778   5.827   8.174 -0.7254 -1.4674  2.1289
  884MOL0     H21990   1.053   5.844   7.990  0.5373 -0.5748  0.9491
  884MOL0     H21991   0.918   5.816   7.885 -0.3372  1.8259  0.4586
  884MOL0     H21992   0.901   5.924   8.030 -0.4569  0.8413 -1.9492
  885MOL0     O21993  11.436   5.898   1.910 -0.0372 -0.4158 -0.1462
  885MOL0     C21994  11.416   6.019   1.925 -0.2091 -0.3098  0.1949
  885MOL0     O21995  11.497   6.097   2.005 -0.4390  0.2316  0.9073
  885MOL0     C21996  11.584   6.023   2.082 -0.2101  0.0225  0.5538
  885MOL0     C21997  11.720   6.028   2.049  0.3032 -0.4539  0.1617
  885MOL0     C21998  11.813   5.963   2.146 -0.5590  0.0574  0.3790
  885MOL0     C21999  11.768   5.895   2.254  1.3807 -0.4079  0.3085
  885MOL0     O22000  11.852   5.813   2.319 -0.5374 -0.3449  0.3178
  885MOL0     C22001  11.851   5.681   2.272 -0.4056 -0.2594 -0.2370
  885MOL0     C22002  11.987   5.622   2.322  0.2099  0.1240 -0.0479
  885MOL0     C22003  12.009   5.472   2.281 -0.7328 -0.4817 -0.7457
  885MOL0     C22004  11.916   5.371   2.350  0.1945  0.5777  0.5907
  885MOL0     C22005  11.972   5.227   2.356  0.2834  0.1710 -0.1549
  885MOL0     C22006  11.872   5.124   2.429 -0.8268  0.2251  0.2054
  885MOL0     C22007  11.925   4.986   2.458  0.3662 -0.4168  0.0657
  885MOL0     C22008  11.842   4.902   2.563  0.4703  0.1058  0.7311
  885MOL0     N22009  11.705   4.890   2.495 -1.1968  0.0088 -0.4932
  885MOL0     C22010  11.676   4.842   2.372 -0.2189  0.1927 -0.6599
  885MOL0     C22011  11.541   4.846   2.364  0.4320  0.7137  0.0653
  885MOL0     C22012  11.468   4.800   2.248 -0.4105 -0.6321 -0.0081
  885MOL0     C22013  11.328   4.737   2.267 -0.3291  0.0991 -0.7025
  885MOL0     C22014  11.340   4.602   2.331 -0.0093 -0.0506 -0.5179
  885MOL0     C22015  11.218   4.560   2.424  0.7368  0.2402  0.0341
  885MOL0     O22016  11.097   4.561   2.354 -0.7514 -0.4900 -0.1937
  885MOL0     C22017  10.986   4.497   2.411 -1.0869 -0.4499  0.8035
  885MOL0     C22018  10.920   4.404   2.325 -0.0266  0.0306 -0.5679
  885MOL0     C22019  10.808   4.330   2.365  0.0010  0.2063 -0.3910
  885MOL0     C22020  10.736   4.246   2.264 -0.2056 -0.2589  0.3547
  885MOL0     C22021  10.751   4.352   2.497 -0.2241  0.3767  0.6985
  885MOL0     C22022  10.635   4.278   2.554 -0.5294 -0.5508  0.1140
  885MOL0     O22023  10.602   4.160   2.495  0.0707 -0.0912  0.2829
  885MOL0     C22024  10.508   4.072   2.544 -0.6791 -0.2802 -0.4847
  885MOL0     C22025  10.445   3.994   2.448 -0.0544 -0.4043 -0.4203
  885MOL0     C22026  10.346   3.900   2.473 -0.2056  0.5023  0.6852
  885MOL0     C22027  10.309   3.868   2.601  0.3037 -0.6396 -0.0208
  885MOL0     O22028  10.205   3.775   2.621 -0.6730  0.5055 -0.2320
  885MOL0     C22029  10.123   3.793   2.744  0.1360 -0.0865  1.0438
  885MOL0     C22030   9.993   3.693   2.746 -0.6814 -0.2640 -0.4015
  885MOL0     C22031   9.918   3.704   2.880  0.6032 -1.7006  0.2179
  885MOL0     C22032   9.812   3.597   2.885 -0.4118  0.2707 -0.2782
  885MOL0     C22033   9.725   3.589   3.002  0.0311 -0.5919 -0.7882
  885MOL0     C22034   9.612   3.694   2.972  0.1305 -0.1989 -0.2254
  885MOL0     C22035   9.512   3.673   3.085 -0.3917  0.3309 -1.4944
  885MOL0     C22036   9.390   3.774   3.081  0.7922  0.5433  0.2808
  885MOL0    Cl22037   9.311   3.733   3.228 -0.1803  0.1113  0.3114
  885MOL0     C22038  10.384   3.933   2.710 -0.7722  0.2247  0.6135
  885MOL0     C22039  10.485   4.037   2.676 -1.0034 -0.3834  0.4041
  885MOL0     O22040  10.586   4.310   2.657  0.6586 -0.3659  0.4189
  885MOL0     C22041  10.827   4.444   2.579  0.3394  0.3098 -1.3871
  885MOL0     C22042  10.939   4.507   2.537  0.5551 -0.0928  0.8149
  885MOL0     N22043  11.483   4.890   2.485  0.2936 -1.1155  0.2380
  885MOL0     N22044  11.591   4.914   2.553 -0.0192  0.0887 -0.1851
  885MOL0     C22045  11.630   5.886   2.271  0.3531  0.2449  0.6578
  885MOL0     C22046  11.540   5.955   2.193  0.1633  0.0214 -0.0361
  885MOL0     C22047  11.313   6.093   1.859  0.6068  0.2794  0.0605
  885MOL0     C22048  11.344   6.206   1.786  0.4905 -0.6514 -0.1141
  885MOL0     C22049  11.251   6.285   1.715 -0.3276  0.5268 -0.1510
  885MOL0     C22050  11.124   6.245   1.712 -0.0361 -0.5021  0.1185
  885MOL0     O22051  11.019   6.322   1.664 -0.2279 -0.5474  0.7396
  885MOL0     C22052  10.936   6.290   1.550  0.1763  0.3618 -0.3437
  885MOL0     C22053  10.875   6.413   1.480 -0.0849 -0.3685  0.1790
  885MOL0     C22054  10.799   6.407   1.344  0.2136  0.6815 -1.0960
  885MOL0     C22055  10.650   6.441   1.351 -0.4359  0.6924 -0.5283
  885MOL0     C22056  10.584   6.347   1.446 -0.8670 -0.6330 -0.6016
  885MOL0     C22057  10.541   6.278   1.539 -0.4362  0.6944 -0.5254
  885MOL0     C22058  11.086   6.132   1.784  0.3909 -0.3031  0.0887
  885MOL0     C22059  11.180   6.052   1.845  0.3226  0.0415 -0.5515
  885MOL0     C22060  11.130   5.937   1.916 -0.2470 -0.8394 -0.1629
  885MOL0     H22061  11.745   6.070   1.952  0.5302  0.1378  0.4724
  885MOL0     H22062  11.918   5.958   2.118 -0.2143 -2.4868  1.8108
  885MOL0     H22063  11.828   5.680   2.166  1.4727 -0.1383 -0.6897
  885MOL0     H22064  11.776   5.627   2.330  1.2450  0.0275  2.3703
  885MOL0     H22065  12.058   5.684   2.267  0.9548 -0.6077  0.0687
  885MOL0     H22066  12.002   5.622   2.430 -0.1693 -1.6233  0.0404
  885MOL0     H22067  12.012   5.463   2.172  0.3547  0.3032 -0.8017
  885MOL0     H22068  12.111   5.451   2.315 -1.3529 -0.8096  0.9858
  885MOL0     H22069  11.893   5.397   2.454 -0.3211 -2.7382  1.4301
  885MOL0     H22070  11.821   5.370   2.295 -0.1248  1.0188  1.1171
  885MOL0     H22071  12.053   5.221   2.429 -1.9146 -1.5508  2.3082
  885MOL0     H22072  12.003   5.205   2.253  4.2866 -0.6668  1.0524
  885MOL0     H22073  11.842   5.161   2.527 -1.6467 -1.5356  0.6740
  885MOL0     H22074  11.776   5.123   2.376 -1.6272 -0.2660  1.6137
  885MOL0     H22075  12.014   5.018   2.512  0.9167 -0.9573 -0.5104
  885MOL0     H22076  11.937   4.921   2.371  1.0455 -2.2645  1.4729
  885MOL0     H22077  11.882   4.801   2.574  0.5220 -0.5388 -3.5275
  885MOL0     H22078  11.836   4.949   2.661 -2.1154  1.5270  0.0058
  885MOL0     H22079  11.735   4.804   2.290 -2.4878 -1.2474 -1.7150
  885MOL0     H22080  11.534   4.722   2.210  0.0488 -0.9657  1.4516
  885MOL0     H22081  11.461   4.878   2.172 -4.3065 -0.3422  0.4167
  885MOL0     H22082  11.269   4.799   2.334  0.2931  0.0969 -0.1430
  885MOL0     H22083  11.272   4.734   2.173 -2.1390 -2.5622  0.3563
  885MOL0     H22084  11.338   4.525   2.254  0.1980 -3.3242  2.5059
  885MOL0     H22085  11.430   4.589   2.391 -1.4040  2.3366  2.4150
  885MOL0     H22086  11.233   4.463   2.473  2.2735  1.1354  1.3953
  885MOL0     H22087  11.195   4.633   2.501 -0.0877 -0.2490  0.2726
  885MOL0     H22088  10.958   4.391   2.224  1.1541  0.9687 -0.2755
  885MOL0     H22089  10.797   4.241   2.173  0.8043  0.8180  0.9469
  885MOL0     H22090  10.636   4.290   2.259 -0.2224 -0.2214  0.9428
  885MOL0     H22091  10.731   4.142   2.298  4.0022  0.1689  3.0419
  885MOL0     H22092  10.457   4.037   2.349  0.4341  1.7562  0.5176
  885MOL0     H22093  10.297   3.861   2.384  1.3592  1.0465 -0.4522
  885MOL0     H22094  10.187   3.780   2.831 -0.7787 -1.3621  1.5580
  885MOL0     H22095  10.073   3.889   2.757  1.5618  0.7076  0.8479
  885MOL0     H22096   9.926   3.700   2.661 -2.5052 -0.6339  0.9373
  885MOL0     H22097  10.040   3.594   2.746  0.8386  0.3224  2.6978
  885MOL0     H22098   9.872   3.803   2.869  2.1916 -0.7024  1.9348
  885MOL0     H22099   9.983   3.704   2.968  2.5515  0.2329 -1.1203
  885MOL0     H22100   9.863   3.501   2.869 -2.2097 -0.5248 -1.5858
  885MOL0     H22101   9.751   3.603   2.795  0.2888  2.0339 -0.6706
  885MOL0     H22102   9.684   3.490   3.023 -0.3729 -0.7681 -2.3383
  885MOL0     H22103   9.778   3.617   3.094 -1.8774 -3.2768  1.3101
  885MOL0     H22104   9.560   3.671   2.879  0.4199 -0.0323 -0.4345
  885MOL0     H22105   9.653   3.796   2.964  2.0038 -1.0425 -2.9823
  885MOL0     H22106   9.557   3.692   3.183 -0.7476 -1.1975 -1.0001
  885MOL0     H22107   9.469   3.572   3.079 -1.2945  0.6607 -0.7887
  885MOL0     H22108   9.329   3.744   2.995  1.4815  2.6669 -1.0086
  885MOL0     H22109   9.409   3.881   3.076 -0.4703  0.7826  0.1895
  885MOL0     H22110  10.367   3.912   2.815 -2.0635  0.6648  0.5111
  885MOL0     H22111  10.550   4.080   2.752  0.9832 -2.5572  0.0529
  885MOL0     H22112  10.792   4.452   2.681  3.6615 -2.5138  0.1520
  885MOL0     H22113  10.985   4.579   2.604  4.3359 -0.2408 -1.3174
  885MOL0     H22114  11.584   5.841   2.358 -0.6676  0.3648  0.1956
  885MOL0     H22115  11.435   5.951   2.217  0.1951  2.0325  0.6407
  885MOL0     H22116  11.442   6.250   1.775  0.0668 -0.1356 -2.2506
  885MOL0     H22117  11.292   6.379   1.682  2.0742  0.8335  3.1742
  885MOL0     H22118  10.992   6.235   1.474  1.1194 -0.9481  1.2175
  885MOL0     H22119  10.857   6.223   1.585  2.4658 -3.5903 -2.0730
  885MOL0     H22120  10.954   6.489   1.471 -0.9296  0.4062 -0.9365
  885MOL0     H22121  10.804   6.452   1.554 -1.4337  1.0682 -1.7928
  885MOL0     H22122  10.860   6.473   1.282  1.6598  1.6731  1.2398
  885MOL0     H22123  10.810   6.304   1.309 -0.3988  0.6670 -1.2577
  885MOL0     H22124  10.605   6.443   1.251  0.8184  1.1174 -1.1175
  885MOL0     H22125  10.643   6.546   1.380  1.5640  0.5315  0.7567
  885MOL0     H22126  10.512   6.213   1.618  0.8353  3.0893  2.0800
  885MOL0     H22127  10.978   6.117   1.781  0.2774  0.5625 -2.0980
  885MOL0     H22128  11.021   5.936   1.912 -0.2964  0.8920 -0.2659
  885MOL0     H22129  11.170   5.848   1.867  0.0257 -0.9262  0.2156
  885MOL0     H22130  11.163   5.930   2.020  0.7108 -3.9053 -0.5813
  886MOL0     O22131   1.907   1.999   2.992 -0.0304  0.0670  0.5467
  886MOL0     C22132   1.887   1.923   2.893 -0.0211 -0.6527 -0.2192
  886MOL0     O22133   1.769   1.880   2.853 -0.2838  0.5795  0.6227
  886MOL0     C22134   1.664   1.907   2.938  1.0230 -0.1915  0.3680
  886MOL0     C22135   1.644   1.854   3.065 -0.4944 -0.1759 -0.4299
  886MOL0     C22136   1.534   1.878   3.144 -0.9629  0.4136 -0.5733
  886MOL0     C22137   1.428   1.938   3.089 -0.5237  0.0604 -0.9479
  886MOL0     O22138   1.313   1.952   3.166  0.0867  0.6734  0.1304
  886MOL0     C22139   1.312   1.940   3.312 -0.3194 -0.3177  0.4010
  886MOL0     C22140   1.172   1.912   3.364  0.2669  0.1909 -0.5760
  886MOL0     C22141   1.094   2.047   3.362 -1.0326  0.1975  0.7912
  886MOL0     C22142   0.957   2.025   3.393  0.5071 -0.2890 -0.8028
  886MOL0     C22143   0.869   1.976   3.274  1.0228  1.1138  0.3200
  886MOL0     C22144   0.732   1.940   3.337  0.7050 -0.3004 -0.4462
  886MOL0     C22145   0.621   1.906   3.224  0.5530 -0.9352 -0.4457
  886MOL0     C22146   0.478   1.910   3.301 -0.3601 -0.5100 -0.0682
  886MOL0     N22147   0.368   1.876   3.208  0.0855 -1.1775 -0.2671
  886MOL0     C22148   0.345   1.948   3.095 -0.5909  0.5625  0.9745
  886MOL0     C22149   0.262   1.867   3.029  0.3943 -0.7188  0.3377
  886MOL0     C22150   0.192   1.918   2.901  0.3486  0.1756  0.4527
  886MOL0     C22151   0.236   1.859   2.772  0.5147 -0.6396  0.3228
  886MOL0     C22152   0.372   1.911   2.721 -0.1195  0.7674 -0.1561
  886MOL0     C22153   0.425   1.814   2.605 -0.1970 -1.1340 -0.4612
  886MOL0     O22154   0.567   1.829   2.601 -0.2872  0.3984 -0.2155
  886MOL0     C22155   0.638   1.740   2.528 -0.2211  0.4590 -0.3753
  886MOL0     C22156   0.608   1.714   2.398 -0.2141 -0.0727  0.3114
  886MOL0     C22157   0.681   1.615   2.315  0.1568 -0.5853 -0.1753
  886MOL0     C22158   0.649   1.582   2.169  0.1527  0.3981  0.7429
  886MOL0     C22159   0.790   1.546   2.381  0.2096  0.5693  0.2363
  886MOL0     C22160   0.871   1.440   2.322 -0.5131  1.2454 -0.4612
  886MOL0     O22161   0.946   1.468   2.213  0.1373 -0.1438  0.1981
  886MOL0     C22162   1.035   1.392   2.153  0.0951 -0.7958 -0.2855
  886MOL0     C22163   1.134   1.458   2.077 -0.0146 -0.5352  0.6054
  886MOL0     C22164   1.236   1.389   1.999  0.7032  0.0619 -0.3150
  886MOL0     C22165   1.226   1.246   1.992 -0.3412 -0.7530 -0.1402
  886MOL0     O22166   1.308   1.166   1.914 -0.0483 -0.2004  0.2849
  886MOL0     C22167   1.450   1.175   1.927  0.1868 -0.5927  0.3384
  886MOL0     C22168   1.505   1.041   1.883 -0.4864  0.4840  1.0071
  886MOL0     C22169   1.652   1.050   1.868 -1.1519  0.1522 -0.2891
  886MOL0     C22170   1.715   0.919   1.825 -0.0400  0.4281 -0.1378
  886MOL0     C22171   1.870   0.935   1.807  0.1194 -0.2394  0.0901
  886MOL0     C22172   1.950   0.813   1.776  0.2309  0.7631  0.1688
  886MOL0     C22173   1.889   0.711   1.684 -0.5890  0.3274  0.4268
  886MOL0     C22174   1.981   0.608   1.626  0.0686 -0.8953 -0.7285
  886MOL0    Cl22175   1.891   0.494   1.529 -0.4042  0.9370 -0.1010
  886MOL0     C22176   1.120   1.179   2.052  1.3299 -0.2177 -0.5776
  886MOL0     C22177   1.023   1.250   2.134  0.3216  0.4758  1.0759
  886MOL0     O22178   0.871   1.335   2.380 -0.1748  0.6469  0.2031
  886MOL0     C22179   0.818   1.586   2.517 -0.9732 -0.2458 -0.6696
  886MOL0     C22180   0.749   1.688   2.581 -0.4923 -0.7538 -0.6727
  886MOL0     N22181   0.235   1.756   3.100 -0.3033 -0.0798  0.9313
  886MOL0     N22182   0.305   1.756   3.199  0.9744 -0.0825 -0.0717
  886MOL0     C22183   1.441   1.984   2.955  0.1872  0.4780  0.1846
  886MOL0     C22184   1.559   1.971   2.887  0.2657 -0.4512  0.5430
  886MOL0     C22185   1.993   1.937   2.793 -0.0299  1.1025  0.1441
  886MOL0     C22186   1.957   1.947   2.658  0.2539 -0.0166 -0.4550
  886MOL0     C22187   2.046   1.970   2.561 -0.0728  0.0324 -0.3919
  886MOL0     C22188   2.179   1.995   2.588  0.1979  0.0962  0.0065
  886MOL0     O22189   2.289   2.016   2.506 -0.2820  0.6117  0.0044
  886MOL0     C22190   2.271   2.021   2.359 -0.4444  0.7206  0.6901
  886MOL0     C22191   2.415   2.044   2.316  0.2389  0.2203 -0.6706
  886MOL0     C22192   2.419   2.099   2.176  0.2768  0.4472 -0.2638
  886MOL0     C22193   2.338   2.003   2.075 -0.4183  0.5028 -0.2700
  886MOL0     C22194   2.347   2.054   1.937 -0.5647 -0.1915 -0.5758
  886MOL0     C22195   2.333   2.117   1.840  0.6434  0.8325  0.2543
  886MOL0     C22196   2.210   1.994   2.721  0.3095  1.0545  0.3150
  886MOL0     C22197   2.128   1.964   2.827  0.1965  0.2469  0.5579
  886MOL0     C22198   2.190   1.932   2.971  0.2483 -0.3263 -0.2342
  886MOL0     H22199   1.731   1.811   3.114 -0.3615  0.6111  0.0384
  886MOL0     H22200   1.541   1.870   3.252 -2.7356  3.2406 -0.1433
  886MOL0     H22201   1.355   2.035   3.347 -0.0819 -0.8171  1.5073
  886MOL0     H22202   1.378   1.859   3.345 -1.0919 -0.1858  2.4232
  886MOL0     H22203   1.118   1.848   3.293  1.8084 -0.0555 -1.6019
  886MOL0     H22204   1.169   1.872   3.465 -1.4175  2.4957  0.3606
  886MOL0     H22205   1.140   2.116   3.433  0.3437  0.3049 -0.1523
  886MOL0     H22206   1.098   2.084   3.259 -0.4386  0.0996  0.7725
  886MOL0     H22207   0.949   1.953   3.475 -3.0530  0.0303 -0.6806
  886MOL0     H22208   0.922   2.124   3.421 -2.7575 -0.6587 -2.9718
  886MOL0     H22209   0.905   1.894   3.211 -2.3521 -1.6330  1.6205
  886MOL0     H22210   0.853   2.064   3.210  0.7500  1.1950  0.5018
  886MOL0     H22211   0.749   1.850   3.397  3.8505  1.9972  2.5446
  886MOL0     H22212   0.696   2.010   3.414 -2.1966 -0.2284 -1.7449
  886MOL0     H22213   0.641   1.806   3.184  0.0603 -1.2300  0.0287
  886MOL0     H22214   0.634   1.980   3.145  0.4307  1.0576  1.3103
  886MOL0     H22215   0.478   1.843   3.387 -0.1235 -0.7367 -0.2414
  886MOL0     H22216   0.469   2.016   3.325  2.0496  0.1477 -1.7085
  886MOL0     H22217   0.380   2.046   3.065  0.6223  0.6175  2.4645
  886MOL0     H22218   0.201   2.027   2.890 -0.2971  0.0324 -2.1935
  886MOL0     H22219   0.086   1.895   2.912 -0.0743  1.6484 -0.2994
  886MOL0     H22220   0.237   1.749   2.771 -0.3521 -0.7526 -3.5607
  886MOL0     H22221   0.166   1.886   2.693 -0.4823 -0.7406  1.1549
  886MOL0     H22222   0.347   2.011   2.683  0.4306  1.2115  0.6149
  886MOL0     H22223   0.443   1.921   2.803  1.7916  0.6159 -1.7344
  886MOL0     H22224   0.401   1.709   2.625 -0.0964 -0.7542  1.9115
  886MOL0     H22225   0.377   1.858   2.518  1.7526  3.0485  0.3116
  886MOL0     H22226   0.521   1.770   2.363  1.4420  2.7664  0.4604
  886MOL0     H22227   0.741   1.563   2.114 -0.5775  1.7788 -1.0834
  886MOL0     H22228   0.595   1.655   2.107 -2.3404 -2.4164 -0.6363
  886MOL0     H22229   0.589   1.491   2.161  1.5778 -0.5080 -0.0561
  886MOL0     H22230   1.148   1.565   2.088  1.1013 -0.7101  1.0015
  886MOL0     H22231   1.310   1.458   1.958 -0.6549  2.4544  0.9976
  886MOL0     H22232   1.485   1.254   1.861  1.5896 -0.5656  1.0654
  886MOL0     H22233   1.481   1.201   2.029 -1.1994  1.4258  0.3018
  886MOL0     H22234   1.469   0.966   1.954  0.6405 -0.9900  0.0730
  886MOL0     H22235   1.464   1.025   1.783  1.4112  2.5710 -0.1924
  886MOL0     H22236   1.694   1.107   1.951 -0.7187  1.6750 -1.4987
  886MOL0     H22237   1.663   1.117   1.782 -0.2551  2.1629  1.3083
  886MOL0     H22238   1.654   0.901   1.736 -1.0985 -1.1785  0.8574
  886MOL0     H22239   1.681   0.838   1.890  0.4312 -0.0464 -0.4666
  886MOL0     H22240   1.883   1.015   1.733 -1.7230  0.4192  0.4162
  886MOL0     H22241   1.906   0.971   1.903 -2.9118  2.7726  0.2892
  886MOL0     H22242   1.984   0.765   1.868  2.4705 -1.1407 -1.5154
  886MOL0     H22243   2.050   0.833   1.736  0.9966 -0.8087  1.1947
  886MOL0     H22244   1.835   0.769   1.608 -0.0102 -0.8407 -0.8997
  886MOL0     H22245   1.813   0.651   1.735  2.1532 -2.2247  1.7754
  886MOL0     H22246   2.033   0.564   1.712 -0.4966  0.0019  0.1011
  886MOL0     H22247   2.060   0.648   1.563 -0.4768 -0.2445 -1.0148
  886MOL0     H22248   1.092   1.075   2.036 -4.3761  1.0613 -1.0398
  886MOL0     H22249   0.939   1.192   2.174 -1.0463  3.5173  2.9833
  886MOL0     H22250   0.905   1.544   2.567 -0.6567 -3.9128 -3.8464
  886MOL0     H22251   0.782   1.724   2.678 -1.2393 -0.2070 -0.6108
  886MOL0     H22252   1.357   2.025   2.899  0.8169 -0.7373 -1.7192
  886MOL0     H22253   1.565   2.005   2.784  0.8438 -0.5864  0.5248
  886MOL0     H22254   1.859   1.917   2.623  0.1498 -1.2460  0.8256
  886MOL0     H22255   1.997   1.960   2.464 -2.1000  1.3933  0.4194
  886MOL0     H22256   2.228   1.932   2.312 -0.4431  2.2650 -2.5095
  886MOL0     H22257   2.209   2.106   2.329 -0.2592  0.6327  0.0401
  886MOL0     H22258   2.471   1.952   2.334 -3.5400 -1.7179  2.6740
  886MOL0     H22259   2.453   2.118   2.385  0.2759  0.4345 -0.9189
  886MOL0     H22260   2.363   2.192   2.167  1.3073  1.0611 -0.5303
  886MOL0     H22261   2.522   2.104   2.139  1.2250  0.1342  2.1778
  886MOL0     H22262   2.238   1.974   2.109  1.2838 -2.9616  2.3206
  886MOL0     H22263   2.389   1.906   2.074  0.5918  0.9574  1.9745
  886MOL0     H22264   2.320   2.173   1.750  1.3974 -0.2420 -0.5540
  886MOL0     H22265   2.316   2.007   2.743  0.4931 -2.5134  2.3566
  886MOL0     H22266   2.178   1.831   3.010 -2.4298 -0.9146 -2.3137
  886MOL0     H22267   2.296   1.958   2.964  0.3119 -0.3642  0.5233
  886MOL0     H22268   2.147   1.997   3.048 -0.0600  0.1579 -0.8021
  887MOL0     O22269   8.433   0.802   9.352  0.2317  0.6177  0.0148
  887MOL0     C22270   8.375   0.712   9.288 -0.4408 -0.0788 -0.0504
  887MOL0     O22271   8.393   0.576   9.307 -0.7243 -0.4273  0.6655
  887MOL0     C22272   8.486   0.506   9.381  0.9063 -0.5734 -0.5325
  887MOL0     C22273   8.504   0.373   9.344 -1.0334  0.0476 -0.9550
  887MOL0     C22274   8.596   0.298   9.411  0.2689 -0.6204  0.6596
  887MOL0     C22275   8.662   0.341   9.527 -0.7155  0.6472 -0.0973
  887MOL0     O22276   8.739   0.258   9.604 -0.5415 -0.1581  0.2638
  887MOL0     C22277   8.711   0.116   9.597 -0.3918 -0.3484 -0.6892
  887MOL0     C22278   8.783   0.049   9.718  0.0374 -0.4752  0.7803
  887MOL0     C22279   8.935   0.068   9.722  0.8570 -0.4303  0.7148
  887MOL0     C22280   9.003  -0.041   9.813 -0.0288  0.4680  0.4545
  887MOL0     C22281   9.152  -0.054   9.797 -0.7076 -0.8811  0.3790
  887MOL0     C22282   9.226   0.083   9.788  0.5944 -0.1673  0.5176
  887MOL0     C22283   9.373   0.067   9.766  0.7110  0.5576  0.7479
  887MOL0     C22284   9.460   0.082   9.885  0.3328  0.2265  0.4148
  887MOL0     N22285   9.595   0.143   9.857 -0.3845  0.7529 -0.2851
  887MOL0     C22286   9.694   0.103   9.770  0.1239 -0.3934  0.4429
  887MOL0     C22287   9.795   0.196   9.765 -0.2721  0.0132 -0.5324
  887MOL0     C22288   9.923   0.194   9.687  0.3054 -0.6301 -0.2714
  887MOL0     C22289   9.944   0.340   9.643 -1.5494  0.0584 -0.5869
  887MOL0     C22290  10.015   0.356   9.508  1.0515  0.4336  0.0127
  887MOL0     C22291  10.091   0.492   9.483  0.3268  0.5457 -0.1006
  887MOL0     O22292  10.193   0.497   9.578 -0.2600 -0.2285 -1.2931
  887MOL0     C22293  10.290   0.588   9.550  0.6475 -0.2934  0.7496
  887MOL0     C22294  10.415   0.559   9.597  0.8613 -0.0419  0.4121
  887MOL0     C22295  10.529   0.642   9.573  0.3543 -0.1702 -0.1204
  887MOL0     C22296  10.658   0.615   9.645 -0.0575  0.5481  0.1995
  887MOL0     C22297  10.520   0.753   9.480  0.3325 -0.1783 -0.1744
  887MOL0     C22298  10.642   0.836   9.440  0.2463 -0.6927  0.2871
  887MOL0     O22299  10.769   0.786   9.440 -0.0265 -0.2198 -0.3802
  887MOL0     C22300  10.873   0.870   9.420  0.4390  1.4294  0.9371
  887MOL0     C22301  10.945   0.932   9.523  0.2779 -0.5088 -0.0980
  887MOL0     C22302  11.058   1.011   9.498  0.9261  0.5358 -0.0621
  887MOL0     C22303  11.107   1.024   9.366  0.2520  0.4768  0.1371
  887MOL0     O22304  11.221   1.101   9.347  0.1074 -0.0029 -0.1594
  887MOL0     C22305  11.231   1.199   9.238  0.4074 -0.7761  0.0972
  887MOL0     C22306  11.371   1.247   9.237  0.2415  0.3185 -0.1858
  887MOL0     C22307  11.371   1.369   9.137 -0.3432  0.9617 -0.6578
  887MOL0     C22308  11.513   1.425   9.119  0.6164  0.0335 -0.3400
  887MOL0     C22309  11.512   1.557   9.036  0.2799  0.3078  0.8495
  887MOL0     C22310  11.440   1.545   8.894 -0.6041 -0.9553 -0.3265
  887MOL0     C22311  11.292   1.563   8.882  0.7367 -1.1939  0.3794
  887MOL0     C22312  11.227   1.474   8.775 -0.2153  0.4395 -0.3266
  887MOL0    Cl22313  11.255   1.546   8.615 -0.5283 -0.7092 -0.0660
  887MOL0     C22314  11.039   0.954   9.259 -0.1351 -0.0855 -0.0247
  887MOL0     C22315  10.920   0.877   9.287 -0.3550  0.7937  0.1583
  887MOL0     O22316  10.618   0.948   9.398 -0.1493 -0.8339  0.4409
  887MOL0     C22317  10.390   0.788   9.438 -0.5596  0.6879 -0.0000
  887MOL0     C22318  10.280   0.707   9.473 -0.3505  0.2782 -0.0516
  887MOL0     N22319   9.754   0.294   9.862 -0.2238 -0.7181  0.2857
  887MOL0     N22320   9.631   0.264   9.901  0.3860 -0.6075 -0.0035
  887MOL0     C22321   8.645   0.467   9.567  0.1431 -0.5149  0.5927
  887MOL0     C22322   8.552   0.551   9.493  0.4372 -0.8374 -0.4786
  887MOL0     C22323   8.257   0.737   9.201 -0.1304  1.5265  0.0159
  887MOL0     C22324   8.174   0.626   9.158 -1.0638 -0.1980  0.3467
  887MOL0     C22325   8.057   0.650   9.078  0.0443  0.7517 -0.9637
  887MOL0     C22326   8.018   0.787   9.045  0.4058 -0.0767  0.3206
  887MOL0     O22327   7.901   0.798   8.976  0.5557 -0.6026 -0.1667
  887MOL0     C22328   7.850   0.918   8.925  0.2493  0.1105 -0.6898
  887MOL0     C22329   7.709   0.901   8.871  0.0538 -0.1869 -0.3330
  887MOL0     C22330   7.682   0.971   8.738 -0.0034 -0.0284 -0.2889
  887MOL0     C22331   7.542   0.951   8.689 -1.1160 -0.2909 -0.7966
  887MOL0     C22332   7.522   0.978   8.543  0.0081  0.1484  0.3294
  887MOL0     C22333   7.495   1.017   8.432 -0.3945 -0.3351  0.7847
  887MOL0     C22334   8.100   0.892   9.085  0.3285  0.9393  0.0921
  887MOL0     C22335   8.222   0.870   9.155  0.4370 -0.2506  0.2065
  887MOL0     C22336   8.301   0.988   9.184 -0.1503 -0.2486  0.2650
  887MOL0     H22337   8.459   0.337   9.252  1.0965  1.9674 -2.8810
  887MOL0     H22338   8.601   0.192   9.387 -0.3389 -0.6909  0.8322
  887MOL0     H22339   8.747   0.061   9.510 -0.8255 -1.0637 -0.4228
  887MOL0     H22340   8.604   0.103   9.609 -0.3186 -0.0717  0.3631
  887MOL0     H22341   8.748   0.098   9.809 -2.8624 -0.1101 -0.4130
  887MOL0     H22342   8.753  -0.056   9.724 -1.2189 -0.2143 -0.3088
  887MOL0     H22343   8.983   0.073   9.624  3.0404  3.5372  1.7724
  887MOL0     H22344   8.957   0.171   9.751  1.8639 -0.2807 -0.4945
  887MOL0     H22345   8.984  -0.010   9.916 -1.3613 -0.9450  0.6778
  887MOL0     H22346   8.951  -0.136   9.798 -1.3933  1.2962 -0.3655
  887MOL0     H22347   9.163  -0.120   9.710 -2.1115 -0.0641 -0.4745
  887MOL0     H22348   9.191  -0.108   9.884  0.0873  0.1918  0.7073
  887MOL0     H22349   9.189   0.136   9.700 -1.9619 -0.9337  1.0571
  887MOL0     H22350   9.202   0.147   9.874  0.3705  0.5782 -0.0962
  887MOL0     H22351   9.393   0.148   9.695 -0.2453 -2.5247 -3.4696
  887MOL0     H22352   9.389  -0.026   9.710 -0.7479  0.3483  0.6182
  887MOL0     H22353   9.410   0.148   9.956  0.0237  0.5012 -0.0541
  887MOL0     H22354   9.496  -0.013   9.925 -1.7588 -0.4266  0.8346
  887MOL0     H22355   9.695   0.012   9.710  0.7672 -1.4680  2.0047
  887MOL0     H22356   9.901   0.131   9.600 -3.4823  2.6484 -2.0415
  887MOL0     H22357  10.010   0.156   9.741 -0.0295  0.8659  1.4075
  887MOL0     H22358   9.852   0.400   9.636 -1.0218  0.8553 -0.8794
  887MOL0     H22359  10.007   0.383   9.722 -0.3199 -0.3905 -1.3060
  887MOL0     H22360  10.082   0.272   9.488  1.2873  0.5356  0.3604
  887MOL0     H22361   9.934   0.344   9.436 -0.2837  2.4621  1.0820
  887MOL0     H22362  10.124   0.493   9.379 -0.5937 -1.0648 -0.4500
  887MOL0     H22363  10.019   0.574   9.495 -0.5264 -0.1799 -0.0847
  887MOL0     H22364  10.414   0.471   9.660  2.9549  0.0596  0.6770
  887MOL0     H22365  10.736   0.577   9.579 -1.6697 -0.8987 -0.9775
  887MOL0     H22366  10.642   0.533   9.715 -2.6179  1.1068  0.3963
  887MOL0     H22367  10.686   0.704   9.701  1.6117  0.5757 -0.6364
  887MOL0     H22368  10.915   0.926   9.626  0.8798  2.6638  0.3406
  887MOL0     H22369  11.118   1.059   9.576  1.4705  0.9211 -0.7072
  887MOL0     H22370  11.198   1.163   9.141  0.1179 -0.9486  0.2578
  887MOL0     H22371  11.163   1.281   9.264  0.4281 -0.8610  0.4290
  887MOL0     H22372  11.403   1.275   9.338  0.0064  2.0159 -0.5523
  887MOL0     H22373  11.430   1.160   9.209 -2.0750 -1.2495 -0.4207
  887MOL0     H22374  11.303   1.452   9.162  0.2863  1.7116 -1.3858
  887MOL0     H22375  11.343   1.327   9.041  0.5517 -0.5754 -0.2669
  887MOL0     H22376  11.586   1.351   9.084 -1.4327 -2.9305  1.1387
  887MOL0     H22377  11.541   1.454   9.220 -1.2430 -1.8857  0.8375
  887MOL0     H22378  11.475   1.647   9.086 -1.9204 -1.6384  2.9966
  887MOL0     H22379  11.613   1.585   9.006  0.5441 -3.2688 -2.3491
  887MOL0     H22380  11.465   1.447   8.852 -2.7213 -1.6775 -0.0009
  887MOL0     H22381  11.495   1.616   8.832 -1.4107  0.7001  0.7863
  887MOL0     H22382  11.261   1.668   8.882 -3.7211 -2.2786  2.9652
  887MOL0     H22383  11.238   1.543   8.975  0.1642 -0.1874  0.2781
  887MOL0     H22384  11.119   1.477   8.790 -0.5852  4.1536 -2.6246
  887MOL0     H22385  11.270   1.373   8.782  0.4398  0.7139 -0.4066
  887MOL0     H22386  11.078   0.964   9.159  1.6735  1.7420  0.7833
  887MOL0     H22387  10.870   0.818   9.211  0.8204  0.9325 -0.7343
  887MOL0     H22388  10.369   0.877   9.379 -0.3823 -0.2612 -1.5778
  887MOL0     H22389  10.184   0.740   9.434 -1.9144 -2.3782  1.1800
  887MOL0     H22390   8.703   0.499   9.653 -0.1713  1.3140  0.1628
  887MOL0     H22391   8.546   0.653   9.530 -0.1343 -1.7757  2.2422
  887MOL0     H22392   8.194   0.524   9.190 -0.2532  0.8413  3.4979
  887MOL0     H22393   7.989   0.574   9.041  0.4590 -0.2672  0.2831
  887MOL0     H22394   7.838   0.982   9.013  1.8526 -1.6429  0.8954
  887MOL0     H22395   7.921   0.961   8.855  1.4652  1.5606  1.3348
  887MOL0     H22396   7.654   0.931   8.960  1.1022  3.1911 -0.6870
  887MOL0     H22397   7.689   0.794   8.855 -1.1769 -0.4037  2.1480
  887MOL0     H22398   7.699   1.079   8.737  1.1410 -0.1969 -0.2699
  887MOL0     H22399   7.736   0.924   8.656  0.0905 -4.6639  2.0640
  887MOL0     H22400   7.472   1.003   8.756  0.2990  2.2797 -1.2159
  887MOL0     H22401   7.521   0.844   8.699 -0.1758 -0.3693  0.5557
  887MOL0     H22402   7.460   1.041   8.334 -1.6311 -1.9192  0.8040
  887MOL0     H22403   8.078   0.992   9.049 -2.5334 -0.1465 -1.5497
  887MOL0     H22404   8.409   0.975   9.173 -0.3468 -1.7074 -0.1560
  887MOL0     H22405   8.269   1.078   9.129  0.8505  0.2816  0.5182
  887MOL0     H22406   8.296   1.018   9.289 -0.8637  0.4096  0.0555
  888MOL0     O22407   8.724   4.862   2.959  0.0381  0.2036  0.3495
  888MOL0     C22408   8.715   4.796   3.062 -0.3066  0.4767 -0.3901
  888MOL0     O22409   8.617   4.705   3.097  0.0610  0.2158 -0.1869
  888MOL0     C22410   8.514   4.690   3.007 -0.4810  0.0056 -0.9195
  888MOL0     C22411   8.447   4.577   3.033 -0.4552  0.5889 -0.2601
  888MOL0     C22412   8.322   4.548   2.969 -0.8461 -0.7049  0.7714
  888MOL0     C22413   8.281   4.632   2.873  0.2409  0.1615 -0.1349
  888MOL0     O22414   8.161   4.602   2.814  0.8596 -0.2116  0.2513
  888MOL0     C22415   8.082   4.707   2.747 -0.5005 -0.0976 -0.0252
  888MOL0     C22416   7.938   4.656   2.739 -0.1094  0.3607  0.2920
  888MOL0     C22417   7.868   4.603   2.877 -1.0286  0.3911 -0.1276
  888MOL0     C22418   7.826   4.719   2.973 -0.6176  0.4060  0.6410
  888MOL0     C22419   7.949   4.760   3.048 -0.1027  0.1615  0.0972
  888MOL0     C22420   7.923   4.876   3.156 -0.4034  0.3164 -0.0359
  888MOL0     C22421   7.847   4.814   3.276  0.0624  0.7450  0.3714
  888MOL0     C22422   7.776   4.927   3.352  0.4861 -0.3432 -0.5309
  888MOL0     N22423   7.660   4.991   3.282  0.4514  0.2040 -0.6044
  888MOL0     C22424   7.657   5.106   3.209  0.4550 -0.2413 -0.1911
  888MOL0     C22425   7.536   5.090   3.151 -0.1501 -1.6059 -0.0405
  888MOL0     C22426   7.479   5.207   3.083  0.8356  0.2067  0.8695
  888MOL0     C22427   7.546   5.240   2.951 -0.5719  0.5838  0.2524
  888MOL0     C22428   7.472   5.365   2.872 -0.3352  0.6189  0.5379
  888MOL0     C22429   7.330   5.335   2.825  0.1571 -0.0812 -0.3177
  888MOL0     O22430   7.263   5.458   2.790  0.1751 -0.4333  0.0641
  888MOL0     C22431   7.143   5.444   2.730  0.7660 -0.2853  0.6909
  888MOL0     C22432   7.038   5.423   2.816  0.6667  0.3718  0.2279
  888MOL0     C22433   6.903   5.421   2.771 -1.1641 -0.0660 -0.6139
  888MOL0     C22434   6.799   5.415   2.879  0.2892  0.7135 -0.2608
  888MOL0     C22435   6.876   5.441   2.627  0.3007  0.2572  0.4179
  888MOL0     C22436   6.739   5.446   2.577  0.0087 -0.8712 -0.1454
  888MOL0     O22437   6.718   5.410   2.442 -0.0855 -0.2105 -0.3114
  888MOL0     C22438   6.602   5.449   2.395 -0.2595 -0.5888  0.2395
  888MOL0     C22439   6.493   5.355   2.387  0.8145  0.4114 -0.0644
  888MOL0     C22440   6.375   5.402   2.321  1.1204  0.3831  0.2585
  888MOL0     C22441   6.364   5.525   2.250 -1.0605  0.6426  0.1912
  888MOL0     O22442   6.248   5.552   2.194  0.4570 -0.1000  0.3749
  888MOL0     C22443   6.222   5.669   2.127  0.6022  0.3393 -0.5509
  888MOL0     C22444   6.094   5.648   2.038 -0.6217  0.9294  0.2550
  888MOL0     C22445   6.037   5.781   1.981  0.5408  0.4022 -0.3383
  888MOL0     C22446   5.947   5.748   1.858  0.4387  0.4331 -0.4354
  888MOL0     C22447   5.815   5.692   1.898  0.2708 -0.3976 -0.4546
  888MOL0     C22448   5.744   5.643   1.773 -0.0033  0.0112 -1.3305
  888MOL0     C22449   5.603   5.596   1.827 -0.3876  1.6695  0.5532
  888MOL0     C22450   5.532   5.520   1.712  0.6265 -0.2790 -0.4140
  888MOL0    Cl22451   5.508   5.624   1.575 -0.1736  0.1132  0.2141
  888MOL0     C22452   6.476   5.613   2.265 -0.3999 -0.3659 -0.3761
  888MOL0     C22453   6.592   5.571   2.335  0.1654 -1.0220 -0.7498
  888MOL0     O22454   6.651   5.495   2.645  0.6285  0.0478 -0.5242
  888MOL0     C22455   6.987   5.465   2.540 -0.1442  0.0779 -0.3374
  888MOL0     C22456   7.123   5.472   2.593 -0.0052 -0.6514 -0.0958
  888MOL0     N22457   7.460   5.000   3.211  0.0308  0.1588  0.1197
  888MOL0     N22458   7.537   4.937   3.290 -0.5773  0.0927 -0.1444
  888MOL0     C22459   8.351   4.753   2.842 -0.2789 -0.6364 -0.7794
  888MOL0     C22460   8.462   4.782   2.923 -0.2243 -0.3234  0.9309
  888MOL0     C22461   8.806   4.835   3.174 -0.5086  0.1214 -0.2342
  888MOL0     C22462   8.818   4.969   3.213 -0.3245 -0.0951  0.0296
  888MOL0     C22463   8.902   5.010   3.320  0.7152 -0.3089  0.5368
  888MOL0     C22464   8.980   4.914   3.390  0.2590 -0.7195  0.5671
  888MOL0     O22465   9.080   4.967   3.472 -0.1143  0.0084  0.7427
  888MOL0     C22466   9.185   4.876   3.507  0.0376  0.3952  0.6151
  888MOL0     C22467   9.295   4.960   3.563  0.3002 -0.5221 -0.1679
  888MOL0     C22468   9.420   4.887   3.546  0.3341 -0.0420 -0.4464
  888MOL0     C22469   9.531   4.971   3.605 -0.4042 -0.0889  0.1321
  888MOL0     C22470   9.652   4.886   3.610 -0.4482 -0.0664  0.7018
  888MOL0     C22471   9.746   4.815   3.629 -0.1494  0.2239  0.0703
  888MOL0     C22472   8.962   4.781   3.352  0.0186  0.5683  1.1253
  888MOL0     C22473   8.876   4.739   3.244 -0.4376  0.0466  0.3444
  888MOL0     C22474   8.854   4.593   3.222  0.7154 -0.1068  0.0799
  888MOL0     H22475   8.482   4.511   3.113 -1.0227 -1.0741 -1.3440
  888MOL0     H22476   8.247   4.472   2.990 -0.4530 -1.4790 -0.4904
  888MOL0     H22477   8.119   4.723   2.646 -1.2290  2.8203  0.0890
  888MOL0     H22478   8.104   4.802   2.796  2.6671 -2.2100  3.0698
  888MOL0     H22479   7.867   4.734   2.711  0.6957  0.0510 -2.9373
  888MOL0     H22480   7.927   4.581   2.660 -2.5870  0.9825 -0.0385
  888MOL0     H22481   7.772   4.557   2.851 -2.1116  2.8351 -0.6906
  888MOL0     H22482   7.927   4.525   2.928  1.5118 -0.2352 -3.6525
  888MOL0     H22483   7.774   4.796   2.917 -4.1267  0.4001  3.5363
  888MOL0     H22484   7.752   4.687   3.047  0.6011  1.6767  2.5134
  888MOL0     H22485   8.018   4.802   2.973  1.7253 -2.2621  0.2968
  888MOL0     H22486   7.998   4.670   3.087  0.2493  0.7681  1.0910
  888MOL0     H22487   8.018   4.923   3.183  0.0816 -0.4539 -0.3841
  888MOL0     H22488   7.867   4.955   3.104  0.7031 -0.2467 -2.1816
  888MOL0     H22489   7.924   4.767   3.337 -0.4113 -0.5256  0.0067
  888MOL0     H22490   7.778   4.735   3.245  0.3425  1.4486 -2.3248
  888MOL0     H22491   7.737   4.894   3.449 -3.5654 -0.2417 -1.9644
  888MOL0     H22492   7.850   5.003   3.380 -0.6014  0.6678 -0.3114
  888MOL0     H22493   7.734   5.182   3.199 -0.2084  0.3846 -0.6527
  888MOL0     H22494   7.486   5.290   3.154 -1.7289 -0.9244  2.6191
  888MOL0     H22495   7.370   5.197   3.071  0.3094  1.7524  3.4784
  888MOL0     H22496   7.650   5.268   2.969 -0.3742  2.1674 -2.7064
  888MOL0     H22497   7.537   5.145   2.897  2.7546 -1.1536  2.4540
  888MOL0     H22498   7.477   5.457   2.932  1.3516  1.5562 -0.9424
  888MOL0     H22499   7.522   5.400   2.781 -0.3451 -2.8389 -0.9637
  888MOL0     H22500   7.339   5.270   2.738  0.4500  2.1971 -2.0628
  888MOL0     H22501   7.272   5.282   2.902 -0.0251  2.3170  1.2941
  888MOL0     H22502   7.052   5.415   2.923 -0.4574 -0.2295  0.3495
  888MOL0     H22503   6.838   5.365   2.968 -0.0218 -1.0142 -1.0422
  888MOL0     H22504   6.721   5.346   2.846 -0.1409  2.1339 -2.4046
  888MOL0     H22505   6.761   5.513   2.907 -0.2089  0.2003  0.9313
  888MOL0     H22506   6.501   5.260   2.438  3.6219 -0.7695 -2.4269
  888MOL0     H22507   6.300   5.324   2.334  2.9383 -1.2126  1.8590
  888MOL0     H22508   6.201   5.749   2.198  1.2950  0.8749 -0.9340
  888MOL0     H22509   6.312   5.701   2.073  0.3418  1.9911 -0.0668
  888MOL0     H22510   6.135   5.600   1.948 -0.2542  2.0426 -0.1975
  888MOL0     H22511   6.018   5.584   2.083 -0.7557  1.2975  0.5505
  888MOL0     H22512   6.116   5.844   1.940  1.2685  0.7248  1.4379
  888MOL0     H22513   5.973   5.827   2.058 -0.8708  0.3660 -1.4532
  888MOL0     H22514   6.001   5.681   1.790  0.1376 -0.0293 -0.2323
  888MOL0     H22515   5.922   5.835   1.797 -5.1342 -0.4178  0.0706
  888MOL0     H22516   5.830   5.620   1.979  2.4383  1.7433  1.1942
  888MOL0     H22517   5.760   5.775   1.943 -0.3314 -1.9402  1.7931
  888MOL0     H22518   5.796   5.564   1.718 -0.8793 -0.2186 -1.8439
  888MOL0     H22519   5.744   5.722   1.698  2.8160 -0.5006 -2.0006
  888MOL0     H22520   5.544   5.687   1.848 -2.9335  0.4301 -0.7332
  888MOL0     H22521   5.603   5.528   1.912  2.0163  1.7337  0.6795
  888MOL0     H22522   5.435   5.482   1.746  1.5499 -0.2013  2.5517
  888MOL0     H22523   5.593   5.433   1.687 -1.7382 -1.9991 -0.5877
  888MOL0     H22524   6.475   5.712   2.222  0.9276 -1.0557 -2.1334
  888MOL0     H22525   6.677   5.637   2.349 -0.2144 -1.0519  2.4433
  888MOL0     H22526   6.970   5.479   2.434 -1.0460  0.8832 -0.0989
  888MOL0     H22527   7.213   5.490   2.534  0.7118  0.2406  1.2066
  888MOL0     H22528   8.315   4.827   2.772 -2.3226 -0.8783 -0.0461
  888MOL0     H22529   8.493   4.886   2.918  0.5501 -0.5373  1.2135
  888MOL0     H22530   8.761   5.048   3.166 -0.1802  1.5187  2.3961
  888MOL0     H22531   8.919   5.115   3.342  0.9432 -0.5850  1.7854
  888MOL0     H22532   9.141   4.800   3.572 -1.6303 -0.3315 -1.2650
  888MOL0     H22533   9.214   4.822   3.417 -1.2407  1.0535 -0.2297
  888MOL0     H22534   9.292   4.987   3.669 -0.3823  4.0494 -1.1502
  888MOL0     H22535   9.297   5.058   3.515  4.8620 -0.4463 -0.2496
  888MOL0     H22536   9.410   4.798   3.610  0.2965 -0.4283 -0.9838
  888MOL0     H22537   9.440   4.863   3.441 -0.3817  1.3351 -0.9213
  888MOL0     H22538   9.498   5.009   3.701 -1.3929 -1.1487  0.2419
  888MOL0     H22539   9.551   5.050   3.532  0.7846  0.6312  1.2055
  888MOL0     H22540   9.813   4.731   3.634 -2.4852 -1.6700  1.7641
  888MOL0     H22541   9.004   4.700   3.411 -1.7038 -0.8621  0.4769
  888MOL0     H22542   8.937   4.544   3.274  0.0247 -0.8805  0.4841
  888MOL0     H22543   8.762   4.547   3.259 -0.1036  0.3147 -1.3813
  888MOL0     H22544   8.860   4.561   3.118 -3.4713  2.2803 -1.1252
  889MOL0     O22545   6.381  10.729  10.915 -0.1003 -0.0723 -0.7118
  889MOL0     C22546   6.276  10.752  10.980 -0.9020  0.7603  0.6125
  889MOL0     O22547   6.253  10.827  11.096 -1.0122  0.3657 -0.3051
  889MOL0     C22548   6.371  10.850  11.163 -0.1538  0.2424 -0.6897
  889MOL0     C22549   6.436  10.976  11.155 -0.4823  1.3072  0.1187
  889MOL0     C22550   6.553  10.997  11.225 -0.1157  0.2823 -0.8756
  889MOL0     C22551   6.608  10.898  11.311  0.5653  0.5580 -0.5842
  889MOL0     O22552   6.721  10.917  11.373 -0.0804 -1.1215 -0.9631
  889MOL0     C22553   6.828  10.955  11.284 -0.1445 -0.6019  0.0083
  889MOL0     C22554   6.969  10.926  11.336  0.2755  0.9458 -0.4836
  889MOL0     C22555   6.994  10.772  11.323 -0.4198 -0.5307  0.4372
  889MOL0     C22556   7.132  10.735  11.381 -0.1638  0.6518  0.4715
  889MOL0     C22557   7.159  10.587  11.353 -0.1508 -0.0868  0.1290
  889MOL0     C22558   7.296  10.541  11.395  0.1276  0.2606  0.2625
  889MOL0     C22559   7.310  10.390  11.388  0.3734  0.0643 -0.2793
  889MOL0     C22560   7.456  10.334  11.394  0.0105  0.9324 -1.0694
  889MOL0     N22561   7.500  10.271  11.266  0.1352 -0.1171 -0.8520
  889MOL0     C22562   7.449  10.156  11.215  0.9549 -0.0654  0.0988
  889MOL0     C22563   7.528  10.119  11.116  0.0938 -0.2172 -0.3036
  889MOL0     C22564   7.509  10.001  11.027  0.2947  0.3422 -0.5777
  889MOL0     C22565   7.554  10.023  10.885 -0.4662  0.9626 -0.5828
  889MOL0     C22566   7.521   9.905  10.805 -0.6120 -0.7805 -0.4988
  889MOL0     C22567   7.584   9.925  10.661  0.8534  0.0815 -0.0989
  889MOL0     O22568   7.723   9.967  10.672  0.3744  0.3426  0.3783
  889MOL0     C22569   7.792  10.000  10.556  0.4512  0.1496 -0.0505
  889MOL0     C22570   7.932  10.013  10.573  0.2291  0.2015  0.0936
  889MOL0     C22571   8.016  10.055  10.467 -0.0260  0.7004 -1.0229
  889MOL0     C22572   8.155  10.097  10.504  0.3883 -0.3191 -0.7424
  889MOL0     C22573   7.963  10.099  10.347 -0.4190  0.0987  0.6966
  889MOL0     C22574   8.037  10.161  10.232 -0.8102 -0.1292  0.7906
  889MOL0     O22575   8.172  10.182  10.231 -0.8947  0.2599  0.0464
  889MOL0     C22576   8.233  10.249  10.130 -0.4180  0.4711 -0.8687
  889MOL0     C22577   8.218  10.244   9.994  0.0135  0.1939  0.9716
  889MOL0     C22578   8.307  10.310   9.899  0.2487 -0.5596 -0.3213
  889MOL0     C22579   8.407  10.397   9.951 -0.2179  0.4622  0.5050
  889MOL0     O22580   8.494  10.488   9.891 -0.5158  0.2227 -0.3316
  889MOL0     C22581   8.481  10.505   9.749 -1.2684 -0.6089 -1.2563
  889MOL0     C22582   8.608  10.575   9.690 -0.3188 -0.0073  1.3345
  889MOL0     C22583   8.642  10.718   9.721 -0.2081  0.0852 -1.0754
  889MOL0     C22584   8.715  10.795   9.609  0.3578  0.4355 -0.8270
  889MOL0     C22585   8.754  10.938   9.665  0.0808  0.3990  0.3700
  889MOL0     C22586   8.802  11.038   9.554  0.8972  0.2682  0.6560
  889MOL0     C22587   8.826  11.177   9.611 -0.6576 -0.4443  0.5847
  889MOL0     C22588   8.935  11.256   9.533  0.9519 -0.0412  0.8883
  889MOL0    Cl22589   8.871  11.314   9.379 -0.4210 -0.3266  0.4462
  889MOL0     C22590   8.422  10.398  10.090 -0.3422  0.3939  0.5436
  889MOL0     C22591   8.336  10.331  10.176 -0.2002 -0.2631  0.2158
  889MOL0     O22592   7.967  10.196  10.137  0.5984 -0.6944 -0.0983
  889MOL0     C22593   7.823  10.076  10.328 -0.1209 -1.3667 -0.4892
  889MOL0     C22594   7.739  10.023  10.428 -0.0290 -0.8939 -0.7855
  889MOL0     N22595   7.646  10.190  11.121  0.1695  0.3404 -0.4559
  889MOL0     N22596   7.623  10.281  11.214 -0.5667  0.2964 -0.4149
  889MOL0     C22597   6.533  10.782  11.334 -0.7413 -1.3329 -0.2100
  889MOL0     C22598   6.424  10.752  11.253 -0.1594  0.4109  0.6510
  889MOL0     C22599   6.150  10.714  10.920 -0.8007  0.1847  0.6837
  889MOL0     C22600   6.046  10.686  11.000 -0.4317 -0.5208  0.3741
  889MOL0     C22601   5.925  10.637  10.953 -0.8310  0.3766  0.5100
  889MOL0     C22602   5.903  10.615  10.812 -0.4976  0.8823 -0.3519
  889MOL0     O22603   5.785  10.566  10.761 -0.0352  0.0053 -0.5984
  889MOL0     C22604   5.683  10.494  10.829  0.0555 -0.0071 -0.2389
  889MOL0     C22605   5.732  10.360  10.883  0.4106 -0.0166 -0.1019
  889MOL0     C22606   5.621  10.275  10.944 -0.8646  0.0686 -0.2255
  889MOL0     C22607   5.684  10.137  10.985  1.2476 -0.4323 -0.0831
  889MOL0     C22608   5.691  10.044  10.875 -0.5928  0.3787 -0.3231
  889MOL0     C22609   5.682   9.976  10.775 -0.6964  0.9160  0.6460
  889MOL0     C22610   6.001  10.666  10.728  0.5079 -0.5414 -0.4438
  889MOL0     C22611   6.125  10.705  10.773 -0.2639  0.1886  0.2765
  889MOL0     C22612   6.234  10.742  10.671 -0.1705 -0.7778  0.1196
  889MOL0     H22613   6.385  11.057  11.104 -1.1902 -0.0140 -1.3562
  889MOL0     H22614   6.584  11.101  11.216 -1.4215  0.5613 -2.9697
  889MOL0     H22615   6.822  11.062  11.264  0.3613 -0.6336 -0.3462
  889MOL0     H22616   6.824  10.902  11.188  4.2600 -1.3289  0.0354
  889MOL0     H22617   7.044  10.990  11.289  2.4275 -1.4536 -0.5815
  889MOL0     H22618   6.971  10.955  11.441 -1.8001 -0.7042  0.0939
  889MOL0     H22619   6.911  10.721  11.372  0.5702 -3.2218 -0.4882
  889MOL0     H22620   6.995  10.751  11.216  1.0591 -3.6119  0.9501
  889MOL0     H22621   7.206  10.799  11.332 -1.1627  3.2555  2.1364
  889MOL0     H22622   7.138  10.746  11.490  0.7317  1.5611  0.3468
  889MOL0     H22623   7.148  10.573  11.246 -2.4475  0.4989  0.2488
  889MOL0     H22624   7.079  10.533  11.404 -1.7666  2.2904  0.2729
  889MOL0     H22625   7.366  10.591  11.328 -2.2019  3.3630 -0.0532
  889MOL0     H22626   7.313  10.566  11.500  0.3888  0.7910  0.0945
  889MOL0     H22627   7.268  10.354  11.293  1.0852 -1.3804 -0.0709
  889MOL0     H22628   7.246  10.340  11.461 -2.8860  3.3301 -0.5752
  889MOL0     H22629   7.527  10.416  11.407 -0.4305  1.5655 -2.4584
  889MOL0     H22630   7.470  10.260  11.473 -1.8628 -1.7960 -3.0736
  889MOL0     H22631   7.348  10.120  11.231  0.5271  1.9169  2.5940
  889MOL0     H22632   7.404   9.972  11.020 -0.0685  0.8726  1.9718
  889MOL0     H22633   7.558   9.918  11.079 -1.1192  0.8274  1.6459
  889MOL0     H22634   7.506  10.114  10.848  1.6471  1.7388 -1.5441
  889MOL0     H22635   7.659  10.040  10.911 -0.0247 -1.7224 -0.2694
  889MOL0     H22636   7.558   9.815  10.856  1.6698  0.8907  1.0089
  889MOL0     H22637   7.415   9.890  10.785 -1.3795 -0.2797  2.5915
  889MOL0     H22638   7.568   9.836  10.599  1.1058 -0.8743  1.1503
  889MOL0     H22639   7.530  10.004  10.608 -3.0728 -2.2731 -0.0574
  889MOL0     H22640   7.978  10.003  10.671  0.6843 -1.1727 -0.2438
  889MOL0     H22641   8.229  10.045  10.442 -0.7979  1.1370 -3.5507
  889MOL0     H22642   8.174  10.067  10.608 -0.8784  0.4474 -0.2701
  889MOL0     H22643   8.170  10.204  10.485 -0.0737 -0.6744 -3.6183
  889MOL0     H22644   8.154  10.174   9.942 -1.3223  3.5959 -2.3498
  889MOL0     H22645   8.279  10.296   9.795 -4.8679 -1.6977  0.9377
  889MOL0     H22646   8.466  10.406   9.704  1.0820 -2.0124  0.8223
  889MOL0     H22647   8.403  10.579   9.726  0.2873  1.3972 -0.3866
  889MOL0     H22648   8.691  10.508   9.718  0.9255 -0.2962 -2.4339
  889MOL0     H22649   8.588  10.571   9.583 -2.8052  2.0076  1.6477
  889MOL0     H22650   8.686  10.732   9.821  0.7209 -0.6875 -1.3658
  889MOL0     H22651   8.547  10.771   9.731 -0.2372  0.0059 -0.9254
  889MOL0     H22652   8.647  10.808   9.524 -0.3265  0.4667 -0.2860
  889MOL0     H22653   8.806  10.748   9.572 -0.5709 -0.5694 -1.9241
  889MOL0     H22654   8.672  10.984   9.720 -0.4266  1.0873 -0.9085
  889MOL0     H22655   8.836  10.918   9.735  1.0385  1.0331 -0.5375
  889MOL0     H22656   8.715  11.039   9.488  2.0822 -2.1397 -1.0850
  889MOL0     H22657   8.885  10.990   9.502  0.0332 -0.5738  0.0065
  889MOL0     H22658   8.858  11.167   9.715  0.7559 -0.9438  0.1273
  889MOL0     H22659   8.737  11.239   9.608  0.2556  0.9577  1.5895
  889MOL0     H22660   9.019  11.190   9.510 -0.2767 -0.9780 -1.2496
  889MOL0     H22661   8.972  11.340   9.592  1.5925 -0.2179  0.7464
  889MOL0     H22662   8.509  10.450  10.131  0.0123 -0.4558  0.8966
  889MOL0     H22663   8.349  10.324  10.284  1.8897 -1.6113 -0.0516
  889MOL0     H22664   7.781  10.109  10.234 -2.6426  1.7691  1.5264
  889MOL0     H22665   7.635  10.009  10.401  0.1055 -1.9978 -0.7656
  889MOL0     H22666   6.564  10.719  11.417  1.7532  0.1954  0.1329
  889MOL0     H22667   6.380  10.653  11.261  0.8370 -0.1024  0.0730
  889MOL0     H22668   6.062  10.690  11.107 -1.0332  0.4209  0.4369
  889MOL0     H22669   5.848  10.611  11.025 -3.7260  2.7653 -1.4315
  889MOL0     H22670   5.660  10.555  10.918 -0.8044  0.0839 -0.5155
  889MOL0     H22671   5.603  10.463  10.762  0.3662 -2.2495  0.3605
  889MOL0     H22672   5.813  10.373  10.955  1.7314 -2.7501 -0.9513
  889MOL0     H22673   5.774  10.307  10.797  1.4829 -1.2729  1.1625
  889MOL0     H22674   5.585  10.335  11.027  1.5771  1.5656 -0.1599
  889MOL0     H22675   5.541  10.267  10.869 -0.8497 -0.0880 -0.2260
  889MOL0     H22676   5.623  10.094  11.065  2.7206  2.2497  2.7227
  889MOL0     H22677   5.788  10.144  11.018  1.6654 -0.3567 -1.3560
  889MOL0     H22678   5.644   9.915  10.696 -1.3321 -1.5157  2.7048
  889MOL0     H22679   5.985  10.666  10.621 -0.0407 -1.9919 -0.3888
  889MOL0     H22680   6.196  10.722  10.571  1.0826  1.9446 -1.0093
  889MOL0     H22681   6.261  10.848  10.684 -0.5351 -0.5271 -1.0235
  889MOL0     H22682   6.318  10.674  10.688 -0.8228 -2.2323 -2.1356
  890MOL0     O22683   2.934  11.340   1.093 -0.1253  0.4664 -0.1553
  890MOL0     C22684   2.950  11.218   1.084  0.6204 -0.5298 -0.4645
  890MOL0     O22685   2.971  11.136   0.973  0.4063  0.2213 -0.8386
  890MOL0     C22686   3.015  11.208   0.863 -0.2760  0.7117 -0.7059
  890MOL0     C22687   3.118  11.310   0.874  0.5425 -0.5692 -0.4630
  890MOL0     C22688   3.180  11.359   0.754  0.0864  0.7681 -0.3818
  890MOL0     C22689   3.119  11.334   0.629  0.2050  1.3207 -0.7961
  890MOL0     O22690   3.154  11.396   0.515 -0.2310  0.4243  0.4996
  890MOL0     C22691   3.211  11.527   0.532  0.3280 -0.2949 -0.5630
  890MOL0     C22692   3.216  11.622   0.412  0.5461  0.5458 -0.8181
  890MOL0     C22693   3.300  11.583   0.292 -0.3548 -0.0834 -0.8029
  890MOL0     C22694   3.441  11.609   0.344  0.1668 -0.6492  0.2138
  890MOL0     C22695   3.522  11.472   0.347 -0.1564 -0.9115 -0.5690
  890MOL0     C22696   3.666  11.493   0.395 -0.3709  0.5685  0.4662
  890MOL0     C22697   3.763  11.368   0.369  0.3176 -0.0641 -0.4463
  890MOL0     C22698   3.900  11.383   0.450  0.3302 -0.2225  0.4434
  890MOL0     N22699   3.962  11.517   0.421  0.0254 -0.1083  0.0182
  890MOL0     C22700   4.019  11.529   0.304 -0.8334 -0.3041 -0.5863
  890MOL0     C22701   4.041  11.667   0.284  0.1411  0.0131  0.5177
  890MOL0     C22702   4.119  11.735   0.177 -0.5837  0.7195  0.4958
  890MOL0     C22703   4.028  11.775   0.060  0.2203  0.3046 -0.8772
  890MOL0     C22704   4.095  11.845  -0.056 -0.2672  0.2264  0.3525
  890MOL0     C22705   4.209  11.764  -0.132 -0.5086  0.4472  0.1417
  890MOL0     O22706   4.156  11.647  -0.182  0.1747  0.3522  0.5022
  890MOL0     C22707   4.231  11.577  -0.278  0.5993 -0.2255 -0.9644
  890MOL0     C22708   4.334  11.617  -0.361 -0.2305  0.2812 -0.5196
  890MOL0     C22709   4.398  11.542  -0.458 -0.0603  0.7427  0.5051
  890MOL0     C22710   4.498  11.610  -0.541 -0.5280 -0.0287 -0.5843
  890MOL0     C22711   4.368  11.401  -0.456  0.0728  0.1315  0.2171
  890MOL0     C22712   4.419  11.305  -0.557  0.7390  0.1881  1.1461
  890MOL0     O22713   4.483  11.348  -0.665  0.1163 -0.1495  0.3762
  890MOL0     C22714   4.545  11.273  -0.766  0.6963 -0.6772  0.0863
  890MOL0     C22715   4.575  11.138  -0.756  1.3772  0.3247  0.2957
  890MOL0     C22716   4.634  11.066  -0.871 -0.0461  0.3483 -0.1766
  890MOL0     C22717   4.678  11.148  -0.971 -1.0110  1.1438 -0.4524
  890MOL0     O22718   4.757  11.085  -1.070  0.4927  0.0720  0.1455
  890MOL0     C22719   4.857  11.159  -1.134  0.0826 -0.5100 -0.3508
  890MOL0     C22720   4.915  11.087  -1.257 -0.2308  0.2877 -0.3675
  890MOL0     C22721   5.014  11.175  -1.331  0.3167  0.8292 -0.3325
  890MOL0     C22722   5.085  11.107  -1.448  0.9864  0.3882 -0.6212
  890MOL0     C22723   5.222  11.176  -1.484 -0.0201 -0.3704 -0.1744
  890MOL0     C22724   5.219  11.287  -1.580 -0.0330 -0.4058  0.0497
  890MOL0     C22725   5.290  11.424  -1.545  0.8981  0.3345  0.1393
  890MOL0     C22726   5.228  11.482  -1.421  0.1780  0.5355  0.4178
  890MOL0    Cl22727   5.338  11.605  -1.360  0.8303 -0.0601 -0.2294
  890MOL0     C22728   4.657  11.283  -0.968  0.0781 -0.1952  0.5220
  890MOL0     C22729   4.589  11.349  -0.869  0.3330  0.2962 -0.3824
  890MOL0     O22730   4.392  11.188  -0.527  0.1967 -0.2107  0.5073
  890MOL0     C22731   4.279  11.351  -0.365 -0.3569 -0.5133 -0.0630
  890MOL0     C22732   4.216  11.436  -0.276  0.2137 -0.7893  0.4034
  890MOL0     N22733   3.986  11.726   0.404 -0.4483 -0.4009  0.0418
  890MOL0     N22734   3.930  11.638   0.477  0.5219 -0.1089  0.1365
  890MOL0     C22735   3.006  11.244   0.622 -0.9163  0.3641  0.2681
  890MOL0     C22736   2.971  11.163   0.733  0.0341  0.7547  1.1495
  890MOL0     C22737   2.903  11.147   1.204  0.3994 -0.0936  0.3792
  890MOL0     C22738   2.779  11.074   1.199  0.0823 -0.0945  0.8200
  890MOL0     C22739   2.738  11.003   1.312  0.4206 -0.3080  0.2258
  890MOL0     C22740   2.825  10.998   1.423 -0.0665  0.2264 -0.2199
  890MOL0     O22741   2.787  10.935   1.543  0.0943  0.4320 -0.6401
  890MOL0     C22742   2.679  10.999   1.613 -0.3919  0.1855 -0.5226
  890MOL0     C22743   2.675  10.931   1.751  0.9667 -0.1316 -0.3056
  890MOL0     C22744   2.609  11.013   1.871  0.2318  0.6458 -0.4146
  890MOL0     C22745   2.464  10.997   1.857 -0.3063 -1.0270  0.4564
  890MOL0     C22746   2.402  11.070   1.969  0.6227  0.1496  0.0834
  890MOL0     C22747   2.346  11.144   2.049  0.7039 -0.1172 -0.4443
  890MOL0     C22748   2.952  11.064   1.424 -0.0742 -0.0888 -0.5738
  890MOL0     C22749   2.990  11.132   1.310 -0.1447  0.0780 -0.1865
  890MOL0     C22750   3.119  11.208   1.319 -0.0861 -0.1308  0.1336
  890MOL0     H22751   3.162  11.319   0.972  0.3959 -1.1327 -0.3421
  890MOL0     H22752   3.263  11.429   0.752 -0.0747  1.2628  3.5787
  890MOL0     H22753   3.312  11.500   0.565  0.2912  1.5137  1.2504
  890MOL0     H22754   3.157  11.586   0.607  0.0150  2.9443 -3.1121
  890MOL0     H22755   3.112  11.634   0.380  0.5144  3.1491  0.0667
  890MOL0     H22756   3.244  11.723   0.444 -0.9031  2.0149 -3.7591
  890MOL0     H22757   3.272  11.482   0.260 -1.8989  0.0349  0.0787
  890MOL0     H22758   3.278  11.657   0.214  0.9524  0.8943 -0.2791
  890MOL0     H22759   3.495  11.675   0.274  1.5111  0.1557  1.9470
  890MOL0     H22760   3.436  11.652   0.444  0.9642  0.5991 -0.2442
  890MOL0     H22761   3.519  11.418   0.252 -0.2009 -2.3571  0.2397
  890MOL0     H22762   3.480  11.414   0.429  1.5094  1.8329  2.4458
  890MOL0     H22763   3.712  11.574   0.339 -1.0267  0.0838 -0.8095
  890MOL0     H22764   3.656  11.520   0.501 -3.2166  0.6022  0.2574
  890MOL0     H22765   3.775  11.357   0.261  0.1952  0.0008 -0.4667
  890MOL0     H22766   3.713  11.284   0.418 -0.8484  1.8446  1.8692
  890MOL0     H22767   3.887  11.384   0.558  3.3531  3.6352  0.9914
  890MOL0     H22768   3.964  11.300   0.420  1.3921  0.5985  0.3845
  890MOL0     H22769   4.053  11.441   0.250  0.1132 -0.5439  0.3712
  890MOL0     H22770   4.195  11.667   0.135 -2.2483 -1.7226  1.2123
  890MOL0     H22771   4.164  11.824   0.221  1.3704 -0.6500  1.4122
  890MOL0     H22772   3.983  11.681   0.026  1.6581 -1.4207  1.6700
  890MOL0     H22773   3.952  11.843   0.098  0.3513 -0.0549  0.0663
  890MOL0     H22774   4.015  11.871  -0.125  1.1568  1.1286 -1.0328
  890MOL0     H22775   4.137  11.942  -0.025 -0.4622  1.2496 -2.3135
  890MOL0     H22776   4.259  11.827  -0.206  0.0256  0.6611  0.6790
  890MOL0     H22777   4.286  11.750  -0.056  0.2750 -0.7819 -0.8298
  890MOL0     H22778   4.352  11.724  -0.363 -1.4025  0.4900 -0.8948
  890MOL0     H22779   4.557  11.684  -0.485 -1.4188 -0.5646  1.1462
  890MOL0     H22780   4.449  11.679  -0.611  1.8366  2.5522  0.1104
  890MOL0     H22781   4.570  11.547  -0.593 -0.3451  0.3715 -0.8228
  890MOL0     H22782   4.545  11.089  -0.663 -3.9544 -0.1434 -1.3641
  890MOL0     H22783   4.656  10.960  -0.863  0.9944  0.3165 -2.6055
  890MOL0     H22784   4.819  11.253  -1.173 -0.5979 -1.1287 -1.2193
  890MOL0     H22785   4.926  11.193  -1.056  1.7651 -1.0455 -1.5418
  890MOL0     H22786   4.967  10.994  -1.231  1.6025  1.1479 -0.8135
  890MOL0     H22787   4.830  11.071  -1.325 -1.3029  0.2399  0.9450
  890MOL0     H22788   5.089  11.222  -1.266 -0.4831  0.5981  0.7777
  890MOL0     H22789   4.958  11.260  -1.370 -1.7638 -1.2386 -2.0980
  890MOL0     H22790   5.011  11.100  -1.528 -0.3373 -1.7293  0.6747
  890MOL0     H22791   5.086  11.004  -1.412 -0.7946  1.2439  2.2202
  890MOL0     H22792   5.288  11.196  -1.399 -0.8381 -0.9170  0.6081
  890MOL0     H22793   5.286  11.095  -1.522  1.6723  0.3420  1.0460
  890MOL0     H22794   5.118  11.306  -1.618  0.2347  1.7809  0.2555
  890MOL0     H22795   5.279  11.256  -1.666  0.0750  0.2656 -0.1258
  890MOL0     H22796   5.280  11.491  -1.631  1.8522  1.8013  1.1200
  890MOL0     H22797   5.391  11.393  -1.518  0.5828  0.2078  1.2224
  890MOL0     H22798   5.203  11.406  -1.346 -1.1499 -1.6428 -2.0909
  890MOL0     H22799   5.135  11.525  -1.458 -0.5116 -2.4535 -1.7003
  890MOL0     H22800   4.695  11.350  -1.046 -0.8917  4.4022  3.6000
  890MOL0     H22801   4.562  11.454  -0.869 -0.3085  0.1475  0.7386
  890MOL0     H22802   4.246  11.248  -0.357 -2.5009  0.0384 -1.0877
  890MOL0     H22803   4.142  11.391  -0.211 -1.5715  0.8686 -0.4044
  890MOL0     H22804   2.964  11.228   0.524  2.5327  2.4784 -1.7401
  890MOL0     H22805   2.916  11.073   0.711  0.9132  0.8664 -2.0840
  890MOL0     H22806   2.714  11.095   1.115  0.1531 -0.6388  0.6221
  890MOL0     H22807   2.650  10.940   1.324  0.1259 -0.4108 -1.9663
  890MOL0     H22808   2.684  11.108   1.612  0.3250  0.1616 -2.2235
  890MOL0     H22809   2.586  10.968   1.564  0.4091 -0.7779 -1.4778
  890MOL0     H22810   2.779  10.913   1.779 -0.2682 -4.0604  2.7643
  890MOL0     H22811   2.632  10.831   1.735 -0.2407  0.0078  1.7579
  890MOL0     H22812   2.651  10.970   1.962  1.7097 -1.4999 -1.9949
  890MOL0     H22813   2.649  11.115   1.865  0.2024  0.6644 -0.2918
  890MOL0     H22814   2.423  10.896   1.866 -1.6087 -0.3464  3.0003
  890MOL0     H22815   2.434  11.041   1.762 -1.3402 -0.6709  0.9300
  890MOL0     H22816   2.296  11.217   2.110  0.2745 -0.2985 -0.5766
  890MOL0     H22817   3.007  11.047   1.516  0.3526 -2.0717 -1.1543
  890MOL0     H22818   3.199  11.148   1.362  1.3635  2.3396  1.1067
  890MOL0     H22819   3.143  11.246   1.219 -2.3780 -2.6259 -1.5002
  890MOL0     H22820   3.098  11.297   1.379  1.6740 -1.0227  2.1914
  891MOL0     O22821   0.575   2.077   4.740  1.2286  0.1176 -0.0828
  891MOL0     C22822   0.653   2.095   4.643 -0.9359  0.0191  0.0498
  891MOL0     O22823   0.778   2.052   4.634  0.4028 -0.2009  0.7669
  891MOL0     C22824   0.857   2.029   4.744  0.3466  0.2444 -0.3272
  891MOL0     C22825   0.979   1.957   4.723  0.4362  1.0734 -0.3774
  891MOL0     C22826   1.059   1.923   4.829 -0.3848  0.1062 -0.2868
  891MOL0     C22827   1.035   1.968   4.960 -0.1349  0.1910 -0.3413
  891MOL0     O22828   1.120   1.956   5.068  0.0044 -0.1414  0.4802
  891MOL0     C22829   1.225   1.863   5.060 -0.2518 -0.4635  0.1239
  891MOL0     C22830   1.273   1.834   5.196 -0.5491  0.3826  0.4590
  891MOL0     C22831   1.402   1.760   5.192 -0.4679  0.3294 -0.4829
  891MOL0     C22832   1.392   1.619   5.137 -0.5765  0.0299  0.0281
  891MOL0     C22833   1.522   1.538   5.135  0.5881 -0.2578 -0.3544
  891MOL0     C22834   1.567   1.492   5.276 -0.1119 -0.4871 -0.1529
  891MOL0     C22835   1.714   1.452   5.280 -0.6114  0.1444 -0.2656
  891MOL0     C22836   1.759   1.372   5.396 -0.1078  0.4417  0.5146
  891MOL0     N22837   1.901   1.329   5.406 -0.1538  0.0374  0.3471
  891MOL0     C22838   1.998   1.408   5.454 -0.8909  0.1327  1.3712
  891MOL0     C22839   2.111   1.339   5.432  0.6758 -0.1813  0.4534
  891MOL0     C22840   2.246   1.386   5.461 -0.4749 -0.2041  0.3465
  891MOL0     C22841   2.302   1.315   5.589 -0.7570 -0.1270 -0.3117
  891MOL0     C22842   2.220   1.331   5.714 -0.1041  1.2945 -0.3450
  891MOL0     C22843   2.274   1.246   5.837 -0.5694 -0.5481  0.4015
  891MOL0     O22844   2.398   1.304   5.875  1.0427  0.8617 -0.3839
  891MOL0     C22845   2.472   1.249   5.976 -0.4110  0.1694 -0.3368
  891MOL0     C22846   2.409   1.175   6.081 -0.1932  0.2854  0.4181
  891MOL0     C22847   2.489   1.104   6.178  0.9604  0.4553  0.0539
  891MOL0     C22848   2.419   1.029   6.290 -0.0881 -1.1407 -0.5240
  891MOL0     C22849   2.634   1.114   6.169 -0.3643  0.5019 -0.5774
  891MOL0     C22850   2.734   1.072   6.269  0.2819  1.7000 -0.1410
  891MOL0     O22851   2.824   1.166   6.307 -0.3275  0.1895  0.5827
  891MOL0     C22852   2.952   1.123   6.332  0.0027 -0.0120  0.2724
  891MOL0     C22853   3.002   1.118   6.462 -0.5104  0.4682 -0.4092
  891MOL0     C22854   3.140   1.088   6.471  0.7890 -0.6596  0.5255
  891MOL0     C22855   3.211   1.037   6.361  0.8794 -0.5093 -0.8764
  891MOL0     O22856   3.341   1.008   6.371  0.1928  0.2348 -0.2070
  891MOL0     C22857   3.417   1.077   6.479 -0.3289 -0.3667  0.3886
  891MOL0     C22858   3.565   1.040   6.454 -0.6077 -0.2069 -0.6868
  891MOL0     C22859   3.621   0.910   6.513 -0.7014  0.6991 -0.2939
  891MOL0     C22860   3.777   0.897   6.490  0.7520 -0.4663 -0.2467
  891MOL0     C22861   3.825   0.760   6.543 -0.2761 -0.4899  0.2357
  891MOL0     C22862   3.900   0.781   6.674 -0.7217 -0.7436  0.6748
  891MOL0     C22863   3.925   0.642   6.731  0.7483 -0.4936  1.1775
  891MOL0     C22864   3.977   0.648   6.869 -0.8435 -0.1621 -0.1243
  891MOL0    Cl22865   4.151   0.704   6.879 -0.1121  0.4371  0.0229
  891MOL0     C22866   3.154   1.032   6.238  0.6746  0.3498  0.5968
  891MOL0     C22867   3.030   1.079   6.220  0.3017 -0.6006  0.0392
  891MOL0     O22868   2.714   0.958   6.329 -0.5031  0.4679  0.5457
  891MOL0     C22869   2.684   1.199   6.071  0.5528 -0.1545 -0.4758
  891MOL0     C22870   2.605   1.265   5.980 -0.3253 -0.1014 -0.0056
  891MOL0     N22871   2.082   1.218   5.378  0.2194 -0.4525  0.2127
  891MOL0     N22872   1.955   1.201   5.383  0.3145 -0.2336 -0.5019
  891MOL0     C22873   0.916   2.037   4.981 -0.1695 -1.0542  0.1387
  891MOL0     C22874   0.833   2.065   4.876 -0.6823  0.2201  0.1214
  891MOL0     C22875   0.576   2.149   4.524 -0.4114 -0.7304 -0.1011
  891MOL0     C22876   0.452   2.203   4.539 -0.6717 -0.4244 -0.3244
  891MOL0     C22877   0.378   2.255   4.436 -0.3526  0.1662  0.8240
  891MOL0     C22878   0.426   2.275   4.304 -0.4561 -0.2856  0.4311
  891MOL0     O22879   0.356   2.336   4.200  0.1866 -0.2177  1.2099
  891MOL0     C22880   0.213   2.362   4.212 -0.8804 -0.7065  0.5565
  891MOL0     C22881   0.153   2.489   4.275 -0.2893  0.0697  0.7268
  891MOL0     C22882   0.182   2.612   4.196 -0.7913 -1.0747  0.3926
  891MOL0     C22883   0.329   2.651   4.221 -0.1615  0.3027 -0.3025
  891MOL0     C22884   0.342   2.784   4.168  0.1516 -0.0522  0.0694
  891MOL0     C22885   0.349   2.898   4.116 -0.0532  0.6144 -0.2457
  891MOL0     C22886   0.557   2.223   4.284  0.6456  0.1718 -0.5457
  891MOL0     C22887   0.629   2.156   4.390 -0.5652  0.2130 -0.2898
  891MOL0     C22888   0.771   2.111   4.360  0.4863 -0.1704  0.1943
  891MOL0     H22889   1.006   1.917   4.626  0.0018 -0.4898  0.1187
  891MOL0     H22890   1.144   1.860   4.804 -2.9545 -3.5929 -0.5632
  891MOL0     H22891   1.303   1.915   5.005 -0.5659  1.0606  1.0759
  891MOL0     H22892   1.202   1.768   5.009  2.1333 -1.2716  0.4308
  891MOL0     H22893   1.282   1.925   5.257  0.7413  0.4516  0.1910
  891MOL0     H22894   1.196   1.771   5.240 -2.1534  1.2550 -0.9486
  891MOL0     H22895   1.468   1.809   5.120  2.0596 -0.7046  1.0327
  891MOL0     H22896   1.433   1.760   5.297 -4.4266 -3.6910  1.0528
  891MOL0     H22897   1.323   1.558   5.197  2.4616 -3.3006  0.4457
  891MOL0     H22898   1.367   1.628   5.031  0.6334 -0.8283 -0.3431
  891MOL0     H22899   1.594   1.599   5.080 -0.6892  1.7834  0.0949
  891MOL0     H22900   1.503   1.447   5.078 -0.4672 -0.4090  0.2080
  891MOL0     H22901   1.545   1.581   5.335  1.3699  0.3079 -0.7376
  891MOL0     H22902   1.510   1.405   5.309 -0.0047  0.1170  1.7031
  891MOL0     H22903   1.770   1.544   5.262 -0.8389  0.3149 -0.1122
  891MOL0     H22904   1.733   1.385   5.196  1.0180  2.9179 -2.2989
  891MOL0     H22905   1.738   1.424   5.489  1.6975 -0.4577  1.4925
  891MOL0     H22906   1.712   1.273   5.395  5.2102 -2.5069  1.7090
  891MOL0     H22907   1.983   1.507   5.497 -1.4467  1.3850 -1.4642
  891MOL0     H22908   2.249   1.495   5.462 -0.6722 -0.2048  1.2673
  891MOL0     H22909   2.307   1.356   5.375 -0.7936 -0.8944  0.3513
  891MOL0     H22910   2.309   1.206   5.585  0.7147 -0.0314 -1.1234
  891MOL0     H22911   2.402   1.351   5.615 -1.4484  0.4950  1.6965
  891MOL0     H22912   2.219   1.436   5.747 -3.3263  1.8419 -1.7912
  891MOL0     H22913   2.115   1.305   5.701  0.0982  1.3125 -2.3590
  891MOL0     H22914   2.202   1.261   5.917 -1.3831  0.4429 -0.4867
  891MOL0     H22915   2.298   1.141   5.819  1.1958  0.0362 -0.9993
  891MOL0     H22916   2.301   1.160   6.089  0.0706 -2.7826 -0.4090
  891MOL0     H22917   2.384   0.930   6.259  0.9823 -1.3484 -1.0983
  891MOL0     H22918   2.335   1.097   6.310  1.6453  2.0924 -3.1333
  891MOL0     H22919   2.484   1.021   6.378  3.5467  0.0941 -2.9100
  891MOL0     H22920   2.942   1.148   6.547  0.0794 -1.2041  0.6373
  891MOL0     H22921   3.185   1.082   6.570  2.0245 -0.8583 -0.0315
  891MOL0     H22922   3.401   1.184   6.463 -1.7137 -0.6779 -0.5506
  891MOL0     H22923   3.381   1.058   6.580  1.0609  0.6725  1.1157
  891MOL0     H22924   3.564   1.048   6.345 -0.8303  0.6927 -0.6271
  891MOL0     H22925   3.637   1.118   6.477  0.1242 -0.9301 -0.4587
  891MOL0     H22926   3.562   0.829   6.470 -2.9723  0.1956  3.3199
  891MOL0     H22927   3.599   0.912   6.620 -0.0349 -2.1964 -0.0356
  891MOL0     H22928   3.834   0.981   6.529  1.6109 -1.0120 -0.2907
  891MOL0     H22929   3.799   0.900   6.383 -0.1446  0.4354 -0.4161
  891MOL0     H22930   3.746   0.686   6.558  0.9983 -2.1495 -0.8718
  891MOL0     H22931   3.894   0.716   6.470  0.5867  2.3872 -0.8067
  891MOL0     H22932   3.840   0.844   6.741  0.1967  1.7976 -0.7461
  891MOL0     H22933   3.990   0.841   6.655 -1.9308  2.0062  2.7751
  891MOL0     H22934   3.987   0.575   6.670 -1.2168  2.8869 -5.5999
  891MOL0     H22935   3.824   0.601   6.739  0.4138  0.4700  2.0232
  891MOL0     H22936   3.969   0.548   6.912  0.3010  0.5948  2.0441
  891MOL0     H22937   3.916   0.719   6.927 -0.4664  0.6162 -0.6694
  891MOL0     H22938   3.209   0.980   6.161 -1.1169 -3.5204  1.6609
  891MOL0     H22939   2.985   1.066   6.122 -2.0134  0.7529  0.8514
  891MOL0     H22940   2.788   1.229   6.079  0.3786  0.1077  1.3861
  891MOL0     H22941   2.651   1.330   5.906  2.6768 -0.4062  1.4381
  891MOL0     H22942   0.894   2.055   5.085  0.0047  0.4201 -0.0689
  891MOL0     H22943   0.740   2.112   4.907 -0.8062 -0.0590  0.1872
  891MOL0     H22944   0.403   2.203   4.636 -1.9113  3.2575 -0.7570
  891MOL0     H22945   0.281   2.303   4.446 -1.0083 -1.1924  1.1795
  891MOL0     H22946   0.186   2.361   4.106 -0.3459  0.3769  0.4000
  891MOL0     H22947   0.169   2.270   4.252 -1.7710 -0.9786 -0.9649
  891MOL0     H22948   0.186   2.480   4.379  0.0789 -0.9544  0.5254
  891MOL0     H22949   0.045   2.474   4.270 -0.4963  1.6800 -1.0106
  891MOL0     H22950   0.163   2.613   4.088 -1.3933  0.8163  0.4698
  891MOL0     H22951   0.114   2.689   4.234  1.4844  2.7002 -2.4890
  891MOL0     H22952   0.395   2.594   4.155 -2.1706  1.0631 -3.1763
  891MOL0     H22953   0.361   2.637   4.324 -0.4741  2.7343  0.1919
  891MOL0     H22954   0.352   2.988   4.059  1.9839  2.1535  2.0679
  891MOL0     H22955   0.605   2.231   4.187  1.7620 -1.1377 -0.1277
  891MOL0     H22956   0.793   2.116   4.253 -0.0528  1.6582  0.1403
  891MOL0     H22957   0.843   2.164   4.422  0.3632 -1.2659  1.3237
  891MOL0     H22958   0.773   2.004   4.384  0.4746 -0.4696 -1.0599
  892MOL0     O22959   2.451   6.214   9.901 -0.4416 -0.2153  0.3304
  892MOL0     C22960   2.408   6.108   9.931  0.0703  0.0633 -0.4463
  892MOL0     O22961   2.402   6.006   9.844 -0.2504  0.6880 -0.4700
  892MOL0     C22962   2.433   6.037   9.716 -0.6233 -0.1974 -0.2126
  892MOL0     C22963   2.568   6.023   9.673  0.5326  0.1165 -0.7298
  892MOL0     C22964   2.604   6.052   9.547 -0.7548 -0.0809 -0.4138
  892MOL0     C22965   2.515   6.088   9.449  0.3362 -0.6717  0.2683
  892MOL0     O22966   2.558   6.112   9.322  0.6838 -0.1952 -0.0049
  892MOL0     C22967   2.463   6.154   9.222 -0.6174 -0.1583  0.3851
  892MOL0     C22968   2.555   6.211   9.109 -0.7810  0.0902  0.2420
  892MOL0     C22969   2.473   6.322   9.034 -0.3110 -0.4341 -0.9612
  892MOL0     C22970   2.334   6.296   8.961  0.0933  0.6502  0.3743
  892MOL0     C22971   2.266   6.424   8.938 -0.3990  0.2381 -0.3278
  892MOL0     C22972   2.145   6.396   8.845 -0.2615 -0.6395  0.0965
  892MOL0     C22973   2.055   6.519   8.835  0.2466 -0.2295 -0.1440
  892MOL0     C22974   1.977   6.550   8.957 -0.0642 -0.0667  0.1675
  892MOL0     N22975   1.886   6.660   8.927  0.1722 -0.2893 -1.1374
  892MOL0     C22976   1.764   6.643   8.865  0.7570 -0.2493  0.1511
  892MOL0     C22977   1.716   6.773   8.849 -1.5467  0.5944  0.3687
  892MOL0     C22978   1.592   6.818   8.788  0.3482  0.5040  0.7228
  892MOL0     C22979   1.612   6.845   8.632  0.1816  0.5985 -0.5306
  892MOL0     C22980   1.695   6.975   8.609  0.4894 -0.7081  0.0500
  892MOL0     C22981   1.635   7.107   8.660 -1.0679  0.2135 -0.1272
  892MOL0     O22982   1.499   7.113   8.628 -0.1243  0.0536 -1.1423
  892MOL0     C22983   1.432   7.220   8.682  0.1352 -0.0111 -0.1625
  892MOL0     C22984   1.374   7.327   8.611 -0.2206  0.0222  0.1937
  892MOL0     C22985   1.285   7.409   8.665  0.2457 -0.1444  0.8159
  892MOL0     C22986   1.227   7.518   8.575 -1.1830  0.0629 -0.3612
  892MOL0     C22987   1.232   7.390   8.790  0.7809  0.3171 -0.5148
  892MOL0     C22988   1.125   7.471   8.847 -0.0119  0.3883 -0.1660
  892MOL0     O22989   1.033   7.390   8.916 -0.0876 -0.1028  0.0178
  892MOL0     C22990   0.897   7.399   8.911  0.4932 -1.3485 -0.2343
  892MOL0     C22991   0.833   7.340   9.024  0.6277  0.3544  0.1360
  892MOL0     C22992   0.692   7.344   9.036  0.6446  0.4257  0.8164
  892MOL0     C22993   0.613   7.412   8.942 -0.2348 -0.3684  0.8493
  892MOL0     O22994   0.481   7.426   8.970  0.4493  0.4984 -0.2934
  892MOL0     C22995   0.406   7.529   8.903 -1.0582 -0.5493  0.0988
  892MOL0     C22996   0.273   7.529   8.975 -0.0657  0.2047  0.2680
  892MOL0     C22997   0.187   7.653   8.949 -0.2060 -0.0229  0.8161
  892MOL0     C22998   0.142   7.651   8.801  0.7115  0.2051  0.3128
  892MOL0     C22999   0.079   7.791   8.769  0.1929  0.0704  0.3666
  892MOL0     C23000   0.024   7.809   8.624 -1.4125 -0.4528  0.2534
  892MOL0     C23001   0.136   7.834   8.518  0.2885 -0.8775  0.5271
  892MOL0     C23002   0.101   7.750   8.397 -0.1403  0.1423  0.2229
  892MOL0    Cl23003   0.131   7.584   8.424  0.1856 -0.4783  0.1905
  892MOL0     C23004   0.678   7.469   8.837 -0.0804 -0.6942  0.2768
  892MOL0     C23005   0.816   7.459   8.817 -0.8020 -0.3217  0.7360
  892MOL0     O23006   1.109   7.594   8.836 -0.7321 -0.4433  0.3209
  892MOL0     C23007   1.283   7.279   8.853 -0.3284  1.0670 -0.4234
  892MOL0     C23008   1.386   7.199   8.810  0.3952  0.6710  0.1983
  892MOL0     N23009   1.812   6.852   8.898  0.4755  0.8475 -0.0245
  892MOL0     N23010   1.914   6.790   8.947  0.1386 -0.1157 -0.3274
  892MOL0     C23011   2.378   6.094   9.492 -0.5859  1.1487 -0.4286
  892MOL0     C23012   2.339   6.065   9.621  0.1608  0.3952  0.1006
  892MOL0     C23013   2.350   6.083  10.069  0.1706 -0.0721 -0.0198
  892MOL0     C23014   2.395   6.172  10.166 -0.2620 -0.6950  0.2443
  892MOL0     C23015   2.340   6.175  10.297  0.4400  0.2533  0.1121
  892MOL0     C23016   2.251   6.078  10.333  1.1415 -0.1665  0.2392
  892MOL0     O23017   2.201   6.085  10.464  0.6193 -0.0092  0.8812
  892MOL0     C23018   2.056   6.096  10.470 -0.2082  0.1232 -0.3418
  892MOL0     C23019   2.006   5.999  10.575 -0.3677  0.6734 -0.2937
  892MOL0     C23020   2.027   5.842  10.546  0.6883 -0.5710 -0.3289
  892MOL0     C23021   1.910   5.770  10.476  0.2324  0.8109  1.0202
  892MOL0     C23022   1.875   5.824  10.341 -0.6551  0.0210 -0.4359
  892MOL0     C23023   1.857   5.862  10.225  1.1114 -1.0238  0.0714
  892MOL0     C23024   2.206   5.983  10.236 -0.6312  0.6068 -0.0675
  892MOL0     C23025   2.252   5.982  10.108  0.4272  0.7138 -0.5460
  892MOL0     C23026   2.194   5.880  10.007 -0.6830 -0.6843 -0.5491
  892MOL0     H23027   2.642   6.006   9.750  1.1525 -0.5726 -1.4538
  892MOL0     H23028   2.707   6.054   9.513  0.4194 -1.8538  2.5610
  892MOL0     H23029   2.397   6.237   9.248  1.5884  1.8224 -0.0119
  892MOL0     H23030   2.407   6.068   9.183 -1.1458  1.3089 -2.3096
  892MOL0     H23031   2.647   6.255   9.147 -1.4096  0.8440  0.9257
  892MOL0     H23032   2.575   6.135   9.032 -1.5170  1.4359 -1.3365
  892MOL0     H23033   2.442   6.399   9.106 -0.9377 -2.4569  1.0676
  892MOL0     H23034   2.549   6.344   8.959  1.0308  0.9377  0.7190
  892MOL0     H23035   2.352   6.247   8.865 -0.2928 -0.5732  0.8997
  892MOL0     H23036   2.271   6.222   9.012  0.1375 -0.0788 -0.5902
  892MOL0     H23037   2.336   6.489   8.885 -1.1493  1.4991  0.1822
  892MOL0     H23038   2.244   6.473   9.033  1.6843  0.5207  0.0720
  892MOL0     H23039   2.181   6.375   8.744  2.1691 -0.7950  0.9441
  892MOL0     H23040   2.080   6.313   8.874 -2.6695  0.7730 -0.8899
  892MOL0     H23041   1.985   6.501   8.753  4.1372 -1.8334 -3.4237
  892MOL0     H23042   2.127   6.598   8.815 -2.1403  2.1617  0.1347
  892MOL0     H23043   1.919   6.463   8.989  0.4638  0.1551  1.8338
  892MOL0     H23044   2.046   6.574   9.038  0.0242  0.3992 -0.0427
  892MOL0     H23045   1.725   6.544   8.848 -0.6427  0.6335 -2.1598
  892MOL0     H23046   1.541   6.901   8.838 -4.4978 -1.7903  0.1824
  892MOL0     H23047   1.509   6.748   8.800 -0.6834  1.3346 -1.1564
  892MOL0     H23048   1.659   6.755   8.591 -1.4636 -0.7962  0.4928
  892MOL0     H23049   1.510   6.849   8.593 -0.5249  1.0729  1.2855
  892MOL0     H23050   1.792   6.965   8.657 -0.2413 -0.9166  1.5516
  892MOL0     H23051   1.713   6.975   8.501 -1.4619 -2.5842 -0.3469
  892MOL0     H23052   1.652   7.107   8.768  0.1367  1.5290 -0.2867
  892MOL0     H23053   1.693   7.190   8.619  3.9690 -2.7398  0.2128
  892MOL0     H23054   1.402   7.353   8.509 -0.4491 -0.2277  0.0651
  892MOL0     H23055   1.273   7.505   8.476 -0.0232 -4.2463  0.5165
  892MOL0     H23056   1.256   7.615   8.616 -1.1303  0.2579 -0.8623
  892MOL0     H23057   1.118   7.512   8.575 -1.2451  1.0885 -0.5359
  892MOL0     H23058   0.891   7.297   9.105 -3.3522 -4.2369  1.0468
  892MOL0     H23059   0.648   7.302   9.127 -0.7462 -3.2245 -1.3086
  892MOL0     H23060   0.461   7.624   8.910  0.3931 -1.2498 -1.1984
  892MOL0     H23061   0.394   7.516   8.795  2.3656 -1.5964 -0.2844
  892MOL0     H23062   0.219   7.441   8.940  0.7556 -0.9293  1.7289
  892MOL0     H23063   0.291   7.543   9.082  1.0078  1.1408 -0.0121
  892MOL0     H23064   0.238   7.748   8.970 -1.0091  0.7409 -0.5291
  892MOL0     H23065   0.094   7.648   9.006 -2.6283 -0.3304 -2.7946
  892MOL0     H23066   0.063   7.577   8.783  1.4064 -0.5699  0.3809
  892MOL0     H23067   0.224   7.634   8.730 -2.5125 -0.7295 -3.5697
  892MOL0     H23068  -0.001   7.792   8.842  1.6820 -3.9266  2.3772
  892MOL0     H23069   0.148   7.873   8.790 -0.2512  0.6483 -0.4024
  892MOL0     H23070  -0.052   7.887   8.612 -0.0908  0.6159 -1.9021
  892MOL0     H23071  -0.020   7.714   8.594  0.9872 -1.0887 -1.6129
  892MOL0     H23072   0.228   7.798   8.564  1.0634 -0.0224 -0.3010
  892MOL0     H23073   0.155   7.938   8.490 -0.6891 -0.6211  0.7784
  892MOL0     H23074   0.168   7.781   8.317  0.2330  0.6538  0.7324
  892MOL0     H23075   0.002   7.775   8.357 -0.5516 -2.5334 -0.6481
  892MOL0     H23076   0.615   7.525   8.769 -2.1502 -1.0134  1.8496
  892MOL0     H23077   0.855   7.503   8.725 -4.3707 -1.4487 -1.4911
  892MOL0     H23078   1.256   7.256   8.956 -2.5802 -0.7580 -1.3318
  892MOL0     H23079   1.424   7.112   8.863 -0.0633  1.2226  1.4592
  892MOL0     H23080   2.298   6.120   9.423 -2.1087 -0.4622  0.6430
  892MOL0     H23081   2.234   6.068   9.648  0.2330 -0.8820  0.6016
  892MOL0     H23082   2.471   6.248  10.149 -0.8317  1.0720  4.3389
  892MOL0     H23083   2.381   6.247  10.367  3.3297  0.1561 -1.3468
  892MOL0     H23084   2.048   6.200  10.504 -2.1982 -0.0590 -0.1700
  892MOL0     H23085   2.011   6.081  10.372  1.0945  1.6640 -1.2315
  892MOL0     H23086   1.903   6.030  10.594 -0.1224  3.3409 -2.5675
  892MOL0     H23087   2.068   6.021  10.662 -0.4672 -1.5306  0.3930
  892MOL0     H23088   2.108   5.829  10.474 -0.5488  0.9273 -2.0622
  892MOL0     H23089   2.043   5.801  10.646  0.5595 -0.1112 -0.1142
  892MOL0     H23090   1.828   5.773  10.548 -0.6904  0.5242  0.0240
  892MOL0     H23091   1.940   5.666  10.457  1.2973  0.9042  2.1028
  892MOL0     H23092   1.833   5.916  10.136  2.2358  2.1032  1.5286
  892MOL0     H23093   2.128   5.913  10.266 -1.1092  1.4530  0.7146
  892MOL0     H23094   2.184   5.926   9.908 -0.5800 -2.9802 -1.6966
  892MOL0     H23095   2.264   5.798   9.987 -2.6293 -1.8773 -3.0428
  892MOL0     H23096   2.100   5.846  10.051 -1.8931  3.1578  0.1923
  893MOL0     O23097   9.492   6.556   1.500 -0.4080  0.5839 -0.5151
  893MOL0     C23098   9.486   6.443   1.547 -0.7397  0.5786 -0.4821
  893MOL0     O23099   9.553   6.337   1.493 -0.5056 -0.3430  0.2461
  893MOL0     C23100   9.644   6.361   1.393 -0.3637  0.5271  0.2145
  893MOL0     C23101   9.761   6.432   1.408 -0.0438  0.6498 -0.2872
  893MOL0     C23102   9.843   6.446   1.296 -0.3091  0.5703 -0.2283
  893MOL0     C23103   9.817   6.391   1.175  0.1428 -0.5824  0.1166
  893MOL0     O23104   9.915   6.414   1.077 -0.5794 -0.7753  0.1297
  893MOL0     C23105   9.886   6.466   0.944 -0.4089  0.3287 -0.6621
  893MOL0     C23106  10.014   6.545   0.917  0.3327 -0.4682  0.0641
  893MOL0     C23107   9.992   6.652   0.812  0.2771 -0.1683  0.1522
  893MOL0     C23108   9.956   6.600   0.668 -0.1367 -0.7775  0.5734
  893MOL0     C23109   9.915   6.712   0.575  1.0129  0.0702  0.1227
  893MOL0     C23110   9.841   6.653   0.459 -0.8809  0.8531  0.1154
  893MOL0     C23111   9.754   6.764   0.399 -0.9790 -0.3502  0.1839
  893MOL0     C23112   9.618   6.792   0.474 -0.0674 -0.0534 -0.4912
  893MOL0     N23113   9.504   6.700   0.447 -0.5538  1.0899  0.0951
  893MOL0     C23114   9.373   6.738   0.417 -0.5862  0.5830 -0.6208
  893MOL0     C23115   9.306   6.621   0.419  0.2117  0.5563  0.5007
  893MOL0     C23116   9.165   6.621   0.405 -0.9796  0.2742 -0.3575
  893MOL0     C23117   9.131   6.553   0.274  0.7205 -0.5781  0.5869
  893MOL0     C23118   8.977   6.543   0.241  0.5245  0.4162  0.9316
  893MOL0     C23119   8.910   6.438   0.332 -1.0631 -0.8904 -0.1277
  893MOL0     O23120   8.869   6.512   0.449 -0.3604  0.1550  1.0435
  893MOL0     C23121   8.813   6.433   0.540 -0.4381  0.3547  0.7235
  893MOL0     C23122   8.707   6.485   0.617 -0.1130 -0.1385  0.6392
  893MOL0     C23123   8.656   6.423   0.728  1.0892  0.5661  1.1459
  893MOL0     C23124   8.563   6.507   0.819 -0.6045 -0.2309 -0.1592
  893MOL0     C23125   8.697   6.287   0.755  0.0921 -0.3622 -0.3978
  893MOL0     C23126   8.652   6.217   0.869 -0.7019  0.4074  0.1727
  893MOL0     O23127   8.738   6.109   0.898  0.8276  0.5593  0.0987
  893MOL0     C23128   8.698   6.013   0.984  0.1869  0.2948  1.5342
  893MOL0     C23129   8.797   5.959   1.052 -0.1620 -0.0297 -0.5518
  893MOL0     C23130   8.771   5.874   1.160  0.4766 -0.4398 -0.6414
  893MOL0     C23131   8.635   5.840   1.184  0.2177  0.8290  1.0497
  893MOL0     O23132   8.580   5.758   1.289  0.0123 -0.3682 -0.0064
  893MOL0     C23133   8.482   5.812   1.370 -0.9785 -0.8808 -0.3053
  893MOL0     C23134   8.337   5.762   1.340  0.6370  0.7769 -0.9896
  893MOL0     C23135   8.281   5.640   1.406 -0.1169  0.0425 -0.0455
  893MOL0     C23136   8.149   5.583   1.361 -0.5209 -0.3857 -0.1314
  893MOL0     C23137   8.033   5.679   1.382  0.9937 -0.2092 -0.7022
  893MOL0     C23138   7.996   5.712   1.526 -0.4010  0.4189 -1.0517
  893MOL0     C23139   8.001   5.595   1.625  0.5716 -0.1991 -0.5850
  893MOL0     C23140   7.884   5.501   1.595  1.0026  0.1794  0.2757
  893MOL0    Cl23141   7.900   5.348   1.675  0.2301 -0.1132 -0.5564
  893MOL0     C23142   8.535   5.878   1.098  0.1130  0.5385  0.1377
  893MOL0     C23143   8.571   5.966   0.998 -0.4297 -0.4505 -0.8499
  893MOL0     O23144   8.548   6.252   0.925 -0.2177 -0.2359  0.8013
  893MOL0     C23145   8.780   6.223   0.659 -0.0344  0.1835 -1.1144
  893MOL0     C23146   8.845   6.295   0.564  0.4924 -0.0153  0.7040
  893MOL0     N23147   9.392   6.515   0.454  0.1745  0.3797  0.3944
  893MOL0     N23148   9.511   6.563   0.468  0.8284  0.5854  0.2267
  893MOL0     C23149   9.695   6.319   1.160  0.3115  0.8312 -0.3602
  893MOL0     C23150   9.611   6.293   1.266 -0.7805 -0.7449  0.7504
  893MOL0     C23151   9.407   6.409   1.668  0.2639 -0.1064  0.3749
  893MOL0     C23152   9.335   6.289   1.670  0.4634  0.5526 -0.5058
  893MOL0     C23153   9.268   6.251   1.786 -0.1009  0.1133  0.7083
  893MOL0     C23154   9.265   6.329   1.905 -0.4323 -1.0116 -0.1011
  893MOL0     O23155   9.214   6.305   2.036 -0.1153 -0.1831  0.4331
  893MOL0     C23156   9.145   6.182   2.039 -0.9284 -0.0625  0.1388
  893MOL0     C23157   9.007   6.195   2.000  1.2316  0.5038 -0.5239
  893MOL0     C23158   8.930   6.061   2.002  0.7600 -0.3800  0.2381
  893MOL0     C23159   8.787   6.067   2.071 -0.0447 -0.0362  0.6770
  893MOL0     C23160   8.802   6.085   2.217 -0.4077 -0.2378  0.4739
  893MOL0     C23161   8.813   6.086   2.339 -1.4695  0.2245  0.6009
  893MOL0     C23162   9.337   6.448   1.895 -0.2216  0.2821  0.2756
  893MOL0     C23163   9.400   6.497   1.775 -0.7956 -0.2838 -0.5754
  893MOL0     C23164   9.472   6.631   1.794 -0.6382  0.0237  0.2194
  893MOL0     H23165   9.774   6.469   1.510  0.7365 -3.4462  1.3054
  893MOL0     H23166   9.936   6.496   1.319 -1.6611  2.4785  1.4105
  893MOL0     H23167   9.791   6.519   0.938 -1.1319 -0.9703 -1.1289
  893MOL0     H23168   9.875   6.388   0.869  0.3840 -0.1691 -0.2812
  893MOL0     H23169  10.038   6.601   1.008  0.9356  0.5418 -0.6835
  893MOL0     H23170  10.099   6.480   0.898 -0.0450 -0.6190 -1.1988
  893MOL0     H23171   9.918   6.724   0.848 -2.3056 -2.1247 -0.9573
  893MOL0     H23172  10.086   6.708   0.806  0.5551 -0.5301  1.0133
  893MOL0     H23173  10.045   6.556   0.622  0.0803 -0.7155  0.9322
  893MOL0     H23174   9.872   6.530   0.671  0.6657 -1.9474 -1.6439
  893MOL0     H23175   9.999   6.773   0.542  1.9233 -0.0783  2.0446
  893MOL0     H23176   9.849   6.775   0.634 -1.4493 -2.8452  0.7505
  893MOL0     H23177   9.918   6.616   0.390  0.1804 -0.2117  1.7909
  893MOL0     H23178   9.778   6.565   0.470  0.7947 -0.8007 -2.3778
  893MOL0     H23179   9.734   6.724   0.300 -1.1796  3.9361 -1.7171
  893MOL0     H23180   9.809   6.859   0.394  3.2326 -2.5680  0.3403
  893MOL0     H23181   9.628   6.797   0.583 -2.8743 -2.0798 -0.0251
  893MOL0     H23182   9.572   6.884   0.439  0.0667  0.2408  0.0996
  893MOL0     H23183   9.332   6.837   0.404  1.1764  1.5184  0.5359
  893MOL0     H23184   9.121   6.722   0.402 -2.1237 -0.2256 -1.2610
  893MOL0     H23185   9.119   6.563   0.486 -2.9594  0.7291 -1.0904
  893MOL0     H23186   9.172   6.609   0.189 -0.3793  0.1592  0.5244
  893MOL0     H23187   9.168   6.450   0.274 -1.0407 -1.2600 -0.8136
  893MOL0     H23188   8.937   6.643   0.224  1.7336  0.5841 -1.3907
  893MOL0     H23189   8.974   6.501   0.140  0.4536  1.0525  0.6675
  893MOL0     H23190   8.824   6.388   0.286 -2.9643  1.8963  0.1260
  893MOL0     H23191   8.987   6.365   0.359  1.2725  0.6558 -2.1224
  893MOL0     H23192   8.668   6.583   0.591 -1.7014 -1.0757 -0.7748
  893MOL0     H23193   8.459   6.482   0.794  0.0752 -2.1989 -1.2181
  893MOL0     H23194   8.581   6.615   0.812  1.6165 -0.3832  1.8396
  893MOL0     H23195   8.579   6.493   0.926 -0.5214 -1.0754 -0.2775
  893MOL0     H23196   8.897   6.000   1.040  0.2298 -1.5816 -3.5548
  893MOL0     H23197   8.851   5.839   1.224  0.9044 -1.4931 -1.7300
  893MOL0     H23198   8.499   5.777   1.473  0.0369  0.7211  0.1025
  893MOL0     H23199   8.493   5.920   1.361  1.9938 -1.1999 -1.5210
  893MOL0     H23200   8.284   5.854   1.366  1.8331  1.2724 -0.2267
  893MOL0     H23201   8.326   5.751   1.232  0.2549 -2.8705 -0.7052
  893MOL0     H23202   8.275   5.657   1.514 -0.1570  2.5258 -0.3953
  893MOL0     H23203   8.339   5.548   1.393 -1.1015 -0.7783  1.0908
  893MOL0     H23204   8.134   5.487   1.411 -0.1192 -1.3952 -1.8789
  893MOL0     H23205   8.148   5.560   1.254  1.9856  0.8093 -0.4922
  893MOL0     H23206   8.049   5.775   1.331  0.0520  0.1998 -0.2576
  893MOL0     H23207   7.949   5.639   1.323  1.3184 -0.3647 -1.0619
  893MOL0     H23208   7.892   5.746   1.535 -0.6975 -0.9479  1.9314
  893MOL0     H23209   8.063   5.793   1.558 -1.9907  0.3899  2.9326
  893MOL0     H23210   7.994   5.629   1.729 -2.0279 -0.7014 -0.5169
  893MOL0     H23211   8.092   5.539   1.606  0.2367 -1.4970  1.3269
  893MOL0     H23212   7.881   5.484   1.487  1.4723  1.5067  0.0385
  893MOL0     H23213   7.784   5.534   1.627  0.4796 -1.3537  0.3233
  893MOL0     H23214   8.435   5.835   1.100  1.0623 -2.1772 -2.9073
  893MOL0     H23215   8.504   6.002   0.921 -0.5598 -1.1418 -1.0666
  893MOL0     H23216   8.813   6.120   0.669  0.8178  0.4169 -1.4608
  893MOL0     H23217   8.927   6.245   0.514  0.4458  1.9204 -1.4688
  893MOL0     H23218   9.652   6.283   1.067  0.9340 -2.6154  0.5609
  893MOL0     H23219   9.516   6.244   1.250 -1.7313  2.0494 -3.7465
  893MOL0     H23220   9.332   6.229   1.579 -1.2492  1.5591 -1.1546
  893MOL0     H23221   9.216   6.155   1.785  0.1060 -0.1408  3.7558
  893MOL0     H23222   9.200   6.111   1.978  1.0064  0.8056  0.7679
  893MOL0     H23223   9.149   6.144   2.142 -0.8695  1.5315  0.7710
  893MOL0     H23224   8.992   6.240   1.902 -1.9338  0.1768 -0.3157
  893MOL0     H23225   8.970   6.261   2.080  0.2848 -1.3038  0.6130
  893MOL0     H23226   8.919   6.035   1.897  2.2046  2.3735 -0.7035
  893MOL0     H23227   8.998   5.991   2.051  1.4104  0.5391  0.6851
  893MOL0     H23228   8.739   5.972   2.045  1.9711 -1.2939  1.3241
  893MOL0     H23229   8.730   6.151   2.032 -0.3973  1.6695  4.4619
  893MOL0     H23230   8.820   6.086   2.446 -2.7159 -0.5931  0.7026
  893MOL0     H23231   9.333   6.508   1.986 -2.5231  0.0572  0.3832
  893MOL0     H23232   9.466   6.690   1.703 -0.3089  0.1196  0.2588
  893MOL0     H23233   9.440   6.681   1.886 -1.4118  1.0239 -0.5732
  893MOL0     H23234   9.579   6.610   1.793  0.0740  3.0146  1.7822
  894MOL0     O23235   0.544   3.646   9.836 -0.0086 -0.0627  0.0519
  894MOL0     C23236   0.494   3.746   9.889  0.5548 -0.5855  0.0348
  894MOL0     O23237   0.516   3.879   9.848 -0.2108 -0.1428  0.2861
  894MOL0     C23238   0.635   3.916   9.790 -0.6845  0.5874 -0.2500
  894MOL0     C23239   0.756   3.852   9.831 -0.0417 -0.5256  0.1651
  894MOL0     C23240   0.872   3.888   9.773 -0.4861 -0.1294 -0.3868
  894MOL0     C23241   0.882   3.997   9.687  0.2068  1.1793  0.1703
  894MOL0     O23242   1.007   4.051   9.651 -0.0375 -0.5825 -0.1629
  894MOL0     C23243   1.120   3.966   9.671  0.4132 -0.5253  0.1270
  894MOL0     C23244   1.225   4.027   9.588  0.0082 -0.8490 -0.1344
  894MOL0     C23245   1.344   3.935   9.552 -1.4042  0.7280  0.9064
  894MOL0     C23246   1.444   4.010   9.471 -0.4403 -0.4625  0.0962
  894MOL0     C23247   1.569   3.946   9.431 -0.4142 -0.1312  0.1366
  894MOL0     C23248   1.672   3.930   9.540 -0.4460 -1.0392 -0.0840
  894MOL0     C23249   1.801   3.864   9.509 -1.1659 -0.8117  0.3759
  894MOL0     C23250   1.899   3.950   9.413  0.7038  0.1884 -0.2257
  894MOL0     N23251   1.851   3.951   9.280  0.0608  0.6894 -0.7252
  894MOL0     C23252   1.794   3.854   9.206 -0.5061 -0.8237 -0.4068
  894MOL0     C23253   1.764   3.906   9.087  0.9031  0.1703  1.1122
  894MOL0     C23254   1.728   3.831   8.967  0.5691 -0.5038  0.1435
  894MOL0     C23255   1.584   3.783   8.949  0.1806 -0.0516  0.2650
  894MOL0     C23256   1.561   3.653   9.019 -0.1926 -0.5051 -0.5911
  894MOL0     C23257   1.417   3.600   8.996  0.6218 -0.0701  0.4270
  894MOL0     O23258   1.400   3.577   8.857  0.9819 -0.1831  0.4987
  894MOL0     C23259   1.388   3.448   8.812 -0.3881  0.8971 -0.3918
  894MOL0     C23260   1.467   3.343   8.867 -0.6468  0.1967  0.2472
  894MOL0     C23261   1.466   3.218   8.823 -0.1880  0.3950 -0.8338
  894MOL0     C23262   1.568   3.120   8.882  0.5329 -0.7887  0.4792
  894MOL0     C23263   1.372   3.183   8.732  0.1049  0.7205  0.0648
  894MOL0     C23264   1.347   3.045   8.686  0.2000 -0.5671 -0.0469
  894MOL0     O23265   1.270   3.034   8.574  0.6835 -0.3231 -0.1254
  894MOL0     C23266   1.264   2.907   8.520 -0.0612 -0.6983  0.0227
  894MOL0     C23267   1.314   2.870   8.401  0.1739  0.2661  0.0285
  894MOL0     C23268   1.293   2.742   8.350 -0.2780  0.1878  0.0404
  894MOL0     C23269   1.218   2.646   8.428 -0.7251  0.2513 -0.6916
  894MOL0     O23270   1.200   2.521   8.390 -0.3759  0.5357 -0.2124
  894MOL0     C23271   1.317   2.428   8.405 -0.7269 -0.4194 -0.6274
  894MOL0     C23272   1.279   2.290   8.369 -0.0452  0.2196 -0.6276
  894MOL0     C23273   1.208   2.218   8.488  0.2443  0.5492 -0.4565
  894MOL0     C23274   1.130   2.098   8.439  0.4192 -0.3321  0.3444
  894MOL0     C23275   1.091   2.000   8.548 -0.0215 -0.2005  0.0473
  894MOL0     C23276   0.981   1.909   8.490 -0.2036 -0.3097  0.5867
  894MOL0     C23277   0.926   1.807   8.585  0.9301  1.1625  0.5370
  894MOL0     C23278   0.985   1.669   8.544  0.3102 -0.5838 -0.6225
  894MOL0    Cl23279   0.912   1.615   8.387  0.4143  0.3230 -0.2743
  894MOL0     C23280   1.162   2.682   8.549  0.0685 -0.8606 -0.4622
  894MOL0     C23281   1.178   2.817   8.587  0.3122  0.7632  0.2379
  894MOL0     O23282   1.411   2.957   8.737 -0.4104  0.2427 -0.3142
  894MOL0     C23283   1.282   3.278   8.682 -0.4101 -0.3049  0.7851
  894MOL0     C23284   1.293   3.415   8.718  0.0772  0.0975  0.0483
  894MOL0     N23285   1.790   4.036   9.085 -0.1664  0.5257 -0.9678
  894MOL0     N23286   1.852   4.065   9.200 -0.4109  0.2073 -0.4491
  894MOL0     C23287   0.761   4.061   9.654  0.7528  0.6689 -0.0098
  894MOL0     C23288   0.635   4.026   9.705  0.4484 -0.1100 -0.3786
  894MOL0     C23289   0.383   3.736   9.981  0.4407 -0.2653  0.0376
  894MOL0     C23290   0.318   3.859  10.012  0.1561 -0.1278 -0.8732
  894MOL0     C23291   0.228   3.860  10.115 -0.5191 -0.4597  0.1094
  894MOL0     C23292   0.201   3.748  10.189  1.1296  0.8650  0.0296
  894MOL0     O23293   0.102   3.768  10.283  0.3199 -0.1211  0.0505
  894MOL0     C23294   0.042   3.659  10.350  0.1644  0.1425  0.2883
  894MOL0     C23295   0.101   3.634  10.484  0.6235  0.3013 -0.5655
  894MOL0     C23296   0.032   3.503  10.555  0.4371 -0.6311 -0.0071
  894MOL0     C23297   0.141   3.410  10.624 -0.3169 -0.3784  0.3590
  894MOL0     C23298   0.082   3.271  10.643 -0.3304 -0.6262  1.2283
  894MOL0     C23299   0.032   3.162  10.653  0.0101 -1.0998 -0.5972
  894MOL0     C23300   0.263   3.625  10.152  0.0269  0.6288 -0.0172
  894MOL0     C23301   0.349   3.615  10.046  0.4967 -0.5458  0.1232
  894MOL0     C23302   0.407   3.482  10.016 -0.2134  0.7306  0.5370
  894MOL0     H23303   0.757   3.771   9.904  1.3382 -3.2976 -2.6906
  894MOL0     H23304   0.959   3.843   9.819  0.3296  0.8972 -0.9017
  894MOL0     H23305   1.104   3.877   9.608 -0.5544  2.1435 -3.7580
  894MOL0     H23306   1.145   3.937   9.773 -4.0608  1.1043  1.9039
  894MOL0     H23307   1.179   4.059   9.494  0.3271  0.9515  0.2921
  894MOL0     H23308   1.255   4.116   9.645  0.1513  0.4019 -2.0769
  894MOL0     H23309   1.385   3.889   9.642 -4.7011 -2.0956  1.2236
  894MOL0     H23310   1.298   3.854   9.494 -0.9555  1.6103 -0.7543
  894MOL0     H23311   1.392   4.057   9.387 -0.8154  1.0966  1.1566
  894MOL0     H23312   1.479   4.100   9.522 -1.1200  1.1017 -2.0703
  894MOL0     H23313   1.616   3.995   9.345  1.4030 -3.4363 -0.9345
  894MOL0     H23314   1.540   3.849   9.389  0.7889 -0.4614  0.0438
  894MOL0     H23315   1.700   4.025   9.586 -4.0218  0.8357 -1.3494
  894MOL0     H23316   1.629   3.870   9.621  0.1392 -1.2981  0.0384
  894MOL0     H23317   1.790   3.759   9.479 -0.0294 -0.0075 -3.3706
  894MOL0     H23318   1.863   3.862   9.599  0.1630  1.7669 -0.3982
  894MOL0     H23319   1.912   4.053   9.445  1.0186 -0.0119  0.3029
  894MOL0     H23320   2.000   3.908   9.423  1.8293  2.0955 -2.4768
  894MOL0     H23321   1.776   3.752   9.239 -1.5439 -0.5606 -0.1225
  894MOL0     H23322   1.809   3.759   8.956  2.0990  1.1122  0.3781
  894MOL0     H23323   1.742   3.895   8.879  0.9153  0.1894  0.6929
  894MOL0     H23324   1.509   3.858   8.977 -3.7188 -2.6554 -2.3337
  894MOL0     H23325   1.584   3.762   8.842  1.6505  0.9720  0.0276
  894MOL0     H23326   1.634   3.576   8.992 -0.4297 -0.2369 -2.1240
  894MOL0     H23327   1.559   3.668   9.127  1.2764  0.7428 -0.6989
  894MOL0     H23328   1.394   3.511   9.055 -1.3718 -0.9153 -1.4738
  894MOL0     H23329   1.344   3.680   9.012  1.3757  1.0444 -1.2994
  894MOL0     H23330   1.538   3.354   8.948 -1.5154 -0.8564  1.1976
  894MOL0     H23331   1.647   3.102   8.809  1.0705  1.5145  0.4373
  894MOL0     H23332   1.520   3.031   8.925 -0.6052 -0.8952 -0.9291
  894MOL0     H23333   1.615   3.160   8.972 -1.7347  0.1563  1.3392
  894MOL0     H23334   1.383   2.940   8.355  0.4389 -1.7443 -2.9179
  894MOL0     H23335   1.334   2.703   8.257 -2.6792 -1.8394 -0.2699
  894MOL0     H23336   1.404   2.459   8.348 -0.0561 -3.5636 -1.4991
  894MOL0     H23337   1.353   2.419   8.508 -0.9559 -0.2224 -0.5293
  894MOL0     H23338   1.210   2.291   8.285 -0.1992 -2.6535 -0.6372
  894MOL0     H23339   1.372   2.238   8.342  0.2910  0.1941  0.5080
  894MOL0     H23340   1.146   2.295   8.535  1.4074  1.7612 -0.8424
  894MOL0     H23341   1.287   2.175   8.549 -1.3683 -1.5751  0.2637
  894MOL0     H23342   1.178   2.039   8.361  1.4367  1.2167 -0.2433
  894MOL0     H23343   1.040   2.143   8.397  1.2331  0.0136 -1.0828
  894MOL0     H23344   1.176   1.935   8.572 -1.0716 -1.7141 -0.1572
  894MOL0     H23345   1.073   2.046   8.646 -2.5642  1.6868 -1.1892
  894MOL0     H23346   1.029   1.871   8.399  4.1361  2.3547  1.4641
  894MOL0     H23347   0.907   1.986   8.464 -1.0823 -1.1307  0.6218
  894MOL0     H23348   0.817   1.796   8.578  1.2047 -1.7989 -0.4351
  894MOL0     H23349   0.946   1.833   8.689 -1.3045 -1.5264  1.7807
  894MOL0     H23350   0.988   1.586   8.614  0.2670 -0.1711 -0.1254
  894MOL0     H23351   1.091   1.691   8.533  0.1903  0.5566  0.2718
  894MOL0     H23352   1.103   2.610   8.605 -0.9450  0.1768 -0.1516
  894MOL0     H23353   1.127   2.859   8.673 -0.9473 -0.3926  0.0878
  894MOL0     H23354   1.202   3.269   8.609  0.9338  1.6750 -1.0368
  894MOL0     H23355   1.234   3.490   8.667 -1.2238  0.7439  2.4052
  894MOL0     H23356   0.759   4.156   9.601 -1.5216  1.3963  1.2366
  894MOL0     H23357   0.542   4.079   9.686  0.0277 -0.7000 -0.0039
  894MOL0     H23358   0.334   3.948   9.952  1.9188  0.5428  0.4898
  894MOL0     H23359   0.177   3.954  10.138  0.5980  0.1901 -0.0120
  894MOL0     H23360  -0.065   3.681  10.350 -0.5230 -2.6541 -1.5332
  894MOL0     H23361   0.052   3.571  10.285 -2.2481 -0.1769  0.2543
  894MOL0     H23362   0.079   3.724  10.542 -1.3152 -0.8465  0.6052
  894MOL0     H23363   0.206   3.611  10.464  0.9412 -1.3561  2.4889
  894MOL0     H23364  -0.031   3.541  10.636 -1.4620 -0.9269 -1.2886
  894MOL0     H23365  -0.036   3.455  10.484  1.7077 -1.9827 -0.3652
  894MOL0     H23366   0.169   3.457  10.719 -0.6101  0.5443 -0.0010
  894MOL0     H23367   0.226   3.399  10.556 -0.0593 -2.1179  0.8986
  894MOL0     H23368  -0.018   3.070  10.676  3.0328 -2.4335  1.2807
  894MOL0     H23369   0.251   3.537  10.214  0.5849  1.3904  1.2118
  894MOL0     H23370   0.354   3.453   9.924 -0.5471  1.6360  0.4292
  894MOL0     H23371   0.509   3.473   9.978 -0.7915  3.9008 -2.2119
  894MOL0     H23372   0.387   3.414  10.099 -0.4661 -0.3774 -0.3897
  895MOL0     O23373  10.813  10.889   9.877  0.1682 -0.2534 -0.3098
  895MOL0     C23374  10.932  10.893   9.899 -0.5690 -0.4805 -0.1416
  895MOL0     O23375  11.022  10.799   9.851 -0.4251  0.0974 -0.3493
  895MOL0     C23376  10.981  10.667   9.827  1.1100  0.2807  0.6446
  895MOL0     C23377  10.870  10.601   9.892  0.3002  0.4341  0.3736
  895MOL0     C23378  10.832  10.473   9.855  0.8710  0.3527  0.4456
  895MOL0     C23379  10.904  10.405   9.762  0.4804 -0.0556  0.1121
  895MOL0     O23380  10.854  10.278   9.714  0.7158 -0.8890  0.2994
  895MOL0     C23381  10.858  10.256   9.571 -0.9142  0.8660 -0.7455
  895MOL0     C23382  10.803  10.111   9.534  0.2093 -1.0254  0.8023
  895MOL0     C23383  10.658  10.121   9.503  0.5569  0.8197  0.6203
  895MOL0     C23384  10.594   9.980   9.460  0.2293 -0.4905 -0.8115
  895MOL0     C23385  10.593   9.871   9.569 -0.3966 -0.3537  0.8263
  895MOL0     C23386  10.534   9.743   9.497 -0.1274 -0.5975 -0.3273
  895MOL0     C23387  10.544   9.634   9.597  0.0358  0.0157 -0.6497
  895MOL0     C23388  10.542   9.492   9.547  0.0082  0.0133  0.4230
  895MOL0     N23389  10.670   9.435   9.498 -0.0483  0.1884 -0.4066
  895MOL0     C23390  10.785   9.406   9.570 -0.0379  0.2814 -0.0118
  895MOL0     C23391  10.866   9.344   9.477  0.1127  0.1169  0.0841
  895MOL0     C23392  11.002   9.287   9.500 -0.3793  0.4384 -0.0140
  895MOL0     C23393  11.003   9.136   9.473  0.7581 -1.1444 -0.0942
  895MOL0     C23394  11.132   9.083   9.539 -0.5781 -0.0704  0.3260
  895MOL0     C23395  11.264   9.131   9.472  0.3753  0.0700  0.0146
  895MOL0     O23396  11.293   9.261   9.523 -0.3781  0.9436  0.0607
  895MOL0     C23397  11.409   9.322   9.490  0.5609 -0.2007  0.2100
  895MOL0     C23398  11.523   9.263   9.441  0.0683  0.5427 -0.0466
  895MOL0     C23399  11.646   9.325   9.420  0.2382 -0.5809  0.2631
  895MOL0     C23400  11.753   9.235   9.364  0.8468  0.1746  0.1654
  895MOL0     C23401  11.652   9.463   9.455  0.2752  0.3578 -0.9088
  895MOL0     C23402  11.771   9.559   9.433  0.0270 -0.0748  0.7697
  895MOL0     O23403  11.746   9.694   9.395  0.1532  0.1930 -0.2343
  895MOL0     C23404  11.853   9.771   9.386 -0.5328  0.1354  0.4470
  895MOL0     C23405  11.909   9.784   9.263 -0.1551 -0.6248 -0.0459
  895MOL0     C23406  12.027   9.861   9.249  0.6654 -0.0655  0.2528
  895MOL0     C23407  12.068   9.942   9.352  0.0906 -0.2683 -0.4462
  895MOL0     O23408  12.181  10.015   9.311  0.4974 -0.4493 -0.7272
  895MOL0     C23409  12.159  10.161   9.322  0.9025  0.4517  0.7656
  895MOL0     C23410  12.222  10.222   9.457 -1.1343 -0.1218  0.1126
  895MOL0     C23411  12.277  10.370   9.446 -0.5280 -0.3954  0.5283
  895MOL0     C23412  12.180  10.484   9.390 -0.1829 -0.3923 -0.6027
  895MOL0     C23413  12.070  10.538   9.480 -0.2508  0.7231  0.5697
  895MOL0     C23414  11.963  10.429   9.509 -0.5883  0.4391 -0.4839
  895MOL0     C23415  11.838  10.486   9.570 -0.1523 -0.1256  0.3919
  895MOL0     C23416  11.757  10.370   9.621  0.6782 -0.4623 -0.0493
  895MOL0    Cl23417  11.594  10.442   9.668  0.1813  0.2595  0.0456
  895MOL0     C23418  12.005   9.945   9.471 -0.1018 -0.5218 -0.5197
  895MOL0     C23419  11.900   9.853   9.486 -0.5348  0.3251 -0.2394
  895MOL0     O23420  11.876   9.506   9.438  0.2803  0.0467 -0.4093
  895MOL0     C23421  11.545   9.522   9.518 -0.2921 -0.2742 -0.1744
  895MOL0     C23422  11.422   9.454   9.538  0.0707  0.2321  1.5932
  895MOL0     N23423  10.805   9.345   9.347 -0.7238 -0.1623  0.7274
  895MOL0     N23424  10.692   9.404   9.364 -0.2390 -0.8819  0.3141
  895MOL0     C23425  11.020  10.454   9.704 -0.0374 -0.2649  0.0763
  895MOL0     C23426  11.063  10.579   9.745 -1.0047  0.0096  0.0833
  895MOL0     C23427  10.976  11.015   9.964 -0.7147  0.0167  0.5681
  895MOL0     C23428  10.891  11.132   9.972  0.0350  0.0652  0.8465
  895MOL0     C23429  10.924  11.243  10.047 -0.7386 -0.8919  0.2955
  895MOL0     C23430  11.053  11.250  10.100  0.4782  0.5407  0.0619
  895MOL0     O23431  11.097  11.358  10.172  0.7489  0.6348 -0.3629
  895MOL0     C23432  11.038  11.487  10.145 -0.8780  0.3412 -0.2898
  895MOL0     C23433  11.129  11.588  10.212 -0.0186  0.2131  0.1981
  895MOL0     C23434  11.085  11.723  10.178  0.4775 -1.0868  0.8333
  895MOL0     C23435  11.163  11.836  10.250 -0.0958  0.5731 -0.8434
  895MOL0     C23436  11.174  11.811  10.391 -0.9107  0.0459 -1.5807
  895MOL0     C23437  11.172  11.783  10.511 -0.7611  0.6489  0.5149
  895MOL0     C23438  11.141  11.144  10.091  0.7050 -0.1588  0.2014
  895MOL0     C23439  11.104  11.021  10.032 -0.3025 -1.0704 -0.2332
  895MOL0     C23440  11.214  10.916  10.033 -0.0284 -0.0921 -0.3340
  895MOL0     H23441  10.807  10.647   9.967 -3.0959 -1.1383 -1.2570
  895MOL0     H23442  10.751  10.433   9.914  2.8221 -1.6126  1.9639
  895MOL0     H23443  10.959  10.270   9.531 -0.7962  3.0776  0.1498
  895MOL0     H23444  10.788  10.327   9.526 -1.0067  1.5812  0.4696
  895MOL0     H23445  10.854  10.069   9.447  2.4890  1.8434  0.5785
  895MOL0     H23446  10.804  10.040   9.617  0.0222 -0.3630  1.3867
  895MOL0     H23447  10.603  10.157   9.590 -1.3916 -1.0746  0.2635
  895MOL0     H23448  10.645  10.191   9.419  2.5497  1.3573  0.6944
  895MOL0     H23449  10.489  10.005   9.445 -0.8890 -2.3043  2.8210
  895MOL0     H23450  10.638   9.945   9.367 -1.9387  0.4443 -2.2529
  895MOL0     H23451  10.537   9.890   9.660 -0.5472 -0.3967  0.7442
  895MOL0     H23452  10.697   9.855   9.599  0.5745 -0.9346 -2.3620
  895MOL0     H23453  10.429   9.750   9.470  0.3968 -1.9596 -2.9848
  895MOL0     H23454  10.583   9.716   9.404  0.6116  1.9737 -0.7858
  895MOL0     H23455  10.445   9.625   9.642  0.2927 -1.3059 -0.3034
  895MOL0     H23456  10.621   9.645   9.674  0.7520 -0.8360 -1.2235
  895MOL0     H23457  10.490   9.431   9.621 -0.8162  0.6275  0.3751
  895MOL0     H23458  10.473   9.489   9.462  0.0496 -1.5847  0.4160
  895MOL0     H23459  10.798   9.403   9.678  1.6728 -1.3329 -0.2153
  895MOL0     H23460  11.045   9.301   9.600  1.9527 -3.1816 -0.3347
  895MOL0     H23461  11.060   9.348   9.429 -1.9507  1.6402 -0.3296
  895MOL0     H23462  10.914   9.093   9.520  0.0789  1.7191  1.4820
  895MOL0     H23463  11.000   9.125   9.365 -2.5009 -1.7621 -0.0514
  895MOL0     H23464  11.146   9.090   9.647  2.5982 -1.4507  0.1314
  895MOL0     H23465  11.122   8.975   9.522 -0.8872  0.2012 -1.3461
  895MOL0     H23466  11.347   9.065   9.496  1.5359  0.5334 -2.4301
  895MOL0     H23467  11.247   9.125   9.364  1.4481 -2.3061 -0.0716
  895MOL0     H23468  11.511   9.163   9.402 -2.8008  0.4080  0.9235
  895MOL0     H23469  11.852   9.279   9.347  1.2582 -1.0270 -0.6619
  895MOL0     H23470  11.726   9.183   9.272  0.0088  1.8044 -0.5713
  895MOL0     H23471  11.776   9.155   9.434 -0.5273  0.0934  0.5519
  895MOL0     H23472  11.868   9.722   9.184 -0.8257 -0.5171  0.2087
  895MOL0     H23473  12.069   9.873   9.150 -1.8911  4.6610 -0.5577
  895MOL0     H23474  12.211  10.204   9.236  4.4929 -1.8012  1.5905
  895MOL0     H23475  12.059  10.204   9.319  0.8849  0.5002 -3.4957
  895MOL0     H23476  12.151  10.209   9.539 -0.9262 -1.1218  0.1461
  895MOL0     H23477  12.311  10.164   9.484 -1.9247 -0.3946  2.3590
  895MOL0     H23478  12.367  10.379   9.383 -1.7501  0.6087 -1.1632
  895MOL0     H23479  12.303  10.391   9.550  2.2875 -0.1938 -0.1159
  895MOL0     H23480  12.130  10.454   9.298 -0.4191  1.5064 -1.1366
  895MOL0     H23481  12.241  10.570   9.359  1.3814 -1.6300 -1.0833
  895MOL0     H23482  12.123  10.564   9.573  1.5712  1.6345 -0.6578
  895MOL0     H23483  12.018  10.621   9.431 -0.5398 -0.1684 -0.6748
  895MOL0     H23484  12.001  10.357   9.581 -2.9457  0.6204  1.0624
  895MOL0     H23485  11.928  10.375   9.420 -1.2849 -1.2211  0.7388
  895MOL0     H23486  11.776  10.537   9.495 -2.2455 -0.9833  1.4301
  895MOL0     H23487  11.851  10.554   9.655 -2.2783 -0.8070  1.3372
  895MOL0     H23488  11.813  10.331   9.708  2.3811  1.8242 -0.0273
  895MOL0     H23489  11.754  10.299   9.538  1.5046 -1.4183  0.7040
  895MOL0     H23490  12.033  10.026   9.538 -0.4677  1.4096 -2.5433
  895MOL0     H23491  11.843   9.860   9.578 -2.8521 -0.6577 -1.5298
  895MOL0     H23492  11.555   9.625   9.552 -0.7609 -0.0883 -0.5830
  895MOL0     H23493  11.340   9.511   9.582 -0.5364  0.0040  0.7856
  895MOL0     H23494  11.091  10.399   9.643  1.4870 -0.3653  1.8589
  895MOL0     H23495  11.155  10.625   9.711 -0.3666 -2.8937 -2.5284
  895MOL0     H23496  10.795  11.131   9.921 -0.2740 -0.3665  1.4236
  895MOL0     H23497  10.859  11.326  10.073 -0.0127  0.2821 -1.4774
  895MOL0     H23498  11.034  11.498  10.037 -4.1364 -0.4227 -0.3475
  895MOL0     H23499  10.940  11.501  10.192  0.0637 -1.1510  2.3281
  895MOL0     H23500  11.233  11.567  10.183 -0.5134  1.1560 -2.6042
  895MOL0     H23501  11.124  11.571  10.320 -0.8600 -1.0895 -0.0208
  895MOL0     H23502  11.107  11.734  10.072 -0.2379  0.2415  0.8057
  895MOL0     H23503  10.979  11.743  10.198  0.1789 -0.2680 -1.3341
  895MOL0     H23504  11.117  11.934  10.239  0.2552  0.5169 -3.3690
  895MOL0     H23505  11.266  11.845  10.214  1.5270 -2.3212  2.4393
  895MOL0     H23506  11.173  11.748  10.612 -0.0459 -1.8947 -0.2992
  895MOL0     H23507  11.241  11.145  10.131  1.8558 -2.9435 -2.1948
  895MOL0     H23508  11.266  10.910   9.937 -3.1356 -5.5283 -2.0834
  895MOL0     H23509  11.278  10.932  10.121 -0.2615  1.6672 -0.4432
  895MOL0     H23510  11.180  10.816  10.060 -0.3190  0.4231  1.3300
  896MOL0     O23511   9.252   2.479   9.831  0.3469  0.2068  0.3961
  896MOL0     C23512   9.176   2.384   9.845  0.2865 -0.1311  0.0339
  896MOL0     O23513   9.217   2.261   9.897  0.1002  0.3176 -0.6195
  896MOL0     C23514   9.344   2.252   9.946 -0.5119 -0.8608 -0.0541
  896MOL0     C23515   9.359   2.261  10.086  0.2157  0.7809  0.7655
  896MOL0     C23516   9.487   2.252  10.132 -0.2343  0.2457 -0.0714
  896MOL0     C23517   9.609   2.254  10.049  0.5607 -1.1655 -0.2555
  896MOL0     O23518   9.736   2.252  10.100  0.6708  0.0443  0.4707
  896MOL0     C23519   9.756   2.240  10.244  0.0754 -0.5692 -0.5771
  896MOL0     C23520   9.895   2.275  10.285 -0.6061  0.3517  0.8136
  896MOL0     C23521   9.945   2.422  10.319  0.6295  0.5821 -0.9582
  896MOL0     C23522  10.096   2.440  10.308 -0.0346  0.2472  0.0599
  896MOL0     C23523  10.145   2.582  10.329  0.8967  0.5519 -0.5300
  896MOL0     C23524  10.044   2.688  10.298 -0.1651 -0.3652  0.2035
  896MOL0     C23525  10.089   2.832  10.325  0.4614  0.7284  0.4321
  896MOL0     C23526  10.105   2.858  10.476 -0.1100  0.2487 -0.0802
  896MOL0     N23527  10.159   2.992  10.499 -0.3022  0.1135 -0.3194
  896MOL0     C23528  10.224   3.073  10.411 -0.0708 -1.4657  0.2586
  896MOL0     C23529  10.254   3.187  10.475 -0.6114 -0.5730 -0.8020
  896MOL0     C23530  10.292   3.312  10.425 -1.4833  0.4169 -0.5931
  896MOL0     C23531  10.186   3.422  10.460  0.2610  0.3849  0.3834
  896MOL0     C23532  10.208   3.562  10.394  0.0660  0.3289 -0.1796
  896MOL0     C23533  10.347   3.622  10.409  0.0570 -0.1355 -0.5602
  896MOL0     O23534  10.433   3.541  10.327 -0.4215  0.6533 -0.0072
  896MOL0     C23535  10.537   3.605  10.270  0.5341  0.3196 -0.2742
  896MOL0     C23536  10.514   3.639  10.140 -0.4270 -0.7973  0.8446
  896MOL0     C23537  10.634   3.694  10.073 -0.1995  0.9286 -0.7413
  896MOL0     C23538  10.613   3.775   9.941 -0.1474  0.4432  0.1856
  896MOL0     C23539  10.762   3.676  10.132 -0.4497 -0.5225 -0.0344
  896MOL0     C23540  10.885   3.701  10.055 -0.0174 -0.2014  1.3755
  896MOL0     O23541  10.993   3.756  10.124 -0.7024  0.4605  0.2639
  896MOL0     C23542  11.117   3.755  10.064 -0.4575 -0.2328  0.1419
  896MOL0     C23543  11.199   3.660  10.124 -0.2397  0.4629 -0.2684
  896MOL0     C23544  11.332   3.640  10.082 -0.2775  0.4248  0.6229
  896MOL0     C23545  11.370   3.700   9.959 -0.1039 -0.2722 -0.3683
  896MOL0     O23546  11.490   3.675   9.905 -0.1608 -0.0308 -0.4782
  896MOL0     C23547  11.516   3.557   9.825 -0.1477 -0.0960 -0.6197
  896MOL0     C23548  11.547   3.589   9.686 -0.4155 -0.4986  1.1713
  896MOL0     C23549  11.684   3.652   9.664 -0.0679  0.2786  0.6792
  896MOL0     C23550  11.687   3.804   9.613  0.1786  0.1325  0.0936
  896MOL0     C23551  11.832   3.856   9.578 -0.0979  0.1858  0.2007
  896MOL0     C23552  11.832   3.929   9.448 -0.0334  0.0400 -0.3980
  896MOL0     C23553  11.968   3.928   9.383  0.3296 -0.0788 -0.3857
  896MOL0     C23554  11.961   3.905   9.232 -0.2612 -1.3257 -0.2369
  896MOL0    Cl23555  12.135   3.920   9.164  0.1665  0.1805 -0.0788
  896MOL0     C23556  11.280   3.776   9.884  0.9919  0.0682  0.2935
  896MOL0     C23557  11.156   3.806   9.948 -0.0752 -0.5451  0.2692
  896MOL0     O23558  10.890   3.657   9.938 -0.2196 -0.4100  0.1643
  896MOL0     C23559  10.776   3.644  10.273 -0.0867 -0.2777 -0.1870
  896MOL0     C23560  10.659   3.602  10.333 -0.0610  0.4366  0.0841
  896MOL0     N23561  10.231   3.167  10.610  0.6829  0.7865  0.2841
  896MOL0     N23562  10.179   3.048  10.621  0.6016 -0.9764 -0.7662
  896MOL0     C23563   9.585   2.246   9.911 -0.1399 -0.9794  0.2044
  896MOL0     C23564   9.458   2.239   9.862  0.5148 -0.7129 -0.4623
  896MOL0     C23565   9.043   2.397   9.782  0.3553 -0.5854  0.2423
  896MOL0     C23566   8.947   2.299   9.817  0.1356  0.2481 -0.2831
  896MOL0     C23567   8.820   2.302   9.761  0.3138  0.0653 -1.2839
  896MOL0     C23568   8.778   2.404   9.680  0.4746  0.6148  0.9549
  896MOL0     O23569   8.648   2.396   9.631 -0.2346 -0.0217  0.1017
  896MOL0     C23570   8.583   2.508   9.572  0.7584  0.7667  0.5556
  896MOL0     C23571   8.588   2.504   9.416  0.8736 -0.1444 -0.5918
  896MOL0     C23572   8.538   2.369   9.359 -0.9063 -0.1606  0.0704
  896MOL0     C23573   8.418   2.307   9.424 -0.3096 -0.4581 -0.3474
  896MOL0     C23574   8.311   2.395   9.422  0.1018 -0.3530  0.1829
  896MOL0     C23575   8.213   2.466   9.433  0.2320  0.6474  1.4264
  896MOL0     C23576   8.877   2.497   9.637 -0.4557 -0.6247 -0.7150
  896MOL0     C23577   9.013   2.497   9.687  0.5567  0.2387  0.3336
  896MOL0     C23578   9.116   2.590   9.619  0.3612 -0.1352  0.9273
  896MOL0     H23579   9.270   2.269  10.148 -1.9303 -1.4686 -1.8055
  896MOL0     H23580   9.504   2.257  10.239  4.6986 -0.4478 -0.5698
  896MOL0     H23581   9.749   2.140  10.285  1.2190 -0.0081  1.0642
  896MOL0     H23582   9.680   2.301  10.294 -0.0358 -2.3075  1.4773
  896MOL0     H23583   9.906   2.214  10.375  1.0049 -0.3508  0.1814
  896MOL0     H23584   9.953   2.229  10.205 -1.1222 -1.2559  1.3173
  896MOL0     H23585   9.893   2.484  10.245  2.5089 -0.3008 -3.1449
  896MOL0     H23586   9.924   2.448  10.423 -1.6068 -0.9446 -0.9472
  896MOL0     H23587  10.139   2.369  10.380  1.1853  2.2677  1.4517
  896MOL0     H23588  10.124   2.410  10.207 -0.1005 -0.3596  0.2161
  896MOL0     H23589  10.235   2.597  10.270  1.0148 -1.5241 -0.9327
  896MOL0     H23590  10.176   2.593  10.433 -5.2338  2.4265  1.5546
  896MOL0     H23591  10.016   2.676  10.193  0.1946  1.2555 -0.0944
  896MOL0     H23592   9.953   2.671  10.356  1.3427 -2.3584  2.2127
  896MOL0     H23593  10.001   2.886  10.291 -1.5880 -1.1752  2.3918
  896MOL0     H23594  10.180   2.859  10.271  1.4926  1.8175  2.5913
  896MOL0     H23595  10.012   2.859  10.533 -0.5672 -0.5736 -0.7911
  896MOL0     H23596  10.179   2.796  10.529 -2.6821 -0.3490  3.1832
  896MOL0     H23597  10.205   3.068  10.304  1.8019 -1.1193 -0.1353
  896MOL0     H23598  10.314   3.305  10.318 -0.4195 -1.4902 -0.2914
  896MOL0     H23599  10.388   3.350  10.463  0.1570 -0.8783 -3.1633
  896MOL0     H23600  10.089   3.384  10.426  0.2247 -0.7289  1.6182
  896MOL0     H23601  10.181   3.428  10.570  0.5260  2.7207  0.3210
  896MOL0     H23602  10.171   3.555  10.291 -0.5576  0.4427  0.0321
  896MOL0     H23603  10.137   3.628  10.444  1.0200  0.5104  0.9710
  896MOL0     H23604  10.349   3.727  10.379  5.7774 -0.0962 -1.2910
  896MOL0     H23605  10.384   3.625  10.512  1.1777 -0.6046 -0.9218
  896MOL0     H23606  10.415   3.659  10.101  0.9004  2.8780 -1.1560
  896MOL0     H23607  10.642   3.709   9.859  0.3454 -1.2867  1.6658
  896MOL0     H23608  10.672   3.867   9.941  1.5258 -0.5802 -1.0118
  896MOL0     H23609  10.508   3.797   9.919 -1.3553 -3.0565  1.7103
  896MOL0     H23610  11.178   3.602  10.213 -1.5502 -0.8028 -1.3527
  896MOL0     H23611  11.406   3.569  10.117  2.9680  0.9956 -4.1460
  896MOL0     H23612  11.607   3.509   9.862 -1.3790 -3.2255 -1.3138
  896MOL0     H23613  11.438   3.482   9.815 -0.7695  0.3084  0.9714
  896MOL0     H23614  11.542   3.503   9.619 -1.3442  2.9329 -3.7360
  896MOL0     H23615  11.472   3.652   9.638  1.7540 -0.0976 -2.0537
  896MOL0     H23616  11.733   3.589   9.590 -1.7378  0.9388 -1.0988
  896MOL0     H23617  11.740   3.639   9.756 -0.5308  0.5182  1.0005
  896MOL0     H23618  11.655   3.874   9.691  3.1576  2.6263 -0.7478
  896MOL0     H23619  11.619   3.827   9.531 -2.4555  0.2988  2.1897
  896MOL0     H23620  11.863   3.927   9.654 -1.9548  1.0620  0.2033
  896MOL0     H23621  11.900   3.771   9.566  0.0548  0.0608  1.8109
  896MOL0     H23622  11.815   4.035   9.469 -4.3450 -0.8228  1.6745
  896MOL0     H23623  11.751   3.893   9.384 -2.0789  1.2106  1.3815
  896MOL0     H23624  12.038   3.857   9.430  1.3188  0.5303 -0.9092
  896MOL0     H23625  12.017   4.025   9.394  0.8505 -0.3523 -0.2520
  896MOL0     H23626  11.908   3.986   9.181  0.6273  0.3540  1.3784
  896MOL0     H23627  11.923   3.807   9.204 -3.2997 -0.1034 -0.8055
  896MOL0     H23628  11.304   3.805   9.782  3.5826  0.7663  1.0301
  896MOL0     H23629  11.072   3.854   9.899 -0.7666 -1.2309  0.7559
  896MOL0     H23630  10.877   3.624  10.306  1.4324 -2.3272 -5.0784
  896MOL0     H23631  10.670   3.555  10.430  0.6274 -2.2937 -1.2155
  896MOL0     H23632   9.663   2.263   9.838 -1.1062  0.3719 -0.5694
  896MOL0     H23633   9.437   2.239   9.756 -0.8986 -0.3442 -0.2051
  896MOL0     H23634   8.968   2.214   9.880 -0.8592 -0.1275 -0.4369
  896MOL0     H23635   8.749   2.226   9.792 -1.4608  0.3302 -4.3406
  896MOL0     H23636   8.476   2.504   9.595  0.1124 -1.9070 -2.1955
  896MOL0     H23637   8.623   2.600   9.615 -0.0340  2.1639 -1.5747
  896MOL0     H23638   8.687   2.526   9.375  0.3436  2.5746 -0.6048
  896MOL0     H23639   8.520   2.575   9.369 -1.1593 -0.9961  0.9349
  896MOL0     H23640   8.526   2.373   9.250  0.3486 -3.4801 -0.2959
  896MOL0     H23641   8.617   2.294   9.366  0.3094  0.8411 -1.9333
  896MOL0     H23642   8.441   2.281   9.527  0.8644 -1.5476 -0.8669
  896MOL0     H23643   8.386   2.220   9.366 -1.1842 -0.8114  0.6524
  896MOL0     H23644   8.134   2.534   9.457 -0.6456 -0.0965  0.7064
  896MOL0     H23645   8.852   2.571   9.562 -1.1979 -1.4236 -1.2725
  896MOL0     H23646   9.207   2.532   9.604 -0.9456 -1.5692 -2.6233
  896MOL0     H23647   9.079   2.620   9.520  0.0295  0.4167  1.2071
  896MOL0     H23648   9.155   2.675   9.676  2.5446 -1.1695  1.0640
  897MOL0     O23649  10.029   0.344   3.451 -0.4519  0.0039  0.0710
  897MOL0     C23650  10.103   0.358   3.353 -0.0621 -0.4892 -0.3299
  897MOL0     O23651  10.181   0.468   3.327 -0.0352  0.3399 -0.0355
  897MOL0     C23652  10.184   0.556   3.429  0.6285  0.2525  1.0953
  897MOL0     C23653  10.161   0.694   3.392  0.4422  0.5575 -0.5496
  897MOL0     C23654  10.171   0.794   3.487 -0.7994 -0.4887 -0.2088
  897MOL0     C23655  10.221   0.777   3.611 -0.0166  1.0061  0.0447
  897MOL0     O23656  10.235   0.882   3.695  0.2050 -0.5165  0.1555
  897MOL0     C23657  10.253   0.853   3.835 -0.7117  0.8671  0.2811
  897MOL0     C23658  10.238   0.968   3.926 -0.8412  0.2680  0.4486
  897MOL0     C23659  10.348   1.073   3.905 -0.2188 -1.3783 -0.0572
  897MOL0     C23660  10.334   1.160   3.780 -0.4612  0.1471  0.1632
  897MOL0     C23661  10.459   1.247   3.770  0.8229 -0.1889  0.2799
  897MOL0     C23662  10.456   1.335   3.647  0.5315  1.2380  0.2839
  897MOL0     C23663  10.325   1.425   3.615  0.7073 -0.6110 -0.5107
  897MOL0     C23664  10.329   1.485   3.470 -0.8196  0.4845 -0.5467
  897MOL0     N23665  10.454   1.567   3.450  0.1287 -0.9692 -0.3406
  897MOL0     C23666  10.523   1.638   3.548  0.0991  0.3978  0.2357
  897MOL0     C23667  10.641   1.667   3.484  0.1127  0.5062  0.2602
  897MOL0     C23668  10.750   1.747   3.545 -0.5793  0.4935  0.3522
  897MOL0     C23669  10.855   1.674   3.633  0.1269 -0.5367 -0.8765
  897MOL0     C23670  10.795   1.598   3.752  0.1493 -0.1854  0.7189
  897MOL0     C23671  10.905   1.527   3.827 -0.0206 -0.2032 -0.3284
  897MOL0     O23672  11.014   1.604   3.858  0.2452 -0.8940 -0.2089
  897MOL0     C23673  11.082   1.582   3.974 -0.8550  0.5404  0.0341
  897MOL0     C23674  11.218   1.616   3.976  0.4430  0.6218  0.2331
  897MOL0     C23675  11.294   1.608   4.084  0.0279 -0.4743 -0.2091
  897MOL0     C23676  11.429   1.683   4.073  0.2480  0.0900 -0.0332
  897MOL0     C23677  11.241   1.566   4.210 -0.3224  0.6997  0.2278
  897MOL0     C23678  11.327   1.546   4.334 -0.1510  0.4368 -0.6323
  897MOL0     O23679  11.292   1.444   4.417  0.6666  0.5183 -0.2495
  897MOL0     C23680  11.358   1.405   4.530 -0.0012 -0.2091 -0.2578
  897MOL0     C23681  11.433   1.500   4.613 -0.7793 -0.2365 -0.1573
  897MOL0     C23682  11.499   1.459   4.730 -0.5991  0.1179  0.6535
  897MOL0     C23683  11.488   1.325   4.764  0.1373 -0.0028 -0.2556
  897MOL0     O23684  11.561   1.258   4.863  0.3491  0.4439  0.0100
  897MOL0     C23685  11.555   1.330   4.983  0.0637 -0.4933  0.4547
  897MOL0     C23686  11.643   1.262   5.093  0.7225 -0.1463  0.9371
  897MOL0     C23687  11.802   1.294   5.093 -0.4664  0.6497 -0.0787
  897MOL0     C23688  11.865   1.229   5.214 -0.6383 -0.2844 -0.1338
  897MOL0     C23689  12.022   1.239   5.211  0.1867 -1.1200 -0.5791
  897MOL0     C23690  12.088   1.372   5.225 -0.4581  0.6214 -0.7894
  897MOL0     C23691  12.233   1.352   5.281  0.5179 -1.5996  0.0432
  897MOL0     C23692  12.324   1.258   5.206  0.4703  0.4103 -0.6297
  897MOL0    Cl23693  12.370   1.329   5.048 -0.3598  0.0735  0.3232
  897MOL0     C23694  11.397   1.237   4.694 -0.5418  0.5135 -0.7880
  897MOL0     C23695  11.328   1.277   4.575 -0.4312 -1.1505  0.2467
  897MOL0     O23696  11.424   1.617   4.346 -0.3329  0.1589  0.1586
  897MOL0     C23697  11.109   1.518   4.209  0.5273  0.7603  0.0922
  897MOL0     C23698  11.025   1.536   4.096 -0.5933  0.7863  0.0308
  897MOL0     N23699  10.640   1.639   3.350  1.0739  0.8015  0.0479
  897MOL0     N23700  10.526   1.578   3.336 -0.1160  0.1325  0.4049
  897MOL0     C23701  10.258   0.643   3.646  0.6410  0.5111  0.5849
  897MOL0     C23702  10.243   0.541   3.547  0.1148 -0.5340 -0.4218
  897MOL0     C23703  10.094   0.239   3.263 -0.0175  0.3941 -0.1561
  897MOL0     C23704  10.202   0.226   3.177  0.1460 -0.3683  0.2912
  897MOL0     C23705  10.211   0.126   3.090 -0.1977 -0.1715 -0.5808
  897MOL0     C23706  10.119   0.025   3.082 -0.7331 -0.0683 -0.4912
  897MOL0     O23707  10.141  -0.081   2.995 -0.0242 -0.8401 -0.3847
  897MOL0     C23708  10.064  -0.193   3.014 -0.3298  0.5733 -0.7843
  897MOL0     C23709   9.942  -0.184   2.921  0.1817  0.3779 -0.1492
  897MOL0     C23710   9.869  -0.319   2.923  1.4906  0.2761 -0.3217
  897MOL0     C23711   9.744  -0.314   2.831 -0.0499  0.3392 -0.4596
  897MOL0     C23712   9.683  -0.444   2.818 -0.4007  0.2263 -0.3729
  897MOL0     C23713   9.636  -0.557   2.829 -0.2341  0.0629 -0.5058
  897MOL0     C23714  10.009   0.039   3.173 -0.0292 -0.3057 -0.3386
  897MOL0     C23715   9.993   0.139   3.263 -0.4420 -0.0447 -0.2350
  897MOL0     C23716   9.859   0.151   3.342  0.2665  0.2972  0.2387
  897MOL0     H23717  10.117   0.733   3.301 -1.5705  3.2618  1.4495
  897MOL0     H23718  10.146   0.895   3.458 -0.2885  0.6754  2.9655
  897MOL0     H23719  10.353   0.808   3.840 -1.4112 -1.1253 -1.9953
  897MOL0     H23720  10.187   0.769   3.858 -0.3899  1.0946  2.2048
  897MOL0     H23721  10.139   1.016   3.921 -0.4348  1.0571 -0.6980
  897MOL0     H23722  10.252   0.927   4.026 -3.4394  1.4433  1.3992
  897MOL0     H23723  10.346   1.147   3.986 -0.1161  2.6684 -3.4104
  897MOL0     H23724  10.449   1.030   3.905  0.3066 -0.2070  0.5415
  897MOL0     H23725  10.331   1.110   3.682  0.1391  1.1313 -0.3755
  897MOL0     H23726  10.237   1.210   3.788  0.1305  1.3163  0.1366
  897MOL0     H23727  10.553   1.193   3.778 -0.0708 -1.7679  0.5718
  897MOL0     H23728  10.458   1.313   3.858  1.4547  0.0944  0.0788
  897MOL0     H23729  10.549   1.391   3.638  1.0941  0.4504  1.0259
  897MOL0     H23730  10.463   1.272   3.557  3.1017  0.8368  0.6951
  897MOL0     H23731  10.315   1.508   3.686 -1.0669  1.4876 -3.0546
  897MOL0     H23732  10.231   1.369   3.617 -0.2210  0.8832 -0.7845
  897MOL0     H23733  10.324   1.402   3.399 -1.5028  0.5012 -0.5250
  897MOL0     H23734  10.238   1.541   3.448 -0.2829  2.1905  1.3145
  897MOL0     H23735  10.504   1.662   3.652 -2.2552 -2.2387  0.5373
  897MOL0     H23736  10.697   1.828   3.597  0.3383  0.7908  0.8366
  897MOL0     H23737  10.820   1.781   3.469  1.0939 -2.9987  0.1439
  897MOL0     H23738  10.914   1.598   3.580 -2.1412 -0.9444 -2.9903
  897MOL0     H23739  10.921   1.757   3.662 -4.4389  3.0950  0.3155
  897MOL0     H23740  10.746   1.664   3.824  0.3579 -2.6469  3.3003
  897MOL0     H23741  10.722   1.530   3.707  0.4356 -1.6890  2.3967
  897MOL0     H23742  10.857   1.472   3.908  2.0110  0.6566  1.5605
  897MOL0     H23743  10.955   1.452   3.765  0.9988 -2.3266  2.7967
  897MOL0     H23744  11.263   1.655   3.885  1.8356 -0.6266  0.3606
  897MOL0     H23745  11.465   1.705   3.972 -0.6223  1.8341 -0.0127
  897MOL0     H23746  11.514   1.632   4.119  0.1894 -0.5398 -0.6018
  897MOL0     H23747  11.408   1.779   4.121 -2.4549 -0.6900  0.5391
  897MOL0     H23748  11.450   1.606   4.597  1.5653 -0.1671  2.1640
  897MOL0     H23749  11.562   1.529   4.785  0.7479 -1.2065  0.8419
  897MOL0     H23750  11.604   1.423   4.953 -0.1407 -0.1697  1.0975
  897MOL0     H23751  11.453   1.354   5.013  0.7308  1.9849  0.9263
  897MOL0     H23752  11.599   1.307   5.183 -1.4702  1.2755 -0.7566
  897MOL0     H23753  11.631   1.153   5.092  1.9186 -0.3061  1.5033
  897MOL0     H23754  11.815   1.403   5.093 -0.5619  0.6731 -1.4545
  897MOL0     H23755  11.842   1.248   5.002 -2.9529 -0.9502 -0.4622
  897MOL0     H23756  11.835   1.124   5.219  0.6867 -0.6281  3.0416
  897MOL0     H23757  11.832   1.273   5.309  3.3592  1.8421  0.4793
  897MOL0     H23758  12.056   1.170   5.289 -2.0419  0.9171  2.4740
  897MOL0     H23759  12.049   1.195   5.115  1.4565  2.4987 -2.0562
  897MOL0     H23760  12.041   1.434   5.302 -0.9885 -1.3135  0.5046
  897MOL0     H23761  12.098   1.417   5.125 -0.3846  1.0318 -0.6005
  897MOL0     H23762  12.221   1.314   5.383 -0.6728 -2.8325 -0.5122
  897MOL0     H23763  12.278   1.451   5.282 -0.1840 -1.2718 -0.3851
  897MOL0     H23764  12.270   1.164   5.192  0.4468  0.1496  0.9297
  897MOL0     H23765  12.416   1.244   5.263  2.0820  1.7352 -2.7626
  897MOL0     H23766  11.381   1.140   4.740  0.0031  1.0584  0.6071
  897MOL0     H23767  11.253   1.221   4.519  0.0338  0.9340 -2.7243
  897MOL0     H23768  11.078   1.476   4.303 -0.1087 -0.6950 -0.7374
  897MOL0     H23769  10.924   1.498   4.105 -0.4199  0.4995  0.8994
  897MOL0     H23770  10.308   0.624   3.740  3.6425  2.2039 -0.5081
  897MOL0     H23771  10.279   0.441   3.568  0.2491 -0.9486 -2.4369
  897MOL0     H23772  10.282   0.300   3.169  0.7420 -1.0703 -0.4158
  897MOL0     H23773  10.296   0.114   3.023  1.2645 -1.0899  1.3611
  897MOL0     H23774  10.136  -0.274   2.999 -1.7896 -0.7798 -0.7606
  897MOL0     H23775  10.031  -0.192   3.118 -3.8672  1.7132 -1.8037
  897MOL0     H23776   9.979  -0.181   2.818  1.5909 -1.8232  0.2146
  897MOL0     H23777   9.882  -0.098   2.951  0.1927  0.4345 -0.2921
  897MOL0     H23778   9.941  -0.393   2.889 -0.7263 -1.2590 -1.9790
  897MOL0     H23779   9.835  -0.336   3.026  2.0034  0.2730 -0.1528
  897MOL0     H23780   9.778  -0.274   2.735  1.1658 -0.6309 -0.4532
  897MOL0     H23781   9.665  -0.258   2.881  1.5042  2.3383 -0.1362
  897MOL0     H23782   9.581  -0.647   2.853 -2.8854  2.0935  1.6657
  897MOL0     H23783   9.927  -0.031   3.181  0.8504 -1.4391 -0.9215
  897MOL0     H23784   9.792   0.068   3.319 -0.3407  0.9825 -0.5087
  897MOL0     H23785   9.888   0.150   3.448 -1.6864 -0.3570  0.8093
  897MOL0     H23786   9.799   0.237   3.314 -0.3883 -0.5296 -0.9736
  898MOL0     O23787   3.385   3.500   4.879  0.2936  0.4045 -0.8544
  898MOL0     C23788   3.325   3.464   4.786  0.3365 -0.0734 -0.3310
  898MOL0     O23789   3.347   3.498   4.656 -0.2097 -0.1919  0.7414
  898MOL0     C23790   3.467   3.554   4.633 -0.0999 -0.0848  0.1397
  898MOL0     C23791   3.486   3.683   4.670  0.0628  0.2122 -0.0655
  898MOL0     C23792   3.605   3.747   4.681  0.1529  0.0557  0.1565
  898MOL0     C23793   3.720   3.680   4.639  0.9254 -0.4619 -0.7633
  898MOL0     O23794   3.846   3.732   4.651 -0.2680 -0.2649 -0.1174
  898MOL0     C23795   3.860   3.866   4.698 -0.7524  0.1918 -0.1737
  898MOL0     C23796   4.010   3.899   4.707  0.3685  0.3674 -0.2502
  898MOL0     C23797   4.089   3.798   4.789 -0.7781  0.4915  0.7062
  898MOL0     C23798   4.238   3.846   4.776 -0.5020 -0.9330 -0.6844
  898MOL0     C23799   4.327   3.773   4.880  0.2703  0.6187 -0.0307
  898MOL0     C23800   4.468   3.833   4.887 -0.2867  0.1960  0.0855
  898MOL0     C23801   4.580   3.752   4.954 -0.1003  0.9761 -0.5563
  898MOL0     C23802   4.624   3.628   4.880 -0.1909 -0.4863  0.4149
  898MOL0     N23803   4.732   3.552   4.933 -0.2637  0.3361 -0.2007
  898MOL0     C23804   4.730   3.431   5.004 -0.1495  0.6774 -0.4887
  898MOL0     C23805   4.854   3.408   5.045  0.5167 -1.2434  0.1373
  898MOL0     C23806   4.920   3.287   5.103  0.0973  0.3460 -0.2043
  898MOL0     C23807   4.889   3.175   4.997 -0.6236 -0.3275 -0.7357
  898MOL0     C23808   4.967   3.051   5.015  0.6544 -0.3371  0.0637
  898MOL0     C23809   4.903   2.935   4.935  0.1227 -0.7168 -0.0524
  898MOL0     O23810   5.006   2.836   4.925 -0.7240 -0.5761  0.0737
  898MOL0     C23811   4.971   2.718   4.875 -0.1735  0.2898  1.2546
  898MOL0     C23812   5.058   2.607   4.887  0.7626 -0.0664 -0.0243
  898MOL0     C23813   5.019   2.471   4.853 -0.8602 -1.0013 -0.3005
  898MOL0     C23814   5.111   2.357   4.883 -0.5183  0.2514  0.3425
  898MOL0     C23815   4.892   2.459   4.782  0.5924  0.3754 -0.0690
  898MOL0     C23816   4.845   2.322   4.727  1.1525  0.5782  0.7035
  898MOL0     O23817   4.870   2.294   4.597  0.5496 -0.0214 -0.3748
  898MOL0     C23818   4.805   2.198   4.530  0.8408  0.3184 -0.4502
  898MOL0     C23819   4.870   2.172   4.412  0.8168 -0.4069 -0.2490
  898MOL0     C23820   4.831   2.071   4.329 -0.9684 -0.3502 -0.2176
  898MOL0     C23821   4.723   1.994   4.368  0.6993  0.3682 -0.5451
  898MOL0     O23822   4.693   1.880   4.295  0.4795  0.2611 -0.4397
  898MOL0     C23823   4.560   1.865   4.243  0.0374 -0.3463 -0.1846
  898MOL0     C23824   4.531   1.732   4.192 -0.6611  0.8096  0.4388
  898MOL0     C23825   4.394   1.673   4.188 -0.5659  0.1856 -0.6167
  898MOL0     C23826   4.304   1.739   4.084 -0.5771 -0.1035  0.1111
  898MOL0     C23827   4.158   1.685   4.112  0.7318  0.6494 -0.0566
  898MOL0     C23828   4.055   1.776   4.042  0.2280  0.7005  1.3463
  898MOL0     C23829   3.920   1.733   4.088  0.5544 -0.6528 -0.0586
  898MOL0     C23830   3.797   1.794   4.012 -0.1574 -0.0129 -0.9121
  898MOL0    Cl23831   3.781   1.973   4.041  0.6473  0.3564  0.2142
  898MOL0     C23832   4.648   2.025   4.488  0.1229 -0.8067  0.0142
  898MOL0     C23833   4.694   2.119   4.576  0.0096 -0.6001 -0.4057
  898MOL0     O23834   4.826   2.236   4.808  0.3874  1.1037 -0.1308
  898MOL0     C23835   4.811   2.575   4.767 -0.2428  0.2367  0.6309
  898MOL0     C23836   4.849   2.702   4.812  0.0210  0.2616  0.1691
  898MOL0     N23837   4.930   3.520   5.020  0.7164  0.9295 -0.0614
  898MOL0     N23838   4.857   3.603   4.948  0.3573  0.4851 -0.6481
  898MOL0     C23839   3.712   3.544   4.599  0.3622  0.2003  0.1944
  898MOL0     C23840   3.583   3.483   4.601 -0.2252  0.6887 -0.6140
  898MOL0     C23841   3.212   3.373   4.813  0.1587 -1.0877  0.6246
  898MOL0     C23842   3.193   3.255   4.747 -0.4368  0.7989  0.7863
  898MOL0     C23843   3.089   3.170   4.772 -0.3085 -0.0950  0.2710
  898MOL0     C23844   2.989   3.207   4.860  0.5394 -0.4796  0.5676
  898MOL0     O23845   2.883   3.117   4.883  0.2947 -0.2453  0.1575
  898MOL0     C23846   2.783   3.146   4.980  0.0478  0.0198  0.5122
  898MOL0     C23847   2.713   3.017   4.987 -1.1714  1.0730 -0.0817
  898MOL0     C23848   2.777   2.918   5.090  1.1176  0.4035  0.8247
  898MOL0     C23849   2.766   2.775   5.038 -0.1564  0.4897  0.1488
  898MOL0     C23850   2.632   2.729   5.011  0.0946  0.5041  0.2349
  898MOL0     C23851   2.519   2.708   4.980  0.0174  0.2913 -0.7002
  898MOL0     C23852   3.016   3.322   4.940  1.0654  0.5292 -0.4358
  898MOL0     C23853   3.125   3.403   4.916  0.7875  0.2052  1.3866
  898MOL0     C23854   3.137   3.520   5.009  0.3806 -0.4414  0.3888
  898MOL0     H23855   3.398   3.738   4.703  1.1014  0.8659  1.7105
  898MOL0     H23856   3.595   3.848   4.717 -0.3880 -0.3476  1.1794
  898MOL0     H23857   3.810   3.869   4.796  1.0301  1.2782  0.7705
  898MOL0     H23858   3.825   3.942   4.628 -3.5703 -0.4700  0.3908
  898MOL0     H23859   4.059   3.909   4.610  1.3237  1.1182  0.2854
  898MOL0     H23860   4.014   3.998   4.753  3.4550 -1.1063  3.2210
  898MOL0     H23861   4.059   3.792   4.894 -0.9409 -0.2196  0.6199
  898MOL0     H23862   4.070   3.697   4.753 -1.1205  1.1462 -1.0933
  898MOL0     H23863   4.281   3.827   4.677  1.0811 -0.1296 -0.1896
  898MOL0     H23864   4.248   3.952   4.801  1.2375 -1.5336  1.6444
  898MOL0     H23865   4.329   3.666   4.858  0.0124  0.8920 -1.4806
  898MOL0     H23866   4.281   3.791   4.978 -0.3234  0.8122 -0.3452
  898MOL0     H23867   4.499   3.852   4.784  0.8288  3.3728  0.8920
  898MOL0     H23868   4.470   3.931   4.934  1.3790  2.2603 -3.8484
  898MOL0     H23869   4.532   3.710   5.043  0.1856  1.5955 -0.1044
  898MOL0     H23870   4.666   3.812   4.984  2.4257 -2.4702 -0.4131
  898MOL0     H23871   4.546   3.552   4.866 -0.8531 -0.3283  2.8613
  898MOL0     H23872   4.664   3.662   4.784 -0.3907 -0.0898  0.4695
  898MOL0     H23873   4.656   3.352   5.007  1.9245 -1.3428  0.9289
  898MOL0     H23874   4.868   3.266   5.197 -0.1273 -0.0356 -0.4104
  898MOL0     H23875   5.023   3.298   5.136 -0.0788  1.9030 -0.1041
  898MOL0     H23876   4.785   3.148   5.015 -0.6009 -0.6482 -1.0729
  898MOL0     H23877   4.931   3.215   4.904 -1.3018  1.9008 -0.1228
  898MOL0     H23878   5.060   3.069   4.961  1.2824  0.3589  1.3524
  898MOL0     H23879   4.987   3.030   5.120  0.3848  0.4434  0.2754
  898MOL0     H23880   4.820   2.898   4.995  3.0053 -3.4143  2.6049
  898MOL0     H23881   4.870   2.980   4.841  2.4321  0.9439 -0.1709
  898MOL0     H23882   5.151   2.639   4.932  0.6031 -1.8632  1.7480
  898MOL0     H23883   5.083   2.285   4.960  2.9912  0.3976  1.9508
  898MOL0     H23884   5.208   2.391   4.919 -0.1319  0.2718 -0.6657
  898MOL0     H23885   5.135   2.295   4.796 -2.2011  0.3368 -0.2118
  898MOL0     H23886   4.948   2.241   4.381 -1.6218  3.2197  1.0856
  898MOL0     H23887   4.889   2.051   4.239 -0.8554  1.0083 -0.4807
  898MOL0     H23888   4.493   1.880   4.329 -0.1054 -2.3172  0.1124
  898MOL0     H23889   4.537   1.937   4.164  2.1931 -1.5820 -2.0430
  898MOL0     H23890   4.564   1.729   4.087 -2.7657  1.2715 -0.2842
  898MOL0     H23891   4.588   1.658   4.249  1.5490  1.2469 -1.0666
  898MOL0     H23892   4.351   1.673   4.289  2.9614 -2.1167  1.0802
  898MOL0     H23893   4.410   1.569   4.158  0.9759  0.5939 -1.3191
  898MOL0     H23894   4.332   1.714   3.981  0.0810 -0.9257  0.4803
  898MOL0     H23895   4.311   1.848   4.083  1.6530 -0.2104  0.5034
  898MOL0     H23896   4.149   1.585   4.068  1.1651  1.5210 -2.2656
  898MOL0     H23897   4.137   1.665   4.218 -0.9510 -0.6727 -0.6005
  898MOL0     H23898   4.059   1.764   3.934  3.5623  0.1673  1.4241
  898MOL0     H23899   4.073   1.880   4.072  3.5980  0.3779  0.8318
  898MOL0     H23900   3.909   1.758   4.194 -0.3556 -1.8912  0.1607
  898MOL0     H23901   3.916   1.624   4.080  0.9516 -0.6467 -0.3742
  898MOL0     H23902   3.708   1.740   4.048  0.8482  0.0737  1.9056
  898MOL0     H23903   3.807   1.783   3.903  2.4867  0.6804 -0.8078
  898MOL0     H23904   4.557   1.972   4.514  1.5116 -2.4598  1.8252
  898MOL0     H23905   4.647   2.140   4.671 -0.2619  0.1649 -0.7017
  898MOL0     H23906   4.724   2.557   4.705  1.0145 -1.1419 -0.8165
  898MOL0     H23907   4.769   2.773   4.800  0.4246  1.1109  2.0802
  898MOL0     H23908   3.803   3.490   4.571 -1.4449 -2.4951 -0.8901
  898MOL0     H23909   3.579   3.375   4.586 -0.1923  0.7858 -1.3615
  898MOL0     H23910   3.262   3.231   4.667  1.3638 -1.4510  2.8791
  898MOL0     H23911   3.101   3.074   4.723 -0.4668 -0.0473  0.1385
  898MOL0     H23912   2.834   3.168   5.074 -1.3866 -0.7429  1.5125
  898MOL0     H23913   2.707   3.219   4.949 -0.4413 -1.0856 -1.0151
  898MOL0     H23914   2.706   2.964   4.892  3.2487  1.4813 -0.8491
  898MOL0     H23915   2.610   3.037   5.019 -1.5941  1.9172 -1.8532
  898MOL0     H23916   2.884   2.938   5.101  1.1710  0.3878  0.3366
  898MOL0     H23917   2.714   2.927   5.179  0.4036  1.6372  0.2188
  898MOL0     H23918   2.811   2.711   5.115 -0.4392  0.9005  0.6655
  898MOL0     H23919   2.831   2.776   4.951 -0.4001 -0.9810 -0.0859
  898MOL0     H23920   2.425   2.670   4.946  0.3036  0.5515 -1.8163
  898MOL0     H23921   2.944   3.348   5.016 -0.0347  0.6920 -1.4954
  898MOL0     H23922   3.039   3.533   5.056 -0.1759 -0.2169 -0.7784
  898MOL0     H23923   3.212   3.506   5.087  0.1414  2.5279  1.3019
  898MOL0     H23924   3.169   3.613   4.960  1.2644 -0.8699  0.1413
  899MOL0     O23925   6.310  10.461  11.112 -0.6140  0.5247  1.0704
  899MOL0     C23926   6.219  10.377  11.093 -0.1388  0.4556  0.1614
  899MOL0     O23927   6.127  10.346  11.193  0.4937  0.4664 -0.8167
  899MOL0     C23928   6.156  10.416  11.313  1.5141  0.0718  0.8561
  899MOL0     C23929   6.077  10.525  11.360 -0.7176  0.5904 -0.7802
  899MOL0     C23930   6.119  10.604  11.465 -0.4075  0.1239  0.2298
  899MOL0     C23931   6.232  10.563  11.539 -0.2865  0.3034  0.1537
  899MOL0     O23932   6.263  10.631  11.654  0.3850  0.1177 -1.2379
  899MOL0     C23933   6.400  10.673  11.671  0.2514  0.1516 -0.4789
  899MOL0     C23934   6.391  10.730  11.809 -0.1542  0.4350  0.5767
  899MOL0     C23935   6.279  10.828  11.818 -0.6595 -0.4644  0.1119
  899MOL0     C23936   6.278  10.868  11.967  0.1299  1.2885 -0.4451
  899MOL0     C23937   6.156  10.962  11.993  0.2863  0.6511  0.8094
  899MOL0     C23938   6.219  11.103  12.014  0.0788 -0.0257  0.1852
  899MOL0     C23939   6.292  11.159  11.899  0.6148  0.0611 -0.2727
  899MOL0     C23940   6.338  11.302  11.937  0.3084 -0.8929 -0.1989
  899MOL0     N23941   6.230  11.395  11.929  0.8610  0.9791  0.4140
  899MOL0     C23942   6.169  11.456  12.036  0.1647 -0.0748  0.0277
  899MOL0     C23943   6.093  11.553  11.974  0.1238  0.1550  0.7706
  899MOL0     C23944   6.004  11.645  12.040 -0.4147 -0.6122 -0.3872
  899MOL0     C23945   6.079  11.767  12.087 -0.6376  0.1275 -0.2542
  899MOL0     C23946   5.990  11.854  12.173  0.1648  0.1004 -0.4610
  899MOL0     C23947   6.051  11.986  12.215 -0.3918  0.2524 -0.4156
  899MOL0     O23948   6.165  11.971  12.300  0.4393 -1.1663  0.6680
  899MOL0     C23949   6.134  12.007  12.425  0.6894 -0.3118 -0.1090
  899MOL0     C23950   6.107  11.903  12.522  0.2371  0.4257 -0.2079
  899MOL0     C23951   6.068  11.942  12.654  0.0211 -0.1786  0.0483
  899MOL0     C23952   6.048  11.828  12.750 -0.1690  1.1718  0.0229
  899MOL0     C23953   6.069  12.068  12.681 -0.7563  0.2284  0.6498
  899MOL0     C23954   6.008  12.108  12.810  0.0833 -0.2532 -0.4750
  899MOL0     O23955   5.868  12.074  12.842  0.1762 -0.2064 -0.1319
  899MOL0     C23956   5.811  12.096  12.968  0.6315  0.0770  0.0117
  899MOL0     C23957   5.722  11.994  13.011  0.2432 -0.3780 -0.6989
  899MOL0     C23958   5.659  12.018  13.134 -0.3688  0.6967  0.5109
  899MOL0     C23959   5.689  12.128  13.216 -0.2613 -0.8387 -0.5369
  899MOL0     O23960   5.633  12.127  13.339  0.3967  0.4572  0.1200
  899MOL0     C23961   5.679  12.216  13.445 -0.4807 -0.5139  0.4843
  899MOL0     C23962   5.586  12.201  13.567  0.3894 -0.1298 -0.1993
  899MOL0     C23963   5.636  12.277  13.687 -0.2661  0.1759 -0.5958
  899MOL0     C23964   5.772  12.230  13.744  1.2166 -0.0151  0.4118
  899MOL0     C23965   5.786  12.234  13.907  0.2567 -0.1437 -0.0513
  899MOL0     C23966   5.696  12.131  13.973  0.5044 -0.2826 -0.8042
  899MOL0     C23967   5.643  12.188  14.115 -0.1117 -0.8430 -0.5504
  899MOL0     C23968   5.762  12.186  14.212 -0.0053 -0.1996  0.4722
  899MOL0    Cl23969   5.698  12.179  14.397  0.1172 -0.1288  0.4814
  899MOL0     C23970   5.774  12.231  13.173 -0.6923  0.2326 -0.4750
  899MOL0     C23971   5.838  12.204  13.047  0.3491 -0.5561 -0.4456
  899MOL0     O23972   6.075  12.182  12.875 -0.5748 -0.2817 -0.4689
  899MOL0     C23973   6.117  12.171  12.595  0.2900  0.8266 -0.2960
  899MOL0     C23974   6.148  12.141  12.456  0.0831 -1.4818  0.5278
  899MOL0     N23975   6.109  11.551  11.839 -0.6990 -0.5382  0.3429
  899MOL0     N23976   6.198  11.465  11.814  0.1416  0.0557 -0.5973
  899MOL0     C23977   6.307  10.447  11.503  0.4945  0.1040  0.0043
  899MOL0     C23978   6.273  10.374  11.381  0.6603 -0.5407  0.3370
  899MOL0     C23979   6.205  10.308  10.957 -0.2815  1.2741 -0.8488
  899MOL0     C23980   6.089  10.224  10.947 -0.7098  0.9456  0.3612
  899MOL0     C23981   6.057  10.169  10.820  0.5869 -0.2191  0.4422
  899MOL0     C23982   6.135  10.190  10.705  0.3312 -0.1376 -0.6137
  899MOL0     O23983   6.099  10.157  10.571 -0.9939 -0.0456 -0.0860
  899MOL0     C23984   5.957  10.146  10.530 -0.7903 -0.7068 -0.1861
  899MOL0     C23985   5.915  10.294  10.510 -0.0407 -0.2122  0.0536
  899MOL0     C23986   5.756  10.314  10.494 -0.3933  0.3478 -0.1831
  899MOL0     C23987   5.727  10.455  10.434  0.5614  0.4290 -0.1396
  899MOL0     C23988   5.602  10.454  10.345 -0.3150 -0.2004 -0.2329
  899MOL0     C23989   5.498  10.436  10.293 -0.5167  0.7595  0.2500
  899MOL0     C23990   6.259  10.253  10.719 -0.9592 -0.2225 -0.1830
  899MOL0     C23991   6.292  10.312  10.836 -0.1417  0.1519  0.1923
  899MOL0     C23992   6.412  10.387  10.845 -0.9527  0.7580 -0.0590
  899MOL0     H23993   5.985  10.548  11.307 -1.2211 -2.7141 -1.5391
  899MOL0     H23994   6.060  10.684  11.508 -2.0831 -0.1177 -1.4997
  899MOL0     H23995   6.408  10.762  11.607  0.2893  1.9942  1.9411
  899MOL0     H23996   6.475  10.596  11.651 -1.9923 -1.4728 -3.6298
  899MOL0     H23997   6.376  10.654  11.885  0.0006 -0.9145 -0.6936
  899MOL0     H23998   6.483  10.785  11.828  0.8222 -1.5460  1.9566
  899MOL0     H23999   6.302  10.917  11.759 -1.3406  0.6264  1.4385
  899MOL0     H24000   6.182  10.798  11.779 -1.4584  1.3852  0.5732
  899MOL0     H24001   6.271  10.783  12.035  2.7191  1.1814 -0.2262
  899MOL0     H24002   6.371  10.922  11.985  0.4243  0.7937 -0.4778
  899MOL0     H24003   6.099  10.924  12.079  0.4906 -4.1408 -0.8664
  899MOL0     H24004   6.097  10.980  11.903  1.1663 -0.4306 -0.0185
  899MOL0     H24005   6.137  11.168  12.045  0.4708 -0.4724  2.3578
  899MOL0     H24006   6.281  11.103  12.105 -2.9820 -0.2560  2.4547
  899MOL0     H24007   6.233  11.172  11.808  1.6738  1.3584 -0.8090
  899MOL0     H24008   6.376  11.092  11.878  0.6896  0.7818 -2.6355
  899MOL0     H24009   6.379  11.291  12.038  2.6078  0.2644 -0.9537
  899MOL0     H24010   6.415  11.328  11.864  0.0007  0.4571 -0.0689
  899MOL0     H24011   6.174  11.435  12.142  1.8672  3.2200  0.7220
  899MOL0     H24012   5.972  11.603  12.136  1.4722  1.8075  1.4475
  899MOL0     H24013   5.928  11.674  11.967 -1.0087 -0.5487  0.2453
  899MOL0     H24014   6.166  11.740  12.148 -1.0368  2.1803  1.3278
  899MOL0     H24015   6.104  11.826  11.998  0.3330 -2.2164 -1.6249
  899MOL0     H24016   5.908  11.883  12.106 -0.5947 -1.9870 -0.5192
  899MOL0     H24017   5.944  11.798  12.255 -1.0083 -0.8196 -1.7041
  899MOL0     H24018   6.069  12.048  12.126  0.8222  1.0511  0.3364
  899MOL0     H24019   5.973  12.044  12.264 -0.3907  1.4626 -1.7740
  899MOL0     H24020   6.113  11.800  12.488 -2.2624  0.4605 -0.9351
  899MOL0     H24021   6.091  11.735  12.711 -0.7127 -0.1710  2.4063
  899MOL0     H24022   5.942  11.802  12.763  0.3757 -2.1426 -1.1911
  899MOL0     H24023   6.110  11.843  12.839 -0.4951 -0.5491  0.5752
  899MOL0     H24024   5.703  11.901  12.959  0.3842 -1.0238  0.3938
  899MOL0     H24025   5.594  11.932  13.147 -0.5364  0.4068 -1.7531
  899MOL0     H24026   5.783  12.191  13.471  0.4387  1.1417 -1.3306
  899MOL0     H24027   5.683  12.319  13.410 -0.2242 -1.2742 -1.8633
  899MOL0     H24028   5.482  12.216  13.538  0.4650 -2.3445 -1.9446
  899MOL0     H24029   5.581  12.100  13.607 -0.7156 -0.0051 -0.0157
  899MOL0     H24030   5.570  12.267  13.773  0.9039  1.3526  0.4863
  899MOL0     H24031   5.647  12.386  13.678 -0.2435  0.1798 -0.5197
  899MOL0     H24032   5.843  12.297  13.694  2.7698  1.0414  3.7463
  899MOL0     H24033   5.793  12.126  13.721  2.9218  0.1042  1.2213
  899MOL0     H24034   5.893  12.212  13.909  0.2876 -0.3391 -1.9841
  899MOL0     H24035   5.770  12.334  13.948  0.7137 -0.4864  1.0032
  899MOL0     H24036   5.750  12.036  13.984  3.6925  1.4026 -0.7609
  899MOL0     H24037   5.611  12.107  13.907  1.4225  0.3558 -2.2712
  899MOL0     H24038   5.576  12.116  14.162  0.5013 -0.8928  0.2780
  899MOL0     H24039   5.598  12.287  14.103  1.9385  0.5858  2.2506
  899MOL0     H24040   5.827  12.273  14.200  1.5612 -1.4368 -0.2761
  899MOL0     H24041   5.824  12.101  14.183  0.7635 -0.2613  2.1435
  899MOL0     H24042   5.784  12.325  13.226  0.1619 -1.8074  3.3892
  899MOL0     H24043   5.901  12.278  12.999  1.5822 -0.0406  1.8177
  899MOL0     H24044   6.116  12.277  12.620 -0.2850  1.2484 -1.9457
  899MOL0     H24045   6.160  12.218  12.381  3.1465 -3.4125 -1.1633
  899MOL0     H24046   6.394  10.414  11.559  1.9242  0.9384 -1.6260
  899MOL0     H24047   6.327  10.287  11.347  2.0808  0.5555 -0.3111
  899MOL0     H24048   6.010  10.210  11.020 -1.7397  1.0056 -0.6909
  899MOL0     H24049   5.966  10.111  10.826 -0.1292  0.9656  1.2886
  899MOL0     H24050   5.931  10.093  10.438  1.7393  1.3134 -2.2550
  899MOL0     H24051   5.903  10.100  10.613 -2.0533 -0.1398 -0.6726
  899MOL0     H24052   5.974  10.330  10.426 -0.8809  1.6008  0.1894
  899MOL0     H24053   5.956  10.358  10.589 -1.0004  1.0515 -0.4371
  899MOL0     H24054   5.716  10.241  10.423  0.7976 -0.7306  0.2268
  899MOL0     H24055   5.699  10.302  10.587  2.0076 -1.2476  1.1879
  899MOL0     H24056   5.802  10.492  10.363 -2.7085  2.4227 -2.8097
  899MOL0     H24057   5.720  10.523  10.520 -0.4562  1.6744 -1.1767
  899MOL0     H24058   5.408  10.407  10.243  1.5390 -1.6450 -2.4372
  899MOL0     H24059   6.324  10.266  10.633  0.9629 -1.5012  1.0038
  899MOL0     H24060   6.463  10.357  10.937 -0.3655 -0.0004 -0.6252
  899MOL0     H24061   6.483  10.384  10.763 -1.0228 -0.5901 -0.0966
  899MOL0     H24062   6.380  10.491  10.860  3.4481  2.3764 -0.5548
  900MOL0     O24063   9.918   4.879   8.666 -0.2836 -0.3590  0.4712
  900MOL0     C24064   9.964   4.995   8.673  0.2582 -0.6916  0.8934
  900MOL0     O24065  10.054   5.048   8.591 -0.5102 -0.6785  0.1127
  900MOL0     C24066  10.099   4.978   8.478  0.4049  0.0765 -0.6081
  900MOL0     C24067  10.192   4.877   8.498  0.3341  0.1210 -0.4340
  900MOL0     C24068  10.227   4.793   8.390  0.2494  0.6224 -0.5970
  900MOL0     C24069  10.180   4.817   8.268  0.2034  0.2133  0.7485
  900MOL0     O24070  10.213   4.753   8.151  0.0210 -0.1688 -0.5341
  900MOL0     C24071  10.349   4.721   8.110  0.1228  0.4792 -0.9215
  900MOL0     C24072  10.399   4.844   8.032 -0.1265 -0.7612 -0.1887
  900MOL0     C24073  10.539   4.829   7.972  0.4951  0.4540 -0.1889
  900MOL0     C24074  10.545   4.885   7.833  0.9045 -0.0838  0.2043
  900MOL0     C24075  10.682   4.896   7.776 -0.4400 -0.0808 -0.1099
  900MOL0     C24076  10.732   4.756   7.740  0.0078  0.3835  0.0692
  900MOL0     C24077  10.890   4.764   7.729 -0.4406  0.2349 -0.2232
  900MOL0     C24078  10.955   4.627   7.737  0.7416 -0.5939  0.6362
  900MOL0     N24079  11.097   4.639   7.761 -0.4320 -0.4947 -0.2697
  900MOL0     C24080  11.199   4.668   7.664  0.9553  0.4680  0.0012
  900MOL0     C24081  11.308   4.693   7.745  0.6234 -0.0001 -0.5606
  900MOL0     C24082  11.437   4.755   7.695  0.2424 -0.7002 -0.4961
  900MOL0     C24083  11.544   4.642   7.674 -0.3547  1.2040  0.4892
  900MOL0     C24084  11.675   4.687   7.625 -0.0715 -0.1160 -0.2005
  900MOL0     C24085  11.758   4.768   7.725 -0.7733 -0.1577  0.0112
  900MOL0     O24086  11.885   4.803   7.667  0.0184  0.5339  0.4814
  900MOL0     C24087  11.963   4.703   7.623  0.6200  0.4949 -0.2029
  900MOL0     C24088  12.055   4.735   7.526  0.2287 -0.1251 -0.7686
  900MOL0     C24089  12.160   4.651   7.482  0.4681  1.2160 -0.4327
  900MOL0     C24090  12.259   4.706   7.381  0.2580 -0.3694  0.1311
  900MOL0     C24091  12.175   4.519   7.543 -0.3421  0.7167 -1.1148
  900MOL0     C24092  12.294   4.429   7.500  0.1913  0.4139 -1.0315
  900MOL0     O24093  12.342   4.351   7.594 -1.6642 -0.6940 -0.6676
  900MOL0     C24094  12.401   4.234   7.563  0.0920  0.1636  0.2910
  900MOL0     C24095  12.531   4.235   7.531 -1.5365 -0.4107  1.2416
  900MOL0     C24096  12.603   4.116   7.495  0.6841  0.2751  0.1754
  900MOL0     C24097  12.539   3.992   7.504 -0.0035 -0.3566 -0.5438
  900MOL0     O24098  12.620   3.873   7.490  0.4851 -1.1249 -0.2537
  900MOL0     C24099  12.587   3.745   7.545 -0.0995 -0.0547 -0.0074
  900MOL0     C24100  12.699   3.652   7.515  0.7014  0.0763 -0.6668
  900MOL0     C24101  12.713   3.606   7.371  0.1504  0.3703  0.3773
  900MOL0     C24102  12.832   3.512   7.357 -0.0982 -0.3856 -0.1688
  900MOL0     C24103  12.873   3.459   7.221  0.1124  0.4606 -0.5674
  900MOL0     C24104  12.758   3.395   7.147  1.1729 -0.6450 -0.4131
  900MOL0     C24105  12.798   3.371   7.000 -0.7949  0.5064  0.6331
  900MOL0     C24106  12.819   3.507   6.921 -0.3118 -0.3643  0.4967
  900MOL0    Cl24107  12.995   3.545   6.892 -0.1033  0.0526  0.4940
  900MOL0     C24108  12.398   3.988   7.550  0.3661 -0.2982  0.5121
  900MOL0     C24109  12.334   4.105   7.575  0.7318  0.1192 -0.2895
  900MOL0     O24110  12.328   4.428   7.383  0.1242 -0.6094 -0.2091
  900MOL0     C24111  12.075   4.484   7.640 -0.5474 -0.1894  1.0566
  900MOL0     C24112  11.978   4.576   7.685 -0.3653 -0.0564 -0.3626
  900MOL0     N24113  11.279   4.681   7.880  0.9280  0.1048 -0.3517
  900MOL0     N24114  11.148   4.655   7.886 -0.6199 -0.0740 -0.9871
  900MOL0     C24115  10.087   4.917   8.247 -0.0194 -0.1478  0.4649
  900MOL0     C24116  10.048   5.002   8.354  0.4330  0.0362 -0.6715
  900MOL0     C24117   9.913   5.076   8.784  0.0325 -0.4513 -0.4306
  900MOL0     C24118   9.993   5.182   8.846 -0.1935 -0.7466  0.4964
  900MOL0     C24119   9.929   5.266   8.934 -0.0741 -1.0260  0.0216
  900MOL0     C24120   9.800   5.251   8.976  1.3314  0.3126  0.7515
  900MOL0     O24121   9.750   5.333   9.073  0.6743  0.0042  0.3586
  900MOL0     C24122   9.615   5.325   9.139  0.2786  0.6265 -0.2856
  900MOL0     C24123   9.546   5.460   9.126 -0.8297  0.1468  0.7545
  900MOL0     C24124   9.610   5.564   9.215  0.1639 -0.7673  0.1992
  900MOL0     C24125   9.540   5.592   9.352 -0.6888  0.5588 -0.3411
  900MOL0     C24126   9.518   5.474   9.437 -0.5246  0.1959  0.3060
  900MOL0     C24127   9.492   5.370   9.489  0.0160  0.8208 -0.5999
  900MOL0     C24128   9.724   5.150   8.913 -0.1033 -0.1753  0.1788
  900MOL0     C24129   9.779   5.055   8.829  0.5046 -0.5179 -0.4193
  900MOL0     C24130   9.689   4.948   8.786  0.3148  1.0635 -0.1138
  900MOL0     H24131  10.222   4.866   8.601 -3.1845  1.7784  0.9343
  900MOL0     H24132  10.289   4.705   8.392 -1.3074 -0.5892 -1.9030
  900MOL0     H24133  10.354   4.621   8.064 -0.0119  0.8013 -1.6506
  900MOL0     H24134  10.410   4.709   8.200  1.6728 -0.9360 -2.0890
  900MOL0     H24135  10.320   4.873   7.962  0.0722  0.1958 -0.0289
  900MOL0     H24136  10.400   4.927   8.102  1.3124  0.9189 -2.0771
  900MOL0     H24137  10.601   4.899   8.029 -0.0507  3.6106 -3.1140
  900MOL0     H24138  10.576   4.727   7.983  0.4348  0.5711  1.2844
  900MOL0     H24139  10.479   4.830   7.766  1.3502 -1.7494  1.0715
  900MOL0     H24140  10.500   4.985   7.839 -0.9668 -0.7336 -1.8509
  900MOL0     H24141  10.744   4.946   7.851 -1.0467  2.3720 -1.1648
  900MOL0     H24142  10.701   4.969   7.697  0.0978  1.4227  1.3716
  900MOL0     H24143  10.723   4.685   7.823  0.3923 -1.0419 -1.0553
  900MOL0     H24144  10.698   4.720   7.642 -1.2470  1.5099  0.0525
  900MOL0     H24145  10.937   4.827   7.806  1.6863 -1.7512  0.2089
  900MOL0     H24146  10.923   4.817   7.639 -2.3484  3.7581  0.9358
  900MOL0     H24147  10.911   4.572   7.821 -3.1269  3.1164  1.3574
  900MOL0     H24148  10.941   4.572   7.643 -1.0322  0.4774  0.2203
  900MOL0     H24149  11.190   4.667   7.556 -0.1265 -1.7517  0.0379
  900MOL0     H24150  11.484   4.818   7.771  2.7314 -0.8959 -1.7984
  900MOL0     H24151  11.405   4.807   7.604 -1.9607 -0.1804  0.4934
  900MOL0     H24152  11.551   4.595   7.773  2.0262  3.0178  1.2787
  900MOL0     H24153  11.491   4.583   7.599  2.5179 -0.1461 -0.6057
  900MOL0     H24154  11.731   4.602   7.586 -2.4421 -1.4977 -0.7865
  900MOL0     H24155  11.656   4.741   7.532  0.5070 -0.4975 -0.5415
  900MOL0     H24156  11.726   4.866   7.761  3.6983  0.9820  1.4713
  900MOL0     H24157  11.785   4.725   7.822  1.9611  0.3940 -0.4397
  900MOL0     H24158  12.048   4.828   7.470 -1.4148 -0.2045 -0.7479
  900MOL0     H24159  12.349   4.723   7.442  2.2320 -0.6914 -2.4781
  900MOL0     H24160  12.228   4.805   7.346 -0.6512 -0.4307  0.7432
  900MOL0     H24161  12.283   4.646   7.293  0.4309  2.1730 -1.6665
  900MOL0     H24162  12.567   4.335   7.510 -1.9761 -0.8434 -2.0310
  900MOL0     H24163  12.701   4.112   7.450  0.3854 -1.1049 -0.4041
  900MOL0     H24164  12.562   3.750   7.651 -1.5720 -0.1189 -0.3333
  900MOL0     H24165  12.496   3.705   7.499 -0.2087 -2.9752  2.4603
  900MOL0     H24166  12.791   3.698   7.551  1.1305  0.0692 -1.7154
  900MOL0     H24167  12.677   3.564   7.576  1.4857 -0.2527 -0.8476
  900MOL0     H24168  12.720   3.691   7.301 -1.7264  3.1109  3.2360
  900MOL0     H24169  12.616   3.565   7.342 -1.2297  2.8125  1.2603
  900MOL0     H24170  12.801   3.420   7.407 -2.3322  0.1424 -0.4922
  900MOL0     H24171  12.917   3.561   7.406 -0.6484 -0.1680  0.5992
  900MOL0     H24172  12.914   3.547   7.170  1.3816  1.0787  1.4044
  900MOL0     H24173  12.951   3.383   7.229  0.2528  0.3810 -2.2130
  900MOL0     H24174  12.676   3.468   7.146  1.4571 -0.1807  2.4295
  900MOL0     H24175  12.738   3.298   7.195 -1.1462 -0.8941 -1.7459
  900MOL0     H24176  12.718   3.316   6.949 -1.9073  2.8378 -0.2932
  900MOL0     H24177  12.890   3.311   6.993 -0.6566  0.8356 -0.4906
  900MOL0     H24178  12.764   3.579   6.982 -1.7233 -1.6389  0.7994
  900MOL0     H24179  12.770   3.497   6.824  0.0817 -2.3264  0.4569
  900MOL0     H24180  12.338   3.898   7.558  0.7917 -0.8414 -1.7115
  900MOL0     H24181  12.235   4.103   7.621  1.5159 -0.3284  1.4589
  900MOL0     H24182  12.079   4.391   7.697 -0.7440 -0.9614 -0.1715
  900MOL0     H24183  11.907   4.544   7.761  1.5637 -1.4617  0.9792
  900MOL0     H24184  10.052   4.949   8.149  1.4255  0.3939  0.0922
  900MOL0     H24185   9.980   5.085   8.339 -0.3615 -0.7025 -1.2247
  900MOL0     H24186  10.095   5.188   8.811 -0.3025 -3.3686 -0.5144
  900MOL0     H24187   9.987   5.341   8.988 -0.8991  0.3073 -0.9020
  900MOL0     H24188   9.555   5.260   9.075  1.7264  0.1639 -1.2051
  900MOL0     H24189   9.617   5.292   9.243  0.6540 -0.2157 -0.5550
  900MOL0     H24190   9.439   5.449   9.148 -0.7671 -2.6063  0.0403
  900MOL0     H24191   9.549   5.494   9.022 -1.6639 -0.7418  0.4241
  900MOL0     H24192   9.713   5.541   9.244  0.2800  0.3376  0.6849
  900MOL0     H24193   9.601   5.664   9.173 -1.4440 -1.3243 -0.9006
  900MOL0     H24194   9.440   5.636   9.346 -2.5258 -2.8638  1.9052
  900MOL0     H24195   9.602   5.663   9.406  0.6798 -1.1977  0.4756
  900MOL0     H24196   9.471   5.282   9.547  2.6004  2.0755  2.5653
  900MOL0     H24197   9.619   5.137   8.938  0.4636 -1.6782  2.0285
  900MOL0     H24198   9.598   4.940   8.846 -1.1094 -1.7063 -2.4227
  900MOL0     H24199   9.673   4.973   8.681  0.5055  1.3422 -0.0775
  900MOL0     H24200   9.745   4.854   8.794 -0.5176  0.6833  1.6981
  901MOL0     O24201   7.473   8.020   1.706 -0.2075 -0.0563 -0.1288
  901MOL0     C24202   7.392   8.103   1.659 -0.6662  0.2552  0.2543
  901MOL0     O24203   7.436   8.226   1.618  0.1764  0.3729  0.4006
  901MOL0     C24204   7.542   8.287   1.673 -0.9263  0.0988  0.7490
  901MOL0     C24205   7.570   8.280   1.807 -0.4065 -0.6978 -0.6452
  901MOL0     C24206   7.689   8.338   1.858 -0.5044  0.2204  0.2236
  901MOL0     C24207   7.769   8.429   1.779 -0.0145 -0.2156 -0.0885
  901MOL0     O24208   7.883   8.481   1.837  0.1054  0.3313  1.1457
  901MOL0     C24209   7.859   8.608   1.903  0.2716  1.2847 -0.0243
  901MOL0     C24210   7.879   8.730   1.806  0.5979 -0.7606 -0.1342
  901MOL0     C24211   8.015   8.732   1.739  0.4596  0.3840  0.3901
  901MOL0     C24212   8.132   8.735   1.835  0.0357  0.4322 -0.5711
  901MOL0     C24213   8.261   8.797   1.772 -0.7781 -0.1115 -0.2609
  901MOL0     C24214   8.288   8.723   1.634  1.4933  0.4076 -0.1002
  901MOL0     C24215   8.437   8.734   1.602 -0.2180 -0.1651  1.5194
  901MOL0     C24216   8.456   8.653   1.475  0.2152  0.4078  0.1138
  901MOL0     N24217   8.585   8.678   1.404  0.0774  0.3490 -0.2582
  901MOL0     C24218   8.700   8.599   1.422  0.2744  0.4520  0.0278
  901MOL0     C24219   8.805   8.658   1.356  0.0027  0.4940  0.3409
  901MOL0     C24220   8.949   8.614   1.372  1.1329 -0.4762 -0.8981
  901MOL0     C24221   9.010   8.568   1.238  0.5711 -0.3493  0.3232
  901MOL0     C24222   8.970   8.417   1.209 -0.4062  0.2821  0.2450
  901MOL0     C24223   9.042   8.318   1.301 -0.3549 -0.3764 -0.0133
  901MOL0     O24224   9.175   8.360   1.336 -0.3298  0.3114 -0.1711
  901MOL0     C24225   9.276   8.276   1.347  0.0644  0.0878  0.0588
  901MOL0     C24226   9.404   8.307   1.307  0.2554 -0.3537 -0.8221
  901MOL0     C24227   9.509   8.214   1.315  0.9170  0.4559 -0.3321
  901MOL0     C24228   9.649   8.265   1.267 -0.5316  0.0318 -0.4624
  901MOL0     C24229   9.483   8.083   1.370  0.2732  0.2064 -1.6360
  901MOL0     C24230   9.581   7.980   1.376  0.0884  0.7477 -0.2816
  901MOL0     O24231   9.675   7.980   1.277 -0.0694  0.4725 -0.3293
  901MOL0     C24232   9.767   7.878   1.252  0.4379 -0.4823 -0.1167
  901MOL0     C24233   9.885   7.909   1.182 -0.9273 -0.3240 -0.6507
  901MOL0     C24234   9.989   7.813   1.162  0.5761  1.2373 -0.1390
  901MOL0     C24235   9.968   7.681   1.205  0.4189  0.9421 -0.0256
  901MOL0     O24236  10.058   7.573   1.224 -0.2415 -0.2383 -0.9860
  901MOL0     C24237  10.195   7.587   1.168 -0.2961 -0.2572 -0.1077
  901MOL0     C24238  10.192   7.590   1.017  0.4252 -0.2786 -0.0340
  901MOL0     C24239  10.167   7.449   0.962  0.0409 -0.4000  1.0618
  901MOL0     C24240  10.304   7.355   0.968  0.5759 -0.4075  0.2831
  901MOL0     C24241  10.273   7.200   0.945 -0.4897 -0.6122 -0.4040
  901MOL0     C24242  10.256   7.165   0.800  1.0453  0.3270  0.7375
  901MOL0     C24243  10.186   7.031   0.767 -0.5388 -0.4628  1.3551
  901MOL0     C24244  10.031   7.042   0.806 -0.3175 -0.1001  0.1193
  901MOL0    Cl24245   9.942   7.134   0.681 -0.2269  0.0394 -0.1947
  901MOL0     C24246   9.841   7.652   1.254  0.5015 -0.7424  0.3846
  901MOL0     C24247   9.741   7.743   1.281  0.1212  0.2506 -0.1205
  901MOL0     O24248   9.579   7.899   1.470  0.5705 -0.0369  0.1406
  901MOL0     C24249   9.354   8.063   1.421  0.0061 -0.0107 -0.4475
  901MOL0     C24250   9.248   8.151   1.399 -0.4340  0.8749 -0.7015
  901MOL0     N24251   8.758   8.775   1.309 -0.1688 -0.1111 -0.2976
  901MOL0     N24252   8.629   8.787   1.344  0.0224  0.8833 -0.3183
  901MOL0     C24253   7.735   8.446   1.650  0.0517  0.1218 -0.0120
  901MOL0     C24254   7.629   8.370   1.595 -0.0033 -0.1741 -0.2055
  901MOL0     C24255   7.249   8.075   1.680  0.4494 -0.8635 -0.5087
  901MOL0     C24256   7.159   8.164   1.631 -0.6764 -0.2112 -0.4261
  901MOL0     C24257   7.022   8.148   1.641  1.3454 -0.0972 -0.2846
  901MOL0     C24258   6.965   8.037   1.709 -0.0151  0.3975 -0.1189
  901MOL0     O24259   6.836   7.998   1.715  0.3400 -0.4168  0.8378
  901MOL0     C24260   6.763   8.080   1.806  0.0350 -0.0952 -0.6945
  901MOL0     C24261   6.738   8.001   1.944 -0.1793 -0.9354 -0.2384
  901MOL0     C24262   6.657   7.871   1.933  0.4728  0.6096 -0.1529
  901MOL0     C24263   6.740   7.757   1.869  0.2381  0.2894  0.2667
  901MOL0     C24264   6.837   7.702   1.964  0.0867  0.1454 -0.1889
  901MOL0     C24265   6.926   7.673   2.038  0.1307 -0.8752 -0.5031
  901MOL0     C24266   7.059   7.948   1.767  0.7425 -0.4320  0.3681
  901MOL0     C24267   7.199   7.973   1.762  0.0395 -0.1412 -0.4983
  901MOL0     C24268   7.292   7.894   1.856  0.1297 -0.6531  0.3204
  901MOL0     H24269   7.510   8.217   1.873  0.3963  0.7600  1.6003
  901MOL0     H24270   7.716   8.325   1.962 -2.4411  1.1278  0.8920
  901MOL0     H24271   7.932   8.609   1.984  1.2378 -0.8208 -0.8051
  901MOL0     H24272   7.758   8.611   1.945  0.1042  0.2383 -0.3134
  901MOL0     H24273   7.803   8.736   1.727 -1.1150 -2.1294  1.3190
  901MOL0     H24274   7.882   8.818   1.870 -0.0271 -2.0299  1.7269
  901MOL0     H24275   8.033   8.649   1.670  3.5397  0.4781  0.9221
  901MOL0     H24276   8.024   8.816   1.670  1.2133 -2.1250 -2.8687
  901MOL0     H24277   8.117   8.805   1.917 -0.7956 -0.1566 -0.2036
  901MOL0     H24278   8.149   8.629   1.857 -2.3190 -0.9840 -4.4519
  901MOL0     H24279   8.345   8.807   1.841  1.9123 -0.6282 -3.2039
  901MOL0     H24280   8.230   8.899   1.746 -0.5609  0.5262  1.7898
  901MOL0     H24281   8.261   8.617   1.633  1.5034  0.3912  0.9546
  901MOL0     H24282   8.240   8.767   1.545  1.0738  0.7798  0.3055
  901MOL0     H24283   8.504   8.717   1.687 -0.5762  1.7433  2.2310
  901MOL0     H24284   8.456   8.838   1.575 -0.5958 -0.0682  1.6266
  901MOL0     H24285   8.448   8.546   1.493  2.0275  0.4478  1.3938
  901MOL0     H24286   8.377   8.688   1.408  0.4187 -0.6765 -0.7177
  901MOL0     H24287   8.711   8.525   1.501 -0.2939  0.3290 -0.0035
  901MOL0     H24288   8.936   8.528   1.438  0.0275 -0.5085 -1.1376
  901MOL0     H24289   9.011   8.688   1.423 -1.7753  0.6549  1.2509
  901MOL0     H24290   8.964   8.636   1.165 -3.0228  0.5400  3.1018
  901MOL0     H24291   9.118   8.586   1.236  0.5499 -0.2222 -1.4739
  901MOL0     H24292   8.863   8.399   1.219 -0.4790  1.2821  1.6774
  901MOL0     H24293   8.991   8.398   1.104  1.5313 -1.5582  0.8784
  901MOL0     H24294   8.994   8.305   1.399  2.8329 -1.1983  1.5749
  901MOL0     H24295   9.046   8.224   1.245 -0.7048  0.7507 -2.0154
  901MOL0     H24296   9.419   8.402   1.257 -0.8316 -1.3967 -3.2974
  901MOL0     H24297   9.657   8.373   1.280  0.4428 -0.2122  1.1917
  901MOL0     H24298   9.659   8.249   1.159  0.1824 -1.6977 -0.1741
  901MOL0     H24299   9.722   8.213   1.330 -0.2556 -0.6319 -1.3103
  901MOL0     H24300   9.894   8.016   1.169 -0.5308 -0.0481  1.5695
  901MOL0     H24301  10.087   7.844   1.127 -0.0537  1.3647 -1.9048
  901MOL0     H24302  10.243   7.677   1.208  2.2190 -1.0280 -1.2066
  901MOL0     H24303  10.257   7.504   1.202  2.2968  1.8478  0.5853
  901MOL0     H24304  10.108   7.650   0.983 -2.4752 -4.4325 -0.9535
  901MOL0     H24305  10.288   7.633   0.985  1.0468 -0.6079  1.3049
  901MOL0     H24306  10.130   7.452   0.859 -2.0000 -1.0440  1.7340
  901MOL0     H24307  10.100   7.399   1.032  1.8709 -0.2557  2.9836
  901MOL0     H24308  10.353   7.368   1.065 -0.9947  2.0604  0.8322
  901MOL0     H24309  10.379   7.388   0.895  1.5460  0.9204  1.8084
  901MOL0     H24310  10.364   7.147   0.974 -0.9159 -0.5074  1.2452
  901MOL0     H24311  10.200   7.159   1.016  0.2249 -0.4391  0.4461
  901MOL0     H24312  10.360   7.155   0.767  0.9996  0.3809  0.5750
  901MOL0     H24313  10.211   7.248   0.744  0.8309  0.4138  1.0322
  901MOL0     H24314  10.233   6.950   0.823  0.9633  0.6502  1.7658
  901MOL0     H24315  10.185   7.020   0.658 -2.4142 -0.7975  1.3658
  901MOL0     H24316  10.024   7.089   0.905 -0.1210 -0.4922  0.3243
  901MOL0     H24317   9.981   6.945   0.803  1.1956 -1.0625  2.5515
  901MOL0     H24318   9.816   7.549   1.277  2.0588 -0.6040  3.2236
  901MOL0     H24319   9.642   7.712   1.309 -0.3774  0.3678 -1.6398
  901MOL0     H24320   9.334   7.969   1.473 -0.2422  0.3911  0.2041
  901MOL0     H24321   9.153   8.120   1.443 -1.2421  1.7658 -1.7636
  901MOL0     H24322   7.796   8.506   1.583  0.0063  0.5503  0.3236
  901MOL0     H24323   7.609   8.376   1.489  0.5245 -3.2271 -0.5489
  901MOL0     H24324   7.192   8.257   1.586  0.7651  0.4341  1.7716
  901MOL0     H24325   6.950   8.209   1.588 -2.0509 -1.7479  2.1090
  901MOL0     H24326   6.800   8.182   1.813  0.2307 -0.2332  0.6657
  901MOL0     H24327   6.660   8.088   1.769 -0.3260  0.5535  0.3868
  901MOL0     H24328   6.670   8.065   2.001 -0.6131 -1.5538 -0.0535
  901MOL0     H24329   6.832   7.977   1.995  0.4402  0.5987 -0.6253
  901MOL0     H24330   6.627   7.848   2.035  2.2124  0.3147  0.3185
  901MOL0     H24331   6.566   7.885   1.873  0.4484  0.1066 -0.2416
  901MOL0     H24332   6.789   7.788   1.776 -1.7993  1.6065 -0.4200
  901MOL0     H24333   6.666   7.682   1.839  0.9590 -0.9182  1.3939
  901MOL0     H24334   7.008   7.649   2.103 -1.3791  1.7100  2.6469
  901MOL0     H24335   7.023   7.858   1.815  2.5825 -0.2145  2.3287
  901MOL0     H24336   7.361   7.825   1.806  0.3165 -2.0484  2.3754
  901MOL0     H24337   7.355   7.962   1.913  0.9128 -1.4390  0.4186
  901MOL0     H24338   7.237   7.844   1.936  4.4266  1.1087  4.8597
  902MOL0     O24339   9.758   2.923   0.049 -0.7215 -0.1769 -0.5391
  902MOL0     C24340   9.725   3.033   0.087 -0.2805 -1.5322  0.2501
  902MOL0     O24341   9.816   3.143   0.096 -0.6538 -0.0104 -0.1036
  902MOL0     C24342   9.945   3.150   0.045 -0.2338 -0.4980 -0.4917
  902MOL0     C24343   9.996   3.277   0.046 -0.2956  0.0669 -0.2986
  902MOL0     C24344  10.135   3.300   0.017  0.2325 -0.9894 -0.5058
  902MOL0     C24345  10.202   3.203  -0.044 -0.3507 -0.3660 -0.0878
  902MOL0     O24346  10.332   3.226  -0.088  1.0704 -0.2283 -0.2993
  902MOL0     C24347  10.424   3.121  -0.070  0.4245  0.1036 -0.0467
  902MOL0     C24348  10.573   3.153  -0.062 -0.3992 -0.2754  0.0649
  902MOL0     C24349  10.604   3.252   0.051  0.0874 -0.1910 -0.0873
  902MOL0     C24350  10.543   3.211   0.187 -0.0857  0.0186 -0.7955
  902MOL0     C24351  10.567   3.306   0.303  0.3165  0.0838 -0.4070
  902MOL0     C24352  10.708   3.354   0.317  0.5652  0.1628  0.9060
  902MOL0     C24353  10.745   3.357   0.462  0.1036  0.6485 -0.6124
  902MOL0     C24354  10.904   3.346   0.474 -0.0110  0.0962  0.6491
  902MOL0     N24355  10.938   3.281   0.592 -1.2697  0.5943 -1.0091
  902MOL0     C24356  10.860   3.281   0.704 -0.5727 -0.1016 -1.0171
  902MOL0     C24357  10.922   3.192   0.786 -0.6951  0.3449  0.3693
  902MOL0     C24358  10.863   3.150   0.920  0.9111  0.6768  0.5287
  902MOL0     C24359  10.860   3.262   1.016  1.0829  0.0035 -0.1005
  902MOL0     C24360  10.826   3.223   1.156 -0.3894  1.4028 -1.2386
  902MOL0     C24361  10.694   3.167   1.169 -0.0865 -0.1860  0.2413
  902MOL0     O24362  10.585   3.270   1.148 -0.0981 -0.5672  0.9215
  902MOL0     C24363  10.486   3.264   1.237  1.6804 -0.0613 -0.6736
  902MOL0     C24364  10.364   3.222   1.195 -0.5350  0.0093 -1.5407
  902MOL0     C24365  10.256   3.230   1.280  0.7558  0.2248 -0.2961
  902MOL0     C24366  10.115   3.189   1.234  0.2934  0.1065 -0.4223
  902MOL0     C24367  10.283   3.266   1.412 -0.3176 -0.2934 -0.5377
  902MOL0     C24368  10.171   3.288   1.512 -0.3427  0.1318 -0.4427
  902MOL0     O24369  10.190   3.399   1.598 -0.4713  0.0339  0.0918
  902MOL0     C24370  10.092   3.425   1.685 -0.7695 -0.0814 -0.0451
  902MOL0     C24371  10.122   3.432   1.823 -0.4245  0.0537  0.6902
  902MOL0     C24372  10.021   3.465   1.907  0.1819 -0.0027  0.3794
  902MOL0     C24373   9.888   3.496   1.867  0.3021 -0.4364  0.1224
  902MOL0     O24374   9.789   3.544   1.945 -0.1997 -0.2565  1.4789
  902MOL0     C24375   9.839   3.636   2.048  0.1326  0.9933  0.8862
  902MOL0     C24376   9.735   3.739   2.098 -0.5733  0.4383 -0.1444
  902MOL0     C24377   9.654   3.815   1.998 -0.0965  0.2899 -0.0441
  902MOL0     C24378   9.547   3.906   2.062 -0.5867  0.0351 -0.2629
  902MOL0     C24379   9.424   3.950   1.986 -0.4701 -0.2369  1.4178
  902MOL0     C24380   9.358   4.063   2.058  0.0013  0.1932  0.1055
  902MOL0     C24381   9.232   4.131   1.989 -1.0113  0.4942  0.2637
  902MOL0     C24382   9.161   4.232   2.074  0.3132  0.4279 -0.0527
  902MOL0    Cl24383   9.044   4.333   1.972  0.3474  0.0115  0.4457
  902MOL0     C24384   9.854   3.468   1.735  0.5382 -1.0798  0.7362
  902MOL0     C24385   9.959   3.436   1.646  0.9949  0.0880 -0.2819
  902MOL0     O24386  10.074   3.216   1.509 -0.1423  0.4592 -0.1273
  902MOL0     C24387  10.411   3.306   1.456  0.2678  0.7939 -0.6743
  902MOL0     C24388  10.511   3.297   1.364 -0.2265 -0.1352 -0.7533
  902MOL0     N24389  11.035   3.132   0.724 -0.7243  0.0992  0.1092
  902MOL0     N24390  11.035   3.178   0.602  0.0804  1.5352 -0.7400
  902MOL0     C24391  10.147   3.084  -0.069  0.9513  0.0922 -0.3356
  902MOL0     C24392  10.021   3.052  -0.018 -0.3511  0.0076 -0.1050
  902MOL0     C24393   9.592   3.057   0.135  0.6179 -0.0497  0.1485
  902MOL0     C24394   9.545   2.965   0.229  0.6125  0.0713  0.2518
  902MOL0     C24395   9.423   2.984   0.295 -0.6211 -0.9618 -0.1361
  902MOL0     C24396   9.350   3.094   0.249 -1.1599  0.0414 -0.4992
  902MOL0     O24397   9.231   3.093   0.315  0.0682 -0.7251 -0.0968
  902MOL0     C24398   9.133   3.193   0.263  0.1207  0.0177 -0.8602
  902MOL0     C24399   9.000   3.198   0.343 -0.3048 -0.2591 -0.4411
  902MOL0     C24400   8.945   3.063   0.363 -0.0252  0.9282 -0.2133
  902MOL0     C24401   8.924   2.984   0.232 -0.0612  0.1106  0.1659
  902MOL0     C24402   8.817   2.881   0.233 -0.1845  0.0325  0.4935
  902MOL0     C24403   8.733   2.794   0.242  0.6440 -0.6487  0.2293
  902MOL0     C24404   9.399   3.189   0.161  0.6331  1.0298  0.2680
  902MOL0     C24405   9.523   3.173   0.097  0.6006  0.9094  0.6877
  902MOL0     C24406   9.584   3.250  -0.014 -0.7304 -0.3474  0.3476
  902MOL0     H24407   9.922   3.349   0.080 -0.3893 -1.2574  2.5797
  902MOL0     H24408  10.187   3.394   0.035 -0.4153 -0.7243  0.0019
  902MOL0     H24409  10.424   3.052  -0.155 -2.0222  0.0429 -0.0761
  902MOL0     H24410  10.391   3.056   0.012 -0.4502  0.0331 -0.4432
  902MOL0     H24411  10.631   3.063  -0.040 -0.9411 -0.9248 -1.0902
  902MOL0     H24412  10.605   3.194  -0.159 -0.4862  1.2050  0.6296
  902MOL0     H24413  10.712   3.264   0.063 -0.0057  0.6200  0.0237
  902MOL0     H24414  10.569   3.354   0.032 -1.1098 -0.5789 -0.0251
  902MOL0     H24415  10.435   3.222   0.173 -0.4736 -1.7986  0.4354
  902MOL0     H24416  10.563   3.110   0.222  1.2391  0.9321  1.2823
  902MOL0     H24417  10.540   3.243   0.389 -1.2979  0.5208 -0.5457
  902MOL0     H24418  10.495   3.388   0.295 -0.7534 -0.7496  0.3131
  902MOL0     H24419  10.769   3.277   0.270 -1.6635  0.0191 -2.0574
  902MOL0     H24420  10.715   3.457   0.280 -5.0738  0.9380  1.1194
  902MOL0     H24421  10.698   3.276   0.517  1.2065 -0.0950 -0.7406
  902MOL0     H24422  10.710   3.452   0.504 -3.2104  0.2853 -2.2279
  902MOL0     H24423  10.951   3.292   0.391 -0.0859 -0.7893  1.1686
  902MOL0     H24424  10.942   3.448   0.470 -1.1622  0.5037 -1.7359
  902MOL0     H24425  10.780   3.348   0.734  0.4467  1.6358 -1.9887
  902MOL0     H24426  10.925   3.071   0.963 -3.1319 -1.5071  2.9773
  902MOL0     H24427  10.764   3.107   0.906  0.7882  1.4098 -1.1289
  902MOL0     H24428  10.961   3.305   1.016  0.7534  0.8010 -1.1713
  902MOL0     H24429  10.807   3.352   0.984 -0.8179  0.0970  2.9449
  902MOL0     H24430  10.892   3.144   1.192 -1.9077 -0.8869 -3.1553
  902MOL0     H24431  10.839   3.308   1.223  0.7689  0.3561 -0.0869
  902MOL0     H24432  10.678   3.082   1.102  2.0298  1.9595 -3.3347
  902MOL0     H24433  10.697   3.123   1.269 -2.5033 -3.5097 -0.9766
  902MOL0     H24434  10.342   3.203   1.090  0.4633 -1.5276 -1.4954
  902MOL0     H24435  10.086   3.097   1.286  0.6456  0.3498  0.2156
  902MOL0     H24436  10.122   3.159   1.129  0.4520 -0.6624 -0.2023
  902MOL0     H24437  10.041   3.269   1.240  2.5873  2.5252 -2.1976
  902MOL0     H24438  10.227   3.422   1.847 -0.0284  0.2556 -0.8506
  902MOL0     H24439  10.054   3.474   2.010  1.2703 -0.4343  0.0838
  902MOL0     H24440   9.877   3.579   2.133  1.5251  0.6347  0.0722
  902MOL0     H24441   9.926   3.690   2.007  1.9767 -1.2772  1.5671
  902MOL0     H24442   9.673   3.684   2.169  0.3597  1.9903  1.9853
  902MOL0     H24443   9.768   3.814   2.170 -0.8154 -1.6471  2.3050
  902MOL0     H24444   9.618   3.737   1.930 -0.4300  0.1131  0.3309
  902MOL0     H24445   9.709   3.880   1.930  3.8495 -1.3848  1.2542
  902MOL0     H24446   9.604   3.995   2.089  1.1686 -2.0676  3.8477
  902MOL0     H24447   9.520   3.865   2.160  0.1253  0.8870  0.2969
  902MOL0     H24448   9.454   3.982   1.886 -0.3010 -1.0442  1.2008
  902MOL0     H24449   9.349   3.871   1.969  0.2303 -0.4152 -1.4009
  902MOL0     H24450   9.433   4.141   2.078  0.3808  0.3882 -1.9000
  902MOL0     H24451   9.316   4.030   2.154 -1.4882 -4.0603 -1.7569
  902MOL0     H24452   9.165   4.051   1.957  1.8133 -2.1419  0.5263
  902MOL0     H24453   9.279   4.180   1.903  0.4017  0.4986  1.0040
  902MOL0     H24454   9.238   4.298   2.115 -1.3058  2.4409 -0.0691
  902MOL0     H24455   9.112   4.176   2.154  2.4213 -0.7075  0.5244
  902MOL0     H24456   9.751   3.477   1.700  1.4892 -1.4497 -2.5109
  902MOL0     H24457   9.926   3.416   1.545 -2.0337  1.1865  0.3962
  902MOL0     H24458  10.425   3.327   1.561 -2.2777  0.6658 -0.2477
  902MOL0     H24459  10.610   3.339   1.381  0.6208 -0.5275 -4.0618
  902MOL0     H24460  10.198   3.008  -0.128  0.3381  0.2576 -1.1042
  902MOL0     H24461   9.988   2.951  -0.041 -1.7202  0.7963 -1.8893
  902MOL0     H24462   9.604   2.877   0.252 -0.3032 -0.3797  0.9191
  902MOL0     H24463   9.404   2.909   0.371  1.3699 -0.8548  0.5188
  902MOL0     H24464   9.172   3.296   0.265 -1.5219  0.6608  0.2963
  902MOL0     H24465   9.106   3.156   0.164  0.2154  0.5759 -1.0978
  902MOL0     H24466   8.931   3.269   0.296 -0.8585 -1.6795 -1.8777
  902MOL0     H24467   9.021   3.233   0.444 -1.2405  1.8257 -0.9246
  902MOL0     H24468   9.014   2.997   0.417  0.8905 -1.6192 -4.1236
  902MOL0     H24469   8.856   3.070   0.428  1.0674 -0.8563  1.6155
  902MOL0     H24470   9.023   2.942   0.208  1.2237  2.7479  0.4780
  902MOL0     H24471   8.895   3.054   0.154  0.2508  2.6873  2.2521
  902MOL0     H24472   8.650   2.728   0.251  1.7439 -1.8141  2.3367
  902MOL0     H24473   9.346   3.276   0.123 -0.7303 -0.5405 -1.5975
  902MOL0     H24474   9.497   3.305  -0.052 -0.6723 -0.9630 -0.7162
  902MOL0     H24475   9.659   3.326   0.009  0.2371 -0.3985 -2.2939
  902MOL0     H24476   9.638   3.196  -0.092  1.4143  1.4813  0.4534
  903MOL0     O24477   4.992   0.186   1.637  0.2154  0.2561 -0.0522
  903MOL0     C24478   4.975   0.083   1.707 -0.1723 -0.0753  0.3607
  903MOL0     O24479   4.878   0.065   1.799  0.1465  0.0522 -0.4625
  903MOL0     C24480   4.804   0.170   1.845  0.8181 -0.6944 -0.0242
  903MOL0     C24481   4.856   0.268   1.935 -0.4842 -0.3784  0.6477
  903MOL0     C24482   4.772   0.375   1.981  0.1856  0.8254  0.2529
  903MOL0     C24483   4.637   0.375   1.953  0.0993 -0.1621  0.2378
  903MOL0     O24484   4.546   0.455   2.002  0.2638  0.7964  0.3102
  903MOL0     C24485   4.529   0.432   2.143  0.9545  0.3090 -0.0292
  903MOL0     C24486   4.380   0.490   2.177 -0.6746 -0.2819  0.1825
  903MOL0     C24487   4.325   0.448   2.316 -0.3419  0.8099  0.0537
  903MOL0     C24488   4.204   0.538   2.357  0.3390  0.8404 -0.7669
  903MOL0     C24489   4.169   0.545   2.504  0.3405  0.0786 -0.3140
  903MOL0     C24490   4.093   0.424   2.548  0.4738  0.9016 -0.7101
  903MOL0     C24491   4.056   0.406   2.698  0.5157 -0.0422  0.3186
  903MOL0     C24492   3.980   0.529   2.753  0.4861 -0.9676  1.0300
  903MOL0     N24493   3.913   0.484   2.879 -0.0700 -0.8160  0.1879
  903MOL0     C24494   3.776   0.466   2.901  1.1967 -0.0353  0.9182
  903MOL0     C24495   3.770   0.426   3.030 -0.5252  0.4538  0.5200
  903MOL0     C24496   3.651   0.390   3.112  0.3035 -0.3608 -0.6712
  903MOL0     C24497   3.566   0.510   3.156 -0.1251 -0.1110 -0.8282
  903MOL0     C24498   3.465   0.553   3.043 -0.3086  0.1863 -0.1222
  903MOL0     C24499   3.471   0.704   3.002 -0.4231  0.2800 -0.2841
  903MOL0     O24500   3.599   0.731   2.954  0.8674 -0.1982  0.5760
  903MOL0     C24501   3.636   0.847   2.893 -0.4889  0.4579 -0.6333
  903MOL0     C24502   3.771   0.871   2.886 -0.3800  0.6890 -0.8130
  903MOL0     C24503   3.823   0.985   2.819  1.0049 -0.7598  0.6456
  903MOL0     C24504   3.962   1.005   2.811 -0.7433 -0.8129 -0.8734
  903MOL0     C24505   3.732   1.079   2.755  0.1549  0.4566  0.1807
  903MOL0     C24506   3.763   1.205   2.674  0.4438 -0.3722  0.1341
  903MOL0     O24507   3.677   1.248   2.586 -0.0019  0.6491 -0.4815
  903MOL0     C24508   3.681   1.369   2.534 -0.0908 -0.9850  1.0886
  903MOL0     C24509   3.617   1.376   2.412  0.1951 -0.5911  0.5390
  903MOL0     C24510   3.604   1.496   2.344 -0.3739 -1.3344  0.0678
  903MOL0     C24511   3.676   1.610   2.393 -0.1282 -0.5394 -0.8963
  903MOL0     O24512   3.668   1.735   2.337 -0.2516 -1.1942  0.0659
  903MOL0     C24513   3.780   1.815   2.357 -0.1296  0.4434 -0.3128
  903MOL0     C24514   3.778   1.937   2.260  0.6682 -1.3336  0.5647
  903MOL0     C24515   3.694   2.048   2.319  1.2493 -0.0603 -0.1474
  903MOL0     C24516   3.718   2.179   2.253 -1.0411 -0.1337  0.0286
  903MOL0     C24517   3.599   2.279   2.254 -0.6914 -1.0446 -0.2138
  903MOL0     C24518   3.572   2.346   2.387  0.6479  0.0058  0.2985
  903MOL0     C24519   3.696   2.396   2.469  0.8181  0.9868 -0.6654
  903MOL0     C24520   3.658   2.465   2.597  0.2850  0.2879  0.3594
  903MOL0    Cl24521   3.575   2.354   2.717 -0.0160 -0.0028  0.3105
  903MOL0     C24522   3.740   1.602   2.522  0.2253 -0.2617 -0.2432
  903MOL0     C24523   3.739   1.487   2.592  1.1436 -0.2425 -0.2549
  903MOL0     O24524   3.870   1.255   2.699 -0.1280 -0.2200 -0.1611
  903MOL0     C24525   3.596   1.055   2.778 -0.4864  0.3611 -0.0604
  903MOL0     C24526   3.550   0.939   2.840  0.2166  0.4621  0.8036
  903MOL0     N24527   3.899   0.427   3.083  0.6249  0.5292  0.2341
  903MOL0     N24528   3.982   0.455   2.989  0.9581 -0.3081 -0.6517
  903MOL0     C24529   4.589   0.272   1.878 -0.0478 -0.6856  0.2570
  903MOL0     C24530   4.670   0.171   1.822 -0.1290  0.9489 -0.4022
  903MOL0     C24531   5.072  -0.028   1.678 -0.5750  0.3689 -0.4780
  903MOL0     C24532   5.040  -0.162   1.724 -0.3799  0.3136 -0.1599
  903MOL0     C24533   5.136  -0.263   1.703  0.8062  0.4781  0.1545
  903MOL0     C24534   5.250  -0.244   1.623  0.9000 -0.2034  0.2254
  903MOL0     O24535   5.339  -0.352   1.629  0.0125  0.1365 -0.1449
  903MOL0     C24536   5.458  -0.346   1.547  0.1134  0.3410  0.4599
  903MOL0     C24537   5.589  -0.317   1.633 -1.1109 -0.3065 -0.6122
  903MOL0     C24538   5.717  -0.347   1.564 -0.0499  0.2872  2.0647
  903MOL0     C24539   5.727  -0.309   1.411 -0.7948  0.9189 -0.3733
  903MOL0     C24540   5.743  -0.160   1.389 -0.5040 -0.1015  0.4697
  903MOL0     C24541   5.760  -0.041   1.360 -0.0309  0.1869 -0.5630
  903MOL0     C24542   5.288  -0.112   1.583  0.5963  0.6078  0.2858
  903MOL0     C24543   5.203  -0.007   1.616  0.1167  1.0321  0.6624
  903MOL0     C24544   5.260   0.121   1.569 -0.6587 -0.7816  0.2089
  903MOL0     H24545   4.963   0.270   1.956 -0.0120 -0.8270 -1.4380
  903MOL0     H24546   4.819   0.450   2.043  0.5073  1.3069 -0.5577
  903MOL0     H24547   4.597   0.498   2.198 -2.0859  3.1253  0.7077
  903MOL0     H24548   4.539   0.328   2.176 -1.0490  0.8611  2.7380
  903MOL0     H24549   4.396   0.598   2.173 -1.5450 -0.0931  1.2845
  903MOL0     H24550   4.311   0.460   2.098  0.5733  1.1506 -1.5406
  903MOL0     H24551   4.299   0.342   2.326  2.0578  0.3249  2.6437
  903MOL0     H24552   4.408   0.474   2.383  1.7778 -1.7025 -1.3774
  903MOL0     H24553   4.217   0.645   2.337 -1.5606  1.1340 -0.6090
  903MOL0     H24554   4.125   0.502   2.290  0.5566 -1.7587  0.2676
  903MOL0     H24555   4.112   0.638   2.516  2.7689  1.4707  1.2899
  903MOL0     H24556   4.261   0.554   2.561  0.4314  2.2990 -0.7013
  903MOL0     H24557   4.004   0.403   2.487 -0.2906  1.2580  0.2590
  903MOL0     H24558   4.164   0.344   2.525  0.8772  0.3501  2.0922
  903MOL0     H24559   4.151   0.396   2.752  3.6107 -1.8854 -4.7371
  903MOL0     H24560   3.992   0.318   2.705  1.9640 -1.1159  0.4992
  903MOL0     H24561   4.029   0.625   2.769 -0.0662 -1.0077  3.2958
  903MOL0     H24562   3.897   0.546   2.683  1.1127 -3.4872 -0.4702
  903MOL0     H24563   3.683   0.488   2.849  0.9973 -0.2991  1.1582
  903MOL0     H24564   3.684   0.337   3.201  0.5179  0.1135 -0.4642
  903MOL0     H24565   3.585   0.316   3.066 -1.4591 -0.7214  2.2270
  903MOL0     H24566   3.508   0.473   3.241 -1.0895  0.0845 -1.3793
  903MOL0     H24567   3.632   0.592   3.184 -0.8641 -0.1166  1.0002
  903MOL0     H24568   3.483   0.504   2.947  0.9942  1.1886 -0.4152
  903MOL0     H24569   3.366   0.524   3.078 -0.4911 -0.9492 -1.4693
  903MOL0     H24570   3.398   0.728   2.924 -1.3695  2.2996  1.1254
  903MOL0     H24571   3.457   0.761   3.095 -3.2438  0.2022 -0.5579
  903MOL0     H24572   3.835   0.796   2.929 -1.6479 -2.8445 -4.4981
  903MOL0     H24573   3.999   1.026   2.710 -2.2392 -0.9510 -1.4852
  903MOL0     H24574   4.011   0.909   2.829  0.6121 -0.3436 -1.8816
  903MOL0     H24575   3.993   1.084   2.879 -1.4747 -0.9921 -0.3186
  903MOL0     H24576   3.571   1.290   2.364 -2.0641  0.9897 -0.3221
  903MOL0     H24577   3.550   1.489   2.250 -3.0805  2.1274  1.1266
  903MOL0     H24578   3.790   1.855   2.458  0.5191  0.1185 -0.2416
  903MOL0     H24579   3.872   1.761   2.333 -0.6780 -0.4592 -0.4454
  903MOL0     H24580   3.879   1.978   2.259  0.4573 -0.5949  2.9081
  903MOL0     H24581   3.747   1.918   2.157 -0.6378  0.8476  0.5095
  903MOL0     H24582   3.711   2.063   2.426 -0.7937  0.2899  0.1706
  903MOL0     H24583   3.587   2.024   2.322  1.0262  0.9609  1.5689
  903MOL0     H24584   3.740   2.158   2.148 -4.4168  0.1422 -0.8453
  903MOL0     H24585   3.814   2.223   2.282 -0.9539  0.8157 -1.6037
  903MOL0     H24586   3.629   2.360   2.187 -2.7633  1.4180  1.6386
  903MOL0     H24587   3.507   2.230   2.219 -0.5165 -1.5790  0.0603
  903MOL0     H24588   3.526   2.264   2.443 -2.3229  1.0642 -0.4069
  903MOL0     H24589   3.495   2.420   2.362  0.4779  0.5816  2.3242
  903MOL0     H24590   3.759   2.465   2.413  1.4312 -0.8099 -2.2907
  903MOL0     H24591   3.762   2.312   2.491  0.6496  0.7244 -1.1411
  903MOL0     H24592   3.591   2.547   2.571  0.4043 -0.9917 -5.3104
  903MOL0     H24593   3.754   2.504   2.631  0.0666  0.1118  1.2134
  903MOL0     H24594   3.783   1.691   2.567  3.3022 -2.5990  1.8164
  903MOL0     H24595   3.782   1.467   2.690 -1.7978 -5.6407  0.3237
  903MOL0     H24596   3.519   1.125   2.748  1.0700  2.1901  0.0857
  903MOL0     H24597   3.443   0.921   2.845 -0.3347  0.9363 -4.1504
  903MOL0     H24598   4.482   0.255   1.872 -0.0997  0.0406 -1.6856
  903MOL0     H24599   4.634   0.094   1.756 -1.2428  2.5503 -1.7319
  903MOL0     H24600   4.952  -0.191   1.780 -0.4150  1.5349  0.4532
  903MOL0     H24601   5.122  -0.358   1.753  0.7935 -0.1832 -1.0703
  903MOL0     H24602   5.451  -0.445   1.501 -2.2102  0.9105 -0.5627
  903MOL0     H24603   5.453  -0.277   1.462 -3.1178  2.4556  2.1197
  903MOL0     H24604   5.589  -0.370   1.728 -1.0626  3.7902  1.9352
  903MOL0     H24605   5.596  -0.212   1.664 -2.5428 -0.8068  1.5909
  903MOL0     H24606   5.797  -0.289   1.612  2.0865 -0.6505 -0.1502
  903MOL0     H24607   5.737  -0.454   1.561  1.9272  0.6352 -0.5270
  903MOL0     H24608   5.645  -0.351   1.351  0.1966 -0.9775 -0.4818
  903MOL0     H24609   5.822  -0.358   1.387  0.2274  1.4216  2.3614
  903MOL0     H24610   5.765   0.064   1.343  0.0884  0.5627  1.5379
  903MOL0     H24611   5.375  -0.085   1.524  0.4702 -0.9407 -0.6703
  903MOL0     H24612   5.257   0.134   1.460  0.1395 -0.4792  0.2172
  903MOL0     H24613   5.214   0.216   1.600 -3.1657 -2.5423  2.2939
  903MOL0     H24614   5.368   0.125   1.585 -0.7468 -0.2440  0.7200
  904MOL0     O24615   0.219   4.505  10.987 -0.6724  0.3309  0.4317
  904MOL0     C24616   0.335   4.546  10.959  0.4160 -0.2052  0.3526
  904MOL0     O24617   0.429   4.480  10.883 -0.4353 -0.6200  0.2796
  904MOL0     C24618   0.399   4.362  10.832  0.5103  0.6558 -0.0398
  904MOL0     C24619   0.488   4.257  10.843 -0.9025  0.3529 -0.5149
  904MOL0     C24620   0.474   4.137  10.771 -0.7577  0.0470  1.0659
  904MOL0     C24621   0.367   4.131  10.678  0.3833 -0.3071  0.5498
  904MOL0     O24622   0.360   4.016  10.600  0.7563  0.5520  0.1153
  904MOL0     C24623   0.270   3.997  10.487  0.4945  0.4780  0.4347
  904MOL0     C24624   0.266   4.109  10.380  0.2879  0.3462 -0.3422
  904MOL0     C24625   0.391   4.094  10.294  0.6291  0.2687  0.3313
  904MOL0     C24626   0.501   4.193  10.331 -0.2310 -0.6395 -0.4172
  904MOL0     C24627   0.652   4.144  10.279  1.6866  0.4315 -0.0581
  904MOL0     C24628   0.648   4.115  10.130  0.2984 -0.4674  0.3408
  904MOL0     C24629   0.590   4.221  10.026  0.4129  0.3313 -0.5889
  904MOL0     C24630   0.629   4.360  10.033 -0.4776  0.4330 -0.1916
  904MOL0     N24631   0.780   4.380  10.044  1.0359  0.6711 -0.0155
  904MOL0     C24632   0.869   4.324   9.959  1.0168  1.3537 -0.9825
  904MOL0     C24633   0.997   4.341  10.008  0.6939  0.1678  0.3866
  904MOL0     C24634   1.128   4.290   9.957  0.5426  0.6643 -0.7663
  904MOL0     C24635   1.183   4.182  10.054  0.4552 -0.1464  0.7545
  904MOL0     C24636   1.107   4.045  10.062 -0.2612 -0.8516  0.5800
  904MOL0     C24637   1.040   4.019  10.190  0.4508 -0.1628 -0.0504
  904MOL0     O24638   1.138   3.984  10.292  0.5622  0.7145  0.0389
  904MOL0     C24639   1.089   3.987  10.415  0.5374  0.1195 -0.5555
  904MOL0     C24640   1.155   4.056  10.518  0.4210 -0.2760  0.3611
  904MOL0     C24641   1.118   4.054  10.650 -0.9465 -0.0686  0.1139
  904MOL0     C24642   1.209   4.118  10.752 -0.3410  0.4823  0.1784
  904MOL0     C24643   0.988   4.018  10.685  1.0862  0.1601 -1.0527
  904MOL0     C24644   0.928   4.002  10.829  0.2209 -1.0903  0.1448
  904MOL0     O24645   1.022   3.974  10.920  0.6353 -0.0108 -0.2551
  904MOL0     C24646   1.008   4.023  11.047  0.5156 -0.2930 -0.2367
  904MOL0     C24647   0.928   3.950  11.141 -0.2158 -0.2299 -1.0044
  904MOL0     C24648   0.902   4.008  11.274  0.3787 -0.2820  0.6447
  904MOL0     C24649   0.948   4.135  11.317 -0.0123  0.5836 -0.2927
  904MOL0     O24650   0.914   4.190  11.444  0.4588 -0.2986  0.2860
  904MOL0     C24651   0.857   4.114  11.555 -0.0971 -1.0017  0.5831
  904MOL0     C24652   0.812   4.218  11.657  0.1486 -0.2591 -0.5083
  904MOL0     C24653   0.868   4.355  11.660 -0.8324 -0.2476 -0.6748
  904MOL0     C24654   1.005   4.354  11.731 -0.9618  0.2037 -0.2379
  904MOL0     C24655   1.086   4.479  11.714  1.0770  0.5470  0.8726
  904MOL0     C24656   1.226   4.454  11.739  0.5324  0.3530  0.2671
  904MOL0     C24657   1.299   4.587  11.714  0.0337 -0.2620 -0.3382
  904MOL0     C24658   1.448   4.567  11.757 -0.1675 -0.8768 -0.8449
  904MOL0    Cl24659   1.445   4.573  11.937 -0.0212  0.3447  0.1634
  904MOL0     C24660   1.019   4.209  11.220  0.7837 -0.7592  0.2420
  904MOL0     C24661   1.050   4.154  11.094 -0.5945  0.6485 -0.3231
  904MOL0     O24662   0.804   4.007  10.845 -0.1601  0.4870 -0.0354
  904MOL0     C24663   0.904   3.968  10.581 -0.7190 -1.0101  0.1073
  904MOL0     C24664   0.957   3.945  10.458  0.0223 -0.4918  0.3175
  904MOL0     N24665   0.972   4.405  10.133  0.1884  0.2897 -0.2961
  904MOL0     N24666   0.845   4.435  10.150  0.0556  0.3294  0.0548
  904MOL0     C24667   0.265   4.226  10.676 -0.6753  1.0927  1.1356
  904MOL0     C24668   0.282   4.334  10.756  0.8785  0.1563  1.0087
  904MOL0     C24669   0.381   4.676  11.025  0.5578 -0.6740 -0.2235
  904MOL0     C24670   0.354   4.689  11.161  0.4731 -0.2603 -0.3636
  904MOL0     C24671   0.420   4.785  11.235  1.2065 -0.6825 -0.2579
  904MOL0     C24672   0.489   4.892  11.177  0.7726  0.8277 -0.9462
  904MOL0     O24673   0.536   4.984  11.264 -0.2145  0.1149  0.0507
  904MOL0     C24674   0.572   5.119  11.222  0.9696  0.9419 -0.1117
  904MOL0     C24675   0.716   5.119  11.230 -1.0255 -0.3943  0.2130
  904MOL0     C24676   0.787   5.232  11.170  0.4773  0.3962  0.9586
  904MOL0     C24677   0.761   5.250  11.009  0.3145 -0.2092 -0.2714
  904MOL0     C24678   0.645   5.334  10.985 -0.0373 -0.7979  1.0208
  904MOL0     C24679   0.549   5.412  10.974  0.9653  0.1417  0.1676
  904MOL0     C24680   0.510   4.879  11.041 -0.0195  0.4034 -0.5837
  904MOL0     C24681   0.468   4.765  10.964 -0.0362 -0.4147 -0.0016
  904MOL0     C24682   0.525   4.755  10.821  0.1007  0.4110  0.2026
  904MOL0     H24683   0.574   4.265  10.910 -1.5981 -1.1638  0.6212
  904MOL0     H24684   0.542   4.052  10.769  0.1104  0.6432 -2.4792
  904MOL0     H24685   0.165   3.978  10.511 -1.0124  1.5898 -4.1462
  904MOL0     H24686   0.298   3.899  10.449  1.0461 -0.7102  3.6229
  904MOL0     H24687   0.182   4.100  10.310 -1.1619 -0.9016  1.4428
  904MOL0     H24688   0.257   4.207  10.426 -4.8798  0.5306 -1.1162
  904MOL0     H24689   0.421   3.989  10.279 -2.5069 -0.6992  0.1225
  904MOL0     H24690   0.362   4.134  10.196 -0.1801  0.9139  0.8207
  904MOL0     H24691   0.485   4.286  10.275  2.2728  1.3135  1.8390
  904MOL0     H24692   0.498   4.218  10.438 -0.8308  5.0813 -1.4747
  904MOL0     H24693   0.669   4.053  10.336  0.8260  0.7509  0.7305
  904MOL0     H24694   0.731   4.219  10.296 -0.9651  3.4768 -0.2023
  904MOL0     H24695   0.754   4.098  10.111  0.5415 -0.6713  1.8069
  904MOL0     H24696   0.591   4.025  10.106 -3.2790  1.4776  0.8386
  904MOL0     H24697   0.481   4.224  10.034  0.1354 -0.2541 -3.3833
  904MOL0     H24698   0.607   4.171   9.930  0.4395 -2.0207  0.5531
  904MOL0     H24699   0.589   4.407   9.942  0.4173 -3.0160 -2.5484
  904MOL0     H24700   0.578   4.405  10.119  0.7939  0.9589  0.3131
  904MOL0     H24701   0.837   4.272   9.869 -2.2635 -1.7934  1.7041
  904MOL0     H24702   1.201   4.371   9.965 -0.0374  1.0789  0.6376
  904MOL0     H24703   1.127   4.248   9.856  1.4297 -0.1055 -0.4653
  904MOL0     H24704   1.282   4.151  10.018 -0.6900 -1.8585 -1.1529
  904MOL0     H24705   1.212   4.207  10.157  1.5173  0.9314  0.2182
  904MOL0     H24706   1.028   4.037   9.987  0.1486 -0.8493  0.1435
  904MOL0     H24707   1.183   3.971  10.037 -0.2341 -0.5139 -0.3995
  904MOL0     H24708   0.991   4.111  10.224  3.0653  1.9073 -1.5025
  904MOL0     H24709   0.969   3.936  10.182  1.5955 -1.2873  0.8585
  904MOL0     H24710   1.249   4.099  10.485  0.5169 -0.8581 -0.1193
  904MOL0     H24711   1.251   4.048  10.826 -1.4778  1.2025  1.5574
  904MOL0     H24712   1.163   4.198  10.810  0.5133 -1.8523  4.5230
  904MOL0     H24713   1.296   4.167  10.707  0.2643  0.8133  1.6311
  904MOL0     H24714   0.902   3.853  11.100 -1.0969 -0.8698  0.9372
  904MOL0     H24715   0.840   3.952  11.343 -2.8276  1.5996 -0.5051
  904MOL0     H24716   0.781   4.038  11.538  1.4915 -2.0006 -2.7419
  904MOL0     H24717   0.946   4.063  11.595  0.5177  1.1580  2.1813
  904MOL0     H24718   0.705   4.231  11.639  0.6701  1.3093 -3.0486
  904MOL0     H24719   0.825   4.179  11.758  4.5975 -0.7309 -1.0546
  904MOL0     H24720   0.792   4.410  11.716 -2.8185 -3.0212 -0.4516
  904MOL0     H24721   0.887   4.406  11.565 -0.0262 -0.7333 -0.7792
  904MOL0     H24722   1.054   4.263  11.697 -3.0038 -1.6818  1.5452
  904MOL0     H24723   0.984   4.334  11.837 -2.2169  2.1449 -0.0624
  904MOL0     H24724   1.083   4.506  11.608  2.1592  0.4118  0.7934
  904MOL0     H24725   1.037   4.553  11.778  1.6416  1.7550 -0.0393
  904MOL0     H24726   1.276   4.371  11.687  0.3095  0.9254 -0.8984
  904MOL0     H24727   1.219   4.434  11.846  2.9069 -0.0180  0.4151
  904MOL0     H24728   1.271   4.661  11.789  0.3327  0.0903 -0.5684
  904MOL0     H24729   1.284   4.635  11.617  0.6515  0.4644 -0.0889
  904MOL0     H24730   1.511   4.652  11.729 -1.5596  0.4473 -0.1092
  904MOL0     H24731   1.495   4.477  11.717  1.3381  0.1787 -1.5107
  904MOL0     H24732   1.050   4.313  11.225  0.6822 -0.6055 -1.7336
  904MOL0     H24733   1.107   4.214  11.023  0.2779 -0.6647 -0.7767
  904MOL0     H24734   0.804   3.933  10.606 -0.9896  0.3924  1.1518
  904MOL0     H24735   0.892   3.904  10.381  2.5119 -0.7557 -1.7853
  904MOL0     H24736   0.177   4.215  10.614 -0.2363  0.7860  0.5612
  904MOL0     H24737   0.214   4.418  10.757  0.9321  0.2031  1.9314
  904MOL0     H24738   0.303   4.616  11.222 -0.9238  0.3417 -0.7718
  904MOL0     H24739   0.404   4.776  11.342  3.5955 -2.0794  0.0448
  904MOL0     H24740   0.537   5.152  11.124 -0.8350 -0.4305  0.0031
  904MOL0     H24741   0.528   5.193  11.289 -1.1484  0.0424 -0.4239
  904MOL0     H24742   0.760   5.028  11.187 -1.4857 -2.9695  4.5974
  904MOL0     H24743   0.744   5.109  11.335 -1.3995  2.2818  0.6380
  904MOL0     H24744   0.766   5.325  11.225  1.9773  0.0610  2.1596
  904MOL0     H24745   0.887   5.193  11.190 -0.4653 -2.6728  0.2400
  904MOL0     H24746   0.753   5.150  10.966  0.7259 -1.1621  1.7083
  904MOL0     H24747   0.838   5.304  10.953 -0.6283  1.5216  0.0498
  904MOL0     H24748   0.462   5.475  10.962 -3.6779 -4.9821  2.3760
  904MOL0     H24749   0.573   4.949  10.988 -0.1239  0.1208 -1.0860
  904MOL0     H24750   0.615   4.692  10.817 -1.0922 -1.2815 -2.4934
  904MOL0     H24751   0.450   4.707  10.759  1.6744 -0.7337 -0.9115
  904MOL0     H24752   0.555   4.850  10.774 -0.7158  0.6476  0.1502
  905MOL0     O24753   0.553   7.197   2.101  0.1044 -0.1168  0.2385
  905MOL0     C24754   0.619   7.142   2.184 -0.1929 -0.7025  0.0459
  905MOL0     O24755   0.572   7.056   2.278  0.0279  0.5275 -0.6967
  905MOL0     C24756   0.434   7.067   2.307 -0.2870 -1.2474  0.1723
  905MOL0     C24757   0.331   7.000   2.232 -0.0431  0.2194 -1.0176
  905MOL0     C24758   0.199   6.983   2.282  0.3698 -0.1037  0.4344
  905MOL0     C24759   0.153   7.050   2.399 -0.1797 -0.6797  0.6979
  905MOL0     O24760   0.020   7.052   2.443  0.5332 -0.8235  0.6946
  905MOL0     C24761  -0.049   6.935   2.433  0.4925  0.8572 -0.3660
  905MOL0     C24762  -0.188   6.968   2.495 -0.7404 -0.4795 -0.7797
  905MOL0     C24763  -0.296   6.876   2.428 -0.3624 -0.7722 -0.0381
  905MOL0     C24764  -0.271   6.726   2.446  0.4996 -0.0333  0.1319
  905MOL0     C24765  -0.350   6.643   2.341 -0.3515  0.8279 -0.0984
  905MOL0     C24766  -0.289   6.501   2.337  0.4686  0.3208  0.4648
  905MOL0     C24767  -0.375   6.417   2.250  0.1477  0.9191  0.0112
  905MOL0     C24768  -0.298   6.300   2.188  0.0690  0.1761  0.3364
  905MOL0     N24769  -0.311   6.183   2.274  0.6303 -0.1726 -0.0015
  905MOL0     C24770  -0.337   6.172   2.414 -0.3085 -0.5525  0.1628
  905MOL0     C24771  -0.347   6.041   2.449  0.7566  0.2601  0.2556
  905MOL0     C24772  -0.373   5.966   2.583  0.3392  0.0903  1.3508
  905MOL0     C24773  -0.237   5.925   2.656 -0.5158 -1.0108  0.7146
  905MOL0     C24774  -0.161   5.821   2.572  0.8845  0.4585  0.3882
  905MOL0     C24775  -0.033   5.771   2.641 -0.2436 -0.1721  0.3285
  905MOL0     O24776   0.064   5.873   2.675  1.0781 -0.2610  0.1649
  905MOL0     C24777   0.184   5.824   2.723  0.4409  1.0366  0.2982
  905MOL0     C24778   0.195   5.755   2.843 -0.0740  0.7872  0.4240
  905MOL0     C24779   0.318   5.699   2.894 -0.1694 -0.7715 -0.0785
  905MOL0     C24780   0.320   5.648   3.035 -0.0533 -0.1650 -0.3889
  905MOL0     C24781   0.432   5.697   2.799 -0.1218  0.0872 -0.4699
  905MOL0     C24782   0.559   5.620   2.826 -0.4420 -0.1897 -0.8094
  905MOL0     O24783   0.643   5.601   2.723  0.3561 -0.0809 -0.2047
  905MOL0     C24784   0.778   5.576   2.746  0.0692  1.1687  0.0137
  905MOL0     C24785   0.859   5.635   2.850  0.6252  0.9578  0.6004
  905MOL0     C24786   0.997   5.629   2.837  0.7316 -0.3688  0.4592
  905MOL0     C24787   1.060   5.553   2.744  0.4012  0.0507 -0.0426
  905MOL0     O24788   1.196   5.536   2.724 -1.1490 -0.9149 -0.2456
  905MOL0     C24789   1.277   5.649   2.761  0.0556 -0.4089  0.7973
  905MOL0     C24790   1.410   5.622   2.696 -1.1006 -0.2409  0.2196
  905MOL0     C24791   1.398   5.634   2.545 -0.1224 -1.2409 -0.8595
  905MOL0     C24792   1.525   5.607   2.461 -0.8106 -0.4212 -0.6656
  905MOL0     C24793   1.496   5.613   2.311 -0.0687 -0.5372  0.8799
  905MOL0     C24794   1.608   5.602   2.214  1.4279 -0.0962 -0.6287
  905MOL0     C24795   1.668   5.455   2.228  0.8563 -0.5038 -0.3354
  905MOL0     C24796   1.793   5.442   2.136  0.2857 -0.5346 -0.5465
  905MOL0    Cl24797   1.928   5.528   2.201  0.2181 -0.0434  0.5317
  905MOL0     C24798   0.978   5.482   2.650  0.5319  0.2797 -0.3956
  905MOL0     C24799   0.837   5.489   2.653  0.2504 -0.8695  1.1994
  905MOL0     O24800   0.580   5.568   2.936  0.6427  0.2064 -0.3589
  905MOL0     C24801   0.408   5.759   2.678  0.1364  0.5545 -0.1936
  905MOL0     C24802   0.293   5.823   2.637  0.5745  0.2263 -0.1742
  905MOL0     N24803  -0.343   5.978   2.322 -0.8591  0.0492 -0.7037
  905MOL0     N24804  -0.327   6.057   2.227 -0.5006 -0.2739  0.5646
  905MOL0     C24805   0.253   7.119   2.468  0.1684 -0.2500  0.1127
  905MOL0     C24806   0.387   7.135   2.424 -0.6429  0.0913  0.7361
  905MOL0     C24807   0.772   7.147   2.169 -1.1148  0.2230  1.0982
  905MOL0     C24808   0.849   7.093   2.277  0.5174 -0.3112  0.9916
  905MOL0     C24809   0.982   7.093   2.275 -0.7190  0.2890  0.4149
  905MOL0     C24810   1.058   7.141   2.164  0.2685 -0.5297  0.1611
  905MOL0     O24811   1.188   7.127   2.164  0.0973 -0.0347 -0.4188
  905MOL0     C24812   1.265   7.149   2.043 -0.3050 -1.0007  1.0365
  905MOL0     C24813   1.392   7.075   2.035 -0.3204 -0.0346 -0.6030
  905MOL0     C24814   1.349   6.936   1.987 -0.5682 -0.4934 -0.2447
  905MOL0     C24815   1.467   6.840   1.970 -0.9195 -0.1868  0.5452
  905MOL0     C24816   1.561   6.893   1.874  0.8374  0.0525 -0.7914
  905MOL0     C24817   1.621   6.930   1.776  0.0034  0.3759  0.6723
  905MOL0     C24818   0.984   7.206   2.065  0.1829  0.7338 -0.4999
  905MOL0     C24819   0.848   7.203   2.062  0.0436 -0.3014 -0.6762
  905MOL0     C24820   0.787   7.286   1.955  0.0905 -0.1093 -0.1096
  905MOL0     H24821   0.353   6.933   2.150 -2.2955  0.0177 -1.5095
  905MOL0     H24822   0.137   6.920   2.219 -0.0280  3.2127 -2.8510
  905MOL0     H24823  -0.008   6.860   2.501 -0.7643 -0.2493 -0.7718
  905MOL0     H24824  -0.067   6.896   2.332 -0.6385 -1.4640  0.6501
  905MOL0     H24825  -0.195   6.951   2.603  1.2021  0.0959 -0.5217
  905MOL0     H24826  -0.202   7.075   2.476  0.1022 -0.0856  0.6634
  905MOL0     H24827  -0.397   6.901   2.463  0.2241  0.6408  0.7357
  905MOL0     H24828  -0.311   6.900   2.322  0.0405  4.3573  0.8323
  905MOL0     H24829  -0.165   6.705   2.432  0.6193  0.2341  0.6167
  905MOL0     H24830  -0.299   6.699   2.548 -0.9105  0.4174 -0.1060
  905MOL0     H24831  -0.347   6.681   2.238 -0.2961 -0.3184 -0.5449
  905MOL0     H24832  -0.451   6.629   2.380  0.7443 -2.3865  1.9880
  905MOL0     H24833  -0.188   6.508   2.294  1.0271 -2.1532  1.2078
  905MOL0     H24834  -0.272   6.458   2.436  0.6258 -0.9146 -0.0915
  905MOL0     H24835  -0.421   6.479   2.172  1.6642  0.1397 -1.5499
  905MOL0     H24836  -0.457   6.392   2.318  1.7468  0.3590  1.8091
  905MOL0     H24837  -0.333   6.290   2.085  0.0105  3.8788 -0.1435
  905MOL0     H24838  -0.189   6.306   2.183 -0.0484  2.7218 -1.0258
  905MOL0     H24839  -0.350   6.249   2.489 -3.1348 -1.7612  1.0721
  905MOL0     H24840  -0.428   5.871   2.577 -0.5787  0.6235  1.1551
  905MOL0     H24841  -0.426   6.034   2.650 -3.2288 -1.6598  0.5827
  905MOL0     H24842  -0.184   6.013   2.695  2.2556 -2.0884 -0.3542
  905MOL0     H24843  -0.283   5.880   2.744 -1.6073  1.5220  1.5570
  905MOL0     H24844  -0.234   5.740   2.563  0.8462  0.5586 -0.2315
  905MOL0     H24845  -0.131   5.867   2.478  0.7659  2.5546  1.3112
  905MOL0     H24846  -0.059   5.712   2.729  1.6109 -0.7487  0.5391
  905MOL0     H24847   0.010   5.701   2.569 -2.3642 -2.4401  1.1607
  905MOL0     H24848   0.104   5.755   2.902  0.6984  3.2221  1.7543
  905MOL0     H24849   0.355   5.545   3.048  1.4581  0.4701  0.9227
  905MOL0     H24850   0.220   5.651   3.078 -0.1035 -0.1933 -0.5036
  905MOL0     H24851   0.383   5.714   3.095 -0.6841 -1.6365  2.0415
  905MOL0     H24852   0.808   5.699   2.922 -0.4878  0.0917  0.6036
  905MOL0     H24853   1.056   5.681   2.911  1.0256 -2.7537  2.0211
  905MOL0     H24854   1.240   5.748   2.735 -0.7527 -0.9592 -0.2000
  905MOL0     H24855   1.279   5.653   2.870 -1.8281  1.9905  0.8181
  905MOL0     H24856   1.478   5.699   2.735 -1.1585  2.4923 -4.3242
  905MOL0     H24857   1.431   5.517   2.719  2.1985  0.3016  0.1243
  905MOL0     H24858   1.377   5.739   2.521 -1.4944 -1.3703 -0.2966
  905MOL0     H24859   1.313   5.577   2.508 -2.3058  1.8373 -1.0309
  905MOL0     H24860   1.557   5.504   2.483 -2.1981 -0.7753 -0.1761
  905MOL0     H24861   1.609   5.676   2.474 -1.8317  0.8685 -0.7519
  905MOL0     H24862   1.433   5.527   2.286  0.9807 -1.2377  0.5982
  905MOL0     H24863   1.442   5.706   2.290 -0.3437 -0.1388  3.0778
  905MOL0     H24864   1.675   5.682   2.249  0.2891  1.3515 -1.6008
  905MOL0     H24865   1.576   5.635   2.114 -0.5267  0.3426  0.0817
  905MOL0     H24866   1.587   5.394   2.185 -2.5742  4.4228 -1.7689
  905MOL0     H24867   1.679   5.409   2.326 -3.6165 -3.6315 -0.9397
  905MOL0     H24868   1.774   5.473   2.033  2.1907 -0.3881 -0.8899
  905MOL0     H24869   1.824   5.337   2.138 -1.3551 -1.0585 -0.6256
  905MOL0     H24870   1.023   5.413   2.580 -1.2244 -0.6476 -0.6792
  905MOL0     H24871   0.778   5.441   2.576 -0.7440  0.0444  1.3675
  905MOL0     H24872   0.488   5.760   2.604  1.4028  0.8911  1.1314
  905MOL0     H24873   0.286   5.874   2.542 -1.2781  1.3339  0.5022
  905MOL0     H24874   0.219   7.170   2.558  0.1557 -1.0528  0.5697
  905MOL0     H24875   0.461   7.198   2.472  2.7987 -1.8050 -1.5708
  905MOL0     H24876   0.795   7.070   2.368  0.8940  1.7284  1.7885
  905MOL0     H24877   1.040   7.041   2.351 -0.4071 -0.4802 -0.3339
  905MOL0     H24878   1.209   7.130   1.951 -3.5581  2.0980  2.1082
  905MOL0     H24879   1.284   7.257   2.047  2.7908 -1.4826  2.7921
  905MOL0     H24880   1.443   7.077   2.131 -1.9462  1.8418  0.2891
  905MOL0     H24881   1.454   7.129   1.963 -1.3114  0.8027 -0.8548
  905MOL0     H24882   1.283   6.891   2.062  0.2292 -1.0604  0.1366
  905MOL0     H24883   1.284   6.937   1.899 -0.7171  0.2077 -0.1287
  905MOL0     H24884   1.435   6.743   1.930  0.2483 -1.4900  2.6045
  905MOL0     H24885   1.508   6.819   2.069 -1.6347  1.5628  1.2402
  905MOL0     H24886   1.684   6.966   1.697  1.2669 -0.8291  1.0999
  905MOL0     H24887   1.030   7.263   1.984 -0.8617  2.0374 -0.2010
  905MOL0     H24888   0.715   7.360   1.993 -0.7583 -1.1857  0.4352
  905MOL0     H24889   0.856   7.342   1.891 -0.3204  0.0963 -0.3741
  905MOL0     H24890   0.730   7.219   1.890  2.3002 -0.2221 -2.0305
  906MOL0     O24891   6.201   3.863   9.515 -0.0397  0.2477 -0.3466
  906MOL0     C24892   6.230   3.892   9.405 -0.8975 -1.0569  0.5462
  906MOL0     O24893   6.285   4.017   9.363  0.5900 -0.1498  0.2266
  906MOL0     C24894   6.286   4.123   9.444 -0.4400  0.1968  0.0718
  906MOL0     C24895   6.397   4.207   9.432 -0.6259  0.3756 -0.1530
  906MOL0     C24896   6.431   4.310   9.523  0.0213 -0.5521  0.5032
  906MOL0     C24897   6.334   4.344   9.621 -0.3056  0.0065  0.2984
  906MOL0     O24898   6.363   4.449   9.709  0.8240  0.0338  0.2023
  906MOL0     C24899   6.427   4.425   9.834  0.3491  0.2967  0.2966
  906MOL0     C24900   6.453   4.548   9.908  0.4048  0.1061  0.6344
  906MOL0     C24901   6.344   4.653   9.871 -0.4403  0.2055 -0.6494
  906MOL0     C24902   6.398   4.779   9.924  0.0715 -0.4882  0.3536
  906MOL0     C24903   6.307   4.883   9.854  0.1729 -0.3900 -0.0489
  906MOL0     C24904   6.178   4.924   9.932  0.3408  0.4341  0.0539
  906MOL0     C24905   6.145   5.073   9.909 -0.2815  0.0779 -0.1042
  906MOL0     C24906   5.993   5.114   9.903  0.2194  0.7087  0.8806
  906MOL0     N24907   5.921   5.067   9.783  0.8072 -0.2916  0.2403
  906MOL0     C24908   5.904   5.140   9.664 -0.2585  0.3930  0.6702
  906MOL0     C24909   5.820   5.067   9.593 -0.0502  0.2687 -0.4146
  906MOL0     C24910   5.745   5.084   9.459 -0.6802 -0.8352  0.2738
  906MOL0     C24911   5.595   5.051   9.462 -0.3036  0.1406  0.5731
  906MOL0     C24912   5.560   5.031   9.312  0.4284 -0.0576 -0.1202
  906MOL0     C24913   5.407   5.020   9.302  0.0386 -0.1265  0.0402
  906MOL0     O24914   5.369   5.002   9.165  0.7667  0.2310 -0.2748
  906MOL0     C24915   5.233   5.012   9.128 -0.4385 -0.2481  0.3219
  906MOL0     C24916   5.219   5.030   8.994 -0.1608 -0.9846  1.1188
  906MOL0     C24917   5.095   5.046   8.933  0.9221  0.9983 -0.3631
  906MOL0     C24918   5.096   5.080   8.788 -0.3172  0.3934  0.1565
  906MOL0     C24919   4.972   5.024   9.002  0.3069  0.1621  0.6476
  906MOL0     C24920   4.835   5.050   8.961  0.0564  0.4423 -0.1663
  906MOL0     O24921   4.734   5.054   9.056  0.6113  0.1424 -0.3924
  906MOL0     C24922   4.595   5.075   9.044  0.1979  0.6162  0.7870
  906MOL0     C24923   4.534   5.107   8.920  0.1962 -0.2081 -0.2852
  906MOL0     C24924   4.397   5.116   8.902 -0.1813 -0.0197 -0.7093
  906MOL0     C24925   4.313   5.104   9.012  0.3377 -0.7389  1.0492
  906MOL0     O24926   4.177   5.136   9.012 -0.4496  0.3635  0.3443
  906MOL0     C24927   4.131   5.214   8.902  0.4126  0.9752  0.8976
  906MOL0     C24928   3.993   5.269   8.925 -0.6236 -0.4567 -0.1677
  906MOL0     C24929   3.992   5.376   9.040 -0.7891  0.8872 -0.1407
  906MOL0     C24930   3.855   5.413   9.081  0.0733 -0.1014  0.3753
  906MOL0     C24931   3.854   5.532   9.182  0.1779 -1.3338 -0.3506
  906MOL0     C24932   3.715   5.594   9.222  0.2377 -0.0098  0.3441
  906MOL0     C24933   3.733   5.746   9.260 -0.0671  0.1130 -0.9203
  906MOL0     C24934   3.592   5.799   9.305  0.6356 -0.1740  0.4729
  906MOL0    Cl24935   3.571   5.758   9.484 -0.3877  0.0760  0.3461
  906MOL0     C24936   4.373   5.073   9.138 -0.0775 -0.7935 -0.6654
  906MOL0     C24937   4.517   5.056   9.160  0.0814 -0.3835 -0.1047
  906MOL0     O24938   4.822   5.064   8.843  0.3906  0.1163  0.4152
  906MOL0     C24939   4.989   5.001   9.143  0.2255 -0.2835 -1.4088
  906MOL0     C24940   5.115   4.998   9.207  0.4878  0.6858  0.1700
  906MOL0     N24941   5.770   4.972   9.677 -0.7442 -0.0283  0.0836
  906MOL0     N24942   5.830   4.966   9.783  0.2743  0.1303 -0.3831
  906MOL0     C24943   6.219   4.265   9.632  0.0579 -0.5462  0.6019
  906MOL0     C24944   6.195   4.160   9.544  0.4318  0.1248 -0.1977
  906MOL0     C24945   6.181   3.805   9.300  0.1784 -0.3885 -0.6189
  906MOL0     C24946   6.183   3.855   9.171 -0.5880 -0.1526 -0.8669
  906MOL0     C24947   6.156   3.790   9.051 -0.2961  0.9929 -0.1010
  906MOL0     C24948   6.122   3.657   9.068  0.2158  0.2449 -0.5943
  906MOL0     O24949   6.079   3.599   8.950  0.7305 -0.6291 -1.0519
  906MOL0     C24950   6.094   3.460   8.919  0.0085  0.0689  1.0574
  906MOL0     C24951   5.952   3.396   8.897 -0.7498  0.4195  0.0592
  906MOL0     C24952   5.891   3.364   9.032 -0.8619 -0.3257  1.0057
  906MOL0     C24953   5.751   3.321   9.014 -0.2971 -0.1039 -0.6925
  906MOL0     C24954   5.738   3.176   9.010  0.5744  0.4461 -0.8942
  906MOL0     C24955   5.731   3.053   8.988 -0.0168  0.3671 -0.8625
  906MOL0     C24956   6.129   3.602   9.201  0.0759  0.3076  0.2248
  906MOL0     C24957   6.161   3.667   9.319  0.3627 -0.1528  0.5367
  906MOL0     C24958   6.165   3.587   9.444 -0.0031  0.0940 -0.0183
  906MOL0     H24959   6.485   4.191   9.372  0.4372  0.1121  1.4098
  906MOL0     H24960   6.520   4.371   9.520 -1.3094  1.7830  3.3649
  906MOL0     H24961   6.526   4.381   9.821  0.4836 -0.1575  2.5141
  906MOL0     H24962   6.368   4.357   9.895 -0.4286 -0.1550 -0.9216
  906MOL0     H24963   6.456   4.518  10.013  0.3406 -1.9698  0.1062
  906MOL0     H24964   6.546   4.586   9.866 -1.5207  2.6236 -1.6990
  906MOL0     H24965   6.343   4.666   9.763 -0.9626  1.0373 -0.5554
  906MOL0     H24966   6.248   4.624   9.914  0.5093 -2.0948  0.0916
  906MOL0     H24967   6.382   4.770  10.032 -2.2156 -3.1879 -0.0632
  906MOL0     H24968   6.499   4.799   9.887 -0.9834 -1.3260 -3.5388
  906MOL0     H24969   6.291   4.882   9.746 -0.0389  1.7699 -0.0879
  906MOL0     H24970   6.379   4.966   9.851 -0.4087  0.2488  1.8948
  906MOL0     H24971   6.093   4.863   9.903  0.7356 -0.4158  0.6409
  906MOL0     H24972   6.193   4.909  10.039 -0.0916  0.4550  0.1187
  906MOL0     H24973   6.198   5.110   9.821 -0.6157 -1.3562 -0.9358
  906MOL0     H24974   6.185   5.133   9.992  0.0644  1.3300 -1.1362
  906MOL0     H24975   5.945   5.074   9.993  2.0898  0.0556  1.6503
  906MOL0     H24976   5.987   5.221   9.924 -2.1965  1.0608 -1.1800
  906MOL0     H24977   5.958   5.230   9.638  1.2192 -1.0224 -1.4912
  906MOL0     H24978   5.791   5.012   9.390 -0.1508  0.2936 -0.5885
  906MOL0     H24979   5.758   5.182   9.412 -0.6769 -0.6075  0.7433
  906MOL0     H24980   5.574   4.951   9.501 -0.8606 -1.3080 -3.0657
  906MOL0     H24981   5.548   5.136   9.514 -2.8647  0.2798 -1.7142
  906MOL0     H24982   5.605   5.105   9.244 -0.3571  2.3223  1.8226
  906MOL0     H24983   5.604   4.933   9.294 -1.7324 -1.5691  2.2561
  906MOL0     H24984   5.361   4.929   9.342 -0.9839 -0.5271 -1.9519
  906MOL0     H24985   5.356   5.108   9.342  1.3229  0.1839  1.1126
  906MOL0     H24986   5.315   5.022   8.943  0.3483  2.2580  1.3332
  906MOL0     H24987   5.197   5.112   8.761 -0.5319  0.5103 -0.5338
  906MOL0     H24988   5.032   5.163   8.755 -0.1784 -0.0461 -1.2960
  906MOL0     H24989   5.089   4.984   8.736  1.9828 -0.4603  1.2923
  906MOL0     H24990   4.594   5.132   8.834  1.9564  0.7192  1.1384
  906MOL0     H24991   4.360   5.145   8.804  4.1959  0.5240 -2.3879
  906MOL0     H24992   4.199   5.296   8.879  2.5734 -0.8718  0.3995
  906MOL0     H24993   4.129   5.161   8.806  0.9604  0.9413  0.9019
  906MOL0     H24994   3.956   5.312   8.832  3.0730  0.1864 -1.5227
  906MOL0     H24995   3.919   5.193   8.952 -1.8503  0.1500 -1.6941
  906MOL0     H24996   4.041   5.464   8.997  0.0357  0.2314 -0.5862
  906MOL0     H24997   4.057   5.345   9.122 -3.2857 -1.8972  0.9418
  906MOL0     H24998   3.814   5.326   9.134 -0.0861 -1.2537 -1.5610
  906MOL0     H24999   3.783   5.431   9.001 -2.5182 -0.6055  2.4387
  906MOL0     H25000   3.909   5.508   9.273 -0.8766  0.3655  0.7692
  906MOL0     H25001   3.904   5.616   9.134 -1.1288  0.3558  1.1428
  906MOL0     H25002   3.675   5.529   9.300  1.7185 -1.7435 -0.2816
  906MOL0     H25003   3.644   5.587   9.139 -0.6828 -1.1320  1.1868
  906MOL0     H25004   3.758   5.803   9.170  0.8386  0.5830 -0.3832
  906MOL0     H25005   3.799   5.751   9.347 -3.2263 -1.6944  1.8115
  906MOL0     H25006   3.516   5.748   9.247  0.7078  2.1087 -1.8069
  906MOL0     H25007   3.579   5.908   9.302 -0.5407 -0.1487  3.2007
  906MOL0     H25008   4.308   5.088   9.223  1.0124 -0.0981  0.0726
  906MOL0     H25009   4.565   5.021   9.251  3.9746 -1.6334 -2.3915
  906MOL0     H25010   4.911   4.991   9.218 -0.2908  0.5963 -1.8143
  906MOL0     H25011   5.117   4.977   9.313 -0.7616 -0.2201  0.0446
  906MOL0     H25012   6.144   4.294   9.705 -0.0276 -0.6259  0.5452
  906MOL0     H25013   6.097   4.114   9.548 -0.9307  2.3156 -3.7405
  906MOL0     H25014   6.203   3.961   9.161 -1.7747  0.3391  1.4147
  906MOL0     H25015   6.146   3.839   8.955  1.5807 -1.0951 -1.4792
  906MOL0     H25016   6.151   3.449   8.827 -1.4268  2.5557 -0.2325
  906MOL0     H25017   6.148   3.409   9.000 -1.4303  1.2129  2.8345
  906MOL0     H25018   5.955   3.301   8.844 -1.9848 -0.2094  1.0936
  906MOL0     H25019   5.886   3.466   8.846 -0.7468  0.8199  0.5957
  906MOL0     H25020   5.954   3.292   9.084  1.2608  0.8639  0.2102
  906MOL0     H25021   5.889   3.454   9.095 -0.7513 -0.2395  0.8876
  906MOL0     H25022   5.706   3.364   8.924 -0.7011  1.0274  0.0362
  906MOL0     H25023   5.703   3.377   9.095  1.2003  2.0084 -1.1513
  906MOL0     H25024   5.743   2.955   8.945 -1.3104 -0.5482  0.7115
  906MOL0     H25025   6.100   3.497   9.210  0.6054  0.1813  0.5181
  906MOL0     H25026   6.229   3.631   9.522 -0.6976  0.6982  0.2148
  906MOL0     H25027   6.069   3.569   9.493 -0.0140 -0.0383 -0.0902
  906MOL0     H25028   6.208   3.490   9.418 -1.0938 -0.1793 -0.8630
  907MOL0     O25029   4.313   6.553   4.354  0.5244  0.3938 -0.6557
  907MOL0     C25030   4.279   6.653   4.295 -0.8013 -0.1091 -0.5650
  907MOL0     O25031   4.192   6.658   4.193 -0.5919  0.6341 -0.6407
  907MOL0     C25032   4.098   6.560   4.171 -0.3193  0.0566  0.1610
  907MOL0     C25033   4.075   6.436   4.230  0.4054 -0.5321 -0.3345
  907MOL0     C25034   3.997   6.335   4.178 -0.3335  0.1533 -0.0104
  907MOL0     C25035   3.918   6.358   4.066  0.1234  0.2121 -0.6239
  907MOL0     O25036   3.831   6.269   4.012 -1.1719 -0.8109  0.6327
  907MOL0     C25037   3.753   6.185   4.094  0.6024  0.2258 -0.2782
  907MOL0     C25038   3.635   6.125   4.018  0.2917 -0.6156 -0.5568
  907MOL0     C25039   3.569   6.233   3.934  0.0189  0.5171 -0.0805
  907MOL0     C25040   3.443   6.165   3.853  0.4771 -0.0527 -0.8305
  907MOL0     C25041   3.374   6.243   3.747  0.3906  0.2028  0.4350
  907MOL0     C25042   3.374   6.168   3.616  0.1136 -0.4079 -0.1868
  907MOL0     C25043   3.342   6.255   3.498 -0.7600 -0.2622  0.7983
  907MOL0     C25044   3.210   6.331   3.513  0.2755  0.1992 -0.3260
  907MOL0     N25045   3.170   6.403   3.392 -0.5616  0.1851  0.3568
  907MOL0     C25046   3.155   6.543   3.391  0.5813 -0.4612 -0.4800
  907MOL0     C25047   3.112   6.574   3.267  0.5510  0.7843 -0.1118
  907MOL0     C25048   3.076   6.706   3.204  0.0436  0.2808 -0.6337
  907MOL0     C25049   2.949   6.767   3.265  0.7816 -0.0022 -0.5358
  907MOL0     C25050   2.888   6.889   3.186  0.5842 -0.0938  0.5886
  907MOL0     C25051   2.774   6.966   3.262 -0.3472  0.3317  0.7672
  907MOL0     O25052   2.717   7.062   3.172 -0.5047  0.3986  0.6238
  907MOL0     C25053   2.591   7.117   3.207 -0.1104 -0.2576  0.3362
  907MOL0     C25054   2.547   7.143   3.346  0.3554  0.6415 -0.2136
  907MOL0     C25055   2.425   7.207   3.375  0.1126 -0.3530  0.3432
  907MOL0     C25056   2.392   7.247   3.520  0.2343  0.3756 -0.1393
  907MOL0     C25057   2.337   7.228   3.263 -0.2192  0.4074  0.4563
  907MOL0     C25058   2.201   7.280   3.284  0.5856  0.4199 -0.4384
  907MOL0     O25059   2.165   7.385   3.210 -0.3956 -0.4746  0.4926
  907MOL0     C25060   2.046   7.445   3.240  1.5063  0.2944  0.3981
  907MOL0     C25061   2.041   7.589   3.226 -0.5065  0.1524  0.1486
  907MOL0     C25062   1.923   7.663   3.241  1.1958 -0.7557 -0.4531
  907MOL0     C25063   1.807   7.594   3.268 -0.4953 -0.8911 -0.2193
  907MOL0     O25064   1.698   7.686   3.267 -0.0136 -0.3894  0.0877
  907MOL0     C25065   1.569   7.632   3.285 -0.0925  0.4576  0.0758
  907MOL0     C25066   1.469   7.742   3.288  0.5919  0.3201  0.6056
  907MOL0     C25067   1.427   7.764   3.431 -0.1292  0.0612 -0.3302
  907MOL0     C25068   1.309   7.861   3.445  0.0327 -0.1251 -0.4676
  907MOL0     C25069   1.261   7.875   3.590  0.2577 -0.5667  0.6841
  907MOL0     C25070   1.137   7.960   3.605  0.7964 -0.7458 -0.0568
  907MOL0     C25071   1.124   8.022   3.746  0.6630 -0.2893 -0.2118
  907MOL0     C25072   1.007   8.125   3.744 -0.1042 -0.4957 -1.0890
  907MOL0    Cl25073   1.060   8.278   3.663 -0.1310  0.3729 -0.0879
  907MOL0     C25074   1.805   7.455   3.287  0.4110 -0.3875 -0.5391
  907MOL0     C25075   1.922   7.381   3.273 -0.3668 -0.1885  1.1916
  907MOL0     O25076   2.132   7.230   3.371  0.2261 -0.1229  0.5507
  907MOL0     C25077   2.389   7.219   3.131 -0.8772  0.3262 -0.0440
  907MOL0     C25078   2.514   7.162   3.107 -0.1468 -0.2184  0.5988
  907MOL0     N25079   3.093   6.450   3.201  0.3913 -0.0771 -0.3360
  907MOL0     N25080   3.128   6.353   3.276  0.6235  0.0092 -0.5087
  907MOL0     C25081   3.941   6.475   4.000 -0.1235 -0.1840  0.6334
  907MOL0     C25082   4.031   6.574   4.046 -0.8642 -0.8013  0.1241
  907MOL0     C25083   4.358   6.780   4.321 -0.7733 -0.5046 -0.4955
  907MOL0     C25084   4.390   6.861   4.209 -0.0443 -0.1161  0.1111
  907MOL0     C25085   4.435   6.992   4.227  0.3289 -0.2352 -0.2393
  907MOL0     C25086   4.459   7.045   4.357 -0.4284 -0.1804  0.6552
  907MOL0     O25087   4.508   7.173   4.369 -0.2615  0.2950 -0.1209
  907MOL0     C25088   4.533   7.230   4.508 -1.4973 -0.0509 -0.7836
  907MOL0     C25089   4.672   7.171   4.561  0.1367  0.5871  0.1836
  907MOL0     C25090   4.789   7.214   4.479 -0.1177  0.5682 -0.7236
  907MOL0     C25091   4.926   7.165   4.536  0.6118  0.1901  0.5903
  907MOL0     C25092   5.029   7.214   4.445 -0.5548 -0.5715  1.3857
  907MOL0     C25093   5.115   7.267   4.377  0.4208 -0.2675  0.5039
  907MOL0     C25094   4.437   6.957   4.464 -0.6437  0.2844  0.2767
  907MOL0     C25095   4.391   6.826   4.456 -1.0268  0.0997  0.0370
  907MOL0     C25096   4.376   6.725   4.574 -0.0817  0.4505  0.5631
  907MOL0     H25097   4.119   6.404   4.325 -0.1730 -0.8874 -0.1840
  907MOL0     H25098   3.982   6.242   4.232 -4.1346  0.7275  0.2078
  907MOL0     H25099   3.716   6.241   4.180 -0.2433 -1.1762  0.3115
  907MOL0     H25100   3.811   6.099   4.128  1.0358  0.5936 -0.0923
  907MOL0     H25101   3.668   6.042   3.955 -0.1719 -0.3540 -1.1515
  907MOL0     H25102   3.572   6.083   4.097  1.3622  1.3037  1.4235
  907MOL0     H25103   3.540   6.323   3.989 -1.5305 -0.9601  1.6714
  907MOL0     H25104   3.636   6.269   3.855 -0.9865  2.3212 -0.1436
  907MOL0     H25105   3.470   6.063   3.825 -1.6667 -0.5773 -1.1595
  907MOL0     H25106   3.369   6.137   3.928 -0.9203  1.2700 -1.6447
  907MOL0     H25107   3.434   6.334   3.739  2.1694 -1.0749 -2.0819
  907MOL0     H25108   3.271   6.268   3.770  0.2102 -0.7482  0.6992
  907MOL0     H25109   3.469   6.117   3.600  0.2078 -0.0257 -0.8686
  907MOL0     H25110   3.300   6.090   3.637 -2.8483  2.6997  2.1567
  907MOL0     H25111   3.343   6.187   3.412 -0.0537 -3.7925  3.3492
  907MOL0     H25112   3.423   6.327   3.486  1.7991 -3.2785 -2.0706
  907MOL0     H25113   3.130   6.260   3.535 -1.9383  1.9080 -2.3066
  907MOL0     H25114   3.224   6.400   3.597  1.1301  0.3584 -0.5874
  907MOL0     H25115   3.171   6.608   3.477 -1.0624 -0.2753 -0.2674
  907MOL0     H25116   3.075   6.685   3.097 -1.8048 -0.0428 -0.5821
  907MOL0     H25117   3.150   6.781   3.234 -1.9821  1.1323  2.7646
  907MOL0     H25118   2.863   6.700   3.253  1.1045 -0.4561 -0.3648
  907MOL0     H25119   2.957   6.788   3.372 -1.9740  1.4247 -0.5246
  907MOL0     H25120   2.959   6.972   3.185  0.3157  0.1962  2.5567
  907MOL0     H25121   2.850   6.851   3.091  0.8596  0.0648  0.4127
  907MOL0     H25122   2.703   6.894   3.305 -2.0164  1.4380 -0.0474
  907MOL0     H25123   2.825   7.027   3.337  2.1405 -1.3242  0.5500
  907MOL0     H25124   2.612   7.134   3.433 -2.0422  0.1142  1.6632
  907MOL0     H25125   2.485   7.263   3.575 -0.6034 -1.5357  1.9701
  907MOL0     H25126   2.344   7.158   3.560  0.1687 -0.1684 -1.3998
  907MOL0     H25127   2.326   7.334   3.527  0.7171  0.7105  0.2972
  907MOL0     H25128   2.132   7.639   3.195  2.2199 -1.2128  4.9358
  907MOL0     H25129   1.916   7.767   3.214 -0.0450 -1.3228 -2.6129
  907MOL0     H25130   1.550   7.586   3.187 -1.2207  1.7885 -0.3589
  907MOL0     H25131   1.569   7.571   3.376 -0.9254 -1.7130 -1.2774
  907MOL0     H25132   1.506   7.831   3.237  0.8688 -0.9830 -1.5483
  907MOL0     H25133   1.384   7.703   3.233 -0.9487 -0.1776  3.1619
  907MOL0     H25134   1.517   7.802   3.480  0.4328 -1.7552  0.1174
  907MOL0     H25135   1.401   7.670   3.480 -1.7334  1.1839  1.0840
  907MOL0     H25136   1.225   7.822   3.387  0.3633 -2.7738  0.7136
  907MOL0     H25137   1.340   7.960   3.411 -0.4051 -1.0216 -3.8485
  907MOL0     H25138   1.247   7.770   3.619  0.6482 -0.6982  0.4084
  907MOL0     H25139   1.344   7.918   3.647  0.3179  1.0086 -0.5286
  907MOL0     H25140   1.038   7.924   3.576  1.0139 -0.8324 -0.7149
  907MOL0     H25141   1.149   8.047   3.540 -0.9969 -2.0101 -2.2147
  907MOL0     H25142   1.223   8.066   3.766 -0.2862  1.4433  0.9952
  907MOL0     H25143   1.097   7.953   3.827  0.4829  0.3222  0.2631
  907MOL0     H25144   0.974   8.160   3.843  0.7529  0.7413 -1.2080
  907MOL0     H25145   0.918   8.079   3.701 -0.9142 -2.0610  1.9607
  907MOL0     H25146   1.706   7.414   3.304 -1.1198  3.0710 -0.3002
  907MOL0     H25147   1.928   7.273   3.281  2.4879 -0.2130 -0.0825
  907MOL0     H25148   2.330   7.255   3.048 -1.8144  0.9874  0.8769
  907MOL0     H25149   2.550   7.159   3.004 -2.3536  2.0018 -0.3519
  907MOL0     H25150   3.886   6.487   3.908  0.6695  3.2477  0.4964
  907MOL0     H25151   4.055   6.663   3.988  2.6748 -0.4610  1.8502
  907MOL0     H25152   4.362   6.825   4.111  0.4803  1.6340 -0.7139
  907MOL0     H25153   4.462   7.049   4.138  3.6353 -4.7606 -2.5731
  907MOL0     H25154   4.532   7.337   4.489  1.0018  0.6229  2.1712
  907MOL0     H25155   4.464   7.214   4.592  0.3161 -2.1064  0.4101
  907MOL0     H25156   4.658   7.063   4.567  1.9091  0.2438 -0.9415
  907MOL0     H25157   4.692   7.193   4.666  0.6779  0.5913  0.0854
  907MOL0     H25158   4.778   7.178   4.376  1.6347 -2.9507  0.1455
  907MOL0     H25159   4.788   7.323   4.484 -0.9489  0.5120  1.8858
  907MOL0     H25160   4.935   7.056   4.535 -0.3879  0.0478  2.5667
  907MOL0     H25161   4.941   7.217   4.630  2.0551  0.1578  0.3883
  907MOL0     H25162   5.198   7.313   4.329  0.4159 -0.7112  0.0651
  907MOL0     H25163   4.465   6.986   4.565 -2.8108  3.1100  0.2174
  907MOL0     H25164   4.271   6.728   4.605 -0.8777 -1.8597 -1.5361
  907MOL0     H25165   4.404   6.624   4.542  4.7937  2.2340 -1.8015
  907MOL0     H25166   4.436   6.757   4.659 -0.9085 -0.3139  1.4618
  908MOL0     O25167  10.076   6.360   5.435  0.4784 -0.6267 -1.3976
  908MOL0     C25168  10.078   6.277   5.350 -0.3972  0.2194  0.0600
  908MOL0     O25169  10.019   6.156   5.356 -0.0795  0.1949  0.1934
  908MOL0     C25170   9.963   6.114   5.471  0.5356  0.3924  0.0602
  908MOL0     C25171   9.838   6.164   5.515  0.8866 -0.2691  0.2509
  908MOL0     C25172   9.783   6.109   5.636  0.9216 -0.4123 -1.0182
  908MOL0     C25173   9.844   6.009   5.712 -0.4239 -0.5143  0.8273
  908MOL0     O25174   9.795   5.959   5.827  0.2152  0.8139 -0.2357
  908MOL0     C25175   9.692   6.023   5.898  0.7017  0.0054 -0.3249
  908MOL0     C25176   9.659   5.940   6.023  0.1715  0.0195 -0.2095
  908MOL0     C25177   9.762   5.972   6.136 -0.1092 -0.1755  1.0331
  908MOL0     C25178   9.771   5.859   6.244 -0.6302 -0.3490 -0.3070
  908MOL0     C25179   9.889   5.888   6.331 -0.0675 -0.0584  0.0230
  908MOL0     C25180   9.897   5.778   6.442  0.0125 -0.0105 -0.0431
  908MOL0     C25181   9.953   5.822   6.579  0.2558  0.4292 -0.0242
  908MOL0     C25182  10.108   5.834   6.572 -0.4992 -0.1427 -0.4219
  908MOL0     N25183  10.158   5.909   6.694 -0.7795  1.3038 -0.0227
  908MOL0     C25184  10.294   5.924   6.711  0.2266 -0.0567 -0.9439
  908MOL0     C25185  10.304   5.997   6.825 -0.6721 -0.3940  0.2274
  908MOL0     C25186  10.429   6.017   6.902  0.1353 -0.5311 -0.2606
  908MOL0     C25187  10.533   6.104   6.828  1.3154 -0.9524 -0.6256
  908MOL0     C25188  10.655   6.137   6.914 -0.6190 -0.5531  0.1604
  908MOL0     C25189  10.736   6.245   6.831  0.1477 -0.1456  0.5561
  908MOL0     O25190  10.787   6.193   6.708  0.2326 -0.0717 -0.1458
  908MOL0     C25191  10.878   6.264   6.643  1.8430 -0.1938 -0.0196
  908MOL0     C25192  10.925   6.196   6.532 -0.6614  0.3537 -1.5898
  908MOL0     C25193  11.043   6.232   6.466 -0.5716 -0.1311 -0.0719
  908MOL0     C25194  11.089   6.134   6.353  0.2742 -0.4022  0.0303
  908MOL0     C25195  11.097   6.358   6.502  0.5735  0.0394  0.4264
  908MOL0     C25196  11.220   6.403   6.433  0.3411 -0.3596  0.0322
  908MOL0     O25197  11.293   6.319   6.349  0.0385  0.0441 -0.6393
  908MOL0     C25198  11.370   6.363   6.242 -0.2291  0.4310 -0.4403
  908MOL0     C25199  11.452   6.265   6.182 -0.0161  0.2106  0.2994
  908MOL0     C25200  11.530   6.295   6.071 -0.7181  1.1379  0.4810
  908MOL0     C25201  11.556   6.428   6.033  0.7876  0.6895 -0.3945
  908MOL0     O25202  11.665   6.444   5.951 -0.6703  0.4732  0.2709
  908MOL0     C25203  11.736   6.573   5.948 -0.0415  0.1852  0.1729
  908MOL0     C25204  11.853   6.581   5.848 -0.7811  0.8667  0.1461
  908MOL0     C25205  11.938   6.705   5.878  0.4111 -1.0713 -0.6693
  908MOL0     C25206  12.025   6.760   5.761  1.0481  0.3953  0.4692
  908MOL0     C25207  12.111   6.874   5.799 -0.3086  0.0733 -0.1137
  908MOL0     C25208  12.035   6.977   5.873 -0.4854 -0.4689  0.2083
  908MOL0     C25209  12.131   7.103   5.886 -0.3846  0.7902 -0.6313
  908MOL0     C25210  12.145   7.189   5.760 -0.3382 -0.2953  0.4306
  908MOL0    Cl25211  11.996   7.267   5.706 -0.1837  0.0156  0.2413
  908MOL0     C25212  11.489   6.534   6.108 -0.7223  0.1915 -0.5409
  908MOL0     C25213  11.395   6.501   6.212 -0.3075  0.0721  0.7446
  908MOL0     O25214  11.259   6.515   6.466 -0.0204  0.1317 -1.0501
  908MOL0     C25215  11.029   6.435   6.599 -0.1508  0.2638  0.3007
  908MOL0     C25216  10.927   6.378   6.682 -0.3236 -0.4095  0.1160
  908MOL0     N25217  10.175   6.029   6.875  0.6488 -0.6394 -0.3448
  908MOL0     N25218  10.093   5.990   6.780 -0.8402 -0.1066  0.3996
  908MOL0     C25219   9.957   5.953   5.663  0.0792 -0.4301 -0.2100
  908MOL0     C25220  10.019   5.999   5.548 -0.2856  0.2575 -0.7438
  908MOL0     C25221  10.152   6.312   5.229 -0.1273 -0.2239  1.1373
  908MOL0     C25222  10.175   6.204   5.135  0.0552  0.0873 -0.0634
  908MOL0     C25223  10.253   6.224   5.025 -0.4808 -0.2777  0.2492
  908MOL0     C25224  10.295   6.351   4.996 -0.5687 -0.2993 -0.6343
  908MOL0     O25225  10.381   6.381   4.895 -0.9244  0.3686  0.0915
  908MOL0     C25226  10.358   6.304   4.775 -0.1530  0.1064 -0.3091
  908MOL0     C25227  10.417   6.367   4.649  0.3740 -0.0249 -0.0365
  908MOL0     C25228  10.417   6.272   4.536 -1.3706  0.0902  0.4326
  908MOL0     C25229  10.473   6.341   4.409 -0.3670 -0.2607  0.8038
  908MOL0     C25230  10.443   6.254   4.292  0.1969  1.4441 -0.4318
  908MOL0     C25231  10.424   6.180   4.196 -0.3461 -0.4203  0.5889
  908MOL0     C25232  10.252   6.459   5.070  0.3462  0.4971 -1.6760
  908MOL0     C25233  10.186   6.447   5.198  0.5378 -0.5140  0.5145
  908MOL0     C25234  10.157   6.573   5.282 -0.7917 -0.7253 -0.0353
  908MOL0     H25235   9.783   6.231   5.450 -2.3186 -0.3823  2.5834
  908MOL0     H25236   9.682   6.143   5.657  1.8730  0.7901  2.2296
  908MOL0     H25237   9.599   6.053   5.848  0.6618  0.0811 -0.2086
  908MOL0     H25238   9.724   6.120   5.939  0.8173 -0.7755  1.5366
  908MOL0     H25239   9.559   5.966   6.057  0.2040 -0.1143 -0.0062
  908MOL0     H25240   9.660   5.833   5.998 -0.3687 -0.2231  0.7670
  908MOL0     H25241   9.862   5.990   6.094 -0.6381  1.6291  0.4650
  908MOL0     H25242   9.742   6.069   6.181 -0.3710 -0.7143  2.0927
  908MOL0     H25243   9.680   5.860   6.304 -0.0259  1.7714  0.6908
  908MOL0     H25244   9.774   5.770   6.182  3.9056  1.0438 -2.5443
  908MOL0     H25245   9.870   5.983   6.382  1.9738  0.8643 -0.8351
  908MOL0     H25246   9.984   5.907   6.281  0.2086  1.2022  0.9837
  908MOL0     H25247   9.797   5.739   6.465 -0.8101  2.5576  1.0909
  908MOL0     H25248   9.960   5.695   6.408 -0.3027 -1.0430  1.7762
  908MOL0     H25249   9.925   5.751   6.657  4.1219  0.8618  1.9905
  908MOL0     H25250   9.905   5.917   6.605 -0.0689  0.4932 -0.8062
  908MOL0     H25251  10.158   5.738   6.559 -0.0643  0.2021 -1.3917
  908MOL0     H25252  10.139   5.890   6.483 -0.2327 -1.3653 -1.1096
  908MOL0     H25253  10.377   5.891   6.649  1.5169  1.5265 -0.1208
  908MOL0     H25254  10.476   5.923   6.932  2.5333  0.9443  0.8882
  908MOL0     H25255  10.405   6.063   6.999 -0.8133 -0.8340 -0.3406
  908MOL0     H25256  10.575   6.063   6.736  2.3358  0.7053 -0.9390
  908MOL0     H25257  10.490   6.199   6.798  2.3457 -0.6469 -1.2001
  908MOL0     H25258  10.625   6.184   7.008 -1.7128  1.5843 -1.1708
  908MOL0     H25259  10.715   6.050   6.942 -1.2308 -0.4175  2.0049
  908MOL0     H25260  10.667   6.327   6.809  2.1555  1.4935  0.0154
  908MOL0     H25261  10.810   6.289   6.898  0.6545 -1.0001  0.5631
  908MOL0     H25262  10.877   6.100   6.515 -0.6098 -0.6269  2.7369
  908MOL0     H25263  11.098   6.186   6.258  0.1234  0.4714  0.4858
  908MOL0     H25264  11.012   6.058   6.333 -0.9638  1.0388 -0.9040
  908MOL0     H25265  11.184   6.085   6.372  1.7421  1.2177 -2.5799
  908MOL0     H25266  11.460   6.171   6.236  1.9674 -0.7922 -1.6177
  908MOL0     H25267  11.575   6.209   6.023 -3.5617 -1.6725  2.4640
  908MOL0     H25268  11.662   6.651   5.925 -0.2210  0.6640  2.1319
  908MOL0     H25269  11.774   6.599   6.048  1.7434 -0.6414 -0.2500
  908MOL0     H25270  11.915   6.491   5.856 -1.2882  0.5191  0.2127
  908MOL0     H25271  11.811   6.583   5.747 -1.0523 -2.6818  0.0406
  908MOL0     H25272  12.002   6.687   5.965 -1.5263 -0.7134  0.8827
  908MOL0     H25273  11.865   6.780   5.907  1.5229 -0.2728  0.1727
  908MOL0     H25274  11.958   6.788   5.679 -2.2773  0.9576  3.1622
  908MOL0     H25275  12.093   6.681   5.728  0.7192 -0.0343  0.8199
  908MOL0     H25276  12.194   6.831   5.857 -1.0617  0.2924  1.1688
  908MOL0     H25277  12.146   6.912   5.703 -1.2970 -0.4832 -0.7089
  908MOL0     H25278  11.997   6.956   5.973  1.1762 -0.6225  0.8426
  908MOL0     H25279  11.951   7.012   5.812  2.1212  0.0373 -3.4753
  908MOL0     H25280  12.230   7.067   5.915 -0.7553  0.5686  0.4303
  908MOL0     H25281  12.084   7.166   5.962  2.2814  2.3972 -0.1968
  908MOL0     H25282  12.180   7.121   5.682 -1.8371 -1.8259  1.0372
  908MOL0     H25283  12.212   7.274   5.776 -0.6242  0.0074  0.0335
  908MOL0     H25284  11.499   6.642   6.101 -2.4412  0.3635 -0.9046
  908MOL0     H25285  11.355   6.581   6.274 -2.2286 -2.1631  2.5957
  908MOL0     H25286  11.067   6.536   6.611 -2.3367  1.7007 -3.2902
  908MOL0     H25287  10.884   6.437   6.762 -2.4657  0.9145 -1.8862
  908MOL0     H25288  10.000   5.862   5.702 -1.6695 -1.4454 -0.5751
  908MOL0     H25289  10.104   5.945   5.506 -0.7038 -2.9458  2.0805
  908MOL0     H25290  10.142   6.103   5.155  1.5872 -0.3883  0.2212
  908MOL0     H25291  10.304   6.143   4.974  1.4722  1.6710 -1.0804
  908MOL0     H25292  10.403   6.205   4.786  0.6004  0.4826  0.1084
  908MOL0     H25293  10.251   6.282   4.768 -0.0210 -0.7863  0.3629
  908MOL0     H25294  10.518   6.406   4.659  1.7147 -2.5242 -2.3098
  908MOL0     H25295  10.336   6.431   4.614  0.5021  0.3728  0.3801
  908MOL0     H25296  10.480   6.184   4.554  0.8301  1.2580 -1.0867
  908MOL0     H25297  10.311   6.245   4.533 -1.3450 -0.8951  3.9505
  908MOL0     H25298  10.581   6.357   4.412  0.6677 -4.6180 -2.1787
  908MOL0     H25299  10.430   6.440   4.396  2.3046  0.5412 -5.2136
  908MOL0     H25300  10.422   6.133   4.100 -1.1181  3.6397 -1.6406
  908MOL0     H25301  10.276   6.562   5.045  0.0459  1.0502  0.1906
  908MOL0     H25302  10.209   6.574   5.378 -0.3079  0.8397 -0.2854
  908MOL0     H25303  10.188   6.660   5.223 -3.0269 -1.5176 -2.5637
  908MOL0     H25304  10.051   6.596   5.289 -0.4388  1.1444 -0.2465
  909MOL0     O25305   6.849  11.009   6.428  0.1007 -0.9162  0.6387
  909MOL0     C25306   6.913  11.112   6.464 -0.5357  0.1838 -0.1046
  909MOL0     O25307   6.994  11.127   6.573  0.3556 -0.1587  0.6128
  909MOL0     C25308   7.031  11.008   6.638  0.0363 -0.5640  0.0483
  909MOL0     C25309   7.171  10.986   6.643  0.1464  0.4349  0.4084
  909MOL0     C25310   7.228  10.882   6.719  0.5632  0.2985 -0.0834
  909MOL0     C25311   7.144  10.803   6.799  0.1447  0.2980  0.2106
  909MOL0     O25312   7.201  10.703   6.869  0.6648 -0.7458  0.4045
  909MOL0     C25313   7.137  10.665   6.994  0.2420 -0.0639 -0.3967
  909MOL0     C25314   7.250  10.650   7.093  0.5633 -0.1796 -1.0967
  909MOL0     C25315   7.351  10.764   7.103  0.8459 -0.8612  0.6771
  909MOL0     C25316   7.429  10.753   7.235 -0.6319  0.5753  0.4709
  909MOL0     C25317   7.355  10.778   7.369  0.3337  0.8337  0.3099
  909MOL0     C25318   7.265  10.900   7.363 -0.6533  0.1686  0.8484
  909MOL0     C25319   7.333  11.031   7.317  0.0974  0.8427 -0.5629
  909MOL0     C25320   7.417  11.098   7.423 -0.1009 -0.8659 -0.3000
  909MOL0     N25321   7.540  11.129   7.352 -1.6671 -0.1759  0.1857
  909MOL0     C25322   7.656  11.051   7.342  0.3623 -0.1875  0.5381
  909MOL0     C25323   7.740  11.124   7.279 -0.1241 -0.3297 -0.3024
  909MOL0     C25324   7.872  11.081   7.235 -0.3612  0.3030 -1.2190
  909MOL0     C25325   7.884  11.110   7.084 -0.0078  0.0745  0.3033
  909MOL0     C25326   8.013  11.049   7.021 -0.9499  0.3917  0.4407
  909MOL0     C25327   8.135  11.075   7.111  0.4390  0.4244  0.5492
  909MOL0     O25328   8.246  11.054   7.030  0.1295  0.7781 -0.0370
  909MOL0     C25329   8.367  11.066   7.086 -0.1684 -0.1117 -0.2161
  909MOL0     C25330   8.399  11.009   7.213 -0.2816 -0.2221  0.0603
  909MOL0     C25331   8.528  11.023   7.265  0.2428 -0.4209  1.3768
  909MOL0     C25332   8.548  10.981   7.409 -0.5046  0.4132 -0.9523
  909MOL0     C25333   8.628  11.073   7.181 -0.9827  0.5804  0.2407
  909MOL0     C25334   8.761  11.079   7.230  0.3521  0.3058  0.4515
  909MOL0     O25335   8.851  11.033   7.135 -0.4094  0.0049  1.1445
  909MOL0     C25336   8.985  11.006   7.164  0.7073  0.4655  0.0587
  909MOL0     C25337   9.044  11.019   7.288  0.0767  0.2334  0.3798
  909MOL0     C25338   9.182  10.983   7.303 -0.0674  0.5654 -0.1462
  909MOL0     C25339   9.261  10.959   7.196  0.5365  0.0070  0.2887
  909MOL0     O25340   9.393  10.937   7.221 -0.2586 -0.1109  0.6926
  909MOL0     C25341   9.504  10.935   7.127  0.3903 -0.0083  0.0740
  909MOL0     C25342   9.628  11.001   7.184 -0.7655  0.5681  0.3416
  909MOL0     C25343   9.657  10.919   7.310  0.0825  0.0454 -0.2149
  909MOL0     C25344   9.789  10.973   7.386  0.0260 -0.1310  0.2811
  909MOL0     C25345   9.862  10.868   7.466 -1.5982 -0.1203  0.5271
  909MOL0     C25346   9.985  10.906   7.564 -0.5967 -0.5986  1.7411
  909MOL0     C25347  10.110  10.942   7.477  0.7512  0.5320  0.6429
  909MOL0     C25348  10.188  10.822   7.444  0.8984  1.5759 -1.3032
  909MOL0    Cl25349  10.338  10.872   7.384  0.2799  0.2949 -0.1434
  909MOL0     C25350   9.198  10.932   7.072  0.6125  0.4361 -0.0644
  909MOL0     C25351   9.061  10.957   7.062 -0.2027  0.5471 -1.3121
  909MOL0     O25352   8.784  11.153   7.327  0.2705 -0.5649  0.2811
  909MOL0     C25353   8.602  11.126   7.054 -0.2760  0.6875 -0.7569
  909MOL0     C25354   8.461  11.135   7.012 -0.0508  0.8770  0.3061
  909MOL0     N25355   7.684  11.249   7.252 -0.3807 -0.1819 -0.3380
  909MOL0     N25356   7.559  11.244   7.286  0.2224  0.0326 -0.3621
  909MOL0     C25357   7.000  10.832   6.796  0.0065 -0.4254 -0.6751
  909MOL0     C25358   6.942  10.929   6.707 -0.4833 -0.2714 -0.5318
  909MOL0     C25359   6.893  11.233   6.377  0.3927  0.9380  0.4114
  909MOL0     C25360   6.822  11.220   6.255  0.6031 -0.8479 -0.2095
  909MOL0     C25361   6.786  11.331   6.172  0.5542  1.6768 -0.2596
  909MOL0     C25362   6.819  11.457   6.213  0.3308  0.0482  0.0936
  909MOL0     O25363   6.793  11.561   6.138 -0.2544  0.4553 -0.4990
  909MOL0     C25364   6.659  11.587   6.133  1.3971 -0.1874  0.4231
  909MOL0     C25365   6.632  11.727   6.069 -0.0995  0.1767  1.6279
  909MOL0     C25366   6.663  11.846   6.168  0.7214  1.1837  0.4155
  909MOL0     C25367   6.652  11.985   6.109 -0.1272 -0.4466  0.0424
  909MOL0     C25368   6.533  11.993   6.025  0.7754 -0.3438 -0.4256
  909MOL0     C25369   6.436  12.009   5.956  0.6640  0.4910 -0.7638
  909MOL0     C25370   6.896  11.472   6.331 -0.0066  0.5212 -0.0438
  909MOL0     C25371   6.928  11.368   6.416  0.3131 -0.3138  0.3567
  909MOL0     C25372   6.992  11.397   6.550  0.2672  0.5364 -0.6503
  909MOL0     H25373   7.245  11.043   6.587  0.5769  0.9439  1.4815
  909MOL0     H25374   7.332  10.858   6.702 -0.0645 -1.9389 -1.1131
  909MOL0     H25375   7.075  10.576   6.997 -1.0899  0.7638  3.4414
  909MOL0     H25376   7.076  10.752   7.020  0.1802  0.0383 -0.8742
  909MOL0     H25377   7.209  10.638   7.194 -2.4396 -0.0220 -2.1972
  909MOL0     H25378   7.290  10.552   7.069 -0.2783 -0.2474 -2.3225
  909MOL0     H25379   7.428  10.755   7.026  1.0790 -0.2581  0.8308
  909MOL0     H25380   7.296  10.855   7.078  0.8794 -1.1582 -0.5417
  909MOL0     H25381   7.467  10.650   7.236 -0.9437  0.4361 -0.7190
  909MOL0     H25382   7.517  10.815   7.215  1.3365 -1.6806  1.5994
  909MOL0     H25383   7.434  10.783   7.444  3.1802  0.3300 -2.4214
  909MOL0     H25384   7.296  10.689   7.390 -1.7169  1.7829 -1.1003
  909MOL0     H25385   7.182  10.885   7.294  0.2072  2.5023 -0.8299
  909MOL0     H25386   7.215  10.922   7.458 -1.6335  2.7401 -0.1547
  909MOL0     H25387   7.262  11.108   7.286  0.2309  1.5992  0.9262
  909MOL0     H25388   7.396  11.003   7.232  0.6414  2.0067 -0.5506
  909MOL0     H25389   7.367  11.188   7.460 -0.3595  0.6555 -3.9455
  909MOL0     H25390   7.438  11.034   7.509  1.1454  1.4460  1.2142
  909MOL0     H25391   7.656  10.948   7.377 -0.9245  0.4696  2.6722
  909MOL0     H25392   7.891  10.976   7.258 -0.7779  0.6854  1.0968
  909MOL0     H25393   7.940  11.140   7.297 -1.2442 -1.2846  1.4292
  909MOL0     H25394   7.797  11.066   7.035 -1.2799  0.9420  1.6945
  909MOL0     H25395   7.875  11.217   7.064 -6.4428 -0.6156 -3.0173
  909MOL0     H25396   8.005  10.942   7.002 -0.0478  0.7792 -2.7328
  909MOL0     H25397   8.023  11.093   6.921 -3.7230 -1.9636 -1.0223
  909MOL0     H25398   8.139  11.175   7.154 -1.1435 -0.1898  2.2606
  909MOL0     H25399   8.133  11.000   7.192 -2.0096  1.1937  1.3083
  909MOL0     H25400   8.340  10.951   7.284 -1.8096  0.6205 -0.4766
  909MOL0     H25401   8.590  11.065   7.465 -0.9496  1.1163 -1.6570
  909MOL0     H25402   8.621  10.899   7.408 -1.5441 -0.5402 -0.7698
  909MOL0     H25403   8.451  10.955   7.454 -0.9568 -1.0087 -2.6586
  909MOL0     H25404   8.981  11.052   7.369  0.7535  1.3909  0.4648
  909MOL0     H25405   9.221  10.995   7.403 -0.5600  1.5652 -0.0630
  909MOL0     H25406   9.511  10.833   7.088 -3.0765 -0.0639 -0.7644
  909MOL0     H25407   9.465  10.987   7.039 -1.1711 -3.3545 -1.3738
  909MOL0     H25408   9.704  10.985   7.107 -3.7606 -0.1376 -2.7445
  909MOL0     H25409   9.628  11.110   7.194  0.1541  0.4843  1.4181
  909MOL0     H25410   9.675  10.816   7.277 -1.3989 -0.6637  1.0866
  909MOL0     H25411   9.569  10.920   7.374  0.8841 -0.6198  0.9205
  909MOL0     H25412   9.755  11.039   7.466 -1.2654 -3.5751  2.7884
  909MOL0     H25413   9.863  11.027   7.326  1.6782  1.4194  3.4716
  909MOL0     H25414   9.787  10.810   7.521 -3.7481 -0.8088 -2.8035
  909MOL0     H25415   9.890  10.787   7.398  1.1589 -1.4696  3.0620
  909MOL0     H25416  10.006  10.813   7.617  2.4728 -2.4237 -2.1508
  909MOL0     H25417   9.960  10.989   7.631 -0.1780 -0.4972  1.7755
  909MOL0     H25418  10.175  11.012   7.531  0.6899  1.4559 -0.4460
  909MOL0     H25419  10.073  10.998   7.391 -1.7903 -0.9143  0.6766
  909MOL0     H25420  10.130  10.775   7.365  1.9300 -1.7258 -0.2551
  909MOL0     H25421  10.192  10.743   7.520 -0.1547  3.4487  0.8471
  909MOL0     H25422   9.253  10.896   6.986  1.5336  0.7817  0.3617
  909MOL0     H25423   9.012  10.930   6.969 -0.3945  0.6571 -1.2417
  909MOL0     H25424   8.676  11.163   6.985 -0.5772 -0.3144 -1.6459
  909MOL0     H25425   8.427  11.175   6.917 -1.1034  0.0369  0.3127
  909MOL0     H25426   6.932  10.761   6.842  1.7402 -3.1356 -2.0314
  909MOL0     H25427   6.833  10.930   6.708 -0.8824 -4.9573  3.0730
  909MOL0     H25428   6.791  11.120   6.228 -0.2677 -1.5224  2.8584
  909MOL0     H25429   6.746  11.313   6.073  0.2050 -1.3012  0.3107
  909MOL0     H25430   6.612  11.523   6.058  1.9211 -1.5178  1.1906
  909MOL0     H25431   6.609  11.581   6.230  0.4244  2.4491  0.1662
  909MOL0     H25432   6.529  11.730   6.033 -0.8162 -1.2111  3.4308
  909MOL0     H25433   6.700  11.730   5.983  0.5588 -1.0107  2.0752
  909MOL0     H25434   6.579  11.841   6.238  2.5965 -2.0166  2.7496
  909MOL0     H25435   6.757  11.832   6.222  1.4197 -0.1099 -1.0653
  909MOL0     H25436   6.734  12.006   6.039  1.1220 -2.7872  0.7025
  909MOL0     H25437   6.646  12.060   6.188  0.2131 -0.7252  0.3387
  909MOL0     H25438   6.349  12.037   5.900  0.0189  0.6704  0.3068
  909MOL0     H25439   6.925  11.572   6.362  0.8035  0.5283 -0.7536
  909MOL0     H25440   6.933  11.358   6.633  1.1816  0.3430 -0.0830
  909MOL0     H25441   7.091  11.354   6.566  0.1411 -0.4881 -2.2755
  909MOL0     H25442   7.006  11.504   6.565 -0.4039  0.4345  0.9292
  910MOL0     O25443   5.666  11.197   2.026  0.6377  0.9740  0.0707
  910MOL0     C25444   5.788  11.227   2.033 -0.1576  0.2368 -0.4037
  910MOL0     O25445   5.830  11.350   2.072  0.7308  0.0427  0.3943
  910MOL0     C25446   5.734  11.438   2.132  0.7249  0.1488  0.2862
  910MOL0     C25447   5.636  11.410   2.234  0.3720 -0.2094 -0.4396
  910MOL0     C25448   5.540  11.503   2.273  0.1587  0.0739 -0.1146
  910MOL0     C25449   5.546  11.635   2.237 -0.6728  0.3570  1.1844
  910MOL0     O25450   5.463  11.739   2.265  0.6818  0.3616  0.0494
  910MOL0     C25451   5.374  11.721   2.374  0.6260  1.1420 -0.9857
  910MOL0     C25452   5.263  11.830   2.374  0.7889 -0.4027  0.4923
  910MOL0     C25453   5.154  11.800   2.478 -0.0050 -0.2377 -0.0115
  910MOL0     C25454   5.202  11.809   2.628 -0.2121  0.1360 -0.4425
  910MOL0     C25455   5.288  11.934   2.664 -0.3612 -0.5083 -0.5880
  910MOL0     C25456   5.339  11.942   2.813 -1.1317 -0.4168 -0.1919
  910MOL0     C25457   5.228  11.941   2.928 -0.5263 -1.0817  0.2258
  910MOL0     C25458   5.125  12.054   2.907 -0.2498  0.2174 -0.6822
  910MOL0     N25459   5.018  12.029   3.008 -0.2745  0.1805  0.7183
  910MOL0     C25460   5.033  12.034   3.138 -0.2477  0.8566 -0.0141
  910MOL0     C25461   4.909  12.036   3.197 -0.2509  0.4502  0.3768
  910MOL0     C25462   4.892  12.067   3.346  0.1694 -1.4115  0.1516
  910MOL0     C25463   4.937  12.216   3.364  0.1752 -0.8371  0.1016
  910MOL0     C25464   5.086  12.217   3.391 -0.2193  1.1517  0.0785
  910MOL0     C25465   5.135  12.317   3.490  0.4355 -0.9957 -0.5705
  910MOL0     O25466   5.270  12.279   3.532  0.8035 -0.3762 -0.3675
  910MOL0     C25467   5.335  12.353   3.627  0.9016  0.1984 -0.2362
  910MOL0     C25468   5.476  12.330   3.648  0.5465  0.6411  0.0992
  910MOL0     C25469   5.546  12.398   3.747 -0.2412 -0.0090 -0.3865
  910MOL0     C25470   5.701  12.356   3.755 -0.1005 -0.2474 -0.0464
  910MOL0     C25471   5.483  12.499   3.820  0.0724 -0.2715  0.1606
  910MOL0     C25472   5.552  12.601   3.906 -1.4407  0.4755 -0.1668
  910MOL0     O25473   5.469  12.672   3.983  0.0610  0.3928 -0.9296
  910MOL0     C25474   5.502  12.794   4.038  0.0710 -0.4176 -0.4623
  910MOL0     C25475   5.580  12.894   3.988 -0.4342 -0.6638 -0.0929
  910MOL0     C25476   5.587  13.018   4.056  0.0284 -0.8038 -0.1632
  910MOL0     C25477   5.520  13.037   4.179 -0.5930 -0.4356  0.0469
  910MOL0     O25478   5.557  13.158   4.238  0.5657 -0.1906 -0.7209
  910MOL0     C25479   5.545  13.157   4.378 -0.1928  0.7818 -0.4715
  910MOL0     C25480   5.617  13.267   4.449  0.2187 -0.0061  0.3308
  910MOL0     C25481   5.723  13.211   4.552 -0.5348 -1.0130 -0.2863
  910MOL0     C25482   5.808  13.329   4.589  0.0017  0.0164 -1.2248
  910MOL0     C25483   5.921  13.289   4.681 -0.0986 -0.8367  0.2792
  910MOL0     C25484   6.034  13.219   4.603 -0.0190  0.3838  0.6378
  910MOL0     C25485   6.049  13.072   4.647  0.5935  0.4472 -0.9836
  910MOL0     C25486   6.170  13.010   4.572 -0.6744  1.1020 -0.4793
  910MOL0    Cl25487   6.175  12.843   4.620  0.2500 -0.0094 -0.2801
  910MOL0     C25488   5.444  12.936   4.235  0.3859  0.1254  0.2844
  910MOL0     C25489   5.436  12.812   4.160 -0.0431  0.5511 -0.6354
  910MOL0     O25490   5.674  12.607   3.910  0.6267  1.1419  0.0952
  910MOL0     C25491   5.350  12.525   3.783 -0.0618  0.5069 -1.2069
  910MOL0     C25492   5.274  12.447   3.702  0.2489 -0.1673  0.0308
  910MOL0     N25493   4.823  12.012   3.095 -0.2897 -0.0227 -0.0835
  910MOL0     N25494   4.888  12.011   2.984 -0.0125 -0.0099  0.3381
  910MOL0     C25495   5.660  11.665   2.160 -0.4165  0.2497 -0.6039
  910MOL0     C25496   5.750  11.574   2.103  0.6374 -0.2907 -0.1362
  910MOL0     C25497   5.885  11.134   1.980  0.2874 -0.9257 -0.4508
  910MOL0     C25498   5.889  11.006   2.032 -0.2486  0.1877 -0.0229
  910MOL0     C25499   5.983  10.901   1.987 -1.4778 -0.1768  0.2215
  910MOL0     C25500   6.073  10.938   1.885  0.9827  0.1783  1.0923
  910MOL0     O25501   6.159  10.860   1.829 -0.4691 -0.1173 -0.5073
  910MOL0     C25502   6.222  10.766   1.920 -0.3869 -0.3674 -0.0056
  910MOL0     C25503   6.282  10.659   1.832  0.0114 -0.1820  0.3034
  910MOL0     C25504   6.405  10.604   1.903 -0.3556 -0.0756  0.4846
  910MOL0     C25505   6.462  10.481   1.822 -0.1921 -0.0404 -0.3676
  910MOL0     C25506   6.531  10.529   1.700 -0.0864 -0.6296  0.2157
  910MOL0     C25507   6.577  10.585   1.598  0.0495 -0.0956  0.3367
  910MOL0     C25508   6.088  11.075   1.852  0.9350  0.4317  0.2914
  910MOL0     C25509   5.995  11.174   1.895 -0.1330 -0.0081  0.6684
  910MOL0     C25510   6.014  11.313   1.840 -0.0770  0.4995  0.2240
  910MOL0     H25511   5.633  11.312   2.282  1.5869  0.2453  0.6523
  910MOL0     H25512   5.459  11.470   2.338 -0.6361 -0.5016 -1.3726
  910MOL0     H25513   5.428  11.719   2.469  0.0266 -0.5463 -0.6586
  910MOL0     H25514   5.319  11.627   2.364  0.2979  1.0411  1.2428
  910MOL0     H25515   5.312  11.927   2.370 -0.1356  0.0202 -2.4575
  910MOL0     H25516   5.214  11.832   2.276  0.6320 -0.3787  0.5702
  910MOL0     H25517   5.069  11.869   2.468 -0.4569 -0.2480  2.9663
  910MOL0     H25518   5.109  11.701   2.473 -0.2335 -0.1186 -0.3567
  910MOL0     H25519   5.121  11.805   2.701 -0.0040 -2.6174 -0.2714
  910MOL0     H25520   5.263  11.718   2.638  0.3966  0.4431 -1.2201
  910MOL0     H25521   5.222  12.020   2.651 -2.2072 -1.6990  0.3592
  910MOL0     H25522   5.368  11.961   2.596  0.1998 -0.8233 -0.0693
  910MOL0     H25523   5.406  11.856   2.824 -2.5066 -1.5222 -0.1378
  910MOL0     H25524   5.414  12.022   2.823 -2.1953  0.6446 -0.4989
  910MOL0     H25525   5.269  11.941   3.029 -0.3701 -4.7767  0.3002
  910MOL0     H25526   5.188  11.839   2.919 -0.3842 -1.0658 -0.7091
  910MOL0     H25527   5.174  12.149   2.929 -0.3864  0.2639 -0.5728
  910MOL0     H25528   5.082  12.057   2.807  1.1285  0.2666 -1.2936
  910MOL0     H25529   5.126  12.018   3.193 -0.2696 -3.3930 -0.8556
  910MOL0     H25530   4.956  12.002   3.407 -0.3997  1.1673  3.8502
  910MOL0     H25531   4.787  12.056   3.375 -0.3237 -2.4205 -1.8202
  910MOL0     H25532   4.911  12.264   3.268  0.5710 -0.9307 -0.0539
  910MOL0     H25533   4.879  12.263   3.444  1.8162 -0.1902  0.9529
  910MOL0     H25534   5.115  12.125   3.443  0.2808  0.8211 -0.7765
  910MOL0     H25535   5.137  12.220   3.294  1.2336 -2.0339  0.5999
  910MOL0     H25536   5.134  12.414   3.440  1.1150 -1.5959 -1.7705
  910MOL0     H25537   5.070  12.320   3.579 -1.3443 -1.5982 -1.7907
  910MOL0     H25538   5.526  12.257   3.585  0.8007  0.0126  1.0165
  910MOL0     H25539   5.757  12.406   3.834  1.5251 -0.0356 -1.2898
  910MOL0     H25540   5.741  12.385   3.657  0.2662 -1.3729 -0.2409
  910MOL0     H25541   5.721  12.250   3.768 -2.4288 -0.8934 -1.2058
  910MOL0     H25542   5.644  12.890   3.900 -0.1014  0.9942  0.0468
  910MOL0     H25543   5.656  13.087   4.009  0.9466 -2.6087 -1.6194
  910MOL0     H25544   5.440  13.169   4.408 -1.1984  0.1853 -3.4108
  910MOL0     H25545   5.586  13.064   4.416  1.4045  2.6685  2.8837
  910MOL0     H25546   5.664  13.329   4.372 -2.3648  0.3726 -1.0366
  910MOL0     H25547   5.550  13.333   4.506 -1.6177 -1.7963  0.3436
  910MOL0     H25548   5.786  13.138   4.501  0.7732  0.3248 -0.6329
  910MOL0     H25549   5.684  13.173   4.647  1.2876  0.5233  1.1733
  910MOL0     H25550   5.745  13.410   4.628 -2.2995 -1.7849 -0.9584
  910MOL0     H25551   5.851  13.377   4.501 -1.9209  2.0476 -1.1424
  910MOL0     H25552   5.962  13.383   4.718 -1.6016  1.2291 -2.8887
  910MOL0     H25553   5.891  13.231   4.769 -0.9793 -0.2031  0.4086
  910MOL0     H25554   6.135  13.259   4.617  1.2410 -1.7989 -1.4416
  910MOL0     H25555   6.003  13.223   4.498 -4.6140  1.2224  1.7769
  910MOL0     H25556   5.954  13.026   4.618  1.6224 -2.3414 -0.2814
  910MOL0     H25557   6.069  13.051   4.753 -0.8153 -0.3170 -0.8514
  910MOL0     H25558   6.261  13.063   4.601  0.3346 -0.2841 -1.0198
  910MOL0     H25559   6.165  13.017   4.463  2.2394 -1.3255 -0.8936
  910MOL0     H25560   5.404  12.936   4.336  1.3129 -2.4952  0.7455
  910MOL0     H25561   5.373  12.731   4.194  0.2083 -0.2198 -1.9212
  910MOL0     H25562   5.290  12.606   3.824 -0.7681 -1.0363  1.0033
  910MOL0     H25563   5.175  12.482   3.674  0.5420 -0.0264 -0.8658
  910MOL0     H25564   5.695  11.767   2.147  2.4087 -0.6018 -0.3107
  910MOL0     H25565   5.837  11.616   2.054  1.4975 -0.2060  1.3972
  910MOL0     H25566   5.812  10.981   2.105 -3.6912  3.7877 -2.0150
  910MOL0     H25567   5.970  10.799   2.021  3.4315 -0.9826  0.4125
  910MOL0     H25568   6.298  10.811   1.984  0.4110 -0.8748 -0.5720
  910MOL0     H25569   6.153  10.712   1.986  2.4621 -0.6421  2.9933
  910MOL0     H25570   6.320  10.711   1.744  0.7397 -0.5171  0.4137
  910MOL0     H25571   6.206  10.584   1.807 -1.6339  1.5324 -0.0564
  910MOL0     H25572   6.481  10.682   1.908  1.0891 -1.3861  0.0199
  910MOL0     H25573   6.380  10.568   2.003 -1.7548 -1.7195 -0.3906
  910MOL0     H25574   6.387  10.413   1.779  1.0478 -1.4799 -0.3490
  910MOL0     H25575   6.520  10.423   1.895 -0.9610  0.5116  0.7223
  910MOL0     H25576   6.595  10.651   1.516 -1.8996 -0.0140 -0.0867
  910MOL0     H25577   6.156  11.099   1.771  1.1363 -1.6710 -0.2092
  910MOL0     H25578   6.093  11.311   1.764  1.2964 -0.3522  1.6020
  910MOL0     H25579   5.916  11.337   1.798 -1.5825 -2.8799  1.4971
  910MOL0     H25580   6.046  11.396   1.904 -0.7608  3.1382 -2.6010
  911MOL0     O25581   6.075   7.071   0.951  0.7951  0.4833 -0.0337
  911MOL0     C25582   6.200   7.069   0.970  0.0078  0.0035 -0.0161
  911MOL0     O25583   6.283   7.168   0.937 -0.3052  0.0189  0.5188
  911MOL0     C25584   6.225   7.285   0.887  0.5423 -0.9528  0.3635
  911MOL0     C25585   6.112   7.341   0.950  0.2963 -0.6241 -0.4079
  911MOL0     C25586   6.046   7.455   0.896 -0.2077 -0.2737  0.0403
  911MOL0     C25587   6.095   7.515   0.780 -0.3547  0.3081  0.3861
  911MOL0     O25588   6.029   7.617   0.727 -0.3288  0.0009  0.4919
  911MOL0     C25589   6.107   7.730   0.681 -0.0908  1.0205  0.4089
  911MOL0     C25590   6.010   7.843   0.634 -0.5911  0.4676 -0.6378
  911MOL0     C25591   5.935   7.797   0.507 -0.0150 -0.1413  0.3361
  911MOL0     C25592   5.816   7.888   0.484  0.2959  0.8224 -0.1642
  911MOL0     C25593   5.744   7.850   0.351 -0.7023  0.3376 -0.1596
  911MOL0     C25594   5.617   7.926   0.330 -1.1411 -0.6034 -0.2527
  911MOL0     C25595   5.573   7.904   0.182  1.2473 -0.6858  0.2509
  911MOL0     C25596   5.610   8.028   0.098 -1.0130  0.2158  0.0944
  911MOL0     N25597   5.755   8.027   0.076 -0.1422  0.1736 -0.0523
  911MOL0     C25598   5.830   7.942  -0.004  0.9320 -0.1497  0.0894
  911MOL0     C25599   5.956   7.986   0.011  0.4606 -0.3734 -0.3719
  911MOL0     C25600   6.064   7.936  -0.080  0.4287  0.4495 -0.4269
  911MOL0     C25601   6.151   8.055  -0.133 -0.2683 -0.4287  0.3549
  911MOL0     C25602   6.256   7.998  -0.229  0.5747 -0.0570 -0.1164
  911MOL0     C25603   6.358   8.095  -0.273 -0.3419 -0.7247 -0.2498
  911MOL0     O25604   6.419   8.026  -0.385 -0.4412 -0.1920 -0.7986
  911MOL0     C25605   6.511   8.105  -0.457  0.8259  0.4724 -0.1202
  911MOL0     C25606   6.531   8.243  -0.454  0.0309 -0.2018 -1.1507
  911MOL0     C25607   6.643   8.308  -0.502 -0.5611  0.5448  0.4955
  911MOL0     C25608   6.656   8.454  -0.473  0.4301 -0.0282  0.5220
  911MOL0     C25609   6.746   8.227  -0.557 -0.1683  0.5138 -0.2290
  911MOL0     C25610   6.878   8.289  -0.602  0.1768 -0.8631 -0.0609
  911MOL0     O25611   6.948   8.216  -0.689  0.0734  0.2989  0.0151
  911MOL0     C25612   7.072   8.266  -0.726  0.2318 -0.4646  0.7181
  911MOL0     C25613   7.094   8.404  -0.757  0.1309  1.1984 -0.1439
  911MOL0     C25614   7.228   8.446  -0.789 -0.1980  0.4114  1.3253
  911MOL0     C25615   7.336   8.359  -0.790 -0.6849 -0.3661 -0.1565
  911MOL0     O25616   7.461   8.409  -0.816  0.5242  0.5209 -0.2281
  911MOL0     C25617   7.488   8.456  -0.948 -0.4753 -0.1126  0.7109
  911MOL0     C25618   7.633   8.472  -0.984  0.4751 -0.3740 -0.1141
  911MOL0     C25619   7.694   8.606  -0.944  0.0560  1.1497 -0.1595
  911MOL0     C25620   7.661   8.713  -1.051 -0.2815 -0.0183 -0.0224
  911MOL0     C25621   7.715   8.844  -1.026  0.1921  0.0816 -0.8662
  911MOL0     C25622   7.861   8.859  -1.047 -0.9622  0.2199  0.1942
  911MOL0     C25623   7.902   8.843  -1.197  1.2105  0.0140 -0.3977
  911MOL0     C25624   8.026   8.903  -1.235  0.3419 -0.4333  1.0582
  911MOL0    Cl25625   7.989   9.062  -1.309  0.3230 -0.2876 -0.4735
  911MOL0     C25626   7.307   8.219  -0.757 -0.4286 -1.0365 -0.2468
  911MOL0     C25627   7.183   8.178  -0.733  0.2775 -1.1806  0.4039
  911MOL0     O25628   6.923   8.379  -0.526  0.0240  0.2312  0.2681
  911MOL0     C25629   6.725   8.092  -0.576 -0.4832  1.1290 -0.0751
  911MOL0     C25630   6.604   8.032  -0.530 -0.5010  0.7036  0.2716
  911MOL0     N25631   5.969   8.080   0.112  0.1265 -1.1108  0.4565
  911MOL0     N25632   5.843   8.106   0.146  0.9017 -0.2310  0.0573
  911MOL0     C25633   6.218   7.464   0.721  0.7637 -0.2905  0.4303
  911MOL0     C25634   6.280   7.351   0.778 -0.7980  0.9019 -0.3799
  911MOL0     C25635   6.249   6.932   1.003  0.6181 -0.0307 -0.7702
  911MOL0     C25636   6.157   6.819   1.015 -0.1437  0.3420  0.0010
  911MOL0     C25637   6.195   6.691   1.042  0.6620 -0.0889 -0.7077
  911MOL0     C25638   6.331   6.662   1.069 -0.9810  0.2792 -0.0358
  911MOL0     O25639   6.374   6.534   1.083 -0.0175  0.6823  0.6153
  911MOL0     C25640   6.282   6.431   1.085  0.1375  0.2241  0.4977
  911MOL0     C25641   6.220   6.413   1.220  0.3793 -0.2706  0.2663
  911MOL0     C25642   6.097   6.323   1.204  0.2418  0.3763  0.5226
  911MOL0     C25643   6.002   6.322   1.325 -0.3908  0.0353  0.0582
  911MOL0     C25644   5.884   6.241   1.295  0.5784 -0.5635 -0.3310
  911MOL0     C25645   5.788   6.185   1.248  0.6590 -1.3899 -0.8352
  911MOL0     C25646   6.428   6.766   1.050 -0.5216  0.6643  0.0932
  911MOL0     C25647   6.388   6.898   1.016  0.3007 -0.2656  0.1748
  911MOL0     C25648   6.501   7.006   1.007  1.0120  0.5349  0.0250
  911MOL0     H25649   6.071   7.287   1.035 -1.0492 -1.3021 -1.4550
  911MOL0     H25650   5.957   7.492   0.946  1.2107  2.3610  0.8106
  911MOL0     H25651   6.169   7.700   0.596 -0.6287 -1.3478  0.7873
  911MOL0     H25652   6.161   7.784   0.759 -0.7611  2.9874 -0.3925
  911MOL0     H25653   5.937   7.857   0.714 -0.0559  1.6871 -0.3302
  911MOL0     H25654   6.073   7.932   0.623  0.7629 -0.5919 -1.7232
  911MOL0     H25655   5.996   7.814   0.418 -2.9024  1.3148 -1.5081
  911MOL0     H25656   5.907   7.691   0.510 -2.7505  0.4893 -0.4904
  911MOL0     H25657   5.749   7.891   0.570  0.9817  0.6409  0.3833
  911MOL0     H25658   5.862   7.986   0.469  1.4328  0.1001 -1.7394
  911MOL0     H25659   5.717   7.744   0.360  0.0230  0.2019  0.5646
  911MOL0     H25660   5.819   7.872   0.275  0.2570  0.0428  0.6803
  911MOL0     H25661   5.539   7.874   0.387 -2.1282 -1.6181 -2.4225
  911MOL0     H25662   5.631   8.030   0.362  0.8852 -0.7859 -0.4613
  911MOL0     H25663   5.464   7.897   0.179  1.0470  1.4839  1.1344
  911MOL0     H25664   5.618   7.814   0.139  1.3137 -1.6222  2.1422
  911MOL0     H25665   5.570   8.030  -0.003  0.0072  2.7007 -0.3459
  911MOL0     H25666   5.575   8.116   0.153  2.0411  0.9251  1.0949
  911MOL0     H25667   5.802   7.875  -0.085 -0.6618  3.5424 -2.7299
  911MOL0     H25668   6.020   7.893  -0.170  3.6872  3.2716 -3.7167
  911MOL0     H25669   6.114   7.866  -0.013 -1.9803  0.6448  1.7378
  911MOL0     H25670   6.092   8.128  -0.189  0.3583  1.1090  1.6492
  911MOL0     H25671   6.198   8.096  -0.044  1.1735  0.9670 -0.9759
  911MOL0     H25672   6.305   7.909  -0.188 -0.6255  0.6536  3.0962
  911MOL0     H25673   6.205   7.966  -0.321 -0.6944 -1.2595  0.9644
  911MOL0     H25674   6.316   8.191  -0.305 -1.9249 -0.7237  1.6415
  911MOL0     H25675   6.438   8.116  -0.201 -0.9810  2.3654 -0.3098
  911MOL0     H25676   6.462   8.308  -0.401 -1.7625 -1.7790 -1.4553
  911MOL0     H25677   6.679   8.520  -0.557  4.7209 -0.7723  0.8905
  911MOL0     H25678   6.741   8.471  -0.406  0.0970  1.6206  0.5867
  911MOL0     H25679   6.573   8.497  -0.415  1.4278 -1.0738  2.8156
  911MOL0     H25680   7.023   8.485  -0.757 -0.9606  0.2848  0.9901
  911MOL0     H25681   7.251   8.552  -0.792 -1.8060  0.7502 -0.5524
  911MOL0     H25682   7.444   8.380  -1.013  0.6341  0.1439 -0.3947
  911MOL0     H25683   7.439   8.552  -0.964  0.1846  0.2432  0.7804
  911MOL0     H25684   7.697   8.404  -0.927 -0.2245  1.4488  3.0933
  911MOL0     H25685   7.652   8.454  -1.090  2.3378 -0.7624  0.2428
  911MOL0     H25686   7.802   8.597  -0.929  0.0323 -1.3709 -0.9664
  911MOL0     H25687   7.645   8.636  -0.851  0.2997 -2.1554  1.1711
  911MOL0     H25688   7.553   8.728  -1.048 -0.4259 -0.9884  0.2266
  911MOL0     H25689   7.686   8.685  -1.154  4.1715  0.8477  0.6402
  911MOL0     H25690   7.665   8.921  -1.085  0.8652 -0.8192 -2.7160
  911MOL0     H25691   7.696   8.858  -0.919  4.5253 -1.4726  0.3528
  911MOL0     H25692   7.923   8.791  -0.987 -1.8686  1.1845  2.3398
  911MOL0     H25693   7.903   8.956  -1.021  2.5779  0.0430 -3.8406
  911MOL0     H25694   7.821   8.883  -1.258  0.8328 -1.7261 -1.0911
  911MOL0     H25695   7.918   8.737  -1.222  2.1035 -0.1233  0.6841
  911MOL0     H25696   8.073   8.837  -1.308  1.4129  1.4174 -0.0201
  911MOL0     H25697   8.095   8.900  -1.151 -1.2471 -3.9935  2.4150
  911MOL0     H25698   7.384   8.144  -0.771 -0.0448 -0.5307 -0.8966
  911MOL0     H25699   7.148   8.077  -0.717 -2.1918 -0.2346  1.4519
  911MOL0     H25700   6.803   8.026  -0.614  0.7905  0.2841  3.5955
  911MOL0     H25701   6.589   7.930  -0.563 -0.3283  1.3034 -1.8383
  911MOL0     H25702   6.262   7.516   0.637 -3.1806  1.2023 -0.9291
  911MOL0     H25703   6.370   7.310   0.733 -1.3479  0.2840 -0.9256
  911MOL0     H25704   6.050   6.833   1.004 -0.4784  0.7639  2.9787
  911MOL0     H25705   6.114   6.618   1.047  0.7763 -0.1281  1.4152
  911MOL0     H25706   6.206   6.445   1.007  2.5234  0.3534 -1.9375
  911MOL0     H25707   6.329   6.333   1.074  0.2226  0.2898  0.2739
  911MOL0     H25708   6.191   6.509   1.263 -0.9043 -0.0712 -0.9641
  911MOL0     H25709   6.287   6.361   1.290 -2.1344 -3.0742  0.7948
  911MOL0     H25710   6.042   6.363   1.118  0.4463 -0.5741 -0.0631
  911MOL0     H25711   6.116   6.219   1.175  1.2959  0.7182 -0.0465
  911MOL0     H25712   5.976   6.428   1.337  0.2229  0.2727 -0.6273
  911MOL0     H25713   6.043   6.283   1.420 -0.3463 -1.4962 -0.5632
  911MOL0     H25714   5.718   6.113   1.211 -0.2747  0.0613 -2.0309
  911MOL0     H25715   6.529   6.733   1.069 -0.9437  0.0942  1.4557
  911MOL0     H25716   6.483   7.097   1.064  2.2106  1.2621 -0.7251
  911MOL0     H25717   6.591   6.947   1.025  0.3006 -0.6366 -0.1351
  911MOL0     H25718   6.497   7.044   0.904  2.1115  1.3876  0.2836
  912MOL0     O25719   4.722   1.249   1.551  0.0390 -0.3211  0.5567
  912MOL0     C25720   4.639   1.179   1.612 -0.5103 -0.4566  0.3958
  912MOL0     O25721   4.667   1.088   1.706 -1.0122 -0.1068  0.1555
  912MOL0     C25722   4.785   1.105   1.775 -0.0124  0.5656  1.0044
  912MOL0     C25723   4.904   1.056   1.715 -0.5237  0.1272 -0.9014
  912MOL0     C25724   5.019   1.067   1.786  0.2874 -0.0005 -0.0034
  912MOL0     C25725   5.021   1.141   1.903 -0.4663  0.3881  0.1452
  912MOL0     O25726   5.136   1.176   1.968  0.3454  0.4047 -0.6162
  912MOL0     C25727   5.234   1.068   1.996  0.3515 -0.5888  0.2301
  912MOL0     C25728   5.338   1.112   2.105  1.5326  0.8689 -0.5446
  912MOL0     C25729   5.429   1.231   2.080 -0.1264  0.2186  0.5467
  912MOL0     C25730   5.478   1.260   1.945  0.1104  0.1759  1.4791
  912MOL0     C25731   5.556   1.397   1.950  0.1016  0.2216  0.0067
  912MOL0     C25732   5.655   1.409   1.833 -0.5542 -0.2927 -0.3872
  912MOL0     C25733   5.725   1.548   1.829  0.2526  0.2191  0.5605
  912MOL0     C25734   5.814   1.566   1.955  0.2549  0.3501  0.2256
  912MOL0     N25735   5.933   1.645   1.924 -0.1616 -0.6260 -0.9511
  912MOL0     C25736   5.945   1.765   1.863 -0.0402  0.1741  0.9541
  912MOL0     C25737   6.075   1.790   1.867 -0.1938 -1.3378  0.0619
  912MOL0     C25738   6.133   1.928   1.819  0.6998  0.4663 -0.2335
  912MOL0     C25739   6.191   1.998   1.943  0.2332 -0.9429  0.3495
  912MOL0     C25740   6.085   2.035   2.048 -0.3137  1.3843 -0.1701
  912MOL0     C25741   6.143   2.081   2.178  0.0260 -0.4130 -0.4268
  912MOL0     O25742   6.033   2.068   2.280 -0.3579  0.5358  0.1266
  912MOL0     C25743   6.079   2.100   2.401 -0.0535 -0.7741 -0.4888
  912MOL0     C25744   6.056   2.234   2.456 -0.6148  0.4384 -0.3103
  912MOL0     C25745   6.096   2.267   2.588 -0.2225 -0.3143 -0.3333
  912MOL0     C25746   6.052   2.401   2.634 -0.0201  0.1906 -0.0850
  912MOL0     C25747   6.176   2.177   2.660  0.0650  0.7815 -0.1717
  912MOL0     C25748   6.207   2.201   2.798  0.0250  0.2245  0.4068
  912MOL0     O25749   6.195   2.090   2.875  0.3459 -0.1522 -0.0452
  912MOL0     C25750   6.184   2.090   3.011  0.8786  0.4959 -0.5611
  912MOL0     C25751   6.204   1.966   3.074 -0.8584 -0.1001 -0.5789
  912MOL0     C25752   6.195   1.958   3.221 -0.5779 -0.6350  0.0757
  912MOL0     C25753   6.139   2.065   3.293 -0.6603 -0.5466 -0.7753
  912MOL0     O25754   6.129   2.056   3.430  0.5969 -0.1455 -0.3529
  912MOL0     C25755   6.168   2.167   3.503  0.1815 -1.2321  0.6958
  912MOL0     C25756   6.199   2.131   3.652  1.1137  0.4480 -0.1797
  912MOL0     C25757   6.082   2.056   3.724 -0.0716  0.4113  0.3505
  912MOL0     C25758   6.026   2.137   3.840 -0.9378  0.3601 -0.1896
  912MOL0     C25759   5.930   2.043   3.918 -0.6002  0.1837 -0.6930
  912MOL0     C25760   5.864   2.139   4.021  0.5821  0.3267  0.9884
  912MOL0     C25761   5.744   2.081   4.092  1.4947 -0.2134 -0.7293
  912MOL0     C25762   5.694   2.179   4.202 -0.5405 -0.3386 -0.4284
  912MOL0    Cl25763   5.815   2.200   4.344  0.5479 -0.2103 -0.1624
  912MOL0     C25764   6.100   2.181   3.227 -0.3164  0.3169 -0.3179
  912MOL0     C25765   6.126   2.192   3.093  0.2382 -0.6054  0.2027
  912MOL0     O25766   6.244   2.317   2.835 -0.0893  0.4994 -0.1192
  912MOL0     C25767   6.201   2.050   2.604  0.6432 -0.1496 -1.0761
  912MOL0     C25768   6.154   2.011   2.483  0.5024 -0.1076 -0.0302
  912MOL0     N25769   6.144   1.688   1.925  0.0511  0.3467  0.1033
  912MOL0     N25770   6.058   1.598   1.952 -0.1181  0.0454 -0.5587
  912MOL0     C25771   4.906   1.205   1.956 -0.1981  0.7812 -0.9794
  912MOL0     C25772   4.786   1.182   1.886  0.0742 -0.8451 -0.8142
  912MOL0     C25773   4.498   1.173   1.568  0.6520  0.4929 -0.0079
  912MOL0     C25774   4.409   1.068   1.615 -0.5043 -0.1375  0.2535
  912MOL0     C25775   4.273   1.064   1.571  0.0756 -0.3952  0.3346
  912MOL0     C25776   4.221   1.150   1.480 -0.5482  0.1114  0.5843
  912MOL0     O25777   4.093   1.156   1.429 -0.1724  0.4197  0.4552
  912MOL0     C25778   4.007   1.049   1.473 -0.0184 -1.4958  0.8491
  912MOL0     C25779   3.874   1.070   1.413  0.2563 -0.3563 -0.0316
  912MOL0     C25780   3.869   1.091   1.265  0.1714  0.5210 -0.7290
  912MOL0     C25781   3.964   0.997   1.187 -0.6856  0.4833  0.6172
  912MOL0     C25782   3.945   0.856   1.217 -0.0189 -0.1176 -0.0610
  912MOL0     C25783   3.913   0.745   1.220  0.1000  0.4731 -1.1321
  912MOL0     C25784   4.306   1.253   1.434 -0.0131  0.1222 -0.3292
  912MOL0     C25785   4.443   1.265   1.471 -0.3910  0.6166  0.8457
  912MOL0     C25786   4.520   1.375   1.399  0.5262  0.2547  0.0548
  912MOL0     H25787   4.906   1.008   1.618  1.7020 -1.6771 -0.0430
  912MOL0     H25788   5.107   1.009   1.759 -1.5145 -2.7846 -0.2404
  912MOL0     H25789   5.281   1.045   1.900 -1.7703 -1.7171 -0.6226
  912MOL0     H25790   5.182   0.978   2.031  1.0498 -1.0402  0.1294
  912MOL0     H25791   5.280   1.118   2.198 -1.1873 -2.1366 -1.8527
  912MOL0     H25792   5.414   1.034   2.109  0.1622 -0.6102 -1.9385
  912MOL0     H25793   5.370   1.320   2.106 -0.1482  1.1912 -2.4616
  912MOL0     H25794   5.512   1.221   2.150 -0.5652 -2.7420  0.7967
  912MOL0     H25795   5.551   1.184   1.918  0.9781  1.4379  0.0928
  912MOL0     H25796   5.395   1.264   1.874  1.4663  1.1041 -0.1250
  912MOL0     H25797   5.605   1.401   2.048 -0.7908 -1.4740  0.5583
  912MOL0     H25798   5.494   1.487   1.943 -1.6182 -0.9772 -0.9753
  912MOL0     H25799   5.722   1.323   1.837 -1.4223 -1.0043 -0.6218
  912MOL0     H25800   5.599   1.396   1.739 -0.6709  5.6196 -1.5117
  912MOL0     H25801   5.651   1.628   1.832  0.4848  0.5096 -0.7636
  912MOL0     H25802   5.795   1.542   1.745 -0.4658 -4.5138  0.0359
  912MOL0     H25803   5.758   1.599   2.043 -1.0480 -1.5106  0.1437
  912MOL0     H25804   5.847   1.470   1.995  0.6748 -0.5056 -2.0248
  912MOL0     H25805   5.870   1.834   1.827  0.2465 -0.2488 -0.5262
  912MOL0     H25806   6.054   1.991   1.775 -0.7565 -1.1364  0.0048
  912MOL0     H25807   6.198   1.920   1.731 -2.4435  0.9415 -2.8081
  912MOL0     H25808   6.270   1.945   1.997  2.6473  0.6603 -1.3867
  912MOL0     H25809   6.226   2.098   1.914 -0.9119  0.0447  2.1570
  912MOL0     H25810   6.010   2.097   1.998 -0.1316  0.3251 -1.8178
  912MOL0     H25811   6.027   1.945   2.070  0.6571  0.1258 -2.4296
  912MOL0     H25812   6.230   2.017   2.194 -0.8285 -1.5421 -0.1129
  912MOL0     H25813   6.170   2.187   2.179 -0.6022 -0.1856  2.4883
  912MOL0     H25814   5.977   2.293   2.409 -0.1053  0.3683 -1.2804
  912MOL0     H25815   6.130   2.474   2.610  2.0538 -2.0820 -0.7158
  912MOL0     H25816   6.030   2.412   2.740 -0.9433  1.0659 -0.3561
  912MOL0     H25817   5.961   2.423   2.577 -0.3015  0.2819  0.3987
  912MOL0     H25818   6.229   1.877   3.018  0.2561  0.0290 -0.3122
  912MOL0     H25819   6.204   1.862   3.271 -1.3662 -1.3786 -1.1498
  912MOL0     H25820   6.261   2.206   3.461  1.5593 -3.8388  1.1468
  912MOL0     H25821   6.088   2.242   3.501 -1.3694 -2.8267 -1.5523
  912MOL0     H25822   6.295   2.078   3.648  1.8765  1.6059  1.4875
  912MOL0     H25823   6.230   2.211   3.720  1.3817 -0.4539  0.7748
  912MOL0     H25824   6.113   1.959   3.764 -0.5146 -0.0018 -0.2936
  912MOL0     H25825   6.000   2.034   3.655  0.2790  2.3929 -0.7872
  912MOL0     H25826   5.986   2.230   3.798  0.4554  0.0772 -2.2855
  912MOL0     H25827   6.106   2.160   3.910 -0.8745  0.0038 -0.1406
  912MOL0     H25828   5.855   2.006   3.848 -3.9989  0.6630  2.3964
  912MOL0     H25829   5.986   1.961   3.964 -0.9105  1.1823  1.6354
  912MOL0     H25830   5.829   2.223   3.961  0.0456 -0.9270 -0.5496
  912MOL0     H25831   5.938   2.157   4.100  1.0629 -1.9425  1.1272
  912MOL0     H25832   5.764   1.984   4.139 -0.6556 -1.2944 -1.9041
  912MOL0     H25833   5.661   2.061   4.023 -1.4493  2.5002  1.6860
  912MOL0     H25834   5.596   2.149   4.240 -0.5027  0.2538  0.1410
  912MOL0     H25835   5.685   2.281   4.166  0.3072 -0.0904  0.0377
  912MOL0     H25836   6.066   2.270   3.278 -1.5492  0.3760 -1.1895
  912MOL0     H25837   6.088   2.285   3.051 -1.3142 -1.4648 -0.3814
  912MOL0     H25838   6.243   1.967   2.660 -1.0986 -0.0940  0.4071
  912MOL0     H25839   6.183   1.916   2.439 -0.8710 -0.1303 -0.9348
  912MOL0     H25840   4.925   1.262   2.046 -0.1573 -0.0673 -0.4495
  912MOL0     H25841   4.695   1.222   1.930  1.3816  0.8444  0.4655
  912MOL0     H25842   4.441   1.000   1.693  1.1688  0.4322  0.1112
  912MOL0     H25843   4.208   0.991   1.617  1.5226 -0.1348  2.9271
  912MOL0     H25844   4.052   0.957   1.433  0.7033 -1.5499  1.7765
  912MOL0     H25845   3.992   1.048   1.581  1.3183  0.0898  1.0806
  912MOL0     H25846   3.829   1.160   1.454  0.0783 -0.1201 -0.7292
  912MOL0     H25847   3.803   0.991   1.441 -0.6900  0.1628 -0.8971
  912MOL0     H25848   3.767   1.065   1.236  0.2887 -1.9329  0.8068
  912MOL0     H25849   3.886   1.197   1.244  0.8729  0.7939  1.0570
  912MOL0     H25850   4.066   1.008   1.224 -0.6127 -0.8331  0.8756
  912MOL0     H25851   3.956   1.017   1.080  2.2257 -2.1200 -0.2205
  912MOL0     H25852   3.897   0.641   1.199  1.8217  0.1219 -0.7821
  912MOL0     H25853   4.260   1.319   1.362 -1.7349 -0.2958  0.3418
  912MOL0     H25854   4.589   1.424   1.469  1.0472 -3.0124  2.0472
  912MOL0     H25855   4.583   1.322   1.327  1.5016  0.4525  0.7387
  912MOL0     H25856   4.451   1.453   1.367 -1.7986 -0.0090  3.8329
  913MOL0     O25857   9.663   8.376   3.890  0.4538  0.1409  0.2384
  913MOL0     C25858   9.594   8.278   3.918 -0.2595 -0.2701  0.6937
  913MOL0     O25859   9.468   8.258   3.871  0.0048 -0.1765 -0.1498
  913MOL0     C25860   9.434   8.341   3.769  0.7685 -0.3808 -0.7187
  913MOL0     C25861   9.373   8.464   3.800  0.1426  0.1834  0.5090
  913MOL0     C25862   9.303   8.530   3.694 -0.4268 -1.4306  0.6392
  913MOL0     C25863   9.309   8.490   3.563  0.3702 -0.3951  0.1383
  913MOL0     O25864   9.265   8.549   3.449 -0.6550 -0.1042  0.4487
  913MOL0     C25865   9.325   8.676   3.420  0.1705 -0.2020  0.3001
  913MOL0     C25866   9.459   8.636   3.353  0.4866  0.5254  0.2019
  913MOL0     C25867   9.508   8.766   3.293 -0.2936 -0.4035  0.6319
  913MOL0     C25868   9.653   8.744   3.239  0.5876 -0.2443 -0.8946
  913MOL0     C25869   9.713   8.886   3.211 -0.3660  0.3810  0.2017
  913MOL0     C25870   9.858   8.902   3.183 -0.2873  0.1788  0.4442
  913MOL0     C25871   9.913   9.045   3.176 -0.1404 -0.2086  0.4535
  913MOL0     C25872   9.946   9.093   3.320 -0.4223  0.0499 -0.8710
  913MOL0     N25873   9.992   9.233   3.324  0.6318  0.0618 -0.0708
  913MOL0     C25874   9.931   9.336   3.264 -0.8851 -0.4582 -0.1491
  913MOL0     C25875  10.010   9.445   3.286  0.2338  0.8725  0.4810
  913MOL0     C25876   9.984   9.592   3.250 -0.7742  0.2039  0.0547
  913MOL0     C25877   9.839   9.625   3.224 -0.1145  0.1781  0.5984
  913MOL0     C25878   9.744   9.597   3.332 -0.2981 -0.1487 -1.3358
  913MOL0     C25879   9.711   9.714   3.422  0.1463 -0.0506  0.4927
  913MOL0     O25880   9.813   9.747   3.515 -0.5003  0.0619  0.5912
  913MOL0     C25881   9.787   9.848   3.596 -0.1266 -0.4378 -0.3854
  913MOL0     C25882   9.877   9.952   3.584 -1.0888  0.7831 -0.6966
  913MOL0     C25883   9.880  10.064   3.666 -0.1858  1.0722  0.8419
  913MOL0     C25884   9.973  10.173   3.632  0.1772 -0.2093  0.7432
  913MOL0     C25885   9.785  10.074   3.771  0.4062 -0.1924 -0.6561
  913MOL0     C25886   9.769  10.184   3.872 -0.1706  0.1684 -0.8807
  913MOL0     O25887   9.714  10.140   3.989  0.1391 -0.1029 -0.0348
  913MOL0     C25888   9.705  10.235   4.093  0.6235  0.0582  0.6883
  913MOL0     C25889   9.720  10.181   4.218 -0.1830 -0.2299  0.4926
  913MOL0     C25890   9.700  10.257   4.338  0.4203 -0.9160 -0.1675
  913MOL0     C25891   9.668  10.393   4.329  0.7996 -0.0039  1.0020
  913MOL0     O25892   9.655  10.459   4.449 -0.3080  0.2914 -0.2200
  913MOL0     C25893   9.612  10.590   4.460  0.1513 -0.3066  0.2657
  913MOL0     C25894   9.612  10.639   4.603  0.0789  0.5612  0.6257
  913MOL0     C25895   9.588  10.787   4.609  0.5663 -0.9194  0.0199
  913MOL0     C25896   9.616  10.841   4.751 -0.1619  0.0482  0.2916
  913MOL0     C25897   9.562  10.981   4.771  0.7936 -0.9223 -0.1342
  913MOL0     C25898   9.407  10.973   4.781 -0.6393  0.4226 -0.1740
  913MOL0     C25899   9.346  11.099   4.849  0.3057 -0.1113 -0.4901
  913MOL0     C25900   9.350  11.233   4.773 -0.6493 -0.4578  0.6579
  913MOL0    Cl25901   9.260  11.369   4.852  0.0046 -0.4313  0.2261
  913MOL0     C25902   9.674  10.444   4.198  0.3960  0.2019 -0.4435
  913MOL0     C25903   9.682  10.369   4.075 -0.3297 -0.2551 -0.2836
  913MOL0     O25904   9.811  10.297   3.847  0.2512  0.5858  0.5146
  913MOL0     C25905   9.698   9.962   3.789  0.8520 -0.1085  0.5357
  913MOL0     C25906   9.693   9.849   3.697 -0.0752 -1.5240  0.5009
  913MOL0     N25907  10.126   9.401   3.334  0.9536 -1.5666  0.1221
  913MOL0     N25908  10.112   9.278   3.358 -0.0974 -0.0605 -0.0551
  913MOL0     C25909   9.369   8.369   3.538 -0.9522  0.0622  0.9180
  913MOL0     C25910   9.423   8.294   3.644  0.1533 -0.0318  0.1486
  913MOL0     C25911   9.649   8.183   4.016 -0.0762 -0.7361  0.5415
  913MOL0     C25912   9.576   8.068   4.037 -0.1859 -1.1688  0.7094
  913MOL0     C25913   9.619   7.966   4.127  1.3756 -0.2513  0.4501
  913MOL0     C25914   9.733   7.978   4.198  0.1615  0.9912  0.5787
  913MOL0     O25915   9.786   7.898   4.304 -0.2270 -0.3180 -0.0606
  913MOL0     C25916   9.723   7.771   4.339 -0.6712  0.3300 -0.8048
  913MOL0     C25917   9.771   7.737   4.485 -0.0437 -0.0309 -0.1222
  913MOL0     C25918   9.717   7.613   4.549 -0.3785  0.1962  0.3803
  913MOL0     C25919   9.743   7.615   4.692  0.2716  0.0306 -1.0120
  913MOL0     C25920   9.867   7.556   4.732  0.8493  0.3001  0.0602
  913MOL0     C25921   9.979   7.510   4.755  0.4481 -0.1345  0.1698
  913MOL0     C25922   9.806   8.096   4.174 -0.0896 -0.0972  0.6490
  913MOL0     C25923   9.769   8.203   4.095  0.3574 -0.4997 -0.2002
  913MOL0     C25924   9.850   8.328   4.116 -0.1617 -0.6979  0.0604
  913MOL0     H25925   9.369   8.493   3.904  0.2558  1.4725  0.1694
  913MOL0     H25926   9.250   8.622   3.717  2.4782  0.4846  0.1755
  913MOL0     H25927   9.341   8.730   3.515  1.6585  0.7386 -0.4403
  913MOL0     H25928   9.268   8.747   3.360  2.9412  1.4182 -0.6183
  913MOL0     H25929   9.531   8.595   3.424  1.5977  0.1594 -1.0930
  913MOL0     H25930   9.445   8.569   3.268  1.9164  1.6409 -0.9799
  913MOL0     H25931   9.429   8.803   3.226  0.3416 -1.6368 -0.8679
  913MOL0     H25932   9.507   8.842   3.372  0.2864  1.0240 -0.6757
  913MOL0     H25933   9.706   8.683   3.312  0.2539 -1.0006 -1.2614
  913MOL0     H25934   9.653   8.682   3.149  0.5822 -2.0636  0.3074
  913MOL0     H25935   9.682   8.953   3.291  3.9885  2.7103  0.2070
  913MOL0     H25936   9.666   8.918   3.118 -0.9608  1.8216  0.9646
  913MOL0     H25937   9.908   8.838   3.257 -1.4857  1.5179  2.4984
  913MOL0     H25938   9.879   8.851   3.088  0.6136  0.1382  0.6518
  913MOL0     H25939   9.841   9.102   3.117 -0.6952 -1.2681  0.0873
  913MOL0     H25940  10.010   9.044   3.125 -1.3268  1.8900 -2.0489
  913MOL0     H25941   9.852   9.084   3.376 -0.6545  0.5259 -1.1782
  913MOL0     H25942  10.021   9.023   3.359 -0.5459 -1.0038 -2.4128
  913MOL0     H25943   9.831   9.336   3.223 -0.1876 -1.5742 -1.9514
  913MOL0     H25944  10.044   9.613   3.161  0.9899 -2.3519  0.5228
  913MOL0     H25945  10.008   9.655   3.336 -0.1907  0.2372 -0.1284
  913MOL0     H25946   9.834   9.730   3.197 -4.6387  0.3232  1.2170
  913MOL0     H25947   9.805   9.568   3.138  2.6096 -2.2141  0.9344
  913MOL0     H25948   9.653   9.565   3.279 -1.7782 -2.1769  2.0828
  913MOL0     H25949   9.777   9.515   3.396  1.3339  0.6887 -1.0501
  913MOL0     H25950   9.692   9.801   3.359  1.5154 -0.4245 -0.4899
  913MOL0     H25951   9.626   9.666   3.470  2.6713 -5.8541  0.0199
  913MOL0     H25952   9.946   9.938   3.501 -1.1535 -0.1676 -0.6045
  913MOL0     H25953  10.012  10.217   3.724 -1.0275 -2.6786  2.5430
  913MOL0     H25954   9.923  10.255   3.579 -1.2959 -0.0700  2.2429
  913MOL0     H25955  10.060  10.135   3.579 -0.1991  1.0727 -0.8879
  913MOL0     H25956   9.747  10.078   4.235  2.2088  0.4663  1.2565
  913MOL0     H25957   9.726  10.219   4.436  0.8505 -2.1081 -0.7247
  913MOL0     H25958   9.652  10.665   4.391  1.4320 -0.9709  0.2751
  913MOL0     H25959   9.508  10.584   4.424  0.4082 -0.1382 -0.5428
  913MOL0     H25960   9.538  10.594   4.672 -3.6735  1.5603 -2.4091
  913MOL0     H25961   9.708  10.616   4.649 -0.7549 -1.9049  1.3142
  913MOL0     H25962   9.484  10.806   4.582  0.6857  1.0821  0.7321
  913MOL0     H25963   9.656  10.837   4.539 -0.0985 -1.4964 -1.0650
  913MOL0     H25964   9.724  10.859   4.759 -0.3822  1.8115 -0.0962
  913MOL0     H25965   9.583  10.777   4.833  0.4183  0.4305  0.8303
  913MOL0     H25966   9.595  11.012   4.871 -1.2246 -0.1744  0.3443
  913MOL0     H25967   9.594  11.058   4.701 -0.5539 -0.5708 -0.3984
  913MOL0     H25968   9.387  10.890   4.850  4.0662 -0.5351  0.3474
  913MOL0     H25969   9.358  10.953   4.685  0.7117 -0.7455 -0.6526
  913MOL0     H25970   9.395  11.109   4.946  0.5539 -2.0930 -0.3615
  913MOL0     H25971   9.241  11.075   4.869  0.9526 -0.5374  3.0762
  913MOL0     H25972   9.309  11.210   4.674  1.2695 -0.7295 -0.1237
  913MOL0     H25973   9.452  11.270   4.759 -0.1258 -2.0111  0.1678
  913MOL0     H25974   9.658  10.551   4.187 -0.2799  0.1860  0.3540
  913MOL0     H25975   9.675  10.426   3.983  1.0452  0.5258  0.0670
  913MOL0     H25976   9.627   9.965   3.871  0.3503  1.3761  0.0827
  913MOL0     H25977   9.651   9.753   3.727 -3.6674  0.3429  1.9809
  913MOL0     H25978   9.375   8.322   3.441 -2.0023  0.5050  0.6250
  913MOL0     H25979   9.446   8.189   3.632 -1.0978 -0.0925 -2.2202
  913MOL0     H25980   9.474   8.056   4.002  0.0368  0.7542 -0.7382
  913MOL0     H25981   9.556   7.881   4.149  0.5564  0.5080  1.1464
  913MOL0     H25982   9.615   7.787   4.329 -0.7470  0.9717  0.7616
  913MOL0     H25983   9.755   7.690   4.273  0.3687 -0.4594  0.6011
  913MOL0     H25984   9.768   7.829   4.544 -0.5497 -0.4965  0.5929
  913MOL0     H25985   9.877   7.711   4.476 -0.2772 -1.2347  0.5220
  913MOL0     H25986   9.609   7.617   4.532  0.0465  1.5969 -2.7465
  913MOL0     H25987   9.760   7.527   4.496 -0.4791  1.8182 -2.5766
  913MOL0     H25988   9.665   7.568   4.752 -0.5177  0.9254 -1.3054
  913MOL0     H25989   9.749   7.715   4.736  1.5602 -0.7924  0.7631
  913MOL0     H25990  10.079   7.474   4.770  0.6973  1.5149  3.1349
  913MOL0     H25991   9.895   8.105   4.235  1.3680 -3.3368 -0.7557
  913MOL0     H25992   9.805   8.398   4.187  4.3625  2.1867  0.4788
  913MOL0     H25993   9.942   8.310   4.173  0.8823  3.7160  0.1105
  913MOL0     H25994   9.864   8.382   4.021 -2.0690  0.8675  0.6130
  914MOL0     O25995   0.974   0.135   2.910 -0.6249 -0.0355  0.2614
  914MOL0     C25996   1.041   0.212   2.839 -0.2039  0.2639  0.3816
  914MOL0     O25997   1.087   0.188   2.711  0.1006 -0.5139  0.2552
  914MOL0     C25998   1.041   0.078   2.641  0.4159  0.3354 -0.8146
  914MOL0     C25999   1.115   0.040   2.527  0.2870  0.8724  0.3700
  914MOL0     C26000   1.075  -0.075   2.458  0.3497  0.3267  0.7154
  914MOL0     C26001   0.967  -0.154   2.490 -0.0375 -0.3404 -0.1975
  914MOL0     O26002   0.936  -0.281   2.436  0.3489  0.1582 -0.2844
  914MOL0     C26003   1.032  -0.344   2.351  0.2432  0.4932  0.8152
  914MOL0     C26004   1.001  -0.488   2.331  0.1886  0.2593 -0.0357
  914MOL0     C26005   1.037  -0.564   2.464 -0.5634  0.7653  0.8641
  914MOL0     C26006   1.189  -0.547   2.499  0.6083  0.1033 -0.0916
  914MOL0     C26007   1.291  -0.564   2.386 -0.2440 -0.1245 -0.0405
  914MOL0     C26008   1.436  -0.559   2.431 -0.1855 -0.1297  0.1033
  914MOL0     C26009   1.514  -0.573   2.295  0.1848 -1.2199 -0.0087
  914MOL0     C26010   1.635  -0.649   2.315 -0.6658  0.0108 -0.1061
  914MOL0     N26011   1.706  -0.688   2.193  0.0562  0.1251  0.2120
  914MOL0     C26012   1.837  -0.746   2.181  0.3715  0.1914 -0.5338
  914MOL0     C26013   1.857  -0.760   2.051 -1.5855  0.5433 -0.0134
  914MOL0     C26014   1.984  -0.816   1.981  0.1981 -0.5098 -0.6169
  914MOL0     C26015   2.097  -0.713   1.959 -0.1738 -0.0353 -0.6357
  914MOL0     C26016   2.054  -0.581   1.903  0.6666  0.3927  0.1144
  914MOL0     C26017   2.012  -0.592   1.756 -0.6565  0.0079 -0.1463
  914MOL0     O26018   2.026  -0.469   1.698 -0.7199 -0.1972  1.1441
  914MOL0     C26019   2.113  -0.479   1.589  0.5427 -0.0668  0.2354
  914MOL0     C26020   2.066  -0.528   1.477  0.4764 -0.0742  0.2512
  914MOL0     C26021   2.148  -0.532   1.362 -0.0202  0.0487 -0.0829
  914MOL0     C26022   2.073  -0.585   1.238  0.2353  0.4456  0.2589
  914MOL0     C26023   2.275  -0.472   1.365 -0.2662  0.6910 -0.2361
  914MOL0     C26024   2.361  -0.449   1.244 -1.0095 -0.6761  0.1388
  914MOL0     O26025   2.339  -0.536   1.138  0.0588 -0.3884  0.2656
  914MOL0     C26026   2.443  -0.551   1.040  0.3047 -0.9106 -0.1687
  914MOL0     C26027   2.505  -0.671   1.033  0.4557 -0.1795  0.1376
  914MOL0     C26028   2.608  -0.698   0.938 -0.6907 -0.5862 -0.2979
  914MOL0     C26029   2.642  -0.599   0.845 -0.6005 -0.3285  0.4945
  914MOL0     O26030   2.729  -0.608   0.744  0.0764  0.5984  0.1660
  914MOL0     C26031   2.819  -0.727   0.744 -0.2309 -0.3145 -0.4603
  914MOL0     C26032   2.774  -0.803   0.626  0.5768 -0.3348 -1.0462
  914MOL0     C26033   2.764  -0.734   0.493  0.3210  0.5271 -0.7330
  914MOL0     C26034   2.672  -0.829   0.408 -0.3459 -0.3079 -0.2868
  914MOL0     C26035   2.697  -0.803   0.265  0.6356  0.1100  0.1955
  914MOL0     C26036   2.654  -0.653   0.233  0.0182  0.5018 -0.8339
  914MOL0     C26037   2.629  -0.626   0.082  0.0136  0.1668  0.4394
  914MOL0     C26038   2.483  -0.613   0.054  0.1719 -0.2313  0.9030
  914MOL0    Cl26039   2.391  -0.763   0.053 -0.0911  0.0752  0.0995
  914MOL0     C26040   2.577  -0.476   0.849 -0.2388 -0.7397 -0.6692
  914MOL0     C26041   2.474  -0.451   0.941  1.2336  0.1997  0.5467
  914MOL0     O26042   2.443  -0.357   1.235  0.8750  0.2553 -0.5206
  914MOL0     C26043   2.315  -0.401   1.480 -0.0115 -0.8671  0.2685
  914MOL0     C26044   2.227  -0.405   1.591  0.0404  0.0467 -0.1748
  914MOL0     N26045   1.744  -0.709   1.986 -0.4091 -0.2255 -0.4462
  914MOL0     N26046   1.650  -0.678   2.068  0.6611 -0.0948 -0.0930
  914MOL0     C26047   0.892  -0.112   2.605  0.4831 -0.1298 -0.1796
  914MOL0     C26048   0.926   0.000   2.671  0.3036 -0.9297  0.6437
  914MOL0     C26049   1.083   0.341   2.906  0.1455  0.1094 -0.6044
  914MOL0     C26050   1.065   0.345   3.046 -0.0935  0.3681 -0.7141
  914MOL0     C26051   1.123   0.444   3.124 -0.6670  0.2612 -0.6508
  914MOL0     C26052   1.186   0.553   3.067 -1.4141  0.4363  0.4363
  914MOL0     O26053   1.230   0.670   3.126  0.8682 -0.5048 -0.3731
  914MOL0     C26054   1.221   0.692   3.264 -0.2711 -0.4415 -0.3074
  914MOL0     C26055   1.088   0.744   3.309  0.0003 -0.2113 -0.3359
  914MOL0     C26056   1.068   0.747   3.457  0.2517 -0.0661  0.9892
  914MOL0     C26057   0.951   0.854   3.486  0.5738  0.4841  0.0507
  914MOL0     C26058   0.960   0.875   3.632  0.4535 -1.9839 -0.8765
  914MOL0     C26059   0.972   0.864   3.749 -0.7387  0.2683 -0.7432
  914MOL0     C26060   1.191   0.554   2.932  0.2352  0.2179 -0.6367
  914MOL0     C26061   1.148   0.452   2.841  0.7158  0.7505  0.7482
  914MOL0     C26062   1.136   0.482   2.688 -0.4965 -0.3324 -0.5404
  914MOL0     H26063   1.197   0.095   2.481 -0.4608 -0.3025 -2.6126
  914MOL0     H26064   1.142  -0.105   2.378 -0.4900  0.3670 -0.0103
  914MOL0     H26065   1.136  -0.331   2.381  0.5650  2.7917 -0.9948
  914MOL0     H26066   1.029  -0.296   2.252  3.7076 -1.2833 -0.3179
  914MOL0     H26067   0.895  -0.491   2.305  0.0459  0.3697  0.5319
  914MOL0     H26068   1.057  -0.532   2.248  0.1055 -1.9799  1.0174
  914MOL0     H26069   0.969  -0.534   2.544 -4.3169 -1.2161 -1.2946
  914MOL0     H26070   1.022  -0.671   2.444  0.9336  1.0650 -2.5627
  914MOL0     H26071   1.199  -0.450   2.550  3.0244  1.4301 -2.8353
  914MOL0     H26072   1.211  -0.617   2.580 -1.0954  4.4019  4.6579
  914MOL0     H26073   1.284  -0.487   2.308  1.8237 -0.5224 -0.6750
  914MOL0     H26074   1.267  -0.657   2.334 -0.8905 -0.1995  0.3835
  914MOL0     H26075   1.455  -0.464   2.482  3.9991 -0.5487 -0.3404
  914MOL0     H26076   1.458  -0.632   2.509 -1.1255  0.7344  1.2165
  914MOL0     H26077   1.546  -0.472   2.267  0.9891 -1.5104 -0.1610
  914MOL0     H26078   1.452  -0.610   2.212  0.7839 -0.1081 -0.9699
  914MOL0     H26079   1.706  -0.597   2.379  1.0637 -2.1767 -0.1165
  914MOL0     H26080   1.606  -0.737   2.373 -1.8365  0.6675  0.3385
  914MOL0     H26081   1.898  -0.751   2.270  0.8030 -0.7570 -0.8610
  914MOL0     H26082   1.950  -0.861   1.888 -1.5964 -3.8510  1.4448
  914MOL0     H26083   2.030  -0.894   2.043 -0.4479  1.5119  2.6690
  914MOL0     H26084   2.137  -0.690   2.058 -0.1289 -0.6898 -0.4992
  914MOL0     H26085   2.177  -0.761   1.901  0.0331  0.4259 -0.7396
  914MOL0     H26086   1.978  -0.534   1.965  1.0562  1.4627 -0.2037
  914MOL0     H26087   2.139  -0.512   1.908 -1.2733  2.9965 -0.8543
  914MOL0     H26088   2.077  -0.672   1.718  0.4654  0.6736  0.3221
  914MOL0     H26089   1.905  -0.617   1.755 -1.1602  1.9115  1.1806
  914MOL0     H26090   1.961  -0.553   1.473  0.2261  0.4273  2.5536
  914MOL0     H26091   1.965  -0.597   1.252  0.5954 -1.9733  1.4073
  914MOL0     H26092   2.118  -0.682   1.216  2.1971  1.3995 -0.1793
  914MOL0     H26093   2.083  -0.521   1.150 -1.3636 -2.6982 -2.3640
  914MOL0     H26094   2.476  -0.745   1.107 -0.0545  0.1550  0.2765
  914MOL0     H26095   2.659  -0.793   0.951  2.3917  0.8140 -1.0043
  914MOL0     H26096   2.923  -0.695   0.729  0.3003 -1.0100  1.4108
  914MOL0     H26097   2.821  -0.786   0.837 -2.9978 -2.0004 -1.3559
  914MOL0     H26098   2.822  -0.900   0.610  0.1604 -0.9475  1.1640
  914MOL0     H26099   2.668  -0.820   0.646  0.9569  0.6933  2.4753
  914MOL0     H26100   2.864  -0.730   0.450  0.6803 -0.4032 -0.0388
  914MOL0     H26101   2.721  -0.634   0.505  1.7649  1.1033 -0.1846
  914MOL0     H26102   2.566  -0.816   0.431 -0.1704  0.8102 -0.0664
  914MOL0     H26103   2.701  -0.934   0.423 -0.9312 -0.2398  1.5629
  914MOL0     H26104   2.800  -0.823   0.235  0.7873  1.6758 -0.4029
  914MOL0     H26105   2.637  -0.869   0.202 -0.0548  2.6366 -1.9902
  914MOL0     H26106   2.730  -0.582   0.266  1.3844  0.3182 -3.3355
  914MOL0     H26107   2.564  -0.625   0.289 -1.2435 -0.4624 -2.2882
  914MOL0     H26108   2.670  -0.705   0.018  2.8363 -1.1728  3.6009
  914MOL0     H26109   2.678  -0.532   0.052  1.2424 -0.9874 -1.4432
  914MOL0     H26110   2.462  -0.578  -0.047 -4.2049  1.7867  2.2664
  914MOL0     H26111   2.436  -0.541   0.122 -1.2598  1.1316 -1.4315
  914MOL0     H26112   2.596  -0.391   0.784  0.9218  0.0792  0.6696
  914MOL0     H26113   2.424  -0.354   0.942  0.7054 -0.0281 -0.8052
  914MOL0     H26114   2.404  -0.339   1.484  0.7664 -1.9475 -0.0204
  914MOL0     H26115   2.245  -0.345   1.679  1.2204  0.4267 -0.6497
  914MOL0     H26116   0.814  -0.167   2.657  1.4499  0.0116  1.4806
  914MOL0     H26117   0.855   0.023   2.750 -1.6930  1.4624 -1.6318
  914MOL0     H26118   1.011   0.263   3.094  1.5412 -0.9422 -1.0473
  914MOL0     H26119   1.110   0.445   3.232 -1.4861  1.4530 -0.7385
  914MOL0     H26120   1.250   0.596   3.309  0.9070 -1.5946 -3.3107
  914MOL0     H26121   1.299   0.760   3.298  1.8044 -1.6257 -2.4797
  914MOL0     H26122   0.999   0.691   3.273  0.0591 -2.6387  2.6640
  914MOL0     H26123   1.092   0.848   3.276 -2.4122  0.0197 -0.0618
  914MOL0     H26124   1.045   0.646   3.493  1.4972 -0.1327  1.6542
  914MOL0     H26125   1.160   0.776   3.509  1.4897  0.6026 -1.4355
  914MOL0     H26126   0.851   0.819   3.458  0.5748  0.5636 -0.0523
  914MOL0     H26127   0.968   0.947   3.432 -1.5352  0.3547 -0.9115
  914MOL0     H26128   0.993   0.867   3.853  2.0178 -0.6231 -1.2040
  914MOL0     H26129   1.235   0.646   2.895  0.9714 -0.5977 -1.8528
  914MOL0     H26130   1.180   0.580   2.667  3.2036 -1.4165  1.3019
  914MOL0     H26131   1.174   0.399   2.628 -1.6120 -0.5621 -0.9537
  914MOL0     H26132   1.030   0.500   2.665 -0.3767 -0.0713 -0.8908
  915MOL0     O26133   1.350  10.736   9.185 -0.1617  0.3102 -0.0772
  915MOL0     C26134   1.257  10.676   9.239  0.6085  0.3933 -0.6504
  915MOL0     O26135   1.237  10.533   9.237 -0.1695  0.1272 -0.4041
  915MOL0     C26136   1.284  10.441   9.146  0.8252  0.0616  0.4113
  915MOL0     C26137   1.319  10.307   9.179  0.6202 -0.4206  1.1951
  915MOL0     C26138   1.375  10.225   9.077  0.3352  0.1568 -0.1848
  915MOL0     C26139   1.400  10.268   8.951  0.8228 -0.0426 -0.4789
  915MOL0     O26140   1.441  10.177   8.858  0.4151 -0.3646  0.3642
  915MOL0     C26141   1.354  10.152   8.744 -1.1971 -0.4191  0.0339
  915MOL0     C26142   1.240  10.063   8.785  0.0368  1.1888  0.5420
  915MOL0     C26143   1.158  10.017   8.666  0.1022 -0.3663 -0.4456
  915MOL0     C26144   1.065   9.895   8.695  0.0817 -0.1038 -0.6948
  915MOL0     C26145   1.030   9.809   8.575 -0.8734  0.1336 -0.2413
  915MOL0     C26146   0.988   9.667   8.604  0.5376 -0.1874  0.3779
  915MOL0     C26147   1.103   9.575   8.618 -0.1912  0.1428 -0.0222
  915MOL0     C26148   1.045   9.434   8.645  0.2952  1.0079  0.8296
  915MOL0     N26149   0.948   9.430   8.750 -0.3300  0.0163 -0.0161
  915MOL0     C26150   0.973   9.487   8.876 -0.3282  0.9959 -0.3073
  915MOL0     C26151   0.871   9.460   8.951 -0.2658 -0.0737  0.0384
  915MOL0     C26152   0.848   9.486   9.096  0.2664  0.3489 -0.5253
  915MOL0     C26153   0.699   9.528   9.111  0.8481 -0.3372 -1.0334
  915MOL0     C26154   0.660   9.541   9.261 -0.0181 -0.5103 -0.2087
  915MOL0     C26155   0.720   9.656   9.334  0.2256  0.1170 -0.3613
  915MOL0     O26156   0.822   9.590   9.419  0.7179 -0.7948  0.5281
  915MOL0     C26157   0.876   9.655   9.529 -0.0326  0.5107 -0.6573
  915MOL0     C26158   0.962   9.576   9.615 -0.2908  0.1139  0.3019
  915MOL0     C26159   1.028   9.630   9.726 -0.2315  0.0923 -0.3249
  915MOL0     C26160   1.110   9.538   9.801 -0.7483  0.0879 -0.9724
  915MOL0     C26161   1.024   9.767   9.737 -0.9580 -0.1806  0.0809
  915MOL0     C26162   1.065   9.838   9.860 -0.5779  0.0145 -0.2814
  915MOL0     O26163   1.069   9.970   9.860 -0.2557  0.0151 -0.1266
  915MOL0     C26164   1.074  10.038   9.976  0.3948 -0.4265  0.3997
  915MOL0     C26165   1.169  10.139   9.996  0.5802  0.5324 -0.5357
  915MOL0     C26166   1.163  10.217  10.108 -0.3716  0.2952 -0.0830
  915MOL0     C26167   1.061  10.208  10.207  0.0823 -0.0756 -0.3025
  915MOL0     O26168   1.042  10.292  10.317 -0.4295 -0.9535 -0.3150
  915MOL0     C26169   1.127  10.394  10.356 -0.7974 -0.8589  0.4725
  915MOL0     C26170   1.055  10.496  10.449  0.0711  0.3297  0.2206
  915MOL0     C26171   1.032  10.433  10.590 -0.3568 -0.3000 -0.8523
  915MOL0     C26172   1.042  10.547  10.690 -0.0551 -0.2309 -0.9708
  915MOL0     C26173   1.014  10.505  10.837 -0.5815 -0.6158  0.8748
  915MOL0     C26174   1.146  10.467  10.917  1.1103 -0.7269  0.2076
  915MOL0     C26175   1.239  10.368  10.849 -0.7611 -0.8794 -0.1649
  915MOL0     C26176   1.350  10.323  10.957 -0.0710 -0.6540  0.0984
  915MOL0    Cl26177   1.444  10.454  11.031  0.1331  0.1386  0.2654
  915MOL0     C26178   0.967  10.101  10.185 -0.6379 -0.9659 -0.0794
  915MOL0     C26179   0.975  10.019  10.073 -0.0053 -0.7138  0.5901
  915MOL0     O26180   1.093   9.772   9.959  0.1515 -0.2650  0.3868
  915MOL0     C26181   0.936   9.849   9.653  0.1284  0.0608  0.2699
  915MOL0     C26182   0.868   9.789   9.550 -0.4170 -0.1478  0.2271
  915MOL0     N26183   0.782   9.400   8.872  0.9250 -0.2276  0.5798
  915MOL0     N26184   0.824   9.375   8.751  0.4482 -0.0207 -0.2241
  915MOL0     C26185   1.371  10.401   8.920  0.9021  0.6341 -0.9632
  915MOL0     C26186   1.314  10.486   9.020  0.4442  0.4081  0.1315
  915MOL0     C26187   1.158  10.758   9.320  0.4890 -0.6649 -0.0258
  915MOL0     C26188   1.053  10.676   9.381  0.4547 -1.0634  0.0632
  915MOL0     C26189   0.965  10.732   9.476  0.6144 -0.1966 -0.6530
  915MOL0     C26190   0.960  10.871   9.499  0.4758  0.5844  0.2322
  915MOL0     O26191   0.857  10.936   9.563 -0.3911  1.4615  0.2481
  915MOL0     C26192   0.745  10.855   9.603 -0.2758  0.4396 -0.2005
  915MOL0     C26193   0.641  10.964   9.647  0.6730 -0.4640  0.6418
  915MOL0     C26194   0.523  10.890   9.706  0.1076 -0.0466 -0.1957
  915MOL0     C26195   0.431  10.999   9.765  0.2121  0.8493 -0.4538
  915MOL0     C26196   0.310  10.938   9.805  1.5443 -0.7164 -0.1490
  915MOL0     C26197   0.202  10.896   9.846 -0.4533  0.1027 -0.3845
  915MOL0     C26198   1.063  10.954   9.444  0.4670  0.8843  0.3098
  915MOL0     C26199   1.157  10.895   9.353  0.3159 -0.7184  0.3258
  915MOL0     C26200   1.256  10.985   9.284 -0.4465 -0.5162  0.0898
  915MOL0     H26201   1.307  10.256   9.274  3.3766 -2.8378  0.3882
  915MOL0     H26202   1.409  10.123   9.091 -3.1816 -1.3921 -1.8142
  915MOL0     H26203   1.413  10.090   8.676 -0.8044  0.5797 -0.5538
  915MOL0     H26204   1.314  10.238   8.690  1.7116  0.4105 -0.9880
  915MOL0     H26205   1.273   9.972   8.836 -0.6238  0.3979 -0.4102
  915MOL0     H26206   1.178  10.121   8.855  0.3847  1.0663  0.9525
  915MOL0     H26207   1.113  10.108   8.624  0.1835  0.9919  2.1606
  915MOL0     H26208   1.234   9.981   8.596  0.2087 -1.4850  0.2220
  915MOL0     H26209   1.124   9.836   8.766 -2.2285  0.8063  2.2266
  915MOL0     H26210   0.973   9.924   8.748  0.6536  0.6786 -0.1020
  915MOL0     H26211   1.121   9.805   8.515 -2.2636 -0.7864 -2.4167
  915MOL0     H26212   0.960   9.868   8.513 -0.9149  1.8415  1.3326
  915MOL0     H26213   0.920   9.677   8.690 -1.3754 -1.9852 -0.8365
  915MOL0     H26214   0.914   9.635   8.530 -0.9458  3.1181  0.2273
  915MOL0     H26215   1.169   9.610   8.699  0.8731 -2.4922  0.3584
  915MOL0     H26216   1.170   9.586   8.532  2.3492  2.9030  2.0509
  915MOL0     H26217   0.995   9.390   8.558  1.7289 -2.1242  1.4399
  915MOL0     H26218   1.131   9.370   8.664 -0.1823 -0.4430 -1.5484
  915MOL0     H26219   1.063   9.536   8.912  2.0205 -1.6974 -2.0517
  915MOL0     H26220   0.920   9.560   9.131  1.0273 -0.4999 -0.2287
  915MOL0     H26221   0.850   9.396   9.159  2.0020  1.9776  1.9086
  915MOL0     H26222   0.676   9.620   9.056 -0.5592 -1.0749 -1.7332
  915MOL0     H26223   0.645   9.447   9.060  0.4662 -0.2992 -0.6862
  915MOL0     H26224   0.553   9.562   9.259 -0.1285 -0.5850 -4.2179
  915MOL0     H26225   0.668   9.448   9.316 -0.5029 -1.0436 -1.0108
  915MOL0     H26226   0.752   9.744   9.277 -2.4236  1.1850 -0.3545
  915MOL0     H26227   0.643   9.687   9.405  0.7521  1.8672 -0.5137
  915MOL0     H26228   0.955   9.468   9.601 -2.9388  0.5086 -2.2947
  915MOL0     H26229   1.070   9.535   9.903 -1.5975 -2.4095 -1.3231
  915MOL0     H26230   1.212   9.576   9.797 -0.0042 -1.5412  1.0093
  915MOL0     H26231   1.102   9.437   9.760  0.9433 -0.0751 -0.9496
  915MOL0     H26232   1.234  10.158   9.911 -2.3059  1.8497 -2.6190
  915MOL0     H26233   1.239  10.293  10.122 -0.0886 -0.3930  2.6051
  915MOL0     H26234   1.219  10.356  10.400  1.7629 -1.3335 -4.5711
  915MOL0     H26235   1.160  10.449  10.267  2.6384 -2.8579  0.3193
  915MOL0     H26236   1.118  10.585  10.445  1.5475 -0.6995 -0.4728
  915MOL0     H26237   0.961  10.514  10.397  0.4771 -1.2014 -1.1617
  915MOL0     H26238   1.107  10.355  10.604 -2.2349 -2.2601 -1.2436
  915MOL0     H26239   0.933  10.393  10.611  0.0933 -1.2541 -0.5008
  915MOL0     H26240   0.968  10.621  10.658 -0.3850  0.1796  0.6501
  915MOL0     H26241   1.137  10.600  10.681 -0.5032  0.3272 -2.9953
  915MOL0     H26242   0.953  10.584  10.882 -1.0226 -0.0523 -0.6376
  915MOL0     H26243   0.950  10.416  10.834  1.3080 -2.1139  2.0218
  915MOL0     H26244   1.123  10.426  11.015  0.9176  0.1419  0.5317
  915MOL0     H26245   1.184  10.567  10.940  1.2537 -1.0927  1.6079
  915MOL0     H26246   1.294  10.429  10.777  1.4257 -2.8250 -0.2463
  915MOL0     H26247   1.177  10.290  10.803 -2.1185 -1.1872  2.0169
  915MOL0     H26248   1.408  10.246  10.906  0.0944 -1.7405  1.8275
  915MOL0     H26249   1.305  10.275  11.044 -1.9191  0.9965  0.1392
  915MOL0     H26250   0.889  10.091  10.260 -2.1505  1.7492 -1.1089
  915MOL0     H26251   0.904   9.941  10.047 -3.1898  0.9841  3.4419
  915MOL0     H26252   0.928   9.956   9.666 -1.4588  0.0226 -0.1620
  915MOL0     H26253   0.803   9.845   9.484 -0.6821  0.0834  0.6828
  915MOL0     H26254   1.372  10.441   8.819 -1.9076  3.8351  0.0546
  915MOL0     H26255   1.295  10.588   8.988  2.5926  0.7518 -0.1727
  915MOL0     H26256   1.039  10.568   9.375 -1.8911 -0.8524  0.7679
  915MOL0     H26257   0.894  10.669   9.529 -2.4883  2.2826 -1.5738
  915MOL0     H26258   0.717  10.777   9.532  2.7794 -2.0066  1.0502
  915MOL0     H26259   0.785  10.801   9.689 -0.5569  0.8558  0.1976
  915MOL0     H26260   0.605  11.014   9.557  0.6087  0.9722  1.4346
  915MOL0     H26261   0.687  11.043   9.708 -1.2406 -0.7424  2.5496
  915MOL0     H26262   0.470  10.824   9.637 -1.4040  0.3215  0.5521
  915MOL0     H26263   0.546  10.833   9.797  0.6535  0.9150  0.2808
  915MOL0     H26264   0.412  11.077   9.691  1.5769 -2.2267 -4.4795
  915MOL0     H26265   0.485  11.047   9.846  0.2047  0.6343 -0.3211
  915MOL0     H26266   0.100  10.882   9.874 -1.5106 -0.2926 -3.9707
  915MOL0     H26267   1.048  11.059   9.467 -2.7777  0.6432 -0.1910
  915MOL0     H26268   1.359  10.964   9.313  0.6057 -0.9980 -3.4677
  915MOL0     H26269   1.246  10.988   9.175  0.0154  1.3538  0.0520
  915MOL0     H26270   1.232  11.088   9.313 -0.7637  0.5990 -3.5288
  916MOL0     O26271  10.152   4.549   3.909 -0.7113  0.2400 -0.4887
  916MOL0     C26272  10.187   4.440   3.859  0.2880 -0.9288  0.6181
  916MOL0     O26273  10.195   4.425   3.722  0.2344  0.6788  0.1211
  916MOL0     C26274  10.172   4.534   3.641  0.0587 -0.1265 -0.2972
  916MOL0     C26275  10.281   4.603   3.603 -0.4889  0.0251  0.2086
  916MOL0     C26276  10.272   4.690   3.496  0.2030  0.1067 -0.6458
  916MOL0     C26277  10.144   4.722   3.451  1.1277  0.3231  0.2672
  916MOL0     O26278  10.130   4.805   3.345  0.1578 -0.8379 -0.5684
  916MOL0     C26279  10.191   4.933   3.379  0.9664  0.6257 -0.9975
  916MOL0     C26280  10.133   5.066   3.329  0.2371  0.0799  0.4110
  916MOL0     C26281  10.004   5.104   3.405  0.8355 -0.6787 -0.2537
  916MOL0     C26282  10.034   5.133   3.550  0.1741  0.0699  0.0173
  916MOL0     C26283   9.906   5.187   3.624 -0.4607  0.1260 -0.6052
  916MOL0     C26284   9.949   5.225   3.769 -0.1428 -0.2745  0.6900
  916MOL0     C26285   9.823   5.266   3.856  0.1233 -0.6418 -0.0570
  916MOL0     C26286   9.876   5.325   3.988  0.6489  0.2519 -0.0625
  916MOL0     N26287   9.765   5.370   4.065  0.5608  0.3172 -0.0864
  916MOL0     C26288   9.699   5.287   4.156 -0.0757 -0.2897 -0.0763
  916MOL0     C26289   9.610   5.381   4.218 -0.1314  0.5045  0.1854
  916MOL0     C26290   9.511   5.359   4.334  0.1377  0.7208  0.1715
  916MOL0     C26291   9.473   5.482   4.408 -0.2775 -0.9414  0.0480
  916MOL0     C26292   9.410   5.438   4.542  0.3252  0.5955  0.3278
  916MOL0     C26293   9.336   5.563   4.604  0.0913  0.7958 -0.0002
  916MOL0     O26294   9.204   5.580   4.543 -0.7359  0.2687  0.4416
  916MOL0     C26295   9.140   5.695   4.569  0.2365 -0.3350  0.0866
  916MOL0     C26296   9.039   5.727   4.481  0.3309  0.6994 -0.0833
  916MOL0     C26297   8.961   5.845   4.488 -0.3003 -0.2305 -0.4595
  916MOL0     C26298   8.864   5.863   4.380  0.1386 -1.3353 -0.6625
  916MOL0     C26299   8.980   5.939   4.594  1.1127 -0.0707 -0.7192
  916MOL0     C26300   8.900   6.068   4.622 -0.3864  0.2791 -0.3701
  916MOL0     O26301   8.916   6.131   4.746  0.8995 -0.2702 -0.6903
  916MOL0     C26302   8.888   6.265   4.775  0.6901  0.8570 -0.5681
  916MOL0     C26303   8.859   6.374   4.694 -0.2043 -0.1163 -0.4528
  916MOL0     C26304   8.839   6.504   4.742  0.3987  0.0618 -0.0768
  916MOL0     C26305   8.834   6.528   4.879  0.1761  0.2826 -0.2840
  916MOL0     O26306   8.807   6.657   4.918  0.2984 -0.2203  1.2622
  916MOL0     C26307   8.846   6.688   5.050  0.4697  0.4048 -0.1300
  916MOL0     C26308   8.897   6.828   5.042  0.0757 -0.5910  0.0140
  916MOL0     C26309   8.957   6.864   5.182  0.8767 -0.7875  0.5092
  916MOL0     C26310   8.938   7.010   5.222 -0.2471  0.5566 -0.4790
  916MOL0     C26311   9.012   7.030   5.356 -0.3100  0.9040  0.2885
  916MOL0     C26312   8.943   7.131   5.457  0.6706 -0.3965 -0.6592
  916MOL0     C26313   9.045   7.190   5.559 -0.3579 -0.1934  0.4584
  916MOL0     C26314   9.048   7.088   5.673 -1.1538 -0.5378  0.4556
  916MOL0    Cl26315   9.196   7.125   5.782  0.3491  0.0847  0.4660
  916MOL0     C26316   8.857   6.417   4.962 -0.1380  1.4634 -0.6532
  916MOL0     C26317   8.879   6.291   4.911  0.7625  0.3728 -0.3544
  916MOL0     O26318   8.855   6.121   4.523 -0.7170  0.9074  0.0895
  916MOL0     C26319   9.079   5.896   4.687 -0.6394 -0.2361 -0.4026
  916MOL0     C26320   9.161   5.783   4.677 -0.2933  0.6831  0.0809
  916MOL0     N26321   9.635   5.511   4.162  0.0315 -0.2746  0.2390
  916MOL0     N26322   9.726   5.504   4.064  0.0684  0.2626 -0.6749
  916MOL0     C26323  10.032   4.652   3.488 -0.2454  0.6614  0.5989
  916MOL0     C26324  10.042   4.556   3.591 -0.8771 -0.1232 -0.2798
  916MOL0     C26325  10.225   4.322   3.944  0.4276  0.4314 -0.1581
  916MOL0     C26326  10.210   4.188   3.894 -0.4636  0.0141 -0.4369
  916MOL0     C26327  10.266   4.085   3.961  0.1076  0.2025 -0.1403
  916MOL0     C26328  10.324   4.104   4.090  0.3160  1.0294  0.6255
  916MOL0     O26329  10.376   3.992   4.158 -0.2178 -0.3192  0.2251
  916MOL0     C26330  10.323   3.975   4.291  0.0172  0.1741  0.7776
  916MOL0     C26331  10.257   3.846   4.314  0.1509 -0.1460  0.2059
  916MOL0     C26332  10.111   3.843   4.256 -0.7549 -0.6186  0.4172
  916MOL0     C26333  10.048   3.710   4.277 -0.0522 -0.0742 -0.9524
  916MOL0     C26334  10.110   3.595   4.212 -0.6927 -0.9298 -0.2374
  916MOL0     C26335  10.163   3.494   4.166  0.4226 -0.2785  1.2551
  916MOL0     C26336  10.334   4.234   4.140 -0.4734  0.0487  0.6009
  916MOL0     C26337  10.286   4.344   4.071 -0.1416  0.1619  0.2686
  916MOL0     C26338  10.284   4.469   4.150 -0.1351  0.2860 -0.9942
  916MOL0     H26339  10.379   4.577   3.641  1.8678  1.5909 -4.0152
  916MOL0     H26340  10.364   4.727   3.452  1.4737 -1.4592  0.5697
  916MOL0     H26341  10.293   4.927   3.339  1.8277  0.9602  1.0210
  916MOL0     H26342  10.204   4.945   3.487  2.8879  1.2229 -1.2492
  916MOL0     H26343  10.209   5.144   3.333 -0.9947  1.2783  2.1122
  916MOL0     H26344  10.111   5.054   3.223  0.9862  3.3240 -0.2141
  916MOL0     H26345   9.957   5.194   3.364  1.1090  0.2182  1.3204
  916MOL0     H26346   9.930   5.024   3.393 -1.5454  1.4786 -0.9136
  916MOL0     H26347  10.076   5.051   3.608  1.8365 -0.8422 -2.3154
  916MOL0     H26348  10.114   5.208   3.546  1.7877 -1.6485 -1.0550
  916MOL0     H26349   9.823   5.116   3.619 -1.3864  0.8747  2.1687
  916MOL0     H26350   9.874   5.280   3.575 -1.1746 -1.5510 -3.5370
  916MOL0     H26351   9.997   5.146   3.826 -0.3062 -0.1915  0.9466
  916MOL0     H26352  10.024   5.305   3.774 -1.6305  1.1031  2.2470
  916MOL0     H26353   9.760   5.178   3.872 -0.1421 -1.0171 -2.6165
  916MOL0     H26354   9.753   5.333   3.804 -1.1483 -0.4394  1.7997
  916MOL0     H26355   9.929   5.248   4.044 -0.4881  0.5025  1.4138
  916MOL0     H26356   9.946   5.408   3.975  3.2692 -1.5753  1.5162
  916MOL0     H26357   9.706   5.180   4.170 -0.0690 -0.3079 -0.2081
  916MOL0     H26358   9.557   5.282   4.397  1.7285  0.8427 -0.8042
  916MOL0     H26359   9.430   5.304   4.286  1.0846  0.1404 -0.7880
  916MOL0     H26360   9.567   5.530   4.436 -0.8167 -0.8439  1.8814
  916MOL0     H26361   9.412   5.551   4.348  0.7813  0.1924  0.2423
  916MOL0     H26362   9.336   5.362   4.515  0.8573  0.2505 -0.1911
  916MOL0     H26363   9.479   5.386   4.608 -0.7504 -0.1772  0.8553
  916MOL0     H26364   9.318   5.542   4.710 -0.3674  2.2912  0.2447
  916MOL0     H26365   9.399   5.651   4.588  1.7999 -0.3096  0.3376
  916MOL0     H26366   9.015   5.666   4.394  0.4884  3.1989 -2.0009
  916MOL0     H26367   8.848   5.778   4.313 -1.6911 -1.1531 -0.5241
  916MOL0     H26368   8.888   5.955   4.325 -0.2279 -1.3065 -0.7753
  916MOL0     H26369   8.768   5.883   4.429  1.0100  0.2085  0.5316
  916MOL0     H26370   8.851   6.358   4.586 -1.6846 -3.2616 -0.0035
  916MOL0     H26371   8.833   6.591   4.677  2.6897 -0.6156 -1.3452
  916MOL0     H26372   8.765   6.683   5.123 -2.1358 -0.5992 -2.8527
  916MOL0     H26373   8.930   6.628   5.086  1.9914  1.8865 -1.0828
  916MOL0     H26374   8.976   6.831   4.966 -0.3296 -1.0763 -0.4360
  916MOL0     H26375   8.824   6.906   5.017  1.3424 -0.0393 -2.3391
  916MOL0     H26376   9.064   6.844   5.180  1.0666 -0.3966 -4.2252
  916MOL0     H26377   8.911   6.809   5.266  1.1263 -1.5102  0.1808
  916MOL0     H26378   8.834   7.040   5.238 -0.6025  0.2871 -2.1194
  916MOL0     H26379   8.977   7.074   5.142 -1.8702  0.2894 -1.5205
  916MOL0     H26380   9.046   6.938   5.404 -1.3552 -0.4485 -1.4353
  916MOL0     H26381   9.106   7.078   5.324  0.7083 -1.4814 -0.5284
  916MOL0     H26382   8.863   7.078   5.510  1.1246 -1.6469 -1.1802
  916MOL0     H26383   8.904   7.216   5.401 -0.4757  1.4784  2.7331
  916MOL0     H26384   9.017   7.290   5.593  1.9531  1.0134 -0.9720
  916MOL0     H26385   9.137   7.208   5.503  0.1263 -3.0019  0.1990
  916MOL0     H26386   9.057   6.983   5.644 -0.0705 -0.7917  1.6194
  916MOL0     H26387   8.968   7.104   5.746 -0.6927  0.8149  0.6898
  916MOL0     H26388   8.868   6.429   5.069  0.1077 -0.0354 -0.4953
  916MOL0     H26389   8.884   6.205   4.978 -2.3995 -1.1736 -1.8897
  916MOL0     H26390   9.100   5.964   4.768 -0.4911  1.8973 -2.1528
  916MOL0     H26391   9.252   5.765   4.734  0.3524 -2.8147 -1.7780
  916MOL0     H26392   9.935   4.674   3.444 -1.6576 -1.1182  2.6556
  916MOL0     H26393   9.957   4.503   3.634 -0.0567  1.4435  3.7218
  916MOL0     H26394  10.175   4.177   3.792 -0.2976 -1.7086 -0.3368
  916MOL0     H26395  10.266   3.983   3.922 -1.5504  1.0187 -2.5515
  916MOL0     H26396  10.407   3.990   4.359 -0.2390  0.7377  0.9785
  916MOL0     H26397  10.252   4.055   4.314 -0.6892 -0.1778 -0.1112
  916MOL0     H26398  10.247   3.819   4.419 -0.3997  1.7133  0.6701
  916MOL0     H26399  10.326   3.769   4.276  0.5981  1.0262 -1.4676
  916MOL0     H26400  10.046   3.916   4.306  1.2879  0.4648  1.6532
  916MOL0     H26401  10.108   3.863   4.149  1.3114 -3.8614 -0.3694
  916MOL0     H26402   9.942   3.719   4.252 -0.1871 -0.6154 -0.5985
  916MOL0     H26403  10.049   3.688   4.385  1.3654 -3.2457 -1.4947
  916MOL0     H26404  10.200   3.404   4.121 -0.8482  0.0352 -0.5109
  916MOL0     H26405  10.365   4.249   4.242 -1.9497  0.8152  0.9675
  916MOL0     H26406  10.190   4.523   4.162  0.4276  0.8613  1.2036
  916MOL0     H26407  10.324   4.450   4.250 -0.6232  0.6626 -0.7220
  916MOL0     H26408  10.349   4.541   4.099  0.6826  0.9772  0.9201
  917MOL0     O26409   9.664   7.877   2.597 -0.4169 -0.4116 -0.0730
  917MOL0     C26410   9.569   7.837   2.664 -0.6126 -0.4230 -0.2129
  917MOL0     O26411   9.452   7.799   2.619 -0.1840 -0.0933  0.0798
  917MOL0     C26412   9.428   7.815   2.482  0.6125 -0.8163 -0.9427
  917MOL0     C26413   9.382   7.932   2.427  0.0810 -0.2819  0.0876
  917MOL0     C26414   9.370   7.948   2.295  0.1650  1.1896 -0.1005
  917MOL0     C26415   9.395   7.842   2.203  0.7716  0.1403  0.3490
  917MOL0     O26416   9.379   7.861   2.065 -0.1591 -0.5464  0.0814
  917MOL0     C26417   9.495   7.863   1.974  0.0437  0.6529  0.0285
  917MOL0     C26418   9.448   7.909   1.835  0.0955 -0.6485 -0.3909
  917MOL0     C26419   9.445   8.061   1.807  0.0921  0.3065  0.0141
  917MOL0     C26420   9.387   8.145   1.921  0.3823 -0.7407  0.3763
  917MOL0     C26421   9.430   8.297   1.914  0.2253 -0.7759  0.4413
  917MOL0     C26422   9.577   8.323   1.958 -0.7181 -0.4243  0.5268
  917MOL0     C26423   9.603   8.325   2.108 -0.5282 -0.4584 -0.2087
  917MOL0     C26424   9.740   8.368   2.148  0.0924 -0.5584 -0.5384
  917MOL0     N26425   9.751   8.366   2.287  1.0543  0.2360 -0.7545
  917MOL0     C26426   9.745   8.255   2.368  0.3608 -0.3514 -0.3501
  917MOL0     C26427   9.739   8.307   2.498  0.9638 -0.7263  0.0762
  917MOL0     C26428   9.711   8.237   2.633  0.1648  1.3592  0.6269
  917MOL0     C26429   9.827   8.140   2.675 -0.0708  0.5324 -0.3408
  917MOL0     C26430   9.938   8.212   2.741  0.2351 -1.1192 -1.0152
  917MOL0     C26431  10.005   8.323   2.658 -0.3653 -0.1786  0.0807
  917MOL0     O26432  10.041   8.264   2.528 -0.5477  0.2193 -0.2519
  917MOL0     C26433  10.107   8.332   2.427 -0.1159  0.1322  0.1771
  917MOL0     C26434  10.117   8.292   2.296  0.8613  0.5973  0.0811
  917MOL0     C26435  10.190   8.366   2.196  0.5176  0.3571  0.2918
  917MOL0     C26436  10.188   8.300   2.052 -1.5007 -1.0507  0.4724
  917MOL0     C26437  10.243   8.496   2.230  0.2155  0.4566 -0.0115
  917MOL0     C26438  10.310   8.587   2.133 -0.2687 -0.2253  0.3434
  917MOL0     O26439  10.318   8.718   2.146  0.4558 -0.1720 -1.0361
  917MOL0     C26440  10.358   8.794   2.043 -0.9379 -0.2841  0.3790
  917MOL0     C26441  10.434   8.906   2.056  0.2958  1.0522 -0.0753
  917MOL0     C26442  10.483   8.982   1.950  0.6479  0.1112 -0.0700
  917MOL0     C26443  10.447   8.957   1.819 -0.0517 -0.0500 -0.3028
  917MOL0     O26444  10.491   9.050   1.721  0.3233  0.7801  0.5881
  917MOL0     C26445  10.472   9.030   1.579 -0.6983  0.2419 -0.2990
  917MOL0     C26446  10.547   9.137   1.500 -1.0622 -1.0274  0.6855
  917MOL0     C26447  10.695   9.153   1.542  0.4915 -0.5577 -0.6130
  917MOL0     C26448  10.771   9.270   1.480  1.5410  0.5331 -0.4538
  917MOL0     C26449  10.920   9.283   1.506  0.8452  0.3194 -0.1789
  917MOL0     C26450  11.002   9.233   1.389 -0.0621 -0.2092 -0.9646
  917MOL0     C26451  11.158   9.267   1.414  1.0428 -0.5420  0.1697
  917MOL0     C26452  11.242   9.181   1.321 -0.4238 -0.4801  0.0496
  917MOL0    Cl26453  11.199   9.000   1.329 -0.1341  0.2369 -0.2297
  917MOL0     C26454  10.359   8.856   1.799 -0.6735  0.3674 -0.0059
  917MOL0     C26455  10.314   8.773   1.908  0.1393 -0.0939 -0.1831
  917MOL0     O26456  10.379   8.531   2.045 -0.0892  0.8253  0.1358
  917MOL0     C26457  10.248   8.531   2.365 -0.2425 -0.1735  0.5231
  917MOL0     C26458  10.178   8.449   2.456 -0.2944  1.5266 -0.3318
  917MOL0     N26459   9.708   8.444   2.485  0.4897 -0.9970 -0.2362
  917MOL0     N26460   9.724   8.473   2.363 -0.2161  0.7860  0.0502
  917MOL0     C26461   9.428   7.716   2.265 -0.1919 -0.7474 -0.0745
  917MOL0     C26462   9.450   7.705   2.401  0.0088  0.0613  0.1077
  917MOL0     C26463   9.590   7.800   2.805  0.3643  0.1656 -0.5611
  917MOL0     C26464   9.719   7.784   2.850 -0.2891  0.0712 -0.2617
  917MOL0     C26465   9.744   7.751   2.982  0.1329  0.2602 -0.8064
  917MOL0     C26466   9.637   7.723   3.074 -0.0581  0.4575 -0.8959
  917MOL0     O26467   9.652   7.690   3.203 -0.1755  0.2149  0.0632
  917MOL0     C26468   9.769   7.616   3.244  0.5332 -0.3857 -0.4302
  917MOL0     C26469   9.745   7.561   3.390 -0.7383  0.0558  0.3066
  917MOL0     C26470   9.610   7.479   3.390  0.0209 -0.1851  0.7872
  917MOL0     C26471   9.576   7.429   3.536  0.0925 -0.0366  0.0708
  917MOL0     C26472   9.672   7.346   3.600 -0.3503  0.0468 -0.0230
  917MOL0     C26473   9.763   7.284   3.658 -0.0679 -0.1080  1.0628
  917MOL0     C26474   9.509   7.749   3.024  0.6472  0.1034  0.4687
  917MOL0     C26475   9.480   7.796   2.897 -0.3018 -0.8180  0.0561
  917MOL0     C26476   9.332   7.819   2.864  0.4920  0.1519 -0.9849
  917MOL0     H26477   9.345   8.005   2.498 -0.1168 -2.1439  2.0268
  917MOL0     H26478   9.336   8.041   2.250 -0.6984  1.8841  1.8857
  917MOL0     H26479   9.541   7.764   1.964  3.0949  1.8146  1.3350
  917MOL0     H26480   9.570   7.928   2.020 -0.1283  1.0722 -0.2894
  917MOL0     H26481   9.513   7.869   1.757  1.0073 -0.7028  0.3917
  917MOL0     H26482   9.345   7.870   1.834  0.5987 -2.0955  0.7014
  917MOL0     H26483   9.550   8.078   1.780  0.4234  1.4126  1.8512
  917MOL0     H26484   9.384   8.085   1.719  1.9238  2.8731 -0.6856
  917MOL0     H26485   9.278   8.151   1.916  0.4225  4.8470  0.0995
  917MOL0     H26486   9.415   8.098   2.015  1.0155 -2.9045 -0.8200
  917MOL0     H26487   9.372   8.362   1.979 -2.3792 -1.1079 -1.3768
  917MOL0     H26488   9.411   8.335   1.813 -1.2660 -1.2898  0.5015
  917MOL0     H26489   9.656   8.275   1.899  0.3639  1.1006  0.6684
  917MOL0     H26490   9.593   8.428   1.932 -2.6455 -0.2888 -0.2496
  917MOL0     H26491   9.577   8.229   2.152 -3.0591  0.4896  0.5718
  917MOL0     H26492   9.526   8.393   2.148 -1.2597 -0.8609 -0.9091
  917MOL0     H26493   9.817   8.298   2.113 -0.3194 -2.5051  2.1732
  917MOL0     H26494   9.749   8.473   2.121 -2.5955 -0.3490 -0.8985
  917MOL0     H26495   9.759   8.149   2.351  3.4987  0.1841 -1.7114
  917MOL0     H26496   9.614   8.186   2.637 -0.4482  2.4022 -0.4202
  917MOL0     H26497   9.706   8.321   2.702  0.6901  1.4511  0.5580
  917MOL0     H26498   9.790   8.054   2.732  1.5046 -1.1839 -1.7776
  917MOL0     H26499   9.877   8.109   2.582  0.8795 -1.6901  0.8312
  917MOL0     H26500   9.900   8.250   2.836 -2.4793 -0.1436 -2.3498
  917MOL0     H26501  10.015   8.142   2.773  1.3677  0.9524  1.0438
  917MOL0     H26502   9.939   8.409   2.650 -0.0526 -0.1003 -2.4560
  917MOL0     H26503  10.098   8.355   2.705 -1.6453  1.5358  1.5722
  917MOL0     H26504  10.052   8.210   2.267 -1.0029  1.8531  0.5294
  917MOL0     H26505  10.201   8.372   1.971  0.7691 -2.0732 -0.1325
  917MOL0     H26506  10.088   8.263   2.029 -2.4222  0.7631  1.3128
  917MOL0     H26507  10.258   8.216   2.048 -1.1023 -0.8281  1.9572
  917MOL0     H26508  10.468   8.938   2.154 -1.3304  0.9428  0.5576
  917MOL0     H26509  10.543   9.067   1.981  1.4533  0.5081 -2.4561
  917MOL0     H26510  10.520   8.933   1.561 -1.8292  0.2929 -4.5506
  917MOL0     H26511  10.368   9.034   1.544 -0.5172  3.1862 -0.7240
  917MOL0     H26512  10.544   9.097   1.398  1.1371 -0.6236  0.4216
  917MOL0     H26513  10.506   9.239   1.502  2.0371  0.3256  0.9469
  917MOL0     H26514  10.745   9.059   1.515  0.9989 -0.6326  0.5159
  917MOL0     H26515  10.688   9.166   1.650 -1.7766  2.1559 -0.9922
  917MOL0     H26516  10.712   9.358   1.504 -0.4890 -1.1666  1.1165
  917MOL0     H26517  10.752   9.274   1.372  0.2360  3.5492 -0.1878
  917MOL0     H26518  10.949   9.388   1.514 -1.1589  0.9154 -0.2374
  917MOL0     H26519  10.938   9.231   1.600 -2.0624 -2.5915 -1.0611
  917MOL0     H26520  10.964   9.270   1.293  0.7298  0.2434 -1.1099
  917MOL0     H26521  10.983   9.125   1.390 -1.8409  0.0674  0.2809
  917MOL0     H26522  11.173   9.259   1.522 -0.3050  1.4745  0.5767
  917MOL0     H26523  11.189   9.370   1.395  1.7633 -0.7256  0.3041
  917MOL0     H26524  11.343   9.202   1.358 -0.4442  1.6083 -0.9221
  917MOL0     H26525  11.237   9.216   1.218  0.4447 -0.2376  0.0851
  917MOL0     H26526  10.317   8.834   1.701 -2.8753 -1.8267  1.2936
  917MOL0     H26527  10.249   8.694   1.873 -1.3203  1.8888 -2.1902
  917MOL0     H26528  10.310   8.616   2.393 -0.7365  0.6176 -0.7435
  917MOL0     H26529  10.192   8.492   2.555 -1.3579  0.5339  0.2822
  917MOL0     H26530   9.436   7.633   2.195 -0.2332 -2.2411  1.6269
  917MOL0     H26531   9.484   7.612   2.446  0.9929 -0.2533 -1.2081
  917MOL0     H26532   9.797   7.792   2.774  0.3416 -1.9525  0.0952
  917MOL0     H26533   9.848   7.756   3.011  0.9444 -0.8237 -3.2554
  917MOL0     H26534   9.794   7.538   3.171  1.2036  1.3918 -2.1758
  917MOL0     H26535   9.857   7.681   3.246  0.4882 -0.2915 -1.2329
  917MOL0     H26536   9.760   7.638   3.466  1.1880  1.6525 -1.5933
  917MOL0     H26537   9.822   7.487   3.414  2.0287  2.6370  0.0013
  917MOL0     H26538   9.522   7.531   3.352  1.6120  1.0429 -1.5084
  917MOL0     H26539   9.629   7.398   3.319 -0.1705 -3.7388  4.4205
  917MOL0     H26540   9.487   7.370   3.513  0.5249  0.0686 -2.1344
  917MOL0     H26541   9.554   7.510   3.605  1.5683  2.3799 -2.1118
  917MOL0     H26542   9.829   7.216   3.707  1.3844 -0.2406 -0.9460
  917MOL0     H26543   9.426   7.731   3.091  0.2418 -0.6341 -0.2100
  917MOL0     H26544   9.263   7.808   2.949 -0.1264 -3.7054 -1.8007
  917MOL0     H26545   9.315   7.914   2.811 -0.4826  1.4381  1.4418
  917MOL0     H26546   9.291   7.742   2.798 -1.6054 -0.4056  0.8515
  918MOL0     O26547   5.021   9.742   1.031 -0.0086 -0.5634  0.2956
  918MOL0     C26548   4.979   9.697   1.138 -0.1899  0.5931  0.9429
  918MOL0     O26549   5.059   9.638   1.240 -0.3443 -0.2048  0.0916
  918MOL0     C26550   5.190   9.669   1.246  0.5527 -0.0089 -1.0135
  918MOL0     C26551   5.246   9.795   1.239 -0.7337  0.1368 -0.1952
  918MOL0     C26552   5.383   9.804   1.247  0.2594 -0.0695 -1.3248
  918MOL0     C26553   5.465   9.698   1.272 -0.5077 -1.4038  1.4408
  918MOL0     O26554   5.604   9.715   1.266  0.4774 -0.1317 -0.4377
  918MOL0     C26555   5.671   9.838   1.255  0.8329  0.7506 -0.2028
  918MOL0     C26556   5.814   9.833   1.289 -0.4879 -1.7939 -0.1202
  918MOL0     C26557   5.886   9.954   1.235 -0.2884 -0.7929 -0.3790
  918MOL0     C26558   5.884  10.076   1.324  0.1907  0.8901  0.7574
  918MOL0     C26559   5.909  10.201   1.253 -0.3443  0.9622 -0.5006
  918MOL0     C26560   6.029  10.197   1.156 -0.2504 -0.6425 -0.0491
  918MOL0     C26561   6.078  10.331   1.099  0.1397  0.0651 -0.2816
  918MOL0     C26562   5.975  10.405   1.000  0.0469  0.0463  0.2759
  918MOL0     N26563   5.931  10.524   1.057 -0.2597  0.7822  0.3130
  918MOL0     C26564   5.963  10.645   1.009  0.3601 -0.4256 -0.6030
  918MOL0     C26565   5.907  10.736   1.092 -0.8332 -0.3641 -0.6168
  918MOL0     C26566   5.905  10.888   1.082  0.1997  0.3187  0.3819
  918MOL0     C26567   5.791  10.941   0.996 -0.9520  0.4343  0.5600
  918MOL0     C26568   5.728  11.076   1.046 -0.2530 -0.2087 -0.4051
  918MOL0     C26569   5.832  11.188   1.069 -0.1274 -0.3777  0.8532
  918MOL0     O26570   5.772  11.314   1.033  0.2448  0.0567  0.0691
  918MOL0     C26571   5.766  11.360   0.906 -0.0290 -0.3147  0.3658
  918MOL0     C26572   5.811  11.271   0.801 -1.0249 -0.9770  0.0479
  918MOL0     C26573   5.799  11.304   0.667  0.4090  0.2364 -0.4156
  918MOL0     C26574   5.828  11.197   0.559 -0.3995  0.9253  0.1498
  918MOL0     C26575   5.741  11.428   0.625 -0.4648 -0.0456  0.3759
  918MOL0     C26576   5.713  11.473   0.475  0.2646 -0.2681 -0.2079
  918MOL0     O26577   5.777  11.406   0.375 -0.2619  0.1003  0.2648
  918MOL0     C26578   5.728  11.417   0.242 -0.4195  0.0470  0.4103
  918MOL0     C26579   5.825  11.423   0.134  1.1063 -0.1314  0.4061
  918MOL0     C26580   5.778  11.420   0.000 -0.1975  0.3774  0.1201
  918MOL0     C26581   5.639  11.421  -0.024 -0.1349 -0.2707 -0.7606
  918MOL0     O26582   5.587  11.443  -0.152 -0.8904  0.3638 -0.2399
  918MOL0     C26583   5.666  11.524  -0.238 -0.6250 -0.0717 -0.3803
  918MOL0     C26584   5.595  11.535  -0.372  0.1467 -0.0680 -0.6964
  918MOL0     C26585   5.653  11.636  -0.470 -0.1007  0.0757 -0.8579
  918MOL0     C26586   5.771  11.579  -0.546 -0.8657  0.9805 -1.2444
  918MOL0     C26587   5.855  11.687  -0.604 -0.0891  0.2750  0.0875
  918MOL0     C26588   5.971  11.624  -0.676 -0.2021 -0.1483  0.0619
  918MOL0     C26589   6.071  11.529  -0.611 -0.1736 -0.0677  1.1664
  918MOL0     C26590   6.148  11.594  -0.492  0.9940 -0.4200 -0.0778
  918MOL0    Cl26591   6.154  11.461  -0.374 -0.1662 -0.2564  0.3949
  918MOL0     C26592   5.551  11.415   0.079 -0.0145 -0.2745 -1.2092
  918MOL0     C26593   5.589  11.404   0.214  0.2146 -0.1078  0.5819
  918MOL0     O26594   5.627  11.557   0.459  0.3508 -0.3931 -0.3464
  918MOL0     C26595   5.694  11.511   0.727 -0.9448  0.2845  0.8404
  918MOL0     C26596   5.707  11.481   0.864  0.4961  0.0196 -0.0841
  918MOL0     N26597   5.850  10.668   1.200 -0.5484  0.3561 -0.0821
  918MOL0     N26598   5.851  10.543   1.162  0.7843  0.5389 -0.7260
  918MOL0     C26599   5.415   9.570   1.269 -0.0466 -0.1955 -1.0660
  918MOL0     C26600   5.276   9.548   1.257  0.2442 -0.6573 -0.3475
  918MOL0     C26601   4.827   9.693   1.152  0.0087  0.2432 -0.3992
  918MOL0     C26602   4.785   9.623   1.271 -0.5060 -0.0799  0.1797
  918MOL0     C26603   4.652   9.610   1.306 -0.4836 -0.1891 -0.7824
  918MOL0     C26604   4.554   9.668   1.223 -0.9134 -0.2496  0.0489
  918MOL0     O26605   4.424   9.679   1.253  0.7127 -0.2543 -0.5854
  918MOL0     C26606   4.375   9.627   1.376 -0.1413 -0.0503  0.1714
  918MOL0     C26607   4.349   9.472   1.364 -0.2969  0.3691 -0.4199
  918MOL0     C26608   4.267   9.435   1.485  0.4010 -0.0076  0.8868
  918MOL0     C26609   4.206   9.294   1.458 -0.0570 -0.4519  0.7651
  918MOL0     C26610   4.312   9.191   1.480 -0.3403  0.2751 -1.1256
  918MOL0     C26611   4.380   9.089   1.486  0.3506  0.0558 -0.0899
  918MOL0     C26612   4.599   9.724   1.104  1.0127  0.7064 -0.1708
  918MOL0     C26613   4.723   9.732   1.066 -0.7975  0.1817 -0.9855
  918MOL0     C26614   4.759   9.802   0.940  0.5805 -0.4179 -0.1012
  918MOL0     H26615   5.191   9.889   1.227 -0.0770  0.8935  2.0888
  918MOL0     H26616   5.423   9.904   1.265  1.4625 -0.8637  0.7596
  918MOL0     H26617   5.622   9.909   1.323 -3.5647 -2.6573  0.6251
  918MOL0     H26618   5.661   9.875   1.152  1.1256  0.3964 -0.3590
  918MOL0     H26619   5.845   9.826   1.394  2.4657  0.2439 -0.7151
  918MOL0     H26620   5.852   9.744   1.239  0.1073 -0.9771 -1.1840
  918MOL0     H26621   5.993   9.936   1.227 -0.0261 -0.4805  1.7423
  918MOL0     H26622   5.854   9.975   1.133 -0.7999  0.1273 -0.0376
  918MOL0     H26623   5.783  10.071   1.367  0.0449  2.2221  0.6114
  918MOL0     H26624   5.962  10.066   1.399  1.0189  3.2131  0.2748
  918MOL0     H26625   5.913  10.277   1.332 -4.1207  1.9760 -1.0806
  918MOL0     H26626   5.826  10.219   1.184 -0.4099 -0.4140 -0.8156
  918MOL0     H26627   6.120  10.160   1.204  1.0367  2.0853 -0.1728
  918MOL0     H26628   6.005  10.127   1.076 -1.6233 -4.1903  3.1576
  918MOL0     H26629   6.169  10.307   1.044  0.9911 -1.5673  1.7281
  918MOL0     H26630   6.110  10.394   1.182 -3.7953 -0.1718  1.6800
  918MOL0     H26631   6.024  10.418   0.902 -0.2584 -1.7247 -0.1496
  918MOL0     H26632   5.895  10.333   0.979  0.8350 -1.1693  1.2752
  918MOL0     H26633   6.014  10.665   0.915  1.5762  0.2285  0.1830
  918MOL0     H26634   5.998  10.903   1.026  0.6879 -0.9711  0.8047
  918MOL0     H26635   5.912  10.929   1.183  0.3484 -3.2436  1.9601
  918MOL0     H26636   5.828  10.959   0.895 -2.5257  1.9005  0.1917
  918MOL0     H26637   5.708  10.873   0.975 -0.5521  0.1346 -0.0514
  918MOL0     H26638   5.658  11.114   0.971 -0.9204  0.0774  0.3396
  918MOL0     H26639   5.667  11.071   1.137  0.9269  1.8106  0.5802
  918MOL0     H26640   5.864  11.174   1.173 -1.0592 -1.0073  1.0721
  918MOL0     H26641   5.924  11.178   1.011  0.1903  1.9691  0.8787
  918MOL0     H26642   5.856  11.174   0.822 -0.1600 -0.6342 -0.1955
  918MOL0     H26643   5.739  11.185   0.496 -0.3824  1.6217 -0.0191
  918MOL0     H26644   5.842  11.098   0.603 -0.2395  2.0791  2.8657
  918MOL0     H26645   5.914  11.236   0.502  0.7092 -0.3570  0.8876
  918MOL0     H26646   5.927  11.430   0.172  0.7214  0.9086  1.2855
  918MOL0     H26647   5.841  11.413  -0.088 -2.3770 -2.5770 -1.3954
  918MOL0     H26648   5.661  11.618  -0.182 -0.1322 -1.3037  1.8893
  918MOL0     H26649   5.773  11.502  -0.244 -0.4541  0.0410  1.4574
  918MOL0     H26650   5.576  11.438  -0.419 -1.8824  0.0392 -0.1818
  918MOL0     H26651   5.494  11.571  -0.353 -0.0762 -0.5316 -0.9775
  918MOL0     H26652   5.674  11.733  -0.423 -0.7007 -0.0937 -0.2358
  918MOL0     H26653   5.578  11.646  -0.549  0.8859 -4.0745 -2.5824
  918MOL0     H26654   5.739  11.527  -0.637  1.8315 -1.5642 -0.8895
  918MOL0     H26655   5.839  11.517  -0.487  0.8891  3.5086 -0.4407
  918MOL0     H26656   5.801  11.743  -0.681  0.3944  1.1133  0.3496
  918MOL0     H26657   5.884  11.755  -0.524  4.7175  1.8748 -2.6447
  918MOL0     H26658   6.027  11.710  -0.714 -0.8445  0.1609 -0.1957
  918MOL0     H26659   5.928  11.569  -0.761  0.8930 -3.0308  1.2657
  918MOL0     H26660   6.150  11.499  -0.680  0.7766 -1.3126  2.7301
  918MOL0     H26661   6.012  11.439  -0.596  0.9882 -1.0139  0.2356
  918MOL0     H26662   6.084  11.675  -0.456 -1.3343 -1.0263 -2.4858
  918MOL0     H26663   6.247  11.629  -0.524  2.0976 -2.1496  1.2494
  918MOL0     H26664   5.444  11.411   0.057 -0.4126 -1.4031  0.7086
  918MOL0     H26665   5.513  11.378   0.287 -2.3643 -0.6970 -2.1225
  918MOL0     H26666   5.646  11.605   0.700 -0.3542  0.0498 -1.2642
  918MOL0     H26667   5.663  11.549   0.936 -0.2241 -0.4810 -0.0434
  918MOL0     H26668   5.492   9.494   1.253 -1.9544 -2.3147 -0.7211
  918MOL0     H26669   5.246   9.445   1.241 -0.1460 -0.9232  1.8670
  918MOL0     H26670   4.856   9.577   1.339  0.8599 -1.3119 -1.9772
  918MOL0     H26671   4.630   9.566   1.403  2.2275  0.8739  0.4080
  918MOL0     H26672   4.440   9.650   1.461  0.1298 -0.3867  0.0575
  918MOL0     H26673   4.289   9.693   1.391 -0.0096  1.0184 -3.0622
  918MOL0     H26674   4.447   9.424   1.358 -0.3462  0.3085 -0.8123
  918MOL0     H26675   4.303   9.452   1.267  1.0182 -0.0931 -0.9609
  918MOL0     H26676   4.325   9.431   1.578  3.6300 -2.0388 -0.9974
  918MOL0     H26677   4.182   9.501   1.502  1.0655  0.6278  1.8421
  918MOL0     H26678   4.172   9.286   1.354  0.5182  0.4307  0.4948
  918MOL0     H26679   4.121   9.268   1.523  0.7159 -0.0629  1.9697
  918MOL0     H26680   4.443   9.003   1.487 -1.3030 -1.2260 -1.1968
  918MOL0     H26681   4.527   9.779   1.045  0.4519  1.0908  0.8380
  918MOL0     H26682   4.672   9.822   0.877  0.6351  3.1430  0.7643
  918MOL0     H26683   4.817   9.893   0.958 -2.7197  1.5760  1.4358
  918MOL0     H26684   4.820   9.737   0.876  1.5656 -1.5108  1.8488
  919MOL0     O26685  11.149   5.745   9.173 -0.0089 -0.3285  0.4146
  919MOL0     C26686  11.032   5.720   9.207 -0.3553  0.6331  0.2481
  919MOL0     O26687  10.922   5.792   9.175 -0.3347 -0.8141 -0.1208
  919MOL0     C26688  10.930   5.898   9.083  0.0343  0.7242 -0.7787
  919MOL0     C26689  10.858   6.013   9.121  0.0473  0.5566  0.6427
  919MOL0     C26690  10.869   6.132   9.043  0.3137  0.6208  0.6720
  919MOL0     C26691  10.952   6.134   8.934 -0.6126 -0.1635  0.6824
  919MOL0     O26692  10.950   6.252   8.866  0.2490 -0.1546  0.0982
  919MOL0     C26693  11.046   6.277   8.759  0.0735  0.5724  0.4086
  919MOL0     C26694  11.177   6.341   8.805  0.2839 -0.5914 -0.2167
  919MOL0     C26695  11.286   6.343   8.700 -1.1247  0.5313  0.1148
  919MOL0     C26696  11.422   6.382   8.758 -0.3670 -0.5610 -0.4018
  919MOL0     C26697  11.536   6.402   8.652 -0.1875 -0.6137 -0.0663
  919MOL0     C26698  11.651   6.478   8.719  0.1797 -0.2527  0.3410
  919MOL0     C26699  11.796   6.464   8.649  0.6337 -0.1047  0.4015
  919MOL0     C26700  11.873   6.358   8.732 -0.5342 -0.0041  0.3747
  919MOL0     N26701  11.872   6.387   8.874  0.3446 -0.1236 -0.9424
  919MOL0     C26702  11.894   6.511   8.933 -0.0045 -0.2996 -0.3123
  919MOL0     C26703  11.889   6.493   9.061 -0.1837  0.8311  0.2073
  919MOL0     C26704  11.893   6.605   9.166  0.3380  0.6363 -0.0046
  919MOL0     C26705  11.757   6.627   9.229 -0.2890 -0.3975 -0.0757
  919MOL0     C26706  11.765   6.744   9.328  0.4341  0.3120 -0.4836
  919MOL0     C26707  11.626   6.783   9.371 -0.1183  0.3953  1.2127
  919MOL0     O26708  11.559   6.838   9.251 -0.4599  0.3078 -0.9122
  919MOL0     C26709  11.445   6.910   9.277  0.7900  0.6172 -0.0152
  919MOL0     C26710  11.370   6.958   9.173 -0.2341  0.0757 -0.1448
  919MOL0     C26711  11.252   7.022   9.197  0.0994  0.3356 -0.0283
  919MOL0     C26712  11.163   7.036   9.075 -0.1097  0.4708  0.5899
  919MOL0     C26713  11.209   7.060   9.328  0.3476  0.1283 -0.5441
  919MOL0     C26714  11.087   7.136   9.366 -0.6491 -0.7174 -0.3106
  919MOL0     O26715  11.052   7.122   9.499  0.6761  0.4386  0.1089
  919MOL0     C26716  10.921   7.153   9.536 -0.5053 -0.1143  0.4648
  919MOL0     C26717  10.872   7.282   9.545 -0.2468 -0.2421  0.3702
  919MOL0     C26718  10.757   7.317   9.615  0.3832  1.1600 -0.4574
  919MOL0     C26719  10.692   7.214   9.694 -0.6222  0.2835 -0.2412
  919MOL0     O26720  10.586   7.234   9.777  0.1731 -0.2189 -0.5435
  919MOL0     C26721  10.467   7.167   9.733  0.6314  0.0631  0.0658
  919MOL0     C26722  10.340   7.215   9.799  0.7608 -0.3612 -0.1138
  919MOL0     C26723  10.357   7.177   9.949 -0.1447  0.6872  0.1713
  919MOL0     C26724  10.316   7.292  10.040 -0.1058  0.0336 -0.6097
  919MOL0     C26725  10.287   7.240  10.185  0.5379 -0.1776 -0.0819
  919MOL0     C26726  10.408   7.194  10.271 -0.5498  0.2475  0.3364
  919MOL0     C26727  10.375   7.171  10.416 -0.8516 -0.3712  0.5141
  919MOL0     C26728  10.496   7.181  10.495  0.5127 -0.4584 -0.5582
  919MOL0    Cl26729  10.558   7.020  10.492  0.0123  0.3776  0.2370
  919MOL0     C26730  10.740   7.081   9.684 -0.9120 -0.3393  0.1335
  919MOL0     C26731  10.851   7.054   9.599 -0.8310 -0.1803 -0.0970
  919MOL0     O26732  11.025   7.193   9.285  0.7425  0.2431  0.4435
  919MOL0     C26733  11.286   7.007   9.436  0.0037 -0.0236  0.2501
  919MOL0     C26734  11.392   6.929   9.405 -0.4780  0.2266 -0.6919
  919MOL0     N26735  11.876   6.353   9.086 -0.5288  0.1762  0.2506
  919MOL0     N26736  11.870   6.293   8.971  0.1066 -0.3080 -0.5465
  919MOL0     C26737  11.030   6.024   8.897 -0.5590 -0.5486  0.3298
  919MOL0     C26738  11.022   5.905   8.969  1.0994 -0.3625  0.3025
  919MOL0     C26739  11.014   5.599   9.286 -0.2800 -0.7779  0.2747
  919MOL0     C26740  10.886   5.555   9.298 -0.1193 -0.2815 -0.1354
  919MOL0     C26741  10.857   5.449   9.380  0.4656 -0.6458 -0.1855
  919MOL0     C26742  10.954   5.375   9.445  0.4198 -0.1323 -0.0383
  919MOL0     O26743  10.924   5.252   9.494  0.5615  0.0872 -0.7469
  919MOL0     C26744  10.982   5.188   9.614  0.4009 -0.7060  0.2994
  919MOL0     C26745  10.936   5.276   9.734  1.8050  0.0080  0.0905
  919MOL0     C26746  11.007   5.234   9.861 -0.1200 -0.3966  0.2930
  919MOL0     C26747  10.922   5.260   9.982 -0.2740 -0.3246 -0.4672
  919MOL0     C26748  10.999   5.226  10.104  0.1892 -0.3270  0.4268
  919MOL0     C26749  11.053   5.195  10.209  0.2150 -0.9488 -0.0045
  919MOL0     C26750  11.085   5.419   9.433  0.4960 -0.2689 -0.0382
  919MOL0     C26751  11.115   5.536   9.360 -0.8239  0.2360 -0.1730
  919MOL0     C26752  11.249   5.602   9.389  0.6008 -0.8118  0.1787
  919MOL0     H26753  10.792   5.997   9.206  1.0604 -2.6056  0.9903
  919MOL0     H26754  10.792   6.209   9.044  0.6640  1.0790 -1.6928
  919MOL0     H26755  10.987   6.348   8.701 -0.1938  0.9524  1.1428
  919MOL0     H26756  11.060   6.187   8.697 -3.1307  0.0684  0.2763
  919MOL0     H26757  11.158   6.443   8.836 -3.5991 -1.5621  1.1090
  919MOL0     H26758  11.209   6.283   8.892  2.3375 -1.1469 -1.2614
  919MOL0     H26759  11.290   6.242   8.657 -0.4591  0.1382  1.0787
  919MOL0     H26760  11.254   6.407   8.617 -1.1953 -1.0752 -1.1440
  919MOL0     H26761  11.407   6.474   8.815 -0.9911 -1.2123  0.4946
  919MOL0     H26762  11.452   6.296   8.818  0.5315 -2.9278 -3.9155
  919MOL0     H26763  11.492   6.451   8.565 -0.2835 -0.5042  0.0426
  919MOL0     H26764  11.583   6.308   8.622 -0.2341 -1.0612  1.2169
  919MOL0     H26765  11.629   6.585   8.707  4.9676  0.9985  0.6774
  919MOL0     H26766  11.652   6.468   8.828  1.2271 -0.4496  0.3216
  919MOL0     H26767  11.849   6.558   8.663  4.4785 -1.9943 -0.2502
  919MOL0     H26768  11.785   6.437   8.543 -0.3131  2.0277 -0.0956
  919MOL0     H26769  11.840   6.255   8.712 -0.3904 -0.2272  1.2490
  919MOL0     H26770  11.978   6.363   8.704 -0.4734 -0.7579  0.4583
  919MOL0     H26771  11.916   6.605   8.883  1.7441  0.3992  1.6738
  919MOL0     H26772  11.923   6.704   9.131  1.3171  1.9058  3.9474
  919MOL0     H26773  11.950   6.571   9.252  0.6977 -0.7150 -0.7510
  919MOL0     H26774  11.677   6.646   9.157 -1.7689  2.9902  2.2125
  919MOL0     H26775  11.746   6.534   9.284 -0.8622 -2.7324 -3.7912
  919MOL0     H26776  11.817   6.701   9.414 -1.3439 -1.1253 -0.0552
  919MOL0     H26777  11.814   6.838   9.299  0.3357  2.1632  4.3530
  919MOL0     H26778  11.562   6.701   9.404 -5.7732  2.0105 -3.7652
  919MOL0     H26779  11.644   6.867   9.439  1.2541  0.8110  0.3710
  919MOL0     H26780  11.392   6.925   9.072 -2.8899  0.7799 -1.0440
  919MOL0     H26781  11.062   7.013   9.107 -1.6134  4.8256 -0.3440
  919MOL0     H26782  11.190   6.966   8.995 -1.1916 -0.4015  0.9686
  919MOL0     H26783  11.167   7.139   9.038  2.5443 -0.4543 -2.1663
  919MOL0     H26784  10.918   7.362   9.488  0.8451 -1.8017 -1.0277
  919MOL0     H26785  10.718   7.418   9.627 -1.6985  0.2941  0.5044
  919MOL0     H26786  10.462   7.198   9.628  0.3425  0.8227  0.2901
  919MOL0     H26787  10.474   7.059   9.741 -2.2415 -0.0687  2.9862
  919MOL0     H26788  10.328   7.322   9.779  5.4277  0.4528  0.3686
  919MOL0     H26789  10.258   7.155   9.758  0.7781  0.4242 -1.3552
  919MOL0     H26790  10.460   7.156   9.976  0.3002  0.1882 -1.7520
  919MOL0     H26791  10.310   7.083   9.978  1.0027  0.1190  0.2480
  919MOL0     H26792  10.224   7.328   9.992  0.2848  0.6926 -0.8847
  919MOL0     H26793  10.389   7.373  10.052 -0.0098 -0.3062  1.4811
  919MOL0     H26794  10.229   7.318  10.234 -1.8831 -3.1821  2.2296
  919MOL0     H26795  10.219   7.154  10.184 -0.1300  0.1363  3.6874
  919MOL0     H26796  10.493   7.262  10.257  2.3722 -3.6247 -3.0751
  919MOL0     H26797  10.455   7.109  10.222  0.4921  0.3004  1.1948
  919MOL0     H26798  10.318   7.082  10.446 -0.0741  0.0333  3.4814
  919MOL0     H26799  10.315   7.261  10.433 -0.8487  0.1775 -1.9866
  919MOL0     H26800  10.467   7.194  10.600  2.2821 -0.4253 -0.0432
  919MOL0     H26801  10.575   7.247  10.458 -0.0334 -0.2526 -1.3937
  919MOL0     H26802  10.683   7.000   9.728 -2.4949  0.6398 -0.0419
  919MOL0     H26803  10.882   6.951   9.592 -1.6816 -0.5859  1.5230
  919MOL0     H26804  11.269   7.020   9.543  2.0124  0.0897  0.5922
  919MOL0     H26805  11.438   6.882   9.491  0.9687  0.2877 -1.3969
  919MOL0     H26806  11.103   6.023   8.817 -1.0438  0.8342 -0.1553
  919MOL0     H26807  11.078   5.820   8.932 -0.5815 -0.4612 -2.2564
  919MOL0     H26808  10.797   5.598   9.253 -0.8846  1.8041  3.0050
  919MOL0     H26809  10.755   5.418   9.400 -0.1952  1.5015  0.0006
  919MOL0     H26810  10.946   5.086   9.628  1.5777 -1.1280  0.4135
  919MOL0     H26811  11.092   5.187   9.613  0.7093  1.4461  4.6657
  919MOL0     H26812  10.828   5.282   9.748  1.7618  2.0498 -0.8068
  919MOL0     H26813  10.970   5.379   9.725 -1.5615  1.3298  1.0406
  919MOL0     H26814  11.029   5.126   9.863  1.1449 -0.1970 -0.9937
  919MOL0     H26815  11.110   5.270   9.862  0.0168 -0.7601 -0.1207
  919MOL0     H26816  10.845   5.183   9.982  0.2849 -0.9028  0.4957
  919MOL0     H26817  10.887   5.364   9.988 -1.6064 -0.8299  2.2687
  919MOL0     H26818  11.099   5.164  10.301  1.7375 -1.6393 -0.9566
  919MOL0     H26819  11.160   5.372   9.497  0.2240 -1.1759 -0.3754
  919MOL0     H26820  11.323   5.567   9.316 -0.4902 -2.2111 -0.2974
  919MOL0     H26821  11.258   5.710   9.379  1.8193 -0.9865 -1.0922
  919MOL0     H26822  11.289   5.578   9.488  1.6061  0.2168  0.0412
  920MOL0     O26823   1.443   4.451   9.471 -0.4249 -0.4137  0.0295
  920MOL0     C26824   1.412   4.420   9.589 -0.1141  0.7961  0.7288
  920MOL0     O26825   1.498   4.380   9.680 -0.0873 -0.0746  0.1342
  920MOL0     C26826   1.631   4.407   9.665  0.1690 -0.1797 -0.3865
  920MOL0     C26827   1.702   4.362   9.560 -0.4462  0.4379  0.9457
  920MOL0     C26828   1.843   4.379   9.544  1.0368 -0.2029  0.4320
  920MOL0     C26829   1.912   4.453   9.642  0.0968  0.1971 -0.0877
  920MOL0     O26830   2.049   4.460   9.636 -0.3577 -0.4781  0.0456
  920MOL0     C26831   2.108   4.592   9.632  0.0726  0.3761  0.6482
  920MOL0     C26832   2.267   4.603   9.637  0.0917  0.9371  1.0343
  920MOL0     C26833   2.305   4.748   9.640  0.1465 -0.7406 -0.4280
  920MOL0     C26834   2.462   4.779   9.618  0.3763  0.4887  0.7711
  920MOL0     C26835   2.481   4.928   9.623 -0.3888 -0.1424 -0.0573
  920MOL0     C26836   2.621   4.970   9.581 -0.5134  0.2274 -0.2545
  920MOL0     C26837   2.654   5.116   9.606 -0.1275  0.0925  0.1252
  920MOL0     C26838   2.762   5.165   9.511 -0.0522 -0.1135  0.1871
  920MOL0     N26839   2.786   5.304   9.550  0.6339  0.0454 -0.2450
  920MOL0     C26840   2.878   5.342   9.651 -0.0489 -0.4413 -0.0305
  920MOL0     C26841   2.886   5.479   9.645  0.4454  0.0370 -0.3723
  920MOL0     C26842   2.961   5.575   9.738  0.4188 -1.3835  0.1034
  920MOL0     C26843   2.943   5.726   9.711 -0.7444 -0.0226  0.1602
  920MOL0     C26844   3.016   5.810   9.810  0.0529  0.4867 -0.1072
  920MOL0     C26845   3.006   5.960   9.810  0.2473 -0.3596  0.5822
  920MOL0     O26846   2.898   6.005   9.887  0.2779  0.9383  0.6969
  920MOL0     C26847   2.884   6.140   9.896  0.7095  0.1530  0.0399
  920MOL0     C26848   2.984   6.235   9.872 -0.2235  1.2004 -0.0050
  920MOL0     C26849   2.973   6.373   9.897 -0.3988  0.5613  0.8968
  920MOL0     C26850   3.091   6.451   9.858  0.7987 -0.3640  0.0546
  920MOL0     C26851   2.854   6.424   9.948  0.5551 -0.3827 -0.2021
  920MOL0     C26852   2.835   6.565   9.975  0.1663 -0.9363 -0.0628
  920MOL0     O26853   2.867   6.653   9.880 -0.0195 -0.4135  1.2824
  920MOL0     C26854   2.848   6.788   9.909  0.7596 -0.6099  0.3158
  920MOL0     C26855   2.931   6.862   9.996 -0.1744 -0.5685  0.2148
  920MOL0     C26856   2.895   6.992  10.036 -0.6664  0.1056  0.0629
  920MOL0     C26857   2.781   7.042   9.977 -1.5004  0.0698  0.1213
  920MOL0     O26858   2.730   7.160  10.026  0.4342 -0.5766 -0.3471
  920MOL0     C26859   2.610   7.142  10.106  0.6318  0.5848 -0.0225
  920MOL0     C26860   2.589   7.228  10.225  0.3200  0.4508 -1.0257
  920MOL0     C26861   2.578   7.373  10.190  0.6968  0.3926 -0.2040
  920MOL0     C26862   2.437   7.423  10.148  0.1243  0.1637 -0.3452
  920MOL0     C26863   2.419   7.560  10.088  0.0433  0.0616  0.0156
  920MOL0     C26864   2.417   7.667  10.191  0.4552  0.3755 -0.0185
  920MOL0     C26865   2.551   7.692  10.263 -0.7151 -0.1096  0.1395
  920MOL0     C26866   2.561   7.830  10.299  0.9106 -0.3630 -0.3861
  920MOL0    Cl26867   2.692   7.847  10.417 -0.3121 -0.1940 -0.1397
  920MOL0     C26868   2.719   6.984   9.869  0.1824  0.3441  0.6575
  920MOL0     C26869   2.749   6.854   9.835 -0.0642  0.9222 -0.5237
  920MOL0     O26870   2.769   6.581  10.079 -0.1503 -0.6761 -0.2260
  920MOL0     C26871   2.749   6.332   9.974 -0.2542  0.3879  0.2443
  920MOL0     C26872   2.767   6.193   9.948 -0.4722  0.0543 -0.4804
  920MOL0     N26873   2.804   5.514   9.539  0.5320 -0.1449  0.1488
  920MOL0     N26874   2.750   5.412   9.475 -0.2964 -0.1027  0.1917
  920MOL0     C26875   1.840   4.511   9.751 -0.0688 -0.5825  0.3308
  920MOL0     C26876   1.702   4.485   9.762 -0.0863  0.3256 -0.1192
  920MOL0     C26877   1.266   4.420   9.610 -0.4768 -0.0530 -0.8763
  920MOL0     C26878   1.185   4.357   9.519  0.6145 -0.1806 -0.5607
  920MOL0     C26879   1.046   4.370   9.539 -0.4964 -0.3158 -0.1378
  920MOL0     C26880   0.988   4.451   9.644  0.3829 -0.1608 -0.2479
  920MOL0     O26881   0.847   4.454   9.648  0.2781 -0.7903  0.1453
  920MOL0     C26882   0.771   4.556   9.719 -0.9876  0.8306 -0.9432
  920MOL0     C26883   0.758   4.674   9.627 -0.6911  0.3992  0.5767
  920MOL0     C26884   0.889   4.760   9.625  0.0840 -0.4627 -0.3519
  920MOL0     C26885   0.866   4.878   9.527 -0.3963  0.0830 -0.7395
  920MOL0     C26886   0.975   4.967   9.533 -0.2843 -0.8377 -0.0661
  920MOL0     C26887   1.065   5.052   9.543  0.8586  0.5612  1.0970
  920MOL0     C26888   1.076   4.514   9.729  0.5413 -0.1924 -0.4045
  920MOL0     C26889   1.208   4.498   9.708  0.2776 -0.4399 -0.6760
  920MOL0     C26890   1.295   4.579   9.803  0.4149 -0.1515  0.4303
  920MOL0     H26891   1.658   4.295   9.487  1.4496 -0.7691  0.8588
  920MOL0     H26892   1.883   4.332   9.455 -2.0665  1.4509 -2.0454
  920MOL0     H26893   2.068   4.658   9.710 -1.6572 -0.2983  0.3714
  920MOL0     H26894   2.073   4.631   9.536 -1.4940 -0.6378  0.7707
  920MOL0     H26895   2.301   4.552   9.727 -0.4795 -1.2033  0.0911
  920MOL0     H26896   2.305   4.551   9.549  2.7571  1.3858  1.8333
  920MOL0     H26897   2.265   4.799   9.552 -0.6203  0.0187  0.3440
  920MOL0     H26898   2.284   4.797   9.735  0.3309  0.1391 -0.8365
  920MOL0     H26899   2.530   4.729   9.688 -2.0605 -0.0693  2.9034
  920MOL0     H26900   2.483   4.738   9.519 -4.0761  1.0354 -0.6253
  920MOL0     H26901   2.462   4.950   9.728 -1.0611 -0.8121 -0.0316
  920MOL0     H26902   2.415   4.977   9.551  0.6323 -0.3787 -1.1900
  920MOL0     H26903   2.687   4.920   9.652 -1.4944  1.1627  1.3831
  920MOL0     H26904   2.638   4.938   9.478  1.2718 -0.1792  0.1399
  920MOL0     H26905   2.699   5.112   9.706 -0.8867 -0.3756  0.4559
  920MOL0     H26906   2.565   5.179   9.600 -0.7242 -0.7754 -0.3120
  920MOL0     H26907   2.855   5.107   9.511 -0.6597 -1.1286  0.7109
  920MOL0     H26908   2.727   5.145   9.409  1.1447 -2.4063  0.1375
  920MOL0     H26909   2.923   5.285   9.731 -0.8645  2.4591  2.6612
  920MOL0     H26910   3.066   5.548   9.754  0.3044 -0.6806  2.5024
  920MOL0     H26911   2.909   5.557   9.833 -0.2266 -0.8277 -0.1367
  920MOL0     H26912   2.983   5.745   9.611 -1.2330 -0.2797 -0.0879
  920MOL0     H26913   2.838   5.755   9.722 -0.1132  1.8827  1.7280
  920MOL0     H26914   2.973   5.770   9.903 -0.2955 -2.0999 -1.2873
  920MOL0     H26915   3.120   5.780   9.801 -0.1469 -0.3657  0.2590
  920MOL0     H26916   3.096   6.010   9.846 -0.5269  2.6543 -1.2868
  920MOL0     H26917   3.002   5.995   9.707 -1.5866  1.8467  1.3366
  920MOL0     H26918   3.079   6.192   9.840 -1.4069 -2.9973  1.3689
  920MOL0     H26919   3.179   6.388   9.874  1.4234  0.3882 -0.3685
  920MOL0     H26920   3.106   6.540   9.920 -0.2299 -0.3005  0.2356
  920MOL0     H26921   3.066   6.472   9.754 -0.5894 -0.8569  0.2595
  920MOL0     H26922   3.024   6.810  10.017 -0.7964 -2.0301 -0.5166
  920MOL0     H26923   2.955   7.056  10.100  1.4241 -1.7045  0.0171
  920MOL0     H26924   2.530   7.168  10.036  1.8629  1.7715 -1.0478
  920MOL0     H26925   2.587   7.040  10.138 -3.9760  0.9760 -1.2950
  920MOL0     H26926   2.497   7.198  10.276  0.3469  1.7795 -0.1384
  920MOL0     H26927   2.672   7.214  10.294  0.3610  0.0642 -1.1517
  920MOL0     H26928   2.643   7.388  10.103 -4.0250 -0.8674 -4.4542
  920MOL0     H26929   2.610   7.430  10.277 -0.3265  1.4522 -0.4983
  920MOL0     H26930   2.366   7.402  10.229  1.6770 -0.8482  0.8140
  920MOL0     H26931   2.407   7.350  10.072 -0.0903 -0.9998  0.8205
  920MOL0     H26932   2.499   7.573  10.015  0.7426  0.9453  0.9084
  920MOL0     H26933   2.326   7.567  10.030  0.9295  0.7898 -1.3859
  920MOL0     H26934   2.332   7.648  10.258 -0.1400  1.7919 -0.3234
  920MOL0     H26935   2.393   7.757  10.134  1.8656  0.3243 -0.7416
  920MOL0     H26936   2.641   7.655  10.214 -0.7539  0.0971 -0.0916
  920MOL0     H26937   2.563   7.639  10.359 -1.5623  1.0206  0.8871
  920MOL0     H26938   2.462   7.855  10.340  0.9120  0.3375 -0.7842
  920MOL0     H26939   2.580   7.895  10.213  1.2194  0.6034  0.3962
  920MOL0     H26940   2.649   7.038   9.806  0.0444  0.3067  0.7768
  920MOL0     H26941   2.698   6.815   9.747 -0.8309  0.6364  0.0315
  920MOL0     H26942   2.660   6.368  10.024 -1.2000 -1.4210 -0.0441
  920MOL0     H26943   2.684   6.128   9.974 -2.6203  2.3477 -1.1817
  920MOL0     H26944   1.888   4.572   9.826  0.8121 -1.4184  0.4646
  920MOL0     H26945   1.650   4.520   9.850  0.9866 -2.2788  1.6645
  920MOL0     H26946   1.221   4.286   9.445  0.4385 -0.5401 -0.3038
  920MOL0     H26947   0.981   4.325   9.464  1.4587  1.0082 -2.7837
  920MOL0     H26948   0.670   4.516   9.733 -0.9360  0.4171 -1.6764
  920MOL0     H26949   0.817   4.576   9.816 -0.5122  3.1408 -1.5928
  920MOL0     H26950   0.675   4.735   9.663  0.3807  1.8961  0.5804
  920MOL0     H26951   0.734   4.638   9.526  3.6159  1.3761 -0.9789
  920MOL0     H26952   0.917   4.793   9.725  1.2713  1.8840 -1.3634
  920MOL0     H26953   0.969   4.701   9.579  1.2561  0.5918  0.2520
  920MOL0     H26954   0.772   4.924   9.560 -1.2251 -0.6216 -2.0571
  920MOL0     H26955   0.860   4.834   9.428 -1.8014  2.0687 -1.6117
  920MOL0     H26956   1.142   5.127   9.547  1.2992  0.0529  2.3183
  920MOL0     H26957   1.042   4.587   9.802 -1.1367 -1.1315 -0.1940
  920MOL0     H26958   1.250   4.579   9.903  0.6328  3.0602  0.6391
  920MOL0     H26959   1.394   4.533   9.813 -0.1338 -1.6133 -0.4998
  920MOL0     H26960   1.304   4.683   9.771  0.6699  0.4101  2.2054
  921MOL0     O26961   9.075   6.046   8.875 -1.5207  0.3580  0.5987
  921MOL0     C26962   9.009   5.987   8.958  0.7181 -0.6022  0.3420
  921MOL0     O26963   8.888   5.925   8.932  0.5202 -0.0401  0.5979
  921MOL0     C26964   8.833   5.929   8.809 -0.1055 -0.4228  0.5394
  921MOL0     C26965   8.872   5.849   8.704  0.2428 -1.0679 -0.5774
  921MOL0     C26966   8.808   5.850   8.580  0.3774  0.6551 -0.1068
  921MOL0     C26967   8.715   5.944   8.550  0.0767  0.0996  0.3443
  921MOL0     O26968   8.662   5.953   8.419 -0.1586  0.8574  0.4930
  921MOL0     C26969   8.523   5.989   8.410  0.4945 -1.2017  0.6198
  921MOL0     C26970   8.495   6.137   8.372  0.6127  0.0823 -0.4082
  921MOL0     C26971   8.557   6.171   8.240  0.0625  0.7463 -0.0333
  921MOL0     C26972   8.520   6.311   8.206 -0.4182 -0.4965  1.2636
  921MOL0     C26973   8.393   6.307   8.115 -0.2379  0.0378  0.2535
  921MOL0     C26974   8.354   6.453   8.087  0.0941  1.3366 -0.6898
  921MOL0     C26975   8.223   6.456   8.004  0.0652  0.0756  0.3099
  921MOL0     C26976   8.100   6.421   8.086  0.6894  0.0064 -0.3838
  921MOL0     N26977   8.070   6.535   8.188  0.7927 -0.6466 -0.0202
  921MOL0     C26978   8.114   6.548   8.317 -0.0153  0.2626 -0.1824
  921MOL0     C26979   8.054   6.660   8.363 -0.8064 -0.6967 -0.4203
  921MOL0     C26980   8.061   6.672   8.514 -0.1134 -0.2465 -0.1978
  921MOL0     C26981   8.003   6.810   8.551 -0.1258  0.4448 -0.0194
  921MOL0     C26982   8.021   6.830   8.703 -0.2884 -0.8656 -0.2261
  921MOL0     C26983   7.992   6.978   8.741 -0.4722 -0.3524 -0.1346
  921MOL0     O26984   7.859   7.004   8.716 -0.2324 -0.1483 -0.2357
  921MOL0     C26985   7.775   7.030   8.815  0.4562  0.4858 -1.1288
  921MOL0     C26986   7.785   6.990   8.954  0.2236  0.2472 -0.1457
  921MOL0     C26987   7.696   7.036   9.054 -0.1136 -0.1464  0.0703
  921MOL0     C26988   7.723   6.992   9.197  0.0880 -0.3079 -0.2099
  921MOL0     C26989   7.587   7.126   9.021  0.1818  0.5044  0.3521
  921MOL0     C26990   7.488   7.179   9.120 -0.1261 -0.0275 -0.0394
  921MOL0     O26991   7.531   7.204   9.250  0.6393 -0.2171  0.7834
  921MOL0     C26992   7.429   7.251   9.333  0.3563  0.3516  0.0565
  921MOL0     C26993   7.356   7.158   9.404  0.4743  0.1358 -0.3651
  921MOL0     C26994   7.269   7.196   9.502  0.0501 -0.2818 -0.5055
  921MOL0     C26995   7.249   7.338   9.519 -0.5425  0.6923  0.3307
  921MOL0     O26996   7.163   7.377   9.614  0.1395  0.1115  0.0371
  921MOL0     C26997   7.197   7.351   9.754 -0.5631 -0.7257 -0.1803
  921MOL0     C26998   7.101   7.243   9.795 -0.2971  0.6378 -0.2241
  921MOL0     C26999   7.093   7.225   9.945  0.5209  0.1816  0.2132
  921MOL0     C27000   7.197   7.138  10.013 -0.3306  1.0632 -0.2580
  921MOL0     C27001   7.199   7.157  10.163 -0.8031  0.1249  0.5944
  921MOL0     C27002   7.134   7.026  10.230  0.2779 -0.0072 -0.4502
  921MOL0     C27003   7.119   7.031  10.375  0.3353  0.6997  0.7699
  921MOL0     C27004   7.024   6.915  10.418 -0.0623 -0.5397  0.4642
  921MOL0    Cl27005   7.009   6.910  10.594  0.0038 -0.2598  0.3166
  921MOL0     C27006   7.308   7.429   9.436 -0.2847  0.0315 -0.1655
  921MOL0     C27007   7.405   7.387   9.345  0.2037  0.1015  0.1027
  921MOL0     O27008   7.374   7.186   9.074  0.0473  0.2219  0.7541
  921MOL0     C27009   7.573   7.153   8.880 -0.0415  0.6259 -0.5413
  921MOL0     C27010   7.665   7.106   8.787  0.5078 -0.5170  0.2487
  921MOL0     N27011   7.977   6.722   8.270 -0.2604 -0.0101  0.0998
  921MOL0     N27012   7.988   6.646   8.166  0.7306 -0.5454 -0.1330
  921MOL0     C27013   8.672   6.028   8.654  1.0809  0.5568  0.3211
  921MOL0     C27014   8.721   6.016   8.782  0.0671 -0.3231 -0.2064
  921MOL0     C27015   9.037   5.985   9.102 -0.9283 -0.6395  1.2021
  921MOL0     C27016   8.929   5.974   9.193  0.0288  0.5459  1.1309
  921MOL0     C27017   8.954   5.983   9.333  0.3554  0.0459 -0.0014
  921MOL0     C27018   9.082   5.959   9.383  0.0128 -0.3155 -0.3552
  921MOL0     O27019   9.095   5.950   9.518 -0.2850  0.1866  0.1431
  921MOL0     C27020   9.216   5.923   9.593  0.9993  0.6847  0.2207
  921MOL0     C27021   9.284   6.059   9.613  1.0254 -0.1569 -0.1398
  921MOL0     C27022   9.389   6.046   9.726 -0.8938 -0.2666 -0.5308
  921MOL0     C27023   9.436   6.171   9.783  0.0135 -0.3547 -0.0129
  921MOL0     C27024   9.493   6.278   9.685  0.2466 -0.1877 -0.2343
  921MOL0     C27025   9.537   6.346   9.594 -1.3193  0.1973 -0.2200
  921MOL0     C27026   9.190   5.972   9.294  0.0148 -0.2146  0.6088
  921MOL0     C27027   9.172   5.995   9.150  0.0943  0.8166 -0.8448
  921MOL0     C27028   9.291   6.005   9.066 -0.0734  0.7739 -0.0389
  921MOL0     H27029   8.950   5.780   8.733 -1.0351 -2.5519 -0.5001
  921MOL0     H27030   8.837   5.781   8.501  2.1657 -2.0090  2.6622
  921MOL0     H27031   8.475   5.960   8.504 -1.5199  0.9125  0.3533
  921MOL0     H27032   8.470   5.938   8.329 -1.4683  1.3106  0.1824
  921MOL0     H27033   8.387   6.148   8.361  0.6233  1.5960  0.6985
  921MOL0     H27034   8.531   6.210   8.444 -1.4154 -0.9575  1.7930
  921MOL0     H27035   8.666   6.175   8.249  0.2285 -1.8545 -0.2230
  921MOL0     H27036   8.538   6.108   8.152 -0.5837  2.3561 -1.1102
  921MOL0     H27037   8.497   6.379   8.288  0.4048 -1.2025  2.0941
  921MOL0     H27038   8.604   6.361   8.157 -2.3742  2.6039  0.8177
  921MOL0     H27039   8.314   6.251   8.165 -1.0464 -1.9972 -2.9721
  921MOL0     H27040   8.408   6.259   8.017 -1.4191 -1.9304  0.9827
  921MOL0     H27041   8.341   6.508   8.181 -0.6362  2.3212 -1.3479
  921MOL0     H27042   8.432   6.504   8.030  1.1341  0.5239 -0.0399
  921MOL0     H27043   8.237   6.389   7.918  1.9738  2.6190 -1.5035
  921MOL0     H27044   8.208   6.557   7.965 -2.6663  0.3104  1.7471
  921MOL0     H27045   8.023   6.412   8.009 -0.2294  1.1482  0.3550
  921MOL0     H27046   8.110   6.329   8.145  0.2914  1.7982  2.7318
  921MOL0     H27047   8.175   6.474   8.368 -1.5619  0.5480  2.2430
  921MOL0     H27048   8.163   6.672   8.554  0.8244  1.0851 -2.4112
  921MOL0     H27049   8.013   6.587   8.563 -1.6811  1.3758  1.2488
  921MOL0     H27050   8.042   6.891   8.489 -3.8155  2.5336  0.0877
  921MOL0     H27051   7.902   6.826   8.513 -0.0723 -0.5087 -0.6126
  921MOL0     H27052   7.952   6.767   8.760 -0.6047  1.4873  2.1757
  921MOL0     H27053   8.121   6.808   8.742 -0.4434  1.2785  1.5845
  921MOL0     H27054   8.013   6.992   8.847  1.7424 -0.4218 -0.5058
  921MOL0     H27055   8.055   7.045   8.680  0.4315  0.1802  1.3308
  921MOL0     H27056   7.864   6.925   8.991 -1.4417 -0.9664  1.4514
  921MOL0     H27057   7.765   7.075   9.255 -0.3893  0.4008 -0.8477
  921MOL0     H27058   7.794   6.909   9.191 -1.6423 -1.7573 -1.8366
  921MOL0     H27059   7.623   6.967   9.232  0.6281 -0.0774  1.6034
  921MOL0     H27060   7.372   7.053   9.380 -1.2268 -0.4956  1.0221
  921MOL0     H27061   7.231   7.112   9.559  1.4617 -1.1431 -0.7956
  921MOL0     H27062   7.300   7.316   9.769 -1.4027 -2.9757  0.8831
  921MOL0     H27063   7.185   7.442   9.814 -1.3039 -0.4641 -0.7119
  921MOL0     H27064   6.999   7.271   9.769  0.6647  4.2647 -0.6877
  921MOL0     H27065   7.136   7.147   9.755 -2.1750 -0.5814  0.9531
  921MOL0     H27066   6.991   7.201   9.976  0.6573 -1.4026 -0.4513
  921MOL0     H27067   7.086   7.326   9.985 -2.4549 -0.4635  1.5872
  921MOL0     H27068   7.291   7.176   9.973 -1.1962 -2.5108 -7.2154
  921MOL0     H27069   7.188   7.036   9.974  0.1011  1.7390 -2.2536
  921MOL0     H27070   7.297   7.181  10.206 -0.2004  0.9022 -1.0816
  921MOL0     H27071   7.132   7.242  10.178 -3.3901 -2.1152  2.7012
  921MOL0     H27072   7.210   6.950  10.210 -1.6547 -2.9116  2.2212
  921MOL0     H27073   7.035   6.997  10.196  0.0523  0.5757 -0.3068
  921MOL0     H27074   7.090   7.129  10.414 -2.2376  0.0973  0.5434
  921MOL0     H27075   7.216   7.012  10.421 -0.3864  1.5018  2.7244
  921MOL0     H27076   7.069   6.820  10.389  2.3435  0.6399  0.1062
  921MOL0     H27077   6.928   6.927  10.366  0.8285 -1.7150 -1.5594
  921MOL0     H27078   7.288   7.536   9.433 -0.8120 -0.0004 -4.3230
  921MOL0     H27079   7.457   7.466   9.293  2.4166 -0.7596  0.8876
  921MOL0     H27080   7.484   7.198   8.839 -0.5930  0.0196 -0.0371
  921MOL0     H27081   7.637   7.137   8.687 -1.0439  0.3594  0.9270
  921MOL0     H27082   8.590   6.097   8.636  0.1111 -0.4991  0.5742
  921MOL0     H27083   8.683   6.084   8.858  1.7868 -2.6679  2.9559
  921MOL0     H27084   8.827   5.953   9.160  1.0859 -1.3339 -1.2268
  921MOL0     H27085   8.867   5.992   9.398  0.2971 -0.8978  0.0528
  921MOL0     H27086   9.185   5.870   9.684 -1.3759 -1.0182 -1.4469
  921MOL0     H27087   9.290   5.870   9.532  1.5162 -1.8205  2.8012
  921MOL0     H27088   9.216   6.139   9.643  1.0980  0.4970 -1.6355
  921MOL0     H27089   9.326   6.095   9.519  1.1757  0.0824  0.0181
  921MOL0     H27090   9.349   5.994   9.813  2.3571 -0.3815  1.0376
  921MOL0     H27091   9.466   5.979   9.687 -2.1161 -0.6904 -2.3712
  921MOL0     H27092   9.519   6.143   9.849  1.2220 -1.9244 -2.0628
  921MOL0     H27093   9.362   6.224   9.843  1.9304 -0.6725  2.8523
  921MOL0     H27094   9.588   6.398   9.515  3.3217  0.3879  2.5470
  921MOL0     H27095   9.291   5.992   9.328  0.4086  2.8008 -1.8879
  921MOL0     H27096   9.270   5.955   8.971 -0.5470  2.8886 -1.1043
  921MOL0     H27097   9.315   6.107   9.035 -2.0175  1.0966 -0.6020
  921MOL0     H27098   9.383   5.971   9.115  2.0950  1.8008 -3.0560
  922MOL0     O27099   7.155   1.006   0.837  0.5000 -0.4642 -0.5478
  922MOL0     C27100   7.096   1.041   0.943  0.3451  0.5734  0.4232
  922MOL0     O27101   7.134   1.149   1.023  0.0205 -0.3205 -0.2926
  922MOL0     C27102   7.248   1.221   0.986  0.4659 -0.4024  0.9517
  922MOL0     C27103   7.372   1.164   0.999 -0.4659 -0.6911 -0.1672
  922MOL0     C27104   7.488   1.226   0.960 -0.3900  0.7254 -0.6984
  922MOL0     C27105   7.476   1.365   0.915  0.9490 -0.5496  0.1477
  922MOL0     O27106   7.577   1.449   0.876 -0.4385 -0.3042  0.5841
  922MOL0     C27107   7.717   1.423   0.913 -0.3383  0.1916 -0.1836
  922MOL0     C27108   7.783   1.538   0.983 -0.0414  0.7017 -0.4766
  922MOL0     C27109   7.777   1.661   0.897  0.2598  0.0860  0.6518
  922MOL0     C27110   7.898   1.744   0.910  0.2452  0.5156  0.3449
  922MOL0     C27111   7.858   1.874   0.839  0.0693  0.1640 -0.0358
  922MOL0     C27112   7.979   1.946   0.784 -0.0985  0.0495 -0.9262
  922MOL0     C27113   7.943   2.076   0.707 -0.1740 -0.5708  0.6492
  922MOL0     C27114   8.055   2.114   0.607  0.4848 -0.0982 -0.5458
  922MOL0     N27115   8.033   2.246   0.552 -0.0187  0.0911  0.2662
  922MOL0     C27116   7.939   2.262   0.453  0.1840 -0.1284  1.3263
  922MOL0     C27117   7.905   2.394   0.454 -0.0488  1.2285  0.0682
  922MOL0     C27118   7.820   2.452   0.350  0.1565  0.2427 -0.2290
  922MOL0     C27119   7.906   2.520   0.251 -0.1865 -0.5829 -0.5656
  922MOL0     C27120   7.825   2.610   0.162 -0.2118  0.1774 -0.0823
  922MOL0     C27121   7.746   2.527   0.059 -0.2623  0.9661  0.9800
  922MOL0     O27122   7.705   2.615  -0.044  0.1820 -0.8942 -0.2689
  922MOL0     C27123   7.605   2.594  -0.131 -0.4355 -0.4340 -0.1630
  922MOL0     C27124   7.549   2.465  -0.156  0.2246  0.2308  0.0165
  922MOL0     C27125   7.444   2.445  -0.254  0.1467 -0.2103  0.0436
  922MOL0     C27126   7.383   2.309  -0.267 -0.5166  0.1236  0.1508
  922MOL0     C27127   7.401   2.563  -0.330  0.3844  0.3663  0.1188
  922MOL0     C27128   7.291   2.566  -0.432 -0.5186 -1.0333 -0.0358
  922MOL0     O27129   7.248   2.689  -0.473  0.0369 -0.3809  0.3361
  922MOL0     C27130   7.151   2.693  -0.566  0.1505 -0.0054 -0.5529
  922MOL0     C27131   7.176   2.660  -0.692  0.1822  0.1762  0.1788
  922MOL0     C27132   7.075   2.637  -0.789 -0.8435 -0.9094 -0.2666
  922MOL0     C27133   6.938   2.664  -0.758 -0.1531 -0.5753 -0.6524
  922MOL0     O27134   6.838   2.658  -0.851  0.0647  0.1189  0.6490
  922MOL0     C27135   6.860   2.619  -0.982 -0.1565  0.2502 -0.3056
  922MOL0     C27136   6.730   2.621  -1.070  0.0373  0.5018  0.4912
  922MOL0     C27137   6.717   2.511  -1.162 -0.7754  0.8604 -0.3674
  922MOL0     C27138   6.584   2.483  -1.217  0.5654  0.8739 -0.7953
  922MOL0     C27139   6.566   2.348  -1.297  0.6032 -0.3717 -0.1115
  922MOL0     C27140   6.414   2.344  -1.346 -0.8172  0.3426  1.6107
  922MOL0     C27141   6.393   2.220  -1.419 -0.0024 -0.2285  1.2503
  922MOL0     C27142   6.249   2.201  -1.463 -0.1637  0.3426  0.3590
  922MOL0    Cl27143   6.197   2.335  -1.570 -0.5891 -0.6009 -0.1398
  922MOL0     C27144   6.911   2.699  -0.626  0.8340 -0.2386  0.2111
  922MOL0     C27145   7.018   2.707  -0.533  0.4304 -0.4359 -1.4847
  922MOL0     O27146   7.245   2.463  -0.473 -0.1570  1.1478  0.3624
  922MOL0     C27147   7.462   2.686  -0.294 -0.1945  0.7315  0.6934
  922MOL0     C27148   7.557   2.708  -0.201 -1.0117  0.6458  0.3148
  922MOL0     N27149   7.979   2.458   0.547  0.3034 -0.2483  1.1062
  922MOL0     N27150   8.037   2.369   0.619 -0.0432 -0.0307  0.9849
  922MOL0     C27151   7.350   1.413   0.894 -0.3699 -0.2247  0.2350
  922MOL0     C27152   7.234   1.343   0.924  0.1010 -1.6936  0.4990
  922MOL0     C27153   6.993   0.948   0.990 -0.1169 -0.8380  0.2056
  922MOL0     C27154   6.965   0.986   1.129  0.7538  0.3467 -0.8059
  922MOL0     C27155   6.874   0.915   1.205 -0.4246 -0.1342 -1.0034
  922MOL0     C27156   6.798   0.812   1.141  0.5625 -0.6894 -0.7860
  922MOL0     O27157   6.703   0.750   1.216  0.1604  0.0796  0.2391
  922MOL0     C27158   6.624   0.643   1.164 -0.8729  0.2084 -0.6646
  922MOL0     C27159   6.520   0.612   1.277  0.5791 -0.2943 -0.1079
  922MOL0     C27160   6.426   0.497   1.241 -0.2321 -0.6098 -0.2533
  922MOL0     C27161   6.495   0.369   1.193 -0.2071 -0.0990  0.1418
  922MOL0     C27162   6.595   0.296   1.280  0.1398 -0.7995 -0.5735
  922MOL0     C27163   6.681   0.238   1.349 -0.4818  0.0796  1.2498
  922MOL0     C27164   6.839   0.769   1.008 -0.4197 -0.4891 -0.0109
  922MOL0     C27165   6.934   0.842   0.936 -0.5197  0.6183  0.2092
  922MOL0     C27166   6.965   0.793   0.797 -0.0239 -0.2433  0.4760
  922MOL0     H27167   7.382   1.059   1.026  2.5662 -0.4328 -0.0350
  922MOL0     H27168   7.582   1.172   0.954 -1.9841 -2.1011 -3.1363
  922MOL0     H27169   7.776   1.391   0.827  2.0551  1.3316  0.9552
  922MOL0     H27170   7.723   1.341   0.986 -1.2104  1.7860  1.7541
  922MOL0     H27171   7.730   1.561   1.076 -0.0340 -0.4460 -0.1691
  922MOL0     H27172   7.884   1.507   1.008  0.5522  2.8586  0.0314
  922MOL0     H27173   7.770   1.634   0.791 -0.4397  1.2677  0.3801
  922MOL0     H27174   7.689   1.717   0.929 -0.3202 -0.0767 -0.6156
  922MOL0     H27175   7.923   1.770   1.014  0.1987  0.7794  0.2917
  922MOL0     H27176   7.984   1.694   0.867 -0.8976 -2.4800  1.2954
  922MOL0     H27177   7.788   1.934   0.897  1.6570  0.9034  1.2142
  922MOL0     H27178   7.802   1.856   0.747 -1.5971  2.8833  0.3463
  922MOL0     H27179   8.051   1.965   0.864  1.4447  0.4718 -2.3342
  922MOL0     H27180   8.028   1.872   0.720  0.3900 -1.6108  1.2819
  922MOL0     H27181   7.929   2.159   0.777  4.0980  0.7747  0.1790
  922MOL0     H27182   7.861   2.057   0.637  2.3706 -2.3839 -2.0666
  922MOL0     H27183   8.146   2.109   0.667 -1.9004 -2.8931  3.3147
  922MOL0     H27184   8.059   2.039   0.528  1.5534 -1.0915  0.4110
  922MOL0     H27185   7.891   2.189   0.388 -2.2810  1.6524  1.0478
  922MOL0     H27186   7.748   2.518   0.399 -1.7465 -1.1783 -0.9569
  922MOL0     H27187   7.751   2.381   0.303 -1.3018  1.8497 -0.5922
  922MOL0     H27188   7.982   2.582   0.298  0.5807 -1.1296 -1.0588
  922MOL0     H27189   7.968   2.451   0.193  0.4772 -0.5202  0.0553
  922MOL0     H27190   7.760   2.689   0.202 -0.2217  1.0674 -1.7770
  922MOL0     H27191   7.888   2.672   0.098  0.5893 -0.1691  0.3554
  922MOL0     H27192   7.806   2.444   0.020 -1.5711  0.0972  0.7515
  922MOL0     H27193   7.655   2.480   0.098 -3.1166  2.2429 -3.3477
  922MOL0     H27194   7.590   2.378  -0.104 -0.3494 -0.3370 -0.4735
  922MOL0     H27195   7.286   2.316  -0.217 -0.3310 -0.5580  0.6065
  922MOL0     H27196   7.437   2.234  -0.209 -0.2038 -0.9451 -1.4755
  922MOL0     H27197   7.380   2.285  -0.373 -0.4608  0.2638  0.1172
  922MOL0     H27198   7.279   2.636  -0.717 -0.8360 -3.2097 -1.5276
  922MOL0     H27199   7.111   2.622  -0.890  1.9505  0.2200  0.4625
  922MOL0     H27200   6.940   2.675  -1.033  0.5498 -2.5651 -2.5793
  922MOL0     H27201   6.906   2.519  -0.981 -0.1419  0.2528 -0.5846
  922MOL0     H27202   6.651   2.622  -0.995  0.7937 -1.6652  1.4231
  922MOL0     H27203   6.732   2.713  -1.128 -0.6587 -0.7024 -1.5295
  922MOL0     H27204   6.765   2.424  -1.116 -2.7693 -0.5431 -0.8235
  922MOL0     H27205   6.786   2.539  -1.242 -0.7236  1.0526 -0.2561
  922MOL0     H27206   6.561   2.566  -1.286  0.6037  1.8045  0.2847
  922MOL0     H27207   6.511   2.490  -1.136 -0.0883  0.0182 -1.2896
  922MOL0     H27208   6.639   2.343  -1.379  2.3635 -0.2547  1.3876
  922MOL0     H27209   6.584   2.258  -1.237  0.5814 -1.5268 -1.7486
  922MOL0     H27210   6.390   2.428  -1.411 -0.7635 -0.9830 -0.1758
  922MOL0     H27211   6.353   2.338  -1.255 -0.4271 -1.3596  1.7841
  922MOL0     H27212   6.417   2.136  -1.353  3.2919  0.7307  1.4355
  922MOL0     H27213   6.460   2.214  -1.506 -1.2361 -0.1193  0.2513
  922MOL0     H27214   6.184   2.177  -1.378 -0.1779 -1.6788 -0.1677
  922MOL0     H27215   6.247   2.106  -1.518  3.5098 -0.2607  1.0153
  922MOL0     H27216   6.810   2.725  -0.598 -0.0924 -2.7788 -0.5315
  922MOL0     H27217   6.972   2.736  -0.439 -2.7240 -1.8284 -2.4329
  922MOL0     H27218   7.419   2.779  -0.331 -4.0863 -1.1522 -0.0084
  922MOL0     H27219   7.592   2.806  -0.170  1.2584 -0.2177  0.6333
  922MOL0     H27220   7.352   1.514   0.854 -1.1836 -0.6820 -1.0215
  922MOL0     H27221   7.133   1.378   0.903  0.8629  0.4594  0.1773
  922MOL0     H27222   7.014   1.065   1.185  0.2256  0.4844 -0.5277
  922MOL0     H27223   6.854   0.952   1.305  0.9904  0.9140 -1.0758
  922MOL0     H27224   6.573   0.658   1.069  0.3944 -2.6093 -1.9241
  922MOL0     H27225   6.693   0.560   1.146  1.1301  2.0749 -2.0296
  922MOL0     H27226   6.457   0.699   1.299 -1.4117 -1.7639  0.3224
  922MOL0     H27227   6.583   0.600   1.366  0.8541 -1.7212 -0.4775
  922MOL0     H27228   6.348   0.477   1.314  0.0776  1.3473  0.6774
  922MOL0     H27229   6.372   0.535   1.153  1.4215  1.9171 -0.2776
  922MOL0     H27230   6.533   0.364   1.091  1.7445 -3.1279  0.9010
  922MOL0     H27231   6.414   0.295   1.195 -0.3887 -0.2325 -3.9836
  922MOL0     H27232   6.763   0.193   1.402 -0.9199 -0.8272  1.1886
  922MOL0     H27233   6.775   0.692   0.966 -0.5316 -1.9782  2.6921
  922MOL0     H27234   7.066   0.753   0.806  0.9983  2.1713  0.4002
  922MOL0     H27235   6.893   0.718   0.763 -1.4537  1.7566 -1.1890
  922MOL0     H27236   6.951   0.867   0.718  0.7303 -0.0967  0.4805
  923MOL0     O27237   9.247   2.248  10.389 -0.2771 -0.0763 -0.6739
  923MOL0     C27238   9.203   2.149  10.447 -0.4532  0.0858 -0.1052
  923MOL0     O27239   9.234   2.117  10.579 -0.1633  0.6056  0.2410
  923MOL0     C27240   9.364   2.086  10.596 -0.5152  0.2184 -0.2977
  923MOL0     C27241   9.453   2.046  10.504  0.4286  0.3120  0.1599
  923MOL0     C27242   9.587   2.033  10.532 -0.1594 -0.0602  1.8329
  923MOL0     C27243   9.638   2.056  10.654 -0.2358 -0.1511 -1.1917
  923MOL0     O27244   9.775   2.061  10.672  0.3821  0.1218  0.2899
  923MOL0     C27245   9.836   2.068  10.802 -0.2032  0.5724 -0.4311
  923MOL0     C27246   9.985   2.106  10.797 -0.1465 -0.3515 -0.4736
  923MOL0     C27247  10.008   2.212  10.700  0.0595  0.4441  0.5698
  923MOL0     C27248  10.129   2.304  10.746 -0.1096  1.0123  0.0270
  923MOL0     C27249  10.253   2.241  10.683 -0.0679  0.1419  0.4433
  923MOL0     C27250  10.380   2.312  10.721 -0.0039 -0.5704 -0.7171
  923MOL0     C27251  10.497   2.280  10.616 -0.3029 -0.5820 -0.6434
  923MOL0     C27252  10.521   2.142  10.576  0.1555  1.4696 -0.2621
  923MOL0     N27253  10.588   2.082  10.692 -0.3031 -0.4483 -0.4902
  923MOL0     C27254  10.719   2.058  10.687 -0.6688 -0.8755 -0.3133
  923MOL0     C27255  10.744   1.997  10.805 -1.4688 -0.7783  0.4976
  923MOL0     C27256  10.885   1.944  10.845 -0.7551  1.3001  0.2047
  923MOL0     C27257  10.878   1.792  10.888  0.8478 -0.4876 -0.1945
  923MOL0     C27258  11.015   1.746  10.945  0.0652 -0.5071 -0.0088
  923MOL0     C27259  11.036   1.788  11.091  0.6184 -0.3957  0.2628
  923MOL0     O27260  11.132   1.700  11.144 -0.6277  0.0830  0.2292
  923MOL0     C27261  11.237   1.743  11.226  0.3011  0.2143 -0.4874
  923MOL0     C27262  11.220   1.857  11.308 -0.0205  0.5219  0.8228
  923MOL0     C27263  11.314   1.894  11.408 -0.5278 -0.5283 -0.9874
  923MOL0     C27264  11.309   2.031  11.471 -0.8037  0.2033  0.8223
  923MOL0     C27265  11.425   1.809  11.431  0.5264  0.7081 -0.5004
  923MOL0     C27266  11.527   1.831  11.534 -0.5280 -0.2279  0.2595
  923MOL0     O27267  11.657   1.772  11.512 -1.0340  1.1588  0.0667
  923MOL0     C27268  11.753   1.775  11.609  0.0207 -0.0868  0.2560
  923MOL0     C27269  11.739   1.748  11.748  0.6030  0.2637 -0.3026
  923MOL0     C27270  11.848   1.752  11.838 -0.2576 -0.4588  0.0116
  923MOL0     C27271  11.972   1.795  11.790 -0.5403 -0.3787  0.4461
  923MOL0     O27272  12.089   1.813  11.861 -0.0854  0.7238  0.1091
  923MOL0     C27273  12.089   1.769  11.995  0.0264 -0.8790  0.7124
  923MOL0     C27274  12.228   1.762  12.056 -0.5662  0.2048  0.1100
  923MOL0     C27275  12.292   1.906  12.047  1.0126  0.2600  0.6004
  923MOL0     C27276  12.426   1.918  12.111 -0.3164 -0.2339  0.0675
  923MOL0     C27277  12.494   2.053  12.101  0.7544 -0.8516  0.0576
  923MOL0     C27278  12.562   2.070  11.969 -0.3965  0.1518  0.9438
  923MOL0     C27279  12.617   2.220  11.962  0.0293  0.2609 -0.0531
  923MOL0     C27280  12.703   2.251  11.836  0.0185  0.4036  0.6980
  923MOL0    Cl27281  12.854   2.168  11.841  0.2445  0.2940 -0.5111
  923MOL0     C27282  11.988   1.818  11.655  0.1696 -0.0189 -0.7674
  923MOL0     C27283  11.881   1.805  11.564  0.2309  0.1090 -0.2459
  923MOL0     O27284  11.493   1.879  11.638  0.2857  0.3365 -0.0830
  923MOL0     C27285  11.446   1.692  11.352 -0.7592 -1.0601  0.1829
  923MOL0     C27286  11.356   1.659  11.243  0.4118 -0.1848 -0.5029
  923MOL0     N27287  10.629   1.998  10.877  0.3166  0.0067  1.0363
  923MOL0     N27288  10.533   2.052  10.809 -0.3113 -0.0682 -1.0526
  923MOL0     C27289   9.552   2.062  10.769  0.1007  0.7758  0.7071
  923MOL0     C27290   9.408   2.074  10.738 -0.1335  0.8631  0.3508
  923MOL0     C27291   9.079   2.093  10.391  0.3655 -0.0187  0.6532
  923MOL0     C27292   9.008   2.174  10.293  0.3842  0.5082  0.4060
  923MOL0     C27293   8.876   2.138  10.248  0.1003  0.3966 -0.4325
  923MOL0     C27294   8.811   2.020  10.295 -0.3852  0.1605  0.2246
  923MOL0     O27295   8.682   2.000  10.250  0.5021 -0.0657 -0.1843
  923MOL0     C27296   8.598   1.923  10.336  0.0508  0.7606 -0.3234
  923MOL0     C27297   8.455   1.913  10.277 -0.9226 -1.1185  0.4158
  923MOL0     C27298   8.338   1.889  10.381 -0.1339 -0.1425  1.0782
  923MOL0     C27299   8.195   1.920  10.322  0.7190 -0.5815 -0.3301
  923MOL0     C27300   8.155   1.794  10.249 -0.3725  0.0638  0.3009
  923MOL0     C27301   8.125   1.680  10.212 -0.2346  0.5295  0.6079
  923MOL0     C27302   8.895   1.939  10.369  0.2562 -0.7700  0.3897
  923MOL0     C27303   9.020   1.971  10.418  0.1493  0.1623 -0.0571
  923MOL0     C27304   9.092   1.865  10.503  0.6452  0.0522  0.0492
  923MOL0     H27305   9.420   2.033  10.402 -0.5005  0.6125  0.4095
  923MOL0     H27306   9.664   2.027  10.456  0.9989  0.3323  2.9328
  923MOL0     H27307   9.834   1.977  10.863 -0.8112  0.8039 -0.0897
  923MOL0     H27308   9.778   2.148  10.851  0.1041  0.0697  0.7832
  923MOL0     H27309   9.993   2.149  10.897 -0.3796 -4.3235  1.4529
  923MOL0     H27310  10.057   2.023  10.792 -1.6405 -1.7919  0.5459
  923MOL0     H27311  10.022   2.169  10.600  0.5557  1.2916  0.2687
  923MOL0     H27312   9.918   2.273  10.705 -0.4356  0.4444 -3.9695
  923MOL0     H27313  10.111   2.405  10.707  1.8937  1.1600 -0.6466
  923MOL0     H27314  10.145   2.302  10.854 -0.1764  0.8389  0.0328
  923MOL0     H27315  10.238   2.238  10.575 -1.8248 -2.5520  0.6642
  923MOL0     H27316  10.281   2.139  10.713  1.0501  0.6194  1.1050
  923MOL0     H27317  10.355   2.419  10.720  1.7728 -0.0584  1.5502
  923MOL0     H27318  10.410   2.292  10.824  0.6180 -3.3875 -1.3652
  923MOL0     H27319  10.595   2.327  10.630 -1.1130  1.4016 -1.2684
  923MOL0     H27320  10.458   2.321  10.522 -3.1551 -2.3918 -0.3501
  923MOL0     H27321  10.426   2.098  10.546  0.4985  0.2108  0.4218
  923MOL0     H27322  10.580   2.139  10.484 -2.5873 -0.3170 -2.1366
  923MOL0     H27323  10.790   2.076  10.607 -1.7479 -0.2091 -1.1451
  923MOL0     H27324  10.936   1.997  10.926  1.8395  1.4721 -1.4192
  923MOL0     H27325  10.939   1.949  10.750 -0.8441 -0.3811  0.0435
  923MOL0     H27326  10.802   1.787  10.966  1.0759  2.2445  0.3077
  923MOL0     H27327  10.855   1.726  10.803 -1.7482 -1.4257  1.1380
  923MOL0     H27328  11.023   1.637  10.947  2.5799 -0.3582  2.2667
  923MOL0     H27329  11.095   1.781  10.879  1.6191 -2.7019  0.5978
  923MOL0     H27330  11.064   1.894  11.089  1.1124 -0.5238 -1.5344
  923MOL0     H27331  10.948   1.758  11.148  0.4757 -2.2500 -0.8382
  923MOL0     H27332  11.137   1.926  11.294  2.2775  3.3056  0.0659
  923MOL0     H27333  11.257   2.102  11.407  1.8399  2.2281  0.7719
  923MOL0     H27334  11.403   2.082  11.492 -1.1113  1.4315 -0.6233
  923MOL0     H27335  11.259   1.999  11.563 -1.3054  0.0380  0.4994
  923MOL0     H27336  11.636   1.733  11.778  0.2091  0.8984 -1.3033
  923MOL0     H27337  11.833   1.735  11.944  1.1193  0.7662  0.4399
  923MOL0     H27338  12.023   1.838  12.049 -1.1115 -1.6731  0.3657
  923MOL0     H27339  12.057   1.666  12.009 -2.9663  0.0796  1.7053
  923MOL0     H27340  12.196   1.738  12.158 -1.4835 -0.6393 -0.3557
  923MOL0     H27341  12.298   1.687  12.017 -0.7248  0.8048 -1.3807
  923MOL0     H27342  12.219   1.974  12.091  0.7863  0.4740 -0.0909
  923MOL0     H27343  12.302   1.934  11.942  1.7655  0.5267  0.7377
  923MOL0     H27344  12.499   1.849  12.067 -0.7739 -0.2776 -0.6510
  923MOL0     H27345  12.413   1.896  12.218 -1.2302 -0.7351 -0.1337
  923MOL0     H27346  12.423   2.136  12.114  0.4717 -0.7800 -1.6664
  923MOL0     H27347  12.575   2.065  12.174  2.8990  0.8401 -2.4027
  923MOL0     H27348  12.487   2.073  11.889 -1.7311  4.4121  2.0676
  923MOL0     H27349  12.642   2.000  11.944  1.7217  2.7567 -0.0172
  923MOL0     H27350  12.682   2.234  12.049 -0.2776 -0.6445  0.3371
  923MOL0     H27351  12.541   2.299  11.961 -0.4905 -0.2207 -1.5901
  923MOL0     H27352  12.736   2.354  11.823  0.4598  0.2394  0.5064
  923MOL0     H27353  12.643   2.216  11.752  2.1520 -0.4258 -0.5423
  923MOL0     H27354  12.088   1.841  11.619  1.0011 -1.2961  0.5996
  923MOL0     H27355  11.887   1.829  11.458 -2.7037 -2.8535 -1.2720
  923MOL0     H27356  11.527   1.627  11.383  1.9253  1.0028 -2.0224
  923MOL0     H27357  11.361   1.560  11.198 -3.8931 -0.5991 -0.4645
  923MOL0     H27358   9.583   2.055  10.873  1.5916 -2.5293  0.1890
  923MOL0     H27359   9.328   2.090  10.809 -1.1376  1.8601 -0.9455
  923MOL0     H27360   9.064   2.257  10.248  0.4663  1.5358  2.3142
  923MOL0     H27361   8.818   2.207  10.186 -1.3442 -1.8938 -1.7743
  923MOL0     H27362   8.636   1.821  10.350  0.9731  0.8885 -1.7171
  923MOL0     H27363   8.592   1.965  10.437  0.8593 -0.6766  0.3530
  923MOL0     H27364   8.446   1.831  10.205  0.9724 -2.5260  1.7197
  923MOL0     H27365   8.424   2.009  10.233 -1.0900 -2.2793 -2.1854
  923MOL0     H27366   8.331   1.785  10.414 -1.9337  0.0180  1.3313
  923MOL0     H27367   8.360   1.950  10.469  1.2612 -0.1038  0.7198
  923MOL0     H27368   8.185   2.008  10.258 -1.2913 -0.3796  0.1934
  923MOL0     H27369   8.122   1.944  10.400  1.1367 -2.0664  0.5543
  923MOL0     H27370   8.090   1.590  10.168  2.9197 -0.9073  0.7736
  923MOL0     H27371   8.849   1.842  10.387 -1.1766 -0.5831 -1.8641
  923MOL0     H27372   9.074   1.885  10.609  0.7373  3.3056 -0.4344
  923MOL0     H27373   9.064   1.765  10.468  0.3699 -0.2321  1.0728
  923MOL0     H27374   9.200   1.870  10.490  0.8975  2.0321  2.2642
  924MOL0     O27375  11.009  10.601   6.017  0.7161  0.2143 -0.5656
  924MOL0     C27376  10.964  10.510   6.081 -0.5782 -0.9478 -0.0616
  924MOL0     O27377  10.960  10.499   6.223 -0.0738 -0.3280 -0.1576
  924MOL0     C27378  11.047  10.570   6.305  0.1610 -0.4633 -0.2893
  924MOL0     C27379  11.149  10.654   6.265  0.2018  0.0245  0.1155
  924MOL0     C27380  11.244  10.711   6.352  0.1880  0.4352 -1.1934
  924MOL0     C27381  11.244  10.679   6.488 -0.6591  0.1297 -0.6282
  924MOL0     O27382  11.356  10.720   6.559  0.6508 -0.2152  0.5180
  924MOL0     C27383  11.363  10.666   6.687  0.9692 -0.1491 -0.3352
  924MOL0     C27384  11.484  10.716   6.770 -0.4390  0.0548  0.5156
  924MOL0     C27385  11.616  10.696   6.685 -0.5309 -0.4508 -1.3585
  924MOL0     C27386  11.727  10.740   6.786 -0.1900 -0.5668  0.0569
  924MOL0     C27387  11.841  10.753   6.693 -0.0745 -0.8828 -0.0772
  924MOL0     C27388  11.943  10.844   6.763 -0.7642 -0.2811  0.8135
  924MOL0     C27389  12.092  10.818   6.713  0.2480 -0.5077  0.6459
  924MOL0     C27390  12.203  10.918   6.768 -0.1706  0.4232 -0.4061
  924MOL0     N27391  12.346  10.878   6.743  1.0705 -0.1648  0.2984
  924MOL0     C27392  12.456  10.877   6.820  0.1322  1.0040  0.4175
  924MOL0     C27393  12.558  10.830   6.744 -0.0599  0.4036  0.0979
  924MOL0     C27394  12.691  10.808   6.809 -0.5634 -0.7791  0.1777
  924MOL0     C27395  12.794  10.907   6.750  0.0750  0.2863 -0.7220
  924MOL0     C27396  12.733  11.045   6.738  0.2983  0.5253  0.0187
  924MOL0     C27397  12.823  11.164   6.711 -0.3433  0.7921  0.2348
  924MOL0     O27398  12.933  11.156   6.809 -0.2521 -0.1439 -0.6049
  924MOL0     C27399  13.027  11.259   6.801 -0.0129  0.2722 -0.5911
  924MOL0     C27400  13.015  11.374   6.731  0.0584 -0.8580 -0.9791
  924MOL0     C27401  13.113  11.481   6.723  0.0475  0.2602  0.7361
  924MOL0     C27402  13.078  11.596   6.636  1.0424 -1.1111  0.9135
  924MOL0     C27403  13.219  11.474   6.818 -0.0467 -0.9044 -0.1908
  924MOL0     C27404  13.347  11.564   6.820  0.0788 -0.0526 -0.6952
  924MOL0     O27405  13.403  11.582   6.938  0.3787  0.2151 -0.3212
  924MOL0     C27406  13.516  11.657   6.968  1.4859 -0.0897  0.1714
  924MOL0     C27407  13.632  11.610   6.918 -0.3215  0.1420 -0.9983
  924MOL0     C27408  13.745  11.687   6.949 -0.2423 -1.0034  0.9551
  924MOL0     C27409  13.753  11.808   7.011 -1.3655 -0.5321  0.1960
  924MOL0     O27410  13.875  11.874   7.025 -0.0069  0.3762  0.4832
  924MOL0     C27411  13.883  11.999   7.082  0.1255  0.5127 -0.3595
  924MOL0     C27412  14.029  12.029   7.125  1.0639 -0.2851 -0.9810
  924MOL0     C27413  14.073  11.928   7.238 -0.5126  0.1681 -0.4222
  924MOL0     C27414  14.222  11.952   7.277  1.0233  0.5367 -0.4821
  924MOL0     C27415  14.253  11.854   7.390  0.2768 -0.3616 -0.5067
  924MOL0     C27416  14.396  11.801   7.407 -0.3616  0.1000 -0.1883
  924MOL0     C27417  14.456  11.763   7.276  0.4165  0.0852  0.2908
  924MOL0     C27418  14.571  11.663   7.294  0.2192 -0.6736  0.0581
  924MOL0    Cl27419  14.592  11.599   7.134  0.0868 -0.1344 -0.1248
  924MOL0     C27420  13.634  11.862   7.056  0.9494 -0.4970  0.1450
  924MOL0     C27421  13.509  11.785   7.035 -0.0717  0.0950  0.5856
  924MOL0     O27422  13.372  11.638   6.726 -0.6006  0.1896 -0.2032
  924MOL0     C27423  13.236  11.354   6.890 -0.4603 -0.8989 -0.4483
  924MOL0     C27424  13.145  11.245   6.881  0.5246  0.2144  0.9396
  924MOL0     N27425  12.511  10.805   6.616 -0.0480  1.0728  0.0383
  924MOL0     N27426  12.385  10.841   6.616 -0.8016  0.1183  0.5765
  924MOL0     C27427  11.139  10.593   6.535 -0.2953 -0.7096  0.5420
  924MOL0     C27428  11.041  10.547   6.444 -0.5917 -0.1681 -0.2670
  924MOL0     C27429  10.914  10.392   6.009 -0.2639  0.7528 -0.3820
  924MOL0     C27430  10.929  10.268   6.066 -0.2207 -0.0958  0.8015
  924MOL0     C27431  10.872  10.149   6.005 -0.2565  0.2972 -0.5177
  924MOL0     C27432  10.801  10.162   5.879 -0.4328  0.0391  0.4366
  924MOL0     O27433  10.742  10.054   5.835  0.5101  0.5400 -0.2424
  924MOL0     C27434  10.704  10.037   5.701  0.4174  0.0589 -0.8941
  924MOL0     C27435  10.682   9.896   5.669 -0.1529  0.5213  0.0741
  924MOL0     C27436  10.552   9.845   5.721  0.3258  0.6292 -0.3751
  924MOL0     C27437  10.543   9.695   5.701  0.4461 -0.0990  0.1616
  924MOL0     C27438  10.411   9.647   5.741  0.2735  0.1496  0.2265
  924MOL0     C27439  10.297   9.619   5.773 -0.1573 -0.9603  0.2106
  924MOL0     C27440  10.783  10.297   5.826 -0.5222 -0.0339 -0.0720
  924MOL0     C27441  10.842  10.410   5.887 -0.0420  0.7966 -0.6556
  924MOL0     C27442  10.795  10.543   5.850  1.3651 -0.0917 -0.2783
  924MOL0     H27443  11.161  10.678   6.160 -1.4810  0.7396  0.0552
  924MOL0     H27444  11.311  10.786   6.312  1.2426  0.0654 -0.1558
  924MOL0     H27445  11.364  10.557   6.691  0.8433 -0.2016 -1.5499
  924MOL0     H27446  11.276  10.692   6.750 -0.2478 -3.6350 -0.3404
  924MOL0     H27447  11.478  10.821   6.803  1.6092  0.0201  1.1536
  924MOL0     H27448  11.487  10.651   6.858  1.9675 -1.3303 -0.4871
  924MOL0     H27449  11.627  10.595   6.646  1.8698 -0.9811  0.4466
  924MOL0     H27450  11.599  10.775   6.611 -1.4814 -0.3858 -1.0785
  924MOL0     H27451  11.702  10.834   6.837  0.4011 -0.6503  0.5203
  924MOL0     H27452  11.754  10.661   6.858  1.5670 -1.2810 -1.3184
  924MOL0     H27453  11.819  10.798   6.596  3.5406  1.0433 -0.1774
  924MOL0     H27454  11.888  10.657   6.668  0.4917 -0.9671  1.2365
  924MOL0     H27455  11.923  10.951   6.746  1.1328 -0.0585 -0.3597
  924MOL0     H27456  11.932  10.822   6.870 -2.5556 -0.7464  0.5667
  924MOL0     H27457  12.096  10.835   6.605  3.5833 -0.5601  0.6732
  924MOL0     H27458  12.112  10.715   6.741  0.3552 -0.7703 -0.3868
  924MOL0     H27459  12.191  11.020   6.731  2.2358  1.0075  0.2517
  924MOL0     H27460  12.195  10.926   6.877  2.5338 -1.7333  0.0659
  924MOL0     H27461  12.448  10.902   6.926 -0.5671  1.4555  0.2617
  924MOL0     H27462  12.739  10.711   6.791  0.4132 -0.9727  3.2300
  924MOL0     H27463  12.692  10.831   6.916  1.4568 -0.1657  0.0797
  924MOL0     H27464  12.877  10.909   6.821 -3.4754 -1.2631  3.9441
  924MOL0     H27465  12.824  10.873   6.650 -0.3925 -0.7879 -0.5109
  924MOL0     H27466  12.649  11.036   6.668 -0.3681  0.6407  0.7788
  924MOL0     H27467  12.693  11.071   6.837  3.5350  1.5165  1.2067
  924MOL0     H27468  12.869  11.155   6.612  0.3461 -1.2262  0.6841
  924MOL0     H27469  12.761  11.253   6.715 -2.1365 -0.4605  2.2119
  924MOL0     H27470  12.927  11.396   6.671  0.0066 -1.2564 -1.0470
  924MOL0     H27471  13.158  11.662   6.601 -1.9170  2.4094  0.0563
  924MOL0     H27472  13.022  11.662   6.704  0.2365  0.0494 -0.8230
  924MOL0     H27473  13.026  11.548   6.553  4.1163 -1.1173 -1.1499
  924MOL0     H27474  13.635  11.512   6.871  3.1783 -2.4882  3.8708
  924MOL0     H27475  13.836  11.635   6.920 -1.2712 -2.7744  0.7780
  924MOL0     H27476  13.870  12.073   7.003  1.0529 -0.7502 -1.7634
  924MOL0     H27477  13.825  12.014   7.174  0.2455  2.1055 -0.5201
  924MOL0     H27478  14.088  12.030   7.033 -0.4623  3.1091 -2.0707
  924MOL0     H27479  14.026  12.131   7.164 -1.1889 -0.7025  0.0895
  924MOL0     H27480  14.058  11.826   7.203 -2.2189  1.0670 -2.4871
  924MOL0     H27481  14.020  11.937   7.333  2.6057 -0.0422  1.4790
  924MOL0     H27482  14.248  12.055   7.304 -1.6875  1.0608  0.4116
  924MOL0     H27483  14.277  11.928   7.185  1.9954  1.0795 -0.0563
  924MOL0     H27484  14.205  11.897   7.478  0.8776 -0.2826 -0.2059
  924MOL0     H27485  14.201  11.760   7.373  0.3151 -1.3578  3.7579
  924MOL0     H27486  14.388  11.711   7.469  0.4862  0.7381  0.8627
  924MOL0     H27487  14.456  11.869   7.467 -0.3433 -0.0920  0.0138
  924MOL0     H27488  14.491  11.854   7.225  0.0688 -0.1328 -0.3532
  924MOL0     H27489  14.380  11.717   7.212 -1.4078  1.7851  1.1205
  924MOL0     H27490  14.549  11.589   7.372 -0.5226  2.8333  3.5161
  924MOL0     H27491  14.660  11.722   7.320  0.4276 -0.3452 -1.3552
  924MOL0     H27492  13.628  11.959   7.104 -2.6387 -2.1433  3.6977
  924MOL0     H27493  13.424  11.824   7.091 -1.1169  1.0050 -1.5092
  924MOL0     H27494  13.320  11.347   6.958  2.0825 -1.9768 -3.5149
  924MOL0     H27495  13.162  11.151   6.932 -3.3084 -0.1005  1.9763
  924MOL0     H27496  11.131  10.558   6.637 -0.0909  0.7113  1.0636
  924MOL0     H27497  10.956  10.488   6.479 -0.9802  1.4630  1.7506
  924MOL0     H27498  10.976  10.254   6.162  0.8417  2.8770  0.8372
  924MOL0     H27499  10.882  10.053   6.056 -0.7173  1.1426  1.2350
  924MOL0     H27500  10.609  10.088   5.686 -2.4616 -3.8280  2.0522
  924MOL0     H27501  10.784  10.085   5.644 -0.5478  0.4616 -1.9396
  924MOL0     H27502  10.771   9.836   5.692 -0.7774 -0.5244 -0.1395
  924MOL0     H27503  10.667   9.881   5.562 -4.7605  1.1268  0.4121
  924MOL0     H27504  10.554   9.868   5.828  2.9620  2.7900 -0.7885
  924MOL0     H27505  10.473   9.901   5.670  0.0124  1.6485  1.1507
  924MOL0     H27506  10.624   9.639   5.749  0.3471  0.9440  1.5882
  924MOL0     H27507  10.544   9.676   5.593 -0.4253 -0.2777  0.1754
  924MOL0     H27508  10.193   9.608   5.795  0.4885  0.1252  4.8260
  924MOL0     H27509  10.735  10.308   5.730  1.1919  1.7624 -0.8002
  924MOL0     H27510  10.877  10.606   5.816 -0.3049  1.9996 -0.6415
  924MOL0     H27511  10.710  10.537   5.781  1.1956 -0.8212 -0.0116
  924MOL0     H27512  10.756  10.594   5.938  0.1265  1.3195 -1.5805
  925MOL0     O27513  11.195   2.091   9.827 -0.7052  0.4248 -0.5120
  925MOL0     C27514  11.186   2.202   9.783 -1.0904 -1.1067  0.4883
  925MOL0     O27515  11.268   2.310   9.812  0.2951 -0.2720 -0.5880
  925MOL0     C27516  11.356   2.279   9.911 -0.5013  0.0835  0.5720
  925MOL0     C27517  11.483   2.227   9.880 -0.2888  0.1050  0.1673
  925MOL0     C27518  11.570   2.185   9.986  0.4034  1.0346  0.4491
  925MOL0     C27519  11.527   2.184  10.115 -0.9010  0.1606 -0.0643
  925MOL0     O27520  11.603   2.170  10.223 -0.0858  0.0437  0.7431
  925MOL0     C27521  11.718   2.083  10.226  0.0854  0.9917  0.1247
  925MOL0     C27522  11.757   2.072  10.370 -0.5157  0.4256  0.7314
  925MOL0     C27523  11.808   2.203  10.436  0.1728  0.5755 -0.5957
  925MOL0     C27524  11.847   2.173  10.589 -0.1268 -1.0510 -0.3768
  925MOL0     C27525  11.831   2.287  10.688 -0.0707 -0.3378  0.1244
  925MOL0     C27526  11.885   2.424  10.652  0.4261  0.0098  0.3125
  925MOL0     C27527  11.892   2.511  10.772 -0.5409 -1.0307  0.5966
  925MOL0     C27528  11.908   2.666  10.752  0.1212 -0.7547 -0.3507
  925MOL0     N27529  11.919   2.738  10.885  0.8561  0.4993  0.4016
  925MOL0     C27530  12.036   2.758  10.952  0.2693 -0.3829  0.9848
  925MOL0     C27531  12.012   2.835  11.054  0.0125  0.3762 -0.2953
  925MOL0     C27532  12.099   2.904  11.142 -0.1041 -0.1741  0.4017
  925MOL0     C27533  12.236   2.954  11.094 -0.1753  0.3093 -0.9517
  925MOL0     C27534  12.315   2.993  11.213 -0.9453 -0.4298 -0.0632
  925MOL0     C27535  12.423   2.880  11.246  0.0007 -0.5470  0.8332
  925MOL0     O27536  12.469   2.892  11.382 -0.7948 -0.6662 -0.4765
  925MOL0     C27537  12.556   2.998  11.409 -0.4050  0.9276 -0.7231
  925MOL0     C27538  12.632   3.071  11.317  0.3393  0.0613  1.3295
  925MOL0     C27539  12.724   3.174  11.339 -0.9958 -0.3539  0.5898
  925MOL0     C27540  12.793   3.262  11.234  0.0906  0.0362 -0.3239
  925MOL0     C27541  12.747   3.200  11.482 -0.9158 -0.4221  0.0408
  925MOL0     C27542  12.859   3.294  11.529 -0.8947  0.3979  0.1322
  925MOL0     O27543  12.834   3.400  11.614 -0.4312 -0.0928 -0.8895
  925MOL0     C27544  12.952   3.472  11.645  0.4210  0.0904  0.1206
  925MOL0     C27545  12.989   3.574  11.562  0.4534 -0.3914  0.0482
  925MOL0     C27546  13.086   3.661  11.594  0.1569 -1.0622  0.1991
  925MOL0     C27547  13.151   3.647  11.716  0.6059 -0.0257 -0.5776
  925MOL0     O27548  13.240   3.751  11.755 -0.2015 -0.1658  0.0146
  925MOL0     C27549  13.223   3.820  11.879  0.3234  0.3397  0.5344
  925MOL0     C27550  13.198   3.962  11.856  0.9057 -0.4334 -0.3944
  925MOL0     C27551  13.214   4.053  11.983  0.2845  0.1716 -1.0212
  925MOL0     C27552  13.222   4.199  11.920  1.3606 -0.0896  0.0908
  925MOL0     C27553  13.254   4.306  12.022 -0.6269 -0.1993  0.0362
  925MOL0     C27554  13.321   4.431  11.984 -0.3259 -0.5849  0.1641
  925MOL0     C27555  13.316   4.555  12.078 -0.1206 -0.1688  0.1656
  925MOL0     C27556  13.381   4.692  12.035 -0.2455  0.3603 -0.5715
  925MOL0    Cl27557  13.303   4.761  11.891  0.2730  0.1890 -0.1891
  925MOL0     C27558  13.116   3.543  11.808 -0.5697  0.4885  0.7702
  925MOL0     C27559  13.019   3.449  11.762 -0.6625  0.5780 -0.0054
  925MOL0     O27560  12.970   3.267  11.480  0.3509 -0.6757 -0.2312
  925MOL0     C27561  12.673   3.131  11.577 -0.2375  0.1319 -0.1693
  925MOL0     C27562  12.589   3.024  11.545 -0.7209  0.2025  0.7695
  925MOL0     N27563  11.879   2.872  11.041  0.7424 -0.0127  0.2234
  925MOL0     N27564  11.820   2.801  10.956  0.0779  0.6601 -0.4392
  925MOL0     C27565  11.400   2.246  10.140  0.0954 -0.0101  0.0985
  925MOL0     C27566  11.315   2.298  10.039 -0.7768  0.9694 -0.0092
  925MOL0     C27567  11.080   2.220   9.687  0.0121  0.3718 -0.2320
  925MOL0     C27568  10.961   2.288   9.733  0.0597  1.3879  0.0031
  925MOL0     C27569  10.866   2.320   9.627  0.1932  0.4262  0.2967
  925MOL0     C27570  10.881   2.273   9.492 -0.0992 -0.6197  0.1365
  925MOL0     O27571  10.783   2.302   9.402  0.6721  0.0050  0.3997
  925MOL0     C27572  10.745   2.187   9.326 -0.8703 -0.1206  0.1028
  925MOL0     C27573  10.601   2.208   9.274 -0.0596 -0.9432  0.0210
  925MOL0     C27574  10.601   2.310   9.163  0.5380  0.9240  0.6131
  925MOL0     C27575  10.466   2.307   9.080 -0.6906  0.0823 -0.6775
  925MOL0     C27576  10.478   2.248   8.950  0.1707  0.1289  0.8472
  925MOL0     C27577  10.510   2.190   8.851 -0.3040  0.8973 -0.3258
  925MOL0     C27578  10.988   2.200   9.461  0.4226  0.1748  0.6703
  925MOL0     C27579  11.088   2.178   9.557 -0.1109  0.0199  0.0127
  925MOL0     C27580  11.208   2.100   9.505  0.4225  0.2644  0.3955
  925MOL0     H27581  11.526   2.228   9.780  1.5540 -1.7182  0.8486
  925MOL0     H27582  11.669   2.156   9.954  0.5359  3.6519 -1.9632
  925MOL0     H27583  11.799   2.128  10.168  0.1238  3.1222  1.6891
  925MOL0     H27584  11.682   1.987  10.188  0.3421  0.5490  0.9794
  925MOL0     H27585  11.661   2.040  10.410 -0.6003 -0.1015  0.1205
  925MOL0     H27586  11.830   1.990  10.377 -3.2230 -2.3097 -0.6689
  925MOL0     H27587  11.902   2.237  10.391  1.3764  1.1019  2.1138
  925MOL0     H27588  11.728   2.277  10.423 -1.5943 -1.3676 -1.3929
  925MOL0     H27589  11.787   2.088  10.623 -1.3152 -0.5602 -1.1958
  925MOL0     H27590  11.944   2.123  10.599 -0.2606 -0.8370  3.0201
  925MOL0     H27591  11.876   2.256  10.783  2.4414 -0.9469 -1.1918
  925MOL0     H27592  11.723   2.300  10.701 -0.1795  1.0588 -1.8484
  925MOL0     H27593  11.981   2.395  10.608 -0.6371 -1.5428 -1.1248
  925MOL0     H27594  11.835   2.472  10.568 -1.4542  1.6009  2.2029
  925MOL0     H27595  11.979   2.482  10.831 -1.8223 -0.6585  2.7910
  925MOL0     H27596  11.805   2.491  10.836 -0.1707  0.5504  1.6553
  925MOL0     H27597  11.991   2.692  10.685 -0.8523 -1.5396 -1.9239
  925MOL0     H27598  11.818   2.706  10.706  0.9775  0.8001 -0.7226
  925MOL0     H27599  12.133   2.725  10.917 -0.3040 -0.0029 -1.1216
  925MOL0     H27600  12.129   2.821  11.207 -1.5870  1.3606  3.2567
  925MOL0     H27601  12.057   2.985  11.203 -1.2606  0.3673 -1.0321
  925MOL0     H27602  12.289   2.879  11.034 -1.2618 -1.4431  0.1793
  925MOL0     H27603  12.222   3.045  11.035  3.3433  1.8258  0.3164
  925MOL0     H27604  12.359   3.091  11.196 -0.6626 -0.2330  1.6457
  925MOL0     H27605  12.264   3.000  11.309  0.3996  0.3037  0.6354
  925MOL0     H27606  12.387   2.778  11.225  2.5774 -1.5516  0.9148
  925MOL0     H27607  12.512   2.878  11.181  0.8604 -0.8369  1.9835
  925MOL0     H27608  12.635   3.065  11.208  0.2323  2.0139  1.1780
  925MOL0     H27609  12.883   3.212  11.197  0.1619 -2.0096  2.3003
  925MOL0     H27610  12.823   3.356  11.282 -0.1545 -1.0620  2.1702
  925MOL0     H27611  12.722   3.271  11.152 -1.8821 -2.2829  0.9903
  925MOL0     H27612  12.930   3.586  11.471  1.3291 -3.5078 -1.0901
  925MOL0     H27613  13.105   3.743  11.525 -2.7346 -1.6261 -1.4340
  925MOL0     H27614  13.144   3.779  11.943 -0.8174 -1.8561 -2.0562
  925MOL0     H27615  13.318   3.804  11.931 -0.7649 -2.1749  1.9072
  925MOL0     H27616  13.280   3.999  11.793  1.5710  3.0051  2.1554
  925MOL0     H27617  13.094   3.968  11.824 -0.0453 -0.7914  2.3704
  925MOL0     H27618  13.303   4.020  12.036 -0.5085 -1.0800 -0.4145
  925MOL0     H27619  13.137   4.046  12.061  2.1742 -0.4615  0.8733
  925MOL0     H27620  13.125   4.221  11.874  1.1297  1.6826  1.3354
  925MOL0     H27621  13.303   4.198  11.847  0.5110  1.7481 -0.9585
  925MOL0     H27622  13.154   4.332  12.058 -2.9589 -5.0796 -1.9377
  925MOL0     H27623  13.313   4.262  12.103  0.7099  3.6175  1.3348
  925MOL0     H27624  13.267   4.458  11.892 -2.2966 -2.7085  0.5891
  925MOL0     H27625  13.427   4.414  11.963  0.0908 -0.7067  2.1833
  925MOL0     H27626  13.356   4.513  12.170  0.6029 -0.9372 -0.4777
  925MOL0     H27627  13.219   4.582  12.119 -0.0468  0.0181  0.2172
  925MOL0     H27628  13.482   4.666  12.001  0.4446  1.9883  0.1705
  925MOL0     H27629  13.392   4.755  12.123  1.8302 -0.9115  0.1709
  925MOL0     H27630  13.158   3.533  11.908  3.6438 -1.3437 -0.9602
  925MOL0     H27631  13.012   3.375  11.841 -0.7713 -0.5220 -1.0266
  925MOL0     H27632  12.677   3.150  11.684  1.6938 -1.4019  0.0763
  925MOL0     H27633  12.531   2.968  11.617 -0.5826 -0.7312  0.1744
  925MOL0     H27634  11.340   2.250  10.231  0.9514 -0.7806  0.7095
  925MOL0     H27635  11.226   2.349  10.075 -3.7358 -1.9647 -2.5331
  925MOL0     H27636  10.940   2.308   9.838 -1.9065 -1.0549  0.1734
  925MOL0     H27637  10.784   2.388   9.649 -1.3698 -0.6812 -1.7848
  925MOL0     H27638  10.810   2.172   9.240 -0.5378  1.2932  0.0785
  925MOL0     H27639  10.746   2.098   9.389  0.4962 -0.1967 -0.0119
  925MOL0     H27640  10.548   2.265   9.351  3.7408  2.7963  0.2228
  925MOL0     H27641  10.554   2.113   9.248  0.1433 -1.1551  0.4006
  925MOL0     H27642  10.620   2.407   9.211  3.4712  1.5689 -1.5785
  925MOL0     H27643  10.687   2.303   9.096 -0.4897 -2.2558 -0.5530
  925MOL0     H27644  10.432   2.411   9.083 -0.1986  0.2554 -0.9463
  925MOL0     H27645  10.397   2.246   9.139  0.0158 -2.9757 -2.7906
  925MOL0     H27646  10.519   2.135   8.760 -1.2436  1.5360 -0.8202
  925MOL0     H27647  11.000   2.166   9.359 -4.7138  1.0472 -0.5395
  925MOL0     H27648  11.304   2.140   9.538  2.0491 -2.0220 -1.2535
  925MOL0     H27649  11.196   1.993   9.523  0.1720  0.1102 -0.6106
  925MOL0     H27650  11.214   2.106   9.396 -0.3529 -0.6536  0.2902
  926MOL0     O27651   5.325   7.073   7.779  0.0981  0.6880  0.1775
  926MOL0     C27652   5.362   7.166   7.851 -0.1786 -0.3333  0.3125
  926MOL0     O27653   5.434   7.278   7.813 -0.3489  0.6713  0.3911
  926MOL0     C27654   5.521   7.279   7.707  1.1900  0.2884 -0.4203
  926MOL0     C27655   5.585   7.404   7.687  0.1477 -0.1332  0.5580
  926MOL0     C27656   5.686   7.423   7.588  0.4891 -0.2236 -0.0372
  926MOL0     C27657   5.725   7.322   7.508 -0.4138  0.7136 -0.1448
  926MOL0     O27658   5.833   7.350   7.427  0.8580  0.0725  0.7590
  926MOL0     C27659   5.908   7.239   7.370 -0.4185 -0.2140  0.2620
  926MOL0     C27660   6.002   7.309   7.270  0.1152  1.0432 -0.5338
  926MOL0     C27661   6.126   7.380   7.328  0.0948  0.3976 -0.3453
  926MOL0     C27662   6.218   7.426   7.222  0.1073  0.1616 -0.1589
  926MOL0     C27663   6.344   7.487   7.280  0.1422  1.0872 -0.6081
  926MOL0     C27664   6.444   7.513   7.171 -0.1017  0.0532  0.5992
  926MOL0     C27665   6.582   7.548   7.241  0.3882  0.8488  0.1728
  926MOL0     C27666   6.691   7.576   7.138  0.1601  0.1559 -0.5885
  926MOL0     N27667   6.813   7.631   7.204  0.4379  0.6157 -0.1895
  926MOL0     C27668   6.895   7.547   7.279  0.5702 -0.3410  0.1124
  926MOL0     C27669   7.000   7.631   7.311  0.8651  0.8214  0.0284
  926MOL0     C27670   7.099   7.572   7.413 -0.0842 -0.2047 -0.2054
  926MOL0     C27671   7.218   7.669   7.434  0.1217  0.7865  0.3180
  926MOL0     C27672   7.266   7.653   7.577  0.7352  0.2100 -0.3080
  926MOL0     C27673   7.390   7.734   7.609 -0.1466 -0.4864 -1.1117
  926MOL0     O27674   7.412   7.762   7.749 -0.4262 -0.0642 -0.0692
  926MOL0     C27675   7.418   7.652   7.827  0.1390 -0.4119 -0.3481
  926MOL0     C27676   7.488   7.536   7.797  0.6165  0.0347  0.4041
  926MOL0     C27677   7.498   7.421   7.878  0.1066 -0.3594  1.0470
  926MOL0     C27678   7.557   7.296   7.815  0.0487  1.0373  0.1024
  926MOL0     C27679   7.421   7.424   8.001  1.1136 -0.1985  0.6339
  926MOL0     C27680   7.399   7.312   8.086  0.5235  0.0289  0.1390
  926MOL0     O27681   7.500   7.223   8.070  0.3504  0.5324  0.2171
  926MOL0     C27682   7.496   7.123   8.160 -0.7537  0.6233 -0.5339
  926MOL0     C27683   7.579   7.133   8.271  0.2823  1.3332  0.0694
  926MOL0     C27684   7.594   7.025   8.360 -0.1708 -0.0426 -0.5813
  926MOL0     C27685   7.524   6.901   8.332  1.1804  0.8174  0.2294
  926MOL0     O27686   7.548   6.780   8.398 -0.0112 -0.7318 -0.1810
  926MOL0     C27687   7.587   6.790   8.536 -0.4629 -0.5143  0.7036
  926MOL0     C27688   7.614   6.657   8.605  0.1995 -0.3951 -0.2698
  926MOL0     C27689   7.499   6.583   8.665  0.3612  0.0531 -0.1624
  926MOL0     C27690   7.527   6.432   8.704  0.3127  0.0130  0.5787
  926MOL0     C27691   7.616   6.432   8.834 -0.4546  0.2081  0.4158
  926MOL0     C27692   7.625   6.303   8.912 -0.7785 -0.0094  0.1597
  926MOL0     C27693   7.498   6.280   8.984 -0.0932  0.1651  0.0697
  926MOL0     C27694   7.528   6.157   9.072 -0.3966  0.2022 -0.6258
  926MOL0    Cl27695   7.394   6.135   9.192 -0.5176 -0.0830 -0.2408
  926MOL0     C27696   7.448   6.889   8.210 -0.2713  0.3015  0.0902
  926MOL0     C27697   7.434   7.003   8.125 -0.5157  0.3004 -0.8323
  926MOL0     O27698   7.310   7.315   8.170  1.0381 -0.7179  0.4636
  926MOL0     C27699   7.344   7.539   8.029 -0.2406  0.0613  0.2694
  926MOL0     C27700   7.340   7.653   7.942 -0.4587 -0.8913 -0.0670
  926MOL0     N27701   6.985   7.755   7.248  0.5211 -0.0218 -0.0968
  926MOL0     N27702   6.871   7.750   7.189  0.1023 -0.3240  0.7333
  926MOL0     C27703   5.655   7.200   7.517 -0.0696  0.2752 -1.0013
  926MOL0     C27704   5.554   7.179   7.613  0.3754  0.3330 -0.2256
  926MOL0     C27705   5.317   7.165   7.998 -1.4456 -0.1460  0.8324
  926MOL0     C27706   5.310   7.043   8.068  0.4852 -0.4397 -0.0448
  926MOL0     C27707   5.289   7.036   8.201 -0.7433 -0.2983  0.0416
  926MOL0     C27708   5.279   7.152   8.282 -0.2954 -0.7905 -0.1842
  926MOL0     O27709   5.277   7.136   8.416  0.6306 -0.1788  0.0458
  926MOL0     C27710   5.304   7.247   8.503 -0.5099 -0.4347 -0.0902
  926MOL0     C27711   5.401   7.199   8.617 -0.1662 -0.3980 -0.6981
  926MOL0     C27712   5.348   7.072   8.691 -0.4578  0.2269  0.4630
  926MOL0     C27713   5.449   7.008   8.791 -0.5255 -0.3418 -0.2637
  926MOL0     C27714   5.449   7.072   8.923  0.2795  0.2364  0.5480
  926MOL0     C27715   5.489   7.105   9.032  0.2555  0.5201 -1.0264
  926MOL0     C27716   5.280   7.271   8.214 -0.9359 -0.6490 -0.1005
  926MOL0     C27717   5.289   7.279   8.070 -0.2148  0.6499  0.0992
  926MOL0     C27718   5.269   7.413   8.012 -0.0838  0.1984 -0.0200
  926MOL0     H27719   5.557   7.478   7.761  3.6986  0.6186  1.3125
  926MOL0     H27720   5.724   7.519   7.555 -1.6249  0.7779  0.3209
  926MOL0     H27721   5.850   7.167   7.312 -0.3715 -0.5578  0.6399
  926MOL0     H27722   5.967   7.190   7.447 -0.5847  0.0938  0.5878
  926MOL0     H27723   6.049   7.229   7.212 -0.6629 -1.0620  1.5913
  926MOL0     H27724   5.953   7.369   7.192  0.5690 -0.7031 -2.2466
  926MOL0     H27725   6.083   7.461   7.388 -0.1938 -0.9165  1.2953
  926MOL0     H27726   6.181   7.319   7.400  3.6372  2.3552 -1.1765
  926MOL0     H27727   6.244   7.340   7.160  1.8236 -1.4343  2.5702
  926MOL0     H27728   6.171   7.510   7.170  2.5128  1.3101 -0.6079
  926MOL0     H27729   6.388   7.422   7.357  1.8541  4.1626  1.2332
  926MOL0     H27730   6.319   7.583   7.326  2.3988  1.6596 -0.4834
  926MOL0     H27731   6.462   7.430   7.101  4.5757  0.1705  1.2899
  926MOL0     H27732   6.412   7.606   7.123  1.4944  0.7244  0.7608
  926MOL0     H27733   6.596   7.458   7.303 -2.7035 -0.5593 -0.9453
  926MOL0     H27734   6.582   7.639   7.300 -1.5613  2.5929 -2.3279
  926MOL0     H27735   6.703   7.484   7.080  0.2204 -0.0279 -0.2880
  926MOL0     H27736   6.647   7.658   7.080 -1.8106 -1.0128 -0.8357
  926MOL0     H27737   6.872   7.443   7.300  2.1407 -0.3209  2.3015
  926MOL0     H27738   7.139   7.478   7.375 -1.2559 -0.6291 -0.4355
  926MOL0     H27739   7.052   7.547   7.508  1.1990  1.1218  0.8319
  926MOL0     H27740   7.293   7.652   7.357 -0.5030 -0.6890  0.0007
  926MOL0     H27741   7.179   7.772   7.436 -1.3348  0.2567  0.3782
  926MOL0     H27742   7.186   7.678   7.647 -2.7664 -1.4708 -3.3539
  926MOL0     H27743   7.298   7.550   7.595 -0.1075  0.1593  0.9784
  926MOL0     H27744   7.480   7.695   7.561  0.6423  0.8607 -0.7869
  926MOL0     H27745   7.386   7.839   7.577  2.3656  0.2644  0.7157
  926MOL0     H27746   7.536   7.545   7.700  2.8435  1.6262  1.5671
  926MOL0     H27747   7.571   7.315   7.708 -3.5418  3.7349 -0.0783
  926MOL0     H27748   7.488   7.211   7.824  2.4482 -0.9475  1.1303
  926MOL0     H27749   7.653   7.277   7.864  0.1506  1.7991  0.2064
  926MOL0     H27750   7.641   7.222   8.282  0.5032  1.2818 -0.6773
  926MOL0     H27751   7.661   7.039   8.445 -1.9547 -1.6707  1.2215
  926MOL0     H27752   7.681   6.846   8.540 -0.1344 -0.9865 -0.1804
  926MOL0     H27753   7.507   6.851   8.579 -0.0683  0.0175  0.6956
  926MOL0     H27754   7.666   6.597   8.531  2.1916 -0.1144  0.8228
  926MOL0     H27755   7.688   6.677   8.684  1.5486 -1.2451 -1.2657
  926MOL0     H27756   7.405   6.587   8.609  1.0952 -0.5537 -1.5013
  926MOL0     H27757   7.473   6.636   8.757 -1.7345 -2.5493  0.8773
  926MOL0     H27758   7.587   6.378   8.629 -0.0345  0.1671  0.1882
  926MOL0     H27759   7.428   6.395   8.729 -2.1247  3.4786 -2.7999
  926MOL0     H27760   7.716   6.467   8.808  0.2580 -1.3554  0.9493
  926MOL0     H27761   7.578   6.503   8.908  1.4234  0.6333  1.0182
  926MOL0     H27762   7.712   6.317   8.977  0.8334  2.7909 -2.3467
  926MOL0     H27763   7.645   6.222   8.841 -2.7988 -1.3467  0.9984
  926MOL0     H27764   7.419   6.259   8.912 -1.2103 -0.8136  1.5052
  926MOL0     H27765   7.476   6.369   9.045 -0.4988  0.6273 -0.7459
  926MOL0     H27766   7.617   6.170   9.135 -0.6628 -2.4473  0.4257
  926MOL0     H27767   7.534   6.060   9.021  0.7636 -1.8455  3.0116
  926MOL0     H27768   7.396   6.801   8.175 -0.0112  1.1845 -2.7597
  926MOL0     H27769   7.375   6.991   8.034  1.6345  1.5405 -2.4869
  926MOL0     H27770   7.282   7.538   8.118  1.6488 -0.0236  1.6645
  926MOL0     H27771   7.279   7.742   7.954  2.4469  1.0500  1.5414
  926MOL0     H27772   5.684   7.105   7.471 -1.8277 -0.7967  0.0184
  926MOL0     H27773   5.503   7.084   7.617 -1.2183  1.1526 -0.0481
  926MOL0     H27774   5.328   6.947   8.021  0.5148 -1.4974  2.0289
  926MOL0     H27775   5.311   6.948   8.260 -1.1264  0.1953  0.9413
  926MOL0     H27776   5.348   7.336   8.457 -0.5014  0.9141  2.3538
  926MOL0     H27777   5.209   7.284   8.543 -1.9232 -2.1008 -1.7042
  926MOL0     H27778   5.415   7.287   8.681 -2.1848  0.7273 -1.6957
  926MOL0     H27779   5.504   7.182   8.586  0.0172 -3.1632  1.1046
  926MOL0     H27780   5.258   7.100   8.746  0.1133 -0.7520  1.9616
  926MOL0     H27781   5.322   6.996   8.617 -0.2248  0.4361  0.1605
  926MOL0     H27782   5.551   7.027   8.756 -0.4462 -2.4957 -1.3204
  926MOL0     H27783   5.441   6.901   8.807 -0.3795 -0.1652  1.1539
  926MOL0     H27784   5.523   7.141   9.127 -1.4166 -3.2631  1.2352
  926MOL0     H27785   5.265   7.362   8.271 -0.7117 -1.0006  0.5228
  926MOL0     H27786   5.219   7.483   8.079 -0.5382  0.4542 -0.6197
  926MOL0     H27787   5.368   7.457   7.997  0.6079 -0.2195  2.6993
  926MOL0     H27788   5.216   7.404   7.916  1.5808 -0.2129 -0.9400
  927MOL0     O27789   0.594   2.208   3.015 -0.1090  0.9639 -0.1772
  927MOL0     C27790   0.655   2.299   2.965 -1.8003 -0.4774 -0.0468
  927MOL0     O27791   0.682   2.416   3.027  0.0552  0.1259  0.2171
  927MOL0     C27792   0.650   2.438   3.152  0.7572 -0.5581 -0.6160
  927MOL0     C27793   0.579   2.554   3.195  0.1937 -0.0865 -0.3622
  927MOL0     C27794   0.543   2.574   3.330 -0.3392  0.0171 -0.2259
  927MOL0     C27795   0.595   2.491   3.428  1.0916  0.8510 -0.8458
  927MOL0     O27796   0.551   2.506   3.560  0.1822 -0.2948  0.0316
  927MOL0     C27797   0.611   2.430   3.669 -0.4160  0.7625  1.1292
  927MOL0     C27798   0.742   2.499   3.709 -0.7573  0.5791  0.2365
  927MOL0     C27799   0.849   2.408   3.769  0.4961  0.7166 -0.5507
  927MOL0     C27800   0.981   2.425   3.698  0.1671  0.0127  0.2049
  927MOL0     C27801   1.099   2.364   3.768  0.3747  0.5210 -0.3820
  927MOL0     C27802   1.115   2.218   3.739  0.3609  0.7038 -0.2540
  927MOL0     C27803   1.253   2.166   3.782  0.1017  0.3357 -0.3399
  927MOL0     C27804   1.294   2.199   3.928  0.0888  0.4254  0.6020
  927MOL0     N27805   1.227   2.102   4.020  1.3992  0.0132  0.3094
  927MOL0     C27806   1.261   1.971   4.067  0.2314 -0.6750  0.0423
  927MOL0     C27807   1.144   1.931   4.133 -0.1604  0.8503  0.5370
  927MOL0     C27808   1.117   1.789   4.181 -0.3062 -0.0630 -0.6302
  927MOL0     C27809   1.232   1.738   4.270  0.2528 -0.0198 -0.1801
  927MOL0     C27810   1.269   1.828   4.384 -0.1939  0.4372 -0.0403
  927MOL0     C27811   1.328   1.756   4.507  0.1645 -0.9290  0.6860
  927MOL0     O27812   1.328   1.852   4.614 -0.2258  0.3001  0.0856
  927MOL0     C27813   1.424   1.849   4.710  0.5118  0.0572 -0.2321
  927MOL0     C27814   1.439   1.965   4.776  0.5613  0.9422  0.8118
  927MOL0     C27815   1.538   1.982   4.878  0.7734  0.6851 -0.2442
  927MOL0     C27816   1.541   2.119   4.933 -0.3103 -0.0679  0.6656
  927MOL0     C27817   1.634   1.882   4.903  0.5211 -0.4276 -0.3928
  927MOL0     C27818   1.745   1.890   5.008  0.2227 -0.0723  0.3419
  927MOL0     O27819   1.813   1.781   5.051  0.2289  0.9565 -0.5366
  927MOL0     C27820   1.901   1.803   5.151  0.0124 -0.1679 -0.0462
  927MOL0     C27821   1.847   1.812   5.278 -0.1663 -0.1998 -1.0285
  927MOL0     C27822   1.919   1.869   5.390  0.2247 -0.3663  0.3251
  927MOL0     C27823   2.059   1.899   5.377  0.1478  0.5559 -0.6885
  927MOL0     O27824   2.141   1.941   5.482  0.4511 -0.1172 -0.6348
  927MOL0     C27825   2.081   2.002   5.599  0.9493  0.0289 -0.3935
  927MOL0     C27826   2.077   1.893   5.714  0.0750  0.0033 -0.3469
  927MOL0     C27827   2.208   1.834   5.753 -0.4398  0.0094  0.5782
  927MOL0     C27828   2.186   1.731   5.859 -0.8455  0.8131  0.3274
  927MOL0     C27829   2.102   1.765   5.990  0.8297 -0.0808  0.0167
  927MOL0     C27830   2.153   1.665   6.093 -0.2667 -0.1613  0.3698
  927MOL0     C27831   2.056   1.636   6.198  0.0720 -0.3109 -0.0672
  927MOL0     C27832   2.093   1.526   6.304 -0.3216 -0.5845  0.9016
  927MOL0    Cl27833   2.111   1.372   6.224 -0.0390  0.1700  0.4332
  927MOL0     C27834   2.108   1.881   5.250  0.0587 -0.0558 -0.3123
  927MOL0     C27835   2.033   1.848   5.135 -0.3298 -0.0050 -0.8999
  927MOL0     O27836   1.764   2.007   5.051 -0.2956  0.8422 -0.1984
  927MOL0     C27837   1.612   1.759   4.836 -0.3439 -0.3042  0.0959
  927MOL0     C27838   1.510   1.746   4.737  0.8275 -0.3753 -0.6005
  927MOL0     N27839   1.059   2.035   4.133 -0.1590  0.0276  0.3238
  927MOL0     N27840   1.099   2.133   4.071  0.4485 -0.2738 -0.3058
  927MOL0     C27841   0.689   2.392   3.390 -0.0258 -0.1116  0.0353
  927MOL0     C27842   0.703   2.362   3.256 -0.4898  0.3934 -0.2565
  927MOL0     C27843   0.714   2.290   2.831  0.5966  0.4322  0.0799
  927MOL0     C27844   0.653   2.198   2.744  0.6182 -0.0803 -0.1703
  927MOL0     C27845   0.680   2.194   2.606  0.5972  0.5805 -0.3601
  927MOL0     C27846   0.787   2.273   2.559  0.3086  0.3919 -0.3536
  927MOL0     O27847   0.839   2.292   2.433 -0.3158 -0.0259  0.4025
  927MOL0     C27848   0.786   2.205   2.325  0.3087 -0.3275  0.1274
  927MOL0     C27849   0.873   2.076   2.314  0.3869  0.0193 -0.5035
  927MOL0     C27850   0.825   1.991   2.194  0.7560  0.4540  0.1878
  927MOL0     C27851   0.911   1.870   2.151 -0.0416 -0.3221  0.1268
  927MOL0     C27852   1.016   1.889   2.053 -0.6274 -1.1099 -0.2118
  927MOL0     C27853   1.088   1.939   1.967 -0.4023  0.2515 -0.0590
  927MOL0     C27854   0.851   2.358   2.649  0.3452 -0.3245  0.5804
  927MOL0     C27855   0.809   2.379   2.775 -0.1641 -0.4315  0.0499
  927MOL0     C27856   0.892   2.477   2.856 -0.5048 -0.1015  0.0898
  927MOL0     H27857   0.547   2.618   3.114  4.6985  1.1958 -1.3826
  927MOL0     H27858   0.481   2.659   3.358 -0.2027 -0.2351  0.8581
  927MOL0     H27859   0.627   2.324   3.649 -0.7178  0.7466  0.9591
  927MOL0     H27860   0.548   2.433   3.758 -0.8039 -1.2361  0.9755
  927MOL0     H27861   0.783   2.536   3.615 -0.5207 -1.1279 -0.3611
  927MOL0     H27862   0.707   2.580   3.774 -2.8217 -0.1440  0.0996
  927MOL0     H27863   0.858   2.433   3.875 -1.7602  1.8016 -0.5629
  927MOL0     H27864   0.816   2.304   3.762 -3.1731  1.7930 -1.1976
  927MOL0     H27865   0.960   2.390   3.596  2.5047  2.4014 -1.2438
  927MOL0     H27866   1.005   2.531   3.685 -1.5279  0.2704 -1.1879
  927MOL0     H27867   1.087   2.375   3.876  0.3806 -1.8600 -0.0790
  927MOL0     H27868   1.185   2.423   3.736 -0.5176  1.7811 -0.5660
  927MOL0     H27869   1.033   2.164   3.785  0.6344 -0.3367 -0.9556
  927MOL0     H27870   1.112   2.219   3.629 -0.0354  1.2561 -0.2420
  927MOL0     H27871   1.322   2.202   3.705  2.6273  0.5480  1.8728
  927MOL0     H27872   1.260   2.057   3.766 -1.3612  0.1333  0.2301
  927MOL0     H27873   1.400   2.174   3.943  0.0221 -0.0537  0.3011
  927MOL0     H27874   1.277   2.302   3.959 -1.1296  1.1679 -2.2473
  927MOL0     H27875   1.350   1.914   4.043  0.9071  0.4706 -0.2599
  927MOL0     H27876   1.115   1.732   4.087  1.1071 -2.1627  0.5327
  927MOL0     H27877   1.018   1.786   4.225 -1.8674 -0.2624 -3.8594
  927MOL0     H27878   1.200   1.640   4.308  2.2857 -0.1642  1.3519
  927MOL0     H27879   1.324   1.714   4.217 -1.8472 -1.4007 -3.4797
  927MOL0     H27880   1.335   1.913   4.363  1.9555 -1.3273 -0.8377
  927MOL0     H27881   1.172   1.870   4.414  0.2137  0.9333  0.6298
  927MOL0     H27882   1.276   1.663   4.534  0.9079 -1.1565  1.3855
  927MOL0     H27883   1.435   1.739   4.489  0.2615 -0.8867  1.2007
  927MOL0     H27884   1.376   2.050   4.752 -2.4057 -1.4677 -0.5179
  927MOL0     H27885   1.634   2.160   4.894 -1.4965  1.6979 -0.4553
  927MOL0     H27886   1.539   2.118   5.043  0.5911 -2.9108  0.7483
  927MOL0     H27887   1.456   2.182   4.906  0.2715 -0.2590 -1.8372
  927MOL0     H27888   1.741   1.805   5.299 -0.1744  1.7924 -0.1754
  927MOL0     H27889   1.857   1.885   5.478 -2.5215 -1.7932 -1.2118
  927MOL0     H27890   2.151   2.081   5.630 -3.0271  2.9015  2.2718
  927MOL0     H27891   1.982   2.041   5.575  1.0635 -0.1004 -1.1025
  927MOL0     H27892   2.037   1.951   5.797  0.7479  1.7390 -1.2038
  927MOL0     H27893   2.011   1.809   5.691 -1.9310  0.7856  2.2104
  927MOL0     H27894   2.268   1.917   5.791 -1.3244  1.4219 -0.9939
  927MOL0     H27895   2.250   1.794   5.660  0.5904  2.1997  0.0414
  927MOL0     H27896   2.288   1.704   5.889 -0.2079  1.4464 -1.1663
  927MOL0     H27897   2.145   1.642   5.809 -1.2920  0.7891  0.7353
  927MOL0     H27898   2.132   1.866   6.019 -0.4654  0.1870  0.5002
  927MOL0     H27899   1.994   1.757   5.974  0.7375 -0.8769  0.9405
  927MOL0     H27900   2.252   1.684   6.136  0.4664  0.6675 -1.5606
  927MOL0     H27901   2.165   1.564   6.051  1.4992  0.0013  0.4038
  927MOL0     H27902   1.964   1.605   6.146  1.5917 -2.7139 -1.5480
  927MOL0     H27903   2.052   1.727   6.257 -0.5965 -0.6916  0.4908
  927MOL0     H27904   2.030   1.534   6.393 -2.1262 -2.7169 -0.1095
  927MOL0     H27905   2.195   1.551   6.335  0.0835 -3.5531  2.3615
  927MOL0     H27906   2.216   1.892   5.244  0.8183 -4.5426  1.2047
  927MOL0     H27907   2.077   1.844   5.036  1.3733 -3.1846 -0.1686
  927MOL0     H27908   1.670   1.672   4.865 -2.3458 -0.8964  2.7299
  927MOL0     H27909   1.498   1.651   4.686 -0.5940  0.0159 -1.0227
  927MOL0     H27910   0.744   2.337   3.466 -0.7213 -0.4345  0.3135
  927MOL0     H27911   0.774   2.282   3.237 -1.0291 -1.3599  3.9473
  927MOL0     H27912   0.580   2.127   2.782  0.6584 -1.1162 -1.9067
  927MOL0     H27913   0.629   2.128   2.536  0.1158  3.0472 -2.5059
  927MOL0     H27914   0.682   2.177   2.343  0.5472 -0.7346  0.9665
  927MOL0     H27915   0.798   2.264   2.234 -2.4971 -0.2957 -0.3095
  927MOL0     H27916   0.879   2.021   2.409 -1.8467  0.8637  0.2031
  927MOL0     H27917   0.976   2.109   2.296  1.1556 -1.2787  1.2446
  927MOL0     H27918   0.729   1.950   2.228  0.1042  0.9995 -0.9021
  927MOL0     H27919   0.817   2.047   2.100 -0.4814  2.0325  1.1765
  927MOL0     H27920   0.839   1.796   2.116  0.0705 -0.5199  0.3174
  927MOL0     H27921   0.952   1.823   2.240 -0.0757 -1.8965 -0.6617
  927MOL0     H27922   1.148   1.965   1.883 -2.4533 -0.0598 -1.6984
  927MOL0     H27923   0.937   2.408   2.606 -0.7115 -1.1452 -2.7939
  927MOL0     H27924   0.992   2.489   2.815 -0.6198  1.0266  0.1171
  927MOL0     H27925   0.845   2.576   2.856 -1.9334 -0.6659  2.8731
  927MOL0     H27926   0.909   2.443   2.959 -2.8697 -1.2484  0.1902
  928MOL0     O27927   5.567   3.867   7.540  0.1283 -0.6207  0.0152
  928MOL0     C27928   5.503   3.967   7.507  0.2785  0.1712 -0.5362
  928MOL0     O27929   5.374   3.972   7.491 -0.1202  0.0584 -0.1130
  928MOL0     C27930   5.291   3.867   7.538 -1.1882 -0.0019  0.0771
  928MOL0     C27931   5.314   3.728   7.503  0.7649 -0.7878 -0.5077
  928MOL0     C27932   5.226   3.633   7.554  1.4120  0.1600 -0.5002
  928MOL0     C27933   5.122   3.661   7.637 -0.6726  1.0100 -0.3539
  928MOL0     O27934   5.043   3.555   7.692  0.6998 -0.5100 -0.2181
  928MOL0     C27935   5.003   3.449   7.607 -0.4531 -0.0407 -0.6474
  928MOL0     C27936   4.895   3.380   7.687  0.1240 -1.4072  0.1269
  928MOL0     C27937   4.844   3.253   7.623  0.5665 -0.5008 -0.1260
  928MOL0     C27938   4.719   3.275   7.536 -0.1798  0.0216  0.9496
  928MOL0     C27939   4.672   3.158   7.444  0.1520  0.5124 -1.0281
  928MOL0     C27940   4.754   3.124   7.319  0.0779  0.1862 -0.1123
  928MOL0     C27941   4.769   3.246   7.218  0.3534  0.4814 -1.1093
  928MOL0     C27942   4.882   3.226   7.112  0.8755  0.9574  0.1016
  928MOL0     N27943   4.929   3.353   7.057 -0.1300 -0.6044 -0.8903
  928MOL0     C27944   5.009   3.443   7.125 -0.1727 -0.4081  0.2508
  928MOL0     C27945   5.007   3.559   7.042 -0.1190  0.1819  0.3878
  928MOL0     C27946   5.066   3.689   7.083 -0.1978 -0.2455  0.1422
  928MOL0     C27947   4.970   3.778   7.146 -0.5984  0.3873 -0.1286
  928MOL0     C27948   4.934   3.727   7.292  0.3369 -0.3401 -0.1614
  928MOL0     C27949   4.854   3.828   7.360 -0.4132 -0.2429  0.5570
  928MOL0     O27950   4.748   3.887   7.284 -0.6636  0.5147  0.0806
  928MOL0     C27951   4.633   3.826   7.251 -0.8134  0.0822  0.0661
  928MOL0     C27952   4.599   3.697   7.287  0.1107  0.1121  0.4361
  928MOL0     C27953   4.481   3.634   7.243 -0.2595  0.3362 -0.7118
  928MOL0     C27954   4.460   3.489   7.278 -0.4095 -0.1865  0.0208
  928MOL0     C27955   4.388   3.711   7.165 -0.5129 -0.0655 -0.0728
  928MOL0     C27956   4.259   3.654   7.107  0.1828  0.3225  0.6198
  928MOL0     O27957   4.160   3.742   7.079  0.2378 -0.0668 -0.2198
  928MOL0     C27958   4.026   3.705   7.047 -0.2051 -0.3814  0.0473
  928MOL0     C27959   3.999   3.600   6.953  0.4314 -0.6649  0.2493
  928MOL0     C27960   3.869   3.564   6.923 -0.6438 -0.2605  0.0091
  928MOL0     C27961   3.757   3.636   6.976 -0.0406  0.8031  0.8719
  928MOL0     O27962   3.635   3.585   6.922  0.4581  0.2651 -0.4160
  928MOL0     C27963   3.511   3.634   6.985 -0.0896 -0.2304  0.2410
  928MOL0     C27964   3.442   3.746   6.887 -0.2375  0.4681  0.6116
  928MOL0     C27965   3.504   3.882   6.917 -0.4432  0.3415 -0.3145
  928MOL0     C27966   3.477   3.993   6.819 -0.6526 -0.0156 -0.1942
  928MOL0     C27967   3.560   4.119   6.854 -0.0009  0.8161  1.5103
  928MOL0     C27968   3.525   4.222   6.748 -0.2644 -1.7427 -0.1015
  928MOL0     C27969   3.572   4.361   6.801 -0.5996 -0.3203 -0.1278
  928MOL0     C27970   3.593   4.460   6.682 -0.7230  0.6671 -0.1366
  928MOL0    Cl27971   3.608   4.626   6.733 -0.3383 -0.1789  0.4282
  928MOL0     C27972   3.788   3.742   7.063 -0.1014 -0.5329 -0.3061
  928MOL0     C27973   3.920   3.779   7.100  0.1579  0.4914 -0.0909
  928MOL0     O27974   4.242   3.535   7.099 -0.6779  0.5402 -0.0927
  928MOL0     C27975   4.422   3.844   7.139 -0.7063 -0.3837  0.0208
  928MOL0     C27976   4.543   3.897   7.175  1.1750 -0.8590 -0.3946
  928MOL0     N27977   4.924   3.538   6.932  0.6035  0.1796  0.7821
  928MOL0     N27978   4.886   3.415   6.936  0.9651  0.9174 -0.8505
  928MOL0     C27979   5.093   3.797   7.677 -0.4315 -0.1988 -0.3090
  928MOL0     C27980   5.177   3.904   7.619 -0.3655  0.5222  0.3333
  928MOL0     C27981   5.573   4.098   7.496  0.5473  0.8269 -0.6935
  928MOL0     C27982   5.718   4.092   7.487  0.1773 -0.4226 -1.3514
  928MOL0     C27983   5.795   4.207   7.484  0.0659 -0.0619 -0.1396
  928MOL0     C27984   5.737   4.333   7.484  0.4259  0.0297  0.1970
  928MOL0     O27985   5.827   4.437   7.472  0.1728 -0.1502  0.6622
  928MOL0     C27986   5.769   4.568   7.490  0.2464  0.5181  0.0390
  928MOL0     C27987   5.858   4.693   7.480 -0.3038  1.0141 -0.1062
  928MOL0     C27988   5.996   4.654   7.530 -0.4333 -0.7811  0.0796
  928MOL0     C27989   6.100   4.767   7.487  0.0176  0.3498  0.4739
  928MOL0     C27990   6.243   4.723   7.485  1.5308 -0.8283  0.1388
  928MOL0     C27991   6.358   4.702   7.489  0.2485 -0.5539  0.5741
  928MOL0     C27992   5.590   4.341   7.480 -0.1767 -0.1817 -0.0307
  928MOL0     C27993   5.507   4.227   7.485 -0.2377  0.6329  0.3223
  928MOL0     C27994   5.359   4.259   7.479  0.6411  0.7637  0.3979
  928MOL0     H27995   5.393   3.691   7.438 -0.8337 -4.8170 -0.4493
  928MOL0     H27996   5.238   3.525   7.543 -5.5441 -1.0450 -1.0958
  928MOL0     H27997   5.073   3.369   7.582 -0.0420  0.1241 -0.0409
  928MOL0     H27998   4.958   3.502   7.522 -1.9464  0.2277  0.2751
  928MOL0     H27999   4.940   3.371   7.786  1.5406 -0.2235 -0.3688
  928MOL0     H28000   4.813   3.452   7.696  1.4377  0.0615  0.9383
  928MOL0     H28001   4.922   3.216   7.556  0.1190 -0.3094 -0.7508
  928MOL0     H28002   4.816   3.174   7.693  0.4448  0.6070  1.1208
  928MOL0     H28003   4.640   3.297   7.609  0.7763  0.1530  1.9585
  928MOL0     H28004   4.740   3.369   7.484  0.5503 -0.4076  0.4633
  928MOL0     H28005   4.565   3.161   7.422 -0.0883 -0.1382 -0.0296
  928MOL0     H28006   4.688   3.073   7.512  1.8512  1.1358 -0.6033
  928MOL0     H28007   4.850   3.083   7.350 -0.4856 -1.8957 -0.9251
  928MOL0     H28008   4.688   3.054   7.267  0.3914  0.8060 -1.3822
  928MOL0     H28009   4.783   3.340   7.271  0.3845 -1.8209  3.3950
  928MOL0     H28010   4.673   3.255   7.166 -0.2768  2.3424  0.2689
  928MOL0     H28011   4.971   3.179   7.156 -0.3106  0.6206  2.3018
  928MOL0     H28012   4.849   3.168   7.026  0.2834  0.3166  0.7432
  928MOL0     H28013   5.034   3.451   7.230 -1.1465  0.9058  0.4146
  928MOL0     H28014   5.084   3.733   6.985 -0.3238  0.4568  0.4300
  928MOL0     H28015   5.162   3.677   7.133 -0.5724  0.2194  1.0025
  928MOL0     H28016   5.004   3.882   7.156  0.1341  0.1088  0.3302
  928MOL0     H28017   4.882   3.772   7.082  1.1327  0.6270 -2.6720
  928MOL0     H28018   4.886   3.628   7.292  1.0076 -0.6829  1.2188
  928MOL0     H28019   5.031   3.717   7.341  0.6535  0.7251 -0.5586
  928MOL0     H28020   4.822   3.802   7.461  1.9075  3.2693  2.4481
  928MOL0     H28021   4.923   3.912   7.372  1.4338 -1.5061 -0.6091
  928MOL0     H28022   4.667   3.632   7.341  0.0548 -0.1107  0.2470
  928MOL0     H28023   4.550   3.446   7.324  1.2104  1.2881 -1.5916
  928MOL0     H28024   4.441   3.426   7.190 -4.3459  0.5311  0.2044
  928MOL0     H28025   4.380   3.492   7.352  1.4745 -0.0272  2.1401
  928MOL0     H28026   4.086   3.552   6.908 -0.0347  0.5637 -2.1432
  928MOL0     H28027   3.841   3.478   6.863 -2.6047 -0.3450  0.9723
  928MOL0     H28028   3.440   3.551   6.978 -0.1960 -0.0191 -1.9054
  928MOL0     H28029   3.531   3.651   7.091 -1.0622 -2.2341  0.8062
  928MOL0     H28030   3.470   3.727   6.784 -3.4667 -1.9196  0.0182
  928MOL0     H28031   3.333   3.750   6.887 -0.4438 -0.1713 -4.0442
  928MOL0     H28032   3.612   3.873   6.908  0.4662  6.4934  0.4857
  928MOL0     H28033   3.475   3.903   7.020  1.2673 -0.1134  0.2921
  928MOL0     H28034   3.370   4.013   6.823 -0.6139  0.0795  0.3126
  928MOL0     H28035   3.516   3.955   6.724  5.8513  0.5779  1.7392
  928MOL0     H28036   3.527   4.157   6.951 -2.2719 -0.0651  1.1446
  928MOL0     H28037   3.665   4.095   6.871 -0.4330 -1.9916  0.6998
  928MOL0     H28038   3.418   4.224   6.725  0.0472  0.3758 -1.6736
  928MOL0     H28039   3.570   4.208   6.650  1.6773  3.5500 -0.3231
  928MOL0     H28040   3.670   4.347   6.848  0.1310  1.5799 -0.9754
  928MOL0     H28041   3.510   4.405   6.879  1.5811  0.5940  1.1777
  928MOL0     H28042   3.509   4.456   6.613 -1.1258 -1.0733  0.4271
  928MOL0     H28043   3.681   4.431   6.622 -0.1599  2.4508 -0.2427
  928MOL0     H28044   3.712   3.805   7.108  2.3924  3.0432 -0.6863
  928MOL0     H28045   3.954   3.862   7.161  0.2450  2.3714 -2.5186
  928MOL0     H28046   4.357   3.907   7.079  0.4171  0.0971 -0.7238
  928MOL0     H28047   4.567   3.999   7.147 -2.7279  0.6383  0.9864
  928MOL0     H28048   5.013   3.822   7.746 -1.6571  1.9473 -2.3576
  928MOL0     H28049   5.152   4.008   7.635 -1.8368  0.3653 -0.7569
  928MOL0     H28050   5.762   3.993   7.488  1.1109 -0.0287 -1.7813
  928MOL0     H28051   5.904   4.203   7.480  0.0768 -0.4603  0.5315
  928MOL0     H28052   5.689   4.583   7.417  0.3349 -0.6565 -0.3222
  928MOL0     H28053   5.729   4.562   7.592  1.8082 -4.3818  0.6468
  928MOL0     H28054   5.812   4.774   7.536 -2.0146  0.5128 -0.7144
  928MOL0     H28055   5.869   4.720   7.374  1.8337  2.0449  0.3327
  928MOL0     H28056   6.005   4.641   7.638 -1.7014  1.0050  0.4421
  928MOL0     H28057   6.036   4.567   7.477 -0.3981 -1.4586  1.1794
  928MOL0     H28058   6.101   4.848   7.560 -0.2853 -0.4486  1.3840
  928MOL0     H28059   6.067   4.805   7.390 -2.3879 -0.8553  0.7300
  928MOL0     H28060   6.463   4.694   7.508 -0.0124  0.5042  2.8088
  928MOL0     H28061   5.547   4.441   7.488 -0.3660  0.0908 -3.2739
  928MOL0     H28062   5.307   4.214   7.394 -2.4756  1.1775  1.9376
  928MOL0     H28063   5.307   4.219   7.566  1.7523  0.0018  0.7228
  928MOL0     H28064   5.352   4.369   7.475  1.4274  0.7991 -0.3571
  929MOL0     O28065  11.051   0.600   2.440 -0.1067 -0.0065 -0.0174
  929MOL0     C28066  11.036   0.698   2.513  0.1500  0.2920 -0.9830
  929MOL0     O28067  10.919   0.776   2.510 -0.6069  0.2039 -0.5023
  929MOL0     C28068  10.806   0.736   2.441  0.1123 -0.2293 -0.5812
  929MOL0     C28069  10.734   0.832   2.372  0.1678 -0.2616  0.5486
  929MOL0     C28070  10.623   0.800   2.287  0.0099  0.4370 -0.7003
  929MOL0     C28071  10.581   0.665   2.281 -0.8280  0.2034  0.3572
  929MOL0     O28072  10.474   0.616   2.206  0.4111 -0.0140 -1.0750
  929MOL0     C28073  10.464   0.660   2.068 -0.5181  0.3084 -0.1750
  929MOL0     C28074  10.328   0.618   2.016  0.9830 -0.1740  0.6386
  929MOL0     C28075  10.214   0.710   2.057  0.0079 -0.3456 -1.0759
  929MOL0     C28076  10.075   0.671   2.011  0.3428 -0.0179 -0.0302
  929MOL0     C28077   9.973   0.744   2.092 -0.2020  0.0008  0.5050
  929MOL0     C28078   9.827   0.736   2.048  0.5240 -0.2792  0.4715
  929MOL0     C28079   9.724   0.789   2.147  0.6233  0.3614  0.4794
  929MOL0     C28080   9.720   0.941   2.192  0.1231 -0.3412 -0.5098
  929MOL0     N28081   9.723   1.039   2.083 -0.2622  0.0743 -0.4161
  929MOL0     C28082   9.635   1.054   1.983  0.0294  0.2993  0.3716
  929MOL0     C28083   9.636   1.188   1.929  0.2775  0.5941 -0.1386
  929MOL0     C28084   9.546   1.254   1.831 -0.5703  1.0996  0.4520
  929MOL0     C28085   9.404   1.196   1.819 -0.3511  0.0523 -1.2062
  929MOL0     C28086   9.329   1.221   1.950  0.7899  0.1334 -0.4018
  929MOL0     C28087   9.180   1.251   1.924  0.4054 -0.4957 -0.7330
  929MOL0     O28088   9.154   1.387   1.874 -1.1504  0.1092 -0.7913
  929MOL0     C28089   9.020   1.416   1.846 -1.0142 -0.1379 -0.8489
  929MOL0     C28090   8.908   1.340   1.873  0.0049 -0.3294  0.3048
  929MOL0     C28091   8.778   1.385   1.847  0.9004  1.7296  0.4295
  929MOL0     C28092   8.662   1.299   1.893 -0.1207  0.1965  0.0370
  929MOL0     C28093   8.759   1.510   1.780 -0.0724 -0.0955  0.2560
  929MOL0     C28094   8.634   1.577   1.722 -0.6101 -0.2355  0.3366
  929MOL0     O28095   8.653   1.687   1.632 -0.6494  0.4175 -0.2904
  929MOL0     C28096   8.539   1.716   1.580  0.4163 -0.1250 -0.1416
  929MOL0     C28097   8.459   1.810   1.642  0.1706 -0.1249 -0.6981
  929MOL0     C28098   8.330   1.812   1.611  0.5612 -1.2077 -0.2955
  929MOL0     C28099   8.280   1.738   1.508  0.0267  0.5023  0.3428
  929MOL0     O28100   8.147   1.778   1.465 -0.2968 -0.0005  0.2247
  929MOL0     C28101   8.087   1.733   1.348  0.3225  0.0714 -0.0336
  929MOL0     C28102   7.950   1.800   1.329 -0.1661 -0.4834  0.7236
  929MOL0     C28103   7.837   1.744   1.408  0.1176  0.7913  0.2318
  929MOL0     C28104   7.840   1.792   1.552 -0.0046  0.5247  0.3066
  929MOL0     C28105   7.721   1.742   1.643  0.4396  0.4774 -0.4721
  929MOL0     C28106   7.592   1.829   1.638 -0.4234 -0.0033  0.5328
  929MOL0     C28107   7.464   1.768   1.685 -0.4203  0.4763  0.0402
  929MOL0     C28108   7.466   1.731   1.838  0.4324  0.1989  0.4547
  929MOL0    Cl28109   7.453   1.873   1.947  0.3087 -0.2588  0.2243
  929MOL0     C28110   8.367   1.658   1.431  0.0952 -0.8403  0.5366
  929MOL0     C28111   8.497   1.640   1.468 -0.3418  1.2170 -0.4623
  929MOL0     O28112   8.525   1.538   1.758  0.1689 -0.5060 -0.3978
  929MOL0     C28113   8.878   1.591   1.772  0.0574  0.3577  0.4090
  929MOL0     C28114   9.004   1.540   1.800  0.3926 -0.1238 -0.1990
  929MOL0     N28115   9.742   1.244   2.006 -0.1499  1.2034  1.5420
  929MOL0     N28116   9.787   1.155   2.087 -0.0785  0.0882 -0.3537
  929MOL0     C28117  10.648   0.572   2.359  0.3553 -0.3989 -0.7683
  929MOL0     C28118  10.758   0.602   2.436  0.0091  0.3747  0.0241
  929MOL0     C28119  11.148   0.755   2.590 -0.1281  0.7936  0.3223
  929MOL0     C28120  11.152   0.899   2.608 -0.1815  0.1195  0.2387
  929MOL0     C28121  11.256   0.954   2.680  0.3441 -0.9637 -0.2674
  929MOL0     C28122  11.351   0.873   2.745 -0.5321  0.1052  0.2837
  929MOL0     O28123  11.466   0.932   2.798 -0.1459  0.1890 -0.1236
  929MOL0     C28124  11.443   1.041   2.886 -0.2270  0.4574 -0.2660
  929MOL0     C28125  11.586   1.093   2.897  0.0512  0.5317 -0.2782
  929MOL0     C28126  11.578   1.202   3.005 -0.3986 -1.0678 -0.1368
  929MOL0     C28127  11.601   1.139   3.151 -0.1267  0.1347  0.8003
  929MOL0     C28128  11.732   1.082   3.168  0.0853 -1.3417  0.4545
  929MOL0     C28129  11.850   1.060   3.182 -0.1082  0.7952 -0.3360
  929MOL0     C28130  11.347   0.738   2.735  0.3671 -0.3903 -0.0478
  929MOL0     C28131  11.240   0.676   2.665  0.4545  0.6907  1.0834
  929MOL0     C28132  11.241   0.525   2.656 -0.1291  0.7029  0.4290
  929MOL0     H28133  10.778   0.931   2.369  0.5482 -0.4514 -1.8272
  929MOL0     H28134  10.581   0.880   2.227  0.5653  0.4596 -1.0648
  929MOL0     H28135  10.535   0.600   2.011 -1.7665 -2.2756  0.8361
  929MOL0     H28136  10.485   0.767   2.056 -0.3753  0.4430  1.0888
  929MOL0     H28137  10.323   0.608   1.907  0.7403  1.5530  0.4609
  929MOL0     H28138  10.300   0.521   2.059 -0.9521 -1.5995 -3.3181
  929MOL0     H28139  10.216   0.715   2.166 -0.2553  0.1968 -1.0933
  929MOL0     H28140  10.224   0.817   2.038 -0.1295 -0.0026  0.6503
  929MOL0     H28141  10.052   0.696   1.907  1.0584 -1.3010 -0.5140
  929MOL0     H28142  10.058   0.563   2.022 -2.9405  0.3365 -0.5217
  929MOL0     H28143   9.997   0.850   2.104 -1.1709  0.0632  2.2444
  929MOL0     H28144   9.982   0.693   2.188  4.4118 -0.7237 -0.0561
  929MOL0     H28145   9.820   0.787   1.951 -0.2972 -0.7089  0.3047
  929MOL0     H28146   9.806   0.632   2.024 -1.8714  0.7181 -2.3401
  929MOL0     H28147   9.732   0.732   2.240  1.1157 -0.0317  0.2019
  929MOL0     H28148   9.633   0.766   2.092  0.9639 -0.0064  0.0567
  929MOL0     H28149   9.630   0.966   2.249  1.5952  3.0537  0.5625
  929MOL0     H28150   9.797   0.974   2.262 -1.6014  2.2657  0.3082
  929MOL0     H28151   9.557   0.980   1.963 -1.4477  1.5134  1.4211
  929MOL0     H28152   9.591   1.252   1.731  2.9183 -0.4264  1.9214
  929MOL0     H28153   9.539   1.362   1.851  0.6610  0.9620  1.7172
  929MOL0     H28154   9.355   1.251   1.737 -0.5157 -0.0607 -1.1831
  929MOL0     H28155   9.397   1.089   1.799  1.5993 -0.2223 -0.5961
  929MOL0     H28156   9.329   1.140   2.023  1.5011 -0.2538 -0.8163
  929MOL0     H28157   9.363   1.308   2.007  0.2383 -0.7124  1.2951
  929MOL0     H28158   9.157   1.179   1.845 -0.5876  0.7789 -1.6378
  929MOL0     H28159   9.117   1.227   2.009 -1.3723  0.3713 -1.7487
  929MOL0     H28160   8.910   1.242   1.919 -1.2338 -1.9656 -2.8385
  929MOL0     H28161   8.589   1.355   1.952  0.1587  2.0772 -1.3109
  929MOL0     H28162   8.693   1.215   1.956 -1.1359 -0.2925 -0.0901
  929MOL0     H28163   8.607   1.266   1.804  0.0736  1.7975 -0.7172
  929MOL0     H28164   8.493   1.857   1.734  0.5952 -2.4326  0.3885
  929MOL0     H28165   8.268   1.881   1.668  1.8052 -1.1659  1.0806
  929MOL0     H28166   8.148   1.759   1.261 -1.3549  2.3128 -0.6215
  929MOL0     H28167   8.085   1.624   1.353  4.0545 -0.1116  0.1730
  929MOL0     H28168   7.964   1.903   1.363  2.4973 -0.3767 -0.4379
  929MOL0     H28169   7.911   1.812   1.228  0.4224  0.7784  0.6265
  929MOL0     H28170   7.839   1.635   1.405 -2.3939  0.7049  0.0920
  929MOL0     H28171   7.739   1.772   1.368 -0.6758 -1.6094  0.3449
  929MOL0     H28172   7.834   1.901   1.545  3.2431  0.7510 -0.7254
  929MOL0     H28173   7.928   1.749   1.599  0.7644 -0.6268 -2.0353
  929MOL0     H28174   7.688   1.641   1.617 -2.6202  1.9152 -2.9214
  929MOL0     H28175   7.763   1.734   1.743  0.5023 -0.5678 -0.5700
  929MOL0     H28176   7.568   1.860   1.536 -2.9907  2.0357  1.6444
  929MOL0     H28177   7.616   1.913   1.704  0.9568 -0.5371  0.7595
  929MOL0     H28178   7.435   1.682   1.625  0.2512  0.1782  0.1256
  929MOL0     H28179   7.379   1.834   1.663  0.8046  1.6525 -1.4704
  929MOL0     H28180   7.553   1.667   1.857 -0.1136 -0.9881 -0.8196
  929MOL0     H28181   7.380   1.664   1.855  1.1203 -0.3271  2.0642
  929MOL0     H28182   8.333   1.611   1.339  0.1134  1.6243 -0.8329
  929MOL0     H28183   8.562   1.562   1.430  2.3803  2.2807  1.6349
  929MOL0     H28184   8.867   1.690   1.730 -0.8618  0.5933  1.1752
  929MOL0     H28185   9.088   1.607   1.784  0.1570  0.4642  0.9083
  929MOL0     H28186  10.605   0.474   2.377  1.4922 -0.5424  1.4916
  929MOL0     H28187  10.810   0.528   2.497  0.6334  4.3495  4.9436
  929MOL0     H28188  11.081   0.967   2.561 -1.1533 -1.1857 -0.2530
  929MOL0     H28189  11.271   1.061   2.677 -2.2207 -0.4951  0.8845
  929MOL0     H28190  11.381   1.123   2.848 -2.1387 -0.2620  1.1674
  929MOL0     H28191  11.417   1.007   2.986  1.2981 -1.9255 -0.5891
  929MOL0     H28192  11.616   1.137   2.801 -1.8747 -1.1369 -1.7390
  929MOL0     H28193  11.657   1.014   2.922 -2.4984 -1.3225  1.5512
  929MOL0     H28194  11.651   1.278   2.977 -1.2981 -0.7761 -1.8336
  929MOL0     H28195  11.480   1.250   3.001 -0.1330 -0.1530  2.5694
  929MOL0     H28196  11.529   1.061   3.176  0.0853 -0.3553 -0.0873
  929MOL0     H28197  11.578   1.221   3.220  2.8249  0.2806  1.7662
  929MOL0     H28198  11.952   1.034   3.205 -0.8637 -0.1648  2.2687
  929MOL0     H28199  11.413   0.675   2.793 -0.4606 -0.5705  0.7281
  929MOL0     H28200  11.259   0.495   2.552  0.2053  1.4099  0.2759
  929MOL0     H28201  11.328   0.480   2.704  1.2524 -0.8663 -3.2220
  929MOL0     H28202  11.147   0.478   2.688  0.5720 -2.4498 -1.7333
  930MOL0     O28203   2.816   0.682   9.882  0.2244  0.0421  0.1717
  930MOL0     C28204   2.833   0.712  10.001 -0.8250 -0.2899  0.1534
  930MOL0     O28205   2.838   0.835  10.053  0.0854 -0.0556 -0.1992
  930MOL0     C28206   2.843   0.949   9.970  0.0882  0.9619  0.5392
  930MOL0     C28207   2.785   1.058  10.028  0.1313 -0.7023 -0.2720
  930MOL0     C28208   2.775   1.181   9.966  0.0418  0.3567  0.2888
  930MOL0     C28209   2.831   1.202   9.837 -0.0925  0.2495 -0.4800
  930MOL0     O28210   2.848   1.317   9.768 -0.4563 -0.2404 -0.1310
  930MOL0     C28211   2.772   1.431   9.802 -0.3723 -0.1842  0.8817
  930MOL0     C28212   2.736   1.530   9.688  0.1205 -0.1107 -0.1988
  930MOL0     C28213   2.602   1.491   9.608 -0.6648 -0.4324 -0.2030
  930MOL0     C28214   2.602   1.350   9.537  0.0254  0.1501 -0.8166
  930MOL0     C28215   2.477   1.325   9.466 -0.0577 -0.6692  0.5586
  930MOL0     C28216   2.362   1.306   9.563  0.1156 -0.0059  0.1073
  930MOL0     C28217   2.251   1.238   9.488 -0.0138  0.4811 -1.1619
  930MOL0     C28218   2.125   1.257   9.579  0.0502  0.4731  0.1469
  930MOL0     N28219   2.009   1.194   9.509 -0.2712  0.9203 -0.6766
  930MOL0     C28220   2.013   1.081   9.439 -0.2927 -0.8414 -0.0244
  930MOL0     C28221   1.925   1.079   9.356  0.2862  0.4932  0.3893
  930MOL0     C28222   1.909   0.955   9.271 -0.0586  0.2419 -0.5949
  930MOL0     C28223   1.775   0.892   9.309  0.3018 -0.1908  0.3559
  930MOL0     C28224   1.728   0.779   9.228 -0.6382  0.3217  0.9781
  930MOL0     C28225   1.835   0.661   9.220 -0.0113 -1.2614  0.1362
  930MOL0     O28226   1.854   0.591   9.343 -0.4403 -1.0405  0.1453
  930MOL0     C28227   1.967   0.512   9.350 -0.8554 -1.3601  0.4220
  930MOL0     C28228   2.071   0.557   9.442 -0.1345  0.4381  0.4422
  930MOL0     C28229   2.189   0.485   9.450  0.7617  0.4899  0.0776
  930MOL0     C28230   2.290   0.532   9.556  0.0344 -0.2243  0.9112
  930MOL0     C28231   2.205   0.374   9.358  0.5094 -0.3367 -0.0455
  930MOL0     C28232   2.327   0.285   9.369 -0.0973 -0.3912 -0.8945
  930MOL0     O28233   2.390   0.243   9.256  0.8461  0.6042 -0.6494
  930MOL0     C28234   2.472   0.133   9.271  0.2637  0.2508  1.0270
  930MOL0     C28235   2.423   0.007   9.305 -0.0879 -0.2436 -0.5276
  930MOL0     C28236   2.508  -0.106   9.301 -0.2724  0.0151 -0.4076
  930MOL0     C28237   2.647  -0.098   9.264 -0.0296  0.6224  0.2463
  930MOL0     O28238   2.729  -0.203   9.249  0.2526 -0.0799 -0.0019
  930MOL0     C28239   2.680  -0.331   9.277 -0.7866 -0.6550  0.0659
  930MOL0     C28240   2.801  -0.426   9.239 -0.6768  1.1472 -0.2331
  930MOL0     C28241   2.815  -0.429   9.090 -0.0958  0.0811  0.8299
  930MOL0     C28242   2.697  -0.475   9.000 -1.2027  0.2257 -0.6926
  930MOL0     C28243   2.726  -0.493   8.855 -0.7371 -0.9538  0.6676
  930MOL0     C28244   2.592  -0.517   8.784 -0.2413  0.8372 -0.6776
  930MOL0     C28245   2.602  -0.504   8.631  1.4623 -0.8815 -0.3900
  930MOL0     C28246   2.665  -0.630   8.569 -0.4758  0.4594  0.1471
  930MOL0    Cl28247   2.659  -0.584   8.394  0.5106  0.4082 -0.1675
  930MOL0     C28248   2.691   0.024   9.223  0.5475 -0.7138  0.3689
  930MOL0     C28249   2.603   0.139   9.221  0.5023 -0.5679  0.1401
  930MOL0     O28250   2.353   0.250   9.483 -0.9354 -1.2053  0.6075
  930MOL0     C28251   2.100   0.332   9.269 -0.1476  0.5366  0.3606
  930MOL0     C28252   1.982   0.410   9.263  0.3781  0.1046 -0.5941
  930MOL0     N28253   1.848   1.190   9.375  1.0156 -0.4772  0.6557
  930MOL0     N28254   1.900   1.261   9.471  0.0029 -0.1806  0.1681
  930MOL0     C28255   2.874   1.087   9.774 -0.7808 -0.8738  0.3464
  930MOL0     C28256   2.892   0.960   9.830 -0.3074  0.8421  0.2799
  930MOL0     C28257   2.820   0.605  10.104 -0.2700 -0.1036 -0.6330
  930MOL0     C28258   2.761   0.635  10.231 -0.1502  1.0305  0.1997
  930MOL0     C28259   2.738   0.543  10.333  0.3464 -0.6431 -0.4240
  930MOL0     C28260   2.757   0.408  10.307  0.1415  0.1317  0.2675
  930MOL0     O28261   2.719   0.324  10.399 -0.1172  0.0486  0.0367
  930MOL0     C28262   2.756   0.185  10.393 -0.0213  0.4990 -0.2035
  930MOL0     C28263   2.658   0.097  10.471 -0.2903  0.2206  0.8335
  930MOL0     C28264   2.717  -0.042  10.491  0.5410  0.8424  0.3347
  930MOL0     C28265   2.607  -0.115  10.565 -0.8758  1.0976  0.2076
  930MOL0     C28266   2.655  -0.253  10.607  0.2491 -0.4217  0.4049
  930MOL0     C28267   2.674  -0.360  10.655 -0.1170  0.3991  0.9798
  930MOL0     C28268   2.811   0.371  10.179  0.1294  0.1079 -0.8362
  930MOL0     C28269   2.844   0.470  10.079 -0.2608  0.6622  0.1639
  930MOL0     C28270   2.918   0.413   9.958  1.0495 -0.1480  0.3981
  930MOL0     H28271   2.749   1.050  10.130  1.0852 -2.0899 -0.0173
  930MOL0     H28272   2.734   1.272  10.009 -1.7562  2.8364 -5.6854
  930MOL0     H28273   2.824   1.483   9.883  1.8396  1.5246 -1.4778
  930MOL0     H28274   2.674   1.389   9.828 -0.7276  0.1114  0.0471
  930MOL0     H28275   2.716   1.630   9.728 -2.6423 -1.1010  1.1779
  930MOL0     H28276   2.817   1.547   9.617 -2.1706  2.3019 -2.4742
  930MOL0     H28277   2.520   1.504   9.680  0.3030  4.7155  0.3800
  930MOL0     H28278   2.586   1.562   9.527 -2.8619  0.0519  0.5832
  930MOL0     H28279   2.682   1.341   9.463  0.4262 -3.6740 -0.0780
  930MOL0     H28280   2.622   1.268   9.607  0.2319 -3.2195 -4.5009
  930MOL0     H28281   2.492   1.227   9.420  0.3900 -0.2095 -0.2923
  930MOL0     H28282   2.465   1.393   9.381 -1.9036 -3.2104 -1.3868
  930MOL0     H28283   2.385   1.253   9.656  2.4726  1.6159  0.5429
  930MOL0     H28284   2.340   1.409   9.594 -0.4824  0.2602 -1.1495
  930MOL0     H28285   2.276   1.132   9.478 -1.0460  0.1982 -0.8595
  930MOL0     H28286   2.243   1.283   9.389  3.5122  1.6395 -1.0827
  930MOL0     H28287   2.159   1.214   9.674  0.5349  1.4211  0.4160
  930MOL0     H28288   2.104   1.364   9.583  2.6082  0.9916  1.8568
  930MOL0     H28289   2.095   1.012   9.454  1.2410  1.2865  2.3372
  930MOL0     H28290   1.996   0.890   9.290 -1.7060 -1.3838  1.9875
  930MOL0     H28291   1.899   0.985   9.166 -0.7740  1.1529 -0.2724
  930MOL0     H28292   1.796   0.868   9.414  1.8591  2.3173  0.7018
  930MOL0     H28293   1.700   0.971   9.300 -1.7906 -2.0278  0.4634
  930MOL0     H28294   1.629   0.746   9.264 -0.4084 -0.7133  0.7037
  930MOL0     H28295   1.721   0.813   9.124 -0.0671  0.8531  1.1107
  930MOL0     H28296   1.810   0.589   9.142  0.9325 -1.9973  0.4837
  930MOL0     H28297   1.929   0.705   9.185 -1.6700  1.1588 -1.5794
  930MOL0     H28298   2.062   0.646   9.504 -0.2657  0.3200  0.5955
  930MOL0     H28299   2.246   0.495   9.650 -3.2295 -0.2973 -0.4971
  930MOL0     H28300   2.298   0.641   9.559  2.1961  0.1409 -5.3277
  930MOL0     H28301   2.393   0.496   9.548  0.7107  1.1639  2.6622
  930MOL0     H28302   2.326  -0.000   9.353  0.6873 -0.4241  1.0400
  930MOL0     H28303   2.467  -0.201   9.335 -0.9713 -0.4547 -2.4568
  930MOL0     H28304   2.653  -0.349   9.382 -2.6195  1.7283  0.1058
  930MOL0     H28305   2.591  -0.348   9.216  0.8846  0.5187 -2.9251
  930MOL0     H28306   2.896  -0.385   9.275  0.4798  0.3073 -2.1397
  930MOL0     H28307   2.781  -0.524   9.282 -2.6613  0.1661 -3.1493
  930MOL0     H28308   2.904  -0.488   9.066  1.2439  2.4673 -0.4429
  930MOL0     H28309   2.836  -0.328   9.055  1.3208 -0.7712 -0.9259
  930MOL0     H28310   2.626  -0.394   9.019 -3.6325 -1.8651 -0.3356
  930MOL0     H28311   2.659  -0.571   9.037  4.0604 -1.6928  0.7234
  930MOL0     H28312   2.785  -0.411   8.813  1.1747 -2.3626  0.4508
  930MOL0     H28313   2.782  -0.585   8.834 -1.4222 -0.9434 -1.4827
  930MOL0     H28314   2.517  -0.445   8.817 -1.5890 -1.0150  0.4677
  930MOL0     H28315   2.553  -0.614   8.813 -1.2489  1.4356  0.0121
  930MOL0     H28316   2.650  -0.410   8.602 -0.1593 -0.6278 -2.5321
  930MOL0     H28317   2.500  -0.497   8.594  0.4900 -2.2095  1.8563
  930MOL0     H28318   2.607  -0.719   8.596 -2.3239  1.2406 -1.0770
  930MOL0     H28319   2.770  -0.635   8.602  0.2142  1.2974 -1.7960
  930MOL0     H28320   2.790   0.048   9.184 -1.3270  4.0788 -2.3366
  930MOL0     H28321   2.627   0.235   9.176  1.6063 -0.8486  0.0817
  930MOL0     H28322   2.112   0.256   9.192  0.3614  2.7481 -1.8546
  930MOL0     H28323   1.904   0.376   9.196 -1.7985  1.6631  1.0108
  930MOL0     H28324   2.911   1.096   9.673  1.6857  3.0595  1.3529
  930MOL0     H28325   2.927   0.876   9.772  1.1221  1.5108  0.1366
  930MOL0     H28326   2.725   0.734  10.261 -1.7846  0.9192 -1.2212
  930MOL0     H28327   2.702   0.563  10.433  1.0665 -5.5065  1.0743
  930MOL0     H28328   2.769   0.145  10.292  0.0285  0.8475 -0.3380
  930MOL0     H28329   2.858   0.189  10.435  1.6510  4.0197 -3.9035
  930MOL0     H28330   2.567   0.082  10.413 -0.0207 -0.5240  0.5967
  930MOL0     H28331   2.627   0.144  10.565 -0.8947  3.3965 -0.7872
  930MOL0     H28332   2.741  -0.084  10.393  1.2879 -3.7147  2.1964
  930MOL0     H28333   2.801  -0.037  10.561 -1.8810 -1.3966  3.7143
  930MOL0     H28334   2.528  -0.112  10.490 -1.3743  1.1470  0.7246
  930MOL0     H28335   2.566  -0.077  10.659 -3.5503 -0.1010 -0.3787
  930MOL0     H28336   2.669  -0.461  10.691 -2.8953 -1.0740 -2.8318
  930MOL0     H28337   2.819   0.266  10.152 -0.3322 -0.7406  2.0361
  930MOL0     H28338   2.911   0.472   9.866 -1.0320  0.9220  1.1701
  930MOL0     H28339   3.022   0.405   9.989  0.8694  1.3376  1.4893
  930MOL0     H28340   2.868   0.317   9.941 -1.5407  1.0319  0.8727
  931MOL0     O28341  11.484   1.598   6.097  0.5110 -0.4772  0.3871
  931MOL0     C28342  11.534   1.711   6.083  0.9871 -0.5346 -0.0152
  931MOL0     O28343  11.614   1.749   5.984 -0.7112  0.7455 -0.5923
  931MOL0     C28344  11.648   1.650   5.892 -0.9385  0.0432 -0.4312
  931MOL0     C28345  11.735   1.541   5.931  1.0962 -0.1541 -0.4871
  931MOL0     C28346  11.769   1.441   5.836 -0.8279 -0.4158  0.2941
  931MOL0     C28347  11.730   1.457   5.702  0.0617  0.3285  0.2823
  931MOL0     O28348  11.755   1.351   5.610  0.5637 -0.5569  0.4753
  931MOL0     C28349  11.874   1.275   5.613 -0.8358 -0.1931  0.4332
  931MOL0     C28350  11.862   1.134   5.679 -0.5443  0.5616  0.5951
  931MOL0     C28351  12.006   1.084   5.711 -0.3872  0.4374 -0.2832
  931MOL0     C28352  11.985   0.935   5.768  0.1855 -0.5440  0.5800
  931MOL0     C28353  12.116   0.871   5.823 -0.1286 -0.0512  0.3516
  931MOL0     C28354  12.117   0.716   5.849  0.5792  1.0879  0.8887
  931MOL0     C28355  12.093   0.619   5.724 -0.5305  0.1318 -0.3076
  931MOL0     C28356  12.079   0.462   5.764 -0.5045  0.0794 -0.6449
  931MOL0     N28357  12.005   0.456   5.886  0.4901 -1.3031 -0.0279
  931MOL0     C28358  11.872   0.482   5.903  0.8381  0.0379 -0.1343
  931MOL0     C28359  11.850   0.476   6.039  0.6043 -0.1559 -0.4004
  931MOL0     C28360  11.726   0.492   6.116  0.1280 -0.7432  0.0699
  931MOL0     C28361  11.713   0.387   6.214 -0.1712  0.4546 -0.2428
  931MOL0     C28362  11.578   0.405   6.285 -0.2468  0.2962 -0.3662
  931MOL0     C28363  11.565   0.310   6.405  0.3637  1.0963  0.7082
  931MOL0     O28364  11.457   0.371   6.488  0.3249 -0.2091  0.7920
  931MOL0     C28365  11.388   0.293   6.577  0.1896 -0.1559 -0.4694
  931MOL0     C28366  11.284   0.345   6.647 -0.1704  0.6741 -0.1019
  931MOL0     C28367  11.196   0.264   6.728  0.1770 -0.2199 -0.3986
  931MOL0     C28368  11.085   0.341   6.801  0.4023  0.6635 -1.0305
  931MOL0     C28369  11.221   0.131   6.752  0.0183  0.8777 -0.1741
  931MOL0     C28370  11.144   0.028   6.830 -0.3759 -0.3746  0.1544
  931MOL0     O28371  11.036   0.077   6.905  0.1072  0.4853 -0.2116
  931MOL0     C28372  10.955  -0.020   6.965 -0.3926 -0.4017 -0.1158
  931MOL0     C28373  10.907  -0.133   6.898  0.2677  1.0536 -0.3605
  931MOL0     C28374  10.809  -0.223   6.953 -0.4844  0.3622  0.6796
  931MOL0     C28375  10.778  -0.207   7.086 -0.8092 -0.6527 -0.4616
  931MOL0     O28376  10.689  -0.286   7.149  0.5121 -0.4282  0.7613
  931MOL0     C28377  10.669  -0.421   7.107 -0.0898  0.1833  0.2943
  931MOL0     C28378  10.550  -0.443   7.011  0.0670 -0.1865 -0.3509
  931MOL0     C28379  10.503  -0.589   7.012 -0.2889 -0.9745 -0.1151
  931MOL0     C28380  10.389  -0.623   6.919 -0.9406 -0.0323  0.9104
  931MOL0     C28381  10.284  -0.718   6.992  1.0126 -0.8782 -0.1442
  931MOL0     C28382  10.160  -0.769   6.914  0.9787  0.6340  0.1441
  931MOL0     C28383  10.068  -0.651   6.877 -0.0314 -0.3801  0.1923
  931MOL0     C28384   9.921  -0.693   6.867 -0.3227  0.5636  0.2201
  931MOL0    Cl28385   9.851  -0.736   7.028 -0.2780 -0.1895 -0.5529
  931MOL0     C28386  10.834  -0.099   7.158  0.8189 -0.5296 -0.4635
  931MOL0     C28387  10.913  -0.002   7.101 -0.7176  0.1383  0.4488
  931MOL0     O28388  11.174  -0.097   6.819  0.5161  0.8198  0.3470
  931MOL0     C28389  11.344   0.077   6.686 -0.2387  0.4427  0.2933
  931MOL0     C28390  11.425   0.162   6.603  0.2302 -0.2763  0.0143
  931MOL0     N28391  11.967   0.446   6.096 -0.8114  0.4847 -1.3514
  931MOL0     N28392  12.069   0.458   6.008 -0.3488  0.7011 -0.1111
  931MOL0     C28393  11.648   1.556   5.664 -0.1158  0.2015  0.5758
  931MOL0     C28394  11.610   1.662   5.758  0.2758 -0.2105  0.6643
  931MOL0     C28395  11.480   1.814   6.184 -0.3241  0.1157  0.2134
  931MOL0     C28396  11.548   1.934   6.198 -0.2870 -0.8163  0.1995
  931MOL0     C28397  11.507   2.040   6.283 -1.2788  0.4314  0.5423
  931MOL0     C28398  11.401   2.017   6.363 -0.6696 -1.2843 -0.1936
  931MOL0     O28399  11.370   2.096   6.471  0.6149 -0.9530 -0.3260
  931MOL0     C28400  11.417   2.229   6.485  1.0979 -0.2338  0.0265
  931MOL0     C28401  11.390   2.321   6.371  1.2274 -0.8209  0.3591
  931MOL0     C28402  11.247   2.371   6.366  0.2914 -0.2185 -0.0665
  931MOL0     C28403  11.211   2.427   6.223  0.6483  0.2473 -0.5688
  931MOL0     C28404  11.071   2.477   6.225  0.4797  0.9421 -0.1429
  931MOL0     C28405  10.956   2.523   6.215  0.4717  0.3693  0.1543
  931MOL0     C28406  11.329   1.901   6.350 -0.1526 -0.8759  0.0224
  931MOL0     C28407  11.355   1.801   6.251 -0.0332  0.5666 -0.1720
  931MOL0     C28408  11.258   1.689   6.232  0.3554 -1.4194 -0.0330
  931MOL0     H28409  11.777   1.539   6.031  0.0666 -1.7042 -0.0549
  931MOL0     H28410  11.812   1.346   5.869  0.2235 -0.2777 -0.6124
  931MOL0     H28411  11.956   1.334   5.656  0.6304 -0.3638 -1.9304
  931MOL0     H28412  11.913   1.262   5.512  1.9543  0.5409  1.3034
  931MOL0     H28413  11.795   1.137   5.765 -1.2123  1.7387  0.0544
  931MOL0     H28414  11.835   1.064   5.599  2.5155  0.1518 -0.2436
  931MOL0     H28415  12.069   1.088   5.621 -3.7633  1.9250 -2.8232
  931MOL0     H28416  12.049   1.142   5.793 -0.4206  0.5288 -0.3302
  931MOL0     H28417  11.900   0.931   5.837 -1.1295 -0.2974 -0.9647
  931MOL0     H28418  11.948   0.872   5.686 -0.0456  0.7755 -0.3656
  931MOL0     H28419  12.147   0.930   5.910 -0.2635 -0.1917  0.4938
  931MOL0     H28420  12.192   0.889   5.746 -1.3215 -2.2430 -1.4412
  931MOL0     H28421  12.214   0.695   5.894  2.1491  0.4970 -2.4575
  931MOL0     H28422  12.029   0.702   5.913 -0.8554  1.0359 -1.0012
  931MOL0     H28423  12.176   0.630   5.654 -1.8732 -0.3377 -2.0442
  931MOL0     H28424  12.006   0.650   5.664  0.0359  2.3368 -0.0635
  931MOL0     H28425  12.019   0.412   5.687 -2.4347 -2.4373  2.2550
  931MOL0     H28426  12.178   0.417   5.778  0.6607  3.3169  3.3919
  931MOL0     H28427  11.800   0.512   5.827 -1.3035  1.1728  2.1811
  931MOL0     H28428  11.638   0.486   6.052 -1.2278  0.3812  1.7332
  931MOL0     H28429  11.736   0.583   6.175  2.6588 -2.6068  2.8192
  931MOL0     H28430  11.709   0.289   6.165 -0.7424  0.6764 -0.6426
  931MOL0     H28431  11.797   0.369   6.283 -0.4447 -1.0718 -0.2656
  931MOL0     H28432  11.573   0.508   6.321 -2.1263  0.7905 -1.8814
  931MOL0     H28433  11.503   0.385   6.208  0.2844 -1.2666 -0.5150
  931MOL0     H28434  11.543   0.208   6.373 -0.8403  0.9249  1.9657
  931MOL0     H28435  11.659   0.298   6.460 -1.3105 -1.9886  3.2729
  931MOL0     H28436  11.256   0.447   6.625 -0.2213  0.4604 -1.0825
  931MOL0     H28437  11.101   0.334   6.909 -0.2631 -0.7306 -1.0163
  931MOL0     H28438  10.993   0.296   6.765  2.5162 -1.3541 -4.4657
  931MOL0     H28439  11.098   0.447   6.775  0.3898  0.0753 -3.7045
  931MOL0     H28440  10.936  -0.138   6.794 -1.3714 -0.4384 -0.7917
  931MOL0     H28441  10.763  -0.290   6.881  1.1419  0.3578 -0.3984
  931MOL0     H28442  10.755  -0.457   7.050 -1.0210 -0.0476 -1.0274
  931MOL0     H28443  10.641  -0.475   7.198 -0.8235 -0.2033 -0.1483
  931MOL0     H28444  10.461  -0.383   7.032  1.7833  3.9270 -3.4761
  931MOL0     H28445  10.575  -0.422   6.906 -1.6831 -1.8254 -1.1520
  931MOL0     H28446  10.465  -0.612   7.112 -0.2035  1.4511  0.5372
  931MOL0     H28447  10.583  -0.659   6.986 -0.7309 -0.7065 -2.4176
  931MOL0     H28448  10.422  -0.676   6.828  0.9848 -0.3802  1.7544
  931MOL0     H28449  10.350  -0.522   6.910  3.5548  1.9668  1.1267
  931MOL0     H28450  10.338  -0.806   7.027  0.5356 -0.3714  2.0204
  931MOL0     H28451  10.238  -0.674   7.081  1.1740  1.6611 -1.2346
  931MOL0     H28452  10.109  -0.847   6.972 -1.4208  2.1536  0.1866
  931MOL0     H28453  10.195  -0.825   6.827  1.0078  0.2271  0.4119
  931MOL0     H28454  10.105  -0.611   6.782  1.6875  2.3827  1.8821
  931MOL0     H28455  10.066  -0.578   6.959 -1.1915 -1.4082  1.1171
  931MOL0     H28456   9.917  -0.783   6.804 -2.0292  2.5825 -2.7673
  931MOL0     H28457   9.855  -0.627   6.810 -0.8463  2.4042  2.7859
  931MOL0     H28458  10.800  -0.087   7.260  1.8096  1.2172 -0.3008
  931MOL0     H28459  10.949   0.083   7.158  1.0406 -0.3546  0.1522
  931MOL0     H28460  11.382  -0.023   6.699  0.2507  0.7271  1.1694
  931MOL0     H28461  11.515   0.126   6.556 -0.8157 -3.1781  0.0651
  931MOL0     H28462  11.632   1.562   5.557 -0.1284 -1.7148  0.4328
  931MOL0     H28463  11.551   1.748   5.731  0.9833 -0.7314 -2.9969
  931MOL0     H28464  11.643   1.954   6.149  0.6885 -1.8315  1.6113
  931MOL0     H28465  11.568   2.129   6.300  2.1740 -1.4413 -0.8993
  931MOL0     H28466  11.366   2.259   6.577  1.7992 -2.1306  1.0974
  931MOL0     H28467  11.523   2.238   6.512  0.9764  1.6308  0.0151
  931MOL0     H28468  11.396   2.266   6.277  0.1162  2.3363 -1.7092
  931MOL0     H28469  11.454   2.410   6.365 -2.0520  1.6389 -3.2279
  931MOL0     H28470  11.178   2.292   6.396  0.3357 -0.6730 -1.1012
  931MOL0     H28471  11.227   2.459   6.427 -0.9567  1.4233 -2.6989
  931MOL0     H28472  11.216   2.349   6.147 -2.9087 -0.4358 -0.2825
  931MOL0     H28473  11.269   2.515   6.192  0.4306  1.4579  2.1493
  931MOL0     H28474  10.856   2.558   6.202  0.8981  1.0685 -1.4445
  931MOL0     H28475  11.239   1.885   6.410  0.0748  1.3442  1.0291
  931MOL0     H28476  11.226   1.698   6.127 -0.6313  1.4200  0.4310
  931MOL0     H28477  11.283   1.585   6.256  0.9972 -1.8807 -2.4343
  931MOL0     H28478  11.171   1.715   6.292 -0.8121 -2.0398 -1.4029
  932MOL0     O28479   9.043   7.857   8.134  0.3074 -0.5308  0.9205
  932MOL0     C28480   9.016   7.974   8.105  0.0576  0.9863  1.2935
  932MOL0     O28481   9.090   8.052   8.025  0.0419 -0.0797  0.5781
  932MOL0     C28482   9.188   8.007   7.938  0.1295 -0.6881  0.2106
  932MOL0     C28483   9.194   7.878   7.887 -0.3396 -0.2844  0.2759
  932MOL0     C28484   9.302   7.837   7.803  0.0310 -0.3349 -0.0546
  932MOL0     C28485   9.387   7.935   7.753 -0.2510 -0.0880  0.2976
  932MOL0     O28486   9.475   7.919   7.648  0.3037  0.2390 -0.4381
  932MOL0     C28487   9.487   7.791   7.584 -0.0067  0.5762 -0.3057
  932MOL0     C28488   9.559   7.677   7.668 -0.6929  0.2488 -0.2346
  932MOL0     C28489   9.496   7.534   7.638 -0.5841  0.6834 -0.4789
  932MOL0     C28490   9.568   7.417   7.711  0.1568 -0.5247  0.9662
  932MOL0     C28491   9.559   7.277   7.656  0.6450  0.1609  0.4723
  932MOL0     C28492   9.412   7.224   7.634 -0.3628 -0.7177 -0.6052
  932MOL0     C28493   9.404   7.075   7.586  0.6123  0.3520 -0.5904
  932MOL0     C28494   9.274   7.017   7.648 -0.4594 -0.2516  0.0811
  932MOL0     N28495   9.153   7.076   7.586 -0.8069  0.3509  0.9134
  932MOL0     C28496   9.108   7.011   7.475 -0.2342  0.2313 -0.1369
  932MOL0     C28497   9.027   7.101   7.422 -0.1318 -0.7260 -0.5708
  932MOL0     C28498   8.963   7.085   7.281 -0.2183 -0.0654  0.0862
  932MOL0     C28499   8.814   7.114   7.263 -0.7790 -0.0981  0.6895
  932MOL0     C28500   8.770   7.141   7.125 -0.4784  0.0241  0.4449
  932MOL0     C28501   8.778   7.020   7.040 -1.4237  0.9124  0.6341
  932MOL0     O28502   8.760   7.046   6.899  0.1081  0.0164 -0.4214
  932MOL0     C28503   8.641   7.078   6.843  0.3429 -0.3653 -0.3397
  932MOL0     C28504   8.654   7.124   6.712 -0.0200 -0.2398 -0.4011
  932MOL0     C28505   8.543   7.184   6.652  0.7753  0.1989 -1.6206
  932MOL0     C28506   8.570   7.246   6.527 -0.6155 -0.6346  0.3674
  932MOL0     C28507   8.421   7.169   6.710  0.8767  0.9972 -0.0336
  932MOL0     C28508   8.292   7.212   6.637 -0.1802  0.0035  0.7613
  932MOL0     O28509   8.282   7.230   6.495 -0.5322  0.3957 -0.3432
  932MOL0     C28510   8.151   7.244   6.452 -0.1719 -0.6670 -0.3649
  932MOL0     C28511   8.096   7.137   6.383 -0.0880  0.6778 -0.5282
  932MOL0     C28512   7.971   7.159   6.322 -0.4068 -0.5815  0.1436
  932MOL0     C28513   7.915   7.282   6.313 -0.6574  0.0952 -0.3215
  932MOL0     O28514   7.806   7.315   6.235 -0.5940 -0.9350  0.2964
  932MOL0     C28515   7.788   7.242   6.117 -0.0079 -0.7285 -0.0969
  932MOL0     C28516   7.676   7.310   6.041  0.8596  0.5331  0.2613
  932MOL0     C28517   7.721   7.445   5.979 -0.6764  1.2350 -0.6052
  932MOL0     C28518   7.616   7.520   5.901  0.3583  0.4312 -0.1637
  932MOL0     C28519   7.648   7.672   5.911  0.8455 -0.7942 -0.4334
  932MOL0     C28520   7.554   7.766   5.844  0.0445  1.0440 -0.7148
  932MOL0     C28521   7.406   7.750   5.866  0.2873  0.1245 -0.1818
  932MOL0     C28522   7.361   7.859   5.960  0.6535  1.5303  0.3951
  932MOL0    Cl28523   7.374   8.017   5.879  0.8056  0.1260  0.2141
  932MOL0     C28524   7.972   7.389   6.376 -0.5707 -0.8060  0.1654
  932MOL0     C28525   8.088   7.368   6.459  1.0236 -0.8868  0.3907
  932MOL0     O28526   8.193   7.211   6.715  0.2960  0.1506  0.3028
  932MOL0     C28527   8.404   7.101   6.834 -0.1880 -0.0612  1.3388
  932MOL0     C28528   8.517   7.061   6.907 -0.9131 -0.3514  0.4679
  932MOL0     N28529   9.021   7.215   7.508  0.6753 -0.0176  0.7135
  932MOL0     N28530   9.113   7.199   7.596  0.7948 -0.0286 -0.0701
  932MOL0     C28531   9.385   8.063   7.805  0.8339 -0.1988  0.4159
  932MOL0     C28532   9.282   8.098   7.897 -0.4881  0.2568 -0.2253
  932MOL0     C28533   8.896   8.033   8.176  0.5087  0.1400 -0.3317
  932MOL0     C28534   8.829   8.146   8.119  0.0015  0.0142  0.2571
  932MOL0     C28535   8.725   8.208   8.186 -0.2080  0.2187  0.8055
  932MOL0     C28536   8.670   8.162   8.309 -0.5703  0.7605 -0.3778
  932MOL0     O28537   8.571   8.213   8.388  0.5341 -0.7275 -0.1592
  932MOL0     C28538   8.537   8.350   8.361  0.0466  1.0904 -0.8174
  932MOL0     C28539   8.414   8.395   8.443  0.3461  0.5594 -0.1911
  932MOL0     C28540   8.419   8.367   8.593 -0.2042 -0.2939  0.6564
  932MOL0     C28541   8.535   8.444   8.652  0.1838 -0.5699  0.4402
  932MOL0     C28542   8.511   8.591   8.638 -1.1554 -0.1650  0.1883
  932MOL0     C28543   8.498   8.713   8.620  0.8301 -0.1354 -0.1040
  932MOL0     C28544   8.729   8.046   8.359  1.3439 -0.4214 -0.0627
  932MOL0     C28545   8.849   7.989   8.302  0.7439  0.1167 -0.3746
  932MOL0     C28546   8.904   7.889   8.397 -0.3919  0.2594 -0.1415
  932MOL0     H28547   9.126   7.799   7.915 -1.5438 -0.3376 -2.4556
  932MOL0     H28548   9.303   7.732   7.776 -1.8509 -0.3085 -0.3428
  932MOL0     H28549   9.536   7.806   7.488 -1.3954 -1.2022 -1.3669
  932MOL0     H28550   9.388   7.749   7.562  0.3613 -0.1310 -0.6360
  932MOL0     H28551   9.665   7.676   7.639 -0.9183  1.6944 -1.2571
  932MOL0     H28552   9.566   7.688   7.777 -0.5596 -1.5442 -0.0317
  932MOL0     H28553   9.387   7.525   7.646 -0.7237  1.3250 -1.4417
  932MOL0     H28554   9.501   7.513   7.531  0.6938  0.0534 -0.3049
  932MOL0     H28555   9.671   7.452   7.703 -0.5551  1.1468 -2.4763
  932MOL0     H28556   9.540   7.410   7.817  1.1023 -0.5094  1.2230
  932MOL0     H28557   9.610   7.210   7.726 -1.7089 -0.1952  1.9534
  932MOL0     H28558   9.607   7.273   7.557  1.4986  0.3961  0.8693
  932MOL0     H28559   9.367   7.246   7.731  1.6883  1.0489  0.0208
  932MOL0     H28560   9.358   7.288   7.564 -1.0633  1.3396  1.6999
  932MOL0     H28561   9.497   7.018   7.596  0.3758  0.1167  0.4323
  932MOL0     H28562   9.386   7.073   7.478 -1.5620 -2.2857 -0.2998
  932MOL0     H28563   9.276   6.908   7.636 -0.2350 -0.1239 -1.1722
  932MOL0     H28564   9.278   7.047   7.753  3.4971  2.0753 -0.5328
  932MOL0     H28565   9.139   6.915   7.436  0.7448  0.6012 -0.3062
  932MOL0     H28566   8.978   6.979   7.258 -1.4943 -0.4791  1.0634
  932MOL0     H28567   9.012   7.147   7.205 -0.4131 -2.7435 -2.4120
  932MOL0     H28568   8.756   7.028   7.299 -2.4644 -0.7268 -2.9503
  932MOL0     H28569   8.793   7.205   7.319  3.8498 -0.0885  2.8802
  932MOL0     H28570   8.663   7.160   7.131 -0.9207 -2.1514 -0.0090
  932MOL0     H28571   8.828   7.223   7.080 -0.2756 -0.4122 -0.1006
  932MOL0     H28572   8.862   6.956   7.068 -2.1573  0.0412  0.9138
  932MOL0     H28573   8.701   6.946   7.064 -0.4698 -0.6702 -1.0039
  932MOL0     H28574   8.753   7.128   6.667  0.2714 -0.9370  0.1503
  932MOL0     H28575   8.509   7.336   6.517 -0.1946 -0.2921  0.8422
  932MOL0     H28576   8.515   7.198   6.445 -2.9663  1.6951  0.4234
  932MOL0     H28577   8.673   7.263   6.495 -0.0362 -1.1720  1.8502
  932MOL0     H28578   8.132   7.035   6.380 -1.4604  0.0983 -5.0523
  932MOL0     H28579   7.927   7.069   6.279  2.1571 -4.1538  4.0565
  932MOL0     H28580   7.878   7.227   6.058 -0.0808  1.5166 -0.8843
  932MOL0     H28581   7.744   7.149   6.155  2.8426 -3.1612 -2.3068
  932MOL0     H28582   7.646   7.234   5.968  0.4188 -0.3107  1.2921
  932MOL0     H28583   7.589   7.330   6.105  0.0170 -1.0101 -0.3563
  932MOL0     H28584   7.798   7.431   5.903 -2.1666  1.8146 -2.2813
  932MOL0     H28585   7.749   7.512   6.061 -0.6557  2.1702 -1.3497
  932MOL0     H28586   7.509   7.503   5.916  0.2995 -0.8936 -1.7733
  932MOL0     H28587   7.636   7.485   5.799  0.8463 -1.6756  0.6110
  932MOL0     H28588   7.651   7.704   6.015  1.7971  0.4010 -0.8093
  932MOL0     H28589   7.750   7.690   5.876  0.5641  2.6407  0.1836
  932MOL0     H28590   7.582   7.744   5.740 -2.6629 -1.6061 -1.0108
  932MOL0     H28591   7.589   7.869   5.856 -0.3647  1.2239 -1.0607
  932MOL0     H28592   7.373   7.651   5.899 -0.4218 -0.5966 -2.8549
  932MOL0     H28593   7.363   7.771   5.768  1.6997 -0.3679 -0.9396
  932MOL0     H28594   7.423   7.849   6.050  4.1142 -0.0749 -1.9118
  932MOL0     H28595   7.256   7.836   5.977  0.0936  1.0835 -2.9992
  932MOL0     H28596   7.935   7.491   6.366  3.3277  0.6608 -1.9444
  932MOL0     H28597   8.124   7.457   6.509  1.0875  0.7670 -2.3618
  932MOL0     H28598   8.307   7.065   6.867  0.3969 -3.4635 -0.2027
  932MOL0     H28599   8.511   7.015   7.005 -2.6063  1.3618  1.2225
  932MOL0     H28600   9.457   8.142   7.788 -1.7051  1.7895 -1.9743
  932MOL0     H28601   9.282   8.199   7.938  4.5897  0.3768  0.2106
  932MOL0     H28602   8.849   8.186   8.021  5.0092  2.8998  2.0702
  932MOL0     H28603   8.700   8.304   8.142  1.0046  0.5685  0.8502
  932MOL0     H28604   8.622   8.413   8.390 -1.2384  2.0433  1.0820
  932MOL0     H28605   8.508   8.369   8.257 -2.1288 -1.1464 -0.7049
  932MOL0     H28606   8.329   8.338   8.407  0.3584 -2.1463  3.5075
  932MOL0     H28607   8.409   8.503   8.428  1.6645  0.5205 -1.1461
  932MOL0     H28608   8.322   8.404   8.629 -0.7112 -0.5437 -0.3899
  932MOL0     H28609   8.415   8.260   8.615 -0.1805 -0.3546  0.3725
  932MOL0     H28610   8.639   8.422   8.625  2.1590  4.1144  3.0917
  932MOL0     H28611   8.529   8.440   8.761 -0.8052  3.5010  0.6882
  932MOL0     H28612   8.478   8.815   8.595  1.9323 -0.0297 -0.6630
  932MOL0     H28613   8.684   8.014   8.452 -3.5573 -1.9955 -2.6386
  932MOL0     H28614   8.878   7.786   8.371  1.2055  0.3308 -2.3114
  932MOL0     H28615   9.012   7.896   8.381 -0.6260  4.0311 -1.0060
  932MOL0     H28616   8.879   7.920   8.499  0.0545 -0.2735  0.1297
  933MOL0     O28617   3.381   8.229   5.423  0.0833  0.0581 -0.3056
  933MOL0     C28618   3.384   8.111   5.461 -0.3488  0.8536  0.0480
  933MOL0     O28619   3.305   8.008   5.416 -0.5567 -0.1225 -0.4033
  933MOL0     C28620   3.226   8.002   5.303  0.3588 -0.1374 -0.7771
  933MOL0     C28621   3.203   7.875   5.253  0.0454  0.1086  0.1419
  933MOL0     C28622   3.157   7.856   5.120  0.5255  0.6527  0.1071
  933MOL0     C28623   3.116   7.958   5.040  0.2969 -1.1583 -0.1066
  933MOL0     O28624   3.075   7.926   4.916  1.0003 -0.5925 -0.6456
  933MOL0     C28625   3.081   8.016   4.805  0.5254  0.3787 -0.0414
  933MOL0     C28626   3.029   7.933   4.682 -0.5346 -0.1652 -0.3184
  933MOL0     C28627   3.145   7.849   4.621 -0.6325  0.3914 -0.3843
  933MOL0     C28628   3.100   7.735   4.525 -0.2926 -0.3136 -0.1594
  933MOL0     C28629   3.218   7.703   4.434  0.4057 -0.9134  0.1942
  933MOL0     C28630   3.184   7.602   4.325 -0.2887  0.6544  0.0746
  933MOL0     C28631   3.313   7.578   4.245  0.0009 -0.2939  0.4564
  933MOL0     C28632   3.286   7.473   4.123  0.0509 -0.1935 -0.1875
  933MOL0     N28633   3.268   7.530   3.994  0.4553  0.0982  0.5682
  933MOL0     C28634   3.141   7.549   3.943 -0.4417  0.3428  0.0680
  933MOL0     C28635   3.166   7.535   3.801 -0.1146  0.5680  0.3496
  933MOL0     C28636   3.050   7.524   3.708  0.3765 -0.0741 -0.5762
  933MOL0     C28637   3.093   7.537   3.568  0.3193 -0.2396  0.4149
  933MOL0     C28638   2.982   7.515   3.469 -0.2381 -0.1005 -0.0068
  933MOL0     C28639   2.894   7.384   3.489 -0.3331  0.3253 -0.5585
  933MOL0     O28640   2.789   7.387   3.589  0.2615  0.3373  0.3729
  933MOL0     C28641   2.688   7.466   3.578  0.3240 -0.2154 -0.1306
  933MOL0     C28642   2.636   7.529   3.459 -0.7544  0.0074  0.1166
  933MOL0     C28643   2.521   7.598   3.470 -0.0547 -0.4282 -0.2780
  933MOL0     C28644   2.463   7.641   3.339 -0.7885  0.5409  0.2084
  933MOL0     C28645   2.458   7.626   3.598 -0.1105 -0.2393 -0.1836
  933MOL0     C28646   2.329   7.705   3.606  0.0395  0.1694 -0.0412
  933MOL0     O28647   2.238   7.706   3.505  0.1784 -0.1823 -0.4360
  933MOL0     C28648   2.142   7.800   3.500 -0.0988 -0.2790 -0.4046
  933MOL0     C28649   2.171   7.938   3.475 -0.3854  0.2109  0.6535
  933MOL0     C28650   2.057   8.031   3.474  0.7490 -0.9561 -0.4384
  933MOL0     C28651   1.929   7.986   3.504 -0.7743  0.0446  0.2388
  933MOL0     O28652   1.840   8.084   3.529  0.2421  0.4095 -0.0252
  933MOL0     C28653   1.708   8.043   3.504 -0.3119  0.6024 -0.2322
  933MOL0     C28654   1.616   8.152   3.461 -0.2080  1.0494 -0.0845
  933MOL0     C28655   1.568   8.247   3.572  0.3395  0.5942  0.2008
  933MOL0     C28656   1.460   8.355   3.526  0.3915  0.3672 -0.1606
  933MOL0     C28657   1.424   8.459   3.635 -0.3796  0.2706 -0.0469
  933MOL0     C28658   1.321   8.555   3.578 -0.7905 -0.3044 -0.0627
  933MOL0     C28659   1.301   8.676   3.670  0.8341  0.0522 -0.7810
  933MOL0     C28660   1.168   8.751   3.626  0.0626  0.2302 -0.6026
  933MOL0    Cl28661   1.132   8.884   3.733  0.3261 -0.3377 -0.7930
  933MOL0     C28662   1.911   7.854   3.527  0.6893 -0.2953 -0.6198
  933MOL0     C28663   2.010   7.762   3.527  0.1992 -0.1103 -0.5972
  933MOL0     O28664   2.306   7.760   3.716  0.0550 -0.3008  0.1427
  933MOL0     C28665   2.523   7.574   3.719  0.1709  0.2634 -0.5789
  933MOL0     C28666   2.632   7.494   3.704  0.0017  0.3479  0.5807
  933MOL0     N28667   3.301   7.511   3.784  0.0032 -0.0772 -0.4612
  933MOL0     N28668   3.355   7.493   3.893 -0.3732 -0.1462 -0.1722
  933MOL0     C28669   3.114   8.087   5.102 -0.4006  0.6136 -0.5385
  933MOL0     C28670   3.174   8.113   5.226  0.1377 -0.1839 -0.8614
  933MOL0     C28671   3.477   8.065   5.564 -0.8503 -0.2471  0.2847
  933MOL0     C28672   3.605   8.133   5.564  0.2744 -0.0899  0.4920
  933MOL0     C28673   3.702   8.092   5.655 -0.3547 -0.7918 -0.2764
  933MOL0     C28674   3.685   7.995   5.748 -0.8332  0.0482 -0.1650
  933MOL0     O28675   3.783   7.975   5.838 -0.8702 -0.1206 -0.4708
  933MOL0     C28676   3.765   7.904   5.962  0.3664 -0.0691 -0.0825
  933MOL0     C28677   3.854   7.969   6.068 -0.0353 -0.4306 -0.2781
  933MOL0     C28678   3.829   8.118   6.109  0.7165  0.3708  0.6668
  933MOL0     C28679   3.705   8.134   6.199 -0.1479  0.1972  1.0465
  933MOL0     C28680   3.574   8.130   6.132 -1.0105  0.2519  0.6453
  933MOL0     C28681   3.469   8.120   6.071 -0.1763 -0.0917 -1.0646
  933MOL0     C28682   3.562   7.930   5.750 -0.2564  0.4917  0.3548
  933MOL0     C28683   3.458   7.970   5.663  0.1899 -0.6335  0.3667
  933MOL0     C28684   3.320   7.911   5.688  0.7939  0.2530 -0.1314
  933MOL0     H28685   3.236   7.784   5.301 -0.3227 -0.4619 -0.6737
  933MOL0     H28686   3.152   7.759   5.072  1.1905 -0.5304  2.3452
  933MOL0     H28687   3.178   8.059   4.777  0.2694  1.9198  1.3485
  933MOL0     H28688   3.011   8.092   4.837  0.7248 -0.3325  2.2860
  933MOL0     H28689   2.954   7.869   4.729 -1.2528  0.4631 -0.5815
  933MOL0     H28690   2.974   7.995   4.610 -3.8619  0.0751  2.2066
  933MOL0     H28691   3.213   7.918   4.570  0.8162 -0.8049 -0.1184
  933MOL0     H28692   3.200   7.798   4.700  0.2751  1.3589 -0.3784
  933MOL0     H28693   3.063   7.648   4.580 -0.7613 -0.9083 -1.3680
  933MOL0     H28694   3.014   7.766   4.465  0.1959  0.8445 -0.2835
  933MOL0     H28695   3.296   7.663   4.500  1.3995 -2.9018 -2.0680
  933MOL0     H28696   3.259   7.791   4.384 -1.2904 -0.0913  0.1775
  933MOL0     H28697   3.150   7.512   4.378  1.3445  1.3071  2.3607
  933MOL0     H28698   3.110   7.649   4.259  0.9127  0.8887 -1.1514
  933MOL0     H28699   3.382   7.529   4.315 -1.2376 -2.5905  0.1983
  933MOL0     H28700   3.363   7.663   4.199  0.1157 -1.2951 -1.3549
  933MOL0     H28701   3.374   7.409   4.112 -0.9481 -1.3360 -1.9910
  933MOL0     H28702   3.211   7.398   4.149  1.0273 -1.5924 -1.2372
  933MOL0     H28703   3.050   7.557   4.000  0.6615 -1.9086  2.3309
  933MOL0     H28704   2.983   7.607   3.731  1.4462  0.0735  2.5840
  933MOL0     H28705   2.995   7.432   3.733  0.4427  0.0111 -0.1023
  933MOL0     H28706   3.146   7.632   3.554 -0.2269  0.2731  1.6992
  933MOL0     H28707   3.172   7.466   3.541 -0.1882  0.1607 -2.3864
  933MOL0     H28708   2.927   7.610   3.463  0.7502  0.7724  3.1451
  933MOL0     H28709   3.021   7.503   3.367 -3.1734 -1.9375 -1.0605
  933MOL0     H28710   2.852   7.357   3.392  1.1444 -1.2991 -0.7898
  933MOL0     H28711   2.957   7.300   3.519 -1.3376 -0.9834 -1.9418
  933MOL0     H28712   2.674   7.523   3.357 -2.4110  1.9171 -0.6798
  933MOL0     H28713   2.449   7.749   3.344  2.0092  0.9597  0.7680
  933MOL0     H28714   2.361   7.601   3.331 -1.6142  2.2635  1.4806
  933MOL0     H28715   2.504   7.604   3.245 -3.3114 -1.1251 -0.3483
  933MOL0     H28716   2.275   7.962   3.457 -0.3894  0.6286  1.1879
  933MOL0     H28717   2.063   8.139   3.458  1.3597 -0.8151  0.6438
  933MOL0     H28718   1.697   7.969   3.424  0.2527  0.4455 -0.1702
  933MOL0     H28719   1.682   8.000   3.601  1.6237 -2.8725 -1.0834
  933MOL0     H28720   1.672   8.213   3.389 -2.4294  1.1294 -1.8306
  933MOL0     H28721   1.529   8.106   3.415 -0.4243 -0.3240  1.6125
  933MOL0     H28722   1.658   8.294   3.610  1.7139 -2.4799  1.0826
  933MOL0     H28723   1.523   8.190   3.654 -0.0559 -1.4251 -1.3247
  933MOL0     H28724   1.372   8.301   3.490  1.6639 -0.7796 -1.6899
  933MOL0     H28725   1.495   8.414   3.441  0.6694 -0.7583 -0.8553
  933MOL0     H28726   1.376   8.422   3.726  0.8399  0.7190  0.8032
  933MOL0     H28727   1.520   8.498   3.669 -0.0282 -1.9866  1.8690
  933MOL0     H28728   1.225   8.503   3.585 -1.0444  0.2107  0.3628
  933MOL0     H28729   1.357   8.575   3.477 -0.3657 -2.7078 -0.4683
  933MOL0     H28730   1.390   8.738   3.658  1.2302 -0.4608 -0.5461
  933MOL0     H28731   1.296   8.646   3.775  4.0172 -2.9866 -1.2942
  933MOL0     H28732   1.088   8.677   3.627 -0.1707  0.4821  0.1337
  933MOL0     H28733   1.177   8.792   3.525 -0.4956 -0.6719 -1.0218
  933MOL0     H28734   1.812   7.812   3.543  0.4394 -0.1069 -1.5849
  933MOL0     H28735   1.990   7.657   3.547 -3.6022  0.6382  0.3879
  933MOL0     H28736   2.487   7.581   3.821 -0.1782 -1.9502 -0.4975
  933MOL0     H28737   2.679   7.444   3.788  1.0379  0.5018  0.1178
  933MOL0     H28738   3.100   8.160   5.023  0.3728  2.8737  1.2979
  933MOL0     H28739   3.199   8.215   5.251 -1.4259 -0.4418  2.1945
  933MOL0     H28740   3.632   8.207   5.489 -1.6123  1.0374  0.8570
  933MOL0     H28741   3.800   8.140   5.656  0.7840 -2.9736  1.1865
  933MOL0     H28742   3.666   7.895   6.006  0.9755 -1.5508  1.0874
  933MOL0     H28743   3.799   7.801   5.944 -1.2889 -0.7578  0.5563
  933MOL0     H28744   3.957   7.965   6.031 -0.4871 -1.0249 -1.5234
  933MOL0     H28745   3.842   7.913   6.162  1.0929  2.0336  1.4584
  933MOL0     H28746   3.913   8.157   6.166 -0.2327  0.8763  1.7630
  933MOL0     H28747   3.809   8.176   6.018  0.5893  0.6332  0.8618
  933MOL0     H28748   3.717   8.225   6.258 -0.6004  0.4095  0.8159
  933MOL0     H28749   3.709   8.050   6.269  0.9238  1.2055  2.2497
  933MOL0     H28750   3.369   8.113   6.035 -0.3425 -1.1578 -0.4562
  933MOL0     H28751   3.549   7.846   5.819  0.2934 -0.0022 -0.1340
  933MOL0     H28752   3.244   7.987   5.667 -1.0270 -1.1792  0.9228
  933MOL0     H28753   3.298   7.817   5.637  0.8037  0.3227 -0.2649
  933MOL0     H28754   3.302   7.898   5.795  0.8560  2.2708  0.1570
  934MOL0     O28755   4.932   2.405   5.740  0.2766  0.5496  0.3821
  934MOL0     C28756   4.864   2.412   5.844 -0.6121  0.7343  0.4775
  934MOL0     O28757   4.908   2.480   5.957 -0.6681 -0.0754  0.4334
  934MOL0     C28758   5.042   2.520   5.961  0.2600  0.0074  0.6225
  934MOL0     C28759   5.152   2.430   5.953  0.5758  0.8596  0.3287
  934MOL0     C28760   5.284   2.468   5.963  0.8340 -0.3727  0.4275
  934MOL0     C28761   5.305   2.609   5.976  0.0119 -0.1749 -0.9437
  934MOL0     O28762   5.432   2.663   5.981  0.2962  0.5193  0.4484
  934MOL0     C28763   5.536   2.595   5.918 -0.7524 -0.4980 -0.3321
  934MOL0     C28764   5.600   2.677   5.807  1.2420 -0.3207  0.0140
  934MOL0     C28765   5.501   2.727   5.695 -0.7627  0.0649  1.4991
  934MOL0     C28766   5.583   2.812   5.603 -0.1234 -0.1356 -0.6827
  934MOL0     C28767   5.505   2.795   5.476  0.3474 -0.6710  0.1701
  934MOL0     C28768   5.567   2.885   5.366  0.7559 -0.5659 -0.1093
  934MOL0     C28769   5.512   2.850   5.229 -0.6209  0.7890  0.7254
  934MOL0     C28770   5.377   2.909   5.189  0.1985 -0.8475 -0.3992
  934MOL0     N28771   5.394   3.054   5.157  0.3674  0.5811 -0.6029
  934MOL0     C28772   5.315   3.153   5.210 -0.6379  0.9187  0.5199
  934MOL0     C28773   5.364   3.265   5.161  0.1468 -0.0341 -0.4384
  934MOL0     C28774   5.327   3.392   5.222 -1.2903  0.1392  0.6907
  934MOL0     C28775   5.280   3.475   5.101  0.6800  0.8387  0.1747
  934MOL0     C28776   5.225   3.619   5.156 -0.3502  0.2578 -0.6741
  934MOL0     C28777   5.342   3.705   5.204  0.2568  1.3378  0.5403
  934MOL0     O28778   5.336   3.761   5.338 -0.4205 -0.8192 -0.0423
  934MOL0     C28779   5.463   3.799   5.386 -0.1522 -0.4040  0.9571
  934MOL0     C28780   5.529   3.736   5.497  0.1545 -0.4847 -0.7495
  934MOL0     C28781   5.639   3.791   5.551  0.8375  1.0631  0.1314
  934MOL0     C28782   5.680   3.725   5.682  0.3054  0.2219  0.0056
  934MOL0     C28783   5.710   3.900   5.494  0.4416 -0.1682  0.5078
  934MOL0     C28784   5.828   3.960   5.555 -0.3062  0.8906 -0.6783
  934MOL0     O28785   5.829   4.094   5.561 -0.6487 -0.8374 -0.8248
  934MOL0     C28786   5.918   4.166   5.631  0.3845 -0.9305 -0.0680
  934MOL0     C28787   5.984   4.271   5.572  1.2233 -0.4216 -0.1357
  934MOL0     C28788   6.090   4.333   5.641  0.4668  0.5665 -0.3358
  934MOL0     C28789   6.120   4.304   5.775  0.6200  0.0482  0.8495
  934MOL0     O28790   6.204   4.392   5.836 -0.5846 -0.5766 -0.3170
  934MOL0     C28791   6.260   4.354   5.964 -0.3604 -0.7789  0.3916
  934MOL0     C28792   6.314   4.483   6.025  0.5480  0.7749 -0.6846
  934MOL0     C28793   6.447   4.522   5.961  0.7185 -0.4949 -0.0115
  934MOL0     C28794   6.495   4.660   5.996  0.3372 -0.1991  0.4216
  934MOL0     C28795   6.630   4.691   5.925  0.7004  0.3074  0.2559
  934MOL0     C28796   6.690   4.812   5.988  0.1381 -0.9927 -0.7575
  934MOL0     C28797   6.770   4.769   6.116  0.0987  0.2468  0.2263
  934MOL0     C28798   6.871   4.660   6.092 -0.6370 -0.9647 -0.8192
  934MOL0    Cl28799   6.986   4.708   5.959  0.0239  0.2356 -0.1487
  934MOL0     C28800   6.054   4.193   5.828 -0.5855  0.4453 -0.4363
  934MOL0     C28801   5.954   4.122   5.759  0.2349  0.2252 -0.8387
  934MOL0     O28802   5.909   3.885   5.608  0.3998 -1.0462  0.6224
  934MOL0     C28803   5.649   3.958   5.378 -0.0475  0.7241  0.0234
  934MOL0     C28804   5.531   3.904   5.326 -0.3457 -0.1539  0.8261
  934MOL0     N28805   5.465   3.237   5.073 -0.1820 -0.3906  0.2218
  934MOL0     N28806   5.474   3.114   5.057 -0.3444 -0.3517 -1.0198
  934MOL0     C28807   5.199   2.698   5.998  0.3224  0.0761  0.4664
  934MOL0     C28808   5.067   2.653   5.988 -0.3529 -0.2836  0.1074
  934MOL0     C28809   4.731   2.365   5.850  1.2003  0.2967  0.4202
  934MOL0     C28810   4.646   2.432   5.937  0.3312 -0.1000  0.1581
  934MOL0     C28811   4.505   2.402   5.931 -1.0424 -1.0542  0.1411
  934MOL0     C28812   4.455   2.306   5.844 -0.0498 -0.2795  0.2818
  934MOL0     O28813   4.320   2.286   5.858 -0.1101  0.8259  0.2668
  934MOL0     C28814   4.257   2.204   5.760  0.3328  0.4953 -0.3254
  934MOL0     C28815   4.224   2.272   5.625  0.4312 -0.1839  0.8074
  934MOL0     C28816   4.146   2.414   5.618  0.0673 -0.1838 -0.1754
  934MOL0     C28817   4.066   2.437   5.486  0.1762  1.2078  0.1433
  934MOL0     C28818   3.982   2.549   5.473  0.4000 -0.2121  0.9898
  934MOL0     C28819   3.931   2.657   5.473 -0.2639  0.3884  0.4756
  934MOL0     C28820   4.545   2.234   5.758  0.4436 -0.1086  0.1990
  934MOL0     C28821   4.682   2.261   5.761  0.3909 -0.0167  0.6168
  934MOL0     C28822   4.765   2.185   5.655  0.2401 -0.2053  0.6979
  934MOL0     H28823   5.114   2.335   5.919 -3.3159  1.9797  1.0879
  934MOL0     H28824   5.362   2.394   5.945  1.5387  0.8145 -1.8558
  934MOL0     H28825   5.504   2.502   5.870  2.5196 -1.7297 -0.3995
  934MOL0     H28826   5.600   2.558   5.998 -1.9621 -2.9506 -0.4113
  934MOL0     H28827   5.662   2.758   5.846  2.0835 -0.6997 -0.4980
  934MOL0     H28828   5.678   2.615   5.761  1.4869  0.6586 -0.9309
  934MOL0     H28829   5.449   2.643   5.648 -0.1528  1.6244 -2.2853
  934MOL0     H28830   5.418   2.787   5.734 -1.0011  1.1399 -0.5271
  934MOL0     H28831   5.578   2.916   5.637 -0.8459 -0.1466 -0.7328
  934MOL0     H28832   5.688   2.783   5.590  0.5224  1.9412 -0.3796
  934MOL0     H28833   5.396   2.805   5.480 -0.2185 -5.1507  1.9718
  934MOL0     H28834   5.525   2.693   5.441 -1.7135 -0.4590 -1.8382
  934MOL0     H28835   5.553   2.992   5.381  6.4122  0.6351 -1.3717
  934MOL0     H28836   5.675   2.869   5.362  1.0517  1.4621 -1.9595
  934MOL0     H28837   5.494   2.742   5.220  1.3589  0.4654 -0.0380
  934MOL0     H28838   5.592   2.876   5.158 -2.6279  3.1285 -0.8332
  934MOL0     H28839   5.337   2.858   5.101 -4.3750  1.0066  0.3217
  934MOL0     H28840   5.312   2.909   5.277  1.0455 -0.4050  0.2390
  934MOL0     H28841   5.241   3.139   5.288 -1.5248  1.5025 -0.1994
  934MOL0     H28842   5.418   3.433   5.266 -0.5529 -1.9531  1.1928
  934MOL0     H28843   5.254   3.395   5.304  0.0795  2.6561  1.9336
  934MOL0     H28844   5.362   3.473   5.028 -1.0557 -0.1006 -1.8594
  934MOL0     H28845   5.198   3.419   5.054  2.0489 -1.6423  0.5543
  934MOL0     H28846   5.177   3.677   5.076 -0.3293  2.7486  1.0027
  934MOL0     H28847   5.155   3.611   5.241 -1.7389 -1.8878 -1.9271
  934MOL0     H28848   5.432   3.644   5.190 -1.0414 -0.2972 -1.1009
  934MOL0     H28849   5.352   3.778   5.124 -0.3222  1.4109  0.5301
  934MOL0     H28850   5.477   3.657   5.549 -2.8030 -0.3879 -3.2761
  934MOL0     H28851   5.597   3.668   5.726 -0.0580  1.0084  0.3549
  934MOL0     H28852   5.707   3.798   5.758  3.0935 -1.1899  0.5003
  934MOL0     H28853   5.756   3.649   5.661  0.2010  0.4004 -1.0466
  934MOL0     H28854   5.972   4.280   5.464 -0.7789 -2.1073 -0.0941
  934MOL0     H28855   6.151   4.415   5.604  2.8385  0.1257  2.2205
  934MOL0     H28856   6.184   4.313   6.031 -1.8208  2.0719  0.6343
  934MOL0     H28857   6.341   4.282   5.949  3.1512  2.7133  1.2077
  934MOL0     H28858   6.251   4.572   6.018 -0.5037  0.0588 -0.4626
  934MOL0     H28859   6.320   4.475   6.134 -4.0507  0.0064 -0.3050
  934MOL0     H28860   6.422   4.527   5.854 -1.8122  1.9705  0.5897
  934MOL0     H28861   6.520   4.443   5.981  2.4183  0.7075 -1.2195
  934MOL0     H28862   6.500   4.664   6.105 -1.2651  1.0530  0.4967
  934MOL0     H28863   6.432   4.743   5.962  0.2811 -0.3801  0.0778
  934MOL0     H28864   6.695   4.605   5.905  0.7282  0.2938  0.4013
  934MOL0     H28865   6.597   4.717   5.825  0.6817  0.6325  0.3462
  934MOL0     H28866   6.619   4.893   6.002  1.2376 -0.2183  0.6741
  934MOL0     H28867   6.760   4.870   5.927  0.8756  0.9943  1.8078
  934MOL0     H28868   6.703   4.741   6.198  0.0501 -0.1864  0.0409
  934MOL0     H28869   6.822   4.856   6.158  1.6098 -0.7275  0.4128
  934MOL0     H28870   6.812   4.568   6.084 -0.1144 -2.0958  4.5264
  934MOL0     H28871   6.923   4.645   6.187  1.1736 -0.7743 -1.7295
  934MOL0     H28872   6.095   4.140   5.913 -1.6081 -0.2665 -0.3804
  934MOL0     H28873   5.921   4.026   5.798 -0.8822  1.2808  0.9138
  934MOL0     H28874   5.686   4.053   5.340  1.3644  0.6920  1.2166
  934MOL0     H28875   5.466   3.944   5.249 -2.3308 -1.6352  1.6489
  934MOL0     H28876   5.211   2.802   6.028  1.8065 -0.3415  1.4190
  934MOL0     H28877   4.983   2.720   6.001  0.8601  1.4421 -0.5643
  934MOL0     H28878   4.683   2.506   6.008  2.1758  0.4742 -1.3313
  934MOL0     H28879   4.437   2.444   6.004 -2.3156 -0.7128 -1.1879
  934MOL0     H28880   4.310   2.112   5.732 -0.9674 -1.0106  1.8575
  934MOL0     H28881   4.166   2.160   5.802 -0.1489  0.1021 -1.7042
  934MOL0     H28882   4.169   2.195   5.570  1.7253 -0.3738 -0.2821
  934MOL0     H28883   4.321   2.286   5.575  0.0466 -1.2479 -0.2885
  934MOL0     H28884   4.072   2.425   5.699  0.7894  1.3763  0.3186
  934MOL0     H28885   4.215   2.498   5.611 -0.9762  0.5554 -2.9538
  934MOL0     H28886   3.995   2.354   5.478 -0.8143  1.7166  2.8037
  934MOL0     H28887   4.147   2.431   5.412 -1.3900 -2.0404 -1.5531
  934MOL0     H28888   3.896   2.758   5.473 -2.7436 -0.3909 -1.3122
  934MOL0     H28889   4.519   2.144   5.704 -1.0643  1.8051 -2.4967
  934MOL0     H28890   4.779   2.239   5.561  0.9124  1.4655  1.7048
  934MOL0     H28891   4.866   2.165   5.693  0.5816  1.9069  1.0011
  934MOL0     H28892   4.717   2.087   5.640 -1.3234  0.5550  0.5411
  935MOL0     O28893   8.590   2.010   7.357  0.1739  0.9086  0.3767
  935MOL0     C28894   8.587   1.921   7.262 -0.1788  0.2834 -1.5406
  935MOL0     O28895   8.691   1.892   7.180  0.6054  0.0814  0.1356
  935MOL0     C28896   8.818   1.879   7.240 -0.1647 -0.8305  0.1636
  935MOL0     C28897   8.838   1.835   7.376 -0.5974  0.8135  0.4865
  935MOL0     C28898   8.956   1.841   7.441  0.8044 -0.3711  0.6463
  935MOL0     C28899   9.073   1.865   7.366 -0.0980 -0.2978 -0.5255
  935MOL0     O28900   9.197   1.862   7.437  0.3333  0.0136  0.3142
  935MOL0     C28901   9.322   1.806   7.379  0.2588  0.7070 -0.1735
  935MOL0     C28902   9.444   1.848   7.464  0.9124 -0.0107  1.0307
  935MOL0     C28903   9.569   1.770   7.420  0.0398 -1.4093  0.1948
  935MOL0     C28904   9.697   1.857   7.423 -0.1297  0.0480 -0.3824
  935MOL0     C28905   9.814   1.767   7.398 -0.1164 -0.1274 -0.9880
  935MOL0     C28906   9.941   1.858   7.394 -0.5040  0.2530  0.3761
  935MOL0     C28907  10.066   1.785   7.447 -0.4519 -0.0223 -0.2042
  935MOL0     C28908  10.163   1.878   7.524  0.2915  0.0656  0.7300
  935MOL0     N28909  10.216   1.981   7.439  0.4972  0.4745 -0.8792
  935MOL0     C28910  10.329   1.967   7.362 -0.0386  0.7881 -0.7284
  935MOL0     C28911  10.348   2.083   7.305 -0.1900  0.8962  0.4354
  935MOL0     C28912  10.459   2.129   7.220 -0.0912 -0.9060  0.2817
  935MOL0     C28913  10.453   2.088   7.067  0.2161 -0.2316 -0.4912
  935MOL0     C28914  10.573   2.140   6.986 -1.0194 -0.2540 -0.0386
  935MOL0     C28915  10.580   2.107   6.837  0.0449 -0.0670 -0.5057
  935MOL0     O28916  10.653   2.201   6.765 -0.7800 -0.3064 -0.2849
  935MOL0     C28917  10.722   2.156   6.649 -0.3890 -0.8745 -0.2677
  935MOL0     C28918  10.669   2.054   6.569 -1.1603  0.7519 -0.1996
  935MOL0     C28919  10.734   2.014   6.452 -0.2397 -0.3200  0.2445
  935MOL0     C28920  10.699   1.884   6.386  0.4040 -0.6439 -0.0684
  935MOL0     C28921  10.844   2.098   6.403  0.5946 -1.0678 -0.3444
  935MOL0     C28922  10.926   2.062   6.280  0.0103 -0.0571 -0.7280
  935MOL0     O28923  10.962   2.167   6.205  0.2084 -0.0877  0.1894
  935MOL0     C28924  11.027   2.140   6.091 -0.5609 -0.0027  0.8676
  935MOL0     C28925  11.153   2.074   6.091  0.1984 -0.1399  0.1955
  935MOL0     C28926  11.232   2.038   5.982 -0.2523  0.4361 -0.3780
  935MOL0     C28927  11.187   2.079   5.859  0.0184 -1.3820 -0.4323
  935MOL0     O28928  11.265   2.062   5.755 -0.6347 -0.8063 -0.2549
  935MOL0     C28929  11.332   1.927   5.747  0.3571 -0.7839  1.0721
  935MOL0     C28930  11.321   1.877   5.602  0.6668 -0.6890 -0.1144
  935MOL0     C28931  11.361   1.978   5.498 -0.3027  0.6779 -0.4833
  935MOL0     C28932  11.366   1.888   5.365 -0.1948 -0.6654  0.2782
  935MOL0     C28933  11.414   1.956   5.231 -0.9377  0.1394 -0.4749
  935MOL0     C28934  11.567   2.007   5.235  0.4193 -0.6867  0.6768
  935MOL0     C28935  11.562   2.157   5.216 -0.1601 -0.2055 -0.5302
  935MOL0     C28936  11.686   2.208   5.134 -0.3008  0.0069 -0.7620
  935MOL0    Cl28937  11.687   2.144   4.970  0.1546 -0.1524 -0.1497
  935MOL0     C28938  11.062   2.147   5.845 -0.4416  0.6155  0.3258
  935MOL0     C28939  10.986   2.162   5.963  0.1434 -0.9248  0.1496
  935MOL0     O28940  10.955   1.946   6.270  0.8103 -0.4165 -0.1485
  935MOL0     C28941  10.882   2.212   6.475 -0.1836 -0.1878  0.3169
  935MOL0     C28942  10.825   2.233   6.596  0.2049  0.6909 -0.1868
  935MOL0     N28943  10.244   2.170   7.334 -0.0642 -0.0960 -0.1317
  935MOL0     N28944  10.163   2.105   7.417 -0.2298 -0.2158 -0.3630
  935MOL0     C28945   9.061   1.882   7.225 -0.0267 -1.0301 -0.1027
  935MOL0     C28946   8.934   1.897   7.172  0.4667  0.7309  0.7167
  935MOL0     C28947   8.450   1.851   7.229 -0.0916  0.6833  0.3315
  935MOL0     C28948   8.340   1.891   7.310  1.1878  0.0115 -0.3748
  935MOL0     C28949   8.214   1.832   7.296 -0.4132 -0.5865 -0.6756
  935MOL0     C28950   8.191   1.741   7.193 -0.2939 -1.0817  1.2057
  935MOL0     O28951   8.064   1.695   7.173 -0.4798  0.3502  0.6007
  935MOL0     C28952   8.050   1.552   7.134  0.3835 -0.7640 -0.8802
  935MOL0     C28953   7.996   1.561   6.994 -0.0950 -0.0132 -0.8125
  935MOL0     C28954   7.874   1.645   6.975 -0.4311  0.5729  0.1334
  935MOL0     C28955   7.814   1.622   6.840 -0.0428  0.1110  0.5873
  935MOL0     C28956   7.899   1.641   6.721  0.0533 -0.0856 -0.5127
  935MOL0     C28957   7.960   1.661   6.623 -0.1043  0.4049 -0.0773
  935MOL0     C28958   8.296   1.712   7.106 -0.1767 -0.5622 -0.6249
  935MOL0     C28959   8.422   1.761   7.120 -0.8751  0.8147 -0.4771
  935MOL0     C28960   8.531   1.728   7.024 -0.0919 -0.5225 -0.0788
  935MOL0     H28961   8.754   1.818   7.443  1.3017  1.8236  3.3173
  935MOL0     H28962   8.962   1.840   7.549  1.8886  0.4821  0.6018
  935MOL0     H28963   9.333   1.834   7.274  1.2638 -0.3122 -0.3579
  935MOL0     H28964   9.316   1.698   7.397  2.3667  0.6327  0.3574
  935MOL0     H28965   9.467   1.954   7.447  3.4314 -0.9671 -2.9085
  935MOL0     H28966   9.410   1.826   7.565 -0.9475 -1.0263  0.2298
  935MOL0     H28967   9.568   1.696   7.501  3.2815  1.3047  3.0344
  935MOL0     H28968   9.560   1.729   7.320 -0.9907 -0.4846 -0.1215
  935MOL0     H28969   9.699   1.933   7.345  1.2686 -2.6250 -3.1713
  935MOL0     H28970   9.710   1.898   7.523 -1.0803 -2.6332  0.9555
  935MOL0     H28971   9.801   1.717   7.302 -1.0941 -3.4531  0.7308
  935MOL0     H28972   9.823   1.697   7.482  2.3152  0.5477 -0.6031
  935MOL0     H28973   9.962   1.889   7.291 -3.0522  1.5131  0.1820
  935MOL0     H28974   9.938   1.951   7.451  0.8130  0.4921  0.0924
  935MOL0     H28975  10.128   1.749   7.365 -0.6226  2.9081 -1.7559
  935MOL0     H28976  10.029   1.702   7.507 -1.6972  0.8777  0.3171
  935MOL0     H28977  10.107   1.920   7.608  0.0899  3.1509 -0.8085
  935MOL0     H28978  10.244   1.821   7.571 -1.7766 -0.1694  4.4429
  935MOL0     H28979  10.400   1.886   7.349  1.1467  0.9078  3.4930
  935MOL0     H28980  10.554   2.098   7.264  0.1427  3.0064  2.9917
  935MOL0     H28981  10.450   2.237   7.227 -2.0113 -1.0843  1.5216
  935MOL0     H28982  10.467   1.980   7.050  2.3419 -0.2551  1.0588
  935MOL0     H28983  10.355   2.115   7.026 -0.3301 -1.5888 -0.1607
  935MOL0     H28984  10.569   2.248   7.002 -2.3750 -0.1426 -0.9470
  935MOL0     H28985  10.660   2.092   7.030 -1.8954 -3.6521 -1.6725
  935MOL0     H28986  10.626   2.009   6.822 -1.6593 -0.8449 -0.8209
  935MOL0     H28987  10.480   2.106   6.792  0.0639  0.3304 -0.5582
  935MOL0     H28988  10.577   2.001   6.590 -1.6945  0.9038 -2.0379
  935MOL0     H28989  10.750   1.797   6.430 -1.1198 -0.5919  1.9912
  935MOL0     H28990  10.697   1.881   6.277  0.2668  0.5285 -0.1101
  935MOL0     H28991  10.594   1.857   6.402  0.5494 -1.5441 -0.5313
  935MOL0     H28992  11.203   2.057   6.185  0.3599 -0.0589  0.1247
  935MOL0     H28993  11.320   1.974   5.989 -1.8781 -1.8838  0.0217
  935MOL0     H28994  11.436   1.931   5.781 -0.1398 -1.1737  2.7378
  935MOL0     H28995  11.293   1.846   5.809 -0.6230 -3.3668 -2.5537
  935MOL0     H28996  11.368   1.777   5.600  2.6813  0.2187 -1.3123
  935MOL0     H28997  11.213   1.873   5.585  0.7518  0.0826 -0.8599
  935MOL0     H28998  11.451   2.028   5.535 -2.1717  1.8658  2.9133
  935MOL0     H28999  11.287   2.056   5.483  2.1182  3.0623 -0.7274
  935MOL0     H29000  11.267   1.844   5.350  0.8582 -2.4390 -2.1478
  935MOL0     H29001  11.431   1.805   5.394  1.8225  0.3107 -1.1882
  935MOL0     H29002  11.403   1.877   5.156  1.5052  2.0227 -2.9669
  935MOL0     H29003  11.344   2.027   5.188  0.1595  2.5939  1.5004
  935MOL0     H29004  11.613   1.962   5.147 -0.2843 -3.3240  1.5713
  935MOL0     H29005  11.629   1.977   5.320  0.8536 -0.6969  0.3601
  935MOL0     H29006  11.556   2.201   5.316 -1.0434 -0.8562 -0.2852
  935MOL0     H29007  11.473   2.188   5.161 -2.8087 -0.4123  3.2162
  935MOL0     H29008  11.774   2.173   5.189 -0.5057  4.6359  3.1616
  935MOL0     H29009  11.681   2.317   5.136 -2.0599 -0.0382  0.9666
  935MOL0     H29010  11.030   2.170   5.744  1.0475 -3.7232 -1.3451
  935MOL0     H29011  10.894   2.220   5.954 -0.0634 -1.1905  0.5342
  935MOL0     H29012  10.960   2.276   6.435 -1.0467 -0.4701 -1.9808
  935MOL0     H29013  10.852   2.319   6.656 -2.0380  0.5777  1.0931
  935MOL0     H29014   9.150   1.883   7.163 -0.6107 -2.2953 -1.0033
  935MOL0     H29015   8.918   1.911   7.065 -0.3588  3.6087  1.1282
  935MOL0     H29016   8.346   1.969   7.386  4.1422 -0.2100 -0.2687
  935MOL0     H29017   8.135   1.854   7.368 -0.9547 -0.2066 -1.3704
  935MOL0     H29018   8.146   1.501   7.149  0.0788 -1.9100 -2.5539
  935MOL0     H29019   7.989   1.500   7.208  2.9502 -0.7227  1.4495
  935MOL0     H29020   7.966   1.458   6.972  1.7887 -0.9082  0.5448
  935MOL0     H29021   8.075   1.590   6.925  0.5017  2.3658  0.7514
  935MOL0     H29022   7.799   1.612   7.047  1.1537 -2.9805  0.3420
  935MOL0     H29023   7.894   1.753   6.980  0.9020  0.3148  0.8690
  935MOL0     H29024   7.733   1.696   6.834  1.4861  1.7536 -1.4566
  935MOL0     H29025   7.764   1.527   6.823  0.0908 -0.6347  3.7061
  935MOL0     H29026   8.031   1.654   6.543 -0.3272 -0.7420 -0.1954
  935MOL0     H29027   8.272   1.656   7.016  0.7912 -0.4524 -0.9670
  935MOL0     H29028   8.504   1.670   6.935 -1.6533  0.9664 -0.6361
  935MOL0     H29029   8.581   1.817   6.984 -0.6289  0.1503  0.7001
  935MOL0     H29030   8.612   1.683   7.082  1.2696  0.6986 -0.9498
  936MOL0     O29031   8.450   8.350   4.881 -0.3674 -0.3566  0.0151
  936MOL0     C29032   8.337   8.346   4.837 -0.3822 -0.6354  0.8316
  936MOL0     O29033   8.242   8.429   4.886  0.2880 -0.0877  0.2914
  936MOL0     C29034   8.281   8.538   4.967 -0.3121  0.2264 -0.0432
  936MOL0     C29035   8.374   8.639   4.930  0.3139  0.4580  0.0010
  936MOL0     C29036   8.390   8.753   5.011  0.2400  0.7857 -0.3370
  936MOL0     C29037   8.337   8.757   5.135 -0.4754 -0.8627  0.3463
  936MOL0     O29038   8.390   8.852   5.216 -0.5082  0.9478  0.6741
  936MOL0     C29039   8.390   8.810   5.356  1.0079 -0.0441  0.2131
  936MOL0     C29040   8.446   8.912   5.453 -0.6438  0.2257  0.1325
  936MOL0     C29041   8.578   8.960   5.399 -0.1579  0.2073 -0.0884
  936MOL0     C29042   8.681   8.842   5.396 -0.0752 -0.6285 -0.0908
  936MOL0     C29043   8.827   8.873   5.365 -0.4717 -0.6480  0.5890
  936MOL0     C29044   8.898   8.983   5.456  0.0573  0.5566  0.7679
  936MOL0     C29045   9.053   8.981   5.448 -0.4980 -0.4255  0.1547
  936MOL0     C29046   9.119   9.080   5.550  0.0258  0.3677  0.0816
  936MOL0     N29047   9.255   9.048   5.572  0.0905  0.3018 -0.5598
  936MOL0     C29048   9.363   9.105   5.510  1.0460 -0.9174  0.1723
  936MOL0     C29049   9.467   9.096   5.589 -0.7985  0.3283 -0.4176
  936MOL0     C29050   9.600   9.165   5.570 -0.6144 -0.1430  0.1598
  936MOL0     C29051   9.709   9.069   5.521 -0.4471  0.4265 -0.1484
  936MOL0     C29052   9.835   9.162   5.505 -0.1643 -0.0441 -0.1843
  936MOL0     C29053   9.966   9.082   5.494  0.0965 -0.5808 -0.2726
  936MOL0     O29054   9.990   9.012   5.371  0.8408  0.4788 -0.1181
  936MOL0     C29055  10.115   8.959   5.349 -0.3378  0.3086 -0.7550
  936MOL0     C29056  10.232   8.971   5.425  0.6942 -0.9188 -0.0208
  936MOL0     C29057  10.356   8.907   5.398 -0.0727  0.5824 -0.5913
  936MOL0     C29058  10.465   8.939   5.492 -0.1664  1.1156 -0.1475
  936MOL0     C29059  10.369   8.807   5.299  0.5186 -0.1385 -0.3528
  936MOL0     C29060  10.485   8.722   5.261 -0.4002 -1.1399 -0.1876
  936MOL0     O29061  10.601   8.735   5.333 -0.4778 -0.4568 -0.2588
  936MOL0     C29062  10.718   8.681   5.291  0.4687 -0.0196 -0.0666
  936MOL0     C29063  10.805   8.604   5.368 -0.1350  0.1656  0.2131
  936MOL0     C29064  10.933   8.561   5.331 -0.7464  0.4876 -0.0586
  936MOL0     C29065  10.986   8.612   5.214  0.1219 -0.2665 -0.8789
  936MOL0     O29066  11.113   8.603   5.162 -0.2242  0.4756 -0.8294
  936MOL0     C29067  11.191   8.495   5.214  0.0334  0.4461  0.0466
  936MOL0     C29068  11.285   8.449   5.099 -0.3052  0.3574  0.5829
  936MOL0     C29069  11.398   8.551   5.082  0.6421  0.1806 -0.2192
  936MOL0     C29070  11.466   8.504   4.956 -0.3010  0.0702  0.1453
  936MOL0     C29071  11.565   8.612   4.914 -0.0610 -0.3197  0.8836
  936MOL0     C29072  11.670   8.554   4.821  0.0329 -0.0781 -0.0601
  936MOL0     C29073  11.797   8.637   4.823  0.4120 -0.2933 -0.1962
  936MOL0     C29074  11.876   8.631   4.690 -0.1653  0.6518  0.5911
  936MOL0    Cl29075  11.926   8.461   4.672 -0.2367 -0.0507 -0.2384
  936MOL0     C29076  10.900   8.680   5.129 -0.3915 -0.4062 -0.6084
  936MOL0     C29077  10.773   8.722   5.167 -0.1471 -0.4165  0.6567
  936MOL0     O29078  10.467   8.639   5.177 -0.0809  0.1890  1.0607
  936MOL0     C29079  10.245   8.785   5.228 -0.1967  0.0925  0.5866
  936MOL0     C29080  10.132   8.864   5.253  0.9245  0.7121  0.3883
  936MOL0     N29081   9.424   9.025   5.703 -0.3227  0.5550  0.5911
  936MOL0     N29082   9.301   8.986   5.681  0.5150  0.1668  0.2408
  936MOL0     C29083   8.230   8.672   5.167 -0.3744  0.5552  0.2445
  936MOL0     C29084   8.202   8.564   5.081 -0.1701 -0.5120  0.0110
  936MOL0     C29085   8.302   8.244   4.734  0.2029 -0.3891 -0.3026
  936MOL0     C29086   8.172   8.244   4.689 -0.9136 -0.1156  0.2453
  936MOL0     C29087   8.116   8.134   4.618 -0.0037 -1.0518  0.2900
  936MOL0     C29088   8.192   8.020   4.593 -0.1842 -0.6163  0.0365
  936MOL0     O29089   8.135   7.912   4.535 -0.6322  0.4777 -0.1194
  936MOL0     C29090   8.206   7.783   4.524 -0.3540 -0.3213 -0.3383
  936MOL0     C29091   8.108   7.682   4.479  0.0708 -0.8255  0.4347
  936MOL0     C29092   7.983   7.690   4.567 -1.0475 -0.0165  0.7562
  936MOL0     C29093   7.902   7.560   4.565 -1.1282 -0.5239 -0.9376
  936MOL0     C29094   7.786   7.578   4.488  0.0395  0.8792  0.2622
  936MOL0     C29095   7.690   7.582   4.410 -0.0968 -0.7454  0.2840
  936MOL0     C29096   8.327   8.030   4.613 -0.0027  0.4229 -0.3332
  936MOL0     C29097   8.380   8.137   4.680 -0.0532 -0.6161 -0.2812
  936MOL0     C29098   8.532   8.142   4.690 -0.1245  0.6267 -0.4743
  936MOL0     H29099   8.434   8.615   4.842 -2.0358 -0.1974 -1.5145
  936MOL0     H29100   8.471   8.816   4.976 -1.6485  1.2791 -4.4452
  936MOL0     H29101   8.440   8.714   5.370  2.5276  0.7275  0.2880
  936MOL0     H29102   8.285   8.809   5.387  0.5739  2.9686 -0.8314
  936MOL0     H29103   8.372   8.991   5.465  2.8437  3.6597  1.2675
  936MOL0     H29104   8.454   8.876   5.556 -1.3341  1.2481  0.5572
  936MOL0     H29105   8.561   8.990   5.295  1.7181 -4.8145 -2.1473
  936MOL0     H29106   8.610   9.047   5.458 -3.1276  0.7225  0.9348
  936MOL0     H29107   8.672   8.790   5.492  2.2516 -0.7955  0.1005
  936MOL0     H29108   8.644   8.773   5.320 -1.0120 -0.7059  0.4270
  936MOL0     H29109   8.842   8.903   5.260  1.1149  0.8301  1.1862
  936MOL0     H29110   8.879   8.777   5.369 -2.2083 -1.6123  0.6765
  936MOL0     H29111   8.855   9.081   5.434 -2.0402 -0.7903 -1.5388
  936MOL0     H29112   8.861   8.950   5.553  3.0410  0.7984  2.1014
  936MOL0     H29113   9.087   9.009   5.348  0.3303 -0.3957  0.4386
  936MOL0     H29114   9.083   8.877   5.468  0.8122 -0.0477  0.2282
  936MOL0     H29115   9.122   9.184   5.516  1.1382  0.6715  1.0471
  936MOL0     H29116   9.056   9.075   5.639 -0.0235 -0.6077  0.0008
  936MOL0     H29117   9.369   9.170   5.423  1.6571 -3.1953 -1.5705
  936MOL0     H29118   9.639   9.220   5.656  1.8393  0.9078 -1.4960
  936MOL0     H29119   9.592   9.234   5.485  2.1147 -0.6529 -0.6176
  936MOL0     H29120   9.730   8.988   5.591  0.9059  1.3509  0.5631
  936MOL0     H29121   9.675   9.018   5.431 -0.2279  0.4866 -0.2642
  936MOL0     H29122   9.814   9.216   5.412 -2.5803 -3.0976 -1.5920
  936MOL0     H29123   9.847   9.224   5.594  0.3662  1.4002 -1.2171
  936MOL0     H29124  10.060   9.138   5.499  0.5367 -1.2425 -0.8902
  936MOL0     H29125   9.972   9.018   5.582  3.8323 -1.8573 -1.2909
  936MOL0     H29126  10.225   9.041   5.507  0.1049 -1.8501  0.7459
  936MOL0     H29127  10.433   9.005   5.573 -0.3916  0.9677 -0.1149
  936MOL0     H29128  10.540   8.987   5.429  0.0545  0.6494 -0.2463
  936MOL0     H29129  10.514   8.855   5.543 -0.5684  1.0581  0.1553
  936MOL0     H29130  10.767   8.559   5.459  0.9098 -2.3673 -0.5170
  936MOL0     H29131  10.991   8.499   5.399 -2.2220 -2.1261 -1.0488
  936MOL0     H29132  11.251   8.514   5.304  2.3744 -2.8895 -0.5928
  936MOL0     H29133  11.136   8.406   5.244  1.6374  0.2367  2.6947
  936MOL0     H29134  11.324   8.349   5.122  0.6701  0.6410  0.1945
  936MOL0     H29135  11.228   8.434   5.006 -2.5457  2.7651  1.4380
  936MOL0     H29136  11.463   8.551   5.170 -1.5914  3.9225  1.6799
  936MOL0     H29137  11.361   8.653   5.065 -2.5623 -1.0044 -1.0554
  936MOL0     H29138  11.401   8.477   4.872  0.0824  0.0137 -0.1374
  936MOL0     H29139  11.517   8.411   4.980 -0.8267 -0.1634  0.3741
  936MOL0     H29140  11.513   8.697   4.870 -1.0489 -0.8345  1.0451
  936MOL0     H29141  11.616   8.646   5.005  0.6937  3.1747 -0.7103
  936MOL0     H29142  11.637   8.558   4.717 -2.8924 -1.1902  0.7345
  936MOL0     H29143  11.678   8.447   4.845  2.6662  0.3682  1.4965
  936MOL0     H29144  11.860   8.602   4.905 -1.1273  0.3722  1.3481
  936MOL0     H29145  11.773   8.742   4.846  1.8773  0.0774 -0.2612
  936MOL0     H29146  11.973   8.680   4.700  0.2644 -0.2037  0.6875
  936MOL0     H29147  11.828   8.664   4.597 -0.6374 -0.5048  0.4053
  936MOL0     H29148  10.939   8.730   5.041  0.5659  1.7146  0.9061
  936MOL0     H29149  10.721   8.804   5.117  0.0888 -0.1571  0.8348
  936MOL0     H29150  10.230   8.711   5.150 -2.4731  0.1247  0.9414
  936MOL0     H29151  10.042   8.842   5.197  0.4899 -2.6458  2.1513
  936MOL0     H29152   8.168   8.679   5.255 -1.7289  2.2763 -0.7866
  936MOL0     H29153   8.128   8.489   5.107  0.5765 -0.8510  1.2255
  936MOL0     H29154   8.101   8.312   4.736  0.1071  1.2142 -0.0627
  936MOL0     H29155   8.014   8.143   4.581  0.1296  0.9400  0.2784
  936MOL0     H29156   8.284   7.795   4.449 -1.0397 -0.4191 -1.0834
  936MOL0     H29157   8.249   7.756   4.621 -1.6406  2.4944  1.1569
  936MOL0     H29158   8.150   7.584   4.502  0.1146 -0.4835  1.9068
  936MOL0     H29159   8.083   7.691   4.373  2.5868 -2.3141 -0.3636
  936MOL0     H29160   8.022   7.701   4.668 -0.0015 -2.0492  0.6257
  936MOL0     H29161   7.913   7.770   4.543  0.1402  0.7020 -0.4935
  936MOL0     H29162   7.881   7.543   4.671 -0.1413  0.1065 -0.6262
  936MOL0     H29163   7.961   7.473   4.536  3.5545  1.0682  2.5158
  936MOL0     H29164   7.609   7.599   4.342  0.2540  1.3125  0.3132
  936MOL0     H29165   8.394   7.949   4.583  1.3081  1.0530  0.8294
  936MOL0     H29166   8.559   8.103   4.789  0.1163 -2.0473 -1.4899
  936MOL0     H29167   8.570   8.085   4.605  0.7622  1.0932 -0.4007
  936MOL0     H29168   8.569   8.245   4.688  0.9119  0.3381  1.4508
  937MOL0     O29169  10.309   2.935   9.316 -0.1346 -0.1902 -0.1286
  937MOL0     C29170  10.311   2.821   9.276  0.1774 -0.6858  1.2999
  937MOL0     O29171  10.418   2.729   9.309  0.0368  0.0566  0.3797
  937MOL0     C29172  10.526   2.769   9.380  1.0865 -0.3279  0.5927
  937MOL0     C29173  10.564   2.903   9.412  0.3378 -1.0113  0.0032
  937MOL0     C29174  10.671   2.927   9.507 -0.1209 -0.2554  0.0076
  937MOL0     C29175  10.746   2.814   9.551 -0.0525  0.2476 -0.5361
  937MOL0     O29176  10.860   2.807   9.619 -0.3947  0.1339 -0.1712
  937MOL0     C29177  10.869   2.895   9.732  0.6041  0.8367  0.2439
  937MOL0     C29178  10.770   2.860   9.847  0.0298  0.5047  0.3215
  937MOL0     C29179  10.769   2.721   9.906 -0.1764 -0.2883 -0.1737
  937MOL0     C29180  10.902   2.660   9.961  1.0392  0.2122  0.5829
  937MOL0     C29181  10.970   2.756  10.064  0.3969 -0.4754 -0.1591
  937MOL0     C29182  11.108   2.690  10.098 -0.0559 -0.6306 -0.4395
  937MOL0     C29183  11.136   2.727  10.251 -0.3900 -0.3983  0.1841
  937MOL0     C29184  11.279   2.683  10.290  0.2754 -0.4729  0.6504
  937MOL0     N29185  11.324   2.739  10.417 -0.4202  0.7051 -0.0937
  937MOL0     C29186  11.249   2.721  10.536  0.2224  0.1402  0.4171
  937MOL0     C29187  11.331   2.776  10.629 -0.7244 -0.4797  0.1260
  937MOL0     C29188  11.294   2.800  10.772  0.6078 -0.2488  1.3972
  937MOL0     C29189  11.353   2.689  10.868  0.4756  0.4697 -0.2225
  937MOL0     C29190  11.282   2.672  11.001  0.0579 -0.3354 -0.7599
  937MOL0     C29191  11.263   2.816  11.065  0.0404 -0.1227  0.7244
  937MOL0     O29192  11.388   2.868  11.106 -0.5778 -0.0862  0.3176
  937MOL0     C29193  11.409   2.995  11.068  0.2806 -0.3606  0.9278
  937MOL0     C29194  11.314   3.107  11.063  0.3007 -0.7529  0.0196
  937MOL0     C29195  11.368   3.238  11.046 -0.1308  0.0430  0.4890
  937MOL0     C29196  11.268   3.355  11.064 -0.2968 -0.9830 -1.1375
  937MOL0     C29197  11.506   3.258  11.023  0.2561  0.4080 -0.0994
  937MOL0     C29198  11.576   3.394  11.017  0.1233 -0.7570  0.4207
  937MOL0     O29199  11.503   3.507  11.050  0.1280 -0.7165  0.2063
  937MOL0     C29200  11.563   3.630  11.035 -0.3013  0.2053 -0.0225
  937MOL0     C29201  11.527   3.734  11.128 -0.5953  0.0248 -0.4313
  937MOL0     C29202  11.568   3.869  11.109 -0.1202  0.7942  0.2344
  937MOL0     C29203  11.651   3.900  10.997  0.0181 -0.3290  0.0787
  937MOL0     O29204  11.700   4.018  10.965 -0.1282 -0.2786  0.3978
  937MOL0     C29205  11.716   4.125  11.056  0.0045  0.2103 -0.8837
  937MOL0     C29206  11.851   4.119  11.138  0.5128  0.1759  0.0050
  937MOL0     C29207  11.866   4.248  11.210 -0.0053  0.0433  0.3851
  937MOL0     C29208  12.006   4.264  11.270  0.6173 -0.5769  0.3520
  937MOL0     C29209  12.030   4.407  11.294 -0.3871 -0.6302 -0.2330
  937MOL0     C29210  12.146   4.424  11.394  0.6713 -0.2531  1.1791
  937MOL0     C29211  12.206   4.563  11.394 -0.4193 -0.3507  0.1921
  937MOL0     C29212  12.278   4.604  11.265  0.5463  0.0324  0.1786
  937MOL0    Cl29213  12.387   4.486  11.213 -0.1575 -0.5808 -0.1879
  937MOL0     C29214  11.682   3.802  10.900 -0.1483  0.5764  0.0236
  937MOL0     C29215  11.635   3.667  10.916  0.1267  0.2722 -1.6634
  937MOL0     O29216  11.693   3.400  10.998  0.0690 -0.2784 -0.1789
  937MOL0     C29217  11.593   3.151  11.023  0.2713 -0.0061  0.2513
  937MOL0     C29218  11.546   3.025  11.045  0.3848 -0.5150 -0.7763
  937MOL0     N29219  11.444   2.830  10.569  0.0770 -0.2173  0.2204
  937MOL0     N29220  11.437   2.812  10.440  0.1653 -0.2149  0.4652
  937MOL0     C29221  10.714   2.690   9.505 -0.0209  0.9432  0.1235
  937MOL0     C29222  10.607   2.664   9.419 -0.6241  0.1787  0.3633
  937MOL0     C29223  10.190   2.763   9.217  0.0562 -0.4556 -0.2915
  937MOL0     C29224  10.194   2.630   9.178 -0.4524  0.8933 -0.5747
  937MOL0     C29225  10.084   2.563   9.124 -0.3865 -0.3006 -0.1906
  937MOL0     C29226   9.965   2.628   9.105  0.6500 -0.2857  0.1435
  937MOL0     O29227   9.871   2.551   9.044  0.4447  0.5313 -0.1343
  937MOL0     C29228   9.761   2.615   8.978  0.9698 -0.5852 -0.1258
  937MOL0     C29229   9.701   2.533   8.867  0.6543 -0.3671 -0.0036
  937MOL0     C29230   9.641   2.398   8.891  0.3050  0.2604 -0.7657
  937MOL0     C29231   9.629   2.317   8.758 -0.2372 -0.5647 -0.4092
  937MOL0     C29232   9.541   2.387   8.663 -0.1038  0.9280  0.3166
  937MOL0     C29233   9.484   2.434   8.568 -0.1945 -0.1115  0.1460
  937MOL0     C29234   9.959   2.761   9.139  1.1108  0.7253 -0.3815
  937MOL0     C29235  10.069   2.829   9.191  0.6860 -0.8295 -0.0213
  937MOL0     C29236  10.041   2.969   9.212  0.2682 -0.1315 -0.1084
  937MOL0     H29237  10.518   2.998   9.388  1.8408 -0.3775 -0.4868
  937MOL0     H29238  10.703   3.028   9.532 -1.3462 -0.1506  1.2639
  937MOL0     H29239  10.862   3.001   9.705  1.4980  0.6242 -0.9353
  937MOL0     H29240  10.973   2.882   9.763  0.6264  1.3829  0.4018
  937MOL0     H29241  10.800   2.926   9.929 -3.2419 -0.1700  2.2685
  937MOL0     H29242  10.669   2.880   9.810 -0.6395 -2.9602 -0.0924
  937MOL0     H29243  10.698   2.725   9.990 -0.2822  0.3052 -0.2859
  937MOL0     H29244  10.740   2.648   9.831 -2.4035  1.9710 -1.6477
  937MOL0     H29245  10.877   2.562  10.003  1.3246  0.4294  1.2708
  937MOL0     H29246  10.971   2.652   9.876  0.1470 -2.5128  0.0189
  937MOL0     H29247  10.902   2.765  10.149 -2.5440 -0.7952 -2.2908
  937MOL0     H29248  10.983   2.854  10.017  0.7924  0.2580  1.4127
  937MOL0     H29249  11.111   2.582  10.082 -1.3939 -0.9458  1.1645
  937MOL0     H29250  11.184   2.733  10.032  1.0197 -0.5853  0.7711
  937MOL0     H29251  11.071   2.666  10.313  1.1720 -2.3850 -0.0371
  937MOL0     H29252  11.126   2.836  10.262 -3.2635 -0.5240 -0.5465
  937MOL0     H29253  11.281   2.575  10.306 -0.4651 -0.2760  2.4075
  937MOL0     H29254  11.351   2.712  10.214 -2.2341  2.0347 -0.9832
  937MOL0     H29255  11.144   2.695  10.552 -0.3107  2.0371  0.3200
  937MOL0     H29256  11.185   2.792  10.771  0.6110 -0.2506  0.9474
  937MOL0     H29257  11.311   2.904  10.802 -4.6976  2.5263 -3.3551
  937MOL0     H29258  11.344   2.590  10.824  1.3187 -1.0804  2.8017
  937MOL0     H29259  11.457   2.712  10.893  1.3303 -0.0384 -3.0358
  937MOL0     H29260  11.189   2.617  10.985  1.0920 -2.3681 -0.1940
  937MOL0     H29261  11.344   2.608  11.065 -1.3271  0.2175  1.2280
  937MOL0     H29262  11.218   2.876  10.985 -1.4003 -0.8427  0.9644
  937MOL0     H29263  11.184   2.812  11.141  1.0285 -3.3311  1.7382
  937MOL0     H29264  11.211   3.090  11.092 -0.3258  2.2240 -0.1457
  937MOL0     H29265  11.174   3.313  11.100 -0.0657  0.2669  1.0965
  937MOL0     H29266  11.243   3.412  10.974  2.7695  2.3686 -0.1049
  937MOL0     H29267  11.306   3.419  11.145 -4.3102 -1.5107  1.4576
  937MOL0     H29268  11.468   3.705  11.215 -3.2440  2.3834 -1.2928
  937MOL0     H29269  11.541   3.935  11.191 -1.2003 -0.2823  0.7751
  937MOL0     H29270  11.732   4.217  11.000 -1.5751  0.1218 -1.5312
  937MOL0     H29271  11.629   4.130  11.121  1.0116 -0.1576  0.5344
  937MOL0     H29272  11.845   4.042  11.217  0.1102  0.0305 -0.1675
  937MOL0     H29273  11.932   4.095  11.069 -2.4134 -0.1485 -3.5653
  937MOL0     H29274  11.800   4.265  11.295  1.3624  2.1959  1.1001
  937MOL0     H29275  11.838   4.329  11.142 -1.9243 -0.4793  0.4819
  937MOL0     H29276  12.081   4.199  11.225 -0.4604 -2.0971  0.6501
  937MOL0     H29277  12.011   4.218  11.370  3.3657  1.0029  1.0383
  937MOL0     H29278  12.034   4.465  11.201 -1.9586 -0.2046 -0.0556
  937MOL0     H29279  11.943   4.450  11.344  0.6378  2.2650 -0.7182
  937MOL0     H29280  12.228   4.352  11.381  3.8706  2.5471  3.8086
  937MOL0     H29281  12.111   4.392  11.493  0.7756 -3.6471  0.2491
  937MOL0     H29282  12.284   4.563  11.469  0.8520 -0.9829 -1.0830
  937MOL0     H29283  12.124   4.633  11.416 -0.6186 -1.1884  2.2550
  937MOL0     H29284  12.317   4.706  11.268 -2.9581  1.5286  1.2134
  937MOL0     H29285  12.200   4.602  11.188  0.9058  0.7832 -0.2129
  937MOL0     H29286  11.746   3.832  10.818  0.6768  0.4081  0.5906
  937MOL0     H29287  11.652   3.598  10.835  2.0094  0.4418 -1.4659
  937MOL0     H29288  11.701   3.160  11.011  0.1017  3.1519  0.1458
  937MOL0     H29289  11.622   2.948  11.041  0.9868  0.1116 -3.0609
  937MOL0     H29290  10.771   2.606   9.542 -1.0766  1.7243  4.0296
  937MOL0     H29291  10.577   2.563   9.390  1.8091 -0.7882  0.9603
  937MOL0     H29292  10.284   2.570   9.179 -2.4686 -2.4219  0.8584
  937MOL0     H29293  10.091   2.460   9.089  0.3930  0.1325 -1.4120
  937MOL0     H29294   9.690   2.634   9.058  1.8231  1.3448  0.2356
  937MOL0     H29295   9.799   2.714   8.952  1.8351 -0.0510  2.8643
  937MOL0     H29296   9.778   2.536   8.790  1.4690  1.6635  0.8110
  937MOL0     H29297   9.631   2.591   8.806  1.9599 -0.0537 -1.2570
  937MOL0     H29298   9.686   2.344   8.975  0.6462  1.3167 -0.2477
  937MOL0     H29299   9.542   2.416   8.933 -0.3237  0.9084 -2.4268
  937MOL0     H29300   9.586   2.218   8.779 -0.1012 -0.8839 -1.5408
  937MOL0     H29301   9.728   2.309   8.711  1.1539 -0.1273  2.2989
  937MOL0     H29302   9.443   2.493   8.488 -0.0120  0.2938  0.3456
  937MOL0     H29303   9.870   2.819   9.120  0.6782  0.3168  0.3314
  937MOL0     H29304  10.071   3.002   9.312  1.4571  2.0726 -1.1224
  937MOL0     H29305  10.077   3.035   9.133 -0.3460  0.1298 -0.1805
  937MOL0     H29306   9.934   2.981   9.234  0.5495 -0.2443  1.4663
  938MOL0     O29307   4.191   0.939   0.722 -0.0907 -0.5001 -0.4349
  938MOL0     C29308   4.213   1.021   0.812 -0.5629  0.8274 -0.3438
  938MOL0     O29309   4.125   1.120   0.848  0.4797  0.6074 -0.9032
  938MOL0     C29310   4.003   1.127   0.794  0.7581 -0.0287 -0.2137
  938MOL0     C29311   3.921   1.012   0.810  0.5483 -0.0271 -0.4409
  938MOL0     C29312   3.800   1.014   0.749  0.6081  0.1067 -0.6499
  938MOL0     C29313   3.756   1.120   0.668 -0.8228 -1.0449  0.6496
  938MOL0     O29314   3.639   1.125   0.589 -0.8066  0.1522 -0.1456
  938MOL0     C29315   3.576   1.004   0.560  0.4149 -0.4520 -0.2860
  938MOL0     C29316   3.651   0.935   0.443 -0.0351  0.9621 -0.7325
  938MOL0     C29317   3.644   1.017   0.317  0.5495 -0.1491 -1.2498
  938MOL0     C29318   3.700   0.961   0.187 -0.3253  0.2977 -0.0958
  938MOL0     C29319   3.649   1.033   0.056  0.6146 -0.4917 -0.1578
  938MOL0     C29320   3.708   1.168   0.017  1.0436  0.7462  0.1276
  938MOL0     C29321   3.860   1.170   0.026  0.0216 -0.1303  0.4764
  938MOL0     C29322   3.933   1.096  -0.088 -0.4117 -0.4604  0.3724
  938MOL0     N29323   4.076   1.083  -0.056 -0.1691 -1.2260 -0.8617
  938MOL0     C29324   4.143   0.967  -0.016 -0.6174 -0.1183  0.2176
  938MOL0     C29325   4.264   1.008   0.020 -0.5345 -0.1617 -0.0733
  938MOL0     C29326   4.372   0.925   0.073 -1.2013  0.7031  0.7283
  938MOL0     C29327   4.494   1.015   0.128  0.2693 -0.7491 -0.5881
  938MOL0     C29328   4.610   0.929   0.181 -0.2803 -0.8695  0.6081
  938MOL0     C29329   4.589   0.869   0.326  0.1614  0.1340  0.6286
  938MOL0     O29330   4.588   0.724   0.321  0.3567  0.1412  0.3699
  938MOL0     C29331   4.638   0.653   0.431 -0.4382  0.3913  0.2356
  938MOL0     C29332   4.654   0.516   0.412 -0.2840  0.0415 -0.7052
  938MOL0     C29333   4.715   0.425   0.506  0.1788 -1.1829  0.4574
  938MOL0     C29334   4.713   0.278   0.471 -0.2999  0.6741 -0.1962
  938MOL0     C29335   4.782   0.485   0.620  0.5985 -0.1858  0.7564
  938MOL0     C29336   4.873   0.404   0.701  0.7639  0.7576  0.1179
  938MOL0     O29337   4.943   0.479   0.786  0.0091  0.5510  0.5381
  938MOL0     C29338   5.036   0.436   0.876  0.0707 -0.4278  1.3213
  938MOL0     C29339   5.116   0.329   0.855  0.2020  0.5199  0.2594
  938MOL0     C29340   5.219   0.288   0.940 -0.5480  0.2843 -0.2611
  938MOL0     C29341   5.243   0.368   1.055 -0.5802 -0.6024  0.6502
  938MOL0     O29342   5.352   0.333   1.133 -0.7946 -0.6880  0.3280
  938MOL0     C29343   5.407   0.437   1.212 -0.5940  0.1041  0.0070
  938MOL0     C29344   5.344   0.432   1.342 -0.0527 -0.7293 -0.5838
  938MOL0     C29345   5.379   0.557   1.430  0.3790 -0.3879  0.8373
  938MOL0     C29346   5.297   0.685   1.397 -0.1334  0.2819  0.2163
  938MOL0     C29347   5.330   0.796   1.489 -0.2970 -0.0320 -0.9375
  938MOL0     C29348   5.459   0.870   1.452  0.3700  1.1422 -0.5375
  938MOL0     C29349   5.519   0.951   1.565  0.5749  0.1850 -0.1155
  938MOL0     C29350   5.641   1.033   1.517 -0.4684  0.2188 -0.5775
  938MOL0    Cl29351   5.722   1.106   1.652  0.2372 -0.6594 -0.3344
  938MOL0     C29352   5.159   0.478   1.081  1.0422 -0.4335 -0.1347
  938MOL0     C29353   5.060   0.511   0.989  0.1232  0.6724 -0.4180
  938MOL0     O29354   4.863   0.285   0.707  0.1354 -0.0671  0.5666
  938MOL0     C29355   4.770   0.621   0.641  0.7774  0.4455  0.0077
  938MOL0     C29356   4.701   0.712   0.549 -0.0752  0.3736  0.4268
  938MOL0     N29357   4.275   1.146  -0.001  0.4510  0.6768 -0.3509
  938MOL0     N29358   4.159   1.190  -0.046  0.4749  0.0372  0.4097
  938MOL0     C29359   3.839   1.230   0.642 -0.0852 -0.4895 -0.6824
  938MOL0     C29360   3.961   1.236   0.709 -0.2844 -0.3345 -0.4971
  938MOL0     C29361   4.328   0.983   0.890 -0.5074  0.1267  0.0736
  938MOL0     C29362   4.340   1.054   1.018 -0.5574 -0.8016  0.8690
  938MOL0     C29363   4.439   1.028   1.104  0.1359  0.2661  0.4650
  938MOL0     C29364   4.533   0.928   1.083 -0.2002  0.4710 -0.1734
  938MOL0     O29365   4.642   0.907   1.172 -0.1035  0.3157  0.6690
  938MOL0     C29366   4.617   0.937   1.310 -0.1968  0.0133 -0.4415
  938MOL0     C29367   4.749   0.908   1.397  0.7901 -0.0125  0.3897
  938MOL0     C29368   4.880   0.943   1.329  0.0553  0.8059 -0.5764
  938MOL0     C29369   4.905   1.088   1.315  0.8114 -0.0943 -0.7890
  938MOL0     C29370   5.035   1.114   1.247  0.9902 -0.7253 -0.1120
  938MOL0     C29371   5.145   1.106   1.196 -0.6180  0.1632 -0.4787
  938MOL0     C29372   4.528   0.856   0.965 -0.1538  0.1259 -0.0909
  938MOL0     C29373   4.432   0.874   0.863 -0.3659  1.5279  0.0875
  938MOL0     C29374   4.427   0.780   0.740 -0.0445 -0.3577  0.0746
  938MOL0     H29375   3.959   0.925   0.862  1.6065  1.2595  1.0568
  938MOL0     H29376   3.734   0.928   0.754 -2.1765  1.9779 -2.4453
  938MOL0     H29377   3.471   1.021   0.534 -1.0455  2.1426  5.6441
  938MOL0     H29378   3.588   0.932   0.641  0.3972 -1.6624 -1.3147
  938MOL0     H29379   3.753   0.915   0.478 -0.6119 -0.7634  0.0459
  938MOL0     H29380   3.604   0.840   0.415  0.1466  0.4609  0.5967
  938MOL0     H29381   3.539   1.037   0.295  0.2043  0.2423  0.6541
  938MOL0     H29382   3.693   1.109   0.352 -0.8140  1.2045 -2.7371
  938MOL0     H29383   3.810   0.956   0.186 -0.2707  1.1849 -1.5319
  938MOL0     H29384   3.658   0.861   0.187  1.1244 -0.3424 -0.7758
  938MOL0     H29385   3.541   1.045   0.044  0.7758  0.0592 -1.0989
  938MOL0     H29386   3.665   0.960  -0.023  2.4266 -0.1234 -0.1734
  938MOL0     H29387   3.679   1.182  -0.088  3.4826  2.5733 -0.3935
  938MOL0     H29388   3.667   1.253   0.073 -1.3515 -0.3843  0.1938
  938MOL0     H29389   3.898   1.135   0.123 -0.2643 -1.4715  0.1168
  938MOL0     H29390   3.891   1.275   0.020  2.3994 -0.8167 -0.1607
  938MOL0     H29391   3.894   0.995  -0.105 -1.6124 -0.0733  0.7392
  938MOL0     H29392   3.920   1.160  -0.175 -1.5742 -1.3281 -0.1048
  938MOL0     H29393   4.099   0.868  -0.021 -0.5076 -0.1293 -0.7118
  938MOL0     H29394   4.410   0.853   0.000 -0.4008 -0.0736  1.8784
  938MOL0     H29395   4.332   0.862   0.153 -1.3130  1.3139  1.1667
  938MOL0     H29396   4.528   1.088   0.054 -0.7142 -0.6135 -0.9303
  938MOL0     H29397   4.456   1.080   0.206 -0.9047 -1.5975 -0.4199
  938MOL0     H29398   4.638   0.851   0.110  1.3209 -0.9899  1.3216
  938MOL0     H29399   4.694   0.999   0.193 -0.6377 -0.1504 -0.8299
  938MOL0     H29400   4.668   0.899   0.396 -0.8049  0.7719  1.4813
  938MOL0     H29401   4.494   0.914   0.357  0.9296  2.7845 -0.5882
  938MOL0     H29402   4.592   0.480   0.331 -2.8514  1.1755  0.6335
  938MOL0     H29403   4.677   0.214   0.551  1.5133  1.3468  1.2412
  938MOL0     H29404   4.805   0.231   0.434 -0.9312 -1.0972  0.4235
  938MOL0     H29405   4.642   0.268   0.388 -0.0874 -0.0982 -0.2910
  938MOL0     H29406   5.095   0.264   0.771  1.3542  2.3231 -1.5112
  938MOL0     H29407   5.268   0.197   0.906 -1.4430 -0.7916  1.1804
  938MOL0     H29408   5.515   0.436   1.221 -0.5909  2.6048  0.9161
  938MOL0     H29409   5.392   0.538   1.174  1.5001  1.7681  3.2169
  938MOL0     H29410   5.236   0.436   1.332 -0.0923  0.9823  0.1398
  938MOL0     H29411   5.377   0.341   1.393  0.6588 -0.1070  0.1133
  938MOL0     H29412   5.485   0.576   1.409  1.0766 -2.6500  2.0149
  938MOL0     H29413   5.373   0.531   1.536  1.1300  1.7917  1.4582
  938MOL0     H29414   5.191   0.668   1.418  0.2494 -0.8314  1.3747
  938MOL0     H29415   5.313   0.719   1.294 -0.2578 -0.8724 -0.2046
  938MOL0     H29416   5.246   0.866   1.493  1.8230  2.6566 -1.2618
  938MOL0     H29417   5.353   0.744   1.582 -0.3661 -1.2835 -1.5966
  938MOL0     H29418   5.423   0.926   1.364  0.3524 -0.9670 -1.9391
  938MOL0     H29419   5.532   0.794   1.425 -0.6392 -1.5155  3.4029
  938MOL0     H29420   5.551   0.903   1.658 -0.8833 -0.8874 -0.1242
  938MOL0     H29421   5.447   1.020   1.609  1.9985  2.5010 -1.2314
  938MOL0     H29422   5.594   1.107   1.452 -3.0319  1.1161  2.0694
  938MOL0     H29423   5.710   0.970   1.460 -0.5063  0.6690 -1.1302
  938MOL0     H29424   5.175   0.548   1.162  4.0881 -1.3788  0.2275
  938MOL0     H29425   4.993   0.596   0.992 -0.8037 -0.0524  0.5500
  938MOL0     H29426   4.821   0.672   0.723 -1.1944  1.7394  0.5043
  938MOL0     H29427   4.694   0.818   0.569  1.8196  0.4741  0.7980
  938MOL0     H29428   3.805   1.319   0.590 -3.2158 -0.6403  0.8759
  938MOL0     H29429   4.038   1.310   0.689 -0.3097 -0.4957 -1.1963
  938MOL0     H29430   4.278   1.140   1.040 -0.0489 -0.1880 -0.0207
  938MOL0     H29431   4.437   1.104   1.182 -3.6805  0.0374  0.7460
  938MOL0     H29432   4.595   1.045   1.313  1.6338  0.3820  1.3733
  938MOL0     H29433   4.532   0.882   1.351 -1.5140  1.4377 -1.1440
  938MOL0     H29434   4.747   0.801   1.423  1.9800 -0.4712 -1.2281
  938MOL0     H29435   4.740   0.953   1.496  0.2421  3.3538 -1.0547
  938MOL0     H29436   4.960   0.900   1.390  2.1391  2.7494 -1.7336
  938MOL0     H29437   4.885   0.900   1.228  0.8582 -0.2813 -0.0888
  938MOL0     H29438   4.896   1.136   1.413 -0.4143  1.5473 -1.6518
  938MOL0     H29439   4.833   1.137   1.248 -0.0761 -2.1276 -1.4064
  938MOL0     H29440   5.237   1.089   1.144  1.3695 -0.0561  2.7584
  938MOL0     H29441   4.612   0.791   0.944 -0.1659  0.7014 -2.1526
  938MOL0     H29442   4.344   0.709   0.737 -0.7399  0.3773  1.2891
  938MOL0     H29443   4.418   0.849   0.655 -1.9081 -1.4596 -0.6803
  938MOL0     H29444   4.521   0.723   0.744 -0.1308 -0.5639 -0.6971
  939MOL0     O29445   8.102   6.392   2.425 -0.4803  0.7798  0.2204
  939MOL0     C29446   8.043   6.394   2.529  0.4077  0.2353 -1.0469
  939MOL0     O29447   7.908   6.430   2.543  0.2242 -0.1512  0.0042
  939MOL0     C29448   7.827   6.439   2.434 -0.0439 -0.7153  0.0125
  939MOL0     C29449   7.709   6.366   2.427  0.5934 -0.4357  0.0922
  939MOL0     C29450   7.618   6.370   2.320 -0.0616 -0.0432  0.2542
  939MOL0     C29451   7.648   6.450   2.213 -0.6222  0.1087 -0.2096
  939MOL0     O29452   7.576   6.456   2.100 -0.1236  0.2998 -0.5596
  939MOL0     C29453   7.436   6.478   2.126  1.0763  0.7115  1.0659
  939MOL0     C29454   7.368   6.536   2.003  0.6375 -0.2341 -0.9199
  939MOL0     C29455   7.388   6.441   1.880  0.2384  0.4018 -0.6794
  939MOL0     C29456   7.297   6.324   1.851 -0.3672  0.2946 -0.5071
  939MOL0     C29457   7.354   6.225   1.741 -0.1523 -0.0983  0.1421
  939MOL0     C29458   7.320   6.280   1.598 -0.0366 -0.1338  0.1888
  939MOL0     C29459   7.353   6.183   1.474  0.3047 -0.6487 -0.6226
  939MOL0     C29460   7.506   6.160   1.454  0.3110 -0.2187 -1.6145
  939MOL0     N29461   7.520   6.034   1.389 -0.6334  0.0196 -0.0993
  939MOL0     C29462   7.508   5.916   1.459  0.4254  0.2088 -1.0022
  939MOL0     C29463   7.533   5.818   1.373 -0.6737 -1.1789  0.1736
  939MOL0     C29464   7.565   5.677   1.401  0.3896 -0.0402  0.0370
  939MOL0     C29465   7.438   5.589   1.418 -1.2265  0.3152 -0.3627
  939MOL0     C29466   7.372   5.557   1.277  0.6192  1.0892 -0.7191
  939MOL0     C29467   7.247   5.464   1.287  0.4515  0.0527 -0.3789
  939MOL0     O29468   7.191   5.425   1.162  0.4361  0.0579  1.2092
  939MOL0     C29469   7.063   5.377   1.167 -0.0430  0.7326 -0.7509
  939MOL0     C29470   7.029   5.235   1.162  0.1275  0.2982  0.6178
  939MOL0     C29471   6.896   5.186   1.168 -0.1466 -0.5542 -0.8303
  939MOL0     C29472   6.869   5.035   1.150  0.9276 -0.2783  0.0568
  939MOL0     C29473   6.794   5.289   1.183 -0.7064  0.3890  0.2401
  939MOL0     C29474   6.647   5.266   1.189 -0.8840 -1.1105  0.5029
  939MOL0     O29475   6.570   5.343   1.273 -0.0432  0.1602 -0.6570
  939MOL0     C29476   6.438   5.299   1.283  0.2930 -1.1688  0.0609
  939MOL0     C29477   6.390   5.203   1.368  0.5758  0.2318 -0.2995
  939MOL0     C29478   6.258   5.151   1.345 -0.2087 -0.9039  0.4826
  939MOL0     C29479   6.169   5.205   1.253 -0.7112  0.4433 -0.3138
  939MOL0     O29480   6.051   5.147   1.225  0.0476 -0.9522  0.2863
  939MOL0     C29481   5.988   5.055   1.314  0.1064 -0.2676  0.1847
  939MOL0     C29482   5.879   4.990   1.231  0.1489 -0.1162 -0.2331
  939MOL0     C29483   5.954   4.887   1.144  0.2017  0.4333  0.2667
  939MOL0     C29484   5.866   4.812   1.047  0.2712 -0.1935 -0.0553
  939MOL0     C29485   5.746   4.738   1.107 -0.9130  0.4700 -0.1817
  939MOL0     C29486   5.672   4.658   0.996 -0.1263  0.5316 -0.4508
  939MOL0     C29487   5.556   4.568   1.061 -0.5933 -0.3261 -0.7064
  939MOL0     C29488   5.491   4.487   0.951 -0.3603  0.8092 -0.9900
  939MOL0    Cl29489   5.384   4.367   1.040 -0.6073  0.0191  0.5402
  939MOL0     C29490   6.220   5.304   1.170  0.6646  0.1447  0.7101
  939MOL0     C29491   6.348   5.354   1.191  0.9001  0.1557  0.1101
  939MOL0     O29492   6.602   5.186   1.109 -0.1645 -0.7077  0.2178
  939MOL0     C29493   6.829   5.417   1.183 -0.2475 -0.2062  1.0730
  939MOL0     C29494   6.954   5.461   1.177  0.1260 -0.0065 -0.3090
  939MOL0     N29495   7.567   5.880   1.248 -0.3391 -0.4674  0.6393
  939MOL0     N29496   7.554   6.008   1.255 -0.4945  0.3547 -0.9007
  939MOL0     C29497   7.775   6.516   2.206  0.3077 -0.1363 -0.6148
  939MOL0     C29498   7.862   6.520   2.322 -0.2377  0.3801 -0.2335
  939MOL0     C29499   8.112   6.351   2.659  0.5321  0.1095  1.0721
  939MOL0     C29500   8.024   6.326   2.770 -0.3302 -0.2049  0.1410
  939MOL0     C29501   8.080   6.290   2.894  0.2112  0.6963 -0.0675
  939MOL0     C29502   8.215   6.271   2.906 -0.3095  0.3442  0.5580
  939MOL0     O29503   8.258   6.225   3.025 -0.1295 -0.4238 -0.7087
  939MOL0     C29504   8.399   6.192   3.052  0.7207  0.4021 -0.1493
  939MOL0     C29505   8.476   6.323   3.073 -0.6378  0.0424  0.1309
  939MOL0     C29506   8.527   6.359   3.215 -0.2993 -0.3946 -0.2024
  939MOL0     C29507   8.415   6.361   3.326 -0.0717 -1.3649 -0.0314
  939MOL0     C29508   8.347   6.495   3.320  0.2205  0.8794 -0.2682
  939MOL0     C29509   8.298   6.608   3.318  0.8536 -0.5368 -0.9280
  939MOL0     C29510   8.305   6.296   2.789 -0.2600  0.2515 -0.3389
  939MOL0     C29511   8.253   6.339   2.665 -0.2527 -0.6701 -0.6196
  939MOL0     C29512   8.353   6.362   2.560 -0.5625  0.3601 -0.7770
  939MOL0     H29513   7.681   6.316   2.519 -1.9247  1.5526  0.5298
  939MOL0     H29514   7.531   6.306   2.311 -1.5331  1.9097 -0.0446
  939MOL0     H29515   7.414   6.535   2.216 -0.5724  3.3910 -0.8836
  939MOL0     H29516   7.381   6.384   2.136  2.5216 -0.2608  0.3959
  939MOL0     H29517   7.262   6.541   2.030  0.1167  1.3494 -3.0237
  939MOL0     H29518   7.403   6.639   1.992  1.3910 -0.1751  1.4346
  939MOL0     H29519   7.378   6.504   1.791  0.9056  0.4169 -0.7512
  939MOL0     H29520   7.496   6.421   1.874  0.3104 -1.1248  3.1906
  939MOL0     H29521   7.275   6.258   1.936 -1.0856  1.1045 -0.0381
  939MOL0     H29522   7.196   6.359   1.830 -0.7937 -0.1191  0.7582
  939MOL0     H29523   7.308   6.126   1.744 -0.5736  0.1170  1.0956
  939MOL0     H29524   7.464   6.222   1.746 -0.2145 -0.9872  3.7134
  939MOL0     H29525   7.212   6.291   1.587  0.1093  0.8641 -0.3992
  939MOL0     H29526   7.354   6.381   1.576 -2.3156  0.2153 -2.1632
  939MOL0     H29527   7.319   6.229   1.380  1.0414  1.1961 -0.0461
  939MOL0     H29528   7.300   6.092   1.502 -0.2728  0.4596  2.2887
  939MOL0     H29529   7.545   6.239   1.389 -2.7932  1.0428 -2.0715
  939MOL0     H29530   7.559   6.154   1.550  0.2271 -4.5825 -1.6376
  939MOL0     H29531   7.484   5.900   1.564 -0.2201 -0.2346 -1.2102
  939MOL0     H29532   7.619   5.683   1.496  0.7892  0.6299 -0.2301
  939MOL0     H29533   7.644   5.641   1.334  0.8410 -0.7039  0.9033
  939MOL0     H29534   7.475   5.493   1.455 -1.5301  0.6409  0.8495
  939MOL0     H29535   7.379   5.644   1.493  0.9443  3.4640 -0.7505
  939MOL0     H29536   7.336   5.652   1.236 -1.9450  0.1043 -0.9926
  939MOL0     H29537   7.443   5.507   1.210  0.2229  0.3920 -0.6385
  939MOL0     H29538   7.259   5.371   1.344 -1.0245  1.0217  1.6435
  939MOL0     H29539   7.162   5.511   1.337  1.5588  1.1447  0.5266
  939MOL0     H29540   7.104   5.157   1.160 -1.8333 -1.7097 -1.7390
  939MOL0     H29541   6.858   5.012   1.044  3.6694  3.1339 -1.1408
  939MOL0     H29542   6.780   5.007   1.207 -0.0840  3.1480  0.3734
  939MOL0     H29543   6.950   4.976   1.194  0.0547 -0.2770  1.7409
  939MOL0     H29544   6.454   5.160   1.444 -0.6150  0.7087  1.0223
  939MOL0     H29545   6.239   5.069   1.414 -2.1618 -2.7054 -1.9997
  939MOL0     H29546   6.061   4.992   1.366  0.8634  1.0620  0.8006
  939MOL0     H29547   5.941   5.109   1.396 -0.7307  0.6424 -0.8707
  939MOL0     H29548   5.810   4.949   1.305  1.3848 -1.5583  0.1501
  939MOL0     H29549   5.819   5.052   1.163  0.6722  0.4060 -0.2218
  939MOL0     H29550   6.003   4.816   1.211  2.4502  1.8699  0.2608
  939MOL0     H29551   6.024   4.939   1.078  0.2368 -0.1810 -0.1852
  939MOL0     H29552   5.938   4.743   1.002  2.7952  3.1060 -1.4492
  939MOL0     H29553   5.838   4.872   0.960  0.6068 -2.8294 -2.1075
  939MOL0     H29554   5.792   4.681   1.188 -0.9642  1.8758  0.8610
  939MOL0     H29555   5.675   4.803   1.158 -0.3998  0.6813  0.2729
  939MOL0     H29556   5.744   4.602   0.935 -0.3382 -0.7577  0.4631
  939MOL0     H29557   5.628   4.738   0.935 -1.1698 -0.1697 -0.6487
  939MOL0     H29558   5.478   4.628   1.109  0.9555  1.6046 -0.4880
  939MOL0     H29559   5.599   4.499   1.135 -0.7169 -0.8680 -1.1288
  939MOL0     H29560   5.568   4.434   0.895  1.4339  0.7035  1.3967
  939MOL0     H29561   5.430   4.539   0.877  0.2710  0.1154 -2.0144
  939MOL0     H29562   6.155   5.340   1.091 -1.0861 -1.9843  1.0730
  939MOL0     H29563   6.376   5.424   1.112 -0.3716 -1.7919 -2.1980
  939MOL0     H29564   6.742   5.481   1.177  0.3662  0.5813  0.4164
  939MOL0     H29565   6.981   5.566   1.183  2.1115 -0.3596 -1.9304
  939MOL0     H29566   7.797   6.566   2.112  0.1243 -0.0109 -0.5913
  939MOL0     H29567   7.954   6.578   2.328  0.9000 -1.4860  2.3408
  939MOL0     H29568   7.917   6.327   2.759 -0.4885  1.0466  1.4417
  939MOL0     H29569   8.017   6.282   2.981 -1.3965 -0.0151 -1.2378
  939MOL0     H29570   8.415   6.126   3.138  2.7788  1.4151  0.3159
  939MOL0     H29571   8.430   6.140   2.962  1.4313 -0.1896  0.4272
  939MOL0     H29572   8.421   6.411   3.039 -0.6582 -0.4415 -1.1501
  939MOL0     H29573   8.568   6.316   3.014 -1.0389  1.7033 -0.7806
  939MOL0     H29574   8.597   6.285   3.256  2.0292  1.5597 -0.4603
  939MOL0     H29575   8.583   6.453   3.217  2.5970 -1.9854 -0.5376
  939MOL0     H29576   8.456   6.353   3.427 -1.1068 -1.5366  0.3879
  939MOL0     H29577   8.339   6.282   3.326  0.5664 -2.0975  3.1247
  939MOL0     H29578   8.257   6.706   3.304 -3.0885 -1.9346 -0.3584
  939MOL0     H29579   8.412   6.280   2.788 -0.0271  1.6273 -0.5016
  939MOL0     H29580   8.456   6.353   2.596 -1.0967  1.3048  1.1336
  939MOL0     H29581   8.346   6.295   2.474  4.2205 -3.4537  1.3418
  939MOL0     H29582   8.352   6.463   2.518  1.3173  0.9058  0.3541
  940MOL0     O29583   9.841   8.968   3.848  0.1453  0.5043 -0.6985
  940MOL0     C29584   9.797   8.955   3.963  0.0378 -0.4780  0.9022
  940MOL0     O29585   9.868   8.958   4.083 -0.4849 -0.2000  0.1614
  940MOL0     C29586  10.001   8.951   4.083  0.6656 -0.8295 -0.3605
  940MOL0     C29587  10.054   8.818   4.072  0.3326 -0.5926 -0.0875
  940MOL0     C29588  10.192   8.795   4.057 -0.5596  0.4893  0.4246
  940MOL0     C29589  10.279   8.900   4.034 -0.8154 -0.4559  0.1873
  940MOL0     O29590  10.415   8.876   4.020 -0.2317 -0.5039  0.7855
  940MOL0     C29591  10.510   8.978   4.047  0.4418  0.6555  0.2385
  940MOL0     C29592  10.587   9.048   3.932 -1.2497 -0.2957 -0.1474
  940MOL0     C29593  10.738   9.081   3.970  0.2302  0.4277  0.0519
  940MOL0     C29594  10.747   9.218   4.060 -1.5111  0.2882 -0.0411
  940MOL0     C29595  10.894   9.268   4.063  0.4282  0.2681 -0.5658
  940MOL0     C29596  10.995   9.171   4.137  0.1096  0.1913  0.7737
  940MOL0     C29597  11.140   9.222   4.102  0.2465  0.0391 -0.6202
  940MOL0     C29598  11.170   9.350   4.178 -0.0760 -0.1098  0.0953
  940MOL0     N29599  11.300   9.402   4.133  0.1323 -0.4538  0.1541
  940MOL0     C29600  11.408   9.404   4.212  0.2181  0.6311  0.1389
  940MOL0     C29601  11.506   9.460   4.137  0.4331  0.0792  0.3565
  940MOL0     C29602  11.647   9.490   4.175  0.2686  0.2031  0.3908
  940MOL0     C29603  11.730   9.371   4.225  0.5492 -0.2464 -0.2179
  940MOL0     C29604  11.845   9.396   4.331  0.4139 -0.1740  0.2592
  940MOL0     C29605  11.937   9.503   4.285  0.2089  0.4170  0.1607
  940MOL0     O29606  12.013   9.530   4.404  0.6459 -0.7370  0.1771
  940MOL0     C29607  12.114   9.620   4.401 -0.0063 -0.2185  0.3413
  940MOL0     C29608  12.143   9.676   4.529 -0.5464  0.1305  0.1700
  940MOL0     C29609  12.238   9.770   4.532 -0.5763  0.0441 -0.9373
  940MOL0     C29610  12.283   9.805   4.673 -0.3109 -0.1773 -0.4211
  940MOL0     C29611  12.305   9.816   4.419  0.3452 -0.1728  0.5791
  940MOL0     C29612  12.387   9.933   4.413 -0.6890 -0.5380 -0.0130
  940MOL0     O29613  12.496   9.957   4.494  0.8265 -0.3840  0.3100
  940MOL0     C29614  12.595  10.052   4.465 -1.0500 -0.0316  0.5246
  940MOL0     C29615  12.673  10.094   4.573 -0.3022 -0.7056 -0.0045
  940MOL0     C29616  12.771  10.185   4.554 -0.9508  0.0137 -0.2611
  940MOL0     C29617  12.802  10.240   4.430 -0.1336 -0.0063  0.5230
  940MOL0     O29618  12.901  10.331   4.404 -0.7191  0.1600 -0.0171
  940MOL0     C29619  13.000  10.358   4.507 -0.4734 -0.2680  0.3079
  940MOL0     C29620  13.064  10.493   4.474 -0.4745  0.6820 -0.0831
  940MOL0     C29621  12.990  10.608   4.542 -0.1378 -1.3023 -0.5440
  940MOL0     C29622  13.053  10.742   4.500 -0.3771 -0.4277  0.6010
  940MOL0     C29623  12.990  10.847   4.598 -0.3716  0.1013  0.1224
  940MOL0     C29624  12.840  10.874   4.579 -0.0102  0.5641  0.1676
  940MOL0     C29625  12.794  10.958   4.700 -0.1979 -0.3095  0.0522
  940MOL0     C29626  12.672  11.031   4.661 -0.2744 -0.8056 -1.5763
  940MOL0    Cl29627  12.613  11.109   4.810 -0.0805  0.1244  0.2448
  940MOL0     C29628  12.727  10.191   4.321 -0.9844 -0.0811  0.4007
  940MOL0     C29629  12.632  10.102   4.334  1.2110  0.2563  0.9064
  940MOL0     O29630  12.352  10.009   4.318 -0.6295  0.4256 -0.2941
  940MOL0     C29631  12.279   9.760   4.293  0.0782  0.1725 -0.1821
  940MOL0     C29632  12.179   9.669   4.281  1.1124 -0.4704  0.2329
  940MOL0     N29633  11.445   9.488   4.011 -1.3263 -0.2598  0.5304
  940MOL0     N29634  11.321   9.455   4.008 -0.1230  0.3734  0.2788
  940MOL0     C29635  10.225   9.031   4.029  0.3692 -0.1591  0.4693
  940MOL0     C29636  10.079   9.057   4.049 -1.1227 -0.6486  0.7796
  940MOL0     C29637   9.641   8.949   3.973 -0.2617 -1.0201  0.2086
  940MOL0     C29638   9.581   8.976   4.095 -0.4683 -0.3134  0.4305
  940MOL0     C29639   9.448   8.948   4.115  0.4329 -0.8033 -1.0022
  940MOL0     C29640   9.356   8.912   4.019 -0.5985 -0.3760 -1.5815
  940MOL0     O29641   9.220   8.933   4.043 -0.4851  0.3952  0.3231
  940MOL0     C29642   9.125   8.899   3.945  0.4629 -0.8858 -0.0147
  940MOL0     C29643   8.976   8.889   3.998  0.3236  1.0444  0.0738
  940MOL0     C29644   8.923   9.027   4.010 -0.4203  0.0310  0.5786
  940MOL0     C29645   8.780   9.018   4.058 -0.1937 -0.4140 -0.0087
  940MOL0     C29646   8.723   9.151   4.084  0.3480 -0.1814  0.3220
  940MOL0     C29647   8.680   9.262   4.114 -0.6660 -0.2977 -0.0152
  940MOL0     C29648   9.409   8.894   3.889 -0.3137 -0.5725 -0.4640
  940MOL0     C29649   9.552   8.914   3.863  0.4297  0.2808 -1.0776
  940MOL0     C29650   9.603   8.886   3.724  0.3513 -0.2516 -0.2800
  940MOL0     H29651  10.001   8.726   4.094  1.8428 -1.8618 -1.4258
  940MOL0     H29652  10.234   8.695   4.064  3.0425  1.6738 -1.5161
  940MOL0     H29653  10.589   8.923   4.099  2.1951  2.7244 -0.0711
  940MOL0     H29654  10.468   9.051   4.117  0.3561  1.1580 -0.3322
  940MOL0     H29655  10.598   8.989   3.840  0.3568 -0.7922  0.3281
  940MOL0     H29656  10.525   9.132   3.898 -2.2950 -0.8179  0.4139
  940MOL0     H29657  10.790   9.000   4.023 -0.3425  0.1928  0.2591
  940MOL0     H29658  10.797   9.092   3.879 -1.2011 -0.0910 -0.9646
  940MOL0     H29659  10.687   9.289   4.003 -1.3815  1.3617  1.1146
  940MOL0     H29660  10.713   9.197   4.162  5.1354 -0.1450  2.6158
  940MOL0     H29661  10.901   9.368   4.106  1.2916 -0.3324  0.7681
  940MOL0     H29662  10.924   9.265   3.957 -2.0421 -2.1717 -1.3037
  940MOL0     H29663  10.975   9.166   4.244 -1.3887  4.0346  0.8361
  940MOL0     H29664  11.007   9.068   4.101  2.3588 -0.0097  1.8863
  940MOL0     H29665  11.136   9.222   3.992  1.8918 -3.2693 -0.7816
  940MOL0     H29666  11.214   9.144   4.119 -0.8019 -1.7464 -3.5062
  940MOL0     H29667  11.096   9.428   4.156 -2.3095 -2.4104 -1.2101
  940MOL0     H29668  11.177   9.319   4.283 -1.2041 -0.8881 -0.0326
  940MOL0     H29669  11.411   9.372   4.316  1.3198  4.4619  1.4546
  940MOL0     H29670  11.651   9.565   4.255  2.4991  1.2008 -0.5629
  940MOL0     H29671  11.689   9.547   4.092 -2.7490  0.7949 -0.8810
  940MOL0     H29672  11.667   9.293   4.268 -2.8907  1.4957 -1.6218
  940MOL0     H29673  11.783   9.333   4.137  4.0896 -0.2857  1.7497
  940MOL0     H29674  11.803   9.410   4.431  0.5826  0.4682  0.2419
  940MOL0     H29675  11.903   9.303   4.325 -0.0284 -0.3683 -4.0569
  940MOL0     H29676  12.000   9.474   4.200  2.2355  1.1514  1.3311
  940MOL0     H29677  11.886   9.596   4.257  0.7665  0.6893  0.0233
  940MOL0     H29678  12.085   9.642   4.614  0.0902 -3.5388 -0.6687
  940MOL0     H29679  12.265   9.726   4.747  0.7658 -0.5403 -0.5273
  940MOL0     H29680  12.218   9.885   4.708 -0.2041  0.0856 -0.8169
  940MOL0     H29681  12.385   9.843   4.689 -0.8631  1.7085 -1.0932
  940MOL0     H29682  12.654  10.049   4.670  0.9182  1.1373  1.1373
  940MOL0     H29683  12.836  10.205   4.640  1.5504 -0.7588 -1.8498
  940MOL0     H29684  12.967  10.362   4.611  1.7260  2.8351  1.0425
  940MOL0     H29685  13.075  10.278   4.509 -0.9853 -0.8026 -1.0900
  940MOL0     H29686  13.172  10.496   4.492 -0.2179 -3.7739  0.2616
  940MOL0     H29687  13.059  10.501   4.364 -0.4669 -2.7300 -0.4173
  940MOL0     H29688  12.995  10.603   4.651 -0.1634  0.0499 -0.4573
  940MOL0     H29689  12.884  10.601   4.518  0.0575 -0.0266 -1.9722
  940MOL0     H29690  13.028  10.771   4.398  0.2129  1.9288  1.0706
  940MOL0     H29691  13.162  10.742   4.510 -0.3820 -1.8917  1.0234
  940MOL0     H29692  13.015  10.810   4.697 -3.3309  0.5267  1.1384
  940MOL0     H29693  13.029  10.949   4.589 -0.8185  0.1829 -1.2049
  940MOL0     H29694  12.782  10.781   4.584 -0.3851  0.8422  1.8386
  940MOL0     H29695  12.830  10.918   4.480 -0.4896  0.3637  0.1268
  940MOL0     H29696  12.868  11.024   4.747  1.8338 -2.0158 -0.5975
  940MOL0     H29697  12.775  10.886   4.780 -0.6458 -1.3339 -0.9504
  940MOL0     H29698  12.608  10.954   4.618 -0.0493 -0.3176 -2.8082
  940MOL0     H29699  12.693  11.113   4.592 -1.4819 -0.2477 -1.3074
  940MOL0     H29700  12.739  10.233   4.221 -0.2585  1.6511  1.1606
  940MOL0     H29701  12.579  10.071   4.244  0.4472  1.9666  0.7286
  940MOL0     H29702  12.338   9.796   4.209 -0.1981 -1.8040 -1.2739
  940MOL0     H29703  12.165   9.629   4.181  0.0994 -0.4520  0.3663
  940MOL0     H29704  10.270   9.124   3.999 -1.3111  0.1007 -1.4873
  940MOL0     H29705  10.050   9.161   4.042  0.9183 -0.1436 -2.2498
  940MOL0     H29706   9.634   9.007   4.184 -0.8099 -1.8721  1.2155
  940MOL0     H29707   9.413   8.967   4.216  2.2993 -0.5193 -0.3810
  940MOL0     H29708   9.134   8.973   3.865 -0.4676  0.2091  0.8590
  940MOL0     H29709   9.163   8.803   3.907  0.8010 -1.1433  0.9378
  940MOL0     H29710   8.965   8.843   4.096  1.2771 -1.4512 -0.9244
  940MOL0     H29711   8.928   8.827   3.922  1.9093 -0.1758  0.0308
  940MOL0     H29712   8.988   9.084   4.077  2.3829 -0.4285 -1.5398
  940MOL0     H29713   8.931   9.082   3.915  2.3042  0.8294  1.1633
  940MOL0     H29714   8.776   8.972   4.157 -0.7028  2.3425  1.3412
  940MOL0     H29715   8.716   8.957   3.993  0.1728 -0.9782  0.1576
  940MOL0     H29716   8.630   9.353   4.141  1.6119  1.0411 -0.0279
  940MOL0     H29717   9.342   8.892   3.803  1.1237  2.4883 -1.7728
  940MOL0     H29718   9.615   8.982   3.672 -0.0398  0.1870  0.4317
  940MOL0     H29719   9.693   8.824   3.716  1.0817  0.5561  1.3099
  940MOL0     H29720   9.525   8.834   3.668  0.2102  1.3571 -1.6435
  941MOL0     O29721   4.317   8.027   3.120 -0.7256  0.2923 -1.0954
  941MOL0     C29722   4.251   7.971   3.206 -0.2402  0.0497 -0.4320
  941MOL0     O29723   4.184   7.859   3.194 -0.6154 -0.0317 -0.0485
  941MOL0     C29724   4.167   7.794   3.076 -0.4511  0.6618 -0.4420
  941MOL0     C29725   4.176   7.838   2.943 -0.0020 -0.3122  1.0174
  941MOL0     C29726   4.138   7.760   2.831 -0.2666 -0.0049 -0.1790
  941MOL0     C29727   4.074   7.633   2.855  0.6156 -0.4084 -0.9388
  941MOL0     O29728   4.020   7.545   2.769  0.0213 -0.0058 -0.0146
  941MOL0     C29729   4.021   7.585   2.631  0.2409 -0.5800 -0.9359
  941MOL0     C29730   3.918   7.491   2.566  0.1048 -0.9580 -1.0717
  941MOL0     C29731   3.968   7.351   2.564  0.0874 -0.5681  0.9916
  941MOL0     C29732   3.851   7.263   2.520  0.3598  0.0633 -0.4361
  941MOL0     C29733   3.889   7.117   2.514 -0.2944 -0.5243 -0.1631
  941MOL0     C29734   3.828   7.055   2.388 -0.5372 -0.0244  0.5267
  941MOL0     C29735   3.887   6.913   2.372  0.3322 -0.2499 -0.4640
  941MOL0     C29736   3.816   6.855   2.246  0.2626  0.3036  0.2139
  941MOL0     N29737   3.893   6.754   2.175 -1.0166 -0.3646  0.3443
  941MOL0     C29738   4.011   6.782   2.106 -0.4833  0.7152  0.2459
  941MOL0     C29739   4.066   6.658   2.100 -0.0653 -0.0389  1.0936
  941MOL0     C29740   4.203   6.619   2.053 -0.3718  0.6728 -0.4777
  941MOL0     C29741   4.308   6.672   2.147  0.8469  0.1691 -0.0143
  941MOL0     C29742   4.316   6.616   2.294  0.6638  0.5676 -0.3246
  941MOL0     C29743   4.404   6.712   2.375  0.5563 -0.3282 -0.6103
  941MOL0     O29744   4.541   6.669   2.355 -0.1075  0.3022  0.0758
  941MOL0     C29745   4.636   6.733   2.426 -0.2063 -1.0943  0.2375
  941MOL0     C29746   4.766   6.679   2.423 -0.0638 -0.2334  0.1434
  941MOL0     C29747   4.876   6.719   2.499 -0.3424  0.1222 -0.7638
  941MOL0     C29748   4.995   6.642   2.463  0.2020 -0.6648 -0.6130
  941MOL0     C29749   4.862   6.827   2.582  0.2399  0.0020  0.4722
  941MOL0     C29750   4.957   6.890   2.674 -0.7820  0.0964  0.0093
  941MOL0     O29751   4.912   7.004   2.736 -0.0465  0.4555 -0.5980
  941MOL0     C29752   5.006   7.057   2.824 -0.4282  0.9669  0.8955
  941MOL0     C29753   5.025   7.000   2.950 -0.6036 -0.3651 -0.8982
  941MOL0     C29754   5.105   7.069   3.044 -0.5173  0.2180  0.3378
  941MOL0     C29755   5.185   7.179   3.011  0.3492  0.0680 -0.5964
  941MOL0     O29756   5.276   7.235   3.096 -0.0964  0.8153  0.4642
  941MOL0     C29757   5.249   7.226   3.242 -0.0427  0.0514 -0.1332
  941MOL0     C29758   5.349   7.290   3.333  0.5412  0.2954 -0.7689
  941MOL0     C29759   5.475   7.210   3.342 -0.5226 -0.3880 -0.3105
  941MOL0     C29760   5.557   7.213   3.205 -0.2130 -0.5111 -0.3378
  941MOL0     C29761   5.710   7.210   3.225  0.3103  0.6945  1.0132
  941MOL0     C29762   5.755   7.069   3.265  0.5522 -0.9836  0.1470
  941MOL0     C29763   5.906   7.068   3.265 -0.0740  0.0582  0.4828
  941MOL0     C29764   5.958   7.117   3.393 -0.0809 -0.6654 -0.1694
  941MOL0    Cl29765   6.133   7.065   3.405 -0.2638  0.0756 -0.4946
  941MOL0     C29766   5.158   7.231   2.887 -0.4547 -0.5024  0.0407
  941MOL0     C29767   5.070   7.173   2.795 -0.3148  0.7543 -0.2385
  941MOL0     O29768   5.069   6.838   2.688  0.2154  0.3993  0.5296
  941MOL0     C29769   4.733   6.888   2.587 -0.4004 -0.2743  0.2601
  941MOL0     C29770   4.627   6.852   2.503  0.6580  0.0451 -0.7862
  941MOL0     N29771   3.973   6.570   2.139 -0.6039  0.1567 -0.4997
  941MOL0     N29772   3.867   6.622   2.194 -0.9326 -0.1689 -0.2474
  941MOL0     C29773   4.078   7.594   2.989 -0.6180 -0.4313 -0.8059
  941MOL0     C29774   4.117   7.667   3.098 -0.1043  0.2830  0.1039
  941MOL0     C29775   4.226   8.044   3.329 -0.4487  0.1544 -0.2803
  941MOL0     C29776   4.252   7.980   3.452  0.6736  0.2485 -0.5965
  941MOL0     C29777   4.245   8.056   3.566 -0.6612  0.2192  0.1988
  941MOL0     C29778   4.213   8.198   3.565  0.8437  0.5456  0.2418
  941MOL0     O29779   4.191   8.257   3.686 -0.1784  0.9210 -0.3095
  941MOL0     C29780   4.287   8.357   3.722 -0.4216  1.2950 -0.0013
  941MOL0     C29781   4.331   8.336   3.869 -0.6807 -0.5683  0.5250
  941MOL0     C29782   4.430   8.219   3.880  0.2540 -0.5007  0.9955
  941MOL0     C29783   4.450   8.173   4.025 -0.1715 -0.2508 -0.4982
  941MOL0     C29784   4.329   8.125   4.101  0.1957  0.2940 -0.1661
  941MOL0     C29785   4.227   8.101   4.165 -0.4180 -0.5142 -0.4033
  941MOL0     C29786   4.184   8.251   3.447  0.2767  0.7137  0.0430
  941MOL0     C29787   4.191   8.180   3.325 -0.2303  0.2795 -0.9495
  941MOL0     C29788   4.132   8.252   3.204 -0.4516 -0.6949  0.6250
  941MOL0     H29789   4.228   7.931   2.923 -4.0917  2.7538  3.1883
  941MOL0     H29790   4.129   7.823   2.743 -3.2211  1.2515  0.8785
  941MOL0     H29791   4.122   7.574   2.590 -0.5713 -2.4294 -2.6090
  941MOL0     H29792   3.980   7.686   2.620  1.4568 -0.0857 -1.1008
  941MOL0     H29793   3.823   7.500   2.620  0.4760  2.1507 -0.7236
  941MOL0     H29794   3.896   7.528   2.465 -0.2077 -0.6851 -0.9059
  941MOL0     H29795   4.042   7.337   2.485 -1.5599  1.4880 -1.0470
  941MOL0     H29796   4.013   7.319   2.658  0.8352 -0.6760  0.6060
  941MOL0     H29797   3.781   7.274   2.603  0.0864 -2.1016 -0.3237
  941MOL0     H29798   3.818   7.310   2.427 -0.2764  4.1991  1.6572
  941MOL0     H29799   3.862   7.076   2.612  0.0882 -0.4667 -0.0331
  941MOL0     H29800   3.997   7.109   2.499 -0.6511 -1.9746 -2.5197
  941MOL0     H29801   3.720   7.047   2.402 -0.8501  0.8857 -1.1241
  941MOL0     H29802   3.860   7.108   2.298  3.3748 -0.2205  1.5852
  941MOL0     H29803   3.870   6.853   2.463  2.3008  0.9632  0.7793
  941MOL0     H29804   3.994   6.931   2.361  1.2771 -3.4618  1.6990
  941MOL0     H29805   3.729   6.806   2.291  1.0458  0.4064  1.9022
  941MOL0     H29806   3.780   6.927   2.172 -1.8684 -1.4420 -0.5616
  941MOL0     H29807   4.068   6.869   2.075  3.0798 -1.9179 -1.2399
  941MOL0     H29808   4.216   6.663   1.953  2.3022 -0.9743 -0.9738
  941MOL0     H29809   4.211   6.511   2.038 -2.9195  0.0440  1.9945
  941MOL0     H29810   4.409   6.657   2.107  1.0946  1.4916  0.0583
  941MOL0     H29811   4.291   6.780   2.151  2.0245  0.3453  1.2677
  941MOL0     H29812   4.215   6.618   2.336  0.0942 -0.5238 -1.5746
  941MOL0     H29813   4.353   6.513   2.298 -0.8644  0.0404  2.8423
  941MOL0     H29814   4.397   6.817   2.345  1.7677  0.8070  2.6509
  941MOL0     H29815   4.383   6.711   2.482 -2.4666  0.7578 -1.0993
  941MOL0     H29816   4.781   6.603   2.347  1.5119  0.3252 -0.1374
  941MOL0     H29817   5.086   6.703   2.453 -0.3870  0.2071 -0.7252
  941MOL0     H29818   4.981   6.587   2.370 -2.3300  1.1135 -1.3693
  941MOL0     H29819   5.001   6.571   2.546 -0.9896 -2.0069 -1.6245
  941MOL0     H29820   4.975   6.911   2.986 -1.4259 -0.0374 -1.2184
  941MOL0     H29821   5.124   7.019   3.139  0.0122 -1.7402 -0.7354
  941MOL0     H29822   5.149   7.265   3.265  0.1113 -0.8797  2.5051
  941MOL0     H29823   5.251   7.118   3.262  1.3013  0.4373  2.0975
  941MOL0     H29824   5.374   7.383   3.281 -1.5125  0.0604 -2.3078
  941MOL0     H29825   5.309   7.300   3.434 -0.7164  0.5901 -1.2752
  941MOL0     H29826   5.453   7.106   3.368  0.0033 -0.4228  0.0258
  941MOL0     H29827   5.536   7.244   3.426 -1.0086  0.2403 -0.2020
  941MOL0     H29828   5.535   7.312   3.162 -0.5866 -0.1169  0.7174
  941MOL0     H29829   5.505   7.137   3.145 -5.4382 -0.3824  3.3892
  941MOL0     H29830   5.758   7.226   3.128 -1.9724 -2.6133 -0.8857
  941MOL0     H29831   5.744   7.282   3.300 -2.7970 -0.1662  3.4646
  941MOL0     H29832   5.719   7.004   3.185  0.6481 -1.4206  0.4547
  941MOL0     H29833   5.717   7.041   3.363 -0.4860  1.2451  0.4514
  941MOL0     H29834   5.940   7.127   3.179 -0.5870 -0.8194 -0.3386
  941MOL0     H29835   5.938   6.964   3.260  0.5367  0.2875 -1.6460
  941MOL0     H29836   5.897   7.083   3.478  0.4427  0.2399  0.5952
  941MOL0     H29837   5.947   7.226   3.398 -1.4708 -0.8472  1.5952
  941MOL0     H29838   5.209   7.324   2.868  0.1978 -0.4508  1.9251
  941MOL0     H29839   5.027   7.214   2.705 -0.6318  2.5165  0.6689
  941MOL0     H29840   4.718   6.978   2.645  1.3776  1.4984 -1.8488
  941MOL0     H29841   4.541   6.912   2.529  1.0921 -0.3333  1.7998
  941MOL0     H29842   4.032   7.499   3.013 -1.3618  0.0767 -0.1712
  941MOL0     H29843   4.098   7.641   3.202  0.1033  0.6703  0.2390
  941MOL0     H29844   4.278   7.876   3.462  1.3596  0.5871  1.7517
  941MOL0     H29845   4.262   8.017   3.666 -0.3399  1.1700  0.5299
  941MOL0     H29846   4.373   8.359   3.654  0.7899  0.2414  1.4179
  941MOL0     H29847   4.237   8.453   3.708 -0.2342  1.1885 -1.6269
  941MOL0     H29848   4.237   8.315   3.921 -0.6835 -1.2439  0.2577
  941MOL0     H29849   4.373   8.429   3.910 -1.0216  1.0193 -2.4367
  941MOL0     H29850   4.393   8.131   3.826 -1.2458  0.5837  0.1582
  941MOL0     H29851   4.520   8.262   3.835 -0.2233  0.1999  0.6912
  941MOL0     H29852   4.492   8.254   4.085 -1.5693  0.1556 -0.0363
  941MOL0     H29853   4.518   8.087   4.018 -0.8121 -0.6768 -1.9653
  941MOL0     H29854   4.131   8.085   4.209 -0.2603 -0.5201 -0.0631
  941MOL0     H29855   4.160   8.357   3.441  1.3928  0.9243 -1.4993
  941MOL0     H29856   4.204   8.325   3.165 -2.5681  0.7520 -0.8048
  941MOL0     H29857   4.107   8.187   3.120 -0.0464 -2.8903  2.1264
  941MOL0     H29858   4.045   8.312   3.232 -1.8924 -2.0978 -0.6430
  942MOL0     O29859   9.006   8.338   6.180 -0.1973 -0.1040 -0.6866
  942MOL0     C29860   9.061   8.233   6.206 -0.4472 -0.0521 -0.4285
  942MOL0     O29861   9.171   8.188   6.148 -0.6573  1.0143  0.2317
  942MOL0     C29862   9.248   8.261   6.066  0.6221 -0.6013  0.9122
  942MOL0     C29863   9.303   8.384   6.100  0.3152 -0.0350  0.1069
  942MOL0     C29864   9.374   8.462   6.007  0.3659 -0.5350  0.7318
  942MOL0     C29865   9.414   8.415   5.888 -0.0120 -0.0341 -0.4777
  942MOL0     O29866   9.491   8.482   5.792  1.1360 -0.3718 -0.6287
  942MOL0     C29867   9.508   8.622   5.801 -0.0441  0.0302 -0.1941
  942MOL0     C29868   9.593   8.667   5.686 -0.2806 -0.9789 -0.6109
  942MOL0     C29869   9.750   8.649   5.689 -0.4911  0.1497 -0.6135
  942MOL0     C29870   9.827   8.703   5.572  0.8742  0.2172 -0.0412
  942MOL0     C29871   9.978   8.666   5.568  0.1067  0.9061 -0.3666
  942MOL0     C29872  10.049   8.712   5.693 -0.2001  0.4634  0.6958
  942MOL0     C29873  10.196   8.722   5.664 -0.4459  0.9350 -0.2554
  942MOL0     C29874  10.258   8.596   5.604  0.3914 -0.0659  0.9042
  942MOL0     N29875  10.390   8.558   5.663  0.4525  0.1360 -0.3513
  942MOL0     C29876  10.400   8.469   5.769 -0.2923 -0.0816  0.8240
  942MOL0     C29877  10.529   8.449   5.782 -0.0554  1.0364  0.3826
  942MOL0     C29878  10.592   8.360   5.883 -0.3264  0.7259 -0.7228
  942MOL0     C29879  10.580   8.427   6.021 -0.8578  0.4087 -0.1275
  942MOL0     C29880  10.692   8.376   6.122 -0.1443 -1.0358 -0.2479
  942MOL0     C29881  10.700   8.480   6.237  0.0595  0.8233  0.0659
  942MOL0     O29882  10.579   8.483   6.309  1.3629  0.1125  0.1630
  942MOL0     C29883  10.566   8.570   6.410  0.7227  0.3399  0.4075
  942MOL0     C29884  10.454   8.579   6.488 -0.7113 -0.9759  0.3171
  942MOL0     C29885  10.436   8.659   6.606  0.4091 -0.7307 -0.0178
  942MOL0     C29886  10.323   8.642   6.706  0.2579 -0.9220 -0.3408
  942MOL0     C29887  10.543   8.748   6.638 -0.3675 -1.0839  1.3951
  942MOL0     C29888  10.534   8.840   6.753 -0.6397 -0.0896 -0.0070
  942MOL0     O29889  10.420   8.885   6.803  0.6458 -0.0223 -0.0727
  942MOL0     C29890  10.436   8.981   6.902 -0.4118  0.5166  0.0707
  942MOL0     C29891  10.415   8.955   7.040  0.1836 -0.6115 -0.2259
  942MOL0     C29892  10.442   9.054   7.131 -0.4078 -0.6616 -0.2995
  942MOL0     C29893  10.483   9.187   7.092 -0.4092  1.3359 -0.9726
  942MOL0     O29894  10.523   9.277   7.189 -0.0675  0.2107 -0.3504
  942MOL0     C29895  10.415   9.320   7.273  0.3354 -0.4952  0.3659
  942MOL0     C29896  10.351   9.450   7.230  0.0900  0.6927 -1.6224
  942MOL0     C29897  10.253   9.419   7.115 -1.0098  0.3856 -0.0777
  942MOL0     C29898  10.175   9.551   7.087  0.1544 -0.2872 -0.6148
  942MOL0     C29899  10.053   9.512   6.999 -0.2448 -0.1966 -0.8324
  942MOL0     C29900   9.974   9.629   6.950  0.0178 -0.3688  0.4754
  942MOL0     C29901   9.914   9.720   7.058  0.5214  0.1604 -0.7314
  942MOL0     C29902   9.871   9.858   6.986 -0.8129  0.2811 -0.6928
  942MOL0    Cl29903   9.751   9.828   6.856  0.0252  0.3039 -0.1467
  942MOL0     C29904  10.512   9.209   6.960  0.0491 -0.2223  0.3762
  942MOL0     C29905  10.478   9.111   6.870  0.0375 -0.8505  0.7576
  942MOL0     O29906  10.645   8.877   6.795 -0.0881  0.3502  0.3115
  942MOL0     C29907  10.647   8.758   6.545 -0.9601 -0.1890 -0.0908
  942MOL0     C29908  10.657   8.674   6.442 -0.4797  0.5998 -0.0416
  942MOL0     N29909  10.599   8.520   5.679  0.7450  0.1879  0.2746
  942MOL0     N29910  10.512   8.580   5.614 -0.6101  0.2505 -0.4727
  942MOL0     C29911   9.370   8.280   5.857 -0.2252 -0.4786  0.0985
  942MOL0     C29912   9.283   8.212   5.944  1.0766 -0.5423 -0.2321
  942MOL0     C29913   8.974   8.139   6.298 -0.4550 -0.5283  1.4724
  942MOL0     C29914   8.841   8.172   6.339  0.4966 -0.8020  0.0552
  942MOL0     C29915   8.759   8.091   6.414  0.1225  0.4715  0.2879
  942MOL0     C29916   8.798   7.967   6.445 -0.2493  0.3027 -0.9831
  942MOL0     O29917   8.713   7.908   6.530  0.6879  0.4026 -0.0203
  942MOL0     C29918   8.735   7.773   6.576 -0.5291  0.2349 -0.0238
  942MOL0     C29919   8.836   7.760   6.698 -0.6899 -0.7011  0.2892
  942MOL0     C29920   8.806   7.844   6.821  0.1747 -0.8133  0.1563
  942MOL0     C29921   8.872   7.811   6.951 -0.8059  0.0034 -0.3614
  942MOL0     C29922   8.890   7.932   7.018 -0.2695 -1.0702 -1.0795
  942MOL0     C29923   8.904   8.038   7.087 -0.5397  0.6756  0.5441
  942MOL0     C29924   8.923   7.922   6.413 -0.2503 -0.6906  0.9305
  942MOL0     C29925   9.013   8.009   6.337  0.1443 -0.2953 -0.2372
  942MOL0     C29926   9.149   7.955   6.314  0.6841  0.3193 -0.2822
  942MOL0     H29927   9.308   8.428   6.199 -0.3068 -1.8020  0.9555
  942MOL0     H29928   9.399   8.567   6.020 -0.5189 -0.0992 -0.8166
  942MOL0     H29929   9.569   8.648   5.887  2.3610  0.4444 -1.9248
  942MOL0     H29930   9.411   8.672   5.790 -1.2173 -2.2116 -0.6602
  942MOL0     H29931   9.542   8.627   5.597  1.0459 -3.4173 -0.3639
  942MOL0     H29932   9.580   8.775   5.681 -0.3027 -1.0297 -2.4576
  942MOL0     H29933   9.785   8.702   5.778  2.1209 -1.8971 -0.3013
  942MOL0     H29934   9.772   8.543   5.707 -2.4699 -0.1106  0.4943
  942MOL0     H29935   9.788   8.656   5.481  1.3145  0.2252 -0.2351
  942MOL0     H29936   9.819   8.811   5.562  1.3113  0.4506  1.8921
  942MOL0     H29937  10.023   8.710   5.479  0.1991 -1.6372 -1.6627
  942MOL0     H29938   9.980   8.557   5.557 -3.2467  0.9298 -3.5042
  942MOL0     H29939  10.004   8.802   5.735 -1.2622 -0.4453  1.5957
  942MOL0     H29940  10.029   8.640   5.774  1.7834  0.0956  0.9052
  942MOL0     H29941  10.246   8.729   5.761 -1.9014  2.7134  0.4080
  942MOL0     H29942  10.230   8.803   5.599 -1.1536 -0.8649 -3.0546
  942MOL0     H29943  10.190   8.514   5.628 -0.0692 -0.5439 -1.7751
  942MOL0     H29944  10.249   8.588   5.496 -1.0522 -2.5322  1.1318
  942MOL0     H29945  10.325   8.422   5.832  0.6289 -1.1334  1.1635
  942MOL0     H29946  10.700   8.348   5.866 -0.1150  1.1819  0.2337
  942MOL0     H29947  10.539   8.264   5.882  0.6239  0.1701 -2.4234
  942MOL0     H29948  10.598   8.533   6.003 -0.6967 -0.0268 -2.8219
  942MOL0     H29949  10.483   8.411   6.070  0.2617 -1.2807  1.6787
  942MOL0     H29950  10.674   8.274   6.157  3.2236 -2.2236 -1.5760
  942MOL0     H29951  10.790   8.380   6.074  0.4460  0.6860  0.9718
  942MOL0     H29952  10.784   8.459   6.304 -0.3573  0.6544  0.5410
  942MOL0     H29953  10.712   8.583   6.202  3.2715  1.8809  3.4926
  942MOL0     H29954  10.382   8.502   6.464  1.2872 -2.3513 -1.6044
  942MOL0     H29955  10.260   8.730   6.693 -1.2115 -1.5635  1.8983
  942MOL0     H29956  10.358   8.634   6.809 -1.7743  0.4797  0.5149
  942MOL0     H29957  10.260   8.558   6.676  0.3689 -0.1972 -2.9210
  942MOL0     H29958  10.388   8.858   7.078 -0.0878  0.0164  1.2461
  942MOL0     H29959  10.438   9.030   7.237 -0.7250 -0.0871 -0.1802
  942MOL0     H29960  10.341   9.240   7.277 -0.2877 -0.0041 -0.9446
  942MOL0     H29961  10.453   9.321   7.376  1.4793 -0.4681 -0.0532
  942MOL0     H29962  10.298   9.486   7.319 -0.4489  2.6302 -2.6518
  942MOL0     H29963  10.426   9.524   7.203  1.2198 -0.0865 -0.6922
  942MOL0     H29964  10.184   9.350   7.164 -0.3439  0.1274  0.5191
  942MOL0     H29965  10.308   9.374   7.032 -0.1546 -0.0888  0.7258
  942MOL0     H29966  10.240   9.617   7.030 -2.0674  1.5888 -1.1013
  942MOL0     H29967  10.139   9.598   7.179 -3.2077  2.3441 -3.0393
  942MOL0     H29968  10.093   9.457   6.914  3.8601 -2.2722  2.0837
  942MOL0     H29969   9.995   9.436   7.053  0.1465 -2.5588 -3.5003
  942MOL0     H29970   9.893   9.603   6.881 -1.1459 -0.5946  1.8950
  942MOL0     H29971  10.047   9.687   6.893  0.6290  0.1705  1.7624
  942MOL0     H29972   9.991   9.742   7.133 -0.8396 -0.3805  0.8915
  942MOL0     H29973   9.837   9.659   7.106  2.1935 -0.6278  1.0862
  942MOL0     H29974   9.959   9.895   6.933 -0.6287 -1.1236 -1.4040
  942MOL0     H29975   9.838   9.928   7.063 -1.1261  2.1512 -2.4295
  942MOL0     H29976  10.542   9.307   6.927  0.2074 -0.8758 -1.5205
  942MOL0     H29977  10.492   9.136   6.765 -0.8533  0.9748  1.0419
  942MOL0     H29978  10.719   8.835   6.571  2.0639 -2.2026 -1.8759
  942MOL0     H29979  10.753   8.690   6.393  0.0671 -1.2168  0.3430
  942MOL0     H29980   9.391   8.239   5.758 -2.1078  1.1101 -1.0063
  942MOL0     H29981   9.240   8.115   5.918 -1.6440  0.2613  0.8573
  942MOL0     H29982   8.797   8.266   6.307  1.3838 -1.0168 -1.9727
  942MOL0     H29983   8.670   8.121   6.468 -0.0159 -3.9417  2.9927
  942MOL0     H29984   8.641   7.728   6.611  0.5403 -0.3393  2.3078
  942MOL0     H29985   8.779   7.709   6.498  0.1079 -0.0016  0.5218
  942MOL0     H29986   8.934   7.788   6.659 -1.9754  0.7231 -2.2290
  942MOL0     H29987   8.823   7.658   6.735 -1.2468 -0.0521  1.9418
  942MOL0     H29988   8.845   7.941   6.788  1.4065 -1.3869 -0.1527
  942MOL0     H29989   8.699   7.861   6.830  0.3142  2.0678 -1.9954
  942MOL0     H29990   8.966   7.754   6.943  0.4075  1.7604  0.6596
  942MOL0     H29991   8.798   7.750   7.003 -0.9645  0.7038  0.2505
  942MOL0     H29992   8.933   8.128   7.139  0.7121  1.1389 -0.8882
  942MOL0     H29993   8.952   7.820   6.435 -1.0142 -1.1600 -0.1850
  942MOL0     H29994   9.160   7.858   6.363  1.4078 -1.3729 -3.4884
  942MOL0     H29995   9.146   7.919   6.210  0.8349 -3.4142  0.8662
  942MOL0     H29996   9.231   8.026   6.328  0.2255  2.1639 -5.0779
  943MOL0     O29997   2.392   7.610  10.968 -0.5686  0.0209  0.0802
  943MOL0     C29998   2.423   7.642  10.854  0.5392 -1.0488 -0.9620
  943MOL0     O29999   2.554   7.645  10.804  0.1251 -0.3837 -0.3469
  943MOL0     C30000   2.656   7.662  10.898  0.6202  0.3902 -0.6290
  943MOL0     C30001   2.727   7.550  10.937 -0.3546  0.4047  0.4779
  943MOL0     C30002   2.827   7.555  11.035 -0.2286 -0.1379  0.1986
  943MOL0     C30003   2.865   7.676  11.092  0.5088 -0.6962  0.0348
  943MOL0     O30004   2.952   7.699  11.191  0.5719  0.4844  0.2869
  943MOL0     C30005   3.004   7.579  11.256  0.1247 -0.1751 -0.6314
  943MOL0     C30006   3.117   7.507  11.175  1.3128 -0.5930  0.2815
  943MOL0     C30007   3.208   7.416  11.265 -0.6374 -0.4094  0.3639
  943MOL0     C30008   3.156   7.288  11.318  0.4044  0.6448 -0.0173
  943MOL0     C30009   3.267   7.194  11.360 -0.5437  0.6589 -0.0484
  943MOL0     C30010   3.229   7.065  11.425  0.5274  0.5600 -0.4287
  943MOL0     C30011   3.343   6.974  11.444  0.4823  0.4556  0.1931
  943MOL0     C30012   3.414   6.997  11.578  0.0962 -0.4628 -0.1453
  943MOL0     N30013   3.325   6.954  11.686 -0.7502  0.4486 -0.0659
  943MOL0     C30014   3.230   7.029  11.756 -0.7470  0.0371 -0.3165
  943MOL0     C30015   3.158   6.944  11.839  0.6423 -0.1688  0.3129
  943MOL0     C30016   3.048   6.984  11.924  0.0858  0.5739 -0.1595
  943MOL0     C30017   3.053   6.956  12.073  0.0031 -0.3494 -0.1872
  943MOL0     C30018   3.176   7.018  12.144 -0.2696  0.6590 -0.4192
  943MOL0     C30019   3.181   7.168  12.145  0.1002  0.2389  0.3184
  943MOL0     O30020   3.247   7.222  12.256  0.7347 -0.0307  0.1880
  943MOL0     C30021   3.387   7.225  12.242 -0.0802  0.7339 -0.5593
  943MOL0     C30022   3.450   7.267  12.357  0.2486 -0.4812  0.7394
  943MOL0     C30023   3.587   7.272  12.375 -0.2953 -1.1834 -0.0295
  943MOL0     C30024   3.635   7.290  12.522  0.6944 -0.9174 -0.1767
  943MOL0     C30025   3.671   7.236  12.275  0.3720  0.4518 -0.0475
  943MOL0     C30026   3.822   7.228  12.286  0.1332  0.2860  0.9398
  943MOL0     O30027   3.893   7.160  12.184  0.1588 -0.3911  0.1788
  943MOL0     C30028   4.020   7.135  12.204 -0.9266 -0.1608 -1.0369
  943MOL0     C30029   4.080   7.029  12.274 -0.1742 -0.0764  0.7606
  943MOL0     C30030   4.216   7.018  12.280  1.0032 -0.6418  0.2616
  943MOL0     C30031   4.298   7.101  12.208  0.0739 -0.2516  0.2909
  943MOL0     O30032   4.437   7.099  12.214 -0.1908 -0.2340 -0.1352
  943MOL0     C30033   4.481   6.962  12.217 -0.8311 -0.0769 -0.5304
  943MOL0     C30034   4.630   6.969  12.226 -0.2250 -0.9835  0.1606
  943MOL0     C30035   4.706   6.837  12.240 -0.3429  0.0988 -0.0077
  943MOL0     C30036   4.859   6.871  12.217 -0.0991 -0.0713 -0.8028
  943MOL0     C30037   4.955   6.772  12.274  0.1744 -0.1652  0.4683
  943MOL0     C30038   5.104   6.797  12.237  0.2150 -0.4239 -0.3300
  943MOL0     C30039   5.201   6.774  12.355  0.5460  0.2263 -0.8122
  943MOL0     C30040   5.301   6.658  12.339  0.2104 -0.8201 -0.2840
  943MOL0    Cl30041   5.226   6.493  12.332 -0.3088  0.0770  0.3039
  943MOL0     C30042   4.246   7.202  12.135  0.8017  0.8024  0.7493
  943MOL0     C30043   4.103   7.224  12.134  0.0205  1.4686  0.0193
  943MOL0     O30044   3.874   7.266  12.388 -0.7183  0.1032 -0.2757
  943MOL0     C30045   3.607   7.173  12.164  0.2827  0.2430 -0.3990
  943MOL0     C30046   3.473   7.167  12.147  0.3939 -0.4070 -0.2906
  943MOL0     N30047   3.201   6.818  11.803 -1.3544  0.2586  0.0657
  943MOL0     N30048   3.300   6.825  11.721 -0.4093  0.0665 -0.3830
  943MOL0     C30049   2.805   7.797  11.046 -0.1190 -0.4930  0.7055
  943MOL0     C30050   2.698   7.787  10.948  0.1380  0.4355 -0.0737
  943MOL0     C30051   2.313   7.696  10.775 -0.0633  0.0120  0.1119
  943MOL0     C30052   2.343   7.738  10.648 -0.1289  0.2850  0.1453
  943MOL0     C30053   2.251   7.777  10.551 -0.1349 -0.2330 -0.2177
  943MOL0     C30054   2.119   7.780  10.591  0.3337 -0.1857  1.1123
  943MOL0     O30055   2.021   7.813  10.504 -0.1318  0.2185 -1.1146
  943MOL0     C30056   2.035   7.778  10.367  0.3985  0.2812  0.3695
  943MOL0     C30057   1.897   7.778  10.295 -0.1947 -0.7436  1.1038
  943MOL0     C30058   1.851   7.925  10.254  0.1344  0.1218  0.3071
  943MOL0     C30059   1.919   7.977  10.133  0.1619  1.0167  0.4284
  943MOL0     C30060   1.916   7.902  10.011  0.4868  0.1830 -0.2581
  943MOL0     C30061   1.909   7.818   9.926 -0.9108  0.3023  0.0414
  943MOL0     C30062   2.084   7.739  10.718  0.3067  0.5201 -0.7718
  943MOL0     C30063   2.175   7.706  10.815 -0.1105 -0.2657 -0.6666
  943MOL0     C30064   2.124   7.681  10.956 -0.0857 -0.2760 -0.0031
  943MOL0     H30065   2.696   7.454  10.897 -0.6213  0.9428 -0.6377
  943MOL0     H30066   2.869   7.463  11.075  0.1875  0.7012  1.8098
  943MOL0     H30067   2.924   7.505  11.267  0.7307 -0.6726  0.5550
  943MOL0     H30068   3.033   7.606  11.358  2.4779  1.8875 -1.7367
  943MOL0     H30069   3.071   7.445  11.098 -1.1056  2.1081 -0.6605
  943MOL0     H30070   3.171   7.589  11.127 -2.5051  1.9443 -0.1775
  943MOL0     H30071   3.285   7.381  11.196 -1.2262  0.4470 -0.7591
  943MOL0     H30072   3.257   7.466  11.348 -1.8131  0.1141  0.7624
  943MOL0     H30073   3.096   7.300  11.409 -1.2612  2.5987 -1.2798
  943MOL0     H30074   3.089   7.231  11.252 -1.7508 -0.1749  2.6326
  943MOL0     H30075   3.333   7.239  11.436  0.9075 -1.1821 -0.1476
  943MOL0     H30076   3.325   7.160  11.274  1.4948  2.7858  0.3653
  943MOL0     H30077   3.170   7.091  11.514  1.1590 -1.0748  0.5080
  943MOL0     H30078   3.165   7.007  11.358  2.3965  0.0447 -1.8300
  943MOL0     H30079   3.409   6.969  11.357  2.3438  3.3721  1.2514
  943MOL0     H30080   3.292   6.877  11.448  1.0657  0.0530 -1.5407
  943MOL0     H30081   3.503   6.935  11.588  0.2883 -0.2628 -0.5875
  943MOL0     H30082   3.438   7.102  11.596  0.3096 -0.1887 -1.8245
  943MOL0     H30083   3.218   7.137  11.753  2.6881  0.6937  2.7398
  943MOL0     H30084   2.957   6.943  11.880  0.1420 -0.3133  0.5304
  943MOL0     H30085   3.036   7.093  11.918 -1.1061  0.4684 -0.0221
  943MOL0     H30086   2.963   6.995  12.121  0.2809  1.0710 -0.7754
  943MOL0     H30087   3.064   6.850  12.098  1.3111 -0.0296  0.6606
  943MOL0     H30088   3.186   6.980  12.246  1.9692  4.0679  0.8149
  943MOL0     H30089   3.264   6.976  12.094 -1.6579 -2.4555 -0.4911
  943MOL0     H30090   3.222   7.200  12.049  1.7836  1.1495  1.3049
  943MOL0     H30091   3.079   7.207  12.145 -0.6816 -1.6835  1.5242
  943MOL0     H30092   3.391   7.312  12.435 -0.5663  1.5618 -0.9516
  943MOL0     H30093   3.705   7.212  12.554  1.4251 -0.8648 -1.5773
  943MOL0     H30094   3.543   7.296  12.582 -0.8011  3.8755 -2.4549
  943MOL0     H30095   3.689   7.384  12.529 -1.0766  0.1350  0.1337
  943MOL0     H30096   4.007   6.966  12.325 -0.8463 -0.2431 -0.3694
  943MOL0     H30097   4.249   6.947  12.356 -1.8805  0.2880  2.5398
  943MOL0     H30098   4.447   6.905  12.304 -0.9666  3.3133  1.8514
  943MOL0     H30099   4.456   6.920  12.120  2.5462  1.1408 -2.0929
  943MOL0     H30100   4.663   7.028  12.140 -1.2033 -0.7896 -0.0904
  943MOL0     H30101   4.656   7.018  12.321 -2.5658 -1.7760  1.2904
  943MOL0     H30102   4.671   6.772  12.160  1.0821 -0.3117 -0.3269
  943MOL0     H30103   4.690   6.785  12.335  0.7213 -1.1372 -0.4693
  943MOL0     H30104   4.889   6.961  12.272 -0.8083 -1.9583  2.9989
  943MOL0     H30105   4.872   6.890  12.110 -0.6814  0.4168 -0.7949
  943MOL0     H30106   4.939   6.770  12.382 -1.4047  1.1717  0.3058
  943MOL0     H30107   4.923   6.677  12.229  1.2850  1.6377 -4.9665
  943MOL0     H30108   5.121   6.902  12.210 -2.9136  0.2626 -0.0537
  943MOL0     H30109   5.129   6.733  12.152 -2.1383  0.5373 -1.8491
  943MOL0     H30110   5.138   6.751  12.440  0.9361  2.4998  0.1816
  943MOL0     H30111   5.252   6.867  12.382  0.2430 -0.2281  1.4934
  943MOL0     H30112   5.370   6.668  12.424  0.5704  1.3018 -0.7695
  943MOL0     H30113   5.364   6.674  12.251  0.6971  4.2430  0.6483
  943MOL0     H30114   4.304   7.279  12.086 -2.7364  3.3785  0.2627
  943MOL0     H30115   4.063   7.296  12.063 -0.5636  2.7787  1.6237
  943MOL0     H30116   3.671   7.121  12.093 -0.5890 -0.7603 -0.4844
  943MOL0     H30117   3.425   7.146  12.052  0.9488 -0.2566 -0.6073
  943MOL0     H30118   2.838   7.894  11.082  2.2325 -1.0657  0.2784
  943MOL0     H30119   2.645   7.870  10.905 -0.0619  0.9917  1.2202
  943MOL0     H30120   2.444   7.727  10.611  0.4372 -1.7315  2.1028
  943MOL0     H30121   2.276   7.810  10.450 -1.7978  0.8659 -0.2999
  943MOL0     H30122   2.104   7.834  10.304 -0.1980 -3.1457 -3.7847
  943MOL0     H30123   2.073   7.675  10.364  1.4149  0.6127 -3.4238
  943MOL0     H30124   1.840   7.742  10.381 -0.1608 -0.2362  1.3418
  943MOL0     H30125   1.899   7.703  10.215  0.1640  0.3435  0.0572
  943MOL0     H30126   1.744   7.929  10.236  0.0177  2.5432  1.0980
  943MOL0     H30127   1.870   7.985  10.344 -0.7904 -0.0310  0.6192
  943MOL0     H30128   2.022   7.998  10.163  1.0612 -1.3025 -0.7823
  943MOL0     H30129   1.865   8.069  10.110 -0.3990  0.1347 -1.9986
  943MOL0     H30130   1.894   7.732   9.863  0.2722 -0.8302  1.2184
  943MOL0     H30131   1.979   7.742  10.746  1.1879  0.6216  2.9833
  943MOL0     H30132   2.022   7.719  10.968 -0.9826 -2.6294  0.2994
  943MOL0     H30133   2.133   7.574  10.976  1.6074 -0.1382  0.0569
  943MOL0     H30134   2.189   7.725  11.031  1.7090 -2.9662  0.1593
  944MOL0     O30135   4.881   2.759  11.170  1.1099 -0.4572 -0.0356
  944MOL0     C30136   4.897   2.641  11.151  0.6105  0.5169 -0.1325
  944MOL0     O30137   5.005   2.563  11.164 -0.8243  0.9128  0.0822
  944MOL0     C30138   5.096   2.596  11.260 -0.4158 -0.3706  0.9007
  944MOL0     C30139   5.132   2.508  11.359 -1.2183 -0.0720 -0.0369
  944MOL0     C30140   5.244   2.546  11.446 -0.2375  0.0685  0.1654
  944MOL0     C30141   5.328   2.661  11.423 -0.4734  0.6814  0.5798
  944MOL0     O30142   5.439   2.675  11.509 -0.2060 -0.1412  0.7594
  944MOL0     C30143   5.494   2.808  11.519 -0.4961 -0.7259 -0.2055
  944MOL0     C30144   5.628   2.831  11.442 -0.5653  0.4661 -0.2690
  944MOL0     C30145   5.744   2.738  11.471  0.4559  0.3911 -0.7856
  944MOL0     C30146   5.789   2.731  11.622 -0.8949  0.5092  0.3985
  944MOL0     C30147   5.912   2.638  11.641 -0.1561 -0.1589 -0.5921
  944MOL0     C30148   5.982   2.665  11.769 -0.4187 -0.0721 -0.4675
  944MOL0     C30149   6.087   2.777  11.767 -0.7847  0.0666 -0.1710
  944MOL0     C30150   6.110   2.853  11.900 -0.5271  0.4451  0.5363
  944MOL0     N30151   6.203   2.962  11.898 -1.2608  0.2376  0.0288
  944MOL0     C30152   6.340   2.950  11.903 -1.0493  0.4404 -0.2843
  944MOL0     C30153   6.391   3.077  11.919  0.2331 -0.0975 -0.4631
  944MOL0     C30154   6.528   3.122  11.942 -0.2574  0.1166  0.0499
  944MOL0     C30155   6.596   3.053  12.063  0.5387 -0.5554  0.5991
  944MOL0     C30156   6.746   3.084  12.087 -0.0585  0.2754  0.3692
  944MOL0     C30157   6.776   3.229  12.124  0.6640 -0.2624 -0.4890
  944MOL0     O30158   6.732   3.317  12.016  0.1798 -0.4103 -0.2979
  944MOL0     C30159   6.800   3.341  11.903  0.1754  0.3106  0.7827
  944MOL0     C30160   6.933   3.328  11.886  0.0310  0.4795 -0.6729
  944MOL0     C30161   7.000   3.358  11.762  0.6373  0.0676 -1.3159
  944MOL0     C30162   7.157   3.342  11.765  0.0920 -0.1738 -1.1130
  944MOL0     C30163   6.925   3.393  11.650 -0.0261  0.3941  0.5981
  944MOL0     C30164   6.988   3.421  11.511 -0.2142 -0.7535 -0.5501
  944MOL0     O30165   6.900   3.418  11.410 -0.5286 -0.2281 -0.1890
  944MOL0     C30166   6.918   3.461  11.274 -0.1932 -0.2190 -0.8482
  944MOL0     C30167   7.044   3.494  11.224 -0.6486  0.1098  0.4272
  944MOL0     C30168   7.047   3.545  11.097  0.2170  0.5861 -0.0630
  944MOL0     C30169   6.936   3.545  11.008 -1.4384  0.3025 -0.7690
  944MOL0     O30170   6.939   3.600  10.884  0.8928 -0.8102 -0.3967
  944MOL0     C30171   7.058   3.570  10.811  0.1516 -0.3876 -0.2528
  944MOL0     C30172   7.064   3.640  10.678  0.8036 -0.0604  1.1556
  944MOL0     C30173   6.952   3.586  10.582 -0.9215 -0.7169 -2.0023
  944MOL0     C30174   6.945   3.675  10.466 -0.4738 -0.0874  0.4325
  944MOL0     C30175   6.904   3.612  10.333 -1.2139  0.1364 -0.2658
  944MOL0     C30176   7.029   3.514  10.301 -0.5495  0.5048  0.0638
  944MOL0     C30177   6.983   3.422  10.189  0.5956  0.3930  0.5529
  944MOL0     C30178   7.042   3.275  10.183  0.0571  0.5720  0.9954
  944MOL0    Cl30179   7.218   3.300  10.161 -0.3139  0.1115 -0.1354
  944MOL0     C30180   6.810   3.514  11.062  0.4846  0.0788 -0.3996
  944MOL0     C30181   6.806   3.477  11.193 -0.2994 -0.6921 -0.1545
  944MOL0     O30182   7.103   3.466  11.510  0.3366  0.3054 -0.3767
  944MOL0     C30183   6.788   3.402  11.667  0.6237  0.8850  0.8920
  944MOL0     C30184   6.728   3.378  11.793  0.4725 -0.7014  0.2732
  944MOL0     N30185   6.285   3.168  11.907  0.6336  0.1721 -0.9252
  944MOL0     N30186   6.180   3.096  11.888  0.9519  0.5918  0.1966
  944MOL0     C30187   5.280   2.745  11.319 -0.7969  0.7745  0.7113
  944MOL0     C30188   5.170   2.708  11.238 -0.0161  0.5182  0.3507
  944MOL0     C30189   4.765   2.571  11.129  0.6380  0.4878  0.8258
  944MOL0     C30190   4.706   2.513  11.246 -0.1386  0.2713 -0.6056
  944MOL0     C30191   4.576   2.449  11.233 -0.0724 -0.2958 -0.4056
  944MOL0     C30192   4.506   2.440  11.112  0.0362  0.4955 -0.2554
  944MOL0     O30193   4.384   2.368  11.108 -0.6498  0.6197  0.6284
  944MOL0     C30194   4.331   2.338  10.980 -0.1354 -0.1268  1.1176
  944MOL0     C30195   4.221   2.239  11.002  0.2049 -0.2899  0.6130
  944MOL0     C30196   4.113   2.302  11.095 -0.0669  0.2095  0.4229
  944MOL0     C30197   3.964   2.253  11.079 -0.4915 -0.5130  0.5753
  944MOL0     C30198   3.898   2.275  11.206  0.3486  0.2714 -0.1020
  944MOL0     C30199   3.842   2.272  11.313 -0.6043  0.1971  0.4153
  944MOL0     C30200   4.565   2.514  11.005  0.0902  0.6128  0.0162
  944MOL0     C30201   4.689   2.579  11.015 -0.2852  0.2117 -0.0064
  944MOL0     C30202   4.733   2.678  10.912  0.3261  0.7036  0.1833
  944MOL0     H30203   5.077   2.415  11.371 -0.9871 -0.0093  1.7548
  944MOL0     H30204   5.278   2.477  11.522  0.8892  0.6936  0.2423
  944MOL0     H30205   5.519   2.803  11.626 -0.7717  0.9117 -0.0377
  944MOL0     H30206   5.426   2.892  11.500  1.1275  1.0686  1.3492
  944MOL0     H30207   5.611   2.834  11.334  1.7684  2.4979 -0.6862
  944MOL0     H30208   5.673   2.928  11.467  0.6310 -0.4173  1.2152
  944MOL0     H30209   5.712   2.641  11.431  0.1286  0.7730 -1.4831
  944MOL0     H30210   5.834   2.774  11.420  0.2505 -1.9377 -3.0051
  944MOL0     H30211   5.828   2.832  11.638  3.6062 -0.4701 -2.5476
  944MOL0     H30212   5.718   2.688  11.692  2.2858 -3.2458  1.6766
  944MOL0     H30213   5.986   2.646  11.561  0.5680 -0.5124  0.0344
  944MOL0     H30214   5.879   2.534  11.647 -0.6905 -0.1026 -2.1518
  944MOL0     H30215   5.911   2.689  11.850  0.0383  0.1056 -0.1143
  944MOL0     H30216   6.032   2.575  11.804  1.1919  0.1889 -1.9960
  944MOL0     H30217   6.051   2.850  11.693 -1.3789  0.3446  0.3812
  944MOL0     H30218   6.186   2.739  11.740  0.3691  1.6478  1.6000
  944MOL0     H30219   6.017   2.904  11.925 -0.6440 -0.3009  1.7338
  944MOL0     H30220   6.138   2.782  11.979 -0.5657  0.6546  0.7421
  944MOL0     H30221   6.409   2.866  11.901  1.5804  2.4564  0.3392
  944MOL0     H30222   6.510   3.224  11.977 -1.6357 -0.3089  0.6883
  944MOL0     H30223   6.592   3.113  11.854 -0.8038 -1.7878 -0.2007
  944MOL0     H30224   6.529   3.059  12.149  0.2947 -1.1006  0.4539
  944MOL0     H30225   6.589   2.944  12.053  0.6321 -0.3534 -2.4945
  944MOL0     H30226   6.772   3.021  12.172  0.0715 -1.5235 -0.9513
  944MOL0     H30227   6.799   3.067  11.993 -1.7811  0.5227 -0.6831
  944MOL0     H30228   6.722   3.250  12.216  1.0692  0.8359 -0.4878
  944MOL0     H30229   6.881   3.243  12.153  0.1427  1.1589  0.8765
  944MOL0     H30230   7.005   3.304  11.964 -1.5218  1.6637  1.2199
  944MOL0     H30231   7.197   3.298  11.857  0.2474  1.0035 -0.6006
  944MOL0     H30232   7.216   3.430  11.739 -0.9722  0.8004 -0.3408
  944MOL0     H30233   7.186   3.263  11.695  1.2608 -1.0557  0.3091
  944MOL0     H30234   7.131   3.511  11.286 -0.4813  2.9414 -0.4296
  944MOL0     H30235   7.146   3.586  11.079  0.8726  0.2157  2.3593
  944MOL0     H30236   7.148   3.591  10.870  1.8207 -0.0129 -2.8208
  944MOL0     H30237   7.044   3.464  10.788 -3.4064  0.4534 -2.7764
  944MOL0     H30238   7.051   3.745  10.708 -2.6516 -0.9527  3.3058
  944MOL0     H30239   7.156   3.617  10.624 -0.0107 -3.1893  0.9229
  944MOL0     H30240   6.861   3.598  10.643  0.7161  0.0628  0.4322
  944MOL0     H30241   6.966   3.480  10.563 -1.4279 -1.1011 -0.3829
  944MOL0     H30242   7.045   3.716  10.449  0.2072 -1.1314  1.7602
  944MOL0     H30243   6.887   3.766  10.486 -0.8246 -0.6210  2.0070
  944MOL0     H30244   6.812   3.554  10.346 -1.5318  0.6740 -0.0940
  944MOL0     H30245   6.888   3.696  10.265 -1.8106 -1.0947 -1.7074
  944MOL0     H30246   7.056   3.446  10.382 -1.4281  0.7588  0.5894
  944MOL0     H30247   7.125   3.561  10.278  0.1844 -1.8652 -2.2891
  944MOL0     H30248   7.026   3.464  10.097 -0.8131 -1.2526 -0.9409
  944MOL0     H30249   6.874   3.410  10.189  0.6200 -0.2933 -1.7861
  944MOL0     H30250   7.003   3.230  10.091 -1.5402 -0.8339  2.2967
  944MOL0     H30251   7.032   3.199  10.261  5.2412 -1.4614  0.1422
  944MOL0     H30252   6.714   3.525  11.013 -0.4304  0.0302  1.2742
  944MOL0     H30253   6.710   3.467  11.243 -0.6433  5.0777  1.0261
  944MOL0     H30254   6.725   3.430  11.583 -0.1277  0.2203  1.2223
  944MOL0     H30255   6.619   3.383  11.795 -0.0169 -3.8960 -3.4267
  944MOL0     H30256   5.330   2.839  11.296  0.0272  0.1721 -0.0230
  944MOL0     H30257   5.154   2.766  11.147  2.5519 -1.0632 -1.2133
  944MOL0     H30258   4.747   2.527  11.345 -0.3892  1.8880 -0.7029
  944MOL0     H30259   4.522   2.418  11.323  0.2007  1.2785  0.3211
  944MOL0     H30260   4.295   2.428  10.929  0.6090  0.2424  1.2328
  944MOL0     H30261   4.408   2.289  10.920 -1.7082  0.2196 -1.3548
  944MOL0     H30262   4.256   2.142  11.036 -4.5720 -2.3517  0.4585
  944MOL0     H30263   4.180   2.217  10.903 -1.3215 -1.1566  1.4019
  944MOL0     H30264   4.148   2.275  11.196  0.7930  2.1485  0.6810
  944MOL0     H30265   4.131   2.410  11.100 -0.7161  0.4694 -1.8549
  944MOL0     H30266   3.974   2.148  11.049 -0.7933 -0.0076 -1.4693
  944MOL0     H30267   3.912   2.304  10.997 -1.4136  0.0379  1.4733
  944MOL0     H30268   3.802   2.292  11.411  2.8590  3.3628  1.4333
  944MOL0     H30269   4.528   2.518  10.903  2.2949  0.3682 -0.8477
  944MOL0     H30270   4.728   2.782  10.946  2.8219  0.1061  2.7566
  944MOL0     H30271   4.829   2.653  10.867 -1.2760 -1.6175 -2.2594
  944MOL0     H30272   4.671   2.673  10.822  2.9398  1.6494 -1.7824
  945MOL0     O30273   5.304  10.220   7.903 -0.3065 -1.1869  0.4484
  945MOL0     C30274   5.286  10.299   7.810  0.4520  0.1602  0.1749
  945MOL0     O30275   5.342  10.292   7.688  0.3672  0.3079  0.4652
  945MOL0     C30276   5.436  10.201   7.672  0.0771  0.6801 -0.5842
  945MOL0     C30277   5.572  10.231   7.664  0.0019 -0.3346  0.8757
  945MOL0     C30278   5.667  10.131   7.646  0.0346 -0.0443  0.3377
  945MOL0     C30279   5.638   9.996   7.633  0.3273  0.3082  0.3971
  945MOL0     O30280   5.729   9.897   7.614  0.2612  0.0897  0.2105
  945MOL0     C30281   5.733   9.790   7.707 -0.0695 -0.3682  0.0596
  945MOL0     C30282   5.773   9.669   7.630 -0.4092  0.1545  0.2859
  945MOL0     C30283   5.928   9.690   7.610  0.0525  0.2369 -0.4353
  945MOL0     C30284   5.988   9.554   7.567  0.2567  0.2449 -0.4503
  945MOL0     C30285   6.136   9.579   7.528  0.0943 -0.3996  0.1406
  945MOL0     C30286   6.213   9.458   7.548 -0.5154 -0.0446  0.4273
  945MOL0     C30287   6.363   9.488   7.506  0.0043 -0.3777  1.2132
  945MOL0     C30288   6.401   9.450   7.359  0.4157 -0.5502 -0.7562
  945MOL0     N30289   6.547   9.454   7.330  0.6953  0.1209  0.3560
  945MOL0     C30290   6.631   9.348   7.372 -1.2017 -0.9191  0.5186
  945MOL0     C30291   6.754   9.378   7.311 -0.0077 -0.1601  0.1495
  945MOL0     C30292   6.884   9.302   7.320 -0.0700  0.3534  0.3534
  945MOL0     C30293   6.996   9.347   7.228  0.9503 -0.3155 -0.3811
  945MOL0     C30294   7.076   9.229   7.193  0.0298 -0.3963  0.9132
  945MOL0     C30295   7.184   9.269   7.094  0.4733 -0.0692 -0.2115
  945MOL0     O30296   7.236   9.146   7.047  0.3014 -0.8332  0.3106
  945MOL0     C30297   7.348   9.151   6.968 -0.0786 -0.3108 -0.1460
  945MOL0     C30298   7.425   9.040   6.964  0.8266  0.1868  0.0486
  945MOL0     C30299   7.549   9.037   6.901  0.3459 -0.1334 -0.7358
  945MOL0     C30300   7.617   8.908   6.911 -0.4741  0.7538  0.4234
  945MOL0     C30301   7.598   9.160   6.845  0.2466 -0.8958 -0.3121
  945MOL0     C30302   7.734   9.161   6.784  0.1667 -0.5439 -0.2729
  945MOL0     O30303   7.759   9.283   6.722 -0.1107  0.2800  0.6965
  945MOL0     C30304   7.886   9.315   6.686 -0.0868  0.6200 -0.3794
  945MOL0     C30305   7.951   9.243   6.590 -0.7855  0.4512  0.5078
  945MOL0     C30306   8.079   9.283   6.537  1.2678 -0.8477 -0.8532
  945MOL0     C30307   8.149   9.397   6.588 -0.3418  1.0215  0.1342
  945MOL0     O30308   8.274   9.436   6.534  0.1568 -0.1245  0.8096
  945MOL0     C30309   8.369   9.336   6.481 -0.0448 -0.6882  0.1352
  945MOL0     C30310   8.505   9.366   6.520  0.9676  0.0703 -0.4084
  945MOL0     C30311   8.568   9.443   6.412  0.7953 -0.1211 -0.2883
  945MOL0     C30312   8.697   9.518   6.443  0.0403 -0.3614  0.6266
  945MOL0     C30313   8.776   9.559   6.324  0.1835 -0.4458  0.7172
  945MOL0     C30314   8.708   9.673   6.240 -0.7763 -0.4038 -0.1582
  945MOL0     C30315   8.772   9.701   6.108  0.6733 -0.9757  0.4912
  945MOL0     C30316   8.687   9.808   6.035 -0.2585  0.6004  0.4422
  945MOL0    Cl30317   8.514   9.766   6.012  0.4360  0.0293 -0.1030
  945MOL0     C30318   8.083   9.458   6.687  0.6485 -0.3029  0.7466
  945MOL0     C30319   7.957   9.428   6.737  0.8611  0.2987 -0.6309
  945MOL0     O30320   7.818   9.065   6.777  0.6745  0.2365  0.3573
  945MOL0     C30321   7.517   9.278   6.839  0.7158 -0.4864 -0.2472
  945MOL0     C30322   7.399   9.271   6.914  1.0465  1.0476  0.1395
  945MOL0     N30323   6.739   9.498   7.244 -0.4691 -0.6122 -0.0712
  945MOL0     N30324   6.620   9.545   7.256 -0.0592  0.3094  0.3652
  945MOL0     C30325   5.499   9.964   7.646  0.2684  0.1691  0.3335
  945MOL0     C30326   5.399  10.064   7.674 -0.0430  0.7484  0.5580
  945MOL0     C30327   5.181  10.402   7.837  0.0306  0.4238 -0.2583
  945MOL0     C30328   5.091  10.422   7.730 -0.6657 -0.4423  0.7651
  945MOL0     C30329   4.995  10.520   7.735  0.2676 -0.4314  0.5803
  945MOL0     C30330   4.978  10.604   7.844  0.8892 -0.2878 -0.6728
  945MOL0     O30331   4.878  10.698   7.846 -0.4999 -0.3713  0.6724
  945MOL0     C30332   4.858  10.782   7.960  0.0413  0.8232 -0.0394
  945MOL0     C30333   4.774  10.696   8.056 -0.2838  0.0240 -0.6758
  945MOL0     C30334   4.756  10.763   8.194 -0.3466  0.2526  0.5921
  945MOL0     C30335   4.615  10.727   8.234  0.1987 -0.2032  0.2778
  945MOL0     C30336   4.603  10.589   8.270 -0.4532  0.3574 -0.0482
  945MOL0     C30337   4.604  10.472   8.294 -0.6695  0.3720  0.1257
  945MOL0     C30338   5.065  10.579   7.953 -0.2305 -0.0677  0.0582
  945MOL0     C30339   5.167  10.484   7.951 -0.0866  0.1064 -0.7987
  945MOL0     C30340   5.275  10.472   8.051 -0.3913 -0.0472  0.3316
  945MOL0     H30341   5.593  10.337   7.672  3.3344 -0.7950  0.0515
  945MOL0     H30342   5.770  10.162   7.638 -0.5549  1.9513 -0.2176
  945MOL0     H30343   5.631   9.773   7.743 -2.1620  1.9577 -3.9887
  945MOL0     H30344   5.794   9.812   7.795 -0.5073  0.3558  0.2020
  945MOL0     H30345   5.759   9.571   7.675 -3.4063 -0.0142 -0.7810
  945MOL0     H30346   5.721   9.662   7.534 -1.5327 -1.0214  0.9588
  945MOL0     H30347   5.944   9.772   7.540  2.8785  0.3997  0.2560
  945MOL0     H30348   5.979   9.708   7.705  0.6964 -0.6302 -0.5989
  945MOL0     H30349   5.973   9.482   7.649 -1.6696  0.2156 -0.7794
  945MOL0     H30350   5.937   9.513   7.480  0.8219  0.2439 -0.7847
  945MOL0     H30351   6.187   9.660   7.582  0.6504 -2.1502  2.3609
  945MOL0     H30352   6.124   9.608   7.423  0.0912 -0.6319  0.0770
  945MOL0     H30353   6.207   9.426   7.653 -3.4681 -3.5074 -0.5861
  945MOL0     H30354   6.169   9.375   7.493 -0.9646  0.9628 -0.7921
  945MOL0     H30355   6.429   9.438   7.578  0.9493  1.0123  1.3627
  945MOL0     H30356   6.384   9.595   7.510 -2.9250  0.4055 -0.8496
  945MOL0     H30357   6.359   9.354   7.330 -2.2430  0.7227 -1.4470
  945MOL0     H30358   6.358   9.527   7.294 -0.4052  1.2908  1.8272
  945MOL0     H30359   6.615   9.258   7.431  0.7051 -0.8721  1.1714
  945MOL0     H30360   6.864   9.197   7.298  3.2186 -0.0650 -1.3329
  945MOL0     H30361   6.926   9.318   7.420 -0.4376 -0.0755  0.5791
  945MOL0     H30362   6.950   9.367   7.130 -0.7873 -2.6747 -0.1310
  945MOL0     H30363   7.049   9.438   7.259 -1.6542  0.5882  1.7899
  945MOL0     H30364   7.111   9.176   7.282 -0.5780 -0.7295  0.9617
  945MOL0     H30365   7.014   9.159   7.137  2.8813 -1.6889 -0.8265
  945MOL0     H30366   7.137   9.320   7.010  0.9981  0.5067 -0.1684
  945MOL0     H30367   7.254   9.336   7.145 -0.6496  1.6131 -0.8205
  945MOL0     H30368   7.388   8.942   6.991 -1.2134 -0.3342 -3.8470
  945MOL0     H30369   7.703   8.907   6.980  0.3410  1.1079 -0.5575
  945MOL0     H30370   7.662   8.878   6.816 -2.3881 -0.8955 -0.0114
  945MOL0     H30371   7.550   8.826   6.938  0.9171  0.1812  2.3834
  945MOL0     H30372   7.902   9.164   6.534 -0.6344 -0.9902  2.2990
  945MOL0     H30373   8.111   9.224   6.452 -1.2155 -1.5190 -1.4087
  945MOL0     H30374   8.345   9.235   6.516 -1.0080  0.3670  2.7582
  945MOL0     H30375   8.368   9.325   6.372  0.1814 -0.9067  0.1533
  945MOL0     H30376   8.498   9.419   6.616  0.9013  0.5051 -0.6491
  945MOL0     H30377   8.545   9.268   6.547 -0.0379 -0.2681 -0.0857
  945MOL0     H30378   8.494   9.513   6.373  2.2613  1.1493 -0.9420
  945MOL0     H30379   8.589   9.363   6.340 -1.1851 -0.5377 -0.4579
  945MOL0     H30380   8.767   9.462   6.505  1.9114  1.8138  0.5893
  945MOL0     H30381   8.673   9.607   6.502  1.5161  0.1573  0.4901
  945MOL0     H30382   8.878   9.589   6.346 -0.0701  0.0064  1.3024
  945MOL0     H30383   8.777   9.471   6.258  3.1405 -1.4283  1.9056
  945MOL0     H30384   8.706   9.765   6.300 -6.7777 -0.2531 -0.0152
  945MOL0     H30385   8.603   9.656   6.215 -0.3295  1.0986 -3.6222
  945MOL0     H30386   8.774   9.610   6.046  1.7917 -3.6763  4.1127
  945MOL0     H30387   8.869   9.746   6.130  1.5240 -1.0917 -2.5141
  945MOL0     H30388   8.737   9.816   5.938  2.1468 -2.6112  1.2386
  945MOL0     H30389   8.693   9.905   6.085  1.2952  1.1017 -0.6560
  945MOL0     H30390   8.122   9.553   6.719  1.1075 -0.5813  1.0290
  945MOL0     H30391   7.915   9.495   6.811  0.0232  0.9670 -1.6816
  945MOL0     H30392   7.548   9.367   6.784 -0.4954  1.4733  2.0279
  945MOL0     H30393   7.334   9.357   6.905  0.1578  0.1826 -2.2057
  945MOL0     H30394   5.464   9.863   7.626  0.7032 -0.1733  1.2337
  945MOL0     H30395   5.294  10.041   7.691  0.0971 -2.2892 -1.8730
  945MOL0     H30396   5.104  10.358   7.643 -0.9739 -0.5607  0.8065
  945MOL0     H30397   4.938  10.525   7.643  1.7779 -2.0637 -0.5039
  945MOL0     H30398   4.941  10.814   8.023 -0.4330  2.4020 -0.1603
  945MOL0     H30399   4.810  10.875   7.927 -0.9463  1.0189  1.8138
  945MOL0     H30400   4.818  10.597   8.071  3.8862  1.5236 -1.5041
  945MOL0     H30401   4.679  10.671   8.008 -1.3428 -1.5344  2.0528
  945MOL0     H30402   4.824  10.731   8.274 -0.4442  2.4893  1.6645
  945MOL0     H30403   4.762  10.872   8.184  2.1998  0.0595 -0.9830
  945MOL0     H30404   4.538  10.760   8.163  0.5692 -0.8606 -0.4502
  945MOL0     H30405   4.587  10.786   8.321  1.5617  1.9054 -0.6366
  945MOL0     H30406   4.588  10.372   8.329  0.1920 -0.9659 -2.9690
  945MOL0     H30407   5.047  10.638   8.041  0.6823 -0.5866  0.6068
  945MOL0     H30408   5.253  10.552   8.123 -1.6369 -1.1248  1.2138
  945MOL0     H30409   5.260  10.382   8.111  0.6283 -0.7595 -0.4414
  945MOL0     H30410   5.378  10.480   8.015  0.0116  2.8945  1.7803
  946MOL0     O30411   0.946   1.924   6.195  0.5672 -0.0389 -0.2680
  946MOL0     C30412   0.925   1.984   6.087  0.4457  0.6938 -0.1822
  946MOL0     O30413   0.984   1.956   5.975 -0.4652 -0.0443  0.8116
  946MOL0     C30414   1.042   1.832   5.966 -0.6079 -0.0591  0.5607
  946MOL0     C30415   0.989   1.730   5.888 -0.7878  0.5401  0.7761
  946MOL0     C30416   1.082   1.620   5.859 -0.2972  0.2187 -0.0554
  946MOL0     C30417   1.212   1.618   5.902  0.5448 -0.0825 -0.3432
  946MOL0     O30418   1.288   1.512   5.855  0.0600  0.0097 -0.6061
  946MOL0     C30419   1.295   1.421   5.960  0.0006  0.7361  0.0873
  946MOL0     C30420   1.309   1.278   5.898 -1.2018 -0.6007 -0.4845
  946MOL0     C30421   1.330   1.180   6.017  0.8486  0.7236 -0.1074
  946MOL0     C30422   1.202   1.133   6.094 -0.0784 -0.8749  1.2212
  946MOL0     C30423   1.248   1.050   6.220  0.9475 -0.7019  0.2883
  946MOL0     C30424   1.136   0.982   6.292 -0.1430 -0.1211  0.2073
  946MOL0     C30425   1.174   0.876   6.397  0.2973 -0.8478  0.4205
  946MOL0     C30426   1.230   0.937   6.513 -0.1114 -0.7647 -0.6866
  946MOL0     N30427   1.240   0.846   6.628  0.2128 -0.2135 -0.0186
  946MOL0     C30428   1.152   0.828   6.735 -0.2375  0.6147 -0.4848
  946MOL0     C30429   1.217   0.729   6.800 -0.1902  0.2564 -0.5711
  946MOL0     C30430   1.172   0.664   6.927  0.0619  0.5204 -0.4338
  946MOL0     C30431   1.143   0.518   6.917  0.4788  0.8481  0.0928
  946MOL0     C30432   1.018   0.492   6.822  0.1349  0.6788  0.3502
  946MOL0     C30433   0.987   0.347   6.804 -0.4398 -0.0704 -1.0048
  946MOL0     O30434   0.890   0.350   6.695 -0.2076  0.4054  0.8741
  946MOL0     C30435   0.797   0.246   6.678  0.8760 -0.4554 -0.9606
  946MOL0     C30436   0.784   0.142   6.768  0.2610 -0.6493 -0.3229
  946MOL0     C30437   0.659   0.073   6.770 -0.7021  0.3119  0.7169
  946MOL0     C30438   0.638  -0.026   6.888 -0.4244 -0.2144  0.4991
  946MOL0     C30439   0.565   0.089   6.662  0.3218 -0.1483  0.2730
  946MOL0     C30440   0.429   0.022   6.653  0.3405 -0.1074  0.5997
  946MOL0     O30441   0.421  -0.089   6.715  0.0876  0.0904 -0.1498
  946MOL0     C30442   0.301  -0.147   6.743 -0.2558 -0.2720 -0.6359
  946MOL0     C30443   0.190  -0.097   6.819 -1.4235  0.2609 -0.4378
  946MOL0     C30444   0.080  -0.188   6.845  0.2086 -0.1284 -0.4698
  946MOL0     C30445   0.077  -0.320   6.798  0.1931  0.6621 -0.4872
  946MOL0     O30446  -0.032  -0.409   6.792 -0.0761 -0.1343  0.6625
  946MOL0     C30447  -0.163  -0.343   6.774 -0.3263 -0.1078  0.0018
  946MOL0     C30448  -0.285  -0.429   6.730  0.2612 -0.0727 -0.1580
  946MOL0     C30449  -0.357  -0.503   6.849  0.3255 -0.1855  0.0182
  946MOL0     C30450  -0.461  -0.597   6.788 -0.6811  0.1781  0.1484
  946MOL0     C30451  -0.536  -0.671   6.898 -0.5686 -0.9649  0.1082
  946MOL0     C30452  -0.586  -0.801   6.841 -0.0563  0.2592 -0.3109
  946MOL0     C30453  -0.688  -0.776   6.741  1.0753  0.4142  0.8954
  946MOL0     C30454  -0.763  -0.909   6.698  0.1991 -0.8020 -1.0964
  946MOL0    Cl30455  -0.900  -0.940   6.819 -0.5229  0.0382 -0.0690
  946MOL0     C30456   0.189  -0.372   6.734  0.4510 -0.5816 -0.6327
  946MOL0     C30457   0.294  -0.285   6.704  0.2988  0.6586  0.3032
  946MOL0     O30458   0.337   0.076   6.594  0.7030  0.4261 -0.3125
  946MOL0     C30459   0.586   0.195   6.578 -0.2553  0.0898  0.0008
  946MOL0     C30460   0.694   0.279   6.594  0.0051  0.3922  0.9614
  946MOL0     N30461   1.331   0.694   6.733 -0.3946  0.3247 -0.8732
  946MOL0     N30462   1.350   0.761   6.626  0.3246 -0.6911 -0.4606
  946MOL0     C30463   1.259   1.721   5.992 -0.6334  0.3970  0.0429
  946MOL0     C30464   1.175   1.828   6.018  1.2017  0.7468  0.0496
  946MOL0     C30465   0.856   2.112   6.083 -0.2107  0.0346 -0.3340
  946MOL0     C30466   0.817   2.174   5.957 -0.1801  0.0049  1.1555
  946MOL0     C30467   0.747   2.292   5.956  0.8119  0.9200  0.8400
  946MOL0     C30468   0.703   2.354   6.070 -0.0782 -0.6626 -0.4061
  946MOL0     O30469   0.634   2.464   6.058  0.3426 -0.3786  0.0016
  946MOL0     C30470   0.566   2.530   6.170 -0.5216  0.0561 -0.0630
  946MOL0     C30471   0.513   2.658   6.121  0.9750  0.7668  0.0901
  946MOL0     C30472   0.471   2.750   6.241  0.5081 -0.1990 -0.4169
  946MOL0     C30473   0.362   2.847   6.183  0.0597 -0.2952 -0.0862
  946MOL0     C30474   0.317   2.941   6.288 -0.4724  0.8997 -0.9495
  946MOL0     C30475   0.277   3.022   6.371 -0.5199  0.2750 -0.0024
  946MOL0     C30476   0.733   2.296   6.193  0.3185  0.2666 -0.2201
  946MOL0     C30477   0.821   2.181   6.209  0.8338  0.3493  0.9336
  946MOL0     C30478   0.835   2.120   6.349  0.1275  0.4244 -0.1397
  946MOL0     H30479   0.886   1.742   5.856 -0.6600 -0.1894  0.0495
  946MOL0     H30480   1.059   1.529   5.806  2.2794 -0.8747  0.5343
  946MOL0     H30481   1.210   1.414   6.029  2.4359 -4.1521  3.0998
  946MOL0     H30482   1.382   1.439   6.024 -0.1480  1.3098  0.1363
  946MOL0     H30483   1.225   1.254   5.833 -0.5290  0.6556 -1.8919
  946MOL0     H30484   1.401   1.279   5.838 -1.4317 -1.1103 -0.8470
  946MOL0     H30485   1.373   1.091   5.970 -0.9016 -0.6672  0.8163
  946MOL0     H30486   1.397   1.229   6.089  2.7152 -1.7391 -0.0346
  946MOL0     H30487   1.135   1.216   6.116  1.5903  0.9669 -0.2821
  946MOL0     H30488   1.161   1.061   6.022  2.1206 -1.0761  0.0892
  946MOL0     H30489   1.299   1.115   6.292 -0.7059 -2.3063  3.0847
  946MOL0     H30490   1.318   0.972   6.187 -1.6206 -3.8301  1.7493
  946MOL0     H30491   1.060   1.056   6.321  1.9261  2.1461  0.2156
  946MOL0     H30492   1.093   0.912   6.220 -1.2987 -0.0290  0.7874
  946MOL0     H30493   1.243   0.805   6.350  0.1117 -1.0119  0.3957
  946MOL0     H30494   1.078   0.831   6.421 -0.8051  1.6603  1.0366
  946MOL0     H30495   1.324   0.987   6.488 -1.1087  1.5687 -0.0437
  946MOL0     H30496   1.155   1.010   6.547  0.3813  1.5082 -3.9313
  946MOL0     H30497   1.055   0.874   6.749 -0.4750 -0.5297  2.2530
  946MOL0     H30498   1.095   0.728   6.971 -0.8778 -0.6331 -0.3750
  946MOL0     H30499   1.255   0.659   6.999 -0.9184 -1.9955  0.6400
  946MOL0     H30500   1.227   0.471   6.864 -0.3420 -0.5645 -0.0085
  946MOL0     H30501   1.131   0.451   7.003  0.8594 -1.2657 -1.4174
  946MOL0     H30502   0.933   0.549   6.860 -0.3702  0.8596 -0.9897
  946MOL0     H30503   1.029   0.527   6.719 -2.2392 -1.5092 -0.7741
  946MOL0     H30504   1.073   0.283   6.784 -0.9356 -0.7576 -0.9571
  946MOL0     H30505   0.940   0.314   6.897  1.4563  2.3835  0.9816
  946MOL0     H30506   0.857   0.128   6.848  0.8704 -0.3979 -0.8236
  946MOL0     H30507   0.638  -0.130   6.856 -2.7376 -0.3753  0.8370
  946MOL0     H30508   0.543  -0.005   6.939 -0.6912  0.8459 -0.3873
  946MOL0     H30509   0.718  -0.020   6.962  0.8804  1.0316 -0.9254
  946MOL0     H30510   0.208   0.003   6.859 -3.2911  1.0352 -1.3779
  946MOL0     H30511  -0.008  -0.151   6.897  1.7049  4.6673 -0.8245
  946MOL0     H30512  -0.183  -0.294   6.870  1.6543 -1.4611  1.1763
  946MOL0     H30513  -0.151  -0.264   6.699  1.2096  0.6656  1.0071
  946MOL0     H30514  -0.359  -0.372   6.673  0.2369 -1.0331 -1.1196
  946MOL0     H30515  -0.249  -0.505   6.660 -0.1118 -1.3192  0.9628
  946MOL0     H30516  -0.403  -0.434   6.920  1.9338  1.5014 -0.4867
  946MOL0     H30517  -0.279  -0.559   6.903  3.7143  3.6885 -0.3206
  946MOL0     H30518  -0.415  -0.668   6.718  3.6815 -0.8066  3.5766
  946MOL0     H30519  -0.540  -0.537   6.741 -1.5526 -1.7790 -1.0311
  946MOL0     H30520  -0.472  -0.679   6.986 -1.3874  0.2418  0.8422
  946MOL0     H30521  -0.621  -0.611   6.931  0.8110  1.5842 -0.6311
  946MOL0     H30522  -0.623  -0.858   6.926  2.0354  3.1305  2.8075
  946MOL0     H30523  -0.517  -0.864   6.784  0.7821  0.3414  0.5800
  946MOL0     H30524  -0.631  -0.747   6.652 -1.8796 -0.4885 -1.4527
  946MOL0     H30525  -0.759  -0.696   6.761  0.3920  1.2803 -3.8577
  946MOL0     H30526  -0.692  -0.992   6.695  1.7967  0.4754 -0.0880
  946MOL0     H30527  -0.793  -0.896   6.593  0.2180 -1.1042 -1.1418
  946MOL0     H30528   0.172  -0.472   6.697 -3.0122 -0.2788 -0.2589
  946MOL0     H30529   0.384  -0.321   6.655 -0.6904  1.0242 -1.8855
  946MOL0     H30530   0.518   0.229   6.501 -0.6867 -0.5497  0.0903
  946MOL0     H30531   0.693   0.360   6.521 -1.2220 -0.3529  0.1107
  946MOL0     H30532   1.365   1.722   6.017  0.3344  1.9991 -3.4655
  946MOL0     H30533   1.210   1.912   6.077 -0.6172  0.3847  1.7277
  946MOL0     H30534   0.848   2.131   5.863 -0.2338  0.5949  0.8649
  946MOL0     H30535   0.719   2.331   5.859  3.0283 -1.8166 -1.0832
  946MOL0     H30536   0.486   2.467   6.211  1.4733 -0.6772  3.0468
  946MOL0     H30537   0.638   2.543   6.251 -0.1101 -0.6011 -0.3140
  946MOL0     H30538   0.432   2.648   6.049  2.3741 -2.6885 -1.2073
  946MOL0     H30539   0.597   2.698   6.062  0.0515 -2.1459 -3.5375
  946MOL0     H30540   0.432   2.686   6.320  0.2358  2.0554  1.3897
  946MOL0     H30541   0.552   2.801   6.294  0.0267 -0.7196  0.8639
  946MOL0     H30542   0.277   2.788   6.149 -0.3860  0.6057 -0.5657
  946MOL0     H30543   0.405   2.898   6.096 -3.5783 -1.0587 -2.5786
  946MOL0     H30544   0.224   3.076   6.447 -0.0825  0.1871  0.3777
  946MOL0     H30545   0.691   2.332   6.287 -1.0682 -0.9833 -0.3148
  946MOL0     H30546   0.938   2.094   6.377  0.2810  1.3535  0.1819
  946MOL0     H30547   0.804   2.190   6.426 -1.8872 -2.1585  1.5608
  946MOL0     H30548   0.769   2.033   6.356 -1.6708  1.7592 -0.0246
  947MOL0     O30549   8.471   7.329   7.732  0.3090  0.4612  0.4288
  947MOL0     C30550   8.444   7.303   7.856 -0.8935 -0.3730  0.9777
  947MOL0     O30551   8.357   7.368   7.931  0.0943  0.6010  1.0937
  947MOL0     C30552   8.266   7.461   7.882 -0.7172  0.1851  0.1081
  947MOL0     C30553   8.152   7.471   7.956 -0.1494  0.0230 -0.1338
  947MOL0     C30554   8.041   7.542   7.904  0.3833  0.4508 -0.5900
  947MOL0     C30555   8.055   7.624   7.794 -0.2406 -0.0939  0.5348
  947MOL0     O30556   7.948   7.697   7.754 -0.3125  0.6970  0.2572
  947MOL0     C30557   7.953   7.760   7.629  0.0376  0.5458 -0.3819
  947MOL0     C30558   7.810   7.809   7.593 -0.8794  0.4577  0.0047
  947MOL0     C30559   7.814   7.886   7.457 -0.0956  0.0648  0.1025
  947MOL0     C30560   7.679   7.904   7.394 -0.2327  0.8774 -0.4429
  947MOL0     C30561   7.687   8.012   7.289  0.4790  0.7431  0.0657
  947MOL0     C30562   7.569   7.989   7.193  1.0915 -0.5343  0.7073
  947MOL0     C30563   7.425   8.004   7.260 -0.0931  0.0286  0.6806
  947MOL0     C30564   7.325   8.068   7.169  1.1202  0.3619 -0.1934
  947MOL0     N30565   7.214   8.114   7.245 -0.0220  0.2656  0.4427
  947MOL0     C30566   7.085   8.077   7.219 -0.1797 -0.1479  0.9310
  947MOL0     C30567   7.016   8.161   7.295 -0.0289 -0.8407  0.4932
  947MOL0     C30568   6.866   8.172   7.298 -0.2847  0.3502 -0.1663
  947MOL0     C30569   6.809   8.058   7.385  0.5137 -0.2991 -0.2810
  947MOL0     C30570   6.652   8.044   7.370 -0.4150  0.4511 -0.6048
  947MOL0     C30571   6.582   8.156   7.444 -0.5546  0.1869  0.6023
  947MOL0     O30572   6.610   8.160   7.583  0.1030  0.1389 -0.5814
  947MOL0     C30573   6.626   8.281   7.644 -0.7856 -0.2673  0.1309
  947MOL0     C30574   6.709   8.297   7.761  0.0286 -0.0730 -0.0216
  947MOL0     C30575   6.725   8.425   7.823 -0.5570 -0.8593  0.1654
  947MOL0     C30576   6.830   8.437   7.939 -0.6838 -0.1150  0.0377
  947MOL0     C30577   6.664   8.546   7.766  0.6139  0.3506  0.9728
  947MOL0     C30578   6.687   8.692   7.805 -1.0844 -0.1020 -0.1083
  947MOL0     O30579   6.813   8.729   7.860  0.0454 -0.2312 -0.1278
  947MOL0     C30580   6.820   8.849   7.922 -0.2078  0.7722  0.5545
  947MOL0     C30581   6.894   8.954   7.862  0.4553 -0.0139  0.4897
  947MOL0     C30582   6.930   9.070   7.933 -0.3725 -0.5156 -1.0852
  947MOL0     C30583   6.893   9.086   8.063  0.0518  0.7959 -0.1298
  947MOL0     O30584   6.934   9.205   8.116 -0.3659  0.6993 -0.7512
  947MOL0     C30585   6.973   9.205   8.252 -0.5076  0.5464  0.7180
  947MOL0     C30586   6.982   9.357   8.287 -0.6168  1.0124 -1.1932
  947MOL0     C30587   7.059   9.372   8.419  0.5953 -0.0668 -0.2784
  947MOL0     C30588   7.103   9.516   8.449 -0.2138 -0.1011 -0.5499
  947MOL0     C30589   6.995   9.580   8.534  0.2576  0.4341 -0.1292
  947MOL0     C30590   7.007   9.544   8.685 -0.0032  0.6591 -0.3362
  947MOL0     C30591   6.895   9.602   8.763 -0.1457  0.1730  0.6111
  947MOL0     C30592   6.851   9.514   8.878  0.0924 -0.1764  0.6113
  947MOL0    Cl30593   6.696   9.593   8.947  0.2142 -0.0243  0.6977
  947MOL0     C30594   6.816   8.973   8.122 -0.6741 -0.0430 -0.6504
  947MOL0     C30595   6.791   8.849   8.060  0.2117  0.2860  0.2510
  947MOL0     O30596   6.591   8.767   7.801  0.2218  0.0112 -0.7993
  947MOL0     C30597   6.567   8.523   7.660 -0.7437  0.5211 -0.0263
  947MOL0     C30598   6.552   8.398   7.601 -0.8788  0.8341  0.1610
  947MOL0     N30599   7.095   8.255   7.354  0.1142  0.3953 -0.3801
  947MOL0     N30600   7.225   8.223   7.329 -0.0852  0.1274  0.2339
  947MOL0     C30601   8.173   7.622   7.728 -1.0479  0.4060  0.5397
  947MOL0     C30602   8.278   7.538   7.769 -0.6345 -0.5906 -0.3268
  947MOL0     C30603   8.548   7.211   7.919 -0.0748  0.3103  0.3576
  947MOL0     C30604   8.524   7.178   8.052  0.0056  0.0280 -0.8033
  947MOL0     C30605   8.604   7.090   8.123  0.7497 -0.8767  0.4094
  947MOL0     C30606   8.721   7.042   8.057 -0.0392  0.2090 -0.0935
  947MOL0     O30607   8.810   6.970   8.118  0.1674 -0.3261 -0.6853
  947MOL0     C30608   8.815   6.974   8.262 -0.1818  0.0456 -1.0375
  947MOL0     C30609   8.911   6.871   8.304 -0.0311  0.8000 -0.5331
  947MOL0     C30610   8.954   6.896   8.454  0.0503  0.1840  1.1003
  947MOL0     C30611   9.044   6.775   8.500 -0.2916 -0.0359  0.7269
  947MOL0     C30612   9.177   6.775   8.430 -0.8807 -0.1429  0.2229
  947MOL0     C30613   9.276   6.805   8.365 -0.2536 -0.7073  0.5909
  947MOL0     C30614   8.758   7.089   7.939 -0.3506  0.1693  0.7432
  947MOL0     C30615   8.676   7.173   7.861  1.1721  0.2019  0.0713
  947MOL0     C30616   8.731   7.218   7.728 -0.5662 -0.3828 -0.8661
  947MOL0     H30617   8.146   7.415   8.049  0.7284 -0.8050 -0.5693
  947MOL0     H30618   7.951   7.555   7.963  1.0740  4.1869 -0.1187
  947MOL0     H30619   7.984   7.695   7.547 -0.2533  0.0523 -0.1068
  947MOL0     H30620   8.012   7.853   7.637  2.6520 -1.0537  0.2288
  947MOL0     H30621   7.740   7.727   7.612 -0.0629 -0.1008  0.6847
  947MOL0     H30622   7.784   7.881   7.671 -0.0053 -1.1832  1.8787
  947MOL0     H30623   7.863   7.982   7.474 -0.7394  0.5853 -0.8957
  947MOL0     H30624   7.884   7.831   7.393  1.2870  0.0220  1.5886
  947MOL0     H30625   7.635   7.812   7.353 -0.9300 -0.0880  2.2364
  947MOL0     H30626   7.612   7.945   7.470 -0.8104  1.0237 -1.0316
  947MOL0     H30627   7.784   8.002   7.240 -1.4655 -1.3238 -3.9330
  947MOL0     H30628   7.683   8.109   7.339 -1.5808  0.2462  0.9958
  947MOL0     H30629   7.582   8.062   7.113 -0.4631  0.4314  1.3064
  947MOL0     H30630   7.567   7.887   7.153  2.8190 -0.9729  1.6052
  947MOL0     H30631   7.434   8.069   7.348  3.5854  0.8266 -0.1105
  947MOL0     H30632   7.390   7.906   7.293 -0.0720  0.5784  2.4729
  947MOL0     H30633   7.370   8.151   7.113  1.0376  1.4636  1.3345
  947MOL0     H30634   7.295   7.995   7.093  0.3591 -0.0701  0.5048
  947MOL0     H30635   7.043   8.002   7.153  1.3064 -0.4104  0.2328
  947MOL0     H30636   6.826   8.175   7.196 -0.8817  0.6722  0.0693
  947MOL0     H30637   6.849   8.266   7.351 -1.1429 -1.1446  2.3627
  947MOL0     H30638   6.850   7.969   7.338 -0.5214 -0.4771 -0.8859
  947MOL0     H30639   6.845   8.071   7.488 -2.0499  1.0536  0.5351
  947MOL0     H30640   6.626   8.040   7.264 -1.2105  0.6975 -0.4272
  947MOL0     H30641   6.618   7.953   7.420 -0.0938  0.4585 -0.3707
  947MOL0     H30642   6.616   8.250   7.400 -3.7501  0.2743 -1.9651
  947MOL0     H30643   6.474   8.162   7.428 -0.4885  2.3089  0.7665
  947MOL0     H30644   6.770   8.212   7.790 -0.0675  0.2517  1.1855
  947MOL0     H30645   6.928   8.472   7.904 -1.8307  4.3047  0.6246
  947MOL0     H30646   6.836   8.338   7.984 -0.7593 -1.4254 -2.6856
  947MOL0     H30647   6.799   8.503   8.021 -0.9014 -0.5483  0.3012
  947MOL0     H30648   6.915   8.965   7.756  0.1100  0.1156  0.4343
  947MOL0     H30649   6.986   9.140   7.871  0.7313 -1.6046 -1.3573
  947MOL0     H30650   6.901   9.155   8.318 -1.0899  0.2458 -0.1234
  947MOL0     H30651   7.066   9.150   8.270 -0.2530  1.6211  2.9329
  947MOL0     H30652   7.031   9.402   8.199 -1.2701  0.4885 -1.8320
  947MOL0     H30653   6.883   9.402   8.288 -0.7136  0.9156 -2.8388
  947MOL0     H30654   7.145   9.305   8.421 -0.1233 -1.0439  2.0691
  947MOL0     H30655   6.989   9.331   8.493 -1.0099  1.0547 -1.1026
  947MOL0     H30656   7.110   9.574   8.357  2.9924 -1.3346 -1.2306
  947MOL0     H30657   7.202   9.516   8.497  0.2255  1.3666 -1.3669
  947MOL0     H30658   6.999   9.689   8.523  2.6093  0.4075 -0.0400
  947MOL0     H30659   6.896   9.552   8.499  0.7768 -0.6798 -0.7427
  947MOL0     H30660   7.105   9.574   8.724  1.1641 -1.4833 -1.4054
  947MOL0     H30661   7.004   9.435   8.696 -0.1395  0.8104  1.3771
  947MOL0     H30662   6.808   9.615   8.699  1.1197  0.2191 -1.1892
  947MOL0     H30663   6.918   9.707   8.783  0.2965  0.2537 -0.2610
  947MOL0     H30664   6.921   9.510   8.963  0.8131  1.0870  0.1043
  947MOL0     H30665   6.826   9.413   8.845 -3.6408 -0.1709  2.8392
  947MOL0     H30666   6.778   8.976   8.223 -0.1830 -1.0501 -0.4279
  947MOL0     H30667   6.728   8.770   8.098 -0.0074 -0.0381 -0.7530
  947MOL0     H30668   6.514   8.607   7.616 -4.0634 -0.8050  1.1350
  947MOL0     H30669   6.493   8.379   7.512  2.2501 -1.4954 -1.6104
  947MOL0     H30670   8.185   7.701   7.654 -1.3663  2.5098  2.5899
  947MOL0     H30671   8.369   7.525   7.712  0.3094 -3.7023  1.6175
  947MOL0     H30672   8.440   7.219   8.109 -1.8470 -4.4326  0.0729
  947MOL0     H30673   8.581   7.062   8.226 -1.7023  1.3939  0.5894
  947MOL0     H30674   8.855   7.070   8.296 -0.9938 -0.4447  1.4734
  947MOL0     H30675   8.725   6.958   8.321  0.4863  1.8983  0.5829
  947MOL0     H30676   8.997   6.880   8.238 -0.2750 -2.7097 -1.5204
  947MOL0     H30677   8.873   6.769   8.294  1.2240  0.2129  0.4330
  947MOL0     H30678   9.009   6.990   8.463 -3.0192  2.2492 -0.0525
  947MOL0     H30679   8.872   6.905   8.527  0.5367 -1.9005  1.9854
  947MOL0     H30680   8.989   6.680   8.493  3.3701 -2.3528  0.3633
  947MOL0     H30681   9.069   6.784   8.606  0.8810  2.5195  0.2987
  947MOL0     H30682   9.362   6.807   8.301 -0.0656  3.1115  0.7794
  947MOL0     H30683   8.856   7.059   7.904 -0.8896  0.2469 -0.9083
  947MOL0     H30684   8.681   7.164   7.647  1.7492  3.3505 -5.2251
  947MOL0     H30685   8.707   7.323   7.711 -4.1049 -0.8871  0.3086
  947MOL0     H30686   8.840   7.209   7.727 -0.3201  2.0820 -0.8926
  948MOL0     O30687   7.984  10.003   3.715 -0.2586  0.1769 -1.0514
  948MOL0     C30688   8.061  10.093   3.683 -0.4239 -0.4128  0.4933
  948MOL0     O30689   8.052  10.223   3.727 -0.2277 -0.1206 -0.4381
  948MOL0     C30690   7.948  10.269   3.804  0.6671 -0.4899 -0.3885
  948MOL0     C30691   7.825  10.319   3.749 -0.0631  0.7645 -0.5588
  948MOL0     C30692   7.722  10.354   3.844 -0.1183 -0.5068 -0.2043
  948MOL0     C30693   7.739  10.327   3.979  0.3514  0.8291  0.6033
  948MOL0     O30694   7.641  10.371   4.062  0.1554  0.6202  0.3906
  948MOL0     C30695   7.663  10.358   4.200 -0.5301  1.2018  0.4105
  948MOL0     C30696   7.546  10.415   4.274  0.1311  0.1036 -0.0088
  948MOL0     C30697   7.409  10.339   4.253 -0.8898  0.0331 -0.0789
  948MOL0     C30698   7.306  10.380   4.355 -0.8730  0.3427  0.2634
  948MOL0     C30699   7.302  10.311   4.492  0.7059  0.9857  0.4280
  948MOL0     C30700   7.298  10.156   4.493  0.5457  0.1056 -0.5756
  948MOL0     C30701   7.322  10.107   4.647 -1.3132 -0.0224 -0.9023
  948MOL0     C30702   7.460  10.137   4.703  0.5620  0.9247  0.0802
  948MOL0     N30703   7.569  10.100   4.612 -0.0820  0.1550  0.0630
  948MOL0     C30704   7.622   9.985   4.556 -0.1458  0.3472  0.1721
  948MOL0     C30705   7.711  10.027   4.460  0.5464  0.3498  0.1294
  948MOL0     C30706   7.813   9.945   4.383  0.2413 -0.8391 -0.1086
  948MOL0     C30707   7.937   9.904   4.470 -1.3939  0.0710 -0.3339
  948MOL0     C30708   8.065   9.869   4.403 -0.3963 -0.7242  0.0983
  948MOL0     C30709   8.082   9.727   4.354  0.3423  0.3459 -0.6204
  948MOL0     O30710   8.103   9.637   4.452 -0.6416 -0.5229 -0.7873
  948MOL0     C30711   8.235   9.599   4.468 -0.5078  0.2537 -0.5273
  948MOL0     C30712   8.256   9.473   4.520 -0.2011  0.0037  0.4071
  948MOL0     C30713   8.376   9.405   4.533  0.6125 -0.6649  0.6007
  948MOL0     C30714   8.380   9.259   4.550 -0.4631 -0.8151  0.9514
  948MOL0     C30715   8.492   9.491   4.509  0.6576 -0.5899  0.1161
  948MOL0     C30716   8.635   9.447   4.524  0.9338 -0.2660  0.7003
  948MOL0     O30717   8.662   9.333   4.600  0.1235  0.3815  0.1578
  948MOL0     C30718   8.788   9.287   4.587  0.2097 -0.2468  0.1641
  948MOL0     C30719   8.880   9.278   4.694 -0.4055  0.6209 -0.3800
  948MOL0     C30720   8.998   9.208   4.687 -0.0396  0.4242 -0.4104
  948MOL0     C30721   9.024   9.137   4.579 -0.7619  0.4631 -0.1483
  948MOL0     O30722   9.154   9.083   4.580  0.0842  0.4276  0.8582
  948MOL0     C30723   9.164   8.947   4.538  0.0894  0.1341 -0.7338
  948MOL0     C30724   9.285   8.887   4.609  0.5748  0.8561 -1.0260
  948MOL0     C30725   9.414   8.901   4.520 -0.7902  1.0297  0.2641
  948MOL0     C30726   9.526   8.803   4.563 -0.3429 -0.0265  0.1299
  948MOL0     C30727   9.650   8.833   4.474 -0.2904  0.4382 -0.3799
  948MOL0     C30728   9.762   8.742   4.520  0.0319  0.0043  0.3169
  948MOL0     C30729   9.884   8.747   4.415  0.4106 -0.5742  0.1226
  948MOL0     C30730  10.010   8.686   4.473 -0.4894  0.0312 -0.2269
  948MOL0    Cl30731   9.989   8.508   4.475 -0.2570  0.0788  0.0352
  948MOL0     C30732   8.935   9.134   4.466 -0.6294 -0.6631 -0.7033
  948MOL0     C30733   8.823   9.214   4.469 -0.6127 -0.2603 -0.1766
  948MOL0     O30734   8.727   9.513   4.473  0.4178 -0.3092 -0.1246
  948MOL0     C30735   8.481   9.627   4.469  0.3654 -1.3289  0.8753
  948MOL0     C30736   8.351   9.678   4.447  0.3850 -0.4302  0.9084
  948MOL0     N30737   7.721  10.168   4.476 -0.0827  0.0985 -0.6756
  948MOL0     N30738   7.644  10.205   4.569  0.4725 -0.3486 -0.3198
  948MOL0     C30739   7.865  10.278   4.022  1.1064 -0.9382  0.2539
  948MOL0     C30740   7.965  10.250   3.941 -0.4238  0.9742 -0.4651
  948MOL0     C30741   8.180  10.047   3.598  0.1371  1.7991 -0.6239
  948MOL0     C30742   8.281  10.137   3.585 -0.6755 -0.1964 -0.2990
  948MOL0     C30743   8.401  10.110   3.520 -0.3977 -0.3646  0.4003
  948MOL0     C30744   8.419   9.985   3.457  0.7438 -0.3064  0.4206
  948MOL0     O30745   8.529   9.943   3.378 -0.0308  0.2895 -0.4409
  948MOL0     C30746   8.648  10.014   3.383  0.8285  0.6181  0.5896
  948MOL0     C30747   8.731   9.992   3.515 -0.3188 -0.1492  0.6625
  948MOL0     C30748   8.749   9.846   3.562 -0.7332 -0.6725  0.7234
  948MOL0     C30749   8.816   9.834   3.692  0.8115 -0.2991 -0.5152
  948MOL0     C30750   8.947   9.891   3.696  0.4365 -0.4945  0.1508
  948MOL0     C30751   9.055   9.941   3.689 -0.2576 -0.4757 -0.8361
  948MOL0     C30752   8.319   9.892   3.462 -0.4445  0.4104 -0.3739
  948MOL0     C30753   8.193   9.923   3.524 -0.8196 -1.2909  0.5012
  948MOL0     C30754   8.085   9.822   3.527  0.3804 -0.1692  0.3147
  948MOL0     H30755   7.800  10.324   3.643  0.0272 -1.6131 -0.7476
  948MOL0     H30756   7.624  10.390   3.815 -0.1277 -0.7676 -0.5073
  948MOL0     H30757   7.756  10.407   4.230  0.8851 -0.7839 -0.4764
  948MOL0     H30758   7.669  10.251   4.225  0.4817  1.5353  1.6797
  948MOL0     H30759   7.570  10.413   4.381  0.6467  1.5717 -0.0724
  948MOL0     H30760   7.534  10.519   4.240 -0.5098  0.0736  0.1130
  948MOL0     H30761   7.373  10.365   4.153 -0.6023  0.2812 -0.1211
  948MOL0     H30762   7.433  10.233   4.263  4.3501  1.0586  1.4487
  948MOL0     H30763   7.327  10.487   4.365  2.3734 -0.1708  0.0429
  948MOL0     H30764   7.210  10.350   4.313 -0.7005  1.2966 -0.8626
  948MOL0     H30765   7.217  10.346   4.551  1.0874  2.9038 -0.0948
  948MOL0     H30766   7.397  10.344   4.535  3.6357 -3.5666 -1.6959
  948MOL0     H30767   7.202  10.121   4.453  0.6085 -1.0560  0.2341
  948MOL0     H30768   7.373  10.114   4.426  2.1248  0.3207  1.0065
  948MOL0     H30769   7.302  10.000   4.652 -1.7101  0.0074 -1.6674
  948MOL0     H30770   7.242  10.142   4.712 -2.6560 -2.1920 -1.2776
  948MOL0     H30771   7.467  10.245   4.723 -3.5035  1.4922 -0.6559
  948MOL0     H30772   7.478  10.087   4.798  0.8618  0.8397 -0.0185
  948MOL0     H30773   7.574   9.890   4.580 -1.5353  1.1642  0.7719
  948MOL0     H30774   7.840  10.008   4.298  1.6294 -2.5918 -1.0344
  948MOL0     H30775   7.769   9.852   4.347 -1.6894 -0.8828  2.1434
  948MOL0     H30776   7.958  10.003   4.512 -1.1690  0.5874 -1.5843
  948MOL0     H30777   7.908   9.835   4.549  2.3410  2.6175  3.6653
  948MOL0     H30778   8.085   9.929   4.314  1.6600 -0.0350  0.9535
  948MOL0     H30779   8.140   9.906   4.474 -1.5285 -1.6218  1.8304
  948MOL0     H30780   7.988   9.706   4.302  0.9586  0.8651 -1.9947
  948MOL0     H30781   8.164   9.714   4.283  0.4901 -1.4802 -0.1735
  948MOL0     H30782   8.163   9.425   4.549 -0.6340  1.1367  0.9629
  948MOL0     H30783   8.406   9.232   4.653 -0.2492 -2.6220  0.4486
  948MOL0     H30784   8.440   9.219   4.468  1.3468 -0.0919  1.8550
  948MOL0     H30785   8.280   9.222   4.525 -0.5378  0.8084 -1.4785
  948MOL0     H30786   8.841   9.324   4.784 -0.9028  1.1014 -0.8262
  948MOL0     H30787   9.068   9.208   4.769  3.3898 -7.0860 -2.4854
  948MOL0     H30788   9.080   8.891   4.581  3.0677 -1.8269  3.2900
  948MOL0     H30789   9.170   8.932   4.430 -3.0254  1.0198 -1.1328
  948MOL0     H30790   9.311   8.935   4.704  1.7083 -2.7013  0.6556
  948MOL0     H30791   9.248   8.787   4.633 -2.8663  1.1056 -4.3231
  948MOL0     H30792   9.463   8.998   4.536  0.2144  0.3791  1.3382
  948MOL0     H30793   9.395   8.877   4.415  0.6128  0.0231  0.2061
  948MOL0     H30794   9.484   8.705   4.539  1.9217 -1.0651  0.1484
  948MOL0     H30795   9.550   8.802   4.670 -0.9758  2.2651  0.3503
  948MOL0     H30796   9.645   8.824   4.365  1.2738  0.7613 -0.4948
  948MOL0     H30797   9.675   8.939   4.482  0.3531  0.2981 -0.4873
  948MOL0     H30798   9.722   8.641   4.530  1.2290 -0.3515  1.9248
  948MOL0     H30799   9.792   8.773   4.620  0.6781  0.6122 -0.0605
  948MOL0     H30800   9.914   8.848   4.386  1.4995 -1.3922 -1.7462
  948MOL0     H30801   9.847   8.703   4.322  1.8047 -1.2625 -0.1313
  948MOL0     H30802  10.051   8.725   4.567  0.6737  2.1590 -1.5408
  948MOL0     H30803  10.085   8.709   4.397 -0.8925  1.4291 -0.2309
  948MOL0     H30804   8.968   9.074   4.382  0.1532  1.1793 -1.7917
  948MOL0     H30805   8.755   9.211   4.384 -2.0864 -0.3434  0.9707
  948MOL0     H30806   8.568   9.691   4.453 -1.8878  1.4301 -1.2587
  948MOL0     H30807   8.355   9.783   4.419  0.4610 -0.1933  1.7858
  948MOL0     H30808   7.883  10.261   4.128  0.7088  3.0741  1.0940
  948MOL0     H30809   8.060  10.219   3.984  0.3926  4.6355  0.7301
  948MOL0     H30810   8.281  10.241   3.615  0.5471 -0.2394 -0.0837
  948MOL0     H30811   8.463  10.199   3.516 -0.7086  0.0168  2.7766
  948MOL0     H30812   8.702   9.983   3.292  2.9498 -0.0786  2.0006
  948MOL0     H30813   8.630  10.122   3.382  0.4469  0.5626  1.2869
  948MOL0     H30814   8.696  10.054   3.599 -1.3700 -1.6263  1.3484
  948MOL0     H30815   8.835  10.021   3.500  0.1676 -1.4540  1.3749
  948MOL0     H30816   8.652   9.798   3.575  0.0074 -1.5862  3.4322
  948MOL0     H30817   8.800   9.796   3.479 -0.3182 -1.9099  1.7064
  948MOL0     H30818   8.823   9.727   3.712 -1.7282 -0.4206  0.0462
  948MOL0     H30819   8.758   9.876   3.774  0.3468  1.3944 -1.6502
  948MOL0     H30820   9.146   9.998   3.686 -0.3075 -0.1347  1.7719
  948MOL0     H30821   8.346   9.798   3.415  0.5949 -0.6121  2.0900
  948MOL0     H30822   7.981   9.852   3.515  0.7597  0.8173 -0.6913
  948MOL0     H30823   8.092   9.747   3.447 -1.3616 -0.3897  0.3451
  948MOL0     H30824   8.081   9.772   3.624 -1.3052 -0.1914  0.2627
  949MOL0     O30825   3.492   2.592   5.446  0.2903  0.1764 -0.7339
  949MOL0     C30826   3.566   2.622   5.358 -0.0345 -0.4597  0.4393
  949MOL0     O30827   3.605   2.750   5.326 -0.1191 -0.1889 -0.2696
  949MOL0     C30828   3.523   2.853   5.366  0.0101  0.0475  0.0346
  949MOL0     C30829   3.581   2.941   5.454 -1.1536 -0.1704 -0.8804
  949MOL0     C30830   3.516   3.063   5.492 -0.7952  0.5025 -0.2158
  949MOL0     C30831   3.395   3.091   5.438  0.4934 -0.1026  0.3118
  949MOL0     O30832   3.321   3.200   5.466  0.0969 -0.3071 -0.3815
  949MOL0     C30833   3.398   3.330   5.470  0.9035 -0.7387 -0.8512
  949MOL0     C30834   3.390   3.401   5.607  0.0556  0.2829  0.2742
  949MOL0     C30835   3.255   3.383   5.682 -0.8885 -1.0693  0.7804
  949MOL0     C30836   3.159   3.502   5.636  0.5617 -0.2353  1.0445
  949MOL0     C30837   3.023   3.450   5.586 -0.4937  0.2702 -1.0934
  949MOL0     C30838   3.005   3.426   5.435  0.4892 -0.7045 -0.3431
  949MOL0     C30839   2.896   3.323   5.392 -0.7633 -0.3082  0.1709
  949MOL0     C30840   2.752   3.355   5.442  0.9371 -0.3893  0.5702
  949MOL0     N30841   2.646   3.273   5.377  0.3176 -0.4096 -0.1677
  949MOL0     C30842   2.640   3.136   5.393 -0.9173  0.1521 -0.0773
  949MOL0     C30843   2.521   3.104   5.323 -0.8792  0.1619  0.5599
  949MOL0     C30844   2.467   2.964   5.308  0.0966  0.0130  0.7330
  949MOL0     C30845   2.347   2.935   5.406 -0.7646 -0.3740  0.2557
  949MOL0     C30846   2.251   2.842   5.332 -0.1531 -0.5208 -0.7575
  949MOL0     C30847   2.140   2.801   5.431 -0.6899  1.3500 -0.1685
  949MOL0     O30848   2.194   2.693   5.518  0.2490 -0.1780  0.0448
  949MOL0     C30849   2.105   2.625   5.592 -0.2035  0.8878 -0.5203
  949MOL0     C30850   1.966   2.651   5.604 -0.8693 -0.4937 -0.2393
  949MOL0     C30851   1.881   2.575   5.676  0.0267  0.5872 -0.4095
  949MOL0     C30852   1.738   2.617   5.675  0.2813  0.7878 -0.5851
  949MOL0     C30853   1.930   2.461   5.743 -0.5263 -0.0995 -0.3866
  949MOL0     C30854   1.855   2.373   5.827 -0.1634 -0.0291  0.5124
  949MOL0     O30855   1.925   2.252   5.855 -0.1343  0.3342  0.5134
  949MOL0     C30856   1.860   2.163   5.935 -0.8624  0.0915 -0.5097
  949MOL0     C30857   1.878   2.181   6.075  0.7560 -0.2863 -0.1678
  949MOL0     C30858   1.825   2.092   6.168  1.0085  0.6612  0.9665
  949MOL0     C30859   1.754   1.984   6.117  0.5484  0.1080 -0.0780
  949MOL0     O30860   1.710   1.898   6.211 -0.2268 -0.7337  0.2035
  949MOL0     C30861   1.602   1.809   6.184  0.9377  0.2770 -0.5980
  949MOL0     C30862   1.550   1.728   6.304 -0.4179 -0.0462  0.4781
  949MOL0     C30863   1.644   1.603   6.332  0.0137 -0.0778  0.2719
  949MOL0     C30864   1.579   1.511   6.435  0.6363  0.7146  0.1606
  949MOL0     C30865   1.655   1.383   6.471 -0.4996  0.7074 -0.0379
  949MOL0     C30866   1.670   1.298   6.337  0.2854 -0.2693  0.0686
  949MOL0     C30867   1.694   1.146   6.359 -0.0290 -0.0781 -1.1891
  949MOL0     C30868   1.571   1.062   6.377  0.6772  0.4412  0.2907
  949MOL0    Cl30869   1.612   0.907   6.460 -0.1083 -0.6168  0.4209
  949MOL0     C30870   1.721   1.976   5.977  0.7893 -0.2565  0.2169
  949MOL0     C30871   1.778   2.062   5.884 -0.4234  0.0557 -1.0498
  949MOL0     O30872   1.747   2.402   5.872  0.3246 -0.3294  0.1736
  949MOL0     C30873   2.073   2.438   5.734 -0.2023  1.0519 -0.6740
  949MOL0     C30874   2.153   2.507   5.649 -0.4524 -0.3930  0.0308
  949MOL0     N30875   2.472   3.217   5.264  0.6749 -0.3395  0.4517
  949MOL0     N30876   2.545   3.317   5.290 -0.4604  0.1626 -0.4838
  949MOL0     C30877   3.329   2.995   5.358 -0.6037 -0.4867 -0.5871
  949MOL0     C30878   3.388   2.875   5.327 -0.5587  0.1326  1.1264
  949MOL0     C30879   3.639   2.507   5.287 -0.0848  0.0529  0.4382
  949MOL0     C30880   3.676   2.400   5.366 -0.2785 -0.4899 -0.3836
  949MOL0     C30881   3.757   2.298   5.318 -0.0686  0.9661  0.7764
  949MOL0     C30882   3.795   2.291   5.179  0.0296 -0.5272  1.0922
  949MOL0     O30883   3.875   2.200   5.120  0.4842 -0.1301  0.4684
  949MOL0     C30884   3.878   2.064   5.172  0.4772 -0.5945 -0.1063
  949MOL0     C30885   4.019   2.014   5.216 -0.8110 -0.2257 -0.8956
  949MOL0     C30886   4.022   1.861   5.236 -0.7028 -0.5885 -0.2588
  949MOL0     C30887   4.039   1.781   5.106 -0.0470 -0.2269 -0.0056
  949MOL0     C30888   4.163   1.812   5.033 -0.2466 -0.0271  0.6004
  949MOL0     C30889   4.263   1.797   4.955  1.3698 -0.5640  0.1187
  949MOL0     C30890   3.758   2.406   5.104  0.0107 -0.2124  0.3060
  949MOL0     C30891   3.680   2.508   5.153 -0.2212  0.4372 -0.3111
  949MOL0     C30892   3.665   2.632   5.066  0.4404  0.1114  1.0434
  949MOL0     H30893   3.680   2.916   5.491 -2.6691 -4.9039  0.7496
  949MOL0     H30894   3.557   3.139   5.558  1.4574 -0.2650 -0.6391
  949MOL0     H30895   3.346   3.391   5.396  0.0967  1.5437  1.4254
  949MOL0     H30896   3.504   3.312   5.450  1.8847  2.2248  0.9470
  949MOL0     H30897   3.473   3.370   5.672  0.9020  2.0337  0.0685
  949MOL0     H30898   3.408   3.508   5.596 -1.5608  0.4719 -0.9249
  949MOL0     H30899   3.210   3.285   5.664 -2.0501 -0.2047 -1.5440
  949MOL0     H30900   3.268   3.401   5.789 -2.6855  0.9495  0.7177
  949MOL0     H30901   3.147   3.571   5.720  3.5721  2.1750 -0.2818
  949MOL0     H30902   3.206   3.570   5.564  0.6491  1.4135  2.5880
  949MOL0     H30903   2.944   3.523   5.606 -0.1273  1.3684 -3.3733
  949MOL0     H30904   3.007   3.357   5.641 -3.2211  2.3964  2.1175
  949MOL0     H30905   2.996   3.520   5.381  1.3591 -2.2306 -3.3157
  949MOL0     H30906   3.105   3.392   5.406  1.1626  0.5274  0.4286
  949MOL0     H30907   2.931   3.235   5.447  1.5044  0.8692  0.7563
  949MOL0     H30908   2.894   3.302   5.285  1.2886  1.0870 -0.2098
  949MOL0     H30909   2.733   3.353   5.549 -2.1711  2.8911  0.2605
  949MOL0     H30910   2.728   3.459   5.419  0.4857 -0.3364  1.2622
  949MOL0     H30911   2.711   3.072   5.443  1.1154  1.4231 -1.1786
  949MOL0     H30912   2.536   2.881   5.325 -2.5372 -2.0821  1.9724
  949MOL0     H30913   2.435   2.957   5.204  0.6602 -0.1609  0.5713
  949MOL0     H30914   2.386   2.888   5.496  0.4217 -2.6480 -1.3423
  949MOL0     H30915   2.294   3.030   5.419 -0.1829  0.1696 -1.1773
  949MOL0     H30916   2.208   2.891   5.245  0.5805  0.4987 -0.5688
  949MOL0     H30917   2.315   2.761   5.296 -1.1701 -1.3870 -0.6561
  949MOL0     H30918   2.109   2.890   5.486 -0.8256  1.4333 -0.3788
  949MOL0     H30919   2.055   2.759   5.378  1.2113 -0.5176 -1.9191
  949MOL0     H30920   1.930   2.745   5.562  1.6971  1.1985  1.1169
  949MOL0     H30921   1.687   2.606   5.771 -0.3003 -1.6460 -1.1053
  949MOL0     H30922   1.680   2.562   5.600  0.2191 -1.1302  0.7874
  949MOL0     H30923   1.735   2.724   5.655 -0.2394  0.3605 -3.1244
  949MOL0     H30924   1.945   2.263   6.100 -0.5467  1.0024 -0.7652
  949MOL0     H30925   1.828   2.103   6.276  0.1514 -4.1242  1.6992
  949MOL0     H30926   1.520   1.877   6.158  0.5385  0.7749  1.7382
  949MOL0     H30927   1.631   1.733   6.111 -0.8631 -2.8755  1.7538
  949MOL0     H30928   1.556   1.782   6.399  1.2217 -0.7154  0.7897
  949MOL0     H30929   1.452   1.683   6.287  0.2485 -1.4391  0.2247
  949MOL0     H30930   1.744   1.638   6.361 -0.6409 -0.5819  3.4202
  949MOL0     H30931   1.643   1.563   6.230 -1.8252 -0.1674  0.2891
  949MOL0     H30932   1.480   1.476   6.402  2.0434 -2.7283 -0.7987
  949MOL0     H30933   1.573   1.563   6.532  1.0588 -1.1331  1.2237
  949MOL0     H30934   1.752   1.405   6.516  0.6776 -1.1466 -1.5026
  949MOL0     H30935   1.614   1.322   6.552  2.3847  0.0340  1.0319
  949MOL0     H30936   1.747   1.338   6.270 -0.2225 -4.1981 -3.2790
  949MOL0     H30937   1.576   1.296   6.283 -0.2514 -0.3324  0.9839
  949MOL0     H30938   1.756   1.141   6.449  0.5996  1.4746 -1.5177
  949MOL0     H30939   1.744   1.088   6.281  3.9715  1.0312  0.3330
  949MOL0     H30940   1.513   1.035   6.288 -1.3845  0.0352  1.7061
  949MOL0     H30941   1.505   1.118   6.444 -2.8615 -2.1775 -0.7201
  949MOL0     H30942   1.646   1.902   5.950  0.2132 -0.0388  1.1871
  949MOL0     H30943   1.753   2.037   5.781  1.4255  0.7547 -1.7033
  949MOL0     H30944   2.113   2.348   5.780 -4.5790  0.3174  2.2612
  949MOL0     H30945   2.258   2.484   5.629 -0.6011 -0.7664 -0.3487
  949MOL0     H30946   3.226   3.008   5.329 -1.6003 -1.7192  2.1023
  949MOL0     H30947   3.348   2.797   5.263  0.1313 -1.5675  2.6610
  949MOL0     H30948   3.637   2.388   5.466 -0.7568  3.0779  0.0009
  949MOL0     H30949   3.793   2.223   5.388  3.4881 -1.6382 -3.3215
  949MOL0     H30950   3.798   2.060   5.246 -1.3057 -0.7622 -1.9565
  949MOL0     H30951   3.857   1.992   5.093 -2.3572 -0.3992  0.3756
  949MOL0     H30952   4.038   2.062   5.313  0.9731  0.0704 -1.3449
  949MOL0     H30953   4.094   2.034   5.138 -0.9331  1.8217 -0.5438
  949MOL0     H30954   4.104   1.838   5.305 -0.3411  0.7820 -0.1889
  949MOL0     H30955   3.928   1.831   5.282 -0.6121 -0.7403 -0.1740
  949MOL0     H30956   3.952   1.809   5.047  1.1909 -0.0050 -1.8283
  949MOL0     H30957   4.021   1.676   5.128 -1.6097  0.1892  0.8826
  949MOL0     H30958   4.349   1.772   4.897 -0.2697 -3.6340 -1.2436
  949MOL0     H30959   3.786   2.414   5.000 -1.3276  2.1790  0.0694
  949MOL0     H30960   3.562   2.669   5.073  0.4693  0.7863 -1.1962
  949MOL0     H30961   3.735   2.711   5.096  0.3590  1.0525 -0.9945
  949MOL0     H30962   3.688   2.618   4.960  1.9911 -0.3656  1.4228
  950MOL0     O30963   1.524  10.216   7.119  0.0694 -0.8877  0.7532
  950MOL0     C30964   1.402  10.231   7.141  1.5589  0.7770  0.2506
  950MOL0     O30965   1.333  10.217   7.268 -0.1377 -0.1777  0.6836
  950MOL0     C30966   1.397  10.191   7.392 -0.4104  0.1642 -0.5560
  950MOL0     C30967   1.520  10.123   7.397 -0.3578 -0.2697 -0.2796
  950MOL0     C30968   1.574  10.097   7.518  0.2395 -0.2346 -0.8005
  950MOL0     C30969   1.509  10.128   7.642  0.0703  0.6511  0.8929
  950MOL0     O30970   1.546  10.088   7.770  0.0004  0.6457 -1.0180
  950MOL0     C30971   1.666  10.000   7.788  0.4365 -0.1524  0.2830
  950MOL0     C30972   1.684   9.945   7.928 -0.0032  0.0350  0.3998
  950MOL0     C30973   1.623   9.806   7.943  0.8357  0.2805  0.0923
  950MOL0     C30974   1.641   9.732   8.080 -0.4931  0.7906  0.3495
  950MOL0     C30975   1.680   9.826   8.200 -0.8213  0.2796 -1.0860
  950MOL0     C30976   1.703   9.746   8.330 -0.6089 -0.3468 -0.6356
  950MOL0     C30977   1.798   9.817   8.425 -0.2055 -0.2755 -0.1321
  950MOL0     C30978   1.736   9.923   8.504 -0.0426 -0.8079 -0.4922
  950MOL0     N30979   1.834  10.025   8.546  0.2852 -0.4848  0.1423
  950MOL0     C30980   1.867  10.129   8.461 -0.3945 -0.5376 -0.0546
  950MOL0     C30981   1.953  10.208   8.539 -0.6919 -0.1040  0.4806
  950MOL0     C30982   2.021  10.331   8.486 -0.2478  1.1981 -0.1216
  950MOL0     C30983   1.930  10.457   8.488  0.4129 -0.2878 -0.4458
  950MOL0     C30984   2.018  10.581   8.469  0.5440 -0.0493  0.2668
  950MOL0     C30985   1.960  10.719   8.517 -0.3990  0.6418 -0.0037
  950MOL0     O30986   1.815  10.725   8.492 -0.1347  0.5334  0.1897
  950MOL0     C30987   1.740  10.840   8.516 -0.1133  0.6279  0.4052
  950MOL0     C30988   1.798  10.964   8.553  0.3210  0.8687 -0.8197
  950MOL0     C30989   1.714  11.082   8.578 -0.1276  0.5119  0.0823
  950MOL0     C30990   1.786  11.214   8.595 -1.5206  0.3128 -0.1014
  950MOL0     C30991   1.577  11.075   8.548  0.0310  0.6213  0.3155
  950MOL0     C30992   1.473  11.183   8.568 -0.2240 -0.1919 -0.3275
  950MOL0     O30993   1.348  11.176   8.504 -0.6298 -0.0824  0.4484
  950MOL0     C30994   1.267  11.288   8.506 -0.4468  0.0838  0.8160
  950MOL0     C30995   1.124  11.266   8.508  0.0214  0.1071 -0.1695
  950MOL0     C30996   1.033  11.366   8.480 -0.4305  0.4355  0.9639
  950MOL0     C30997   1.087  11.485   8.436  0.0307  0.0006 -0.4579
  950MOL0     O30998   1.008  11.582   8.391 -0.3876  0.7435  0.2132
  950MOL0     C30999   0.932  11.547   8.273 -1.3649 -0.8213  0.0900
  950MOL0     C31000   1.020  11.603   8.154 -0.3416  0.3650  0.1428
  950MOL0     C31001   0.957  11.570   8.018 -0.1923  0.9458 -0.5376
  950MOL0     C31002   0.848  11.677   7.991  0.2819  0.1665 -0.5335
  950MOL0     C31003   0.769  11.649   7.869 -0.3117 -0.5962  0.2668
  950MOL0     C31004   0.650  11.759   7.869 -0.2271  1.0494  0.5858
  950MOL0     C31005   0.561  11.732   7.742 -0.0201  0.4033  0.1672
  950MOL0     C31006   0.453  11.834   7.732 -0.4558  0.2331  0.0735
  950MOL0    Cl31007   0.504  11.998   7.659  0.3208  0.4081  0.0055
  950MOL0     C31008   1.225  11.508   8.437  1.1165 -0.1864  1.7215
  950MOL0     C31009   1.314  11.412   8.465  0.1185 -0.7463 -1.1825
  950MOL0     O31010   1.510  11.277   8.642  0.6701 -0.1055  0.3946
  950MOL0     C31011   1.532  10.952   8.494  0.5621 -0.0507 -0.4912
  950MOL0     C31012   1.607  10.831   8.489 -0.2683 -0.2436  0.4311
  950MOL0     N31013   1.985  10.145   8.653 -0.1010  0.2257 -1.2281
  950MOL0     N31014   1.907  10.033   8.664  0.1181 -0.0586  0.0808
  950MOL0     C31015   1.385  10.194   7.633 -0.0480  0.3981 -0.4208
  950MOL0     C31016   1.336  10.225   7.508  0.0480 -0.1043 -0.9996
  950MOL0     C31017   1.303  10.277   7.034 -0.7550  0.6275  0.5340
  950MOL0     C31018   1.172  10.294   7.072 -0.5657  0.0891 -0.0066
  950MOL0     C31019   1.069  10.339   6.991 -1.0295  0.0122 -0.4930
  950MOL0     C31020   1.099  10.394   6.871 -0.3066  0.4627  0.9754
  950MOL0     O31021   0.998  10.448   6.796  0.1918  0.4652 -0.3445
  950MOL0     C31022   1.020  10.468   6.660 -0.8206 -0.4496  0.3331
  950MOL0     C31023   1.025  10.340   6.577 -0.4542 -0.1595 -0.0810
  950MOL0     C31024   1.027  10.360   6.423  0.9075 -1.4702 -0.7261
  950MOL0     C31025   1.103  10.240   6.354 -0.3726 -0.4191 -0.3736
  950MOL0     C31026   1.097  10.265   6.205 -0.9775 -0.4453 -1.5806
  950MOL0     C31027   1.082  10.292   6.087 -0.0211  0.6125 -0.3054
  950MOL0     C31028   1.236  10.368   6.825 -0.0071 -0.7222 -0.3811
  950MOL0     C31029   1.332  10.310   6.909 -0.5903  0.7736  0.5492
  950MOL0     C31030   1.464  10.282   6.843  0.7019  0.3134  0.2766
  950MOL0     H31031   1.583  10.099   7.312 -0.3704  0.0655 -0.3841
  950MOL0     H31032   1.660  10.035   7.540  0.8764  1.2589  1.1915
  950MOL0     H31033   1.761  10.047   7.762  0.1371 -0.6485 -2.0142
  950MOL0     H31034   1.655   9.914   7.721 -0.9587  1.3363 -1.5122
  950MOL0     H31035   1.793   9.942   7.943  0.0497  3.1121  1.1904
  950MOL0     H31036   1.645  10.007   8.009  0.2526 -0.4918  0.9351
  950MOL0     H31037   1.516   9.827   7.937 -0.1794 -3.4916  1.9783
  950MOL0     H31038   1.664   9.736   7.869 -0.0480 -0.1381 -0.0126
  950MOL0     H31039   1.550   9.675   8.097 -0.2896  0.4568  0.3148
  950MOL0     H31040   1.717   9.656   8.064  0.4985  1.7744  0.2426
  950MOL0     H31041   1.610   9.908   8.222  0.4021  1.1549 -0.3579
  950MOL0     H31042   1.774   9.878   8.180  0.2497 -0.6848  1.1060
  950MOL0     H31043   1.606   9.735   8.381 -0.0147 -3.7496 -0.0497
  950MOL0     H31044   1.742   9.647   8.306 -0.7306  0.3484 -4.2754
  950MOL0     H31045   1.886   9.851   8.369 -0.5269  1.0059  0.0897
  950MOL0     H31046   1.849   9.744   8.488  0.9616  0.0604 -0.6639
  950MOL0     H31047   1.654   9.974   8.452 -0.2513 -0.9524 -0.3041
  950MOL0     H31048   1.696   9.886   8.598  1.0123 -1.2945 -0.2213
  950MOL0     H31049   1.822  10.141   8.363 -2.5667 -0.2177  0.9159
  950MOL0     H31050   2.052  10.305   8.385  0.6431 -1.5539  0.7754
  950MOL0     H31051   2.112  10.349   8.545 -0.7384 -0.2974  1.1669
  950MOL0     H31052   1.868  10.473   8.399 -2.7852 -0.5053  1.6319
  950MOL0     H31053   1.875  10.467   8.581  2.6720 -1.3716  1.0980
  950MOL0     H31054   2.104  10.552   8.529 -1.2294  0.8913  3.5426
  950MOL0     H31055   2.044  10.592   8.364  1.0738 -4.0800 -0.1672
  950MOL0     H31056   1.978  10.725   8.625  3.6858 -0.1398 -0.4906
  950MOL0     H31057   2.015  10.798   8.465 -1.1378  1.2818  0.1761
  950MOL0     H31058   1.902  10.965   8.583  0.1866 -0.6386 -0.1992
  950MOL0     H31059   1.774  11.249   8.698  1.8297  3.2761 -0.5341
  950MOL0     H31060   1.755  11.295   8.528  2.1900 -0.3622 -2.9837
  950MOL0     H31061   1.892  11.201   8.574 -0.8257  3.4979  0.9138
  950MOL0     H31062   1.089  11.168   8.537 -0.0639 -0.1840 -1.2110
  950MOL0     H31063   0.927  11.348   8.492 -0.0671 -0.8429  2.5543
  950MOL0     H31064   0.907  11.441   8.260 -1.7062 -0.8160  0.6768
  950MOL0     H31065   0.843  11.610   8.283 -1.3341 -0.9466  1.1757
  950MOL0     H31066   1.026  11.712   8.151 -0.1947  0.3431 -2.1825
  950MOL0     H31067   1.117  11.554   8.165 -0.4554  0.1337  0.1123
  950MOL0     H31068   0.918  11.468   8.020  2.1175 -0.0346 -1.0306
  950MOL0     H31069   1.035  11.560   7.942 -2.1700 -3.0108 -2.3353
  950MOL0     H31070   0.886  11.778   7.975  1.5103 -0.2064 -0.0991
  950MOL0     H31071   0.788  11.678   8.082 -0.4134 -0.1365 -0.9845
  950MOL0     H31072   0.837  11.674   7.787  1.3089  1.0222  1.9905
  950MOL0     H31073   0.728  11.548   7.877 -0.5896 -0.7775 -2.6772
  950MOL0     H31074   0.680  11.864   7.873  0.4153  0.8758  0.4372
  950MOL0     H31075   0.586  11.736   7.955 -1.1109 -1.1813 -0.5902
  950MOL0     H31076   0.494  11.646   7.747  1.6428 -0.9185  1.1364
  950MOL0     H31077   0.614  11.725   7.646  0.1887 -2.2504  0.3844
  950MOL0     H31078   0.397  11.851   7.824 -0.0103 -0.1850  0.4265
  950MOL0     H31079   0.375  11.808   7.659 -0.5444  1.2599 -0.2055
  950MOL0     H31080   1.259  11.602   8.392 -0.1275 -1.4061 -2.2175
  950MOL0     H31081   1.419  11.430   8.442  0.1477  0.2713 -0.3257
  950MOL0     H31082   1.428  10.941   8.465  0.3690  1.7693 -0.6199
  950MOL0     H31083   1.569  10.735   8.458  1.6693 -0.9044 -0.0629
  950MOL0     H31084   1.327  10.224   7.719  2.3282 -1.9403  2.2026
  950MOL0     H31085   1.248  10.288   7.496 -1.5526 -1.9891  0.1857
  950MOL0     H31086   1.136  10.274   7.172 -1.3001 -2.2683 -0.6591
  950MOL0     H31087   0.965  10.349   7.019 -1.6784 -0.6284 -2.4737
  950MOL0     H31088   0.940  10.536   6.633 -4.2729 -4.4756 -0.6547
  950MOL0     H31089   1.116  10.520   6.649 -1.9168  1.8737  1.0356
  950MOL0     H31090   0.936  10.283   6.604 -0.4909  0.4970  1.3102
  950MOL0     H31091   1.107  10.275   6.608  1.1633  1.6323 -0.4197
  950MOL0     H31092   0.924  10.377   6.392  1.0882  1.0883 -0.1384
  950MOL0     H31093   1.071  10.458   6.402 -1.5823 -0.3715 -1.0887
  950MOL0     H31094   1.071  10.141   6.387 -0.8394 -1.0266 -2.4699
  950MOL0     H31095   1.210  10.238   6.377  0.2907  0.7909 -2.9115
  950MOL0     H31096   1.060  10.320   5.986  1.7612 -0.3900 -1.0079
  950MOL0     H31097   1.262  10.389   6.722 -1.0963 -2.4451 -1.0524
  950MOL0     H31098   1.489  10.179   6.869 -1.3936 -1.4008 -3.5958
  950MOL0     H31099   1.460  10.285   6.733  1.3590 -0.1626  0.2371
  950MOL0     H31100   1.545  10.348   6.874 -0.1988  2.5547 -1.7884
  951MOL0     O31101   7.401  10.744   6.153 -0.5871  0.3169  0.0617
  951MOL0     C31102   7.327  10.773   6.068  0.8510 -0.3362  0.5033
  951MOL0     O31103   7.355  10.816   5.950  0.0470  0.4112 -0.3230
  951MOL0     C31104   7.477  10.780   5.896 -0.4970  0.7186 -0.2227
  951MOL0     C31105   7.533  10.649   5.899 -0.8142  0.3573  0.8445
  951MOL0     C31106   7.655  10.627   5.833  0.7252 -0.8134  0.7857
  951MOL0     C31107   7.721  10.722   5.764  0.5100  0.2161 -0.8700
  951MOL0     O31108   7.836  10.691   5.700 -0.4475 -0.2009  0.0779
  951MOL0     C31109   7.934  10.796   5.671  0.7050  0.2284 -0.8406
  951MOL0     C31110   8.063  10.729   5.635 -1.5911  0.4507  0.7637
  951MOL0     C31111   8.179  10.824   5.590 -0.2056  0.0247 -0.1898
  951MOL0     C31112   8.303  10.729   5.580  0.2457 -0.5230 -0.9639
  951MOL0     C31113   8.436  10.794   5.543 -0.4373  0.4861 -0.8650
  951MOL0     C31114   8.436  10.826   5.394 -0.0748  0.0036 -0.6420
  951MOL0     C31115   8.570  10.892   5.347  0.4183 -0.3334 -0.4167
  951MOL0     C31116   8.548  10.950   5.216  0.3583 -0.2176 -0.2140
  951MOL0     N31117   8.677  10.967   5.149  0.0505 -0.1487  0.3817
  951MOL0     C31118   8.754  11.083   5.165 -0.5709  0.0539 -0.3396
  951MOL0     C31119   8.849  11.065   5.074  0.2351  0.2700 -0.3133
  951MOL0     C31120   8.928  11.184   5.018 -0.1492  0.2471 -1.7816
  951MOL0     C31121   9.017  11.240   5.129  0.0082  0.4679 -0.5697
  951MOL0     C31122   9.121  11.142   5.188 -0.0448 -1.1961  0.7926
  951MOL0     C31123   9.165  11.202   5.322  0.0207  0.3137 -0.3624
  951MOL0     O31124   9.257  11.309   5.307  0.3021 -0.2482  1.4796
  951MOL0     C31125   9.388  11.277   5.315 -0.6640  0.1571 -0.2081
  951MOL0     C31126   9.477  11.341   5.222 -0.7321 -0.3985  0.0467
  951MOL0     C31127   9.615  11.324   5.236  0.0285 -0.6022  0.1083
  951MOL0     C31128   9.696  11.403   5.133  0.7353 -0.5806 -1.1406
  951MOL0     C31129   9.664  11.233   5.332  0.2583  0.4888 -0.0810
  951MOL0     C31130   9.808  11.211   5.353  0.6579  1.1672 -0.0058
  951MOL0     O31131   9.897  11.267   5.268 -0.3519 -0.3203  0.2664
  951MOL0     C31132  10.016  11.203   5.238 -0.0844  0.1654  0.1050
  951MOL0     C31133  10.043  11.150   5.107  0.3148 -0.7631 -0.4708
  951MOL0     C31134  10.168  11.093   5.083  0.9976  0.1695  0.2841
  951MOL0     C31135  10.266  11.086   5.178 -0.1970 -0.2484 -0.3012
  951MOL0     O31136  10.377  11.013   5.144  0.2246 -0.3477  0.8639
  951MOL0     C31137  10.490  11.025   5.228 -1.3062 -0.2331  0.3201
  951MOL0     C31138  10.581  11.150   5.197  0.7096 -0.8666  0.4828
  951MOL0     C31139  10.629  11.169   5.050  0.0985 -0.7170  0.2107
  951MOL0     C31140  10.722  11.059   5.005 -0.6083  0.3013 -0.0011
  951MOL0     C31141  10.783  11.093   4.873  0.4546 -1.2011 -1.4257
  951MOL0     C31142  10.876  10.980   4.817 -0.0973 -0.3179  0.8906
  951MOL0     C31143  10.947  11.014   4.683  0.8705  0.1475 -0.2027
  951MOL0     C31144  11.005  11.155   4.690 -0.3951 -0.2200 -0.3658
  951MOL0    Cl31145  11.075  11.206   4.525  0.1451  0.0906 -0.8703
  951MOL0     C31146  10.248  11.154   5.305 -0.0365  0.4231 -0.6175
  951MOL0     C31147  10.123  11.200   5.331  1.2047 -0.0224 -0.3606
  951MOL0     O31148   9.841  11.149   5.449  0.2154  0.7507 -0.3350
  951MOL0     C31149   9.575  11.166   5.410 -0.5637  0.7017 -0.4076
  951MOL0     C31150   9.439  11.184   5.406 -0.8183 -0.3105  0.0611
  951MOL0     N31151   8.831  10.947   5.012  0.3138 -0.4213  0.7683
  951MOL0     N31152   8.719  10.895   5.046  0.9469  0.6505 -0.5947
  951MOL0     C31153   7.661  10.850   5.757  0.1013 -0.9228  0.1400
  951MOL0     C31154   7.546  10.879   5.830  0.2275 -0.3385 -0.2558
  951MOL0     C31155   7.172  10.769   6.088 -0.1484 -0.8018  0.1917
  951MOL0     C31156   7.091  10.752   5.973 -0.5646  0.3996 -0.1211
  951MOL0     C31157   6.960  10.744   5.992  0.1781  0.5101 -0.9890
  951MOL0     C31158   6.888  10.752   6.113  0.1330  0.1739  0.3763
  951MOL0     O31159   6.756  10.724   6.130  0.4845 -0.2559  0.9651
  951MOL0     C31160   6.680  10.684   6.015 -0.0681 -0.2536  0.3928
  951MOL0     C31161   6.707  10.544   5.971 -0.0008 -0.5486 -0.2323
  951MOL0     C31162   6.651  10.454   6.073  0.0572 -0.3688 -0.5246
  951MOL0     C31163   6.758  10.397   6.163 -0.2201 -0.6477  0.1447
  951MOL0     C31164   6.717  10.305   6.269  0.4232  0.9233 -0.0497
  951MOL0     C31165   6.690  10.224   6.352  0.8029 -1.2186  0.0864
  951MOL0     C31166   6.969  10.770   6.233 -0.2195  0.7071  0.9472
  951MOL0     C31167   7.115  10.789   6.218  0.4224  0.0623  0.0410
  951MOL0     C31168   7.183  10.786   6.344 -0.1170  0.5528  0.1092
  951MOL0     H31169   7.487  10.557   5.934  0.5478 -1.3097 -1.4658
  951MOL0     H31170   7.697  10.527   5.835  1.4649 -0.5193  0.0279
  951MOL0     H31171   7.938  10.872   5.750 -0.9995  1.3686 -1.7938
  951MOL0     H31172   7.904  10.854   5.583 -0.5985 -2.1030 -2.0149
  951MOL0     H31173   8.087  10.669   5.723 -1.6774 -0.8807 -0.0980
  951MOL0     H31174   8.041  10.672   5.544 -1.0815  0.9302  0.3331
  951MOL0     H31175   8.162  10.872   5.493  3.0280  1.2298 -0.2826
  951MOL0     H31176   8.196  10.902   5.664  1.4960 -2.3022  2.0053
  951MOL0     H31177   8.307  10.676   5.676 -1.4924  1.9502  0.6027
  951MOL0     H31178   8.282  10.652   5.506  4.0844 -0.5557 -2.2349
  951MOL0     H31179   8.516  10.722   5.563 -1.9633 -1.3314 -1.0327
  951MOL0     H31180   8.451  10.885   5.602  1.2421  0.9594 -1.9193
  951MOL0     H31181   8.438  10.730   5.342  2.2339  0.6089 -1.8231
  951MOL0     H31182   8.342  10.870   5.362 -1.3020 -1.0503  1.3459
  951MOL0     H31183   8.653  10.822   5.352 -0.0585 -0.8667  0.1273
  951MOL0     H31184   8.589  10.977   5.413  2.0065  0.3654 -1.7116
  951MOL0     H31185   8.493  10.882   5.150  0.8254 -0.6326 -0.1871
  951MOL0     H31186   8.494  11.044   5.222 -0.8155 -0.8250 -0.9612
  951MOL0     H31187   8.736  11.168   5.230  0.6711  0.8105 -0.9608
  951MOL0     H31188   8.862  11.258   4.971 -1.5900 -0.5869 -1.1393
  951MOL0     H31189   8.990  11.155   4.932  1.1030 -1.7362 -0.3067
  951MOL0     H31190   9.076  11.323   5.090 -1.6343  1.1349 -1.7135
  951MOL0     H31191   8.949  11.275   5.207 -0.9451  0.7358 -1.5109
  951MOL0     H31192   9.069  11.047   5.206 -1.8169 -0.5702 -0.6817
  951MOL0     H31193   9.203  11.133   5.117 -0.3162 -1.5660  0.5196
  951MOL0     H31194   9.091  11.247   5.388  0.6647 -0.5301  0.9618
  951MOL0     H31195   9.200  11.114   5.376  0.2831  1.3954  1.2724
  951MOL0     H31196   9.443  11.419   5.154 -0.8902 -2.2680 -2.1577
  951MOL0     H31197   9.638  11.481   5.082  2.4273  2.8853  1.7783
  951MOL0     H31198   9.730  11.326   5.064 -0.3095 -2.6052  0.4768
  951MOL0     H31199   9.776  11.462   5.178  0.2568  1.1562 -2.4156
  951MOL0     H31200   9.963  11.152   5.034 -0.5368  1.2421  0.4352
  951MOL0     H31201  10.201  11.061   4.985  0.3388 -0.0599  0.1346
  951MOL0     H31202  10.466  11.022   5.335  1.5946 -1.3024  1.0207
  951MOL0     H31203  10.547  10.932   5.226  0.3629  0.7505  0.5324
  951MOL0     H31204  10.514  11.234   5.220  1.0121 -0.4769 -0.0347
  951MOL0     H31205  10.660  11.167   5.271  0.2942 -1.7568  1.1398
  951MOL0     H31206  10.673  11.269   5.042 -3.8398  1.0969 -1.2426
  951MOL0     H31207  10.544  11.178   4.981 -0.2264 -0.7479  0.5996
  951MOL0     H31208  10.679  10.959   4.999  0.1416 -0.0238 -0.1656
  951MOL0     H31209  10.792  11.041   5.087 -2.4594 -3.0551  0.9852
  951MOL0     H31210  10.700  11.117   4.806 -1.6045  0.9976  1.6687
  951MOL0     H31211  10.842  11.184   4.884 -1.7700  0.0273  1.3980
  951MOL0     H31212  10.822  10.885   4.820 -2.1870  0.6927 -1.5472
  951MOL0     H31213  10.963  10.973   4.883  2.7946 -1.5556 -2.6655
  951MOL0     H31214  10.871  11.011   4.604 -1.2391  0.8699  1.6827
  951MOL0     H31215  11.032  10.947   4.668  1.0389  0.4884 -0.8047
  951MOL0     H31216  11.064  11.185   4.777 -3.0233  2.7600  0.5636
  951MOL0     H31217  10.928  11.228   4.717 -1.4270 -0.8276 -1.5730
  951MOL0     H31218  10.317  11.157   5.390  0.7197  2.4863 -1.2452
  951MOL0     H31219  10.110  11.249   5.428 -2.6468 -1.8722  0.2644
  951MOL0     H31220   9.613  11.092   5.481  1.4040  1.4346 -0.6328
  951MOL0     H31221   9.378  11.133   5.479 -0.6262  0.5693  0.8510
  951MOL0     H31222   7.724  10.918   5.701  1.1464 -2.7178 -0.9724
  951MOL0     H31223   7.503  10.978   5.820  2.3354  0.4666 -2.3477
  951MOL0     H31224   7.142  10.748   5.877 -1.3447  0.1562 -0.5376
  951MOL0     H31225   6.914  10.730   5.895  0.1297  1.0956 -1.0591
  951MOL0     H31226   6.574  10.698   6.036 -0.0769  1.5763 -0.6955
  951MOL0     H31227   6.697  10.747   5.927 -0.8565 -0.2643  0.2241
  951MOL0     H31228   6.815  10.529   5.958  0.0385 -1.7335  1.0984
  951MOL0     H31229   6.669  10.524   5.871 -2.1656 -1.6632  0.7443
  951MOL0     H31230   6.572  10.497   6.135  0.3336 -1.4771  0.6462
  951MOL0     H31231   6.595  10.372   6.027 -0.1775  0.0044 -0.9162
  951MOL0     H31232   6.802  10.484   6.213 -1.2435  0.8140 -1.3755
  951MOL0     H31233   6.841  10.358   6.103  0.1187 -1.1978  0.9561
  951MOL0     H31234   6.654  10.151   6.422 -0.6543  0.6271  1.3429
  951MOL0     H31235   6.913  10.770   6.325 -0.1958  0.4397  0.9624
  951MOL0     H31236   7.116  10.778   6.430  0.2510  3.8379  0.8371
  951MOL0     H31237   7.240  10.692   6.341  0.3580  0.8500 -1.4013
  951MOL0     H31238   7.245  10.874   6.363  0.4945  0.7963 -2.5992
  952MOL0     O31239   6.980   3.388   1.710 -0.5534  0.6116  0.1764
  952MOL0     C31240   7.096   3.398   1.742 -0.3644  0.2372 -0.9044
  952MOL0     O31241   7.181   3.293   1.788  0.0555 -0.5689  0.0587
  952MOL0     C31242   7.155   3.156   1.769  0.1109 -0.4087 -0.4391
  952MOL0     C31243   7.263   3.076   1.794 -0.7171  0.4697 -0.1391
  952MOL0     C31244   7.262   2.939   1.782 -0.9133 -0.1270  0.3701
  952MOL0     C31245   7.149   2.873   1.752  0.2586 -0.5819  0.1075
  952MOL0     O31246   7.160   2.736   1.754 -0.7233 -0.7309 -0.5156
  952MOL0     C31247   7.061   2.661   1.695  0.2167  0.1926  0.0878
  952MOL0     C31248   7.097   2.502   1.686 -0.0845  0.8940  0.8128
  952MOL0     C31249   6.990   2.428   1.605  0.2711  0.1057 -0.1515
  952MOL0     C31250   7.013   2.279   1.594 -0.1443 -0.2818  0.2422
  952MOL0     C31251   7.112   2.235   1.490 -0.8111  0.2759  0.6331
  952MOL0     C31252   7.052   2.253   1.344  0.1567 -0.5976 -0.1159
  952MOL0     C31253   7.163   2.207   1.243  1.1555 -0.2470 -0.4874
  952MOL0     C31254   7.243   2.311   1.169 -0.5394  1.4554  0.7914
  952MOL0     N31255   7.346   2.387   1.248  0.6660  0.2034  0.0609
  952MOL0     C31256   7.456   2.332   1.306 -0.0022  0.1389 -0.4227
  952MOL0     C31257   7.472   2.394   1.421  0.2121 -0.4633  0.2710
  952MOL0     C31258   7.566   2.343   1.526  0.5320 -0.0976  0.6992
  952MOL0     C31259   7.664   2.454   1.574 -0.1062  0.2147  0.0280
  952MOL0     C31260   7.760   2.494   1.456 -0.3802 -1.2493  0.8857
  952MOL0     C31261   7.870   2.595   1.507  0.3928 -0.1364  0.0934
  952MOL0     O31262   7.963   2.637   1.401  0.1587 -0.6937  1.1458
  952MOL0     C31263   8.082   2.679   1.460  0.4028  0.3231  0.5894
  952MOL0     C31264   8.107   2.718   1.595 -0.2097  0.2075  0.3746
  952MOL0     C31265   8.236   2.744   1.635  1.0566 -0.7570  0.0840
  952MOL0     C31266   8.246   2.807   1.769 -0.7254  0.1006 -0.5246
  952MOL0     C31267   8.347   2.726   1.548  0.6651 -0.5198 -0.5498
  952MOL0     C31268   8.486   2.732   1.591 -0.9265 -0.1427  0.4266
  952MOL0     O31269   8.563   2.625   1.557  0.2581  0.0021 -0.4077
  952MOL0     C31270   8.688   2.602   1.617  0.8413  1.0034  0.3964
  952MOL0     C31271   8.702   2.529   1.735  0.4103  0.4283 -0.2729
  952MOL0     C31272   8.826   2.505   1.796  0.6256  0.5164  0.0536
  952MOL0     C31273   8.939   2.551   1.741  1.2885 -1.0733  0.8648
  952MOL0     O31274   9.066   2.506   1.785  0.7137 -0.0428 -0.0323
  952MOL0     C31275   9.172   2.500   1.683  0.1075  0.2121 -0.1624
  952MOL0     C31276   9.133   2.417   1.564 -0.4830 -0.4193  1.3744
  952MOL0     C31277   9.252   2.399   1.474 -0.5641  0.7886  1.1771
  952MOL0     C31278   9.238   2.389   1.321 -0.1532  0.5095 -0.2267
  952MOL0     C31279   9.179   2.250   1.277  0.9033 -0.1565 -0.4071
  952MOL0     C31280   9.254   2.115   1.327  0.4398 -0.0243 -0.4994
  952MOL0     C31281   9.393   2.124   1.283  0.3062  0.4345 -0.2460
  952MOL0     C31282   9.486   2.000   1.315 -0.4612  0.1730  0.4610
  952MOL0    Cl31283   9.659   2.042   1.280 -0.2190 -0.3726 -0.2315
  952MOL0     C31284   8.921   2.630   1.634  0.1797 -0.9732 -0.0510
  952MOL0     C31285   8.801   2.644   1.566 -0.6631 -0.3333 -0.4764
  952MOL0     O31286   8.525   2.820   1.670  0.3009 -0.3549  0.2007
  952MOL0     C31287   8.316   2.688   1.418 -0.4847 -0.1624 -0.8698
  952MOL0     C31288   8.189   2.661   1.380 -0.7364  0.8880  0.0821
  952MOL0     N31289   7.383   2.504   1.434 -0.0451 -0.4979  1.1048
  952MOL0     N31290   7.308   2.492   1.324  0.3517 -0.2583 -0.1973
  952MOL0     C31291   7.036   2.953   1.719 -0.5778  0.0363  0.2127
  952MOL0     C31292   7.034   3.096   1.735 -0.7516  0.4829  0.1796
  952MOL0     C31293   7.159   3.531   1.733  0.0434 -0.9292  0.4433
  952MOL0     C31294   7.236   3.567   1.838  0.1616 -0.6219 -0.3265
  952MOL0     C31295   7.290   3.701   1.852 -0.2558 -0.3933  0.1505
  952MOL0     C31296   7.272   3.792   1.742 -0.1088  0.2505 -0.1868
  952MOL0     O31297   7.333   3.913   1.744  0.4913  0.3049  0.1260
  952MOL0     C31298   7.269   4.018   1.671  0.5615  0.7629  0.2463
  952MOL0     C31299   7.335   4.144   1.708  0.1758 -0.0848 -0.6743
  952MOL0     C31300   7.489   4.151   1.681 -0.2453  0.0688 -0.7180
  952MOL0     C31301   7.540   4.277   1.747  0.6852  0.5472  0.7940
  952MOL0     C31302   7.674   4.329   1.713  0.3107  0.9591 -0.6780
  952MOL0     C31303   7.784   4.371   1.687 -0.4974  0.0677 -0.0616
  952MOL0     C31304   7.194   3.751   1.632  0.0054  0.3527  0.6256
  952MOL0     C31305   7.135   3.628   1.631  0.3611  0.7039 -0.7815
  952MOL0     C31306   7.042   3.604   1.515 -0.4555  0.1996  0.2655
  952MOL0     H31307   7.346   3.125   1.846 -1.9265  0.1179  2.2836
  952MOL0     H31308   7.350   2.883   1.814 -1.0082  0.1280  1.1024
  952MOL0     H31309   7.058   2.701   1.594  1.0997 -0.5074 -0.2365
  952MOL0     H31310   6.963   2.674   1.741 -1.2749 -0.6518 -2.6686
  952MOL0     H31311   7.196   2.486   1.641 -0.7560 -0.9782 -0.0926
  952MOL0     H31312   7.090   2.449   1.782 -2.4218 -1.8659 -0.7089
  952MOL0     H31313   6.897   2.437   1.661 -0.5654  1.9848 -1.7350
  952MOL0     H31314   6.975   2.473   1.507  1.3735 -0.6684 -0.7013
  952MOL0     H31315   7.038   2.241   1.694 -1.5461 -0.3221  0.5938
  952MOL0     H31316   6.918   2.229   1.574  0.5496 -1.7226  0.3951
  952MOL0     H31317   7.141   2.130   1.500 -0.9610  0.1504 -0.1989
  952MOL0     H31318   7.207   2.287   1.507 -0.0535 -0.3451 -1.3685
  952MOL0     H31319   6.967   2.184   1.343  1.4577 -2.3906  1.9031
  952MOL0     H31320   7.018   2.354   1.321  0.0516 -0.8693 -1.2481
  952MOL0     H31321   7.110   2.151   1.165  2.7191  0.5902 -2.2532
  952MOL0     H31322   7.236   2.137   1.284  0.1468 -0.9089  0.2070
  952MOL0     H31323   7.293   2.273   1.080  0.2518 -0.9804  2.1687
  952MOL0     H31324   7.171   2.381   1.126 -0.5148  0.2547 -1.3600
  952MOL0     H31325   7.517   2.247   1.277 -1.6743 -1.4537  0.5378
  952MOL0     H31326   7.622   2.255   1.491  0.2739 -0.3483  0.9142
  952MOL0     H31327   7.503   2.314   1.610  0.7553  0.8195  1.1871
  952MOL0     H31328   7.605   2.527   1.631 -0.7585 -1.9923  2.3755
  952MOL0     H31329   7.732   2.418   1.652 -1.8154  1.9258  2.4572
  952MOL0     H31330   7.818   2.409   1.421  1.3071 -0.0777  0.7162
  952MOL0     H31331   7.712   2.535   1.367  1.0836  0.4478  0.8259
  952MOL0     H31332   7.816   2.683   1.543  2.6129  1.9587 -1.4027
  952MOL0     H31333   7.932   2.549   1.585 -0.6299 -2.3364 -0.3184
  952MOL0     H31334   8.028   2.717   1.669 -0.0299  1.1167  0.5843
  952MOL0     H31335   8.154   2.812   1.828 -0.5194  1.5682 -0.2914
  952MOL0     H31336   8.265   2.912   1.746 -1.3969  0.9830  2.5355
  952MOL0     H31337   8.326   2.767   1.832  1.4416  0.6430 -2.7774
  952MOL0     H31338   8.612   2.485   1.775  0.9070 -1.6573 -1.3312
  952MOL0     H31339   8.825   2.428   1.872  2.4944 -0.7344 -1.1083
  952MOL0     H31340   9.200   2.598   1.645  3.3310 -1.6999 -3.3898
  952MOL0     H31341   9.271   2.468   1.717 -0.5218 -3.2545 -1.1611
  952MOL0     H31342   9.111   2.315   1.597  1.6672 -0.5411  2.6060
  952MOL0     H31343   9.051   2.463   1.508  0.2671  0.4739  0.9951
  952MOL0     H31344   9.320   2.318   1.503 -0.9194 -0.4617 -1.2033
  952MOL0     H31345   9.315   2.488   1.481  0.4381 -0.0304  3.8625
  952MOL0     H31346   9.339   2.412   1.285 -0.6940  1.3754 -1.2730
  952MOL0     H31347   9.175   2.467   1.277  0.3294  1.6466  1.0340
  952MOL0     H31348   9.071   2.246   1.297  0.3425  1.4338 -2.7375
  952MOL0     H31349   9.183   2.256   1.168  1.1770  1.1904 -0.3396
  952MOL0     H31350   9.201   2.027   1.292 -0.2286 -1.5529  3.8027
  952MOL0     H31351   9.248   2.111   1.436  1.2937  0.5433 -0.4176
  952MOL0     H31352   9.440   2.215   1.321  0.5250 -0.0268  0.6157
  952MOL0     H31353   9.403   2.138   1.175 -0.3839 -1.1125 -0.5418
  952MOL0     H31354   9.450   1.924   1.245 -0.6650  2.1476 -1.7313
  952MOL0     H31355   9.475   1.980   1.422  0.0100  0.3233  0.5397
  952MOL0     H31356   9.008   2.671   1.583  0.7190 -1.2047  0.6674
  952MOL0     H31357   8.812   2.694   1.471 -0.4592 -0.0888 -0.3281
  952MOL0     H31358   8.397   2.685   1.345  1.0626  2.7667  0.5521
  952MOL0     H31359   8.172   2.609   1.287  0.9971 -0.0024  0.2206
  952MOL0     H31360   6.942   2.903   1.698 -1.6862  1.1050  2.3699
  952MOL0     H31361   6.941   3.144   1.708 -0.1982  0.9838 -0.8890
  952MOL0     H31362   7.241   3.495   1.918  0.3043  1.6807  1.8763
  952MOL0     H31363   7.357   3.733   1.931  0.1600 -0.5002 -0.1549
  952MOL0     H31364   7.284   3.991   1.566 -0.1026 -2.6542  0.9274
  952MOL0     H31365   7.161   4.024   1.684  0.8448  0.7106  3.5231
  952MOL0     H31366   7.313   4.158   1.814  2.4698  1.0235 -0.2738
  952MOL0     H31367   7.289   4.231   1.660  0.5287  3.0007  3.9510
  952MOL0     H31368   7.549   4.069   1.723 -1.2582  0.4977  1.7700
  952MOL0     H31369   7.498   4.159   1.573 -1.7036 -2.4390 -1.1028
  952MOL0     H31370   7.525   4.269   1.855  1.2671  0.9360  0.9093
  952MOL0     H31371   7.467   4.351   1.713 -0.2007 -0.7855 -0.3179
  952MOL0     H31372   7.874   4.423   1.662 -0.7712  0.9413  0.7214
  952MOL0     H31373   7.172   3.822   1.554  0.0923 -0.4792 -0.1814
  952MOL0     H31374   6.941   3.570   1.540 -0.2296 -0.8408 -0.1703
  952MOL0     H31375   7.034   3.694   1.454  1.4782 -0.7066 -1.4392
  952MOL0     H31376   7.076   3.527   1.445 -0.5987 -0.3046  0.7451
  953MOL0     O31377  10.102  10.975  10.656  0.2335  0.6028 -0.0943
  953MOL0     C31378  10.191  11.034  10.706  0.2012 -0.4321 -0.3941
  953MOL0     O31379  10.283  10.978  10.799  0.3088 -0.5028 -0.4063
  953MOL0     C31380  10.265  10.845  10.839 -1.3515 -0.5302 -0.1574
  953MOL0     C31381  10.242  10.746  10.749 -0.4606 -0.3936 -0.1339
  953MOL0     C31382  10.227  10.611  10.783 -0.4513 -0.1177 -0.0622
  953MOL0     C31383  10.249  10.579  10.915  0.9952  1.0249  0.0125
  953MOL0     O31384  10.256  10.448  10.965 -0.8874 -0.0515 -0.3429
  953MOL0     C31385  10.174  10.340  10.925  0.5013  0.6572 -0.1886
  953MOL0     C31386  10.245  10.206  10.950  0.6958  0.2031  0.7317
  953MOL0     C31387  10.388  10.199  10.916  0.0093 -0.4786  0.8043
  953MOL0     C31388  10.462  10.076  10.968  0.0620 -0.6025  0.2159
  953MOL0     C31389  10.617  10.094  10.968 -0.5975  0.5308 -0.6422
  953MOL0     C31390  10.697   9.969  10.996 -0.2794 -0.1792 -0.0343
  953MOL0     C31391  10.849   9.976  10.983 -0.5368  0.6481  0.0308
  953MOL0     C31392  10.893   9.954  10.835 -0.2892 -0.5464 -0.4409
  953MOL0     N31393  11.023  10.024  10.817  0.0936  0.2874 -0.6001
  953MOL0     C31394  11.147  10.005  10.892  0.6982 -0.3986  0.1726
  953MOL0     C31395  11.234  10.090  10.838 -0.6259 -0.7722  0.1440
  953MOL0     C31396  11.366  10.138  10.906 -0.1070 -0.2625 -1.1876
  953MOL0     C31397  11.458  10.019  10.931  0.6864 -0.4235  1.0590
  953MOL0     C31398  11.558  10.060  11.036 -0.6287 -0.0359  0.3263
  953MOL0     C31399  11.649   9.944  11.091  0.5662 -0.2685  0.0307
  953MOL0     O31400  11.752  10.007  11.177 -0.1564  0.2804 -0.7231
  953MOL0     C31401  11.881   9.972  11.157 -0.1192  0.1608 -0.1284
  953MOL0     C31402  11.938   9.917  11.264 -0.2608  0.1764 -0.7189
  953MOL0     C31403  12.072   9.869  11.275  0.0580 -0.1849  0.7612
  953MOL0     C31404  12.122   9.833  11.414  0.7102  0.1530  0.9357
  953MOL0     C31405  12.150   9.883  11.157  0.0221 -1.3115  0.7669
  953MOL0     C31406  12.289   9.834  11.142 -0.6760  0.0211  0.3746
  953MOL0     O31407  12.382   9.911  11.072  0.6570  0.2304  0.4798
  953MOL0     C31408  12.512   9.871  11.092  0.8658 -1.0633  0.4066
  953MOL0     C31409  12.568   9.763  11.019  0.7311 -1.1584  0.2374
  953MOL0     C31410  12.692   9.719  11.052 -0.4607  0.1125  1.0871
  953MOL0     C31411  12.765   9.786  11.153  0.3731  0.6050 -0.5633
  953MOL0     O31412  12.886   9.751  11.206 -0.1344  0.5518  0.9335
  953MOL0     C31413  12.938   9.621  11.165  0.1822  0.1173 -0.5818
  953MOL0     C31414  13.089   9.631  11.175 -0.7312 -0.1364 -0.1236
  953MOL0     C31415  13.151   9.502  11.139 -0.8824 -0.1809 -0.2696
  953MOL0     C31416  13.308   9.511  11.160  0.1589 -0.4593  0.6970
  953MOL0     C31417  13.380   9.385  11.133  0.2644 -0.4800 -0.0729
  953MOL0     C31418  13.533   9.395  11.169  1.3314  0.2310  0.2234
  953MOL0     C31419  13.605   9.266  11.118 -0.5604 -0.6780 -0.2567
  953MOL0     C31420  13.756   9.298  11.118  0.6811  0.7516 -0.5775
  953MOL0    Cl31421  13.769   9.404  10.976  0.1848 -0.1528 -0.3293
  953MOL0     C31422  12.704   9.890  11.226 -1.0110 -0.1367 -0.2064
  953MOL0     C31423  12.580   9.939  11.189 -0.0042 -0.0886 -0.2656
  953MOL0     O31424  12.322   9.725  11.201  0.4401 -0.4225  0.3545
  953MOL0     C31425  12.090   9.949  11.050 -0.0513  0.4564  0.4983
  953MOL0     C31426  11.959   9.992  11.050  0.2596 -0.7442 -1.0709
  953MOL0     N31427  11.178  10.142  10.718  1.1756 -0.1951  0.3037
  953MOL0     N31428  11.052  10.106  10.714  0.6468 -0.2304  0.5250
  953MOL0     C31429  10.289  10.674  11.005 -0.7831  0.0083  0.1567
  953MOL0     C31430  10.289  10.803  10.969 -0.1081 -0.5514  1.0116
  953MOL0     C31431  10.192  11.181  10.674 -0.2643  0.0209  0.2117
  953MOL0     C31432  10.305  11.246  10.737 -0.0189  0.3385  0.5696
  953MOL0     C31433  10.329  11.377  10.709  0.1042 -0.1358  0.9509
  953MOL0     C31434  10.251  11.450  10.616  0.3445 -0.2806 -1.1259
  953MOL0     O31435  10.282  11.579  10.575  0.1142 -0.7555 -0.4227
  953MOL0     C31436  10.389  11.658  10.630 -0.4655  0.4214  0.1249
  953MOL0     C31437  10.417  11.789  10.552  0.4952  0.6107  0.0382
  953MOL0     C31438  10.288  11.869  10.522 -0.1438  0.6256  0.3202
  953MOL0     C31439  10.295  11.963  10.398 -0.3615  0.4359  0.0635
  953MOL0     C31440  10.391  12.070  10.412 -0.7431  0.7579 -0.7912
  953MOL0     C31441  10.486  12.145  10.424  0.3610 -0.2874  0.1661
  953MOL0     C31442  10.148  11.382  10.556  1.1402 -0.4553  0.3488
  953MOL0     C31443  10.106  11.252  10.590 -0.5888 -0.2887  0.1832
  953MOL0     C31444   9.979  11.198  10.522  0.0138 -0.1946  0.2599
  953MOL0     H31445  10.237  10.775  10.644 -0.0018  1.1021  0.2437
  953MOL0     H31446  10.225  10.542  10.699  1.5463 -2.0822  1.3981
  953MOL0     H31447  10.148  10.351  10.820  2.1768  0.3846 -0.6656
  953MOL0     H31448  10.080  10.336  10.981  1.1672  0.3266  0.9466
  953MOL0     H31449  10.224  10.174  11.052  1.8445 -1.5746  0.4566
  953MOL0     H31450  10.189  10.133  10.891  0.3448  0.2302  1.0272
  953MOL0     H31451  10.412  10.211  10.810 -2.1730 -1.5358  0.1436
  953MOL0     H31452  10.441  10.275  10.974  2.9235  0.0092 -2.1867
  953MOL0     H31453  10.428  10.066  11.072 -3.2505  2.6409 -0.3696
  953MOL0     H31454  10.434   9.981  10.920  0.3025 -1.8871  2.4684
  953MOL0     H31455  10.633  10.165  11.049 -0.7671  3.6264 -3.1419
  953MOL0     H31456  10.642  10.129  10.867  0.7064 -1.3114 -1.0036
  953MOL0     H31457  10.678   9.962  11.104 -1.7257  1.8963 -0.0970
  953MOL0     H31458  10.655   9.878  10.952 -0.4043  0.1822 -0.6720
  953MOL0     H31459  10.863   9.895  11.056 -0.5730  1.6725  1.1994
  953MOL0     H31460  10.897  10.070  11.010  1.3166  0.5464 -2.4903
  953MOL0     H31461  10.909   9.848  10.813  0.7955  0.0300 -2.6450
  953MOL0     H31462  10.829  10.000  10.760  0.9586  2.2174  0.0508
  953MOL0     H31463  11.160   9.961  10.990  0.4231 -2.8376 -0.8110
  953MOL0     H31464  11.339  10.195  10.996 -0.8670 -1.3569 -0.6998
  953MOL0     H31465  11.413  10.216  10.847 -3.0518  0.7274 -2.4131
  953MOL0     H31466  11.407   9.928  10.963 -1.2734  0.6434  1.1335
  953MOL0     H31467  11.510  10.002  10.837 -0.3258 -0.8231  0.5606
  953MOL0     H31468  11.617  10.144  10.999  1.2671 -0.6547  1.7822
  953MOL0     H31469  11.508  10.105  11.123 -0.1368  2.3718 -0.5438
  953MOL0     H31470  11.593   9.871  11.150  0.6828 -1.0646 -0.8155
  953MOL0     H31471  11.691   9.897  11.001  1.6060 -1.0449  0.9021
  953MOL0     H31472  11.882   9.899  11.355  1.6039 -1.4238  0.1737
  953MOL0     H31473  12.033   9.832  11.477 -0.2369  0.0103 -0.3491
  953MOL0     H31474  12.199   9.905  11.439  0.9847  0.8617 -1.6666
  953MOL0     H31475  12.166   9.733  11.404  0.5265 -0.0073  1.6745
  953MOL0     H31476  12.516   9.704  10.944 -2.0045  2.2521 -0.8206
  953MOL0     H31477  12.738   9.643  10.989 -0.0569  1.0457  0.2255
  953MOL0     H31478  12.913   9.544  11.239  2.1913 -0.0597 -0.0160
  953MOL0     H31479  12.913   9.605  11.060 -2.5405  2.2692 -0.3782
  953MOL0     H31480  13.121   9.707  11.103  0.4898  2.0398  2.5165
  953MOL0     H31481  13.126   9.648  11.276  2.3153 -2.2743 -0.7550
  953MOL0     H31482  13.132   9.486  11.032  2.2807  4.9849 -1.9795
  953MOL0     H31483  13.099   9.426  11.198  0.6428 -2.3936 -1.6073
  953MOL0     H31484  13.331   9.552  11.259  0.8288  0.5901  0.1249
  953MOL0     H31485  13.342   9.586  11.087 -1.6765 -0.4522 -0.2020
  953MOL0     H31486  13.346   9.304  11.198  1.3154 -1.2999 -0.5261
  953MOL0     H31487  13.373   9.370  11.025  1.9281 -1.6415 -0.0478
  953MOL0     H31488  13.553   9.415  11.275  1.1695  2.2732 -0.0753
  953MOL0     H31489  13.573   9.486  11.123 -3.7518  3.1917  0.9373
  953MOL0     H31490  13.581   9.244  11.014  1.2580  4.0032 -1.9006
  953MOL0     H31491  13.586   9.175  11.176  0.8415 -1.8183 -1.5126
  953MOL0     H31492  13.813   9.206  11.098 -0.9632  0.3191 -3.8990
  953MOL0     H31493  13.777   9.355  11.209 -4.3593  3.3568 -0.7219
  953MOL0     H31494  12.757   9.953  11.297 -2.9689  0.9488  0.3724
  953MOL0     H31495  12.541  10.021  11.249  1.1753 -0.9882  1.8362
  953MOL0     H31496  12.153   9.979  10.967  1.5230  0.0750  1.5144
  953MOL0     H31497  11.914  10.046  10.968 -2.0677 -1.3214 -0.2526
  953MOL0     H31498  10.322  10.652  11.106  0.5778  1.2042  0.0156
  953MOL0     H31499  10.320  10.883  11.036 -0.8045  0.0036  0.6978
  953MOL0     H31500  10.369  11.194  10.808  2.2785  1.1634 -0.7763
  953MOL0     H31501  10.412  11.426  10.760 -0.7207 -0.0257  2.2088
  953MOL0     H31502  10.367  11.685  10.734 -0.3762  1.0035 -0.0041
  953MOL0     H31503  10.484  11.603  10.633 -0.3015  0.7278  1.9031
  953MOL0     H31504  10.471  11.775  10.458  1.0539 -1.4565  0.6195
  953MOL0     H31505  10.485  11.848  10.615 -0.0336 -0.9367  2.1743
  953MOL0     H31506  10.217  11.794  10.485 -0.4150  1.4564 -0.9225
  953MOL0     H31507  10.234  11.912  10.606  0.2607  0.1881  0.8072
  953MOL0     H31508  10.200  12.016  10.382  0.2476  0.7361 -3.1784
  953MOL0     H31509  10.325  11.912  10.307  0.9072  2.6588 -0.8352
  953MOL0     H31510  10.567  12.210  10.448  0.0588  1.0842 -2.2306
  953MOL0     H31511  10.086  11.417  10.473 -1.0706 -2.6584  0.9553
  953MOL0     H31512   9.927  11.276  10.465  1.6723 -1.2233 -2.8634
  953MOL0     H31513  10.001  11.117  10.452 -4.5972 -0.6840 -0.9401
  953MOL0     H31514   9.918  11.155  10.603  0.5777  0.4696  1.0500
  954MOL0     O31515   9.197   3.435  10.555  0.1764 -0.7322  0.2903
  954MOL0     C31516   9.119   3.369  10.489  0.4035 -0.0207 -0.0644
  954MOL0     O31517   9.159   3.286  10.390  0.3591  0.7074 -0.0998
  954MOL0     C31518   9.284   3.291  10.342 -0.6001  0.0823 -0.0549
  954MOL0     C31519   9.346   3.409  10.315 -0.1448  0.3799 -0.8760
  954MOL0     C31520   9.476   3.408  10.276 -0.3541  0.5373 -0.1368
  954MOL0     C31521   9.544   3.284  10.242 -0.2248 -0.8168 -0.0055
  954MOL0     O31522   9.678   3.291  10.205 -0.3965  0.1252 -0.4456
  954MOL0     C31523   9.741   3.173  10.156  0.2518 -0.3257 -0.5699
  954MOL0     C31524   9.889   3.206  10.133  0.3216 -0.4060 -0.4633
  954MOL0     C31525   9.915   3.340  10.060  0.0621  0.2297 -0.0891
  954MOL0     C31526  10.048   3.350   9.992 -0.9564  0.1516 -0.0036
  954MOL0     C31527  10.074   3.494   9.942  1.0302  0.2246 -0.1534
  954MOL0     C31528  10.200   3.511   9.854  0.1648  0.5715 -0.8816
  954MOL0     C31529  10.203   3.647   9.792 -0.3260  0.1388  0.2632
  954MOL0     C31530  10.285   3.639   9.658 -0.0631  0.6431 -0.0120
  954MOL0     N31531  10.276   3.760   9.583  0.6629  0.0447 -0.0035
  954MOL0     C31532  10.364   3.858   9.586 -0.7758 -0.1011 -1.4943
  954MOL0     C31533  10.309   3.950   9.506 -0.2516  0.4842  0.9382
  954MOL0     C31534  10.363   4.090   9.484 -0.1170  0.2069  0.7691
  954MOL0     C31535  10.514   4.103   9.436 -1.1165  0.7236  0.0148
  954MOL0     C31536  10.545   4.250   9.410  0.6656 -0.4569  0.5850
  954MOL0     C31537  10.687   4.271   9.366  0.2016  0.1533  0.4347
  954MOL0     O31538  10.727   4.392   9.303 -0.1885 -0.0788  0.5450
  954MOL0     C31539  10.863   4.397   9.258  0.4811  0.8175 -0.2007
  954MOL0     C31540  10.919   4.515   9.200 -0.4957  0.6557  0.2999
  954MOL0     C31541  11.053   4.520   9.165 -0.1629 -0.6771  0.3669
  954MOL0     C31542  11.096   4.654   9.111 -0.2235  0.5883 -0.7369
  954MOL0     C31543  11.137   4.405   9.176  0.5696 -0.4843  0.2909
  954MOL0     C31544  11.279   4.396   9.127 -0.5888 -0.5116  0.1072
  954MOL0     O31545  11.346   4.283   9.168  0.1785  0.4174 -0.1527
  954MOL0     C31546  11.466   4.239   9.121 -0.2417  0.7527  0.5148
  954MOL0     C31547  11.584   4.260   9.196 -0.4731  0.7909 -0.3993
  954MOL0     C31548  11.709   4.228   9.149  0.1661 -0.1739  0.0398
  954MOL0     C31549  11.714   4.161   9.025 -0.5773  0.8628 -0.3410
  954MOL0     O31550  11.840   4.131   8.973  0.1000 -0.0958 -0.5175
  954MOL0     C31551  11.867   4.188   8.846 -1.0461  0.7096  0.3171
  954MOL0     C31552  11.915   4.333   8.875  0.2566 -0.1996  0.3745
  954MOL0     C31553  11.942   4.404   8.745  0.4004 -0.6518  0.4083
  954MOL0     C31554  11.957   4.554   8.750 -0.8056 -0.4793 -0.0170
  954MOL0     C31555  11.986   4.622   8.615 -0.1343  0.7213 -0.5792
  954MOL0     C31556  12.119   4.581   8.553  0.0721 -0.6944  0.4817
  954MOL0     C31557  12.132   4.662   8.421 -0.2825 -0.4050 -0.2250
  954MOL0     C31558  12.263   4.643   8.357 -0.2988  0.7030  0.2433
  954MOL0    Cl31559  12.282   4.471   8.298  0.1382 -0.1227 -0.2649
  954MOL0     C31560  11.605   4.130   8.950  0.0449  0.7066  0.6694
  954MOL0     C31561  11.478   4.173   8.995 -0.1556  0.1657 -0.3311
  954MOL0     O31562  11.335   4.487   9.060 -0.1984 -0.4335 -0.2975
  954MOL0     C31563  11.083   4.281   9.222  0.8134 -0.4956 -0.0146
  954MOL0     C31564  10.952   4.285   9.272 -0.1739 -0.4007 -0.3692
  954MOL0     N31565  10.187   3.909   9.460  0.0265 -0.3435 -0.8421
  954MOL0     N31566  10.167   3.790   9.509  0.3560  0.0419  0.0460
  954MOL0     C31567   9.479   3.167  10.268  0.3139  1.3525  1.3786
  954MOL0     C31568   9.345   3.168  10.319  0.6336 -0.5246 -0.0959
  954MOL0     C31569   8.969   3.366  10.516  0.4500  0.6819 -0.8179
  954MOL0     C31570   8.894   3.290  10.430 -0.8275 -0.3082 -0.3574
  954MOL0     C31571   8.757   3.270  10.446  0.0321 -0.6608 -0.5599
  954MOL0     C31572   8.684   3.338  10.546 -0.5435 -0.2990 -0.0765
  954MOL0     O31573   8.550   3.345  10.567 -0.4180 -0.7053  0.1330
  954MOL0     C31574   8.455   3.288  10.476 -0.6552  0.3876 -0.0413
  954MOL0     C31575   8.420   3.395  10.372  0.3475  0.9732 -0.7751
  954MOL0     C31576   8.356   3.523  10.424 -0.3010  0.5927  0.0582
  954MOL0     C31577   8.285   3.606  10.321  0.7565 -0.1612 -0.3757
  954MOL0     C31578   8.177   3.541  10.244  0.8084  0.0741  0.5233
  954MOL0     C31579   8.099   3.499  10.164  0.4334 -0.2687  0.2669
  954MOL0     C31580   8.763   3.422  10.631 -0.5839 -0.3523  0.0101
  954MOL0     C31581   8.907   3.421  10.628  0.3326  0.2825  0.1113
  954MOL0     C31582   8.987   3.486  10.734 -1.0552  0.7266  0.3140
  954MOL0     H31583   9.292   3.502  10.328 -0.7929 -0.4314  4.4441
  954MOL0     H31584   9.540   3.496  10.270  0.1962  0.1585  0.0705
  954MOL0     H31585   9.695   3.144  10.062  1.8936 -1.2829 -1.1199
  954MOL0     H31586   9.733   3.091  10.227  1.3601 -0.4324 -0.5408
  954MOL0     H31587   9.935   3.211  10.232 -0.4806  1.6518 -0.1308
  954MOL0     H31588   9.940   3.124  10.083 -0.6488 -2.3319  1.5236
  954MOL0     H31589   9.831   3.343   9.991 -1.2545 -4.1043  1.0522
  954MOL0     H31590   9.907   3.427  10.126  0.5645  1.1446 -1.1878
  954MOL0     H31591  10.124   3.322  10.065 -1.4327  1.5053  1.0526
  954MOL0     H31592  10.055   3.278   9.910 -1.0020  1.9902 -1.7089
  954MOL0     H31593  10.090   3.551  10.034  3.7953 -0.8345  0.1266
  954MOL0     H31594   9.982   3.527   9.893 -0.9417 -2.4002  1.5114
  954MOL0     H31595  10.290   3.479   9.907 -0.4436  0.6165  0.2165
  954MOL0     H31596  10.191   3.438   9.773 -1.3050 -0.1291 -0.1313
  954MOL0     H31597  10.255   3.716   9.860  0.7734  0.2076 -0.6082
  954MOL0     H31598  10.104   3.685   9.767 -0.2255  0.0651 -0.2788
  954MOL0     H31599  10.388   3.618   9.688 -0.1306  0.2993 -0.0117
  954MOL0     H31600  10.236   3.560   9.600  1.5824  0.6418 -1.4617
  954MOL0     H31601  10.456   3.858   9.644  0.1844 -1.2687 -2.9185
  954MOL0     H31602  10.354   4.148   9.576  1.9876  1.1193  0.4512
  954MOL0     H31603  10.302   4.147   9.413 -1.9335  0.9648  2.8050
  954MOL0     H31604  10.585   4.055   9.504 -0.6442 -0.3443 -1.1965
  954MOL0     H31605  10.524   4.036   9.350 -1.8599 -1.6912  1.7166
  954MOL0     H31606  10.484   4.282   9.325 -0.1449 -3.1185  0.0807
  954MOL0     H31607  10.521   4.302   9.504 -0.1496  0.9695 -0.3692
  954MOL0     H31608  10.745   4.266   9.459  2.6146  0.0501 -0.9773
  954MOL0     H31609  10.716   4.193   9.294  2.8587  1.7006 -0.3119
  954MOL0     H31610  10.857   4.604   9.195 -2.6486 -0.7796 -0.4925
  954MOL0     H31611  11.158   4.640   9.021  0.7639 -1.0042  0.1541
  954MOL0     H31612  11.168   4.699   9.180  1.1073  0.1084 -1.7676
  954MOL0     H31613  11.016   4.725   9.088 -0.8196  1.5856  3.6194
  954MOL0     H31614  11.577   4.316   9.289 -0.1631 -1.4976  1.1060
  954MOL0     H31615  11.785   4.283   9.204 -0.3087  0.9329 -0.3745
  954MOL0     H31616  11.958   4.141   8.807  0.3819  2.8353  0.8945
  954MOL0     H31617  11.790   4.174   8.769  0.7644  1.6904 -1.7747
  954MOL0     H31618  11.834   4.392   8.920 -0.4291  0.1474 -1.2345
  954MOL0     H31619  12.005   4.336   8.938 -0.8410 -1.4732  2.0964
  954MOL0     H31620  11.859   4.382   8.678 -0.6130 -2.6979  2.2049
  954MOL0     H31621  12.026   4.361   8.690  0.7699  3.7336 -2.9355
  954MOL0     H31622  12.042   4.570   8.817 -3.2647 -3.0315  4.1330
  954MOL0     H31623  11.875   4.605   8.801 -0.6582 -0.5312  0.2738
  954MOL0     H31624  11.905   4.602   8.543 -1.0856  1.0086  0.3803
  954MOL0     H31625  11.989   4.730   8.630 -1.2150  0.7867 -0.7201
  954MOL0     H31626  12.139   4.475   8.537 -0.7055 -0.5779 -1.6134
  954MOL0     H31627  12.195   4.597   8.630  1.0003  0.2190 -0.5922
  954MOL0     H31628  12.130   4.769   8.446  0.0840  0.3055 -2.9138
  954MOL0     H31629  12.050   4.634   8.353 -1.6874  2.3894  0.1583
  954MOL0     H31630  12.343   4.660   8.430  0.1664  3.5061 -0.8154
  954MOL0     H31631  12.274   4.702   8.266  2.4930 -0.0890 -0.0218
  954MOL0     H31632  11.611   4.086   8.851 -1.5973  1.7820  0.0572
  954MOL0     H31633  11.394   4.181   8.928 -0.1250  2.0829 -0.1760
  954MOL0     H31634  11.134   4.188   9.244  2.1386  0.0980 -0.4755
  954MOL0     H31635  10.922   4.191   9.315  1.3049 -0.4819  0.5795
  954MOL0     H31636   9.532   3.074  10.250  0.7141  2.0600 -1.5342
  954MOL0     H31637   9.289   3.078  10.340  1.8232 -2.2153 -3.3870
  954MOL0     H31638   8.939   3.248  10.341 -2.4638 -0.9211 -0.9418
  954MOL0     H31639   8.728   3.201  10.367  1.2114  0.6407 -2.2233
  954MOL0     H31640   8.479   3.188  10.439  1.3287  1.2285 -1.1657
  954MOL0     H31641   8.363   3.270  10.533  0.5572 -0.5612  1.7161
  954MOL0     H31642   8.356   3.355  10.294 -1.5786  0.8394  0.8043
  954MOL0     H31643   8.511   3.418  10.315  0.0237 -0.6567 -2.0009
  954MOL0     H31644   8.277   3.481  10.488  1.9291 -1.1336  1.8217
  954MOL0     H31645   8.426   3.591  10.473  1.0445 -0.2212 -0.6692
  954MOL0     H31646   8.360   3.630  10.246  1.7819 -1.7788  0.0986
  954MOL0     H31647   8.263   3.702  10.369 -0.2943 -0.2978 -0.5563
  954MOL0     H31648   8.025   3.454  10.101 -0.2842  0.7645  0.3631
  954MOL0     H31649   8.708   3.492  10.692 -0.4574 -0.2164 -0.0310
  954MOL0     H31650   9.061   3.415  10.773 -1.2425 -1.5856 -3.1039
  954MOL0     H31651   9.041   3.574  10.699 -0.8407 -0.0734 -1.4319
  954MOL0     H31652   8.932   3.521  10.822 -0.5090  1.0005  0.5468
  955MOL0     O31653  10.868   2.756  10.697 -0.0937  0.6604  0.4029
  955MOL0     C31654  10.787   2.691  10.626 -0.2379 -0.4633 -1.2006
  955MOL0     O31655  10.735   2.562  10.657 -0.3580  0.3037 -1.4405
  955MOL0     C31656  10.816   2.506  10.756 -0.0974 -0.5396  0.1060
  955MOL0     C31657  10.930   2.438  10.716 -0.8273 -0.1152  0.1761
  955MOL0     C31658  11.020   2.386  10.810 -0.3690 -0.2205 -0.6664
  955MOL0     C31659  10.974   2.370  10.942 -0.2968  0.0078 -1.1491
  955MOL0     O31660  11.058   2.325  11.046  0.3772  0.4323 -0.0000
  955MOL0     C31661  11.192   2.263  11.018 -0.0501  0.2716  0.3282
  955MOL0     C31662  11.267   2.245  11.151  0.1363 -0.3434 -0.9955
  955MOL0     C31663  11.419   2.239  11.131 -0.0014 -0.8043 -0.7426
  955MOL0     C31664  11.480   2.316  11.250  0.9648  0.5126  0.5197
  955MOL0     C31665  11.636   2.294  11.250  0.6402  0.4565  0.1026
  955MOL0     C31666  11.706   2.363  11.138 -0.5646  0.4922  0.0856
  955MOL0     C31667  11.860   2.342  11.118 -0.2641 -0.4998 -0.8207
  955MOL0     C31668  11.946   2.383  11.241  0.2547  0.5589  0.2149
  955MOL0     N31669  12.092   2.405  11.207  0.6665 -0.4964  0.4207
  955MOL0     C31670  12.158   2.326  11.122 -0.0165  0.0582  0.8463
  955MOL0     C31671  12.267   2.397  11.086  0.1862  0.8115 -0.1103
  955MOL0     C31672  12.348   2.379  10.955  0.4857 -0.5004  0.0383
  955MOL0     C31673  12.495   2.347  10.968 -0.6992  0.1019 -0.1478
  955MOL0     C31674  12.577   2.449  11.025  0.6653 -0.0221 -0.1228
  955MOL0     C31675  12.591   2.579  10.949  0.4301 -0.0498  0.3030
  955MOL0     O31676  12.699   2.656  11.011 -0.3792  0.1620  0.5715
  955MOL0     C31677  12.771   2.755  10.950 -0.1379  0.1043  0.0590
  955MOL0     C31678  12.752   2.800  10.824 -0.5808  0.2773  0.3241
  955MOL0     C31679  12.820   2.909  10.765 -0.0338 -0.0944  0.4842
  955MOL0     C31680  12.762   2.951  10.628  0.8307  0.0669  0.0292
  955MOL0     C31681  12.921   2.975  10.829  0.8368  0.1401 -0.0463
  955MOL0     C31682  12.997   3.086  10.769  0.2688  0.3259 -0.7680
  955MOL0     O31683  13.037   3.178  10.859  0.3325 -0.0655  0.1041
  955MOL0     C31684  13.119   3.282  10.821 -0.3702  0.2127 -0.3307
  955MOL0     C31685  13.259   3.280  10.852  0.1561  0.2899 -0.1907
  955MOL0     C31686  13.340   3.383  10.812  0.2038  0.0988  0.0349
  955MOL0     C31687  13.302   3.493  10.731 -0.1327  0.0904  1.0113
  955MOL0     O31688  13.377   3.596  10.695  0.2445 -0.1446  0.1506
  955MOL0     C31689  13.524   3.589  10.727 -0.3484 -0.0569  0.1853
  955MOL0     C31690  13.604   3.692  10.640 -0.1115  0.2644  0.1793
  955MOL0     C31691  13.568   3.827  10.679 -0.8567 -0.5370  1.1785
  955MOL0     C31692  13.668   3.937  10.616  0.1105 -0.3405  0.0890
  955MOL0     C31693  13.624   4.065  10.674 -0.8282  0.0454  0.2623
  955MOL0     C31694  13.695   4.184  10.607  0.8461  0.5130  0.5350
  955MOL0     C31695  13.637   4.305  10.677 -0.1912 -0.9733  0.0621
  955MOL0     C31696  13.715   4.431  10.652  0.3359 -0.4344  0.1658
  955MOL0    Cl31697  13.687   4.480  10.483 -0.2932  0.2661 -0.0474
  955MOL0     C31698  13.170   3.488  10.686 -0.2179  1.3931  0.5045
  955MOL0     C31699  13.085   3.383  10.731  0.4406 -0.3396  1.2984
  955MOL0     O31700  13.025   3.086  10.649  0.9888  0.4690  0.8660
  955MOL0     C31701  12.951   2.926  10.957  0.2452  0.0617  0.4566
  955MOL0     C31702  12.876   2.816  11.016  0.5048  0.1211 -0.2119
  955MOL0     N31703  12.276   2.508  11.164 -0.7435 -0.2017 -0.6362
  955MOL0     N31704  12.163   2.513  11.233 -0.2094 -0.4838 -0.2725
  955MOL0     C31705  10.856   2.426  10.975  0.7332  0.3958  0.6800
  955MOL0     C31706  10.783   2.502  10.886  1.0618  0.2677 -0.8213
  955MOL0     C31707  10.742   2.752  10.498 -0.5611  0.7957  0.2831
  955MOL0     C31708  10.825   2.856  10.444 -0.4243 -0.4389  1.1027
  955MOL0     C31709  10.790   2.934  10.334  0.8582 -0.0507 -0.0149
  955MOL0     C31710  10.664   2.909  10.266 -0.7118 -0.0421 -0.4199
  955MOL0     O31711  10.622   2.976  10.161  0.4886 -0.0403 -0.0825
  955MOL0     C31712  10.626   3.114  10.186 -0.1077  0.0111 -0.3582
  955MOL0     C31713  10.555   3.183  10.068  0.0518 -0.0410  0.0488
  955MOL0     C31714  10.411   3.154  10.067  0.0268 -0.9011  0.1263
  955MOL0     C31715  10.370   3.036   9.980  1.1216  0.4708 -0.2948
  955MOL0     C31716  10.374   3.058   9.836 -1.0624  0.0070 -0.0230
  955MOL0     C31717  10.372   3.063   9.713 -0.3353  0.9663  0.3325
  955MOL0     C31718  10.589   2.796  10.309 -0.0235 -0.0602 -0.3542
  955MOL0     C31719  10.621   2.724  10.425 -0.3517  0.3255  0.1648
  955MOL0     C31720  10.526   2.608  10.458 -0.2774 -0.5871  0.2070
  955MOL0     H31721  10.958   2.441  10.611  0.3411 -2.0739  0.3799
  955MOL0     H31722  11.112   2.353  10.764 -0.2866  2.1764 -2.4159
  955MOL0     H31723  11.251   2.326  10.950  0.1902 -0.0026  0.2808
  955MOL0     H31724  11.172   2.163  10.977  0.6496  0.1342  0.2979
  955MOL0     H31725  11.240   2.338  11.203  0.8239 -1.0701  0.7214
  955MOL0     H31726  11.231   2.166  11.218  1.0035  0.2166  0.1753
  955MOL0     H31727  11.452   2.135  11.143  0.8242 -0.2726  2.6218
  955MOL0     H31728  11.449   2.300  11.046 -0.0203  2.0956  1.1674
  955MOL0     H31729  11.456   2.421  11.233 -1.3852 -0.1884 -1.0682
  955MOL0     H31730  11.430   2.274  11.337  0.5207  0.1176  0.0863
  955MOL0     H31731  11.657   2.190  11.276 -2.3668 -0.0279  0.9850
  955MOL0     H31732  11.670   2.351  11.337  0.6556 -0.2072  0.5453
  955MOL0     H31733  11.654   2.329  11.048  0.7676 -0.4409 -0.3635
  955MOL0     H31734  11.694   2.470  11.154  2.3515  0.2817  6.6036
  955MOL0     H31735  11.894   2.402  11.033  2.2463  0.0723  0.4804
  955MOL0     H31736  11.868   2.237  11.092 -1.0939 -0.2884 -1.9683
  955MOL0     H31737  11.902   2.464  11.300  1.0732 -0.0797  1.7422
  955MOL0     H31738  11.957   2.295  11.304 -0.4338  0.8237  0.7234
  955MOL0     H31739  12.129   2.231  11.076 -1.0248 -0.2455  2.0530
  955MOL0     H31740  12.334   2.470  10.895 -2.6214 -0.8747 -0.0153
  955MOL0     H31741  12.293   2.310  10.890  1.2627  0.6306 -1.9284
  955MOL0     H31742  12.503   2.263  11.038 -3.1991 -0.3341 -0.3115
  955MOL0     H31743  12.546   2.312  10.877  0.7704 -0.4081  0.8284
  955MOL0     H31744  12.539   2.474  11.124  0.1928  0.1763 -0.3519
  955MOL0     H31745  12.680   2.413  11.037  1.2299  0.5609 -2.6414
  955MOL0     H31746  12.596   2.556  10.842  1.9601  1.0875  0.1009
  955MOL0     H31747  12.506   2.646  10.962  0.7399  0.0962  1.7456
  955MOL0     H31748  12.662   2.774  10.770 -0.0695 -0.4818 -0.1904
  955MOL0     H31749  12.820   2.908  10.545  0.8261  2.0000 -1.0533
  955MOL0     H31750  12.763   3.059  10.610  1.4437  0.0015 -0.3699
  955MOL0     H31751  12.660   2.914  10.614  0.3341  0.9065  1.2385
  955MOL0     H31752  13.311   3.208  10.916  1.6233 -1.2427 -2.9138
  955MOL0     H31753  13.442   3.361  10.841  0.5283 -3.9192 -3.2591
  955MOL0     H31754  13.517   3.615  10.833 -1.3802  0.3411  0.0220
  955MOL0     H31755  13.567   3.488  10.717 -5.0486 -2.3178  0.1057
  955MOL0     H31756  13.709   3.667  10.656  0.0837 -0.8846 -2.4055
  955MOL0     H31757  13.567   3.678  10.538 -2.7176  0.2211  1.0552
  955MOL0     H31758  13.564   3.825  10.788  0.3713 -2.0857  1.2201
  955MOL0     H31759  13.466   3.849  10.646 -0.9131  0.2199  1.8115
  955MOL0     H31760  13.649   3.946  10.509  0.4507  2.8806  0.2084
  955MOL0     H31761  13.775   3.923  10.631  0.7557  0.5704 -2.9154
  955MOL0     H31762  13.515   4.071  10.676 -0.8094  0.2151  1.2482
  955MOL0     H31763  13.655   4.063  10.779  1.1159  1.1902 -0.2326
  955MOL0     H31764  13.683   4.195  10.499  1.3629  1.6278  0.5749
  955MOL0     H31765  13.797   4.168  10.644  0.5441 -3.0636  0.1275
  955MOL0     H31766  13.648   4.287  10.784  1.0162  3.4569  0.9115
  955MOL0     H31767  13.531   4.325  10.659  0.1389 -0.3662 -1.3924
  955MOL0     H31768  13.821   4.418  10.676  0.0422 -0.5790  1.4396
  955MOL0     H31769  13.671   4.514  10.709 -1.1400 -1.2957  0.3293
  955MOL0     H31770  13.130   3.559  10.615  0.7637  1.6526  0.1855
  955MOL0     H31771  12.983   3.369  10.698  2.1852 -3.6009 -4.0199
  955MOL0     H31772  13.035   2.971  11.009  0.8105  0.3421 -0.6547
  955MOL0     H31773  12.899   2.770  11.112 -0.1923  0.2327  0.0170
  955MOL0     H31774  10.821   2.423  11.078  0.4974  3.7463  0.8120
  955MOL0     H31775  10.690   2.544  10.922  0.6697 -0.8121 -0.5480
  955MOL0     H31776  10.918   2.881  10.493  0.6239  1.2607 -1.5336
  955MOL0     H31777  10.861   3.013  10.314 -0.4228  0.8557 -1.1025
  955MOL0     H31778  10.582   3.144  10.281  3.0880 -2.0234  1.9494
  955MOL0     H31779  10.725   3.156  10.206 -0.0810  0.1090 -0.6761
  955MOL0     H31780  10.593   3.150   9.971 -1.8249  0.7265 -1.0168
  955MOL0     H31781  10.578   3.290  10.067 -0.2872  0.0347  0.0075
  955MOL0     H31782  10.388   3.135  10.172  2.4365  0.4518  0.9759
  955MOL0     H31783  10.347   3.235  10.032 -1.1826 -1.6541  0.5389
  955MOL0     H31784  10.264   3.017  10.004  0.9169 -1.3464 -2.3737
  955MOL0     H31785  10.432   2.951  10.010  0.7000 -0.0584 -0.9023
  955MOL0     H31786  10.382   3.047   9.608 -2.1447  2.4949 -0.1159
  955MOL0     H31787  10.501   2.778  10.248  2.4552 -0.7031 -4.1393
  955MOL0     H31788  10.435   2.604  10.397 -1.4090  1.7452  1.5874
  955MOL0     H31789  10.582   2.515  10.460 -1.1912 -1.1664 -0.5692
  955MOL0     H31790  10.488   2.626  10.559 -0.5448 -2.3678  0.4574
  956MOL0     O31791   3.122   3.280   6.440 -0.1787  0.2221  0.1625
  956MOL0     C31792   3.127   3.225   6.549  0.5420 -0.1037  0.1053
  956MOL0     O31793   3.229   3.138   6.590 -0.1084  0.6884  0.7328
  956MOL0     C31794   3.358   3.155   6.541 -1.5222 -0.0506  0.2382
  956MOL0     C31795   3.441   3.261   6.585 -0.0567  0.2750 -0.2908
  956MOL0     C31796   3.570   3.278   6.533 -0.9249 -0.9023 -0.8859
  956MOL0     C31797   3.629   3.180   6.441  0.6647 -0.5642 -0.6394
  956MOL0     O31798   3.746   3.206   6.367 -0.2561 -0.1672  0.5133
  956MOL0     C31799   3.856   3.257   6.444 -0.4347  0.6256  0.1372
  956MOL0     C31800   3.991   3.228   6.379  0.2560 -0.0007  0.3839
  956MOL0     C31801   4.002   3.267   6.229 -0.3057  0.9767  0.0803
  956MOL0     C31802   4.137   3.250   6.165  0.7286 -0.5027 -0.1665
  956MOL0     C31803   4.143   3.317   6.029  0.7723  0.1995 -0.4926
  956MOL0     C31804   4.278   3.288   5.972  0.0896 -0.5729  0.3490
  956MOL0     C31805   4.301   3.364   5.835  0.2787 -0.3938 -0.1267
  956MOL0     C31806   4.401   3.291   5.738  0.0496  0.3088  0.7732
  956MOL0     N31807   4.545   3.301   5.780 -0.6631  0.1853 -0.7509
  956MOL0     C31808   4.617   3.418   5.809  0.5948  0.0263 -0.7382
  956MOL0     C31809   4.735   3.368   5.856  0.4357  0.2608 -0.7859
  956MOL0     C31810   4.843   3.464   5.900 -0.1698 -0.7709  0.3417
  956MOL0     C31811   4.925   3.417   6.022  0.4561  0.8535 -0.1269
  956MOL0     C31812   4.856   3.432   6.159 -0.7261 -0.7085  0.1655
  956MOL0     C31813   4.754   3.321   6.193 -0.6177 -0.8803  0.2955
  956MOL0     O31814   4.665   3.366   6.300 -0.3824  0.8964  0.6139
  956MOL0     C31815   4.552   3.440   6.268  0.4844 -0.7725 -0.3638
  956MOL0     C31816   4.474   3.460   6.381 -0.4070 -0.4830 -0.1579
  956MOL0     C31817   4.353   3.526   6.379  0.0855 -1.0791  0.5182
  956MOL0     C31818   4.279   3.539   6.514 -0.2235 -1.0132 -0.1167
  956MOL0     C31819   4.317   3.589   6.257 -0.4462 -0.2393 -0.5641
  956MOL0     C31820   4.206   3.682   6.243  0.2325  0.1234 -0.6210
  956MOL0     O31821   4.214   3.762   6.138  0.2334 -0.6151  0.2499
  956MOL0     C31822   4.106   3.860   6.120 -0.0218  0.4158  1.6182
  956MOL0     C31823   4.149   3.995   6.099  0.2763 -0.2201  0.6527
  956MOL0     C31824   4.057   4.089   6.059  0.2658 -0.1373  0.2212
  956MOL0     C31825   3.922   4.059   6.068  0.3728  0.6593 -0.6935
  956MOL0     O31826   3.831   4.154   6.055 -0.3118 -0.5264  1.0880
  956MOL0     C31827   3.811   4.188   5.917  0.2131  0.6226 -0.1796
  956MOL0     C31828   3.784   4.328   5.891 -0.2912 -0.1734 -0.0464
  956MOL0     C31829   3.914   4.407   5.864  0.3893 -0.8814 -0.2134
  956MOL0     C31830   3.994   4.370   5.737  0.0021  0.1583 -0.0741
  956MOL0     C31831   4.086   4.493   5.697  0.8146 -0.4748  1.2460
  956MOL0     C31832   4.203   4.515   5.791  0.3731  0.0980  0.1879
  956MOL0     C31833   4.254   4.659   5.764 -0.2048 -0.7997  0.0572
  956MOL0     C31834   4.177   4.757   5.844  0.7112 -1.0174 -0.3690
  956MOL0    Cl31835   4.235   4.922   5.823 -0.6007 -0.5958 -0.3763
  956MOL0     C31836   3.867   3.930   6.100 -0.8391 -0.1511  0.2242
  956MOL0     C31837   3.970   3.828   6.128 -0.7043 -0.0706  0.3059
  956MOL0     O31838   4.116   3.684   6.322  0.3410  0.4851  0.9844
  956MOL0     C31839   4.397   3.571   6.140  0.0896  0.3139  0.0575
  956MOL0     C31840   4.511   3.492   6.148  0.3425  0.2145 -0.8802
  956MOL0     N31841   4.743   3.232   5.842  0.2705 -0.1327 -0.3667
  956MOL0     N31842   4.627   3.189   5.790  0.2716 -0.3889 -1.3794
  956MOL0     C31843   3.544   3.075   6.397 -0.5720 -0.3337  0.2943
  956MOL0     C31844   3.419   3.064   6.449  0.6655  0.0987 -0.4375
  956MOL0     C31845   3.002   3.241   6.633 -0.8699  0.3202 -0.4844
  956MOL0     C31846   2.907   3.337   6.582  0.5272 -0.1024  0.1925
  956MOL0     C31847   2.779   3.350   6.633  0.0762 -1.2586  0.1566
  956MOL0     C31848   2.755   3.291   6.752  0.3139 -0.4214  0.3229
  956MOL0     O31849   2.636   3.310   6.829 -0.1913  0.9838 -0.0271
  956MOL0     C31850   2.538   3.392   6.767  0.5740 -0.5950 -0.3086
  956MOL0     C31851   2.423   3.420   6.872 -1.1706 -0.2322 -0.5286
  956MOL0     C31852   2.383   3.289   6.940  0.3299  0.4091  0.0338
  956MOL0     C31853   2.257   3.307   7.032 -0.2339  0.0529  0.1364
  956MOL0     C31854   2.247   3.183   7.109  0.4259  0.3189 -0.0565
  956MOL0     C31855   2.238   3.072   7.163  0.2541  0.9326 -0.2059
  956MOL0     C31856   2.850   3.213   6.815 -0.9412 -0.0099  1.3598
  956MOL0     C31857   2.967   3.174   6.758 -1.1466 -0.0481 -0.0667
  956MOL0     C31858   3.058   3.082   6.841  0.4607  0.7175 -0.3957
  956MOL0     H31859   3.391   3.329   6.653 -0.1034  1.2189 -1.2461
  956MOL0     H31860   3.616   3.366   6.575 -1.4866 -1.1499  0.2780
  956MOL0     H31861   3.863   3.201   6.538 -1.4267 -2.0203 -1.2853
  956MOL0     H31862   3.837   3.365   6.455 -3.1142  0.6555 -3.2058
  956MOL0     H31863   4.077   3.279   6.423  1.6801 -1.4155 -0.6414
  956MOL0     H31864   4.010   3.120   6.381 -2.8711 -0.6415  0.8286
  956MOL0     H31865   3.933   3.200   6.177  4.0622 -1.0320 -3.8091
  956MOL0     H31866   3.964   3.366   6.200 -0.5582 -0.1744 -4.2591
  956MOL0     H31867   4.210   3.296   6.233 -1.2266  1.8051  0.5201
  956MOL0     H31868   4.165   3.145   6.153  1.7391 -0.2858  0.1063
  956MOL0     H31869   4.126   3.425   6.028 -0.4342  0.0191 -0.6127
  956MOL0     H31870   4.067   3.286   5.957  0.4395  0.7984 -0.3997
  956MOL0     H31871   4.357   3.315   6.042 -1.0471  1.4468  0.9191
  956MOL0     H31872   4.285   3.181   5.949 -0.3707 -0.1651 -1.9358
  956MOL0     H31873   4.337   3.465   5.855  1.1528 -0.3303 -1.8686
  956MOL0     H31874   4.205   3.378   5.784 -0.4818  1.7650  1.7271
  956MOL0     H31875   4.382   3.183   5.741 -0.7345  0.4001 -0.1429
  956MOL0     H31876   4.384   3.315   5.632  2.3496  0.6149  0.4262
  956MOL0     H31877   4.581   3.520   5.801 -0.0608 -0.1721 -0.3578
  956MOL0     H31878   4.788   3.553   5.932  1.2700  1.8219 -3.6177
  956MOL0     H31879   4.900   3.499   5.813 -0.4972 -1.1815 -0.0498
  956MOL0     H31880   4.958   3.315   6.005  1.2224  0.5867  2.4595
  956MOL0     H31881   5.016   3.477   6.036 -0.0063  1.2057  1.7050
  956MOL0     H31882   4.936   3.416   6.232  1.3924  0.6695 -1.6977
  956MOL0     H31883   4.815   3.533   6.162 -0.1252 -0.3733 -1.6210
  956MOL0     H31884   4.685   3.286   6.115 -0.9827 -3.9773  1.8598
  956MOL0     H31885   4.816   3.238   6.229  2.1253  2.0204  2.9098
  956MOL0     H31886   4.517   3.423   6.474 -0.1203 -0.4539 -0.2777
  956MOL0     H31887   4.194   3.471   6.519 -0.7196 -0.3302  3.9723
  956MOL0     H31888   4.263   3.644   6.541  0.5002 -1.2835  1.4747
  956MOL0     H31889   4.349   3.497   6.587 -1.6134 -1.0471  1.2454
  956MOL0     H31890   4.254   4.013   6.121 -0.3645  4.0531  0.9521
  956MOL0     H31891   4.099   4.188   6.043  1.8534 -0.8945 -0.5155
  956MOL0     H31892   3.881   4.139   5.848 -0.9062 -2.6691  0.8366
  956MOL0     H31893   3.717   4.138   5.892 -0.0791  1.3684 -0.5907
  956MOL0     H31894   3.728   4.337   5.798  2.0757  6.8988 -1.4219
  956MOL0     H31895   3.726   4.365   5.976 -3.2384 -1.7537 -1.2265
  956MOL0     H31896   3.974   4.388   5.954 -0.6936  1.2579  1.0446
  956MOL0     H31897   3.913   4.516   5.862  2.2989 -0.7657  1.4386
  956MOL0     H31898   3.929   4.348   5.651  2.1060  2.2384 -2.3875
  956MOL0     H31899   4.068   4.291   5.755  2.3592  1.0333 -4.4485
  956MOL0     H31900   4.129   4.478   5.597 -1.0067 -1.3201  0.5387
  956MOL0     H31901   4.032   4.588   5.686  1.8539  0.0206  0.1173
  956MOL0     H31902   4.279   4.436   5.782 -2.0982 -2.2778 -1.3922
  956MOL0     H31903   4.162   4.517   5.893  0.8414 -2.0658  0.4812
  956MOL0     H31904   4.258   4.676   5.656 -2.4823 -0.8125 -0.0838
  956MOL0     H31905   4.357   4.669   5.800 -0.0852  0.2780 -0.5625
  956MOL0     H31906   4.173   4.734   5.951 -2.2702  2.8587  0.5912
  956MOL0     H31907   4.074   4.745   5.811  0.9516 -1.3835 -0.9985
  956MOL0     H31908   3.764   3.898   6.102 -0.6792 -0.7519  3.3866
  956MOL0     H31909   3.931   3.731   6.154 -0.1298  0.0160  1.5506
  956MOL0     H31910   4.373   3.622   6.047 -0.9374  2.5667  1.4435
  956MOL0     H31911   4.570   3.492   6.057  2.6745 -0.2671  0.5532
  956MOL0     H31912   3.590   3.014   6.320  2.6136  1.2615  0.7747
  956MOL0     H31913   3.344   2.990   6.422 -0.0496 -1.7900  5.2954
  956MOL0     H31914   2.937   3.387   6.490  0.2234 -0.1244  0.0804
  956MOL0     H31915   2.703   3.409   6.583 -0.3135  1.9052  3.9832
  956MOL0     H31916   2.572   3.495   6.751 -0.7364  0.0803  1.0028
  956MOL0     H31917   2.507   3.347   6.673  0.1211 -2.1942  0.5682
  956MOL0     H31918   2.337   3.474   6.831 -1.9023 -1.3064 -0.4580
  956MOL0     H31919   2.469   3.481   6.951  1.0920 -1.8648 -0.5042
  956MOL0     H31920   2.365   3.223   6.854  2.9607  3.6337 -3.2988
  956MOL0     H31921   2.465   3.253   7.002  0.1634  1.7513  1.0703
  956MOL0     H31922   2.168   3.321   6.970 -0.6396  0.6085  0.8269
  956MOL0     H31923   2.259   3.397   7.094 -0.8555  0.0763  0.1292
  956MOL0     H31924   2.249   2.971   7.197  1.3297  0.3416 -2.1236
  956MOL0     H31925   2.825   3.163   6.909 -1.5394  0.5893  1.5270
  956MOL0     H31926   3.025   2.979   6.824  0.4639  0.0432  3.0227
  956MOL0     H31927   3.165   3.091   6.823  0.4175  0.0596 -1.0442
  956MOL0     H31928   3.033   3.096   6.946 -3.7230 -1.3263 -0.8848
  957MOL0     O31929   4.227   8.770   5.657  0.5015 -0.2263  0.4533
  957MOL0     C31930   4.328   8.724   5.620 -0.2286 -0.0076  0.5735
  957MOL0     O31931   4.449   8.740   5.678 -0.6005  0.1451 -0.8847
  957MOL0     C31932   4.460   8.819   5.796  0.1917 -0.3147  1.2186
  957MOL0     C31933   4.538   8.931   5.794  0.2857  0.5535  0.2492
  957MOL0     C31934   4.552   9.006   5.906 -0.1572  0.2848 -0.5788
  957MOL0     C31935   4.504   8.960   6.021 -0.0783  0.0281  0.3203
  957MOL0     O31936   4.536   9.008   6.143  0.2222  0.1265  0.8368
  957MOL0     C31937   4.673   8.984   6.175 -0.6400  0.7213 -0.7892
  957MOL0     C31938   4.682   8.942   6.319 -0.7433  0.3752  1.0223
  957MOL0     C31939   4.823   8.895   6.345 -0.5951  0.3686 -0.1402
  957MOL0     C31940   4.846   8.863   6.491 -0.2981 -0.1677 -0.0230
  957MOL0     C31941   4.994   8.843   6.535  0.1190 -0.9444 -0.1379
  957MOL0     C31942   5.015   8.847   6.682 -0.3778  0.2816 -0.1453
  957MOL0     C31943   5.161   8.846   6.725 -0.2405  1.0255  0.4581
  957MOL0     C31944   5.240   8.974   6.701 -0.2666 -0.1799  0.9153
  957MOL0     N31945   5.378   8.980   6.765  0.7342 -0.0138 -0.3557
  957MOL0     C31946   5.491   8.904   6.729  0.5600  0.1358 -0.2141
  957MOL0     C31947   5.586   8.960   6.805  1.2060  0.4428 -0.8869
  957MOL0     C31948   5.712   8.880   6.800 -0.1824  0.2522 -0.7339
  957MOL0     C31949   5.748   8.840   6.944 -1.1368  0.6098 -0.6989
  957MOL0     C31950   5.669   8.718   7.000  0.6513 -0.7220  0.8202
  957MOL0     C31951   5.727   8.578   6.974  0.0849  0.4873 -0.2014
  957MOL0     O31952   5.727   8.533   6.842 -0.1531  0.1081 -0.1517
  957MOL0     C31953   5.602   8.512   6.783  0.4313  0.2718 -0.6521
  957MOL0     C31954   5.472   8.507   6.848  0.5710 -0.8975  0.1622
  957MOL0     C31955   5.351   8.494   6.780 -0.5157 -0.0621 -0.4618
  957MOL0     C31956   5.223   8.501   6.862  0.0483 -0.0376 -0.1429
  957MOL0     C31957   5.348   8.484   6.636 -0.7050 -0.3691 -0.1272
  957MOL0     C31958   5.231   8.487   6.546  0.5316 -0.5268  0.3207
  957MOL0     O31959   5.251   8.463   6.412 -1.0610  0.8735  0.8139
  957MOL0     C31960   5.148   8.479   6.317  0.6143 -0.3711 -0.0501
  957MOL0     C31961   5.177   8.553   6.201  0.4854 -0.5547  0.4141
  957MOL0     C31962   5.072   8.591   6.110 -0.2435 -0.0798  0.2014
  957MOL0     C31963   4.938   8.548   6.130  0.4513  1.2950  0.9383
  957MOL0     O31964   4.834   8.557   6.045 -0.3675  0.3387 -0.0930
  957MOL0     C31965   4.847   8.626   5.923 -0.5938  0.3639 -0.0620
  957MOL0     C31966   4.734   8.596   5.829  0.7741 -0.4305  0.1263
  957MOL0     C31967   4.719   8.451   5.778 -0.4249 -0.7477 -0.2600
  957MOL0     C31968   4.635   8.419   5.649 -0.0590 -0.2020 -0.6452
  957MOL0     C31969   4.602   8.265   5.652  0.4730 -0.6384  0.0931
  957MOL0     C31970   4.482   8.223   5.560 -0.8494  0.3947 -1.0290
  957MOL0     C31971   4.507   8.080   5.510 -0.4532 -0.4347  0.0634
  957MOL0     C31972   4.446   7.975   5.607  0.1731 -0.0785  0.2533
  957MOL0    Cl31973   4.502   7.813   5.595 -0.1850 -0.3494 -0.2347
  957MOL0     C31974   4.912   8.462   6.241 -0.3949  0.4145 -0.4446
  957MOL0     C31975   5.013   8.434   6.331 -0.0288 -0.0410 -0.7074
  957MOL0     O31976   5.123   8.526   6.590 -0.2156 -0.2032 -0.1957
  957MOL0     C31977   5.479   8.490   6.572  0.2125 -0.0386  0.5074
  957MOL0     C31978   5.595   8.497   6.645  0.2021 -0.2646 -0.3638
  957MOL0     N31979   5.540   9.059   6.891  0.1348  0.1555  0.8486
  957MOL0     N31980   5.413   9.069   6.863  0.2570  0.5253 -0.7026
  957MOL0     C31981   4.427   8.845   6.025  0.3273  0.2513  0.1718
  957MOL0     C31982   4.401   8.773   5.911  0.4562  0.6644  0.6615
  957MOL0     C31983   4.335   8.646   5.493 -0.2423 -0.8315  0.5633
  957MOL0     C31984   4.428   8.661   5.392 -0.2102 -1.0833  0.0265
  957MOL0     C31985   4.425   8.586   5.276  0.0242  0.5145  0.1561
  957MOL0     C31986   4.327   8.480   5.260  0.2640 -0.5313  0.3699
  957MOL0     O31987   4.339   8.392   5.152 -0.2638  0.0232 -0.8149
  957MOL0     C31988   4.216   8.367   5.074 -0.1716  0.4256  0.1275
  957MOL0     C31989   4.198   8.218   5.040  0.4408  0.5896 -0.3454
  957MOL0     C31990   4.111   8.147   5.157  0.1371 -0.3074 -0.9460
  957MOL0     C31991   4.200   8.083   5.261 -0.0476 -1.5304  1.1267
  957MOL0     C31992   4.136   8.085   5.389 -0.4728 -0.0325 -1.0401
  957MOL0     C31993   4.085   8.090   5.495  0.5733  0.2464 -0.1561
  957MOL0     C31994   4.238   8.452   5.362 -0.1703 -0.1630  0.7480
  957MOL0     C31995   4.242   8.534   5.478  0.8683  0.4851  0.2086
  957MOL0     C31996   4.141   8.489   5.579 -0.2498 -0.3339  0.8626
  957MOL0     H31997   4.595   8.964   5.708  1.1437 -0.9919  0.1826
  957MOL0     H31998   4.614   9.095   5.904 -2.5128  1.9900 -1.8666
  957MOL0     H31999   4.731   9.075   6.158  0.5583  0.2991  0.7405
  957MOL0     H32000   4.714   8.906   6.110 -3.2960 -2.7743  1.3267
  957MOL0     H32001   4.658   9.027   6.384  2.0953  2.9269 -0.9801
  957MOL0     H32002   4.614   8.856   6.324  1.0412 -1.2928 -1.5322
  957MOL0     H32003   4.837   8.803   6.289 -2.5903  0.1264 -0.3247
  957MOL0     H32004   4.897   8.961   6.299  0.7341 -0.1926  1.1139
  957MOL0     H32005   4.798   8.940   6.552 -0.7366 -1.9711  2.0225
  957MOL0     H32006   4.793   8.772   6.518  0.4761 -0.9461 -1.0507
  957MOL0     H32007   5.057   8.916   6.483  1.2796 -2.0989 -0.4003
  957MOL0     H32008   5.019   8.745   6.492  2.6504 -0.4342 -0.0195
  957MOL0     H32009   4.975   8.931   6.738  1.3067 -0.0426  1.6535
  957MOL0     H32010   4.963   8.754   6.708  0.4172 -1.1169 -3.0576
  957MOL0     H32011   5.212   8.771   6.663 -0.7280 -1.1195  2.4979
  957MOL0     H32012   5.177   8.805   6.825  0.6446  1.0517  0.3412
  957MOL0     H32013   5.255   8.985   6.594  2.6612  0.2377  1.2888
  957MOL0     H32014   5.168   9.055   6.724 -0.4035  0.0385 -0.2515
  957MOL0     H32015   5.506   8.834   6.648  0.4835  1.0441 -1.0288
  957MOL0     H32016   5.788   8.942   6.752 -0.6596  0.3897 -1.3277
  957MOL0     H32017   5.708   8.784   6.748 -2.4631  1.2633 -2.6538
  957MOL0     H32018   5.850   8.801   6.938 -2.2942 -2.7077 -0.9295
  957MOL0     H32019   5.753   8.924   7.015  2.7719 -0.3500  0.3825
  957MOL0     H32020   5.666   8.729   7.109  0.1330 -0.4092  0.7780
  957MOL0     H32021   5.567   8.724   6.962  1.7231  2.3897 -2.0991
  957MOL0     H32022   5.830   8.596   7.006  0.3680  2.1645 -1.8662
  957MOL0     H32023   5.678   8.505   7.039 -1.1246  0.3107 -1.2760
  957MOL0     H32024   5.466   8.519   6.956 -1.2770 -1.0554  0.1171
  957MOL0     H32025   5.156   8.577   6.820  0.0356 -0.4788 -0.9466
  957MOL0     H32026   5.240   8.500   6.970 -1.6611 -0.4040  0.1471
  957MOL0     H32027   5.168   8.407   6.850 -3.1722  1.8069 -0.9398
  957MOL0     H32028   5.283   8.576   6.194  0.2495  0.0889 -1.8693
  957MOL0     H32029   5.095   8.664   6.033  3.0526 -2.5704 -1.4896
  957MOL0     H32030   4.853   8.734   5.937 -2.1710  0.5161 -0.2817
  957MOL0     H32031   4.938   8.591   5.875 -0.7306  1.0358 -0.8194
  957MOL0     H32032   4.640   8.628   5.874  1.0941 -1.6204  1.7304
  957MOL0     H32033   4.759   8.654   5.739 -0.0758  0.6934  0.5950
  957MOL0     H32034   4.668   8.395   5.857 -0.6500  0.7863  0.7300
  957MOL0     H32035   4.821   8.412   5.766 -0.6932 -1.4092 -0.4268
  957MOL0     H32036   4.685   8.442   5.554 -2.5828  0.1899 -1.9501
  957MOL0     H32037   4.550   8.487   5.645 -1.4075 -1.8457 -1.0499
  957MOL0     H32038   4.697   8.217   5.627  0.2961 -0.6778 -0.5250
  957MOL0     H32039   4.574   8.233   5.753 -1.8961 -1.1727 -0.6744
  957MOL0     H32040   4.492   8.293   5.476  2.2027  2.3269  0.7222
  957MOL0     H32041   4.385   8.236   5.607 -0.2160  2.2720 -0.1278
  957MOL0     H32042   4.613   8.063   5.489 -0.2024  1.0194  0.0566
  957MOL0     H32043   4.456   8.078   5.413  0.6173  2.7566 -0.7138
  957MOL0     H32044   4.341   7.964   5.577 -0.8838  1.2032  3.0984
  957MOL0     H32045   4.461   8.016   5.708 -1.5465  3.1846 -0.6956
  957MOL0     H32046   4.818   8.417   6.271  1.2162 -1.0881  2.8537
  957MOL0     H32047   5.000   8.377   6.423  2.1961  2.8850  1.6469
  957MOL0     H32048   5.482   8.469   6.466  2.3602 -0.1314  0.5534
  957MOL0     H32049   5.694   8.495   6.601  1.2855 -3.8741  1.8254
  957MOL0     H32050   4.390   8.812   6.122  3.1799 -0.3443  1.1564
  957MOL0     H32051   4.338   8.684   5.909 -0.0836  1.0263  1.1309
  957MOL0     H32052   4.505   8.737   5.395 -0.6344 -0.4120 -3.0135
  957MOL0     H32053   4.504   8.585   5.202  1.1448  1.4380  1.2951
  957MOL0     H32054   4.124   8.414   5.110  0.0641  1.5258 -0.6317
  957MOL0     H32055   4.237   8.420   4.981  0.7679  0.3607  0.2875
  957MOL0     H32056   4.301   8.184   5.035  1.6761  4.0464 -1.9534
  957MOL0     H32057   4.144   8.205   4.946 -2.7171 -1.0911  1.5202
  957MOL0     H32058   4.041   8.214   5.208 -1.0512 -1.4921 -0.9683
  957MOL0     H32059   4.040   8.073   5.119 -1.8658 -0.3439  2.4753
  957MOL0     H32060   4.288   8.148   5.258 -1.6084  0.6362 -1.0558
  957MOL0     H32061   4.222   7.976   5.256  0.2271 -1.6083  3.1868
  957MOL0     H32062   4.049   8.079   5.596  0.7599  1.6820  0.0805
  957MOL0     H32063   4.166   8.371   5.352 -0.3112 -0.3001  2.5195
  957MOL0     H32064   4.133   8.380   5.572  2.6394 -0.5182 -1.0464
  957MOL0     H32065   4.179   8.493   5.682 -0.1116 -3.5625  1.0391
  957MOL0     H32066   4.047   8.545   5.582  1.1491  2.1747  0.9086
  958MOL0     O32067   7.548  10.666   6.712 -0.3832  0.3759  0.1130
  958MOL0     C32068   7.519  10.650   6.592 -0.5031 -1.2688  0.0588
  958MOL0     O32069   7.512  10.750   6.506 -0.3340  0.4412  0.5713
  958MOL0     C32070   7.524  10.887   6.541 -1.2331  0.8901 -0.4289
  958MOL0     C32071   7.558  10.944   6.668  0.0592  0.4850 -0.4951
  958MOL0     C32072   7.575  11.083   6.687  0.9192 -1.0637 -0.4753
  958MOL0     C32073   7.557  11.165   6.572  0.0743  0.7282 -0.5044
  958MOL0     O32074   7.574  11.300   6.593 -0.3249  0.0643  0.1152
  958MOL0     C32075   7.674  11.362   6.510 -0.0555  0.2005  0.0412
  958MOL0     C32076   7.699  11.504   6.524  0.0448 -0.1999  0.5702
  958MOL0     C32077   7.703  11.560   6.666  0.2139  0.2686 -0.9005
  958MOL0     C32078   7.823  11.506   6.724  0.6247  1.2794  0.0713
  958MOL0     C32079   7.860  11.570   6.854  0.2912  1.0499  0.2484
  958MOL0     C32080   8.016  11.565   6.883 -0.2919  0.4013 -0.3231
  958MOL0     C32081   8.065  11.437   6.960  0.4466 -0.1260  0.1847
  958MOL0     C32082   8.213  11.427   6.958 -0.1265  0.0306 -0.4944
  958MOL0     N32083   8.287  11.534   7.016 -0.5273  0.2637 -0.2489
  958MOL0     C32084   8.346  11.527   7.139  0.0551 -0.1296  0.0600
  958MOL0     C32085   8.436  11.627   7.148  0.1144 -0.0735  0.3025
  958MOL0     C32086   8.535  11.675   7.241  0.2668  0.7006 -0.1639
  958MOL0     C32087   8.651  11.575   7.241  0.6504  0.1718  0.0508
  958MOL0     C32088   8.727  11.568   7.106 -0.3762 -1.5613 -0.8895
  958MOL0     C32089   8.854  11.486   7.133 -0.0409 -0.4031  0.3000
  958MOL0     O32090   8.974  11.527   7.064 -0.1504  0.8085  0.0085
  958MOL0     C32091   9.103  11.493   7.102  0.1694  0.2096 -0.4653
  958MOL0     C32092   9.209  11.558   7.044 -0.0867 -0.0644 -0.0790
  958MOL0     C32093   9.339  11.550   7.102  0.1203  0.4051 -0.2025
  958MOL0     C32094   9.447  11.643   7.041  0.5802 -0.1547  1.0443
  958MOL0     C32095   9.360  11.449   7.210 -0.0221 -0.6234  0.0860
  958MOL0     C32096   9.499  11.422   7.276  0.2841  0.0256  0.6136
  958MOL0     O32097   9.610  11.432   7.197 -0.0443 -0.0893  0.3554
  958MOL0     C32098   9.745  11.411   7.234  0.9173  0.4347  0.2021
  958MOL0     C32099   9.841  11.481   7.154  0.8188 -0.1450  0.1154
  958MOL0     C32100   9.977  11.467   7.187  0.5040  0.3746 -0.8118
  958MOL0     C32101  10.019  11.406   7.307  1.3704  0.1522 -0.3472
  958MOL0     O32102  10.151  11.399   7.343  0.4084 -0.1425  0.4069
  958MOL0     C32103  10.208  11.515   7.404  0.0446 -0.5824 -0.1397
  958MOL0     C32104  10.361  11.523   7.382  0.5386  0.4191  0.0565
  958MOL0     C32105  10.412  11.661   7.424  0.5034 -0.5737 -0.5231
  958MOL0     C32106  10.565  11.658   7.436 -0.2730  0.3525 -0.1296
  958MOL0     C32107  10.621  11.766   7.534  0.1451  0.5011 -0.1432
  958MOL0     C32108  10.777  11.755   7.536  0.8288  0.0649 -0.5636
  958MOL0     C32109  10.824  11.843   7.661 -0.0808  0.7144  0.4483
  958MOL0     C32110  10.799  11.989   7.658  0.0251  0.1991 -0.3789
  958MOL0    Cl32111  10.933  12.080   7.719  0.1327  0.1571  0.5009
  958MOL0     C32112   9.922  11.334   7.385 -0.7712 -1.8487  0.2776
  958MOL0     C32113   9.785  11.336   7.347  0.1762 -0.4101 -0.9685
  958MOL0     O32114   9.502  11.411   7.394  0.0462  0.6891  0.0704
  958MOL0     C32115   9.248  11.375   7.257 -0.4869 -0.2575 -0.6565
  958MOL0     C32116   9.120  11.396   7.206 -0.6006 -0.9328  0.6219
  958MOL0     N32117   8.437  11.680   7.015  0.6369  0.4196 -0.5436
  958MOL0     N32118   8.334  11.629   6.945 -0.8348 -0.0794  0.8265
  958MOL0     C32119   7.525  11.104   6.455 -0.9060 -0.4178  0.6453
  958MOL0     C32120   7.514  10.969   6.436 -0.1099 -0.0968 -0.1516
  958MOL0     C32121   7.485  10.516   6.538  0.0614 -0.5103  0.0067
  958MOL0     C32122   7.505  10.482   6.399 -1.0158  0.1680 -0.2274
  958MOL0     C32123   7.497  10.352   6.351 -0.4250  0.3082  0.6801
  958MOL0     C32124   7.458  10.245   6.429 -0.7950 -0.5901 -0.0132
  958MOL0     O32125   7.452  10.126   6.380  0.5527  0.5519 -0.1110
  958MOL0     C32126   7.350  10.034   6.436 -1.0330 -0.7861  0.4509
  958MOL0     C32127   7.364   9.889   6.389 -0.3520  0.0334  0.2234
  958MOL0     C32128   7.277   9.871   6.269 -0.2004  0.8885  0.7928
  958MOL0     C32129   7.270   9.734   6.207  0.8113 -0.5653 -0.3015
  958MOL0     C32130   7.143   9.702   6.135 -1.0246 -0.2262 -0.1916
  958MOL0     C32131   7.050   9.676   6.076  0.1422 -0.5976  0.6945
  958MOL0     C32132   7.441  10.278   6.565  0.0466  0.2661  0.2487
  958MOL0     C32133   7.446  10.410   6.622  0.0735 -1.2467 -0.3071
  958MOL0     C32134   7.436  10.413   6.771 -0.2294 -0.3471  0.3938
  958MOL0     H32135   7.585  10.887   6.757  2.8998  1.6945 -0.4896
  958MOL0     H32136   7.608  11.125   6.782  1.8274 -0.1568 -1.1715
  958MOL0     H32137   7.650  11.348   6.404  1.2442  1.0119 -0.3808
  958MOL0     H32138   7.771  11.313   6.521 -0.5031 -0.4370  1.3277
  958MOL0     H32139   7.784  11.519   6.457  0.0900  0.1577  0.7082
  958MOL0     H32140   7.623  11.555   6.465 -1.0188 -2.5239 -0.1813
  958MOL0     H32141   7.708  11.669   6.657 -2.7137  0.4598 -1.1186
  958MOL0     H32142   7.610  11.543   6.721  1.1093 -0.1441  0.5334
  958MOL0     H32143   7.790  11.404   6.746 -1.0892  1.7611 -0.0597
  958MOL0     H32144   7.909  11.507   6.658  0.7527 -1.9875  0.0168
  958MOL0     H32145   7.796  11.544   6.938 -3.1661  2.1128 -1.8646
  958MOL0     H32146   7.850  11.679   6.848  2.4406  1.4148  2.1162
  958MOL0     H32147   8.075  11.585   6.792  0.6759  2.2449  0.6511
  958MOL0     H32148   8.044  11.653   6.941  0.1191 -0.3591  0.6577
  958MOL0     H32149   8.015  11.351   6.914  0.9675  0.3743 -1.3754
  958MOL0     H32150   8.036  11.443   7.066 -2.5378 -0.4936 -0.5001
  958MOL0     H32151   8.252  11.332   6.994 -1.8385 -1.5518 -2.5406
  958MOL0     H32152   8.229  11.428   6.850 -0.2116 -1.6993 -0.5444
  958MOL0     H32153   8.335  11.448   7.212  2.5544  0.8183  1.6030
  958MOL0     H32154   8.496  11.676   7.343  1.1674  0.2740  0.1999
  958MOL0     H32155   8.561  11.777   7.214 -0.1312  2.0685  3.9605
  958MOL0     H32156   8.710  11.604   7.329 -0.1019 -1.0428  0.9955
  958MOL0     H32157   8.617  11.473   7.261 -2.0099  1.0851  0.5345
  958MOL0     H32158   8.670  11.511   7.032 -0.3828 -0.5267 -1.7070
  958MOL0     H32159   8.748  11.668   7.066  3.1294 -2.0359 -0.5461
  958MOL0     H32160   8.875  11.487   7.241 -1.7717  0.8239  0.6787
  958MOL0     H32161   8.833  11.384   7.100  0.8245 -0.8203  0.9908
  958MOL0     H32162   9.174  11.625   6.966 -2.3503 -2.1106 -0.9529
  958MOL0     H32163   9.409  11.695   6.953  1.6177  0.7295  1.1041
  958MOL0     H32164   9.541  11.599   7.006  0.3355  1.0717 -1.3312
  958MOL0     H32165   9.479  11.724   7.106  1.3244 -1.0234  1.7918
  958MOL0     H32166   9.809  11.529   7.062  1.0848 -1.6314 -0.7944
  958MOL0     H32167  10.058  11.511   7.130  1.2966  0.8918  0.6584
  958MOL0     H32168  10.162  11.608   7.369 -0.6407 -1.7168 -2.4655
  958MOL0     H32169  10.195  11.502   7.512 -2.1191  2.3908  0.0978
  958MOL0     H32170  10.417  11.448   7.439  0.0707 -0.8775 -1.1229
  958MOL0     H32171  10.374  11.499   7.276 -1.2741 -0.0843 -0.0850
  958MOL0     H32172  10.369  11.688   7.520  0.9396 -3.2520  0.4906
  958MOL0     H32173  10.369  11.736   7.356 -0.9355  0.8732  1.8737
  958MOL0     H32174  10.601  11.681   7.335 -2.1428  1.9481 -0.4809
  958MOL0     H32175  10.606  11.560   7.464  3.2428  2.7739  4.6343
  958MOL0     H32176  10.590  11.866   7.504  3.3854  1.9236  0.8782
  958MOL0     H32177  10.588  11.745   7.636  3.4710 -2.3164  0.5498
  958MOL0     H32178  10.826  11.780   7.442  2.0824 -0.1519  0.0184
  958MOL0     H32179  10.788  11.653   7.573  0.4665  0.7779  1.6561
  958MOL0     H32180  10.932  11.828   7.661 -0.3433 -2.2761 -2.3081
  958MOL0     H32181  10.792  11.805   7.758 -2.8831  1.5961 -0.0264
  958MOL0     H32182  10.711  12.018   7.716  0.7941  1.9512 -0.0206
  958MOL0     H32183  10.787  12.022   7.554  0.2675 -2.0213 -1.1517
  958MOL0     H32184   9.958  11.278   7.470  1.8346  0.2749  0.6888
  958MOL0     H32185   9.715  11.285   7.413  1.0823 -0.2838  0.1334
  958MOL0     H32186   9.274  11.297   7.328  0.3787  2.2075  1.9334
  958MOL0     H32187   9.048  11.339   7.264 -1.5964  1.5061  1.8892
  958MOL0     H32188   7.508  11.165   6.367 -0.2080  1.7388  1.9261
  958MOL0     H32189   7.480  10.926   6.343 -0.0999  0.7142 -0.5419
  958MOL0     H32190   7.547  10.555   6.329  2.5563 -3.8252 -2.7355
  958MOL0     H32191   7.492  10.335   6.244  0.3924 -1.4369  0.8898
  958MOL0     H32192   7.357  10.032   6.545 -1.8489 -0.0996  0.5281
  958MOL0     H32193   7.252  10.081   6.423 -1.9912 -1.9124  2.9335
  958MOL0     H32194   7.337   9.824   6.473  0.4324  0.4932  0.8511
  958MOL0     H32195   7.473   9.893   6.383 -0.2489 -2.9146 -4.1587
  958MOL0     H32196   7.174   9.896   6.296 -0.7121  2.4059 -2.1901
  958MOL0     H32197   7.315   9.931   6.186 -0.6082  0.5887  0.3826
  958MOL0     H32198   7.282   9.657   6.283 -2.3927 -0.1593  0.7866
  958MOL0     H32199   7.359   9.723   6.145  1.1288 -0.7096  0.1753
  958MOL0     H32200   6.958   9.660   6.024  1.1020 -1.4316 -0.8440
  958MOL0     H32201   7.430  10.201   6.641  2.3739 -2.3561 -1.8147
  958MOL0     H32202   7.528  10.448   6.817 -1.1947 -0.5219  2.5975
  958MOL0     H32203   7.359  10.486   6.798  0.7157  0.7967  0.0057
  958MOL0     H32204   7.398  10.322   6.819 -3.5590  1.1837  0.9354
  959MOL0     O32205   5.836   0.054   7.495  0.2146  0.0542  0.6421
  959MOL0     C32206   5.885  -0.012   7.586 -0.2713  0.3190  0.0795
  959MOL0     O32207   5.935  -0.138   7.576 -0.3196  0.5502 -0.4006
  959MOL0     C32208   6.006  -0.171   7.466 -1.2363 -0.6034 -0.2776
  959MOL0     C32209   5.935  -0.224   7.358  0.8319  0.1235 -1.0234
  959MOL0     C32210   6.003  -0.242   7.245  0.0047 -0.4072  0.1295
  959MOL0     C32211   6.141  -0.225   7.225 -0.3137 -0.6091 -0.3983
  959MOL0     O32212   6.208  -0.250   7.106  0.8231  0.4776  0.1292
  959MOL0     C32213   6.343  -0.222   7.090 -0.1783  0.6363  0.0508
  959MOL0     C32214   6.379  -0.253   6.941 -0.2175 -0.2431  0.5534
  959MOL0     C32215   6.374  -0.396   6.906  0.4330 -0.4726  0.6629
  959MOL0     C32216   6.435  -0.406   6.767 -0.0937 -0.1036 -0.6556
  959MOL0     C32217   6.409  -0.545   6.723 -0.0607 -0.5688 -0.0310
  959MOL0     C32218   6.426  -0.577   6.579 -0.0799  0.3823 -0.2153
  959MOL0     C32219   6.380  -0.717   6.538 -1.4240 -0.4136  0.2198
  959MOL0     C32220   6.434  -0.777   6.401  0.4960 -0.1066  0.5000
  959MOL0     N32221   6.530  -0.878   6.443 -0.6322 -0.5005 -0.0423
  959MOL0     C32222   6.664  -0.854   6.451  0.1000 -0.7298  0.6518
  959MOL0     C32223   6.709  -0.955   6.524 -0.1948  0.5165 -0.1226
  959MOL0     C32224   6.857  -0.972   6.535 -0.1539 -0.4375  0.5901
  959MOL0     C32225   6.891  -1.112   6.589 -0.6971 -1.3340  0.7609
  959MOL0     C32226   7.047  -1.121   6.590  0.6847 -0.5154  0.5496
  959MOL0     C32227   7.112  -1.124   6.456 -0.1473  0.6388  0.2052
  959MOL0     O32228   7.079  -1.242   6.378 -0.6117 -0.5278  0.7892
  959MOL0     C32229   7.130  -1.244   6.249  0.0658  0.2328 -0.4628
  959MOL0     C32230   7.098  -1.352   6.165  0.6237 -0.6051 -0.5013
  959MOL0     C32231   7.139  -1.358   6.031  0.5001  0.1890 -0.8809
  959MOL0     C32232   7.072  -1.466   5.944  0.9876 -0.3057  0.4657
  959MOL0     C32233   7.237  -1.264   5.987 -0.4973  0.0280  0.6257
  959MOL0     C32234   7.301  -1.264   5.850  0.1903  0.3559 -0.7953
  959MOL0     O32235   7.369  -1.159   5.798 -0.4635  0.4260  0.0468
  959MOL0     C32236   7.459  -1.197   5.689  1.2813 -0.2717 -0.2431
  959MOL0     C32237   7.451  -1.154   5.558  0.0935 -0.0076  1.4748
  959MOL0     C32238   7.561  -1.170   5.467 -0.4619  0.2813  0.2535
  959MOL0     C32239   7.683  -1.226   5.511 -0.2400  0.0021  0.1484
  959MOL0     O32240   7.792  -1.235   5.426  0.8427  0.0525 -0.0802
  959MOL0     C32241   7.805  -1.359   5.359  0.4707 -0.0874  0.2588
  959MOL0     C32242   7.953  -1.379   5.324  0.2632  0.1951  0.2005
  959MOL0     C32243   7.991  -1.512   5.251  0.9684  0.3296 -0.1947
  959MOL0     C32244   7.995  -1.629   5.355 -0.4016 -0.1378 -0.5184
  959MOL0     C32245   8.081  -1.744   5.294  1.3786 -0.0759 -0.0752
  959MOL0     C32246   8.094  -1.868   5.381 -0.6376 -0.2347 -0.6908
  959MOL0     C32247   8.143  -1.992   5.298 -0.1570  0.3681 -0.1500
  959MOL0     C32248   8.192  -2.112   5.387  0.9273 -0.0980 -0.0706
  959MOL0    Cl32249   8.288  -2.234   5.295  0.6907  0.5676 -0.0045
  959MOL0     C32250   7.689  -1.285   5.637  0.4546  0.6615 -0.4992
  959MOL0     C32251   7.577  -1.270   5.724 -0.1758 -1.3419  0.0696
  959MOL0     O32252   7.305  -1.378   5.796 -0.4070 -0.3811 -0.1650
  959MOL0     C32253   7.278  -1.160   6.071  0.1813 -0.8038  0.2162
  959MOL0     C32254   7.216  -1.144   6.198 -0.0703  0.7484 -0.8948
  959MOL0     N32255   6.602  -1.033   6.558 -0.6452  0.7168  1.0231
  959MOL0     N32256   6.490  -0.993   6.494  0.4835  0.0008 -0.6873
  959MOL0     C32257   6.212  -0.183   7.337 -0.3102  0.5938  0.7272
  959MOL0     C32258   6.147  -0.158   7.456  0.2923  0.3779  0.0780
  959MOL0     C32259   5.885   0.048   7.722 -0.5113 -0.2506  0.2857
  959MOL0     C32260   5.835  -0.033   7.826 -0.3098 -0.1921  0.0806
  959MOL0     C32261   5.802   0.022   7.950  0.2100  0.6204 -0.1533
  959MOL0     C32262   5.825   0.158   7.981  0.3845 -0.0190 -0.7268
  959MOL0     O32263   5.788   0.221   8.100  0.3403  0.2054  0.7566
  959MOL0     C32264   5.670   0.182   8.174 -0.1915  0.7526 -1.2744
  959MOL0     C32265   5.665   0.269   8.297  0.6554  0.2590 -0.5398
  959MOL0     C32266   5.630   0.417   8.265 -0.3917  0.3192 -0.0019
  959MOL0     C32267   5.481   0.427   8.231  0.6590  0.2584 -0.1697
  959MOL0     C32268   5.446   0.575   8.243  0.8212  0.6557 -0.6953
  959MOL0     C32269   5.423   0.694   8.230 -0.1988 -0.0808  0.1222
  959MOL0     C32270   5.884   0.235   7.885 -0.5670  0.4481 -0.3945
  959MOL0     C32271   5.905   0.185   7.753 -0.2090 -0.4415 -0.2590
  959MOL0     C32272   5.936   0.301   7.652 -0.1221  0.1545 -0.8294
  959MOL0     H32273   5.828  -0.241   7.356  0.9034 -0.4233 -0.5435
  959MOL0     H32274   5.948  -0.283   7.162  0.3179 -1.2705  0.3409
  959MOL0     H32275   6.401  -0.285   7.158 -2.9864 -2.2801 -0.0088
  959MOL0     H32276   6.367  -0.118   7.113  3.3373  0.2555 -1.2060
  959MOL0     H32277   6.299  -0.208   6.883  1.3989 -0.8568 -2.3151
  959MOL0     H32278   6.474  -0.200   6.926 -0.2844 -0.0900  0.6748
  959MOL0     H32279   6.430  -0.461   6.973 -0.6966 -1.5725  0.5855
  959MOL0     H32280   6.274  -0.440   6.905 -0.2972  0.9186 -2.9453
  959MOL0     H32281   6.388  -0.328   6.707 -2.0736  0.1458  1.1252
  959MOL0     H32282   6.544  -0.391   6.768  0.2588 -2.1763 -1.5932
  959MOL0     H32283   6.306  -0.577   6.744 -0.5273 -0.2924 -1.7689
  959MOL0     H32284   6.467  -0.618   6.780  1.1589  1.0701  0.9284
  959MOL0     H32285   6.360  -0.510   6.522  0.3232 -1.0541 -2.5415
  959MOL0     H32286   6.531  -0.574   6.550  0.9312 -4.5996  1.9155
  959MOL0     H32287   6.272  -0.710   6.523 -1.7180  0.4155  2.3519
  959MOL0     H32288   6.393  -0.789   6.620 -0.0301 -0.0698  0.3320
  959MOL0     H32289   6.353  -0.833   6.355 -0.6480  2.1735 -0.4259
  959MOL0     H32290   6.475  -0.702   6.332  1.2299 -0.4298  0.5744
  959MOL0     H32291   6.718  -0.775   6.400 -0.3085  0.5841  2.1649
  959MOL0     H32292   6.890  -0.893   6.603 -4.1303 -0.6522  3.0790
  959MOL0     H32293   6.907  -0.959   6.439  2.3311 -0.3475  1.8101
  959MOL0     H32294   6.854  -1.134   6.689  1.0673 -0.2815  1.7039
  959MOL0     H32295   6.846  -1.176   6.513  1.0484 -0.1647 -1.3721
  959MOL0     H32296   7.089  -1.036   6.645 -0.7402 -0.2281  1.2473
  959MOL0     H32297   7.087  -1.209   6.641 -0.2699 -0.7592  0.9042
  959MOL0     H32298   7.088  -1.033   6.399  0.5915  0.2826 -0.7009
  959MOL0     H32299   7.219  -1.120   6.477 -0.2487 -1.1675  1.2396
  959MOL0     H32300   7.027  -1.424   6.205 -0.7436  1.3598  0.7663
  959MOL0     H32301   6.971  -1.476   5.984  0.6937  4.5432  1.4790
  959MOL0     H32302   7.127  -1.560   5.944  2.6473  0.6280  0.4755
  959MOL0     H32303   7.060  -1.439   5.838  1.9581  2.5736  1.0075
  959MOL0     H32304   7.367  -1.095   5.521 -0.0559  0.5389  2.6571
  959MOL0     H32305   7.542  -1.125   5.370 -1.4388  0.2779  0.4309
  959MOL0     H32306   7.775  -1.444   5.422  0.1790  0.0640  0.3268
  959MOL0     H32307   7.743  -1.361   5.269  1.7163 -0.9409 -0.6146
  959MOL0     H32308   7.973  -1.296   5.256  0.8646 -0.1719 -0.0853
  959MOL0     H32309   8.006  -1.366   5.419 -2.0149  0.0259  1.5621
  959MOL0     H32310   8.087  -1.501   5.200  0.4895 -2.3602 -1.8682
  959MOL0     H32311   7.923  -1.540   5.170  1.4781  0.3638 -0.6395
  959MOL0     H32312   7.891  -1.654   5.377 -2.6384  5.1427 -3.2504
  959MOL0     H32313   8.044  -1.597   5.448 -3.3417 -4.1840  2.8272
  959MOL0     H32314   8.045  -1.783   5.198  1.1210 -0.9471  0.3713
  959MOL0     H32315   8.181  -1.699   5.282  1.3051  0.2624  0.5496
  959MOL0     H32316   7.992  -1.892   5.411 -0.1500 -1.5138  0.0032
  959MOL0     H32317   8.148  -1.847   5.474 -0.3286  0.2104 -0.9661
  959MOL0     H32318   8.233  -1.966   5.241  2.4466 -1.7434  2.6491
  959MOL0     H32319   8.063  -2.010   5.226 -0.1667  1.9192 -0.5633
  959MOL0     H32320   8.105  -2.163   5.429  3.2100 -1.9040  2.8190
  959MOL0     H32321   8.254  -2.079   5.470  1.5831 -0.7201 -0.3035
  959MOL0     H32322   7.775  -1.333   5.681  1.9477  1.5790 -2.2344
  959MOL0     H32323   7.589  -1.280   5.831 -1.5904  0.3485  0.4181
  959MOL0     H32324   7.341  -1.077   6.039 -2.9169  2.9233  2.8239
  959MOL0     H32325   7.234  -1.057   6.261  0.2431  0.1989 -0.2169
  959MOL0     H32326   6.320  -0.169   7.331 -0.2561 -0.1989 -3.9722
  959MOL0     H32327   6.203  -0.123   7.542  1.9848 -0.3174 -0.6923
  959MOL0     H32328   5.818  -0.137   7.801  0.0210  0.5249 -3.7434
  959MOL0     H32329   5.772  -0.051   8.024 -1.8056 -1.0942 -2.5414
  959MOL0     H32330   5.574   0.185   8.122 -2.3649 -1.3195  2.2067
  959MOL0     H32331   5.688   0.082   8.216  4.5201  2.0458  0.4618
  959MOL0     H32332   5.753   0.266   8.362 -1.0546 -0.3229  1.8684
  959MOL0     H32333   5.587   0.218   8.352  2.1167 -0.6674  0.7632
  959MOL0     H32334   5.652   0.487   8.346  1.0158 -1.0717  0.8724
  959MOL0     H32335   5.685   0.450   8.177 -1.0237  1.1195 -0.1070
  959MOL0     H32336   5.421   0.363   8.296  0.2466  0.8802  0.0731
  959MOL0     H32337   5.460   0.391   8.130 -2.2999 -1.0967  0.8333
  959MOL0     H32338   5.406   0.798   8.212 -2.8945 -0.2476  1.1496
  959MOL0     H32339   5.905   0.341   7.901  1.6495  0.4566 -2.5763
  959MOL0     H32340   6.021   0.352   7.697  0.6150  0.0894 -2.1105
  959MOL0     H32341   5.995   0.259   7.570  0.0826  0.6012 -0.9161
  959MOL0     H32342   5.851   0.359   7.614 -0.2689 -1.1274 -2.6051
  960MOL0     O32343   0.854   3.253   5.143  0.0723 -0.1797 -0.7037
  960MOL0     C32344   0.788   3.343   5.193  1.0005  0.5863 -0.5076
  960MOL0     O32345   0.810   3.406   5.307  0.1778 -0.2532  0.0963
  960MOL0     C32346   0.931   3.424   5.365 -0.9610  0.4005 -0.1274
  960MOL0     C32347   0.983   3.552   5.391 -0.4610  0.5483  0.6212
  960MOL0     C32348   1.118   3.575   5.422  0.8781  0.7095 -0.4987
  960MOL0     C32349   1.205   3.465   5.434 -0.0533 -0.3344 -0.7226
  960MOL0     O32350   1.331   3.500   5.484  0.0192  0.3992  0.3470
  960MOL0     C32351   1.441   3.419   5.438 -0.3816 -0.3476  0.4531
  960MOL0     C32352   1.576   3.477   5.485  0.6089 -0.3123  0.8893
  960MOL0     C32353   1.619   3.619   5.439  0.0152  0.3107  0.4671
  960MOL0     C32354   1.749   3.692   5.501  0.2116  0.7198 -0.5568
  960MOL0     C32355   1.726   3.843   5.481  0.1581 -0.2991  0.5705
  960MOL0     C32356   1.832   3.915   5.563 -0.5327 -0.8775 -0.1533
  960MOL0     C32357   1.831   4.071   5.556  0.6393 -0.7722  0.5629
  960MOL0     C32358   1.699   4.126   5.608 -0.2449 -0.6569 -0.0930
  960MOL0     N32359   1.677   4.269   5.579  0.0505  0.0998 -0.3457
  960MOL0     C32360   1.662   4.318   5.453 -0.7677 -0.2835  0.0681
  960MOL0     C32361   1.649   4.452   5.472  0.3123 -1.2342 -0.4054
  960MOL0     C32362   1.643   4.566   5.370  0.3304  0.1972  0.2211
  960MOL0     C32363   1.501   4.610   5.328 -0.3734 -0.2396  0.0226
  960MOL0     C32364   1.527   4.735   5.245  0.9611 -0.6267 -0.2922
  960MOL0     C32365   1.389   4.806   5.239  0.5618  0.5807  0.1396
  960MOL0     O32366   1.315   4.740   5.135 -0.0395  0.2820 -0.3126
  960MOL0     C32367   1.192   4.786   5.107 -0.0118 -0.8564  1.1710
  960MOL0     C32368   1.120   4.705   5.021  0.5811 -0.1507  0.6863
  960MOL0     C32369   0.986   4.734   4.979 -0.6787 -0.0993 -0.0851
  960MOL0     C32370   0.922   4.631   4.894 -0.3761 -0.3538 -0.1394
  960MOL0     C32371   0.946   4.868   5.024 -0.6626  0.8111  0.1342
  960MOL0     C32372   0.809   4.917   4.985 -0.5014  0.6274 -1.3178
  960MOL0     O32373   0.740   4.830   4.919  0.2879  0.1261  0.2271
  960MOL0     C32374   0.603   4.850   4.888 -0.2673 -0.3731 -0.5113
  960MOL0     C32375   0.537   4.976   4.872  0.4386 -0.4162  0.4828
  960MOL0     C32376   0.405   4.980   4.828 -0.2009  0.4875  1.1211
  960MOL0     C32377   0.336   4.863   4.801 -0.6473 -0.7251  0.2733
  960MOL0     O32378   0.211   4.889   4.745 -0.4853  0.3095  0.3461
  960MOL0     C32379   0.122   4.777   4.729  0.7882 -0.6479  0.7889
  960MOL0     C32380   0.151   4.711   4.592  0.7514  1.1976  0.0983
  960MOL0     C32381   0.039   4.619   4.534 -0.3021 -0.3311 -0.1048
  960MOL0     C32382  -0.013   4.524   4.644  0.4535 -0.1598 -0.0603
  960MOL0     C32383  -0.123   4.438   4.583  0.2258  0.2430  0.0976
  960MOL0     C32384  -0.203   4.348   4.684 -0.2166 -1.2028  0.4577
  960MOL0     C32385  -0.303   4.248   4.623  1.3111 -0.3854  0.3697
  960MOL0     C32386  -0.422   4.211   4.716 -0.1512  0.2801 -0.3963
  960MOL0    Cl32387  -0.530   4.335   4.767 -0.0895 -0.2106  0.4697
  960MOL0     C32388   0.391   4.742   4.817  0.5940  1.2623  0.1124
  960MOL0     C32389   0.528   4.741   4.859  0.5939  0.4526  0.5309
  960MOL0     O32390   0.779   5.031   5.004  0.6556 -0.3557 -0.1728
  960MOL0     C32391   1.019   4.947   5.111 -0.3320 -0.0408 -0.1360
  960MOL0     C32392   1.139   4.905   5.159  0.7578  0.3586  0.0804
  960MOL0     N32393   1.646   4.472   5.609 -0.3573 -0.4478  0.2277
  960MOL0     N32394   1.658   4.362   5.677 -0.5103 -0.2936 -0.0845
  960MOL0     C32395   1.157   3.338   5.427 -1.2204 -0.0892 -0.0351
  960MOL0     C32396   1.021   3.315   5.384 -0.8246  0.2339  0.3038
  960MOL0     C32397   0.666   3.375   5.115 -0.6882  0.0011 -0.0872
  960MOL0     C32398   0.588   3.262   5.068 -0.3722 -0.2024 -1.1738
  960MOL0     C32399   0.485   3.286   4.978 -0.4531  0.1861  0.3392
  960MOL0     C32400   0.428   3.407   4.961 -0.9698  0.1138  0.7718
  960MOL0     O32401   0.315   3.418   4.882  0.3537  0.0724 -0.4335
  960MOL0     C32402   0.216   3.517   4.911  0.1872  0.6198  0.2113
  960MOL0     C32403   0.171   3.503   5.058  1.0009  0.6778 -0.2719
  960MOL0     C32404   0.096   3.367   5.071  1.4686  0.4489  0.5326
  960MOL0     C32405   0.037   3.340   5.216 -1.0753 -1.5674 -0.6209
  960MOL0     C32406   0.144   3.301   5.309 -0.5428 -0.6420 -1.0608
  960MOL0     C32407   0.229   3.261   5.390 -0.0621  0.3971 -0.3488
  960MOL0     C32408   0.495   3.520   5.011  0.1778 -0.1518  0.3270
  960MOL0     C32409   0.620   3.507   5.087 -0.3287 -0.3193 -0.3158
  960MOL0     C32410   0.683   3.643   5.116 -0.3685 -0.3668  0.3257
  960MOL0     H32411   0.911   3.634   5.384 -1.1890  0.0005  1.4327
  960MOL0     H32412   1.140   3.676   5.458 -0.6289 -0.2788  3.7934
  960MOL0     H32413   1.435   3.413   5.329  0.4671  1.1047  0.2950
  960MOL0     H32414   1.425   3.325   5.492 -4.8469  1.8957  3.7044
  960MOL0     H32415   1.564   3.472   5.594 -1.9929 -1.3166  0.6298
  960MOL0     H32416   1.652   3.408   5.446  1.6962  2.1255 -1.7097
  960MOL0     H32417   1.621   3.609   5.330 -1.6241  0.7749  0.3582
  960MOL0     H32418   1.531   3.683   5.453 -1.8480 -0.7162 -4.5289
  960MOL0     H32419   1.738   3.662   5.606  2.2869 -3.1762 -1.2557
  960MOL0     H32420   1.842   3.655   5.457  0.3746  1.2832 -0.6854
  960MOL0     H32421   1.635   3.874   5.532 -0.3263 -3.1392  1.6272
  960MOL0     H32422   1.718   3.861   5.373  0.3965 -2.9051  0.0526
  960MOL0     H32423   1.831   3.879   5.666  3.0519  2.6018  1.3836
  960MOL0     H32424   1.932   3.905   5.519 -1.3947  2.6504 -3.4909
  960MOL0     H32425   1.849   4.088   5.449  0.2571 -1.1640  0.4307
  960MOL0     H32426   1.915   4.113   5.612 -1.2825  0.3995  2.7509
  960MOL0     H32427   1.613   4.077   5.561 -0.1613 -0.2992 -0.6261
  960MOL0     H32428   1.688   4.110   5.716 -2.1939 -1.8936 -0.4275
  960MOL0     H32429   1.675   4.259   5.363  0.0634  0.9104 -0.6245
  960MOL0     H32430   1.701   4.532   5.283  0.2437 -3.8264  1.5294
  960MOL0     H32431   1.689   4.656   5.413 -0.7951  0.1648  1.5511
  960MOL0     H32432   1.455   4.529   5.270  0.1089  0.7323 -1.8164
  960MOL0     H32433   1.441   4.635   5.416  0.7563  5.0929 -0.3480
  960MOL0     H32434   1.592   4.797   5.307  0.3564 -1.1071  0.8482
  960MOL0     H32435   1.576   4.723   5.148 -0.0486 -0.6385 -0.8195
  960MOL0     H32436   1.329   4.785   5.328  0.3150 -0.4685 -0.2643
  960MOL0     H32437   1.395   4.911   5.208 -1.3037  0.1343 -1.9283
  960MOL0     H32438   1.170   4.612   4.992 -0.2027  0.1957 -2.0833
  960MOL0     H32439   0.838   4.583   4.944  0.6876 -2.2870 -0.0992
  960MOL0     H32440   1.000   4.564   4.856  1.0737  0.6505  0.9781
  960MOL0     H32441   0.886   4.670   4.798  1.0831  0.5539 -0.3540
  960MOL0     H32442   0.585   5.072   4.887 -0.5729  0.1819  0.0451
  960MOL0     H32443   0.346   5.068   4.807  1.0436  1.0300 -0.3451
  960MOL0     H32444   0.129   4.715   4.819 -3.8403 -0.1050  1.7752
  960MOL0     H32445   0.018   4.810   4.731 -0.1334 -3.2877  2.0652
  960MOL0     H32446   0.175   4.788   4.517  1.9293 -0.9455 -1.8583
  960MOL0     H32447   0.241   4.649   4.604  0.7760  1.6595  3.0465
  960MOL0     H32448   0.080   4.567   4.447 -1.7774  0.8873 -1.5888
  960MOL0     H32449  -0.037   4.684   4.491  1.7346  1.6624 -0.8709
  960MOL0     H32450  -0.050   4.577   4.732 -0.8403 -1.2541  0.1045
  960MOL0     H32451   0.066   4.462   4.689 -1.4152 -1.4851  1.5743
  960MOL0     H32452  -0.193   4.507   4.534 -0.1381 -0.2761 -0.1275
  960MOL0     H32453  -0.081   4.378   4.502 -0.4621  1.2522 -1.0514
  960MOL0     H32454  -0.261   4.411   4.751  0.4117 -0.1674  0.0558
  960MOL0     H32455  -0.131   4.301   4.751 -0.3215 -0.3525  1.1872
  960MOL0     H32456  -0.241   4.159   4.609  0.8823 -0.3540 -2.1296
  960MOL0     H32457  -0.325   4.279   4.521  2.0432 -0.2502  0.2508
  960MOL0     H32458  -0.389   4.174   4.814 -2.5738 -0.6160  0.1603
  960MOL0     H32459  -0.475   4.125   4.674  1.4276 -0.0155 -1.8716
  960MOL0     H32460   0.356   4.643   4.790  2.4596  0.1010  1.6571
  960MOL0     H32461   0.582   4.649   4.881 -0.0220 -0.0219  0.1180
  960MOL0     H32462   0.977   5.041   5.148 -0.2544  0.8650 -2.2007
  960MOL0     H32463   1.197   4.962   5.231  1.8742  0.9541 -1.2345
  960MOL0     H32464   1.215   3.251   5.457 -3.5706 -1.0317  2.1401
  960MOL0     H32465   0.997   3.213   5.359 -0.2207 -0.4949  2.4586
  960MOL0     H32466   0.612   3.158   5.086  0.2552  0.2606  1.0018
  960MOL0     H32467   0.445   3.193   4.939  1.5963 -0.7577  0.3586
  960MOL0     H32468   0.255   3.617   4.893  1.0599  0.0848 -1.0314
  960MOL0     H32469   0.138   3.516   4.835  0.6077  0.9590 -0.2289
  960MOL0     H32470   0.106   3.588   5.080 -1.1184 -0.2890 -2.3034
  960MOL0     H32471   0.251   3.504   5.131  3.2202  0.6510 -2.5527
  960MOL0     H32472   0.015   3.369   4.997  1.8608 -0.9314  0.0290
  960MOL0     H32473   0.168   3.288   5.049  1.8439  0.5949  1.2210
  960MOL0     H32474  -0.031   3.255   5.218 -4.5526  0.8771  3.4712
  960MOL0     H32475  -0.005   3.434   5.254  2.6133  0.5639 -1.2279
  960MOL0     H32476   0.296   3.210   5.456 -1.5141 -0.4761  0.5004
  960MOL0     H32477   0.456   3.620   4.994 -4.2154 -2.1000 -3.0178
  960MOL0     H32478   0.764   3.638   5.190  1.7615 -1.2882 -1.9195
  960MOL0     H32479   0.717   3.683   5.021 -0.1987  0.8317  0.8785
  960MOL0     H32480   0.608   3.715   5.151  0.8561  0.1142  2.1325
  961MOL0     O32481   2.414   4.621   3.428  0.3448 -0.0065  0.0417
  961MOL0     C32482   2.395   4.504   3.417 -0.0232 -0.0134  0.0487
  961MOL0     O32483   2.471   4.397   3.463  0.1008  0.7313  0.1301
  961MOL0     C32484   2.579   4.420   3.537 -0.3439 -0.4477 -0.1072
  961MOL0     C32485   2.697   4.348   3.500 -0.6459 -0.6000 -0.0732
  961MOL0     C32486   2.813   4.355   3.581  0.0051 -0.6869  0.0441
  961MOL0     C32487   2.821   4.441   3.692  0.3059  0.2122  0.0000
  961MOL0     O32488   2.938   4.448   3.755 -0.3545  0.7019 -0.2189
  961MOL0     C32489   2.993   4.573   3.764 -0.2159 -0.6372  0.2385
  961MOL0     C32490   3.144   4.555   3.764 -0.1858 -0.2254 -0.6220
  961MOL0     C32491   3.214   4.685   3.795  0.5842  0.2740  0.2121
  961MOL0     C32492   3.361   4.685   3.753 -0.7653 -0.0736 -1.4939
  961MOL0     C32493   3.442   4.787   3.839  0.3125 -0.0278  0.1552
  961MOL0     C32494   3.583   4.810   3.783 -0.8930 -0.0893 -0.3124
  961MOL0     C32495   3.638   4.919   3.867 -0.2625  0.1126  0.5473
  961MOL0     C32496   3.789   4.941   3.825 -0.3076  0.4998  0.3292
  961MOL0     N32497   3.905   4.961   3.916 -0.8834 -0.7848 -0.4528
  961MOL0     C32498   3.893   4.963   4.057 -0.2461 -0.0135 -0.2652
  961MOL0     C32499   4.020   5.002   4.101 -0.0593 -0.7306 -0.0175
  961MOL0     C32500   4.069   5.029   4.245 -1.6590 -0.2798  0.1353
  961MOL0     C32501   3.973   4.989   4.363 -0.8875 -0.5460  0.0063
  961MOL0     C32502   4.001   5.069   4.486 -0.0775 -1.1554 -1.2066
  961MOL0     C32503   3.899   5.055   4.606 -0.3378  1.1988  0.5873
  961MOL0     O32504   3.915   4.919   4.668 -0.1377  0.5645 -0.3433
  961MOL0     C32505   4.007   4.881   4.763 -0.8480 -0.4347  1.2387
  961MOL0     C32506   3.989   4.760   4.825  0.3543  0.8819 -0.1635
  961MOL0     C32507   4.078   4.703   4.919  1.1422 -0.8006  0.6008
  961MOL0     C32508   4.025   4.576   4.991 -0.1075 -0.2376  0.1089
  961MOL0     C32509   4.204   4.762   4.944 -0.6098 -0.9158 -0.2237
  961MOL0     C32510   4.303   4.699   5.027  0.4454 -0.7106  0.0768
  961MOL0     O32511   4.273   4.585   5.102 -0.5035 -1.1014  0.2233
  961MOL0     C32512   4.376   4.532   5.180 -0.3936  0.4546 -0.8879
  961MOL0     C32513   4.481   4.460   5.114  0.2856 -0.1078 -0.6213
  961MOL0     C32514   4.589   4.406   5.191  0.5615 -0.1413 -0.8031
  961MOL0     C32515   4.585   4.429   5.335  0.0202  0.8461 -1.1234
  961MOL0     O32516   4.666   4.358   5.428 -0.8732  0.0524 -1.0625
  961MOL0     C32517   4.760   4.265   5.393  0.0310 -0.1446  0.0648
  961MOL0     C32518   4.803   4.200   5.524  0.1418 -0.6765 -0.4412
  961MOL0     C32519   4.918   4.095   5.497  0.2050 -0.0555 -0.1204
  961MOL0     C32520   4.969   4.021   5.629  0.4610  0.4344  0.4921
  961MOL0     C32521   5.101   3.953   5.626  0.0181  0.0764  0.5196
  961MOL0     C32522   5.127   3.874   5.754 -0.0245 -0.4437 -0.2691
  961MOL0     C32523   5.269   3.823   5.756  0.7566 -0.6879  0.8442
  961MOL0     C32524   5.303   3.766   5.903  0.5499 -0.0702  0.5940
  961MOL0    Cl32525   5.205   3.624   5.953  0.4584  0.1430 -0.3635
  961MOL0     C32526   4.483   4.505   5.388 -0.4584 -0.3300 -0.8770
  961MOL0     C32527   4.384   4.564   5.317  1.0435 -0.3057 -0.3453
  961MOL0     O32528   4.411   4.755   5.036 -0.0519 -0.4909  0.1884
  961MOL0     C32529   4.228   4.894   4.882 -0.1765  0.0276  0.7215
  961MOL0     C32530   4.130   4.946   4.792  0.1993 -0.0856 -0.1600
  961MOL0     N32531   4.092   5.024   3.990  0.3353  0.2668  0.2590
  961MOL0     N32532   4.035   4.998   3.880  0.3182 -0.4893  0.3861
  961MOL0     C32533   2.711   4.520   3.726  0.8258  0.0011  0.7021
  961MOL0     C32534   2.594   4.503   3.650  0.3309 -0.0943  0.0455
  961MOL0     C32535   2.281   4.455   3.342 -0.0818 -1.7488  0.3965
  961MOL0     C32536   2.301   4.367   3.237  0.4772 -0.1693 -0.2874
  961MOL0     C32537   2.209   4.336   3.151  0.7174  0.4960  0.1317
  961MOL0     C32538   2.072   4.383   3.164  0.3401  0.7221 -0.0541
  961MOL0     O32539   1.978   4.359   3.066 -0.0632 -0.4697 -0.2391
  961MOL0     C32540   2.008   4.288   2.949 -1.3352 -0.3487 -0.7359
  961MOL0     C32541   1.896   4.301   2.842 -1.1720  0.1866  0.0725
  961MOL0     C32542   1.793   4.193   2.862  0.4692  0.1136 -0.6528
  961MOL0     C32543   1.723   4.179   2.727 -0.0178  0.1701  0.2115
  961MOL0     C32544   1.602   4.097   2.740 -0.3982  0.9386 -0.0798
  961MOL0     C32545   1.501   4.029   2.740 -0.1320  0.7014  0.3692
  961MOL0     C32546   2.045   4.469   3.270 -0.5497 -1.4510  0.8688
  961MOL0     C32547   2.142   4.502   3.368 -0.4233  1.1564  0.4282
  961MOL0     C32548   2.102   4.594   3.474 -0.9166 -0.3497 -0.1650
  961MOL0     H32549   2.699   4.277   3.418 -3.1538 -1.6215  0.6633
  961MOL0     H32550   2.904   4.298   3.561  0.2793 -0.2132 -0.0997
  961MOL0     H32551   2.966   4.618   3.860  1.1341  0.5593  0.1082
  961MOL0     H32552   2.956   4.635   3.681 -1.6760 -2.6501 -0.6979
  961MOL0     H32553   3.184   4.485   3.838  0.3821 -0.2719 -0.9616
  961MOL0     H32554   3.169   4.531   3.660  3.4001 -1.6675  0.4238
  961MOL0     H32555   3.164   4.771   3.749 -0.8593 -1.3652 -1.4582
  961MOL0     H32556   3.212   4.688   3.905 -0.2608  0.0820  0.2071
  961MOL0     H32557   3.412   4.589   3.770  3.2772  2.3175  1.9001
  961MOL0     H32558   3.375   4.708   3.647  0.0444  0.0952 -1.3591
  961MOL0     H32559   3.448   4.766   3.946  0.7538 -0.4398  0.0533
  961MOL0     H32560   3.379   4.876   3.833 -0.6350 -0.4792  2.3230
  961MOL0     H32561   3.636   4.714   3.794 -2.1234 -0.6328  1.1343
  961MOL0     H32562   3.582   4.851   3.682 -0.8836  0.2124 -0.1894
  961MOL0     H32563   3.637   4.893   3.973 -0.8126 -2.2970  0.0056
  961MOL0     H32564   3.590   5.017   3.856  2.7341  1.7108  0.6140
  961MOL0     H32565   3.825   4.855   3.768  0.7065  1.3035 -0.2648
  961MOL0     H32566   3.794   5.034   3.768  1.3183 -0.5487 -1.3523
  961MOL0     H32567   3.807   4.935   4.118  0.4129 -0.0851  0.6594
  961MOL0     H32568   4.087   5.137   4.239  1.3226 -0.6465  0.7747
  961MOL0     H32569   4.166   4.978   4.251 -0.1876  2.2347 -0.7812
  961MOL0     H32570   3.867   4.992   4.333 -0.7180  1.5727 -0.5818
  961MOL0     H32571   3.999   4.885   4.384  1.4797  0.1337  0.6601
  961MOL0     H32572   4.103   5.038   4.509  0.7386  1.0475 -1.5985
  961MOL0     H32573   3.995   5.173   4.454  0.7867 -1.6112 -2.9707
  961MOL0     H32574   3.919   5.137   4.676  1.6740  0.5009  0.8756
  961MOL0     H32575   3.794   5.067   4.577 -0.9365 -0.4304  1.8789
  961MOL0     H32576   3.895   4.710   4.808  1.2754 -0.2814 -2.1865
  961MOL0     H32577   3.925   4.547   4.957  1.0659  0.4726 -4.6929
  961MOL0     H32578   4.015   4.618   5.091 -1.4627 -0.7593  0.2080
  961MOL0     H32579   4.093   4.492   4.972  2.5664  1.7004  0.5708
  961MOL0     H32580   4.477   4.419   5.013  2.6927 -3.8359  0.5670
  961MOL0     H32581   4.666   4.342   5.150 -0.2789 -1.9606  0.3525
  961MOL0     H32582   4.728   4.187   5.323 -0.2926  0.8001 -0.8596
  961MOL0     H32583   4.854   4.308   5.357  0.4861 -0.0914  1.2661
  961MOL0     H32584   4.835   4.265   5.606 -1.4320  0.5651 -0.7761
  961MOL0     H32585   4.716   4.145   5.560 -0.7360  0.1885 -1.1879
  961MOL0     H32586   4.995   4.160   5.454  0.1589  0.9462  1.2436
  961MOL0     H32587   4.884   4.026   5.420 -0.7942 -1.3733  1.4428
  961MOL0     H32588   4.889   3.954   5.660 -1.0975  0.9034 -2.1600
  961MOL0     H32589   4.974   4.089   5.714  0.8227 -1.7408  2.2896
  961MOL0     H32590   5.108   3.895   5.534  2.0871  2.8829 -1.2582
  961MOL0     H32591   5.170   4.037   5.615 -0.2401  0.0589 -1.4854
  961MOL0     H32592   5.055   3.791   5.754 -0.1642 -0.3391 -1.3745
  961MOL0     H32593   5.106   3.935   5.843  2.4573  0.6998 -0.4022
  961MOL0     H32594   5.336   3.905   5.729  0.7776 -1.6647 -2.6145
  961MOL0     H32595   5.278   3.740   5.685  1.0148  0.5518 -0.6250
  961MOL0     H32596   5.284   3.842   5.980 -2.2327  0.9948 -1.0255
  961MOL0     H32597   5.409   3.737   5.903  1.4038  2.2567 -3.7600
  961MOL0     H32598   4.494   4.528   5.494 -1.0524 -2.7286 -0.2377
  961MOL0     H32599   4.298   4.612   5.362  0.7405 -0.5778 -0.6291
  961MOL0     H32600   4.326   4.938   4.895  0.9226 -1.3506 -2.0203
  961MOL0     H32601   4.154   5.038   4.739  1.3298 -0.1435  0.2197
  961MOL0     H32602   2.725   4.586   3.812 -0.8689  0.5393  0.6036
  961MOL0     H32603   2.504   4.555   3.681 -2.0807 -2.3738 -2.5427
  961MOL0     H32604   2.399   4.324   3.222  0.1965 -1.3853  1.1869
  961MOL0     H32605   2.240   4.279   3.064  3.0406  0.7030  0.7441
  961MOL0     H32606   2.095   4.338   2.906 -0.7840 -0.1548  0.5847
  961MOL0     H32607   2.030   4.183   2.969 -1.8366 -0.0588  1.6222
  961MOL0     H32608   1.944   4.286   2.745  0.1179  0.0626  0.7021
  961MOL0     H32609   1.855   4.402   2.834  3.2468  2.1855 -0.3519
  961MOL0     H32610   1.848   4.102   2.887  1.9548  1.2992  0.5708
  961MOL0     H32611   1.722   4.221   2.940  2.0492  3.0037 -0.1260
  961MOL0     H32612   1.791   4.136   2.653 -1.4106 -0.6203 -0.6600
  961MOL0     H32613   1.688   4.278   2.696 -1.6486 -0.6823 -0.8219
  961MOL0     H32614   1.403   3.986   2.744  0.3861 -0.4662  1.0820
  961MOL0     H32615   1.942   4.500   3.282  0.2278  3.3456 -2.3659
  961MOL0     H32616   2.136   4.554   3.570 -5.1806  0.9587  2.1301
  961MOL0     H32617   2.151   4.692   3.475 -0.8556 -0.1595  4.6676
  961MOL0     H32618   1.994   4.607   3.478 -0.9035 -0.5524  1.3772
  962MOL0     O32619   2.437   6.005   4.526  0.3334  0.1695  0.0729
  962MOL0     C32620   2.515   6.007   4.618 -1.3784 -0.1023 -0.5614
  962MOL0     O32621   2.508   5.933   4.742  0.0645 -0.2810  0.0178
  962MOL0     C32622   2.393   5.863   4.747  0.3814 -0.6536  0.1968
  962MOL0     C32623   2.282   5.907   4.815 -0.0753 -0.0778 -0.1528
  962MOL0     C32624   2.165   5.830   4.829 -0.3518  0.9528  0.3667
  962MOL0     C32625   2.158   5.697   4.771 -0.4141 -0.3694 -0.7084
  962MOL0     O32626   2.049   5.614   4.772 -0.1616  0.0686  0.0736
  962MOL0     C32627   1.923   5.667   4.817 -1.4576 -0.6615 -0.1065
  962MOL0     C32628   1.846   5.735   4.703  0.8045 -1.3205  0.8379
  962MOL0     C32629   1.842   5.663   4.565  0.9673  0.0480 -0.8999
  962MOL0     C32630   1.756   5.758   4.472 -0.2440  0.4823 -0.6211
  962MOL0     C32631   1.734   5.688   4.335 -0.1029 -0.1722 -0.7590
  962MOL0     C32632   1.615   5.737   4.260  0.8179 -0.7050  0.0399
  962MOL0     C32633   1.589   5.664   4.124 -0.5627  1.0729  0.4570
  962MOL0     C32634   1.527   5.526   4.153 -0.9015 -0.6944  0.0343
  962MOL0     N32635   1.496   5.449   4.026 -0.2489  0.3078 -0.7957
  962MOL0     C32636   1.582   5.388   3.925  0.7552 -0.8313  0.1592
  962MOL0     C32637   1.487   5.332   3.847 -0.4077  0.3263  0.6015
  962MOL0     C32638   1.506   5.248   3.723  0.8980  0.5389  0.0100
  962MOL0     C32639   1.579   5.116   3.750  0.5521 -0.5222 -0.3515
  962MOL0     C32640   1.722   5.139   3.723  0.4969 -0.3375 -0.2307
  962MOL0     C32641   1.801   5.013   3.776 -0.8438 -0.3017  0.3050
  962MOL0     O32642   1.813   4.897   3.686  0.6331  0.2986  0.3645
  962MOL0     C32643   1.879   4.911   3.573 -0.7578 -0.1129 -0.7704
  962MOL0     C32644   2.016   4.949   3.582  0.2902  0.0994  0.4975
  962MOL0     C32645   2.087   4.975   3.464 -0.2147  0.0586 -0.6667
  962MOL0     C32646   2.237   4.988   3.471 -0.7161 -0.7070 -0.5352
  962MOL0     C32647   2.020   4.969   3.338 -0.5124  0.2246 -0.3051
  962MOL0     C32648   2.084   4.972   3.209 -0.4909 -0.4982  0.1796
  962MOL0     O32649   2.029   4.907   3.111 -0.1873  0.0827  0.8117
  962MOL0     C32650   2.108   4.875   2.998 -0.3346 -0.3342  0.0572
  962MOL0     C32651   2.129   4.966   2.891  0.1147 -0.2781 -0.5387
  962MOL0     C32652   2.214   4.916   2.788  0.4664  0.0140  0.2394
  962MOL0     C32653   2.270   4.786   2.784 -0.2979 -0.1623  0.1688
  962MOL0     O32654   2.351   4.750   2.681 -0.6361 -0.2391  1.0470
  962MOL0     C32655   2.388   4.613   2.667  0.5802 -0.2416 -0.6044
  962MOL0     C32656   2.272   4.536   2.606 -0.6752  0.6903 -0.2856
  962MOL0     C32657   2.206   4.620   2.495 -1.6521 -0.4198  1.4037
  962MOL0     C32658   2.086   4.548   2.439 -0.5801  1.0111 -0.6389
  962MOL0     C32659   2.012   4.640   2.355 -0.5585  0.9382 -0.2345
  962MOL0     C32660   1.867   4.592   2.341  0.2698 -0.0835 -0.4821
  962MOL0     C32661   1.851   4.455   2.279 -0.1896  0.6785  0.5818
  962MOL0     C32662   1.823   4.348   2.386 -0.2234  0.3022 -0.1704
  962MOL0    Cl32663   1.749   4.199   2.316  0.2856 -0.0592  0.3556
  962MOL0     C32664   2.234   4.707   2.887 -0.4175 -0.4329 -0.1305
  962MOL0     C32665   2.169   4.751   2.999  0.2040 -0.4236  0.1893
  962MOL0     O32666   2.188   5.040   3.195  0.2902 -0.2035  0.1138
  962MOL0     C32667   1.885   4.927   3.335 -0.6247  0.1697  1.1362
  962MOL0     C32668   1.809   4.897   3.453 -0.0542 -0.1281 -1.2609
  962MOL0     N32669   1.359   5.346   3.895  0.1125 -0.0245  0.1456
  962MOL0     N32670   1.368   5.413   4.002  0.5768  0.2396  0.5960
  962MOL0     C32671   2.271   5.648   4.710  0.1809  0.0152  0.6305
  962MOL0     C32672   2.384   5.732   4.692  0.0938  1.2580 -0.7267
  962MOL0     C32673   2.640   6.102   4.607  0.5155  0.0917  1.1418
  962MOL0     C32674   2.746   6.070   4.688 -0.3164  0.8435  0.7507
  962MOL0     C32675   2.860   6.141   4.691 -0.0959  0.1365  0.8249
  962MOL0     C32676   2.878   6.251   4.607  0.4741 -0.3609  0.3486
  962MOL0     O32677   3.002   6.311   4.613 -0.1420  0.3488 -0.6598
  962MOL0     C32678   3.024   6.419   4.522 -0.1241  0.2647 -0.0696
  962MOL0     C32679   3.161   6.484   4.516  0.2613  0.4278  0.6110
  962MOL0     C32680   3.264   6.367   4.500  0.7273  0.2974  0.7979
  962MOL0     C32681   3.402   6.399   4.443  0.4636  0.1392 -0.4755
  962MOL0     C32682   3.395   6.455   4.305  0.6992 -0.0213  0.1763
  962MOL0     C32683   3.384   6.498   4.187 -0.1546  0.0700 -0.4827
  962MOL0     C32684   2.771   6.284   4.511 -0.2549  0.0456  0.0502
  962MOL0     C32685   2.648   6.214   4.522  0.3731  0.6862  0.1035
  962MOL0     C32686   2.526   6.253   4.438 -0.4888  0.5195 -0.3178
  962MOL0     H32687   2.297   5.989   4.885  0.2791 -0.7520  0.5661
  962MOL0     H32688   2.074   5.861   4.881 -1.0638 -0.8809  0.2952
  962MOL0     H32689   1.932   5.716   4.915 -0.3019 -0.5236 -0.2622
  962MOL0     H32690   1.864   5.581   4.849 -1.0664  0.0676  2.9630
  962MOL0     H32691   1.751   5.757   4.752  2.1822 -0.0629  3.0719
  962MOL0     H32692   1.895   5.831   4.689  0.6127 -0.9075  2.8171
  962MOL0     H32693   1.946   5.664   4.532  1.1698 -0.0530 -0.2686
  962MOL0     H32694   1.802   5.563   4.579 -1.0381  1.0685  1.4136
  962MOL0     H32695   1.657   5.779   4.513 -0.8912 -1.1115 -1.2838
  962MOL0     H32696   1.816   5.850   4.468 -0.3056  0.6800  1.6699
  962MOL0     H32697   1.727   5.580   4.349 -0.3618  0.0990  1.5645
  962MOL0     H32698   1.827   5.708   4.280  1.7947  1.7139  2.7754
  962MOL0     H32699   1.521   5.724   4.314 -1.0048  1.2775 -2.3788
  962MOL0     H32700   1.636   5.843   4.238 -1.2777 -0.3301 -0.4119
  962MOL0     H32701   1.678   5.666   4.061 -0.0978  1.2696  1.1045
  962MOL0     H32702   1.512   5.722   4.073  0.2268  0.8378 -1.0607
  962MOL0     H32703   1.594   5.473   4.222  0.9779 -1.5979 -2.3258
  962MOL0     H32704   1.440   5.544   4.216  2.0409 -2.6779  5.3923
  962MOL0     H32705   1.688   5.383   3.902  0.6765 -1.5361 -0.1020
  962MOL0     H32706   1.552   5.313   3.648 -0.8649  4.8890  2.3142
  962MOL0     H32707   1.411   5.207   3.688  0.8425 -1.2310  1.9809
  962MOL0     H32708   1.568   5.102   3.858  0.0517  0.4435 -0.2707
  962MOL0     H32709   1.546   5.022   3.703  2.5663 -0.6388 -1.6160
  962MOL0     H32710   1.749   5.151   3.618  1.1994 -0.5079 -0.0803
  962MOL0     H32711   1.760   5.230   3.770 -0.2825  0.3920 -1.0000
  962MOL0     H32712   1.901   5.042   3.810 -0.9866 -0.7247  1.1434
  962MOL0     H32713   1.766   4.977   3.874  0.6739 -0.4332  0.8214
  962MOL0     H32714   2.066   4.960   3.678  1.3737  0.1870 -0.0543
  962MOL0     H32715   2.299   4.938   3.396  0.9663 -1.2303  1.1074
  962MOL0     H32716   2.266   4.954   3.571 -2.7711 -0.9157  0.0222
  962MOL0     H32717   2.254   5.094   3.451 -2.4120 -0.1613  0.6786
  962MOL0     H32718   2.086   5.065   2.895  1.6066  0.3659  0.1715
  962MOL0     H32719   2.244   4.979   2.704  1.8828 -0.0907  0.6397
  962MOL0     H32720   2.469   4.612   2.594  0.3301 -1.2116 -0.8772
  962MOL0     H32721   2.420   4.584   2.767 -0.3179 -0.8989 -0.4944
  962MOL0     H32722   2.301   4.440   2.563  1.4071  1.4794 -0.7660
  962MOL0     H32723   2.202   4.504   2.685 -0.1362 -2.6936 -1.0312
  962MOL0     H32724   2.279   4.636   2.416 -1.5563  2.3219  1.9526
  962MOL0     H32725   2.188   4.722   2.531  2.9449  1.6682 -1.3520
  962MOL0     H32726   2.027   4.504   2.519  3.2844 -0.5578  1.6662
  962MOL0     H32727   2.125   4.465   2.380 -0.1025  0.4920  0.3842
  962MOL0     H32728   1.999   4.731   2.414  1.5355 -0.3279  2.3982
  962MOL0     H32729   2.056   4.648   2.255 -0.6812 -0.7746 -0.4557
  962MOL0     H32730   1.814   4.670   2.286 -1.3432 -0.8328 -0.0680
  962MOL0     H32731   1.818   4.584   2.438 -1.2095  1.4293 -1.0503
  962MOL0     H32732   1.937   4.426   2.217 -0.7767  0.2562 -0.0400
  962MOL0     H32733   1.763   4.466   2.215  1.1479 -1.1675 -1.7395
  962MOL0     H32734   1.753   4.371   2.467 -1.8095 -2.2951 -0.7021
  962MOL0     H32735   1.920   4.325   2.430 -0.5482  0.9059  0.9124
  962MOL0     H32736   2.269   4.604   2.895  0.6247 -0.0039  1.1912
  962MOL0     H32737   2.159   4.676   3.077 -0.9811 -2.4702 -1.7965
  962MOL0     H32738   1.831   4.915   3.242 -0.5142 -4.1294  1.4249
  962MOL0     H32739   1.703   4.873   3.447 -0.1577 -1.0555  2.2045
  962MOL0     H32740   2.287   5.553   4.661  0.2827  0.7881 -0.9120
  962MOL0     H32741   2.460   5.684   4.632  0.2383 -0.2151  0.5646
  962MOL0     H32742   2.750   6.001   4.771 -1.5450  2.6702  2.4164
  962MOL0     H32743   2.939   6.111   4.759 -1.1451  0.6274  2.3139
  962MOL0     H32744   3.021   6.374   4.422  3.7731 -0.6831  0.0566
  962MOL0     H32745   2.947   6.495   4.538  1.2198  1.3564  1.5629
  962MOL0     H32746   3.189   6.530   4.611 -1.4940 -1.3506  2.0659
  962MOL0     H32747   3.164   6.555   4.433 -5.2633  0.0035 -0.3355
  962MOL0     H32748   3.281   6.323   4.598 -1.1339  1.6209  1.7811
  962MOL0     H32749   3.216   6.291   4.438 -1.9469  4.1574 -2.4567
  962MOL0     H32750   3.463   6.308   4.440  0.7071  0.2362 -4.8160
  962MOL0     H32751   3.458   6.470   4.504  1.2328  0.9967 -2.1108
  962MOL0     H32752   3.373   6.535   4.087 -3.0432 -0.9330 -0.6272
  962MOL0     H32753   2.781   6.366   4.440 -0.6524  0.9103  0.9633
  962MOL0     H32754   2.523   6.196   4.345 -0.7996  1.0465 -0.6338
  962MOL0     H32755   2.436   6.249   4.500 -0.4339 -4.2895 -0.2200
  962MOL0     H32756   2.541   6.355   4.402  0.4660  0.3036 -0.5566
  963MOL0     O32757   9.372   2.051   5.690  0.3330  0.8203  0.0838
  963MOL0     C32758   9.300   1.979   5.763  0.4320  0.1850  0.1663
  963MOL0     O32759   9.315   1.848   5.779 -0.2257  0.0820 -0.4972
  963MOL0     C32760   9.435   1.787   5.746 -0.6023 -0.3864 -0.6695
  963MOL0     C32761   9.547   1.831   5.817  0.0163  0.0149 -0.4570
  963MOL0     C32762   9.668   1.769   5.786 -0.4137  0.2174 -0.0386
  963MOL0     C32763   9.685   1.666   5.694 -0.7064 -0.1072  0.8063
  963MOL0     O32764   9.817   1.621   5.689 -0.2657  0.5853  0.3661
  963MOL0     C32765   9.850   1.523   5.594 -0.6953  0.8455 -0.3841
  963MOL0     C32766   9.860   1.572   5.454  0.2361 -0.4562  0.0748
  963MOL0     C32767   9.977   1.668   5.429  1.1810 -0.5004  1.0695
  963MOL0     C32768  10.111   1.595   5.447  1.0475 -0.1676  1.0780
  963MOL0     C32769  10.218   1.622   5.336 -0.5317 -1.1308  0.4896
  963MOL0     C32770  10.231   1.771   5.307  0.3715 -0.1022 -0.0425
  963MOL0     C32771  10.359   1.809   5.238 -0.2807  0.0794 -0.6807
  963MOL0     C32772  10.349   1.819   5.084 -0.9603  0.4818 -0.1430
  963MOL0     N32773  10.297   1.955   5.040  0.2949  0.8091 -0.0789
  963MOL0     C32774  10.355   2.083   5.041  0.0394  1.3026 -0.4313
  963MOL0     C32775  10.254   2.159   4.999  0.0674 -0.6847 -0.4325
  963MOL0     C32776  10.253   2.293   4.941 -1.0040  0.2299 -0.1922
  963MOL0     C32777  10.198   2.413   5.027 -0.0717 -1.0019 -0.3490
  963MOL0     C32778  10.246   2.427   5.174  0.0194  0.5742 -0.6106
  963MOL0     C32779  10.397   2.466   5.184  0.8430 -0.5267 -0.4209
  963MOL0     O32780  10.491   2.384   5.121  0.0133 -0.0963 -0.1502
  963MOL0     C32781  10.609   2.442   5.075  0.2990  0.3156 -0.0429
  963MOL0     C32782  10.688   2.363   4.992 -0.0801  0.6747  0.6600
  963MOL0     C32783  10.820   2.395   4.959  0.5541  0.2050  0.9191
  963MOL0     C32784  10.899   2.295   4.885 -1.0424  0.7067 -0.2730
  963MOL0     C32785  10.855   2.530   4.987  0.1619 -0.3609  1.6899
  963MOL0     C32786  10.986   2.589   4.961 -0.5526 -0.0542 -0.2814
  963MOL0     O32787  11.030   2.687   5.040 -0.6541  0.6958  0.1931
  963MOL0     C32788  11.155   2.743   5.024  0.3487 -0.0713 -0.5482
  963MOL0     C32789  11.272   2.682   4.965 -0.7428 -0.8652 -0.4878
  963MOL0     C32790  11.400   2.728   4.999  0.3995  0.6451  0.0205
  963MOL0     C32791  11.408   2.857   5.061 -0.0984 -0.5611  0.7436
  963MOL0     O32792  11.523   2.916   5.101  0.3142 -0.8736  0.1666
  963MOL0     C32793  11.636   2.891   5.017 -0.3768  0.2532 -0.4569
  963MOL0     C32794  11.767   2.956   5.067 -0.0800 -0.0801 -0.0691
  963MOL0     C32795  11.781   2.902   5.211 -0.3345 -0.6833  0.1476
  963MOL0     C32796  11.917   2.951   5.262 -0.0862  1.0793  0.0382
  963MOL0     C32797  11.937   2.934   5.416 -0.9484  0.8114  0.0984
  963MOL0     C32798  12.067   3.001   5.456 -0.1284  1.0824  0.9650
  963MOL0     C32799  12.073   3.040   5.601  0.9156 -0.3958 -0.8803
  963MOL0     C32800  12.061   2.916   5.701 -0.4673 -0.0365 -0.9974
  963MOL0    Cl32801  12.153   2.945   5.853 -0.1474 -0.1548  0.4100
  963MOL0     C32802  11.293   2.929   5.096 -0.4025 -0.3288  0.3122
  963MOL0     C32803  11.172   2.872   5.086 -0.0294  0.4242 -0.1574
  963MOL0     O32804  11.034   2.554   4.853  0.6893 -0.3796  0.1403
  963MOL0     C32805  10.763   2.618   5.040 -0.7493 -0.0877 -0.2296
  963MOL0     C32806  10.649   2.574   5.094  0.1582  0.6165 -0.5392
  963MOL0     N32807  10.149   2.086   4.971 -0.8585  0.1157 -0.2235
  963MOL0     N32808  10.170   1.960   4.995  0.5401 -0.2906  1.1392
  963MOL0     C32809   9.569   1.620   5.633  0.1591  0.9276  0.9060
  963MOL0     C32810   9.448   1.684   5.655  0.5222  0.3289  0.1488
  963MOL0     C32811   9.185   2.048   5.839 -1.2329  0.5138  0.2006
  963MOL0     C32812   9.077   1.964   5.888 -0.4658 -0.1767 -0.1219
  963MOL0     C32813   8.970   2.019   5.955 -0.2526 -0.2703 -0.4397
  963MOL0     C32814   8.971   2.159   5.967  0.2831 -1.1969  0.1006
  963MOL0     O32815   8.856   2.207   6.016 -0.0830  0.2885  0.4191
  963MOL0     C32816   8.855   2.325   6.088 -0.4493  0.7554 -0.5219
  963MOL0     C32817   8.761   2.297   6.209  0.3833  0.0039  0.8125
  963MOL0     C32818   8.774   2.163   6.281  0.8909 -1.1038  0.2923
  963MOL0     C32819   8.912   2.158   6.349  0.6897 -0.5349  0.6970
  963MOL0     C32820   8.919   2.060   6.458  0.1246  0.5368  0.0363
  963MOL0     C32821   8.907   1.968   6.534 -0.8805  0.1318  0.4712
  963MOL0     C32822   9.069   2.242   5.905  0.2019 -0.0533 -0.9809
  963MOL0     C32823   9.183   2.188   5.848  0.7808  0.5312 -0.1216
  963MOL0     C32824   9.290   2.292   5.811  0.1267  0.2469 -0.0531
  963MOL0     H32825   9.526   1.895   5.902 -1.0881  1.3382 -1.6664
  963MOL0     H32826   9.748   1.792   5.856 -0.9581  1.3229  0.2384
  963MOL0     H32827   9.781   1.438   5.602 -0.8418  1.1013  1.5034
  963MOL0     H32828   9.949   1.487   5.625 -1.8588 -1.1627  1.3282
  963MOL0     H32829   9.874   1.480   5.397 -2.2956 -0.6410 -0.3448
  963MOL0     H32830   9.767   1.621   5.426  1.1903  0.3671 -1.8929
  963MOL0     H32831   9.961   1.706   5.328  2.6231  2.1153  1.7344
  963MOL0     H32832   9.969   1.763   5.484  3.4959  1.3309 -1.4564
  963MOL0     H32833  10.163   1.619   5.539  0.4828 -0.2432  1.4218
  963MOL0     H32834  10.096   1.487   5.461  0.7556 -0.6837 -2.2308
  963MOL0     H32835  10.196   1.575   5.240 -0.5437 -0.1281 -0.0107
  963MOL0     H32836  10.312   1.578   5.371  0.1703  0.8944  1.3408
  963MOL0     H32837  10.143   1.824   5.271  1.3796  1.3237 -0.5072
  963MOL0     H32838  10.244   1.825   5.401  1.2569  2.3820 -1.4918
  963MOL0     H32839  10.439   1.742   5.271 -3.0723 -2.7893  0.7681
  963MOL0     H32840  10.389   1.909   5.271  0.3628 -0.2120 -0.3704
  963MOL0     H32841  10.450   1.818   5.043 -1.3274 -1.1263 -1.0629
  963MOL0     H32842  10.288   1.735   5.050 -0.3846 -0.0319  0.0688
  963MOL0     H32843  10.457   2.108   5.069  0.2494  1.3086 -1.1702
  963MOL0     H32844  10.186   2.287   4.855 -1.8913 -0.6449  0.5384
  963MOL0     H32845  10.357   2.316   4.915 -1.0811  1.8921  0.7924
  963MOL0     H32846  10.204   2.505   4.969  1.7839  0.8013  2.4624
  963MOL0     H32847  10.092   2.394   5.043 -0.3327  2.1671  2.7159
  963MOL0     H32848  10.179   2.496   5.226  0.3732  1.2529 -1.0390
  963MOL0     H32849  10.244   2.328   5.220 -1.3046  1.4517  1.3631
  963MOL0     H32850  10.399   2.572   5.155 -0.4229 -0.5024 -0.4459
  963MOL0     H32851  10.413   2.465   5.293 -0.4772 -0.3346 -0.2167
  963MOL0     H32852  10.646   2.263   4.981 -0.0444  0.6651  0.6093
  963MOL0     H32853  10.892   2.316   4.778  2.0848  5.1779  0.0812
  963MOL0     H32854  10.859   2.195   4.898  1.3303 -0.6986 -2.7529
  963MOL0     H32855  11.004   2.291   4.915 -0.5417  3.2962 -1.3507
  963MOL0     H32856  11.259   2.585   4.917  0.6774 -2.0278  1.3434
  963MOL0     H32857  11.481   2.659   4.977 -0.8372 -0.8925  0.1057
  963MOL0     H32858  11.661   2.785   5.007  0.0699  0.5005 -2.3138
  963MOL0     H32859  11.611   2.933   4.919  3.1493 -0.6121 -1.8679
  963MOL0     H32860  11.852   2.918   5.009  0.9045 -1.9288  2.3951
  963MOL0     H32861  11.766   3.065   5.059  1.8829  0.0693  0.9406
  963MOL0     H32862  11.781   2.793   5.206 -0.3384 -0.7676  1.5784
  963MOL0     H32863  11.694   2.934   5.268 -1.0556  1.8177 -2.1232
  963MOL0     H32864  11.913   3.059   5.244 -1.3471  0.8899 -0.9992
  963MOL0     H32865  11.996   2.907   5.200  0.7280 -1.2773  2.5467
  963MOL0     H32866  11.854   2.981   5.470  0.5411  3.2354  0.4486
  963MOL0     H32867  11.938   2.831   5.452  0.3859  0.2255 -1.4747
  963MOL0     H32868  12.074   3.094   5.399 -0.2098 -0.2624 -1.3119
  963MOL0     H32869  12.158   2.947   5.429  0.8281  2.8958  0.3906
  963MOL0     H32870  11.993   3.111   5.626  1.9095 -0.3254  2.6796
  963MOL0     H32871  12.175   3.078   5.613  1.4741 -1.8382 -0.8496
  963MOL0     H32872  12.090   2.816   5.665 -2.7518 -0.1215 -2.8430
  963MOL0     H32873  11.956   2.911   5.728  0.5143  1.5922  4.3509
  963MOL0     H32874  11.291   3.022   5.151 -1.5927 -0.4399  0.4928
  963MOL0     H32875  11.087   2.917   5.136  0.9562  1.0401  1.0150
  963MOL0     H32876  10.787   2.724   5.030  1.0594 -0.2967  1.3295
  963MOL0     H32877  10.604   2.646   5.162  2.6346 -0.1178  2.0548
  963MOL0     H32878   9.566   1.543   5.557 -1.4237  3.3387 -1.6588
  963MOL0     H32879   9.366   1.638   5.600  3.3966 -3.1723 -1.6551
  963MOL0     H32880   9.074   1.858   5.867 -1.5234  0.3648 -3.1843
  963MOL0     H32881   8.880   1.976   5.997  1.0118 -0.7271  1.9356
  963MOL0     H32882   8.958   2.350   6.115 -1.0410 -0.1924  3.1083
  963MOL0     H32883   8.826   2.412   6.028  2.1816  2.7137  0.8426
  963MOL0     H32884   8.657   2.328   6.194  0.1172 -1.3060 -0.2573
  963MOL0     H32885   8.797   2.379   6.272  2.2764 -0.2001  0.0556
  963MOL0     H32886   8.690   2.165   6.351  1.7322  1.8753  1.4004
  963MOL0     H32887   8.749   2.081   6.214 -1.2559 -0.8687  0.7197
  963MOL0     H32888   8.927   2.257   6.395 -4.1043  2.4617 -3.2221
  963MOL0     H32889   8.989   2.145   6.272  0.8336  3.7340 -0.1373
  963MOL0     H32890   8.890   1.890   6.604 -1.4248  0.5315  0.7945
  963MOL0     H32891   9.047   2.348   5.905  0.5848  0.1590  2.7737
  963MOL0     H32892   9.269   2.323   5.708  2.9683 -0.2034 -0.8479
  963MOL0     H32893   9.285   2.378   5.879 -0.9857  0.3782 -0.2784
  963MOL0     H32894   9.391   2.251   5.813  0.0233 -0.0189 -0.1537
  964MOL0     O32895  10.072  11.473   8.582 -0.3390 -0.1382 -0.0394
  964MOL0     C32896  10.089  11.546   8.489 -0.7517 -0.2596 -0.3537
  964MOL0     O32897  10.016  11.552   8.372 -0.7329  0.7021  0.5084
  964MOL0     C32898   9.928  11.447   8.341  0.4143 -0.6819  0.6361
  964MOL0     C32899   9.842  11.396   8.434  0.1222  0.3584  0.7500
  964MOL0     C32900   9.728  11.315   8.387 -0.1033  0.1313 -0.5875
  964MOL0     C32901   9.725  11.267   8.259  0.0430 -0.2738  0.3304
  964MOL0     O32902   9.638  11.173   8.213  0.4491 -0.4262  0.0633
  964MOL0     C32903   9.599  11.085   8.318 -0.5587 -1.2920 -0.5611
  964MOL0     C32904   9.492  10.988   8.270 -0.3033 -0.2525 -0.1755
  964MOL0     C32905   9.448  10.889   8.379 -0.2023  0.0987 -0.5656
  964MOL0     C32906   9.558  10.781   8.391 -0.3636 -0.2081 -0.2240
  964MOL0     C32907   9.554  10.717   8.535 -0.4723 -1.5307  0.3008
  964MOL0     C32908   9.692  10.668   8.579 -0.6556  0.2493 -0.9411
  964MOL0     C32909   9.749  10.555   8.480  0.0685 -0.7172 -1.2576
  964MOL0     C32910   9.838  10.452   8.552 -0.0472 -0.3895  0.0094
  964MOL0     N32911   9.960  10.504   8.607 -1.0447 -0.0733 -0.3929
  964MOL0     C32912  10.084  10.463   8.560 -0.1568 -0.1126  0.1452
  964MOL0     C32913  10.178  10.520   8.635 -0.0022  0.3136  0.1393
  964MOL0     C32914  10.323  10.483   8.638  0.0827  0.0371  0.4553
  964MOL0     C32915  10.335  10.343   8.697  0.1743  0.2504 -0.2231
  964MOL0     C32916  10.476  10.292   8.725  0.6137 -0.2143 -0.0687
  964MOL0     C32917  10.579  10.298   8.606  0.7036 -0.1292  0.6623
  964MOL0     O32918  10.701  10.232   8.645 -0.0145 -0.0681 -0.2297
  964MOL0     C32919  10.817  10.248   8.567 -0.2691 -0.4497  0.3879
  964MOL0     C32920  10.841  10.356   8.482  0.0053 -0.0196  0.9692
  964MOL0     C32921  10.957  10.370   8.402 -0.9747  0.3172  0.5012
  964MOL0     C32922  10.964  10.496   8.315  0.4875  1.2196  0.1780
  964MOL0     C32923  11.061  10.267   8.404  0.5871 -0.2205  0.3651
  964MOL0     C32924  11.178  10.276   8.317  0.0893 -1.4232 -0.3947
  964MOL0     O32925  11.231  10.402   8.279 -0.2948  1.2567  0.8289
  964MOL0     C32926  11.298  10.407   8.164 -0.9989 -0.3529  0.2260
  964MOL0     C32927  11.398  10.316   8.115  0.1284 -0.3327 -0.2098
  964MOL0     C32928  11.468  10.339   7.996  0.3438 -0.3633 -0.3513
  964MOL0     C32929  11.421  10.444   7.916 -0.1679  1.0090 -0.3583
  964MOL0     O32930  11.489  10.449   7.793 -0.9126  0.2959 -0.2411
  964MOL0     C32931  11.445  10.553   7.705  0.0900 -0.5777 -0.3025
  964MOL0     C32932  11.516  10.550   7.566  0.0958 -0.3736 -0.1055
  964MOL0     C32933  11.659  10.590   7.585 -0.4518  0.3726  0.3429
  964MOL0     C32934  11.735  10.584   7.458 -0.8865  0.4217  0.7530
  964MOL0     C32935  11.881  10.614   7.513  0.8044 -0.8590  0.4677
  964MOL0     C32936  11.981  10.590   7.400 -0.2947  0.1155  0.1823
  964MOL0     C32937  12.113  10.677   7.417 -0.4042  0.1957  0.4721
  964MOL0     C32938  12.225  10.633   7.329  0.9130  0.0256  0.2016
  964MOL0    Cl32939  12.162  10.669   7.160  0.3807 -0.4612  0.5964
  964MOL0     C32940  11.326  10.538   7.959 -0.5716  0.1530  0.2211
  964MOL0     C32941  11.272  10.518   8.081  0.2642  0.4305 -0.2111
  964MOL0     O32942  11.216  10.169   8.281 -0.4036 -0.7429  0.2511
  964MOL0     C32943  11.031  10.153   8.488  0.7114 -0.6136  0.9190
  964MOL0     C32944  10.914  10.146   8.566 -0.4392  0.1721 -0.1069
  964MOL0     N32945  10.113  10.611   8.707  1.1746  0.5926  0.7818
  964MOL0     N32946   9.984  10.609   8.705 -0.5637  0.8175  0.0439
  964MOL0     C32947   9.826  11.321   8.172  0.7485 -0.4330 -0.5860
  964MOL0     C32948   9.918  11.408   8.208 -0.4881  0.6020  0.2532
  964MOL0     C32949  10.176  11.663   8.513 -0.4485 -0.3797  0.5925
  964MOL0     C32950  10.276  11.685   8.429  0.1275 -0.5834 -0.1827
  964MOL0     C32951  10.369  11.791   8.429 -0.2576  0.3831  0.2003
  964MOL0     C32952  10.372  11.881   8.540 -0.8100  0.1094  0.8909
  964MOL0     O32953  10.454  11.993   8.539 -0.3158  0.8256 -0.2836
  964MOL0     C32954  10.580  11.999   8.463  0.3391 -0.5206  0.4883
  964MOL0     C32955  10.685  11.901   8.522 -0.0664 -0.6898  1.1964
  964MOL0     C32956  10.829  11.924   8.475 -1.1195  0.6150  0.2461
  964MOL0     C32957  10.886  12.049   8.539  0.0190  0.5725  0.2659
  964MOL0     C32958  11.009  12.087   8.491  0.0433 -0.5106  0.5944
  964MOL0     C32959  11.119  12.117   8.440  0.1322 -0.0718 -0.6550
  964MOL0     C32960  10.271  11.858   8.634 -0.9155  0.5162  0.3012
  964MOL0     C32961  10.173  11.757   8.621  0.1807 -0.4301 -0.2023
  964MOL0     C32962  10.058  11.768   8.723  0.2696  0.3804  0.8210
  964MOL0     H32963   9.840  11.435   8.535  1.0197 -0.2431  1.0179
  964MOL0     H32964   9.648  11.300   8.459  0.1948 -0.0971 -0.3006
  964MOL0     H32965   9.558  11.130   8.409  2.0907 -0.4707  0.2958
  964MOL0     H32966   9.688  11.024   8.338  1.1191  0.4379 -2.3822
  964MOL0     H32967   9.413  11.043   8.220  1.8470  0.3932 -3.1358
  964MOL0     H32968   9.541  10.928   8.192  0.3353 -1.4393  1.0837
  964MOL0     H32969   9.427  10.932   8.477 -2.3371 -2.0698  0.0513
  964MOL0     H32970   9.352  10.845   8.348 -1.0227  1.0466  0.5032
  964MOL0     H32971   9.556  10.695   8.324  1.1718 -1.1106  0.8326
  964MOL0     H32972   9.656  10.824   8.372  0.6241 -2.4137 -0.3938
  964MOL0     H32973   9.478  10.640   8.548 -2.4162  0.1686 -0.4373
  964MOL0     H32974   9.528  10.798   8.603 -1.9298 -0.0373 -1.8890
  964MOL0     H32975   9.759  10.753   8.591 -1.5258  0.5920  2.6064
  964MOL0     H32976   9.682  10.638   8.684 -3.1457  0.5875 -1.0363
  964MOL0     H32977   9.801  10.607   8.399 -1.1989  1.2942 -0.8341
  964MOL0     H32978   9.674  10.496   8.426  1.7845 -1.7452 -2.6189
  964MOL0     H32979   9.786  10.398   8.633  0.0870 -1.7455 -0.7786
  964MOL0     H32980   9.861  10.378   8.475 -1.6100 -0.3947 -0.4879
  964MOL0     H32981  10.092  10.378   8.493 -1.0799  0.2959 -0.5002
  964MOL0     H32982  10.361  10.559   8.708  1.8074 -0.0221 -0.3686
  964MOL0     H32983  10.367  10.474   8.539 -2.8370  1.2263 -1.0824
  964MOL0     H32984  10.279  10.344   8.791  0.5466 -1.4312  0.0499
  964MOL0     H32985  10.272  10.269   8.647  1.0023 -1.4476  1.1441
  964MOL0     H32986  10.512  10.348   8.811 -1.3170  0.6824  0.2305
  964MOL0     H32987  10.466  10.194   8.771 -2.9403  0.7258  1.5503
  964MOL0     H32988  10.533  10.244   8.522  0.8657 -1.1670  1.2271
  964MOL0     H32989  10.594  10.403   8.579  1.0496  0.2874  2.3648
  964MOL0     H32990  10.767  10.436   8.485 -1.8623 -1.6256  0.0907
  964MOL0     H32991  10.897  10.570   8.359  0.5263  1.5538 -0.3252
  964MOL0     H32992  10.948  10.471   8.210 -0.7645 -1.1727  0.8520
  964MOL0     H32993  11.061  10.547   8.316  0.8216  0.6127 -0.5431
  964MOL0     H32994  11.408  10.219   8.162 -1.8016 -0.3477  0.2595
  964MOL0     H32995  11.541  10.265   7.966 -2.1945 -3.5343  0.7431
  964MOL0     H32996  11.338  10.530   7.693  0.0228 -2.1991  2.6104
  964MOL0     H32997  11.462  10.651   7.750  0.0926 -0.6560 -0.1306
  964MOL0     H32998  11.508  10.451   7.522  1.3739 -0.4494 -0.1940
  964MOL0     H32999  11.469  10.622   7.498  0.8900  1.7950  1.5178
  964MOL0     H33000  11.705  10.525   7.659 -0.0605 -0.5395 -0.6849
  964MOL0     H33001  11.664  10.694   7.619  1.1978  0.6066 -0.5267
  964MOL0     H33002  11.709  10.665   7.390 -0.7939 -1.0862 -1.1665
  964MOL0     H33003  11.729  10.487   7.407 -0.3580  0.9451 -0.3464
  964MOL0     H33004  11.885  10.717   7.549  0.2993  0.4793 -2.9568
  964MOL0     H33005  11.903  10.536   7.587  2.5140 -1.4347 -0.6099
  964MOL0     H33006  11.943  10.614   7.300 -0.1191  3.6374  0.8431
  964MOL0     H33007  12.008  10.484   7.398  3.3259  0.8699  1.7752
  964MOL0     H33008  12.154  10.671   7.518 -0.5926  3.8517  0.9063
  964MOL0     H33009  12.100  10.780   7.382 -0.6364  0.2413  0.6915
  964MOL0     H33010  12.252  10.527   7.334 -1.4575 -0.6964 -0.5083
  964MOL0     H33011  12.303  10.708   7.341  0.5747  0.4454 -0.1635
  964MOL0     H33012  11.280  10.617   7.900  0.1987 -0.4192 -1.1880
  964MOL0     H33013  11.197  10.590   8.111 -0.7453 -0.2143 -1.1358
  964MOL0     H33014  11.106  10.073   8.488 -2.2893 -3.7411  3.4112
  964MOL0     H33015  10.909  10.059   8.630 -1.3790 -1.5040 -2.2989
  964MOL0     H33016   9.829  11.295   8.066  1.9924 -0.1153 -0.6542
  964MOL0     H33017   9.989  11.445   8.135  1.2004 -1.7670  0.5616
  964MOL0     H33018  10.271  11.636   8.332 -1.4021  1.7874 -1.4156
  964MOL0     H33019  10.428  11.807   8.340 -4.2659 -1.7045 -3.1777
  964MOL0     H33020  10.559  11.977   8.357  1.2743 -0.2272  0.2326
  964MOL0     H33021  10.618  12.101   8.476 -1.1307 -0.2476  3.3273
  964MOL0     H33022  10.663  11.805   8.475  0.9697  1.5057 -4.7271
  964MOL0     H33023  10.678  11.884   8.630  0.8634 -0.7579  1.2525
  964MOL0     H33024  10.875  11.830   8.506 -2.0091 -0.4890 -1.6308
  964MOL0     H33025  10.839  11.934   8.367  3.1228  3.1960  0.6396
  964MOL0     H33026  10.886  12.023   8.646 -0.9640  1.7671  0.5851
  964MOL0     H33027  10.828  12.138   8.515  2.7737  2.4221 -0.0634
  964MOL0     H33028  11.217  12.134   8.402  0.3908 -0.8849 -0.3729
  964MOL0     H33029  10.283  11.906   8.731  1.8793  0.3115  0.1458
  964MOL0     H33030  10.047  11.862   8.777  0.7463  0.9063  0.0273
  964MOL0     H33031   9.967  11.751   8.663 -0.6863  2.6213  1.5247
  964MOL0     H33032  10.072  11.690   8.798 -0.4405 -1.6833 -1.0688
  965MOL0     O33033  10.877   7.428   6.044  0.9072  0.8814 -0.0177
  965MOL0     C33034  10.807   7.328   6.065  0.0796  1.6196  0.8319
  965MOL0     O33035  10.738   7.256   5.969 -0.1186  0.2807 -0.6146
  965MOL0     C33036  10.766   7.290   5.844 -0.3661 -0.0592  0.6078
  965MOL0     C33037  10.749   7.424   5.804  0.8132  0.6041 -0.3341
  965MOL0     C33038  10.744   7.465   5.669 -0.7079  1.1251 -0.5276
  965MOL0     C33039  10.774   7.368   5.575 -0.4889 -0.0924  0.4951
  965MOL0     O33040  10.801   7.391   5.441 -0.1060  0.3500 -0.8063
  965MOL0     C33041  10.686   7.434   5.369 -0.1339  1.2911 -1.3318
  965MOL0     C33042  10.729   7.511   5.247  0.0623  0.1158  0.1679
  965MOL0     C33043  10.615   7.531   5.148 -0.9357 -0.0433  0.6912
  965MOL0     C33044  10.642   7.632   5.035 -0.7903  0.5967 -0.2209
  965MOL0     C33045  10.536   7.678   4.943 -0.2983  0.1570  0.1047
  965MOL0     C33046  10.422   7.735   5.016 -0.0705  0.3392 -0.1290
  965MOL0     C33047  10.329   7.800   4.906  0.1521 -0.1610 -0.4005
  965MOL0     C33048  10.296   7.944   4.930 -1.0190 -0.2435 -0.2795
  965MOL0     N33049  10.415   8.020   4.920  0.4842  0.4830 -0.3837
  965MOL0     C33050  10.481   8.062   5.028 -1.1790 -0.2195 -0.4554
  965MOL0     C33051  10.586   8.131   4.982 -1.1358  0.5504  0.9593
  965MOL0     C33052  10.678   8.209   5.059 -0.8001 -0.6435  0.2416
  965MOL0     C33053  10.791   8.110   5.112 -0.7463 -0.3738  0.4855
  965MOL0     C33054  10.915   8.188   5.164  0.5353  0.1772 -0.1303
  965MOL0     C33055  11.034   8.089   5.190  0.2301 -0.3453 -0.7206
  965MOL0     O33056  11.069   8.038   5.058  1.1639  0.1863 -0.0802
  965MOL0     C33057  11.200   7.976   5.040 -0.4420  0.3791 -0.7903
  965MOL0     C33058  11.296   7.957   5.144 -0.3217  1.0738  0.6990
  965MOL0     C33059  11.424   7.898   5.120  0.3235 -0.4015  0.6283
  965MOL0     C33060  11.498   7.849   5.241  0.2663 -0.8142 -0.3710
  965MOL0     C33061  11.454   7.854   4.986  1.2047 -0.7378  0.7455
  965MOL0     C33062  11.577   7.788   4.956  0.3108 -0.5127 -1.2579
  965MOL0     O33063  11.558   7.686   4.869 -0.7857 -0.7035 -0.0098
  965MOL0     C33064  11.665   7.623   4.821  0.1613 -0.3175  0.4192
  965MOL0     C33065  11.766   7.564   4.903  0.5814 -0.7779  0.2949
  965MOL0     C33066  11.873   7.511   4.842 -0.3960  0.2426  0.1653
  965MOL0     C33067  11.891   7.506   4.703  0.0197  0.0317 -0.3741
  965MOL0     O33068  12.000   7.459   4.627 -0.2408 -0.1379 -0.2934
  965MOL0     C33069  12.135   7.480   4.681  0.9421  0.0359  0.4215
  965MOL0     C33070  12.222   7.551   4.580 -0.1836  0.2146 -0.2886
  965MOL0     C33071  12.161   7.669   4.506 -0.4053  0.2289 -0.0844
  965MOL0     C33072  12.097   7.774   4.601 -0.6264  1.2694  0.8573
  965MOL0     C33073  11.987   7.862   4.527 -0.0786 -0.5965  0.2990
  965MOL0     C33074  11.902   7.924   4.644  0.2205  0.9204  0.0440
  965MOL0     C33075  11.773   7.995   4.613 -0.6326  0.4282 -0.5578
  965MOL0     C33076  11.728   8.092   4.733 -0.2767 -0.2283  0.8043
  965MOL0    Cl33077  11.562   8.177   4.697  0.1320  0.2378  0.4670
  965MOL0     C33078  11.785   7.554   4.627  0.4123 -0.1074  0.1655
  965MOL0     C33079  11.671   7.612   4.678  0.0776 -0.0481  1.1371
  965MOL0     O33080  11.685   7.838   4.990  0.1535  0.1874  0.2211
  965MOL0     C33081  11.357   7.869   4.881 -0.1431  0.6175  0.0516
  965MOL0     C33082  11.240   7.933   4.910  0.7305 -0.9422  0.4524
  965MOL0     N33083  10.588   8.119   4.841  0.2063  0.3049 -0.4069
  965MOL0     N33084  10.481   8.062   4.807  0.8784  0.7529  0.8873
  965MOL0     C33085  10.797   7.231   5.609 -0.4839  0.1556  0.1762
  965MOL0     C33086  10.797   7.194   5.746  0.0807  0.6078 -0.2622
  965MOL0     C33087  10.808   7.275   6.199  0.0078  0.0683  0.7973
  965MOL0     C33088  10.827   7.138   6.217  0.0922  0.0500  1.1971
  965MOL0     C33089  10.830   7.084   6.346  0.2041  0.0099  0.0843
  965MOL0     C33090  10.824   7.165   6.458  0.2765 -0.5439 -0.3213
  965MOL0     O33091  10.791   7.120   6.584 -0.9428  0.4316 -0.0454
  965MOL0     C33092  10.655   7.078   6.607  0.5069  0.9752  0.7460
  965MOL0     C33093  10.596   7.106   6.735 -0.5449  0.0849 -1.4433
  965MOL0     C33094  10.666   7.025   6.857  0.5804  0.0199  0.3391
  965MOL0     C33095  10.606   7.076   6.990 -0.0340  0.3187 -0.1505
  965MOL0     C33096  10.693   7.014   7.091  0.5333 -0.6016 -0.3094
  965MOL0     C33097  10.769   6.967   7.168 -0.0725 -0.3820  0.3535
  965MOL0     C33098  10.832   7.302   6.442  0.3535 -0.8298 -0.0311
  965MOL0     C33099  10.814   7.354   6.315 -0.2574 -0.7346  0.6771
  965MOL0     C33100  10.790   7.504   6.319 -0.0078 -0.3647 -0.3085
  965MOL0     H33101  10.732   7.499   5.880  2.3100  2.2828 -1.6054
  965MOL0     H33102  10.750   7.570   5.639  1.7032  0.8154 -1.3302
  965MOL0     H33103  10.622   7.493   5.434 -0.0841  0.4281 -0.4584
  965MOL0     H33104  10.642   7.342   5.330  1.7940 -0.7611  0.9427
  965MOL0     H33105  10.758   7.607   5.291  0.2311 -0.5036  1.4460
  965MOL0     H33106  10.807   7.457   5.193 -0.7523  1.0601 -2.0808
  965MOL0     H33107  10.595   7.430   5.111  0.6180  0.5888 -2.1713
  965MOL0     H33108  10.533   7.576   5.204  0.9384  3.5342  0.8385
  965MOL0     H33109  10.665   7.722   5.092  0.1825  1.4352 -1.8651
  965MOL0     H33110  10.735   7.611   4.982 -0.5775 -0.4403  0.5231
  965MOL0     H33111  10.497   7.596   4.881 -2.4618 -0.3202  1.9501
  965MOL0     H33112  10.582   7.745   4.870 -1.2191 -1.1883 -1.8126
  965MOL0     H33113  10.366   7.655   5.065 -3.2509  2.2461 -0.3037
  965MOL0     H33114  10.454   7.807   5.091  1.0224 -0.0238 -0.2349
  965MOL0     H33115  10.233   7.748   4.911  0.2595 -0.2729  3.3988
  965MOL0     H33116  10.367   7.784   4.805  2.0447 -0.0045  0.2603
  965MOL0     H33117  10.220   7.968   4.855 -0.3873 -1.2513 -1.2718
  965MOL0     H33118  10.249   7.955   5.028 -2.4830  0.7446 -1.0518
  965MOL0     H33119  10.453   8.056   5.133 -2.9010  3.9111 -0.5063
  965MOL0     H33120  10.638   8.265   5.145  0.0552  1.7865 -0.8397
  965MOL0     H33121  10.723   8.282   4.991  0.8467 -0.7395  1.1555
  965MOL0     H33122  10.746   8.036   5.179  0.8513 -0.0595  1.9769
  965MOL0     H33123  10.823   8.052   5.025  0.7925  0.7828  0.2306
  965MOL0     H33124  10.951   8.251   5.083 -2.3185  2.8074  0.4518
  965MOL0     H33125  10.886   8.251   5.249 -0.8724 -0.6620  0.0464
  965MOL0     H33126  11.117   8.134   5.244  0.5404 -2.0973  0.3302
  965MOL0     H33127  10.998   8.003   5.246  0.4941  0.9546  1.5470
  965MOL0     H33128  11.275   7.986   5.246  0.5738  0.7854  0.9793
  965MOL0     H33129  11.448   7.850   5.338 -0.8803  1.6612 -0.8868
  965MOL0     H33130  11.592   7.904   5.253  0.4381 -1.5491  1.9826
  965MOL0     H33131  11.532   7.748   5.216  1.0027 -0.0409 -2.7304
  965MOL0     H33132  11.750   7.559   5.010 -1.9128 -0.6515 -0.0148
  965MOL0     H33133  11.950   7.455   4.895  2.4050  0.6183 -3.1669
  965MOL0     H33134  12.134   7.550   4.765  0.5498  3.1457 -2.0012
  965MOL0     H33135  12.181   7.385   4.711 -4.3770 -3.7204 -1.8531
  965MOL0     H33136  12.304   7.595   4.638 -0.2832 -2.0255  1.6916
  965MOL0     H33137  12.257   7.482   4.503  1.3524 -1.0192  1.4105
  965MOL0     H33138  12.079   7.632   4.444  0.5539 -1.8288 -0.1704
  965MOL0     H33139  12.230   7.718   4.437 -1.0202 -0.3613 -1.1378
  965MOL0     H33140  12.178   7.836   4.640  0.4565  0.7333 -0.4999
  965MOL0     H33141  12.048   7.720   4.683 -0.5192 -3.6618 -1.9342
  965MOL0     H33142  12.035   7.947   4.477 -1.9387  1.3264  1.5648
  965MOL0     H33143  11.934   7.793   4.461  0.1161 -2.8687  2.3879
  965MOL0     H33144  11.971   7.989   4.699 -1.6673 -0.1060  4.0421
  965MOL0     H33145  11.881   7.836   4.706 -0.2609  0.4375 -0.7954
  965MOL0     H33146  11.704   7.911   4.598  1.8625 -1.4746 -2.2475
  965MOL0     H33147  11.779   8.052   4.520 -3.7276  3.8665  1.1124
  965MOL0     H33148  11.805   8.166   4.756 -1.5171  0.3795  3.3522
  965MOL0     H33149  11.719   8.037   4.827 -1.2070  0.7388  1.3070
  965MOL0     H33150  11.791   7.541   4.520 -1.5017 -0.3345  0.0494
  965MOL0     H33151  11.593   7.645   4.611 -0.2520 -1.4226  0.8255
  965MOL0     H33152  11.379   7.848   4.777 -1.0600 -1.9392  0.2973
  965MOL0     H33153  11.165   7.953   4.834  1.4888  0.6781  0.0989
  965MOL0     H33154  10.823   7.162   5.529 -1.4460 -2.6699  2.1683
  965MOL0     H33155  10.798   7.093   5.785  0.8946  1.1738  1.2462
  965MOL0     H33156  10.833   7.070   6.133  3.7269 -0.0704  1.3998
  965MOL0     H33157  10.835   6.976   6.358 -0.7564 -0.2268 -1.3995
  965MOL0     H33158  10.586   7.126   6.537  0.0543  1.3686  1.4489
  965MOL0     H33159  10.657   6.972   6.583  0.0426  1.4673 -1.7473
  965MOL0     H33160  10.490   7.079   6.734 -0.5658 -0.8135  3.2069
  965MOL0     H33161  10.619   7.212   6.751  2.6910 -0.8247  1.0579
  965MOL0     H33162  10.647   6.920   6.835  0.1041  0.3784 -1.1083
  965MOL0     H33163  10.773   7.047   6.846  1.0206 -2.7104 -1.6996
  965MOL0     H33164  10.506   7.035   7.008 -1.0686  3.2823  1.5078
  965MOL0     H33165  10.604   7.184   7.007  0.7766  0.3725 -0.3225
  965MOL0     H33166  10.833   6.934   7.246  2.6504  0.3466 -1.4284
  965MOL0     H33167  10.835   7.368   6.529 -1.3490 -2.7489  1.5823
  965MOL0     H33168  10.790   7.545   6.420  2.5778  0.4942 -0.5862
  965MOL0     H33169  10.873   7.559   6.272  0.1985 -1.0689 -0.7963
  965MOL0     H33170  10.694   7.529   6.273  0.0128  1.4977  0.5555
  966MOL0     O33171   7.792   8.488   9.001  1.1825 -0.6017 -0.1205
  966MOL0     C33172   7.684   8.424   8.999  0.5975 -0.1570  0.5268
  966MOL0     O33173   7.660   8.303   8.934  0.0133 -0.1154 -0.5809
  966MOL0     C33174   7.771   8.235   8.900  0.2885  0.5137  0.3070
  966MOL0     C33175   7.802   8.118   8.971 -0.9349  0.4516 -0.0184
  966MOL0     C33176   7.914   8.040   8.953 -0.1247 -0.2138  0.4020
  966MOL0     C33177   8.005   8.086   8.856  0.0103  0.2290  0.2040
  966MOL0     O33178   8.117   8.007   8.835 -0.5780  0.2495 -0.4077
  966MOL0     C33179   8.217   8.076   8.754  0.4585 -0.0246 -0.5054
  966MOL0     C33180   8.347   7.999   8.789  0.4606  0.3898  0.3499
  966MOL0     C33181   8.332   7.852   8.752 -0.0124  0.7238  0.0626
  966MOL0     C33182   8.467   7.774   8.738  0.0682 -0.3398 -0.4245
  966MOL0     C33183   8.545   7.813   8.616  0.1191  0.8129  0.7090
  966MOL0     C33184   8.630   7.694   8.563 -0.3504  0.1125  0.3311
  966MOL0     C33185   8.750   7.674   8.666 -0.7581  0.4165 -0.2922
  966MOL0     C33186   8.760   7.531   8.738 -0.2672 -0.3083  0.5177
  966MOL0     N33187   8.658   7.506   8.846 -0.1828 -0.2401  0.2178
  966MOL0     C33188   8.666   7.550   8.974 -0.3194  0.5010 -0.2578
  966MOL0     C33189   8.554   7.500   9.031 -0.4303  0.1203 -1.7070
  966MOL0     C33190   8.497   7.530   9.175  0.3172  0.2041  0.8683
  966MOL0     C33191   8.429   7.662   9.179 -0.7226  0.2996 -0.3315
  966MOL0     C33192   8.293   7.653   9.119 -0.3610 -0.1309  0.3100
  966MOL0     C33193   8.206   7.770   9.135 -0.6305 -0.3593 -0.4473
  966MOL0     O33194   8.166   7.787   9.272  0.2843  0.4486  0.4169
  966MOL0     C33195   8.117   7.907   9.314 -0.2481  1.0858 -0.1546
  966MOL0     C33196   8.105   8.027   9.247  0.1468  0.5862 -0.4935
  966MOL0     C33197   8.071   8.147   9.314  0.7363  0.3015 -0.3130
  966MOL0     C33198   8.063   8.272   9.232  0.5358  0.8078  0.1313
  966MOL0     C33199   8.047   8.139   9.456  0.1901  0.0551  0.1485
  966MOL0     C33200   8.014   8.256   9.544 -0.9020  0.6204 -0.2584
  966MOL0     O33201   8.078   8.372   9.517  0.0697  0.6641  0.5700
  966MOL0     C33202   8.029   8.484   9.573  0.0405  0.6495 -0.0357
  966MOL0     C33203   7.949   8.568   9.500 -0.2329  0.6570  0.4136
  966MOL0     C33204   7.913   8.693   9.545 -0.1762 -0.1480 -0.2137
  966MOL0     C33205   7.978   8.741   9.663  0.9994  0.9155 -0.0233
  966MOL0     O33206   7.964   8.869   9.712 -0.0006  0.3378  0.3690
  966MOL0     C33207   7.940   8.973   9.621 -0.6846  0.5484  0.7527
  966MOL0     C33208   7.893   9.099   9.683  0.4050 -0.1988  0.4208
  966MOL0     C33209   7.767   9.152   9.601  0.7581 -0.5542  0.4487
  966MOL0     C33210   7.812   9.260   9.496  0.2806  0.5011 -0.8316
  966MOL0     C33211   7.709   9.364   9.457 -0.3507 -0.4703 -1.2792
  966MOL0     C33212   7.610   9.304   9.363 -1.2153 -0.2304  0.7715
  966MOL0     C33213   7.491   9.392   9.332  0.7890 -0.4526  1.1617
  966MOL0     C33214   7.368   9.353   9.412 -0.8141 -0.8810  0.7214
  966MOL0    Cl33215   7.323   9.184   9.385  0.6133 -0.0877 -0.1312
  966MOL0     C33216   8.051   8.649   9.743 -0.1566  0.2872  0.7889
  966MOL0     C33217   8.085   8.524   9.687  0.4845 -0.5848  0.1617
  966MOL0     O33218   7.927   8.241   9.630 -0.3315  0.8825  0.4076
  966MOL0     C33219   8.045   8.011   9.515 -0.1102 -0.2716 -0.0741
  966MOL0     C33220   8.084   7.895   9.447 -0.3939 -0.4706  0.1600
  966MOL0     N33221   8.490   7.416   8.946 -0.4851  1.0187  0.3454
  966MOL0     N33222   8.556   7.417   8.835 -0.3875  0.4181 -0.2569
  966MOL0     C33223   7.969   8.199   8.779 -0.0764  0.5436 -0.7935
  966MOL0     C33224   7.858   8.269   8.801  0.4260  0.4184  0.6261
  966MOL0     C33225   7.559   8.489   9.041  0.5984 -0.2381  0.9569
  966MOL0     C33226   7.433   8.460   8.980 -0.1424  0.1773  0.4848
  966MOL0     C33227   7.317   8.538   8.998  1.2691  0.5882 -0.8910
  966MOL0     C33228   7.313   8.634   9.100  0.1852  0.3351 -0.8062
  966MOL0     O33229   7.201   8.707   9.145 -0.3715  0.5603  0.3124
  966MOL0     C33230   7.069   8.689   9.084 -0.0575  0.1732  0.2759
  966MOL0     C33231   7.052   8.770   8.953 -0.1135  0.2103 -0.1899
  966MOL0     C33232   6.927   8.734   8.875  0.5286  0.1784  0.9781
  966MOL0     C33233   6.921   8.596   8.815 -0.3259 -0.8854  0.3513
  966MOL0     C33234   7.034   8.566   8.730 -0.8249 -0.6272 -0.6593
  966MOL0     C33235   7.126   8.556   8.643 -0.2911 -0.7445  0.0641
  966MOL0     C33236   7.434   8.663   9.168  0.3960 -0.3467  0.4177
  966MOL0     C33237   7.556   8.602   9.142 -0.0934 -0.0284  1.0878
  966MOL0     C33238   7.672   8.623   9.226 -0.3644 -0.6028 -0.4892
  966MOL0     H33239   7.729   8.089   9.045 -1.1295 -1.0340 -0.7528
  966MOL0     H33240   7.935   7.949   9.008  1.1579  0.7186  1.5261
  966MOL0     H33241   8.241   8.175   8.793  2.3475 -0.3117 -0.8543
  966MOL0     H33242   8.188   8.069   8.649 -3.2611 -2.9834  0.4608
  966MOL0     H33243   8.431   8.044   8.735  2.0462  0.1650  2.4805
  966MOL0     H33244   8.364   8.002   8.897 -1.5077 -0.1469  0.7120
  966MOL0     H33245   8.271   7.801   8.827 -2.1447  0.6509 -1.6212
  966MOL0     H33246   8.273   7.844   8.660 -0.7361 -4.0945  0.6416
  966MOL0     H33247   8.529   7.787   8.828  0.8106 -1.5898 -0.7394
  966MOL0     H33248   8.444   7.669   8.719  3.9801 -0.7882 -4.1963
  966MOL0     H33249   8.601   7.905   8.637  0.5827  0.6363  0.2762
  966MOL0     H33250   8.477   7.840   8.534 -0.1111 -0.7640  0.3522
  966MOL0     H33251   8.568   7.606   8.547 -0.1130  0.1056 -0.6221
  966MOL0     H33252   8.660   7.729   8.463 -2.6024 -0.7039 -0.6751
  966MOL0     H33253   8.747   7.766   8.724 -0.7844  1.4252 -1.8384
  966MOL0     H33254   8.850   7.693   8.624 -0.6407  1.8877  0.5773
  966MOL0     H33255   8.742   7.462   8.656 -0.3057 -1.1369  1.2026
  966MOL0     H33256   8.864   7.515   8.769 -0.2062 -2.0655 -0.5027
  966MOL0     H33257   8.728   7.633   9.008 -1.5821  1.4154 -0.1361
  966MOL0     H33258   8.582   7.530   9.244  1.5879 -3.7851 -0.3674
  966MOL0     H33259   8.431   7.448   9.205 -1.9085  2.2283  1.7643
  966MOL0     H33260   8.422   7.697   9.283  0.8272  2.4981 -0.8815
  966MOL0     H33261   8.486   7.732   9.118 -1.6099 -0.6178 -2.2689
  966MOL0     H33262   8.310   7.638   9.012  1.5157 -3.4715  0.9415
  966MOL0     H33263   8.235   7.570   9.160 -0.1690 -0.4894 -0.1372
  966MOL0     H33264   8.257   7.862   9.105  0.3192 -0.3195  1.2079
  966MOL0     H33265   8.119   7.761   9.069  0.2012  1.1863 -1.8426
  966MOL0     H33266   8.121   8.023   9.140  2.1433 -3.1175 -0.1936
  966MOL0     H33267   8.109   8.262   9.133  0.8762 -1.6469  0.4639
  966MOL0     H33268   8.138   8.341   9.272  0.6933  1.7975 -1.7624
  966MOL0     H33269   7.965   8.320   9.227  0.7655  1.5359  1.8034
  966MOL0     H33270   7.910   8.543   9.402 -0.1170  1.9857  0.0162
  966MOL0     H33271   7.837   8.749   9.491 -0.4319 -1.1099 -0.8857
  966MOL0     H33272   8.038   9.006   9.584 -0.6556  1.6208  1.7315
  966MOL0     H33273   7.876   8.942   9.538  1.3909 -0.7984 -0.4544
  966MOL0     H33274   7.875   9.087   9.791 -0.4889 -2.5755  0.0807
  966MOL0     H33275   7.974   9.170   9.664 -2.1130  2.4669 -1.1303
  966MOL0     H33276   7.689   9.193   9.666 -0.0705 -2.1158  0.4754
  966MOL0     H33277   7.718   9.068   9.552  2.1904 -1.7950  1.0740
  966MOL0     H33278   7.856   9.203   9.414  1.0126 -0.7196  0.3615
  966MOL0     H33279   7.888   9.324   9.543 -0.2174  2.2105 -2.2481
  966MOL0     H33280   7.653   9.389   9.547  0.6410  1.6967 -1.1987
  966MOL0     H33281   7.754   9.454   9.415  0.6352 -0.2089  0.2405
  966MOL0     H33282   7.582   9.205   9.398 -1.2292 -0.1279  1.0522
  966MOL0     H33283   7.654   9.290   9.263  0.7451 -2.0940  1.8194
  966MOL0     H33284   7.471   9.381   9.225  1.0063  1.6231  0.8596
  966MOL0     H33285   7.521   9.497   9.345 -3.1043  0.8870  0.8128
  966MOL0     H33286   7.284   9.414   9.377  1.4072  1.0149 -1.7346
  966MOL0     H33287   7.387   9.362   9.519 -0.8198 -1.5735  0.7842
  966MOL0     H33288   8.085   8.677   9.842 -2.5547 -0.9478  2.0692
  966MOL0     H33289   8.156   8.460   9.738  0.8811 -1.4372 -1.3905
  966MOL0     H33290   8.001   8.002   9.614 -0.6997 -3.6501 -0.5434
  966MOL0     H33291   8.089   7.794   9.488  1.7046 -0.5174 -0.1068
  966MOL0     H33292   8.028   8.222   8.691  1.6488 -0.0399  0.1642
  966MOL0     H33293   7.822   8.356   8.747 -2.7109 -1.3908 -0.4833
  966MOL0     H33294   7.425   8.384   8.904  2.1917  1.1906 -0.8926
  966MOL0     H33295   7.234   8.503   8.937  1.8660 -3.3972  0.2834
  966MOL0     H33296   7.044   8.585   9.065  2.3930 -0.4698  0.2559
  966MOL0     H33297   6.994   8.727   9.154 -0.7639  0.0636 -0.4082
  966MOL0     H33298   7.142   8.748   8.894  1.1286 -3.0348  2.5755
  966MOL0     H33299   7.049   8.875   8.982 -1.6560 -0.2182  1.3677
  966MOL0     H33300   6.829   8.762   8.914 -0.8117 -2.6664 -0.0739
  966MOL0     H33301   6.941   8.795   8.785  1.8125 -2.8485 -1.0207
  966MOL0     H33302   6.832   8.596   8.751  3.0688 -0.3686 -5.0063
  966MOL0     H33303   6.909   8.516   8.889 -1.8406 -2.2214 -1.2295
  966MOL0     H33304   7.216   8.548   8.585  0.6237  3.2779  0.6571
  966MOL0     H33305   7.431   8.747   9.237  0.6539 -2.0135  2.5600
  966MOL0     H33306   7.743   8.683   9.168  0.3361 -1.4594 -0.5379
  966MOL0     H33307   7.644   8.686   9.311  1.7110 -1.6427  1.0888
  966MOL0     H33308   7.729   8.535   9.257 -0.7399 -1.0340 -0.9992
  967MOL0     O33309   5.518   4.769   7.508 -0.5099  0.6803  0.0143
  967MOL0     C33310   5.406   4.777   7.460  0.5543 -0.6653  0.0023
  967MOL0     O33311   5.374   4.857   7.360  0.1208  0.3386  0.3674
  967MOL0     C33312   5.463   4.957   7.344  0.5400 -0.1539 -1.2968
  967MOL0     C33313   5.432   5.077   7.409 -0.1358 -0.8404  0.5904
  967MOL0     C33314   5.503   5.195   7.364  0.2988 -0.7982  0.1685
  967MOL0     C33315   5.608   5.185   7.273  0.0606  0.5832  0.1773
  967MOL0     O33316   5.680   5.297   7.245  0.2704 -0.0947 -0.0539
  967MOL0     C33317   5.608   5.417   7.196 -0.2666  0.5549  0.2223
  967MOL0     C33318   5.548   5.370   7.057 -0.3399 -0.8006 -0.7849
  967MOL0     C33319   5.664   5.363   6.962 -0.4375 -0.9403  0.1368
  967MOL0     C33320   5.632   5.322   6.820  1.2997 -0.5521 -0.6501
  967MOL0     C33321   5.517   5.396   6.750 -0.2084  0.1724 -0.2080
  967MOL0     C33322   5.521   5.352   6.609 -0.6808  0.7924 -0.9788
  967MOL0     C33323   5.411   5.423   6.517 -0.2836  0.3066  0.0073
  967MOL0     C33324   5.444   5.385   6.373  0.0459  0.2619 -0.2797
  967MOL0     N33325   5.335   5.434   6.277 -0.2384  0.9454  0.3357
  967MOL0     C33326   5.329   5.389   6.146  0.4609 -0.1780 -0.0902
  967MOL0     C33327   5.212   5.423   6.095  0.4203  0.0599  0.2253
  967MOL0     C33328   5.155   5.398   5.965  0.2097 -0.5432  0.5962
  967MOL0     C33329   5.243   5.453   5.847 -0.7449  0.2180  0.5965
  967MOL0     C33330   5.308   5.593   5.863  0.3938  0.5533 -0.4031
  967MOL0     C33331   5.208   5.707   5.879 -0.3578  0.1066 -0.8008
  967MOL0     O33332   5.277   5.828   5.856  0.0439 -0.4602 -0.2610
  967MOL0     C33333   5.356   5.885   5.949  0.3299 -0.1079  0.4422
  967MOL0     C33334   5.370   5.841   6.077 -0.6888  0.0409  0.2098
  967MOL0     C33335   5.458   5.908   6.164  0.6606 -0.2351  0.7333
  967MOL0     C33336   5.478   5.844   6.297 -0.6828  0.4557 -0.3956
  967MOL0     C33337   5.508   6.033   6.127  0.2816 -0.4170  0.0916
  967MOL0     C33338   5.552   6.139   6.228  0.0648  0.4381  0.5535
  967MOL0     O33339   5.533   6.113   6.361 -0.0593  0.7338  0.5053
  967MOL0     C33340   5.633   6.147   6.444  0.1942 -0.2440  1.2117
  967MOL0     C33341   5.585   6.184   6.572 -0.1453  0.5835 -0.4133
  967MOL0     C33342   5.685   6.224   6.672  0.3795  0.3602  0.2182
  967MOL0     C33343   5.820   6.232   6.641 -0.8689 -0.2358 -0.4893
  967MOL0     O33344   5.926   6.274   6.722  0.3827  0.7208  0.8847
  967MOL0     C33345   5.900   6.254   6.860  0.5550  0.3366 -0.1289
  967MOL0     C33346   6.008   6.315   6.941 -0.2670 -0.0373  0.6272
  967MOL0     C33347   6.131   6.236   6.931  0.8166 -0.2833  0.5395
  967MOL0     C33348   6.232   6.271   7.038  0.3408 -0.5100  0.1043
  967MOL0     C33349   6.349   6.177   7.009  0.4176  0.7655 -0.5408
  967MOL0     C33350   6.472   6.207   7.102  0.3558 -0.8017  0.0587
  967MOL0     C33351   6.584   6.105   7.056  0.4897  0.3174 -0.3992
  967MOL0     C33352   6.723   6.168   7.064  0.3823 -0.5650 -0.0909
  967MOL0    Cl33353   6.730   6.285   6.928  0.0604 -0.5263  0.0486
  967MOL0     C33354   5.865   6.173   6.520 -0.2046 -0.5146  0.1616
  967MOL0     C33355   5.770   6.136   6.424  0.0213  0.5376 -0.2693
  967MOL0     O33356   5.628   6.226   6.191  0.2941 -0.0386  0.1157
  967MOL0     C33357   5.494   6.080   5.994  0.9497  0.0531  0.6667
  967MOL0     C33358   5.413   6.002   5.903 -0.4092 -0.0959  0.3345
  967MOL0     N33359   5.150   5.494   6.192  0.3893  0.0731 -0.7467
  967MOL0     N33360   5.215   5.495   6.308 -0.5552 -0.4118 -0.1417
  967MOL0     C33361   5.646   5.063   7.222 -0.5435  0.9950 -0.3000
  967MOL0     C33362   5.573   4.947   7.264 -0.1879 -0.1455  0.2797
  967MOL0     C33363   5.310   4.670   7.506  0.2971  0.1133 -1.2391
  967MOL0     C33364   5.223   4.620   7.408  0.0714  0.1495  0.5735
  967MOL0     C33365   5.113   4.542   7.434 -0.1668  0.7825 -0.1252
  967MOL0     C33366   5.079   4.500   7.562 -0.4280 -1.0014  0.1327
  967MOL0     O33367   4.969   4.429   7.591 -0.0094 -0.8188 -0.4784
  967MOL0     C33368   4.900   4.347   7.487 -0.5530 -0.7898  0.7247
  967MOL0     C33369   4.797   4.253   7.535 -0.4532  0.4024  0.4117
  967MOL0     C33370   4.704   4.186   7.436 -0.0562 -0.3220  0.4156
  967MOL0     C33371   4.591   4.107   7.504  0.1413  0.0254  0.6692
  967MOL0     C33372   4.639   4.003   7.595  0.1199 -0.2366 -0.6227
  967MOL0     C33373   4.684   3.919   7.669 -0.2471 -0.6324 -0.3753
  967MOL0     C33374   5.183   4.530   7.659  0.3032  0.4449  0.0099
  967MOL0     C33375   5.280   4.631   7.647  0.7979  0.3201 -0.4520
  967MOL0     C33376   5.361   4.688   7.764 -0.5924 -0.3727  0.2697
  967MOL0     H33377   5.350   5.085   7.480 -0.0288  3.6628  0.4939
  967MOL0     H33378   5.480   5.291   7.409  3.0116  0.2818 -0.6159
  967MOL0     H33379   5.676   5.503   7.188  2.2228 -1.2535  0.4927
  967MOL0     H33380   5.523   5.443   7.259  0.6539 -0.4234  1.9387
  967MOL0     H33381   5.499   5.272   7.061  0.0008 -0.9350  0.7600
  967MOL0     H33382   5.470   5.441   7.026  0.2839  0.4707  0.4615
  967MOL0     H33383   5.711   5.461   6.955 -1.3935 -0.1395  3.1695
  967MOL0     H33384   5.736   5.294   7.007  0.3309  1.6832  3.2865
  967MOL0     H33385   5.728   5.335   6.769  1.7990  0.4745  0.5114
  967MOL0     H33386   5.599   5.218   6.820 -2.1382  0.4024  0.5052
  967MOL0     H33387   5.531   5.504   6.756 -0.9338  0.2471  0.2315
  967MOL0     H33388   5.423   5.364   6.796 -0.2093 -0.6602 -0.7660
  967MOL0     H33389   5.619   5.375   6.567  2.2752 -1.7206  3.5881
  967MOL0     H33390   5.496   5.246   6.602 -1.3471  0.6751  1.8277
  967MOL0     H33391   5.423   5.531   6.528  0.5995  0.5135 -2.4487
  967MOL0     H33392   5.313   5.395   6.555 -0.9312  0.0251 -1.7891
  967MOL0     H33393   5.546   5.420   6.354  0.9139 -2.1492 -0.3435
  967MOL0     H33394   5.455   5.277   6.357 -0.2806  0.4742 -2.2132
  967MOL0     H33395   5.406   5.341   6.086  2.4336  1.0165  1.3797
  967MOL0     H33396   5.052   5.433   5.963  0.1768 -0.5969  1.1714
  967MOL0     H33397   5.143   5.291   5.949 -0.4581 -0.2955 -0.6705
  967MOL0     H33398   5.326   5.383   5.836  1.5745  2.5315  2.2947
  967MOL0     H33399   5.176   5.455   5.760 -1.0524  1.4183  0.8552
  967MOL0     H33400   5.370   5.594   5.953 -0.9987 -0.1001  0.6107
  967MOL0     H33401   5.373   5.614   5.778  1.1456 -1.2403 -0.3238
  967MOL0     H33402   5.128   5.688   5.806  0.4855  2.6893 -2.5334
  967MOL0     H33403   5.162   5.697   5.978  0.9158  0.4411 -0.1522
  967MOL0     H33404   5.317   5.755   6.118  1.0831 -0.1815  2.1815
  967MOL0     H33405   5.580   5.871   6.327 -0.3186  1.7758 -2.5588
  967MOL0     H33406   5.454   5.738   6.298 -1.3014  0.5964 -0.2995
  967MOL0     H33407   5.418   5.895   6.372 -2.1505 -0.3305 -0.9889
  967MOL0     H33408   5.478   6.192   6.590 -0.3024  0.5765 -1.2814
  967MOL0     H33409   5.656   6.261   6.770  1.5221 -1.5850  1.3706
  967MOL0     H33410   5.808   6.307   6.885 -0.4734 -0.5554 -1.8550
  967MOL0     H33411   5.896   6.147   6.881 -0.9393  0.0720 -1.5942
  967MOL0     H33412   6.029   6.419   6.911 -0.1058 -0.7390 -1.9356
  967MOL0     H33413   5.978   6.325   7.045 -2.4117 -1.3677  0.1808
  967MOL0     H33414   6.167   6.256   6.830  0.7342 -1.1510  0.3323
  967MOL0     H33415   6.107   6.129   6.924 -4.3309  0.6893 -2.6972
  967MOL0     H33416   6.188   6.270   7.138 -0.6106 -1.5452 -0.2916
  967MOL0     H33417   6.268   6.370   7.009 -0.3876 -0.3619 -0.3343
  967MOL0     H33418   6.314   6.079   7.044  1.0695  2.2367  5.3735
  967MOL0     H33419   6.378   6.179   6.904 -1.9562  2.0105 -1.2559
  967MOL0     H33420   6.441   6.205   7.207  2.2888  1.3271  0.7422
  967MOL0     H33421   6.497   6.311   7.082  2.3324 -0.8559  1.8815
  967MOL0     H33422   6.569   6.059   6.958 -1.9209  0.4669 -0.1566
  967MOL0     H33423   6.580   6.023   7.130  0.0780  0.6028 -0.0993
  967MOL0     H33424   6.805   6.097   7.059  0.2173 -0.8515  1.1301
  967MOL0     H33425   6.737   6.227   7.155 -0.5329  2.9113 -2.0111
  967MOL0     H33426   5.970   6.167   6.494 -0.6911  0.1871 -2.1938
  967MOL0     H33427   5.812   6.107   6.328  2.8765  3.4892 -0.0995
  967MOL0     H33428   5.524   6.178   5.961 -1.1406 -0.1480 -2.3085
  967MOL0     H33429   5.388   6.042   5.805 -0.6957 -1.2501 -0.0735
  967MOL0     H33430   5.730   5.043   7.156 -0.2941  0.8178  0.0644
  967MOL0     H33431   5.610   4.853   7.223  0.8470  0.6365 -0.6757
  967MOL0     H33432   5.228   4.645   7.302 -0.8650 -2.5687 -0.2011
  967MOL0     H33433   5.047   4.529   7.349  0.9904  1.5661 -1.1669
  967MOL0     H33434   4.851   4.420   7.422  1.1933 -0.0527  0.1561
  967MOL0     H33435   4.978   4.306   7.422 -0.9516  1.7263 -1.5253
  967MOL0     H33436   4.729   4.314   7.594 -1.7481  1.5233 -2.0884
  967MOL0     H33437   4.846   4.179   7.599  0.5133 -1.1728 -2.0347
  967MOL0     H33438   4.652   4.253   7.367  1.3674  2.0670  1.5315
  967MOL0     H33439   4.762   4.112   7.380  0.7499 -1.0767  2.1343
  967MOL0     H33440   4.522   4.053   7.438 -0.8240  0.2298  1.4819
  967MOL0     H33441   4.535   4.183   7.559  0.4262  0.1018  0.8531
  967MOL0     H33442   4.702   3.841   7.740 -0.1998 -2.6024 -2.4312
  967MOL0     H33443   5.159   4.490   7.757 -0.0221 -0.8917 -0.6035
  967MOL0     H33444   5.299   4.737   7.840 -1.0777 -0.6607  0.0651
  967MOL0     H33445   5.422   4.606   7.803 -1.7087 -1.1842  0.3505
  967MOL0     H33446   5.431   4.765   7.730  0.2082 -1.5669 -0.8570
  968MOL0     O33447  10.416   6.535   5.526 -1.0053 -0.7256 -0.3558
  968MOL0     C33448  10.525   6.529   5.579 -0.1300 -1.0698  0.5683
  968MOL0     O33449  10.550   6.455   5.692  0.1519 -0.0287  0.6382
  968MOL0     C33450  10.452   6.377   5.753 -0.4477  0.2151 -0.6614
  968MOL0     C33451  10.332   6.326   5.695  0.0159  0.3439  0.2892
  968MOL0     C33452  10.241   6.259   5.780  0.4994  0.2477 -0.6907
  968MOL0     C33453  10.265   6.240   5.920  0.3169 -0.2520  0.5908
  968MOL0     O33454  10.174   6.166   5.988  0.2144  0.2484  0.2422
  968MOL0     C33455  10.226   6.064   6.081  0.2488  0.4678  0.1058
  968MOL0     C33456  10.285   5.937   5.999 -0.1726  0.8342  0.0943
  968MOL0     C33457  10.166   5.856   5.942  0.7446 -0.5118 -0.2412
  968MOL0     C33458  10.112   5.746   6.025 -0.4179  0.5014 -0.6538
  968MOL0     C33459   9.973   5.689   5.979  0.2693 -0.4150  0.3406
  968MOL0     C33460   9.940   5.560   6.050  0.3522  0.1479  0.1379
  968MOL0     C33461   9.809   5.515   5.986  0.3286  0.5458 -0.1356
  968MOL0     C33462   9.792   5.367   6.017  0.1660 -0.4083  0.6387
  968MOL0     N33463   9.780   5.332   6.163  0.2106  0.0594  0.5510
  968MOL0     C33464   9.883   5.270   6.234  0.5529  0.4329 -0.0677
  968MOL0     C33465   9.866   5.303   6.369  0.7073  0.4010  0.3176
  968MOL0     C33466   9.949   5.269   6.487  0.7180  0.2768  0.3941
  968MOL0     C33467  10.058   5.369   6.502  0.2413 -0.0683 -0.4286
  968MOL0     C33468  10.156   5.399   6.375 -0.9040  0.0640 -1.0771
  968MOL0     C33469  10.274   5.484   6.412 -0.1233  0.1146 -0.3471
  968MOL0     O33470  10.364   5.487   6.301  0.0858 -1.1300  0.0026
  968MOL0     C33471  10.440   5.596   6.273 -0.5771 -0.4062  0.1873
  968MOL0     C33472  10.456   5.718   6.338 -0.0360 -0.6780  0.1166
  968MOL0     C33473  10.536   5.822   6.289  0.0913  0.1809  0.4595
  968MOL0     C33474  10.544   5.945   6.371  0.1456 -0.8759 -0.7317
  968MOL0     C33475  10.604   5.803   6.162 -1.0251 -0.6688  0.4080
  968MOL0     C33476  10.659   5.919   6.077 -0.6243 -0.3373  0.2898
  968MOL0     O33477  10.618   6.039   6.107  0.4082  0.0880  0.3352
  968MOL0     C33478  10.700   6.140   6.073 -0.1597 -0.2237  0.8862
  968MOL0     C33479  10.759   6.210   6.175  0.1572  0.9253 -0.2613
  968MOL0     C33480  10.855   6.306   6.138 -0.5411 -0.5232  0.9281
  968MOL0     C33481  10.886   6.335   6.006 -0.7035  0.9248  0.4916
  968MOL0     O33482  10.988   6.425   5.983 -0.2140 -0.7552 -0.4719
  968MOL0     C33483  11.081   6.402   5.872  0.6284 -0.1622  0.3346
  968MOL0     C33484  11.203   6.493   5.889  1.2249  0.5438 -0.7530
  968MOL0     C33485  11.263   6.538   5.757  0.3576 -0.6328  0.4884
  968MOL0     C33486  11.176   6.642   5.695 -0.3158 -0.5766 -0.1042
  968MOL0     C33487  11.243   6.693   5.558 -1.3601 -0.5233  0.3655
  968MOL0     C33488  11.279   6.585   5.458  0.3838 -0.7101 -0.1223
  968MOL0     C33489  11.362   6.641   5.346 -0.0376  0.2060  0.8002
  968MOL0     C33490  11.309   6.750   5.264  0.1158 -0.0816  0.2145
  968MOL0    Cl33491  11.416   6.788   5.139  0.6932  0.5479  0.4071
  968MOL0     C33492  10.828   6.257   5.904 -0.7041  0.0175 -0.3357
  968MOL0     C33493  10.732   6.168   5.934  1.0610 -0.0373 -0.4090
  968MOL0     O33494  10.759   5.894   6.014  0.2469  0.2828 -0.3800
  968MOL0     C33495  10.594   5.686   6.094  0.7338 -0.8653 -0.4572
  968MOL0     C33496  10.511   5.585   6.149  0.1263 -0.7227 -0.4193
  968MOL0     N33497   9.752   5.385   6.373 -0.0212 -0.4785 -0.1544
  968MOL0     N33498   9.696   5.392   6.253  0.0346  0.7351 -0.0693
  968MOL0     C33499  10.386   6.295   5.973 -0.6051 -0.1017 -0.1461
  968MOL0     C33500  10.476   6.363   5.888 -0.1466  0.2333 -0.0409
  968MOL0     C33501  10.632   6.588   5.489 -0.4912 -0.3819 -0.3429
  968MOL0     C33502  10.765   6.545   5.509  0.3592 -0.5864  0.4923
  968MOL0     C33503  10.861   6.583   5.417  0.0927 -0.8469  0.5180
  968MOL0     C33504  10.844   6.665   5.303  0.5668 -0.9977  0.3978
  968MOL0     O33505  10.956   6.702   5.235  0.0302  0.1627 -0.0419
  968MOL0     C33506  10.966   6.824   5.161  0.7331 -0.8734  0.4749
  968MOL0     C33507  10.980   6.954   5.246  0.9884 -0.0833  0.7379
  968MOL0     C33508  11.008   7.085   5.173  0.9980 -0.1842 -0.4430
  968MOL0     C33509  10.879   7.181   5.176 -0.0091  0.3158 -0.4046
  968MOL0     C33510  10.766   7.108   5.111  0.0831 -0.5659  1.2897
  968MOL0     C33511  10.665   7.067   5.064  0.1581 -1.3168 -0.2929
  968MOL0     C33512  10.716   6.715   5.298 -0.0753 -0.4626  0.1350
  968MOL0     C33513  10.609   6.684   5.385 -0.2572  0.2165  0.8303
  968MOL0     C33514  10.476   6.758   5.370 -0.2928  0.8489 -0.0969
  968MOL0     H33515  10.323   6.332   5.587  0.5688  2.1248  0.3042
  968MOL0     H33516  10.151   6.216   5.738 -0.7576  1.9712  0.1201
  968MOL0     H33517  10.144   6.027   6.144 -0.5489 -0.4207 -1.3870
  968MOL0     H33518  10.301   6.107   6.147  0.3427 -0.9179  0.9513
  968MOL0     H33519  10.351   5.969   5.918 -1.1931  0.5222 -0.8907
  968MOL0     H33520  10.343   5.869   6.062 -2.5789 -1.2280  0.2597
  968MOL0     H33521  10.084   5.925   5.918  2.2001  1.1314 -0.6839
  968MOL0     H33522  10.205   5.809   5.851  0.0569 -1.3639 -0.0984
  968MOL0     H33523  10.185   5.666   6.009 -2.7411 -1.0452 -5.0129
  968MOL0     H33524  10.107   5.778   6.129 -3.1128 -0.9797 -0.2479
  968MOL0     H33525   9.974   5.673   5.871 -2.8771 -0.4112  0.2235
  968MOL0     H33526   9.898   5.765   6.001 -0.7733 -1.5926  0.9687
  968MOL0     H33527  10.015   5.482   6.039  1.7376  1.5275 -0.6260
  968MOL0     H33528   9.926   5.581   6.156 -0.1251  2.5133 -0.3333
  968MOL0     H33529   9.820   5.521   5.877  1.8448 -1.1097 -0.1307
  968MOL0     H33530   9.717   5.564   6.016 -0.6620 -2.4529  2.1752
  968MOL0     H33531   9.700   5.334   5.968 -0.8669 -2.0225  3.3914
  968MOL0     H33532   9.864   5.307   5.961 -1.2384 -3.0115  1.4181
  968MOL0     H33533   9.961   5.199   6.209 -1.5401 -1.8702 -0.3593
  968MOL0     H33534   9.992   5.171   6.467 -0.0594  0.0141 -0.0107
  968MOL0     H33535   9.896   5.267   6.583  1.2230  0.0686  0.6734
  968MOL0     H33536  10.010   5.462   6.534  3.1306  0.0836  4.3255
  968MOL0     H33537  10.116   5.341   6.590 -1.5901  1.1682  1.2551
  968MOL0     H33538  10.188   5.300   6.342 -1.4286  0.4059 -2.6952
  968MOL0     H33539  10.105   5.448   6.291  1.3634  2.6257 -1.1072
  968MOL0     H33540  10.225   5.579   6.436 -1.1641 -0.1750 -1.2424
  968MOL0     H33541  10.333   5.439   6.492 -0.4305 -0.9691 -0.7156
  968MOL0     H33542  10.408   5.727   6.435 -2.9234 -1.6141 -1.1076
  968MOL0     H33543  10.462   6.016   6.358  0.9166  0.6691  2.0124
  968MOL0     H33544  10.642   5.993   6.361 -0.2525 -0.2989 -2.2192
  968MOL0     H33545  10.523   5.916   6.474 -1.1737  3.0539  0.2827
  968MOL0     H33546  10.729   6.194   6.278  1.3145 -1.5629 -0.2388
  968MOL0     H33547  10.906   6.372   6.207 -1.6906 -0.0957  1.3973
  968MOL0     H33548  11.110   6.296   5.866 -1.7568 -0.8141 -0.6806
  968MOL0     H33549  11.033   6.425   5.777 -1.5185 -0.0544  1.3866
  968MOL0     H33550  11.187   6.585   5.945 -1.8678 -1.1793  1.5509
  968MOL0     H33551  11.269   6.420   5.938 -2.3954 -0.8052  2.6827
  968MOL0     H33552  11.275   6.450   5.694 -1.4962 -0.9906  0.5907
  968MOL0     H33553  11.362   6.577   5.783  0.4843 -0.1004 -0.6987
  968MOL0     H33554  11.176   6.724   5.767 -0.8339  0.9853 -1.8015
  968MOL0     H33555  11.077   6.602   5.670 -2.0414  2.3816  1.4308
  968MOL0     H33556  11.181   6.773   5.516 -2.0286 -1.5673 -0.6858
  968MOL0     H33557  11.335   6.745   5.585  0.0620 -2.1098 -1.2243
  968MOL0     H33558  11.192   6.528   5.422  1.0634 -0.8928 -1.5576
  968MOL0     H33559  11.346   6.514   5.507  0.5843 -1.3532 -1.2837
  968MOL0     H33560  11.383   6.563   5.272 -0.1164  0.8906  0.0287
  968MOL0     H33561  11.461   6.664   5.386  0.0183 -1.0324  1.4062
  968MOL0     H33562  11.303   6.831   5.338  0.8696  0.1571  0.0203
  968MOL0     H33563  11.211   6.725   5.223  0.4405  0.4082 -0.8977
  968MOL0     H33564  10.856   6.278   5.801 -1.6679 -1.2353 -0.8867
  968MOL0     H33565  10.679   6.123   5.851  2.9302 -0.1630 -1.5905
  968MOL0     H33566  10.634   5.662   5.996 -4.2158 -2.5081 -2.3659
  968MOL0     H33567  10.518   5.485   6.107  3.7547 -0.5134 -0.5791
  968MOL0     H33568  10.411   6.284   6.078  0.1833 -1.2891 -0.4368
  968MOL0     H33569  10.570   6.412   5.909 -0.2090  0.6712 -0.7560
  968MOL0     H33570  10.792   6.489   5.597  1.7300  2.2774  2.0588
  968MOL0     H33571  10.963   6.548   5.432  0.6102  1.4934  3.3948
  968MOL0     H33572  11.047   6.811   5.088 -1.2520 -0.6172 -1.9337
  968MOL0     H33573  10.880   6.842   5.095  2.1127  0.6933 -1.0137
  968MOL0     H33574  11.064   6.944   5.316  0.1563  0.8869  1.9123
  968MOL0     H33575  10.895   6.969   5.313  1.2770 -0.2043  1.1384
  968MOL0     H33576  11.080   7.137   5.236  1.5496 -1.2371 -0.1764
  968MOL0     H33577  11.036   7.075   5.068 -2.8051  0.0197 -1.6383
  968MOL0     H33578  10.903   7.268   5.116 -0.7995 -1.3465 -3.3176
  968MOL0     H33579  10.855   7.210   5.279  1.4649 -1.3741  0.4767
  968MOL0     H33580  10.570   7.039   5.024 -4.0682 -0.3065  7.1564
  968MOL0     H33581  10.704   6.790   5.220  2.8606  0.7987  0.7309
  968MOL0     H33582  10.461   6.809   5.466 -0.2449 -0.3954  0.5922
  968MOL0     H33583  10.477   6.838   5.296  1.3481  0.0290 -1.0310
  968MOL0     H33584  10.390   6.700   5.336 -1.0462  1.7670  0.2118
  969MOL0     O33585  10.269   1.773   4.550 -0.4208  0.1201  0.3991
  969MOL0     C33586  10.298   1.860   4.468 -0.7499  0.4214 -0.0315
  969MOL0     O33587  10.415   1.857   4.393  0.3964  0.3380  0.0659
  969MOL0     C33588  10.465   1.735   4.365  0.3439 -0.3449 -0.4035
  969MOL0     C33589  10.393   1.620   4.336 -0.4462  0.3096 -0.2565
  969MOL0     C33590  10.460   1.503   4.291  1.2163 -0.3483 -0.1666
  969MOL0     C33591  10.602   1.502   4.274 -0.3635 -0.5098  0.3872
  969MOL0     O33592  10.678   1.393   4.238 -0.0231 -0.3705 -0.1376
  969MOL0     C33593  10.604   1.292   4.168  0.1580  0.3811  0.5559
  969MOL0     C33594  10.705   1.178   4.118  0.3432  0.0884 -0.8312
  969MOL0     C33595  10.745   1.088   4.227 -0.7075 -0.1975 -0.9750
  969MOL0     C33596  10.880   1.012   4.217 -0.2189 -0.0432 -0.9661
  969MOL0     C33597  10.994   1.101   4.233  0.7916  0.3860 -0.0340
  969MOL0     C33598  11.130   1.033   4.228  0.0476 -0.1774  0.4726
  969MOL0     C33599  11.154   0.926   4.125  0.2558  0.2511  0.4344
  969MOL0     C33600  11.282   0.842   4.161  0.0465 -0.2624  0.6402
  969MOL0     N33601  11.330   0.742   4.062  0.0317 -0.6631  0.5910
  969MOL0     C33602  11.445   0.736   3.981  0.0910 -0.9265 -0.4666
  969MOL0     C33603  11.438   0.622   3.918  0.0512  0.6485 -1.0360
  969MOL0     C33604  11.549   0.561   3.843  0.0970 -0.4609 -0.8509
  969MOL0     C33605  11.631   0.476   3.935  0.0502 -0.4068 -0.5909
  969MOL0     C33606  11.773   0.440   3.891  0.1921 -0.1919  0.4973
  969MOL0     C33607  11.864   0.571   3.846  0.9526  0.6952 -0.1927
  969MOL0     O33608  11.875   0.656   3.960  0.3779 -0.3712  0.5943
  969MOL0     C33609  11.988   0.660   4.041  2.1552 -0.3744  0.4311
  969MOL0     C33610  11.960   0.682   4.176  0.2578 -0.4338  0.0822
  969MOL0     C33611  12.063   0.671   4.275  0.9416  0.1989 -0.0719
  969MOL0     C33612  12.012   0.715   4.415  0.3592 -0.1021  0.0731
  969MOL0     C33613  12.199   0.638   4.239  0.7305 -0.5306 -1.0456
  969MOL0     C33614  12.297   0.599   4.341 -0.2515 -0.6440  0.2772
  969MOL0     O33615  12.250   0.539   4.453  0.3681  0.1182 -0.7397
  969MOL0     C33616  12.323   0.526   4.565  0.6555  0.5020  0.0492
  969MOL0     C33617  12.267   0.433   4.655  0.4145 -0.6055  0.3992
  969MOL0     C33618  12.315   0.429   4.782  1.0648  1.2071 -0.1205
  969MOL0     C33619  12.415   0.510   4.828  0.3172 -0.7277 -0.5109
  969MOL0     O33620  12.439   0.485   4.964  0.2683 -0.4637  1.3904
  969MOL0     C33621  12.562   0.528   5.020 -0.2325 -0.0796  0.7856
  969MOL0     C33622  12.599   0.459   5.146 -0.5200  0.6017  0.4817
  969MOL0     C33623  12.734   0.524   5.204  0.4429 -0.0539  0.4907
  969MOL0     C33624  12.770   0.458   5.333  0.3978 -0.2907 -0.4545
  969MOL0     C33625  12.903   0.514   5.396 -0.0548  0.2040  0.0998
  969MOL0     C33626  12.959   0.435   5.515  0.6417 -0.1505  0.2242
  969MOL0     C33627  12.872   0.476   5.624 -1.0738 -0.3582  0.7437
  969MOL0     C33628  12.873   0.390   5.747 -0.3003  0.6651 -0.1126
  969MOL0    Cl33629  13.030   0.358   5.824 -0.0300  0.1719  0.0470
  969MOL0     C33630  12.468   0.613   4.744 -0.4335 -0.8156 -0.4130
  969MOL0     C33631  12.425   0.617   4.617 -0.2138  0.6245 -0.3323
  969MOL0     O33632  12.414   0.613   4.310  0.2522 -0.2588 -0.9170
  969MOL0     C33633  12.225   0.631   4.098 -0.2501  0.0571  0.4234
  969MOL0     C33634  12.126   0.645   4.002 -0.7726  0.6718 -0.2486
  969MOL0     N33635  11.333   0.549   3.963 -0.3327  0.8004 -0.3150
  969MOL0     N33636  11.273   0.620   4.053 -0.1072  0.1400  0.0427
  969MOL0     C33637  10.666   1.621   4.276  0.0657 -0.3730  0.4398
  969MOL0     C33638  10.601   1.734   4.326  0.1547 -0.1696 -0.0829
  969MOL0     C33639  10.228   1.985   4.466 -0.8421  0.7112 -0.5406
  969MOL0     C33640  10.156   2.012   4.581 -0.4221  0.6540 -0.5928
  969MOL0     C33641  10.090   2.135   4.607  0.1181  0.3174  0.1492
  969MOL0     C33642  10.089   2.238   4.507  0.1733  0.3460 -0.4035
  969MOL0     O33643  10.017   2.353   4.513 -0.2537 -0.6445  0.2527
  969MOL0     C33644   9.944   2.382   4.635 -0.0126  1.1728  0.5994
  969MOL0     C33645   9.978   2.525   4.671 -0.0814 -0.0713  0.1476
  969MOL0     C33646   9.921   2.569   4.808 -0.8625  0.0731  0.4200
  969MOL0     C33647   9.957   2.714   4.843  0.0370 -0.0680  0.5181
  969MOL0     C33648   9.894   2.826   4.767 -0.9294  0.5499 -0.4338
  969MOL0     C33649   9.852   2.902   4.687  0.7055 -0.2397 -0.2738
  969MOL0     C33650  10.165   2.207   4.388  0.1306  0.2725  0.1331
  969MOL0     C33651  10.229   2.089   4.365 -0.6316 -0.5363 -0.5189
  969MOL0     C33652  10.309   2.065   4.234 -0.4108  0.1237  0.5585
  969MOL0     H33653  10.287   1.603   4.348 -0.8214  1.3637 -1.8538
  969MOL0     H33654  10.396   1.417   4.270 -0.2812  0.3462  1.3235
  969MOL0     H33655  10.548   1.333   4.083  0.0866 -1.9857 -0.6282
  969MOL0     H33656  10.523   1.251   4.228 -0.2511  0.6945  0.2189
  969MOL0     H33657  10.671   1.120   4.031  3.4509 -0.5012 -1.7789
  969MOL0     H33658  10.789   1.238   4.082 -0.6178  1.7314 -0.4143
  969MOL0     H33659  10.739   1.147   4.319 -4.8305 -2.0889  0.2032
  969MOL0     H33660  10.669   1.012   4.249  2.9682 -3.5419  1.5483
  969MOL0     H33661  10.889   0.934   4.293 -3.1076  1.1399  0.7977
  969MOL0     H33662  10.879   0.959   4.121 -4.5505  3.8846 -3.5682
  969MOL0     H33663  10.969   1.151   4.327 -0.5481 -2.3229  1.1560
  969MOL0     H33664  10.991   1.169   4.147  0.5960 -1.7303 -1.7914
  969MOL0     H33665  11.207   1.108   4.207 -1.2411  2.1264  3.2854
  969MOL0     H33666  11.143   0.980   4.322  1.1377 -0.8492 -0.0420
  969MOL0     H33667  11.158   0.981   4.030 -0.3094  1.6178  1.1861
  969MOL0     H33668  11.062   0.868   4.117  0.0434  0.7933 -1.4999
  969MOL0     H33669  11.368   0.907   4.181  0.3209 -0.7277  0.9940
  969MOL0     H33670  11.250   0.791   4.252 -1.9442 -1.1334 -0.4867
  969MOL0     H33671  11.512   0.821   3.983 -1.9822  0.7911  1.0659
  969MOL0     H33672  11.613   0.636   3.796  0.1759  1.0435  1.4737
  969MOL0     H33673  11.504   0.497   3.766 -1.1136  1.9499 -2.2501
  969MOL0     H33674  11.642   0.525   4.032 -1.3654 -1.6231  0.2150
  969MOL0     H33675  11.574   0.386   3.960 -3.2759  0.8795 -2.8666
  969MOL0     H33676  11.823   0.386   3.972  1.4578 -0.1140 -0.2112
  969MOL0     H33677  11.773   0.374   3.804  1.6531  0.8189 -0.3255
  969MOL0     H33678  11.966   0.540   3.818  0.9493 -0.7161  1.2338
  969MOL0     H33679  11.817   0.613   3.757 -0.3161  1.2617  0.7287
  969MOL0     H33680  11.865   0.714   4.217  1.0018  1.2628  0.5597
  969MOL0     H33681  12.081   0.705   4.500  1.4170  0.0471 -0.7383
  969MOL0     H33682  11.929   0.652   4.449 -0.4826  2.2713  2.8181
  969MOL0     H33683  11.978   0.817   4.395  0.2599 -0.5288 -2.1754
  969MOL0     H33684  12.194   0.359   4.624 -0.3726 -0.0650  0.9270
  969MOL0     H33685  12.264   0.357   4.844  2.1245  0.5393  0.0056
  969MOL0     H33686  12.646   0.522   4.950 -1.6947  1.3267 -1.2209
  969MOL0     H33687  12.547   0.635   5.038  1.6800  0.4927 -0.6070
  969MOL0     H33688  12.518   0.476   5.218 -1.6813  0.6041 -0.7822
  969MOL0     H33689  12.617   0.353   5.126 -0.7275  0.8787 -1.3543
  969MOL0     H33690  12.712   0.627   5.235  1.5085 -0.0265  1.2010
  969MOL0     H33691  12.823   0.524   5.141  0.6983  0.8552  0.8245
  969MOL0     H33692  12.796   0.352   5.327  2.9414  0.3331 -1.4920
  969MOL0     H33693  12.687   0.470   5.404  0.4034  0.8120 -0.6108
  969MOL0     H33694  12.977   0.519   5.315 -0.6524 -2.2026 -0.7041
  969MOL0     H33695  12.891   0.616   5.434 -0.6358  0.0460  0.3473
  969MOL0     H33696  13.061   0.466   5.539  1.2703  0.4622 -2.8849
  969MOL0     H33697  12.964   0.326   5.503  2.4267 -0.6517  3.9639
  969MOL0     H33698  12.767   0.468   5.593 -0.8449  1.3228 -0.6151
  969MOL0     H33699  12.889   0.583   5.641  0.1645  0.2612 -3.3839
  969MOL0     H33700  12.833   0.291   5.724 -0.8102  0.1904  2.5478
  969MOL0     H33701  12.806   0.445   5.814 -0.1691  1.3308 -0.5101
  969MOL0     H33702  12.547   0.683   4.770 -1.7163  1.0458 -1.3267
  969MOL0     H33703  12.467   0.700   4.561  0.2017  3.0165  3.2016
  969MOL0     H33704  12.328   0.620   4.066 -1.1084 -0.2987 -2.5243
  969MOL0     H33705  12.165   0.628   3.902 -0.0509  0.5919  0.0480
  969MOL0     H33706  10.772   1.640   4.259 -0.0727  0.4714  0.4869
  969MOL0     H33707  10.652   1.829   4.314 -0.2896  0.2206  0.9698
  969MOL0     H33708  10.155   1.944   4.665  1.8833  0.3932 -0.7273
  969MOL0     H33709  10.048   2.136   4.708  1.6484 -2.3170  0.8931
  969MOL0     H33710   9.841   2.356   4.610  0.9606 -1.1554 -1.3002
  969MOL0     H33711   9.976   2.316   4.717  1.0428 -1.7980 -2.0208
  969MOL0     H33712   9.952   2.596   4.592  0.1942 -1.7029 -1.4540
  969MOL0     H33713  10.087   2.532   4.675  0.1444 -2.5016 -0.1807
  969MOL0     H33714   9.813   2.558   4.815 -0.8327 -1.1232 -0.7700
  969MOL0     H33715   9.961   2.505   4.888 -1.3479 -2.9504 -1.6102
  969MOL0     H33716  10.065   2.731   4.836 -0.1470  0.6583 -0.7798
  969MOL0     H33717   9.941   2.735   4.949  1.3649  1.2486  0.4956
  969MOL0     H33718   9.827   2.969   4.607 -0.5298 -0.2184  0.1069
  969MOL0     H33719  10.189   2.286   4.318  1.9179 -1.1541 -0.9791
  969MOL0     H33720  10.291   2.137   4.153  0.5116 -1.6573 -1.3416
  969MOL0     H33721  10.416   2.055   4.255 -0.4334 -1.6100  0.0664
  969MOL0     H33722  10.287   1.965   4.193  1.0015 -0.9584  2.3041
  970MOL0     O33723   8.074   6.330   4.424 -0.2743 -0.0869  0.4415
  970MOL0     C33724   8.182   6.292   4.468  0.0452 -0.6176 -0.8128
  970MOL0     O33725   8.214   6.160   4.481 -0.2630 -1.0067 -0.0420
  970MOL0     C33726   8.129   6.055   4.450  0.1650  0.0046  0.2215
  970MOL0     C33727   8.002   6.030   4.495  0.6068  0.1812 -0.3152
  970MOL0     C33728   7.939   5.918   4.464  0.0456 -0.1100  0.4261
  970MOL0     C33729   8.003   5.822   4.382 -0.0507  0.0385  0.2486
  970MOL0     O33730   7.952   5.698   4.361 -0.1420 -0.1691  0.3268
  970MOL0     C33731   7.805   5.686   4.352  0.4936 -0.5987 -0.7880
  970MOL0     C33732   7.771   5.549   4.281 -0.1623 -0.3736  0.3017
  970MOL0     C33733   7.729   5.451   4.391 -0.1191  1.2665  0.3422
  970MOL0     C33734   7.829   5.433   4.516  0.2912  0.9823  0.3150
  970MOL0     C33735   7.791   5.303   4.582  0.4982  0.5333  0.2057
  970MOL0     C33736   7.866   5.269   4.703  0.2838  0.2721  0.3432
  970MOL0     C33737   8.027   5.251   4.672  1.4172 -0.3588 -0.4020
  970MOL0     C33738   8.112   5.201   4.791  0.4840 -0.1315  0.1704
  970MOL0     N33739   8.063   5.075   4.843 -0.4012  0.4295 -0.6266
  970MOL0     C33740   7.964   5.073   4.940 -0.8047  0.7865 -0.0586
  970MOL0     C33741   7.937   4.943   4.962 -0.5341 -0.0557  0.3280
  970MOL0     C33742   7.826   4.883   5.050  1.0956  0.5499 -1.0965
  970MOL0     C33743   7.696   4.897   4.986  0.6087 -0.0994  0.8386
  970MOL0     C33744   7.579   4.869   5.088 -0.0037  0.1511 -0.8501
  970MOL0     C33745   7.448   4.886   5.010  0.6551 -0.3211 -0.7443
  970MOL0     O33746   7.337   4.839   5.085  0.0173 -0.0221  0.2953
  970MOL0     C33747   7.219   4.876   5.021 -0.9874  0.1648 -0.4470
  970MOL0     C33748   7.168   4.792   4.919  0.7015 -0.6355 -0.0600
  970MOL0     C33749   7.066   4.847   4.836  0.2572  0.0703 -0.6996
  970MOL0     C33750   6.993   4.756   4.736 -0.6661 -0.0395 -0.3256
  970MOL0     C33751   7.015   4.968   4.860 -0.3350 -0.3791  1.1443
  970MOL0     C33752   6.896   5.031   4.786 -0.4140  0.1437  0.2260
  970MOL0     O33753   6.884   5.066   4.653  0.1978  0.0716  0.3068
  970MOL0     C33754   6.762   5.070   4.592 -0.1335  0.3551 -0.5283
  970MOL0     C33755   6.729   5.165   4.497  0.8874 -0.2394 -0.6375
  970MOL0     C33756   6.608   5.159   4.423 -0.0111  0.4840 -0.8762
  970MOL0     C33757   6.509   5.058   4.445 -0.2405 -0.4250  0.5163
  970MOL0     O33758   6.392   5.042   4.372 -0.6664  0.0050 -0.2307
  970MOL0     C33759   6.410   5.053   4.227 -0.1125  0.3192 -0.4717
  970MOL0     C33760   6.302   4.980   4.146 -0.4202 -0.3962 -0.3124
  970MOL0     C33761   6.191   5.064   4.081  0.2156 -0.5006  0.1956
  970MOL0     C33762   6.104   4.980   3.986 -0.5151 -0.1705  0.4926
  970MOL0     C33763   5.998   5.057   3.905  0.0603 -0.7338 -0.8956
  970MOL0     C33764   5.881   5.114   3.987 -0.6640  1.2535 -0.6366
  970MOL0     C33765   5.791   5.210   3.922 -0.3813  0.5244 -0.0404
  970MOL0     C33766   5.700   5.163   3.800  0.7284 -0.5294  0.7026
  970MOL0    Cl33767   5.629   4.990   3.832  0.3082 -0.0887  0.3522
  970MOL0     C33768   6.537   4.974   4.561 -0.2528 -0.5072  0.8500
  970MOL0     C33769   6.666   4.970   4.618 -0.0585 -0.3274 -0.0953
  970MOL0     O33770   6.811   5.044   4.870  0.2364 -0.8547  0.3273
  970MOL0     C33771   7.070   5.046   4.966 -0.1183  0.1754  0.9626
  970MOL0     C33772   7.169   5.000   5.044 -0.3495 -0.5993 -0.6104
  970MOL0     N33773   8.014   4.875   4.868 -1.0978  0.3415 -0.3391
  970MOL0     N33774   8.089   4.950   4.799 -0.0764  0.4100 -0.3024
  970MOL0     C33775   8.132   5.845   4.329 -0.3105  0.5712  0.2267
  970MOL0     C33776   8.188   5.966   4.356  0.6528  0.1554 -1.1546
  970MOL0     C33777   8.277   6.398   4.529 -0.7106  0.5530 -0.0155
  970MOL0     C33778   8.230   6.530   4.547  0.9070 -0.1863 -0.3782
  970MOL0     C33779   8.308   6.621   4.613  0.0497 -0.2817  0.6092
  970MOL0     C33780   8.433   6.583   4.671  0.5894  0.3934  0.4312
  970MOL0     O33781   8.504   6.681   4.741 -0.1440  0.5362  0.1878
  970MOL0     C33782   8.443   6.691   4.871  0.5381 -0.6049 -0.7410
  970MOL0     C33783   8.458   6.841   4.913 -0.6240  0.3107  0.1039
  970MOL0     C33784   8.400   6.863   5.056 -1.0836  0.3276 -0.2760
  970MOL0     C33785   8.465   6.990   5.113  0.0495  0.0965 -0.1437
  970MOL0     C33786   8.479   6.981   5.260  0.2708 -0.2005 -0.5955
  970MOL0     C33787   8.487   6.974   5.377 -0.4232 -0.5415 -0.8298
  970MOL0     C33788   8.485   6.458   4.656  0.3341  0.2677  0.2720
  970MOL0     C33789   8.401   6.361   4.593  0.0891  0.4119  0.4103
  970MOL0     C33790   8.472   6.225   4.581  0.2180  0.4532 -0.1058
  970MOL0     H33791   7.977   6.101   4.573 -0.1185  0.4618 -0.7975
  970MOL0     H33792   7.837   5.896   4.493 -0.5542  0.9491 -0.7942
  970MOL0     H33793   7.764   5.764   4.288 -2.7093  0.4735  2.2696
  970MOL0     H33794   7.761   5.703   4.451  2.7174  0.1377  0.1310
  970MOL0     H33795   7.694   5.567   4.206 -0.8384  0.0977  1.1043
  970MOL0     H33796   7.861   5.505   4.237  1.1527  2.7226 -0.3956
  970MOL0     H33797   7.623   5.446   4.419 -0.4565 -1.0046 -1.0657
  970MOL0     H33798   7.733   5.353   4.344 -3.7963 -0.2805  2.7728
  970MOL0     H33799   7.930   5.413   4.480  0.0228 -2.1728  1.0353
  970MOL0     H33800   7.810   5.517   4.583  1.5172 -0.0079  1.9693
  970MOL0     H33801   7.782   5.215   4.516 -2.7468  0.2853  0.8281
  970MOL0     H33802   7.686   5.307   4.610  0.3390  2.5811 -0.5544
  970MOL0     H33803   7.859   5.343   4.783 -1.3362  2.9223 -2.0688
  970MOL0     H33804   7.828   5.170   4.732  0.8064  0.0215  0.1919
  970MOL0     H33805   8.069   5.347   4.640  0.4454  0.3922  0.4949
  970MOL0     H33806   8.035   5.186   4.585  0.7324  0.4663 -1.0955
  970MOL0     H33807   8.218   5.190   4.765  0.7650  1.3192  0.6010
  970MOL0     H33808   8.113   5.273   4.873 -1.2173 -0.8952  0.9166
  970MOL0     H33809   7.933   5.164   4.991  1.2530  0.9089  1.1098
  970MOL0     H33810   7.834   4.929   5.148  1.5441 -1.2019 -0.2609
  970MOL0     H33811   7.852   4.780   5.076 -1.0082  0.7757  2.4821
  970MOL0     H33812   7.687   5.003   4.963  1.8855  0.3321  2.2366
  970MOL0     H33813   7.694   4.837   4.894  1.4680  2.6499 -1.0740
  970MOL0     H33814   7.590   4.768   5.130 -0.7656  0.6083  0.5428
  970MOL0     H33815   7.585   4.930   5.179 -0.0653 -0.5906 -0.3401
  970MOL0     H33816   7.426   4.992   4.993 -0.6141 -0.1339  1.7292
  970MOL0     H33817   7.449   4.838   4.911  0.7382 -2.2017  0.1271
  970MOL0     H33818   7.201   4.689   4.910 -1.3255 -1.1949 -2.0484
  970MOL0     H33819   7.030   4.654   4.729  1.2627  0.6858 -1.1695
  970MOL0     H33820   7.007   4.796   4.635  3.1245 -0.5504 -0.1224
  970MOL0     H33821   6.885   4.756   4.754 -0.9601  0.2561 -1.9337
  970MOL0     H33822   6.802   5.242   4.476  0.4300 -0.0706 -1.7075
  970MOL0     H33823   6.593   5.238   4.350  0.7005  0.7189 -0.7716
  970MOL0     H33824   6.413   5.156   4.191 -0.5237  0.2279 -0.7824
  970MOL0     H33825   6.505   5.005   4.202  0.3769  0.9220  0.2047
  970MOL0     H33826   6.369   4.941   4.069  0.6858  2.3920 -0.9024
  970MOL0     H33827   6.256   4.906   4.211 -0.3016 -1.3134 -1.2456
  970MOL0     H33828   6.234   5.140   4.014 -1.9342 -1.1303 -2.0587
  970MOL0     H33829   6.132   5.123   4.151  0.7342 -2.6090  2.5812
  970MOL0     H33830   6.050   4.909   4.049 -0.6878  0.3571  0.9505
  970MOL0     H33831   6.161   4.918   3.917  2.9625  0.0254  2.9532
  970MOL0     H33832   6.060   5.139   3.868  2.1966 -1.1385  1.5574
  970MOL0     H33833   5.964   4.989   3.827  1.4998 -1.4221 -0.9449
  970MOL0     H33834   5.907   5.169   4.078 -3.1018 -1.3930  1.9017
  970MOL0     H33835   5.824   5.022   4.008  0.3967  0.3354 -1.6315
  970MOL0     H33836   5.844   5.301   3.891  2.6183 -0.5024  1.6625
  970MOL0     H33837   5.721   5.250   3.995  0.1112  1.0180  0.1698
  970MOL0     H33838   5.759   5.152   3.708 -2.0680 -2.2046 -1.0282
  970MOL0     H33839   5.615   5.230   3.788  1.3515  0.3771  1.1945
  970MOL0     H33840   6.464   4.902   4.596  0.0591 -1.2560  0.0019
  970MOL0     H33841   6.684   4.892   4.692  0.7809  1.3578  1.5856
  970MOL0     H33842   7.036   5.147   4.987 -0.4307  0.0026  1.2891
  970MOL0     H33843   7.208   5.057   5.128 -0.8853 -0.7052 -0.2808
  970MOL0     H33844   8.186   5.776   4.265 -0.3866  1.5016 -0.8693
  970MOL0     H33845   8.286   5.990   4.316 -1.4704  4.0709 -4.7589
  970MOL0     H33846   8.140   6.578   4.510  2.1108  0.6262 -2.4130
  970MOL0     H33847   8.267   6.719   4.636 -0.4621 -0.6136  1.1072
  970MOL0     H33848   8.335   6.676   4.878  0.2287  1.6224  0.0459
  970MOL0     H33849   8.485   6.622   4.944 -1.1906 -1.0228 -0.1055
  970MOL0     H33850   8.412   6.903   4.835  0.0785  3.3159  1.9295
  970MOL0     H33851   8.566   6.856   4.911 -0.7615  1.8064 -3.6829
  970MOL0     H33852   8.293   6.881   5.049 -1.4534 -1.5399 -0.0147
  970MOL0     H33853   8.416   6.773   5.117 -0.2821 -0.2188 -1.2556
  970MOL0     H33854   8.426   7.089   5.090  3.6959  1.3632 -1.6736
  970MOL0     H33855   8.569   6.995   5.079  0.2592  1.6135  0.6222
  970MOL0     H33856   8.487   6.977   5.484 -0.3469 -0.6738 -0.8259
  970MOL0     H33857   8.587   6.431   4.682  0.8598  1.8145 -0.1105
  970MOL0     H33858   8.581   6.229   4.589  0.9353 -5.0819 -2.4858
  970MOL0     H33859   8.433   6.155   4.655 -0.4264  0.1184 -0.7390
  970MOL0     H33860   8.461   6.172   4.486 -1.2522 -1.6527  1.1714
  971MOL0     O33861   3.679   1.833   4.971  0.5715 -0.2604 -0.1609
  971MOL0     C33862   3.564   1.793   4.983  1.0606  0.2297  1.2119
  971MOL0     O33863   3.519   1.677   4.932  0.0441  0.8953 -0.1902
  971MOL0     C33864   3.596   1.576   4.880  0.6807  0.5255 -0.2716
  971MOL0     C33865   3.540   1.502   4.781  0.1809  0.0937  0.1852
  971MOL0     C33866   3.607   1.400   4.723 -1.1357 -0.5328 -0.0110
  971MOL0     C33867   3.732   1.357   4.762 -0.5174  0.3225 -0.0882
  971MOL0     O33868   3.781   1.249   4.692  0.0587 -0.6282  0.5898
  971MOL0     C33869   3.921   1.218   4.712 -0.2191 -0.0132  0.2842
  971MOL0     C33870   3.962   1.088   4.642 -0.4298  0.5137 -0.9292
  971MOL0     C33871   3.990   1.115   4.497  0.1686 -0.4657 -0.2699
  971MOL0     C33872   4.133   1.176   4.473  0.5498  0.0924 -0.7835
  971MOL0     C33873   4.170   1.157   4.323  0.1192  0.0182  0.2128
  971MOL0     C33874   4.273   1.268   4.294 -0.0640  0.8148 -0.0070
  971MOL0     C33875   4.406   1.243   4.370 -0.1619  0.3971  0.2570
  971MOL0     C33876   4.520   1.334   4.324  0.2908  0.0477  0.2552
  971MOL0     N33877   4.586   1.299   4.195  0.7773  0.3706 -0.2105
  971MOL0     C33878   4.579   1.358   4.076  0.2308  0.3266  0.5451
  971MOL0     C33879   4.591   1.259   3.988  0.7914  0.0238 -0.0919
  971MOL0     C33880   4.597   1.284   3.841 -0.1768  0.2275  0.3846
  971MOL0     C33881   4.571   1.160   3.762  0.2593  0.1862 -0.1129
  971MOL0     C33882   4.589   1.188   3.610 -0.4675 -0.5716  0.6617
  971MOL0     C33883   4.595   1.067   3.515 -0.5222  1.1192  0.1083
  971MOL0     O33884   4.486   0.979   3.560 -0.0136  0.8108  0.5190
  971MOL0     C33885   4.473   0.852   3.517 -0.1899 -0.6826 -0.0071
  971MOL0     C33886   4.374   0.769   3.562  0.0446 -0.4019  0.0205
  971MOL0     C33887   4.357   0.644   3.505 -0.0579 -0.9399  0.5257
  971MOL0     C33888   4.233   0.574   3.554  0.7201 -0.5030 -0.5266
  971MOL0     C33889   4.453   0.593   3.413  0.2586  0.3167  0.1464
  971MOL0     C33890   4.439   0.456   3.346  0.4235  0.1611 -0.1456
  971MOL0     O33891   4.504   0.431   3.233 -0.1383 -0.2589  0.7172
  971MOL0     C33892   4.471   0.319   3.164 -0.3741 -0.2363  0.2526
  971MOL0     C33893   4.580   0.237   3.163  0.2276 -0.4883 -0.3727
  971MOL0     C33894   4.589   0.130   3.080 -0.5105 -0.2620  0.9737
  971MOL0     C33895   4.480   0.090   3.001  0.8790 -1.0986  1.1240
  971MOL0     O33896   4.470  -0.018   2.921  0.6883  0.5004 -0.0958
  971MOL0     C33897   4.583  -0.058   2.849 -0.7657 -0.2743  0.3433
  971MOL0     C33898   4.559  -0.191   2.789  0.6167 -0.2308 -0.6450
  971MOL0     C33899   4.665  -0.254   2.698  0.2182 -0.0288 -0.3633
  971MOL0     C33900   4.766  -0.327   2.781  0.8980  0.4052 -0.0014
  971MOL0     C33901   4.883  -0.400   2.712 -0.0493 -0.0540 -0.6566
  971MOL0     C33902   4.837  -0.527   2.628 -0.8114  0.4552  0.0813
  971MOL0     C33903   4.979  -0.585   2.562  0.6568 -0.7918  0.7910
  971MOL0     C33904   5.030  -0.702   2.647  0.2964  0.0081  1.1849
  971MOL0    Cl33905   5.189  -0.742   2.562 -0.2454 -0.3500 -0.1911
  971MOL0     C33906   4.367   0.181   3.007  0.5870 -0.6751  0.4662
  971MOL0     C33907   4.362   0.303   3.081 -0.0839  0.3904 -0.3044
  971MOL0     O33908   4.368   0.372   3.399 -0.5265 -0.1224 -0.5813
  971MOL0     C33909   4.548   0.680   3.363 -0.6137 -0.3351  0.0215
  971MOL0     C33910   4.558   0.807   3.417  0.2775  0.0415  0.5728
  971MOL0     N33911   4.627   1.143   4.054 -0.6471 -0.3170 -0.6829
  971MOL0     N33912   4.625   1.163   4.179 -0.1294  0.2768 -0.8966
  971MOL0     C33913   3.792   1.425   4.868  1.0826  0.1947  0.2428
  971MOL0     C33914   3.725   1.539   4.928 -0.6766 -0.7371  0.3973
  971MOL0     C33915   3.471   1.851   5.082  0.5955 -0.1032 -0.2635
  971MOL0     C33916   3.409   1.761   5.170  0.0499 -0.1964  0.0409
  971MOL0     C33917   3.336   1.801   5.277  0.7587  0.4794  0.4846
  971MOL0     C33918   3.310   1.933   5.294 -0.4226  0.2645  0.2229
  971MOL0     O33919   3.243   1.984   5.398 -0.0627  0.2944 -0.1489
  971MOL0     C33920   3.117   2.046   5.368 -0.1211 -0.1925  0.3866
  971MOL0     C33921   3.091   2.168   5.460  0.6123  0.0811 -0.2684
  971MOL0     C33922   2.983   2.272   5.398 -0.3260 -0.9464 -0.4504
  971MOL0     C33923   3.049   2.412   5.391  0.2158 -0.2861  0.3613
  971MOL0     C33924   3.175   2.436   5.317 -0.1193  1.4765 -0.0001
  971MOL0     C33925   3.286   2.453   5.269  0.1212  0.0055 -0.3455
  971MOL0     C33926   3.372   2.024   5.205 -0.8243 -0.5340  0.6948
  971MOL0     C33927   3.452   1.991   5.096 -0.5796  0.2283  0.1762
  971MOL0     C33928   3.515   2.105   5.023  1.2016 -0.5514  0.5095
  971MOL0     H33929   3.438   1.520   4.750 -1.1471  1.5359  4.6584
  971MOL0     H33930   3.551   1.346   4.647  0.2011  0.0699 -1.4766
  971MOL0     H33931   3.929   1.197   4.819  0.6970  1.4390  0.5181
  971MOL0     H33932   3.988   1.296   4.677 -0.4130 -0.6263 -1.5724
  971MOL0     H33933   4.052   1.048   4.688 -1.7023 -0.8987  0.4280
  971MOL0     H33934   3.885   1.011   4.649  0.3915 -0.1599  1.6346
  971MOL0     H33935   3.983   1.020   4.443  0.5191  1.0495 -3.2201
  971MOL0     H33936   3.908   1.172   4.453 -0.5887 -1.2597  0.0845
  971MOL0     H33937   4.116   1.282   4.496 -1.3798 -0.5119  0.8819
  971MOL0     H33938   4.208   1.135   4.541 -1.7916 -1.5753  0.9566
  971MOL0     H33939   4.082   1.157   4.258 -0.9143  0.5787  1.5580
  971MOL0     H33940   4.218   1.059   4.316  1.1717  0.3606  1.8920
  971MOL0     H33941   4.288   1.263   4.186  1.1578  2.4632  0.0456
  971MOL0     H33942   4.231   1.368   4.310  0.7468  1.0313  0.8605
  971MOL0     H33943   4.436   1.139   4.361 -1.9093  0.0048 -2.0823
  971MOL0     H33944   4.380   1.272   4.472  1.8267  2.1776  0.3353
  971MOL0     H33945   4.479   1.436   4.323 -0.1799 -0.1319  0.6755
  971MOL0     H33946   4.600   1.329   4.398  2.6541  3.1385 -1.7951
  971MOL0     H33947   4.572   1.464   4.054 -0.4896  0.1477 -0.1222
  971MOL0     H33948   4.701   1.309   3.817 -0.2653  0.1553 -0.0886
  971MOL0     H33949   4.530   1.366   3.816  1.9899  1.5526 -1.4154
  971MOL0     H33950   4.635   1.074   3.784 -0.4274 -0.2386  0.2448
  971MOL0     H33951   4.469   1.129   3.788  0.9367 -2.2803 -0.1377
  971MOL0     H33952   4.513   1.253   3.567  1.5722  0.8861 -0.9569
  971MOL0     H33953   4.669   1.261   3.595 -1.1836  0.8619  3.3409
  971MOL0     H33954   4.581   1.093   3.410  1.7805 -1.4628 -0.9517
  971MOL0     H33955   4.695   1.027   3.532 -0.3115  2.4073  2.1797
  971MOL0     H33956   4.296   0.815   3.622  0.2619  0.4714 -0.3613
  971MOL0     H33957   4.168   0.540   3.472 -2.7094 -3.0510  2.9091
  971MOL0     H33958   4.172   0.640   3.616  0.5423 -1.2558  0.1151
  971MOL0     H33959   4.252   0.476   3.598 -0.6943 -2.0652 -3.0864
  971MOL0     H33960   4.672   0.260   3.216  0.1925  1.2473 -0.9948
  971MOL0     H33961   4.686   0.081   3.078  0.1934  0.8226 -3.3264
  971MOL0     H33962   4.598   0.018   2.772 -3.3474 -1.5486 -1.5444
  971MOL0     H33963   4.670  -0.057   2.916  0.3980 -0.4316 -1.1188
  971MOL0     H33964   4.530  -0.261   2.867  0.3506 -0.6508 -1.1142
  971MOL0     H33965   4.468  -0.163   2.736 -0.7847 -0.5089  1.4990
  971MOL0     H33966   4.704  -0.182   2.625 -1.9310 -0.7208 -2.3337
  971MOL0     H33967   4.616  -0.332   2.638  0.4230 -1.7701  1.6295
  971MOL0     H33968   4.716  -0.393   2.852  0.5175 -0.8461 -1.4004
  971MOL0     H33969   4.816  -0.252   2.844  2.2006  0.5026 -1.1176
  971MOL0     H33970   4.924  -0.327   2.642  0.1712  1.6783  1.1906
  971MOL0     H33971   4.960  -0.438   2.780 -2.9434 -1.7469  1.9367
  971MOL0     H33972   4.767  -0.487   2.555  1.6373  1.7562 -1.7187
  971MOL0     H33973   4.783  -0.603   2.685 -0.4031  1.4208  1.8411
  971MOL0     H33974   5.059  -0.510   2.554  1.0009 -1.3016 -1.1777
  971MOL0     H33975   4.958  -0.618   2.460  0.8796 -0.4601  0.6354
  971MOL0     H33976   4.966  -0.790   2.650 -1.7934  1.4757  3.3010
  971MOL0     H33977   5.053  -0.676   2.751 -0.4022 -0.2650  1.4111
  971MOL0     H33978   4.284   0.146   2.946 -1.9412  4.6128  0.2824
  971MOL0     H33979   4.276   0.368   3.089 -0.2958  0.1819 -0.8672
  971MOL0     H33980   4.615   0.662   3.279 -0.9482  1.5795 -0.6962
  971MOL0     H33981   4.630   0.871   3.366 -0.7082  3.2579  2.9408
  971MOL0     H33982   3.888   1.390   4.904  1.3329 -0.4308 -0.9759
  971MOL0     H33983   3.765   1.584   5.018 -2.9695 -0.8267  1.5411
  971MOL0     H33984   3.428   1.654   5.160 -1.3702 -0.3874 -0.8146
  971MOL0     H33985   3.301   1.732   5.353  0.8951 -0.4424 -0.2747
  971MOL0     H33986   3.111   2.080   5.264 -0.0767 -0.2774  0.3557
  971MOL0     H33987   3.043   1.966   5.365  1.4688 -1.7174 -2.1096
  971MOL0     H33988   3.188   2.217   5.474  1.7752 -1.8572 -1.2082
  971MOL0     H33989   3.041   2.143   5.555  2.7531 -0.1787  0.8567
  971MOL0     H33990   2.952   2.265   5.293 -0.4011 -1.8389 -0.3764
  971MOL0     H33991   2.894   2.281   5.460  1.5636  2.7174  2.0635
  971MOL0     H33992   3.063   2.438   5.496 -0.8407 -1.4348  0.8211
  971MOL0     H33993   2.977   2.479   5.342  2.2871  0.5906 -1.6491
  971MOL0     H33994   3.384   2.450   5.225 -0.2091 -1.0985 -1.0601
  971MOL0     H33995   3.358   2.128   5.231  2.8139  0.0688  0.6518
  971MOL0     H33996   3.582   2.148   5.098 -0.4960  0.8022  1.3216
  971MOL0     H33997   3.570   2.082   4.931  0.1979 -0.5297 -0.1131
  971MOL0     H33998   3.436   2.176   4.996  1.7508  0.9962  2.7087
  972MOL0     O33999   1.430   1.837  10.118 -1.0802  0.7468  0.2452
  972MOL0     C34000   1.496   1.830  10.013 -0.5392  0.6527  0.8444
  972MOL0     O34001   1.628   1.779  10.005 -0.1871 -0.1057 -0.9007
  972MOL0     C34002   1.678   1.714  10.118  0.1502  0.3013  0.6766
  972MOL0     C34003   1.616   1.592  10.164  0.0298 -1.3067  0.3855
  972MOL0     C34004   1.685   1.517  10.252  0.2112 -0.2117  0.8753
  972MOL0     C34005   1.800   1.566  10.319 -0.3226 -0.7542 -0.7664
  972MOL0     O34006   1.861   1.493  10.416  0.1860 -0.0495 -0.2982
  972MOL0     C34007   1.865   1.355  10.405  0.2623  0.5101 -0.0806
  972MOL0     C34008   1.899   1.295  10.541 -0.2942 -0.6273 -0.4677
  972MOL0     C34009   1.952   1.149  10.532 -0.1358  1.1534 -0.2993
  972MOL0     C34010   2.026   1.098  10.658 -0.6434 -0.0058 -0.1362
  972MOL0     C34011   2.059   0.949  10.649  0.4040 -0.3889 -0.6005
  972MOL0     C34012   2.108   0.904  10.788 -0.1198 -0.4735 -0.1595
  972MOL0     C34013   2.102   0.753  10.811  0.4992  0.4870  0.6222
  972MOL0     C34014   2.098   0.712  10.958 -0.1940  0.0550  0.9299
  972MOL0     N34015   2.221   0.709  11.034  1.1328 -0.6218  0.4201
  972MOL0     C34016   2.312   0.610  11.035 -0.2734 -0.3804  0.2850
  972MOL0     C34017   2.412   0.663  11.106 -0.6873  1.4319  0.4408
  972MOL0     C34018   2.555   0.609  11.109 -0.5261  0.0613  0.4909
  972MOL0     C34019   2.576   0.504  11.219 -0.7783 -0.6632  0.3694
  972MOL0     C34020   2.553   0.376  11.167  0.4105  0.8917  1.4271
  972MOL0     C34021   2.583   0.261  11.265  0.2348  0.4298  0.5205
  972MOL0     O34022   2.478   0.250  11.353  0.0780  0.1923 -0.4554
  972MOL0     C34023   2.432   0.126  11.399 -0.2243 -0.4676 -0.0308
  972MOL0     C34024   2.310   0.124  11.469  0.4025  0.2543 -0.4498
  972MOL0     C34025   2.253   0.004  11.509  0.5138 -0.2142  0.6911
  972MOL0     C34026   2.107   0.022  11.570 -0.4043  0.0345  0.4929
  972MOL0     C34027   2.328  -0.114  11.497 -0.4739 -0.5154  0.7491
  972MOL0     C34028   2.265  -0.248  11.523 -0.9244  0.3498  0.9370
  972MOL0     O34029   2.137  -0.268  11.485 -0.3359 -0.3752  0.5187
  972MOL0     C34030   2.087  -0.393  11.498  0.0128 -0.3852 -0.1180
  972MOL0     C34031   2.010  -0.397  11.619  0.3563  0.5760 -0.6204
  972MOL0     C34032   1.950  -0.524  11.662  0.2803  0.2519 -0.0078
  972MOL0     C34033   1.975  -0.635  11.584 -0.5377  0.5472  0.1244
  972MOL0     O34034   1.936  -0.754  11.634 -0.1148  0.8329 -0.0531
  972MOL0     C34035   2.043  -0.843  11.668 -0.0817  0.2965  0.0005
  972MOL0     C34036   1.981  -0.961  11.744  0.1244 -0.3594  0.9534
  972MOL0     C34037   1.908  -0.909  11.871 -0.0585  0.3456 -0.2290
  972MOL0     C34038   1.757  -0.886  11.853  0.4823 -0.5811 -0.5033
  972MOL0     C34039   1.683  -0.849  11.985  0.6397 -0.2971  0.1961
  972MOL0     C34040   1.722  -0.936  12.098 -0.3512  0.0992  0.2147
  972MOL0     C34041   1.700  -1.085  12.078 -0.0772 -0.4380 -0.2885
  972MOL0     C34042   1.725  -1.154  12.210  0.5855  0.1098  0.6383
  972MOL0    Cl34043   1.585  -1.133  12.324  0.0653  0.2343  0.1148
  972MOL0     C34044   2.046  -0.630  11.457 -0.2503  0.7715  1.2254
  972MOL0     C34045   2.096  -0.512  11.413  0.7307  0.1441  0.3436
  972MOL0     O34046   2.342  -0.333  11.576 -0.4552 -0.4868  0.3109
  972MOL0     C34047   2.461  -0.107  11.453  0.2725  0.0972  0.3841
  972MOL0     C34048   2.513   0.009  11.412  0.7834 -0.2395  1.0975
  972MOL0     N34049   2.379   0.780  11.154  0.0119 -0.5518  0.0094
  972MOL0     N34050   2.265   0.819  11.103  0.0431 -0.0953  0.3629
  972MOL0     C34051   1.852   1.685  10.273  0.4532  0.4099  0.4288
  972MOL0     C34052   1.800   1.754  10.169 -0.4626  0.5646 -0.5397
  972MOL0     C34053   1.432   1.874   9.887 -0.6600 -0.1449  0.7556
  972MOL0     C34054   1.294   1.885   9.880 -0.1281 -0.4880  0.1850
  972MOL0     C34055   1.234   1.933   9.765 -0.0301  0.0647  0.4592
  972MOL0     C34056   1.306   1.960   9.649 -0.1491 -0.6307 -0.8242
  972MOL0     O34057   1.254   2.009   9.531 -0.3720 -0.5897 -0.2931
  972MOL0     C34058   1.118   2.029   9.512  0.6443  0.6485 -0.4956
  972MOL0     C34059   1.076   2.103   9.389  0.1242  0.7021 -0.1185
  972MOL0     C34060   0.933   2.069   9.340 -0.2318 -0.1575 -0.6274
  972MOL0     C34061   0.824   2.044   9.445 -0.1327 -0.2674 -0.5076
  972MOL0     C34062   0.749   2.153   9.499  0.2481  0.4117 -0.3307
  972MOL0     C34063   0.695   2.251   9.550  0.0105  1.1709  0.0246
  972MOL0     C34064   1.438   1.934   9.648  0.0308  0.4225 -0.7756
  972MOL0     C34065   1.509   1.896   9.770 -0.8470  0.4680 -0.0548
  972MOL0     C34066   1.662   1.900   9.758  0.5999 -0.1143 -0.1041
  972MOL0     H34067   1.523   1.557  10.121 -1.3662 -1.1146  3.0055
  972MOL0     H34068   1.636   1.421  10.261  0.0002 -0.1862  0.1213
  972MOL0     H34069   1.950   1.335  10.339 -0.3851 -0.6360 -0.6086
  972MOL0     H34070   1.776   1.307  10.363 -0.0828  0.0589  1.1308
  972MOL0     H34071   1.975   1.352  10.596  0.4833 -0.8425 -1.2921
  972MOL0     H34072   1.808   1.298  10.600  0.4036 -1.7185  0.6964
  972MOL0     H34073   1.868   1.081  10.519 -0.6680  1.0867  2.6392
  972MOL0     H34074   2.029   1.139  10.455  1.7540 -0.8511  1.7070
  972MOL0     H34075   2.112   1.160  10.685 -2.6167  1.6456  2.9260
  972MOL0     H34076   1.966   1.115  10.748  2.4144 -1.2065  2.2878
  972MOL0     H34077   2.138   0.916  10.582  1.6552 -4.4515  2.4484
  972MOL0     H34078   1.968   0.899  10.616 -0.4224  0.4479  0.3192
  972MOL0     H34079   2.206   0.948  10.805 -0.4365 -0.9766  4.1986
  972MOL0     H34080   2.045   0.947  10.867 -1.2046  2.9896 -2.7048
  972MOL0     H34081   2.189   0.712  10.759  1.4729  0.2128  2.3941
  972MOL0     H34082   2.016   0.705  10.765  2.5200 -1.6862 -1.1775
  972MOL0     H34083   2.030   0.783  11.005 -0.8881  1.8046 -2.4201
  972MOL0     H34084   2.061   0.609  10.953  1.5199 -0.6492  1.8047
  972MOL0     H34085   2.296   0.513  10.989  0.3623 -0.1443 -0.4486
  972MOL0     H34086   2.621   0.694  11.127  0.4638 -0.6265  0.2235
  972MOL0     H34087   2.600   0.586  11.012  0.0158  2.0819  0.2205
  972MOL0     H34088   2.676   0.505  11.264 -1.3344  1.1009  1.6560
  972MOL0     H34089   2.511   0.526  11.304  1.2968 -2.2236  2.5267
  972MOL0     H34090   2.453   0.372  11.124  0.3923  4.4183  0.8228
  972MOL0     H34091   2.629   0.360  11.090 -1.0469  0.9877 -0.0784
  972MOL0     H34092   2.580   0.171  11.204 -1.7124  0.7238  0.1176
  972MOL0     H34093   2.682   0.272  11.310 -0.2833  2.3248  1.2932
  972MOL0     H34094   2.250   0.211  11.494  1.6687  0.3988  2.4639
  972MOL0     H34095   2.031   0.001  11.494  0.8592  0.1039 -0.8351
  972MOL0     H34096   2.108   0.117  11.623  0.4290 -0.2546  1.0024
  972MOL0     H34097   2.095  -0.052  11.650 -0.5314 -0.7224 -0.2060
  972MOL0     H34098   2.020  -0.312  11.686  0.4736  1.3501 -1.5792
  972MOL0     H34099   1.889  -0.529  11.751 -0.9940  4.3858 -0.4269
  972MOL0     H34100   2.092  -0.884  11.579  0.8528  3.2086 -0.9284
  972MOL0     H34101   2.125  -0.794  11.721  0.5482 -1.4362  0.7018
  972MOL0     H34102   1.917  -1.023  11.679  1.6306 -2.2582  1.1887
  972MOL0     H34103   2.059  -1.031  11.776 -0.6910 -0.9752  1.6128
  972MOL0     H34104   1.948  -0.814  11.908  1.1026 -0.0203 -0.4851
  972MOL0     H34105   1.936  -0.978  11.952 -1.6457  2.0857  1.9166
  972MOL0     H34106   1.705  -0.975  11.815  0.3142 -1.0761  0.8279
  972MOL0     H34107   1.744  -0.812  11.773 -0.3785  0.0781  0.2240
  972MOL0     H34108   1.697  -0.743  12.008  0.0340 -0.5424  1.7805
  972MOL0     H34109   1.575  -0.841  11.969  0.5640  4.8180  1.6652
  972MOL0     H34110   1.653  -0.910  12.179 -2.1237 -1.5730 -0.6664
  972MOL0     H34111   1.824  -0.913  12.127 -0.2685  1.7540 -1.2939
  972MOL0     H34112   1.773  -1.120  12.004  0.8391  0.4169  0.1799
  972MOL0     H34113   1.598  -1.112  12.049 -0.5589 -0.5634  1.4354
  972MOL0     H34114   1.817  -1.112  12.250 -0.2647  1.9324  0.7838
  972MOL0     H34115   1.726  -1.262  12.191 -1.6999 -0.2677  2.2274
  972MOL0     H34116   2.045  -0.714  11.389  2.3679  2.1798 -0.7209
  972MOL0     H34117   2.155  -0.512  11.322 -0.7052  0.7305 -0.6195
  972MOL0     H34118   2.512  -0.202  11.439 -2.9973 -1.8544  0.7294
  972MOL0     H34119   2.617   0.012  11.379  0.5919  1.8906  0.5744
  972MOL0     H34120   1.938   1.723  10.328 -1.3701  2.2499  2.1701
  972MOL0     H34121   1.851   1.841  10.129  0.5941  0.2703  0.1445
  972MOL0     H34122   1.234   1.868   9.968  0.2270 -0.4104  0.4468
  972MOL0     H34123   1.127   1.951   9.758  0.2527  1.0450 -3.8161
  972MOL0     H34124   1.076   1.928   9.519 -0.6969  1.2596  4.8605
  972MOL0     H34125   1.071   2.075   9.599 -1.2641  0.2119 -1.2461
  972MOL0     H34126   1.147   2.068   9.314 -0.0181 -2.3292  1.0077
  972MOL0     H34127   1.091   2.209   9.412 -0.1202  0.4153  1.4686
  972MOL0     H34128   0.898   2.143   9.268 -0.8773 -0.4488 -0.6261
  972MOL0     H34129   0.930   1.978   9.279 -1.0396  0.9206 -2.2572
  972MOL0     H34130   0.871   1.994   9.530  0.1169  0.7588 -0.0331
  972MOL0     H34131   0.761   1.969   9.397  1.6424 -1.2060 -1.4866
  972MOL0     H34132   0.650   2.338   9.593 -1.0158  1.6259 -1.8749
  972MOL0     H34133   1.485   1.939   9.550  1.1933  1.6471 -0.1900
  972MOL0     H34134   1.693   1.954   9.848 -2.8241 -1.2958  1.9876
  972MOL0     H34135   1.693   1.797   9.737 -1.7918 -0.9315  0.0453
  972MOL0     H34136   1.687   1.964   9.674 -1.0757  1.5860  0.6235
  973MOL0     O34137   3.425   7.626   2.572 -0.0809 -0.3502  0.5582
  973MOL0     C34138   3.503   7.547   2.614 -0.3128 -0.2007 -0.1767
  973MOL0     O34139   3.613   7.584   2.687  0.0811  0.2317 -0.3231
  973MOL0     C34140   3.646   7.711   2.703 -0.7120 -0.0163  0.2826
  973MOL0     C34141   3.677   7.794   2.599 -1.0219 -0.7996  0.7987
  973MOL0     C34142   3.729   7.924   2.615  0.5409  0.1095 -0.4826
  973MOL0     C34143   3.743   7.986   2.746  0.6152  0.7592 -0.0201
  973MOL0     O34144   3.788   8.111   2.767  0.1662 -0.9275  0.0514
  973MOL0     C34145   3.845   8.181   2.651 -0.2387  0.3391 -0.2040
  973MOL0     C34146   3.877   8.330   2.692 -0.1768  0.1727 -0.4215
  973MOL0     C34147   3.983   8.330   2.795  0.8212  0.0353 -0.1621
  973MOL0     C34148   4.119   8.316   2.728 -0.9836  0.0581 -1.0412
  973MOL0     C34149   4.202   8.202   2.802  0.6574  0.2075 -0.1380
  973MOL0     C34150   4.336   8.178   2.735 -0.3690  0.1120 -0.6248
  973MOL0     C34151   4.442   8.273   2.786  0.9669 -0.6760 -0.6664
  973MOL0     C34152   4.481   8.253   2.932 -0.0525  0.3544 -1.0808
  973MOL0     N34153   4.577   8.354   2.983 -0.0449  0.1116  0.0737
  973MOL0     C34154   4.698   8.355   2.923 -0.2003  0.4454 -0.4468
  973MOL0     C34155   4.745   8.481   2.951 -0.0292  0.1937 -0.2947
  973MOL0     C34156   4.880   8.538   2.901  0.2611  0.1059 -0.3414
  973MOL0     C34157   4.984   8.549   3.004 -0.4653  0.1630  0.9192
  973MOL0     C34158   5.081   8.429   2.998 -0.2255 -0.2893 -0.2605
  973MOL0     C34159   5.200   8.442   3.090 -0.6348  0.4888  0.0183
  973MOL0     O34160   5.283   8.554   3.067 -0.2715  0.0396  0.4795
  973MOL0     C34161   5.392   8.571   3.149 -0.3388  0.7501 -0.0453
  973MOL0     C34162   5.456   8.691   3.127  0.8931  1.3337  0.9692
  973MOL0     C34163   5.582   8.715   3.177 -0.3333 -0.0797 -0.5812
  973MOL0     C34164   5.661   8.823   3.110 -0.4263 -0.4922 -0.1346
  973MOL0     C34165   5.622   8.650   3.301 -0.1930  1.9002 -0.2742
  973MOL0     C34166   5.744   8.684   3.382 -0.1180 -0.2420  0.0834
  973MOL0     O34167   5.789   8.587   3.469  0.2278 -0.8898  0.5129
  973MOL0     C34168   5.868   8.621   3.577 -0.2804  0.4403 -0.4423
  973MOL0     C34169   5.965   8.527   3.612 -0.2907  0.0185 -0.1573
  973MOL0     C34170   6.047   8.544   3.729  0.1242  0.4477 -0.7750
  973MOL0     C34171   6.031   8.664   3.798 -0.0321  0.1095 -0.3060
  973MOL0     O34172   6.130   8.680   3.885  0.0928 -0.1363 -0.5659
  973MOL0     C34173   6.171   8.806   3.936  0.3799 -1.0186 -0.1101
  973MOL0     C34174   6.257   8.892   3.833  0.6723  0.5412  0.4536
  973MOL0     C34175   6.281   9.021   3.907 -0.3406 -0.6409  0.3415
  973MOL0     C34176   6.354   9.122   3.816 -0.1023 -0.3702  1.1871
  973MOL0     C34177   6.397   9.250   3.883 -0.1534 -0.4949  0.2247
  973MOL0     C34178   6.279   9.339   3.935  0.1198  0.0915 -0.9575
  973MOL0     C34179   6.316   9.422   4.059 -0.0849 -0.2770  1.0732
  973MOL0     C34180   6.350   9.340   4.174  1.0479 -0.2786  0.2607
  973MOL0    Cl34181   6.264   9.401   4.324  0.5825 -0.2140  0.7681
  973MOL0     C34182   5.928   8.758   3.763  0.6393  0.1049 -0.0799
  973MOL0     C34183   5.856   8.732   3.648  0.4033 -0.3806  0.9901
  973MOL0     O34184   5.802   8.789   3.360 -0.0440  0.5189  0.9479
  973MOL0     C34185   5.558   8.523   3.330 -0.3761  0.3927 -1.3240
  973MOL0     C34186   5.442   8.485   3.250 -1.5059  0.7638 -0.4088
  973MOL0     N34187   4.650   8.549   3.022 -0.2708 -0.7214  0.2638
  973MOL0     N34188   4.547   8.476   3.039  0.0661  0.3381 -0.8537
  973MOL0     C34189   3.716   7.896   2.861  0.5182 -0.0764  0.5285
  973MOL0     C34190   3.674   7.760   2.833 -0.6001  0.2611  0.7234
  973MOL0     C34191   3.463   7.407   2.622  0.2292 -0.5521 -0.8867
  973MOL0     C34192   3.483   7.349   2.746  0.5670 -0.1062  0.6288
  973MOL0     C34193   3.453   7.216   2.762 -0.4566  0.7918 -0.3250
  973MOL0     C34194   3.414   7.131   2.659 -0.3482  0.0092  0.7046
  973MOL0     O34195   3.387   6.998   2.664  0.3928 -0.1661 -0.0031
  973MOL0     C34196   3.495   6.909   2.676  0.4978 -0.1898  0.2891
  973MOL0     C34197   3.527   6.850   2.547 -0.1734  0.1481  0.3076
  973MOL0     C34198   3.418   6.778   2.463  0.3621  0.2045 -0.0434
  973MOL0     C34199   3.459   6.727   2.329  0.4589 -0.3570  0.6951
  973MOL0     C34200   3.448   6.836   2.232 -0.2702 -1.0895 -1.1542
  973MOL0     C34201   3.444   6.924   2.152  0.0852  0.1904 -0.3290
  973MOL0     C34202   3.403   7.189   2.530  0.3827  0.1240 -0.4715
  973MOL0     C34203   3.426   7.331   2.511 -0.3868 -0.2251  0.7821
  973MOL0     C34204   3.425   7.382   2.365 -1.0987 -0.3082 -0.1897
  973MOL0     H34205   3.659   7.772   2.494 -1.0416  1.6169  0.2154
  973MOL0     H34206   3.755   7.994   2.536  0.4617  1.7571  0.8976
  973MOL0     H34207   3.789   8.204   2.559  3.4646  2.4492 -2.2069
  973MOL0     H34208   3.929   8.116   2.624 -1.0174 -0.7002 -0.1664
  973MOL0     H34209   3.914   8.391   2.609  1.9741 -1.1588 -0.5285
  973MOL0     H34210   3.782   8.368   2.730 -0.6515  0.0492 -1.4565
  973MOL0     H34211   3.984   8.423   2.853 -0.3854 -0.2755  0.3940
  973MOL0     H34212   3.964   8.249   2.866  1.1389  0.2041  0.1214
  973MOL0     H34213   4.106   8.278   2.626 -1.0645 -0.7514 -0.7296
  973MOL0     H34214   4.171   8.412   2.741 -1.0885 -0.2777  3.9982
  973MOL0     H34215   4.147   8.109   2.788  2.2917 -0.6025 -1.4729
  973MOL0     H34216   4.201   8.229   2.908  1.2828  1.2572 -0.3800
  973MOL0     H34217   4.372   8.079   2.764 -3.2346 -1.6982 -2.7558
  973MOL0     H34218   4.332   8.185   2.626  0.8319 -1.3210 -0.7931
  973MOL0     H34219   4.412   8.375   2.759 -0.7126 -1.3875 -1.6346
  973MOL0     H34220   4.525   8.253   2.717  1.8428 -0.3066  0.2547
  973MOL0     H34221   4.391   8.255   2.994 -0.3060  0.2311 -1.4406
  973MOL0     H34222   4.530   8.156   2.938 -0.9940 -0.0993 -0.5246
  973MOL0     H34223   4.747   8.276   2.866  3.5912  0.8114  1.9912
  973MOL0     H34224   4.879   8.637   2.854  3.1694 -0.6001 -2.1243
  973MOL0     H34225   4.907   8.484   2.810 -1.1352  1.5756 -1.7033
  973MOL0     H34226   5.040   8.641   2.987 -1.5604  1.2330  2.8384
  973MOL0     H34227   4.933   8.564   3.099 -1.3198  0.5979  0.4004
  973MOL0     H34228   5.022   8.338   3.015 -3.7544  2.2021  2.6388
  973MOL0     H34229   5.123   8.427   2.897  0.5283 -2.3634  0.0482
  973MOL0     H34230   5.164   8.431   3.193 -2.6711 -1.9073 -0.8501
  973MOL0     H34231   5.258   8.354   3.061 -2.0527  0.0427 -1.6376
  973MOL0     H34232   5.415   8.747   3.045  0.2058 -2.3454 -1.4395
  973MOL0     H34233   5.601   8.861   3.027 -2.2410  0.7937  1.6571
  973MOL0     H34234   5.759   8.784   3.082 -0.4859 -2.3359  1.9648
  973MOL0     H34235   5.674   8.903   3.184 -1.4046 -0.6676  0.2486
  973MOL0     H34236   5.966   8.428   3.567 -0.2703 -1.4833  2.9393
  973MOL0     H34237   6.128   8.479   3.760  0.6350  1.8666  0.9932
  973MOL0     H34238   6.086   8.866   3.969  0.7540 -2.4595  4.1640
  973MOL0     H34239   6.228   8.802   4.030 -0.5977 -1.1059  0.4951
  973MOL0     H34240   6.351   8.837   3.817  0.7267  0.2833  1.5125
  973MOL0     H34241   6.200   8.907   3.742 -1.3214 -2.2207  1.1145
  973MOL0     H34242   6.347   8.985   3.986 -0.6965  1.3113  1.5802
  973MOL0     H34243   6.190   9.060   3.951  0.1774 -1.0639  1.8436
  973MOL0     H34244   6.290   9.149   3.732  0.1893 -0.5476  0.9050
  973MOL0     H34245   6.438   9.065   3.775  0.6383  1.9094 -0.7401
  973MOL0     H34246   6.467   9.225   3.964  2.1873 -0.9071 -1.8306
  973MOL0     H34247   6.460   9.310   3.817 -1.3798  1.4353  0.7054
  973MOL0     H34248   6.193   9.273   3.952  1.5804 -2.3960 -2.5862
  973MOL0     H34249   6.261   9.411   3.855  1.4125  1.0354 -0.4336
  973MOL0     H34250   6.229   9.485   4.077 -2.1734 -2.2532 -1.2425
  973MOL0     H34251   6.402   9.487   4.041 -0.8630  0.5255  0.1040
  973MOL0     H34252   6.458   9.344   4.195  0.8449 -0.3783  1.3335
  973MOL0     H34253   6.319   9.238   4.151 -1.1387  0.1122  1.2600
  973MOL0     H34254   5.903   8.846   3.820 -3.1102 -1.8306  1.5856
  973MOL0     H34255   5.790   8.811   3.612  2.1932 -0.3831 -2.7964
  973MOL0     H34256   5.594   8.453   3.405 -1.7554 -1.8558 -2.6279
  973MOL0     H34257   5.399   8.386   3.261 -2.6862  0.9727 -2.6800
  973MOL0     H34258   3.723   7.931   2.964 -0.7398 -0.6687  0.8274
  973MOL0     H34259   3.686   7.694   2.918  1.7138 -0.0004  0.2617
  973MOL0     H34260   3.494   7.416   2.830 -2.0020  2.6609 -1.0462
  973MOL0     H34261   3.468   7.191   2.867 -0.3013  1.5747 -0.1504
  973MOL0     H34262   3.587   6.941   2.726  0.5466 -0.1971  0.2019
  973MOL0     H34263   3.465   6.822   2.735 -1.4521 -0.6862 -1.3525
  973MOL0     H34264   3.600   6.770   2.562 -1.8917 -1.7656 -0.9653
  973MOL0     H34265   3.566   6.925   2.478 -0.7180  0.6703  0.5577
  973MOL0     H34266   3.404   6.688   2.524 -0.5530 -0.8642 -1.7686
  973MOL0     H34267   3.319   6.823   2.453 -1.5671 -3.2958  1.4937
  973MOL0     H34268   3.384   6.657   2.291 -1.1096  1.4158  0.4351
  973MOL0     H34269   3.559   6.681   2.326  0.3223 -0.6406  0.3991
  973MOL0     H34270   3.446   6.997   2.075  1.4468  1.0015  0.4341
  973MOL0     H34271   3.375   7.117   2.454  1.0447  0.5036 -1.0833
  973MOL0     H34272   3.478   7.477   2.363 -0.0110 -0.8287  1.8029
  973MOL0     H34273   3.481   7.315   2.299  2.3433  1.4795  0.7054
  973MOL0     H34274   3.322   7.394   2.330 -1.8228  2.8216  2.5727
  974MOL0     O34275   7.320   6.864   5.621  0.3001  0.8045 -0.3520
  974MOL0     C34276   7.237   6.911   5.543 -0.0934  0.4553  0.0246
  974MOL0     O34277   7.176   7.029   5.555  0.2995  0.5226 -0.6125
  974MOL0     C34278   7.166   7.082   5.679  0.4827 -0.7348  0.8150
  974MOL0     C34279   7.276   7.144   5.734  0.1843 -0.6019  0.9421
  974MOL0     C34280   7.268   7.202   5.857  0.8467  0.1428 -0.7827
  974MOL0     C34281   7.142   7.222   5.919  0.5175 -1.0001 -0.3605
  974MOL0     O34282   7.139   7.297   6.028 -0.1267 -0.8281  0.8144
  974MOL0     C34283   7.059   7.248   6.131  0.0302 -0.9449  0.0014
  974MOL0     C34284   7.108   7.313   6.259 -0.2521  0.2799 -0.7010
  974MOL0     C34285   7.079   7.464   6.263 -0.2215 -0.3674 -0.2020
  974MOL0     C34286   7.142   7.530   6.387  0.4503  0.9026 -0.6282
  974MOL0     C34287   7.060   7.505   6.509  0.3435 -0.3212  0.7069
  974MOL0     C34288   7.141   7.566   6.624  0.0695  0.2982 -0.6045
  974MOL0     C34289   7.137   7.492   6.763 -0.4747 -0.2032 -0.2353
  974MOL0     C34290   7.023   7.536   6.855  0.3275 -0.0110  0.5017
  974MOL0     N34291   6.883   7.514   6.805 -0.2444  0.4408  0.0278
  974MOL0     C34292   6.848   7.386   6.761  0.9450 -0.2961 -0.3138
  974MOL0     C34293   6.720   7.404   6.722 -0.5698 -0.2655 -0.8993
  974MOL0     C34294   6.641   7.302   6.647 -0.2751 -0.4563 -0.4012
  974MOL0     C34295   6.676   7.294   6.497 -1.0608 -0.0793 -0.2641
  974MOL0     C34296   6.577   7.219   6.418  0.6583 -0.4287 -0.7550
  974MOL0     C34297   6.614   7.215   6.268  0.2161 -0.3907 -0.3137
  974MOL0     O34298   6.611   7.336   6.198  0.8231  0.4764  0.1777
  974MOL0     C34299   6.616   7.320   6.059 -0.5602 -0.5805 -0.1423
  974MOL0     C34300   6.579   7.440   5.990 -0.0319  1.1265 -0.3260
  974MOL0     C34301   6.593   7.460   5.854 -0.8092  0.2711 -0.3179
  974MOL0     C34302   6.567   7.605   5.805  0.3882  1.0879 -0.3975
  974MOL0     C34303   6.645   7.348   5.776  0.0326 -0.4970  0.5394
  974MOL0     C34304   6.665   7.344   5.627 -1.4887  0.4194  0.0267
  974MOL0     O34305   6.680   7.227   5.565 -0.6749  0.0873  0.4513
  974MOL0     C34306   6.744   7.215   5.448  0.2606  1.3273  0.1697
  974MOL0     C34307   6.817   7.312   5.382 -0.9912 -0.4447  0.7160
  974MOL0     C34308   6.882   7.286   5.259  0.2592 -0.4016  0.6593
  974MOL0     C34309   6.871   7.157   5.198 -0.0978  0.1881 -0.9179
  974MOL0     O34310   6.954   7.112   5.099 -0.0611 -0.1640 -0.2269
  974MOL0     C34311   6.962   7.208   4.998 -0.4043  0.0385 -0.4544
  974MOL0     C34312   7.034   7.146   4.882  0.0421 -0.0528 -0.4282
  974MOL0     C34313   7.063   7.246   4.767  0.1625  0.2668 -0.4119
  974MOL0     C34314   7.089   7.170   4.646  0.0254 -0.0452  1.3575
  974MOL0     C34315   7.140   7.265   4.538  0.7826  0.7731  0.7896
  974MOL0     C34316   7.166   7.208   4.404 -0.1777  0.0048 -0.1062
  974MOL0     C34317   7.035   7.173   4.321 -0.6874 -0.1485 -1.0592
  974MOL0     C34318   6.955   7.053   4.365 -0.3229  0.2259  0.3544
  974MOL0    Cl34319   7.070   6.916   4.413  0.2639 -0.0195  0.3978
  974MOL0     C34320   6.785   7.065   5.259  0.6688  0.7859  0.6398
  974MOL0     C34321   6.730   7.084   5.379 -0.0398 -0.6376 -0.1756
  974MOL0     O34322   6.681   7.453   5.570 -0.5291 -0.1029  0.6573
  974MOL0     C34323   6.668   7.224   5.841  0.6720  0.0595 -0.0507
  974MOL0     C34324   6.659   7.211   5.986  0.1702  0.4572 -0.1137
  974MOL0     N34325   6.677   7.535   6.742  0.4046 -0.8291 -0.4507
  974MOL0     N34326   6.783   7.599   6.778 -0.0546  0.8189 -0.0737
  974MOL0     C34327   7.030   7.170   5.858 -0.5773 -0.1871  0.6505
  974MOL0     C34328   7.039   7.103   5.734 -0.8515  0.7097 -0.1355
  974MOL0     C34329   7.210   6.831   5.422 -0.0386 -0.7023 -1.4173
  974MOL0     C34330   7.127   6.892   5.325 -0.9388 -0.2576 -0.5071
  974MOL0     C34331   7.094   6.823   5.204 -0.4058  0.1404  0.5014
  974MOL0     C34332   7.142   6.695   5.181 -0.1670  0.4696  0.2732
  974MOL0     O34333   7.109   6.625   5.066  1.0361  0.1781 -0.5606
  974MOL0     C34334   7.015   6.678   4.968  0.3635  0.2271 -0.4980
  974MOL0     C34335   7.070   6.772   4.870 -0.5436 -0.2026  1.4810
  974MOL0     C34336   7.175   6.701   4.771  0.0285 -0.4299  0.0719
  974MOL0     C34337   7.261   6.814   4.708  0.7358 -0.9135  0.0464
  974MOL0     C34338   7.351   6.770   4.603  0.1587  0.4003 -1.2716
  974MOL0     C34339   7.404   6.707   4.514 -0.9533  0.5145 -0.1501
  974MOL0     C34340   7.232   6.643   5.280  0.9889 -1.0037 -0.1390
  974MOL0     C34341   7.268   6.699   5.401  0.9420 -0.1790 -0.0032
  974MOL0     C34342   7.367   6.614   5.486 -0.2749  0.9540 -1.1947
  974MOL0     H34343   7.368   7.139   5.677  0.1135  0.9041  0.6512
  974MOL0     H34344   7.356   7.237   5.909  2.1009 -0.6714 -2.2846
  974MOL0     H34345   7.069   7.140   6.147  0.7248 -0.5760  2.6365
  974MOL0     H34346   6.954   7.274   6.111  0.4656 -0.1594 -1.3594
  974MOL0     H34347   7.067   7.250   6.337 -0.4749 -2.9487 -3.1882
  974MOL0     H34348   7.216   7.293   6.260 -0.7017 -3.0388  2.7489
  974MOL0     H34349   7.127   7.518   6.181  1.3917 -0.7595  0.4256
  974MOL0     H34350   6.972   7.479   6.252 -0.2074 -0.7987 -0.9425
  974MOL0     H34351   7.242   7.489   6.403  0.6762  2.1752  1.4536
  974MOL0     H34352   7.163   7.637   6.385 -2.7430  1.6580 -0.4589
  974MOL0     H34353   7.049   7.398   6.528 -2.1725 -0.5140 -1.2520
  974MOL0     H34354   6.958   7.544   6.501  0.8082  0.9167  0.5833
  974MOL0     H34355   7.248   7.558   6.602  0.7654 -1.0698  2.6795
  974MOL0     H34356   7.120   7.671   6.643 -0.4672  0.7314 -3.1923
  974MOL0     H34357   7.231   7.518   6.812 -0.6834 -1.6801  1.0259
  974MOL0     H34358   7.143   7.385   6.739  3.3329 -0.0903 -0.4791
  974MOL0     H34359   7.037   7.470   6.940 -2.1970 -0.5784  0.5357
  974MOL0     H34360   7.031   7.641   6.883 -0.4070  0.8018 -2.0411
  974MOL0     H34361   6.901   7.292   6.766 -1.1708 -1.6062 -1.3720
  974MOL0     H34362   6.539   7.341   6.658  0.0634  0.6664 -1.0538
  974MOL0     H34363   6.656   7.198   6.677  2.8398  0.0325  0.0354
  974MOL0     H34364   6.658   7.393   6.455  0.5155 -0.7624 -2.8163
  974MOL0     H34365   6.776   7.256   6.471 -0.1771  0.0996  2.5933
  974MOL0     H34366   6.565   7.116   6.453  1.5735 -0.4413 -0.4611
  974MOL0     H34367   6.485   7.275   6.438  1.7976  1.1298  0.3576
  974MOL0     H34368   6.715   7.178   6.249  0.9652  1.8717 -1.0329
  974MOL0     H34369   6.543   7.143   6.226 -2.6452 -0.2975  3.7605
  974MOL0     H34370   6.535   7.528   6.035 -0.6148  1.3394 -1.2978
  974MOL0     H34371   6.662   7.649   5.774 -0.0952  1.1991 -1.8108
  974MOL0     H34372   6.516   7.656   5.886  0.0302  0.3569 -0.1551
  974MOL0     H34373   6.502   7.599   5.717  1.2328  1.3323 -1.0514
  974MOL0     H34374   6.847   7.407   5.424  2.0287 -0.3000 -1.4427
  974MOL0     H34375   6.953   7.359   5.224  1.8994 -1.0567  2.4452
  974MOL0     H34376   6.857   7.228   4.973 -1.2209 -2.3466  0.7823
  974MOL0     H34377   7.011   7.299   5.032  0.5117  0.0899 -1.8411
  974MOL0     H34378   7.128   7.105   4.922 -0.2548  0.3570  0.7176
  974MOL0     H34379   6.980   7.056   4.852 -0.5577 -1.4159  4.0336
  974MOL0     H34380   7.134   7.324   4.795 -1.6875  0.7708  3.5629
  974MOL0     H34381   6.975   7.308   4.746  0.9983  1.6693  0.1126
  974MOL0     H34382   6.991   7.126   4.622  1.4493 -2.4195 -0.5347
  974MOL0     H34383   7.162   7.095   4.674 -1.2858 -1.4256  1.2212
  974MOL0     H34384   7.073   7.349   4.515  1.4924  1.3908  0.9078
  974MOL0     H34385   7.236   7.313   4.560  2.1526  1.0119 -4.3843
  974MOL0     H34386   7.237   7.127   4.424  2.1639  2.2511  1.3376
  974MOL0     H34387   7.229   7.279   4.349 -1.0239  0.5474 -0.3933
  974MOL0     H34388   7.067   7.153   4.219  0.8097 -0.7358 -0.4997
  974MOL0     H34389   6.968   7.260   4.318 -1.1316 -0.4584 -4.7473
  974MOL0     H34390   6.891   7.018   4.283  0.1933  3.2059 -1.4578
  974MOL0     H34391   6.884   7.074   4.446  0.0277  1.1868  0.4170
  974MOL0     H34392   6.758   6.967   5.222 -0.2585  1.9442 -2.0259
  974MOL0     H34393   6.659   7.016   5.424  1.1997 -1.8045  0.0950
  974MOL0     H34394   6.702   7.140   5.782 -1.1292 -0.9370  0.2686
  974MOL0     H34395   6.699   7.121   6.031  0.5115  0.9543  0.6068
  974MOL0     H34396   6.928   7.187   5.890 -0.8885  0.4124 -0.5895
  974MOL0     H34397   6.954   7.052   5.690 -1.9372  1.6748  0.7397
  974MOL0     H34398   7.088   6.993   5.331  1.6033  0.8059 -0.9195
  974MOL0     H34399   7.033   6.875   5.131 -1.3399  0.4480  1.4811
  974MOL0     H34400   6.966   6.602   4.906 -0.9295 -0.0766  0.8522
  974MOL0     H34401   6.929   6.725   5.016 -0.1212 -0.3167 -0.8223
  974MOL0     H34402   7.104   6.862   4.921  0.6696  0.5877 -0.5872
  974MOL0     H34403   6.986   6.808   4.810  2.5073  2.8756 -1.3809
  974MOL0     H34404   7.233   6.625   4.823  1.7208  1.4736  1.0985
  974MOL0     H34405   7.124   6.648   4.690 -0.2488 -0.0307 -0.0193
  974MOL0     H34406   7.317   6.856   4.792 -0.8979  0.5494  0.4642
  974MOL0     H34407   7.201   6.893   4.662 -2.8454 -3.5532 -0.2396
  974MOL0     H34408   7.457   6.649   4.442  0.6302  3.6017 -1.6793
  974MOL0     H34409   7.270   6.542   5.267 -2.0641 -2.3835  0.6827
  974MOL0     H34410   7.372   6.505   5.479  0.3933  0.9334 -0.5711
  974MOL0     H34411   7.467   6.641   5.450 -0.0190 -1.5130 -2.5487
  974MOL0     H34412   7.363   6.635   5.594  1.4822 -1.3370 -0.5981
  975MOL0     O34413  10.904   7.249   8.569  0.5530 -0.0015  0.3132
  975MOL0     C34414  10.976   7.325   8.637 -0.4150  0.3300  0.4517
  975MOL0     O34415  10.933   7.419   8.728 -0.8403 -0.9516  0.1748
  975MOL0     C34416  10.798   7.438   8.750 -0.0555  0.3661 -0.1753
  975MOL0     C34417  10.724   7.390   8.854 -0.6940  0.9336 -0.6628
  975MOL0     C34418  10.584   7.424   8.868 -1.1134  0.4779 -0.0150
  975MOL0     C34419  10.524   7.519   8.790  0.7043 -0.3300  0.6227
  975MOL0     O34420  10.392   7.547   8.807  0.4696  0.3343 -0.1108
  975MOL0     C34421  10.358   7.606   8.930 -0.4501 -0.0197  0.4302
  975MOL0     C34422  10.203   7.613   8.955 -0.2273 -0.0705 -0.0441
  975MOL0     C34423  10.160   7.571   9.088 -0.0956  0.3658  0.6687
  975MOL0     C34424  10.007   7.581   9.102  0.3322  0.3059  0.6068
  975MOL0     C34425   9.957   7.731   9.127 -0.7045 -0.6751 -1.1584
  975MOL0     C34426  10.024   7.792   9.261  0.5408 -0.4317  0.0608
  975MOL0     C34427   9.967   7.936   9.298  0.1031  0.7923 -0.1957
  975MOL0     C34428  10.022   8.048   9.206 -0.2855  0.5573  0.5156
  975MOL0     N34429  10.166   8.032   9.179 -0.0840  0.0988  0.9125
  975MOL0     C34430  10.271   8.068   9.260  0.2109 -0.5273  0.6694
  975MOL0     C34431  10.380   8.023   9.190  0.6971 -1.0070 -0.7990
  975MOL0     C34432  10.514   8.004   9.254  0.6250 -0.4654  0.6493
  975MOL0     C34433  10.556   7.862   9.296  0.7951  0.2777  0.7002
  975MOL0     C34434  10.650   7.792   9.201  0.2805  0.8542 -0.3709
  975MOL0     C34435  10.673   7.639   9.224 -0.5802  0.0979 -0.6269
  975MOL0     O34436  10.552   7.575   9.232 -1.2814 -0.5332 -0.9380
  975MOL0     C34437  10.562   7.438   9.254  0.5650  0.2672  0.2629
  975MOL0     C34438  10.432   7.377   9.262 -0.5189 -0.5429  0.8855
  975MOL0     C34439  10.409   7.242   9.281  0.9969 -0.3922 -0.6097
  975MOL0     C34440  10.262   7.196   9.282  0.7728  0.6501  0.2066
  975MOL0     C34441  10.524   7.160   9.296  0.2392  0.4133  0.6717
  975MOL0     C34442  10.513   7.011   9.325  0.2135 -0.0244 -0.6366
  975MOL0     O34443  10.393   6.960   9.376 -0.0633  0.7994 -0.3205
  975MOL0     C34444  10.395   6.853   9.467  0.8381  0.1900 -0.2914
  975MOL0     C34445  10.492   6.809   9.559 -0.0017 -0.5857 -0.9011
  975MOL0     C34446  10.465   6.711   9.646 -1.2552  0.5783  0.0819
  975MOL0     C34447  10.344   6.637   9.649 -0.5091  0.0830 -0.3369
  975MOL0     O34448  10.309   6.530   9.738 -0.4860 -0.6821  0.4829
  975MOL0     C34449  10.421   6.468   9.795  0.0085 -0.4417 -0.0572
  975MOL0     C34450  10.371   6.360   9.889 -0.7633  0.1546 -0.0158
  975MOL0     C34451  10.277   6.416   9.995 -0.5012 -0.1673  0.9547
  975MOL0     C34452  10.279   6.326  10.119 -0.6591  0.2567 -1.0261
  975MOL0     C34453  10.191   6.392  10.225  0.4117  0.2797  0.7384
  975MOL0     C34454  10.178   6.299  10.349 -0.2423  0.1075 -0.1820
  975MOL0     C34455  10.092   6.369  10.458 -0.1228 -0.1592 -0.5612
  975MOL0     C34456  10.107   6.292  10.588 -0.4233  0.2069 -0.6143
  975MOL0    Cl34457  10.007   6.358  10.723 -0.3620  0.4609  0.1320
  975MOL0     C34458  10.246   6.677   9.559  0.8036 -0.8430 -0.9850
  975MOL0     C34459  10.272   6.782   9.470 -0.0228  0.0972  0.7094
  975MOL0     O34460  10.616   6.944   9.320  0.4272 -0.2495  0.0304
  975MOL0     C34461  10.649   7.223   9.293 -0.0209  0.3977  0.2104
  975MOL0     C34462  10.671   7.354   9.265 -0.3999  0.3961 -0.9019
  975MOL0     N34463  10.341   7.972   9.072  0.2789  0.3753  0.4418
  975MOL0     N34464  10.218   7.982   9.061 -0.1034  0.0125  0.1085
  975MOL0     C34465  10.594   7.565   8.681  0.3136  0.7588 -0.9997
  975MOL0     C34466  10.721   7.514   8.655 -0.7410  0.3801  0.1801
  975MOL0     C34467  11.119   7.292   8.643  0.9238 -0.4517  0.1089
  975MOL0     C34468  11.165   7.177   8.696 -0.1321  0.1041  0.9640
  975MOL0     C34469  11.303   7.151   8.705 -0.5901  0.5541 -0.0079
  975MOL0     C34470  11.398   7.243   8.653  0.5875 -0.3619 -0.0677
  975MOL0     O34471  11.521   7.201   8.647  0.4242  1.1599 -0.1120
  975MOL0     C34472  11.625   7.284   8.588 -0.2294  0.8610 -0.0950
  975MOL0     C34473  11.763   7.221   8.596 -0.0854 -0.0338  0.7293
  975MOL0     C34474  11.875   7.304   8.520  1.1083 -0.5581  0.3576
  975MOL0     C34475  12.007   7.265   8.578  0.4999 -0.1859 -0.5276
  975MOL0     C34476  12.038   7.128   8.538  0.3866 -0.2459  0.0637
  975MOL0     C34477  12.068   7.025   8.501  0.6886  0.4358  0.0186
  975MOL0     C34478  11.341   7.360   8.601 -0.1188  0.3759  0.2061
  975MOL0     C34479  11.206   7.388   8.583 -0.5964  0.2491 -0.2123
  975MOL0     C34480  11.162   7.523   8.535 -0.9602 -0.4509 -0.7534
  975MOL0     H34481  10.773   7.314   8.915 -0.6027  0.6770 -1.0491
  975MOL0     H34482  10.530   7.383   8.953  0.8125  1.1041  1.5952
  975MOL0     H34483  10.399   7.708   8.924  2.4610 -0.6220  5.3131
  975MOL0     H34484  10.416   7.556   9.007  4.0138  0.1221 -2.4460
  975MOL0     H34485  10.176   7.719   8.953  0.4428  0.1515  1.1595
  975MOL0     H34486  10.143   7.565   8.877 -1.7629  3.4450 -1.2448
  975MOL0     H34487  10.185   7.466   9.101 -0.1203  0.2886  0.0919
  975MOL0     H34488  10.208   7.625   9.170 -1.7898  2.9787  0.0597
  975MOL0     H34489   9.956   7.530   9.020  0.1165 -1.2398  1.6491
  975MOL0     H34490   9.976   7.516   9.185 -2.1191 -3.3096 -2.8026
  975MOL0     H34491   9.849   7.729   9.140 -0.7799 -0.3574 -1.6997
  975MOL0     H34492   9.963   7.794   9.038 -3.4188 -0.1932 -1.0787
  975MOL0     H34493  10.019   7.734   9.354  2.1321 -2.8057 -1.2207
  975MOL0     H34494  10.131   7.794   9.242  0.1236 -0.2826 -2.7952
  975MOL0     H34495   9.995   7.953   9.402 -0.2555  2.2573 -0.3129
  975MOL0     H34496   9.858   7.945   9.296  0.1631  1.4647 -0.7225
  975MOL0     H34497   9.966   8.051   9.112 -0.0251 -2.0071  0.2261
  975MOL0     H34498  10.012   8.143   9.261  1.0139 -0.8344  3.3518
  975MOL0     H34499  10.259   8.123   9.353 -2.2746 -3.5729  2.3400
  975MOL0     H34500  10.525   8.067   9.343 -0.9918  0.5629  0.1541
  975MOL0     H34501  10.590   8.033   9.180  0.8835  0.1241  1.1393
  975MOL0     H34502  10.620   7.868   9.384  2.0033  0.3900 -0.1509
  975MOL0     H34503  10.472   7.800   9.328  1.6182 -1.0084  0.4164
  975MOL0     H34504  10.620   7.808   9.097 -1.2763 -0.2236 -0.1254
  975MOL0     H34505  10.745   7.847   9.206  2.2221 -2.2051 -1.0139
  975MOL0     H34506  10.726   7.597   9.138 -0.7548 -2.0053  0.2405
  975MOL0     H34507  10.737   7.623   9.311  0.0411 -0.4934 -1.1802
  975MOL0     H34508  10.346   7.438   9.237  0.0821  0.7591  1.9087
  975MOL0     H34509  10.246   7.103   9.227 -3.4626 -0.8701  3.4072
  975MOL0     H34510  10.192   7.262   9.231  0.5325  0.6378  0.5121
  975MOL0     H34511  10.227   7.183   9.385  1.4945 -0.1080  0.3671
  975MOL0     H34512  10.592   6.847   9.542 -0.7225  1.1556 -1.4344
  975MOL0     H34513  10.549   6.687   9.711 -0.2747 -0.6710 -1.5763
  975MOL0     H34514  10.480   6.436   9.709  0.7113  1.0423 -0.1597
  975MOL0     H34515  10.477   6.540   9.856 -1.7259 -0.4599  1.6827
  975MOL0     H34516  10.326   6.282   9.828 -0.3970  1.3907 -1.9399
  975MOL0     H34517  10.457   6.318   9.942  0.8409  1.2225 -1.6429
  975MOL0     H34518  10.175   6.428   9.957  0.5572 -1.1246 -2.6488
  975MOL0     H34519  10.309   6.512  10.037 -2.7980  0.4950  1.3219
  975MOL0     H34520  10.380   6.310  10.159 -0.4359 -0.2451 -1.7692
  975MOL0     H34521  10.237   6.231  10.082 -0.3863 -0.2392 -0.0967
  975MOL0     H34522  10.218   6.496  10.247 -0.7721  0.6828  0.3434
  975MOL0     H34523  10.089   6.397  10.186 -0.7308  0.7495  3.5494
  975MOL0     H34524  10.281   6.289  10.386 -0.5333  0.0633  0.6377
  975MOL0     H34525  10.127   6.207  10.320 -1.4696  0.0297  2.0590
  975MOL0     H34526   9.989   6.369  10.423 -0.0213  0.5720 -0.8730
  975MOL0     H34527  10.118   6.473  10.478 -1.2272 -0.1160  0.8581
  975MOL0     H34528  10.213   6.285  10.616 -0.2988  0.9301 -0.8848
  975MOL0     H34529  10.073   6.188  10.580 -0.6478  0.2262  0.0134
  975MOL0     H34530  10.149   6.628   9.561  1.0272 -1.2920 -1.0537
  975MOL0     H34531  10.200   6.808   9.394  2.2562  0.6610 -1.3477
  975MOL0     H34532  10.736   7.165   9.324  0.0689 -0.4435 -1.4661
  975MOL0     H34533  10.778   7.372   9.265  0.2087 -2.6776 -0.6382
  975MOL0     H34534  10.546   7.626   8.605 -1.0967 -0.9054 -1.5009
  975MOL0     H34535  10.768   7.540   8.561  1.9326 -1.0192  1.0060
  975MOL0     H34536  11.088   7.106   8.726 -1.0521  2.3546  4.5922
  975MOL0     H34537  11.330   7.059   8.755 -2.0429  0.2770  0.3245
  975MOL0     H34538  11.608   7.314   8.484  3.7751  1.7612 -0.6528
  975MOL0     H34539  11.611   7.380   8.639 -2.9642  0.2267  0.5244
  975MOL0     H34540  11.758   7.121   8.552  1.7673 -0.0351  0.4257
  975MOL0     H34541  11.785   7.222   8.703  0.9826  0.2426  0.5169
  975MOL0     H34542  11.880   7.282   8.413 -0.9614 -1.1301  0.3356
  975MOL0     H34543  11.863   7.412   8.533  0.7119 -0.6657  0.8753
  975MOL0     H34544  12.012   7.269   8.687  3.4949  1.5705 -0.6087
  975MOL0     H34545  12.083   7.334   8.539 -1.0968  0.9278 -1.8499
  975MOL0     H34546  12.082   6.933   8.449  0.2335  2.4207 -3.9784
  975MOL0     H34547  11.424   7.416   8.558  0.5349  0.8811  2.0566
  975MOL0     H34548  11.068   7.509   8.481 -2.2419  3.0369  0.2906
  975MOL0     H34549  11.141   7.586   8.623 -1.3339 -0.4293 -0.8550
  975MOL0     H34550  11.234   7.575   8.471 -1.3503  0.0659 -0.7838
  976MOL0     O34551  11.396   3.676   2.331 -0.3843 -0.1412 -0.1840
  976MOL0     C34552  11.412   3.720   2.443  0.7632  0.3407  0.1909
  976MOL0     O34553  11.513   3.794   2.487 -0.4470 -0.4249 -0.1049
  976MOL0     C34554  11.625   3.823   2.404 -0.1750  0.1459 -0.3930
  976MOL0     C34555  11.758   3.779   2.430  0.2074  0.3928 -0.5653
  976MOL0     C34556  11.870   3.818   2.350 -0.0678 -0.1003 -0.2461
  976MOL0     C34557  11.845   3.894   2.234 -0.2979 -0.5648  0.2570
  976MOL0     O34558  11.939   3.920   2.136  0.3901  0.6220  0.1933
  976MOL0     C34559  12.038   3.816   2.131 -0.5035 -0.2888 -1.2705
  976MOL0     C34560  12.137   3.825   2.004 -0.1304  0.3585  0.0070
  976MOL0     C34561  12.264   3.738   2.018  0.3565  0.0539 -0.6737
  976MOL0     C34562  12.238   3.588   1.969 -0.1573  0.1940  0.0968
  976MOL0     C34563  12.324   3.489   2.036 -0.5817 -0.3112  0.5876
  976MOL0     C34564  12.471   3.485   1.975  0.4666 -0.4747  0.7812
  976MOL0     C34565  12.532   3.352   2.020 -0.7995  0.1693  0.0268
  976MOL0     C34566  12.562   3.356   2.170 -0.3263  0.2635 -0.5496
  976MOL0     N34567  12.639   3.239   2.214  0.2006 -0.0459  0.0243
  976MOL0     C34568  12.771   3.222   2.190 -0.3603  0.2873  0.5306
  976MOL0     C34569  12.808   3.121   2.279 -0.9553 -0.5326 -0.6929
  976MOL0     C34570  12.939   3.060   2.311  0.2978 -0.4307 -0.7113
  976MOL0     C34571  13.069   3.141   2.303 -0.4865  0.4658 -0.2496
  976MOL0     C34572  13.048   3.265   2.404  0.0278 -0.4693  0.5927
  976MOL0     C34573  13.188   3.289   2.459  0.0418 -0.1550  1.3576
  976MOL0     O34574  13.183   3.412   2.528 -0.2739  0.3201 -0.4018
  976MOL0     C34575  13.253   3.441   2.643 -0.9963  0.3967 -0.2692
  976MOL0     C34576  13.204   3.553   2.712 -0.4722 -0.0550  0.1071
  976MOL0     C34577  13.269   3.606   2.829 -0.2017 -0.5326  1.0266
  976MOL0     C34578  13.230   3.742   2.888  0.3100  0.6185 -0.3769
  976MOL0     C34579  13.393   3.539   2.867 -0.5733 -0.6951 -0.1709
  976MOL0     C34580  13.469   3.586   2.982 -0.2532 -0.0001 -0.2362
  976MOL0     O34581  13.407   3.633   3.091  0.0513  0.3121  0.5134
  976MOL0     C34582  13.474   3.704   3.189 -0.0764  0.5000  0.9928
  976MOL0     C34583  13.499   3.667   3.323 -0.8832  0.3527 -0.1230
  976MOL0     C34584  13.532   3.758   3.421 -0.5582 -0.4019 -0.0365
  976MOL0     C34585  13.544   3.897   3.396 -0.8732  0.4464  0.8053
  976MOL0     O34586  13.574   3.986   3.494 -0.3948  0.8549 -0.7908
  976MOL0     C34587  13.633   4.108   3.459  1.3130 -0.2399 -0.2236
  976MOL0     C34588  13.697   4.191   3.572  0.1809 -0.9570 -0.1738
  976MOL0     C34589  13.823   4.126   3.635  0.0072  0.4450 -0.6018
  976MOL0     C34590  13.893   4.220   3.727  0.8014  0.8002  0.2062
  976MOL0     C34591  14.019   4.156   3.786  0.8715 -0.4576  0.0398
  976MOL0     C34592  14.028   4.204   3.936  0.3246  0.3848 -0.1337
  976MOL0     C34593  14.173   4.213   3.990  0.8546 -0.2262  0.7589
  976MOL0     C34594  14.178   4.159   4.134  0.0391 -0.0780  0.2249
  976MOL0    Cl34595  14.064   4.243   4.248 -0.4765 -0.1300  0.0695
  976MOL0     C34596  13.515   3.941   3.262  0.3253 -0.3680 -0.2727
  976MOL0     C34597  13.487   3.845   3.159  0.4495  0.0840 -0.2440
  976MOL0     O34598  13.589   3.604   2.971 -0.7767  0.9074 -0.8567
  976MOL0     C34599  13.438   3.426   2.793 -0.2717  0.8577  0.1065
  976MOL0     C34600  13.371   3.375   2.686 -0.2823  0.1864 -0.1091
  976MOL0     N34601  12.696   3.081   2.351 -0.2215  0.4296  0.3580
  976MOL0     N34602  12.596   3.151   2.312  0.9850  0.0443  1.8256
  976MOL0     C34603  11.717   3.923   2.203  0.5032  0.2209 -0.4748
  976MOL0     C34604  11.608   3.892   2.290  0.4963  0.0230 -0.6721
  976MOL0     C34605  11.310   3.688   2.547  0.5224  0.7932 -0.0686
  976MOL0     C34606  11.343   3.716   2.682  0.0482  0.0162 -0.0199
  976MOL0     C34607  11.249   3.687   2.784 -0.4719  0.2630 -0.0501
  976MOL0     C34608  11.121   3.635   2.762 -0.5445  0.3161  0.0490
  976MOL0     O34609  11.041   3.604   2.871  0.2910 -0.1571  0.3745
  976MOL0     C34610  10.900   3.606   2.855  0.9953 -0.3988  0.5910
  976MOL0     C34611  10.828   3.520   2.954  0.0006 -1.0976  0.1409
  976MOL0     C34612  10.908   3.527   3.090 -0.2216  0.1823  0.3980
  976MOL0     C34613  10.826   3.514   3.217  0.4315  0.1883  0.5272
  976MOL0     C34614  10.706   3.601   3.223 -0.2911 -0.0311  0.2789
  976MOL0     C34615  10.612   3.673   3.240  0.6345  0.1678  0.6652
  976MOL0     C34616  11.091   3.599   2.626  0.4018 -0.0564 -0.5401
  976MOL0     C34617  11.182   3.638   2.520 -0.3982  0.7492 -0.1047
  976MOL0     C34618  11.124   3.611   2.381 -0.4996 -0.7996 -0.8986
  976MOL0     H34619  11.773   3.728   2.524 -0.3757 -1.3590 -1.3659
  976MOL0     H34620  11.971   3.798   2.385  0.3850  0.5613 -1.1553
  976MOL0     H34621  11.990   3.719   2.112 -2.9894  1.4185 -4.9232
  976MOL0     H34622  12.109   3.807   2.214  0.3486 -3.0998 -2.1789
  976MOL0     H34623  12.082   3.784   1.919  1.5294 -3.3230  0.5023
  976MOL0     H34624  12.173   3.926   1.985 -0.3134  0.5539  0.7061
  976MOL0     H34625  12.337   3.782   1.949  0.4952  2.9279  1.1512
  976MOL0     H34626  12.316   3.736   2.114 -0.2646 -0.9572 -0.3403
  976MOL0     H34627  12.137   3.568   2.005 -0.7466  1.0977 -1.0160
  976MOL0     H34628  12.237   3.582   1.860  0.5679  2.5224 -0.0954
  976MOL0     H34629  12.274   3.396   2.005 -0.0764  0.3109 -2.4640
  976MOL0     H34630  12.315   3.506   2.143 -2.0850  1.6527  0.2005
  976MOL0     H34631  12.473   3.486   1.866 -1.6741 -3.9909  0.5512
  976MOL0     H34632  12.530   3.565   2.020  0.2236  0.6114 -0.7660
  976MOL0     H34633  12.620   3.343   1.955 -1.6852 -2.5345 -0.8974
  976MOL0     H34634  12.479   3.262   1.988  0.1932 -0.3463 -0.2274
  976MOL0     H34635  12.616   3.447   2.197  1.0668  0.1292 -2.6299
  976MOL0     H34636  12.463   3.362   2.217 -0.9945  2.5560 -2.0724
  976MOL0     H34637  12.827   3.277   2.114 -2.5686  1.7942 -0.0900
  976MOL0     H34638  12.948   2.971   2.247  1.7850 -0.3064 -0.7169
  976MOL0     H34639  12.951   3.024   2.414  2.8082  3.2215  0.4635
  976MOL0     H34640  13.156   3.086   2.337  0.0863  0.6073 -1.4318
  976MOL0     H34641  13.082   3.175   2.199 -0.4126  1.7538  0.1618
  976MOL0     H34642  13.023   3.360   2.355 -1.0999 -1.5273 -1.0208
  976MOL0     H34643  12.979   3.258   2.488 -0.6544  0.8666  0.1796
  976MOL0     H34644  13.203   3.201   2.522 -3.1243 -4.2902 -2.8699
  976MOL0     H34645  13.257   3.297   2.374 -0.8253  1.1863  0.7464
  976MOL0     H34646  13.113   3.597   2.672 -0.9810 -0.0399  1.2319
  976MOL0     H34647  13.185   3.724   2.987 -0.5208 -2.8919 -1.2489
  976MOL0     H34648  13.164   3.807   2.829 -0.2164 -1.7563 -2.5444
  976MOL0     H34649  13.324   3.797   2.898 -0.0865  1.4654 -1.1674
  976MOL0     H34650  13.480   3.564   3.353 -2.2317  0.5475 -0.2232
  976MOL0     H34651  13.538   3.718   3.521  0.0730  1.9084  0.9089
  976MOL0     H34652  13.707   4.092   3.380  1.6853  1.2922 -0.2204
  976MOL0     H34653  13.547   4.168   3.427  0.2780 -1.3422  0.3818
  976MOL0     H34654  13.716   4.293   3.537 -2.3182 -0.4305 -0.1339
  976MOL0     H34655  13.627   4.201   3.655 -4.2639  4.1350 -3.8738
  976MOL0     H34656  13.889   4.094   3.553  1.7930 -0.5285  1.1330
  976MOL0     H34657  13.808   4.036   3.696  0.6067 -0.0139 -1.1107
  976MOL0     H34658  13.824   4.237   3.810  2.8748 -0.8065  2.3848
  976MOL0     H34659  13.910   4.320   3.685 -0.2470 -0.1235 -2.6667
  976MOL0     H34660  14.023   4.047   3.781 -3.4748 -0.9751  2.2844
  976MOL0     H34661  14.103   4.199   3.732  1.1492 -2.1462 -0.9272
  976MOL0     H34662  13.978   4.136   4.006  0.3859  0.9289  0.4476
  976MOL0     H34663  13.987   4.305   3.943  0.6629  0.4591  1.1226
  976MOL0     H34664  14.210   4.315   3.982  0.1128 -0.0101 -0.0335
  976MOL0     H34665  14.238   4.152   3.926  0.4349  2.2785 -2.2684
  976MOL0     H34666  14.282   4.171   4.166 -0.1513  1.7896  0.2557
  976MOL0     H34667  14.160   4.052   4.146  0.0946 -0.0211  0.8543
  976MOL0     H34668  13.516   4.047   3.241 -0.7745 -0.6129 -1.6515
  976MOL0     H34669  13.453   3.881   3.062 -0.3248 -0.1304 -0.0636
  976MOL0     H34670  13.530   3.373   2.817 -0.7644 -1.2636 -2.2617
  976MOL0     H34671  13.403   3.283   2.639 -2.4758 -0.5760 -0.2191
  976MOL0     H34672  11.708   3.972   2.107 -0.1164 -1.8912 -1.5520
  976MOL0     H34673  11.507   3.914   2.257 -0.5759 -0.8640  1.8386
  976MOL0     H34674  11.445   3.747   2.704  0.1453 -0.5498  0.3524
  976MOL0     H34675  11.269   3.698   2.890 -1.9887  1.2005  0.1735
  976MOL0     H34676  10.851   3.704   2.855  1.4187 -0.1005 -2.1622
  976MOL0     H34677  10.883   3.556   2.760  4.7080 -1.3038  0.2527
  976MOL0     H34678  10.833   3.418   2.915  3.8012 -1.1612  0.3417
  976MOL0     H34679  10.727   3.560   2.961  0.9032  1.0279  3.0244
  976MOL0     H34680  10.983   3.448   3.088  1.1222  1.4376 -0.4141
  976MOL0     H34681  10.972   3.616   3.094  0.0097 -0.0185  1.3302
  976MOL0     H34682  10.887   3.538   3.304  2.7272  1.5618 -1.3433
  976MOL0     H34683  10.801   3.410   3.238 -3.5120  0.1454 -3.0184
  976MOL0     H34684  10.526   3.731   3.267  0.3739 -0.9678  2.4701
  976MOL0     H34685  10.997   3.555   2.594  0.9488 -0.1893 -2.0458
  976MOL0     H34686  11.141   3.511   2.341 -0.3445 -1.2755  0.3045
  976MOL0     H34687  11.015   3.619   2.376 -0.4547 -0.1962 -0.9557
  976MOL0     H34688  11.155   3.681   2.303 -3.5045  0.2243 -1.3092
  977MOL0     O34689   2.962   9.815   1.631 -0.0547  0.6164 -0.8183
  977MOL0     C34690   3.043   9.899   1.650 -1.0714 -0.7345 -0.2287
  977MOL0     O34691   3.096   9.933   1.772 -0.8160 -1.1907 -0.4861
  977MOL0     C34692   3.053   9.846   1.873 -0.6808  0.1303  0.6382
  977MOL0     C34693   3.099   9.712   1.901 -0.1364  0.4003  0.3985
  977MOL0     C34694   3.027   9.648   2.007  0.4719 -0.4539  0.2608
  977MOL0     C34695   2.916   9.702   2.074  0.2953  0.6504  0.9498
  977MOL0     O34696   2.849   9.618   2.159  0.0058  0.1140 -0.1457
  977MOL0     C34697   2.721   9.642   2.222 -0.0637  0.4057 -0.0601
  977MOL0     C34698   2.741   9.715   2.351 -0.2238  0.3440  0.1535
  977MOL0     C34699   2.807   9.625   2.455  0.6871 -0.7719  0.1087
  977MOL0     C34700   2.849   9.713   2.570  0.9872  0.5349  0.1026
  977MOL0     C34701   2.912   9.643   2.682 -0.3969  0.1943 -0.7783
  977MOL0     C34702   3.073   9.629   2.685 -0.3271  0.8223  1.0111
  977MOL0     C34703   3.130   9.593   2.822  0.0731 -0.8945 -0.1210
  977MOL0     C34704   3.109   9.442   2.868 -1.0347 -0.6845  0.9010
  977MOL0     N34705   2.977   9.384   2.879  0.6427  0.3126 -0.5419
  977MOL0     C34706   2.872   9.428   2.955  0.8831 -0.5724 -0.3218
  977MOL0     C34707   2.802   9.315   2.978 -0.3689  0.0681  0.5859
  977MOL0     C34708   2.678   9.297   3.064  0.1108  0.1892 -0.3432
  977MOL0     C34709   2.561   9.397   3.048 -0.4519 -0.4003  0.2037
  977MOL0     C34710   2.464   9.374   3.164  0.0300  0.2750 -0.2352
  977MOL0     C34711   2.502   9.462   3.280 -0.0328  0.8352  0.0496
  977MOL0     O34712   2.625   9.436   3.344 -0.1682 -0.4088  0.3372
  977MOL0     C34713   2.728   9.529   3.343 -0.1239 -0.1843  0.0149
  977MOL0     C34714   2.715   9.663   3.333 -0.0806  0.0357 -0.5263
  977MOL0     C34715   2.825   9.739   3.315 -0.7231 -0.7413  0.4347
  977MOL0     C34716   2.805   9.891   3.284  0.6787  0.4682 -0.6699
  977MOL0     C34717   2.956   9.685   3.311 -0.1120  0.2712  0.3140
  977MOL0     C34718   3.088   9.753   3.275  0.0449 -0.5036  0.0570
  977MOL0     O34719   3.193   9.668   3.253  0.1040  0.2670  0.7284
  977MOL0     C34720   3.303   9.698   3.173  0.7877  0.7883 -0.1759
  977MOL0     C34721   3.410   9.616   3.195 -0.5811  0.5086 -0.1530
  977MOL0     C34722   3.536   9.635   3.137  1.2058  0.5179  0.2072
  977MOL0     C34723   3.565   9.748   3.059 -0.9477 -0.2516  0.0521
  977MOL0     O34724   3.690   9.779   3.019 -0.1457 -0.4510  0.4816
  977MOL0     C34725   3.793   9.777   3.118 -0.3663  0.6307 -0.3360
  977MOL0     C34726   3.937   9.761   3.066 -0.8385 -0.4410  0.7668
  977MOL0     C34727   3.972   9.646   2.982 -0.8973  0.3267 -0.3960
  977MOL0     C34728   4.114   9.670   2.933 -0.4974 -0.1463  0.1235
  977MOL0     C34729   4.169   9.546   2.851 -0.7539 -0.0760  0.7645
  977MOL0     C34730   4.314   9.585   2.803 -0.3615 -0.8260 -0.1210
  977MOL0     C34731   4.426   9.553   2.913  1.8029  0.4260  0.3917
  977MOL0     C34732   4.544   9.645   2.899 -1.1042  0.4585 -0.2859
  977MOL0    Cl34733   4.638   9.603   2.756  0.2101 -0.3855  0.0346
  977MOL0     C34734   3.452   9.821   3.025 -0.3012 -0.8819  0.3226
  977MOL0     C34735   3.328   9.800   3.081 -0.4866 -0.7018  0.2009
  977MOL0     O34736   3.093   9.874   3.276 -0.2142 -0.7017 -0.6522
  977MOL0     C34737   2.961   9.547   3.302  0.4554 -0.4203  0.2557
  977MOL0     C34738   2.851   9.471   3.341  0.5288 -0.2375 -0.5523
  977MOL0     N34739   2.862   9.203   2.913 -0.0426 -0.2373 -0.2493
  977MOL0     N34740   2.972   9.247   2.865  1.0610  0.4212  0.1582
  977MOL0     C34741   2.884   9.833   2.055  0.0725 -0.0232 -0.2232
  977MOL0     C34742   2.951   9.904   1.946  0.2063  0.0952  0.0679
  977MOL0     C34743   3.082   9.990   1.535 -0.3618  0.7947 -0.6388
  977MOL0     C34744   3.150  10.113   1.553  1.3157 -0.1843 -0.1212
  977MOL0     C34745   3.187  10.195   1.456 -0.4694 -0.5435 -0.2211
  977MOL0     C34746   3.183  10.152   1.327  0.1422 -0.2352  0.5931
  977MOL0     O34747   3.209  10.226   1.216  0.1924 -0.4439 -0.4099
  977MOL0     C34748   3.272  10.358   1.229  0.8623  0.1553  0.7014
  977MOL0     C34749   3.302  10.413   1.095  0.8289  0.0270  0.1448
  977MOL0     C34750   3.433  10.351   1.038 -0.8122  0.2815 -0.4203
  977MOL0     C34751   3.430  10.368   0.888 -0.1936 -0.1879  0.1264
  977MOL0     C34752   3.540  10.294   0.822 -0.3043  0.9267 -0.4999
  977MOL0     C34753   3.619  10.233   0.754  0.6017  0.0284 -0.4636
  977MOL0     C34754   3.142  10.020   1.295 -1.1483  0.5096  0.1693
  977MOL0     C34755   3.085   9.950   1.398  0.0753 -0.1763  0.0599
  977MOL0     C34756   3.041   9.816   1.352  0.7033  0.3823 -0.3949
  977MOL0     H34757   3.175   9.663   1.841 -0.8972  2.0443 -2.0697
  977MOL0     H34758   3.049   9.545   2.035 -2.3426 -1.2355 -0.1502
  977MOL0     H34759   2.682   9.547   2.259 -2.0020  1.4680  0.8043
  977MOL0     H34760   2.654   9.690   2.150  1.1257 -1.5618 -2.6446
  977MOL0     H34761   2.807   9.800   2.330  0.9579 -0.7321 -0.5695
  977MOL0     H34762   2.646   9.747   2.394  0.9303  1.8605  1.7099
  977MOL0     H34763   2.733   9.556   2.498  1.7264 -1.8136  0.2571
  977MOL0     H34764   2.893   9.564   2.425  2.2588  1.9125 -1.1889
  977MOL0     H34765   2.921   9.783   2.526  1.3091 -0.3174 -0.7656
  977MOL0     H34766   2.763   9.769   2.605 -0.0883 -3.0861  4.0919
  977MOL0     H34767   2.853   9.555   2.711 -0.2224  0.3374  0.0563
  977MOL0     H34768   2.882   9.696   2.773 -0.5857 -1.5653  0.2391
  977MOL0     H34769   3.118   9.559   2.614 -0.0849  1.7309  0.2560
  977MOL0     H34770   3.114   9.724   2.650  0.3567  0.1210 -0.1557
  977MOL0     H34771   3.074   9.652   2.894 -1.7552 -2.5609 -0.1036
  977MOL0     H34772   3.237   9.615   2.823 -0.1656  0.6862 -2.1200
  977MOL0     H34773   3.171   9.381   2.801  0.9730  0.9983  1.1142
  977MOL0     H34774   3.155   9.437   2.968 -2.2701  3.1045  1.8070
  977MOL0     H34775   2.866   9.523   3.006  1.3719 -1.0031  0.5604
  977MOL0     H34776   2.718   9.276   3.163  2.1904 -3.2351 -1.7273
  977MOL0     H34777   2.628   9.212   3.017  2.0522 -0.3931 -1.5078
  977MOL0     H34778   2.600   9.499   3.044  1.5331 -1.0123  1.9673
  977MOL0     H34779   2.520   9.372   2.950 -0.4552  0.1637  0.0558
  977MOL0     H34780   2.365   9.389   3.121 -0.1072 -2.2980 -0.9774
  977MOL0     H34781   2.461   9.268   3.194 -1.2021  0.4791  0.4389
  977MOL0     H34782   2.494   9.566   3.246  1.4836  0.1177 -2.8262
  977MOL0     H34783   2.426   9.451   3.358 -0.1697 -2.5421 -0.4342
  977MOL0     H34784   2.614   9.705   3.331  0.1740  0.9374  1.9755
  977MOL0     H34785   2.866   9.944   3.357  0.7679 -0.0551 -0.3563
  977MOL0     H34786   2.697   9.908   3.295  0.6904  0.3134 -0.3078
  977MOL0     H34787   2.820   9.931   3.183 -1.5029 -0.1755 -1.3021
  977MOL0     H34788   3.410   9.536   3.269 -2.6283 -0.9766 -1.6083
  977MOL0     H34789   3.608   9.569   3.185 -0.6756  1.2479  4.4778
  977MOL0     H34790   3.796   9.862   3.187  1.5103 -2.0082  3.1344
  977MOL0     H34791   3.767   9.688   3.176 -3.2541  2.1825  0.9758
  977MOL0     H34792   3.944   9.857   3.013 -3.9471  0.3956  1.6195
  977MOL0     H34793   3.996   9.744   3.156 -1.7683 -0.2243  1.4313
  977MOL0     H34794   3.907   9.651   2.894 -0.0130 -1.8717 -1.2519
  977MOL0     H34795   3.976   9.554   3.041 -0.7239  0.6245  0.0596
  977MOL0     H34796   4.178   9.689   3.019 -0.2785  2.4003 -0.5306
  977MOL0     H34797   4.102   9.753   2.862 -0.6271 -1.6492 -1.7160
  977MOL0     H34798   4.170   9.461   2.921  0.5680 -0.2825  0.5202
  977MOL0     H34799   4.109   9.510   2.767  2.3624  0.3400 -1.8603
  977MOL0     H34800   4.298   9.692   2.788 -1.7329  0.1916  5.9227
  977MOL0     H34801   4.344   9.541   2.707 -3.5091  0.8082 -2.0461
  977MOL0     H34802   4.465   9.459   2.874  1.3247  0.1595  0.5424
  977MOL0     H34803   4.395   9.541   3.017  1.1440 -3.8507 -0.1168
  977MOL0     H34804   4.620   9.633   2.977  0.7863 -2.0350 -2.3123
  977MOL0     H34805   4.501   9.746   2.896  0.7157  1.2669 -0.9400
  977MOL0     H34806   3.464   9.891   2.943 -2.5183  0.5159  1.0973
  977MOL0     H34807   3.240   9.856   3.053 -0.9503 -1.6873 -0.3891
  977MOL0     H34808   3.052   9.491   3.284  1.6330  1.0846  1.2932
  977MOL0     H34809   2.864   9.364   3.350  1.8343 -0.2836 -2.4147
  977MOL0     H34810   2.804   9.891   2.099  1.6792  2.9709 -1.0198
  977MOL0     H34811   2.928  10.003   1.908 -2.2552 -0.9023 -1.2836
  977MOL0     H34812   3.159  10.150   1.655 -2.2516  0.2668  0.1578
  977MOL0     H34813   3.229  10.286   1.497 -2.9013 -0.5001  2.4844
  977MOL0     H34814   3.211  10.423   1.292  0.5109  2.0970 -1.4953
  977MOL0     H34815   3.365  10.357   1.286  0.8354 -0.3778  0.7445
  977MOL0     H34816   3.307  10.522   1.098 -3.6455  0.5826 -3.1925
  977MOL0     H34817   3.215  10.393   1.032 -0.6110  0.2845  1.9850
  977MOL0     H34818   3.520  10.393   1.089  0.2286 -0.9847 -1.0992
  977MOL0     H34819   3.422  10.246   1.066 -1.3352  0.6262  0.7161
  977MOL0     H34820   3.431  10.474   0.861  1.6156 -0.8666 -2.9176
  977MOL0     H34821   3.339  10.326   0.843 -0.6694 -1.2718  1.9816
  977MOL0     H34822   3.672  10.171   0.685 -2.2350  2.3248 -5.2247
  977MOL0     H34823   3.133   9.978   1.195  2.1066 -3.6887  1.3397
  977MOL0     H34824   3.104   9.755   1.417 -1.5205 -1.4440  0.1569
  977MOL0     H34825   2.936   9.799   1.377  0.6182  0.2868 -0.8099
  977MOL0     H34826   3.066   9.777   1.252  4.1962 -1.3097  0.9723
  978MOL0     O34827   9.135   5.080   7.631 -0.3551  0.2926  0.8232
  978MOL0     C34828   9.028   5.051   7.687 -0.2570 -0.3877  0.3958
  978MOL0     O34829   9.014   5.047   7.829 -0.1271  0.8306  0.9234
  978MOL0     C34830   9.127   5.035   7.908  0.1676 -0.3799  0.4014
  978MOL0     C34831   9.195   4.912   7.927  0.2111 -0.2661 -0.3655
  978MOL0     C34832   9.287   4.899   8.028  0.1312  0.1686 -0.0400
  978MOL0     C34833   9.325   5.011   8.103 -0.4762 -0.4127 -0.3712
  978MOL0     O34834   9.434   4.984   8.188 -0.3075  0.2964  0.0978
  978MOL0     C34835   9.479   5.083   8.277  0.4189  0.1259 -0.1915
  978MOL0     C34836   9.544   5.008   8.397 -0.4272 -0.0074  0.5222
  978MOL0     C34837   9.679   4.937   8.371 -0.4437 -0.9063 -0.4212
  978MOL0     C34838   9.666   4.793   8.312  0.5296 -0.4180 -0.0924
  978MOL0     C34839   9.798   4.727   8.305 -0.0048 -1.0302 -0.4361
  978MOL0     C34840   9.807   4.590   8.230 -0.9158  0.2671 -0.0165
  978MOL0     C34841   9.955   4.558   8.204  0.3386  0.5747  0.2805
  978MOL0     C34842   9.974   4.420   8.150 -0.5040 -0.3370 -0.3889
  978MOL0     N34843  10.115   4.385   8.141 -1.0642 -0.8088 -0.6824
  978MOL0     C34844  10.211   4.402   8.246  0.5285  0.4319 -0.2788
  978MOL0     C34845  10.322   4.351   8.192 -0.6943 -0.9624 -0.2232
  978MOL0     C34846  10.463   4.345   8.252 -0.0118 -0.4763  0.6349
  978MOL0     C34847  10.583   4.359   8.149  1.1611 -0.5883 -0.3319
  978MOL0     C34848  10.711   4.319   8.208  0.6268  0.4590 -0.0779
  978MOL0     C34849  10.838   4.340   8.125 -0.6498  0.3230  0.7345
  978MOL0     O34850  10.947   4.307   8.209 -0.2106  0.6490 -0.9406
  978MOL0     C34851  11.072   4.360   8.166  0.7556  0.7229  0.0576
  978MOL0     C34852  11.111   4.330   8.036  0.6056 -0.8866  0.0331
  978MOL0     C34853  11.244   4.352   7.988 -0.1660 -0.1462 -0.0802
  978MOL0     C34854  11.285   4.333   7.845 -0.0265 -0.7313 -0.1592
  978MOL0     C34855  11.336   4.392   8.089  0.0578  0.0250  0.1024
  978MOL0     C34856  11.479   4.431   8.072  0.3342 -0.3823  0.0337
  978MOL0     O34857  11.522   4.549   8.137  0.6974 -0.0509 -0.0002
  978MOL0     C34858  11.648   4.595   8.108  0.2270  0.2217  0.0828
  978MOL0     C34859  11.664   4.734   8.112  0.4883  0.5882  0.7248
  978MOL0     C34860  11.788   4.792   8.099 -0.4266  0.7110 -0.4671
  978MOL0     C34861  11.901   4.722   8.111  0.2954 -0.5358 -0.4126
  978MOL0     O34862  12.019   4.792   8.109 -0.1819 -0.3500 -0.9099
  978MOL0     C34863  12.111   4.742   8.015  0.6525  0.1950 -0.6804
  978MOL0     C34864  12.208   4.854   7.972  0.3938 -1.4630  0.6827
  978MOL0     C34865  12.123   4.964   7.912 -0.1426  0.0112  1.0538
  978MOL0     C34866  12.209   5.096   7.897 -0.0471  0.2098 -0.9313
  978MOL0     C34867  12.337   5.081   7.811 -0.4123 -0.2023 -0.0644
  978MOL0     C34868  12.402   5.216   7.794 -0.1508  0.4463  0.3437
  978MOL0     C34869  12.499   5.209   7.682  0.2380  0.7412 -0.5624
  978MOL0     C34870  12.448   5.297   7.565 -0.3519 -0.2569 -0.3460
  978MOL0    Cl34871  12.574   5.307   7.437 -0.1067  0.2861  0.1277
  978MOL0     C34872  11.894   4.580   8.106 -0.0260 -0.0731 -0.7439
  978MOL0     C34873  11.768   4.522   8.113  0.0854 -0.8028 -0.0311
  978MOL0     O34874  11.550   4.349   8.022  0.5064 -0.3850 -0.7400
  978MOL0     C34875  11.301   4.431   8.222  0.9036  0.4899  0.1998
  978MOL0     C34876  11.163   4.401   8.262  0.4756 -0.0617  0.3317
  978MOL0     N34877  10.292   4.293   8.070  0.6605 -0.0757 -0.2136
  978MOL0     N34878  10.171   4.313   8.041  0.4046  0.1888  0.1200
  978MOL0     C34879   9.265   5.142   8.083  1.1225 -0.0576  0.0330
  978MOL0     C34880   9.164   5.148   7.979  0.5875 -0.1976  0.2338
  978MOL0     C34881   8.896   5.045   7.625  0.5840  0.3914 -0.3147
  978MOL0     C34882   8.782   5.026   7.705  0.2134 -0.7370 -0.5405
  978MOL0     C34883   8.661   5.014   7.647  0.1403  0.8786 -0.2399
  978MOL0     C34884   8.629   5.030   7.510 -0.1984 -0.1734 -0.0196
  978MOL0     O34885   8.506   5.028   7.451  0.2602  0.4048 -0.0031
  978MOL0     C34886   8.415   4.942   7.527 -0.6475 -0.1340  0.6639
  978MOL0     C34887   8.279   4.919   7.454 -0.2808 -0.2262  0.1951
  978MOL0     C34888   8.229   5.050   7.386 -1.3418 -0.5412 -0.6949
  978MOL0     C34889   8.081   5.053   7.352  0.4228 -0.4711 -0.2237
  978MOL0     C34890   8.055   5.073   7.211  0.9884 -0.4098  0.1823
  978MOL0     C34891   8.023   5.069   7.096  0.4547  0.0599 -0.0508
  978MOL0     C34892   8.741   5.063   7.430  0.4837  0.9860  0.6821
  978MOL0     C34893   8.871   5.066   7.485  0.2473 -0.2490  0.1152
  978MOL0     C34894   8.973   5.090   7.380  0.1873 -1.7040  0.0058
  978MOL0     H34895   9.157   4.822   7.881  1.8095 -1.6955  0.9617
  978MOL0     H34896   9.326   4.805   8.066  0.9083 -0.1015 -1.4305
  978MOL0     H34897   9.400   5.146   8.319  2.4567  2.3368  0.5338
  978MOL0     H34898   9.556   5.137   8.222  0.2634 -1.9057 -2.5752
  978MOL0     H34899   9.553   5.075   8.483  0.0339 -1.3516  1.5492
  978MOL0     H34900   9.470   4.940   8.441 -2.3208  0.5276 -1.6470
  978MOL0     H34901   9.753   5.001   8.322  0.2601  1.4978  3.4149
  978MOL0     H34902   9.717   4.932   8.473 -0.7283 -0.7971 -0.3114
  978MOL0     H34903   9.588   4.738   8.366  2.2835 -3.8240 -0.7508
  978MOL0     H34904   9.633   4.795   8.208  1.7251  2.2341 -0.5038
  978MOL0     H34905   9.828   4.723   8.411 -2.1952 -0.4536  0.2549
  978MOL0     H34906   9.856   4.799   8.247  0.8652 -1.6312 -0.3397
  978MOL0     H34907   9.768   4.516   8.300  2.7016 -2.1148 -0.2511
  978MOL0     H34908   9.754   4.592   8.134  3.2414  1.8357 -2.5519
  978MOL0     H34909  10.026   4.576   8.285 -0.2816  1.0718  0.7208
  978MOL0     H34910   9.975   4.632   8.125 -4.2480  0.9947 -0.7847
  978MOL0     H34911   9.924   4.344   8.211 -2.2910 -0.7504 -2.2454
  978MOL0     H34912   9.940   4.418   8.046  1.8033  0.0191 -1.1914
  978MOL0     H34913  10.205   4.459   8.338  1.5526  1.1158 -0.6182
  978MOL0     H34914  10.481   4.246   8.295  1.2900 -0.5457 -0.0181
  978MOL0     H34915  10.471   4.421   8.331  0.3724  0.6377 -0.4425
  978MOL0     H34916  10.563   4.283   8.073  1.2220 -1.6641  0.7131
  978MOL0     H34917  10.586   4.460   8.107 -1.5246  0.1228  0.9591
  978MOL0     H34918  10.725   4.378   8.299 -1.1016  0.8064 -0.0073
  978MOL0     H34919  10.707   4.218   8.251  1.4914  0.3567 -0.2276
  978MOL0     H34920  10.839   4.264   8.047 -1.7009 -2.2627  3.0585
  978MOL0     H34921  10.861   4.433   8.072  1.1700 -0.5041 -0.0115
  978MOL0     H34922  11.038   4.297   7.963  0.4468 -0.9596  0.2225
  978MOL0     H34923  11.305   4.225   7.842  0.1089 -0.6873 -1.2185
  978MOL0     H34924  11.379   4.386   7.828 -0.1621  0.7308  2.9571
  978MOL0     H34925  11.211   4.368   7.772 -2.6932 -0.6697  2.3696
  978MOL0     H34926  11.575   4.795   8.103 -0.7283 -1.1865  0.3198
  978MOL0     H34927  11.790   4.899   8.115 -1.8953  0.7505 -0.4391
  978MOL0     H34928  12.159   4.657   8.063  0.0025 -0.5732 -1.3489
  978MOL0     H34929  12.057   4.712   7.924  1.6810  4.7268 -3.1403
  978MOL0     H34930  12.272   4.886   8.054  2.2492  2.7912 -2.0815
  978MOL0     H34931  12.282   4.811   7.903  1.8596  0.7755  0.7512
  978MOL0     H34932  12.041   4.995   7.977 -0.2063 -0.3348  1.1404
  978MOL0     H34933  12.080   4.943   7.813 -0.1632  1.7657  0.6466
  978MOL0     H34934  12.230   5.135   7.997 -0.4272  1.0638 -1.1745
  978MOL0     H34935  12.155   5.180   7.853 -1.7050  0.0412  0.6749
  978MOL0     H34936  12.407   5.005   7.848 -1.5347 -0.7985  0.9170
  978MOL0     H34937  12.299   5.043   7.716 -0.6118 -2.6585  0.9083
  978MOL0     H34938  12.453   5.245   7.886 -1.0339 -0.7775  1.2570
  978MOL0     H34939  12.327   5.293   7.771 -0.3959  1.4904  3.9235
  978MOL0     H34940  12.516   5.106   7.647 -0.3581  0.6197 -0.5151
  978MOL0     H34941  12.598   5.246   7.709 -0.0312 -0.0255  1.7138
  978MOL0     H34942  12.424   5.398   7.599 -2.2162 -0.8603  0.2657
  978MOL0     H34943  12.356   5.250   7.529 -1.4317  1.0793  0.5671
  978MOL0     H34944  11.982   4.516   8.098 -0.3745 -0.9349  1.4449
  978MOL0     H34945  11.761   4.414   8.123  0.1215 -0.6792  1.6164
  978MOL0     H34946  11.373   4.445   8.301 -0.2078 -2.0092  1.7792
  978MOL0     H34947  11.131   4.413   8.366 -1.3743 -0.5041 -0.1416
  978MOL0     H34948   9.284   5.225   8.150 -2.7090  0.2741  0.9159
  978MOL0     H34949   9.098   5.230   7.950 -0.2639 -1.8310 -2.9433
  978MOL0     H34950   8.791   4.998   7.809  3.4092 -2.3874 -1.1292
  978MOL0     H34951   8.582   4.988   7.716 -2.4928  2.8449 -2.3048
  978MOL0     H34952   8.465   4.845   7.529  0.6210  0.4974  3.2330
  978MOL0     H34953   8.400   4.973   7.631  1.6806 -0.3270  1.1038
  978MOL0     H34954   8.218   4.879   7.536  1.0564 -2.9552 -0.0078
  978MOL0     H34955   8.288   4.839   7.380  0.4138  0.8604 -0.9244
  978MOL0     H34956   8.226   5.123   7.467 -2.1821 -0.4281 -0.8198
  978MOL0     H34957   8.292   5.084   7.304 -1.2519  0.2643 -0.2934
  978MOL0     H34958   8.027   5.130   7.407 -1.6066 -3.3103  2.0871
  978MOL0     H34959   8.043   4.955   7.381 -0.4563  0.8614  3.7822
  978MOL0     H34960   7.999   5.066   6.992 -0.1193 -1.7537  0.0949
  978MOL0     H34961   8.729   5.069   7.322  2.9079  1.0009  0.3536
  978MOL0     H34962   9.039   5.169   7.419 -0.8728 -1.0504  0.5434
  978MOL0     H34963   9.042   5.005   7.371 -0.4128 -2.1013 -0.8783
  978MOL0     H34964   8.921   5.113   7.287 -0.0460  0.9601  0.7081
  979MOL0     O34965   3.822   9.293   6.168 -0.5141 -0.1525 -1.0027
  979MOL0     C34966   3.773   9.393   6.211  0.3847 -0.3593 -0.5621
  979MOL0     O34967   3.680   9.468   6.150  0.8562 -0.1556 -0.6035
  979MOL0     C34968   3.686   9.472   6.013 -0.2314 -0.2479  0.5786
  979MOL0     C34969   3.791   9.541   5.944  0.4823  0.2863  0.1806
  979MOL0     C34970   3.768   9.554   5.806 -0.2900 -0.1973 -0.7826
  979MOL0     C34971   3.672   9.479   5.730 -0.7717  0.0193 -0.5272
  979MOL0     O34972   3.653   9.479   5.591  0.3569  0.1744 -0.3621
  979MOL0     C34973   3.739   9.548   5.495  0.4275 -0.6009 -0.1364
  979MOL0     C34974   3.880   9.494   5.488  0.6056 -0.2135  0.0456
  979MOL0     C34975   3.939   9.512   5.351  0.6254 -0.2285  0.4568
  979MOL0     C34976   3.925   9.386   5.251 -0.0287 -0.7437 -0.6335
  979MOL0     C34977   3.788   9.377   5.192 -0.7125 -0.1156  1.1378
  979MOL0     C34978   3.780   9.282   5.078 -0.0635  0.1116 -0.1711
  979MOL0     C34979   3.830   9.332   4.946 -0.0938  0.7118 -0.0771
  979MOL0     C34980   3.774   9.260   4.822  0.1983  0.2516  0.2372
  979MOL0     N34981   3.799   9.118   4.812 -0.3991  0.1866 -0.1584
  979MOL0     C34982   3.719   9.028   4.733 -0.1625 -0.4648  0.4872
  979MOL0     C34983   3.786   8.911   4.744 -0.2802 -0.7820 -0.0075
  979MOL0     C34984   3.740   8.785   4.678  0.0391  0.1967  0.2258
  979MOL0     C34985   3.757   8.777   4.522  0.1926 -0.1893  0.3782
  979MOL0     C34986   3.884   8.836   4.460 -0.1055  0.3703 -0.0781
  979MOL0     C34987   3.919   8.755   4.336 -0.7197  0.7168  0.2078
  979MOL0     O34988   3.810   8.756   4.239 -0.1021  0.2073  0.5207
  979MOL0     C34989   3.812   8.662   4.137 -0.2661  0.9758 -0.5879
  979MOL0     C34990   3.903   8.555   4.131  0.3141 -0.5560 -0.1760
  979MOL0     C34991   3.888   8.445   4.048  0.5730  0.0881 -0.0518
  979MOL0     C34992   3.988   8.336   4.051  0.6568  0.7830  0.0672
  979MOL0     C34993   3.779   8.439   3.961 -0.1240  0.0419 -0.0264
  979MOL0     C34994   3.750   8.326   3.871 -0.2072 -0.2439 -0.4652
  979MOL0     O34995   3.700   8.360   3.751 -0.9510 -0.8896 -0.0328
  979MOL0     C34996   3.730   8.299   3.641 -0.0864  0.9500  1.1467
  979MOL0     C34997   3.627   8.305   3.544 -0.5390  0.3888 -0.0419
  979MOL0     C34998   3.630   8.217   3.439  1.4724  1.3118  0.3263
  979MOL0     C34999   3.743   8.142   3.418 -1.1979  0.0540 -0.2344
  979MOL0     O35000   3.744   8.050   3.316  0.2091  0.3251  0.5609
  979MOL0     C35001   3.828   7.936   3.320 -0.4401 -0.1551  0.2752
  979MOL0     C35002   3.766   7.815   3.397 -0.2070  0.4500  0.6839
  979MOL0     C35003   3.824   7.684   3.359 -0.1199 -0.1206  0.4311
  979MOL0     C35004   3.777   7.627   3.229 -0.6289  0.6730  0.9214
  979MOL0     C35005   3.764   7.472   3.220  0.2675  0.3143 -0.1424
  979MOL0     C35006   3.614   7.422   3.221  0.2059 -0.3557  0.3752
  979MOL0     C35007   3.532   7.469   3.340 -0.0716  0.1443 -0.0291
  979MOL0     C35008   3.417   7.370   3.373 -0.4511 -0.7357  0.0071
  979MOL0    Cl35009   3.302   7.346   3.248 -0.0499 -0.6403  0.2602
  979MOL0     C35010   3.854   8.153   3.504 -0.0950 -0.1717 -0.6169
  979MOL0     C35011   3.850   8.239   3.608  1.4320 -0.6915  0.0494
  979MOL0     O35012   3.771   8.210   3.918 -0.3863 -0.3958 -0.0948
  979MOL0     C35013   3.697   8.548   3.958 -0.0923  0.4130 -0.3402
  979MOL0     C35014   3.700   8.656   4.048 -0.2658 -0.1104  0.3099
  979MOL0     N35015   3.892   8.926   4.831 -0.0484  0.5277 -0.8364
  979MOL0     N35016   3.898   9.044   4.873  0.4578 -0.4030  0.3178
  979MOL0     C35017   3.587   9.388   5.801 -0.0244  0.1929 -0.0800
  979MOL0     C35018   3.584   9.399   5.942  0.7370  0.0148  0.4476
  979MOL0     C35019   3.809   9.429   6.359  0.7382 -1.1511  0.1431
  979MOL0     C35020   3.936   9.413   6.404 -0.9249 -0.2224 -0.3980
  979MOL0     C35021   3.976   9.457   6.531 -0.3874 -0.1464 -0.3992
  979MOL0     C35022   3.876   9.494   6.626 -0.2094  0.5628  0.5335
  979MOL0     O35023   3.905   9.524   6.758  1.1344 -0.0460  0.5617
  979MOL0     C35024   4.042   9.541   6.808 -0.0758  0.1576  0.0826
  979MOL0     C35025   4.111   9.410   6.829  0.0550 -0.6241  0.0264
  979MOL0     C35026   4.084   9.368   6.974  0.8322  0.4834 -0.1024
  979MOL0     C35027   4.105   9.211   7.004 -0.3031 -0.2048  0.2064
  979MOL0     C35028   4.027   9.190   7.132  0.5659  0.5157  0.2886
  979MOL0     C35029   3.953   9.156   7.225  0.4904 -1.2831  0.4390
  979MOL0     C35030   3.737   9.499   6.592 -0.3655  0.7260  0.0550
  979MOL0     C35031   3.708   9.467   6.457  0.9913 -0.2703  0.3981
  979MOL0     C35032   3.563   9.458   6.426  0.7678 -0.8738 -0.0549
  979MOL0     H35033   3.866   9.588   6.006 -2.0267 -1.1856  4.7904
  979MOL0     H35034   3.845   9.610   5.754  0.2583 -2.9782 -3.2606
  979MOL0     H35035   3.739   9.655   5.518  0.1547 -0.2151 -1.8397
  979MOL0     H35036   3.688   9.538   5.399  0.0842  2.9959 -0.4562
  979MOL0     H35037   3.939   9.550   5.561 -1.1195  0.6359  0.8406
  979MOL0     H35038   3.886   9.391   5.526  2.3949  0.5538  2.0054
  979MOL0     H35039   3.893   9.598   5.301 -1.3187 -0.8686  1.0544
  979MOL0     H35040   4.045   9.522   5.374  0.8508  1.4443 -1.0863
  979MOL0     H35041   4.002   9.391   5.173  2.3181 -4.7474  1.0825
  979MOL0     H35042   3.956   9.299   5.310  1.1844  1.0484  1.4696
  979MOL0     H35043   3.758   9.478   5.164 -3.3687 -0.2219  3.1444
  979MOL0     H35044   3.719   9.344   5.271  0.9853 -1.3013  2.1893
  979MOL0     H35045   3.815   9.186   5.117  1.7824  0.5019 -0.7482
  979MOL0     H35046   3.673   9.261   5.073  0.1999 -1.4061  0.0977
  979MOL0     H35047   3.938   9.316   4.941 -0.0051  1.1637  0.4248
  979MOL0     H35048   3.807   9.438   4.937 -1.0682  0.4345 -1.2975
  979MOL0     H35049   3.666   9.274   4.814  0.1841 -0.0871 -0.2567
  979MOL0     H35050   3.819   9.314   4.739 -1.7763  0.4419 -0.7731
  979MOL0     H35051   3.624   9.046   4.682  0.5526 -3.2906 -2.2049
  979MOL0     H35052   3.631   8.775   4.680 -0.4408  3.8422 -1.1246
  979MOL0     H35053   3.786   8.701   4.732 -3.1512 -1.5517  0.4678
  979MOL0     H35054   3.742   8.672   4.496 -6.7886 -0.3182  2.9254
  979MOL0     H35055   3.667   8.822   4.480 -1.5564 -1.8522  2.1073
  979MOL0     H35056   3.865   8.939   4.427 -0.3489 -0.4530 -2.6740
  979MOL0     H35057   3.975   8.846   4.520 -0.3815 -0.2085  0.4444
  979MOL0     H35058   4.010   8.788   4.284 -0.6584 -0.7979 -0.7212
  979MOL0     H35059   3.931   8.654   4.375 -1.3167  1.6437  2.9956
  979MOL0     H35060   3.984   8.561   4.203  0.5805 -1.3421 -0.3974
  979MOL0     H35061   4.012   8.297   3.952 -0.5710  0.3526 -0.0841
  979MOL0     H35062   3.959   8.256   4.120  0.6183 -0.3738 -1.2476
  979MOL0     H35063   4.082   8.381   4.082 -0.7402  3.5227  0.6713
  979MOL0     H35064   3.542   8.364   3.577 -0.8267 -0.8286  1.5273
  979MOL0     H35065   3.552   8.209   3.364  1.0551  1.0650  0.7757
  979MOL0     H35066   3.842   7.900   3.217  1.5789 -1.6707  1.0116
  979MOL0     H35067   3.928   7.963   3.354 -0.7826 -0.1502  1.2908
  979MOL0     H35068   3.792   7.837   3.501 -0.0189 -0.7288  0.8998
  979MOL0     H35069   3.658   7.811   3.384  0.0539 -0.7183 -1.4558
  979MOL0     H35070   3.787   7.619   3.439 -3.4104 -0.2212 -1.0198
  979MOL0     H35071   3.933   7.694   3.358 -0.2504  1.9780 -2.1656
  979MOL0     H35072   3.852   7.655   3.155 -0.8830  1.8154  1.0834
  979MOL0     H35073   3.685   7.674   3.192  0.0932 -0.1912 -2.3202
  979MOL0     H35074   3.808   7.433   3.127 -2.2323 -2.8185 -0.1844
  979MOL0     H35075   3.802   7.430   3.314 -2.4657 -0.0620  0.8836
  979MOL0     H35076   3.627   7.313   3.215  1.2894 -0.1691 -1.7038
  979MOL0     H35077   3.561   7.440   3.127 -0.1430 -2.8640  0.0249
  979MOL0     H35078   3.478   7.563   3.324  0.7220  1.0603  2.2749
  979MOL0     H35079   3.588   7.494   3.430  0.9769 -0.4989 -0.4769
  979MOL0     H35080   3.363   7.415   3.457  1.7671  1.2151  0.5138
  979MOL0     H35081   3.465   7.276   3.402 -1.6862 -1.2008  0.6032
  979MOL0     H35082   3.948   8.101   3.483  0.8548  1.5553 -0.8160
  979MOL0     H35083   3.938   8.225   3.670 -0.7685 -0.4250  3.4545
  979MOL0     H35084   3.616   8.539   3.885 -0.0473 -2.1025 -0.1711
  979MOL0     H35085   3.625   8.734   4.049 -1.0733 -0.8643  1.6545
  979MOL0     H35086   3.508   9.325   5.762  1.0554 -1.7043  0.6580
  979MOL0     H35087   3.509   9.331   5.981 -0.3297  0.6934 -0.3581
  979MOL0     H35088   4.014   9.371   6.341 -0.8561  0.4432 -0.7692
  979MOL0     H35089   4.083   9.455   6.551 -0.3126 -0.9667 -0.8328
  979MOL0     H35090   4.091   9.600   6.730 -2.0654  0.3288 -1.1086
  979MOL0     H35091   4.012   9.593   6.900 -4.0411 -0.4348 -0.6711
  979MOL0     H35092   4.220   9.418   6.828  0.3954 -3.5102  1.4738
  979MOL0     H35093   4.066   9.340   6.758 -3.1919  2.1675 -0.9442
  979MOL0     H35094   4.143   9.428   7.044  3.5349  0.3570 -2.1197
  979MOL0     H35095   3.977   9.379   6.995  0.7940 -0.8517  0.5036
  979MOL0     H35096   4.210   9.196   7.029 -0.5415 -0.1729  1.2862
  979MOL0     H35097   4.079   9.136   6.928  0.0163  2.0551 -2.3053
  979MOL0     H35098   3.896   9.145   7.314 -0.0498  1.7216  0.5578
  979MOL0     H35099   3.669   9.540   6.666  1.3508  1.2080  1.4583
  979MOL0     H35100   3.527   9.541   6.364 -2.1021 -0.8939  1.4197
  979MOL0     H35101   3.541   9.371   6.363 -3.4014 -1.0183  1.2752
  979MOL0     H35102   3.495   9.462   6.512  1.9452  1.1803  0.8472
  980MOL0     O35103   7.240   8.789  10.521 -0.9822 -0.6138 -0.1179
  980MOL0     C35104   7.296   8.803  10.412  0.1931 -0.5028 -0.5898
  980MOL0     O35105   7.352   8.916  10.361 -0.1046 -0.6972 -0.0114
  980MOL0     C35106   7.388   9.029  10.444  0.2894  0.5950  0.7838
  980MOL0     C35107   7.439   9.138  10.377  0.2504  0.0597 -0.3035
  980MOL0     C35108   7.479   9.256  10.438 -0.4346  0.5673 -0.8479
  980MOL0     C35109   7.509   9.260  10.575  0.0871 -0.1600  1.3142
  980MOL0     O35110   7.568   9.371  10.631 -0.4400 -0.7917 -0.1025
  980MOL0     C35111   7.708   9.354  10.674 -0.2797  0.1666 -0.4002
  980MOL0     C35112   7.753   9.499  10.666  0.4752  0.0779  0.0004
  980MOL0     C35113   7.817   9.535  10.523  0.4085  0.7239  0.1116
  980MOL0     C35114   7.947   9.457  10.497  0.8591 -0.7258 -0.1266
  980MOL0     C35115   8.040   9.538  10.402  0.2043  0.7230  0.6236
  980MOL0     C35116   8.192   9.503  10.417  0.5367  0.6254  0.4234
  980MOL0     C35117   8.208   9.350  10.387  0.6001 -0.5401 -0.2724
  980MOL0     C35118   8.349   9.318  10.361  0.4024  0.2759  0.2555
  980MOL0     N35119   8.376   9.169  10.373 -0.5016 -0.5170 -0.3433
  980MOL0     C35120   8.414   9.090  10.475 -0.8398  0.1188 -0.6809
  980MOL0     C35121   8.412   8.964  10.432  0.3207  0.4503 -0.4641
  980MOL0     C35122   8.479   8.856  10.507  0.7111  0.9992  0.7628
  980MOL0     C35123   8.627   8.878  10.519 -0.1171 -0.0663 -0.2447
  980MOL0     C35124   8.716   8.935  10.409  0.5849 -0.0014  0.0667
  980MOL0     C35125   8.709   8.848  10.280 -0.4024 -0.1137  0.0250
  980MOL0     O35126   8.771   8.721  10.282  0.1447 -0.8274 -0.1663
  980MOL0     C35127   8.802   8.651  10.168  0.0015 -1.1676 -0.6170
  980MOL0     C35128   8.892   8.544  10.181  0.1953  1.1245  1.2412
  980MOL0     C35129   8.918   8.459  10.071 -0.1230 -0.4491  0.4613
  980MOL0     C35130   9.030   8.357  10.096 -0.3083 -0.0852 -0.3291
  980MOL0     C35131   8.857   8.474   9.947  0.3788 -0.4639  0.7348
  980MOL0     C35132   8.877   8.380   9.843  0.4985  0.0816  0.4356
  980MOL0     O35133   9.006   8.360   9.791 -0.0697 -0.3278  0.0914
  980MOL0     C35134   9.045   8.239   9.736  0.3006 -0.2264 -0.3393
  980MOL0     C35135   8.960   8.127   9.721 -0.4503 -0.2080 -0.0013
  980MOL0     C35136   9.012   8.010   9.663 -0.3842 -0.0255  0.3325
  980MOL0     C35137   9.153   7.985   9.642  0.7829 -0.2974  0.2082
  980MOL0     O35138   9.183   7.858   9.604 -0.1103 -0.4456  0.3133
  980MOL0     C35139   9.320   7.838   9.567 -0.5180 -0.2507  0.6062
  980MOL0     C35140   9.417   7.816   9.686  0.2581 -0.6352  1.2628
  980MOL0     C35141   9.553   7.759   9.631 -0.2087  0.0928 -0.1710
  980MOL0     C35142   9.528   7.595   9.605 -0.8751 -0.4884  0.0819
  980MOL0     C35143   9.646   7.525   9.525  1.2934 -0.6277  0.1246
  980MOL0     C35144   9.782   7.549   9.582  0.3157  0.0323  0.3207
  980MOL0     C35145   9.889   7.493   9.491 -0.4710  0.3043  0.7312
  980MOL0     C35146  10.024   7.482   9.579  0.3532 -0.4759 -0.9745
  980MOL0    Cl35147  10.041   7.632   9.670 -0.0790  0.3810 -0.2974
  980MOL0     C35148   9.232   8.098   9.653 -0.2156  0.6135  0.1753
  980MOL0     C35149   9.178   8.217   9.703  0.6519 -0.5616 -0.1552
  980MOL0     O35150   8.774   8.333   9.801 -0.0221 -0.1390  0.4376
  980MOL0     C35151   8.760   8.570   9.935  0.2855  0.0726 -0.8918
  980MOL0     C35152   8.739   8.667  10.039 -0.1528  0.0801  0.3990
  980MOL0     N35153   8.359   8.954  10.307 -0.1832 -0.0562 -0.4256
  980MOL0     N35154   8.334   9.085  10.274  0.4900 -0.0476  0.5030
  980MOL0     C35155   7.466   9.141  10.653  0.5081  0.3740  0.6821
  980MOL0     C35156   7.407   9.024  10.581  0.9758  0.1279  0.3426
  980MOL0     C35157   7.290   8.683  10.316 -0.1175  0.1024  0.1978
  980MOL0     C35158   7.379   8.678  10.201  0.2906  0.3466  0.0704
  980MOL0     C35159   7.371   8.568  10.108  0.0464  0.0158 -0.5964
  980MOL0     C35160   7.280   8.465  10.128 -0.2399  0.0003  0.6114
  980MOL0     O35161   7.263   8.366  10.043  0.1652  0.4138 -0.4686
  980MOL0     C35162   7.226   8.397   9.904  0.2630 -0.1654 -0.3968
  980MOL0     C35163   7.095   8.330   9.848 -0.3307 -0.1730 -0.5386
  980MOL0     C35164   7.020   8.386   9.728  0.1596 -0.3510  0.5934
  980MOL0     C35165   7.061   8.312   9.594  0.3154 -0.3737 -0.4303
  980MOL0     C35166   7.015   8.392   9.476  0.1256  0.3807  0.2825
  980MOL0     C35167   6.966   8.447   9.373  0.1070  0.6662  0.3622
  980MOL0     C35168   7.192   8.472  10.232  0.3621 -0.0115 -0.9393
  980MOL0     C35169   7.196   8.574  10.327  0.0592 -0.9903  0.3060
  980MOL0     C35170   7.084   8.546  10.417  0.0039 -1.6515  0.3091
  980MOL0     H35171   7.430   9.133  10.269  3.0756 -2.0904 -0.5665
  980MOL0     H35172   7.513   9.336  10.373  5.8589 -1.4062 -0.5547
  980MOL0     H35173   7.770   9.287  10.614  0.5403 -1.2989  1.9366
  980MOL0     H35174   7.719   9.329  10.780  0.6053 -0.3256 -0.6015
  980MOL0     H35175   7.672   9.562  10.704 -0.3189 -1.4157  0.8790
  980MOL0     H35176   7.825   9.512  10.748 -1.1072  0.0307  1.4517
  980MOL0     H35177   7.742   9.496  10.454  0.4687 -0.2425  0.5860
  980MOL0     H35178   7.830   9.644  10.520  1.7968  0.5558 -1.0870
  980MOL0     H35179   7.996   9.464  10.595  2.9296  0.6715 -1.1686
  980MOL0     H35180   7.939   9.357  10.453  1.3029  0.4235 -3.0278
  980MOL0     H35181   8.034   9.646  10.415  0.1171  0.7640  0.2564
  980MOL0     H35182   8.005   9.515  10.301  0.2067  1.1886  0.5128
  980MOL0     H35183   8.244   9.547  10.331  3.3644 -2.4258  0.3488
  980MOL0     H35184   8.240   9.531  10.512  1.1171 -2.8964  1.3085
  980MOL0     H35185   8.146   9.325  10.300  1.4344 -1.7961 -0.5234
  980MOL0     H35186   8.176   9.295  10.476 -1.7898  1.6892  0.3978
  980MOL0     H35187   8.382   9.354  10.263  0.4300 -1.1912 -0.2934
  980MOL0     H35188   8.409   9.362  10.442  0.0172  0.9415  0.1837
  980MOL0     H35189   8.469   9.127  10.561  0.9164 -0.6141 -1.4347
  980MOL0     H35190   8.447   8.766  10.453  2.0173  0.5417  0.7319
  980MOL0     H35191   8.420   8.846  10.598  1.2362  1.9382  1.2135
  980MOL0     H35192   8.639   8.936  10.611 -1.5012  0.0841 -0.1411
  980MOL0     H35193   8.668   8.779  10.542  1.9477  0.3712 -1.7571
  980MOL0     H35194   8.699   9.039  10.381  2.6313  0.5010  0.5208
  980MOL0     H35195   8.817   8.943  10.449 -0.2708  3.9428  1.9097
  980MOL0     H35196   8.603   8.834  10.257 -0.0513  0.9946 -2.6234
  980MOL0     H35197   8.756   8.899  10.195  0.6656 -0.3778  0.4364
  980MOL0     H35198   8.949   8.535  10.272  1.1964 -1.0706  0.4696
  980MOL0     H35199   9.000   8.253  10.082  0.4022 -0.2197 -0.8991
  980MOL0     H35200   9.077   8.364  10.195 -2.6291  0.1960  0.8445
  980MOL0     H35201   9.114   8.374  10.028 -2.1415  2.6461 -2.1274
  980MOL0     H35202   8.854   8.141   9.739 -0.2116  0.3524  1.0643
  980MOL0     H35203   8.932   7.938   9.645 -0.6102  0.4249 -0.5255
  980MOL0     H35204   9.341   7.752   9.502 -0.7580  0.4736 -0.4655
  980MOL0     H35205   9.352   7.929   9.516 -2.2525  1.7568  2.8942
  980MOL0     H35206   9.443   7.910   9.734 -3.8148  1.1522  0.3550
  980MOL0     H35207   9.377   7.748   9.762 -2.0524 -1.2732 -0.4136
  980MOL0     H35208   9.625   7.782   9.710  0.8734 -1.1436 -0.7528
  980MOL0     H35209   9.588   7.805   9.538  1.7740  0.8821  0.9083
  980MOL0     H35210   9.440   7.581   9.541 -0.0958  0.3003 -1.2085
  980MOL0     H35211   9.506   7.542   9.698  1.6738  1.3762  1.8669
  980MOL0     H35212   9.622   7.424   9.491  1.7358 -0.7088  0.0467
  980MOL0     H35213   9.631   7.580   9.432 -2.3426  1.1275  1.5647
  980MOL0     H35214   9.797   7.498   9.677 -0.4355 -0.6589  0.0785
  980MOL0     H35215   9.798   7.657   9.593  0.5721 -0.0184  0.4463
  980MOL0     H35216   9.900   7.562   9.407 -2.8200 -0.7236 -0.5162
  980MOL0     H35217   9.870   7.401   9.436 -3.3348  1.4974 -0.5060
  980MOL0     H35218  10.103   7.479   9.504  1.5556  0.9633  0.1667
  980MOL0     H35219  10.015   7.388   9.634 -0.9183  0.3745  0.3603
  980MOL0     H35220   9.337   8.090   9.627 -0.6994  0.4781 -1.9583
  980MOL0     H35221   9.237   8.308   9.713  1.3288 -1.0814  0.6551
  980MOL0     H35222   8.698   8.585   9.847 -1.8509  0.3018  0.5688
  980MOL0     H35223   8.669   8.749  10.031  0.5605  0.8846  1.9251
  980MOL0     H35224   7.466   9.143  10.761 -0.8190 -2.4019  0.8269
  980MOL0     H35225   7.391   8.931  10.634 -0.0211 -0.9533 -1.7348
  980MOL0     H35226   7.459   8.746  10.173 -0.2448  0.0463 -2.4624
  980MOL0     H35227   7.449   8.544  10.036  0.3059 -1.4962  0.1565
  980MOL0     H35228   7.213   8.504   9.884 -0.4844  0.0236  0.9995
  980MOL0     H35229   7.311   8.362   9.845  0.6593 -1.2562  0.7924
  980MOL0     H35230   7.034   8.311   9.936  0.3427 -3.1364 -0.6032
  980MOL0     H35231   7.113   8.226   9.821  2.5604  0.3653 -1.0476
  980MOL0     H35232   6.914   8.362   9.743 -0.3472  1.7049  0.5395
  980MOL0     H35233   7.013   8.495   9.722 -0.2664 -0.4052 -0.0250
  980MOL0     H35234   7.018   8.212   9.587  1.2053 -0.6420 -3.8312
  980MOL0     H35235   7.170   8.310   9.604  0.2403  1.4489  1.5886
  980MOL0     H35236   6.927   8.499   9.288  0.8242 -3.7377 -3.0478
  980MOL0     H35237   7.123   8.388  10.239 -0.7773  1.0107  1.0035
  980MOL0     H35238   7.088   8.441  10.447 -0.2632 -2.3584 -1.9319
  980MOL0     H35239   7.091   8.614  10.502 -0.9670  1.6427 -1.9975
  980MOL0     H35240   6.990   8.571  10.366 -0.4403 -0.3594  1.6943
  981MOL0     O35241   8.372   8.682   7.576  0.5959 -0.1833  0.5123
  981MOL0     C35242   8.339   8.764   7.491  0.6534  0.3715  0.0457
  981MOL0     O35243   8.221   8.838   7.496  0.0306  0.3225 -0.1694
  981MOL0     C35244   8.126   8.811   7.601 -0.6905 -0.3022  0.6415
  981MOL0     C35245   8.161   8.785   7.729 -0.5155  0.0614  0.9651
  981MOL0     C35246   8.074   8.762   7.831 -0.5023  0.2543 -1.0118
  981MOL0     C35247   7.935   8.741   7.790  0.0222 -1.0650 -1.5095
  981MOL0     O35248   7.861   8.704   7.896 -0.3197  0.1194  0.1038
  981MOL0     C35249   7.786   8.577   7.883 -0.2339  0.2073  0.3583
  981MOL0     C35250   7.634   8.605   7.907  0.2389  0.6594  0.5652
  981MOL0     C35251   7.541   8.478   7.911  0.0191 -0.0893 -0.3661
  981MOL0     C35252   7.601   8.374   8.007 -1.4664  0.0809 -1.0676
  981MOL0     C35253   7.489   8.282   8.070 -1.0618  0.0719  0.8597
  981MOL0     C35254   7.562   8.183   8.164  0.1920 -0.4549 -0.3408
  981MOL0     C35255   7.461   8.090   8.238  0.4118 -0.0142  0.3124
  981MOL0     C35256   7.357   8.019   8.152 -0.3225 -0.4694  0.6946
  981MOL0     N35257   7.262   7.934   8.230  0.2721  0.3188 -0.0481
  981MOL0     C35258   7.202   7.971   8.344 -0.1851 -0.2085  0.8910
  981MOL0     C35259   7.137   7.855   8.385  0.3238 -0.4891  0.1659
  981MOL0     C35260   7.061   7.832   8.519  0.2785  0.5534  0.9540
  981MOL0     C35261   6.946   7.936   8.537 -0.0034  0.1725  0.4088
  981MOL0     C35262   6.868   7.904   8.661  0.2037 -0.7275 -0.1748
  981MOL0     C35263   6.758   8.002   8.708 -0.8842 -0.8807 -0.3499
  981MOL0     O35264   6.828   8.128   8.728  0.1791 -0.6383  0.3639
  981MOL0     C35265   6.748   8.216   8.792 -0.3563 -0.2710 -0.0530
  981MOL0     C35266   6.742   8.215   8.929  0.3839 -0.0317 -0.2767
  981MOL0     C35267   6.665   8.318   8.996  0.3786  0.7334  0.8339
  981MOL0     C35268   6.684   8.311   9.146  0.0538  0.1589  0.2056
  981MOL0     C35269   6.583   8.415   8.917 -0.2086 -1.0280  0.1645
  981MOL0     C35270   6.510   8.534   8.970  0.1909 -0.5511 -0.3330
  981MOL0     O35271   6.421   8.591   8.894 -0.9254 -0.3267 -0.2320
  981MOL0     C35272   6.353   8.696   8.938  0.2563 -0.3292  0.3345
  981MOL0     C35273   6.220   8.674   8.951  0.4601 -0.1368  0.0364
  981MOL0     C35274   6.137   8.784   8.992  0.1292 -0.1875 -0.7190
  981MOL0     C35275   6.187   8.916   9.018  1.3278 -0.1649 -0.1922
  981MOL0     O35276   6.118   9.029   9.056 -0.6945  0.0038 -0.9376
  981MOL0     C35277   5.986   9.025   9.111 -0.5167  0.2755  0.7957
  981MOL0     C35278   5.948   9.159   9.182 -0.1015  0.6966  0.8844
  981MOL0     C35279   6.033   9.201   9.301 -0.2526  0.7289 -0.7406
  981MOL0     C35280   5.975   9.329   9.366  0.1126  0.5253  0.0667
  981MOL0     C35281   6.088   9.374   9.457 -0.1964  0.1783 -0.2450
  981MOL0     C35282   6.049   9.490   9.556  0.1811  0.0362  0.3697
  981MOL0     C35283   5.998   9.609   9.490  0.7740  0.6543  0.3904
  981MOL0     C35284   6.105   9.674   9.395  0.0960  0.1746  0.3912
  981MOL0    Cl35285   6.243   9.744   9.490  0.0778  0.3327 -0.2772
  981MOL0     C35286   6.317   8.937   8.990 -0.4614 -0.8957 -0.4539
  981MOL0     C35287   6.401   8.822   8.962  0.3674  0.1396  0.9482
  981MOL0     O35288   6.547   8.574   9.076  0.1188  0.3689 -0.1190
  981MOL0     C35289   6.595   8.400   8.774 -0.2463  0.1969 -0.2993
  981MOL0     C35290   6.671   8.305   8.716 -0.3968  0.0398  1.0397
  981MOL0     N35291   7.157   7.754   8.292  0.8760  0.0843  0.2782
  981MOL0     N35292   7.230   7.807   8.193 -0.0492 -0.1336 -0.0388
  981MOL0     C35293   7.895   8.747   7.655  0.6354  0.2873  0.0277
  981MOL0     C35294   7.992   8.785   7.564  0.0923  0.4602  0.0057
  981MOL0     C35295   8.413   8.770   7.370  0.2030  0.4229 -0.1424
  981MOL0     C35296   8.352   8.812   7.253 -0.3193  0.6040  0.2515
  981MOL0     C35297   8.414   8.820   7.131 -0.3512  0.5774 -0.4151
  981MOL0     C35298   8.548   8.801   7.123 -0.4256 -0.5487 -0.0679
  981MOL0     O35299   8.610   8.817   7.002 -0.2981 -0.1531 -0.2724
  981MOL0     C35300   8.599   8.697   6.928 -0.0829 -0.2909 -0.6708
  981MOL0     C35301   8.690   8.574   6.986  0.3871  0.0840 -0.1837
  981MOL0     C35302   8.676   8.461   6.883 -0.8011 -0.9741 -0.0639
  981MOL0     C35303   8.745   8.336   6.932  0.7791 -0.0947  0.5317
  981MOL0     C35304   8.685   8.266   7.049 -0.8547 -0.1055  0.6013
  981MOL0     C35305   8.627   8.204   7.137  0.6398  0.5772 -0.1070
  981MOL0     C35306   8.615   8.749   7.236  0.7625 -0.5160 -0.8386
  981MOL0     C35307   8.550   8.742   7.366  0.1500 -0.0395  0.8500
  981MOL0     C35308   8.649   8.712   7.476  0.3142 -0.1980 -0.3184
  981MOL0     H35309   8.265   8.804   7.756 -1.1711  2.9154  1.8608
  981MOL0     H35310   8.115   8.765   7.931  1.2707 -0.2317 -1.6681
  981MOL0     H35311   7.829   8.507   7.955  1.7193  0.1469 -0.8002
  981MOL0     H35312   7.794   8.527   7.785  3.0981  0.8152  0.2162
  981MOL0     H35313   7.629   8.658   8.002 -1.3734 -1.7544  1.9298
  981MOL0     H35314   7.586   8.667   7.831 -3.5442 -2.5205 -0.0130
  981MOL0     H35315   7.443   8.500   7.956  1.0771  0.6338  1.7210
  981MOL0     H35316   7.523   8.438   7.811 -1.4428  0.5751 -0.4012
  981MOL0     H35317   7.665   8.312   7.943 -1.5548 -0.2586 -0.8246
  981MOL0     H35318   7.665   8.416   8.084 -0.2133 -2.8558 -0.4069
  981MOL0     H35319   7.436   8.236   7.986  2.7544 -1.6248 -0.8560
  981MOL0     H35320   7.418   8.345   8.125 -0.9294  1.5402 -0.5489
  981MOL0     H35321   7.634   8.126   8.103  1.0320 -0.0158  0.2153
  981MOL0     H35322   7.627   8.236   8.234  0.6124  0.3661 -1.3171
  981MOL0     H35323   7.403   8.147   8.310  0.3454 -2.3256  2.1925
  981MOL0     H35324   7.515   8.009   8.288  1.9408  0.0867 -1.0592
  981MOL0     H35325   7.295   8.099   8.110 -0.3892 -0.1702  1.3593
  981MOL0     H35326   7.396   7.971   8.062 -2.2192 -0.0100 -0.4293
  981MOL0     H35327   7.196   8.068   8.392 -3.9193 -0.1917  0.7283
  981MOL0     H35328   7.134   7.844   8.600  3.1866  1.0934 -1.5464
  981MOL0     H35329   7.025   7.729   8.510  1.3661  0.2909 -0.8753
  981MOL0     H35330   6.986   8.036   8.554  1.2455 -0.4956  1.6729
  981MOL0     H35331   6.873   7.938   8.456 -0.0368  0.3716  0.4426
  981MOL0     H35332   6.808   7.812   8.653 -1.4362  0.0813  1.8996
  981MOL0     H35333   6.943   7.880   8.737  2.0210  1.9350 -0.9699
  981MOL0     H35334   6.674   8.013   8.639  0.2103  2.7033 -1.3386
  981MOL0     H35335   6.713   7.972   8.803  0.2687  0.4937  0.6665
  981MOL0     H35336   6.800   8.145   8.988 -0.3461 -1.8599 -1.6318
  981MOL0     H35337   6.707   8.212   9.186  1.5425  0.2500 -0.3828
  981MOL0     H35338   6.591   8.344   9.195 -0.3406 -1.6651  0.7666
  981MOL0     H35339   6.767   8.375   9.176  0.8275 -0.3736 -0.7634
  981MOL0     H35340   6.180   8.581   8.912 -0.4893  0.6573 -0.9289
  981MOL0     H35341   6.034   8.756   9.011 -0.0814  1.4414  0.7561
  981MOL0     H35342   5.921   8.982   9.035  2.3608 -5.0585  0.8624
  981MOL0     H35343   5.984   8.950   9.190 -2.2609 -1.4044 -0.7551
  981MOL0     H35344   5.943   9.240   9.109  0.1642 -0.1121 -0.0479
  981MOL0     H35345   5.847   9.147   9.222 -0.0331 -1.3209  0.5774
  981MOL0     H35346   6.139   9.200   9.272  1.5006 -0.2921  4.5002
  981MOL0     H35347   6.027   9.120   9.374 -3.1982  1.5082  0.0027
  981MOL0     H35348   5.883   9.301   9.417 -0.6067 -2.2566 -2.4805
  981MOL0     H35349   5.956   9.401   9.285 -2.4326 -1.1252 -0.9342
  981MOL0     H35350   6.142   9.301   9.518  0.0000  0.2513 -0.3327
  981MOL0     H35351   6.165   9.417   9.392  1.0410  1.7947  2.1315
  981MOL0     H35352   6.137   9.514   9.616 -0.4314 -0.2832  1.4141
  981MOL0     H35353   5.972   9.450   9.624  1.0797  0.7504  1.8551
  981MOL0     H35354   5.964   9.676   9.570 -3.8618 -3.3539  2.2263
  981MOL0     H35355   5.904   9.590   9.439 -0.3617  0.9842  2.2507
  981MOL0     H35356   6.059   9.754   9.336 -2.2505 -0.2150  1.5844
  981MOL0     H35357   6.141   9.608   9.316 -4.4619 -3.4094  0.8816
  981MOL0     H35358   6.362   9.031   9.021 -0.9039 -1.3765  1.8150
  981MOL0     H35359   6.508   8.841   8.969  0.7470 -1.8332  1.1227
  981MOL0     H35360   6.550   8.465   8.700  1.6091  1.2127 -0.5728
  981MOL0     H35361   6.675   8.298   8.607 -0.0398  0.4583  1.0227
  981MOL0     H35362   7.800   8.708   7.619  0.8374  0.8836 -1.2087
  981MOL0     H35363   7.954   8.801   7.464 -1.1685  0.6919  0.4930
  981MOL0     H35364   8.250   8.850   7.255  0.2490  2.1651  0.9955
  981MOL0     H35365   8.350   8.851   7.049 -1.8392 -0.5542  0.2626
  981MOL0     H35366   8.495   8.675   6.902 -0.6259  3.4645 -2.4310
  981MOL0     H35367   8.635   8.728   6.830 -0.5805 -1.0457 -1.1019
  981MOL0     H35368   8.647   8.537   7.079  0.5735  1.3440  0.4182
  981MOL0     H35369   8.794   8.606   6.998  0.5322  0.1287 -1.4340
  981MOL0     H35370   8.570   8.456   6.858 -1.4588  2.0501  1.5703
  981MOL0     H35371   8.737   8.491   6.797  0.0605 -1.9739  0.1803
  981MOL0     H35372   8.853   8.345   6.948  0.7076 -0.7712  1.4613
  981MOL0     H35373   8.742   8.269   6.845 -1.0323 -1.7319  1.7927
  981MOL0     H35374   8.558   8.170   7.212  1.8801  1.7585  1.6388
  981MOL0     H35375   8.722   8.741   7.221  0.9993 -1.2450  1.0202
  981MOL0     H35376   8.615   8.621   7.528  0.1072  0.0555 -0.0073
  981MOL0     H35377   8.753   8.696   7.449  0.3756 -2.1967  0.8733
  981MOL0     H35378   8.647   8.797   7.545 -3.0419  1.4036 -2.1400
  982MOL0     O35379   5.735   2.727  11.119  0.3055  0.0604  0.5564
  982MOL0     C35380   5.816   2.733  11.021 -0.0366  0.4826 -0.1372
  982MOL0     O35381   5.923   2.648  11.009  0.0436 -0.2670 -0.1770
  982MOL0     C35382   5.975   2.592  11.122  0.1064 -0.8513  0.1250
  982MOL0     C35383   5.932   2.470  11.165  0.3358  0.8443 -0.2864
  982MOL0     C35384   5.995   2.417  11.280  0.2587  0.4339 -0.4063
  982MOL0     C35385   6.107   2.475  11.338  0.3489  0.3910  0.1242
  982MOL0     O35386   6.160   2.412  11.447 -0.4932 -0.0708  0.0533
  982MOL0     C35387   6.256   2.489  11.525 -0.0674  0.9266  0.0075
  982MOL0     C35388   6.310   2.393  11.632  0.2505 -0.0149  0.9725
  982MOL0     C35389   6.207   2.314  11.701 -1.6438 -0.3965 -1.3156
  982MOL0     C35390   6.261   2.239  11.820 -0.5463 -0.2415  0.3672
  982MOL0     C35391   6.167   2.131  11.882  0.1839 -0.3202 -0.2533
  982MOL0     C35392   6.031   2.187  11.926  0.5685 -0.0118  0.3333
  982MOL0     C35393   5.920   2.197  11.815  0.4098  0.2953 -0.3026
  982MOL0     C35394   5.778   2.180  11.876  0.7813 -0.9836 -0.2940
  982MOL0     N35395   5.735   2.288  11.955  0.3262 -0.4105 -0.1897
  982MOL0     C35396   5.683   2.412  11.916 -0.0648  0.5543  0.4554
  982MOL0     C35397   5.683   2.492  12.032  0.8188  1.0989 -0.0397
  982MOL0     C35398   5.622   2.630  12.044 -0.2670  0.0177  0.2484
  982MOL0     C35399   5.728   2.729  12.094  0.8861  0.9176  0.3649
  982MOL0     C35400   5.669   2.865  12.139 -0.2710  0.6044  1.1146
  982MOL0     C35401   5.627   2.949  12.011 -0.2289 -0.6144  0.0915
  982MOL0     O35402   5.738   2.939  11.924  0.1156  0.7817  0.6664
  982MOL0     C35403   5.789   3.059  11.902 -0.7381 -0.8776  0.8535
  982MOL0     C35404   5.812   3.098  11.764  0.9519  0.3058 -0.8174
  982MOL0     C35405   5.867   3.224  11.732  0.1764  0.4229 -0.6692
  982MOL0     C35406   5.853   3.275  11.591  0.0565  0.5148  0.1219
  982MOL0     C35407   5.939   3.291  11.834  0.3962  0.0764  0.9105
  982MOL0     C35408   6.023   3.414  11.807 -0.6859  0.1198  0.8717
  982MOL0     O35409   6.116   3.420  11.705  1.4068 -0.5209 -0.4517
  982MOL0     C35410   6.197   3.528  11.709  0.5458  0.6910 -0.3020
  982MOL0     C35411   6.321   3.522  11.783  0.9447 -0.4796  0.0980
  982MOL0     C35412   6.400   3.635  11.784 -0.1211  0.8165  1.3815
  982MOL0     C35413   6.368   3.751  11.713  0.4100 -0.7817 -0.3473
  982MOL0     O35414   6.436   3.872  11.702  0.1963 -0.7187  0.7073
  982MOL0     C35415   6.573   3.888  11.763  0.3280 -0.2133 -0.0928
  982MOL0     C35416   6.642   4.017  11.719 -0.5025  0.5122 -0.2942
  982MOL0     C35417   6.769   4.042  11.795  1.0073 -0.1120 -0.1812
  982MOL0     C35418   6.826   4.182  11.763  0.3488  0.4815  0.0367
  982MOL0     C35419   6.948   4.219  11.860 -1.3149  0.4383  0.0529
  982MOL0     C35420   7.025   4.347  11.842 -0.8443 -0.1495  0.9781
  982MOL0     C35421   7.157   4.331  11.922 -0.5275  0.5993  0.1184
  982MOL0     C35422   7.233   4.455  11.935 -0.1019  0.1504 -0.4292
  982MOL0    Cl35423   7.368   4.426  12.041 -0.2376 -0.0143  0.0555
  982MOL0     C35424   6.247   3.755  11.645  0.3622  0.2797  0.3953
  982MOL0     C35425   6.164   3.643  11.640  1.1627  0.2107 -0.0081
  982MOL0     O35426   5.998   3.513  11.878  0.3585  0.4881 -0.4678
  982MOL0     C35427   5.929   3.249  11.964 -0.5779  0.1443 -0.1166
  982MOL0     C35428   5.853   3.134  11.996 -0.1044 -0.6837  0.1179
  982MOL0     N35429   5.731   2.413  12.127  0.6920  0.0461 -0.3098
  982MOL0     N35430   5.764   2.291  12.088  0.0309  0.0337 -0.2298
  982MOL0     C35431   6.154   2.598  11.285 -0.5113  0.8002 -1.1525
  982MOL0     C35432   6.091   2.657  11.177 -0.2328  0.2764  0.6683
  982MOL0     C35433   5.777   2.819  10.921 -0.5025 -0.0824  0.3885
  982MOL0     C35434   5.641   2.847  10.893 -0.0292 -0.8938 -0.2249
  982MOL0     C35435   5.595   2.932  10.791 -0.9855 -0.2900 -0.5400
  982MOL0     C35436   5.691   3.007  10.725 -0.8268 -0.6757  0.0678
  982MOL0     O35437   5.647   3.087  10.624  0.4389  0.5575 -0.0080
  982MOL0     C35438   5.608   3.015  10.507  0.6104  0.0643  0.6179
  982MOL0     C35439   5.733   3.007  10.417 -0.2290 -0.6957  0.2246
  982MOL0     C35440   5.738   2.885  10.329  0.3618  0.5544  0.3866
  982MOL0     C35441   5.647   2.877  10.208  0.4507  0.4079 -1.3359
  982MOL0     C35442   5.670   2.991  10.125  0.3054 -0.6896 -0.7697
  982MOL0     C35443   5.690   3.088  10.056  0.0555 -1.0164  0.0825
  982MOL0     C35444   5.824   2.999  10.762  0.3274  0.1882  0.1802
  982MOL0     C35445   5.875   2.909  10.856  0.4272 -0.4425  0.2758
  982MOL0     C35446   6.025   2.905  10.886 -1.2972  0.3529  0.5888
  982MOL0     H35447   5.845   2.423  11.122 -1.0609  1.7155  1.4678
  982MOL0     H35448   5.953   2.327  11.324  0.8864  1.1793  1.8750
  982MOL0     H35449   6.202   2.569  11.577  0.3138  0.3670  1.2852
  982MOL0     H35450   6.332   2.535  11.462  1.1261  3.0643  2.8127
  982MOL0     H35451   6.367   2.320  11.574 -0.8981  0.5341 -0.9549
  982MOL0     H35452   6.369   2.449  11.704  1.8537 -2.0541  1.3330
  982MOL0     H35453   6.131   2.387  11.730  1.0796  2.3736 -0.4831
  982MOL0     H35454   6.166   2.232  11.642 -2.3994 -0.7054 -0.3823
  982MOL0     H35455   6.363   2.205  11.798 -0.5216  0.8862 -1.4660
  982MOL0     H35456   6.289   2.312  11.896  1.0720 -1.5607  1.0947
  982MOL0     H35457   6.223   2.108  11.973  0.3950  1.0894 -0.0108
  982MOL0     H35458   6.164   2.037  11.826  2.4924 -0.0914 -0.8663
  982MOL0     H35459   5.995   2.126  12.009 -1.9808  0.6914 -0.1585
  982MOL0     H35460   6.038   2.288  11.967  0.3750 -0.0236  0.3945
  982MOL0     H35461   5.936   2.129  11.731  0.6730  3.0176 -2.6052
  982MOL0     H35462   5.926   2.299  11.776  2.0760 -0.2913 -1.7273
  982MOL0     H35463   5.710   2.157  11.794  0.0309  0.8652 -0.2477
  982MOL0     H35464   5.767   2.093  11.941  2.0114 -1.9607 -1.3428
  982MOL0     H35465   5.667   2.441  11.813 -0.7734  0.8117  0.6345
  982MOL0     H35466   5.531   2.623  12.104 -0.8166 -0.6157 -0.6348
  982MOL0     H35467   5.596   2.660  11.942 -1.8491 -0.1754  0.5740
  982MOL0     H35468   5.771   2.677  12.181 -1.6963 -2.0218  0.0791
  982MOL0     H35469   5.803   2.735  12.016 -1.6816  2.1300 -2.1867
  982MOL0     H35470   5.588   2.846  12.211  0.3241 -1.1829  1.3688
  982MOL0     H35471   5.739   2.930  12.191 -2.1483  0.7141  3.7338
  982MOL0     H35472   5.551   2.892  11.957  2.1646 -2.6957 -1.3136
  982MOL0     H35473   5.594   3.051  12.033  1.8217  0.0099  0.5141
  982MOL0     H35474   5.767   3.034  11.689 -2.7402  0.9342  0.6446
  982MOL0     H35475   5.782   3.227  11.523 -0.4389  2.7151 -1.0347
  982MOL0     H35476   5.950   3.266  11.542 -1.0116  0.1039 -2.0641
  982MOL0     H35477   5.831   3.382  11.594 -2.8652 -0.0222  1.4486
  982MOL0     H35478   6.334   3.439  11.853 -1.4800 -1.4852 -0.5175
  982MOL0     H35479   6.496   3.631  11.835  1.0750  1.6930 -0.6779
  982MOL0     H35480   6.581   3.883  11.872  4.3686  1.5058 -0.1472
  982MOL0     H35481   6.631   3.803  11.726 -0.0043 -1.0282  1.2135
  982MOL0     H35482   6.679   4.021  11.616  0.6851  1.1934  0.1417
  982MOL0     H35483   6.577   4.104  11.735 -2.8742 -0.8220 -2.0160
  982MOL0     H35484   6.842   3.964  11.776  1.4877  0.9200 -3.0878
  982MOL0     H35485   6.759   4.044  11.904  2.4712  0.1855 -0.0425
  982MOL0     H35486   6.746   4.257  11.760  1.7448  1.9668 -1.4583
  982MOL0     H35487   6.866   4.166  11.663  1.4621 -2.2085  0.8338
  982MOL0     H35488   6.928   4.222  11.968 -0.0522  0.9315  0.2888
  982MOL0     H35489   7.019   4.138  11.840 -0.8946  0.3337  1.8124
  982MOL0     H35490   6.962   4.433  11.866  2.0956  1.8633  1.9468
  982MOL0     H35491   7.051   4.353  11.736 -2.4295  0.5500  0.5963
  982MOL0     H35492   7.219   4.251  11.882  1.9817  1.9254  1.1484
  982MOL0     H35493   7.136   4.318  12.029 -1.5537  2.2174  0.1568
  982MOL0     H35494   7.170   4.536  11.976  0.9884 -0.2131  2.1812
  982MOL0     H35495   7.273   4.490  11.840 -1.0079  1.1813 -0.4513
  982MOL0     H35496   6.233   3.849  11.593  1.4072  0.1120 -0.2235
  982MOL0     H35497   6.079   3.659  11.574  1.9337  0.3131 -0.9972
  982MOL0     H35498   5.989   3.297  12.040  1.8767 -1.7660 -0.6925
  982MOL0     H35499   5.853   3.108  12.101  3.3738  2.4352  1.1319
  982MOL0     H35500   6.226   2.660  11.337 -2.0238  1.5887  0.0478
  982MOL0     H35501   6.127   2.757  11.153  0.6742 -0.2709 -0.3431
  982MOL0     H35502   5.557   2.799  10.942 -0.0882 -1.4175 -0.8244
  982MOL0     H35503   5.490   2.950  10.770 -2.1722  0.9273  4.9811
  982MOL0     H35504   5.560   2.918  10.524  0.2101  0.0509 -0.5166
  982MOL0     H35505   5.525   3.070  10.463  2.1856  2.7305  0.7400
  982MOL0     H35506   5.829   3.016  10.470  1.0911 -1.0139 -1.9929
  982MOL0     H35507   5.747   3.101  10.362  0.4962 -0.5534  0.6336
  982MOL0     H35508   5.840   2.875  10.293  0.5450 -1.3937  1.2972
  982MOL0     H35509   5.732   2.792  10.387 -1.6683  1.6163  2.0471
  982MOL0     H35510   5.546   2.856  10.244  1.6047  1.6167  3.2603
  982MOL0     H35511   5.684   2.790  10.154 -0.4763 -0.7282 -0.2093
  982MOL0     H35512   5.712   3.180  10.007  3.2713 -1.1399  1.0643
  982MOL0     H35513   5.904   3.057  10.716  0.9349 -1.4062 -0.8472
  982MOL0     H35514   6.048   2.903  10.993 -1.0574  2.4783  0.6314
  982MOL0     H35515   6.072   2.818  10.839 -0.3997  0.9598  0.3313
  982MOL0     H35516   6.078   2.991  10.842 -1.3503 -0.4025 -1.0000
  983MOL0     O35517   6.439   0.922   5.542  0.5650 -0.4591 -0.4910
  983MOL0     C35518   6.464   0.838   5.455 -0.6618  0.2179 -0.2115
  983MOL0     O35519   6.416   0.713   5.457 -0.1837 -0.3207 -0.5737
  983MOL0     C35520   6.301   0.702   5.515  1.1997  0.1369  0.4359
  983MOL0     C35521   6.193   0.782   5.476  0.8997 -0.5249 -1.0252
  983MOL0     C35522   6.065   0.745   5.529 -0.0004 -0.2585 -0.2912
  983MOL0     C35523   6.050   0.633   5.608 -1.0800  0.1919  0.2530
  983MOL0     O35524   5.937   0.603   5.661  0.1086 -0.7607  0.8380
  983MOL0     C35525   5.810   0.589   5.592  0.9203  0.0141 -0.7967
  983MOL0     C35526   5.703   0.606   5.694 -0.0265 -0.2921 -0.1802
  983MOL0     C35527   5.568   0.571   5.635 -0.3158  0.1807 -0.1233
  983MOL0     C35528   5.454   0.587   5.744  0.3389  0.5981  0.1563
  983MOL0     C35529   5.321   0.581   5.674  0.0404  0.2637  0.1715
  983MOL0     C35530   5.210   0.600   5.774  0.0908 -0.7754  0.3554
  983MOL0     C35531   5.078   0.575   5.718  0.9159 -0.2970  0.1952
  983MOL0     C35532   5.029   0.693   5.627 -0.7249 -0.2287 -0.3575
  983MOL0     N35533   5.023   0.826   5.699 -0.9114  0.3724 -0.0428
  983MOL0     C35534   4.951   0.837   5.818  0.9905  0.4656  0.5983
  983MOL0     C35535   4.949   0.964   5.836 -0.0022 -0.8072  0.2738
  983MOL0     C35536   4.905   1.039   5.964  0.7706  0.7571 -0.1075
  983MOL0     C35537   4.760   1.023   6.007  0.2040 -0.2135  0.1546
  983MOL0     C35538   4.752   1.094   6.140 -0.7234 -0.2714 -1.0655
  983MOL0     C35539   4.611   1.074   6.201  0.1496 -0.2294  0.1085
  983MOL0     O35540   4.515   1.137   6.126  0.2466  0.3347 -0.0566
  983MOL0     C35541   4.386   1.138   6.168  0.0671  0.4655  0.3044
  983MOL0     C35542   4.332   1.076   6.281 -0.5456 -0.1864  0.2493
  983MOL0     C35543   4.195   1.084   6.314  0.1628  0.5295  0.5662
  983MOL0     C35544   4.145   0.976   6.402 -0.2292  0.0112  0.1226
  983MOL0     C35545   4.115   1.167   6.240 -0.1476  0.1213  0.3371
  983MOL0     C35546   3.974   1.186   6.257  0.8828 -0.4670  0.4844
  983MOL0     O35547   3.945   1.311   6.309 -0.6146 -0.1559  0.5379
  983MOL0     C35548   3.809   1.341   6.342 -0.0249  0.5456 -0.0980
  983MOL0     C35549   3.781   1.419   6.455 -0.1012  1.3685  0.0231
  983MOL0     C35550   3.652   1.447   6.494  0.3592  0.2050  0.0220
  983MOL0     C35551   3.547   1.436   6.403  0.1171 -0.0475  0.6274
  983MOL0     O35552   3.419   1.476   6.448  0.2982 -0.0487  0.1450
  983MOL0     C35553   3.305   1.426   6.374  0.0663 -0.6296 -0.3092
  983MOL0     C35554   3.222   1.517   6.282  0.2886 -0.4655  0.4256
  983MOL0     C35555   3.244   1.669   6.304  0.2434  0.2961  0.3943
  983MOL0     C35556   3.183   1.762   6.194  0.6544 -0.0049 -0.1270
  983MOL0     C35557   3.241   1.897   6.201 -0.3117  0.6742 -0.1708
  983MOL0     C35558   3.170   1.998   6.104  0.7572 -0.4326  0.0052
  983MOL0     C35559   3.067   1.945   6.007 -0.3735 -0.6244  0.1526
  983MOL0     C35560   3.010   2.053   5.908  0.1280 -0.5632 -0.1717
  983MOL0    Cl35561   2.900   1.976   5.782  0.0570 -0.3304  0.0571
  983MOL0     C35562   3.574   1.365   6.282  0.6321 -0.4977  0.0559
  983MOL0     C35563   3.700   1.311   6.261 -0.0575 -0.2023  0.6271
  983MOL0     O35564   3.894   1.092   6.248 -0.0034 -0.1466  0.0472
  983MOL0     C35565   4.169   1.239   6.124 -1.4577 -0.3539  0.6963
  983MOL0     C35566   4.297   1.217   6.087 -1.3217 -0.5813 -0.6074
  983MOL0     N35567   5.010   1.028   5.738 -0.5732 -0.0427  0.1599
  983MOL0     N35568   5.057   0.945   5.654 -1.0754  0.2026 -0.3510
  983MOL0     C35569   6.162   0.557   5.642  0.5724  0.1219  0.2230
  983MOL0     C35570   6.289   0.588   5.597 -0.1016  0.1578  0.0422
  983MOL0     C35571   6.578   0.868   5.367  0.2128 -0.1515  0.2560
  983MOL0     C35572   6.658   0.757   5.321  0.8089  0.6185  0.3300
  983MOL0     C35573   6.763   0.770   5.224  0.4482  0.0798 -0.6712
  983MOL0     C35574   6.797   0.899   5.179  0.5016  0.3036 -0.0769
  983MOL0     O35575   6.887   0.932   5.077 -0.0985  0.0538  0.2828
  983MOL0     C35576   6.972   0.831   5.012  0.0419  0.1289 -0.1327
  983MOL0     C35577   6.894   0.751   4.908  0.2532  0.0605  0.3977
  983MOL0     C35578   6.851   0.850   4.790 -1.3329  0.3900  0.0578
  983MOL0     C35579   6.816   0.784   4.661  0.4291  0.2342 -0.8641
  983MOL0     C35580   6.926   0.714   4.601  0.2482 -0.1814  0.5774
  983MOL0     C35581   7.024   0.658   4.561 -0.1345 -0.2983  0.9928
  983MOL0     C35582   6.729   1.000   5.229  0.5919 -0.2405 -0.7865
  983MOL0     C35583   6.613   0.997   5.315 -0.2739 -0.5319  0.3347
  983MOL0     C35584   6.545   1.127   5.355 -0.8446 -0.2383  0.5862
  983MOL0     H35585   6.201   0.862   5.403  0.0984  0.3496 -0.1874
  983MOL0     H35586   5.981   0.813   5.517 -1.5678 -1.7097  1.8024
  983MOL0     H35587   5.811   0.491   5.542 -0.4558  0.3601 -1.5589
  983MOL0     H35588   5.794   0.670   5.520 -2.4596  0.6217  0.4511
  983MOL0     H35589   5.725   0.538   5.777 -1.4938 -2.3825 -1.4123
  983MOL0     H35590   5.692   0.710   5.724 -0.1321 -0.1997 -0.5350
  983MOL0     H35591   5.548   0.626   5.543 -0.5889  2.9843  1.4853
  983MOL0     H35592   5.568   0.465   5.611  0.2684  0.4779 -1.5945
  983MOL0     H35593   5.451   0.498   5.807  0.4512  1.2594  1.1117
  983MOL0     H35594   5.453   0.679   5.804 -2.3682 -0.2377  1.5221
  983MOL0     H35595   5.299   0.489   5.619  1.2450  1.4798 -2.5170
  983MOL0     H35596   5.313   0.660   5.599 -1.1834 -1.4482 -1.6205
  983MOL0     H35597   5.221   0.527   5.855 -1.4766 -1.6612 -0.1864
  983MOL0     H35598   5.226   0.691   5.833 -1.8558 -1.0455  1.3933
  983MOL0     H35599   5.016   0.565   5.808  1.1725 -1.1754  0.2912
  983MOL0     H35600   5.066   0.473   5.678 -1.7561 -1.2109  2.9335
  983MOL0     H35601   5.102   0.703   5.546 -0.4674 -1.7098 -0.3428
  983MOL0     H35602   4.929   0.679   5.586 -1.2820 -0.9898  1.1556
  983MOL0     H35603   4.897   0.763   5.876 -1.6913  1.4360 -0.4720
  983MOL0     H35604   4.923   1.147   5.951 -1.7470  1.4620  1.6689
  983MOL0     H35605   4.962   0.997   6.047  0.3908  2.7248  1.2349
  983MOL0     H35606   4.688   1.071   5.940  0.0908  1.1032  1.1918
  983MOL0     H35607   4.729   0.919   6.017  1.4600 -0.8638 -1.9677
  983MOL0     H35608   4.828   1.045   6.201 -0.5263 -0.2224 -1.2701
  983MOL0     H35609   4.780   1.200   6.135  0.0600 -0.3240  1.1263
  983MOL0     H35610   4.587   0.971   6.228  0.8019 -0.5829 -0.6153
  983MOL0     H35611   4.609   1.120   6.300 -1.8414  0.0571 -0.0122
  983MOL0     H35612   4.397   1.005   6.331 -2.6760 -0.6291  2.6437
  983MOL0     H35613   4.220   0.919   6.457 -1.4085 -1.9764 -0.2294
  983MOL0     H35614   4.089   0.909   6.337 -4.6654  2.4654  0.9907
  983MOL0     H35615   4.076   1.035   6.463 -0.2382  1.0462 -0.8462
  983MOL0     H35616   3.874   1.433   6.509  1.4492 -2.0658 -1.4612
  983MOL0     H35617   3.644   1.484   6.596  1.9756  1.1959 -0.1882
  983MOL0     H35618   3.324   1.336   6.313  2.3755 -1.3483  1.3669
  983MOL0     H35619   3.236   1.398   6.455  1.1779  0.4879  1.0574
  983MOL0     H35620   3.245   1.497   6.177 -2.7314 -0.5387 -0.3107
  983MOL0     H35621   3.117   1.493   6.297 -0.3135  1.8702  0.2822
  983MOL0     H35622   3.353   1.678   6.314  0.5498 -3.0597  1.0835
  983MOL0     H35623   3.191   1.708   6.391 -5.4322 -0.1991 -2.3803
  983MOL0     H35624   3.075   1.770   6.211  0.9045  2.4077  0.7349
  983MOL0     H35625   3.194   1.713   6.097 -0.8153 -0.8616  0.0939
  983MOL0     H35626   3.222   1.941   6.300  0.7662  0.6674  0.0537
  983MOL0     H35627   3.348   1.897   6.178 -0.0859  2.7689  0.6543
  983MOL0     H35628   3.249   2.044   6.044 -0.2893  0.7076 -0.5655
  983MOL0     H35629   3.127   2.076   6.167  0.3958 -0.1194 -0.6171
  983MOL0     H35630   2.981   1.912   6.066 -0.0197 -0.3529  0.8296
  983MOL0     H35631   3.099   1.859   5.947  0.7003  0.5471 -1.0297
  983MOL0     H35632   3.089   2.106   5.854  0.2251  0.8065  1.2123
  983MOL0     H35633   2.951   2.118   5.973  0.1532 -2.3424  1.7348
  983MOL0     H35634   3.497   1.344   6.209  0.5624  1.0391 -0.3559
  983MOL0     H35635   3.726   1.261   6.169  0.5370 -1.2621  1.3419
  983MOL0     H35636   4.116   1.306   6.057  2.9140  4.1481  1.1807
  983MOL0     H35637   4.345   1.260   6.000 -1.5926 -0.5273 -0.7305
  983MOL0     H35638   6.156   0.468   5.704 -0.1671  1.0216  1.5002
  983MOL0     H35639   6.376   0.524   5.610 -0.1559 -0.4676 -2.2483
  983MOL0     H35640   6.614   0.660   5.336  1.1667  0.1937 -1.2470
  983MOL0     H35641   6.806   0.681   5.177  0.6295  0.2210 -0.7739
  983MOL0     H35642   7.054   0.886   4.966  1.9108  0.0711  2.8482
  983MOL0     H35643   7.013   0.769   5.092  1.6612  0.0030 -1.0237
  983MOL0     H35644   6.805   0.698   4.943 -1.1153  0.7369 -1.7900
  983MOL0     H35645   6.959   0.674   4.867 -1.8617 -2.5909  1.7185
  983MOL0     H35646   6.783   0.929   4.822 -2.3017 -0.4960  0.2608
  983MOL0     H35647   6.946   0.901   4.773  0.4445 -2.3996  0.8769
  983MOL0     H35648   6.780   0.865   4.597  0.3025  1.8421  1.1652
  983MOL0     H35649   6.730   0.717   4.674  0.6167 -0.1312 -1.4373
  983MOL0     H35650   7.105   0.602   4.518  0.4429  1.3627 -0.1990
  983MOL0     H35651   6.735   1.096   5.178  1.6637  0.5295  0.7121
  983MOL0     H35652   6.438   1.109   5.364 -0.7881 -0.5086  0.7410
  983MOL0     H35653   6.565   1.165   5.455 -0.6049 -0.2923  0.5590
  983MOL0     H35654   6.572   1.196   5.275  0.3775 -3.3728 -1.9430
  984MOL0     O35655   8.558   6.102   3.565 -0.7384  0.7545  0.9676
  984MOL0     C35656   8.584   6.030   3.474  0.0206  1.3176 -0.4836
  984MOL0     O35657   8.704   5.963   3.455 -0.0870  0.4382 -0.2043
  984MOL0     C35658   8.821   5.978   3.530 -0.2073 -0.1147  0.4100
  984MOL0     C35659   8.834   6.057   3.646  0.0071 -0.5886  0.4469
  984MOL0     C35660   8.956   6.069   3.708 -0.0864  0.3899  0.4911
  984MOL0     C35661   9.072   6.024   3.643 -0.1000  0.3569 -0.3097
  984MOL0     O35662   9.202   6.048   3.687  0.4466  0.3029  0.1343
  984MOL0     C35663   9.242   6.001   3.808  0.5915 -0.0907 -0.5482
  984MOL0     C35664   9.381   6.045   3.843 -0.4854  1.0835 -0.0232
  984MOL0     C35665   9.481   5.985   3.745 -0.2502  0.6324  0.2220
  984MOL0     C35666   9.502   5.838   3.766 -0.3191 -0.1048  0.3904
  984MOL0     C35667   9.601   5.779   3.666 -0.8136  0.8025 -0.0052
  984MOL0     C35668   9.634   5.646   3.705 -0.4604  0.1568  0.9762
  984MOL0     C35669   9.744   5.594   3.604 -0.1358 -0.5717 -0.5453
  984MOL0     C35670   9.682   5.568   3.469  0.4416  0.0835 -0.6090
  984MOL0     N35671   9.787   5.519   3.378  0.0103  0.2571  0.1008
  984MOL0     C35672   9.907   5.591   3.352  0.9489 -0.6897 -0.1168
  984MOL0     C35673   9.956   5.521   3.257 -0.6740 -0.9830 -0.3556
  984MOL0     C35674  10.071   5.578   3.180 -0.3863  0.1339  0.6364
  984MOL0     C35675  10.211   5.572   3.254  0.3522 -0.7050  0.1423
  984MOL0     C35676  10.226   5.425   3.295 -0.8329  0.6570  0.1229
  984MOL0     C35677  10.362   5.403   3.339 -0.3322  0.2865 -0.3912
  984MOL0     O35678  10.383   5.487   3.453 -0.3757  0.4282  0.7299
  984MOL0     C35679  10.515   5.513   3.492 -0.3661  0.5936  0.1003
  984MOL0     C35680  10.537   5.633   3.555 -0.4939  0.1486  0.5849
  984MOL0     C35681  10.669   5.667   3.593 -1.3284  0.2556  0.6030
  984MOL0     C35682  10.679   5.786   3.686  0.5882 -0.0837 -0.2286
  984MOL0     C35683  10.778   5.575   3.575  0.2486 -0.4020 -0.2746
  984MOL0     C35684  10.906   5.587   3.649  0.6556  0.2211 -0.1170
  984MOL0     O35685  10.963   5.473   3.694 -0.4659  0.2720  0.3971
  984MOL0     C35686  11.089   5.493   3.744  0.3737 -0.2235  0.0785
  984MOL0     C35687  11.106   5.553   3.868 -0.1253 -0.0158 -0.0541
  984MOL0     C35688  11.237   5.572   3.910 -0.3211 -0.2394 -0.7817
  984MOL0     C35689  11.345   5.516   3.847 -0.6431 -0.9965  0.7483
  984MOL0     O35690  11.465   5.528   3.912 -0.3423  0.3250  0.2065
  984MOL0     C35691  11.581   5.459   3.868 -0.2620  0.1877 -0.5538
  984MOL0     C35692  11.597   5.310   3.924  0.3513 -0.4030 -0.1347
  984MOL0     C35693  11.564   5.293   4.074 -0.7391  0.5726 -0.8621
  984MOL0     C35694  11.592   5.148   4.117  0.5854 -0.2779 -0.7133
  984MOL0     C35695  11.576   5.123   4.269  0.5913 -0.5670 -0.5299
  984MOL0     C35696  11.423   5.102   4.299  0.0046  0.0831  0.0108
  984MOL0     C35697  11.388   5.132   4.451  0.7064 -0.2093  0.3779
  984MOL0     C35698  11.465   5.035   4.532 -0.5722  0.4224  0.0986
  984MOL0    Cl35699  11.396   5.031   4.701  0.3760 -0.0409  0.3880
  984MOL0     C35700  11.332   5.450   3.732  0.2754  0.2891  0.3981
  984MOL0     C35701  11.198   5.425   3.685  0.0430  0.7218  0.8665
  984MOL0     O35702  10.936   5.708   3.678  0.0080 -0.5695  0.5577
  984MOL0     C35703  10.753   5.458   3.516 -0.6859  0.3905 -0.9835
  984MOL0     C35704  10.627   5.431   3.463  0.5214 -0.0355 -0.1923
  984MOL0     N35705   9.883   5.402   3.228  0.0251  0.0836  0.1555
  984MOL0     N35706   9.780   5.403   3.304 -0.4773  0.6901  0.2510
  984MOL0     C35707   9.049   5.948   3.529  0.0947 -0.2462  0.5524
  984MOL0     C35708   8.926   5.915   3.475 -0.2611 -0.1598  0.5393
  984MOL0     C35709   8.469   5.978   3.389  0.1402  0.0171 -0.1813
  984MOL0     C35710   8.504   5.897   3.282  1.0659 -0.1920  0.1237
  984MOL0     C35711   8.406   5.855   3.196  0.2768  0.9435  0.3487
  984MOL0     C35712   8.272   5.882   3.205 -0.1497  0.1878  0.2101
  984MOL0     O35713   8.193   5.847   3.106  0.2522  0.1617 -0.4149
  984MOL0     C35714   8.054   5.887   3.104  0.2691 -0.3880  0.3186
  984MOL0     C35715   7.971   5.821   2.988 -1.1515  0.3762 -0.0846
  984MOL0     C35716   7.955   5.666   3.002 -0.5718  0.1887  0.8967
  984MOL0     C35717   7.818   5.614   2.978  0.3329  0.2313 -0.1358
  984MOL0     C35718   7.782   5.611   2.836  0.5595  0.1658 -0.2290
  984MOL0     C35719   7.755   5.602   2.721  0.9795  0.0298 -1.0192
  984MOL0     C35720   8.233   5.953   3.318  0.2826 -0.0498  0.5843
  984MOL0     C35721   8.328   5.996   3.417 -0.3458  0.1976  0.4439
  984MOL0     C35722   8.279   6.074   3.544  0.4012 -0.0420 -0.0203
  984MOL0     H35723   8.752   6.108   3.694  1.1851  0.5485  1.3181
  984MOL0     H35724   8.974   6.136   3.792 -0.2749  1.0964 -0.0190
  984MOL0     H35725   9.231   5.894   3.826 -0.5162  0.4118  2.4232
  984MOL0     H35726   9.180   6.058   3.878  0.7697  0.6111 -0.9497
  984MOL0     H35727   9.386   6.153   3.827  1.5738  0.7981 -1.8176
  984MOL0     H35728   9.404   6.010   3.944 -0.6590 -1.2522 -0.7245
  984MOL0     H35729   9.450   6.002   3.642  2.6671 -0.9295 -1.0179
  984MOL0     H35730   9.574   6.041   3.761  0.7578 -0.3727 -1.7902
  984MOL0     H35731   9.537   5.811   3.866 -1.8976  4.2119  2.3773
  984MOL0     H35732   9.405   5.789   3.754 -0.3427 -0.5248  2.1041
  984MOL0     H35733   9.690   5.842   3.664 -0.6799  0.7480 -4.2446
  984MOL0     H35734   9.541   5.788   3.575 -1.4566  5.2677  0.6419
  984MOL0     H35735   9.665   5.636   3.809  1.0531 -0.1173  0.5113
  984MOL0     H35736   9.557   5.570   3.692 -0.3416 -0.0064  1.2352
  984MOL0     H35737   9.790   5.502   3.641  0.5498  0.0190  0.0954
  984MOL0     H35738   9.822   5.670   3.599 -0.7370  0.0894 -0.0486
  984MOL0     H35739   9.605   5.492   3.484 -0.2378  0.8358 -0.1529
  984MOL0     H35740   9.640   5.659   3.425 -2.1641 -2.3609 -3.7133
  984MOL0     H35741   9.941   5.688   3.387  0.6914 -0.9078  0.7714
  984MOL0     H35742  10.053   5.683   3.158 -0.7199  1.0601  4.5101
  984MOL0     H35743  10.067   5.521   3.087 -0.8500 -0.9402  1.2826
  984MOL0     H35744  10.291   5.613   3.192  0.6397 -1.4187  0.0373
  984MOL0     H35745  10.204   5.637   3.342 -0.1559 -0.3586 -0.1470
  984MOL0     H35746  10.165   5.390   3.379  2.5709  0.4334  2.7019
  984MOL0     H35747  10.215   5.352   3.214  3.4956 -4.5112  3.5419
  984MOL0     H35748  10.374   5.300   3.373 -1.7309  0.3174  0.2518
  984MOL0     H35749  10.441   5.422   3.266  1.1392 -1.9763  0.5204
  984MOL0     H35750  10.455   5.696   3.590 -1.9479  0.7600 -3.3984
  984MOL0     H35751  10.711   5.746   3.783 -4.8699  1.6591  2.6943
  984MOL0     H35752  10.583   5.830   3.713  0.4468 -1.5381  1.9048
  984MOL0     H35753  10.746   5.867   3.656  0.6563 -0.6518 -1.6854
  984MOL0     H35754  11.018   5.575   3.927 -0.8437 -0.9794 -0.7372
  984MOL0     H35755  11.249   5.626   4.003 -1.4962  0.2469 -0.8887
  984MOL0     H35756  11.593   5.456   3.759  0.4822  1.6725 -0.5316
  984MOL0     H35757  11.665   5.520   3.902 -1.4702  1.3206  0.5478
  984MOL0     H35758  11.527   5.247   3.869  1.8164 -1.0466 -1.3327
  984MOL0     H35759  11.697   5.276   3.895  1.9057  2.9675  0.7022
  984MOL0     H35760  11.458   5.317   4.083 -0.4428  1.4535  0.6189
  984MOL0     H35761  11.618   5.362   4.139  0.3238  0.5343 -1.6635
  984MOL0     H35762  11.695   5.119   4.095  0.2243 -1.6207 -0.7108
  984MOL0     H35763  11.526   5.079   4.064 -0.0374 -1.5753  1.6068
  984MOL0     H35764  11.618   5.030   4.308 -0.7394  0.2438  3.4174
  984MOL0     H35765  11.613   5.208   4.326 -1.1152 -0.0821 -0.0596
  984MOL0     H35766  11.403   4.995   4.288  2.4297 -0.6126  1.4684
  984MOL0     H35767  11.355   5.153   4.231 -0.3523 -1.4851 -0.8586
  984MOL0     H35768  11.281   5.112   4.455  0.6965 -0.3080 -0.2611
  984MOL0     H35769  11.401   5.237   4.479 -1.4970  0.6594 -1.5604
  984MOL0     H35770  11.572   5.056   4.537 -0.4137  0.7082 -2.8251
  984MOL0     H35771  11.434   4.939   4.489  1.9068  0.6347 -2.3991
  984MOL0     H35772  11.414   5.406   3.676  1.5041  1.9378  0.8289
  984MOL0     H35773  11.188   5.369   3.593  1.2998  0.2647  0.9807
  984MOL0     H35774  10.830   5.384   3.498 -0.8344 -0.3144  1.0431
  984MOL0     H35775  10.620   5.333   3.416 -1.8440  0.2630 -0.6228
  984MOL0     H35776   9.145   5.919   3.488 -1.8924 -3.2842 -2.4813
  984MOL0     H35777   8.917   5.873   3.375  3.5250 -2.0815  0.8052
  984MOL0     H35778   8.608   5.881   3.255  1.3791 -0.5212  1.4817
  984MOL0     H35779   8.427   5.782   3.119 -0.5998  0.0147  0.9675
  984MOL0     H35780   8.005   5.853   3.195  0.4668 -1.8027 -0.0700
  984MOL0     H35781   8.044   5.996   3.106 -1.6911 -0.5435  1.6905
  984MOL0     H35782   8.019   5.835   2.890 -0.0286 -0.8631  0.2444
  984MOL0     H35783   7.871   5.865   2.996 -0.4685  2.0324 -0.2556
  984MOL0     H35784   8.032   5.618   2.941  0.1091  3.6120 -1.2404
  984MOL0     H35785   7.969   5.653   3.109 -1.5403  2.6813  1.3965
  984MOL0     H35786   7.752   5.686   3.028 -0.6733 -1.0899  0.5162
  984MOL0     H35787   7.807   5.513   3.017  0.8214  0.3219  0.2389
  984MOL0     H35788   7.728   5.590   2.618  1.5873 -0.6095 -1.1108
  984MOL0     H35789   8.127   5.973   3.327 -0.3068 -3.4604  3.0393
  984MOL0     H35790   8.170   6.078   3.548  0.2418 -3.0551  1.3850
  984MOL0     H35791   8.310   6.019   3.633 -2.2573 -0.9334  0.4532
  984MOL0     H35792   8.323   6.174   3.550  4.3266 -1.6151  0.3475
  985MOL0     O35793  10.783   9.063   2.078  0.4789  0.3231  0.2352
  985MOL0     C35794  10.876   9.023   2.152  0.4797  0.1204  0.3528
  985MOL0     O35795  10.854   8.955   2.269 -0.7496 -0.0047  0.0359
  985MOL0     C35796  10.771   8.855   2.292  0.9621  1.1946  0.3260
  985MOL0     C35797  10.751   8.814   2.425  0.8792 -1.1248  0.6796
  985MOL0     C35798  10.692   8.694   2.453  0.1671 -0.8113 -0.9657
  985MOL0     C35799  10.652   8.613   2.351  0.7567  0.4244  0.3568
  985MOL0     O35800  10.597   8.493   2.390  0.8959 -0.6838 -0.9744
  985MOL0     C35801  10.631   8.389   2.305 -0.0485  0.3519 -1.2031
  985MOL0     C35802  10.605   8.257   2.382 -0.9966  0.1574 -0.0005
  985MOL0     C35803  10.725   8.166   2.391  0.7451 -0.2740 -0.3080
  985MOL0     C35804  10.686   8.024   2.389 -0.5647 -0.3116  0.4214
  985MOL0     C35805  10.664   7.984   2.240  0.0583  0.4112 -0.3347
  985MOL0     C35806  10.583   7.853   2.224  0.2627  0.7512  0.2634
  985MOL0     C35807  10.429   7.847   2.261 -0.1308  1.0134  0.3112
  985MOL0     C35808  10.340   7.934   2.173  0.2065  0.7858  0.1056
  985MOL0     N35809  10.350   7.904   2.035 -0.5141  0.9874  0.2654
  985MOL0     C35810  10.419   7.980   1.945 -0.2118  0.0608 -0.0484
  985MOL0     C35811  10.424   7.899   1.835  0.1994 -0.1487 -0.2964
  985MOL0     C35812  10.486   7.930   1.711 -0.3538  0.2364 -0.2150
  985MOL0     C35813  10.624   7.860   1.709 -0.2857 -0.7274 -0.8197
  985MOL0     C35814  10.725   7.940   1.793  0.1420 -1.1378  0.5395
  985MOL0     C35815  10.748   8.088   1.743  0.1674 -0.3400  0.3506
  985MOL0     O35816  10.686   8.183   1.833  0.1683  0.3767 -0.2760
  985MOL0     C35817  10.776   8.251   1.916 -0.5256 -0.4957 -0.3632
  985MOL0     C35818  10.880   8.189   1.982  0.6427 -0.0419 -0.2183
  985MOL0     C35819  10.966   8.261   2.059  0.3643 -0.0040 -0.1483
  985MOL0     C35820  11.070   8.178   2.133 -0.0617 -0.2887 -0.5473
  985MOL0     C35821  10.964   8.404   2.072 -0.3499 -0.7643  0.5239
  985MOL0     C35822  11.066   8.481   2.140  0.8729 -0.3667 -0.1946
  985MOL0     O35823  11.067   8.460   2.272 -0.3547  0.3237 -0.2130
  985MOL0     C35824  11.144   8.550   2.345 -0.0020  0.4823 -0.7996
  985MOL0     C35825  11.104   8.600   2.473 -0.3445 -1.1115  0.4811
  985MOL0     C35826  11.172   8.696   2.552 -0.1103  0.1417  0.1426
  985MOL0     C35827  11.306   8.724   2.509  0.1089 -0.3533 -0.7043
  985MOL0     O35828  11.372   8.826   2.579 -0.0745 -0.3674 -0.1789
  985MOL0     C35829  11.515   8.843   2.558  0.1016 -0.2423  0.1997
  985MOL0     C35830  11.567   8.899   2.691  0.0685 -0.7867 -0.4449
  985MOL0     C35831  11.610   9.046   2.669 -0.1969  0.3884  0.0395
  985MOL0     C35832  11.738   9.067   2.584  0.1224 -0.5795  0.3281
  985MOL0     C35833  11.807   9.195   2.604 -0.4147  0.1206  0.4477
  985MOL0     C35834  11.882   9.205   2.746 -0.5304 -0.4355 -0.0149
  985MOL0     C35835  11.898   9.349   2.809  0.3537 -0.2618  0.1466
  985MOL0     C35836  11.975   9.448   2.724 -0.1944  0.8342  0.4096
  985MOL0    Cl35837  12.148   9.402   2.704  0.1491  0.9011  0.6058
  985MOL0     C35838  11.358   8.668   2.388  0.4351 -0.4293 -0.0770
  985MOL0     C35839  11.279   8.590   2.306  0.5367 -0.2860  0.4154
  985MOL0     O35840  11.119   8.570   2.071 -0.0669  0.7906 -0.3407
  985MOL0     C35841  10.860   8.462   1.997 -0.4524 -0.7760 -0.0832
  985MOL0     C35842  10.762   8.388   1.934 -0.4306  0.0977 -0.4025
  985MOL0     N35843  10.379   7.770   1.866 -0.6726 -0.5419 -1.0419
  985MOL0     N35844  10.334   7.778   1.985  0.0438 -0.3398 -0.0695
  985MOL0     C35845  10.660   8.650   2.218  0.3049  0.2662  0.4507
  985MOL0     C35846  10.722   8.774   2.191 -1.4366  0.2058 -0.4027
  985MOL0     C35847  11.011   9.070   2.127  0.0609  0.4432  0.4110
  985MOL0     C35848  11.104   8.981   2.171  0.2911 -0.3165  0.0936
  985MOL0     C35849  11.237   9.011   2.182 -0.1317  0.4100 -0.0475
  985MOL0     C35850  11.280   9.129   2.129 -0.2884  0.1114  0.2045
  985MOL0     O35851  11.409   9.164   2.117  0.2424  0.9492 -0.5299
  985MOL0     C35852  11.495   9.136   2.227 -0.6889 -0.6610  0.4188
  985MOL0     C35853  11.607   9.240   2.239  0.5426 -0.0458 -0.6891
  985MOL0     C35854  11.550   9.374   2.283 -0.4801 -0.5457 -0.3437
  985MOL0     C35855  11.649   9.481   2.229  0.3790 -0.0718  1.7348
  985MOL0     C35856  11.599   9.619   2.238  0.2819  0.7021  1.0083
  985MOL0     C35857  11.540   9.719   2.239 -0.0231  0.2967 -0.1939
  985MOL0     C35858  11.190   9.220   2.070 -0.1541  0.2150  0.3050
  985MOL0     C35859  11.054   9.193   2.079 -0.0680 -0.1733 -0.5511
  985MOL0     C35860  10.955   9.287   2.022  0.7422  0.0545 -0.5274
  985MOL0     H35861  10.770   8.888   2.502 -2.6934  1.4845 -0.6256
  985MOL0     H35862  10.678   8.658   2.554  1.8927  1.4939  0.1968
  985MOL0     H35863  10.733   8.388   2.266  0.6161  1.3492  0.4250
  985MOL0     H35864  10.554   8.389   2.227 -2.4706  0.5186  1.0380
  985MOL0     H35865  10.570   8.275   2.485 -2.0858 -0.0855 -0.3199
  985MOL0     H35866  10.531   8.215   2.315  0.5996  2.8468 -3.8356
  985MOL0     H35867  10.782   8.196   2.303 -1.3077  2.2083 -0.8914
  985MOL0     H35868  10.776   8.190   2.485  1.6503  1.3007 -1.1600
  985MOL0     H35869  10.766   7.966   2.437  1.5125  1.4530 -0.7328
  985MOL0     H35870  10.597   8.008   2.450  0.1145  1.4496  1.9749
  985MOL0     H35871  10.760   7.988   2.188  0.7961  2.5723  1.0499
  985MOL0     H35872  10.609   8.063   2.188  0.4981  1.0913  0.1994
  985MOL0     H35873  10.603   7.820   2.121  3.1501 -1.6805  1.4690
  985MOL0     H35874  10.636   7.782   2.288  0.7186  2.5245  1.9385
  985MOL0     H35875  10.424   7.877   2.367  3.4833 -0.5135  1.0569
  985MOL0     H35876  10.399   7.742   2.254 -0.1261  0.9222  1.3933
  985MOL0     H35877  10.235   7.925   2.202  0.6538  1.8304  2.2656
  985MOL0     H35878  10.369   8.039   2.182  2.5470  0.1291  1.1911
  985MOL0     H35879  10.448   8.084   1.951 -0.4079  0.2651 -1.9306
  985MOL0     H35880  10.498   8.037   1.693 -1.1132  0.1037 -1.6701
  985MOL0     H35881  10.431   7.894   1.624 -0.1769  0.3577 -0.3779
  985MOL0     H35882  10.613   7.767   1.765 -0.8003  0.3616  0.9566
  985MOL0     H35883  10.669   7.853   1.609  1.2241  1.1094 -0.3363
  985MOL0     H35884  10.687   7.945   1.896 -3.0258  2.2391 -0.5667
  985MOL0     H35885  10.816   7.879   1.798 -0.7408 -2.6416 -0.5558
  985MOL0     H35886  10.851   8.111   1.714  0.3702  1.3342  2.1586
  985MOL0     H35887  10.701   8.110   1.647  1.2762  1.0613  0.0947
  985MOL0     H35888  10.896   8.082   1.967  1.2776  0.1009 -0.5566
  985MOL0     H35889  11.131   8.138   2.052 -0.8282  2.5582 -2.6978
  985MOL0     H35890  11.037   8.084   2.179  1.5740  0.2419  1.9240
  985MOL0     H35891  11.145   8.235   2.189  1.6733  0.7466 -3.6378
  985MOL0     H35892  11.004   8.571   2.502 -0.9302  0.7324  0.4518
  985MOL0     H35893  11.119   8.722   2.644  3.3329 -3.4603  3.5542
  985MOL0     H35894  11.557   8.746   2.531  1.6710  0.9275 -1.9222
  985MOL0     H35895  11.523   8.920   2.481 -0.4673 -0.3149  0.0648
  985MOL0     H35896  11.491   8.888   2.770  1.0410 -2.6774  0.3101
  985MOL0     H35897  11.654   8.841   2.724  1.6415  1.9799  0.5514
  985MOL0     H35898  11.635   9.086   2.767 -0.3439 -1.3814  0.8310
  985MOL0     H35899  11.530   9.108   2.626  0.3978  1.0289 -0.1582
  985MOL0     H35900  11.717   9.057   2.477  3.4361 -0.5202 -0.4298
  985MOL0     H35901  11.809   8.985   2.598  1.0643  0.0535 -0.6091
  985MOL0     H35902  11.875   9.220   2.523 -1.3095  0.2544 -0.2823
  985MOL0     H35903  11.740   9.280   2.589  0.9678  1.3715  1.1002
  985MOL0     H35904  11.979   9.154   2.747  0.0752  0.6796  0.8137
  985MOL0     H35905  11.825   9.155   2.825  1.1784 -1.2795  0.7359
  985MOL0     H35906  11.948   9.321   2.902 -2.3360 -2.0921  1.1622
  985MOL0     H35907  11.802   9.393   2.840 -0.2768 -2.2540  1.1306
  985MOL0     H35908  11.968   9.540   2.783  1.0447 -0.7970  3.3419
  985MOL0     H35909  11.929   9.466   2.626  2.3310  1.9472 -0.6394
  985MOL0     H35910  11.458   8.694   2.354  0.2656  1.6212  0.8631
  985MOL0     H35911  11.314   8.545   2.213 -0.8023 -0.6236  0.0359
  985MOL0     H35912  10.857   8.571   1.992  1.7916 -0.6960 -0.9166
  985MOL0     H35913  10.675   8.437   1.890  0.8180  1.6382 -1.2573
  985MOL0     H35914  10.623   8.593   2.134  0.4918  1.1124 -0.2305
  985MOL0     H35915  10.741   8.803   2.088  1.1656 -1.1805 -0.4130
  985MOL0     H35916  11.078   8.877   2.191 -4.1721 -0.4818 -4.4834
  985MOL0     H35917  11.316   8.945   2.215 -1.3187 -0.0661  2.0218
  985MOL0     H35918  11.435   9.144   2.319 -1.9113 -1.9984 -0.2259
  985MOL0     H35919  11.550   9.042   2.234  0.7811  0.1235 -0.2242
  985MOL0     H35920  11.646   9.256   2.138 -0.6766  0.0247 -1.1653
  985MOL0     H35921  11.685   9.207   2.308 -0.6737  0.6655  1.1006
  985MOL0     H35922  11.451   9.394   2.240 -0.5122 -1.1196 -0.5488
  985MOL0     H35923  11.531   9.384   2.391  0.7359  1.4074 -0.2722
  985MOL0     H35924  11.680   9.465   2.126 -0.9654  2.6296  0.7908
  985MOL0     H35925  11.740   9.473   2.289  1.5363 -0.4573 -0.0125
  985MOL0     H35926  11.502   9.819   2.233 -0.2245  0.1681 -1.3020
  985MOL0     H35927  11.239   9.311   2.038 -0.9290  0.0709 -1.4011
  985MOL0     H35928  10.908   9.231   1.941  0.4884 -2.9635  1.5342
  985MOL0     H35929  10.872   9.330   2.078  0.6888 -0.2254 -0.3898
  985MOL0     H35930  10.997   9.379   1.980 -1.8934  0.9041 -1.5066
  986MOL0     O35931   1.948   4.902  10.305 -0.3117 -0.2911 -0.2023
  986MOL0     C35932   1.970   4.883  10.189 -0.7815 -0.2186  0.1575
  986MOL0     O35933   1.904   4.796  10.102 -0.0533 -0.1636  0.2996
  986MOL0     C35934   1.805   4.707  10.137  0.3818  0.4883  0.5752
  986MOL0     C35935   1.819   4.632  10.248  0.1243  0.2923 -0.3644
  986MOL0     C35936   1.719   4.546  10.293  0.1568 -0.0906 -0.4171
  986MOL0     C35937   1.603   4.528  10.213  0.6483 -0.0573  0.2876
  986MOL0     O35938   1.511   4.448  10.271  0.5179 -0.0440  0.4756
  986MOL0     C35939   1.368   4.492  10.263 -0.6779  0.0540 -0.5280
  986MOL0     C35940   1.284   4.432  10.381  0.1860  0.4752 -0.1737
  986MOL0     C35941   1.347   4.472  10.521 -0.3727  0.3519  1.0634
  986MOL0     C35942   1.244   4.497  10.623  0.7831 -0.5293 -0.4352
  986MOL0     C35943   1.305   4.564  10.752 -0.1169 -0.4156  0.4599
  986MOL0     C35944   1.187   4.610  10.843 -0.5009  0.1225  0.1701
  986MOL0     C35945   1.091   4.710  10.782  0.7412  0.1847  0.8627
  986MOL0     C35946   0.967   4.733  10.871  0.1804 -0.5722  0.4524
  986MOL0     N35947   0.990   4.820  10.988  0.5631  0.4299 -0.0050
  986MOL0     C35948   1.028   4.763  11.107 -0.0604  0.1658 -0.1564
  986MOL0     C35949   1.050   4.865  11.195  0.1068 -0.1910 -1.1897
  986MOL0     C35950   1.087   4.854  11.342  0.4658  0.2361 -0.1812
  986MOL0     C35951   0.995   4.940  11.428 -0.5153  0.9500 -0.8129
  986MOL0     C35952   1.055   4.939  11.574  0.0657 -0.2995  0.0696
  986MOL0     C35953   0.993   5.044  11.669 -0.5968 -1.2103  0.2000
  986MOL0     O35954   0.861   5.068  11.630  0.1877 -0.6171 -0.3921
  986MOL0     C35955   0.765   4.974  11.665  0.2557  0.2051 -0.6727
  986MOL0     C35956   0.633   5.001  11.636 -0.3796  0.7198 -0.9857
  986MOL0     C35957   0.518   4.932  11.674  0.4959 -0.0263 -0.8334
  986MOL0     C35958   0.387   4.984  11.623  0.3567 -1.1518  0.1486
  986MOL0     C35959   0.536   4.809  11.738 -0.2821  0.0765  0.2309
  986MOL0     C35960   0.425   4.710  11.773  0.7450 -0.7587  0.3481
  986MOL0     O35961   0.461   4.594  11.839 -0.0976 -0.1640  0.0839
  986MOL0     C35962   0.369   4.496  11.866  0.8257 -0.0368  0.2850
  986MOL0     C35963   0.309   4.424  11.756 -0.8809 -0.6575 -0.2165
  986MOL0     C35964   0.222   4.327  11.790  1.2625 -0.0765  0.4225
  986MOL0     C35965   0.186   4.298  11.921 -0.0684  0.4892  0.3004
  986MOL0     O35966   0.101   4.189  11.933  0.4611  0.4790  0.4594
  986MOL0     C35967   0.100   4.105  12.046  0.3595  0.5344 -0.3123
  986MOL0     C35968   0.037   3.969  12.011 -0.3697  0.3185 -0.3990
  986MOL0     C35969   0.008   3.902  12.144  0.0003 -0.0265 -0.4820
  986MOL0     C35970  -0.060   3.762  12.124  0.5823 -0.5193  0.0690
  986MOL0     C35971  -0.075   3.701  12.268  0.5119 -0.1986  0.6692
  986MOL0     C35972   0.054   3.677  12.337  0.2458  0.3120  0.6782
  986MOL0     C35973   0.053   3.577  12.440 -0.1913  1.1297 -0.4821
  986MOL0     C35974  -0.000   3.621  12.579 -0.6962 -0.4727 -0.1042
  986MOL0    Cl35975  -0.172   3.643  12.586 -0.0179 -0.1503  0.3159
  986MOL0     C35976   0.243   4.368  12.023  0.7290 -0.7584 -0.7923
  986MOL0     C35977   0.326   4.477  12.000 -0.3365  0.4825 -0.6898
  986MOL0     O35978   0.311   4.740  11.743 -0.6007  0.2348 -0.5010
  986MOL0     C35979   0.664   4.773  11.778 -0.0444 -0.9545  0.2824
  986MOL0     C35980   0.776   4.857  11.741 -0.4478  0.5002 -0.3551
  986MOL0     N35981   1.042   4.981  11.121  0.2000 -0.0909 -1.1457
  986MOL0     N35982   1.001   4.954  11.005 -0.1403 -0.4071 -0.1269
  986MOL0     C35983   1.579   4.613  10.102 -1.0224  0.0395  0.4154
  986MOL0     C35984   1.690   4.693  10.057  0.0747 -0.2846 -0.4478
  986MOL0     C35985   2.091   4.951  10.137  0.2153  0.2499 -0.1050
  986MOL0     C35986   2.106   4.956   9.995  0.0308 -0.1340  0.0830
  986MOL0     C35987   2.218   5.017   9.928  0.7338 -0.2157  0.4065
  986MOL0     C35988   2.315   5.080  10.004 -0.6834  0.2357 -0.3139
  986MOL0     O35989   2.433   5.113   9.936 -0.0599 -0.3409 -0.7734
  986MOL0     C35990   2.551   5.161  10.000  0.3455  0.1064 -0.0422
  986MOL0     C35991   2.527   5.317  10.026  0.3460  0.8858  0.1184
  986MOL0     C35992   2.657   5.375  10.086  0.2643  0.9457 -0.0892
  986MOL0     C35993   2.653   5.526  10.108  0.7831  0.1498  0.0557
  986MOL0     C35994   2.603   5.620  10.018  0.9952  0.0818  0.3177
  986MOL0     C35995   2.552   5.688   9.932  1.6374 -0.0446 -0.0676
  986MOL0     C35996   2.292   5.085  10.148 -0.2547 -0.3456 -0.2072
  986MOL0     C35997   2.183   5.026  10.217 -0.0675 -0.6864 -0.1015
  986MOL0     C35998   2.189   5.039  10.372 -0.4215 -0.6828  0.1954
  986MOL0     H35999   1.914   4.625  10.300 -0.7801 -0.1365  1.2958
  986MOL0     H36000   1.723   4.474  10.374 -1.9881 -0.0607 -0.2094
  986MOL0     H36001   1.333   4.445  10.171  2.6727 -1.3892 -1.2299
  986MOL0     H36002   1.357   4.601  10.256 -0.7629  0.0928  0.2324
  986MOL0     H36003   1.179   4.464  10.383 -0.3778 -1.2376 -0.6443
  986MOL0     H36004   1.280   4.323  10.373  3.0398  0.2018  0.9170
  986MOL0     H36005   1.425   4.399  10.541  0.4615 -0.3053 -3.4589
  986MOL0     H36006   1.408   4.561  10.501  0.8610 -0.2520  2.0467
  986MOL0     H36007   1.178   4.569  10.575  2.4087  1.4835  0.2142
  986MOL0     H36008   1.188   4.415  10.669 -1.8304  1.3658 -0.0158
  986MOL0     H36009   1.366   4.648  10.717  0.5107 -0.2189  1.9314
  986MOL0     H36010   1.374   4.496  10.803  1.0756  0.2975 -0.1432
  986MOL0     H36011   1.131   4.526  10.885 -2.1015  0.8632 -0.3949
  986MOL0     H36012   1.238   4.649  10.932  0.7540 -0.5299 -0.2511
  986MOL0     H36013   1.049   4.674  10.687  2.5117 -1.8375  0.7700
  986MOL0     H36014   1.138   4.802  10.746 -1.7194  1.0896 -0.2560
  986MOL0     H36015   0.884   4.774  10.812 -1.1248 -2.5935  0.7487
  986MOL0     H36016   0.917   4.643  10.909 -5.0970  1.3135 -1.1735
  986MOL0     H36017   1.043   4.659  11.135 -0.9544 -0.0465 -0.4125
  986MOL0     H36018   1.194   4.875  11.353  0.7966 -2.4657  3.7229
  986MOL0     H36019   1.076   4.751  11.376  1.4248  0.4736  0.8912
  986MOL0     H36020   0.986   5.043  11.391 -1.7455  0.7434 -1.1024
  986MOL0     H36021   0.897   4.893  11.431  0.4509 -1.2822 -1.8540
  986MOL0     H36022   1.054   4.839  11.617  1.3567 -0.2206  0.3199
  986MOL0     H36023   1.161   4.964  11.562 -0.9942  5.0212 -0.5773
  986MOL0     H36024   1.007   5.021  11.775 -0.4302  0.0105  0.4524
  986MOL0     H36025   1.040   5.139  11.643 -1.9890 -0.5416  0.0392
  986MOL0     H36026   0.631   5.084  11.566  3.5598  1.3411 -0.5804
  986MOL0     H36027   0.320   5.005  11.707  1.3563 -0.8123  0.8736
  986MOL0     H36028   0.348   4.900  11.565 -3.0823  1.1211 -1.1525
  986MOL0     H36029   0.380   5.072  11.559 -2.0262 -1.9785 -0.8657
  986MOL0     H36030   0.355   4.437  11.659 -1.2851  2.5082 -0.0938
  986MOL0     H36031   0.176   4.270  11.710  4.1377 -2.1363  0.0712
  986MOL0     H36032   0.195   4.084  12.096 -1.4493 -0.4536  3.0521
  986MOL0     H36033   0.048   4.146  12.133  3.7838 -0.2367  2.3036
  986MOL0     H36034  -0.058   3.974  11.958 -1.6795  1.7634  1.8993
  986MOL0     H36035   0.102   3.903  11.953 -0.4055  1.2030 -1.4707
  986MOL0     H36036  -0.056   3.960  12.210  1.0689 -0.7446  1.2467
  986MOL0     H36037   0.105   3.897  12.194  0.3770 -1.1215 -1.2778
  986MOL0     H36038  -0.003   3.691  12.062 -0.2261 -1.0793 -0.0471
  986MOL0     H36039  -0.158   3.779  12.077  2.1963  2.2829 -2.6991
  986MOL0     H36040  -0.149   3.758  12.325 -3.8366 -2.1123 -2.4988
  986MOL0     H36041  -0.114   3.599  12.256  1.3350 -0.5075  0.5834
  986MOL0     H36042   0.088   3.770  12.383 -1.1219  0.6807  0.9583
  986MOL0     H36043   0.118   3.633  12.260 -0.3552  0.2947  0.1814
  986MOL0     H36044   0.150   3.527  12.453 -0.5110  0.7839  0.6934
  986MOL0     H36045   0.003   3.489  12.397  0.3075  1.0346 -0.8834
  986MOL0     H36046   0.045   3.718  12.598  2.9366 -2.0318  0.1459
  986MOL0     H36047   0.033   3.547  12.653  4.8798 -0.7067 -2.3168
  986MOL0     H36048   0.227   4.334  12.125 -0.7470  1.6924 -0.1338
  986MOL0     H36049   0.375   4.535  12.077 -1.7533 -1.2767  1.6893
  986MOL0     H36050   0.681   4.681  11.833  0.9374 -2.3161 -2.1542
  986MOL0     H36051   0.872   4.817  11.773 -0.6337  0.0103 -0.3896
  986MOL0     H36052   1.480   4.610  10.056 -0.5590 -0.1516 -0.6130
  986MOL0     H36053   1.686   4.762   9.973  1.8223 -0.6597 -0.8672
  986MOL0     H36054   2.044   4.891   9.934 -3.0303  2.2331  0.4334
  986MOL0     H36055   2.232   5.005   9.821 -1.0941 -2.6152  0.3557
  986MOL0     H36056   2.562   5.111  10.097 -0.9781 -0.2686 -0.0687
  986MOL0     H36057   2.637   5.138   9.936 -1.9277 -0.4981 -3.0445
  986MOL0     H36058   2.451   5.329  10.103  0.9778  1.2266  0.7032
  986MOL0     H36059   2.495   5.354   9.928 -1.6942 -1.3159 -0.1322
  986MOL0     H36060   2.683   5.324  10.179  2.5692  2.4244  0.1634
  986MOL0     H36061   2.749   5.363  10.028  0.6483  1.0836  0.4758
  986MOL0     H36062   2.757   5.557  10.126  0.8835 -1.5584  3.1089
  986MOL0     H36063   2.608   5.545  10.206 -2.8798  0.1371 -1.4901
  986MOL0     H36064   2.504   5.747   9.856 -0.6906 -4.1747 -2.1502
  986MOL0     H36065   2.371   5.131  10.205 -0.0239 -0.3350 -0.5354
  986MOL0     H36066   2.209   4.939  10.412 -1.5844 -0.9895  0.0287
  986MOL0     H36067   2.264   5.109  10.410 -2.7756  3.5226 -2.1584
  986MOL0     H36068   2.094   5.071  10.414  0.0240 -2.3402  2.6805
  987MOL0     O36069   0.481   9.786   0.908  0.2043  0.9276 -0.1879
  987MOL0     C36070   0.409   9.766   1.010 -0.5290 -0.3737  0.4829
  987MOL0     O36071   0.286   9.822   1.026  0.7831  0.2251 -0.9815
  987MOL0     C36072   0.251   9.944   0.966 -0.0764  0.5328 -0.3283
  987MOL0     C36073   0.331  10.038   0.889  0.2381  1.0604 -0.8187
  987MOL0     C36074   0.284  10.164   0.869  0.4133  0.3095  0.7294
  987MOL0     C36075   0.154  10.199   0.914  0.6400  0.2509 -0.1121
  987MOL0     O36076   0.108  10.318   0.877 -0.0322 -0.6685 -0.5118
  987MOL0     C36077  -0.031  10.350   0.915  0.0489 -0.6041  1.0715
  987MOL0     C36078  -0.077  10.481   0.840  0.2117 -0.5857 -0.0229
  987MOL0     C36079   0.014  10.593   0.874 -0.6439 -0.6109  0.0148
  987MOL0     C36080  -0.048  10.730   0.844  0.3219  0.0734  0.1488
  987MOL0     C36081   0.027  10.855   0.896  0.0611 -0.2397  0.4458
  987MOL0     C36082  -0.059  10.983   0.897 -0.0492 -1.0664  1.1037
  987MOL0     C36083  -0.054  11.061   0.755  1.0010 -1.1278 -0.4665
  987MOL0     C36084  -0.018  11.214   0.785  0.1277 -0.3438 -0.7082
  987MOL0     N36085   0.002  11.290   0.660  0.2971  0.4752  0.2062
  987MOL0     C36086   0.124  11.339   0.620  0.8740  0.7981 -0.1221
  987MOL0     C36087   0.092  11.425   0.520 -0.5306  0.8969 -0.2769
  987MOL0     C36088   0.180  11.518   0.443 -0.1926 -0.9896 -0.2576
  987MOL0     C36089   0.215  11.447   0.316 -0.1851  0.2685  0.0592
  987MOL0     C36090   0.349  11.498   0.258  0.8810 -0.2606  0.8005
  987MOL0     C36091   0.473  11.474   0.345 -0.0478  1.0254  1.0653
  987MOL0     O36092   0.454  11.355   0.435  0.0996  0.2129  0.3648
  987MOL0     C36093   0.463  11.233   0.362 -0.2101  0.1672 -0.4638
  987MOL0     C36094   0.514  11.216   0.231 -0.5057 -0.1731 -1.6382
  987MOL0     C36095   0.531  11.090   0.179  0.0244  0.2838 -0.9277
  987MOL0     C36096   0.605  11.090   0.052 -0.7168  0.2544  0.0018
  987MOL0     C36097   0.473  10.976   0.242 -0.3394  0.5521  0.3296
  987MOL0     C36098   0.461  10.838   0.183  0.0517 -0.0850  0.4393
  987MOL0     O36099   0.505  10.824   0.059 -0.0274  0.2539 -0.2900
  987MOL0     C36100   0.485  10.710  -0.019 -0.1965  0.2420 -0.2427
  987MOL0     C36101   0.480  10.576   0.034 -0.2845  0.9917  0.6389
  987MOL0     C36102   0.460  10.472  -0.054 -0.2791 -0.2538 -1.0490
  987MOL0     C36103   0.446  10.488  -0.191  0.3079  0.6460 -0.1215
  987MOL0     O36104   0.413  10.402  -0.291  0.1224  0.4108 -0.3810
  987MOL0     C36105   0.327  10.281  -0.263 -1.0738  0.0702 -0.5371
  987MOL0     C36106   0.205  10.307  -0.175 -0.3431 -0.5965  0.3353
  987MOL0     C36107   0.095  10.391  -0.248  0.0616 -0.7608 -0.4790
  987MOL0     C36108  -0.015  10.419  -0.144  0.2904 -0.0891  0.0403
  987MOL0     C36109  -0.142  10.418  -0.222  0.8915 -0.9755 -0.1827
  987MOL0     C36110  -0.264  10.419  -0.135  0.9988  0.2442 -0.6139
  987MOL0     C36111  -0.390  10.439  -0.219  0.4910  0.0986 -0.2802
  987MOL0     C36112  -0.415  10.331  -0.327  0.3348  0.1284  0.0521
  987MOL0    Cl36113  -0.444  10.174  -0.244  0.0997  0.2080  0.0853
  987MOL0     C36114   0.462  10.620  -0.237 -0.1038  0.1251  1.2181
  987MOL0     C36115   0.484  10.728  -0.154  0.9675 -0.1440  0.8604
  987MOL0     O36116   0.391  10.756   0.241  0.1425 -0.1540 -0.0458
  987MOL0     C36117   0.409  10.995   0.371  0.0221  0.0706 -0.6698
  987MOL0     C36118   0.419  11.116   0.436  0.5326 -0.1989  0.2861
  987MOL0     N36119  -0.038  11.395   0.479 -1.0331  0.2750 -0.0892
  987MOL0     N36120  -0.086  11.318   0.567  0.0572  0.2697  0.1530
  987MOL0     C36121   0.079  10.112   1.000 -0.7553  0.4816  0.4344
  987MOL0     C36122   0.128   9.981   1.018  0.0894  0.1432 -0.2959
  987MOL0     C36123   0.458   9.690   1.122 -0.2284 -0.4048 -0.4043
  987MOL0     C36124   0.365   9.629   1.209 -0.2815 -0.1005  1.2025
  987MOL0     C36125   0.414   9.565   1.333 -0.4119 -0.4668  0.5292
  987MOL0     C36126   0.548   9.539   1.348  0.0008 -0.1440 -0.4528
  987MOL0     O36127   0.579   9.461   1.461 -0.4574  0.2497 -0.5496
  987MOL0     C36128   0.704   9.392   1.451 -0.1807  0.1906 -0.2668
  987MOL0     C36129   0.709   9.293   1.339  0.5885 -0.5172  0.1724
  987MOL0     C36130   0.849   9.251   1.291 -0.0055 -0.1787 -0.3394
  987MOL0     C36131   0.819   9.115   1.218 -0.3824 -0.2406  0.5771
  987MOL0     C36132   0.938   9.057   1.159 -0.0194 -0.2339  0.5452
  987MOL0     C36133   1.026   9.010   1.096 -0.3558  0.0547  0.5347
  987MOL0     C36134   0.638   9.601   1.262  1.0382  0.0255  0.4699
  987MOL0     C36135   0.597   9.677   1.150  0.3713  0.0806  0.7546
  987MOL0     C36136   0.720   9.719   1.067  0.3640 -0.0068  0.8748
  987MOL0     H36137   0.429  10.005   0.857  0.0147  0.0645 -0.5275
  987MOL0     H36138   0.337  10.239   0.812 -0.5770  0.3217 -0.2070
  987MOL0     H36139  -0.037  10.369   1.022 -2.0813  0.5663  0.7954
  987MOL0     H36140  -0.095  10.269   0.879 -0.0737 -0.2383  0.4354
  987MOL0     H36141  -0.079  10.456   0.733  1.9680 -1.0198  0.0227
  987MOL0     H36142  -0.177  10.501   0.879  0.1634 -1.8759  0.5734
  987MOL0     H36143   0.042  10.582   0.979 -2.1091 -3.2276  0.2328
  987MOL0     H36144   0.104  10.575   0.814 -0.5536 -0.8850  0.2291
  987MOL0     H36145  -0.075  10.743   0.739  0.0843 -0.7104  0.1049
  987MOL0     H36146  -0.135  10.729   0.911 -0.1678  1.5111 -0.4359
  987MOL0     H36147   0.117  10.874   0.836  0.3737 -0.3072  0.8934
  987MOL0     H36148   0.072  10.833   0.993  1.1200 -1.0108 -0.2086
  987MOL0     H36149  -0.164  10.961   0.918  0.0924 -2.1436  0.7562
  987MOL0     H36150  -0.009  11.042   0.974  0.7472 -0.0556 -0.1568
  987MOL0     H36151  -0.146  11.060   0.696  0.5443  0.6690  0.1664
  987MOL0     H36152   0.027  11.016   0.696  1.2655  2.1718 -2.9209
  987MOL0     H36153  -0.097  11.258   0.847  0.5868 -0.4161 -0.0638
  987MOL0     H36154   0.079  11.203   0.833 -0.9175  1.2149  1.9639
  987MOL0     H36155   0.217  11.318   0.671  1.1711  0.7777 -0.6678
  987MOL0     H36156   0.272  11.538   0.498  0.1890  2.5221 -1.8605
  987MOL0     H36157   0.126  11.610   0.419  0.4859 -0.0325  1.7336
  987MOL0     H36158   0.230  11.340   0.331  1.3667  0.2593 -1.3022
  987MOL0     H36159   0.136  11.464   0.242  0.6649  0.7551 -0.7664
  987MOL0     H36160   0.361  11.434   0.171  0.6778 -0.2786  0.7862
  987MOL0     H36161   0.345  11.600   0.219  0.4397 -1.5976 -3.0804
  987MOL0     H36162   0.562  11.465   0.283  0.0436 -2.4575  1.4757
  987MOL0     H36163   0.484  11.558   0.414 -2.3958  0.2320  2.5543
  987MOL0     H36164   0.539  11.298   0.165  2.5760 -0.0222 -0.4866
  987MOL0     H36165   0.549  11.121  -0.036  1.0728 -0.8572 -1.6126
  987MOL0     H36166   0.656  10.997   0.023  0.3212  1.3273 -1.8286
  987MOL0     H36167   0.694  11.152   0.068 -0.4874 -0.1226  0.2231
  987MOL0     H36168   0.497  10.560   0.140 -0.5051 -0.4693  0.4697
  987MOL0     H36169   0.432  10.375  -0.014 -0.4363 -0.2728 -1.2048
  987MOL0     H36170   0.280  10.233  -0.349  1.2270 -1.9750 -0.7688
  987MOL0     H36171   0.394  10.205  -0.220 -0.3958 -0.2946 -2.1932
  987MOL0     H36172   0.176  10.202  -0.159  1.5278 -0.9944  1.4372
  987MOL0     H36173   0.225  10.352  -0.078  1.3881  0.4853 -0.4710
  987MOL0     H36174   0.046  10.340  -0.332 -2.4149 -1.7642  1.4632
  987MOL0     H36175   0.139  10.488  -0.271  0.9056 -0.2891  2.6832
  987MOL0     H36176   0.002  10.518  -0.100 -0.3611  0.6351 -1.2872
  987MOL0     H36177  -0.020  10.348  -0.061  1.0416 -2.0919 -1.5446
  987MOL0     H36178  -0.143  10.502  -0.292  1.3118  0.5212  1.5240
  987MOL0     H36179  -0.150  10.331  -0.287  1.7737 -1.3328  0.1778
  987MOL0     H36180  -0.259  10.503  -0.066  1.5017  0.3366 -0.7621
  987MOL0     H36181  -0.283  10.328  -0.078 -1.9437  1.6625  0.9210
  987MOL0     H36182  -0.392  10.543  -0.253  2.7437  1.5175  3.4042
  987MOL0     H36183  -0.473  10.424  -0.150  1.1792 -0.8822  0.3583
  987MOL0     H36184  -0.334  10.322  -0.400  0.2296 -0.2554 -0.0184
  987MOL0     H36185  -0.508  10.335  -0.384 -0.1582 -3.4385  0.4141
  987MOL0     H36186   0.472  10.642  -0.343 -2.6044  0.3248  0.9655
  987MOL0     H36187   0.499  10.832  -0.183 -1.3722  0.4811  1.6911
  987MOL0     H36188   0.368  10.911   0.426  2.1878 -2.9324 -3.2661
  987MOL0     H36189   0.390  11.133   0.539  0.1157  1.0324 -0.0208
  987MOL0     H36190  -0.013  10.132   1.055 -1.3995 -1.5091  0.1546
  987MOL0     H36191   0.074   9.912   1.083  0.5173 -0.7748 -0.8876
  987MOL0     H36192   0.258   9.622   1.194  0.1146 -1.3801 -1.7245
  987MOL0     H36193   0.358   9.520   1.415  2.0207  1.6293  3.5765
  987MOL0     H36194   0.787   9.462   1.436 -0.1132 -0.1816 -1.8088
  987MOL0     H36195   0.721   9.337   1.544  0.0871  0.5142 -0.1234
  987MOL0     H36196   0.648   9.327   1.255  0.1736 -1.4764  0.0621
  987MOL0     H36197   0.654   9.206   1.377 -0.3042 -1.0500 -2.1323
  987MOL0     H36198   0.896   9.330   1.232  2.1188 -0.0019  1.4881
  987MOL0     H36199   0.910   9.243   1.381  1.0637  0.3971 -1.0017
  987MOL0     H36200   0.752   9.131   1.133 -1.7286 -0.3954  1.5718
  987MOL0     H36201   0.772   9.044   1.287  1.6623 -1.0980  1.1680
  987MOL0     H36202   1.103   8.959   1.040 -0.5828 -1.8829  1.8938
  987MOL0     H36203   0.746   9.592   1.273  1.3468  3.0691  0.7534
  987MOL0     H36204   0.819   9.698   1.109  0.4663 -0.2246  0.5334
  987MOL0     H36205   0.706   9.675   0.968 -0.6181  5.4585 -1.7390
  987MOL0     H36206   0.719   9.826   1.045 -3.8920 -0.1134 -0.1994
  988MOL0     O36207   1.170   9.369  10.947 -0.7719 -0.3401 -0.2063
  988MOL0     C36208   1.288   9.329  10.933  0.4263  0.0508  0.6909
  988MOL0     O36209   1.346   9.247  11.027 -0.1116 -0.2744 -0.0645
  988MOL0     C36210   1.269   9.191  11.122  0.2255 -0.2879  0.4364
  988MOL0     C36211   1.261   9.246  11.245 -0.3212  0.1366 -0.3342
  988MOL0     C36212   1.168   9.202  11.338  0.5415 -0.2340  0.3764
  988MOL0     C36213   1.086   9.093  11.308  0.6781 -0.6203  0.3976
  988MOL0     O36214   1.012   9.036  11.406  0.8301 -0.2364 -0.7837
  988MOL0     C36215   0.878   9.024  11.364 -0.3488 -0.2040  0.3736
  988MOL0     C36216   0.798   8.943  11.472 -0.1405  0.2500  0.3682
  988MOL0     C36217   0.827   8.796  11.450  0.1051 -0.4252 -0.2201
  988MOL0     C36218   0.767   8.720  11.567 -1.1515 -0.1789  0.0452
  988MOL0     C36219   0.823   8.572  11.566  0.3901 -0.1326  0.7076
  988MOL0     C36220   0.822   8.509  11.711 -0.0986 -1.0682 -0.0663
  988MOL0     C36221   0.683   8.510  11.793 -0.7519  1.0988 -0.2745
  988MOL0     C36222   0.555   8.464  11.723 -0.3478 -0.4153 -0.6487
  988MOL0     N36223   0.436   8.538  11.772  0.2021  0.3731 -0.2405
  988MOL0     C36224   0.399   8.559  11.895 -0.1088 -1.0903 -0.6014
  988MOL0     C36225   0.278   8.607  11.893  0.5294 -0.1807 -0.6016
  988MOL0     C36226   0.183   8.623  12.013 -0.6778 -0.5043  0.0574
  988MOL0     C36227   0.115   8.497  12.041  0.3995 -0.4296  0.4188
  988MOL0     C36228   0.053   8.523  12.181 -0.4179 -0.1969 -0.0652
  988MOL0     C36229   0.089   8.415  12.279  0.1980 -0.1644  0.0880
  988MOL0     O36230   0.232   8.388  12.295  0.9758 -0.0325 -0.3312
  988MOL0     C36231   0.281   8.461  12.403 -1.2647  0.3293  0.4264
  988MOL0     C36232   0.269   8.411  12.538 -0.3511 -0.3741 -0.2863
  988MOL0     C36233   0.328   8.471  12.654  0.3308 -0.0280  0.3382
  988MOL0     C36234   0.301   8.405  12.792 -0.5860  0.4332 -0.0378
  988MOL0     C36235   0.416   8.580  12.631  1.0468 -0.9967  0.2943
  988MOL0     C36236   0.468   8.670  12.738  0.0084 -1.1652  0.0317
  988MOL0     O36237   0.436   8.649  12.869  0.3265 -0.2377  0.3666
  988MOL0     C36238   0.486   8.731  12.967 -0.3958  0.0356 -0.2609
  988MOL0     C36239   0.483   8.876  12.968 -0.2285  0.0526  0.0081
  988MOL0     C36240   0.539   8.951  13.078 -0.1521 -0.1613 -0.1989
  988MOL0     C36241   0.611   8.885  13.171 -0.9234  0.0663 -0.2086
  988MOL0     O36242   0.673   8.956  13.270  0.1213 -0.2821 -1.1217
  988MOL0     C36243   0.756   9.064  13.230  0.2567  0.1529  0.5924
  988MOL0     C36244   0.849   9.095  13.352  0.6079 -0.4038  0.7483
  988MOL0     C36245   0.774   9.160  13.460 -0.0567  0.5307 -0.0912
  988MOL0     C36246   0.869   9.218  13.577 -1.0215  0.5616  0.2150
  988MOL0     C36247   0.786   9.305  13.689 -0.0998  0.0647 -0.0836
  988MOL0     C36248   0.883   9.348  13.801 -0.2349 -0.1964  0.3570
  988MOL0     C36249   0.824   9.421  13.913  0.6369  0.7359 -0.5294
  988MOL0     C36250   0.934   9.460  14.003  0.2130 -0.5313 -0.0030
  988MOL0    Cl36251   1.006   9.317  14.089 -0.0430  0.2198  0.2331
  988MOL0     C36252   0.639   8.747  13.156 -0.5480  0.2790 -0.9832
  988MOL0     C36253   0.576   8.673  13.056  0.7292 -0.2889  0.7461
  988MOL0     O36254   0.535   8.768  12.712  0.5796 -0.6162  0.0681
  988MOL0     C36255   0.428   8.623  12.499  0.3261 -0.0524  0.8351
  988MOL0     C36256   0.365   8.570  12.383  0.8460 -1.1248  0.2130
  988MOL0     N36257   0.239   8.613  11.757 -0.0137 -0.0845  0.0360
  988MOL0     N36258   0.339   8.573  11.687 -0.5081  0.1960  0.1935
  988MOL0     C36259   1.099   9.030  11.184 -1.1533  0.6516 -0.0246
  988MOL0     C36260   1.198   9.077  11.091  0.1976 -0.1177 -0.5211
  988MOL0     C36261   1.381   9.394  10.833  0.8362  0.3993  0.0870
  988MOL0     C36262   1.337   9.507  10.764 -0.2829  0.3082  0.1387
  988MOL0     C36263   1.404   9.550  10.651 -0.0693 -0.2637  0.2769
  988MOL0     C36264   1.512   9.486  10.607 -0.4106  0.0012  0.2607
  988MOL0     O36265   1.572   9.538  10.486 -0.9366  0.4891 -0.0027
  988MOL0     C36266   1.723   9.551  10.492  0.5612  0.0960 -0.7462
  988MOL0     C36267   1.755   9.700  10.506 -0.4126 -0.8749 -0.0577
  988MOL0     C36268   1.704   9.772  10.636 -1.2666  1.1577  0.1817
  988MOL0     C36269   1.738   9.705  10.770  0.9832  0.5272 -0.2387
  988MOL0     C36270   1.871   9.648  10.773 -0.2990 -0.3006  0.4242
  988MOL0     C36271   1.990   9.617  10.770  0.5110 -0.1935 -0.7091
  988MOL0     C36272   1.576   9.388  10.690 -0.4216  0.5015 -0.5664
  988MOL0     C36273   1.509   9.330  10.799 -0.3672  0.1273 -0.1358
  988MOL0     C36274   1.570   9.217  10.863  0.2903 -1.1467 -0.0664
  988MOL0     H36275   1.322   9.333  11.266  3.5107 -2.3177 -0.2917
  988MOL0     H36276   1.183   9.228  11.443  0.4725 -0.8360  0.5384
  988MOL0     H36277   0.864   8.983  11.263 -3.7428 -3.3224  1.8591
  988MOL0     H36278   0.840   9.126  11.359 -1.9749 -0.7933 -0.1354
  988MOL0     H36279   0.833   8.981  11.568 -0.8699  1.1949  0.2767
  988MOL0     H36280   0.692   8.964  11.455  0.5857  3.2119 -1.2174
  988MOL0     H36281   0.789   8.761  11.353  4.0532  2.5148 -3.1644
  988MOL0     H36282   0.935   8.787  11.439  0.1966  0.3855 -0.0129
  988MOL0     H36283   0.796   8.779  11.654 -0.9426  0.5725 -0.5252
  988MOL0     H36284   0.658   8.715  11.567 -1.1140 -2.5234  1.4805
  988MOL0     H36285   0.921   8.576  11.517  0.3255  0.7588  0.6295
  988MOL0     H36286   0.763   8.502  11.508 -0.0961 -0.4781  1.6064
  988MOL0     H36287   0.865   8.408  11.705  5.1271  0.7707  1.6985
  988MOL0     H36288   0.896   8.549  11.780 -0.4638  1.3183 -0.9675
  988MOL0     H36289   0.664   8.608  11.839  1.2752  1.5123 -0.2427
  988MOL0     H36290   0.688   8.438  11.875 -4.4070 -1.3439 -1.9261
  988MOL0     H36291   0.563   8.494  11.618 -1.0401  0.0288 -0.5808
  988MOL0     H36292   0.538   8.359  11.748 -0.1923  0.2110  2.5015
  988MOL0     H36293   0.451   8.540  11.988 -1.7695  1.9983  1.1262
  988MOL0     H36294   0.109   8.700  11.992  0.2974  0.9337  1.6551
  988MOL0     H36295   0.255   8.648  12.091  0.6528 -0.5133 -1.1314
  988MOL0     H36296   0.032   8.480  11.972  0.1286 -2.6558  1.2004
  988MOL0     H36297   0.180   8.410  12.044  0.6543 -0.3543 -1.6215
  988MOL0     H36298   0.076   8.624  12.217  0.4899  0.4994 -2.4123
  988MOL0     H36299  -0.056   8.534  12.182 -0.4656 -0.1870  2.5310
  988MOL0     H36300   0.039   8.442  12.372 -2.0683 -3.7440  0.0892
  988MOL0     H36301   0.040   8.320  12.256 -0.5513  0.4032 -0.7196
  988MOL0     H36302   0.213   8.321  12.562  0.1086  0.1009  3.0465
  988MOL0     H36303   0.216   8.458  12.837  1.6931  2.4560  2.1856
  988MOL0     H36304   0.386   8.400  12.860  0.0643  1.3748 -0.7453
  988MOL0     H36305   0.271   8.302  12.771 -2.4054  0.1547  3.3428
  988MOL0     H36306   0.444   8.926  12.880 -0.7926 -0.8054 -0.2430
  988MOL0     H36307   0.518   9.056  13.094 -2.2370 -0.5807  0.1478
  988MOL0     H36308   0.819   9.026  13.150  0.7070  0.9461  0.5545
  988MOL0     H36309   0.695   9.148  13.195  0.7168  0.6435  0.9512
  988MOL0     H36310   0.887   8.999  13.387 -0.7706 -1.1407  0.2748
  988MOL0     H36311   0.938   9.150  13.320  0.3895 -0.1177  0.6298
  988MOL0     H36312   0.706   9.087  13.504  1.6146 -1.7337 -1.0759
  988MOL0     H36313   0.708   9.232  13.411 -0.9588 -1.8398 -2.6400
  988MOL0     H36314   0.945   9.280  13.529 -0.3911  0.1128  0.6067
  988MOL0     H36315   0.918   9.136  13.631 -1.2944 -0.0104 -0.3991
  988MOL0     H36316   0.731   9.389  13.643 -0.7417 -0.6426 -0.6366
  988MOL0     H36317   0.718   9.234  13.735 -1.4957  2.3009  1.5139
  988MOL0     H36318   0.957   9.410  13.750  1.9097 -2.1912  0.8456
  988MOL0     H36319   0.939   9.263  13.841  0.1097  0.6019  1.6477
  988MOL0     H36320   0.752   9.357  13.966 -0.1107  1.3499 -0.7813
  988MOL0     H36321   0.771   9.512  13.883  0.4022  1.1771  1.1189
  988MOL0     H36322   0.886   9.521  14.079  1.2911 -1.4239  1.4500
  988MOL0     H36323   1.013   9.518  13.955  0.3652 -2.1911 -1.9308
  988MOL0     H36324   0.698   8.701  13.234 -3.3839 -0.0676  1.0964
  988MOL0     H36325   0.587   8.565  13.052  1.0725 -0.4342  3.3795
  988MOL0     H36326   0.483   8.715  12.483  0.1324  0.1631  1.3990
  988MOL0     H36327   0.401   8.599  12.285 -0.4315  0.1666  0.0898
  988MOL0     H36328   1.027   8.956  11.150  1.8002 -1.6030 -1.8628
  988MOL0     H36329   1.213   9.042  10.990 -0.8026 -2.1924 -0.0168
  988MOL0     H36330   1.247   9.560  10.791  0.0093  2.3365 -2.4188
  988MOL0     H36331   1.365   9.625  10.583 -0.9012 -2.4535 -1.7987
  988MOL0     H36332   1.776   9.496  10.570 -1.4608  1.7230  1.9617
  988MOL0     H36333   1.758   9.520  10.393 -4.5630 -1.1796 -2.4741
  988MOL0     H36334   1.694   9.742  10.426  2.2145 -0.0181 -1.7731
  988MOL0     H36335   1.858   9.730  10.481 -0.9425  0.9673 -0.1516
  988MOL0     H36336   1.745   9.873  10.645  1.6840 -0.0919  3.3034
  988MOL0     H36337   1.595   9.776  10.642 -1.3006 -0.2462  1.0597
  988MOL0     H36338   1.668   9.622  10.786 -2.7341  3.3401 -0.4748
  988MOL0     H36339   1.737   9.778  10.851  3.9675  1.1547 -0.6321
  988MOL0     H36340   2.095   9.602  10.778  0.4297 -0.4428  0.0396
  988MOL0     H36341   1.670   9.345  10.658 -0.8750 -1.5693  0.6445
  988MOL0     H36342   1.496   9.137  10.873 -3.8603  2.3114 -0.1231
  988MOL0     H36343   1.649   9.184  10.795  0.0912  1.8520 -1.9380
  988MOL0     H36344   1.617   9.219  10.962  1.2074  0.9369 -0.5017
  989MOL0     O36345   1.562  10.562   3.173  0.2679  0.1707  0.2423
  989MOL0     C36346   1.542  10.615   3.282  0.1336  0.3020  0.4623
  989MOL0     O36347   1.635  10.631   3.379 -0.3127  0.0391  0.1921
  989MOL0     C36348   1.765  10.608   3.352 -0.5888 -0.5298  0.2024
  989MOL0     C36349   1.830  10.512   3.419 -0.0076 -0.7752  0.2578
  989MOL0     C36350   1.964  10.480   3.402  0.3867  0.0459  0.1982
  989MOL0     C36351   2.039  10.541   3.300 -0.6396 -0.3963 -0.3707
  989MOL0     O36352   2.166  10.489   3.281 -0.0077 -0.9704  0.1486
  989MOL0     C36353   2.255  10.571   3.200  0.7521 -0.1451 -0.4783
  989MOL0     C36354   2.393  10.508   3.168 -0.4214  0.3298  0.5953
  989MOL0     C36355   2.373  10.384   3.077  0.0248 -0.0882 -0.0376
  989MOL0     C36356   2.509  10.324   3.060 -0.2529 -0.5836 -0.3139
  989MOL0     C36357   2.502  10.230   2.938  0.3855 -0.0910 -0.4130
  989MOL0     C36358   2.594  10.113   2.953  0.7264  0.0298 -0.0956
  989MOL0     C36359   2.562  10.000   2.858  1.0146 -0.5936 -0.0573
  989MOL0     C36360   2.663   9.887   2.878 -0.0500  0.2002 -0.0785
  989MOL0     N36361   2.801   9.919   2.849  0.4918  0.2311  0.2436
  989MOL0     C36362   2.867   9.974   2.740 -0.0889  1.0560  0.3011
  989MOL0     C36363   2.992   9.993   2.784 -0.4488 -0.0066  0.8457
  989MOL0     C36364   3.088  10.083   2.710  0.1060  0.1871 -0.5803
  989MOL0     C36365   3.220  10.002   2.664 -0.1270 -0.2698 -0.3207
  989MOL0     C36366   3.308  10.104   2.603  0.2584  0.5322  0.3891
  989MOL0     C36367   3.418  10.058   2.500  0.1701 -0.0504  0.8879
  989MOL0     O36368   3.496   9.970   2.568 -0.5348  0.4317 -1.1215
  989MOL0     C36369   3.598   9.916   2.501 -0.6721  0.5059 -0.2020
  989MOL0     C36370   3.669   9.813   2.565 -1.0012 -0.8391 -0.3544
  989MOL0     C36371   3.755   9.731   2.500 -1.1193 -0.1874 -0.0464
  989MOL0     C36372   3.797   9.610   2.571 -0.3763 -0.5417 -0.2505
  989MOL0     C36373   3.806   9.767   2.372 -0.6953 -0.3280 -0.7574
  989MOL0     C36374   3.912   9.695   2.295 -0.3929  0.2465 -0.0043
  989MOL0     O36375   3.926   9.731   2.171 -0.0193  0.0496 -0.0179
  989MOL0     C36376   4.039   9.681   2.113  0.6431  0.3347  0.1109
  989MOL0     C36377   4.031   9.585   2.002 -0.3130  0.1426 -0.2172
  989MOL0     C36378   4.157   9.545   1.938  0.1076  0.1738  0.1262
  989MOL0     C36379   4.276   9.616   1.965  0.3644  0.8043 -0.1704
  989MOL0     O36380   4.378   9.577   1.879 -0.0610  0.6258  0.8317
  989MOL0     C36381   4.508   9.558   1.934 -1.3995 -0.1041  0.2405
  989MOL0     C36382   4.620   9.549   1.825  1.0735 -0.3845  0.1783
  989MOL0     C36383   4.608   9.423   1.741  0.0312 -0.3047 -0.3788
  989MOL0     C36384   4.723   9.416   1.640 -0.2191  0.5167 -0.2401
  989MOL0     C36385   4.700   9.295   1.545 -0.0041 -0.4760 -0.8626
  989MOL0     C36386   4.805   9.276   1.446  0.2062  0.5628 -0.1207
  989MOL0     C36387   4.758   9.182   1.327 -0.7370  0.1437 -0.4724
  989MOL0     C36388   4.849   9.188   1.205  0.4926  0.2297 -0.5490
  989MOL0    Cl36389   4.909   9.350   1.157 -0.5940  0.4085  0.2240
  989MOL0     C36390   4.280   9.720   2.058 -0.3790  0.8005 -0.2304
  989MOL0     C36391   4.166   9.744   2.128  0.6238  0.0675 -1.0342
  989MOL0     O36392   3.978   9.607   2.351  0.2171  0.6001  0.7225
  989MOL0     C36393   3.750   9.885   2.312 -0.0077  0.5110  0.1278
  989MOL0     C36394   3.640   9.951   2.371  0.2608 -0.0318 -0.4779
  989MOL0     N36395   3.013   9.950   2.914  0.8512  0.4587 -0.9022
  989MOL0     N36396   2.893   9.903   2.948 -0.2733  0.2235  0.0069
  989MOL0     C36397   1.970  10.636   3.221  0.6908  0.7635 -0.8556
  989MOL0     C36398   1.836  10.672   3.252 -0.5241  0.5902  0.4891
  989MOL0     C36399   1.399  10.633   3.319 -0.2725 -1.0504 -0.9508
  989MOL0     C36400   1.302  10.671   3.220  0.3158 -0.2234  0.1366
  989MOL0     C36401   1.166  10.691   3.253 -0.5599 -0.7185 -0.1027
  989MOL0     C36402   1.118  10.657   3.384 -0.2819  0.3045 -0.4913
  989MOL0     O36403   0.989  10.655   3.428 -0.4790  0.7816  0.0103
  989MOL0     C36404   0.914  10.777   3.386  0.4086 -0.3804  0.1731
  989MOL0     C36405   0.764  10.760   3.426 -0.4441 -0.3215  0.0929
  989MOL0     C36406   0.741  10.785   3.578  0.1220  0.0116 -0.2453
  989MOL0     C36407   0.600  10.755   3.633 -0.0865  1.1991 -0.1663
  989MOL0     C36408   0.594  10.791   3.772 -0.6132 -0.4476 -0.2907
  989MOL0     C36409   0.595  10.829   3.888 -0.2489  0.9504  0.7270
  989MOL0     C36410   1.212  10.619   3.479 -0.3080 -0.7400  0.0364
  989MOL0     C36411   1.347  10.608   3.454 -0.1263 -0.4249 -0.4608
  989MOL0     C36412   1.422  10.554   3.571  0.0296  0.3545 -0.7577
  989MOL0     H36413   1.766  10.452   3.481  0.8397  1.7306  3.8776
  989MOL0     H36414   2.010  10.388   3.439  1.7826  1.3925  1.9970
  989MOL0     H36415   2.265  10.675   3.234 -1.5258  0.6530 -1.9800
  989MOL0     H36416   2.208  10.577   3.102 -1.5703  2.5039  0.6589
  989MOL0     H36417   2.451  10.578   3.107  0.0346 -1.8303 -1.5881
  989MOL0     H36418   2.442  10.478   3.261 -0.6121 -2.7661 -0.2175
  989MOL0     H36419   2.317  10.313   3.138  3.0125 -1.1221  1.6711
  989MOL0     H36420   2.323  10.403   2.982 -4.7135 -0.0870  2.1769
  989MOL0     H36421   2.579  10.403   3.029  1.1020 -0.7379  2.1194
  989MOL0     H36422   2.548  10.280   3.152  0.2235  1.0708  0.3157
  989MOL0     H36423   2.525  10.274   2.841 -0.3110 -2.5864 -1.8165
  989MOL0     H36424   2.409  10.172   2.936  1.1699 -1.4375 -2.7451
  989MOL0     H36425   2.691  10.158   2.928  0.5796  3.1078  3.8741
  989MOL0     H36426   2.594  10.069   3.053 -1.7484  3.5500  1.6838
  989MOL0     H36427   2.564  10.034   2.754  1.6818  0.9626  0.4342
  989MOL0     H36428   2.462   9.961   2.880  0.1728  1.6282  0.2953
  989MOL0     H36429   2.666   9.849   2.981 -0.1748 -2.6060 -1.0149
  989MOL0     H36430   2.622   9.807   2.815 -0.7051 -0.1385  0.7538
  989MOL0     H36431   2.825  10.008   2.646 -2.4223 -0.6453  0.6389
  989MOL0     H36432   3.120  10.154   2.786  1.8813 -0.9732 -0.1680
  989MOL0     H36433   3.034  10.130   2.627  0.1817 -2.9057 -2.5733
  989MOL0     H36434   3.279   9.956   2.744  0.6584  0.3274 -0.5481
  989MOL0     H36435   3.181   9.923   2.599 -1.9553  1.1416 -1.0276
  989MOL0     H36436   3.253  10.183   2.551  2.4288  1.0592 -1.2447
  989MOL0     H36437   3.370  10.154   2.679  1.6428  1.0767 -1.0360
  989MOL0     H36438   3.368  10.004   2.419  1.5729 -0.7328  0.4548
  989MOL0     H36439   3.485  10.132   2.456  0.2784 -2.0679 -2.6632
  989MOL0     H36440   3.638   9.789   2.667 -1.1820 -1.0447 -0.4572
  989MOL0     H36441   3.905   9.595   2.565 -0.4722 -1.2212 -0.4675
  989MOL0     H36442   3.731   9.529   2.536 -0.7405  0.5423 -2.2045
  989MOL0     H36443   3.780   9.618   2.679  1.3683 -1.7282  0.1661
  989MOL0     H36444   3.936   9.539   1.977 -1.3196  1.6051  0.7348
  989MOL0     H36445   4.129   9.468   1.867 -1.4885  1.4109 -0.6512
  989MOL0     H36446   4.538   9.639   2.001 -2.5107 -0.1186  0.7932
  989MOL0     H36447   4.508   9.467   1.995 -0.0886 -0.6824 -0.5778
  989MOL0     H36448   4.622   9.636   1.758 -0.4789 -1.2259 -1.0203
  989MOL0     H36449   4.719   9.539   1.872  1.4893  0.1409 -0.5538
  989MOL0     H36450   4.509   9.425   1.694 -0.1858 -0.8582  0.0396
  989MOL0     H36451   4.616   9.326   1.790 -3.7608 -2.0914 -2.7922
  989MOL0     H36452   4.819   9.406   1.692 -0.6867  0.6771  0.6635
  989MOL0     H36453   4.733   9.500   1.571  1.0334  2.1635  1.8173
  989MOL0     H36454   4.687   9.201   1.600  1.5117  0.1180  0.5656
  989MOL0     H36455   4.614   9.329   1.486  0.2307  2.5597  0.3613
  989MOL0     H36456   4.891   9.229   1.493 -2.3983 -3.3788  1.2163
  989MOL0     H36457   4.827   9.377   1.412 -0.2192  1.1069  1.1813
  989MOL0     H36458   4.663   9.222   1.289  0.1681  0.0475 -3.0468
  989MOL0     H36459   4.751   9.076   1.352  2.2864 -0.6847 -2.6220
  989MOL0     H36460   4.790   9.141   1.126 -1.7062  0.4608  0.8453
  989MOL0     H36461   4.942   9.134   1.225  0.0998 -0.4538 -0.5582
  989MOL0     H36462   4.378   9.756   2.085  1.0489 -3.3214  0.8851
  989MOL0     H36463   4.163   9.814   2.210  1.0126  0.4366 -1.3310
  989MOL0     H36464   3.773   9.930   2.216  0.2226  1.3064  0.5492
  989MOL0     H36465   3.580  10.022   2.316 -1.8129 -0.7810  0.6839
  989MOL0     H36466   2.014  10.666   3.127 -1.5299  0.0928 -2.2120
  989MOL0     H36467   1.769  10.726   3.186 -0.5818  1.0411  0.9150
  989MOL0     H36468   1.329  10.675   3.115 -0.8418 -1.6383 -0.2620
  989MOL0     H36469   1.095  10.699   3.172  2.4396  1.8073 -2.7894
  989MOL0     H36470   0.963  10.865   3.429  1.5506 -1.2749  0.7679
  989MOL0     H36471   0.914  10.802   3.280 -0.0046 -0.9530  0.0324
  989MOL0     H36472   0.744  10.657   3.394  0.2185  0.0748 -1.6803
  989MOL0     H36473   0.698  10.828   3.372 -1.2521 -1.0994  0.0836
  989MOL0     H36474   0.816  10.733   3.638  0.2306 -1.0755 -1.2715
  989MOL0     H36475   0.766  10.890   3.596 -2.6716  0.5919  0.7242
  989MOL0     H36476   0.583  10.647   3.629 -0.6186  1.1738  1.6395
  989MOL0     H36477   0.527  10.807   3.571  1.0479 -1.0290 -3.7105
  989MOL0     H36478   0.604  10.856   3.992 -0.7410 -2.4651  1.7995
  989MOL0     H36479   1.169  10.596   3.576  1.8408 -0.2633  1.1489
  989MOL0     H36480   1.515  10.604   3.601 -0.4026 -0.9897  3.2784
  989MOL0     H36481   1.363  10.567   3.662 -3.1031  2.4441 -2.8809
  989MOL0     H36482   1.436  10.446   3.566  0.9606  0.4523 -0.5161
  990MOL0     O36483   6.333  10.455   3.821  0.1385  0.5392 -0.1053
  990MOL0     C36484   6.296  10.570   3.814  0.1766 -0.9353  0.8082
  990MOL0     O36485   6.332  10.666   3.904  0.6804 -0.6827 -0.1320
  990MOL0     C36486   6.394  10.627   4.019 -0.0192  0.0354  0.2165
  990MOL0     C36487   6.517  10.674   4.058 -0.1864 -0.6045  0.2494
  990MOL0     C36488   6.567  10.646   4.177  0.2822  0.2508 -0.6967
  990MOL0     C36489   6.512  10.554   4.269 -0.7007 -0.2355  0.4851
  990MOL0     O36490   6.578  10.529   4.384 -0.8892 -0.2276  0.3130
  990MOL0     C36491   6.716  10.555   4.398  0.5357 -0.0838  0.0032
  990MOL0     C36492   6.800  10.475   4.289  0.3904 -0.1175  0.0051
  990MOL0     C36493   6.802  10.323   4.295  0.3271  0.4423  0.1268
  990MOL0     C36494   6.890  10.266   4.410 -0.2609 -0.5461 -0.6889
  990MOL0     C36495   6.852  10.121   4.432  0.0760 -0.2110 -0.6157
  990MOL0     C36496   6.907  10.038   4.313  0.2396 -0.2820 -1.0776
  990MOL0     C36497   6.850   9.898   4.318  0.5290 -0.8422  0.1952
  990MOL0     C36498   6.841   9.824   4.180 -0.5910  0.7113  0.0448
  990MOL0     N36499   6.967   9.776   4.141  0.7255  0.1519 -0.2381
  990MOL0     C36500   7.039   9.686   4.213  0.2128  0.5230  0.2851
  990MOL0     C36501   7.139   9.651   4.128 -0.1352  0.4793 -0.4496
  990MOL0     C36502   7.236   9.538   4.165 -0.2098  0.2342  0.3432
  990MOL0     C36503   7.367   9.594   4.222  0.3849  0.0817  0.6278
  990MOL0     C36504   7.463   9.483   4.262  0.3623  0.0844  0.0419
  990MOL0     C36505   7.598   9.535   4.315  0.1245  0.0878  0.1564
  990MOL0     O36506   7.575   9.631   4.423  0.2841 -1.1333  0.2089
  990MOL0     C36507   7.509   9.578   4.537 -0.2725  0.0848 -0.0085
  990MOL0     C36508   7.393   9.641   4.585 -0.1663  0.2517  0.4340
  990MOL0     C36509   7.323   9.608   4.705  0.5346 -0.1013  0.8188
  990MOL0     C36510   7.181   9.664   4.720 -1.1690 -0.4839  0.3872
  990MOL0     C36511   7.373   9.499   4.785  0.0186 -0.2379  0.2254
  990MOL0     C36512   7.300   9.433   4.893  0.3514  0.4902 -0.0129
  990MOL0     O36513   7.345   9.302   4.929 -0.5098  0.6873 -0.7120
  990MOL0     C36514   7.283   9.250   5.036  0.5108  0.2035 -0.6537
  990MOL0     C36515   7.196   9.143   5.010  0.1369 -0.1802 -0.5635
  990MOL0     C36516   7.110   9.093   5.108 -0.4570  1.1492 -0.3203
  990MOL0     C36517   7.133   9.137   5.245  1.6427  1.2073 -0.4028
  990MOL0     O36518   7.050   9.099   5.352 -0.2477 -0.5155  0.2301
  990MOL0     C36519   6.989   8.975   5.359 -0.0498 -0.7772  0.6323
  990MOL0     C36520   7.006   8.920   5.507  0.3591  0.6392  0.0708
  990MOL0     C36521   6.988   9.035   5.609  0.6879 -0.6873  0.0060
  990MOL0     C36522   6.845   9.098   5.615 -0.1055 -0.0603 -0.9016
  990MOL0     C36523   6.825   9.212   5.719  0.6875 -0.4104 -0.1664
  990MOL0     C36524   6.683   9.251   5.731  0.4051  0.0924  0.3499
  990MOL0     C36525   6.669   9.362   5.828  0.8165 -0.3153 -1.1742
  990MOL0     C36526   6.528   9.410   5.837  0.1092 -0.3610 -0.3259
  990MOL0    Cl36527   6.508   9.537   5.964  0.2544  0.4197  0.1422
  990MOL0     C36528   7.232   9.222   5.276 -1.0150  0.2135  0.5872
  990MOL0     C36529   7.313   9.275   5.171 -0.4209  0.4886 -0.5303
  990MOL0     O36530   7.205   9.495   4.949  0.0494 -0.1477 -0.2089
  990MOL0     C36531   7.488   9.438   4.728  0.6162  0.6925  0.1046
  990MOL0     C36532   7.557   9.474   4.611  0.1083  0.0555  0.7866
  990MOL0     N36533   7.125   9.702   4.003  0.1151 -0.3089 -0.4529
  990MOL0     N36534   7.024   9.784   4.009 -0.0667  0.5744 -0.5634
  990MOL0     C36535   6.397  10.495   4.227 -0.5771 -0.6760  0.0678
  990MOL0     C36536   6.331  10.539   4.106  0.6373  0.1970  0.4334
  990MOL0     C36537   6.213  10.624   3.696  0.9220  0.5264 -0.6199
  990MOL0     C36538   6.199  10.761   3.684 -0.2217 -0.1001 -0.3950
  990MOL0     C36539   6.117  10.826   3.585 -0.0649  0.3264  0.1502
  990MOL0     C36540   6.041  10.739   3.500 -0.1494 -1.0285  0.5972
  990MOL0     O36541   5.948  10.799   3.414 -0.0115  0.2095 -0.5652
  990MOL0     C36542   5.845  10.703   3.364 -0.2351 -0.3492 -0.1035
  990MOL0     C36543   5.710  10.774   3.339  0.2384 -0.1611 -0.0965
  990MOL0     C36544   5.725  10.925   3.306  0.4811  0.0743 -0.3446
  990MOL0     C36545   5.586  10.998   3.295 -0.0793  0.2219 -0.6514
  990MOL0     C36546   5.533  11.005   3.429 -0.9112  0.0581 -0.6441
  990MOL0     C36547   5.463  11.012   3.530 -0.1651 -0.4248 -0.4398
  990MOL0     C36548   6.066  10.604   3.516  1.4197  0.1829  0.0174
  990MOL0     C36549   6.148  10.538   3.608  0.1454 -0.6457 -0.4489
  990MOL0     C36550   6.160  10.390   3.605  0.4273  0.1793  0.5983
  990MOL0     H36551   6.558  10.747   3.988 -0.9878 -1.8490 -1.5918
  990MOL0     H36552   6.656  10.702   4.203 -0.2400  1.7498 -1.9531
  990MOL0     H36553   6.737  10.522   4.500  1.6234  0.6055  0.0196
  990MOL0     H36554   6.735  10.663   4.406 -1.2069  0.0797  3.3092
  990MOL0     H36555   6.769  10.506   4.189  0.9312 -0.4483 -0.2657
  990MOL0     H36556   6.903  10.504   4.310  0.4591 -0.0365 -0.4381
  990MOL0     H36557   6.699  10.290   4.310  0.1668  0.0029 -1.7194
  990MOL0     H36558   6.839  10.288   4.198  0.0290  0.4041  0.0257
  990MOL0     H36559   6.999  10.272   4.396 -0.0899  0.3564  0.7877
  990MOL0     H36560   6.874  10.322   4.503  0.2309 -1.5903  0.0573
  990MOL0     H36561   6.748  10.093   4.452  0.3458 -2.2791 -1.8547
  990MOL0     H36562   6.901  10.085   4.523  1.3847  0.3123 -1.0881
  990MOL0     H36563   6.886  10.096   4.222 -1.1670  3.2661  1.3018
  990MOL0     H36564   7.015  10.026   4.312  0.1811 -1.5118  1.2678
  990MOL0     H36565   6.749   9.910   4.357  0.4855  1.2217 -0.4413
  990MOL0     H36566   6.903   9.827   4.382  1.4369  0.1615  0.5785
  990MOL0     H36567   6.767   9.745   4.171  2.4553 -2.1371 -2.1942
  990MOL0     H36568   6.806   9.901   4.111  2.0945  4.2002  2.1935
  990MOL0     H36569   7.007   9.630   4.301 -1.1541  0.9786  0.1132
  990MOL0     H36570   7.268   9.479   4.078  0.7352  0.9981  0.1544
  990MOL0     H36571   7.192   9.479   4.245 -1.7473  1.9628  0.8365
  990MOL0     H36572   7.423   9.645   4.143 -1.2851  1.4909  0.3072
  990MOL0     H36573   7.350   9.659   4.308  1.0141  0.2728  0.6186
  990MOL0     H36574   7.417   9.413   4.333 -0.6287 -1.8134 -2.3157
  990MOL0     H36575   7.483   9.419   4.177 -2.7451 -0.9926 -0.0256
  990MOL0     H36576   7.669   9.454   4.335  2.5769  1.6746 -1.5956
  990MOL0     H36577   7.636   9.589   4.228  0.5956 -1.5873 -0.7312
  990MOL0     H36578   7.346   9.721   4.529  2.1407 -0.2260 -2.4289
  990MOL0     H36579   7.127   9.571   4.742  0.7004 -2.3775 -2.3875
  990MOL0     H36580   7.149   9.704   4.623 -1.5508 -4.2823 -1.2315
  990MOL0     H36581   7.185   9.748   4.789  3.6402  0.6478 -0.9178
  990MOL0     H36582   7.182   9.114   4.906  1.5453 -1.4805 -0.4347
  990MOL0     H36583   7.028   9.029   5.077 -1.2061  1.9360 -0.0246
  990MOL0     H36584   6.885   9.005   5.339  0.5435  0.2613 -1.1721
  990MOL0     H36585   7.015   8.896   5.287 -3.3322 -0.1299 -1.4984
  990MOL0     H36586   6.933   8.839   5.519  1.0280  0.0000 -0.1425
  990MOL0     H36587   7.096   8.860   5.527 -1.6793 -3.4038 -1.5599
  990MOL0     H36588   7.061   9.114   5.591  1.1120 -0.8613  0.8969
  990MOL0     H36589   7.013   9.004   5.711  2.8028  0.7614 -0.0006
  990MOL0     H36590   6.776   9.015   5.630  0.2151  0.1545  2.3218
  990MOL0     H36591   6.829   9.148   5.518  0.3342 -2.7694 -2.4776
  990MOL0     H36592   6.858   9.177   5.817 -0.0222 -3.4380 -0.8932
  990MOL0     H36593   6.894   9.292   5.691  0.8478 -0.8253 -1.0007
  990MOL0     H36594   6.630   9.168   5.779  0.9951 -1.5864 -1.7570
  990MOL0     H36595   6.633   9.273   5.637 -1.5258 -2.2310  0.7295
  990MOL0     H36596   6.741   9.441   5.802  1.4324 -1.3623 -2.8475
  990MOL0     H36597   6.692   9.325   5.928 -1.7231  0.1084 -0.3777
  990MOL0     H36598   6.457   9.329   5.856  1.2781 -0.8100  2.5925
  990MOL0     H36599   6.506   9.458   5.741  0.3477  1.2119  0.3813
  990MOL0     H36600   7.252   9.250   5.379 -1.9512  0.5965  0.6761
  990MOL0     H36601   7.387   9.351   5.197  1.1428 -0.8053 -1.0417
  990MOL0     H36602   7.519   9.342   4.769  1.9405  0.9509 -0.2628
  990MOL0     H36603   7.638   9.403   4.593 -0.4309 -0.9739  2.2401
  990MOL0     H36604   6.350  10.419   4.290  0.4847 -0.2149  1.4631
  990MOL0     H36605   6.239  10.492   4.075  1.3342 -1.7043  1.0972
  990MOL0     H36606   6.252  10.826   3.753  0.8256  0.0924 -1.3544
  990MOL0     H36607   6.107  10.934   3.579 -1.6195  0.3910  2.6159
  990MOL0     H36608   5.869  10.638   3.280 -0.6002 -1.3633  0.5634
  990MOL0     H36609   5.825  10.630   3.443  0.6294 -0.7027 -0.1976
  990MOL0     H36610   5.646  10.769   3.427 -0.7713  3.9309 -0.3793
  990MOL0     H36611   5.669  10.719   3.254  0.7245 -0.9648  0.1760
  990MOL0     H36612   5.788  10.978   3.377 -1.3546  1.1792  0.5267
  990MOL0     H36613   5.767  10.930   3.205 -0.3703  0.9736 -0.6718
  990MOL0     H36614   5.521  10.940   3.230 -1.5584 -0.3746  1.2649
  990MOL0     H36615   5.594  11.094   3.244  0.6034 -0.5046 -1.9831
  990MOL0     H36616   5.412  11.024   3.624  1.7844  0.3426  0.5621
  990MOL0     H36617   6.017  10.529   3.454  2.4282  0.6558 -1.4035
  990MOL0     H36618   6.132  10.351   3.704 -0.4710  1.1986  0.7587
  990MOL0     H36619   6.096  10.356   3.523 -0.5744  1.8649  0.6523
  990MOL0     H36620   6.262  10.362   3.575 -0.7977 -1.8199 -2.0949
  991MOL0     O36621  11.035   2.542   3.847  0.1371 -0.0362  0.5505
  991MOL0     C36622  11.133   2.475   3.889  0.0062  0.3403 -0.2834
  991MOL0     O36623  11.222   2.516   3.979 -0.0621 -0.8111  0.1839
  991MOL0     C36624  11.244   2.651   4.012 -0.0084  0.2229  0.0036
  991MOL0     C36625  11.136   2.753   4.005 -0.2381  0.2416  0.6935
  991MOL0     C36626  11.157   2.872   4.063  0.5341 -0.1510  0.2559
  991MOL0     C36627  11.270   2.901   4.139 -0.5417  0.5885  0.4683
  991MOL0     O36628  11.286   3.017   4.210  0.2061 -0.0207  0.8328
  991MOL0     C36629  11.304   3.008   4.353 -1.1710 -0.2911 -0.1942
  991MOL0     C36630  11.255   3.131   4.425 -0.1948 -0.0757  0.3268
  991MOL0     C36631  11.297   3.257   4.359 -0.3287 -1.1026 -0.6457
  991MOL0     C36632  11.271   3.378   4.442  0.1380  0.2844  0.7977
  991MOL0     C36633  11.283   3.506   4.361 -0.1095  0.4090 -0.5222
  991MOL0     C36634  11.213   3.622   4.441  0.0614 -0.3116  1.0027
  991MOL0     C36635  11.220   3.755   4.356 -0.6083  0.5294 -0.1599
  991MOL0     C36636  11.212   3.875   4.452  0.2446 -0.3848 -0.4338
  991MOL0     N36637  11.235   3.993   4.373  0.7549  0.2042 -0.1396
  991MOL0     C36638  11.135   4.066   4.303 -0.1911 -0.3196  0.3601
  991MOL0     C36639  11.206   4.174   4.260 -0.0402  0.5785 -0.3352
  991MOL0     C36640  11.132   4.289   4.200  0.0599  0.3144  0.6505
  991MOL0     C36641  11.182   4.427   4.254  0.2626  1.2377  0.6064
  991MOL0     C36642  11.155   4.550   4.167 -0.4174  0.2247  0.0367
  991MOL0     C36643  11.180   4.684   4.233  0.3176  0.3223  0.2983
  991MOL0     O36644  11.216   4.789   4.143  0.6686 -0.9288 -0.1594
  991MOL0     C36645  11.123   4.886   4.124 -0.6181 -0.6761 -0.8165
  991MOL0     C36646  11.170   5.006   4.068 -0.0231  0.8663 -0.0763
  991MOL0     C36647  11.098   5.123   4.055 -0.3700  0.3382 -1.2065
  991MOL0     C36648  11.172   5.236   3.990  0.1242 -0.2573  0.8264
  991MOL0     C36649  10.958   5.115   4.102 -0.7883  0.0144  0.5318
  991MOL0     C36650  10.862   5.228   4.084  0.1898 -0.0580 -0.4369
  991MOL0     O36651  10.722   5.198   4.060  0.3851 -0.0228  0.2495
  991MOL0     C36652  10.629   5.303   4.035 -0.2471  0.5935  0.2589
  991MOL0     C36653  10.493   5.281   4.063 -0.2675  0.5784 -0.7926
  991MOL0     C36654  10.396   5.379   4.052  0.5967  0.2801  0.7428
  991MOL0     C36655  10.417   5.500   3.980  0.1062 -0.4216  0.0387
  991MOL0     O36656  10.330   5.578   3.914  1.0419  1.0781 -0.2060
  991MOL0     C36657  10.198   5.588   3.979  0.0939 -0.9215 -0.5648
  991MOL0     C36658  10.102   5.635   3.874 -0.0617  0.2079  0.3197
  991MOL0     C36659  10.114   5.764   3.808  0.3367 -0.4880 -0.0119
  991MOL0     C36660  10.218   5.774   3.691  0.6274 -0.0669 -0.7792
  991MOL0     C36661  10.170   5.878   3.590  0.5890  0.9245 -0.9066
  991MOL0     C36662  10.298   5.919   3.519 -0.0242 -0.2651 -0.1169
  991MOL0     C36663  10.281   6.020   3.411  0.4433  0.0762  0.0006
  991MOL0     C36664  10.193   6.136   3.458 -0.0382  0.5780  0.9083
  991MOL0    Cl36665  10.188   6.247   3.333 -0.1825  0.1537  0.0722
  991MOL0     C36666  10.547   5.513   3.932 -0.4452  0.6980 -0.2706
  991MOL0     C36667  10.650   5.427   3.974 -0.5391 -0.1337  0.2965
  991MOL0     O36668  10.907   5.336   4.108 -0.4403 -0.8569 -1.0708
  991MOL0     C36669  10.912   4.994   4.149  0.5843 -0.0816  0.0043
  991MOL0     C36670  10.987   4.876   4.150 -0.1885  0.1833  0.4091
  991MOL0     N36671  11.335   4.161   4.305 -0.3983 -0.0446 -1.1147
  991MOL0     N36672  11.345   4.066   4.392  0.2290  0.7326  0.0741
  991MOL0     C36673  11.377   2.812   4.149 -0.5043  0.2592  0.2060
  991MOL0     C36674  11.364   2.690   4.083  0.2639  0.1745 -0.1718
  991MOL0     C36675  11.167   2.336   3.842  0.1580  0.9848 -1.3230
  991MOL0     C36676  11.300   2.292   3.865 -0.1247  0.8696 -0.6504
  991MOL0     C36677  11.329   2.162   3.833  0.6111  0.3279 -0.2888
  991MOL0     C36678  11.246   2.073   3.765  0.3729 -0.7519  0.2900
  991MOL0     O36679  11.297   1.954   3.709  0.5203 -0.2073 -0.9017
  991MOL0     C36680  11.237   1.889   3.598  0.2404  0.6726 -0.5544
  991MOL0     C36681  11.214   1.736   3.603  0.9617 -0.4317  0.1811
  991MOL0     C36682  11.351   1.663   3.619  0.1512 -0.3044  0.8346
  991MOL0     C36683  11.329   1.508   3.645 -0.3562 -0.5631 -0.4228
  991MOL0     C36684  11.251   1.452   3.538 -0.1489  0.3639  0.6636
  991MOL0     C36685  11.177   1.416   3.452 -0.6157  0.6835  1.0510
  991MOL0     C36686  11.117   2.118   3.738 -0.4908  0.3589 -0.3904
  991MOL0     C36687  11.078   2.248   3.779  1.0660  0.5745 -0.3568
  991MOL0     C36688  10.929   2.287   3.748 -0.4816  0.6807 -0.2766
  991MOL0     H36689  11.036   2.741   3.964  0.0901  0.1011 -0.0844
  991MOL0     H36690  11.089   2.956   4.049  0.4300 -0.4448 -1.2065
  991MOL0     H36691  11.413   3.000   4.359 -0.9780  1.9419  0.1098
  991MOL0     H36692  11.258   2.930   4.413  1.9874 -0.0385  2.8683
  991MOL0     H36693  11.146   3.120   4.428 -0.0199 -2.0206  2.7649
  991MOL0     H36694  11.289   3.131   4.529 -3.4892 -0.3189  1.5358
  991MOL0     H36695  11.404   3.258   4.335 -0.4322  0.2125 -1.1331
  991MOL0     H36696  11.243   3.264   4.264 -0.6519  0.9192 -0.3573
  991MOL0     H36697  11.173   3.367   4.491  0.1116  1.8664  1.1475
  991MOL0     H36698  11.341   3.390   4.526 -0.4142  2.8207  0.9851
  991MOL0     H36699  11.235   3.490   4.264  1.9523  0.9290 -1.6942
  991MOL0     H36700  11.389   3.524   4.339  0.1827  1.0714  1.2268
  991MOL0     H36701  11.111   3.591   4.466 -0.3240  1.5977  1.8985
  991MOL0     H36702  11.268   3.621   4.536 -0.3535  0.4156  1.2513
  991MOL0     H36703  11.153   3.766   4.271  1.1579  1.6122 -1.4689
  991MOL0     H36704  11.319   3.759   4.310 -0.6278 -0.5282 -0.3018
  991MOL0     H36705  11.111   3.882   4.493 -0.1514 -0.5278 -1.3590
  991MOL0     H36706  11.283   3.868   4.535  2.3528 -0.2310 -2.1360
  991MOL0     H36707  11.027   4.057   4.293 -0.6154  2.6664  1.2715
  991MOL0     H36708  11.028   4.279   4.233  0.9131 -2.6669  2.8609
  991MOL0     H36709  11.137   4.278   4.092 -0.3543  0.2782  0.6330
  991MOL0     H36710  11.156   4.452   4.357 -2.5254  1.9807 -0.2115
  991MOL0     H36711  11.291   4.416   4.244 -0.0253  0.0060 -2.2115
  991MOL0     H36712  11.222   4.552   4.081 -1.2058  0.8039 -0.5809
  991MOL0     H36713  11.049   4.548   4.139 -1.0990  1.3718  2.2633
  991MOL0     H36714  11.094   4.715   4.293 -1.5589  2.6286 -3.2712
  991MOL0     H36715  11.274   4.672   4.288  1.0496 -0.1569 -1.0086
  991MOL0     H36716  11.267   5.000   4.020  1.7150 -0.1318  3.3183
  991MOL0     H36717  11.101   5.271   3.914  2.7308  1.6210 -0.9030
  991MOL0     H36718  11.245   5.190   3.923 -0.5168 -0.5178  0.2903
  991MOL0     H36719  11.208   5.327   4.039  1.3665  0.0145 -0.5278
  991MOL0     H36720  10.458   5.187   4.105 -0.2964  0.3897 -1.2261
  991MOL0     H36721  10.296   5.344   4.074  0.1938 -0.3130 -1.7831
  991MOL0     H36722  10.163   5.496   4.025 -0.0352 -0.0550  1.1402
  991MOL0     H36723  10.213   5.673   4.047 -2.8709 -0.5128 -0.2926
  991MOL0     H36724  10.092   5.566   3.790 -2.6591  1.7237 -0.7693
  991MOL0     H36725  10.013   5.647   3.937  0.1179  3.2426  0.1763
  991MOL0     H36726  10.149   5.837   3.883  3.5599 -0.6285 -1.2260
  991MOL0     H36727  10.022   5.798   3.760  3.1611  2.3643 -4.1677
  991MOL0     H36728  10.222   5.673   3.647  1.5373 -0.2758 -0.2256
  991MOL0     H36729  10.315   5.791   3.738  0.4480 -1.6268  0.2312
  991MOL0     H36730  10.091   5.834   3.529  1.2417 -1.4052 -0.1683
  991MOL0     H36731  10.134   5.968   3.641 -1.2067  0.8077 -1.8896
  991MOL0     H36732  10.352   5.839   3.468 -0.5977  1.0024 -2.8987
  991MOL0     H36733  10.366   5.967   3.591 -1.2908 -0.8187  1.5223
  991MOL0     H36734  10.219   5.980   3.330 -2.5149  1.4613  1.4004
  991MOL0     H36735  10.380   6.042   3.371  0.9578 -1.1682  0.5293
  991MOL0     H36736  10.251   6.176   3.542  2.2901 -1.8376  0.5807
  991MOL0     H36737  10.096   6.100   3.495  0.3969 -0.7972  0.7772
  991MOL0     H36738  10.583   5.592   3.867  2.2775  0.4741  0.8319
  991MOL0     H36739  10.753   5.455   3.953 -0.4279  1.9676  3.0257
  991MOL0     H36740  10.807   4.992   4.178  0.0295  0.7465 -1.8123
  991MOL0     H36741  10.937   4.786   4.184  1.4630 -0.8200  0.2527
  991MOL0     H36742  11.458   2.828   4.219 -0.7080 -1.8366  0.9782
  991MOL0     H36743  11.441   2.619   4.111  0.5391  1.1644  1.8024
  991MOL0     H36744  11.361   2.357   3.926 -3.5678  1.4513  2.5388
  991MOL0     H36745  11.432   2.132   3.851  0.2163 -0.7754  0.2420
  991MOL0     H36746  11.137   1.926   3.572 -0.6890 -2.8510 -2.7949
  991MOL0     H36747  11.286   1.907   3.502  1.9225 -1.0256 -0.0899
  991MOL0     H36748  11.151   1.707   3.519  0.3729  0.6525  0.2302
  991MOL0     H36749  11.148   1.710   3.686 -0.8959  0.9641 -0.8045
  991MOL0     H36750  11.410   1.683   3.528 -0.7163 -2.4785 -0.2761
  991MOL0     H36751  11.410   1.690   3.707  2.1557 -1.2505 -0.1565
  991MOL0     H36752  11.283   1.500   3.743  1.2224 -2.1338  0.2366
  991MOL0     H36753  11.420   1.447   3.649  0.2255 -0.0269 -3.2303
  991MOL0     H36754  11.104   1.372   3.387  2.1052 -4.0243  0.7143
  991MOL0     H36755  11.047   2.042   3.702 -0.3745 -1.3373  2.6271
  991MOL0     H36756  10.883   2.348   3.827 -4.1073 -1.7079 -0.3064
  991MOL0     H36757  10.936   2.338   3.652  3.7037  1.5427  0.2850
  991MOL0     H36758  10.874   2.192   3.745  0.9005 -0.3277  2.5505
  992MOL0     O36759  10.978   5.921   3.247 -0.6043 -0.3196 -0.2733
  992MOL0     C36760  10.908   6.009   3.298 -0.5383  1.0441  0.1459
  992MOL0     O36761  10.776   6.026   3.271  0.0815 -0.4781  0.3500
  992MOL0     C36762  10.707   5.933   3.204 -0.6516 -0.1651  0.1944
  992MOL0     C36763  10.616   5.844   3.266  0.2221  0.4813  0.0451
  992MOL0     C36764  10.532   5.775   3.181 -0.0611 -0.9873  0.1694
  992MOL0     C36765  10.537   5.786   3.041 -0.1986  0.0096  0.0999
  992MOL0     O36766  10.438   5.713   2.988  0.6553  0.3681  0.1072
  992MOL0     C36767  10.437   5.718   2.845  0.7501  0.9901  0.4415
  992MOL0     C36768  10.321   5.642   2.780 -0.1112  0.0238  0.0638
  992MOL0     C36769  10.178   5.706   2.792  0.0076  0.1038  0.4277
  992MOL0     C36770  10.166   5.827   2.699  0.0170 -0.1747 -0.9690
  992MOL0     C36771  10.029   5.898   2.722 -0.3952  0.0818  0.0570
  992MOL0     C36772   9.911   5.812   2.674  1.1646 -0.1500 -0.0500
  992MOL0     C36773   9.777   5.887   2.700 -0.6599  0.1147 -0.0739
  992MOL0     C36774   9.673   5.766   2.730 -0.3629 -0.0618 -0.3220
  992MOL0     N36775   9.540   5.821   2.752  0.1130 -0.4263 -0.4106
  992MOL0     C36776   9.454   5.867   2.654 -0.1477 -0.1125 -0.6351
  992MOL0     C36777   9.342   5.895   2.720  0.4446  0.1725  0.3625
  992MOL0     C36778   9.223   5.947   2.654 -0.3007 -0.6821 -0.1268
  992MOL0     C36779   9.154   5.833   2.578  0.7760  0.4741  0.4141
  992MOL0     C36780   9.054   5.887   2.476  0.2604 -0.1072 -0.1662
  992MOL0     C36781   9.014   5.777   2.375 -0.3080  0.7370 -1.0326
  992MOL0     O36782   8.923   5.672   2.428 -0.3537  0.6484 -0.1716
  992MOL0     C36783   8.837   5.617   2.340  0.4802  0.6184 -0.4947
  992MOL0     C36784   8.800   5.489   2.367 -0.5464 -0.1057 -0.7256
  992MOL0     C36785   8.698   5.419   2.307 -0.0339  0.2107  1.4744
  992MOL0     C36786   8.659   5.280   2.360  0.0486  1.0803 -0.7443
  992MOL0     C36787   8.624   5.473   2.203 -0.0373  0.7293  0.1401
  992MOL0     C36788   8.511   5.407   2.131 -0.5229  0.0502 -0.2267
  992MOL0     O36789   8.459   5.288   2.166 -0.6305 -0.3739 -0.3665
  992MOL0     C36790   8.346   5.235   2.100 -0.5046  0.2795 -0.1031
  992MOL0     C36791   8.333   5.102   2.120  0.0597 -0.4956  0.4753
  992MOL0     C36792   8.220   5.036   2.072  0.6408  0.6070 -0.5005
  992MOL0     C36793   8.117   5.093   1.995 -0.3883  1.0499 -0.7490
  992MOL0     O36794   8.002   5.029   1.947  0.3128  0.0798  0.8798
  992MOL0     C36795   8.016   4.892   1.911 -1.3700  0.0746  0.3271
  992MOL0     C36796   7.907   4.828   1.817  0.1739 -0.3388  0.1048
  992MOL0     C36797   7.767   4.821   1.882 -0.3266 -0.5338 -0.5802
  992MOL0     C36798   7.697   4.689   1.852  0.5864 -0.1259 -0.6093
  992MOL0     C36799   7.584   4.664   1.958 -0.1468  0.9679 -0.2570
  992MOL0     C36800   7.471   4.769   1.951  0.5701 -0.4456 -0.0615
  992MOL0     C36801   7.447   4.835   2.085 -1.1851 -0.5722  0.3838
  992MOL0     C36802   7.375   4.752   2.188  0.3832  0.2969  0.3382
  992MOL0    Cl36803   7.388   4.853   2.333  0.0184  0.3993 -0.1360
  992MOL0     C36804   8.144   5.226   1.969  0.8508 -0.9830 -1.0284
  992MOL0     C36805   8.245   5.298   2.035  0.3079  0.3996 -0.3454
  992MOL0     O36806   8.474   5.471   2.032 -0.0336 -0.0132  0.4858
  992MOL0     C36807   8.658   5.612   2.175 -0.0390  0.8252 -0.0690
  992MOL0     C36808   8.758   5.680   2.244 -0.5656 -0.3822 -0.3840
  992MOL0     N36809   9.358   5.864   2.853  1.3299  0.1875 -0.0458
  992MOL0     N36810   9.475   5.828   2.877 -0.0160  0.6574  0.8170
  992MOL0     C36811  10.630   5.867   2.978  0.0902 -0.9387 -0.7381
  992MOL0     C36812  10.720   5.938   3.065 -0.8483  0.6590  0.2320
  992MOL0     C36813  10.958   6.075   3.424 -0.2515 -0.5832 -0.6685
  992MOL0     C36814  11.090   6.071   3.456  0.3067  0.5075 -0.0476
  992MOL0     C36815  11.155   6.134   3.564 -0.1555 -0.3866 -0.5240
  992MOL0     C36816  11.073   6.187   3.665 -0.6370 -0.1313 -0.9672
  992MOL0     O36817  11.136   6.223   3.783  0.6044 -0.3960 -0.2839
  992MOL0     C36818  11.192   6.357   3.780 -0.2816  0.5046 -0.0974
  992MOL0     C36819  11.226   6.411   3.919 -0.1298 -0.8339 -0.2753
  992MOL0     C36820  11.246   6.559   3.908  0.8471 -0.8931  0.1939
  992MOL0     C36821  11.327   6.614   4.020  0.1761 -0.3902  0.1758
  992MOL0     C36822  11.249   6.614   4.144  1.5101 -0.5024  0.5300
  992MOL0     C36823  11.183   6.623   4.248 -0.7804 -0.4673  0.7174
  992MOL0     C36824  10.941   6.188   3.644 -0.4742 -0.7687  0.0848
  992MOL0     C36825  10.876   6.139   3.528 -0.8362  0.5811 -0.4591
  992MOL0     C36826  10.728   6.164   3.529  0.1368  0.3181  1.1045
  992MOL0     H36827  10.620   5.847   3.374  1.7731  1.4852  0.0031
  992MOL0     H36828  10.469   5.703   3.232  0.6123 -1.0689  0.9051
  992MOL0     H36829  10.532   5.675   2.811  0.2965  0.6482 -0.4231
  992MOL0     H36830  10.428   5.821   2.812 -1.0875  1.7651  3.0748
  992MOL0     H36831  10.356   5.647   2.676  2.2263  2.9767  0.8249
  992MOL0     H36832  10.311   5.540   2.819 -0.4618 -0.1766 -0.5413
  992MOL0     H36833  10.112   5.619   2.783 -0.0418  0.0307  1.3158
  992MOL0     H36834  10.165   5.738   2.896  2.1994 -1.7679  1.3664
  992MOL0     H36835  10.246   5.899   2.719 -1.9494  1.9009 -0.0899
  992MOL0     H36836  10.176   5.796   2.595  2.3910  1.8269 -1.4149
  992MOL0     H36837  10.030   5.996   2.673 -0.4727  0.6140  1.0859
  992MOL0     H36838  10.024   5.922   2.829 -0.4353  0.2542  0.0160
  992MOL0     H36839   9.914   5.793   2.567  0.0307  1.6523 -0.4444
  992MOL0     H36840   9.925   5.718   2.728  1.6871  1.1446  2.2268
  992MOL0     H36841   9.754   5.947   2.611  0.2705  1.9444  0.8681
  992MOL0     H36842   9.779   5.946   2.792  1.0726 -2.5019  1.6874
  992MOL0     H36843   9.673   5.682   2.659 -0.0784  0.4447 -0.9325
  992MOL0     H36844   9.716   5.724   2.821  0.1791  1.5535  0.2016
  992MOL0     H36845   9.462   5.848   2.548 -1.5498 -0.7543 -0.6363
  992MOL0     H36846   9.254   6.028   2.588  0.3264  1.1972  2.3124
  992MOL0     H36847   9.156   5.991   2.729 -0.3168 -0.3572 -0.3298
  992MOL0     H36848   9.229   5.779   2.519 -2.3592 -1.5549 -2.0876
  992MOL0     H36849   9.098   5.762   2.639  0.0562  1.1576  0.5570
  992MOL0     H36850   8.961   5.923   2.522 -0.4202 -2.3998  0.3573
  992MOL0     H36851   9.088   5.977   2.423 -0.8508  0.6505  0.3527
  992MOL0     H36852   8.961   5.824   2.291 -0.5515 -1.7888 -2.4013
  992MOL0     H36853   9.099   5.716   2.343 -1.3508 -1.0583 -0.5405
  992MOL0     H36854   8.846   5.445   2.455 -3.3032 -2.5850 -0.4081
  992MOL0     H36855   8.555   5.268   2.391  1.2036 -3.0075  2.5447
  992MOL0     H36856   8.710   5.254   2.454 -1.1830  2.0615  0.2288
  992MOL0     H36857   8.685   5.205   2.286 -0.5915  0.2173 -0.1184
  992MOL0     H36858   8.403   5.059   2.190 -0.8786 -0.0719  1.6975
  992MOL0     H36859   8.219   4.928   2.087  0.1772  0.6291 -0.3610
  992MOL0     H36860   8.110   4.868   1.860 -2.4740 -5.5873  0.3155
  992MOL0     H36861   8.021   4.838   2.005  4.7651 -0.6479 -0.0182
  992MOL0     H36862   7.898   4.890   1.728 -1.6324 -0.6510  0.0407
  992MOL0     H36863   7.942   4.731   1.779  0.3072  0.4035 -1.7617
  992MOL0     H36864   7.698   4.898   1.845 -0.4873 -0.0987  0.5646
  992MOL0     H36865   7.782   4.817   1.990  4.2588  0.7450 -0.9716
  992MOL0     H36866   7.775   4.613   1.855 -1.4596 -2.3351 -0.9945
  992MOL0     H36867   7.652   4.703   1.753  1.0823  1.0911 -0.6809
  992MOL0     H36868   7.548   4.565   1.929  0.4815  0.7908 -0.4519
  992MOL0     H36869   7.628   4.668   2.058 -1.0030  0.0037  0.1669
  992MOL0     H36870   7.380   4.716   1.920  1.0664 -1.0455 -0.5030
  992MOL0     H36871   7.483   4.852   1.881 -1.3400  2.4762  2.7457
  992MOL0     H36872   7.392   4.926   2.061 -0.6162 -0.0052  1.1853
  992MOL0     H36873   7.539   4.860   2.138  0.7788 -0.2887 -2.8667
  992MOL0     H36874   7.417   4.653   2.208 -2.0905 -0.5932  1.6369
  992MOL0     H36875   7.269   4.740   2.164  0.0228  0.1791  1.8549
  992MOL0     H36876   8.072   5.283   1.910  2.0016 -0.4241 -1.9134
  992MOL0     H36877   8.229   5.402   2.009 -2.5257 -0.4085 -2.3158
  992MOL0     H36878   8.601   5.657   2.094 -3.5100 -1.0044  1.1269
  992MOL0     H36879   8.774   5.780   2.204  0.3244 -0.0075  0.8615
  992MOL0     H36880  10.644   5.885   2.871  2.3480 -0.2110 -0.3862
  992MOL0     H36881  10.794   6.010   3.029  1.3204 -1.4175  0.2669
  992MOL0     H36882  11.168   6.018   3.403  0.7160  0.7757  0.2737
  992MOL0     H36883  11.260   6.125   3.587 -0.3119  0.8624  0.8661
  992MOL0     H36884  11.277   6.369   3.712  0.9016  1.1302  1.4308
  992MOL0     H36885  11.112   6.419   3.740 -1.5665 -2.4513 -2.5559
  992MOL0     H36886  11.307   6.356   3.967  0.8150 -0.9357 -1.9290
  992MOL0     H36887  11.152   6.387   3.996  0.8076  2.7387  2.0217
  992MOL0     H36888  11.309   6.587   3.823 -0.6782 -0.0209 -0.6944
  992MOL0     H36889  11.151   6.613   3.904 -0.4462 -3.0190  0.7969
  992MOL0     H36890  11.368   6.714   3.999 -3.7670  1.8027  1.8724
  992MOL0     H36891  11.419   6.559   4.040  1.1694  0.3374 -2.0029
  992MOL0     H36892  11.129   6.626   4.340  0.9475 -3.7960  1.9796
  992MOL0     H36893  10.888   6.244   3.720  0.6850  1.0731 -0.3773
  992MOL0     H36894  10.673   6.188   3.437 -0.2242 -3.9123  0.0171
  992MOL0     H36895  10.665   6.083   3.568 -0.5846  1.3361  2.1285
  992MOL0     H36896  10.721   6.254   3.591 -0.6897  0.2849  1.0802
  993MOL0     O36897   8.003   1.139   3.033 -0.7468 -0.1340 -0.0720
  993MOL0     C36898   7.954   1.067   3.121 -0.2677 -0.0993  0.5413
  993MOL0     O36899   7.982   1.077   3.252  0.1549 -1.0101 -0.3634
  993MOL0     C36900   8.063   1.166   3.320  0.5755 -0.3080 -0.9217
  993MOL0     C36901   8.175   1.232   3.273 -0.1965  0.6178  0.1092
  993MOL0     C36902   8.242   1.329   3.360 -1.0158  0.6010 -0.0168
  993MOL0     C36903   8.219   1.339   3.495  0.9487  0.6050 -0.0238
  993MOL0     O36904   8.294   1.429   3.565  0.3252 -0.0766 -0.1559
  993MOL0     C36905   8.296   1.426   3.713 -0.3353  0.2105  0.6281
  993MOL0     C36906   8.425   1.471   3.761  0.3486  0.6827 -0.7070
  993MOL0     C36907   8.544   1.393   3.710 -0.1386 -1.0864  0.1899
  993MOL0     C36908   8.673   1.427   3.788  0.7158 -0.4334 -0.1197
  993MOL0     C36909   8.801   1.371   3.716  0.5242  0.0369 -0.9490
  993MOL0     C36910   8.893   1.361   3.839  0.1155 -0.3933  0.1073
  993MOL0     C36911   9.016   1.276   3.818  0.0614 -0.2776  0.2677
  993MOL0     C36912   9.122   1.299   3.931  0.1810 -1.1344  0.1662
  993MOL0     N36913   9.214   1.185   3.955  0.1809  0.4430  0.3518
  993MOL0     C36914   9.208   1.063   4.015  0.0989 -0.1578  0.1730
  993MOL0     C36915   9.326   0.998   3.979  1.0223 -0.6599 -0.2074
  993MOL0     C36916   9.367   0.862   4.035 -0.2240 -0.2230 -0.2708
  993MOL0     C36917   9.391   0.766   3.924  0.1907  0.2795  0.4796
  993MOL0     C36918   9.270   0.748   3.827 -0.0301 -0.0407 -0.6003
  993MOL0     C36919   9.279   0.631   3.732  0.1447  0.6102  0.0853
  993MOL0     O36920   9.159   0.651   3.657 -0.0547 -0.0921  0.1422
  993MOL0     C36921   9.124   0.563   3.559  0.2798 -0.2696  0.2844
  993MOL0     C36922   9.174   0.437   3.549 -0.3668  0.0153 -0.6796
  993MOL0     C36923   9.120   0.330   3.474  1.4008 -0.1302 -0.3735
  993MOL0     C36924   9.212   0.205   3.480  0.9146 -0.2570 -0.0822
  993MOL0     C36925   9.020   0.359   3.376  0.9398  0.6074  0.0647
  993MOL0     C36926   8.994   0.257   3.270  0.8474 -0.0136 -1.0001
  993MOL0     O36927   9.098   0.208   3.212 -0.0907 -0.0026  0.2384
  993MOL0     C36928   9.081   0.130   3.102 -0.0861  0.6119  0.2568
  993MOL0     C36929   9.085  -0.008   3.120 -0.2629 -0.0956  0.0473
  993MOL0     C36930   9.089  -0.096   3.011  0.7553  0.0242  0.3518
  993MOL0     C36931   9.109  -0.048   2.886  0.0998  0.0673  1.3663
  993MOL0     O36932   9.104  -0.130   2.774  0.2590 -0.3170  0.5347
  993MOL0     C36933   9.205  -0.228   2.784  0.2526 -0.2380  0.2491
  993MOL0     C36934   9.192  -0.309   2.659  0.0346  0.0015 -0.1935
  993MOL0     C36935   9.320  -0.365   2.607  0.4097 -0.0536  0.4944
  993MOL0     C36936   9.308  -0.496   2.529  0.3147  0.9307  0.3185
  993MOL0     C36937   9.446  -0.539   2.482  0.5733  0.7401  0.2800
  993MOL0     C36938   9.444  -0.675   2.401  1.0092 -0.1804  0.3367
  993MOL0     C36939   9.412  -0.806   2.475  0.0514 -0.7283  0.0905
  993MOL0     C36940   9.439  -0.936   2.403 -0.1966 -0.1649 -0.3897
  993MOL0    Cl36941   9.324  -0.957   2.279 -0.5881  0.5413  0.2575
  993MOL0     C36942   9.114   0.087   2.861 -0.2752  0.3702 -0.2867
  993MOL0     C36943   9.108   0.176   2.969  0.2653 -0.7525 -0.1757
  993MOL0     O36944   8.876   0.252   3.233  0.0523 -0.5492 -0.0388
  993MOL0     C36945   8.953   0.477   3.394  0.0308  0.9782  0.5845
  993MOL0     C36946   9.000   0.576   3.480  0.2189 -0.7318  1.0579
  993MOL0     N36947   9.400   1.081   3.904 -0.2570 -0.3820 -0.2501
  993MOL0     N36948   9.333   1.190   3.878 -0.3713 -0.2323 -0.2019
  993MOL0     C36949   8.106   1.272   3.548  0.4096  0.2398 -0.1340
  993MOL0     C36950   8.030   1.200   3.458  0.3692 -0.0702  0.2264
  993MOL0     C36951   7.860   0.950   3.081 -0.6974 -0.7636  0.4607
  993MOL0     C36952   7.812   0.866   3.185  0.0443  0.2392  0.5474
  993MOL0     C36953   7.724   0.757   3.162  0.7633  0.5073 -0.4778
  993MOL0     C36954   7.669   0.742   3.032  0.1375 -0.5457  0.8096
  993MOL0     O36955   7.574   0.635   3.026  0.3517 -0.6278 -0.9077
  993MOL0     C36956   7.531   0.602   2.891  0.4003 -0.0011  0.1341
  993MOL0     C36957   7.394   0.658   2.870 -0.2562  0.0861  0.0168
  993MOL0     C36958   7.368   0.691   2.722 -0.0352 -1.0532  0.1707
  993MOL0     C36959   7.227   0.765   2.704 -0.3195  0.1090 -0.4928
  993MOL0     C36960   7.119   0.668   2.692  1.8156  0.5032 -0.3192
  993MOL0     C36961   7.025   0.586   2.689  0.1152 -0.4306 -0.5699
  993MOL0     C36962   7.706   0.834   2.928 -0.3679  0.1481  0.0288
  993MOL0     C36963   7.798   0.933   2.957 -0.1458 -1.1667  0.1658
  993MOL0     C36964   7.836   1.019   2.837 -0.0609 -0.9707  0.3550
  993MOL0     H36965   8.207   1.217   3.170 -1.3980 -1.5384 -0.0055
  993MOL0     H36966   8.316   1.394   3.314 -1.8020  1.4087 -0.1670
  993MOL0     H36967   8.280   1.322   3.742 -1.6206  0.1927 -0.0912
  993MOL0     H36968   8.212   1.480   3.757 -1.5793 -0.6437 -0.6087
  993MOL0     H36969   8.447   1.574   3.734  1.2771  0.5966 -0.3208
  993MOL0     H36970   8.423   1.462   3.870  0.3559 -0.5353 -0.7961
  993MOL0     H36971   8.536   1.284   3.711  2.6714 -1.3762  1.4991
  993MOL0     H36972   8.547   1.423   3.605 -2.2048 -0.5190  0.2450
  993MOL0     H36973   8.672   1.537   3.793 -2.4609 -0.3947  0.3724
  993MOL0     H36974   8.671   1.400   3.894  0.6440 -2.5939 -0.6320
  993MOL0     H36975   8.848   1.431   3.637 -3.2548  0.8315 -2.8003
  993MOL0     H36976   8.782   1.267   3.688 -0.2680  0.1632 -0.8919
  993MOL0     H36977   8.926   1.464   3.854  1.6299 -0.5753 -1.5415
  993MOL0     H36978   8.846   1.323   3.930  1.7553 -2.7042  0.0774
  993MOL0     H36979   9.070   1.304   3.727 -3.7689  0.6056 -2.0088
  993MOL0     H36980   8.991   1.170   3.819 -0.4776 -0.2045  3.5214
  993MOL0     H36981   9.175   1.389   3.900 -0.9585 -0.7180 -0.6394
  993MOL0     H36982   9.066   1.318   4.023 -0.2112 -4.1645  0.6756
  993MOL0     H36983   9.138   1.023   4.088  0.3617  0.8077  0.9813
  993MOL0     H36984   9.300   0.811   4.105  1.5790  1.2368  2.7500
  993MOL0     H36985   9.466   0.876   4.080 -0.3464  0.7354 -0.2804
  993MOL0     H36986   9.485   0.782   3.869 -0.9675 -0.3027 -1.7815
  993MOL0     H36987   9.403   0.666   3.967 -3.3889 -1.1265 -1.3591
  993MOL0     H36988   9.187   0.726   3.894 -0.6029  2.3829 -0.4534
  993MOL0     H36989   9.240   0.836   3.770  0.2212  1.9032  2.1271
  993MOL0     H36990   9.365   0.646   3.666 -0.3525  2.6095 -0.1641
  993MOL0     H36991   9.278   0.532   3.777 -0.2311 -0.0358 -1.2891
  993MOL0     H36992   9.266   0.408   3.598  0.5717  2.8728 -0.5909
  993MOL0     H36993   9.152   0.119   3.448 -0.4043  1.0740 -1.3655
  993MOL0     H36994   9.246   0.194   3.583 -2.2587 -0.0698  1.0831
  993MOL0     H36995   9.297   0.205   3.411 -0.9325  0.3930 -2.5164
  993MOL0     H36996   9.077  -0.056   3.217 -0.1228 -2.5030 -1.0516
  993MOL0     H36997   9.084  -0.204   3.022 -1.0960  0.0524  0.1289
  993MOL0     H36998   9.296  -0.168   2.773 -1.6723  2.6629 -1.3659
  993MOL0     H36999   9.208  -0.293   2.872 -0.3769  0.7503  1.0180
  993MOL0     H37000   9.123  -0.392   2.676 -0.1427 -0.1977 -1.7796
  993MOL0     H37001   9.143  -0.251   2.580 -1.0248 -1.8638 -0.9507
  993MOL0     H37002   9.398  -0.379   2.682  1.6889  0.7792 -0.6312
  993MOL0     H37003   9.360  -0.287   2.541 -0.7637 -0.0574 -0.2558
  993MOL0     H37004   9.243  -0.496   2.441  0.9271  1.9019 -0.1606
  993MOL0     H37005   9.268  -0.561   2.607 -4.0214  2.6208 -0.1828
  993MOL0     H37006   9.496  -0.461   2.425  0.6038  0.2726 -0.3415
  993MOL0     H37007   9.517  -0.548   2.564  2.3630 -1.8270 -1.4093
  993MOL0     H37008   9.547  -0.694   2.370  2.1401  0.9107  3.1326
  993MOL0     H37009   9.384  -0.672   2.310 -0.6234 -0.6251  1.3559
  993MOL0     H37010   9.306  -0.797   2.501 -0.7280 -3.0327 -1.8804
  993MOL0     H37011   9.465  -0.810   2.570  0.6883 -0.2091 -0.2389
  993MOL0     H37012   9.404  -1.007   2.479  2.5864 -0.3182  0.8692
  993MOL0     H37013   9.542  -0.947   2.370  1.8022  0.6507  4.7147
  993MOL0     H37014   9.125   0.115   2.756  0.6417 -0.1027 -0.3261
  993MOL0     H37015   9.119   0.284   2.959  0.1766 -0.4273  2.3925
  993MOL0     H37016   8.869   0.493   3.327  0.3340 -1.4739 -0.4861
  993MOL0     H37017   8.932   0.660   3.490 -1.7749 -2.3994  2.3725
  993MOL0     H37018   8.078   1.268   3.653  2.6759  1.2733  0.5746
  993MOL0     H37019   7.946   1.139   3.489  0.2754  0.7269  1.5908
  993MOL0     H37020   7.854   0.886   3.283 -1.5759  2.2897  0.8712
  993MOL0     H37021   7.711   0.681   3.238 -0.6509  0.3666 -0.8336
  993MOL0     H37022   7.599   0.632   2.811  1.8886  0.1871  1.4296
  993MOL0     H37023   7.529   0.492   2.885 -0.2393  0.0307 -0.4802
  993MOL0     H37024   7.386   0.752   2.925 -0.6927 -0.6033  1.1710
  993MOL0     H37025   7.327   0.587   2.919  2.2792 -0.2789  3.3405
  993MOL0     H37026   7.452   0.747   2.679 -1.1554  0.5603 -0.0309
  993MOL0     H37027   7.370   0.597   2.666  0.3853  0.3123 -2.3035
  993MOL0     H37028   7.225   0.828   2.615 -2.3741  3.4942  1.7087
  993MOL0     H37029   7.213   0.836   2.787 -0.2725 -0.9589  0.4474
  993MOL0     H37030   6.935   0.527   2.688 -1.2543  1.5705 -0.4232
  993MOL0     H37031   7.662   0.831   2.830  1.3084  0.0326 -0.7608
  993MOL0     H37032   7.945   1.009   2.833  0.1444  0.1782  2.0490
  993MOL0     H37033   7.813   0.969   2.742  2.8807 -4.0967  1.1068
  993MOL0     H37034   7.808   1.125   2.844  2.1003 -0.3686  0.6883
  994MOL0     O37035  10.223   9.091   9.230 -0.3159 -0.0989  0.5549
  994MOL0     C37036  10.328   9.125   9.293  0.4279  1.0921  0.6214
  994MOL0     O37037  10.337   9.241   9.361  0.5642 -0.6079  0.0056
  994MOL0     C37038  10.230   9.332   9.350  1.0551 -0.2174 -0.0765
  994MOL0     C37039  10.108   9.319   9.403  0.4950  0.3831  0.8885
  994MOL0     C37040  10.010   9.423   9.401 -0.4626 -0.4689  0.4844
  994MOL0     C37041  10.045   9.554   9.353 -0.4521  0.5242  0.5692
  994MOL0     O37042   9.960   9.662   9.333  0.1970 -0.3613 -0.5359
  994MOL0     C37043   9.846   9.654   9.421  0.1782 -0.3436  0.1080
  994MOL0     C37044   9.767   9.793   9.413 -0.1767  0.1995  0.5274
  994MOL0     C37045   9.854   9.902   9.468  0.0713 -0.2584 -0.0651
  994MOL0     C37046   9.783  10.028   9.455  0.5650 -0.0116  0.3040
  994MOL0     C37047   9.875  10.145   9.430 -0.6929  0.4338  0.5212
  994MOL0     C37048   9.798  10.246   9.340 -0.2334 -0.6000 -0.6314
  994MOL0     C37049   9.895  10.357   9.311 -0.0311 -0.6411  0.4823
  994MOL0     C37050   9.993  10.348   9.198 -0.3238 -0.2576 -0.1100
  994MOL0     N37051  10.099  10.458   9.203  0.6209 -1.0791  0.0440
  994MOL0     C37052  10.140  10.537   9.092  0.3132  0.2486 -0.2237
  994MOL0     C37053  10.237  10.614   9.138 -0.0908 -1.5281 -0.1437
  994MOL0     C37054  10.307  10.720   9.050  0.5510 -0.2717  0.5461
  994MOL0     C37055  10.437  10.759   9.113  0.0928 -0.0442  0.8522
  994MOL0     C37056  10.534  10.837   9.022  0.1266 -0.0136 -0.8298
  994MOL0     C37057  10.671  10.863   9.083 -0.0689  0.9737 -0.6202
  994MOL0     O37058  10.761  10.927   8.994 -0.1571  1.0412 -0.8111
  994MOL0     C37059  10.895  10.930   9.016  0.0948 -0.5583  0.2345
  994MOL0     C37060  10.947  10.958   9.141  0.6909 -0.2636 -0.3026
  994MOL0     C37061  11.085  10.990   9.159 -0.7402  0.3824 -0.7882
  994MOL0     C37062  11.119  11.047   9.294  0.0987 -0.1210  0.5608
  994MOL0     C37063  11.181  10.973   9.057  0.5244  0.2735 -0.2759
  994MOL0     C37064  11.331  10.975   9.078  0.7225 -0.9670  1.2177
  994MOL0     O37065  11.396  10.982   8.957 -0.5635 -0.1896  0.0406
  994MOL0     C37066  11.532  10.987   8.954 -1.0885 -0.7525 -0.0904
  994MOL0     C37067  11.598  10.895   8.878  0.6470  0.1455 -0.2000
  994MOL0     C37068  11.737  10.901   8.872  0.6958  0.6003  0.1388
  994MOL0     C37069  11.804  11.001   8.927  0.1578 -0.8900 -0.3512
  994MOL0     O37070  11.941  10.995   8.907  0.4104 -0.5399 -0.0112
  994MOL0     C37071  12.008  11.123   8.887 -0.8562  0.0632 -1.0378
  994MOL0     C37072  12.156  11.099   8.856  0.2197 -0.6201  0.5801
  994MOL0     C37073  12.237  11.113   8.987  0.6103 -0.0362 -0.1003
  994MOL0     C37074  12.391  11.121   8.976  0.3599 -0.6926 -0.2696
  994MOL0     C37075  12.450  11.033   8.872 -0.1746 -0.3134  0.8151
  994MOL0     C37076  12.598  11.006   8.893  0.6355 -0.8631  0.3482
  994MOL0     C37077  12.649  10.915   8.771  0.1908 -0.2797 -0.3454
  994MOL0     C37078  12.786  10.860   8.819 -0.2134 -0.2565 -0.0692
  994MOL0    Cl37079  12.844  10.743   8.706  0.4372  0.1379  0.1108
  994MOL0     C37080  11.739  11.103   9.001  0.0918  0.8072  0.4757
  994MOL0     C37081  11.603  11.094   9.005  0.0388  0.3193  0.0328
  994MOL0     O37082  11.386  10.953   9.185 -0.2211  0.2466  0.0024
  994MOL0     C37083  11.119  10.938   8.934 -0.7256 -0.2459  0.8538
  994MOL0     C37084  10.984  10.914   8.914  0.4840 -1.2724 -0.2097
  994MOL0     N37085  10.260  10.597   9.272 -0.4557 -0.2822  0.0936
  994MOL0     N37086  10.171  10.511   9.306 -0.5529  0.6245  0.1582
  994MOL0     C37087  10.175   9.572   9.317 -0.0502  0.0403  0.0882
  994MOL0     C37088  10.271   9.461   9.306  0.5155 -0.4137  1.4780
  994MOL0     C37089  10.440   9.033   9.277 -0.0513  0.4843  0.0512
  994MOL0     C37090  10.567   9.084   9.317  0.3994  0.3058  0.3765
  994MOL0     C37091  10.683   9.007   9.307 -0.6642  1.0298 -0.1500
  994MOL0     C37092  10.675   8.884   9.244 -0.7919 -0.3988 -0.4237
  994MOL0     O37093  10.785   8.804   9.220  0.2788 -0.5085  0.1879
  994MOL0     C37094  10.920   8.856   9.227  0.0888 -0.1366 -0.3068
  994MOL0     C37095  11.030   8.755   9.243  0.4346  0.1723  0.3646
  994MOL0     C37096  11.161   8.830   9.248 -0.2110 -0.0937  0.2317
  994MOL0     C37097  11.262   8.722   9.266 -0.5206 -0.6464  0.4528
  994MOL0     C37098  11.389   8.787   9.283  0.4960  0.9921  0.8704
  994MOL0     C37099  11.499   8.837   9.303 -0.7077 -0.0069 -0.3714
  994MOL0     C37100  10.555   8.838   9.217  0.5030  0.2919 -0.5027
  994MOL0     C37101  10.432   8.902   9.226 -0.3379 -0.5717  0.5425
  994MOL0     C37102  10.309   8.833   9.184  0.7605 -0.4932  0.0919
  994MOL0     H37103  10.083   9.216   9.428  1.7844 -0.2395 -0.2495
  994MOL0     H37104   9.910   9.417   9.440 -1.1498 -2.6799 -1.3990
  994MOL0     H37105   9.864   9.632   9.526 -1.4981 -0.3553  0.4246
  994MOL0     H37106   9.780   9.571   9.395  0.0572 -0.9750  2.2788
  994MOL0     H37107   9.748   9.808   9.306  0.3785 -5.1758 -0.6264
  994MOL0     H37108   9.673   9.796   9.468  0.4815  1.2510  1.6405
  994MOL0     H37109   9.881   9.879   9.571  1.3206  1.4685  0.0286
  994MOL0     H37110   9.946   9.902   9.409 -1.1021  1.8414 -2.0493
  994MOL0     H37111   9.696  10.012   9.390 -0.7706 -3.1449  2.6313
  994MOL0     H37112   9.738  10.055   9.550 -1.0444 -0.3010 -0.3541
  994MOL0     H37113   9.964  10.113   9.374 -1.0718  0.2265  0.0276
  994MOL0     H37114   9.920  10.186   9.520  0.9652 -1.3907  0.5810
  994MOL0     H37115   9.750  10.199   9.254  0.3814 -2.5638  0.0401
  994MOL0     H37116   9.719  10.281   9.407  0.6893 -2.7173  1.7080
  994MOL0     H37117   9.961  10.371   9.397 -0.5386  0.9858  0.6426
  994MOL0     H37118   9.832  10.447   9.311 -0.4278 -0.8772  2.2902
  994MOL0     H37119  10.050  10.255   9.194 -1.2494 -0.8390 -4.3520
  994MOL0     H37120   9.934  10.353   9.106  0.3498 -1.6077 -0.6508
  994MOL0     H37121  10.089  10.531   8.996 -0.1472 -0.9292  0.0700
  994MOL0     H37122  10.256  10.816   9.040  2.0947  0.8453  2.5816
  994MOL0     H37123  10.314  10.671   8.952  1.8479  0.2303  0.3706
  994MOL0     H37124  10.413  10.834   9.190  0.6175  1.7156 -0.6265
  994MOL0     H37125  10.491  10.674   9.155  2.1716 -0.4565 -2.3238
  994MOL0     H37126  10.541  10.774   8.933 -0.1379 -0.8552 -0.2735
  994MOL0     H37127  10.483  10.929   8.992  1.7455  0.7289 -1.4262
  994MOL0     H37128  10.668  10.907   9.183 -2.0100  1.2896 -0.7763
  994MOL0     H37129  10.701  10.758   9.090 -1.6590  0.4512 -1.0236
  994MOL0     H37130  10.881  10.967   9.226  0.9824 -1.1487  0.0238
  994MOL0     H37131  11.096  11.153   9.285  1.7047  0.5746  3.5117
  994MOL0     H37132  11.223  11.039   9.329  0.4624 -2.4363 -0.8101
  994MOL0     H37133  11.055  10.997   9.366 -0.4239 -0.5243 -0.1706
  994MOL0     H37134  11.542  10.819   8.823 -1.8631  1.9809 -0.3437
  994MOL0     H37135  11.787  10.825   8.813  3.1832  3.1483 -1.3234
  994MOL0     H37136  11.963  11.169   8.798 -2.7176 -0.9353 -0.6587
  994MOL0     H37137  11.992  11.185   8.976 -0.9730 -1.2466 -0.1187
  994MOL0     H37138  12.177  11.008   8.800 -2.2623  0.7793 -3.0362
  994MOL0     H37139  12.182  11.182   8.790 -0.7062 -0.8964 -0.1588
  994MOL0     H37140  12.223  11.033   9.060  0.5661  0.8169  0.8574
  994MOL0     H37141  12.217  11.208   9.037  1.4648  0.0365  0.1228
  994MOL0     H37142  12.430  11.092   9.073 -0.8066 -0.1552  0.3797
  994MOL0     H37143  12.429  11.223   8.970  1.5664 -1.1572 -0.9485
  994MOL0     H37144  12.395  10.940   8.887 -3.6869  1.5136  0.4980
  994MOL0     H37145  12.427  11.072   8.773 -1.8313  0.6037  1.5188
  994MOL0     H37146  12.617  10.954   8.988 -0.2514 -3.1974 -0.6701
  994MOL0     H37147  12.647  11.103   8.880 -2.3658  0.9750  1.6378
  994MOL0     H37148  12.658  10.965   8.674  0.8939  0.0579 -0.1073
  994MOL0     H37149  12.583  10.828   8.768  0.0072 -0.2784  2.0063
  994MOL0     H37150  12.783  10.805   8.914  0.0542 -0.7382 -0.3336
  994MOL0     H37151  12.855  10.945   8.826  1.0474 -1.1607 -1.0403
  994MOL0     H37152  11.787  11.177   9.065 -0.2542  1.1343  0.3620
  994MOL0     H37153  11.545  11.169   9.058 -1.8218 -1.2186  0.2847
  994MOL0     H37154  11.181  10.936   8.844 -3.2581  2.3806 -1.1472
  994MOL0     H37155  10.958  10.893   8.811 -1.5347  0.3230 -0.0767
  994MOL0     H37156  10.213   9.672   9.302 -0.6839 -0.1112 -3.3372
  994MOL0     H37157  10.370   9.485   9.269 -0.3290  1.6637  0.4064
  994MOL0     H37158  10.577   9.179   9.368 -1.2599  0.8457 -0.2272
  994MOL0     H37159  10.777   9.044   9.347 -0.4329 -0.7977  1.0931
  994MOL0     H37160  10.941   8.925   9.146 -0.0342 -0.3831 -0.5502
  994MOL0     H37161  10.929   8.903   9.325  0.7632 -1.6264  0.3807
  994MOL0     H37162  11.026   8.681   9.162  1.9382 -1.1045  1.4021
  994MOL0     H37163  10.997   8.703   9.334  0.1652  1.7819  1.2291
  994MOL0     H37164  11.160   8.890   9.157  0.9227 -1.5037 -0.7625
  994MOL0     H37165  11.161   8.895   9.336  0.7368  0.0093  0.1695
  994MOL0     H37166  11.268   8.660   9.176  0.1342  0.9584 -0.6579
  994MOL0     H37167  11.243   8.662   9.355  0.7380 -1.3564  0.2721
  994MOL0     H37168  11.585   8.899   9.322 -1.6959  1.8086 -1.4410
  994MOL0     H37169  10.547   8.735   9.185 -2.9592 -0.5557  2.5383
  994MOL0     H37170  10.229   8.829   9.259  0.3274  1.9264 -0.1606
  994MOL0     H37171  10.269   8.885   9.096  2.8013  0.3134 -0.4001
  994MOL0     H37172  10.337   8.732   9.152  4.3637  1.3544 -3.4598
  995MOL0     O37173   2.769   1.230  10.473 -0.8307  0.3295  0.1098
  995MOL0     C37174   2.779   1.351  10.504 -0.6067 -0.5223 -0.4878
  995MOL0     O37175   2.719   1.406  10.616 -0.0478 -0.1579  0.8113
  995MOL0     C37176   2.730   1.330  10.726 -0.6878 -0.1760 -0.6610
  995MOL0     C37177   2.620   1.261  10.775 -0.6413  0.4312  0.2432
  995MOL0     C37178   2.626   1.170  10.881  0.3511  0.3877  0.2462
  995MOL0     C37179   2.746   1.161  10.953  0.2742 -1.2028 -0.2615
  995MOL0     O37180   2.765   1.094  11.069  0.2790  0.3874 -0.1099
  995MOL0     C37181   2.650   1.034  11.135  0.3223  0.0889  0.4625
  995MOL0     C37182   2.663   1.010  11.278  0.9927  0.4267  0.7565
  995MOL0     C37183   2.676   1.137  11.354 -0.4022 -0.0040 -0.2150
  995MOL0     C37184   2.681   1.112  11.504 -0.5557 -0.0615  0.2231
  995MOL0     C37185   2.736   1.242  11.584 -0.2609  0.5535  0.0197
  995MOL0     C37186   2.789   1.202  11.719  0.1643 -0.1430 -0.7862
  995MOL0     C37187   2.841   1.314  11.812 -0.1978  0.0124 -0.9420
  995MOL0     C37188   2.860   1.265  11.954 -1.0216 -0.5674  0.1065
  995MOL0     N37189   2.966   1.178  11.971 -0.7299 -0.3861  0.2506
  995MOL0     C37190   2.975   1.071  12.057  0.4188  0.2282  0.1485
  995MOL0     C37191   3.097   1.026  12.054  1.6118 -0.5683  0.4655
  995MOL0     C37192   3.143   0.915  12.144  0.8910 -0.2141 -0.0571
  995MOL0     C37193   3.122   0.770  12.081 -1.0420  0.1296  0.6855
  995MOL0     C37194   3.264   0.711  12.041 -0.0775  0.2150  0.1873
  995MOL0     C37195   3.253   0.563  12.002  0.2825  0.4060 -0.5049
  995MOL0     O37196   3.188   0.482  12.104  0.2848  0.6116 -0.4246
  995MOL0     C37197   3.250   0.376  12.175 -0.1764 -0.5044 -0.2265
  995MOL0     C37198   3.379   0.330  12.149 -0.3341 -0.2019 -0.0600
  995MOL0     C37199   3.446   0.240  12.244  0.2739 -0.1144  0.9583
  995MOL0     C37200   3.590   0.203  12.210  0.1936  0.4174  0.0316
  995MOL0     C37201   3.365   0.179  12.349 -0.2256  0.2823  0.1271
  995MOL0     C37202   3.422   0.072  12.440  0.0979  0.0540 -0.5460
  995MOL0     O37203   3.347   0.033  12.541 -0.1108 -0.7741  0.7112
  995MOL0     C37204   3.396  -0.048  12.640  0.4074 -0.4093  0.5076
  995MOL0     C37205   3.441  -0.177  12.612 -0.0146  0.8028 -0.5339
  995MOL0     C37206   3.475  -0.275  12.710 -0.5460 -0.2551 -0.0707
  995MOL0     C37207   3.457  -0.242  12.841  0.2905 -0.2808  0.7069
  995MOL0     O37208   3.456  -0.334  12.942  0.4100 -0.7652  0.6523
  995MOL0     C37209   3.539  -0.450  12.934  0.5063 -0.7131  0.7276
  995MOL0     C37210   3.532  -0.524  13.069 -0.7389 -0.2137  0.3573
  995MOL0     C37211   3.639  -0.638  13.083  0.5368 -0.3031 -0.7428
  995MOL0     C37212   3.778  -0.585  13.076 -0.4452 -0.1237  0.4030
  995MOL0     C37213   3.883  -0.693  13.063 -0.8829  0.9587 -0.2873
  995MOL0     C37214   4.023  -0.635  13.065 -1.0060 -0.5350 -0.3673
  995MOL0     C37215   4.135  -0.744  13.080  0.1772  0.3642  0.6242
  995MOL0     C37216   4.274  -0.694  13.069 -0.3936 -0.0469 -0.0028
  995MOL0    Cl37217   4.395  -0.818  13.101 -0.4095 -0.5110  0.2359
  995MOL0     C37218   3.402  -0.115  12.872  0.1277  0.9024 -1.3924
  995MOL0     C37219   3.371  -0.015  12.778  0.7895  1.1591  0.3048
  995MOL0     O37220   3.534   0.020  12.418 -0.1057 -0.3437 -0.6505
  995MOL0     C37221   3.228   0.219  12.361 -0.2200 -0.4787  0.2288
  995MOL0     C37222   3.178   0.315  12.271 -0.1979 -0.1013 -0.2546
  995MOL0     N37223   3.162   1.095  11.955 -0.6152 -0.2359 -0.0444
  995MOL0     N37224   3.086   1.184  11.906  0.4016 -1.1094  0.6704
  995MOL0     C37225   2.865   1.223  10.895 -0.0685  1.0893  0.1472
  995MOL0     C37226   2.857   1.319  10.789  0.6393  0.2998  0.1969
  995MOL0     C37227   2.815   1.438  10.389 -0.6607 -0.1413  0.9079
  995MOL0     C37228   2.761   1.569  10.383  0.1374  0.2125  0.0278
  995MOL0     C37229   2.779   1.649  10.266  0.1817 -0.0604 -0.6733
  995MOL0     C37230   2.866   1.608  10.168  0.3238 -1.1206 -0.0987
  995MOL0     O37231   2.894   1.691  10.054  0.1750  0.2649 -0.4326
  995MOL0     C37232   2.911   1.830  10.074  0.8380 -0.0487 -0.1145
  995MOL0     C37233   3.066   1.864  10.085  0.2126 -1.0119 -0.1135
  995MOL0     C37234   3.147   1.847   9.951 -0.4379  0.6394 -0.0733
  995MOL0     C37235   3.088   1.925   9.830  0.3131 -0.4820  0.8880
  995MOL0     C37236   3.160   2.057   9.799  0.2984  0.2507 -1.2257
  995MOL0     C37237   3.229   2.157   9.782 -0.1514  0.3574 -0.1656
  995MOL0     C37238   2.929   1.488  10.176  0.0527  1.1008  0.1970
  995MOL0     C37239   2.907   1.403  10.288  0.5498  1.3982  1.4079
  995MOL0     C37240   2.993   1.270  10.279 -0.5753 -0.0791  0.1177
  995MOL0     H37241   2.524   1.298  10.739 -1.1332  0.7937  1.8349
  995MOL0     H37242   2.537   1.111  10.900  1.3687 -0.7600  1.6224
  995MOL0     H37243   2.622   0.940  11.088 -3.6461  1.2359  0.1379
  995MOL0     H37244   2.564   1.100  11.123  0.5513  0.0174 -2.0492
  995MOL0     H37245   2.579   0.951  11.316  2.6365 -2.2121  0.4756
  995MOL0     H37246   2.750   0.945  11.289  1.0108  0.7862  3.8766
  995MOL0     H37247   2.763   1.191  11.314 -1.6715  0.2219 -2.9704
  995MOL0     H37248   2.586   1.199  11.345 -1.2648 -0.8797  1.8366
  995MOL0     H37249   2.578   1.093  11.534 -1.4069  0.4083 -2.2096
  995MOL0     H37250   2.744   1.023  11.518  1.1544  0.8286 -1.3654
  995MOL0     H37251   2.652   1.308  11.605 -0.2511 -0.1212  2.5676
  995MOL0     H37252   2.817   1.292  11.531  0.3144  0.6568  0.9601
  995MOL0     H37253   2.701   1.165  11.774  1.3172 -2.2857 -0.2787
  995MOL0     H37254   2.869   1.132  11.696 -0.9301 -1.6561 -0.1547
  995MOL0     H37255   2.767   1.395  11.809 -1.8560 -1.4022  0.3160
  995MOL0     H37256   2.938   1.352  11.777  0.0354  1.6187  1.2519
  995MOL0     H37257   2.879   1.352  12.017 -0.7411 -2.2078  2.4055
  995MOL0     H37258   2.768   1.226  11.998 -1.8277 -1.4148 -2.1670
  995MOL0     H37259   2.902   1.041  12.132 -1.6952  1.4405 -1.3219
  995MOL0     H37260   3.086   0.928  12.237 -0.0597  1.6259 -0.8366
  995MOL0     H37261   3.247   0.928  12.174  1.0971 -1.5730 -0.1290
  995MOL0     H37262   3.071   0.720  12.164 -0.1589  2.3606  2.7005
  995MOL0     H37263   3.055   0.772  11.995  4.0692 -0.5893 -3.8176
  995MOL0     H37264   3.309   0.767  11.959 -0.1232  2.0410  1.3440
  995MOL0     H37265   3.327   0.709  12.130  0.9045 -2.2516 -0.5020
  995MOL0     H37266   3.182   0.552  11.920 -0.2456 -4.8711  0.2962
  995MOL0     H37267   3.351   0.523  11.974  0.1157  0.1727 -0.7534
  995MOL0     H37268   3.438   0.378  12.071 -0.1144 -0.5082 -0.0859
  995MOL0     H37269   3.640   0.247  12.296  0.3858  2.9089 -1.2676
  995MOL0     H37270   3.633   0.249  12.120  0.1448  1.2525  0.4292
  995MOL0     H37271   3.592   0.094  12.211 -3.1924  0.1987 -1.4438
  995MOL0     H37272   3.447  -0.204  12.507 -2.7120 -0.0287 -0.5493
  995MOL0     H37273   3.504  -0.368  12.662  0.2981  0.8738 -1.8870
  995MOL0     H37274   3.506  -0.510  12.849 -2.3198 -0.8074  1.8093
  995MOL0     H37275   3.636  -0.407  12.905  0.9472 -2.0341  0.1220
  995MOL0     H37276   3.559  -0.455  13.149  0.4379 -3.5803  3.1469
  995MOL0     H37277   3.432  -0.566  13.085 -0.6263 -2.6945 -3.9594
  995MOL0     H37278   3.623  -0.707  13.000  3.0629  0.0947 -1.6437
  995MOL0     H37279   3.633  -0.696  13.175  0.2801 -0.8658 -1.1109
  995MOL0     H37280   3.792  -0.520  13.162  2.5339  0.6465 -0.5567
  995MOL0     H37281   3.789  -0.530  12.982 -1.0118 -0.6977 -0.0085
  995MOL0     H37282   3.866  -0.767  13.142  0.5985  0.4754 -0.3925
  995MOL0     H37283   3.870  -0.738  12.965 -3.1984  2.1552 -0.6004
  995MOL0     H37284   4.040  -0.570  13.152  0.7541  0.3796 -1.3540
  995MOL0     H37285   4.045  -0.573  12.978  2.5908  0.5492  1.1179
  995MOL0     H37286   4.116  -0.813  12.997 -2.6682 -0.3742  1.7655
  995MOL0     H37287   4.117  -0.792  13.177 -2.1739  1.8772  1.0226
  995MOL0     H37288   4.288  -0.605  13.131 -0.5406  0.9606 -1.3638
  995MOL0     H37289   4.292  -0.647  12.972  2.0457  0.5410  0.6574
  995MOL0     H37290   3.380  -0.094  12.976 -2.6290 -1.2016 -1.4362
  995MOL0     H37291   3.331   0.082  12.806 -1.0037  0.5408  0.0177
  995MOL0     H37292   3.171   0.174  12.441 -2.1719  2.3135  0.5303
  995MOL0     H37293   3.081   0.364  12.282  1.2248  2.2374  4.4466
  995MOL0     H37294   2.963   1.198  10.935 -0.5496  0.7159  1.0950
  995MOL0     H37295   2.935   1.375  10.738  0.7034 -2.0082 -2.4678
  995MOL0     H37296   2.678   1.609  10.441 -0.7067 -0.5600 -0.6186
  995MOL0     H37297   2.724   1.742  10.266  1.4213  0.7909  2.2547
  995MOL0     H37298   2.865   1.898  10.001  1.2218 -2.0169 -2.3247
  995MOL0     H37299   2.860   1.863  10.164  0.0461 -1.9113  0.1684
  995MOL0     H37300   3.111   1.793  10.155 -0.8359 -2.2021 -0.5987
  995MOL0     H37301   3.092   1.967  10.110  1.1038 -0.2478 -3.7027
  995MOL0     H37302   3.246   1.893   9.963  0.4759 -0.9594 -1.0502
  995MOL0     H37303   3.151   1.740   9.932 -0.4818  0.7968 -1.0388
  995MOL0     H37304   2.985   1.959   9.844  0.5399  0.3630  0.5882
  995MOL0     H37305   3.093   1.861   9.741 -1.4020  2.0353 -1.1852
  995MOL0     H37306   3.284   2.248   9.771 -1.3850  1.1394 -0.1477
  995MOL0     H37307   3.001   1.456  10.101 -0.8504 -2.9191  0.7892
  995MOL0     H37308   3.077   1.270  10.210 -0.0911 -3.8321  0.5189
  995MOL0     H37309   3.032   1.251  10.379  2.0416  0.4189 -0.7297
  995MOL0     H37310   2.922   1.189  10.259 -0.6055 -0.3235  1.1418
  996MOL0     O37311   0.499   3.486   6.263  0.0508  0.0063  0.1302
  996MOL0     C37312   0.574   3.433   6.340  0.3092 -0.7608 -0.0432
  996MOL0     O37313   0.579   3.459   6.477  0.1822 -0.8477 -0.4641
  996MOL0     C37314   0.473   3.535   6.523  0.3227 -0.0960  0.1156
  996MOL0     C37315   0.505   3.671   6.542  0.0210  1.0191 -0.6556
  996MOL0     C37316   0.404   3.753   6.592  1.3321 -1.0624 -0.2144
  996MOL0     C37317   0.272   3.713   6.606  0.0945  0.5432  0.1616
  996MOL0     O37318   0.173   3.785   6.654 -0.4967 -0.5830  0.1208
  996MOL0     C37319   0.152   3.923   6.617 -0.3193 -0.3913  0.0253
  996MOL0     C37320   0.033   3.988   6.668 -0.0622  0.2152  0.3796
  996MOL0     C37321   0.016   3.971   6.822 -0.9069 -0.0343  0.2631
  996MOL0     C37322  -0.074   4.079   6.878  0.2596 -1.0989  0.2331
  996MOL0     C37323  -0.081   4.087   7.028 -0.7164  0.4139  0.0593
  996MOL0     C37324  -0.181   3.993   7.095 -0.6877  0.3318  0.2013
  996MOL0     C37325  -0.331   4.042   7.085 -0.6276  0.0749  0.2008
  996MOL0     C37326  -0.381   4.133   7.193  0.8116  0.2728 -0.0591
  996MOL0     N37327  -0.526   4.156   7.185 -0.1070 -1.0544  0.1877
  996MOL0     C37328  -0.624   4.084   7.255  0.8181  0.1856  0.5179
  996MOL0     C37329  -0.741   4.145   7.215 -0.2902 -0.1124  0.0508
  996MOL0     C37330  -0.880   4.108   7.273 -0.1737 -0.4932  0.6411
  996MOL0     C37331  -0.957   4.239   7.288  0.3242  0.4850 -0.1068
  996MOL0     C37332  -1.086   4.215   7.373 -0.2918 -0.2772  0.0240
  996MOL0     C37333  -1.167   4.335   7.380 -0.0015 -0.3206  0.7571
  996MOL0     O37334  -1.245   4.328   7.495  0.3857  0.4327 -0.1717
  996MOL0     C37335  -1.359   4.250   7.508  0.8412 -0.5634  0.5927
  996MOL0     C37336  -1.433   4.195   7.404 -0.0175 -0.1467 -0.6896
  996MOL0     C37337  -1.555   4.122   7.429 -1.0690  0.3952 -1.4878
  996MOL0     C37338  -1.626   4.068   7.304  0.2833 -0.1679 -0.3344
  996MOL0     C37339  -1.605   4.106   7.563 -0.6226 -0.5280  0.3719
  996MOL0     C37340  -1.739   4.051   7.595  0.4803 -0.4527 -0.4543
  996MOL0     O37341  -1.770   4.037   7.724 -0.3728 -0.1239  0.3466
  996MOL0     C37342  -1.894   3.995   7.770 -0.4364  0.3391 -0.2099
  996MOL0     C37343  -2.018   4.034   7.715 -0.0842  0.4529  0.0954
  996MOL0     C37344  -2.132   3.996   7.784 -0.0962  0.5253  0.0464
  996MOL0     C37345  -2.129   3.914   7.891  0.2168  0.3574 -0.5782
  996MOL0     O37346  -2.250   3.871   7.934  0.2535  0.2339  0.4018
  996MOL0     C37347  -2.337   3.970   7.989  0.8138 -0.0664  0.5329
  996MOL0     C37348  -2.390   3.924   8.125  1.0034  0.8809 -0.0985
  996MOL0     C37349  -2.515   3.835   8.091  0.3195  0.0825 -0.1048
  996MOL0     C37350  -2.587   3.793   8.222 -0.0874  0.6178 -0.4964
  996MOL0     C37351  -2.696   3.686   8.196 -0.0544  0.2025 -0.4359
  996MOL0     C37352  -2.780   3.667   8.320 -0.0953  1.0528 -0.2330
  996MOL0     C37353  -2.893   3.571   8.289 -1.0259  0.7641 -0.7478
  996MOL0     C37354  -2.986   3.574   8.406 -0.2172 -0.3182 -0.1648
  996MOL0    Cl37355  -3.096   3.715   8.411  0.1327 -0.6456 -0.4875
  996MOL0     C37356  -2.004   3.869   7.937 -1.1053 -0.3966  1.0515
  996MOL0     C37357  -1.890   3.907   7.872 -0.5229 -0.2539  0.3775
  996MOL0     O37358  -1.810   4.007   7.508 -0.5776  0.3391 -0.1135
  996MOL0     C37359  -1.524   4.167   7.666 -0.1125 -0.5633 -0.7312
  996MOL0     C37360  -1.405   4.231   7.639  1.0970 -0.2139  0.7359
  996MOL0     N37361  -0.707   4.252   7.131 -0.1679 -0.2641 -0.7887
  996MOL0     N37362  -0.578   4.261   7.115  0.8426 -0.1585 -0.5597
  996MOL0     C37363   0.248   3.576   6.578 -0.1315 -0.6308  0.8366
  996MOL0     C37364   0.347   3.485   6.539  0.2036 -0.2746 -0.6815
  996MOL0     C37365   0.679   3.336   6.288 -0.8063  0.2763 -0.4485
  996MOL0     C37366   0.638   3.249   6.183 -0.7495 -0.2787  0.0747
  996MOL0     C37367   0.716   3.139   6.143  0.0202  0.4067 -0.2065
  996MOL0     C37368   0.842   3.129   6.188 -0.3025 -0.3653  0.5412
  996MOL0     O37369   0.940   3.048   6.131 -0.1267  0.1628 -0.4052
  996MOL0     C37370   0.901   2.943   6.043 -0.2238  0.0317  0.5967
  996MOL0     C37371   1.003   2.828   6.016  0.3176  0.0939  0.6587
  996MOL0     C37372   0.986   2.764   5.879  0.4371  0.1387 -0.2957
  996MOL0     C37373   0.889   2.638   5.879 -0.4104 -0.3502 -0.6343
  996MOL0     C37374   0.820   2.618   5.750 -1.1993 -0.5901  0.6273
  996MOL0     C37375   0.763   2.597   5.640  0.2275 -0.9115  0.0505
  996MOL0     C37376   0.892   3.225   6.283  0.8440  0.9677  0.8273
  996MOL0     C37377   0.813   3.330   6.328  0.4728  0.2444 -0.3895
  996MOL0     C37378   0.882   3.433   6.420 -0.0874 -0.2921 -0.1717
  996MOL0     H37379   0.607   3.705   6.533  0.1553  0.3774 -1.7490
  996MOL0     H37380   0.447   3.851   6.612 -1.7087  0.0279  1.7338
  996MOL0     H37381   0.145   3.924   6.508  2.8071  1.6488 -0.2927
  996MOL0     H37382   0.238   3.987   6.640 -1.4138  0.6553  1.3039
  996MOL0     H37383   0.032   4.092   6.632  0.5865  0.3577  0.7538
  996MOL0     H37384  -0.052   3.933   6.626 -0.6177 -0.4290  2.2549
  996MOL0     H37385  -0.023   3.878   6.864  1.6670  0.1802  3.5351
  996MOL0     H37386   0.115   3.999   6.861 -1.0441  3.0717 -1.3033
  996MOL0     H37387  -0.028   4.171   6.842 -2.6016  1.3617  2.3918
  996MOL0     H37388  -0.174   4.067   6.834  0.2427 -3.1155  0.7097
  996MOL0     H37389  -0.102   4.188   7.065 -1.3783 -0.7258  3.0819
  996MOL0     H37390   0.017   4.067   7.073 -1.9980 -0.5355  2.5782
  996MOL0     H37391  -0.173   3.890   7.058 -2.9946 -0.7113  2.2742
  996MOL0     H37392  -0.157   3.996   7.202 -1.0376  3.5434  0.3071
  996MOL0     H37393  -0.389   3.949   7.092 -1.0200  0.2999 -0.0051
  996MOL0     H37394  -0.339   4.091   6.987  2.3176  0.6487  0.1796
  996MOL0     H37395  -0.350   4.075   7.280  1.1313 -2.4073 -1.8434
  996MOL0     H37396  -0.322   4.225   7.188  2.4311 -0.7818 -1.2809
  996MOL0     H37397  -0.629   3.997   7.320 -2.2810 -1.0971 -1.1988
  996MOL0     H37398  -0.858   4.058   7.368 -1.7488 -0.5322  1.0237
  996MOL0     H37399  -0.943   4.042   7.212 -0.1282  1.4509 -1.6909
  996MOL0     H37400  -0.896   4.322   7.325  3.2183 -1.0676 -1.1245
  996MOL0     H37401  -0.980   4.271   7.186 -2.5473 -3.9587 -1.1760
  996MOL0     H37402  -1.131   4.123   7.336 -0.4257  0.0380 -0.5964
  996MOL0     H37403  -1.043   4.195   7.472 -1.8269 -2.2771  0.3524
  996MOL0     H37404  -1.116   4.432   7.378  0.1069 -0.3781 -1.1163
  996MOL0     H37405  -1.244   4.338   7.302 -0.7096  0.6542  1.4618
  996MOL0     H37406  -1.403   4.209   7.301 -0.2563 -3.1048 -1.2643
  996MOL0     H37407  -1.726   4.111   7.296  0.3342 -0.0855 -0.5371
  996MOL0     H37408  -1.624   3.959   7.309  4.4929 -0.2821 -0.3894
  996MOL0     H37409  -1.565   4.095   7.217  2.7841  0.3222  1.4600
  996MOL0     H37410  -2.038   4.105   7.635  3.7363  2.3236  0.5184
  996MOL0     H37411  -2.228   4.010   7.735 -0.5324 -1.6511  0.1614
  996MOL0     H37412  -2.294   4.068   8.011 -0.7448  1.4991 -2.6327
  996MOL0     H37413  -2.428   3.988   7.930  0.0966  0.8838  1.8648
  996MOL0     H37414  -2.314   3.859   8.169  0.6031  1.2827  1.2284
  996MOL0     H37415  -2.414   4.010   8.188  2.3073  3.1955 -2.5367
  996MOL0     H37416  -2.485   3.740   8.045 -1.6093 -0.2435 -0.7553
  996MOL0     H37417  -2.585   3.886   8.024 -1.4416 -1.7364  0.2592
  996MOL0     H37418  -2.629   3.883   8.267 -3.0017 -0.4023 -0.9680
  996MOL0     H37419  -2.511   3.749   8.288 -1.5251 -0.0177  0.8165
  996MOL0     H37420  -2.764   3.705   8.112  0.1258  0.5127 -0.5109
  996MOL0     H37421  -2.655   3.586   8.176 -1.4846 -0.2728 -1.1790
  996MOL0     H37422  -2.823   3.767   8.332 -1.1577  0.4423  1.4938
  996MOL0     H37423  -2.736   3.625   8.411 -0.2078  1.2435 -0.0882
  996MOL0     H37424  -2.839   3.477   8.272 -1.0114  1.3477 -4.9853
  996MOL0     H37425  -2.943   3.590   8.193 -1.4829  2.0274 -0.2760
  996MOL0     H37426  -2.935   3.563   8.502  1.2155  0.5056 -0.7967
  996MOL0     H37427  -3.037   3.478   8.416 -1.1691  0.3587  2.2326
  996MOL0     H37428  -2.006   3.789   8.010  0.6303 -1.9792 -0.5319
  996MOL0     H37429  -1.794   3.865   7.899  0.9324  2.7598  0.2236
  996MOL0     H37430  -1.554   4.167   7.770 -1.0746 -3.1457 -0.9198
  996MOL0     H37431  -1.362   4.281   7.725 -1.1719 -1.9492  3.0455
  996MOL0     H37432   0.148   3.532   6.578 -1.8098  2.7967 -0.8666
  996MOL0     H37433   0.319   3.381   6.521 -1.5500 -0.1314  0.8753
  996MOL0     H37434   0.539   3.262   6.139  0.0236 -0.5833 -1.8383
  996MOL0     H37435   0.667   3.061   6.086  0.9402 -0.9196  0.7514
  996MOL0     H37436   0.818   2.888   6.089  0.6526 -1.4245  0.5172
  996MOL0     H37437   0.875   2.989   5.948 -1.6608  0.2602  1.0787
  996MOL0     H37438   0.995   2.754   6.095 -0.8042  1.4186  1.8303
  996MOL0     H37439   1.106   2.865   6.020  0.3458  0.1807 -0.4129
  996MOL0     H37440   0.945   2.840   5.812  0.3722  0.3063 -0.0649
  996MOL0     H37441   1.087   2.737   5.845  2.9269  2.2124  4.5109
  996MOL0     H37442   0.815   2.649   5.958 -0.8031  0.1148 -1.0610
  996MOL0     H37443   0.945   2.551   5.913  0.8125  1.8610  3.7795
  996MOL0     H37444   0.737   2.572   5.538 -1.6829  0.0957  0.2418
  996MOL0     H37445   0.994   3.209   6.317  0.5004 -0.7030  1.1731
  996MOL0     H37446   0.984   3.445   6.381  0.4245 -3.6498 -0.2091
  996MOL0     H37447   0.829   3.528   6.428 -4.0809 -2.3136  0.1141
  996MOL0     H37448   0.891   3.395   6.522 -1.2134 -2.1548 -0.7176
  997MOL0     O37449   0.313   6.830  10.718  0.3353 -0.0437 -0.6908
  997MOL0     C37450   0.270   6.871  10.605 -0.0018  0.6729  0.2565
  997MOL0     O37451   0.137   6.851  10.563 -0.5466 -0.5612 -0.8019
  997MOL0     C37452   0.050   6.798  10.658 -1.0135 -1.2542 -0.7457
  997MOL0     C37453   0.034   6.658  10.658  0.4219  0.2856  0.2774
  997MOL0     C37454  -0.052   6.591  10.750 -0.9025 -1.0231  0.4008
  997MOL0     C37455  -0.117   6.666  10.853  0.6024 -0.3091 -0.2076
  997MOL0     O37456  -0.200   6.608  10.946  0.1040  0.3761 -0.5161
  997MOL0     C37457  -0.169   6.473  11.003 -0.0531  0.2970 -0.2980
  997MOL0     C37458  -0.056   6.464  11.104 -0.2032 -0.0226 -0.4692
  997MOL0     C37459  -0.012   6.316  11.142 -0.0156 -0.3679 -0.1587
  997MOL0     C37460   0.125   6.336  11.195  0.1772 -0.6431 -0.3114
  997MOL0     C37461   0.193   6.208  11.238 -0.1383 -0.7674 -0.4088
  997MOL0     C37462   0.339   6.243  11.292 -0.2099 -0.4216  0.0859
  997MOL0     C37463   0.361   6.357  11.393  0.5652 -0.1814 -0.3068
  997MOL0     C37464   0.500   6.364  11.444  1.0698 -0.4703  1.2046
  997MOL0     N37465   0.546   6.247  11.514  1.0548  0.4386  0.0116
  997MOL0     C37466   0.625   6.151  11.455  0.1201  0.5434  0.3246
  997MOL0     C37467   0.628   6.043  11.535 -0.7458  0.2171 -0.2567
  997MOL0     C37468   0.722   5.925  11.530  0.0567  0.2026 -0.1018
  997MOL0     C37469   0.673   5.803  11.609 -0.4174  0.5509  0.4401
  997MOL0     C37470   0.727   5.802  11.750  0.3413 -0.0466  0.6389
  997MOL0     C37471   0.702   5.663  11.813 -0.2610  0.1605  0.1834
  997MOL0     O37472   0.745   5.669  11.954  0.1185 -0.0343  0.8808
  997MOL0     C37473   0.787   5.552  12.016 -0.0332 -0.1771  0.1335
  997MOL0     C37474   0.755   5.422  11.970  0.6087 -0.0126  1.2742
  997MOL0     C37475   0.799   5.301  12.025  0.5174 -0.0953 -0.4655
  997MOL0     C37476   0.780   5.164  11.962  0.1924  0.6009  0.9045
  997MOL0     C37477   0.870   5.309  12.147  0.5420  0.7297 -0.5562
  997MOL0     C37478   0.908   5.188  12.227  0.2796  0.2548  0.3227
  997MOL0     O37479   0.870   5.188  12.351  0.5249  0.2859 -0.0240
  997MOL0     C37480   0.917   5.101  12.451  0.4691  0.0390 -0.0119
  997MOL0     C37481   0.829   5.059  12.560  1.0380  0.8706 -0.4336
  997MOL0     C37482   0.878   4.963  12.650 -0.7476  0.1511  0.7648
  997MOL0     C37483   1.012   4.916  12.652 -0.5436  0.1262  0.3349
  997MOL0     O37484   1.052   4.823  12.743 -0.6629 -0.0825  0.2586
  997MOL0     C37485   1.116   4.704  12.696  0.8037  0.4248 -0.1145
  997MOL0     C37486   1.095   4.604  12.818  0.1691  0.3241 -0.1478
  997MOL0     C37487   0.949   4.574  12.873  0.5236 -0.2163  1.0230
  997MOL0     C37488   0.962   4.467  12.990 -0.4091 -0.4515  0.5107
  997MOL0     C37489   0.996   4.537  13.122 -0.4630 -0.1752  1.1417
  997MOL0     C37490   1.010   4.442  13.241  0.4226  0.4023 -0.6762
  997MOL0     C37491   1.132   4.350  13.236  0.1180  0.1452  0.0236
  997MOL0     C37492   1.139   4.263  13.359 -0.0016  0.1091 -0.1038
  997MOL0    Cl37493   1.007   4.148  13.382  0.1747 -0.1440 -0.3573
  997MOL0     C37494   1.094   4.968  12.547 -0.6885  0.0254 -0.2212
  997MOL0     C37495   1.047   5.062  12.454 -0.3527  0.5392 -0.3417
  997MOL0     O37496   0.982   5.112  12.169  0.0110 -0.3322 -0.2862
  997MOL0     C37497   0.904   5.435  12.194 -1.0443 -0.4319  0.3814
  997MOL0     C37498   0.862   5.557  12.134 -0.2359 -0.2252 -0.4334
  997MOL0     N37499   0.527   6.059  11.626  0.7700 -1.1030  0.1165
  997MOL0     N37500   0.485   6.183  11.617 -0.2277  0.7502  0.0321
  997MOL0     C37501  -0.099   6.806  10.843  0.2207 -0.8888  0.1166
  997MOL0     C37502  -0.012   6.874  10.759  0.5246 -0.4953 -0.3682
  997MOL0     C37503   0.357   6.947  10.516 -0.5126  0.2273 -0.7586
  997MOL0     C37504   0.371   6.916  10.381 -0.3331 -0.1134  0.1222
  997MOL0     C37505   0.473   6.982  10.304  0.3511 -0.2858 -0.3346
  997MOL0     C37506   0.556   7.082  10.359  0.1915 -0.3693  0.1845
  997MOL0     O37507   0.646   7.150  10.274  0.8935  0.1933  0.2532
  997MOL0     C37508   0.744   7.242  10.325  0.3664 -1.1804  0.1904
  997MOL0     C37509   0.870   7.173  10.375  0.0334 -0.1583 -0.4015
  997MOL0     C37510   0.941   7.087  10.274  0.1486 -0.2729  0.5617
  997MOL0     C37511   0.980   7.166  10.145 -0.0514  0.3049 -0.7544
  997MOL0     C37512   1.068   7.278  10.183 -0.6933 -0.2984  0.3367
  997MOL0     C37513   1.129   7.383  10.205  0.5546  0.2821 -0.6496
  997MOL0     C37514   0.547   7.113  10.492  0.5999 -0.5147  0.0587
  997MOL0     C37515   0.440   7.040  10.569  0.5055 -0.0718  1.0197
  997MOL0     C37516   0.412   7.098  10.704  0.0119  0.2130 -0.1773
  997MOL0     H37517   0.095   6.604  10.586  0.4762  0.3469  0.2777
  997MOL0     H37518  -0.063   6.483  10.749  1.8362 -1.3675 -1.5966
  997MOL0     H37519  -0.149   6.402  10.922  0.5283 -0.9945  0.9332
  997MOL0     H37520  -0.261   6.438  11.052 -1.6575  2.9755 -1.1965
  997MOL0     H37521   0.037   6.511  11.070  0.1954 -0.4767 -0.0248
  997MOL0     H37522  -0.090   6.527  11.186  0.7057 -1.0497  0.7325
  997MOL0     H37523  -0.084   6.286  11.219  2.5135 -0.3480  2.3932
  997MOL0     H37524   0.010   6.259  11.051  2.6303  2.2568 -1.3101
  997MOL0     H37525   0.184   6.388  11.119  0.5264  3.4815  2.4797
  997MOL0     H37526   0.125   6.414  11.272 -2.5343  1.3484 -2.1496
  997MOL0     H37527   0.177   6.136  11.157 -3.8320  1.4073 -1.8656
  997MOL0     H37528   0.144   6.174  11.329 -0.4148  2.3723  0.7447
  997MOL0     H37529   0.379   6.156  11.346  2.1121  2.1816  2.9512
  997MOL0     H37530   0.406   6.269  11.209  0.7006  0.7403  1.1433
  997MOL0     H37531   0.287   6.344  11.473  1.1523 -0.3491  0.2202
  997MOL0     H37532   0.342   6.454  11.345  3.8137 -0.0320 -1.5473
  997MOL0     H37533   0.565   6.369  11.357  2.7297 -1.6719  2.3140
  997MOL0     H37534   0.509   6.463  11.491  0.4238  0.2657 -0.1565
  997MOL0     H37535   0.693   6.156  11.370 -0.1296 -0.0425  0.0915
  997MOL0     H37536   0.826   5.938  11.562 -0.4599 -0.9243  2.2181
  997MOL0     H37537   0.727   5.891  11.427 -0.4646  0.3759 -0.1874
  997MOL0     H37538   0.564   5.802  11.599 -0.3782  0.5041  0.0033
  997MOL0     H37539   0.701   5.709  11.561 -0.8052 -0.0596  1.3653
  997MOL0     H37540   0.830   5.839  11.749 -0.4481  2.4019 -1.4106
  997MOL0     H37541   0.667   5.867  11.814  1.8019  0.7848  1.2225
  997MOL0     H37542   0.596   5.639  11.809 -0.4181  0.8829 -0.1555
  997MOL0     H37543   0.761   5.586  11.762 -1.0933 -1.4752  1.5860
  997MOL0     H37544   0.697   5.409  11.879  2.7374  0.7367 -0.2726
  997MOL0     H37545   0.743   5.088  12.031  0.6828 -1.0052 -0.5138
  997MOL0     H37546   0.875   5.133  11.917  0.9245  0.4245  2.5124
  997MOL0     H37547   0.706   5.174  11.882 -0.5500 -3.1972  0.9380
  997MOL0     H37548   0.726   5.090  12.545  1.1830  0.5577 -2.4672
  997MOL0     H37549   0.810   4.931  12.728 -0.1158 -0.0566  1.2424
  997MOL0     H37550   1.077   4.670  12.600  0.1568 -1.8126  0.8962
  997MOL0     H37551   1.223   4.710  12.673  1.2556 -1.9153  1.1421
  997MOL0     H37552   1.132   4.504  12.792 -2.2032 -0.0523 -2.4766
  997MOL0     H37553   1.154   4.632  12.906  0.8484  0.1306 -0.5268
  997MOL0     H37554   0.885   4.545  12.790 -1.7879 -0.1068  2.6745
  997MOL0     H37555   0.900   4.662  12.915  2.2682  1.1759  0.2933
  997MOL0     H37556   1.031   4.387  12.961 -0.1892  0.6394 -2.3653
  997MOL0     H37557   0.868   4.414  13.006 -0.2612 -1.3827 -1.4327
  997MOL0     H37558   1.094   4.585  13.113 -0.4403 -0.6149 -2.6908
  997MOL0     H37559   0.921   4.616  13.136  0.9039  1.7962 -1.6237
  997MOL0     H37560   0.919   4.381  13.248  1.2059 -1.0814 -2.5349
  997MOL0     H37561   1.020   4.509  13.327  1.1128  0.2287 -0.6214
  997MOL0     H37562   1.227   4.394  13.206  0.3157 -0.1991  0.1376
  997MOL0     H37563   1.133   4.282  13.150  0.1585 -0.2626  0.3430
  997MOL0     H37564   1.166   4.324  13.445 -1.6734 -1.8895  1.9840
  997MOL0     H37565   1.225   4.197  13.342  0.3845  0.4243  0.5725
  997MOL0     H37566   1.202   4.957  12.541 -0.2696  3.6001 -4.3815
  997MOL0     H37567   1.109   5.091  12.370  0.9168 -3.6437 -1.0857
  997MOL0     H37568   0.964   5.433  12.284 -1.2674  0.0910  0.5443
  997MOL0     H37569   0.888   5.654  12.176 -3.6022  1.8815 -2.7071
  997MOL0     H37570  -0.144   6.872  10.916 -0.9710 -0.1793 -1.2069
  997MOL0     H37571  -0.005   6.982  10.765 -2.7316 -0.2312  0.7596
  997MOL0     H37572   0.313   6.831  10.348 -1.3432  0.1640  1.1085
  997MOL0     H37573   0.496   6.957  10.201 -1.0276 -1.2915 -0.4312
  997MOL0     H37574   0.765   7.315  10.245  0.0526 -0.8425  0.4141
  997MOL0     H37575   0.713   7.305  10.409  2.3076  3.0210 -1.9468
  997MOL0     H37576   0.864   7.110  10.464  0.8463 -1.8547 -1.4881
  997MOL0     H37577   0.931   7.261  10.395 -1.3387  0.9567 -0.9730
  997MOL0     H37578   1.024   7.036  10.323  2.4698 -0.0357 -2.7358
  997MOL0     H37579   0.879   7.000  10.248  0.0297  0.3710 -1.4881
  997MOL0     H37580   0.892   7.200  10.090 -0.7276  0.0910  0.1707
  997MOL0     H37581   1.040   7.098  10.082  1.5160  0.7707  0.1706
  997MOL0     H37582   1.181   7.476  10.222 -0.0265  0.5419 -0.2611
  997MOL0     H37583   0.603   7.190  10.545  3.7545 -2.0719 -0.7542
  997MOL0     H37584   0.422   7.207  10.695 -0.9591  0.2800 -0.4768
  997MOL0     H37585   0.305   7.087  10.723  0.0636  2.0396  1.5612
  997MOL0     H37586   0.463   7.065  10.795 -2.0280  1.9388  1.7131
  998MOL0     O37587  10.373   6.872   6.781 -0.5647 -0.1541 -0.1192
  998MOL0     C37588  10.261   6.823   6.766  0.3698  0.7504 -0.2065
  998MOL0     O37589  10.184   6.790   6.874 -0.2826 -0.1947  0.0222
  998MOL0     C37590  10.237   6.787   7.000 -0.0616 -0.0582  0.1607
  998MOL0     C37591  10.347   6.708   7.044 -1.1887  0.5683  0.4607
  998MOL0     C37592  10.393   6.715   7.180 -0.4832  0.7036  0.1060
  998MOL0     C37593  10.331   6.806   7.268  0.3071 -1.3225  0.3081
  998MOL0     O37594  10.372   6.818   7.400 -0.3348 -0.2430  0.4615
  998MOL0     C37595  10.509   6.845   7.403  0.3225  0.2102 -0.0178
  998MOL0     C37596  10.560   6.748   7.518 -0.2506  0.5875  0.1685
  998MOL0     C37597  10.706   6.759   7.541 -1.0744 -0.4036  0.1378
  998MOL0     C37598  10.745   6.661   7.651 -0.0997  0.2392 -0.7079
  998MOL0     C37599  10.900   6.669   7.657  0.2379  0.1208 -0.1979
  998MOL0     C37600  10.948   6.543   7.727  0.3391 -0.2565  0.2870
  998MOL0     C37601  10.921   6.535   7.877 -0.2981  0.6733  0.9300
  998MOL0     C37602  10.981   6.414   7.934 -0.3752  0.5421  0.2281
  998MOL0     N37603  11.128   6.420   7.961  0.3250 -0.4187 -0.3898
  998MOL0     C37604  11.199   6.522   8.027 -0.0915  0.5045  0.3795
  998MOL0     C37605  11.323   6.491   8.024 -0.8002 -0.0712 -0.2704
  998MOL0     C37606  11.435   6.569   8.092 -0.8836  0.2538  0.2622
  998MOL0     C37607  11.460   6.527   8.233 -0.5932 -0.5892 -0.0044
  998MOL0     C37608  11.574   6.599   8.298 -0.3462 -0.4432 -0.3325
  998MOL0     C37609  11.709   6.550   8.254 -0.8529 -0.2695  0.5799
  998MOL0     O37610  11.814   6.623   8.333  0.3225 -0.5773 -0.4547
  998MOL0     C37611  11.945   6.602   8.311  0.4002  0.5750 -0.4039
  998MOL0     C37612  12.025   6.628   8.416 -0.4032 -0.2503 -0.1778
  998MOL0     C37613  12.175   6.631   8.405  0.9466  0.4177  0.3220
  998MOL0     C37614  12.247   6.677   8.533  0.2899 -0.2776  0.4561
  998MOL0     C37615  12.230   6.602   8.281  0.3698  0.2787  0.5306
  998MOL0     C37616  12.369   6.612   8.235 -0.5268  1.1517 -0.0848
  998MOL0     O37617  12.403   6.583   8.106  0.0607 -0.2965  0.6864
  998MOL0     C37618  12.532   6.589   8.067  0.6920 -1.1798 -0.3272
  998MOL0     C37619  12.638   6.532   8.136  0.0009 -0.8909  0.5655
  998MOL0     C37620  12.768   6.548   8.081  0.0318  0.0498  0.1920
  998MOL0     C37621  12.791   6.618   7.959 -0.7654  0.3349 -0.9897
  998MOL0     O37622  12.919   6.648   7.900 -0.2466  0.2304 -1.2666
  998MOL0     C37623  13.031   6.678   7.986 -0.5778  0.3642  0.0345
  998MOL0     C37624  13.121   6.787   7.939 -0.2426 -0.4421 -0.1776
  998MOL0     C37625  13.196   6.835   8.069  0.1196  0.2833  0.4864
  998MOL0     C37626  13.318   6.742   8.087  0.3912 -0.7630  0.3163
  998MOL0     C37627  13.397   6.826   8.185 -1.0550  0.1168 -0.3281
  998MOL0     C37628  13.529   6.753   8.245 -0.2568 -0.8062  0.6877
  998MOL0     C37629  13.575   6.812   8.379  0.2569  0.9162 -0.3199
  998MOL0     C37630  13.607   6.947   8.365 -0.2278  0.3694 -0.2396
  998MOL0    Cl37631  13.694   6.977   8.518  0.0682 -0.2929 -0.0414
  998MOL0     C37632  12.687   6.676   7.895 -0.3134  0.3347 -0.1701
  998MOL0     C37633  12.554   6.653   7.941 -0.7782 -0.8317  0.4606
  998MOL0     O37634  12.448   6.661   8.320  0.9646 -0.1687 -0.5671
  998MOL0     C37635  12.143   6.557   8.174  0.1515  0.5979 -1.1927
  998MOL0     C37636  12.006   6.563   8.192  0.4774 -0.5675 -0.0987
  998MOL0     N37637  11.341   6.374   7.962  0.6651 -0.1014  0.7961
  998MOL0     N37638  11.220   6.323   7.924 -0.0351  0.0489 -0.6769
  998MOL0     C37639  10.221   6.881   7.225  0.1934 -0.2241 -0.3221
  998MOL0     C37640  10.177   6.869   7.095  0.0772  0.3590  0.1420
  998MOL0     C37641  10.223   6.773   6.629 -0.3873 -0.1635  0.0906
  998MOL0     C37642  10.322   6.719   6.539  0.7367  0.2844  0.3960
  998MOL0     C37643  10.290   6.694   6.402  1.6014 -0.3171  0.1555
  998MOL0     C37644  10.155   6.701   6.362 -0.4670  0.1289  0.3454
  998MOL0     O37645  10.112   6.660   6.238  0.5284 -0.5358 -0.1287
  998MOL0     C37646  10.200   6.640   6.130 -0.2546  0.5680  0.6616
  998MOL0     C37647  10.258   6.763   6.073 -0.2327 -0.3163 -0.0745
  998MOL0     C37648  10.339   6.721   5.949 -0.1896  0.3861  0.5677
  998MOL0     C37649  10.374   6.832   5.860  0.0089  0.2084  0.1731
  998MOL0     C37650  10.453   6.934   5.921  0.6029 -0.2120  0.8250
  998MOL0     C37651  10.504   7.028   5.983 -0.0776 -0.1293 -0.1408
  998MOL0     C37652  10.060   6.733   6.454  0.5271 -0.6869 -0.3630
  998MOL0     C37653  10.091   6.768   6.587 -0.1564 -0.2988 -0.3918
  998MOL0     C37654   9.985   6.820   6.671 -0.4431  0.3362  0.7816
  998MOL0     H37655  10.396   6.647   6.968 -3.4438 -1.1987  0.3241
  998MOL0     H37656  10.470   6.649   7.216 -0.6860 -1.5795 -3.1282
  998MOL0     H37657  10.539   6.949   7.418 -0.7944  0.6077 -0.4260
  998MOL0     H37658  10.568   6.810   7.317  1.3991  2.4942 -0.2806
  998MOL0     H37659  10.512   6.767   7.615  0.4957  0.2780  0.6144
  998MOL0     H37660  10.533   6.650   7.480 -0.4018  1.1383 -1.1789
  998MOL0     H37661  10.743   6.723   7.445  0.0339 -2.1697  1.1678
  998MOL0     H37662  10.732   6.862   7.567 -4.0931  0.0348  1.9278
  998MOL0     H37663  10.697   6.696   7.743  0.8494 -0.9333  0.2687
  998MOL0     H37664  10.709   6.562   7.622  1.1346 -0.7343  0.9550
  998MOL0     H37665  10.931   6.759   7.712  2.2431 -3.0646  4.5607
  998MOL0     H37666  10.940   6.671   7.556  0.4862  0.9195 -0.0923
  998MOL0     H37667  10.897   6.461   7.676  0.2008  0.4996 -0.8166
  998MOL0     H37668  11.055   6.552   7.706 -0.2523  2.8343 -2.0422
  998MOL0     H37669  10.814   6.519   7.894 -0.1482 -0.6800  0.7155
  998MOL0     H37670  10.967   6.618   7.930  1.2678  0.2810  0.2538
  998MOL0     H37671  10.928   6.402   8.029 -0.7669 -0.5815 -0.1184
  998MOL0     H37672  10.956   6.321   7.882 -0.4211  0.1662  0.9170
  998MOL0     H37673  11.161   6.609   8.081  2.3775  0.6105  2.0956
  998MOL0     H37674  11.417   6.676   8.083 -1.0563  0.1760 -0.3229
  998MOL0     H37675  11.528   6.551   8.038 -0.6836  1.2467  0.2651
  998MOL0     H37676  11.384   6.572   8.298 -0.0297  2.1761 -1.1205
  998MOL0     H37677  11.471   6.419   8.245 -2.8142 -0.6802  2.2405
  998MOL0     H37678  11.559   6.705   8.277  1.0188  0.1678  1.4856
  998MOL0     H37679  11.565   6.595   8.407 -0.4112  2.8063 -0.1197
  998MOL0     H37680  11.721   6.442   8.272 -1.6037 -0.8793 -2.0894
  998MOL0     H37681  11.726   6.565   8.147  1.4615 -1.4600  0.7059
  998MOL0     H37682  11.980   6.659   8.509  1.0198 -2.3911  1.3346
  998MOL0     H37683  12.175   6.688   8.615  0.1752  2.4631  0.0740
  998MOL0     H37684  12.291   6.776   8.520  3.6921 -0.9638  4.5770
  998MOL0     H37685  12.335   6.619   8.563  1.3679  1.0773  0.0002
  998MOL0     H37686  12.620   6.481   8.230  0.1871 -3.8935 -0.9301
  998MOL0     H37687  12.848   6.511   8.145 -0.1682 -0.2707  0.2631
  998MOL0     H37688  12.991   6.721   8.078 -1.9491  0.6014 -0.6350
  998MOL0     H37689  13.088   6.588   8.008  0.7327  2.2334  6.1197
  998MOL0     H37690  13.192   6.748   7.867  0.4376 -2.2191  1.3749
  998MOL0     H37691  13.066   6.869   7.892  0.5518 -1.3793 -2.8966
  998MOL0     H37692  13.131   6.847   8.156 -1.2300 -0.4816 -0.3679
  998MOL0     H37693  13.236   6.936   8.055 -0.2414  0.2770 -0.7478
  998MOL0     H37694  13.370   6.721   7.994 -0.6429 -2.6202  0.1088
  998MOL0     H37695  13.298   6.640   8.123  0.7215 -2.0633 -2.8851
  998MOL0     H37696  13.431   6.916   8.132 -2.7473  0.5553 -0.7557
  998MOL0     H37697  13.324   6.856   8.261 -2.5548  1.7340 -2.2799
  998MOL0     H37698  13.613   6.755   8.175 -2.7527  2.8512 -2.5974
  998MOL0     H37699  13.503   6.647   8.255  1.4497 -1.2729  0.5149
  998MOL0     H37700  13.654   6.745   8.414 -1.7151 -0.8769  0.9940
  998MOL0     H37701  13.500   6.808   8.460 -0.2524  0.9559 -0.7850
  998MOL0     H37702  13.534   7.025   8.339 -0.6363  0.7739  1.9559
  998MOL0     H37703  13.683   6.950   8.287  0.9596  2.3850  0.9150
  998MOL0     H37704  12.695   6.732   7.803  2.5041 -1.2699 -1.0320
  998MOL0     H37705  12.467   6.690   7.887 -1.6484  0.8891  2.8248
  998MOL0     H37706  12.181   6.539   8.074 -0.8704  1.0957 -1.6794
  998MOL0     H37707  11.936   6.549   8.110  1.3302  2.1553 -1.4259
  998MOL0     H37708  10.173   6.944   7.299  3.8833  1.2677  1.0261
  998MOL0     H37709  10.098   6.931   7.053  0.3343  0.8397  0.3627
  998MOL0     H37710  10.426   6.711   6.568  1.1077  1.9301 -0.3069
  998MOL0     H37711  10.372   6.671   6.335  0.3428  0.1436 -1.6140
  998MOL0     H37712  10.280   6.572   6.158 -1.4918 -1.4088 -0.3919
  998MOL0     H37713  10.133   6.588   6.060  0.7419  0.3764 -0.1703
  998MOL0     H37714  10.332   6.805   6.141  1.4412 -2.1503 -0.6395
  998MOL0     H37715  10.175   6.829   6.046  1.0873  0.5461 -2.3504
  998MOL0     H37716  10.423   6.672   5.999 -2.3484 -3.9774  0.4323
  998MOL0     H37717  10.279   6.653   5.888 -1.1735  0.8320  1.0039
  998MOL0     H37718  10.276   6.870   5.832 -0.6097 -0.3805  1.4495
  998MOL0     H37719  10.435   6.790   5.779  0.9134  0.1040  0.8839
  998MOL0     H37720  10.548   7.111   6.034 -0.1093  2.1437 -3.4627
  998MOL0     H37721   9.960   6.739   6.414  0.1543 -0.2574  0.6070
  998MOL0     H37722   9.895   6.829   6.609 -0.4258 -1.1924  0.4875
  998MOL0     H37723   9.963   6.752   6.754  1.1018 -1.0849  0.1004
  998MOL0     H37724  10.000   6.914   6.724 -0.5772 -1.7814  4.9674
  999MOL0     O37725   3.888   9.950   3.655 -0.4425  0.6375  0.7595
  999MOL0     C37726   3.818   9.920   3.753  0.2167 -0.4534  0.1611
  999MOL0     O37727   3.830   9.807   3.825  0.0576 -0.3227  0.4630
  999MOL0     C37728   3.919   9.704   3.785 -0.5563 -0.1210  0.3683
  999MOL0     C37729   3.873   9.571   3.763  0.6415  0.5946  0.6184
  999MOL0     C37730   3.960   9.459   3.743 -0.6301  0.5129 -0.6272
  999MOL0     C37731   4.094   9.480   3.733 -0.1804  0.3182  0.1912
  999MOL0     O37732   4.185   9.378   3.706 -0.6472 -0.6773 -0.1146
  999MOL0     C37733   4.139   9.284   3.604 -0.2379 -0.1838  0.9099
  999MOL0     C37734   4.258   9.198   3.553  0.4198 -0.2087 -0.3650
  999MOL0     C37735   4.367   9.185   3.662 -0.3780 -0.1475  0.1773
  999MOL0     C37736   4.479   9.100   3.606  0.0224  0.0229 -1.0017
  999MOL0     C37737   4.593   9.083   3.709  0.5520 -0.2422 -0.1704
  999MOL0     C37738   4.678   8.967   3.672 -0.8495  0.0351  0.7302
  999MOL0     C37739   4.796   8.946   3.776 -0.1441  0.0931  1.1136
  999MOL0     C37740   4.899   8.844   3.724 -0.6312  0.7837  0.4579
  999MOL0     N37741   5.017   8.839   3.818  0.0898  1.1978  0.7016
  999MOL0     C37742   5.129   8.913   3.796 -0.5055  0.5266 -0.3522
  999MOL0     C37743   5.222   8.860   3.881 -0.0420 -0.7329  0.4828
  999MOL0     C37744   5.364   8.920   3.887 -0.0077 -1.2083  0.0143
  999MOL0     C37745   5.397   8.983   4.025 -0.2857  0.0803  0.1931
  999MOL0     C37746   5.536   9.057   4.033  0.4918 -0.9961  0.5154
  999MOL0     C37747   5.651   8.958   3.999  0.8644 -0.4478 -0.0272
  999MOL0     O37748   5.780   9.000   4.038 -0.6781 -0.6764  0.2525
  999MOL0     C37749   5.824   8.992   4.173  0.3033  0.6205  0.6445
  999MOL0     C37750   5.960   9.018   4.191  0.2683 -0.6994  0.2988
  999MOL0     C37751   6.030   9.009   4.305 -0.2933 -0.4264  0.1947
  999MOL0     C37752   6.186   9.022   4.301 -0.2335  0.6511  0.1324
  999MOL0     C37753   5.956   8.985   4.424  0.0718  0.3594  0.8795
  999MOL0     C37754   6.008   8.999   4.561  0.2949 -0.2742 -0.0425
  999MOL0     O37755   5.904   8.989   4.659  0.5858 -1.1322 -0.1065
  999MOL0     C37756   5.921   9.009   4.794 -0.1111  0.2349 -0.3721
  999MOL0     C37757   5.819   8.963   4.878  0.8109  0.2269  0.4402
  999MOL0     C37758   5.835   8.980   5.018  0.2183 -0.6223  0.2330
  999MOL0     C37759   5.943   9.047   5.078  0.5275  0.9179 -0.2229
  999MOL0     O37760   5.950   9.045   5.217 -0.6390  0.1479  0.0447
  999MOL0     C37761   6.042   9.151   5.274  0.5867  0.7916  0.0906
  999MOL0     C37762   6.028   9.139   5.425 -0.2195  0.2114 -0.1659
  999MOL0     C37763   5.896   9.192   5.471  0.1797 -0.3266  0.2493
  999MOL0     C37764   5.880   9.177   5.624  0.5735  0.3375 -1.2153
  999MOL0     C37765   5.978   9.270   5.690 -0.1142  0.1222 -0.1611
  999MOL0     C37766   5.914   9.311   5.834  0.4652 -0.1954 -0.2972
  999MOL0     C37767   5.997   9.424   5.902 -0.0443  0.8366 -0.5916
  999MOL0     C37768   6.128   9.363   5.957 -0.8389 -0.7247  0.4791
  999MOL0    Cl37769   6.221   9.507   6.030  0.3575 -0.2490  0.1931
  999MOL0     C37770   6.046   9.099   4.993 -0.3856 -0.2995  0.0516
  999MOL0     C37771   6.030   9.080   4.856 -0.8081  0.0955 -0.7687
  999MOL0     O37772   6.129   9.010   4.579  0.3120 -0.6781  0.2154
  999MOL0     C37773   5.817   8.958   4.406  0.5539  0.3642  0.0074
  999MOL0     C37774   5.753   8.965   4.288 -0.3606  1.0967 -0.8544
  999MOL0     N37775   5.168   8.759   3.962 -0.3204  0.2096 -0.4903
  999MOL0     N37776   5.047   8.736   3.905  0.7271 -1.0580  0.0008
  999MOL0     C37777   4.141   9.611   3.760  1.0407 -0.4581 -0.0713
  999MOL0     C37778   4.058   9.720   3.787 -1.2695 -1.3157 -0.8463
  999MOL0     C37779   3.721  10.027   3.801 -0.4736 -0.7079 -0.2090
  999MOL0     C37780   3.661  10.011   3.930  1.5894 -0.5014  0.6517
  999MOL0     C37781   3.561  10.096   3.977  0.6509 -0.1517  0.3956
  999MOL0     C37782   3.526  10.212   3.910  0.3597 -0.0269 -0.4463
  999MOL0     O37783   3.430  10.288   3.963 -0.6809  0.6106 -0.5015
  999MOL0     C37784   3.478  10.421   3.992  0.2596  0.1645  0.8705
  999MOL0     C37785   3.376  10.532   4.043 -0.6475 -0.2664  0.1633
  999MOL0     C37786   3.454  10.660   4.075  0.1401 -0.4566  0.1076
  999MOL0     C37787   3.368  10.769   4.143 -0.1734 -0.5184 -0.2338
  999MOL0     C37788   3.261  10.812   4.061  0.3319  0.5497  0.1086
  999MOL0     C37789   3.179  10.871   3.988 -0.2707  0.5041 -0.7021
  999MOL0     C37790   3.603  10.245   3.799  0.5613 -0.2906  0.0107
  999MOL0     C37791   3.696  10.157   3.745 -0.0420  0.2314 -0.0462
  999MOL0     C37792   3.760  10.198   3.619  0.0878 -0.3997  0.0575
  999MOL0     H37793   3.770   9.538   3.765  0.8814 -0.1335  1.7263
  999MOL0     H37794   3.923   9.357   3.743  2.5921 -0.7850  0.4778
  999MOL0     H37795   4.104   9.339   3.516 -4.6330 -1.8738  1.3249
  999MOL0     H37796   4.059   9.229   3.656 -0.1733  0.8328  2.1293
  999MOL0     H37797   4.210   9.104   3.525 -2.8378  0.6982  1.6179
  999MOL0     H37798   4.297   9.239   3.459 -1.9616  1.2411 -0.8223
  999MOL0     H37799   4.403   9.284   3.692 -1.4039 -0.2391  1.8435
  999MOL0     H37800   4.328   9.131   3.749  0.9056 -0.8657  0.3349
  999MOL0     H37801   4.436   9.001   3.590  2.4310 -0.8412 -2.6693
  999MOL0     H37802   4.521   9.133   3.510  0.9667  1.3588 -0.1605
  999MOL0     H37803   4.554   9.070   3.811  1.8303 -0.1477  0.3445
  999MOL0     H37804   4.650   9.176   3.714  0.8660 -0.4445  0.1168
  999MOL0     H37805   4.607   8.884   3.666 -1.3935  0.4289  1.5003
  999MOL0     H37806   4.719   8.979   3.571  0.4197 -2.0031  0.9532
  999MOL0     H37807   4.767   8.915   3.877 -0.2709 -0.8833  0.7932
  999MOL0     H37808   4.847   9.041   3.795  3.0462 -1.0280 -0.8857
  999MOL0     H37809   4.875   8.738   3.708  1.0645  0.7412 -2.6258
  999MOL0     H37810   4.933   8.880   3.626 -0.9174  0.7694  0.3533
  999MOL0     H37811   5.133   9.002   3.733 -0.4807  1.4876  0.9720
  999MOL0     H37812   5.371   8.999   3.812 -1.2112 -0.6251  0.4884
  999MOL0     H37813   5.433   8.841   3.855  1.9768  0.7496 -0.8220
  999MOL0     H37814   5.311   9.050   4.039 -2.9395 -2.5571 -1.9589
  999MOL0     H37815   5.395   8.905   4.101 -1.5426  0.4430  0.5628
  999MOL0     H37816   5.536   9.143   3.966 -0.3997 -1.8016 -0.5437
  999MOL0     H37817   5.556   9.084   4.137  0.2939 -2.1750  0.8759
  999MOL0     H37818   5.626   8.867   4.054  0.9818 -2.6604 -3.3632
  999MOL0     H37819   5.648   8.941   3.891  2.9162 -1.1273 -0.0302
  999MOL0     H37820   6.017   9.049   4.104 -2.6827  2.8760 -0.6499
  999MOL0     H37821   6.221   9.109   4.358  1.5004 -0.6777  1.2119
  999MOL0     H37822   6.227   9.018   4.200 -0.3733  0.3245  0.0905
  999MOL0     H37823   6.225   8.926   4.335  0.6062  0.5188 -1.1501
  999MOL0     H37824   5.726   8.912   4.853  0.9806 -0.0776  0.4162
  999MOL0     H37825   5.758   8.942   5.084  0.9882 -1.0850  0.8845
  999MOL0     H37826   6.146   9.133   5.248  0.6574  2.3396 -0.8036
  999MOL0     H37827   6.009   9.253   5.251  1.2155  1.7488  2.9228
  999MOL0     H37828   6.056   9.039   5.461  1.8135  1.1390  0.9895
  999MOL0     H37829   6.104   9.206   5.468 -0.8762 -0.5799  2.4092
  999MOL0     H37830   5.811   9.136   5.432 -0.3329 -0.0573  0.9651
  999MOL0     H37831   5.891   9.295   5.436  0.0289 -0.5574 -0.4343
  999MOL0     H37832   5.905   9.075   5.655  2.2759  1.6619  2.1525
  999MOL0     H37833   5.776   9.203   5.644  0.4192  0.6354 -2.3107
  999MOL0     H37834   6.077   9.224   5.699 -0.0847  0.2760  0.3153
  999MOL0     H37835   5.983   9.358   5.626 -0.6038  1.5235  1.6653
  999MOL0     H37836   5.902   9.229   5.905  1.5371  1.7958  2.3468
  999MOL0     H37837   5.814   9.351   5.817 -1.2842 -2.6107  3.0360
  999MOL0     H37838   5.942   9.469   5.985 -0.2412 -1.0048  0.3476
  999MOL0     H37839   6.004   9.502   5.826  1.4722  1.1079 -0.2133
  999MOL0     H37840   6.194   9.338   5.873  0.3668  0.8144  0.9391
  999MOL0     H37841   6.110   9.289   6.035  2.8313 -1.2642  0.9700
  999MOL0     H37842   6.138   9.135   5.037 -0.9718  1.3445  0.0083
  999MOL0     H37843   6.098   9.127   4.785 -0.9095  1.2640 -0.1203
  999MOL0     H37844   5.756   8.924   4.489 -0.4981 -3.3846 -2.0602
  999MOL0     H37845   5.646   8.951   4.278 -0.4338  0.3179  0.7229
  999MOL0     H37846   4.249   9.621   3.764  1.1801 -1.8288  0.3087
  999MOL0     H37847   4.089   9.822   3.812  2.0101 -1.8799 -2.1331
  999MOL0     H37848   3.678   9.921   3.989 -0.1131 -0.9786  0.4744
  999MOL0     H37849   3.523  10.071   4.075  1.5997 -2.3813  0.2643
  999MOL0     H37850   3.544  10.403   4.077  0.3729 -2.1877  0.3488
  999MOL0     H37851   3.532  10.459   3.905  0.5613 -1.5024  0.3000
  999MOL0     H37852   3.336  10.504   4.141 -2.8599 -0.3817 -0.6991
  999MOL0     H37853   3.296  10.551   3.970 -2.2086 -2.0823  1.2941
  999MOL0     H37854   3.537  10.642   4.145 -0.6841  0.9469  1.5028
  999MOL0     H37855   3.509  10.687   3.985 -0.3071 -0.7202 -0.2491
  999MOL0     H37856   3.430  10.854   4.171 -1.6222  0.5948 -0.3147
  999MOL0     H37857   3.338  10.727   4.240  0.7309  0.1478  0.3497
  999MOL0     H37858   3.115  10.937   3.934 -0.2782  0.7808 -0.3568
  999MOL0     H37859   3.576  10.339   3.753 -2.0699 -0.4507  1.0506
  999MOL0     H37860   3.865  10.209   3.649  0.0165 -0.4249  0.3227
  999MOL0     H37861   3.752  10.114   3.549  2.3852 -1.8664  1.4267
  999MOL0     H37862   3.730  10.291   3.569 -0.3496 -0.6588 -0.1644
 1000MOL0     O37863  10.698   2.312   2.601  0.5971 -0.6270  0.2864
 1000MOL0     C37864  10.653   2.356   2.497  0.7431 -0.7057  0.7598
 1000MOL0     O37865  10.648   2.491   2.458  0.1712 -0.4157  0.3021
 1000MOL0     C37866  10.680   2.579   2.555 -0.5258 -0.6565  0.2175
 1000MOL0     C37867  10.792   2.574   2.654  0.7848 -0.9270  1.1030
 1000MOL0     C37868  10.802   2.667   2.759  0.3725 -1.1211  0.2691
 1000MOL0     C37869  10.704   2.772   2.772  0.4329  0.0569 -0.1026
 1000MOL0     O37870  10.716   2.874   2.856  0.0024  0.6930  0.4549
 1000MOL0     C37871  10.823   2.866   2.955  0.4275  0.4547 -0.0021
 1000MOL0     C37872  10.829   2.992   3.048  0.0126  1.2259  0.9211
 1000MOL0     C37873  10.964   2.993   3.128 -0.7726 -0.4691  0.3021
 1000MOL0     C37874  10.976   3.134   3.184 -0.2934 -0.2078 -0.8301
 1000MOL0     C37875  11.112   3.137   3.262  0.6103 -0.3075  0.4252
 1000MOL0     C37876  11.152   3.268   3.316 -0.2887 -0.3789 -0.0187
 1000MOL0     C37877  11.285   3.255   3.389  1.1103 -0.1364 -0.8620
 1000MOL0     C37878  11.403   3.222   3.293  0.4069  0.2110 -0.1844
 1000MOL0     N37879  11.528   3.266   3.352 -0.0576 -0.1989  0.5764
 1000MOL0     C37880  11.572   3.394   3.360  0.4344 -0.2491  0.9030
 1000MOL0     C37881  11.696   3.390   3.421  0.9702 -0.1312  0.0127
 1000MOL0     C37882  11.786   3.496   3.481 -0.6932  0.1266 -0.7735
 1000MOL0     C37883  11.915   3.497   3.403  0.7841  0.0912  0.0440
 1000MOL0     C37884  12.004   3.609   3.464  0.5987 -0.5582  0.5179
 1000MOL0     C37885  12.123   3.633   3.371 -0.3777  0.5921 -0.1076
 1000MOL0     O37886  12.200   3.513   3.348  0.0268 -0.3283 -0.0150
 1000MOL0     C37887  12.284   3.462   3.446  0.3603  0.2686  0.7345
 1000MOL0     C37888  12.311   3.522   3.567 -0.4121  0.1612 -0.1499
 1000MOL0     C37889  12.394   3.455   3.660 -0.6253 -0.4725 -0.0682
 1000MOL0     C37890  12.426   3.527   3.794  0.4757 -0.3011 -0.4446
 1000MOL0     C37891  12.448   3.328   3.624  0.8227 -1.0183 -0.7806
 1000MOL0     C37892  12.516   3.241   3.726 -0.5230 -0.1885  0.8395
 1000MOL0     O37893  12.488   3.256   3.855  0.3871 -0.0905 -0.0549
 1000MOL0     C37894  12.543   3.179   3.949 -0.1234  0.3132 -0.1009
 1000MOL0     C37895  12.672   3.115   3.947  0.4316 -0.6178  0.1579
 1000MOL0     C37896  12.720   3.038   4.054  0.8251 -0.5449  0.3749
 1000MOL0     C37897  12.635   3.020   4.166  0.2212  0.4019 -0.2958
 1000MOL0     O37898  12.682   2.954   4.280  0.2890  0.0433 -0.2641
 1000MOL0     C37899  12.786   2.852   4.248 -0.0949 -0.0436 -0.0862
 1000MOL0     C37900  12.818   2.768   4.365  0.5722  0.6836 -0.1916
 1000MOL0     C37901  12.864   2.850   4.494 -1.0751  0.1406  0.5047
 1000MOL0     C37902  12.974   2.950   4.477 -0.9112 -0.2326 -1.2523
 1000MOL0     C37903  13.048   2.973   4.607  0.2599  0.6190  0.3761
 1000MOL0     C37904  13.153   3.081   4.582 -0.4682 -0.0614 -0.0792
 1000MOL0     C37905  13.228   3.102   4.717  0.5578  0.4577  0.4978
 1000MOL0     C37906  13.266   3.247   4.735  0.2247 -0.9717  1.0094
 1000MOL0    Cl37907  13.348   3.308   4.583  0.1607 -0.6071 -0.2720
 1000MOL0     C37908  12.517   3.082   4.176 -0.3530  0.2731  0.3980
 1000MOL0     C37909  12.470   3.154   4.065  0.4821  0.5133 -0.2277
 1000MOL0     O37910  12.576   3.144   3.682  0.9490 -0.6525 -0.6462
 1000MOL0     C37911  12.404   3.262   3.505 -0.0123  0.3387 -0.5175
 1000MOL0     C37912  12.324   3.333   3.426 -0.1845  0.8086  0.4007
 1000MOL0     N37913  11.729   3.262   3.438 -0.6797  0.3215  0.1341
 1000MOL0     N37914  11.623   3.181   3.409 -0.3836  0.9620 -0.2906
 1000MOL0     C37915  10.602   2.776   2.680  1.0597  1.0526  0.4080
 1000MOL0     C37916  10.589   2.685   2.573 -0.2914  0.2519  0.7444
 1000MOL0     C37917  10.587   2.259   2.398  0.4160  0.3217 -0.9403
 1000MOL0     C37918  10.546   2.309   2.270 -0.8855  1.2720  0.5356
 1000MOL0     C37919  10.500   2.222   2.161 -0.1798 -0.4046 -0.2023
 1000MOL0     C37920  10.493   2.088   2.184  0.3832 -0.4293 -0.0936
 1000MOL0     O37921  10.451   2.002   2.085  0.1997 -0.5520 -0.4715
 1000MOL0     C37922  10.414   2.062   1.959  0.7205 -0.0776  0.3922
 1000MOL0     C37923  10.354   1.958   1.863 -0.2175  0.1637 -0.0957
 1000MOL0     C37924  10.221   1.885   1.904 -0.4059 -0.7719 -0.3774
 1000MOL0     C37925  10.255   1.776   2.003 -0.3896  0.0457 -0.0598
 1000MOL0     C37926  10.137   1.709   2.044 -0.0573 -0.1272  0.8580
 1000MOL0     C37927  10.034   1.658   2.089 -0.8491  0.3379 -0.9160
 1000MOL0     C37928  10.524   2.038   2.310  0.2705 -0.2894 -0.8507
 1000MOL0     C37929  10.570   2.117   2.417 -0.2709 -0.6109  0.3510
 1000MOL0     C37930  10.572   2.054   2.558 -0.5360  0.5453 -0.0734
 1000MOL0     H37931  10.870   2.498   2.649  0.5671 -1.1416  0.9782
 1000MOL0     H37932  10.887   2.649   2.823  1.1151 -1.8335 -0.8883
 1000MOL0     H37933  10.919   2.853   2.904  0.2692 -2.0562  0.2144
 1000MOL0     H37934  10.797   2.780   3.018 -2.2845  2.4229  1.8347
 1000MOL0     H37935  10.839   3.082   2.988  1.1769 -0.2062 -1.1685
 1000MOL0     H37936  10.733   3.007   3.099 -0.2388  1.2505  0.4451
 1000MOL0     H37937  10.957   2.908   3.197 -5.3264 -3.3991 -3.1720
 1000MOL0     H37938  11.049   2.977   3.062 -1.9318 -1.3428 -1.0436
 1000MOL0     H37939  10.984   3.204   3.100  2.5938  2.5152  1.4618
 1000MOL0     H37940  10.888   3.157   3.244 -2.7707  1.4551 -4.6827
 1000MOL0     H37941  11.187   3.102   3.190  1.9336  1.7942  0.7096
 1000MOL0     H37942  11.110   3.066   3.345 -2.3344  0.1613  0.8633
 1000MOL0     H37943  11.173   3.347   3.243 -0.9104 -0.5169 -0.3529
 1000MOL0     H37944  11.074   3.300   3.386 -1.7076 -2.8026 -0.3946
 1000MOL0     H37945  11.254   3.180   3.463  1.1197  0.4894 -0.2117
 1000MOL0     H37946  11.298   3.346   3.447 -1.5091 -0.1125 -0.1871
 1000MOL0     H37947  11.404   3.114   3.277 -0.0738 -0.3037  2.7641
 1000MOL0     H37948  11.381   3.266   3.195 -0.3158 -1.5215 -0.8411
 1000MOL0     H37949  11.520   3.488   3.347 -0.6770 -1.1267 -1.6764
 1000MOL0     H37950  11.804   3.483   3.588  2.8313 -1.6019 -1.4228
 1000MOL0     H37951  11.743   3.596   3.479 -1.3419 -0.1439 -0.8668
 1000MOL0     H37952  11.976   3.406   3.415  0.5570 -0.1485 -0.5875
 1000MOL0     H37953  11.899   3.515   3.296 -0.5339  0.0203  0.2157
 1000MOL0     H37954  11.954   3.706   3.469  3.8177  1.1946  1.2414
 1000MOL0     H37955  12.037   3.583   3.565 -1.6250 -0.8607  1.2286
 1000MOL0     H37956  12.086   3.663   3.272  0.9178 -0.9068 -1.1050
 1000MOL0     H37957  12.187   3.709   3.416  2.1500 -1.6074  0.2826
 1000MOL0     H37958  12.266   3.617   3.596  5.0114  2.1156  3.2942
 1000MOL0     H37959  12.437   3.635   3.783  4.4162  0.0219  3.7971
 1000MOL0     H37960  12.515   3.495   3.848  0.1898 -0.0261  0.1901
 1000MOL0     H37961  12.349   3.501   3.867  0.9602 -1.0435 -0.1839
 1000MOL0     H37962  12.739   3.129   3.862 -1.2505  2.3021 -0.8038
 1000MOL0     H37963  12.808   2.983   4.023  2.4525  1.0987  1.8572
 1000MOL0     H37964  12.741   2.791   4.169  2.0743  1.0092 -2.2493
 1000MOL0     H37965  12.880   2.896   4.215 -0.4544 -0.0210 -1.1210
 1000MOL0     H37966  12.724   2.718   4.392 -1.2951  3.6454 -0.8029
 1000MOL0     H37967  12.892   2.693   4.335  0.2778 -1.1405  3.1072
 1000MOL0     H37968  12.893   2.773   4.566  0.3133  0.6234  0.4971
 1000MOL0     H37969  12.776   2.897   4.538 -1.5437 -2.0672  2.1365
 1000MOL0     H37970  12.926   3.045   4.452  0.4331  0.4162 -1.4371
 1000MOL0     H37971  13.041   2.921   4.396 -0.4536  1.5459 -1.5564
 1000MOL0     H37972  12.977   3.002   4.684  0.3653  0.7307  0.4314
 1000MOL0     H37973  13.094   2.875   4.621  0.5379 -0.1564 -4.3760
 1000MOL0     H37974  13.102   3.171   4.547 -2.0167 -1.0255 -0.3849
 1000MOL0     H37975  13.222   3.041   4.507 -0.9323 -0.1813 -0.4476
 1000MOL0     H37976  13.322   3.047   4.716  2.2266  3.1529 -1.1451
 1000MOL0     H37977  13.167   3.075   4.803 -0.6183  1.2191 -0.0642
 1000MOL0     H37978  13.333   3.257   4.820 -1.5923 -0.8593  2.4991
 1000MOL0     H37979  13.181   3.304   4.772 -0.1417 -2.1636  2.0972
 1000MOL0     H37980  12.450   3.067   4.260 -1.9445  1.7955 -0.5150
 1000MOL0     H37981  12.378   3.208   4.083 -0.4463 -1.4134  1.2904
 1000MOL0     H37982  12.436   3.163   3.475 -1.8832 -0.1927 -0.8700
 1000MOL0     H37983  12.300   3.278   3.335  0.6055 -0.6982  1.0563
 1000MOL0     H37984  10.528   2.855   2.673 -0.1614 -0.1307 -0.6303
 1000MOL0     H37985  10.490   2.679   2.528 -0.6189  2.8137  0.9329
 1000MOL0     H37986  10.533   2.416   2.258  1.9116  1.6253  0.1730
 1000MOL0     H37987  10.466   2.262   2.066 -3.5568  0.3811  1.2084
 1000MOL0     H37988  10.337   2.138   1.978  0.4618 -0.7353  2.1152
 1000MOL0     H37989  10.500   2.109   1.912  1.2357 -2.3433 -1.1297
 1000MOL0     H37990  10.437   1.887   1.854  0.5088  1.2543 -4.0830
 1000MOL0     H37991  10.347   2.003   1.763  0.5780  2.4668  0.7978
 1000MOL0     H37992  10.145   1.949   1.949 -2.2977 -2.8512 -0.4164
 1000MOL0     H37993  10.166   1.841   1.820  1.6745 -0.3265 -2.0474
 1000MOL0     H37994  10.305   1.815   2.092  1.1184  0.4859 -1.0406
 1000MOL0     H37995  10.335   1.712   1.964  1.4668  0.5850  2.5656
 1000MOL0     H37996   9.951   1.612   2.139 -0.3438  0.3427 -0.0307
 1000MOL0     H37997  10.518   1.932   2.333  0.2599 -0.4184 -1.4299
 1000MOL0     H37998  10.514   1.962   2.571 -0.8310  0.9721  1.9095
 1000MOL0     H37999  10.675   2.031   2.587 -1.8690 -3.7642  1.9384
 1000MOL0     H38000  10.526   2.130   2.622 -0.6319 -0.4921  1.1163
 1001MOL0     O38001   6.475   8.926   5.866 -0.0483 -0.1081  0.2265
 1001MOL0     C38002   6.571   8.904   5.788  0.1305 -0.4941 -0.3978
 1001MOL0     O38003   6.705   8.895   5.829  0.2632  0.4871  0.5534
 1001MOL0     C38004   6.733   8.904   5.963  0.6230 -0.0426  0.4399
 1001MOL0     C38005   6.723   9.024   6.036  1.1402  0.0311  0.3265
 1001MOL0     C38006   6.760   9.031   6.166  0.3652 -0.2523 -0.6154
 1001MOL0     C38007   6.827   8.927   6.224  0.0191 -0.5282  0.2555
 1001MOL0     O38008   6.877   8.910   6.347 -0.1809  0.2655  0.5933
 1001MOL0     C38009   6.826   8.995   6.447  0.7075 -0.1407  0.6722
 1001MOL0     C38010   6.861   8.939   6.587 -1.5769 -0.1504 -0.9628
 1001MOL0     C38011   7.004   8.988   6.639 -0.1710 -0.1338  0.2729
 1001MOL0     C38012   7.114   8.947   6.540 -1.0198 -0.3882 -0.1492
 1001MOL0     C38013   7.262   8.990   6.574 -0.0994 -0.0150 -0.3575
 1001MOL0     C38014   7.347   8.995   6.438  0.5412 -0.6248  0.2885
 1001MOL0     C38015   7.490   9.008   6.481  0.4614  0.0401 -0.0907
 1001MOL0     C38016   7.581   9.025   6.355 -0.8764  0.1054  0.3818
 1001MOL0     N38017   7.578   9.160   6.297  0.0776 -0.2745 -0.1190
 1001MOL0     C38018   7.539   9.208   6.173 -0.1286 -0.1445 -0.6523
 1001MOL0     C38019   7.596   9.331   6.163 -0.0901 -0.3120 -0.5866
 1001MOL0     C38020   7.581   9.428   6.044  0.5866 -0.6543 -0.2624
 1001MOL0     C38021   7.653   9.385   5.926 -0.1966 -0.0203  0.8755
 1001MOL0     C38022   7.806   9.398   5.925 -0.3173  0.1730  0.3044
 1001MOL0     C38023   7.860   9.356   5.794 -0.5322 -0.3739 -0.4988
 1001MOL0     O38024   7.830   9.460   5.695 -1.0416  0.0316 -0.3849
 1001MOL0     C38025   7.904   9.571   5.711 -0.4342 -0.0762 -0.2447
 1001MOL0     C38026   8.048   9.585   5.754  0.7743  0.2547 -0.9441
 1001MOL0     C38027   8.100   9.710   5.770 -0.0425 -0.6302 -0.1468
 1001MOL0     C38028   8.239   9.722   5.830  0.0468 -0.1133 -0.1692
 1001MOL0     C38029   8.015   9.831   5.754 -0.4721 -0.0542  0.1881
 1001MOL0     C38030   8.059   9.968   5.786  0.8736  0.4419 -0.5952
 1001MOL0     O38031   8.120   9.992   5.911 -0.1388 -0.5592  0.3628
 1001MOL0     C38032   8.164  10.117   5.947 -0.3193  0.0497  0.4598
 1001MOL0     C38033   8.112  10.241   5.911  0.1988 -0.6512 -0.2761
 1001MOL0     C38034   8.177  10.357   5.954 -0.6623  0.4206  0.3586
 1001MOL0     C38035   8.305  10.350   6.023  0.0963 -0.3985 -0.2283
 1001MOL0     O38036   8.356  10.463   6.080 -0.7318 -0.2069 -0.5321
 1001MOL0     C38037   8.504  10.469   6.079 -0.3109  0.2228  0.2579
 1001MOL0     C38038   8.545  10.506   5.928  0.5191  0.1271  0.0214
 1001MOL0     C38039   8.687  10.561   5.914  0.0573 -0.4967  0.8377
 1001MOL0     C38040   8.740  10.568   5.763  0.4795 -0.1092  0.8539
 1001MOL0     C38041   8.871  10.657   5.757 -0.3230 -0.0084  0.2499
 1001MOL0     C38042   8.943  10.653   5.631 -1.5743  0.3632  0.1215
 1001MOL0     C38043   8.889  10.750   5.524 -0.3025  1.0957 -0.2913
 1001MOL0     C38044   8.993  10.848   5.462  0.3088  0.5320 -0.0361
 1001MOL0    Cl38045   9.014  10.990   5.558 -0.2212  0.1808 -0.1001
 1001MOL0     C38046   8.345  10.224   6.068  0.4529 -0.1065  0.1634
 1001MOL0     C38047   8.271  10.106   6.036  0.8533 -0.5247  0.1877
 1001MOL0     O38048   8.045  10.050   5.696  0.4133 -0.0373  0.1236
 1001MOL0     C38049   7.884   9.815   5.712 -0.1609 -0.5600  0.5919
 1001MOL0     C38050   7.829   9.685   5.687 -0.6737 -0.2077 -0.1607
 1001MOL0     N38051   7.678   9.351   6.273  1.3395 -0.1792 -0.3039
 1001MOL0     N38052   7.662   9.256   6.350 -0.6140  0.4111 -0.2396
 1001MOL0     C38053   6.843   8.807   6.156 -0.1998  0.5421  0.6147
 1001MOL0     C38054   6.802   8.796   6.023 -0.3278  0.2806 -0.3438
 1001MOL0     C38055   6.538   8.879   5.645 -0.3051 -0.4066  0.4432
 1001MOL0     C38056   6.591   8.767   5.578 -0.1959  0.1013  0.2173
 1001MOL0     C38057   6.567   8.736   5.442  0.1873 -1.2381  0.3434
 1001MOL0     C38058   6.480   8.822   5.372  0.7357  0.5987  0.1473
 1001MOL0     O38059   6.469   8.797   5.239 -0.0281 -0.3915 -0.9656
 1001MOL0     C38060   6.352   8.851   5.177  0.0738 -0.2323 -0.6981
 1001MOL0     C38061   6.358   8.816   5.024  0.1477 -0.1795 -0.6973
 1001MOL0     C38062   6.490   8.812   4.947 -0.0490 -0.2672 -0.5140
 1001MOL0     C38063   6.535   8.669   4.919  0.4858 -0.0644  0.6560
 1001MOL0     C38064   6.658   8.655   4.840 -0.8296  0.7769  0.9448
 1001MOL0     C38065   6.752   8.642   4.763  0.0587  0.3753 -0.0600
 1001MOL0     C38066   6.404   8.913   5.444  0.4853 -0.4468 -0.0085
 1001MOL0     C38067   6.442   8.947   5.571  0.3050 -0.1714  0.1556
 1001MOL0     C38068   6.367   9.063   5.634 -1.1752  0.9717 -0.3796
 1001MOL0     H38069   6.680   9.109   5.986 -1.3609 -1.6669 -0.6114
 1001MOL0     H38070   6.761   9.122   6.224 -1.9105 -0.6207  0.0995
 1001MOL0     H38071   6.719   9.016   6.441  0.7839 -0.0233 -3.5126
 1001MOL0     H38072   6.868   9.094   6.426  2.4984 -1.1048 -0.5656
 1001MOL0     H38073   6.790   8.974   6.663  0.2844  1.8602 -0.0738
 1001MOL0     H38074   6.872   8.830   6.597  1.1022 -0.0293 -1.7589
 1001MOL0     H38075   6.992   9.093   6.667 -2.2083 -0.5627  1.2121
 1001MOL0     H38076   7.031   8.939   6.732  1.1524 -4.5517 -2.1568
 1001MOL0     H38077   7.111   8.840   6.515 -1.5155 -0.4885  0.3206
 1001MOL0     H38078   7.092   9.001   6.447  1.3566 -0.2209 -0.6782
 1001MOL0     H38079   7.308   8.911   6.635  2.3866  1.8853  0.3975
 1001MOL0     H38080   7.257   9.089   6.620 -2.8996 -0.3012  0.1291
 1001MOL0     H38081   7.336   8.912   6.368  0.0252  0.7010 -1.2724
 1001MOL0     H38082   7.314   9.084   6.382  1.7328  1.6280  2.9286
 1001MOL0     H38083   7.520   8.912   6.525  3.1267  2.3769  3.7684
 1001MOL0     H38084   7.515   9.089   6.550 -1.1093 -0.6657  1.3880
 1001MOL0     H38085   7.682   8.991   6.377  0.1721  0.8339 -2.9067
 1001MOL0     H38086   7.536   8.959   6.281 -0.3399  2.0901 -1.8303
 1001MOL0     H38087   7.473   9.153   6.107 -1.5322 -0.7722  1.1997
 1001MOL0     H38088   7.613   9.528   6.073  3.4440 -1.2575 -1.0621
 1001MOL0     H38089   7.476   9.436   6.012  1.1955 -1.8212 -2.8061
 1001MOL0     H38090   7.625   9.283   5.901 -0.8444  0.0255  1.3842
 1001MOL0     H38091   7.611   9.449   5.848  4.1937 -0.3068 -2.1107
 1001MOL0     H38092   7.838   9.499   5.951 -0.4438  0.8453 -1.9460
 1001MOL0     H38093   7.847   9.332   6.002  3.7330 -1.1340 -2.5874
 1001MOL0     H38094   7.965   9.327   5.800 -0.3636  0.1434 -0.8720
 1001MOL0     H38095   7.807   9.266   5.762 -0.1994  0.3040 -3.1185
 1001MOL0     H38096   8.114   9.499   5.754 -0.0568 -0.3927 -1.1888
 1001MOL0     H38097   8.317   9.652   5.800  1.1802  0.7445  0.6724
 1001MOL0     H38098   8.227   9.706   5.937  0.1705  0.1607 -0.1133
 1001MOL0     H38099   8.266   9.827   5.812  2.5885 -0.3590  1.6763
 1001MOL0     H38100   8.027  10.252   5.845 -0.2145  0.1785  0.3720
 1001MOL0     H38101   8.139  10.453   5.921  0.7957 -0.0509 -3.0188
 1001MOL0     H38102   8.538  10.551   6.144  0.4088  0.6813 -0.6706
 1001MOL0     H38103   8.539  10.373   6.119 -1.0417  0.2976  1.1192
 1001MOL0     H38104   8.535  10.420   5.862 -3.4453  1.6843 -1.7636
 1001MOL0     H38105   8.482  10.581   5.878 -0.0216 -1.2722 -1.4784
 1001MOL0     H38106   8.759  10.515   5.982  2.3405  3.2860  1.2683
 1001MOL0     H38107   8.682  10.666   5.945  1.2949  0.8838 -2.9783
 1001MOL0     H38108   8.666  10.614   5.697  1.3255 -0.8943 -0.6817
 1001MOL0     H38109   8.757  10.462   5.740  0.0325 -0.3804  1.7176
 1001MOL0     H38110   8.842  10.759   5.784  0.4052 -0.2161  1.9743
 1001MOL0     H38111   8.940  10.627   5.837  0.4375 -0.1979 -0.4657
 1001MOL0     H38112   8.917  10.551   5.601 -3.5386  1.3460 -1.8046
 1001MOL0     H38113   9.046  10.677   5.661 -1.7093  1.8560 -0.5044
 1001MOL0     H38114   8.808  10.816   5.557 -2.5729 -0.9789 -1.3405
 1001MOL0     H38115   8.847  10.686   5.445 -0.4799  0.4234  0.3451
 1001MOL0     H38116   8.949  10.868   5.364  0.2555 -0.9172 -0.3383
 1001MOL0     H38117   9.085  10.789   5.456 -0.3943 -0.8041  1.4685
 1001MOL0     H38118   8.428  10.209   6.135  1.2018  3.0285  0.0779
 1001MOL0     H38119   8.297  10.006   6.066 -2.3380 -0.9636  1.9499
 1001MOL0     H38120   7.816   9.899   5.700  0.0496 -0.4928 -0.1614
 1001MOL0     H38121   7.731   9.662   5.646  0.6856 -0.7308 -3.3789
 1001MOL0     H38122   6.887   8.716   6.196  0.9210  0.5418 -0.5537
 1001MOL0     H38123   6.793   8.702   5.969  0.6045  0.7224 -1.2951
 1001MOL0     H38124   6.672   8.721   5.633  0.3574  3.2350  2.2954
 1001MOL0     H38125   6.626   8.665   5.385  0.1807 -1.8770  1.1286
 1001MOL0     H38126   6.259   8.820   5.224  3.1631 -5.6381  2.8521
 1001MOL0     H38127   6.358   8.960   5.187 -1.9478 -0.0952 -0.4962
 1001MOL0     H38128   6.291   8.889   4.978  1.6035 -0.4356 -3.4155
 1001MOL0     H38129   6.316   8.716   5.014 -0.6332 -0.3069  2.6981
 1001MOL0     H38130   6.490   8.866   4.852 -2.3390 -0.8759 -0.9220
 1001MOL0     H38131   6.574   8.857   5.001 -1.5815  0.3550  1.4702
 1001MOL0     H38132   6.447   8.631   4.867 -0.0405  1.9978 -0.0530
 1001MOL0     H38133   6.561   8.612   5.009  1.1332  2.3764  2.1058
 1001MOL0     H38134   6.843   8.636   4.706  1.0409 -0.3259  1.5149
 1001MOL0     H38135   6.321   8.955   5.388  1.9016 -1.3901 -3.0684
 1001MOL0     H38136   6.303   9.104   5.556  0.6970 -2.1971 -3.9033
 1001MOL0     H38137   6.311   9.013   5.714  2.4014 -2.3071  0.3901
 1001MOL0     H38138   6.425   9.147   5.672  3.2266 -2.5035  1.6426
 1002MOL0     O38139   0.558   8.914   2.909  0.2289 -0.0628  0.4900
 1002MOL0     C38140   0.575   8.789   2.928  1.0408 -0.8723 -0.2680
 1002MOL0     O38141   0.693   8.734   2.972  0.5660  0.4548 -0.5176
 1002MOL0     C38142   0.803   8.813   2.967 -0.0829 -0.3368  0.9132
 1002MOL0     C38143   0.884   8.814   2.856 -0.2135 -1.4129  0.3699
 1002MOL0     C38144   1.004   8.883   2.848 -1.4335  0.0255  0.1113
 1002MOL0     C38145   1.042   8.964   2.957  0.3656  0.2929 -0.0722
 1002MOL0     O38146   1.162   9.027   2.954  0.2042  0.1422 -0.5799
 1002MOL0     C38147   1.168   9.137   2.853 -0.4467  0.6031 -0.1603
 1002MOL0     C38148   1.300   9.140   2.770 -0.6665  0.3415  0.3107
 1002MOL0     C38149   1.411   9.205   2.849  1.2705  0.6142  0.1715
 1002MOL0     C38150   1.531   9.215   2.763 -0.3333 -0.5280 -0.2791
 1002MOL0     C38151   1.643   9.284   2.845 -0.1574  0.5985 -0.9839
 1002MOL0     C38152   1.766   9.309   2.753 -0.6395 -0.5749 -0.9858
 1002MOL0     C38153   1.747   9.399   2.635 -0.4388  0.1284 -1.2262
 1002MOL0     C38154   1.886   9.451   2.580  0.6212 -0.2552 -0.0141
 1002MOL0     N38155   1.934   9.351   2.488 -0.5758 -0.3749 -0.5309
 1002MOL0     C38156   2.001   9.235   2.503  0.4693 -0.1129 -0.0732
 1002MOL0     C38157   2.046   9.192   2.383  1.1475  0.1089  0.1660
 1002MOL0     C38158   2.090   9.056   2.348 -0.6702  0.7061  0.7536
 1002MOL0     C38159   1.971   8.973   2.290  0.3760 -0.0404  0.0358
 1002MOL0     C38160   1.870   8.935   2.403 -0.3744 -0.2003  0.3302
 1002MOL0     C38161   1.738   9.012   2.389  0.3198  0.2963  0.9987
 1002MOL0     O38162   1.651   8.907   2.429 -0.3306  0.0001  0.5028
 1002MOL0     C38163   1.513   8.913   2.396 -1.1315  0.7961 -0.4051
 1002MOL0     C38164   1.448   9.018   2.325  0.2908 -0.1668  0.6209
 1002MOL0     C38165   1.311   9.032   2.328 -0.4763  0.0483 -0.3034
 1002MOL0     C38166   1.247   9.139   2.241 -0.1895 -0.3585 -0.5374
 1002MOL0     C38167   1.226   8.935   2.386 -0.8214 -0.1254  0.3473
 1002MOL0     C38168   1.082   8.928   2.385  0.3731 -0.5890  0.1285
 1002MOL0     O38169   1.020   8.864   2.494 -0.4794  0.2647 -0.0950
 1002MOL0     C38170   0.885   8.839   2.485 -0.9747 -0.2311  0.7133
 1002MOL0     C38171   0.824   8.736   2.415  0.0007  0.4342 -0.1659
 1002MOL0     C38172   0.685   8.725   2.414 -0.5773 -0.8692  0.5682
 1002MOL0     C38173   0.602   8.819   2.488 -0.4499 -0.0375 -0.5222
 1002MOL0     O38174   0.465   8.794   2.494  0.1100  0.0479  0.0997
 1002MOL0     C38175   0.396   8.780   2.375  0.2465 -0.3382  0.0714
 1002MOL0     C38176   0.402   8.898   2.288 -0.9367 -0.2931  0.2347
 1002MOL0     C38177   0.314   8.899   2.171 -0.5978 -0.7038 -0.1338
 1002MOL0     C38178   0.334   9.004   2.063 -0.2603  0.2800  0.3979
 1002MOL0     C38179   0.220   8.997   1.964  0.5360  0.4307 -0.0213
 1002MOL0     C38180   0.258   9.054   1.830 -0.4672 -0.3542  0.7915
 1002MOL0     C38181   0.127   9.083   1.744  0.1716  0.3947  0.3093
 1002MOL0     C38182   0.033   9.189   1.782  0.3660 -0.6860  0.8265
 1002MOL0    Cl38183  -0.091   9.180   1.650  0.3361  0.0773  0.1613
 1002MOL0     C38184   0.667   8.920   2.555  0.0933 -0.5210 -0.5335
 1002MOL0     C38185   0.809   8.933   2.552 -0.1288  0.9740 -0.4811
 1002MOL0     O38186   1.020   8.976   2.293  0.1449  0.2785 -0.8592
 1002MOL0     C38187   1.292   8.829   2.452 -0.9953  1.2799  0.0006
 1002MOL0     C38188   1.431   8.821   2.461 -0.1046  0.8143 -0.2757
 1002MOL0     N38189   1.995   9.282   2.287 -0.1190 -0.7517 -0.4207
 1002MOL0     N38190   1.929   9.373   2.356  0.4197 -0.3148 -0.1251
 1002MOL0     C38191   0.960   8.964   3.068 -0.0474  0.4659 -1.3631
 1002MOL0     C38192   0.846   8.881   3.076 -0.0812  0.9855 -0.2040
 1002MOL0     C38193   0.477   8.688   2.903  0.0186 -0.1900 -0.0695
 1002MOL0     C38194   0.516   8.554   2.884  1.1084  0.7576  0.2859
 1002MOL0     C38195   0.416   8.462   2.845 -0.8028  0.4801  0.9955
 1002MOL0     C38196   0.283   8.491   2.819  0.7652 -0.9706  0.4411
 1002MOL0     O38197   0.212   8.381   2.783  0.3539  0.4903 -0.6209
 1002MOL0     C38198   0.073   8.401   2.765 -1.3920  0.2595 -0.0958
 1002MOL0     C38199  -0.007   8.276   2.719 -0.6142 -0.0420 -0.0231
 1002MOL0     C38200  -0.148   8.294   2.658  0.1914  0.1302  1.1012
 1002MOL0     C38201  -0.174   8.199   2.546  0.8498  0.7068  0.3304
 1002MOL0     C38202  -0.318   8.219   2.512 -0.6006 -0.1903 -0.3898
 1002MOL0     C38203  -0.434   8.236   2.484 -0.7253  0.0834 -0.0259
 1002MOL0     C38204   0.242   8.623   2.846  0.2584 -0.1508 -0.2791
 1002MOL0     C38205   0.333   8.719   2.892 -0.5712 -0.1475  0.5512
 1002MOL0     C38206   0.284   8.858   2.950 -0.2475 -0.1790  0.1224
 1002MOL0     H38207   0.852   8.762   2.766  2.6798 -1.8527 -0.4927
 1002MOL0     H38208   1.059   8.878   2.754 -2.5651 -0.0552 -0.5635
 1002MOL0     H38209   1.144   9.229   2.907  0.2845 -1.0035  3.1719
 1002MOL0     H38210   1.089   9.125   2.778 -1.3595  2.8563  0.3466
 1002MOL0     H38211   1.314   9.039   2.732 -2.4199 -0.2477  1.1155
 1002MOL0     H38212   1.288   9.203   2.682  0.2487  0.0412 -0.0373
 1002MOL0     H38213   1.387   9.307   2.879  0.2792  0.6956 -0.8265
 1002MOL0     H38214   1.425   9.138   2.935 -1.4877  0.0762  0.3157
 1002MOL0     H38215   1.575   9.120   2.732  2.5502  0.1398  1.3237
 1002MOL0     H38216   1.498   9.266   2.673  1.2365 -0.0935 -0.6455
 1002MOL0     H38217   1.666   9.215   2.927  2.5216  4.0602  1.4960
 1002MOL0     H38218   1.632   9.385   2.887  0.4577  0.4849 -0.5300
 1002MOL0     H38219   1.844   9.346   2.820 -0.5736 -2.6629  0.2047
 1002MOL0     H38220   1.802   9.207   2.735  0.1535 -1.1997  3.1740
 1002MOL0     H38221   1.694   9.486   2.675 -3.2132 -2.8702  2.4203
 1002MOL0     H38222   1.684   9.353   2.558 -4.0335 -2.2344  2.7178
 1002MOL0     H38223   1.877   9.541   2.519  0.6094  0.6998  1.3722
 1002MOL0     H38224   1.961   9.483   2.653 -1.2614 -0.3192  2.0135
 1002MOL0     H38225   1.992   9.161   2.582 -2.0480 -0.5344 -0.6559
 1002MOL0     H38226   2.141   9.014   2.436 -0.2964  1.7214  1.0293
 1002MOL0     H38227   2.175   9.054   2.278 -0.8838 -2.6054  0.4132
 1002MOL0     H38228   1.927   9.021   2.202  1.3167  1.7704  0.5126
 1002MOL0     H38229   2.010   8.878   2.253 -0.1966  0.0167 -0.7501
 1002MOL0     H38230   1.846   8.829   2.388 -1.0413 -0.0944  0.5856
 1002MOL0     H38231   1.916   8.948   2.502  1.9209  2.1665 -0.9358
 1002MOL0     H38232   1.726   9.100   2.453  1.1042  1.1715 -0.0337
 1002MOL0     H38233   1.710   9.045   2.289 -2.8597  1.3757  2.1306
 1002MOL0     H38234   1.508   9.090   2.271  0.6897  0.8424  2.3552
 1002MOL0     H38235   1.157   9.181   2.287  0.3174  2.3276 -1.8087
 1002MOL0     H38236   1.213   9.095   2.146 -1.7438  0.4462 -0.3794
 1002MOL0     H38237   1.323   9.217   2.230  1.8626 -1.6052  3.1310
 1002MOL0     H38238   0.881   8.653   2.374 -2.0970 -1.6827  0.9539
 1002MOL0     H38239   0.630   8.647   2.363  0.0990 -1.8240  1.2727
 1002MOL0     H38240   0.420   8.684   2.327  1.1605 -1.0861  1.9207
 1002MOL0     H38241   0.289   8.760   2.387  0.0560 -2.9526 -3.9965
 1002MOL0     H38242   0.387   8.987   2.350 -0.2362  0.1645 -0.2356
 1002MOL0     H38243   0.504   8.894   2.248 -1.0446  0.3848 -0.1165
 1002MOL0     H38244   0.211   8.905   2.209 -1.1535 -1.1696 -1.5241
 1002MOL0     H38245   0.302   8.795   2.139 -0.6081 -0.6729 -0.2298
 1002MOL0     H38246   0.424   8.982   2.004  0.0704  2.9628 -0.2342
 1002MOL0     H38247   0.353   9.102   2.108 -0.7029  1.7273 -2.3264
 1002MOL0     H38248   0.184   8.894   1.962  1.5262 -0.0251  2.3355
 1002MOL0     H38249   0.142   9.062   2.004  0.2572  0.2561 -0.2812
 1002MOL0     H38250   0.312   8.986   1.764 -1.9928  0.4161 -1.4003
 1002MOL0     H38251   0.313   9.147   1.846 -0.7485 -0.0258 -0.0640
 1002MOL0     H38252   0.080   8.984   1.736  1.9213 -0.6224  1.6893
 1002MOL0     H38253   0.162   9.118   1.647 -0.8959  0.6681  0.0114
 1002MOL0     H38254   0.101   9.274   1.777  1.9343 -1.7770  2.3328
 1002MOL0     H38255  -0.002   9.184   1.885 -1.3169  4.2747  0.7565
 1002MOL0     H38256   0.621   8.993   2.621 -1.4794 -1.5717 -0.4197
 1002MOL0     H38257   0.867   9.012   2.600  0.6373  0.7373 -0.9933
 1002MOL0     H38258   1.227   8.756   2.499 -0.6031  1.1868  0.4063
 1002MOL0     H38259   1.471   8.740   2.521 -2.2328 -1.9841 -2.3309
 1002MOL0     H38260   0.993   9.018   3.155  2.5998 -0.4561 -1.6984
 1002MOL0     H38261   0.783   8.880   3.164  3.4548 -2.7171  2.6771
 1002MOL0     H38262   0.614   8.508   2.882  0.1078 -1.4998 -1.1802
 1002MOL0     H38263   0.446   8.359   2.829  1.2827  1.1040  0.5031
 1002MOL0     H38264   0.016   8.431   2.854 -2.2058 -0.1448 -0.4727
 1002MOL0     H38265   0.058   8.482   2.693  0.6165 -0.3177 -1.2592
 1002MOL0     H38266  -0.018   8.206   2.803  1.3030  0.1169  0.4030
 1002MOL0     H38267   0.055   8.233   2.640 -0.5073 -0.1886  0.1382
 1002MOL0     H38268  -0.229   8.283   2.730 -0.7374 -2.0907 -0.1652
 1002MOL0     H38269  -0.151   8.395   2.615  1.0583  0.1189  1.0052
 1002MOL0     H38270  -0.146   8.098   2.578 -2.3230  0.0637  1.3996
 1002MOL0     H38271  -0.110   8.223   2.460  0.7281 -0.1199 -0.0063
 1002MOL0     H38272  -0.534   8.250   2.448 -0.1113 -1.0263 -2.3961
 1002MOL0     H38273   0.136   8.641   2.833 -0.1244  1.0595  3.4194
 1002MOL0     H38274   0.331   8.878   3.046  3.0881 -0.6213 -1.2678
 1002MOL0     H38275   0.307   8.939   2.879 -0.6340  0.7683  1.0492
 1002MOL0     H38276   0.175   8.860   2.954 -0.2650  0.8605 -0.3628
 1003MOL0     O38277   5.357   2.688  10.954  0.9207  0.7490 -0.7432
 1003MOL0     C38278   5.319   2.572  10.946  0.3950  0.0753  0.8235
 1003MOL0     O38279   5.217   2.529  10.863 -0.6686  0.0574 -0.0231
 1003MOL0     C38280   5.157   2.612  10.768 -0.0690 -0.5950 -0.4802
 1003MOL0     C38281   5.105   2.743  10.815 -0.5023 -0.7573 -0.6545
 1003MOL0     C38282   5.027   2.822  10.729 -0.7845  0.6259 -0.4134
 1003MOL0     C38283   5.003   2.777  10.600  0.1874 -0.2319  0.1974
 1003MOL0     O38284   4.926   2.845  10.512  0.4020 -0.1222 -0.4481
 1003MOL0     C38285   4.782   2.864  10.546 -0.1472  0.3111 -0.5166
 1003MOL0     C38286   4.709   2.953  10.443 -0.7497 -0.2918 -0.6857
 1003MOL0     C38287   4.554   2.964  10.494  0.5621 -1.2511  0.7865
 1003MOL0     C38288   4.526   3.089  10.589 -0.5911  0.9630  0.0419
 1003MOL0     C38289   4.596   3.094  10.716  0.4327  0.4492 -0.3703
 1003MOL0     C38290   4.528   3.207  10.801  0.8199  0.9680  0.9692
 1003MOL0     C38291   4.580   3.218  10.953  0.5019 -0.7654 -0.2705
 1003MOL0     C38292   4.723   3.278  10.966  0.0482  0.0990  0.5935
 1003MOL0     N38293   4.742   3.288  11.110 -0.5619 -0.3780 -0.2736
 1003MOL0     C38294   4.782   3.179  11.187 -0.8138 -0.2969 -0.6037
 1003MOL0     C38295   4.801   3.241  11.310  0.4158  0.7196  0.0971
 1003MOL0     C38296   4.854   3.162  11.433 -0.3583 -0.0922  0.5468
 1003MOL0     C38297   5.004   3.196  11.454 -0.1048 -0.3516  0.5918
 1003MOL0     C38298   5.104   3.114  11.388  0.5133 -1.2969 -0.2126
 1003MOL0     C38299   5.248   3.169  11.408  0.1074  0.1335 -0.1047
 1003MOL0     O38300   5.270   3.296  11.347  1.2013  0.4776  0.0672
 1003MOL0     C38301   5.402   3.319  11.316 -0.5187  0.3197  0.1689
 1003MOL0     C38302   5.462   3.245  11.216 -0.5131  0.9194  0.3522
 1003MOL0     C38303   5.594   3.254  11.193 -1.1043 -0.7884 -0.0072
 1003MOL0     C38304   5.651   3.155  11.097  0.0636  0.6074 -0.3143
 1003MOL0     C38305   5.669   3.349  11.258  0.5148 -0.6142  0.1947
 1003MOL0     C38306   5.802   3.378  11.221  0.4438  0.7928 -0.2281
 1003MOL0     O38307   5.826   3.397  11.089 -0.4659 -0.1794 -0.4923
 1003MOL0     C38308   5.955   3.386  11.037  0.6413 -0.5797  0.0908
 1003MOL0     C38309   5.980   3.470  10.923  0.6575  0.6652 -0.4926
 1003MOL0     C38310   6.113   3.497  10.880 -0.8455  0.5028  0.1775
 1003MOL0     C38311   6.218   3.418  10.932  0.7202  0.8459 -0.2587
 1003MOL0     O38312   6.355   3.422  10.894  1.1720 -0.8029 -0.2472
 1003MOL0     C38313   6.389   3.485  10.767  0.2651  0.0627  0.2769
 1003MOL0     C38314   6.544   3.464  10.736  0.5450  0.4749 -0.8491
 1003MOL0     C38315   6.592   3.322  10.753  0.0877 -0.7869  0.8951
 1003MOL0     C38316   6.498   3.226  10.670  0.1645  0.5146 -0.5199
 1003MOL0     C38317   6.541   3.080  10.701 -0.3757 -0.7535 -0.0147
 1003MOL0     C38318   6.448   2.982  10.629  1.4881 -0.0179  0.1652
 1003MOL0     C38319   6.476   2.976  10.476 -0.2578 -0.4983 -0.3260
 1003MOL0     C38320   6.376   2.907  10.383 -0.4064 -0.1243 -0.3076
 1003MOL0    Cl38321   6.208   2.980  10.406  0.6572  0.3077  0.2873
 1003MOL0     C38322   6.188   3.326  11.035 -0.5667  0.7413 -0.2757
 1003MOL0     C38323   6.062   3.312  11.090  0.2132 -0.6430  0.0540
 1003MOL0     O38324   5.873   3.412  11.314 -1.1257 -0.3442  0.4066
 1003MOL0     C38325   5.604   3.435  11.352  0.3655  0.2592 -0.5951
 1003MOL0     C38326   5.470   3.411  11.386  0.4415  0.6135 -0.8634
 1003MOL0     N38327   4.778   3.377  11.307  0.1409 -0.6723  0.9670
 1003MOL0     N38328   4.737   3.402  11.189  0.4766 -0.4470  0.0239
 1003MOL0     C38329   5.051   2.656  10.552 -0.4693 -0.6187 -0.8500
 1003MOL0     C38330   5.124   2.573  10.642  0.7574 -0.2767 -0.2866
 1003MOL0     C38331   5.407   2.475  11.026 -0.1231  0.3464  1.0276
 1003MOL0     C38332   5.481   2.513  11.141 -0.3104 -0.3151  0.2426
 1003MOL0     C38333   5.575   2.431  11.203  0.5631  0.4727 -0.6362
 1003MOL0     C38334   5.591   2.300  11.153  0.0128 -0.2320  0.4186
 1003MOL0     O38335   5.665   2.223  11.238 -0.0898 -0.1034 -0.3864
 1003MOL0     C38336   5.648   2.078  11.233  0.3247  0.3410  0.5392
 1003MOL0     C38337   5.688   2.007  11.365 -0.1965  0.0548 -0.3999
 1003MOL0     C38338   5.835   2.027  11.387  0.5547  0.4812 -0.4534
 1003MOL0     C38339   5.873   1.943  11.509 -0.6678 -0.3884  0.4533
 1003MOL0     C38340   6.014   1.938  11.535  0.5131 -1.2164  0.1212
 1003MOL0     C38341   6.134   1.937  11.561 -0.1808 -0.3276 -0.4839
 1003MOL0     C38342   5.516   2.255  11.041 -0.5196  0.5209  0.8742
 1003MOL0     C38343   5.433   2.339  10.980 -0.2617 -0.1834 -0.5457
 1003MOL0     C38344   5.378   2.280  10.853  0.3992 -0.7304 -0.4279
 1003MOL0     H38345   5.132   2.767  10.918 -0.5111  0.3800 -0.8977
 1003MOL0     H38346   4.978   2.917  10.749  0.8025  1.5888 -0.8846
 1003MOL0     H38347   4.763   2.888  10.651 -2.0328  0.1929 -0.7899
 1003MOL0     H38348   4.734   2.766  10.535  0.7571 -0.1937 -0.0378
 1003MOL0     H38349   4.758   3.049  10.463 -4.3566  1.6866 -0.3582
 1003MOL0     H38350   4.720   2.932  10.336  1.7435  1.1052 -0.7598
 1003MOL0     H38351   4.500   2.994  10.404 -0.9090  1.8278  2.4956
 1003MOL0     H38352   4.513   2.868  10.526 -0.4215 -1.5051 -1.1309
 1003MOL0     H38353   4.557   3.180  10.537 -0.4560  1.5689  1.1545
 1003MOL0     H38354   4.417   3.089  10.599 -0.7104 -0.6372 -0.7974
 1003MOL0     H38355   4.703   3.117  10.710  0.4067  0.4899 -0.6806
 1003MOL0     H38356   4.593   2.999  10.769  2.1461 -0.0685 -1.1157
 1003MOL0     H38357   4.542   3.304  10.751  0.8199  0.2020 -0.6076
 1003MOL0     H38358   4.420   3.191  10.806  0.3739  2.1712 -2.0357
 1003MOL0     H38359   4.555   3.140  11.025  4.4681  0.9538  3.4492
 1003MOL0     H38360   4.522   3.299  10.998  0.4953 -0.7155 -0.3676
 1003MOL0     H38361   4.799   3.211  10.924  1.9755  1.0762  2.3474
 1003MOL0     H38362   4.728   3.369  10.906  0.0671  0.4540  1.1344
 1003MOL0     H38363   4.811   3.079  11.154 -0.2677  0.0277 -1.1472
 1003MOL0     H38364   4.839   3.054  11.419  1.0836 -0.5761  2.3316
 1003MOL0     H38365   4.795   3.185  11.523 -0.1479 -1.3558  1.0276
 1003MOL0     H38366   5.021   3.297  11.416  0.1197 -1.5095 -2.6250
 1003MOL0     H38367   5.034   3.208  11.559  0.1902  2.1370  0.2677
 1003MOL0     H38368   5.110   3.015  11.434 -1.8939 -0.9668  0.9530
 1003MOL0     H38369   5.080   3.117  11.281  0.4446  1.5162 -0.2153
 1003MOL0     H38370   5.249   3.162  11.517 -1.4548  0.8452 -0.0141
 1003MOL0     H38371   5.316   3.099  11.359  2.2766  2.7881 -1.1540
 1003MOL0     H38372   5.403   3.172  11.163 -0.6333  0.6898  0.7960
 1003MOL0     H38373   5.646   3.199  10.997 -0.2546  1.8226  0.2186
 1003MOL0     H38374   5.588   3.066  11.109 -0.3318  0.9543  0.2248
 1003MOL0     H38375   5.752   3.121  11.119  1.0465  1.6314 -2.8356
 1003MOL0     H38376   5.898   3.534  10.889 -1.3541  0.3055  3.1471
 1003MOL0     H38377   6.122   3.574  10.804  1.7586 -0.0500 -0.1622
 1003MOL0     H38378   6.334   3.436  10.686  2.4166 -2.5675  0.2962
 1003MOL0     H38379   6.360   3.591  10.776 -2.1658 -0.6549  2.1179
 1003MOL0     H38380   6.559   3.501  10.634  1.8790  0.2792 -0.7434
 1003MOL0     H38381   6.609   3.518  10.806  1.0331 -3.6578  2.2915
 1003MOL0     H38382   6.607   3.295  10.858  1.1061  0.4124  1.0837
 1003MOL0     H38383   6.689   3.328  10.702 -0.2720 -1.6178  0.0879
 1003MOL0     H38384   6.517   3.252  10.565 -1.8199 -1.2571 -1.3923
 1003MOL0     H38385   6.394   3.225  10.703  1.5695 -0.3585  4.9569
 1003MOL0     H38386   6.643   3.075  10.661  0.8263  2.1741  2.2922
 1003MOL0     H38387   6.549   3.074  10.810  4.6016  1.5836  0.0477
 1003MOL0     H38388   6.343   2.999  10.653  2.0392 -0.1179  3.0855
 1003MOL0     H38389   6.475   2.883  10.665 -1.3023 -2.8503 -4.5743
 1003MOL0     H38390   6.574   2.928  10.469  0.8420  1.3879  1.2716
 1003MOL0     H38391   6.482   3.079  10.441  0.3206  0.2444  1.7994
 1003MOL0     H38392   6.370   2.802  10.413 -2.1411 -0.1941 -0.7957
 1003MOL0     H38393   6.404   2.908  10.277 -1.7065  3.0412 -0.7166
 1003MOL0     H38394   6.272   3.267  11.068  0.8281  3.4965  1.5258
 1003MOL0     H38395   6.039   3.257  11.181  0.3145  0.3793  0.7093
 1003MOL0     H38396   5.658   3.515  11.402 -1.9353  0.8102  1.2181
 1003MOL0     H38397   5.419   3.482  11.450  1.9082  0.3602  0.6356
 1003MOL0     H38398   5.008   2.621  10.458 -4.8887  1.8855 -0.0348
 1003MOL0     H38399   5.138   2.473  10.601  0.0423 -2.1330  3.5256
 1003MOL0     H38400   5.462   2.611  11.183 -2.0001 -0.2664 -0.5452
 1003MOL0     H38401   5.621   2.469  11.293 -0.4640  0.2688 -0.0151
 1003MOL0     H38402   5.544   2.051  11.214 -0.6349  2.3497  2.4667
 1003MOL0     H38403   5.709   2.030  11.156  0.6264 -0.8267  1.4956
 1003MOL0     H38404   5.672   1.899  11.362  0.4938 -0.1873  1.9330
 1003MOL0     H38405   5.624   2.053  11.441 -2.0264  2.2425 -3.0991
 1003MOL0     H38406   5.902   1.994  11.307  1.7368  1.0494  0.2672
 1003MOL0     H38407   5.862   2.130  11.414 -1.7366  0.0000  4.9086
 1003MOL0     H38408   5.838   1.839  11.507  2.1171 -1.4449  1.4529
 1003MOL0     H38409   5.821   1.998  11.588 -0.9977  4.1066 -2.5080
 1003MOL0     H38410   6.234   1.966  11.587  0.3384 -2.7678  0.5265
 1003MOL0     H38411   5.547   2.162  10.994  0.9918  0.9018  1.0549
 1003MOL0     H38412   5.390   2.351  10.770 -1.8269  0.7336  0.4062
 1003MOL0     H38413   5.424   2.186  10.822  0.1158 -0.4068 -1.8976
 1003MOL0     H38414   5.270   2.270  10.864  0.4408  0.1157  0.9882
 1004MOL0     O38415   5.111   4.975   9.556  0.2797 -0.1630  0.7878
 1004MOL0     C38416   5.106   4.913   9.662 -0.0915  0.1876 -0.2186
 1004MOL0     O38417   5.038   4.795   9.681 -0.1230  0.1025 -0.7931
 1004MOL0     C38418   4.954   4.755   9.574 -1.7081  0.5703  0.3332
 1004MOL0     C38419   5.014   4.716   9.448  0.4168 -0.0051 -1.2254
 1004MOL0     C38420   4.933   4.665   9.349 -0.0524 -0.3393  0.1011
 1004MOL0     C38421   4.797   4.635   9.372 -0.2234 -0.6755 -0.1407
 1004MOL0     O38422   4.727   4.585   9.266 -0.3442 -0.2074  0.5731
 1004MOL0     C38423   4.583   4.566   9.282 -1.2712  0.1479 -0.4466
 1004MOL0     C38424   4.526   4.508   9.158 -0.2729  0.7090 -0.2736
 1004MOL0     C38425   4.547   4.350   9.134  0.0438  0.4449  0.3256
 1004MOL0     C38426   4.679   4.304   9.067 -0.3242  0.3081  1.0196
 1004MOL0     C38427   4.654   4.200   8.959  0.1211 -0.1485 -0.3988
 1004MOL0     C38428   4.575   4.066   8.984  0.7176 -0.1322  0.8563
 1004MOL0     C38429   4.636   3.991   9.103 -0.1473 -0.1064  0.4190
 1004MOL0     C38430   4.603   3.843   9.115 -0.1678  0.7082  0.9134
 1004MOL0     N38431   4.633   3.780   8.982 -0.2463 -0.5450  0.6871
 1004MOL0     C38432   4.748   3.713   8.961  0.1474 -0.2479  0.7122
 1004MOL0     C38433   4.744   3.667   8.833 -0.1490 -0.5693  0.0856
 1004MOL0     C38434   4.863   3.616   8.765  1.1776  0.9856 -0.0791
 1004MOL0     C38435   4.965   3.720   8.711 -0.4521  0.1388 -0.6278
 1004MOL0     C38436   4.901   3.846   8.654  0.6659 -0.3150  0.5248
 1004MOL0     C38437   4.991   3.914   8.557 -0.3882 -0.4847  0.0594
 1004MOL0     O38438   4.937   4.048   8.534  0.6541  0.0228 -0.1618
 1004MOL0     C38439   5.009   4.142   8.463  0.1067  0.8543  0.8061
 1004MOL0     C38440   4.943   4.244   8.396  0.4920  0.8010 -0.1985
 1004MOL0     C38441   5.023   4.332   8.311  0.0112 -0.4206 -0.3109
 1004MOL0     C38442   4.944   4.436   8.233 -0.4986 -1.3792 -0.2122
 1004MOL0     C38443   5.163   4.317   8.293 -0.2078 -0.1290 -0.5963
 1004MOL0     C38444   5.244   4.419   8.220  0.2671 -0.4732  0.1206
 1004MOL0     O38445   5.366   4.443   8.266 -0.8317 -0.5038 -0.2878
 1004MOL0     C38446   5.468   4.519   8.211  0.5303 -0.1100  0.3975
 1004MOL0     C38447   5.601   4.489   8.242  0.6076  0.8380 -0.7215
 1004MOL0     C38448   5.703   4.550   8.171  0.6245  0.2492  0.6339
 1004MOL0     C38449   5.675   4.647   8.074  0.3879 -0.4435 -0.4826
 1004MOL0     O38450   5.773   4.712   8.001  0.0165 -0.3588 -0.6762
 1004MOL0     C38451   5.754   4.715   7.865  1.5930  0.2645 -0.5875
 1004MOL0     C38452   5.728   4.863   7.818  0.3602  0.2627  0.0385
 1004MOL0     C38453   5.834   4.953   7.859  0.1544  1.0339  0.6745
 1004MOL0     C38454   5.804   5.103   7.849  0.1982 -0.3881 -1.3317
 1004MOL0     C38455   5.726   5.158   7.731 -0.2722  0.1489 -0.6299
 1004MOL0     C38456   5.743   5.300   7.683  0.0789 -0.6798 -0.2698
 1004MOL0     C38457   5.684   5.407   7.773  0.2575  0.5478  0.3590
 1004MOL0     C38458   5.720   5.554   7.722 -0.1747  0.7462 -0.5795
 1004MOL0    Cl38459   5.652   5.591   7.558  0.2888  0.0204 -0.3482
 1004MOL0     C38460   5.543   4.687   8.055  0.7218  0.6465  0.3454
 1004MOL0     C38461   5.445   4.619   8.122  0.1061  0.0715 -0.8731
 1004MOL0     O38462   5.197   4.459   8.109  0.5642  0.4091  0.2312
 1004MOL0     C38463   5.220   4.227   8.378  0.8448  0.6932 -0.4447
 1004MOL0     C38464   5.150   4.138   8.458  0.3668 -0.8922  0.0791
 1004MOL0     N38465   4.619   3.713   8.777  0.2267 -0.6750 -0.1663
 1004MOL0     N38466   4.548   3.756   8.877  0.5348 -0.2516 -0.0617
 1004MOL0     C38467   4.746   4.659   9.502  0.3492  0.1610  0.1501
 1004MOL0     C38468   4.825   4.713   9.602 -0.6619 -0.5413 -0.4145
 1004MOL0     C38469   5.214   4.943   9.758 -1.2286  0.4696  0.1846
 1004MOL0     C38470   5.336   5.000   9.700  0.2079  0.6053  0.3383
 1004MOL0     C38471   5.437   5.053   9.788  0.8030  0.5545  0.0601
 1004MOL0     C38472   5.428   5.050   9.931  0.5967  0.2529  0.4245
 1004MOL0     O38473   5.521   5.113  10.009  0.4637 -0.1216 -0.4383
 1004MOL0     C38474   5.484   5.136  10.143 -0.5456 -0.4080 -0.1847
 1004MOL0     C38475   5.592   5.229  10.198 -0.2335  0.4809  0.2088
 1004MOL0     C38476   5.731   5.159  10.196 -1.3428  0.6610 -0.4151
 1004MOL0     C38477   5.841   5.265  10.235 -0.3140  0.1877 -0.8156
 1004MOL0     C38478   5.977   5.201  10.224  0.3167 -1.1494 -1.1104
 1004MOL0     C38479   6.086   5.150  10.225 -0.0338 -0.4349  0.5919
 1004MOL0     C38480   5.313   4.983   9.978 -0.3584  0.3706  0.7247
 1004MOL0     C38481   5.209   4.931   9.902 -1.0793 -0.3590 -0.2011
 1004MOL0     C38482   5.095   4.863   9.976  0.0432 -0.6475  0.2923
 1004MOL0     H38483   5.122   4.709   9.432  0.6471 -3.8982  0.7235
 1004MOL0     H38484   4.960   4.633   9.248 -1.9680  2.0272 -1.2629
 1004MOL0     H38485   4.534   4.660   9.309  0.3664  0.5948  1.1681
 1004MOL0     H38486   4.559   4.502   9.367 -0.0363  1.9194  1.3317
 1004MOL0     H38487   4.419   4.523   9.170 -0.5248 -1.0156 -0.2140
 1004MOL0     H38488   4.576   4.548   9.068  2.8948 -1.1315  0.5131
 1004MOL0     H38489   4.534   4.287   9.223 -0.0368 -2.3070 -1.5137
 1004MOL0     H38490   4.459   4.310   9.084 -1.4755 -1.9054  4.3753
 1004MOL0     H38491   4.722   4.389   9.014 -3.0871  1.2713  0.1348
 1004MOL0     H38492   4.752   4.260   9.136 -0.6871 -1.4417  0.3611
 1004MOL0     H38493   4.748   4.178   8.908 -0.8355 -0.6205 -2.0423
 1004MOL0     H38494   4.589   4.242   8.882 -1.0201 -1.6674 -0.3030
 1004MOL0     H38495   4.473   4.095   9.009  1.0667  3.7277 -1.3467
 1004MOL0     H38496   4.579   4.016   8.887 -2.9961 -0.0949  0.5275
 1004MOL0     H38497   4.600   4.038   9.195  0.8091  1.6318 -0.0523
 1004MOL0     H38498   4.744   4.005   9.102  0.1742 -1.4036  4.1882
 1004MOL0     H38499   4.656   3.783   9.189  1.7994 -0.4221 -1.2794
 1004MOL0     H38500   4.499   3.823   9.142  0.5178 -2.4562  1.5933
 1004MOL0     H38501   4.829   3.709   9.033  0.6625  1.1698  0.2361
 1004MOL0     H38502   4.820   3.554   8.686 -0.2191 -0.1972  1.5258
 1004MOL0     H38503   4.903   3.546   8.839 -1.3571 -4.3115 -3.1168
 1004MOL0     H38504   5.016   3.746   8.805 -2.3521  0.9390  0.2237
 1004MOL0     H38505   5.038   3.674   8.644 -1.3385  0.8183 -2.1148
 1004MOL0     H38506   4.805   3.819   8.609  0.7868  0.6078 -0.3122
 1004MOL0     H38507   4.870   3.914   8.734 -1.0054 -0.8298  0.3378
 1004MOL0     H38508   5.089   3.914   8.605 -1.5155  0.7337  2.5750
 1004MOL0     H38509   4.988   3.857   8.463  1.0462  0.1316 -0.3876
 1004MOL0     H38510   4.835   4.247   8.396  0.4431 -0.3879 -0.9468
 1004MOL0     H38511   4.950   4.540   8.265 -2.3856 -1.5682  0.9338
 1004MOL0     H38512   4.838   4.421   8.256 -0.9042  1.9375  0.5665
 1004MOL0     H38513   4.962   4.425   8.125 -2.8248 -0.9407 -0.7067
 1004MOL0     H38514   5.622   4.415   8.318  0.4418  0.8015 -0.7113
 1004MOL0     H38515   5.809   4.525   8.177  0.4128 -2.3552 -3.0833
 1004MOL0     H38516   5.846   4.678   7.820  1.7564 -2.0648  1.4813
 1004MOL0     H38517   5.671   4.652   7.833 -0.4384 -0.0746  4.4129
 1004MOL0     H38518   5.725   4.867   7.709 -0.1645 -0.6287  0.0093
 1004MOL0     H38519   5.640   4.913   7.860 -1.2158  0.9924 -3.6969
 1004MOL0     H38520   5.920   4.926   7.797  0.1349  2.8379 -0.2041
 1004MOL0     H38521   5.870   4.939   7.962  0.6713  0.8680  0.4735
 1004MOL0     H38522   5.899   5.156   7.858  0.0734 -0.1833 -1.2009
 1004MOL0     H38523   5.746   5.135   7.936 -2.9980  2.2137 -4.0929
 1004MOL0     H38524   5.752   5.109   7.637  0.8472  4.4778 -2.8229
 1004MOL0     H38525   5.623   5.127   7.750 -0.1151  0.6179  1.1586
 1004MOL0     H38526   5.715   5.316   7.579  2.4672 -1.4610 -1.0845
 1004MOL0     H38527   5.850   5.320   7.683  0.2671 -1.2871  2.1980
 1004MOL0     H38528   5.727   5.390   7.872  0.5079  1.1890  0.3597
 1004MOL0     H38529   5.574   5.404   7.774  0.2387  1.1355  1.1677
 1004MOL0     H38530   5.827   5.570   7.705 -0.6185  3.7298 -1.2736
 1004MOL0     H38531   5.691   5.621   7.804  0.9497  0.0115  0.4557
 1004MOL0     H38532   5.504   4.749   7.976 -1.0277  0.4363  0.9949
 1004MOL0     H38533   5.338   4.632   8.105 -0.6306 -1.7504  1.7289
 1004MOL0     H38534   5.328   4.224   8.372  0.7721 -0.5650 -2.0601
 1004MOL0     H38535   5.208   4.068   8.517  0.3693 -0.1523  0.9511
 1004MOL0     H38536   4.640   4.640   9.520  0.0881  0.9711 -0.5065
 1004MOL0     H38537   4.777   4.767   9.683  1.1994 -0.9460  1.0589
 1004MOL0     H38538   5.351   4.996   9.593  0.9167 -1.2251  0.4625
 1004MOL0     H38539   5.529   5.093   9.746  0.8145 -0.6996 -1.2182
 1004MOL0     H38540   5.384   5.177  10.151 -1.8033 -3.3427  0.5722
 1004MOL0     H38541   5.494   5.040  10.196  0.9764  0.3995  1.0915
 1004MOL0     H38542   5.568   5.263  10.299 -3.7246 -3.4397  0.9771
 1004MOL0     H38543   5.598   5.312  10.127 -2.8791  0.9861  0.5043
 1004MOL0     H38544   5.736   5.077  10.268  0.8210  1.6775  0.6883
 1004MOL0     H38545   5.733   5.118  10.095 -1.9696  2.3420 -1.1437
 1004MOL0     H38546   5.828   5.298  10.338  1.5728 -1.1909 -0.0667
 1004MOL0     H38547   5.821   5.351  10.171 -2.5307 -0.5320 -1.1826
 1004MOL0     H38548   6.178   5.097  10.240  1.4034  1.6989 -0.2580
 1004MOL0     H38549   5.308   4.967  10.085  1.7702 -3.4464  0.4396
 1004MOL0     H38550   5.081   4.928  10.063  0.7619 -0.2839  0.1405
 1004MOL0     H38551   4.995   4.860   9.930 -0.2470 -0.8070  0.9216
 1004MOL0     H38552   5.123   4.765  10.015 -1.1070 -0.1739  2.4985
 1005MOL0     O38553   4.361   7.187   6.149  0.1355 -0.1790  0.0113
 1005MOL0     C38554   4.284   7.252   6.220  0.0575  0.1308 -0.0189
 1005MOL0     O38555   4.318   7.312   6.340  0.2243  0.3963  0.1880
 1005MOL0     C38556   4.406   7.266   6.425  0.4667  0.0394 -0.2948
 1005MOL0     C38557   4.471   7.141   6.426  0.6005  0.0723 -0.7270
 1005MOL0     C38558   4.551   7.097   6.538 -0.0014 -1.3341  0.4969
 1005MOL0     C38559   4.563   7.182   6.652  0.2631 -0.8985 -0.0217
 1005MOL0     O38560   4.654   7.152   6.750 -1.1377  0.5741 -0.4210
 1005MOL0     C38561   4.591   7.058   6.841 -0.0445 -0.8834  0.7654
 1005MOL0     C38562   4.625   7.105   6.979 -0.1232 -0.5433 -0.2975
 1005MOL0     C38563   4.591   6.996   7.079 -0.0788  0.7121 -0.4164
 1005MOL0     C38564   4.617   7.051   7.215 -0.3212 -0.0096  0.9766
 1005MOL0     C38565   4.545   6.977   7.335 -0.1163  0.3968  0.2594
 1005MOL0     C38566   4.629   6.848   7.376  0.3269  0.6213  1.3672
 1005MOL0     C38567   4.742   6.861   7.472 -0.8797 -0.2189  0.3777
 1005MOL0     C38568   4.710   6.928   7.604 -0.4864 -1.1495  1.0289
 1005MOL0     N38569   4.600   6.865   7.671 -1.1298  0.3324  0.0882
 1005MOL0     C38570   4.588   6.732   7.696  0.4192  0.1933 -0.3693
 1005MOL0     C38571   4.493   6.714   7.781  0.7306  0.2988 -0.5748
 1005MOL0     C38572   4.449   6.586   7.847  0.3890  0.0665 -0.0326
 1005MOL0     C38573   4.316   6.530   7.787 -0.8134  0.1622  0.2230
 1005MOL0     C38574   4.196   6.610   7.832  0.2742 -0.0369  0.0051
 1005MOL0     C38575   4.161   6.597   7.975  0.1041 -0.5074 -0.7012
 1005MOL0     O38576   4.014   6.615   7.991 -0.0999  0.3169 -1.0527
 1005MOL0     C38577   3.999   6.741   8.036  0.1324 -0.4144  0.5913
 1005MOL0     C38578   3.968   6.851   7.955  0.3493  1.2621  0.6315
 1005MOL0     C38579   3.921   6.971   8.006  0.2452  0.3223  0.3015
 1005MOL0     C38580   3.870   7.066   7.899 -0.2872 -0.0303  0.3927
 1005MOL0     C38581   3.908   6.987   8.147 -0.4300  0.1321  0.8883
 1005MOL0     C38582   3.881   7.122   8.215  0.2172  0.2089 -0.7850
 1005MOL0     O38583   3.870   7.233   8.146  0.3170 -0.3604 -0.1741
 1005MOL0     C38584   3.879   7.351   8.219 -0.0450 -0.3880 -0.3224
 1005MOL0     C38585   3.765   7.438   8.232  0.5830  0.8805  0.5080
 1005MOL0     C38586   3.786   7.570   8.281  0.5271  0.0855  0.3777
 1005MOL0     C38587   3.907   7.612   8.328  0.9508 -1.3501  0.6424
 1005MOL0     O38588   3.929   7.744   8.364  0.0492  0.5164  0.1084
 1005MOL0     C38589   3.883   7.839   8.254  0.5571 -0.6605 -0.4536
 1005MOL0     C38590   3.896   7.987   8.306  0.5731 -0.6277 -0.6702
 1005MOL0     C38591   3.758   8.051   8.288 -0.4834  0.2247 -0.0898
 1005MOL0     C38592   3.744   8.194   8.342  0.3625  0.4316  0.3141
 1005MOL0     C38593   3.598   8.250   8.343 -0.4158  0.3322 -0.8479
 1005MOL0     C38594   3.595   8.401   8.367 -1.1354 -0.1408 -0.3606
 1005MOL0     C38595   3.693   8.479   8.259 -0.8940 -0.4102  0.7932
 1005MOL0     C38596   3.663   8.455   8.112  0.1499 -0.0767  0.1003
 1005MOL0    Cl38597   3.742   8.571   8.012 -0.3834  0.1780  0.1970
 1005MOL0     C38598   4.016   7.523   8.333  0.0627 -0.2100  0.3380
 1005MOL0     C38599   3.999   7.391   8.276 -0.1252 -0.1771 -0.2161
 1005MOL0     O38600   3.863   7.116   8.337  0.1948  0.3962 -0.1694
 1005MOL0     C38601   3.942   6.875   8.223 -0.7593  0.6275 -0.0309
 1005MOL0     C38602   3.978   6.758   8.177 -0.3053  0.7962 -0.1998
 1005MOL0     N38603   4.443   6.835   7.820  0.9538 -0.0852 -0.3687
 1005MOL0     N38604   4.508   6.935   7.746 -0.7891  0.7726 -0.3460
 1005MOL0     C38605   4.494   7.304   6.650  0.3594 -0.3248  0.4846
 1005MOL0     C38606   4.410   7.340   6.538  0.6134  0.2243 -0.3147
 1005MOL0     C38607   4.146   7.260   6.158 -0.3813 -0.2977  0.1836
 1005MOL0     C38608   4.078   7.386   6.180 -0.1913  0.2696  1.3484
 1005MOL0     C38609   3.938   7.395   6.146 -0.2387 -0.8454 -0.1846
 1005MOL0     C38610   3.871   7.287   6.081 -0.0660  0.2780 -0.2250
 1005MOL0     O38611   3.743   7.294   6.031  0.3883  0.8218 -0.2029
 1005MOL0     C38612   3.660   7.406   6.058  0.6719  0.5480 -0.2032
 1005MOL0     C38613   3.526   7.389   5.995 -0.2548  0.4449  0.3174
 1005MOL0     C38614   3.459   7.251   6.025 -1.3189  0.2986  0.9121
 1005MOL0     C38615   3.305   7.248   6.046 -0.2132  0.6843 -0.4014
 1005MOL0     C38616   3.218   7.325   5.953 -0.1441 -0.7583 -0.5387
 1005MOL0     C38617   3.130   7.369   5.875  0.5462  0.3153 -0.5041
 1005MOL0     C38618   3.939   7.164   6.064  0.3424  0.6643 -0.0842
 1005MOL0     C38619   4.078   7.147   6.104 -0.7885 -0.7599  0.9828
 1005MOL0     C38620   4.131   7.012   6.080  0.5496 -0.1101  0.1042
 1005MOL0     H38621   4.454   7.084   6.335 -2.2772  0.2359 -0.3940
 1005MOL0     H38622   4.605   7.004   6.540  0.0500 -1.3332 -0.4142
 1005MOL0     H38623   4.647   6.966   6.826  1.5349  0.1113  0.2446
 1005MOL0     H38624   4.485   7.035   6.839 -0.2513  0.0323 -0.8437
 1005MOL0     H38625   4.732   7.131   6.979  0.3317 -1.9976 -3.0470
 1005MOL0     H38626   4.569   7.198   6.993  0.0532 -0.2809 -1.1924
 1005MOL0     H38627   4.482   6.986   7.089 -0.2427  1.5791 -1.2663
 1005MOL0     H38628   4.645   6.901   7.070 -3.3877 -1.4989  0.9251
 1005MOL0     H38629   4.724   7.072   7.225 -0.5819  0.2856  3.7179
 1005MOL0     H38630   4.574   7.151   7.223 -0.2352 -0.1302  4.3013
 1005MOL0     H38631   4.441   6.958   7.307 -0.3609  4.1957 -2.0575
 1005MOL0     H38632   4.521   7.048   7.415 -1.9514  0.9851 -0.7538
 1005MOL0     H38633   4.566   6.771   7.422 -1.2005  1.9594  1.6254
 1005MOL0     H38634   4.677   6.813   7.284  1.3132  0.3982  1.9544
 1005MOL0     H38635   4.817   6.927   7.427  1.1392 -1.5154  1.6981
 1005MOL0     H38636   4.800   6.769   7.477  1.0834  0.7424 -2.2192
 1005MOL0     H38637   4.799   6.930   7.667  0.9140 -0.7291 -0.8532
 1005MOL0     H38638   4.679   7.032   7.588 -2.1341 -1.6440  0.8140
 1005MOL0     H38639   4.650   6.659   7.646 -0.2363  0.9385 -2.3732
 1005MOL0     H38640   4.444   6.609   7.954 -1.4240  2.7639 -0.6099
 1005MOL0     H38641   4.532   6.517   7.829 -0.0297 -1.0843  2.1297
 1005MOL0     H38642   4.307   6.523   7.678 -2.7462  0.9591  0.2897
 1005MOL0     H38643   4.303   6.425   7.816  1.1420 -0.1536  0.0626
 1005MOL0     H38644   4.218   6.712   7.800  1.6010 -0.2483  0.1658
 1005MOL0     H38645   4.105   6.574   7.783  0.5770  1.0751 -1.4089
 1005MOL0     H38646   4.177   6.496   8.012 -0.6570 -0.2922  0.2568
 1005MOL0     H38647   4.218   6.676   8.026 -1.9296  1.6107 -1.5179
 1005MOL0     H38648   3.984   6.811   7.855  1.6062  2.1575  0.4498
 1005MOL0     H38649   3.902   7.168   7.923  2.1463 -0.5585 -0.3355
 1005MOL0     H38650   3.763   7.076   7.876  0.2589  0.2998 -2.4801
 1005MOL0     H38651   3.926   7.047   7.806  2.3244  2.4190  1.3168
 1005MOL0     H38652   3.671   7.405   8.188  1.6264 -1.8544  0.1224
 1005MOL0     H38653   3.702   7.639   8.279  0.5515  0.2744  2.9018
 1005MOL0     H38654   3.959   7.825   8.177  0.9746 -1.4207  0.0781
 1005MOL0     H38655   3.782   7.816   8.217 -0.3861  1.3226  0.7141
 1005MOL0     H38656   3.949   7.977   8.401  0.2031 -1.1011 -0.5091
 1005MOL0     H38657   3.966   8.045   8.245  0.4208  1.5969  1.1302
 1005MOL0     H38658   3.684   7.991   8.341 -0.7194 -1.5690 -2.3109
 1005MOL0     H38659   3.729   8.046   8.183 -0.7411 -0.9382  0.0211
 1005MOL0     H38660   3.803   8.257   8.274  2.0952 -1.8972 -0.5007
 1005MOL0     H38661   3.792   8.211   8.439 -0.4542  3.2005  0.3179
 1005MOL0     H38662   3.571   8.227   8.239 -0.1091  1.5092 -1.2014
 1005MOL0     H38663   3.542   8.204   8.425  0.5160  0.3705 -0.1752
 1005MOL0     H38664   3.634   8.426   8.466 -0.7164 -2.3280  0.0919
 1005MOL0     H38665   3.494   8.442   8.359 -1.2849  0.2508  2.5065
 1005MOL0     H38666   3.799   8.458   8.277 -0.8956 -1.2275 -0.1026
 1005MOL0     H38667   3.691   8.587   8.278  0.4542  0.1714 -1.8928
 1005MOL0     H38668   3.557   8.472   8.095  0.8931  1.2998 -4.3601
 1005MOL0     H38669   3.696   8.355   8.081 -2.3758 -0.1344 -2.8531
 1005MOL0     H38670   4.106   7.574   8.366 -1.0313  1.6428  0.5668
 1005MOL0     H38671   4.084   7.323   8.266  1.1234  1.4466 -1.1345
 1005MOL0     H38672   3.918   6.863   8.329  3.0862  0.0705  0.9236
 1005MOL0     H38673   3.999   6.673   8.243  0.7824  0.5437 -0.8454
 1005MOL0     H38674   4.493   7.374   6.733 -1.9028  0.9219 -0.4867
 1005MOL0     H38675   4.349   7.429   6.553 -0.7858 -0.2937 -2.5009
 1005MOL0     H38676   4.135   7.464   6.230  4.1464 -1.7472 -0.0039
 1005MOL0     H38677   3.892   7.488   6.176 -0.2361 -1.7725  3.0658
 1005MOL0     H38678   3.647   7.413   6.166 -1.0479 -0.2817 -0.3134
 1005MOL0     H38679   3.703   7.493   6.008 -0.4005  1.0738 -0.2224
 1005MOL0     H38680   3.537   7.400   5.887 -0.8088 -0.0562  0.2050
 1005MOL0     H38681   3.457   7.469   6.021 -0.4116  1.6255 -3.1918
 1005MOL0     H38682   3.477   7.193   5.935 -1.2148  0.1410  1.0345
 1005MOL0     H38683   3.513   7.198   6.104  1.4458 -2.3124 -2.4327
 1005MOL0     H38684   3.281   7.278   6.148  1.9090 -0.8141  0.6033
 1005MOL0     H38685   3.282   7.142   6.038  1.4937  0.1974  0.7826
 1005MOL0     H38686   3.069   7.416   5.800  0.0367 -0.6211 -0.6857
 1005MOL0     H38687   3.876   7.090   6.017  1.2105  1.0449 -1.9668
 1005MOL0     H38688   4.070   6.956   6.009 -0.3664  1.6322 -0.5425
 1005MOL0     H38689   4.230   7.019   6.034  0.5088  1.3699  0.2099
 1005MOL0     H38690   4.142   6.942   6.164  1.0793 -0.7052 -0.4449
 1006MOL0     O38691   3.017   3.242   1.041  0.7392  0.4983 -0.0327
 1006MOL0     C38692   2.970   3.151   0.964 -0.2188  0.1082 -0.2704
 1006MOL0     O38693   2.853   3.086   0.998 -0.0564  1.1888  0.3584
 1006MOL0     C38694   2.775   3.135   1.099  0.6211 -0.1646 -0.7593
 1006MOL0     C38695   2.751   3.049   1.210  0.2971 -0.2941  0.3607
 1006MOL0     C38696   2.671   3.089   1.308  0.8028  0.2791  0.6455
 1006MOL0     C38697   2.616   3.220   1.310 -0.3694  0.2149 -0.1849
 1006MOL0     O38698   2.541   3.251   1.421 -0.1593  0.0968  0.1987
 1006MOL0     C38699   2.435   3.353   1.414 -0.9668  0.6406  0.5435
 1006MOL0     C38700   2.310   3.301   1.486 -1.3514  0.9321 -0.8330
 1006MOL0     C38701   2.234   3.192   1.417 -0.0498  1.3351  0.0672
 1006MOL0     C38702   2.180   3.080   1.511  0.1616 -0.6561  0.2863
 1006MOL0     C38703   2.048   3.026   1.459 -0.4849  0.4123 -0.0060
 1006MOL0     C38704   1.924   3.106   1.504  1.5954 -1.0876  1.2416
 1006MOL0     C38705   1.826   3.120   1.384 -0.3487 -0.3254  0.0082
 1006MOL0     C38706   1.711   3.219   1.411 -0.9435 -0.3408  0.1382
 1006MOL0     N38707   1.631   3.241   1.291  0.1446 -0.6060  0.4363
 1006MOL0     C38708   1.525   3.162   1.254  0.3389 -0.3732 -0.2030
 1006MOL0     C38709   1.461   3.229   1.148  0.0093  0.1209  0.6675
 1006MOL0     C38710   1.338   3.193   1.072 -0.4896 -0.4827 -0.7086
 1006MOL0     C38711   1.215   3.275   1.127  0.2050 -1.0158 -0.9186
 1006MOL0     C38712   1.202   3.409   1.051  0.3898 -0.3659 -0.3045
 1006MOL0     C38713   1.114   3.513   1.120  1.0484  0.2613 -0.4414
 1006MOL0     O38714   1.133   3.638   1.063 -0.3684  0.2170 -0.1241
 1006MOL0     C38715   1.044   3.740   1.083 -0.5006 -0.0088 -0.4759
 1006MOL0     C38716   0.947   3.736   1.188 -0.6406  0.5740  0.3469
 1006MOL0     C38717   0.857   3.837   1.203 -0.3059  0.8407 -1.3487
 1006MOL0     C38718   0.749   3.814   1.304  1.0516  0.2778 -0.5030
 1006MOL0     C38719   0.873   3.952   1.122 -0.0204 -0.1374 -0.5782
 1006MOL0     C38720   0.810   4.082   1.140  0.3391 -0.7085  0.4109
 1006MOL0     O38721   0.812   4.163   1.034  0.0105 -0.1864  1.0453
 1006MOL0     C38722   0.750   4.283   1.040 -0.1200 -0.0272  0.5068
 1006MOL0     C38723   0.818   4.399   1.007  0.8559 -0.0176 -0.3354
 1006MOL0     C38724   0.747   4.521   1.022  0.0008 -0.3370 -0.4717
 1006MOL0     C38725   0.606   4.532   1.051 -0.4094 -0.7977 -0.4015
 1006MOL0     O38726   0.553   4.657   1.029  0.4180  0.1091 -0.1542
 1006MOL0     C38727   0.411   4.678   1.055  0.5409 -0.5045  1.0174
 1006MOL0     C38728   0.363   4.830   1.049  0.2530 -0.2450  0.1348
 1006MOL0     C38729   0.359   4.897   1.190  0.3195  0.3757 -0.3699
 1006MOL0     C38730   0.491   4.928   1.249 -0.2576  0.2719  0.0228
 1006MOL0     C38731   0.512   4.893   1.395 -0.5596 -0.0543 -0.3313
 1006MOL0     C38732   0.578   4.746   1.423  1.0071  0.8993 -0.6163
 1006MOL0     C38733   0.537   4.706   1.561 -0.9180  1.0589 -0.0332
 1006MOL0     C38734   0.587   4.561   1.601 -0.3461 -0.1032 -0.4727
 1006MOL0    Cl38735   0.640   4.561   1.767  0.5166 -0.1160 -0.2599
 1006MOL0     C38736   0.534   4.407   1.085 -0.4683  0.4062  0.3483
 1006MOL0     C38737   0.612   4.289   1.076 -0.7027 -0.1640  0.5493
 1006MOL0     O38738   0.782   4.123   1.253 -0.0462 -0.5907 -0.2532
 1006MOL0     C38739   0.967   3.955   1.027  0.4447 -0.7322 -0.5050
 1006MOL0     C38740   1.050   3.845   1.002  0.1084 -0.4476 -0.6475
 1006MOL0     N38741   1.537   3.341   1.119 -0.1129  0.4987  0.0794
 1006MOL0     N38742   1.625   3.354   1.208 -0.4305 -0.0228  0.0038
 1006MOL0     C38743   2.639   3.303   1.207 -0.1301 -0.5828 -0.0697
 1006MOL0     C38744   2.716   3.257   1.097 -0.6223  0.5974 -0.6494
 1006MOL0     C38745   3.028   3.118   0.831 -0.9902 -0.2710 -0.8021
 1006MOL0     C38746   3.014   2.993   0.776  0.0989 -0.3772 -0.2009
 1006MOL0     C38747   3.074   2.951   0.658 -0.1880 -0.0408 -0.3329
 1006MOL0     C38748   3.164   3.033   0.593 -0.1790 -0.0503 -0.3112
 1006MOL0     O38749   3.240   2.999   0.483 -0.4214  0.3613 -0.6900
 1006MOL0     C38750   3.241   2.870   0.426  1.5212 -0.0565  0.2797
 1006MOL0     C38751   3.343   2.850   0.314 -0.1381 -0.8009 -0.4044
 1006MOL0     C38752   3.356   2.970   0.213  0.5223 -0.2769  1.0062
 1006MOL0     C38753   3.443   2.934   0.098 -0.9832 -0.1893  1.0467
 1006MOL0     C38754   3.464   3.054   0.014  0.7288 -0.7909 -0.8171
 1006MOL0     C38755   3.480   3.169  -0.027  0.7152  0.3513 -0.6584
 1006MOL0     C38756   3.179   3.165   0.643  0.5501 -0.1902  0.9245
 1006MOL0     C38757   3.116   3.203   0.762 -0.4953 -0.0132 -0.0793
 1006MOL0     C38758   3.141   3.338   0.806 -0.2869 -0.3169  0.0086
 1006MOL0     H38759   2.819   2.965   1.218 -0.2180 -0.5582  3.1491
 1006MOL0     H38760   2.659   3.025   1.395  2.0369  0.9166  1.3103
 1006MOL0     H38761   2.396   3.377   1.314  0.1093  1.6214  0.3337
 1006MOL0     H38762   2.466   3.449   1.457 -0.8695  1.3710 -1.0710
 1006MOL0     H38763   2.348   3.264   1.581 -1.1591  2.4542 -0.2958
 1006MOL0     H38764   2.233   3.377   1.498 -1.8272  0.8657 -3.0351
 1006MOL0     H38765   2.151   3.235   1.360 -1.2732 -1.0202 -0.0276
 1006MOL0     H38766   2.305   3.150   1.345  0.4201  2.3377 -0.0746
 1006MOL0     H38767   2.258   3.004   1.507  2.7311  1.9122 -1.3841
 1006MOL0     H38768   2.174   3.122   1.612 -1.0108  0.1132 -0.0871
 1006MOL0     H38769   2.033   2.922   1.491 -3.0118 -1.5394 -5.9783
 1006MOL0     H38770   2.052   3.020   1.350  1.1147 -2.8935  0.1262
 1006MOL0     H38771   1.876   3.069   1.596 -2.2837  0.2188 -0.0847
 1006MOL0     H38772   1.960   3.207   1.526 -2.8128  1.1929 -0.7013
 1006MOL0     H38773   1.785   3.019   1.374 -0.2962 -0.2927 -0.5770
 1006MOL0     H38774   1.890   3.155   1.303 -0.2854  2.6651  1.2112
 1006MOL0     H38775   1.648   3.184   1.493 -0.5921  0.2471  0.6582
 1006MOL0     H38776   1.755   3.313   1.445 -0.7037  0.0194 -1.1036
 1006MOL0     H38777   1.486   3.077   1.309  2.8194 -1.8073 -0.5322
 1006MOL0     H38778   1.316   3.086   1.083  1.7985 -0.7489  2.9059
 1006MOL0     H38779   1.360   3.216   0.967 -0.8731  1.7892 -0.3352
 1006MOL0     H38780   1.119   3.222   1.128 -0.8342  0.4458  4.1083
 1006MOL0     H38781   1.236   3.297   1.232 -0.9850  0.3059 -0.9094
 1006MOL0     H38782   1.300   3.459   1.053  0.9130 -1.3434  2.0427
 1006MOL0     H38783   1.163   3.400   0.949  0.7793  3.5128 -0.9547
 1006MOL0     H38784   1.009   3.481   1.124  0.3020  2.3938  4.1819
 1006MOL0     H38785   1.149   3.529   1.222 -0.4457 -0.4098  0.2071
 1006MOL0     H38786   0.969   3.647   1.246  2.7117 -0.3984 -2.0928
 1006MOL0     H38787   0.779   3.731   1.369  0.1803  0.4095  0.0846
 1006MOL0     H38788   0.652   3.781   1.266 -0.0068  1.7799  0.7598
 1006MOL0     H38789   0.738   3.901   1.369  2.5477  1.4607 -1.7500
 1006MOL0     H38790   0.923   4.393   0.983  0.9632  0.3641  0.0357
 1006MOL0     H38791   0.787   4.620   1.001  1.1806 -1.0314 -1.6504
 1006MOL0     H38792   0.341   4.629   0.987  0.3537 -0.3568  1.1046
 1006MOL0     H38793   0.402   4.654   1.161 -1.8730 -1.2905  0.6765
 1006MOL0     H38794   0.420   4.897   0.984 -0.9135 -0.9917 -1.7434
 1006MOL0     H38795   0.258   4.833   1.017 -0.0209  0.1605  1.0554
 1006MOL0     H38796   0.304   4.834   1.261  0.9693  0.0294 -0.1611
 1006MOL0     H38797   0.291   4.982   1.188 -1.5010 -1.0038  0.0511
 1006MOL0     H38798   0.506   5.036   1.237  0.4080  0.2573  0.7116
 1006MOL0     H38799   0.572   4.881   1.192  1.3480  2.1221  0.6576
 1006MOL0     H38800   0.585   4.970   1.422  1.0085 -0.6358 -2.6285
 1006MOL0     H38801   0.416   4.910   1.446 -0.9434  4.1248 -2.0032
 1006MOL0     H38802   0.687   4.741   1.416  0.9008 -1.2166 -1.7235
 1006MOL0     H38803   0.537   4.668   1.358 -1.8859 -0.0781  2.1299
 1006MOL0     H38804   0.428   4.695   1.563 -0.7796 -0.3450  1.7067
 1006MOL0     H38805   0.569   4.791   1.621  2.5638  0.9988 -1.6051
 1006MOL0     H38806   0.673   4.532   1.539 -0.2473  1.4900 -1.1092
 1006MOL0     H38807   0.504   4.490   1.592 -0.5136 -0.2554  1.8422
 1006MOL0     H38808   0.426   4.413   1.095 -0.7548 -1.0692 -1.3775
 1006MOL0     H38809   0.552   4.199   1.087  0.8819 -1.1685  1.4112
 1006MOL0     H38810   0.984   4.047   0.972  1.1005  0.3715  1.4770
 1006MOL0     H38811   1.124   3.837   0.923  0.9893  0.4595  0.0569
 1006MOL0     H38812   2.622   3.410   1.203  2.5918 -0.0963 -2.6235
 1006MOL0     H38813   2.716   3.329   1.015 -2.8129  0.5535 -0.7487
 1006MOL0     H38814   2.943   2.916   0.806 -2.0709  0.3802 -2.9906
 1006MOL0     H38815   3.048   2.854   0.617 -1.3711 -0.4470  1.2943
 1006MOL0     H38816   3.263   2.788   0.495  1.7789  0.7536  1.1830
 1006MOL0     H38817   3.150   2.841   0.372  0.0455 -0.1254  2.6496
 1006MOL0     H38818   3.314   2.759   0.262 -2.4096  0.1918 -0.9891
 1006MOL0     H38819   3.445   2.840   0.354 -0.4771  0.9567  1.0380
 1006MOL0     H38820   3.264   3.006   0.166  1.5067  0.3276 -0.5339
 1006MOL0     H38821   3.391   3.063   0.257  1.4034  2.3378 -4.4388
 1006MOL0     H38822   3.394   2.863   0.030 -1.7504 -0.5429  1.9538
 1006MOL0     H38823   3.542   2.893   0.121 -1.1570  0.5379  3.3511
 1006MOL0     H38824   3.498   3.273  -0.046  0.6337  0.9034  1.9532
 1006MOL0     H38825   3.240   3.228   0.579  0.0029 -1.5637 -1.0097
 1006MOL0     H38826   3.198   3.329   0.898 -1.4614 -1.0581  0.6996
 1006MOL0     H38827   3.196   3.384   0.723 -1.7907  3.4445  0.8828
 1006MOL0     H38828   3.052   3.401   0.821 -0.2048 -0.5277  1.4965
 1007MOL0     O38829   2.153   6.833   7.140  0.8737 -0.4075  0.4148
 1007MOL0     C38830   2.223   6.929   7.177 -0.1224 -1.0350  0.1433
 1007MOL0     O38831   2.336   6.961   7.120 -0.5227 -0.0156 -1.6033
 1007MOL0     C38832   2.410   6.864   7.063 -0.0988  0.7628  0.4435
 1007MOL0     C38833   2.381   6.821   6.928 -0.7508 -0.2486  0.0316
 1007MOL0     C38834   2.457   6.720   6.865  0.7703 -0.2827 -0.3732
 1007MOL0     C38835   2.568   6.680   6.933  0.6051  0.1747 -0.3186
 1007MOL0     O38836   2.652   6.596   6.867  0.3924  0.6671 -0.4530
 1007MOL0     C38837   2.597   6.468   6.829 -0.3366 -1.1342 -1.1924
 1007MOL0     C38838   2.561   6.376   6.952 -0.2672  0.3040 -0.0408
 1007MOL0     C38839   2.505   6.230   6.920 -0.6025  0.2677  0.5165
 1007MOL0     C38840   2.613   6.135   6.864 -0.7006 -0.4318 -0.4396
 1007MOL0     C38841   2.560   5.996   6.863  0.5044 -1.2921 -0.7481
 1007MOL0     C38842   2.647   5.904   6.790  0.6999  0.3387  0.0025
 1007MOL0     C38843   2.770   5.871   6.872  0.0782  0.3759  0.5420
 1007MOL0     C38844   2.846   5.752   6.807  0.8756  0.5007  0.2605
 1007MOL0     N38845   2.903   5.769   6.671 -0.3020 -0.7029 -0.7036
 1007MOL0     C38846   3.040   5.754   6.644  0.4759  0.0116  0.6997
 1007MOL0     C38847   3.049   5.748   6.508 -0.4121  0.3379 -0.3935
 1007MOL0     C38848   3.161   5.704   6.424  0.8466  0.0292  0.2961
 1007MOL0     C38849   3.235   5.807   6.325 -0.4390 -0.6642 -0.2872
 1007MOL0     C38850   3.380   5.761   6.282  0.1619  0.0210  0.7549
 1007MOL0     C38851   3.426   5.864   6.189 -0.1348 -1.4116 -0.9662
 1007MOL0     O38852   3.447   5.990   6.255  0.8272 -0.3431  0.3312
 1007MOL0     C38853   3.569   6.040   6.230 -0.1015  0.5346 -0.9367
 1007MOL0     C38854   3.671   6.028   6.318 -1.3591 -0.0087 -0.1559
 1007MOL0     C38855   3.804   6.059   6.295  0.7545  0.3915  0.3165
 1007MOL0     C38856   3.915   6.025   6.383 -0.4567  1.1905 -0.8819
 1007MOL0     C38857   3.831   6.121   6.167 -0.0082  0.3483  0.5728
 1007MOL0     C38858   3.965   6.177   6.127  0.4396  0.5004  0.7519
 1007MOL0     O38859   3.977   6.289   6.046  0.1156 -0.0734 -0.2232
 1007MOL0     C38860   4.105   6.323   5.996 -0.4671 -0.7387 -0.1268
 1007MOL0     C38861   4.142   6.289   5.867 -0.9922  0.9726  0.0413
 1007MOL0     C38862   4.263   6.324   5.811 -1.0626  0.3172  0.0289
 1007MOL0     C38863   4.370   6.362   5.898  0.1001 -0.3523  0.3912
 1007MOL0     O38864   4.504   6.385   5.863 -0.0212  0.1014  1.2035
 1007MOL0     C38865   4.562   6.343   5.734 -0.9049  0.2089  0.3686
 1007MOL0     C38866   4.714   6.334   5.749  0.5471 -1.0596 -0.2727
 1007MOL0     C38867   4.759   6.235   5.851 -0.3101  0.5321  0.1205
 1007MOL0     C38868   4.703   6.099   5.826  0.6006  0.8456 -0.2579
 1007MOL0     C38869   4.804   5.997   5.894 -0.6009 -0.3283 -0.0667
 1007MOL0     C38870   4.880   5.907   5.793 -0.3961 -0.1497  0.2037
 1007MOL0     C38871   4.939   5.975   5.677 -0.6197 -0.1313 -0.1960
 1007MOL0     C38872   5.008   5.868   5.587 -0.3436  1.1345 -0.1915
 1007MOL0    Cl38873   4.894   5.786   5.485  0.1238  0.4326 -0.0123
 1007MOL0     C38874   4.338   6.398   6.027 -0.4123  0.2922 -0.3290
 1007MOL0     C38875   4.208   6.393   6.067 -0.3458 -0.5669  0.0800
 1007MOL0     O38876   4.057   6.107   6.153 -0.4993  0.2440  0.0443
 1007MOL0     C38877   3.727   6.139   6.083  0.2663 -0.1571  0.3571
 1007MOL0     C38878   3.598   6.097   6.107 -1.6418 -0.1225  0.4836
 1007MOL0     N38879   2.920   5.743   6.456  0.0167 -0.1798 -0.8521
 1007MOL0     N38880   2.833   5.757   6.559 -0.4930 -0.5515 -0.5960
 1007MOL0     C38881   2.605   6.725   7.066  0.0425 -0.0915  1.2228
 1007MOL0     C38882   2.527   6.815   7.123 -0.9647 -0.2411 -0.5473
 1007MOL0     C38883   2.179   7.018   7.283  0.9151  0.4031 -0.2505
 1007MOL0     C38884   2.272   7.108   7.334 -0.4055 -0.0804  0.2230
 1007MOL0     C38885   2.250   7.166   7.460 -0.3181  0.3021  0.4612
 1007MOL0     C38886   2.132   7.151   7.531  0.3321  0.2303  0.5759
 1007MOL0     O38887   2.135   7.197   7.657  0.1159 -0.0854  0.3183
 1007MOL0     C38888   2.024   7.178   7.748 -0.1304  0.2402 -0.0717
 1007MOL0     C38889   2.037   7.050   7.825 -0.8473 -0.4393 -0.4648
 1007MOL0     C38890   2.165   7.064   7.902 -0.6242  0.1066 -0.9855
 1007MOL0     C38891   2.146   7.122   8.048  0.1892 -0.5850  0.3811
 1007MOL0     C38892   2.267   7.137   8.118 -0.3901 -0.2798 -0.2867
 1007MOL0     C38893   2.373   7.160   8.169 -0.8258  0.4463 -0.8652
 1007MOL0     C38894   2.027   7.086   7.466 -0.2602 -0.3694 -0.4048
 1007MOL0     C38895   2.053   7.015   7.342  0.4747  0.1391 -0.7402
 1007MOL0     C38896   1.931   6.945   7.281 -0.7824 -0.5795 -0.1942
 1007MOL0     H38897   2.305   6.863   6.864 -0.0384 -0.5203 -1.0121
 1007MOL0     H38898   2.428   6.687   6.766 -1.1582  0.8546 -0.2538
 1007MOL0     H38899   2.672   6.415   6.770 -1.1491 -1.1143 -2.2629
 1007MOL0     H38900   2.505   6.482   6.771 -0.4126 -1.1465 -1.0780
 1007MOL0     H38901   2.646   6.375   7.020  1.6363  1.4606 -2.2591
 1007MOL0     H38902   2.488   6.437   7.006  0.9043  2.8254 -1.1229
 1007MOL0     H38903   2.461   6.191   7.012  0.6499 -0.1118  0.9759
 1007MOL0     H38904   2.427   6.237   6.843  1.2322  0.3926 -1.3937
 1007MOL0     H38905   2.635   6.166   6.761 -1.0349  1.3578 -0.0015
 1007MOL0     H38906   2.694   6.152   6.936 -1.9146 -1.0616  1.1430
 1007MOL0     H38907   2.462   5.991   6.815 -1.1648  2.3328  1.8473
 1007MOL0     H38908   2.537   5.962   6.964 -0.0258  2.3707  0.4921
 1007MOL0     H38909   2.583   5.817   6.780 -1.6449  1.9259  0.4108
 1007MOL0     H38910   2.674   5.948   6.693  0.0170  3.4468  1.1113
 1007MOL0     H38911   2.727   5.833   6.966  3.1467 -1.0427  1.4877
 1007MOL0     H38912   2.835   5.956   6.896 -1.3760  1.5910  0.3852
 1007MOL0     H38913   2.919   5.718   6.881  0.5241 -1.3923 -0.2004
 1007MOL0     H38914   2.773   5.671   6.797  0.2424  1.3268 -2.6217
 1007MOL0     H38915   3.119   5.763   6.717  1.0650 -0.9330  0.1922
 1007MOL0     H38916   3.124   5.616   6.370 -1.2378  0.8096  0.3869
 1007MOL0     H38917   3.245   5.670   6.485  1.0777 -1.5916 -0.8362
 1007MOL0     H38918   3.171   5.816   6.236  1.2862  2.5611 -1.3664
 1007MOL0     H38919   3.221   5.906   6.368 -0.7533 -1.5919  1.8803
 1007MOL0     H38920   3.447   5.749   6.368  2.4960  1.0104 -0.8152
 1007MOL0     H38921   3.385   5.665   6.229  1.5546 -0.9584  2.5267
 1007MOL0     H38922   3.516   5.836   6.133 -0.4601 -2.1958 -1.1106
 1007MOL0     H38923   3.346   5.883   6.117 -1.1538 -1.2811  0.1736
 1007MOL0     H38924   3.663   5.978   6.414  2.8533  3.3222  2.3539
 1007MOL0     H38925   3.977   5.947   6.337 -1.4996  0.3321 -0.8598
 1007MOL0     H38926   3.881   5.989   6.480  0.1242  2.7675 -0.0589
 1007MOL0     H38927   3.977   6.110   6.415  0.0064 -0.2594  2.4594
 1007MOL0     H38928   4.071   6.254   5.793  0.5305  1.1688 -1.5844
 1007MOL0     H38929   4.275   6.289   5.709  0.6121  0.6478  0.0820
 1007MOL0     H38930   4.523   6.248   5.697 -1.3816 -1.8605  5.3258
 1007MOL0     H38931   4.543   6.417   5.656  1.1169 -1.0343 -1.4129
 1007MOL0     H38932   4.757   6.306   5.653  0.5937  3.5153 -1.8518
 1007MOL0     H38933   4.743   6.439   5.763 -0.2768 -0.4594 -2.5991
 1007MOL0     H38934   4.721   6.267   5.949 -0.5331 -1.8397  0.8922
 1007MOL0     H38935   4.868   6.230   5.846 -0.3156 -4.5367 -0.0729
 1007MOL0     H38936   4.680   6.073   5.722 -1.3760 -4.3930  1.2123
 1007MOL0     H38937   4.610   6.085   5.882  0.0655  0.7897 -1.1306
 1007MOL0     H38938   4.878   6.052   5.952 -1.9447  2.8563 -1.1288
 1007MOL0     H38939   4.755   5.944   5.976  1.6719  1.5339  2.6402
 1007MOL0     H38940   4.799   5.846   5.752  1.5509 -1.4548 -1.9995
 1007MOL0     H38941   4.952   5.840   5.840  0.1663 -1.3886 -2.2327
 1007MOL0     H38942   5.017   6.036   5.724 -0.0570 -0.7502 -0.3048
 1007MOL0     H38943   4.876   6.042   5.619 -1.6628 -0.3711  0.6340
 1007MOL0     H38944   5.045   5.797   5.662 -1.5031  0.9262  0.2032
 1007MOL0     H38945   5.086   5.899   5.517 -1.4130  0.3875 -1.7812
 1007MOL0     H38946   4.409   6.449   6.092  0.1563  1.6143 -1.9259
 1007MOL0     H38947   4.175   6.443   6.158  2.1475  2.5276 -0.5160
 1007MOL0     H38948   3.742   6.186   5.986 -1.6887 -0.1780 -0.0122
 1007MOL0     H38949   3.512   6.126   6.047 -1.0357  3.1504  1.0122
 1007MOL0     H38950   2.701   6.696   7.106  1.1524 -1.4553 -2.0580
 1007MOL0     H38951   2.553   6.849   7.223 -1.6623 -0.2672 -0.3543
 1007MOL0     H38952   2.364   7.125   7.280 -2.2238  0.4941 -2.9605
 1007MOL0     H38953   2.330   7.210   7.518 -2.0151  2.0765  1.5620
 1007MOL0     H38954   2.022   7.264   7.815  0.3632  1.0584 -1.0778
 1007MOL0     H38955   1.931   7.187   7.690  0.2478 -0.1991 -0.7657
 1007MOL0     H38956   2.051   6.972   7.750 -0.5478 -1.3133  0.4827
 1007MOL0     H38957   1.949   7.020   7.882 -1.6361 -1.7637 -2.2815
 1007MOL0     H38958   2.213   6.967   7.913  2.0327  1.1565 -2.4242
 1007MOL0     H38959   2.245   7.124   7.857 -0.6435  0.2136 -0.8766
 1007MOL0     H38960   2.072   7.064   8.103  0.5404 -2.7013 -1.2245
 1007MOL0     H38961   2.114   7.223   8.022  2.2618  0.5359  1.8743
 1007MOL0     H38962   2.474   7.178   8.202 -0.4035 -0.1564 -1.7808
 1007MOL0     H38963   1.924   7.086   7.500  0.2847  0.3022  1.3278
 1007MOL0     H38964   1.859   6.949   7.363 -0.3212  0.5747  0.1787
 1007MOL0     H38965   1.883   7.000   7.200  0.0440 -0.9139 -0.9233
 1007MOL0     H38966   1.948   6.838   7.265 -0.6425 -0.4795 -0.7538
 1008MOL0     O38967   2.959   8.086   7.017 -0.7422  0.0504 -0.1076
 1008MOL0     C38968   2.961   8.187   7.085  0.0228  0.1125 -0.1165
 1008MOL0     O38969   3.061   8.235   7.159  0.9733 -0.1213 -0.1222
 1008MOL0     C38970   3.184   8.172   7.164  1.1268  0.3330 -0.2414
 1008MOL0     C38971   3.253   8.148   7.039 -0.2028  0.1595 -0.4065
 1008MOL0     C38972   3.378   8.094   7.048  0.2308 -0.3142 -1.0795
 1008MOL0     C38973   3.448   8.068   7.172  0.2761 -0.2162  0.3443
 1008MOL0     O38974   3.570   8.016   7.168 -0.0546 -0.7973  0.1183
 1008MOL0     C38975   3.674   8.089   7.100 -0.2406 -1.3577  0.5508
 1008MOL0     C38976   3.775   8.156   7.194  0.7469 -0.1480  0.1782
 1008MOL0     C38977   3.731   8.300   7.231 -0.0408 -0.6633  0.1128
 1008MOL0     C38978   3.848   8.389   7.287  0.1040 -0.2751 -0.0747
 1008MOL0     C38979   3.796   8.528   7.333 -0.2169 -0.1934 -0.2606
 1008MOL0     C38980   3.908   8.634   7.350  0.4439 -0.4477 -0.4295
 1008MOL0     C38981   3.994   8.671   7.219  0.3589 -0.0105  0.2050
 1008MOL0     C38982   4.125   8.745   7.247 -1.0782  1.0685 -0.4405
 1008MOL0     N38983   4.208   8.750   7.121 -0.1793 -0.5607 -2.0407
 1008MOL0     C38984   4.187   8.809   7.000  0.3143 -0.1936  0.2801
 1008MOL0     C38985   4.293   8.783   6.918 -1.1894  0.2360  0.2338
 1008MOL0     C38986   4.309   8.848   6.782  0.3552  0.7254  0.6213
 1008MOL0     C38987   4.452   8.839   6.725 -0.0825 -0.7733  0.3443
 1008MOL0     C38988   4.543   8.946   6.801 -0.4797 -0.3021  0.4232
 1008MOL0     C38989   4.495   9.092   6.777 -0.1642  0.1492 -0.3360
 1008MOL0     O38990   4.508   9.119   6.639  0.6483 -1.1142  0.2806
 1008MOL0     C38991   4.444   9.232   6.580 -0.2579 -0.1302 -0.3010
 1008MOL0     C38992   4.400   9.210   6.452 -0.2302  0.7577  0.5969
 1008MOL0     C38993   4.344   9.311   6.371 -0.1686  0.2045  0.3977
 1008MOL0     C38994   4.295   9.280   6.230 -0.1774  0.7407  0.1386
 1008MOL0     C38995   4.321   9.442   6.426  0.2863  0.0577  0.3571
 1008MOL0     C38996   4.258   9.559   6.353 -0.9771  0.8301 -0.0952
 1008MOL0     O38997   4.252   9.671   6.418 -0.3431  0.6048  0.1174
 1008MOL0     C38998   4.170   9.772   6.369  0.5451 -0.6083 -0.6873
 1008MOL0     C38999   4.039   9.799   6.396  0.5140  0.5700 -0.3084
 1008MOL0     C39000   3.985   9.904   6.324 -0.7482 -0.5302  0.9175
 1008MOL0     C39001   4.055   9.987   6.246  1.0112 -0.3244  0.1250
 1008MOL0     O39002   3.986  10.101   6.198 -0.9160 -0.7070 -0.6279
 1008MOL0     C39003   4.060  10.213   6.141  0.0271  1.7062  0.5209
 1008MOL0     C39004   3.971  10.337   6.150 -0.3592  0.8153 -0.1425
 1008MOL0     C39005   4.041  10.473   6.103  0.2016  0.4479 -0.2664
 1008MOL0     C39006   4.082  10.556   6.235  0.2121  0.3240 -0.2810
 1008MOL0     C39007   4.195  10.652   6.201  1.7230 -0.2218  0.0189
 1008MOL0     C39008   4.328  10.568   6.195 -0.2217 -0.2124  0.1751
 1008MOL0     C39009   4.459  10.649   6.183  0.2363 -0.0397 -0.4572
 1008MOL0     C39010   4.482  10.731   6.317 -0.0888  0.3755 -0.2732
 1008MOL0    Cl39011   4.483  10.622   6.451  0.0546 -0.0114  0.4331
 1008MOL0     C39012   4.183   9.957   6.218  0.8794  0.9489  0.8193
 1008MOL0     C39013   4.246   9.853   6.284  0.1989 -0.9866  0.9753
 1008MOL0     O39014   4.214   9.540   6.243 -0.4755 -1.1999  0.5302
 1008MOL0     C39015   4.360   9.462   6.561 -0.4563 -0.0858 -0.1781
 1008MOL0     C39016   4.421   9.357   6.632  0.5940 -0.5434  0.2735
 1008MOL0     N39017   4.383   8.710   6.991  0.7525  0.1820 -0.7231
 1008MOL0     N39018   4.332   8.680   7.109  0.7006 -1.0996 -0.4454
 1008MOL0     C39019   3.376   8.092   7.290 -0.2680 -0.2377  0.8645
 1008MOL0     C39020   3.245   8.137   7.286 -0.3018 -0.1042 -0.7222
 1008MOL0     C39021   2.840   8.259   7.084  0.8140 -0.0221  0.3908
 1008MOL0     C39022   2.837   8.389   7.151  0.1862 -0.6051  0.4098
 1008MOL0     C39023   2.720   8.467   7.161  0.1865  0.1328  0.1092
 1008MOL0     C39024   2.598   8.424   7.103 -0.9949 -0.6441 -0.3167
 1008MOL0     O39025   2.486   8.496   7.087 -0.4564 -0.2594  0.5263
 1008MOL0     C39026   2.460   8.610   7.165  0.6520 -1.3425  0.0895
 1008MOL0     C39027   2.451   8.584   7.311 -0.3853 -0.0029 -0.8406
 1008MOL0     C39028   2.318   8.551   7.368 -0.9768  0.7235  0.8713
 1008MOL0     C39029   2.285   8.406   7.311  0.6092 -0.4048 -0.1897
 1008MOL0     C39030   2.157   8.355   7.356  0.2085  0.0344 -0.7256
 1008MOL0     C39031   2.049   8.320   7.387  0.0460 -0.5310 -0.4173
 1008MOL0     C39032   2.601   8.297   7.043 -0.7830 -0.0011 -0.7336
 1008MOL0     C39033   2.710   8.214   7.028 -0.2715  0.3327  0.3789
 1008MOL0     C39034   2.692   8.076   6.967 -0.1152 -0.5998  0.9052
 1008MOL0     H39035   3.204   8.173   6.945 -1.0560 -1.5746 -0.4589
 1008MOL0     H39036   3.434   8.079   6.956  1.6948  0.1763 -0.3187
 1008MOL0     H39037   3.648   8.158   7.019 -0.9685 -0.0068  1.8899
 1008MOL0     H39038   3.736   8.011   7.053  0.1285  0.0283 -1.3964
 1008MOL0     H39039   3.776   8.098   7.287 -2.0027  0.6448  0.7832
 1008MOL0     H39040   3.876   8.164   7.151 -0.1201  1.1986 -1.7670
 1008MOL0     H39041   3.693   8.355   7.144 -0.2485  1.3214  1.3989
 1008MOL0     H39042   3.653   8.276   7.304 -0.1697  1.2748  0.6619
 1008MOL0     H39043   3.896   8.340   7.372  0.0429 -0.6719 -0.2648
 1008MOL0     H39044   3.923   8.405   7.209  2.1197  0.3705  1.8761
 1008MOL0     H39045   3.751   8.509   7.431  2.4175 -2.6572  0.6279
 1008MOL0     H39046   3.725   8.558   7.256 -1.0023 -4.8682 -1.6878
 1008MOL0     H39047   3.867   8.732   7.374  4.4206  1.0403  1.1444
 1008MOL0     H39048   3.975   8.610   7.434  0.3107  0.8419  0.0713
 1008MOL0     H39049   3.926   8.731   7.158 -2.6586 -0.9200  2.4079
 1008MOL0     H39050   4.030   8.583   7.165  1.9843  0.7456  0.0133
 1008MOL0     H39051   4.109   8.846   7.286 -0.1890  0.8318  0.5827
 1008MOL0     H39052   4.181   8.694   7.326 -0.9241 -0.6692 -1.6112
 1008MOL0     H39053   4.101   8.872   6.981 -0.0722 -0.4124  1.2277
 1008MOL0     H39054   4.286   8.954   6.791 -0.9723  0.4359  0.8555
 1008MOL0     H39055   4.243   8.795   6.713 -1.5857  0.5429  2.5109
 1008MOL0     H39056   4.484   8.735   6.732 -1.0875 -1.1116  0.0083
 1008MOL0     H39057   4.443   8.872   6.621 -2.1442  1.6139  1.1651
 1008MOL0     H39058   4.542   8.920   6.907 -0.4652 -3.5555 -0.2495
 1008MOL0     H39059   4.646   8.926   6.769 -0.8445 -2.5520  0.4531
 1008MOL0     H39060   4.395   9.106   6.819 -0.7961 -1.5814 -1.1651
 1008MOL0     H39061   4.559   9.168   6.823 -0.5409  1.3124 -1.6673
 1008MOL0     H39062   4.398   9.112   6.405  2.4056 -1.1231  3.9757
 1008MOL0     H39063   4.341   9.347   6.157  2.9827 -0.3437  1.0121
 1008MOL0     H39064   4.187   9.278   6.212 -0.1258 -2.0465 -0.2941
 1008MOL0     H39065   4.326   9.183   6.190 -0.5606  1.4307 -1.9827
 1008MOL0     H39066   3.977   9.735   6.459  1.9343  0.4304  1.0088
 1008MOL0     H39067   3.879   9.926   6.326 -0.4771  1.3065 -1.0451
 1008MOL0     H39068   4.148  10.245   6.198  1.0295  3.4914 -1.8468
 1008MOL0     H39069   4.092  10.187   6.039 -2.4117  2.9802 -0.6562
 1008MOL0     H39070   3.880  10.331   6.090  0.4490  1.8805 -1.5350
 1008MOL0     H39071   3.931  10.348   6.252 -1.4694  0.8194 -0.5645
 1008MOL0     H39072   3.963  10.516   6.039 -0.0815 -0.8162 -0.7919
 1008MOL0     H39073   4.122  10.447   6.034 -0.1152 -1.1675 -0.0580
 1008MOL0     H39074   4.126  10.490   6.310  1.9824  1.1629 -0.5354
 1008MOL0     H39075   3.995  10.605   6.279  1.0939  3.7925 -2.0491
 1008MOL0     H39076   4.171  10.711   6.112 -0.2927  1.7338  1.7433
 1008MOL0     H39077   4.198  10.724   6.283  4.3377  0.3025 -0.4566
 1008MOL0     H39078   4.328  10.507   6.104 -2.4382  0.9430 -0.6864
 1008MOL0     H39079   4.325  10.500   6.280 -3.5815 -3.1366 -1.9725
 1008MOL0     H39080   4.455  10.725   6.106 -0.1027  1.0390  0.5933
 1008MOL0     H39081   4.539  10.575   6.173  2.0784  1.8069 -0.1412
 1008MOL0     H39082   4.403  10.806   6.331 -1.9389 -1.3555 -1.0004
 1008MOL0     H39083   4.580  10.778   6.307  0.9817 -1.7002 -0.0434
 1008MOL0     H39084   4.233  10.008   6.137 -0.2643  0.8147 -0.0062
 1008MOL0     H39085   4.353   9.833   6.273  0.1943  0.3064 -2.7547
 1008MOL0     H39086   4.350   9.557   6.612 -4.4287 -1.2706  1.6934
 1008MOL0     H39087   4.457   9.396   6.727 -0.2783  3.1018 -0.7155
 1008MOL0     H39088   3.427   8.069   7.383 -0.3202 -2.5131  0.3907
 1008MOL0     H39089   3.189   8.152   7.378  0.9513 -0.7223  0.1774
 1008MOL0     H39090   2.930   8.430   7.189 -0.6780  1.6031  0.2650
 1008MOL0     H39091   2.737   8.569   7.192 -0.9804  0.9003 -1.6643
 1008MOL0     H39092   2.537   8.685   7.143 -0.9989  0.4998  0.2681
 1008MOL0     H39093   2.365   8.652   7.130  1.9907 -0.1732 -2.3675
 1008MOL0     H39094   2.485   8.675   7.360 -0.2297  1.4184 -3.4149
 1008MOL0     H39095   2.525   8.505   7.330 -0.8052 -1.0389 -3.0974
 1008MOL0     H39096   2.321   8.554   7.478  1.9850 -0.0409  0.9027
 1008MOL0     H39097   2.242   8.622   7.333 -2.6062 -0.2727  2.2201
 1008MOL0     H39098   2.367   8.334   7.313  2.9550  2.0146  3.2813
 1008MOL0     H39099   2.275   8.415   7.203 -1.1820  2.4584  0.1138
 1008MOL0     H39100   1.951   8.279   7.401 -0.8227  1.7279  0.5779
 1008MOL0     H39101   2.505   8.261   7.007 -0.4193 -1.8204 -0.0194
 1008MOL0     H39102   2.586   8.050   6.961 -0.1792 -1.1363  3.2776
 1008MOL0     H39103   2.745   8.073   6.871  2.5443  0.4303  2.2500
 1008MOL0     H39104   2.730   7.997   7.032 -0.4116 -0.5868  1.0947
 1009MOL0     O39105  11.023   2.411   1.505  0.1710 -0.0883 -0.1922
 1009MOL0     C39106  11.012   2.293   1.514  0.2781  1.0245  0.7027
 1009MOL0     O39107  10.924   2.219   1.435 -0.7243 -0.1674  0.0204
 1009MOL0     C39108  10.815   2.272   1.375 -0.1950  0.3090 -1.1411
 1009MOL0     C39109  10.745   2.185   1.295  0.5553  0.5207  0.5274
 1009MOL0     C39110  10.624   2.225   1.236  1.0723 -1.2363  0.3480
 1009MOL0     C39111  10.558   2.349   1.270 -1.5402  0.6019  0.3365
 1009MOL0     O39112  10.434   2.371   1.211  0.3122 -0.0716 -0.7193
 1009MOL0     C39113  10.367   2.488   1.249  0.0107  0.2511  0.3165
 1009MOL0     C39114  10.239   2.478   1.164  0.0115  0.7727  0.1443
 1009MOL0     C39115  10.119   2.396   1.232 -0.3721 -0.8181 -0.4950
 1009MOL0     C39116  10.138   2.251   1.256  0.1034  0.7487  0.3190
 1009MOL0     C39117  10.052   2.193   1.365 -0.0443  0.0054 -0.5423
 1009MOL0     C39118  10.076   2.254   1.508  0.4087  0.8317 -0.2006
 1009MOL0     C39119  10.220   2.264   1.544 -0.8022  0.1589  0.3236
 1009MOL0     C39120  10.234   2.306   1.697  0.4072  0.2697  0.2863
 1009MOL0     N39121  10.365   2.339   1.742 -0.0679  0.5666  1.2528
 1009MOL0     C39122  10.488   2.305   1.686 -0.7204 -0.3038  0.0272
 1009MOL0     C39123  10.584   2.346   1.778  0.0208 -0.0511 -0.0069
 1009MOL0     C39124  10.737   2.331   1.767  0.6554  0.7262 -0.7667
 1009MOL0     C39125  10.776   2.201   1.836  0.0889  0.0632  0.2680
 1009MOL0     C39126  10.804   2.218   1.988 -0.4889 -0.2947  0.1599
 1009MOL0     C39127  10.842   2.084   2.063 -0.0508  0.0560  0.3961
 1009MOL0     O39128  10.843   2.090   2.204  0.4326  0.1660  0.1004
 1009MOL0     C39129  10.923   2.175   2.271 -0.6166  0.2720  0.2193
 1009MOL0     C39130  11.035   2.248   2.217 -0.4792  0.5117 -0.0820
 1009MOL0     C39131  11.101   2.346   2.294 -0.5489  0.2678 -0.5144
 1009MOL0     C39132  11.211   2.425   2.232  0.6987  0.5917 -0.3641
 1009MOL0     C39133  11.082   2.354   2.429  0.1028 -0.0116 -0.3736
 1009MOL0     C39134  11.186   2.418   2.524  0.8258  0.0916  0.7143
 1009MOL0     O39135  11.133   2.501   2.615  0.5801  0.3361 -0.1517
 1009MOL0     C39136  11.204   2.563   2.707  0.2065 -0.6426 -0.3559
 1009MOL0     C39137  11.288   2.504   2.806 -0.0600 -0.1906  0.0269
 1009MOL0     C39138  11.330   2.584   2.915 -0.3430  0.0784 -0.2208
 1009MOL0     C39139  11.301   2.721   2.921  0.6322 -0.0375 -0.0326
 1009MOL0     O39140  11.345   2.806   3.028 -0.2391  0.0948  0.8963
 1009MOL0     C39141  11.423   2.759   3.137 -0.0892  0.4798 -0.4571
 1009MOL0     C39142  11.573   2.791   3.120  0.8752  0.0923  0.3444
 1009MOL0     C39143  11.650   2.783   3.255 -0.8520  0.4575  0.2865
 1009MOL0     C39144  11.614   2.663   3.342  0.5332  0.1330  0.4133
 1009MOL0     C39145  11.668   2.657   3.486 -0.1544 -0.4886 -0.1799
 1009MOL0     C39146  11.617   2.533   3.562  0.4458  0.1606  0.2926
 1009MOL0     C39147  11.713   2.462   3.655  0.4540  0.2031 -0.7904
 1009MOL0     C39148  11.749   2.559   3.763  0.3151  0.1693  0.1954
 1009MOL0    Cl39149  11.827   2.472   3.891 -0.0544 -1.0386  0.3101
 1009MOL0     C39150  11.237   2.785   2.813 -0.1864 -0.9001  0.4484
 1009MOL0     C39151  11.174   2.701   2.718 -0.4547  0.2135 -0.4614
 1009MOL0     O39152  11.306   2.406   2.501  0.0979 -0.0864  0.1674
 1009MOL0     C39153  10.987   2.274   2.483  0.1222 -0.3348  0.3074
 1009MOL0     C39154  10.910   2.185   2.408 -0.4198 -0.6167 -0.5656
 1009MOL0     N39155  10.519   2.417   1.867  0.3159 -0.6105  0.7553
 1009MOL0     N39156  10.393   2.408   1.850 -0.5412  0.4255  0.5537
 1009MOL0     C39157  10.629   2.436   1.366  0.6132  0.3016  0.4113
 1009MOL0     C39158  10.753   2.396   1.416  0.1920  0.4050  0.0783
 1009MOL0     C39159  11.092   2.220   1.611 -0.1480  0.3153 -0.4382
 1009MOL0     C39160  11.096   2.078   1.585  0.1203  0.3750 -0.6308
 1009MOL0     C39161  11.148   1.993   1.678 -0.2365  0.5531  0.3589
 1009MOL0     C39162  11.201   2.041   1.798 -0.1801 -0.0153 -1.0188
 1009MOL0     O39163  11.273   1.950   1.874  0.5931 -0.2526  0.1934
 1009MOL0     C39164  11.294   1.988   2.014  0.2587  0.3773  0.0534
 1009MOL0     C39165  11.335   1.886   2.111 -0.0649 -0.8939  0.0465
 1009MOL0     C39166  11.260   1.752   2.072 -0.6497 -0.1561 -0.5048
 1009MOL0     C39167  11.288   1.634   2.163  0.1514  0.7027  0.3439
 1009MOL0     C39168  11.193   1.526   2.142  0.1668 -0.1930 -0.3885
 1009MOL0     C39169  11.104   1.446   2.121  0.0972 -0.6561  0.6636
 1009MOL0     C39170  11.200   2.175   1.828  0.5624 -0.3202 -0.3569
 1009MOL0     C39171  11.142   2.271   1.734  0.2224 -0.1742 -0.2941
 1009MOL0     C39172  11.136   2.420   1.766  0.2545 -0.3811  0.3823
 1009MOL0     H39173  10.792   2.090   1.271 -3.7045 -1.3830 -1.2483
 1009MOL0     H39174  10.568   2.155   1.174 -0.6874  0.2881  0.1297
 1009MOL0     H39175  10.426   2.568   1.204 -2.2508  1.5012 -0.6261
 1009MOL0     H39176  10.350   2.503   1.356  0.2693 -0.6247  0.4831
 1009MOL0     H39177  10.208   2.579   1.134 -0.6566  0.2911 -0.8615
 1009MOL0     H39178  10.265   2.436   1.066  0.0636 -1.5183  1.0733
 1009MOL0     H39179  10.100   2.447   1.327  1.7268 -2.4642  0.9192
 1009MOL0     H39180  10.032   2.424   1.172 -1.4271  0.2730  1.4433
 1009MOL0     H39181  10.116   2.202   1.160  2.5369  2.1865 -1.0696
 1009MOL0     H39182  10.242   2.219   1.268 -0.5085 -1.5163  0.0662
 1009MOL0     H39183  10.065   2.085   1.376  0.7282  0.2054  0.7854
 1009MOL0     H39184   9.950   2.219   1.337  0.0606 -2.8466 -4.4514
 1009MOL0     H39185  10.022   2.348   1.526 -0.7651 -0.2814  2.6569
 1009MOL0     H39186  10.024   2.186   1.575 -1.9805  3.8490  1.3028
 1009MOL0     H39187  10.266   2.342   1.484  0.5326 -0.0027  1.0764
 1009MOL0     H39188  10.278   2.171   1.535 -1.9179 -0.7000  1.5012
 1009MOL0     H39189  10.161   2.385   1.715 -1.1165 -1.0836  0.2957
 1009MOL0     H39190  10.197   2.223   1.758 -0.2184 -0.1637 -0.6537
 1009MOL0     H39191  10.518   2.246   1.600 -2.1804 -0.0331 -0.7100
 1009MOL0     H39192  10.775   2.421   1.815 -1.8223 -0.3131  3.7389
 1009MOL0     H39193  10.776   2.321   1.666  3.4658 -0.1996  0.3141
 1009MOL0     H39194  10.696   2.132   1.807 -0.1319  0.3382  0.2212
 1009MOL0     H39195  10.871   2.157   1.804  0.6855  0.9440  0.7844
 1009MOL0     H39196  10.872   2.301   2.006 -0.3491 -0.1065 -1.1387
 1009MOL0     H39197  10.706   2.255   2.021  0.0831 -0.8085  2.6434
 1009MOL0     H39198  10.771   2.007   2.033 -1.0444  0.5525  1.4018
 1009MOL0     H39199  10.944   2.066   2.028 -0.2997  1.2672 -1.0507
 1009MOL0     H39200  11.056   2.237   2.111 -2.6209 -0.4029 -0.4663
 1009MOL0     H39201  11.306   2.381   2.264 -0.1220  1.6613  4.1944
 1009MOL0     H39202  11.224   2.531   2.253  1.9158  0.3450  0.2049
 1009MOL0     H39203  11.201   2.411   2.124  1.2431  0.1791 -0.3682
 1009MOL0     H39204  11.323   2.402   2.801  1.6494  0.4001 -1.5211
 1009MOL0     H39205  11.399   2.545   2.989 -2.5779 -0.0671  1.8928
 1009MOL0     H39206  11.397   2.816   3.226  2.9698  2.5443 -0.7456
 1009MOL0     H39207  11.400   2.653   3.153  1.5776  0.0051 -1.0110
 1009MOL0     H39208  11.620   2.718   3.053  0.5682  0.0932  0.1251
 1009MOL0     H39209  11.582   2.889   3.073 -0.7800  0.2524  0.3058
 1009MOL0     H39210  11.634   2.881   3.303  3.1458  1.1262  0.6181
 1009MOL0     H39211  11.758   2.781   3.237 -1.2090  2.7745 -3.0540
 1009MOL0     H39212  11.637   2.571   3.288  0.4430  0.1148  0.4055
 1009MOL0     H39213  11.507   2.667   3.363  0.8340 -0.7195  2.3758
 1009MOL0     H39214  11.777   2.643   3.493 -0.3488 -1.8131  0.5161
 1009MOL0     H39215  11.648   2.751   3.539  0.8618 -0.1171 -0.4308
 1009MOL0     H39216  11.575   2.464   3.489 -0.3297  0.0246  0.8608
 1009MOL0     H39217  11.532   2.570   3.619  0.9475  2.0394 -0.1284
 1009MOL0     H39218  11.798   2.431   3.594  2.4361  0.3465  1.7585
 1009MOL0     H39219  11.654   2.375   3.685  0.9966  0.3795  0.8698
 1009MOL0     H39220  11.655   2.605   3.797 -0.6445  1.1132 -3.2686
 1009MOL0     H39221  11.804   2.649   3.736  0.6874 -0.1758 -0.2155
 1009MOL0     H39222  11.230   2.893   2.802  3.0214 -0.7371 -1.1082
 1009MOL0     H39223  11.110   2.748   2.643 -2.6047  1.0765  1.7674
 1009MOL0     H39224  10.965   2.269   2.589 -1.6732 -1.2733 -0.0794
 1009MOL0     H39225  10.842   2.128   2.471 -3.7211  1.1105 -2.2807
 1009MOL0     H39226  10.584   2.526   1.406 -0.4371 -1.1533  2.7602
 1009MOL0     H39227  10.804   2.466   1.482 -0.9618  1.4131 -0.0506
 1009MOL0     H39228  11.062   2.031   1.493 -0.8978 -0.3087  0.0633
 1009MOL0     H39229  11.153   1.887   1.655  3.1445  1.1162 -2.4082
 1009MOL0     H39230  11.372   2.064   2.011 -0.2921  1.0589  2.0940
 1009MOL0     H39231  11.200   2.029   2.052  0.6841  1.7642 -0.3600
 1009MOL0     H39232  11.300   1.915   2.210  0.1122 -0.9023  0.1135
 1009MOL0     H39233  11.444   1.874   2.113  0.0285 -0.2586 -0.5864
 1009MOL0     H39234  11.153   1.774   2.075 -0.9314 -1.5396  0.3423
 1009MOL0     H39235  11.272   1.714   1.970 -1.3250 -0.6031 -0.4248
 1009MOL0     H39236  11.279   1.664   2.268 -0.7920 -0.4912  0.6312
 1009MOL0     H39237  11.390   1.597   2.151  0.2669  1.7666 -3.0771
 1009MOL0     H39238  11.017   1.390   2.095  1.7831 -1.7748 -3.2093
 1009MOL0     H39239  11.243   2.224   1.914  0.4804  1.9396 -1.5207
 1009MOL0     H39240  11.180   2.481   1.687  0.9047 -0.8315  0.3927
 1009MOL0     H39241  11.030   2.446   1.765  0.3363 -0.0561  0.0801
 1009MOL0     H39242  11.170   2.442   1.868  1.5011 -1.6669  0.2752
 1010MOL0     O39243   9.133  11.419   6.464 -0.0142  0.2028  0.7382
 1010MOL0     C39244   9.243  11.482   6.471  0.8613  0.2697  0.5718
 1010MOL0     O39245   9.352  11.452   6.397 -0.5862  1.0494 -0.1125
 1010MOL0     C39246   9.346  11.349   6.303  0.3196 -0.3012  0.0525
 1010MOL0     C39247   9.429  11.245   6.321  0.1999  0.3004 -0.3023
 1010MOL0     C39248   9.417  11.130   6.247  0.4336  0.7859 -0.7267
 1010MOL0     C39249   9.324  11.120   6.143 -0.3836  0.2438  0.3435
 1010MOL0     O39250   9.286  10.998   6.090 -0.2127  0.2600 -0.6418
 1010MOL0     C39251   9.245  10.987   5.955 -0.3945 -0.1190 -0.3987
 1010MOL0     C39252   9.334  11.044   5.850 -0.0282  0.8799 -0.6845
 1010MOL0     C39253   9.472  10.995   5.881 -0.5244 -0.3659 -0.0261
 1010MOL0     C39254   9.497  10.851   5.824  0.4438 -0.6857  0.0213
 1010MOL0     C39255   9.636  10.798   5.849 -0.8058  0.2046  0.9038
 1010MOL0     C39256   9.642  10.699   5.971 -0.1025 -1.1331  0.0183
 1010MOL0     C39257   9.610  10.771   6.106 -0.0379  0.0715  0.2694
 1010MOL0     C39258   9.624  10.682   6.231 -0.5924 -0.9469  0.1100
 1010MOL0     N39259   9.763  10.665   6.270 -0.2235 -0.3297 -0.2074
 1010MOL0     C39260   9.826  10.743   6.365 -0.0483  0.4463  0.3545
 1010MOL0     C39261   9.939  10.673   6.404  0.4420 -0.3759  0.0464
 1010MOL0     C39262  10.049  10.702   6.504  0.4254  0.8317  0.1061
 1010MOL0     C39263  10.180  10.749   6.441  0.1101 -0.6612  1.2201
 1010MOL0     C39264  10.277  10.777   6.560  1.0103 -0.1536  0.9594
 1010MOL0     C39265  10.423  10.764   6.512  0.6485  0.6985  0.5311
 1010MOL0     O39266  10.500  10.861   6.585 -0.4933 -0.5786 -0.2932
 1010MOL0     C39267  10.617  10.900   6.533  0.0456 -0.5807  0.6624
 1010MOL0     C39268  10.656  11.029   6.574  0.4277  0.2992  0.4160
 1010MOL0     C39269  10.784  11.088   6.537  0.5554  0.4884 -0.4458
 1010MOL0     C39270  10.806  11.222   6.582 -0.1537  0.7585 -0.0601
 1010MOL0     C39271  10.867  11.016   6.444 -1.2165  0.7747  0.4996
 1010MOL0     C39272  10.994  11.075   6.393 -0.1594  0.9631 -0.1977
 1010MOL0     O39273  11.056  10.993   6.294 -0.0948  1.0865  0.0939
 1010MOL0     C39274  11.144  11.051   6.213  0.2842 -0.2980 -0.4224
 1010MOL0     C39275  11.276  11.054   6.261  0.3866 -0.7371  0.1053
 1010MOL0     C39276  11.373  11.120   6.167  0.0396  0.0442 -0.7330
 1010MOL0     C39277  11.343  11.166   6.041 -0.1449  0.8524  0.8206
 1010MOL0     O39278  11.447  11.221   5.962  0.4350 -0.7010  0.5881
 1010MOL0     C39279  11.453  11.191   5.823 -0.4426  0.7088 -0.0624
 1010MOL0     C39280  11.573  11.269   5.777  0.1225 -0.4027 -0.0756
 1010MOL0     C39281  11.699  11.185   5.813  1.1610 -0.6672 -0.2995
 1010MOL0     C39282  11.831  11.257   5.759  0.1611  0.7852 -0.3503
 1010MOL0     C39283  11.966  11.201   5.810 -0.0881 -0.7985  0.2011
 1010MOL0     C39284  11.982  11.052   5.786 -0.6900 -0.3185  0.2905
 1010MOL0     C39285  12.115  11.001   5.840 -0.1457 -1.0612 -0.0514
 1010MOL0     C39286  12.127  10.849   5.802 -1.2939 -0.4367  0.2103
 1010MOL0    Cl39287  11.979  10.752   5.858 -0.3310  0.0339 -0.1754
 1010MOL0     C39288  11.210  11.149   6.002 -0.4110 -0.2569 -0.0891
 1010MOL0     C39289  11.109  11.102   6.085  0.1860 -0.5681 -0.2726
 1010MOL0     O39290  11.035  11.184   6.425 -0.3959  0.4950 -0.9043
 1010MOL0     C39291  10.816  10.886   6.404 -0.3487 -0.2355 -0.0150
 1010MOL0     C39292  10.695  10.840   6.443  0.1590  1.2532  0.2666
 1010MOL0     N39293   9.934  10.560   6.318 -0.7775 -0.3445 -0.1574
 1010MOL0     N39294   9.839  10.566   6.231 -0.0234  0.5819 -0.7693
 1010MOL0     C39295   9.248  11.233   6.116 -0.3659 -0.0460 -0.2317
 1010MOL0     C39296   9.258  11.351   6.194  0.1137  1.4886  0.4526
 1010MOL0     C39297   9.278  11.595   6.557 -0.2450 -0.2749 -0.1066
 1010MOL0     C39298   9.410  11.653   6.551 -0.1385 -0.3287 -0.4290
 1010MOL0     C39299   9.444  11.758   6.631 -0.0011 -0.8490 -0.4229
 1010MOL0     C39300   9.356  11.819   6.713 -0.1480  0.2439 -0.2582
 1010MOL0     O39301   9.394  11.940   6.770 -0.0388  0.6755 -0.1065
 1010MOL0     C39302   9.288  12.033   6.795  0.2450  0.1397  0.5900
 1010MOL0     C39303   9.326  12.179   6.789  0.9219 -0.0970  0.7461
 1010MOL0     C39304   9.405  12.227   6.908 -1.5963 -0.0836  0.4047
 1010MOL0     C39305   9.456  12.372   6.885  0.9678 -0.4801  0.7297
 1010MOL0     C39306   9.332  12.461   6.877 -0.1147 -0.3544  0.3262
 1010MOL0     C39307   9.241  12.549   6.868  0.5528  0.8654 -0.0546
 1010MOL0     C39308   9.220  11.769   6.712 -1.3666  0.1513 -0.1519
 1010MOL0     C39309   9.177  11.657   6.635 -0.5265  0.5338 -0.4052
 1010MOL0     C39310   9.032  11.622   6.648 -0.6154 -0.3889 -0.7069
 1010MOL0     H39311   9.479  11.246   6.418 -1.6033 -0.0533  0.6607
 1010MOL0     H39312   9.467  11.041   6.284  0.7633  0.3924 -2.0901
 1010MOL0     H39313   9.158  11.053   5.947  0.3471  0.6748 -3.3139
 1010MOL0     H39314   9.213  10.889   5.920 -1.6878 -0.2620  1.1003
 1010MOL0     H39315   9.317  11.019   5.745  1.8216 -0.5611 -0.6935
 1010MOL0     H39316   9.317  11.151   5.865  0.4658  0.7642  0.9454
 1010MOL0     H39317   9.536  11.068   5.830  0.5227  0.3556  2.1898
 1010MOL0     H39318   9.498  11.015   5.985 -1.4956 -0.7131  0.2982
 1010MOL0     H39319   9.417  10.784   5.857  0.7377 -1.5548 -0.9756
 1010MOL0     H39320   9.490  10.850   5.715  3.0231 -0.3471 -0.2013
 1010MOL0     H39321   9.701  10.886   5.849  0.6741 -0.8595  1.1655
 1010MOL0     H39322   9.667  10.750   5.756  1.7852 -0.9391  2.2636
 1010MOL0     H39323   9.572  10.617   5.951 -1.2840  0.0854 -0.9922
 1010MOL0     H39324   9.743  10.658   5.985  1.2707  1.6003 -1.2313
 1010MOL0     H39325   9.511  10.817   6.104  1.5534  3.8803 -0.9127
 1010MOL0     H39326   9.678  10.854   6.129  2.3257 -2.2619  2.4329
 1010MOL0     H39327   9.568  10.717   6.318 -1.2703 -1.1218 -0.2540
 1010MOL0     H39328   9.582  10.584   6.208 -1.1899 -0.9018  0.9637
 1010MOL0     H39329   9.789  10.836   6.406  0.3795  0.0575  1.6930
 1010MOL0     H39330  10.080  10.619   6.569  0.0565  0.9593  0.4511
 1010MOL0     H39331  10.008  10.769   6.581 -0.6235 -0.8560  1.0701
 1010MOL0     H39332  10.217  10.671   6.374 -3.2304 -0.0919 -1.5856
 1010MOL0     H39333  10.159  10.832   6.372  0.4906 -0.1673  1.6808
 1010MOL0     H39334  10.256  10.876   6.601  1.4015 -0.1760  1.2222
 1010MOL0     H39335  10.257  10.699   6.634  1.9219 -3.1440 -1.7028
 1010MOL0     H39336  10.459  10.661   6.522  1.1226  0.4652 -2.6281
 1010MOL0     H39337  10.418  10.783   6.404 -4.3980 -1.8939 -0.0052
 1010MOL0     H39338  10.580  11.078   6.634 -1.2130  0.9033 -2.0112
 1010MOL0     H39339  10.731  11.244   6.658  0.6994 -1.8134  1.6720
 1010MOL0     H39340  10.805  11.293   6.499 -2.5190 -0.2461 -0.9896
 1010MOL0     H39341  10.903  11.217   6.632  0.2517  1.1971 -0.7829
 1010MOL0     H39342  11.288  11.010   6.360 -3.2730  1.9877  1.9911
 1010MOL0     H39343  11.480  11.127   6.183  0.1812  2.9624 -2.3074
 1010MOL0     H39344  11.450  11.083   5.807  0.3418  0.5603  0.7116
 1010MOL0     H39345  11.364  11.230   5.773  0.3232  1.0958 -1.1689
 1010MOL0     H39346  11.568  11.279   5.668  0.8989  0.5432 -0.0360
 1010MOL0     H39347  11.569  11.371   5.816 -1.5390 -0.2791 -0.4785
 1010MOL0     H39348  11.692  11.088   5.763 -0.3650 -1.0971  0.7013
 1010MOL0     H39349  11.698  11.178   5.922  0.9127 -1.7883 -0.3618
 1010MOL0     H39350  11.819  11.364   5.777  1.9781  1.1267 -0.8834
 1010MOL0     H39351  11.828  11.243   5.651  3.3073  1.8635 -0.6796
 1010MOL0     H39352  12.057  11.247   5.771  0.3543 -2.2742 -0.6166
 1010MOL0     H39353  11.954  11.221   5.917 -3.2622 -1.6551  0.0882
 1010MOL0     H39354  11.987  11.041   5.677 -1.1522  1.1207  0.1095
 1010MOL0     H39355  11.903  10.984   5.819 -2.3403  1.2261 -0.3374
 1010MOL0     H39356  12.147  11.017   5.944 -0.6213 -0.8415  0.0613
 1010MOL0     H39357  12.184  11.059   5.778 -0.5218 -0.5832 -0.0294
 1010MOL0     H39358  12.224  10.813   5.836  0.0649 -1.0416 -3.7365
 1010MOL0     H39359  12.130  10.846   5.692 -1.0814  0.6772  0.1755
 1010MOL0     H39360  11.178  11.172   5.900  2.3900 -4.7545 -2.3038
 1010MOL0     H39361  11.008  11.093   6.046  0.9342 -0.6510 -2.3410
 1010MOL0     H39362  10.872  10.835   6.327 -2.6794 -0.7293 -1.4871
 1010MOL0     H39363  10.666  10.751   6.388  0.5971  2.1625 -1.5122
 1010MOL0     H39364   9.173  11.239   6.038  1.4766  0.5995 -2.0345
 1010MOL0     H39365   9.193  11.435   6.171  2.0957  2.9625 -0.0473
 1010MOL0     H39366   9.484  11.629   6.476 -1.8469 -1.1131 -1.9556
 1010MOL0     H39367   9.549  11.787   6.625 -0.4481  0.5997 -2.2983
 1010MOL0     H39368   9.217  12.006   6.717 -0.2250  2.0451  0.3094
 1010MOL0     H39369   9.256  12.006   6.896 -0.1527  0.4607  0.5507
 1010MOL0     H39370   9.223  12.216   6.785  0.3100 -1.8318 -0.6266
 1010MOL0     H39371   9.378  12.197   6.695 -1.9358 -2.5746 -1.5386
 1010MOL0     H39372   9.356  12.209   7.004 -2.5056 -1.1664 -0.2474
 1010MOL0     H39373   9.495  12.165   6.907 -0.6459  1.2527 -0.7292
 1010MOL0     H39374   9.520  12.384   6.797  2.1499 -0.1264  1.6084
 1010MOL0     H39375   9.517  12.401   6.972  0.8339 -0.0199  0.6720
 1010MOL0     H39376   9.182  12.637   6.857 -2.2932 -1.1412 -2.9224
 1010MOL0     H39377   9.146  11.811   6.780  0.5573  0.2051  2.0776
 1010MOL0     H39378   9.030  11.529   6.706 -2.0827 -0.2950 -0.5736
 1010MOL0     H39379   8.976  11.695   6.707 -0.7025 -1.4720  0.5929
 1010MOL0     H39380   8.978  11.620   6.552 -2.1358  0.2496  0.1084
 1011MOL0     O39381   1.010   7.601   3.697  0.0532  0.3554  0.6913
 1011MOL0     C39382   0.942   7.502   3.675 -0.0576 -0.5057  0.3161
 1011MOL0     O39383   0.980   7.387   3.608  0.5291  0.2926  0.4093
 1011MOL0     C39384   1.110   7.375   3.569 -0.9416  0.2496 -0.2661
 1011MOL0     C39385   1.155   7.403   3.441 -0.1657 -0.0677  0.9263
 1011MOL0     C39386   1.290   7.375   3.394 -0.5347 -0.1622  0.1182
 1011MOL0     C39387   1.385   7.316   3.480  0.4034  0.1313  0.5422
 1011MOL0     O39388   1.514   7.289   3.449  0.1581  0.0260  0.0098
 1011MOL0     C39389   1.539   7.157   3.411 -0.8286 -0.2244  0.5327
 1011MOL0     C39390   1.697   7.134   3.426 -0.0047 -0.1553 -0.0792
 1011MOL0     C39391   1.742   6.989   3.418  0.5419  0.1391  0.0643
 1011MOL0     C39392   1.893   6.986   3.396 -0.0553  0.6140 -0.1588
 1011MOL0     C39393   1.930   6.842   3.336 -0.2536 -1.0415  0.2993
 1011MOL0     C39394   2.077   6.826   3.276  0.0142  0.2936 -0.1526
 1011MOL0     C39395   2.171   6.812   3.393  0.5907  0.2422  0.9474
 1011MOL0     C39396   2.311   6.830   3.347 -0.2283 -0.3248 -0.1036
 1011MOL0     N39397   2.417   6.816   3.448  0.0586  1.2801  0.4664
 1011MOL0     C39398   2.485   6.693   3.476 -0.6586  0.2066  0.4724
 1011MOL0     C39399   2.590   6.728   3.550  0.2216 -0.2195  0.1089
 1011MOL0     C39400   2.697   6.644   3.601  0.8653 -0.1108 -0.7982
 1011MOL0     C39401   2.669   6.586   3.739  0.4967 -0.5586 -0.4049
 1011MOL0     C39402   2.798   6.531   3.793 -0.6454  0.2537 -0.5049
 1011MOL0     C39403   2.769   6.478   3.936 -0.0425  0.5064 -0.1486
 1011MOL0     O39404   2.884   6.476   4.026 -0.0003  0.1149 -0.2944
 1011MOL0     C39405   2.917   6.362   4.100 -0.8471  1.3890  0.3917
 1011MOL0     C39406   2.821   6.263   4.132 -0.4740  0.2722 -0.5227
 1011MOL0     C39407   2.856   6.140   4.197 -0.2136  0.0737  1.0648
 1011MOL0     C39408   2.736   6.050   4.211 -0.5668  1.2730 -0.1070
 1011MOL0     C39409   2.993   6.123   4.248 -0.7547 -0.0257  0.0564
 1011MOL0     C39410   3.039   6.010   4.326 -0.2743  0.5006 -0.5188
 1011MOL0     O39411   3.120   6.051   4.431 -0.3408  0.1315  0.0977
 1011MOL0     C39412   3.150   5.972   4.541  0.0534 -0.3307 -0.3215
 1011MOL0     C39413   3.273   5.987   4.608 -0.4314 -0.5505 -0.1904
 1011MOL0     C39414   3.308   5.917   4.716  0.4360  0.6650 -0.0890
 1011MOL0     C39415   3.216   5.829   4.780 -0.4931 -0.5194 -0.8698
 1011MOL0     O39416   3.262   5.770   4.895  0.1284 -0.2310 -0.4719
 1011MOL0     C39417   3.264   5.624   4.894 -1.0509 -0.2182 -0.3597
 1011MOL0     C39418   3.194   5.592   5.026 -0.4206  0.7385  0.4969
 1011MOL0     C39419   3.227   5.445   5.058 -0.3693 -0.2363 -0.2447
 1011MOL0     C39420   3.197   5.437   5.215  0.1979  0.5485 -1.0757
 1011MOL0     C39421   3.287   5.331   5.271  0.0026  0.3023 -0.3806
 1011MOL0     C39422   3.258   5.307   5.419 -0.3295  1.1085 -0.1854
 1011MOL0     C39423   3.172   5.180   5.437 -0.6151  0.5568 -0.1367
 1011MOL0     C39424   3.179   5.127   5.574  1.5010  0.7167 -1.1122
 1011MOL0    Cl39425   3.150   5.243   5.714 -0.2074  0.1316  0.0613
 1011MOL0     C39426   3.087   5.824   4.728  0.1102  0.2275 -0.7565
 1011MOL0     C39427   3.057   5.886   4.606 -0.6034 -0.5409 -0.1246
 1011MOL0     O39428   3.010   5.895   4.303 -0.3858 -0.2597 -0.0681
 1011MOL0     C39429   3.086   6.223   4.218 -0.6260 -1.0896 -0.1959
 1011MOL0     C39430   3.049   6.339   4.144 -0.2238 -0.5883 -1.3232
 1011MOL0     N39431   2.577   6.859   3.580 -0.6964 -0.2642 -0.5048
 1011MOL0     N39432   2.473   6.915   3.526  1.0083 -0.1318  0.1343
 1011MOL0     C39433   1.341   7.291   3.610 -0.2153  0.2812 -0.2945
 1011MOL0     C39434   1.209   7.310   3.650 -0.3137  0.1245 -0.2667
 1011MOL0     C39435   0.804   7.512   3.718  0.6068  0.6151 -0.4777
 1011MOL0     C39436   0.722   7.616   3.678 -0.3740 -0.3209 -0.0835
 1011MOL0     C39437   0.586   7.622   3.714  0.2830  0.0724 -1.0712
 1011MOL0     C39438   0.528   7.526   3.798  1.0586 -0.1878 -0.1849
 1011MOL0     O39439   0.402   7.509   3.856  0.0095 -0.7192 -0.2640
 1011MOL0     C39440   0.287   7.593   3.817 -0.1152  0.4273  0.6328
 1011MOL0     C39441   0.227   7.675   3.921 -0.6346  0.0594  1.0367
 1011MOL0     C39442   0.334   7.767   3.982 -0.1085 -0.5439  0.8280
 1011MOL0     C39443   0.414   7.707   4.094 -0.0618 -0.4099  0.0473
 1011MOL0     C39444   0.498   7.804   4.160  0.3788 -0.4302 -0.1036
 1011MOL0     C39445   0.561   7.895   4.204  0.0209 -0.0002 -0.0422
 1011MOL0     C39446   0.609   7.414   3.826  0.0351  0.1557 -0.6857
 1011MOL0     C39447   0.745   7.396   3.782  0.4271 -0.8645 -0.2513
 1011MOL0     C39448   0.816   7.273   3.848  0.4110  0.1739  0.4700
 1011MOL0     H39449   1.093   7.440   3.360  1.6149  0.6779 -0.1512
 1011MOL0     H39450   1.323   7.414   3.298 -1.9247  2.0756  0.4565
 1011MOL0     H39451   1.513   7.135   3.307 -0.5751  2.5639 -0.1996
 1011MOL0     H39452   1.487   7.083   3.474 -0.0369 -1.1337  0.1395
 1011MOL0     H39453   1.743   7.200   3.352 -0.4316  1.4291  1.0110
 1011MOL0     H39454   1.711   7.181   3.524 -1.3673  0.2538 -0.0557
 1011MOL0     H39455   1.726   6.932   3.510 -1.4844  1.6473  0.7421
 1011MOL0     H39456   1.693   6.937   3.336  1.8627  1.0764 -1.3753
 1011MOL0     H39457   1.919   7.072   3.334  1.1912 -0.5192 -1.2739
 1011MOL0     H39458   1.943   7.016   3.488 -0.1492  0.1913  0.0326
 1011MOL0     H39459   1.861   6.803   3.262  0.3059  2.4233 -2.2931
 1011MOL0     H39460   1.918   6.780   3.425  1.3715  0.6445  1.7943
 1011MOL0     H39461   2.080   6.738   3.211 -0.0073  0.5383 -0.4883
 1011MOL0     H39462   2.104   6.914   3.216 -0.7155 -0.6303 -1.8926
 1011MOL0     H39463   2.150   6.713   3.435 -2.8926 -0.2381 -1.5390
 1011MOL0     H39464   2.158   6.892   3.466  1.6891 -0.4157  1.9122
 1011MOL0     H39465   2.331   6.771   3.257  1.1937 -0.4965  0.3082
 1011MOL0     H39466   2.311   6.935   3.317  1.5642 -0.1999  0.2608
 1011MOL0     H39467   2.465   6.596   3.430  0.4782  0.4154 -0.5044
 1011MOL0     H39468   2.775   6.720   3.610  0.9061 -0.3025  0.7688
 1011MOL0     H39469   2.716   6.565   3.528 -4.1998 -0.9507 -1.5381
 1011MOL0     H39470   2.630   6.663   3.806 -0.9393 -0.5382 -1.2346
 1011MOL0     H39471   2.589   6.513   3.736 -1.0428  1.0762 -2.4722
 1011MOL0     H39472   2.815   6.446   3.725 -2.6980 -0.6059 -0.0189
 1011MOL0     H39473   2.883   6.599   3.790  1.5138 -2.2246  0.9840
 1011MOL0     H39474   2.701   6.550   3.982  2.1580  3.0746 -0.6435
 1011MOL0     H39475   2.713   6.386   3.921 -1.1401  1.3388 -1.4409
 1011MOL0     H39476   2.725   6.296   4.093  1.0343  0.3545 -4.7492
 1011MOL0     H39477   2.759   5.947   4.183  2.0011  0.5070  4.0890
 1011MOL0     H39478   2.641   6.084   4.169 -0.8989 -0.1995 -0.5878
 1011MOL0     H39479   2.712   6.041   4.317 -0.7262 -0.1056 -0.2415
 1011MOL0     H39480   3.345   6.059   4.571  2.3461 -1.7973  2.4144
 1011MOL0     H39481   3.407   5.923   4.760  0.3827  1.4659 -0.0485
 1011MOL0     H39482   3.224   5.574   4.806  0.1110  0.9698 -1.6039
 1011MOL0     H39483   3.366   5.587   4.909  0.6900  4.3700  1.0523
 1011MOL0     H39484   3.225   5.662   5.104 -2.5738  1.4583  0.7921
 1011MOL0     H39485   3.087   5.615   5.014 -1.9853 -4.6394  1.0529
 1011MOL0     H39486   3.333   5.430   5.037 -0.4036 -1.7361  0.5168
 1011MOL0     H39487   3.163   5.371   5.007 -0.7842 -0.4428  0.5520
 1011MOL0     H39488   3.092   5.406   5.225  0.4486  0.4429  2.0744
 1011MOL0     H39489   3.213   5.528   5.273 -0.0205 -0.5001  0.7191
 1011MOL0     H39490   3.291   5.239   5.213  2.9113  0.0988 -0.0008
 1011MOL0     H39491   3.385   5.379   5.265 -0.0187  1.4637  4.2382
 1011MOL0     H39492   3.199   5.388   5.462 -1.7146 -1.5842  3.6108
 1011MOL0     H39493   3.347   5.294   5.481  0.3213  1.8414 -0.9538
 1011MOL0     H39494   3.212   5.105   5.368 -2.9430 -0.7463 -0.1855
 1011MOL0     H39495   3.068   5.197   5.409 -1.1877 -0.2131  1.3848
 1011MOL0     H39496   3.269   5.071   5.598  1.4357  0.6806 -0.9514
 1011MOL0     H39497   3.103   5.049   5.583  2.2703  0.2537  2.8402
 1011MOL0     H39498   3.016   5.772   4.791 -0.9535  1.0439 -1.2450
 1011MOL0     H39499   2.958   5.856   4.572  0.0084 -2.1205 -0.6160
 1011MOL0     H39500   3.187   6.203   4.250  0.3311 -0.5323 -2.6691
 1011MOL0     H39501   3.120   6.419   4.125 -0.2474 -0.5567 -1.2775
 1011MOL0     H39502   1.409   7.257   3.687 -1.1513  1.0601  0.9332
 1011MOL0     H39503   1.176   7.282   3.750 -2.1427  2.0307 -0.2654
 1011MOL0     H39504   0.768   7.689   3.612  0.1326  0.6512  1.3025
 1011MOL0     H39505   0.522   7.705   3.686 -0.5438  0.4212  1.5493
 1011MOL0     H39506   0.322   7.664   3.742 -0.9834  0.9130  0.6639
 1011MOL0     H39507   0.216   7.517   3.782  1.9989 -1.0338 -0.7294
 1011MOL0     H39508   0.169   7.620   3.995 -0.8420 -2.4070 -0.8357
 1011MOL0     H39509   0.152   7.732   3.865 -0.0474 -1.2045 -1.1710
 1011MOL0     H39510   0.404   7.805   3.906  0.3909  0.4816  1.7664
 1011MOL0     H39511   0.271   7.848   4.021  1.6813  1.0578  0.5550
 1011MOL0     H39512   0.465   7.615   4.066  0.6273  0.7385 -2.8928
 1011MOL0     H39513   0.349   7.675   4.176 -2.0584  0.3694 -1.1586
 1011MOL0     H39514   0.619   7.981   4.230  0.3713 -0.1808 -0.2152
 1011MOL0     H39515   0.570   7.344   3.899  1.6997 -1.4117 -1.2175
 1011MOL0     H39516   0.745   7.194   3.875  2.2779 -1.3753  1.1160
 1011MOL0     H39517   0.890   7.227   3.782  0.5770  4.1968 -2.4615
 1011MOL0     H39518   0.878   7.296   3.935  1.2993 -0.3084 -0.0193
 1012MOL0     O39519   2.639   0.564   9.123 -0.1312 -0.4458  0.2990
 1012MOL0     C39520   2.637   0.553   9.243  0.1606  0.2380 -0.8026
 1012MOL0     O39521   2.558   0.622   9.331  0.0107  0.1135  0.2082
 1012MOL0     C39522   2.482   0.723   9.275 -0.7294  0.1629  0.6387
 1012MOL0     C39523   2.352   0.694   9.219 -0.2433 -0.3012 -0.0738
 1012MOL0     C39524   2.274   0.784   9.155 -0.9749 -0.1325 -0.1821
 1012MOL0     C39525   2.321   0.917   9.136 -0.4449 -0.0303  0.0226
 1012MOL0     O39526   2.233   1.004   9.077  0.4634  0.0443 -0.0213
 1012MOL0     C39527   2.254   1.140   9.112  0.1040 -0.0701  0.5075
 1012MOL0     C39528   2.132   1.215   9.055  0.3588  0.3321 -0.3859
 1012MOL0     C39529   2.107   1.348   9.125  0.6386 -0.4276  0.2729
 1012MOL0     C39530   2.230   1.442   9.128  0.5993  0.4265 -1.3357
 1012MOL0     C39531   2.172   1.572   9.181  0.1764 -0.2095 -0.5292
 1012MOL0     C39532   2.276   1.685   9.209  0.1501 -0.3819  0.2648
 1012MOL0     C39533   2.209   1.819   9.237  1.5010 -0.5801  0.8639
 1012MOL0     C39534   2.296   1.939   9.269 -0.1860  0.5924 -0.9826
 1012MOL0     N39535   2.386   1.897   9.372 -0.2798 -0.3867 -0.3610
 1012MOL0     C39536   2.347   1.891   9.507  0.2325  0.2841 -0.3606
 1012MOL0     C39537   2.451   1.845   9.575 -0.1059 -0.7275 -0.7914
 1012MOL0     C39538   2.451   1.811   9.719  0.1735  0.5597 -0.6811
 1012MOL0     C39539   2.544   1.898   9.798 -1.0153  0.5121  0.4685
 1012MOL0     C39540   2.542   1.883   9.947 -0.3005 -0.0749  0.5084
 1012MOL0     C39541   2.414   1.935  10.011 -0.8176 -0.3115  0.1885
 1012MOL0     O39542   2.354   2.055   9.955  0.3771 -0.5493 -0.5510
 1012MOL0     C39543   2.418   2.172   9.981 -0.1497 -0.6375 -1.2874
 1012MOL0     C39544   2.420   2.274   9.881  0.1899  0.0421  0.0778
 1012MOL0     C39545   2.450   2.407   9.902 -0.3263 -0.5150 -0.4678
 1012MOL0     C39546   2.444   2.502   9.786  0.8244  1.1445  0.4981
 1012MOL0     C39547   2.516   2.435  10.021  0.6860 -0.1250  1.0252
 1012MOL0     C39548   2.579   2.573  10.047  0.5305  0.4877  0.9760
 1012MOL0     O39549   2.593   2.665   9.937 -0.8968  0.2199 -0.2030
 1012MOL0     C39550   2.654   2.783   9.965  0.2492  0.1216 -0.3678
 1012MOL0     C39551   2.587   2.912   9.941  0.5620 -0.2080 -0.2235
 1012MOL0     C39552   2.650   3.026   9.982 -0.8036  0.4734 -0.0487
 1012MOL0     C39553   2.783   3.020  10.036 -0.8186  0.1618  0.0050
 1012MOL0     O39554   2.858   3.132  10.060  0.8759 -0.0917  0.6053
 1012MOL0     C39555   2.848   3.243   9.967 -0.1883 -0.1190  0.4911
 1012MOL0     C39556   2.963   3.319  10.026 -0.3490  0.9658  0.2161
 1012MOL0     C39557   2.969   3.460   9.964  0.0617 -0.0184 -0.1551
 1012MOL0     C39558   3.102   3.527   9.971  0.0224 -0.3487  0.1466
 1012MOL0     C39559   3.114   3.649   9.883 -0.0047  0.4121  0.2130
 1012MOL0     C39560   3.247   3.726   9.896  0.2766 -0.2496 -0.1978
 1012MOL0     C39561   3.248   3.788  10.035 -0.2167  0.1542 -0.2435
 1012MOL0     C39562   3.385   3.868  10.040  0.0195  0.4207  0.7277
 1012MOL0    Cl39563   3.537   3.766   9.991  0.1509 -0.5081  0.5537
 1012MOL0     C39564   2.841   2.901  10.058  0.0495 -0.0318  0.1544
 1012MOL0     C39565   2.783   2.779  10.018 -0.1997 -0.3648  0.2713
 1012MOL0     O39566   2.617   2.597  10.157  0.0243 -0.1321 -0.5090
 1012MOL0     C39567   2.530   2.345  10.120  0.3426 -0.0253  0.7940
 1012MOL0     C39568   2.478   2.214  10.105 -0.0265 -0.3745 -0.4773
 1012MOL0     N39569   2.551   1.838   9.486 -1.0091  0.1058 -0.0231
 1012MOL0     N39570   2.521   1.854   9.361  0.4485  0.8967  0.0674
 1012MOL0     C39571   2.446   0.953   9.197 -0.5878  0.1043  0.0227
 1012MOL0     C39572   2.525   0.859   9.262  0.0841  0.0329  0.6452
 1012MOL0     C39573   2.718   0.454   9.306  0.0409 -0.7297 -1.1986
 1012MOL0     C39574   2.677   0.406   9.429  0.6848  0.3243  1.0072
 1012MOL0     C39575   2.746   0.305   9.495  0.6323 -0.8400 -0.5068
 1012MOL0     C39576   2.861   0.245   9.444 -0.1545 -0.1571  1.5777
 1012MOL0     O39577   2.923   0.152   9.522 -0.6009  0.6675 -0.1109
 1012MOL0     C39578   3.032   0.076   9.460 -0.2676 -0.0574 -0.6118
 1012MOL0     C39579   3.057  -0.043   9.561  0.1747  0.2279 -0.1821
 1012MOL0     C39580   2.944  -0.145   9.574 -0.0559  0.3226 -0.2324
 1012MOL0     C39581   2.986  -0.274   9.647  0.4015  0.7916 -0.4040
 1012MOL0     C39582   2.874  -0.368   9.659  0.1434  0.9299  0.5925
 1012MOL0     C39583   2.765  -0.429   9.658 -0.9843  0.6142  0.1441
 1012MOL0     C39584   2.914   0.305   9.324 -0.2506 -0.2909  1.0087
 1012MOL0     C39585   2.841   0.404   9.252  0.1585 -0.0209 -0.7746
 1012MOL0     C39586   2.892   0.450   9.118  0.2515 -0.5512  0.0676
 1012MOL0     H39587   2.309   0.595   9.207  0.3955 -0.5890 -0.0248
 1012MOL0     H39588   2.181   0.751   9.110  0.2468 -4.0693 -0.2060
 1012MOL0     H39589   2.344   1.191   9.076  0.4316 -0.8976  0.1290
 1012MOL0     H39590   2.255   1.161   9.219  0.3319 -0.2972  0.5516
 1012MOL0     H39591   2.151   1.232   8.948 -1.2352 -2.7755 -1.2705
 1012MOL0     H39592   2.046   1.148   9.064  1.0864 -0.4335  1.2516
 1012MOL0     H39593   2.031   1.398   9.064 -0.1843 -0.8221  0.9476
 1012MOL0     H39594   2.064   1.335   9.225 -1.4900  5.4498  0.5359
 1012MOL0     H39595   2.300   1.402   9.202 -1.2164 -0.5865 -0.0937
 1012MOL0     H39596   2.288   1.449   9.036 -0.1389 -0.9093 -1.9375
 1012MOL0     H39597   2.110   1.548   9.268  0.6019 -3.3551 -0.9758
 1012MOL0     H39598   2.098   1.600   9.106  0.8569  0.7125 -0.8670
 1012MOL0     H39599   2.326   1.653   9.301 -0.2055 -0.1628  0.5377
 1012MOL0     H39600   2.342   1.693   9.122 -1.9477 -1.4431 -1.5472
 1012MOL0     H39601   2.139   1.806   9.320 -2.1654 -1.3354 -2.0629
 1012MOL0     H39602   2.145   1.846   9.152  1.0891  0.4067  1.4786
 1012MOL0     H39603   2.349   1.967   9.177 -1.2696 -1.3708 -2.3005
 1012MOL0     H39604   2.235   2.018   9.311 -2.0839 -1.7243  0.8936
 1012MOL0     H39605   2.247   1.918   9.541  0.6549  2.8001 -0.8997
 1012MOL0     H39606   2.488   1.709   9.732 -0.4842  0.7013  3.6250
 1012MOL0     H39607   2.357   1.823   9.773 -0.9890 -3.3416 -1.4739
 1012MOL0     H39608   2.649   1.889   9.766 -1.0302  1.4641  0.1291
 1012MOL0     H39609   2.522   2.002   9.771 -0.0890  0.3645 -1.0462
 1012MOL0     H39610   2.562   1.780   9.979  0.6809  0.2999  1.1642
 1012MOL0     H39611   2.631   1.937   9.982  0.1723  0.8664 -1.9068
 1012MOL0     H39612   2.339   1.856   9.999  1.3469 -2.5185  0.3591
 1012MOL0     H39613   2.437   1.947  10.117 -0.5294 -1.4946  0.2757
 1012MOL0     H39614   2.383   2.238   9.786 -3.5026 -0.1117  1.3997
 1012MOL0     H39615   2.542   2.497   9.738  0.5555  2.9390 -0.3394
 1012MOL0     H39616   2.416   2.605   9.811 -0.6545  0.8487  0.1798
 1012MOL0     H39617   2.369   2.463   9.716 -0.2421  2.0602  1.0909
 1012MOL0     H39618   2.486   2.918   9.902  1.0603 -2.5528 -2.0845
 1012MOL0     H39619   2.598   3.116   9.952  1.1258  1.5878 -0.2096
 1012MOL0     H39620   2.876   3.202   9.869  0.1208 -1.7529  1.2417
 1012MOL0     H39621   2.749   3.287   9.982 -0.1696 -0.5200  1.8495
 1012MOL0     H39622   2.949   3.331  10.134  2.5321 -1.2044  0.9410
 1012MOL0     H39623   3.056   3.263  10.016 -0.5737  0.6402 -0.0788
 1012MOL0     H39624   2.895   3.526  10.010  0.3010  0.6270 -0.6840
 1012MOL0     H39625   2.955   3.453   9.856  3.6585  0.0339 -0.7678
 1012MOL0     H39626   3.180   3.458   9.938 -0.1055  0.1821 -1.3222
 1012MOL0     H39627   3.119   3.552  10.076 -1.1604 -3.0315  1.0629
 1012MOL0     H39628   3.096   3.619   9.779 -3.5991  1.8131  0.2633
 1012MOL0     H39629   3.034   3.722   9.902 -2.4456 -2.3079  1.1552
 1012MOL0     H39630   3.246   3.801   9.816  3.1558 -0.6275 -0.6810
 1012MOL0     H39631   3.332   3.661   9.875 -0.2620 -0.8237 -0.6571
 1012MOL0     H39632   3.253   3.708  10.110 -0.2936  0.4695  0.0947
 1012MOL0     H39633   3.162   3.854  10.047 -1.0086 -1.2536  2.6013
 1012MOL0     H39634   3.406   3.905  10.141  1.6365 -1.5686  1.1937
 1012MOL0     H39635   3.371   3.962   9.986  1.5748  1.0965  1.4313
 1012MOL0     H39636   2.942   2.895  10.097  0.1873 -0.7351 -0.2890
 1012MOL0     H39637   2.840   2.688   9.999  0.4322  0.3207 -1.2736
 1012MOL0     H39638   2.571   2.362  10.219 -0.6702 -0.8985  1.3891
 1012MOL0     H39639   2.476   2.153  10.195  1.1079  1.8869  1.1780
 1012MOL0     H39640   2.489   1.052   9.181  0.9411 -0.6615 -0.8123
 1012MOL0     H39641   2.625   0.889   9.294 -1.1368  2.3297  2.5968
 1012MOL0     H39642   2.584   0.443   9.471 -1.1453 -0.2143 -2.2478
 1012MOL0     H39643   2.721   0.259   9.590  2.9385 -0.3620  0.3904
 1012MOL0     H39644   2.990   0.040   9.365 -1.3220  1.8462 -0.9089
 1012MOL0     H39645   3.125   0.129   9.437 -0.5791 -0.7890 -4.3281
 1012MOL0     H39646   3.089  -0.010   9.661  2.4959  1.2398 -1.1831
 1012MOL0     H39647   3.142  -0.091   9.513 -0.5126 -0.6949 -0.5107
 1012MOL0     H39648   2.848  -0.108   9.610 -1.8136 -2.5737 -1.5446
 1012MOL0     H39649   2.925  -0.170   9.469 -2.1736 -0.3833  0.2695
 1012MOL0     H39650   3.021  -0.246   9.747  1.4704 -1.3170 -0.1314
 1012MOL0     H39651   3.067  -0.310   9.583 -0.0818  2.7533 -2.2251
 1012MOL0     H39652   2.675  -0.485   9.667  0.5038 -1.5997  2.5821
 1012MOL0     H39653   3.002   0.264   9.275 -0.9039  0.8433 -1.2224
 1012MOL0     H39654   2.876   0.551   9.080 -1.3655 -1.2773 -1.3063
 1012MOL0     H39655   3.001   0.449   9.124  0.4794 -1.4842 -2.8148
 1012MOL0     H39656   2.855   0.386   9.038 -2.8915  3.2775 -1.9004
 1013MOL0     O39657   8.541   0.927   1.138 -0.5862 -0.6564 -0.6481
 1013MOL0     C39658   8.640   0.951   1.080  0.3648 -0.2982 -0.4809
 1013MOL0     O39659   8.659   1.059   0.997 -0.3007  0.5726  0.4423
 1013MOL0     C39660   8.584   1.172   0.992 -0.1913 -0.2030  0.4572
 1013MOL0     C39661   8.614   1.260   0.885 -0.5156 -1.5456 -0.0197
 1013MOL0     C39662   8.529   1.372   0.864 -0.9911 -0.4764 -0.1455
 1013MOL0     C39663   8.443   1.412   0.963  0.0873 -0.1264 -0.4122
 1013MOL0     O39664   8.387   1.533   0.977  0.0443 -0.4810 -0.2617
 1013MOL0     C39665   8.393   1.630   0.868  0.0248  0.4085 -0.2433
 1013MOL0     C39666   8.292   1.745   0.885 -0.8021  0.2241  0.2940
 1013MOL0     C39667   8.343   1.861   0.958  0.0795  0.1826  0.9001
 1013MOL0     C39668   8.381   1.848   1.111  0.2790  0.7875  1.3556
 1013MOL0     C39669   8.511   1.921   1.148 -0.1427 -0.4528 -0.1704
 1013MOL0     C39670   8.643   1.854   1.108 -0.4041 -0.0804  0.3879
 1013MOL0     C39671   8.704   1.749   1.192  0.0329  0.2801  0.3783
 1013MOL0     C39672   8.793   1.640   1.116 -0.1751  0.1985 -0.1383
 1013MOL0     N39673   8.815   1.528   1.202  0.6427  0.0801 -0.2916
 1013MOL0     C39674   8.744   1.408   1.213 -0.5467 -0.1144  0.3386
 1013MOL0     C39675   8.790   1.339   1.322  0.2923 -0.3496 -0.6753
 1013MOL0     C39676   8.771   1.192   1.368 -0.2120 -0.5553 -0.6714
 1013MOL0     C39677   8.912   1.120   1.357 -0.7404 -0.8627 -0.2001
 1013MOL0     C39678   8.902   0.977   1.394 -0.2218  0.4224 -0.9729
 1013MOL0     C39679   9.037   0.910   1.356 -0.2687 -0.5531 -0.2657
 1013MOL0     O39680   9.142   0.957   1.445 -0.1517  0.3155 -0.2545
 1013MOL0     C39681   9.261   0.888   1.451 -0.6321  0.2626  0.4901
 1013MOL0     C39682   9.305   0.782   1.367 -0.8911 -0.0976 -0.1474
 1013MOL0     C39683   9.431   0.723   1.391 -0.2333  0.0088  1.6320
 1013MOL0     C39684   9.469   0.618   1.287 -0.4000 -0.3445 -0.0604
 1013MOL0     C39685   9.515   0.768   1.491  0.1221 -0.0316  0.0946
 1013MOL0     C39686   9.648   0.712   1.528 -0.6963  0.2833  0.0910
 1013MOL0     O39687   9.749   0.691   1.430 -0.0489  0.0043 -0.0037
 1013MOL0     C39688   9.874   0.638   1.461  1.2598  0.0125 -0.2080
 1013MOL0     C39689   9.946   0.619   1.346 -0.4355  0.1410 -0.6562
 1013MOL0     C39690  10.075   0.546   1.347  0.7591  0.0613 -0.9744
 1013MOL0     C39691  10.130   0.495   1.466 -0.2079  0.9044 -0.5429
 1013MOL0     O39692  10.256   0.428   1.455  0.0097  0.0185  0.4678
 1013MOL0     C39693  10.321   0.375   1.573 -0.0553  0.5938 -0.6255
 1013MOL0     C39694  10.460   0.345   1.532 -1.0365  0.5875  0.1454
 1013MOL0     C39695  10.554   0.310   1.641 -0.0713  0.1505  0.2795
 1013MOL0     C39696  10.695   0.351   1.596 -0.8516 -0.3805  0.0218
 1013MOL0     C39697  10.790   0.311   1.703 -0.4380  0.5919  0.2382
 1013MOL0     C39698  10.923   0.335   1.644 -0.4997 -0.2796  0.3836
 1013MOL0     C39699  11.037   0.295   1.740  0.2535 -0.6973 -0.0744
 1013MOL0     C39700  11.186   0.296   1.699  1.4369 -0.5497  0.5000
 1013MOL0    Cl39701  11.249   0.459   1.704  0.2594  0.1516  0.6426
 1013MOL0     C39702  10.064   0.543   1.584 -0.1444 -0.1850 -0.9277
 1013MOL0     C39703   9.939   0.610   1.583 -0.3618 -0.6610  0.0213
 1013MOL0     O39704   9.667   0.701   1.646 -0.3141 -0.7484 -0.6866
 1013MOL0     C39705   9.464   0.871   1.572  0.3791  0.7236 -0.7036
 1013MOL0     C39706   9.345   0.923   1.553  0.1743  0.0816  0.6108
 1013MOL0     N39707   8.874   1.434   1.388  0.1528  0.1829  1.2134
 1013MOL0     N39708   8.892   1.541   1.314  0.1545 -0.3902  0.2903
 1013MOL0     C39709   8.426   1.334   1.073 -0.2103  0.8330 -0.2570
 1013MOL0     C39710   8.483   1.203   1.088  0.9146  0.3038  0.6023
 1013MOL0     C39711   8.759   0.856   1.084  0.0181 -0.0110 -0.3394
 1013MOL0     C39712   8.862   0.879   0.983  0.2264  0.9711 -0.3768
 1013MOL0     C39713   8.968   0.787   0.968  0.2597  0.3466  0.4477
 1013MOL0     C39714   8.974   0.671   1.047 -0.3255  0.2020  0.5281
 1013MOL0     O39715   9.070   0.578   1.015 -0.1589 -0.4245  0.3490
 1013MOL0     C39716   9.060   0.439   1.049  0.3091  0.5178 -0.3230
 1013MOL0     C39717   8.950   0.380   0.972 -1.3797  0.8070 -0.1345
 1013MOL0     C39718   8.940   0.232   1.002 -1.0452 -0.7055  0.8308
 1013MOL0     C39719   8.897   0.161   0.876 -0.2130 -0.3440 -1.5315
 1013MOL0     C39720   8.767   0.207   0.828 -0.1372 -0.5037  0.4673
 1013MOL0     C39721   8.652   0.232   0.808  0.1680  0.5381 -0.0769
 1013MOL0     C39722   8.873   0.640   1.140 -0.6414  0.1088  0.1415
 1013MOL0     C39723   8.770   0.733   1.164  0.5072  0.2933  1.0499
 1013MOL0     C39724   8.653   0.690   1.250 -0.4494 -0.0303  0.4013
 1013MOL0     H39725   8.696   1.255   0.814  0.5557  1.6827  0.7958
 1013MOL0     H39726   8.541   1.434   0.776 -0.4368 -1.1532 -0.5579
 1013MOL0     H39727   8.378   1.579   0.772  1.0833 -5.4140  2.2676
 1013MOL0     H39728   8.490   1.680   0.860  0.3806 -0.1932  0.2364
 1013MOL0     H39729   8.273   1.793   0.789  2.7596  3.0247  0.7893
 1013MOL0     H39730   8.206   1.712   0.944 -0.0937 -0.1720  1.1267
 1013MOL0     H39731   8.408   1.929   0.904 -2.2499  1.7268 -0.1198
 1013MOL0     H39732   8.260   1.931   0.973  2.9546  3.6884  1.6748
 1013MOL0     H39733   8.300   1.892   1.171 -3.0349 -2.5961 -0.1792
 1013MOL0     H39734   8.391   1.746   1.149  0.2291  1.1365  2.3287
 1013MOL0     H39735   8.511   1.926   1.257  3.3353 -0.1813 -0.0803
 1013MOL0     H39736   8.503   2.026   1.119  0.2186  0.5566  3.0173
 1013MOL0     H39737   8.645   1.809   1.008 -0.2727 -3.1359  1.6353
 1013MOL0     H39738   8.715   1.936   1.110  0.6171 -0.8239 -2.0198
 1013MOL0     H39739   8.620   1.692   1.232  1.4050 -1.1330  1.3488
 1013MOL0     H39740   8.766   1.789   1.273  0.0914 -0.9270  0.9562
 1013MOL0     H39741   8.744   1.609   1.023  3.7979  0.9989 -2.7709
 1013MOL0     H39742   8.889   1.688   1.093 -1.5591  1.9188 -2.7832
 1013MOL0     H39743   8.660   1.370   1.155 -1.1403 -2.0199  2.2899
 1013MOL0     H39744   8.694   1.143   1.309  2.0358 -2.1446 -2.4593
 1013MOL0     H39745   8.750   1.192   1.476 -1.5797  0.1397 -0.9132
 1013MOL0     H39746   8.946   1.128   1.254  2.1880 -0.0297  0.7366
 1013MOL0     H39747   8.989   1.167   1.419  0.8114 -4.4988  0.9578
 1013MOL0     H39748   8.883   0.965   1.501  2.6600  1.3253 -0.2524
 1013MOL0     H39749   8.814   0.939   1.342  0.5851 -2.2092 -0.5748
 1013MOL0     H39750   9.024   0.801   1.358  1.1498 -0.7583 -1.2610
 1013MOL0     H39751   9.065   0.934   1.253  2.5663 -0.0348  0.5359
 1013MOL0     H39752   9.248   0.748   1.282 -0.3624 -1.2191 -0.0685
 1013MOL0     H39753   9.458   0.515   1.321  0.0931 -1.3051 -2.6157
 1013MOL0     H39754   9.572   0.626   1.252  0.0736  0.2308  1.3980
 1013MOL0     H39755   9.400   0.615   1.202 -0.6029 -4.1724  0.0703
 1013MOL0     H39756   9.905   0.656   1.252 -2.1890  0.5328  0.2167
 1013MOL0     H39757  10.128   0.518   1.256  2.5046 -2.3956  0.6642
 1013MOL0     H39758  10.315   0.442   1.659 -0.6792 -0.8988  0.5459
 1013MOL0     H39759  10.265   0.287   1.608 -2.5348  2.1245 -0.5362
 1013MOL0     H39760  10.457   0.264   1.459  1.2447 -2.5657  3.2045
 1013MOL0     H39761  10.503   0.430   1.479 -1.4755 -0.0473 -1.2908
 1013MOL0     H39762  10.547   0.204   1.667  0.5863  0.2416  0.8696
 1013MOL0     H39763  10.532   0.368   1.731  0.0844  3.5582 -1.6783
 1013MOL0     H39764  10.695   0.459   1.579  1.5206 -0.4091 -0.4763
 1013MOL0     H39765  10.728   0.298   1.506 -0.5620 -0.3051  0.0820
 1013MOL0     H39766  10.772   0.352   1.803 -3.3259 -0.5702  0.2779
 1013MOL0     H39767  10.778   0.203   1.716 -1.2215  0.3282 -2.1691
 1013MOL0     H39768  10.946   0.439   1.618 -1.0976  0.0372  1.0917
 1013MOL0     H39769  10.932   0.264   1.562 -2.3308  0.1032 -0.1845
 1013MOL0     H39770  11.021   0.188   1.758  0.7526 -1.1890 -2.1998
 1013MOL0     H39771  11.014   0.331   1.841  0.8393  0.5569 -0.3736
 1013MOL0     H39772  11.200   0.249   1.601 -0.7240  1.6524 -0.9769
 1013MOL0     H39773  11.252   0.240   1.766 -2.0767 -1.0121  3.9091
 1013MOL0     H39774  10.105   0.525   1.682 -0.6618  3.6443  0.1649
 1013MOL0     H39775   9.899   0.642   1.679  0.8667 -0.8877  0.6253
 1013MOL0     H39776   9.516   0.909   1.659 -0.6225 -0.0231  0.2285
 1013MOL0     H39777   9.311   1.005   1.615  0.8408 -1.1653  2.7582
 1013MOL0     H39778   8.351   1.368   1.144  1.6554  3.5617  0.5574
 1013MOL0     H39779   8.453   1.142   1.173 -0.5638  0.8836  0.5164
 1013MOL0     H39780   8.869   0.973   0.928 -0.3526  1.9110  1.1053
 1013MOL0     H39781   9.058   0.800   0.909  1.2775 -0.1277  1.8496
 1013MOL0     H39782   9.160   0.395   1.039  0.3062  0.0937  1.2211
 1013MOL0     H39783   9.030   0.418   1.152  3.8392  0.3383  0.8076
 1013MOL0     H39784   8.974   0.395   0.866  1.6157  0.8277  0.4428
 1013MOL0     H39785   8.858   0.436   0.990  0.4336  4.4715 -1.0832
 1013MOL0     H39786   9.037   0.185   1.022 -1.3165 -2.9466 -2.3393
 1013MOL0     H39787   8.870   0.207   1.081 -2.1791 -0.0480  0.0617
 1013MOL0     H39788   8.880   0.055   0.901 -0.4619 -0.1823 -0.9993
 1013MOL0     H39789   8.976   0.166   0.801  2.1202  0.6550  0.8620
 1013MOL0     H39790   8.552   0.253   0.774  0.5064 -1.1679 -2.4399
 1013MOL0     H39791   8.867   0.542   1.187 -2.0715 -0.4804 -1.1916
 1013MOL0     H39792   8.637   0.764   1.329  0.0335  2.0505 -1.3581
 1013MOL0     H39793   8.568   0.690   1.182 -0.1553 -2.1874 -0.0227
 1013MOL0     H39794   8.663   0.590   1.292  1.1309  0.5693  1.5420
 1014MOL0     O39795   9.082   2.152   5.091 -0.1346  0.0842  0.1370
 1014MOL0     C39796   9.089   2.038   5.049 -0.5694 -0.1820  0.9759
 1014MOL0     O39797   9.076   1.928   5.116 -0.5193  0.6415  0.4455
 1014MOL0     C39798   9.044   1.904   5.250  0.1221  0.2684  0.9565
 1014MOL0     C39799   9.102   1.975   5.352  0.0775 -0.0152 -0.0617
 1014MOL0     C39800   9.077   1.939   5.487  0.2824 -0.6149 -0.2983
 1014MOL0     C39801   8.995   1.836   5.513  0.4958 -0.5419 -1.0624
 1014MOL0     O39802   8.999   1.785   5.636 -0.4831 -0.1677 -0.2245
 1014MOL0     C39803   8.997   1.643   5.641 -0.4791  0.3037 -0.3472
 1014MOL0     C39804   9.016   1.593   5.781  0.0474  0.9856  0.2523
 1014MOL0     C39805   8.882   1.598   5.843 -0.4288  0.1598 -1.0563
 1014MOL0     C39806   8.893   1.611   6.000  0.3990 -0.4123 -0.0386
 1014MOL0     C39807   8.758   1.624   6.069 -1.0334  0.2626 -0.2544
 1014MOL0     C39808   8.777   1.650   6.227 -0.0446  0.0068 -0.2535
 1014MOL0     C39809   8.642   1.636   6.306 -0.6008  0.5920 -0.1514
 1014MOL0     C39810   8.647   1.723   6.437 -0.9961  0.0747  0.8948
 1014MOL0     N39811   8.525   1.726   6.512 -0.3674  0.4885 -0.2342
 1014MOL0     C39812   8.437   1.835   6.531 -0.6052  0.0480 -0.6858
 1014MOL0     C39813   8.351   1.800   6.627  0.2913  0.1594 -0.9622
 1014MOL0     C39814   8.227   1.866   6.684  0.4843 -0.3734  0.9127
 1014MOL0     C39815   8.253   1.985   6.766 -0.1606  0.2024 -0.2119
 1014MOL0     C39816   8.128   2.000   6.861 -0.2561 -0.1321  1.3897
 1014MOL0     C39817   8.128   2.129   6.955 -0.7533 -0.1735  0.3055
 1014MOL0     O39818   8.237   2.107   7.041 -0.1413 -0.4250  0.3259
 1014MOL0     C39819   8.296   2.223   7.085 -0.5352  0.6040  0.0016
 1014MOL0     C39820   8.440   2.218   7.098 -0.1674 -0.0113  0.4254
 1014MOL0     C39821   8.505   2.334   7.144  0.2449 -0.4255 -0.6181
 1014MOL0     C39822   8.652   2.313   7.185  0.3405  1.0404  0.5486
 1014MOL0     C39823   8.442   2.464   7.155 -0.8555 -0.6732  0.2798
 1014MOL0     C39824   8.497   2.595   7.204  0.0371 -0.0534  0.7936
 1014MOL0     O39825   8.499   2.712   7.128  0.3699 -0.4261 -0.5894
 1014MOL0     C39826   8.594   2.803   7.159  0.0494 -0.4529  0.2761
 1014MOL0     C39827   8.570   2.936   7.128  0.3863 -1.8063 -0.1627
 1014MOL0     C39828   8.662   3.037   7.174  0.4453 -1.0954 -0.0274
 1014MOL0     C39829   8.780   3.006   7.242 -0.6467 -0.1596 -0.2177
 1014MOL0     O39830   8.863   3.118   7.273  0.4536 -0.2460  0.4370
 1014MOL0     C39831   8.995   3.085   7.319  0.2491  0.1264  0.5074
 1014MOL0     C39832   9.051   3.206   7.382 -0.9026  0.3523  0.0446
 1014MOL0     C39833   8.945   3.270   7.477 -1.0296  0.1736  0.7334
 1014MOL0     C39834   8.893   3.385   7.407  0.1207 -0.5859  0.8070
 1014MOL0     C39835   8.768   3.455   7.472 -0.3013  0.1871  0.7103
 1014MOL0     C39836   8.706   3.572   7.405  0.8326 -0.2393 -0.4244
 1014MOL0     C39837   8.653   3.546   7.260  0.0222 -1.0305  0.2848
 1014MOL0     C39838   8.512   3.609   7.233 -0.1186 -0.2359  0.9159
 1014MOL0    Cl39839   8.410   3.489   7.311 -0.1196  0.1294  0.6408
 1014MOL0     C39840   8.800   2.871   7.262  0.5852  0.3065 -0.8869
 1014MOL0     C39841   8.719   2.770   7.218 -0.9400  0.2326  0.4665
 1014MOL0     O39842   8.534   2.585   7.320 -0.4551 -0.0518  0.4772
 1014MOL0     C39843   8.303   2.461   7.134  0.3752  0.2389  0.5607
 1014MOL0     C39844   8.227   2.345   7.109 -0.4499 -0.3276 -0.2526
 1014MOL0     N39845   8.380   1.662   6.659  0.4086 -0.1187  0.6432
 1014MOL0     N39846   8.490   1.623   6.596  0.1614  0.3510  0.6057
 1014MOL0     C39847   8.911   1.780   5.415  0.5559 -0.4263  0.6722
 1014MOL0     C39848   8.937   1.810   5.282 -0.3592  0.9481  0.5886
 1014MOL0     C39849   9.135   2.025   4.907  0.1995 -0.0836  0.4801
 1014MOL0     C39850   9.178   1.890   4.869 -0.5656 -0.3622  0.0389
 1014MOL0     C39851   9.212   1.859   4.737 -0.0663  0.3097  0.3580
 1014MOL0     C39852   9.192   1.954   4.637  0.7245  0.2737  0.4465
 1014MOL0     O39853   9.207   1.908   4.508  0.2429  0.3720  0.0796
 1014MOL0     C39854   9.144   1.986   4.406 -0.0620  0.4621 -0.1677
 1014MOL0     C39855   9.134   1.918   4.268  0.5310 -0.2956 -0.9614
 1014MOL0     C39856   9.271   1.912   4.201 -0.6916  0.3721  0.5831
 1014MOL0     C39857   9.259   1.874   4.057 -0.2013 -0.9712 -0.2599
 1014MOL0     C39858   9.393   1.870   3.988 -0.9435  0.0816 -0.4708
 1014MOL0     C39859   9.496   1.879   3.926  0.3680 -0.6144 -0.1447
 1014MOL0     C39860   9.145   2.086   4.675 -0.2092  1.0674  0.0416
 1014MOL0     C39861   9.122   2.126   4.809  0.3133 -0.7748 -0.1333
 1014MOL0     C39862   9.051   2.262   4.831 -0.2368 -0.4886  0.7751
 1014MOL0     H39863   9.154   2.069   5.338  0.2012  0.2760  1.9910
 1014MOL0     H39864   9.124   1.983   5.574 -2.9831 -0.7807  1.7182
 1014MOL0     H39865   9.073   1.608   5.570 -1.8710  1.1054 -2.3305
 1014MOL0     H39866   8.903   1.600   5.603 -0.2876  0.7128 -1.3197
 1014MOL0     H39867   9.055   1.491   5.776 -1.2028  0.5371 -1.4965
 1014MOL0     H39868   9.090   1.650   5.838  2.4546 -1.6145 -0.0581
 1014MOL0     H39869   8.833   1.690   5.809 -2.5325  0.4882  2.4226
 1014MOL0     H39870   8.820   1.510   5.824 -0.2973 -0.3112  0.5503
 1014MOL0     H39871   8.952   1.528   6.039  0.0095 -0.4743  0.4256
 1014MOL0     H39872   8.939   1.707   6.024 -2.2937  0.7809  0.6419
 1014MOL0     H39873   8.691   1.540   6.052 -2.0093  0.8712  0.4402
 1014MOL0     H39874   8.707   1.710   6.024 -0.9989  0.7299  0.5928
 1014MOL0     H39875   8.852   1.577   6.257  0.3080  1.4644  2.7890
 1014MOL0     H39876   8.817   1.751   6.241  2.4943 -1.0944  0.9297
 1014MOL0     H39877   8.632   1.531   6.335  3.2123  0.7220  2.2767
 1014MOL0     H39878   8.553   1.666   6.250 -3.3595 -0.8806  3.0644
 1014MOL0     H39879   8.728   1.698   6.505  0.0387 -1.5227 -0.8324
 1014MOL0     H39880   8.662   1.821   6.390 -0.0814 -1.2163 -1.6840
 1014MOL0     H39881   8.443   1.929   6.477 -0.2024 -0.0535 -0.8253
 1014MOL0     H39882   8.159   1.794   6.730  1.0270 -0.6982  1.2171
 1014MOL0     H39883   8.162   1.880   6.597  0.3935 -2.6424  0.5485
 1014MOL0     H39884   8.343   1.973   6.826  1.2223  2.3711 -1.7002
 1014MOL0     H39885   8.267   2.074   6.704 -0.6005  1.2262  1.1262
 1014MOL0     H39886   8.033   2.005   6.806 -0.6502  1.4376  2.1464
 1014MOL0     H39887   8.117   1.920   6.934  1.1985 -0.6158  1.1097
 1014MOL0     H39888   8.147   2.218   6.894  0.9161 -0.8939 -0.2856
 1014MOL0     H39889   8.038   2.136   7.016 -2.4664 -4.2896 -1.3615
 1014MOL0     H39890   8.499   2.129   7.073  2.1865  0.5077  3.4813
 1014MOL0     H39891   8.683   2.221   7.135  1.3401  1.8311 -0.3175
 1014MOL0     H39892   8.652   2.294   7.293 -1.5919  2.8204  0.9478
 1014MOL0     H39893   8.703   2.406   7.158 -1.3145  2.2043  1.2209
 1014MOL0     H39894   8.476   2.963   7.081  1.4163  0.0818 -1.2722
 1014MOL0     H39895   8.648   3.142   7.152  1.4262 -0.8791  0.3618
 1014MOL0     H39896   8.979   3.016   7.402  0.0129  1.5995  1.7203
 1014MOL0     H39897   9.056   3.035   7.243 -0.9743 -0.3311 -0.2160
 1014MOL0     H39898   9.141   3.170   7.432 -1.4753 -0.2763  0.6349
 1014MOL0     H39899   9.090   3.272   7.304  2.4066 -3.0900 -1.5567
 1014MOL0     H39900   8.985   3.298   7.575  2.0674 -3.1631  0.6394
 1014MOL0     H39901   8.867   3.195   7.495  1.5474 -2.8222  0.3614
 1014MOL0     H39902   8.859   3.370   7.304  0.4208  1.5217  0.3454
 1014MOL0     H39903   8.974   3.457   7.396  0.0322 -0.8415 -2.3002
 1014MOL0     H39904   8.690   3.378   7.479  1.3295 -1.5210  0.7949
 1014MOL0     H39905   8.797   3.487   7.572  3.0933  1.4139 -0.5082
 1014MOL0     H39906   8.780   3.652   7.398  0.8339  0.4742  4.3652
 1014MOL0     H39907   8.630   3.617   7.468  1.3631  0.6145 -0.3816
 1014MOL0     H39908   8.633   3.444   7.226 -3.2346 -0.0851 -1.0138
 1014MOL0     H39909   8.723   3.599   7.194  0.5914  1.7924  2.8873
 1014MOL0     H39910   8.499   3.616   7.125  1.1358  0.4553  0.7894
 1014MOL0     H39911   8.486   3.705   7.279 -4.6442  0.6812 -2.8100
 1014MOL0     H39912   8.891   2.846   7.316  0.5225 -0.3514 -1.0859
 1014MOL0     H39913   8.760   2.671   7.240  0.4822  0.6753 -0.0825
 1014MOL0     H39914   8.247   2.552   7.152  2.8902  1.9298  0.4859
 1014MOL0     H39915   8.119   2.353   7.110 -0.3216  2.7354  0.9175
 1014MOL0     H39916   8.846   1.695   5.437  0.8553 -1.0730 -0.8372
 1014MOL0     H39917   8.888   1.756   5.202 -2.4310  2.4711  0.7432
 1014MOL0     H39918   9.186   1.818   4.950  0.2405  0.0093  0.2989
 1014MOL0     H39919   9.259   1.764   4.718 -0.4408 -0.0449  1.1778
 1014MOL0     H39920   9.041   2.003   4.438 -0.5792 -1.1723 -0.8709
 1014MOL0     H39921   9.203   2.077   4.393  1.4665 -0.6471 -1.3199
 1014MOL0     H39922   9.069   1.982   4.207 -0.2421  0.3313  0.4712
 1014MOL0     H39923   9.090   1.819   4.283 -0.6541  0.4837  1.1026
 1014MOL0     H39924   9.309   2.014   4.215 -2.3977  0.9682  1.0338
 1014MOL0     H39925   9.336   1.835   4.245 -0.6758  0.5366  0.8491
 1014MOL0     H39926   9.200   1.936   3.989  0.5571 -0.7845 -0.7542
 1014MOL0     H39927   9.210   1.777   4.050  0.1212 -1.2508  1.0498
 1014MOL0     H39928   9.594   1.892   3.883 -0.0980 -2.4322 -1.9373
 1014MOL0     H39929   9.107   2.152   4.597 -0.9991  1.3119  0.6235
 1014MOL0     H39930   9.084   2.322   4.746  0.2833 -1.0473  0.5690
 1014MOL0     H39931   8.943   2.245   4.826  0.0373 -2.0275 -1.9153
 1014MOL0     H39932   9.084   2.319   4.919  0.8673  0.8467 -0.4712
 1015MOL0     O39933   3.224   9.332   0.289  1.1432  0.7427  0.2618
 1015MOL0     C39934   3.248   9.428   0.357 -0.2648 -0.1159 -0.9323
 1015MOL0     O39935   3.288   9.545   0.307  0.0233 -0.0960 -0.2544
 1015MOL0     C39936   3.291   9.572   0.172 -0.1651  0.0169  0.3044
 1015MOL0     C39937   3.170   9.598   0.102 -0.6371 -0.2404 -0.3495
 1015MOL0     C39938   3.176   9.629  -0.036 -0.2927 -0.6459  0.4630
 1015MOL0     C39939   3.304   9.633  -0.101 -1.1208 -0.0143  0.4139
 1015MOL0     O39940   3.324   9.675  -0.229 -0.0333  0.9990  0.2338
 1015MOL0     C39941   3.246   9.790  -0.265 -0.0826 -0.4080 -0.2200
 1015MOL0     C39942   3.284   9.839  -0.410  0.0606 -0.2159  0.3392
 1015MOL0     C39943   3.221   9.755  -0.520  0.5917  0.4073 -1.0130
 1015MOL0     C39944   3.246   9.816  -0.663  0.8309 -0.1986  0.3822
 1015MOL0     C39945   3.387   9.790  -0.709  0.3483 -0.1622  0.2073
 1015MOL0     C39946   3.432   9.860  -0.830  1.1639  0.6662  0.3422
 1015MOL0     C39947   3.583   9.836  -0.866  0.9338  0.4565 -0.4446
 1015MOL0     C39948   3.619   9.900  -1.008 -0.2488  0.0987 -0.2436
 1015MOL0     N39949   3.511   9.893  -1.114  1.0027 -0.0169  0.3670
 1015MOL0     C39950   3.452  10.001  -1.176 -0.9411  0.9109  0.1863
 1015MOL0     C39951   3.371   9.946  -1.275  0.1990 -0.3262  1.3601
 1015MOL0     C39952   3.291  10.019  -1.380 -0.1627 -0.4178 -0.4742
 1015MOL0     C39953   3.380  10.042  -1.514 -0.0777  0.0280  0.5071
 1015MOL0     C39954   3.312  10.141  -1.605 -0.6131 -0.3991  1.0020
 1015MOL0     C39955   3.407  10.184  -1.716  0.0242  1.0797  0.4933
 1015MOL0     O39956   3.413  10.088  -1.831 -0.1804 -0.1181  0.7614
 1015MOL0     C39957   3.492  10.124  -1.946  0.5033  0.2152  0.9261
 1015MOL0     C39958   3.618  10.171  -1.931 -0.0908 -0.6203  0.3617
 1015MOL0     C39959   3.691  10.216  -2.040 -0.3561 -0.1868  0.1717
 1015MOL0     C39960   3.823  10.281  -2.024  0.0475  0.3792 -1.1708
 1015MOL0     C39961   3.640  10.204  -2.170  0.9858 -0.8454 -0.4897
 1015MOL0     C39962   3.701  10.258  -2.298  0.5008  0.5342  0.8157
 1015MOL0     O39963   3.622  10.331  -2.379 -0.3193 -0.5229 -0.2342
 1015MOL0     C39964   3.695  10.391  -2.489 -0.0340 -0.3301 -0.3019
 1015MOL0     C39965   3.821  10.457  -2.473 -0.8441  0.6244 -0.0920
 1015MOL0     C39966   3.887  10.518  -2.582  0.2792  0.1504 -0.3482
 1015MOL0     C39967   3.819  10.527  -2.705 -0.3362  0.1160  0.6213
 1015MOL0     O39968   3.871  10.582  -2.828  0.6086  0.5226 -0.0203
 1015MOL0     C39969   4.010  10.634  -2.812 -0.5350 -0.0211  0.3046
 1015MOL0     C39970   4.072  10.679  -2.948  0.5440  0.0808 -0.5118
 1015MOL0     C39971   4.069  10.574  -3.063 -0.7767  0.5315 -0.1830
 1015MOL0     C39972   4.139  10.624  -3.184  0.5510  0.3224  0.8831
 1015MOL0     C39973   4.220  10.509  -3.262 -0.0155 -0.1989  0.5261
 1015MOL0     C39974   4.272  10.578  -3.388 -0.5028  1.1109 -0.5011
 1015MOL0     C39975   4.276  10.469  -3.495  0.0477 -0.0474 -0.1332
 1015MOL0     C39976   4.161  10.488  -3.582  1.4040  0.1001  0.5355
 1015MOL0    Cl39977   4.115  10.339  -3.670 -0.2418 -0.6169  0.3620
 1015MOL0     C39978   3.684  10.478  -2.718 -0.5471 -0.4122  0.0643
 1015MOL0     C39979   3.623  10.412  -2.611 -0.4336  1.2685 -0.4822
 1015MOL0     O39980   3.814  10.217  -2.325 -0.1186  0.2247  0.3424
 1015MOL0     C39981   3.510  10.160  -2.188  0.5354  0.3371 -0.9513
 1015MOL0     C39982   3.434  10.113  -2.075  0.3548  0.5763  0.0320
 1015MOL0     N39983   3.379   9.811  -1.260  0.0318 -0.4164 -0.3368
 1015MOL0     N39984   3.467   9.779  -1.165  0.1381  0.4941  0.7395
 1015MOL0     C39985   3.418   9.596  -0.021 -0.2920 -0.0646  1.2416
 1015MOL0     C39986   3.413   9.569   0.116 -0.4881 -0.5308 -0.5487
 1015MOL0     C39987   3.235   9.432   0.504  0.5473  0.2312  0.4197
 1015MOL0     C39988   3.231   9.557   0.575  0.3090  0.5081  0.5404
 1015MOL0     C39989   3.235   9.560   0.714  0.2156 -0.6343  0.3934
 1015MOL0     C39990   3.235   9.443   0.778 -0.0549  0.1314 -0.1512
 1015MOL0     O39991   3.234   9.464   0.912  0.0072  0.3618  0.1464
 1015MOL0     C39992   3.132   9.392   0.986 -0.4118  0.4653  0.6076
 1015MOL0     C39993   3.074   9.495   1.080 -0.0597  0.2352  0.3690
 1015MOL0     C39994   2.968   9.419   1.160  0.4057  0.5602  0.1367
 1015MOL0     C39995   2.911   9.504   1.269  0.6671 -0.2037 -0.8455
 1015MOL0     C39996   2.988   9.501   1.397  0.7640  0.3663 -0.1183
 1015MOL0     C39997   3.052   9.509   1.499 -0.3396 -0.4471 -0.2178
 1015MOL0     C39998   3.230   9.321   0.717  0.3573  0.8872 -0.9971
 1015MOL0     C39999   3.240   9.313   0.578 -0.0187  1.1628  0.1631
 1015MOL0     C40000   3.236   9.170   0.510  0.6886 -0.1807  0.4011
 1015MOL0     H40001   3.081   9.573   0.160 -0.8035 -2.2486 -1.3520
 1015MOL0     H40002   3.082   9.649  -0.088 -0.5216  0.3873  1.2499
 1015MOL0     H40003   3.259   9.873  -0.194  0.1942  1.1271 -1.9918
 1015MOL0     H40004   3.137   9.780  -0.268 -0.5815  3.6057 -3.2132
 1015MOL0     H40005   3.265   9.945  -0.433  1.0136  0.1896  1.3239
 1015MOL0     H40006   3.392   9.841  -0.427 -0.3430  2.6326 -3.0256
 1015MOL0     H40007   3.275   9.661  -0.509  1.0852  0.5741 -1.8954
 1015MOL0     H40008   3.116   9.756  -0.491  1.1290 -0.5247  1.1388
 1015MOL0     H40009   3.178   9.786  -0.743  0.7075  5.2297 -1.9548
 1015MOL0     H40010   3.237   9.925  -0.662  3.5050  0.0746  0.8248
 1015MOL0     H40011   3.394   9.684  -0.738  2.5483 -0.2211  0.8115
 1015MOL0     H40012   3.453   9.829  -0.631 -0.3657  0.8184  0.3444
 1015MOL0     H40013   3.368   9.830  -0.914  2.3754 -3.1644  0.6017
 1015MOL0     H40014   3.410   9.965  -0.806 -2.0117  1.2131 -3.7809
 1015MOL0     H40015   3.598   9.728  -0.864 -0.3105  0.2820  0.8862
 1015MOL0     H40016   3.655   9.866  -0.789  1.8254  0.3419 -1.2028
 1015MOL0     H40017   3.632  10.007  -0.991 -2.5831  0.4050 -0.0014
 1015MOL0     H40018   3.712   9.854  -1.041  0.0706 -0.6553  1.5907
 1015MOL0     H40019   3.468  10.108  -1.166 -2.0526  1.0759  0.3153
 1015MOL0     H40020   3.267  10.119  -1.345  0.7863 -0.9575  1.9190
 1015MOL0     H40021   3.194   9.974  -1.402  1.2008 -3.6603 -0.4513
 1015MOL0     H40022   3.480  10.075  -1.483  0.8266 -4.1694  2.8316
 1015MOL0     H40023   3.394   9.949  -1.570  0.3609  0.1925  0.3370
 1015MOL0     H40024   3.225  10.089  -1.646 -1.2858 -1.0645  3.1356
 1015MOL0     H40025   3.278  10.229  -1.550 -0.0199  0.0560  0.6486
 1015MOL0     H40026   3.360  10.275  -1.755 -1.8805 -0.0412  0.0679
 1015MOL0     H40027   3.503  10.215  -1.673  0.1358 -0.3877  1.3560
 1015MOL0     H40028   3.652  10.178  -1.828  0.1234  1.3937  0.1970
 1015MOL0     H40029   3.897  10.239  -2.093  1.1765  0.4223 -0.0214
 1015MOL0     H40030   3.871  10.254  -1.930 -2.6504  1.5183  0.6645
 1015MOL0     H40031   3.813  10.390  -2.021 -1.5744  0.2997  2.9067
 1015MOL0     H40032   3.868  10.476  -2.377 -1.7224 -1.0343  0.7150
 1015MOL0     H40033   3.979  10.572  -2.566  1.4514 -1.8837  0.0216
 1015MOL0     H40034   4.013  10.717  -2.741 -3.2475 -1.1548  1.9100
 1015MOL0     H40035   4.071  10.551  -2.776  1.3796  1.2454  0.1346
 1015MOL0     H40036   4.024  10.774  -2.976 -0.5605 -0.6844 -1.3051
 1015MOL0     H40037   4.179  10.696  -2.930 -0.0673  2.5135  1.4981
 1015MOL0     H40038   3.968  10.536  -3.075  0.8481 -3.5927 -2.7663
 1015MOL0     H40039   4.133  10.498  -3.016  0.2508  1.5066  0.0297
 1015MOL0     H40040   4.197  10.712  -3.155 -0.0469  0.1907  2.5678
 1015MOL0     H40041   4.063  10.655  -3.256 -0.4066  0.5877  1.9789
 1015MOL0     H40042   4.301  10.478  -3.196  0.3593  0.6118  0.4717
 1015MOL0     H40043   4.149  10.427  -3.276 -2.0874  1.2704  1.7998
 1015MOL0     H40044   4.374  10.614  -3.371 -0.3969  1.0908 -1.0876
 1015MOL0     H40045   4.207  10.660  -3.417  0.8199  1.7419 -1.7997
 1015MOL0     H40046   4.279  10.370  -3.448  0.6806 -0.4554 -1.0096
 1015MOL0     H40047   4.369  10.474  -3.552 -0.1038  1.8889 -0.2785
 1015MOL0     H40048   4.186  10.572  -3.647  0.4703 -0.0738 -0.0697
 1015MOL0     H40049   4.076  10.516  -3.519  0.7631  0.2897 -0.3926
 1015MOL0     H40050   3.614  10.487  -2.800  1.6910 -2.7874 -2.3027
 1015MOL0     H40051   3.518  10.386  -2.614 -0.2332  0.4992 -1.1718
 1015MOL0     H40052   3.472  10.159  -2.290  1.1378  1.4794 -1.1944
 1015MOL0     H40053   3.334  10.071  -2.085  0.4430  0.7094 -1.7289
 1015MOL0     H40054   3.515   9.596  -0.071  0.5011 -0.0970  2.7190
 1015MOL0     H40055   3.502   9.537   0.170 -0.8428 -1.7282 -0.6530
 1015MOL0     H40056   3.246   9.643   0.511  0.7980 -0.3114 -0.4653
 1015MOL0     H40057   3.230   9.661   0.755 -3.1909  1.4704 -4.2414
 1015MOL0     H40058   3.055   9.355   0.918  0.4201  0.8615 -0.5778
 1015MOL0     H40059   3.184   9.314   1.042 -1.8421  0.5629  2.1465
 1015MOL0     H40060   3.032   9.577   1.022 -0.8798  0.4437  1.2228
 1015MOL0     H40061   3.152   9.536   1.145  0.6498  3.0921 -2.0483
 1015MOL0     H40062   2.893   9.402   1.082  2.5241  0.0242 -1.9295
 1015MOL0     H40063   3.003   9.320   1.192  1.0268  0.1632 -1.6206
 1015MOL0     H40064   2.808   9.479   1.298  0.3390  1.2185 -0.7080
 1015MOL0     H40065   2.899   9.608   1.238  1.7765 -0.0384 -0.7658
 1015MOL0     H40066   3.098   9.532   1.593 -0.9896  0.7051 -0.1569
 1015MOL0     H40067   3.218   9.229   0.774 -0.1359  2.0358  0.8357
 1015MOL0     H40068   3.199   9.108   0.592 -0.0154  2.9971  2.6781
 1015MOL0     H40069   3.155   9.146   0.440 -0.0634  0.0930  1.1569
 1015MOL0     H40070   3.336   9.137   0.482 -0.2124 -3.4019  0.5742
 1016MOL0     O40071  10.571   4.282   4.475  0.3768  0.3029  0.3750
 1016MOL0     C40072  10.642   4.302   4.377  0.6230 -0.7016 -0.9842
 1016MOL0     O40073  10.740   4.219   4.328 -0.1024  0.0939  0.2881
 1016MOL0     C40074  10.739   4.086   4.370 -1.3075  1.4820  0.0783
 1016MOL0     C40075  10.751   4.049   4.511 -0.3423 -0.6249 -0.3496
 1016MOL0     C40076  10.763   3.922   4.565 -0.0720  0.1956  0.6514
 1016MOL0     C40077  10.745   3.816   4.478  0.7379 -0.9295  0.5991
 1016MOL0     O40078  10.758   3.699   4.542  0.5935  0.5062  0.3133
 1016MOL0     C40079  10.765   3.583   4.459  0.0319 -0.4208  0.5253
 1016MOL0     C40080  10.796   3.448   4.522 -0.5365  0.2462  0.1960
 1016MOL0     C40081  10.812   3.332   4.425 -0.7238 -0.6742  0.6250
 1016MOL0     C40082  10.795   3.196   4.494 -0.1525  0.1552  0.5331
 1016MOL0     C40083  10.823   3.083   4.391  0.0515 -0.7436  0.1914
 1016MOL0     C40084  10.786   2.950   4.459 -0.1576  0.6642  0.0984
 1016MOL0     C40085  10.844   2.841   4.381  0.6277 -0.5407  0.8426
 1016MOL0     C40086  10.785   2.835   4.237  0.5275  0.4141  0.5438
 1016MOL0     N40087  10.661   2.756   4.225 -0.5584  0.3124 -0.8243
 1016MOL0     C40088  10.636   2.659   4.123 -1.1911 -0.6091 -0.0017
 1016MOL0     C40089  10.524   2.608   4.158  0.3549 -0.2293  0.8609
 1016MOL0     C40090  10.466   2.479   4.087 -0.4726 -0.4755 -0.4651
 1016MOL0     C40091  10.402   2.520   3.956 -0.5751 -0.2549  0.1185
 1016MOL0     C40092  10.263   2.570   3.979  0.8152 -0.0982 -0.4441
 1016MOL0     C40093  10.174   2.595   3.857 -0.1840  0.2268 -0.4815
 1016MOL0     O40094  10.249   2.681   3.771  0.6825  0.5437 -0.6183
 1016MOL0     C40095  10.243   2.816   3.787 -0.2907  0.5388 -0.7428
 1016MOL0     C40096  10.127   2.879   3.831 -0.6898  0.1364 -0.1763
 1016MOL0     C40097  10.120   3.026   3.835 -0.7709 -0.1566  0.8416
 1016MOL0     C40098   9.985   3.085   3.882 -0.3141  0.4294 -0.3130
 1016MOL0     C40099  10.230   3.108   3.794 -0.3554  0.3188 -0.5304
 1016MOL0     C40100  10.230   3.254   3.761 -0.3506 -0.1428  0.0543
 1016MOL0     O40101  10.345   3.314   3.739 -0.7282 -0.0231  0.0237
 1016MOL0     C40102  10.348   3.452   3.721  0.9354  0.2807 -0.2813
 1016MOL0     C40103  10.431   3.509   3.628  0.0956 -1.2047  0.1079
 1016MOL0     C40104  10.447   3.650   3.626  0.7481  0.8961 -0.0491
 1016MOL0     C40105  10.396   3.739   3.717 -0.4291 -0.5809  0.3605
 1016MOL0     O40106  10.429   3.873   3.714  0.0014 -0.6179 -0.4216
 1016MOL0     C40107  10.471   3.941   3.596  0.0123 -0.0991  0.1695
 1016MOL0     C40108  10.516   4.085   3.630  0.5188  0.6845 -0.5653
 1016MOL0     C40109  10.639   4.103   3.725  0.3420  0.0290  0.2487
 1016MOL0     C40110  10.647   4.236   3.799 -0.1120  0.1757  0.0744
 1016MOL0     C40111  10.679   4.362   3.725  0.0901  0.0505  0.7649
 1016MOL0     C40112  10.828   4.398   3.767 -0.4406  0.5146  0.9998
 1016MOL0     C40113  10.882   4.519   3.697  0.1197 -0.6464 -0.5478
 1016MOL0     C40114  11.006   4.576   3.774  0.6812  0.3607  0.1002
 1016MOL0    Cl40115  11.113   4.679   3.659  0.1838 -0.1663  0.1384
 1016MOL0     C40116  10.321   3.675   3.815  0.6274 -0.9308  0.1308
 1016MOL0     C40117  10.299   3.540   3.816 -0.7278 -0.3683 -0.3798
 1016MOL0     O40118  10.122   3.314   3.752 -0.3378  0.0871  0.2036
 1016MOL0     C40119  10.348   3.039   3.759 -0.5151  0.1298 -0.0071
 1016MOL0     C40120  10.351   2.897   3.758 -0.7879 -0.2027  0.1235
 1016MOL0     N40121  10.477   2.672   4.271 -0.5808  0.4698  0.1256
 1016MOL0     N40122  10.549   2.778   4.297 -0.3231  0.2706 -0.7258
 1016MOL0     C40123  10.724   3.846   4.345 -0.6276  0.1234  1.2573
 1016MOL0     C40124  10.731   3.978   4.289 -1.2395  0.4059 -0.5933
 1016MOL0     C40125  10.623   4.436   4.303  0.3849  0.2822  0.4156
 1016MOL0     C40126  10.667   4.439   4.166  0.9335  0.2849 -0.3402
 1016MOL0     C40127  10.672   4.552   4.091  0.4011 -0.6011  1.1272
 1016MOL0     C40128  10.623   4.678   4.141  0.5349 -0.4116 -0.7977
 1016MOL0     O40129  10.626   4.780   4.045  0.6899  1.1349  0.1737
 1016MOL0     C40130  10.563   4.898   4.073 -0.5163  0.1813  0.2316
 1016MOL0     C40131  10.420   4.893   4.019  0.3290  0.1212  1.1580
 1016MOL0     C40132  10.395   4.835   3.888 -0.3204 -0.1936 -0.4427
 1016MOL0     C40133  10.260   4.887   3.833  0.0127 -0.1619  0.5250
 1016MOL0     C40134  10.265   5.030   3.809  0.0562 -0.6209 -0.2737
 1016MOL0     C40135  10.276   5.147   3.776  0.4722 -0.4235  0.5874
 1016MOL0     C40136  10.580   4.681   4.272 -0.2250 -0.2803  0.4653
 1016MOL0     C40137  10.578   4.565   4.353  0.1916 -0.3988 -0.0053
 1016MOL0     C40138  10.521   4.577   4.499  0.3630  1.1024 -0.0495
 1016MOL0     H40139  10.760   4.123   4.590  0.7054 -2.4297  1.3160
 1016MOL0     H40140  10.777   3.919   4.673 -1.2572  1.2608  0.8606
 1016MOL0     H40141  10.841   3.593   4.382  0.1085 -0.3568  0.6079
 1016MOL0     H40142  10.665   3.570   4.418 -0.3425  1.4687  0.7585
 1016MOL0     H40143  10.890   3.466   4.575 -0.0361  2.1646 -1.2221
 1016MOL0     H40144  10.727   3.432   4.606 -1.6990 -0.2597 -0.8206
 1016MOL0     H40145  10.731   3.358   4.355 -0.3512 -0.4437  0.2718
 1016MOL0     H40146  10.915   3.338   4.387 -0.7304  2.6400  0.7985
 1016MOL0     H40147  10.858   3.182   4.583 -0.3232 -0.3565  0.5761
 1016MOL0     H40148  10.691   3.198   4.528 -0.0049  0.3414  0.9802
 1016MOL0     H40149  10.930   3.080   4.368 -0.2176 -2.0187 -1.0097
 1016MOL0     H40150  10.768   3.113   4.301  1.7720  2.2045 -0.0187
 1016MOL0     H40151  10.833   2.949   4.557 -2.3460 -2.8735  1.2673
 1016MOL0     H40152  10.679   2.930   4.467  0.0277 -1.2396 -1.5623
 1016MOL0     H40153  10.823   2.748   4.435  0.2075 -1.7029 -1.1852
 1016MOL0     H40154  10.953   2.848   4.370  0.7707  0.3068  2.4883
 1016MOL0     H40155  10.768   2.929   4.183 -2.0983 -0.6005 -0.6093
 1016MOL0     H40156  10.857   2.783   4.173  0.3735  1.5121 -0.5646
 1016MOL0     H40157  10.695   2.624   4.039  0.3485  1.2164  0.2426
 1016MOL0     H40158  10.394   2.430   4.154  0.7312 -1.0981  0.4094
 1016MOL0     H40159  10.545   2.407   4.063  0.1665  0.6976 -2.0882
 1016MOL0     H40160  10.465   2.600   3.916  1.0270 -1.3916  0.2516
 1016MOL0     H40161  10.409   2.440   3.882  0.0732 -0.3589  0.2866
 1016MOL0     H40162  10.205   2.492   4.030  1.2077  0.9574  1.7198
 1016MOL0     H40163  10.258   2.655   4.047 -1.8278  0.4540 -1.2021
 1016MOL0     H40164  10.159   2.497   3.810  2.9520 -1.7951  2.2651
 1016MOL0     H40165  10.079   2.641   3.888  0.9752  1.8606  0.8171
 1016MOL0     H40166  10.043   2.822   3.868 -0.3342  0.3386  0.9839
 1016MOL0     H40167   9.926   3.107   3.792  1.8620  1.7305 -1.5245
 1016MOL0     H40168  10.002   3.175   3.942 -2.8770 -0.1170  1.3635
 1016MOL0     H40169   9.938   3.006   3.941  2.0032 -0.1744  0.8357
 1016MOL0     H40170  10.476   3.440   3.558  0.7726  2.3695 -3.3781
 1016MOL0     H40171  10.518   3.678   3.549  1.1065 -1.4777 -0.6794
 1016MOL0     H40172  10.562   3.891   3.563 -0.3917 -0.3185 -0.6705
 1016MOL0     H40173  10.389   3.935   3.523 -1.3627  1.3047  1.5311
 1016MOL0     H40174  10.532   4.135   3.535 -3.0137  1.1678 -1.0593
 1016MOL0     H40175  10.431   4.144   3.665 -0.0444 -1.2986  1.7161
 1016MOL0     H40176  10.735   4.093   3.673  1.2601 -0.8524  2.0383
 1016MOL0     H40177  10.644   4.024   3.800  0.9968  1.8833  2.2487
 1016MOL0     H40178  10.728   4.229   3.871  2.9981  4.0325 -2.6167
 1016MOL0     H40179  10.546   4.244   3.840 -0.7969 -2.0703 -0.9767
 1016MOL0     H40180  10.678   4.365   3.615  0.9605  2.3783  0.7608
 1016MOL0     H40181  10.612   4.445   3.747 -0.9434  0.0761 -2.0014
 1016MOL0     H40182  10.883   4.313   3.726 -1.7002 -0.3696  1.0719
 1016MOL0     H40183  10.840   4.410   3.876  4.4775  3.4639  0.4177
 1016MOL0     H40184  10.811   4.601   3.682  3.5402  2.9890  1.2667
 1016MOL0     H40185  10.933   4.488   3.605  2.9702  0.3986  0.5720
 1016MOL0     H40186  11.068   4.494   3.810 -1.3826 -1.1149  0.4745
 1016MOL0     H40187  10.980   4.637   3.861  0.6691 -0.1867  0.4821
 1016MOL0     H40188  10.256   3.747   3.864  0.5820  1.8023 -3.5314
 1016MOL0     H40189  10.244   3.500   3.901 -0.0018  1.8171  1.2185
 1016MOL0     H40190  10.435   3.090   3.720 -0.9837 -0.9318 -2.6781
 1016MOL0     H40191  10.438   2.836   3.734 -0.4377  0.7767 -1.2120
 1016MOL0     H40192  10.717   3.777   4.261  4.9407  0.9386 -0.2695
 1016MOL0     H40193  10.725   4.007   4.184 -1.9026  1.9454 -0.1641
 1016MOL0     H40194  10.707   4.351   4.117 -0.8867 -0.6951 -0.1614
 1016MOL0     H40195  10.691   4.551   3.985 -1.0314 -1.0996  0.8567
 1016MOL0     H40196  10.572   4.923   4.179  1.0147 -0.0111  0.1615
 1016MOL0     H40197  10.626   4.980   4.037 -0.4927 -0.5788 -1.5497
 1016MOL0     H40198  10.392   4.999   4.023  0.2436  0.1058  0.9913
 1016MOL0     H40199  10.363   4.834   4.092 -1.0085  0.7772  0.6742
 1016MOL0     H40200  10.481   4.865   3.828 -0.5985  1.1169 -0.2196
 1016MOL0     H40201  10.386   4.727   3.896 -0.9511 -0.2575 -1.6861
 1016MOL0     H40202  10.171   4.852   3.885 -0.6180 -1.2679 -1.2056
 1016MOL0     H40203  10.255   4.844   3.732  1.0724  0.3934  0.2243
 1016MOL0     H40204  10.313   5.244   3.749  1.7985 -1.2860 -0.8362
 1016MOL0     H40205  10.524   4.761   4.319 -1.6496 -0.3826 -0.9675
 1016MOL0     H40206  10.451   4.498   4.526  0.6471  1.4991  2.0504
 1016MOL0     H40207  10.599   4.578   4.577  2.8187  0.1591 -2.3507
 1016MOL0     H40208  10.466   4.670   4.517 -1.7284 -0.0366 -0.3790
 1017MOL0     O40209  10.784   4.429   5.936 -0.4263  0.7162 -1.1309
 1017MOL0     C40210  10.715   4.390   5.843 -0.4348 -0.1943 -0.7520
 1017MOL0     O40211  10.659   4.263   5.828  0.5830 -0.3550 -0.7655
 1017MOL0     C40212  10.660   4.173   5.934  0.3777  0.1804  0.0804
 1017MOL0     C40213  10.697   4.041   5.903  0.1071  0.5485  0.4009
 1017MOL0     C40214  10.689   3.945   5.999  0.0555  0.5783  0.3506
 1017MOL0     C40215  10.632   3.972   6.127  0.5728  0.1074  0.5196
 1017MOL0     O40216  10.632   3.870   6.222  0.3329  0.3432 -0.3580
 1017MOL0     C40217  10.587   3.882   6.359  0.1246  0.2019  0.2755
 1017MOL0     C40218  10.573   3.748   6.437 -0.3670  0.0698 -0.5471
 1017MOL0     C40219  10.505   3.764   6.573 -0.4037  0.4850 -0.3493
 1017MOL0     C40220  10.514   3.634   6.644  0.8278  0.7660 -0.4235
 1017MOL0     C40221  10.463   3.632   6.784 -1.0390 -0.4827 -0.6326
 1017MOL0     C40222  10.305   3.626   6.794 -0.0432 -0.0672  0.1236
 1017MOL0     C40223  10.273   3.640   6.942  0.1726 -0.0465  1.0317
 1017MOL0     C40224  10.143   3.577   6.993 -0.1265  1.0028 -0.4587
 1017MOL0     N40225  10.147   3.575   7.145 -0.0142  0.3469 -0.5694
 1017MOL0     C40226  10.109   3.669   7.229  0.4371  0.6716 -0.9034
 1017MOL0     C40227  10.114   3.613   7.356  1.6478 -0.3100 -0.1819
 1017MOL0     C40228  10.069   3.680   7.480  0.3608 -0.9863  0.2706
 1017MOL0     C40229  10.181   3.767   7.522 -0.7965 -0.3617  0.1349
 1017MOL0     C40230  10.151   3.824   7.658  0.3341 -0.1574 -0.6849
 1017MOL0     C40231  10.253   3.941   7.712 -0.4105  1.3055 -0.3491
 1017MOL0     O40232  10.376   3.879   7.762  0.0790  0.0038  0.0184
 1017MOL0     C40233  10.490   3.947   7.739  0.4544 -0.1216 -0.1431
 1017MOL0     C40234  10.495   4.092   7.748 -0.5016 -0.3742  0.8054
 1017MOL0     C40235  10.619   4.156   7.748 -0.0709 -0.8943  0.6934
 1017MOL0     C40236  10.619   4.314   7.760 -0.4329 -0.3727  0.2945
 1017MOL0     C40237  10.738   4.086   7.715  0.5585 -0.3270  0.6889
 1017MOL0     C40238  10.868   4.145   7.688  0.4314  0.5282  0.1865
 1017MOL0     O40239  10.952   4.083   7.597  0.4158  1.0189  0.5659
 1017MOL0     C40240  11.069   4.142   7.569 -0.9438  0.2186 -0.1726
 1017MOL0     C40241  11.068   4.260   7.486 -0.8981  0.2218  0.9875
 1017MOL0     C40242  11.187   4.307   7.437  0.7103 -0.2827 -0.4722
 1017MOL0     C40243  11.308   4.237   7.471 -0.9383 -0.9035 -0.2117
 1017MOL0     O40244  11.412   4.286   7.399 -0.5970 -0.3861 -0.1163
 1017MOL0     C40245  11.529   4.208   7.370 -0.3670  0.2533  0.2598
 1017MOL0     C40246  11.628   4.276   7.275 -0.3100  0.0109  0.1112
 1017MOL0     C40247  11.646   4.422   7.314  0.1147 -0.3821 -0.5574
 1017MOL0     C40248  11.771   4.464   7.241 -0.7724 -0.5134  0.5249
 1017MOL0     C40249  11.814   4.621   7.235 -0.6636  0.9350  0.3898
 1017MOL0     C40250  11.695   4.718   7.197 -0.6267 -0.2643  0.1390
 1017MOL0     C40251  11.734   4.869   7.214 -0.0473 -0.2357  0.3283
 1017MOL0     C40252  11.603   4.946   7.196  0.2073 -0.6027 -0.7477
 1017MOL0    Cl40253  11.479   4.933   7.318 -0.3566  0.1484  0.1282
 1017MOL0     C40254  11.317   4.124   7.560  0.6101 -0.3884  0.9323
 1017MOL0     C40255  11.189   4.078   7.604 -0.0756  0.2893 -0.3515
 1017MOL0     O40256  10.899   4.244   7.750 -0.1081  0.4269 -0.1831
 1017MOL0     C40257  10.722   3.943   7.712 -0.7993 -0.6036  0.8446
 1017MOL0     C40258  10.608   3.870   7.727  0.4404 -0.0311 -0.1938
 1017MOL0     N40259  10.159   3.486   7.344  0.1476  1.0607  0.1433
 1017MOL0     N40260  10.170   3.461   7.225 -0.7205  0.0881  0.8156
 1017MOL0     C40261  10.598   4.106   6.160 -0.5259  0.0450 -0.1817
 1017MOL0     C40262  10.615   4.204   6.062 -0.7977  0.3137  1.5259
 1017MOL0     C40263  10.675   4.497   5.740 -0.3094  0.9414  0.1262
 1017MOL0     C40264  10.580   4.477   5.643 -0.0022  0.2231  0.2783
 1017MOL0     C40265  10.534   4.578   5.553  0.6460 -0.5557 -0.5012
 1017MOL0     C40266  10.585   4.707   5.555  0.3157  0.7293  0.5705
 1017MOL0     O40267  10.553   4.809   5.470  0.0123 -0.6194 -0.2185
 1017MOL0     C40268  10.632   4.824   5.356 -0.7747 -0.0701  0.1304
 1017MOL0     C40269  10.540   4.768   5.246 -0.1312 -0.3327 -0.3227
 1017MOL0     C40270  10.620   4.787   5.117  0.1447  0.3605  0.0357
 1017MOL0     C40271  10.545   4.730   4.999  0.8625  0.2113 -0.0324
 1017MOL0     C40272  10.610   4.733   4.868  0.2591 -0.6720  0.2725
 1017MOL0     C40273  10.682   4.739   4.767  0.3512  0.0952  0.1989
 1017MOL0     C40274  10.685   4.731   5.648  0.6340  0.1315  0.1677
 1017MOL0     C40275  10.730   4.631   5.736 -0.1021 -0.2325 -0.5947
 1017MOL0     C40276  10.849   4.666   5.828  0.3786 -0.4897  0.0076
 1017MOL0     H40277  10.732   4.014   5.804  0.8848  1.4747  0.4058
 1017MOL0     H40278  10.725   3.849   5.963 -1.6351 -0.1286  0.4771
 1017MOL0     H40279  10.484   3.918   6.351  0.1820  0.1290 -1.0320
 1017MOL0     H40280  10.655   3.950   6.412  0.0326  1.9739 -1.7359
 1017MOL0     H40281  10.506   3.687   6.376  0.3696 -0.3216 -0.9929
 1017MOL0     H40282  10.662   3.684   6.448 -0.0941  0.4713 -0.4017
 1017MOL0     H40283  10.569   3.837   6.623  2.5984  0.0742 -3.2186
 1017MOL0     H40284  10.400   3.792   6.566 -0.7318 -0.1898  1.4943
 1017MOL0     H40285  10.452   3.559   6.594 -0.8780  0.7345  1.5959
 1017MOL0     H40286  10.620   3.607   6.655  1.0987  2.1989  0.7032
 1017MOL0     H40287  10.491   3.726   6.833 -0.9570 -2.0564  2.6022
 1017MOL0     H40288  10.511   3.552   6.841 -0.5672 -0.4255 -0.9401
 1017MOL0     H40289  10.267   3.709   6.734  1.3992  0.1727 -0.4929
 1017MOL0     H40290  10.253   3.536   6.760 -0.8700 -0.2505  1.7282
 1017MOL0     H40291  10.268   3.748   6.958  0.0557  0.7805 -3.3422
 1017MOL0     H40292  10.358   3.592   6.991  0.1988 -1.0777  0.0260
 1017MOL0     H40293  10.060   3.635   6.952 -0.9527 -1.0479 -1.8718
 1017MOL0     H40294  10.123   3.478   6.952  1.2377  0.3558  0.3591
 1017MOL0     H40295  10.069   3.765   7.198 -0.2363  0.6338 -0.1994
 1017MOL0     H40296  10.050   3.604   7.557  1.9069 -3.4047 -1.5891
 1017MOL0     H40297   9.976   3.730   7.454 -1.0694 -4.0280 -0.9705
 1017MOL0     H40298  10.277   3.714   7.514 -0.0473  1.1284 -1.0196
 1017MOL0     H40299  10.190   3.848   7.450 -1.7730 -2.2951 -2.3274
 1017MOL0     H40300  10.052   3.872   7.649  0.7148  1.0828  1.1853
 1017MOL0     H40301  10.147   3.741   7.729 -2.3255 -0.2703 -0.8631
 1017MOL0     H40302  10.273   4.010   7.629 -1.6794 -0.0922 -1.8687
 1017MOL0     H40303  10.201   4.000   7.789  2.2622  2.2718  0.8370
 1017MOL0     H40304  10.403   4.148   7.756 -0.5541 -0.5160  1.1975
 1017MOL0     H40305  10.654   4.347   7.858 -0.7581 -0.4004  0.4200
 1017MOL0     H40306  10.515   4.348   7.754 -0.4273  0.0550  1.9957
 1017MOL0     H40307  10.675   4.364   7.680  2.0721 -1.0358  1.5499
 1017MOL0     H40308  10.977   4.304   7.446 -0.1697  0.2910 -0.6544
 1017MOL0     H40309  11.184   4.377   7.354 -3.8675  2.5881  1.7664
 1017MOL0     H40310  11.579   4.195   7.466 -0.7746 -0.8976  0.3317
 1017MOL0     H40311  11.494   4.113   7.328 -0.8069  0.2921  0.5275
 1017MOL0     H40312  11.726   4.233   7.298  0.9500  1.9950 -1.2390
 1017MOL0     H40313  11.609   4.248   7.171  0.6038 -0.9915  0.1970
 1017MOL0     H40314  11.659   4.443   7.421 -0.5459  1.7700 -0.8622
 1017MOL0     H40315  11.564   4.487   7.283  0.5649  0.4959  0.0566
 1017MOL0     H40316  11.754   4.434   7.138  0.1040 -0.4759  0.3658
 1017MOL0     H40317  11.861   4.416   7.280  0.3469  2.6395  2.2666
 1017MOL0     H40318  11.843   4.642   7.338  3.4999  1.1878 -0.6662
 1017MOL0     H40319  11.904   4.632   7.174 -1.5832 -0.0889 -1.2073
 1017MOL0     H40320  11.611   4.703   7.266 -1.0320 -0.8539 -0.4664
 1017MOL0     H40321  11.676   4.708   7.090 -0.8690  0.2392  0.1354
 1017MOL0     H40322  11.805   4.905   7.138  0.1220 -0.8655  0.1862
 1017MOL0     H40323  11.791   4.886   7.306  4.1888 -1.2649 -1.8357
 1017MOL0     H40324  11.547   4.910   7.109  0.1185 -1.1772 -0.4579
 1017MOL0     H40325  11.621   5.054   7.198  0.6544 -0.4939  4.6776
 1017MOL0     H40326  11.403   4.061   7.580 -0.6180 -3.1719 -1.7210
 1017MOL0     H40327  11.189   3.985   7.660  2.7441  0.9829  1.0027
 1017MOL0     H40328  10.811   3.883   7.696 -1.4095 -1.1373 -0.6715
 1017MOL0     H40329  10.586   3.764   7.725  2.6841 -0.5917 -4.3270
 1017MOL0     H40330  10.555   4.140   6.254 -2.4452 -1.0356 -0.6051
 1017MOL0     H40331  10.584   4.305   6.085  0.7699  1.3025 -0.3859
 1017MOL0     H40332  10.532   4.380   5.639  0.2370  0.1349 -1.8327
 1017MOL0     H40333  10.460   4.554   5.478  0.3754  1.8818 -1.1123
 1017MOL0     H40334  10.655   4.930   5.347  0.9930 -0.4352 -0.0171
 1017MOL0     H40335  10.729   4.775   5.362 -0.4281  0.7573  1.8245
 1017MOL0     H40336  10.448   4.825   5.237 -1.0846 -1.4807  1.5201
 1017MOL0     H40337  10.521   4.663   5.272 -0.7692 -0.1129  0.1001
 1017MOL0     H40338  10.638   4.894   5.106  3.0643  0.1928  2.0961
 1017MOL0     H40339  10.717   4.739   5.128 -0.1470  0.4164  4.2304
 1017MOL0     H40340  10.444   4.769   4.987  0.7301  0.3763  1.5022
 1017MOL0     H40341  10.539   4.621   5.008 -1.9017 -0.2477 -4.2415
 1017MOL0     H40342  10.741   4.765   4.682  1.2728  3.2279  1.6550
 1017MOL0     H40343  10.733   4.827   5.641  0.8273 -0.0506 -1.2621
 1017MOL0     H40344  10.862   4.772   5.804  0.2530 -0.1356  1.3910
 1017MOL0     H40345  10.823   4.656   5.934  2.3683 -3.2433  0.3488
 1017MOL0     H40346  10.932   4.598   5.807  0.8158  0.0969 -0.2163
 1018MOL0     O40347  11.010   3.630  11.155  0.6965 -0.3084  0.5755
 1018MOL0     C40348  10.892   3.595  11.151 -0.3481  0.2086  0.2876
 1018MOL0     O40349  10.831   3.540  11.043  0.8189  0.2466  0.4580
 1018MOL0     C40350  10.898   3.503  10.928  0.5872  0.2275 -1.1098
 1018MOL0     C40351  10.845   3.393  10.860  0.0466 -0.4103 -1.1817
 1018MOL0     C40352  10.912   3.343  10.749 -0.8964 -0.4036  0.8719
 1018MOL0     C40353  11.030   3.400  10.702  0.3866  0.2977 -0.7432
 1018MOL0     O40354  11.088   3.351  10.589 -0.1091 -0.0072  0.1490
 1018MOL0     C40355  11.138   3.213  10.603 -0.0024 -0.9224  0.2159
 1018MOL0     C40356  11.259   3.191  10.503  0.1059 -0.1085 -0.4039
 1018MOL0     C40357  11.208   3.169  10.359  0.5252  0.0374 -0.0272
 1018MOL0     C40358  11.323   3.111  10.272 -1.1739 -0.0474  0.2793
 1018MOL0     C40359  11.292   3.102  10.125  0.4295  0.1065  0.2538
 1018MOL0     C40360  11.253   3.229  10.062  0.0241  0.4636  0.3218
 1018MOL0     C40361  11.266   3.200   9.909  0.4539 -0.4914 -0.3111
 1018MOL0     C40362  11.151   3.117   9.843  0.0613 -0.5720  0.7498
 1018MOL0     N40363  11.014   3.159   9.866 -0.3909 -0.1167  0.2290
 1018MOL0     C40364  10.939   3.236   9.783 -0.1017  0.0418  0.0531
 1018MOL0     C40365  10.834   3.281   9.851  0.6536 -0.9155 -1.0303
 1018MOL0     C40366  10.731   3.386   9.802 -0.3645  0.8768  0.2768
 1018MOL0     C40367  10.659   3.338   9.677  0.3570 -1.1222 -0.6305
 1018MOL0     C40368  10.733   3.358   9.540  0.7003  0.2578  0.5573
 1018MOL0     C40369  10.648   3.437   9.439  0.7675  0.7396 -0.1925
 1018MOL0     O40370  10.629   3.574   9.460  0.5686 -0.1409  0.2004
 1018MOL0     C40371  10.740   3.660   9.450  0.2628  0.0833 -0.1871
 1018MOL0     C40372  10.747   3.766   9.545 -0.5001  0.2294 -0.4937
 1018MOL0     C40373  10.860   3.855   9.548 -0.3285  0.9613 -0.4643
 1018MOL0     C40374  10.868   3.948   9.662 -0.3170  0.4680  0.0188
 1018MOL0     C40375  10.958   3.842   9.444  0.1353 -0.4328 -0.4252
 1018MOL0     C40376  11.080   3.925   9.437 -0.7136 -0.0732 -0.9445
 1018MOL0     O40377  11.160   3.939   9.548  0.0356 -0.0448  0.0406
 1018MOL0     C40378  11.245   4.046   9.546 -0.2165 -0.0600 -0.0455
 1018MOL0     C40379  11.211   4.184   9.529 -0.1613  0.0254 -0.6206
 1018MOL0     C40380  11.319   4.281   9.518  0.8729  0.0341 -0.0966
 1018MOL0     C40381  11.451   4.249   9.538 -0.8840 -0.4240 -1.3823
 1018MOL0     O40382  11.543   4.351   9.542  0.3978  0.2543 -0.6773
 1018MOL0     C40383  11.682   4.321   9.563  0.0114 -1.5129  0.0111
 1018MOL0     C40384  11.767   4.444   9.533  0.1649  0.2460  0.2410
 1018MOL0     C40385  11.920   4.410   9.532  0.6552  0.0969 -0.1548
 1018MOL0     C40386  11.962   4.380   9.394 -0.7467  0.3167 -0.0646
 1018MOL0     C40387  12.114   4.354   9.375 -0.6925 -0.3575  1.0492
 1018MOL0     C40388  12.151   4.292   9.233  0.7675  0.1140 -0.1549
 1018MOL0     C40389  12.300   4.248   9.217  0.4221  0.1472 -1.2078
 1018MOL0     C40390  12.394   4.368   9.216 -0.3592 -0.3181  0.5725
 1018MOL0    Cl40391  12.388   4.458   9.057  0.3618 -0.0658  0.1039
 1018MOL0     C40392  11.482   4.110   9.554  1.0770 -0.4241  0.2904
 1018MOL0     C40393  11.378   4.018   9.552 -0.0096  0.2860 -0.6410
 1018MOL0     O40394  11.106   3.967   9.330  0.0607 -0.1815 -0.8793
 1018MOL0     C40395  10.943   3.739   9.348 -0.2457  0.5425 -0.8486
 1018MOL0     C40396  10.842   3.644   9.357  0.3067 -0.0035 -0.4594
 1018MOL0     N40397  10.845   3.224   9.978  0.2642 -0.4482 -0.2077
 1018MOL0     N40398  10.947   3.150   9.987  1.0921 -0.5016 -0.0703
 1018MOL0     C40399  11.077   3.515  10.764  0.0714 -0.2487  0.1750
 1018MOL0     C40400  11.012   3.571  10.871  0.3610  0.5434 -0.1540
 1018MOL0     C40401  10.816   3.624  11.274  1.2916 -0.4547  0.1341
 1018MOL0     C40402  10.871   3.700  11.377 -0.3419  0.1241  0.0662
 1018MOL0     C40403  10.815   3.694  11.507  0.5855 -0.8948  0.5102
 1018MOL0     C40404  10.687   3.646  11.527  0.5167 -0.5898 -0.4938
 1018MOL0     O40405  10.637   3.668  11.650  0.1200 -0.4223  0.4880
 1018MOL0     C40406  10.493   3.665  11.656 -0.2922  0.0350 -0.3509
 1018MOL0     C40407  10.433   3.730  11.779 -0.6242  0.7383  0.5076
 1018MOL0     C40408  10.464   3.885  11.787 -0.7362  0.8859 -0.5121
 1018MOL0     C40409  10.362   3.961  11.713 -0.6299 -0.1294 -0.1411
 1018MOL0     C40410  10.245   3.991  11.783  0.8466  0.6691 -0.1514
 1018MOL0     C40411  10.144   4.024  11.850 -0.2715 -0.2412  0.0514
 1018MOL0     C40412  10.622   3.587  11.422  0.3572  0.1809 -0.2568
 1018MOL0     C40413  10.684   3.572  11.299 -0.4269 -0.7635 -0.0318
 1018MOL0     C40414  10.612   3.497  11.195  0.5884 -0.7524 -0.2582
 1018MOL0     H40415  10.761   3.331  10.892 -0.3011 -2.0911 -4.8253
 1018MOL0     H40416  10.878   3.253  10.700 -3.0985  0.6118  0.4160
 1018MOL0     H40417  11.054   3.146  10.587  0.7619 -2.5565  2.5399
 1018MOL0     H40418  11.171   3.200  10.706  0.5885  2.2778  0.5361
 1018MOL0     H40419  11.333   3.271  10.503  1.9600 -1.7497 -1.1260
 1018MOL0     H40420  11.314   3.101  10.532 -0.3958 -0.3715 -0.2422
 1018MOL0     H40421  11.121   3.103  10.352  1.3420 -0.9162 -2.1944
 1018MOL0     H40422  11.173   3.263  10.314 -3.5516 -1.2652  0.0146
 1018MOL0     H40423  11.409   3.177  10.285 -1.1885 -0.5323  3.6955
 1018MOL0     H40424  11.352   3.010  10.300 -0.6274  0.1975  0.6051
 1018MOL0     H40425  11.218   3.024  10.101  1.3273 -1.4065  2.0863
 1018MOL0     H40426  11.383   3.068  10.075  0.2404  1.6357 -1.2031
 1018MOL0     H40427  11.155   3.270  10.086  0.0436  0.3186  0.6546
 1018MOL0     H40428  11.323   3.308  10.091  0.8420  0.0810 -0.5486
 1018MOL0     H40429  11.367   3.168   9.883  0.3322  0.2987 -1.8637
 1018MOL0     H40430  11.257   3.297   9.860 -0.8072 -0.1300  0.5988
 1018MOL0     H40431  11.178   3.130   9.738 -2.8380  1.2441  0.1084
 1018MOL0     H40432  11.169   3.014   9.874  0.5696 -0.8694 -0.5021
 1018MOL0     H40433  10.968   3.247   9.679 -2.8138 -0.5065 -0.8250
 1018MOL0     H40434  10.779   3.482   9.781  0.9678  0.1593 -0.1087
 1018MOL0     H40435  10.652   3.412   9.873 -0.5983 -0.2085  0.4392
 1018MOL0     H40436  10.634   3.232   9.694  3.0282 -2.1072 -2.1352
 1018MOL0     H40437  10.568   3.397   9.666  0.0752 -1.7764 -1.9307
 1018MOL0     H40438  10.827   3.409   9.561 -0.8606  3.1446  1.1032
 1018MOL0     H40439  10.745   3.263   9.488  1.5849  1.5135 -1.6470
 1018MOL0     H40440  10.694   3.430   9.340  1.0535  0.4671 -0.0422
 1018MOL0     H40441  10.551   3.388   9.431  0.8764  0.7825 -2.7099
 1018MOL0     H40442  10.671   3.772   9.622  1.8281  0.1156  1.9716
 1018MOL0     H40443  10.804   4.034   9.640  0.5375  0.9812 -0.5449
 1018MOL0     H40444  10.971   3.980   9.682  0.1859  0.3470 -2.1501
 1018MOL0     H40445  10.833   3.904   9.755 -2.0693  1.5524 -0.0884
 1018MOL0     H40446  11.106   4.206   9.511 -0.0973  0.2332 -0.7363
 1018MOL0     H40447  11.288   4.384   9.500 -0.6033 -0.5779 -1.3340
 1018MOL0     H40448  11.691   4.293   9.668 -1.8850 -0.9776  0.3479
 1018MOL0     H40449  11.727   4.240   9.504 -0.7952 -1.2069 -1.0401
 1018MOL0     H40450  11.736   4.472   9.432  1.2165 -3.1861 -1.1871
 1018MOL0     H40451  11.733   4.525   9.598 -0.5117  2.0339 -2.1777
 1018MOL0     H40452  11.946   4.333   9.606 -1.1469  1.2577  1.7716
 1018MOL0     H40453  11.981   4.494   9.567  3.0138 -2.1761  1.6139
 1018MOL0     H40454  11.924   4.456   9.326  1.6930  2.9800  1.3485
 1018MOL0     H40455  11.902   4.291   9.370 -0.0251 -0.4540  0.8892
 1018MOL0     H40456  12.171   4.445   9.394  0.3741 -0.8434  0.2330
 1018MOL0     H40457  12.158   4.281   9.443 -0.7079 -0.6654  0.7344
 1018MOL0     H40458  12.124   4.371   9.162  0.1588  0.1270  0.0822
 1018MOL0     H40459  12.085   4.207   9.213 -0.0816  0.0363  2.5595
 1018MOL0     H40460  12.315   4.189   9.126 -0.0038 -1.1963 -0.4213
 1018MOL0     H40461  12.333   4.185   9.300  0.0727  4.0276  2.1910
 1018MOL0     H40462  12.491   4.320   9.231 -1.0026 -0.9934  3.0399
 1018MOL0     H40463  12.373   4.440   9.296 -0.1218  0.6879 -0.2510
 1018MOL0     H40464  11.582   4.074   9.576  1.9255  0.8888 -1.2012
 1018MOL0     H40465  11.395   3.915   9.581 -0.8671  0.1122 -0.7156
 1018MOL0     H40466  11.007   3.738   9.259 -0.5719  2.4129 -1.1409
 1018MOL0     H40467  10.845   3.563   9.285  1.2186 -1.3982  1.0970
 1018MOL0     H40468  11.161   3.568  10.721 -0.7466  0.0299 -1.1532
 1018MOL0     H40469  11.069   3.657  10.907 -0.8489 -0.2485  4.3449
 1018MOL0     H40470  10.967   3.747  11.360 -0.7440 -0.2719 -4.3485
 1018MOL0     H40471  10.863   3.758  11.580  2.5187 -0.7046 -0.8345
 1018MOL0     H40472  10.451   3.725  11.575 -0.2409  3.6649  2.0799
 1018MOL0     H40473  10.460   3.560  11.657 -0.6053  0.1340 -0.1270
 1018MOL0     H40474  10.455   3.668  11.867 -3.6691 -1.6820 -0.2448
 1018MOL0     H40475  10.325   3.715  11.770 -0.2948 -0.3596 -2.9508
 1018MOL0     H40476  10.468   3.913  11.893  0.8552 -1.0034  0.0005
 1018MOL0     H40477  10.566   3.893  11.750 -0.2745 -2.3874 -0.2727
 1018MOL0     H40478  10.331   3.913  11.620 -3.3021 -0.7453  0.9879
 1018MOL0     H40479  10.415   4.057  11.702  1.3522 -1.1547  0.0790
 1018MOL0     H40480  10.057   4.024  11.912 -0.2639  2.5704  0.1824
 1018MOL0     H40481  10.524   3.544  11.442  1.5172 -0.6375  5.2461
 1018MOL0     H40482  10.596   3.549  11.099 -0.3742  0.9456  0.7765
 1018MOL0     H40483  10.668   3.407  11.168  0.9653 -0.2048 -1.3910
 1018MOL0     H40484  10.514   3.465  11.230  0.1000  0.1676 -0.7476
 1019MOL0     O40485  10.909  10.775   2.597 -0.7278 -0.7232  0.1548
 1019MOL0     C40486  10.938  10.657   2.609 -0.9410 -0.5523  1.5136
 1019MOL0     O40487  11.009  10.600   2.705  0.2723 -0.3405  0.5650
 1019MOL0     C40488  11.043  10.678   2.819  0.1975  1.1532 -0.5165
 1019MOL0     C40489  10.946  10.753   2.880 -0.0960 -0.0298  0.7294
 1019MOL0     C40490  10.965  10.822   2.996 -0.0615 -0.4721 -1.1064
 1019MOL0     C40491  11.084  10.811   3.065 -0.0118 -0.0216  0.9699
 1019MOL0     O40492  11.106  10.866   3.188  0.1395  0.0024 -0.5171
 1019MOL0     C40493  10.998  10.918   3.262  0.3048  0.6054  0.0124
 1019MOL0     C40494  11.041  10.994   3.393 -0.4270  0.7203 -0.1164
 1019MOL0     C40495  11.078  10.897   3.504 -0.1410  0.0384  0.3312
 1019MOL0     C40496  11.125  10.975   3.627 -0.6202 -1.4017 -1.1384
 1019MOL0     C40497  11.161  10.867   3.722  0.1224  0.2474  1.0961
 1019MOL0     C40498  11.234  10.916   3.844  0.8738 -0.6724 -0.6646
 1019MOL0     C40499  11.228  10.841   3.973  0.0732  0.4411  0.6637
 1019MOL0     C40500  11.089  10.797   4.027  0.1927  1.1210  0.5159
 1019MOL0     N40501  11.104  10.760   4.177  0.1593 -0.2255  0.1313
 1019MOL0     C40502  11.194  10.671   4.222 -0.7036 -0.9023  0.1114
 1019MOL0     C40503  11.200  10.678   4.353  0.3112  0.2901 -0.0617
 1019MOL0     C40504  11.286  10.589   4.449 -0.1591  0.1662  0.8874
 1019MOL0     C40505  11.407  10.665   4.490 -0.3020 -0.8828  0.1031
 1019MOL0     C40506  11.379  10.789   4.583 -0.6341  0.1154  0.2489
 1019MOL0     C40507  11.514  10.825   4.653  0.3624  0.3932 -0.2693
 1019MOL0     O40508  11.516  10.950   4.727 -0.0109  0.3526  0.1196
 1019MOL0     C40509  11.415  10.983   4.810  0.2404  0.3545 -0.2285
 1019MOL0     C40510  11.381  11.112   4.835  0.3155 -0.6373  0.1965
 1019MOL0     C40511  11.299  11.151   4.945  1.0106 -0.5448 -0.4670
 1019MOL0     C40512  11.279  11.299   4.965  0.2534 -0.0770  0.8059
 1019MOL0     C40513  11.234  11.050   5.026 -0.6462 -0.3079 -1.0169
 1019MOL0     C40514  11.145  11.078   5.149 -0.3219 -0.3709 -0.6311
 1019MOL0     O40515  11.131  10.969   5.239 -0.8948 -0.7060 -0.0376
 1019MOL0     C40516  11.020  10.974   5.320 -0.0898 -0.3485  0.3927
 1019MOL0     C40517  11.007  11.059   5.422  0.0541  0.3029 -0.3672
 1019MOL0     C40518  10.897  11.054   5.508  0.2763 -0.2753  0.9850
 1019MOL0     C40519  10.782  10.980   5.464 -0.4758  0.2945 -0.4771
 1019MOL0     O40520  10.677  10.994   5.551 -0.3117  0.1504 -0.5629
 1019MOL0     C40521  10.623  10.872   5.599 -0.2840  0.1809  0.1589
 1019MOL0     C40522  10.677  10.844   5.740  0.3516 -0.2233  0.2134
 1019MOL0     C40523  10.636  10.966   5.834 -0.2797  0.0417 -0.2257
 1019MOL0     C40524  10.707  10.959   5.973  0.8207 -0.7553  0.0296
 1019MOL0     C40525  10.680  11.077   6.060  1.3080 -0.3215 -0.8342
 1019MOL0     C40526  10.530  11.104   6.099  0.4234 -1.0860  0.2572
 1019MOL0     C40527  10.528  11.235   6.172  0.6033  0.9039 -0.1419
 1019MOL0     C40528  10.382  11.274   6.193  0.0419  0.0648 -0.6277
 1019MOL0    Cl40529  10.286  11.139   6.286  0.3026 -0.1496 -0.3719
 1019MOL0     C40530  10.791  10.904   5.352  1.0659  0.0584  0.1940
 1019MOL0     C40531  10.920  10.883   5.284 -0.4800  0.6230  0.6331
 1019MOL0     O40532  11.079  11.181   5.157 -0.3024  0.2251 -0.1889
 1019MOL0     C40533  11.266  10.915   4.992 -0.3105 -0.0363  0.6053
 1019MOL0     C40534  11.354  10.884   4.894  0.0758 -0.4167  0.2848
 1019MOL0     N40535  11.082  10.745   4.389 -0.1947 -0.1189  0.8570
 1019MOL0     N40536  11.040  10.804   4.287  0.1646 -0.6250  0.1411
 1019MOL0     C40537  11.187  10.739   3.007  0.3553 -0.0307  0.4959
 1019MOL0     C40538  11.166  10.664   2.891 -0.1241  0.1233 -0.2427
 1019MOL0     C40539  10.883  10.571   2.500  0.0955 -0.0682 -0.1704
 1019MOL0     C40540  10.777  10.614   2.430  0.2453  0.6915  1.0865
 1019MOL0     C40541  10.713  10.535   2.333  0.1217  0.1628  0.0766
 1019MOL0     C40542  10.758  10.405   2.306 -0.2964 -0.6590 -0.8001
 1019MOL0     O40543  10.703  10.324   2.208  0.5172  0.6483  0.2576
 1019MOL0     C40544  10.792  10.288   2.098 -0.1287 -0.7628 -0.6500
 1019MOL0     C40545  10.718  10.178   2.021  0.2612  0.3304 -0.0257
 1019MOL0     C40546  10.567  10.189   2.011 -0.5218 -0.0353 -0.5765
 1019MOL0     C40547  10.513  10.055   1.945  0.8414  0.3250  0.1484
 1019MOL0     C40548  10.580  10.015   1.818  0.7258  0.3754  0.2035
 1019MOL0     C40549  10.632   9.982   1.716  0.4245 -0.4884  0.3338
 1019MOL0     C40550  10.872  10.363   2.383 -0.2305  0.3319  0.6347
 1019MOL0     C40551  10.940  10.445   2.477 -1.1069  0.3120  0.5410
 1019MOL0     C40552  11.051  10.368   2.560  0.3489 -1.0945  0.6515
 1019MOL0     H40553  10.848  10.766   2.835 -0.0175 -4.4866 -1.2655
 1019MOL0     H40554  10.892  10.896   3.029  0.5649 -1.3089  2.6060
 1019MOL0     H40555  10.918  10.850   3.291 -0.1892  1.3916  0.5458
 1019MOL0     H40556  10.947  10.999   3.208  0.6470  1.2980  0.7018
 1019MOL0     H40557  11.130  11.056   3.383 -0.2195  0.7486  1.6638
 1019MOL0     H40558  10.963  11.063   3.426  1.0057  1.7070  1.3988
 1019MOL0     H40559  11.000  10.826   3.533  2.2706 -2.9281 -0.0312
 1019MOL0     H40560  11.161  10.839   3.465  0.1381  0.4614  0.2908
 1019MOL0     H40561  11.209  11.036   3.591 -2.9004  1.9548 -1.3234
 1019MOL0     H40562  11.044  11.041   3.660  0.8503 -0.2636  0.3954
 1019MOL0     H40563  11.217  10.795   3.662 -1.8416  1.8513 -3.1022
 1019MOL0     H40564  11.070  10.811   3.746  0.6738 -2.1045 -1.7227
 1019MOL0     H40565  11.338  10.944   3.824  0.0610  2.0619 -1.5430
 1019MOL0     H40566  11.189  11.012   3.869  2.8625  0.9201 -2.7359
 1019MOL0     H40567  11.274  10.903   4.051 -0.3494 -1.4765  2.5328
 1019MOL0     H40568  11.277  10.744   3.960 -2.1287 -0.5637 -0.6688
 1019MOL0     H40569  11.018  10.880   4.024 -0.0450  1.0270  2.1847
 1019MOL0     H40570  11.045  10.714   3.972  0.2647  0.9274  0.7445
 1019MOL0     H40571  11.260  10.606   4.165  2.5732  1.3786  1.0406
 1019MOL0     H40572  11.316  10.490   4.413  0.6057  0.8153 -0.3406
 1019MOL0     H40573  11.232  10.557   4.538 -0.6220 -4.8502 -0.8492
 1019MOL0     H40574  11.469  10.598   4.550  1.7774 -1.0453 -2.0731
 1019MOL0     H40575  11.470  10.707   4.410 -0.7610  1.3513  0.8257
 1019MOL0     H40576  11.344  10.868   4.515  0.3770 -0.6705 -1.2362
 1019MOL0     H40577  11.308  10.765   4.663 -0.7143  1.0453  0.4727
 1019MOL0     H40578  11.556  10.750   4.721  1.4416  1.5850  0.4308
 1019MOL0     H40579  11.579  10.835   4.566  0.4393  0.3924 -0.2124
 1019MOL0     H40580  11.416  11.194   4.773  0.3370 -2.0138 -1.7109
 1019MOL0     H40581  11.179  11.319   5.004 -1.2467 -1.4875 -2.0112
 1019MOL0     H40582  11.267  11.341   4.865 -0.4433 -1.1798  0.4121
 1019MOL0     H40583  11.350  11.354   5.029 -1.0935  1.3711  1.0970
 1019MOL0     H40584  11.071  11.143   5.446 -1.6821  0.8874  2.8609
 1019MOL0     H40585  10.902  11.113   5.598  0.9578  0.0944  0.7128
 1019MOL0     H40586  10.514  10.865   5.606 -0.2952  0.3249  7.1156
 1019MOL0     H40587  10.662  10.788   5.540  4.6965  1.5601  1.0384
 1019MOL0     H40588  10.633  10.747   5.764  1.2069 -1.0526 -1.3576
 1019MOL0     H40589  10.786  10.828   5.743  0.6533  1.5661 -0.0963
 1019MOL0     H40590  10.529  10.957   5.854  0.0450  1.8341  3.0984
 1019MOL0     H40591  10.646  11.062   5.784 -3.2860  0.7474  0.3378
 1019MOL0     H40592  10.816  10.951   5.965  0.6764 -3.1841 -0.1940
 1019MOL0     H40593  10.687  10.864   6.024  2.6651 -1.6185 -0.7655
 1019MOL0     H40594  10.739  11.067   6.152 -1.9928 -0.8733  1.4388
 1019MOL0     H40595  10.713  11.161   5.999  2.7202 -1.6581 -1.9959
 1019MOL0     H40596  10.487  11.025   6.160 -1.5199  0.3551  0.8582
 1019MOL0     H40597  10.466  11.112   6.010 -2.2059  2.9665  2.1989
 1019MOL0     H40598  10.571  11.311   6.107 -1.2600  0.5841 -1.8568
 1019MOL0     H40599  10.577  11.214   6.267  0.9600  1.3570 -0.2249
 1019MOL0     H40600  10.339  11.278   6.092  1.7530 -2.0275 -1.5243
 1019MOL0     H40601  10.378  11.366   6.251  1.6209  0.7628 -1.5755
 1019MOL0     H40602  10.707  10.849   5.312  1.9964 -0.6363 -0.8589
 1019MOL0     H40603  10.936  10.810   5.206 -1.1601  1.8140 -0.6609
 1019MOL0     H40604  11.226  10.829   5.046 -0.5897 -0.1259  0.2552
 1019MOL0     H40605  11.376  10.779   4.876 -3.2078 -1.2996  0.8167
 1019MOL0     H40606  11.283  10.741   3.059  0.0612  0.5308  1.0253
 1019MOL0     H40607  11.235  10.590   2.851  0.4191  0.8407 -0.6750
 1019MOL0     H40608  10.735  10.708   2.464 -0.2705  1.2519 -0.9516
 1019MOL0     H40609  10.628  10.569   2.275  1.7726  3.2188 -0.7710
 1019MOL0     H40610  10.797  10.382   2.042  1.7507 -0.1812  0.4038
 1019MOL0     H40611  10.891  10.254   2.129 -0.3296 -2.7247 -1.9343
 1019MOL0     H40612  10.755  10.085   2.066 -1.1352  0.8833  2.4483
 1019MOL0     H40613  10.754  10.178   1.918 -1.8867  1.7592 -0.8434
 1019MOL0     H40614  10.527  10.194   2.113 -0.1882 -2.4821 -0.2723
 1019MOL0     H40615  10.530  10.273   1.952 -1.3115 -1.2156 -1.7997
 1019MOL0     H40616  10.415  10.089   1.910  1.1264  0.2472 -0.7616
 1019MOL0     H40617  10.502   9.976   2.019 -1.2888  0.2344 -0.1810
 1019MOL0     H40618  10.691   9.974   1.628  0.5708 -0.0413  0.3900
 1019MOL0     H40619  10.898  10.259   2.368  0.2721  0.7986 -2.3207
 1019MOL0     H40620  11.094  10.277   2.517  4.2490 -0.1673  2.1971
 1019MOL0     H40621  11.134  10.436   2.576 -1.0934  0.9265 -0.0521
 1019MOL0     H40622  11.004  10.345   2.656  1.3256 -1.3102  1.0847
 1020MOL0     O40623   4.336   9.804   3.897 -0.4076 -0.3712  0.1998
 1020MOL0     C40624   4.317   9.755   4.004  0.1065  0.8142  0.4113
 1020MOL0     O40625   4.232   9.801   4.100 -0.7301  0.0959 -0.1372
 1020MOL0     C40626   4.191   9.931   4.075  0.1797  0.3168  1.0631
 1020MOL0     C40627   4.056   9.948   4.075  0.3466  0.8027 -0.5878
 1020MOL0     C40628   3.996  10.074   4.056 -0.2363  0.1142 -0.0696
 1020MOL0     C40629   4.077  10.191   4.054 -0.0170 -0.4807 -0.0722
 1020MOL0     O40630   4.032  10.317   4.025  0.6856 -0.1943  0.7319
 1020MOL0     C40631   3.898  10.327   3.968  0.1045  0.7937 -0.4698
 1020MOL0     C40632   3.864  10.462   3.915 -1.1051 -0.0306  0.2938
 1020MOL0     C40633   3.846  10.562   4.038  0.4460 -0.8766 -0.0137
 1020MOL0     C40634   3.984  10.636   4.054 -0.5481 -0.3610  0.1991
 1020MOL0     C40635   3.995  10.733   4.165  0.4691 -0.0556  0.3787
 1020MOL0     C40636   4.142  10.792   4.202 -0.0731 -0.0420  0.7302
 1020MOL0     C40637   4.138  10.927   4.287  0.1857  0.6066  0.4843
 1020MOL0     C40638   4.103  11.054   4.200  0.3898  0.4194  0.0192
 1020MOL0     N40639   4.115  11.174   4.284  0.3726 -0.1742  0.4765
 1020MOL0     C40640   4.226  11.253   4.299 -0.1769 -0.7498 -0.4712
 1020MOL0     C40641   4.186  11.365   4.364  0.1939 -0.4662 -0.4088
 1020MOL0     C40642   4.242  11.487   4.431  0.0144 -1.5370  0.2724
 1020MOL0     C40643   4.376  11.538   4.369  0.0498 -0.1807 -0.4782
 1020MOL0     C40644   4.500  11.457   4.426  0.2808  0.5290  0.7777
 1020MOL0     C40645   4.518  11.467   4.575 -0.0685  0.0944 -0.1770
 1020MOL0     O40646   4.648  11.410   4.602  0.4712 -0.0681  0.1282
 1020MOL0     C40647   4.670  11.270   4.602 -0.4435 -0.1868  0.4552
 1020MOL0     C40648   4.571  11.182   4.559 -0.2560 -0.8262 -0.2734
 1020MOL0     C40649   4.602  11.050   4.532  0.0198 -0.6310  0.4316
 1020MOL0     C40650   4.499  10.964   4.466  0.2739  0.0674  0.6016
 1020MOL0     C40651   4.736  11.003   4.555 -0.3949  0.3422  0.4114
 1020MOL0     C40652   4.772  10.861   4.532 -0.2198 -0.3834 -0.3737
 1020MOL0     O40653   4.889  10.831   4.460  0.1665  0.0092  0.1438
 1020MOL0     C40654   4.914  10.697   4.436 -0.5357  0.5492  0.1122
 1020MOL0     C40655   4.912  10.651   4.307 -0.8502 -0.9827  0.6125
 1020MOL0     C40656   4.949  10.524   4.279  0.1328  0.2537  0.6706
 1020MOL0     C40657   4.976  10.430   4.388  0.2052 -0.8407 -0.1507
 1020MOL0     O40658   4.994  10.295   4.367 -0.4814  0.9888  0.4808
 1020MOL0     C40659   4.901  10.204   4.424 -0.2202 -0.7177  0.9567
 1020MOL0     C40660   4.748  10.225   4.376 -0.1667 -0.8209  0.1237
 1020MOL0     C40661   4.664  10.103   4.408 -0.0317 -0.0989 -0.6381
 1020MOL0     C40662   4.512  10.119   4.362 -0.3240 -0.7734  0.0518
 1020MOL0     C40663   4.428   9.998   4.392  0.2210 -0.3835  0.6011
 1020MOL0     C40664   4.324  10.029   4.501 -0.1411  0.0114 -0.0152
 1020MOL0     C40665   4.378  10.045   4.637  0.0019 -0.7216 -0.3925
 1020MOL0     C40666   4.292  10.012   4.757 -0.1652  0.1246 -0.2364
 1020MOL0    Cl40667   4.160  10.132   4.778 -0.6053  0.2588  0.1057
 1020MOL0     C40668   4.976  10.478   4.525 -0.6234 -0.6934  0.6955
 1020MOL0     C40669   4.957  10.608   4.543 -0.2439 -0.3883 -0.6315
 1020MOL0     O40670   4.701  10.775   4.583  0.7827 -0.4237  0.8780
 1020MOL0     C40671   4.836  11.087   4.607  0.7016  0.1480 -0.1765
 1020MOL0     C40672   4.803  11.224   4.623  0.3733 -0.7867 -0.2648
 1020MOL0     N40673   4.053  11.351   4.377  0.1896 -0.7447  0.1030
 1020MOL0     N40674   4.009  11.246   4.315  0.2389  0.4698 -1.2320
 1020MOL0     C40675   4.214  10.172   4.061 -0.4446  0.4105 -0.2570
 1020MOL0     C40676   4.271  10.043   4.080  0.0108 -1.5307 -0.4106
 1020MOL0     C40677   4.388   9.627   4.028  0.6415  0.3073 -0.8985
 1020MOL0     C40678   4.500   9.596   3.952  0.5860 -0.4031  0.1020
 1020MOL0     C40679   4.575   9.480   3.983  0.1687 -0.0573 -0.6707
 1020MOL0     C40680   4.534   9.390   4.080  0.4352 -0.6756 -0.8300
 1020MOL0     O40681   4.613   9.280   4.103  0.2413 -0.3166 -0.5554
 1020MOL0     C40682   4.619   9.202   4.228  0.2269  0.0498  0.1217
 1020MOL0     C40683   4.753   9.128   4.237  0.8607  0.0437  0.5422
 1020MOL0     C40684   4.778   9.017   4.121 -0.2594 -0.6470 -0.6147
 1020MOL0     C40685   4.864   8.902   4.173  0.0227 -0.5636  0.7806
 1020MOL0     C40686   4.794   8.806   4.256 -0.2497 -0.4134  0.2788
 1020MOL0     C40687   4.738   8.740   4.342  0.9144 -0.3249  0.7277
 1020MOL0     C40688   4.424   9.423   4.156  0.8357  0.0021  0.4294
 1020MOL0     C40689   4.357   9.542   4.141  0.9464  1.0145  0.5898
 1020MOL0     C40690   4.235   9.548   4.223  0.0346  0.2737  0.0357
 1020MOL0     H40691   4.008   9.851   4.077  1.6857  0.1155 -0.4642
 1020MOL0     H40692   3.890  10.062   4.037  0.3266 -1.7732 -2.5369
 1020MOL0     H40693   3.820  10.295   4.037 -2.5233  2.6499 -2.3484
 1020MOL0     H40694   3.880  10.253   3.890 -1.3764  0.3245  0.2705
 1020MOL0     H40695   3.929  10.504   3.838 -0.9170  1.0458  1.0252
 1020MOL0     H40696   3.766  10.443   3.870 -0.5130 -0.2317 -0.9441
 1020MOL0     H40697   3.775  10.641   4.012  1.2800  0.2063  0.8891
 1020MOL0     H40698   3.814  10.515   4.131 -0.2619  2.4632  1.5758
 1020MOL0     H40699   4.057  10.557   4.076 -0.7791 -0.1436  1.8295
 1020MOL0     H40700   4.027  10.687   3.967 -0.5509 -0.7771 -0.0494
 1020MOL0     H40701   3.938  10.704   4.254 -0.4080  1.9180  0.5293
 1020MOL0     H40702   3.941  10.820   4.126  2.1509  1.1504  0.6304
 1020MOL0     H40703   4.213  10.723   4.249  0.8941 -0.9863 -1.9547
 1020MOL0     H40704   4.187  10.832   4.111  0.4465 -0.7312  0.6767
 1020MOL0     H40705   4.238  10.936   4.331 -0.2059 -1.0317  1.8152
 1020MOL0     H40706   4.068  10.922   4.370 -1.4638  3.2174 -0.6406
 1020MOL0     H40707   4.172  11.068   4.117  0.7249  0.8021  0.3544
 1020MOL0     H40708   4.006  11.030   4.155  0.7235 -2.4665  0.6169
 1020MOL0     H40709   4.327  11.226   4.270 -0.7487  1.2349 -5.3326
 1020MOL0     H40710   4.260  11.459   4.536 -0.0692 -0.4571  0.5877
 1020MOL0     H40711   4.167  11.566   4.434  2.2702  0.8236 -1.4469
 1020MOL0     H40712   4.371  11.518   4.262  0.3020 -2.4588 -0.1104
 1020MOL0     H40713   4.403  11.644   4.368 -4.0717  1.0829  1.2305
 1020MOL0     H40714   4.483  11.354   4.395 -0.8823  1.2108 -0.9958
 1020MOL0     H40715   4.589  11.497   4.377  0.4517  0.0818  0.7208
 1020MOL0     H40716   4.519  11.567   4.618 -1.9233  1.2701 -2.6257
 1020MOL0     H40717   4.439  11.414   4.629 -1.0256  2.1724  0.5735
 1020MOL0     H40718   4.467  11.211   4.549 -0.2081  0.3558  2.0220
 1020MOL0     H40719   4.512  10.946   4.359 -1.1922 -0.9183  0.5544
 1020MOL0     H40720   4.403  11.016   4.465  0.1588 -0.0349  2.6455
 1020MOL0     H40721   4.487  10.862   4.504  0.5313 -0.6053 -1.0345
 1020MOL0     H40722   4.891  10.718   4.224 -0.5710 -0.7024  0.7650
 1020MOL0     H40723   4.950  10.484   4.178 -0.6793  0.0899  0.7228
 1020MOL0     H40724   4.930  10.106   4.386  3.9135 -0.3093  2.5985
 1020MOL0     H40725   4.908  10.212   4.533 -0.5620  1.1927  0.8856
 1020MOL0     H40726   4.702  10.311   4.426  0.5763 -0.3871  0.0664
 1020MOL0     H40727   4.753  10.253   4.271 -0.8173  0.6771  0.4701
 1020MOL0     H40728   4.669  10.109   4.517 -0.3217  0.5731 -0.6591
 1020MOL0     H40729   4.701  10.005   4.376 -2.3387  0.2861 -5.3661
 1020MOL0     H40730   4.520  10.134   4.254  3.0445 -1.0183  0.1786
 1020MOL0     H40731   4.460  10.213   4.384 -2.0985 -1.3878 -1.2739
 1020MOL0     H40732   4.365   9.968   4.307 -0.0915  1.6690  0.0645
 1020MOL0     H40733   4.489   9.913   4.424  0.3289  0.0545  1.5636
 1020MOL0     H40734   4.255   9.947   4.524  2.6542 -2.0127  1.8146
 1020MOL0     H40735   4.262  10.117   4.481  2.2099  1.7667  0.1092
 1020MOL0     H40736   4.398  10.152   4.649 -5.3479  0.8226 -2.4469
 1020MOL0     H40737   4.475   9.994   4.646 -0.3734 -1.0767  2.3856
 1020MOL0     H40738   4.361  10.015   4.842  0.2338  0.3481 -0.5651
 1020MOL0     H40739   4.246   9.913   4.755  0.5395 -0.2013 -1.8091
 1020MOL0     H40740   4.998  10.414   4.609 -0.6590 -1.8946 -0.1791
 1020MOL0     H40741   4.960  10.656   4.640  0.0473 -1.6270 -0.0081
 1020MOL0     H40742   4.937  11.064   4.640  0.4558 -0.1240  0.3810
 1020MOL0     H40743   4.880  11.298   4.642  0.0209 -0.5820  0.4048
 1020MOL0     H40744   4.270  10.264   4.048  2.7637 -1.5440 -1.3351
 1020MOL0     H40745   4.379  10.043   4.092  0.2509  2.6280 -0.9506
 1020MOL0     H40746   4.528   9.645   3.859  1.1598 -2.9205 -1.1275
 1020MOL0     H40747   4.660   9.435   3.934  1.3181  1.0762  0.2043
 1020MOL0     H40748   4.613   9.273   4.311  0.8643 -0.3945  0.5559
 1020MOL0     H40749   4.529   9.139   4.230  0.5267 -0.4009 -0.4290
 1020MOL0     H40750   4.775   9.082   4.334 -0.3163 -1.3150  0.1905
 1020MOL0     H40751   4.826   9.210   4.236  0.2283  0.7223 -3.0805
 1020MOL0     H40752   4.687   8.976   4.077 -2.0229  0.0237  2.1435
 1020MOL0     H40753   4.837   9.080   4.054  1.4951 -0.1175  1.3030
 1020MOL0     H40754   4.950   8.942   4.228 -0.5604  0.1518  1.2012
 1020MOL0     H40755   4.892   8.855   4.079 -2.4874  1.4751 -1.1286
 1020MOL0     H40756   4.717   8.675   4.424 -1.4861 -1.9569 -1.0354
 1020MOL0     H40757   4.392   9.360   4.239  0.5433  0.5010  0.7034
 1020MOL0     H40758   4.261   9.601   4.316  3.0662 -3.0277  1.3060
 1020MOL0     H40759   4.154   9.591   4.164  1.6869  2.6549 -0.6531
 1020MOL0     H40760   4.196   9.448   4.243  0.3175  0.2783  0.6429
 1021MOL0     O40761   7.948   3.323  10.940 -0.8254  0.1478  0.3049
 1021MOL0     C40762   7.839   3.368  10.906 -0.7140  0.2664 -0.1887
 1021MOL0     O40763   7.736   3.359  10.990 -0.1513  0.2989 -0.2884
 1021MOL0     C40764   7.753   3.291  11.110  0.6902 -0.0061 -0.0202
 1021MOL0     C40765   7.758   3.349  11.235 -0.0935 -0.3067  0.8501
 1021MOL0     C40766   7.772   3.269  11.349 -0.3218  0.4453  0.0464
 1021MOL0     C40767   7.776   3.127  11.342  0.2239 -0.0716  0.5723
 1021MOL0     O40768   7.797   3.040  11.449  0.6204 -0.2272 -0.0992
 1021MOL0     C40769   7.823   3.099  11.576 -0.0861  0.5850 -0.9180
 1021MOL0     C40770   7.852   2.991  11.682  0.0858 -0.2197  0.4728
 1021MOL0     C40771   7.939   3.038  11.788 -0.6610  0.0466 -0.0458
 1021MOL0     C40772   7.995   2.925  11.871  0.3548 -0.4645  0.8364
 1021MOL0     C40773   8.077   2.978  11.984  0.5245  0.4056 -0.5959
 1021MOL0     C40774   8.164   2.871  12.053 -0.0224 -0.4332 -0.3599
 1021MOL0     C40775   8.088   2.802  12.169  0.3821  0.4856 -0.3817
 1021MOL0     C40776   8.169   2.697  12.239  0.2718  0.0316 -1.2928
 1021MOL0     N40777   8.105   2.662  12.369 -0.7247 -0.4905  0.3879
 1021MOL0     C40778   7.990   2.594  12.388  0.1645 -0.7029 -0.4215
 1021MOL0     C40779   7.962   2.596  12.519  0.3236  0.9045 -0.8061
 1021MOL0     C40780   7.839   2.560  12.595 -0.7955 -0.3504 -0.4041
 1021MOL0     C40781   7.731   2.520  12.492  0.3999  0.4360  0.2890
 1021MOL0     C40782   7.611   2.474  12.560  0.1297 -0.6853  0.5981
 1021MOL0     C40783   7.496   2.471  12.462  0.5600  0.0667 -0.4111
 1021MOL0     O40784   7.474   2.608  12.432  0.5670 -0.4579 -0.6715
 1021MOL0     C40785   7.365   2.635  12.349 -0.2052 -0.1425  0.2216
 1021MOL0     C40786   7.271   2.542  12.310 -0.0891  0.2762  0.5457
 1021MOL0     C40787   7.168   2.596  12.233  0.3454 -0.0143  1.1073
 1021MOL0     C40788   7.069   2.490  12.187  0.1769 -1.0373 -0.0767
 1021MOL0     C40789   7.157   2.735  12.199  1.4521  0.1470 -0.3509
 1021MOL0     C40790   7.039   2.790  12.116 -0.1474  0.8074  0.0183
 1021MOL0     O40791   7.077   2.882  12.023 -0.2329 -0.8387  0.6223
 1021MOL0     C40792   7.011   2.910  11.907  1.4015 -1.2945  0.1499
 1021MOL0     C40793   6.917   2.821  11.856 -0.0844 -0.1359 -0.2090
 1021MOL0     C40794   6.880   2.838  11.722  0.3793 -0.1499 -0.5173
 1021MOL0     C40795   6.930   2.943  11.648 -0.0751  0.4317  0.0946
 1021MOL0     O40796   6.871   2.960  11.523 -0.5207  0.0696  0.0687
 1021MOL0     C40797   6.962   3.028  11.427  0.4151  0.5418 -0.7630
 1021MOL0     C40798   6.915   2.957  11.301 -0.4287  0.8346 -0.1831
 1021MOL0     C40799   7.010   3.014  11.197 -0.3323 -0.0277 -0.2396
 1021MOL0     C40800   6.932   3.045  11.071 -0.7301  0.2371  0.4464
 1021MOL0     C40801   7.029   3.080  10.961  0.2411 -0.6433 -1.0639
 1021MOL0     C40802   6.960   3.099  10.832 -0.3995 -0.6227 -0.7315
 1021MOL0     C40803   7.058   3.086  10.717  0.3204  0.2445 -0.0459
 1021MOL0     C40804   6.999   3.038  10.587  0.7243  0.4353  0.1596
 1021MOL0    Cl40805   6.898   3.173  10.520  0.7910  0.0503 -0.3184
 1021MOL0     C40806   7.037   3.023  11.702  0.0972 -0.3799  0.7888
 1021MOL0     C40807   7.071   3.015  11.838  0.8067  0.6437  0.2116
 1021MOL0     O40808   6.928   2.770  12.154 -0.6208  0.3287  0.8057
 1021MOL0     C40809   7.255   2.817  12.226  0.4599 -0.1127 -0.8010
 1021MOL0     C40810   7.360   2.769  12.296 -0.1281 -0.3519  0.3766
 1021MOL0     N40811   8.071   2.669  12.578 -0.2152 -0.6979 -0.9971
 1021MOL0     N40812   8.157   2.707  12.486 -0.3219  0.4961 -0.0225
 1021MOL0     C40813   7.759   3.070  11.209  0.7316  0.3487  0.0303
 1021MOL0     C40814   7.752   3.152  11.101  0.8822  0.0339 -0.6640
 1021MOL0     C40815   7.821   3.459  10.793 -0.5254 -0.1458  0.2410
 1021MOL0     C40816   7.734   3.574  10.804  0.1195 -0.6749  0.6560
 1021MOL0     C40817   7.729   3.652  10.686 -0.5670 -0.6128  0.3224
 1021MOL0     C40818   7.787   3.615  10.567  0.9081 -0.0997  0.4075
 1021MOL0     O40819   7.773   3.686  10.453 -0.1086 -0.0276  0.2068
 1021MOL0     C40820   7.895   3.749  10.403 -0.2605 -0.1385 -0.7536
 1021MOL0     C40821   7.873   3.847  10.285 -1.4449 -0.3570  0.5475
 1021MOL0     C40822   7.846   3.780  10.152 -0.5420 -0.5168 -0.2222
 1021MOL0     C40823   7.794   3.890  10.058 -0.8352  0.6085  0.4236
 1021MOL0     C40824   7.901   3.992  10.023 -0.3046 -0.8159 -0.1166
 1021MOL0     C40825   8.001   4.051  10.001 -0.5090  0.3077 -1.3273
 1021MOL0     C40826   7.872   3.494  10.558  0.4062  0.5548  0.2561
 1021MOL0     C40827   7.878   3.416  10.672  0.2974 -0.0041 -0.2654
 1021MOL0     C40828   7.939   3.274  10.655  1.5433 -0.3926  0.0655
 1021MOL0     H40829   7.742   3.456  11.229  0.2524 -0.3404 -1.7688
 1021MOL0     H40830   7.791   3.324  11.441  3.6952 -0.2221 -0.1900
 1021MOL0     H40831   7.745   3.163  11.617 -1.3615 -0.4726 -1.6161
 1021MOL0     H40832   7.914   3.157  11.556  1.0812 -1.5269 -2.1970
 1021MOL0     H40833   7.750   2.971  11.716 -1.3096  2.6656 -1.5864
 1021MOL0     H40834   7.892   2.905  11.628  1.2449 -0.0495  1.0159
 1021MOL0     H40835   8.025   3.080  11.735  0.0779 -3.2479 -1.7531
 1021MOL0     H40836   7.892   3.116  11.849 -0.8398 -0.0643 -0.0386
 1021MOL0     H40837   7.917   2.856  11.903 -1.8043  2.1031  1.4622
 1021MOL0     H40838   8.053   2.875  11.792 -0.5455 -0.5371  0.2019
 1021MOL0     H40839   8.016   3.022  12.063  0.6923 -3.2407  1.7867
 1021MOL0     H40840   8.142   3.051  11.935 -0.0631  0.2758 -1.5850
 1021MOL0     H40841   8.207   2.808  11.975  0.1837  0.2458 -0.8030
 1021MOL0     H40842   8.252   2.930  12.079 -2.5413  3.8539 -0.5351
 1021MOL0     H40843   7.997   2.750  12.140  1.0099 -3.3799  3.5854
 1021MOL0     H40844   8.070   2.883  12.241  2.8913  1.7801 -1.0717
 1021MOL0     H40845   8.165   2.603  12.183 -0.2349 -1.9454  1.8265
 1021MOL0     H40846   8.272   2.729  12.256  0.3676 -1.4086  1.1747
 1021MOL0     H40847   7.928   2.543  12.314 -0.4403 -0.2101 -0.2599
 1021MOL0     H40848   7.801   2.645  12.651 -0.8412 -2.0290  2.3407
 1021MOL0     H40849   7.856   2.470  12.656 -1.6248 -2.8778 -3.6271
 1021MOL0     H40850   7.709   2.606  12.428  1.6394 -0.3604 -1.2983
 1021MOL0     H40851   7.766   2.437  12.430  0.2697 -0.6899  1.6789
 1021MOL0     H40852   7.626   2.376  12.606  3.0379 -0.4388  0.3813
 1021MOL0     H40853   7.596   2.539  12.648  3.3607 -0.2513  0.9651
 1021MOL0     H40854   7.526   2.417  12.372  3.7211  0.2838  0.4110
 1021MOL0     H40855   7.404   2.436  12.509  1.1896  1.3875  1.9860
 1021MOL0     H40856   7.273   2.436  12.334 -1.6395  0.3374  1.0877
 1021MOL0     H40857   7.019   2.521  12.095 -0.1356  0.1657  0.4896
 1021MOL0     H40858   6.987   2.473  12.257 -0.0703  0.2539 -0.0349
 1021MOL0     H40859   7.128   2.398  12.179  2.4386 -0.2056  4.0210
 1021MOL0     H40860   6.868   2.752  11.924  0.1690  1.6336  1.8554
 1021MOL0     H40861   6.800   2.773  11.687 -0.3561  0.1124  0.6064
 1021MOL0     H40862   6.937   3.133  11.412  0.9705  0.8075  0.0662
 1021MOL0     H40863   7.068   3.013  11.452 -0.1852  1.4784  3.0009
 1021MOL0     H40864   6.937   2.852  11.320 -3.2322  0.2533  0.3519
 1021MOL0     H40865   6.807   2.956  11.286 -0.5225 -4.4298 -0.7768
 1021MOL0     H40866   7.087   2.939  11.176 -0.9351 -0.4987 -0.8272
 1021MOL0     H40867   7.061   3.105  11.228 -0.2063 -0.3235  0.4425
 1021MOL0     H40868   6.859   3.124  11.092 -2.0557 -0.8903  0.2137
 1021MOL0     H40869   6.878   2.958  11.033 -0.9741  1.5982 -2.6329
 1021MOL0     H40870   7.067   3.179  10.990  1.5344 -1.0925 -1.1619
 1021MOL0     H40871   7.113   3.009  10.959  0.1648 -0.8416  0.8765
 1021MOL0     H40872   6.918   3.200  10.827  1.4241  0.2999  1.2549
 1021MOL0     H40873   6.885   3.019  10.825 -1.1661 -0.0201  0.2700
 1021MOL0     H40874   7.141   3.020  10.745 -1.0098 -2.0357 -1.1795
 1021MOL0     H40875   7.098   3.187  10.702 -3.5218  1.6510 -2.2236
 1021MOL0     H40876   6.923   2.961  10.601  2.1915 -1.2671 -0.8774
 1021MOL0     H40877   7.066   3.012  10.505 -2.2478 -3.7535 -1.3101
 1021MOL0     H40878   7.081   3.100  11.639  0.3588 -2.6062 -1.9542
 1021MOL0     H40879   7.149   3.070  11.890 -0.3917  3.0755 -0.4074
 1021MOL0     H40880   7.255   2.920  12.190 -0.3037  0.3748  0.5145
 1021MOL0     H40881   7.432   2.842  12.332 -0.3242  0.2343 -0.4024
 1021MOL0     H40882   7.767   2.963  11.197 -0.2147  0.4648 -2.0244
 1021MOL0     H40883   7.740   3.106  11.004  0.0282 -0.6122 -0.2647
 1021MOL0     H40884   7.680   3.598  10.895 -1.7306 -1.7452 -0.1110
 1021MOL0     H40885   7.660   3.735  10.679  0.4869  0.4072  1.3856
 1021MOL0     H40886   7.944   3.796  10.489  0.7569 -0.1275 -1.3235
 1021MOL0     H40887   7.961   3.669  10.371  0.5024  1.0028 -2.1523
 1021MOL0     H40888   7.961   3.911  10.276 -2.2833  0.7737  0.2100
 1021MOL0     H40889   7.786   3.909  10.307 -2.5009 -1.8315  0.7430
 1021MOL0     H40890   7.937   3.735  10.112 -0.4771 -0.0462 -0.6108
 1021MOL0     H40891   7.776   3.698  10.168  1.9317 -2.6878  0.1188
 1021MOL0     H40892   7.714   3.949  10.102 -0.7448 -0.7554  2.5521
 1021MOL0     H40893   7.772   3.845   9.961  0.2362 -1.0096  0.8936
 1021MOL0     H40894   8.090   4.107   9.978 -0.5670  0.4925 -1.1050
 1021MOL0     H40895   7.912   3.466  10.461  2.2672  2.0443  0.5285
 1021MOL0     H40896   8.032   3.262  10.713  2.8576  0.5980 -1.7258
 1021MOL0     H40897   7.858   3.207  10.685  1.5720 -0.5079 -0.1138
 1021MOL0     H40898   7.959   3.254  10.549  0.0634 -1.2153 -0.0877
 1022MOL0     O40899   8.439   2.458   6.457  0.3958  0.2334  0.3200
 1022MOL0     C40900   8.560   2.478   6.453  0.8760  0.1872  0.0953
 1022MOL0     O40901   8.614   2.546   6.348 -0.0757  0.8498 -0.3070
 1022MOL0     C40902   8.521   2.615   6.282  1.2852  0.0352  0.5650
 1022MOL0     C40903   8.476   2.735   6.333  0.4832 -0.2642  0.1275
 1022MOL0     C40904   8.381   2.806   6.258 -0.1164 -0.2193 -0.6714
 1022MOL0     C40905   8.337   2.767   6.135  0.6378  0.7951  0.6893
 1022MOL0     O40906   8.231   2.851   6.092  0.0071  0.3309  0.4827
 1022MOL0     C40907   8.204   2.855   5.946  0.3059 -1.0908  0.3873
 1022MOL0     C40908   8.089   2.953   5.920 -0.1561  0.3241  0.0745
 1022MOL0     C40909   8.118   3.094   5.944 -0.3595  0.8249 -0.3645
 1022MOL0     C40910   8.027   3.184   5.860  0.3448  0.9210  0.1546
 1022MOL0     C40911   8.025   3.335   5.889 -0.0509  0.0949 -0.1153
 1022MOL0     C40912   7.908   3.395   5.820  0.0533 -0.3262  0.7775
 1022MOL0     C40913   7.891   3.547   5.816 -0.0885  1.5326  0.3324
 1022MOL0     C40914   7.771   3.571   5.730  1.0257 -0.1574  0.4524
 1022MOL0     N40915   7.736   3.714   5.741  0.3215 -0.3958  0.7878
 1022MOL0     C40916   7.827   3.810   5.696  0.1741  0.3582 -0.1859
 1022MOL0     C40917   7.763   3.930   5.715 -0.1489  1.0457 -0.7860
 1022MOL0     C40918   7.816   4.059   5.670  0.5962 -0.1607  0.3650
 1022MOL0     C40919   7.790   4.157   5.776 -0.1347  0.9278 -0.0850
 1022MOL0     C40920   7.880   4.274   5.770  0.2094 -0.6554  0.3714
 1022MOL0     C40921   7.867   4.370   5.896  0.2095  0.3247  0.1090
 1022MOL0     O40922   7.728   4.404   5.911  0.1418 -0.2078  0.3869
 1022MOL0     C40923   7.701   4.491   6.011 -0.7214 -0.1472  0.1637
 1022MOL0     C40924   7.785   4.508   6.126  0.1601 -0.0121  0.8008
 1022MOL0     C40925   7.741   4.591   6.225 -0.3542  0.2851  0.2336
 1022MOL0     C40926   7.846   4.610   6.327  0.8584 -0.0868 -1.3488
 1022MOL0     C40927   7.608   4.654   6.223  0.3639 -0.3369 -0.0057
 1022MOL0     C40928   7.560   4.754   6.329  0.2232 -0.5900  0.5019
 1022MOL0     O40929   7.455   4.836   6.290 -0.2075 -0.4511 -0.6557
 1022MOL0     C40930   7.374   4.894   6.388 -1.0286  0.1583 -0.2697
 1022MOL0     C40931   7.311   4.831   6.488 -0.6217 -0.0094 -0.0475
 1022MOL0     C40932   7.240   4.899   6.589 -0.1024 -0.5064 -0.2555
 1022MOL0     C40933   7.222   5.036   6.574 -0.2300 -0.3072  0.2125
 1022MOL0     O40934   7.143   5.125   6.644 -0.3433 -0.2898 -0.0540
 1022MOL0     C40935   7.064   5.078   6.754 -0.6002 -0.4850  0.5972
 1022MOL0     C40936   7.067   5.169   6.872  0.4853  0.2034 -0.0469
 1022MOL0     C40937   7.039   5.310   6.834 -0.3249  1.0645 -0.0027
 1022MOL0     C40938   6.984   5.389   6.950 -0.0437  0.3668  0.1427
 1022MOL0     C40939   6.912   5.516   6.912 -1.5285  0.5364 -0.1674
 1022MOL0     C40940   6.864   5.585   7.040  0.3162  0.3269 -0.1299
 1022MOL0     C40941   6.967   5.691   7.089 -0.4252 -0.0617 -0.4112
 1022MOL0     C40942   6.947   5.738   7.234 -1.0117  0.4129 -0.0799
 1022MOL0    Cl40943   6.787   5.804   7.247  0.0325 -0.6916 -0.0722
 1022MOL0     C40944   7.281   5.104   6.471 -0.1478 -0.1520  0.1336
 1022MOL0     C40945   7.362   5.031   6.386 -0.5659 -0.1684  0.8670
 1022MOL0     O40946   7.603   4.747   6.444  0.1040  0.7081  0.0163
 1022MOL0     C40947   7.525   4.641   6.105  0.7164  0.1337 -0.5148
 1022MOL0     C40948   7.574   4.556   6.000  0.9786 -0.0408 -0.4081
 1022MOL0     N40949   7.638   3.903   5.765  0.2770 -0.7262 -0.3575
 1022MOL0     N40950   7.624   3.775   5.781  0.3153 -0.8615  0.1756
 1022MOL0     C40951   8.384   2.653   6.074  0.3475  0.0244  0.2598
 1022MOL0     C40952   8.475   2.581   6.148 -0.3209  0.4380 -0.2352
 1022MOL0     C40953   8.650   2.434   6.562  0.1728 -0.0920 -0.2963
 1022MOL0     C40954   8.790   2.466   6.544 -0.0881 -0.0247 -1.1325
 1022MOL0     C40955   8.882   2.442   6.659  0.7344 -0.5312  0.1353
 1022MOL0     C40956   8.834   2.376   6.770 -0.3924 -0.5848 -0.7734
 1022MOL0     O40957   8.913   2.347   6.878  0.2096  0.1067 -0.2904
 1022MOL0     C40958   9.052   2.349   6.880  0.3062  0.4987  0.2770
 1022MOL0     C40959   9.111   2.487   6.898 -1.2958 -0.4912 -1.2355
 1022MOL0     C40960   9.063   2.565   7.020  0.4375 -0.4638  0.2499
 1022MOL0     C40961   9.111   2.509   7.150 -0.3834 -0.7869  0.0337
 1022MOL0     C40962   9.034   2.392   7.196  0.0929 -0.0352 -0.7085
 1022MOL0     C40963   8.964   2.298   7.226 -0.2675  0.9728  0.8652
 1022MOL0     C40964   8.699   2.341   6.786 -1.4036  0.9236  0.7919
 1022MOL0     C40965   8.609   2.367   6.681  0.5162 -0.1371 -0.0108
 1022MOL0     C40966   8.483   2.287   6.685  0.0216  1.0688  0.3925
 1022MOL0     H40967   8.494   2.764   6.436 -0.1991 -1.9007  0.7303
 1022MOL0     H40968   8.337   2.892   6.307 -1.7862 -1.2594 -0.2513
 1022MOL0     H40969   8.168   2.756   5.919 -2.8870 -0.4451  1.8324
 1022MOL0     H40970   8.298   2.874   5.893 -0.4339 -0.7455 -0.8397
 1022MOL0     H40971   8.071   2.957   5.812  1.2082  1.0863 -0.1555
 1022MOL0     H40972   8.009   2.918   5.986 -1.3858  2.9114  0.1088
 1022MOL0     H40973   8.099   3.120   6.048  0.9901  0.9908 -0.1487
 1022MOL0     H40974   8.214   3.128   5.905  0.4748  0.7959  1.5957
 1022MOL0     H40975   8.045   3.170   5.753  1.9179  2.0271  0.2424
 1022MOL0     H40976   7.923   3.161   5.885  0.8050  0.7254  2.0191
 1022MOL0     H40977   8.116   3.382   5.850  0.5384  1.2277  2.3713
 1022MOL0     H40978   8.018   3.364   5.995  0.1120  0.4762 -0.2043
 1022MOL0     H40979   7.907   3.352   5.719  0.3768  0.0768  0.5977
 1022MOL0     H40980   7.817   3.360   5.867 -1.1860 -0.4109 -1.5326
 1022MOL0     H40981   7.971   3.595   5.759  1.1180 -0.9462 -0.1983
 1022MOL0     H40982   7.869   3.590   5.914 -1.9211  0.1849  0.5692
 1022MOL0     H40983   7.806   3.564   5.627 -0.4942 -0.6086 -0.0530
 1022MOL0     H40984   7.682   3.508   5.739  0.2499  0.8639  0.0887
 1022MOL0     H40985   7.919   3.779   5.646  1.6755 -1.9420  3.5254
 1022MOL0     H40986   7.762   4.086   5.579 -0.7809 -0.3084  1.1050
 1022MOL0     H40987   7.923   4.051   5.646  0.7699  0.3909  0.9390
 1022MOL0     H40988   7.684   4.185   5.773 -0.5279 -0.5197 -3.2663
 1022MOL0     H40989   7.818   4.100   5.865 -0.2844 -1.5706 -1.5747
 1022MOL0     H40990   7.982   4.240   5.786  1.3212  2.9478  1.9041
 1022MOL0     H40991   7.860   4.325   5.675 -3.4272 -0.9230  0.8253
 1022MOL0     H40992   7.884   4.297   5.975  0.5543  0.0710 -0.1947
 1022MOL0     H40993   7.929   4.459   5.906 -0.0864  0.4787  0.5814
 1022MOL0     H40994   7.880   4.455   6.132  1.0859  1.2633 -1.3216
 1022MOL0     H40995   7.814   4.609   6.432  2.3597 -1.9612 -0.8405
 1022MOL0     H40996   7.882   4.709   6.298 -0.8553 -0.2456 -4.4244
 1022MOL0     H40997   7.928   4.539   6.313  0.4986 -0.6189 -0.8174
 1022MOL0     H40998   7.319   4.723   6.497 -1.2843 -0.1856 -1.2713
 1022MOL0     H40999   7.190   4.849   6.671  1.8324  1.6803  2.3928
 1022MOL0     H41000   6.971   5.088   6.697  0.7148 -0.7192 -1.7326
 1022MOL0     H41001   7.075   4.978   6.796 -1.7824 -0.1831  1.6992
 1022MOL0     H41002   6.988   5.131   6.937 -0.5127  2.4822  0.1688
 1022MOL0     H41003   7.167   5.156   6.914  1.6570 -0.5851 -2.8539
 1022MOL0     H41004   6.960   5.307   6.759  0.0340 -0.1691 -0.3535
 1022MOL0     H41005   7.128   5.360   6.795  0.8713 -0.8554  0.1493
 1022MOL0     H41006   7.063   5.424   7.017 -0.6832  3.6764 -0.6100
 1022MOL0     H41007   6.913   5.331   7.010  0.3254 -1.1134 -0.8092
 1022MOL0     H41008   6.980   5.573   6.849 -0.7009 -1.0783 -0.7866
 1022MOL0     H41009   6.828   5.488   6.847 -1.8438  0.8072  0.1211
 1022MOL0     H41010   6.861   5.513   7.122  1.0641  1.8600  1.3023
 1022MOL0     H41011   6.764   5.619   7.012  0.1101  0.5396  0.8368
 1022MOL0     H41012   6.961   5.777   7.021 -1.8936  2.0051  2.1341
 1022MOL0     H41013   7.071   5.658   7.093 -0.4059  0.0133  3.1365
 1022MOL0     H41014   7.033   5.806   7.244  0.3239 -0.6316 -3.1218
 1022MOL0     H41015   6.959   5.659   7.308  0.5872 -0.6400 -1.3772
 1022MOL0     H41016   7.271   5.211   6.456  3.9997  0.0446 -3.0713
 1022MOL0     H41017   7.394   5.091   6.301 -1.8636 -1.5698 -0.6828
 1022MOL0     H41018   7.429   4.692   6.105  1.3735  1.4282  0.1900
 1022MOL0     H41019   7.520   4.542   5.907 -2.7187 -0.3970  1.6174
 1022MOL0     H41020   8.344   2.618   5.979 -0.2079  1.7518 -0.1760
 1022MOL0     H41021   8.516   2.493   6.099  0.5965  1.2109 -0.9171
 1022MOL0     H41022   8.826   2.524   6.460  0.5488  0.5930 -0.4546
 1022MOL0     H41023   8.985   2.468   6.641 -0.3913  3.0523 -2.2343
 1022MOL0     H41024   9.077   2.267   6.948  1.6622  1.9880  1.6906
 1022MOL0     H41025   9.088   2.307   6.786 -1.6987  0.5264 -0.5443
 1022MOL0     H41026   9.093   2.560   6.818 -2.1740  2.1692  1.1752
 1022MOL0     H41027   9.219   2.473   6.910 -1.3024  0.6926  0.5234
 1022MOL0     H41028   9.108   2.664   7.010  1.6030 -0.7386  2.2322
 1022MOL0     H41029   8.954   2.573   7.027  0.5291  2.1527 -0.2941
 1022MOL0     H41030   9.112   2.587   7.226  0.4720  0.2117 -0.9813
 1022MOL0     H41031   9.215   2.477   7.135 -0.0596  1.2815 -2.8596
 1022MOL0     H41032   8.905   2.212   7.249  2.2183 -0.9051  0.6486
 1022MOL0     H41033   8.666   2.279   6.869 -1.9261 -0.6670 -0.5552
 1022MOL0     H41034   8.471   2.237   6.781  2.1294  0.3052  0.3071
 1022MOL0     H41035   8.394   2.349   6.667  0.4687  0.9610 -3.0211
 1022MOL0     H41036   8.490   2.219   6.600  1.4896  1.1806  0.4059
 1023MOL0     O41037   0.461   6.188   8.432 -1.2432  0.1988  0.2624
 1023MOL0     C41038   0.436   6.181   8.314  0.2414  0.0306 -0.1449
 1023MOL0     O41039   0.526   6.169   8.216  0.2568  1.4368  0.3094
 1023MOL0     C41040   0.661   6.184   8.248  0.0505  0.0605  0.1342
 1023MOL0     C41041   0.730   6.151   8.372  0.3037  1.2956  0.7558
 1023MOL0     C41042   0.872   6.181   8.386  0.0030 -0.0930 -0.5122
 1023MOL0     C41043   0.944   6.216   8.272 -0.0034  0.7020 -0.2507
 1023MOL0     O41044   1.082   6.223   8.288 -0.3476  0.4652 -0.2990
 1023MOL0     C41045   1.147   6.096   8.280 -0.0281  0.4150 -1.1391
 1023MOL0     C41046   1.283   6.125   8.354 -0.4452 -0.1836  0.1630
 1023MOL0     C41047   1.385   6.200   8.256  0.6440  0.6635  0.0991
 1023MOL0     C41048   1.518   6.244   8.334 -0.4174 -0.0613  0.1746
 1023MOL0     C41049   1.531   6.398   8.361 -0.2559 -0.5970  0.1717
 1023MOL0     C41050   1.646   6.437   8.453  0.3034  0.0176  0.1241
 1023MOL0     C41051   1.789   6.396   8.404  0.6068  0.0965 -1.3441
 1023MOL0     C41052   1.894   6.441   8.503  1.5466 -0.6433  0.8228
 1023MOL0     N41053   2.021   6.387   8.464 -0.0610  0.1452  0.4828
 1023MOL0     C41054   2.054   6.254   8.448 -1.3840  0.6234  0.0208
 1023MOL0     C41055   2.184   6.258   8.419 -0.0305 -1.3323  0.7336
 1023MOL0     C41056   2.277   6.148   8.374  1.1644  0.0717  1.2677
 1023MOL0     C41057   2.383   6.108   8.485  0.2266 -0.5631  0.0454
 1023MOL0     C41058   2.492   6.216   8.494  0.8260  0.6633 -0.3263
 1023MOL0     C41059   2.577   6.208   8.622 -0.1949  0.6717 -0.0462
 1023MOL0     O41060   2.632   6.075   8.642  0.2770  0.3910  0.0378
 1023MOL0     C41061   2.725   6.042   8.735  0.4606  0.7572 -0.9363
 1023MOL0     C41062   2.794   5.926   8.708  0.4255  0.1646 -0.5713
 1023MOL0     C41063   2.890   5.879   8.789 -0.7340 -0.1902  0.2765
 1023MOL0     C41064   2.946   5.748   8.757 -0.6458 -0.3920  0.2191
 1023MOL0     C41065   2.940   5.962   8.893 -0.2099  0.4234 -0.5258
 1023MOL0     C41066   3.049   5.918   8.988 -0.8801 -0.1814  0.3609
 1023MOL0     O41067   3.121   6.027   9.038  0.5553  0.7367  0.2829
 1023MOL0     C41068   3.256   6.022   9.009  0.0986 -0.2831  0.0055
 1023MOL0     C41069   3.351   6.068   9.102 -0.5203 -0.7293  0.8526
 1023MOL0     C41070   3.487   6.058   9.086  0.8397  0.5253 -0.3157
 1023MOL0     C41071   3.533   5.980   8.979 -1.0211  0.5550  0.2780
 1023MOL0     O41072   3.671   5.963   8.975  0.3487 -0.4608 -0.1313
 1023MOL0     C41073   3.727   5.917   8.851 -0.0039  0.3116  0.8501
 1023MOL0     C41074   3.877   5.915   8.879 -0.2855  0.1198  0.5543
 1023MOL0     C41075   3.944   5.838   8.775  0.0741  0.5707  0.4109
 1023MOL0     C41076   4.098   5.830   8.787 -0.2156  0.1201  0.3061
 1023MOL0     C41077   4.165   5.727   8.689 -0.0019 -1.1611 -0.5760
 1023MOL0     C41078   4.136   5.586   8.734 -0.5047 -0.4018 -0.8796
 1023MOL0     C41079   4.197   5.487   8.641 -0.0388  0.5709  0.7771
 1023MOL0     C41080   4.341   5.486   8.654 -0.0507 -1.1834 -0.3185
 1023MOL0    Cl41081   4.416   5.339   8.578 -0.4601  0.1667  0.1450
 1023MOL0     C41082   3.448   5.919   8.889 -0.2350 -1.1379 -0.4101
 1023MOL0     C41083   3.314   5.950   8.903  0.0919  0.1209  0.7040
 1023MOL0     O41084   3.081   5.802   9.003 -0.3608  0.1046  0.2722
 1023MOL0     C41085   2.880   6.085   8.916 -0.6585  0.1785  0.0792
 1023MOL0     C41086   2.766   6.123   8.847  0.3295  0.6683  0.4840
 1023MOL0     N41087   2.218   6.387   8.422 -0.2759  0.6900 -0.2407
 1023MOL0     N41088   2.124   6.462   8.467  0.2378  1.0014 -0.1535
 1023MOL0     C41089   0.876   6.247   8.153  0.0552  0.1346  0.0127
 1023MOL0     C41090   0.741   6.228   8.144 -0.1725 -0.6280 -0.0912
 1023MOL0     C41091   0.285   6.177   8.279 -0.2071 -0.2509  0.4422
 1023MOL0     C41092   0.185   6.182   8.381  0.7021  0.1866 -0.3614
 1023MOL0     C41093   0.049   6.160   8.357  0.5438  0.3017  0.4660
 1023MOL0     C41094   0.007   6.143   8.227 -0.5629  0.2772  0.5482
 1023MOL0     O41095  -0.113   6.091   8.188 -0.3862 -0.3023  0.0662
 1023MOL0     C41096  -0.205   6.040   8.285  0.8194 -1.0787 -0.3651
 1023MOL0     C41097  -0.318   5.967   8.204  1.2546 -0.2729 -0.4266
 1023MOL0     C41098  -0.373   6.055   8.090 -0.1144 -0.1442  0.0182
 1023MOL0     C41099  -0.489   5.998   8.014  0.2157  0.4124  0.9519
 1023MOL0     C41100  -0.608   5.974   8.089 -0.5810 -0.1292 -0.0027
 1023MOL0     C41101  -0.714   5.952   8.140  0.7590  0.5296 -0.2956
 1023MOL0     C41102   0.097   6.166   8.123  0.7525  0.0713  0.0853
 1023MOL0     C41103   0.234   6.187   8.145  0.1054  0.2035 -0.9715
 1023MOL0     C41104   0.318   6.201   8.028  1.0020 -0.3568  0.5426
 1023MOL0     H41105   0.674   6.120   8.460  2.3083  0.9816  1.9778
 1023MOL0     H41106   0.919   6.172   8.484  0.9350 -0.3446 -0.9667
 1023MOL0     H41107   1.150   6.074   8.173 -2.3891 -2.1658 -0.7934
 1023MOL0     H41108   1.098   6.013   8.331  1.3997 -0.3559 -0.9703
 1023MOL0     H41109   1.261   6.194   8.436  2.7451  2.0926 -0.6981
 1023MOL0     H41110   1.336   6.037   8.392  0.9378  1.1865  1.5549
 1023MOL0     H41111   1.413   6.143   8.167  0.0160 -2.4125  1.6976
 1023MOL0     H41112   1.328   6.280   8.209 -0.7004 -0.3194  0.0060
 1023MOL0     H41113   1.527   6.206   8.437  0.8885  2.0636  0.9222
 1023MOL0     H41114   1.608   6.210   8.284 -1.4700 -1.5442 -0.7971
 1023MOL0     H41115   1.443   6.445   8.405 -0.5398  1.1949 -2.1059
 1023MOL0     H41116   1.542   6.448   8.264 -0.8824 -1.5058 -0.3798
 1023MOL0     H41117   1.638   6.546   8.463 -2.2008 -0.2426  1.8623
 1023MOL0     H41118   1.619   6.415   8.557  0.6671  1.3724  0.5227
 1023MOL0     H41119   1.795   6.419   8.297 -3.0847 -3.4954 -2.5822
 1023MOL0     H41120   1.788   6.287   8.395 -2.1996  0.0245 -0.9796
 1023MOL0     H41121   1.898   6.551   8.500  0.6284 -0.5517 -3.2773
 1023MOL0     H41122   1.855   6.405   8.598  1.8237  0.0154  1.1894
 1023MOL0     H41123   1.994   6.167   8.471  1.5748 -1.9326 -1.1918
 1023MOL0     H41124   2.327   6.177   8.281  0.1617  1.9841  1.2845
 1023MOL0     H41125   2.217   6.061   8.344  1.0377  1.2893 -2.5384
 1023MOL0     H41126   2.343   6.104   8.586  0.1491  3.6619  0.3918
 1023MOL0     H41127   2.429   6.011   8.464  0.3098  0.1700 -4.2466
 1023MOL0     H41128   2.558   6.204   8.408  1.1518  1.5773 -0.2116
 1023MOL0     H41129   2.460   6.319   8.478 -1.8301 -0.2479 -1.4347
 1023MOL0     H41130   2.663   6.275   8.610  1.6400 -1.4652  0.5476
 1023MOL0     H41131   2.510   6.230   8.706 -2.5074 -2.3920 -0.9108
 1023MOL0     H41132   2.755   5.884   8.616 -3.1434  4.0513 -1.1188
 1023MOL0     H41133   2.916   5.720   8.656 -1.1041  2.0027 -0.3843
 1023MOL0     H41134   2.930   5.669   8.830 -1.3432 -1.1634 -0.7528
 1023MOL0     H41135   3.055   5.764   8.754 -0.3444 -2.0349  1.2069
 1023MOL0     H41136   3.315   6.125   9.187  0.2036  1.1030 -0.0143
 1023MOL0     H41137   3.567   6.098   9.147  1.1850  1.9340 -1.6526
 1023MOL0     H41138   3.695   5.816   8.822  2.1139  1.0462 -5.8396
 1023MOL0     H41139   3.707   5.980   8.763  1.2480  0.7906  0.8952
 1023MOL0     H41140   3.919   6.017   8.880  0.6618 -0.1737 -1.7185
 1023MOL0     H41141   3.909   5.871   8.974  2.2727  0.4314 -0.0955
 1023MOL0     H41142   3.910   5.875   8.678 -1.3200 -1.0007  0.2378
 1023MOL0     H41143   3.894   5.742   8.792 -0.7822  1.4607  3.8458
 1023MOL0     H41144   4.109   5.801   8.891 -2.1133 -1.1579  0.1961
 1023MOL0     H41145   4.134   5.932   8.768 -1.9139  0.9031  1.0520
 1023MOL0     H41146   4.121   5.744   8.591  0.8887  1.5295 -0.5916
 1023MOL0     H41147   4.273   5.744   8.691 -0.4506  2.3294  0.5049
 1023MOL0     H41148   4.032   5.558   8.748 -0.7303  0.3417 -0.9947
 1023MOL0     H41149   4.177   5.574   8.835  0.5100 -0.4095 -1.2763
 1023MOL0     H41150   4.166   5.505   8.537 -2.2002  3.7263  1.7755
 1023MOL0     H41151   4.158   5.390   8.672 -1.1410  0.7087 -0.0906
 1023MOL0     H41152   4.352   5.480   8.762 -3.3967 -0.4674  0.1653
 1023MOL0     H41153   4.385   5.574   8.605  0.9228 -1.8368 -0.6441
 1023MOL0     H41154   3.487   5.858   8.808  3.1514  1.1915 -0.7362
 1023MOL0     H41155   3.251   5.899   8.830 -1.0325  1.3906  0.7585
 1023MOL0     H41156   2.917   6.154   8.992 -2.5186  0.8330  0.4397
 1023MOL0     H41157   2.711   6.213   8.871  0.7949  0.5285  2.1992
 1023MOL0     H41158   0.925   6.290   8.066 -1.2402 -1.8592 -1.8084
 1023MOL0     H41159   0.702   6.260   8.048  0.4508  2.5799  0.6130
 1023MOL0     H41160   0.208   6.166   8.486 -0.7999 -1.5814 -0.2576
 1023MOL0     H41161  -0.016   6.156   8.444  1.1091  1.8788  1.0102
 1023MOL0     H41162  -0.157   5.967   8.351  0.0080 -1.9790 -0.7566
 1023MOL0     H41163  -0.251   6.117   8.349 -1.7418 -1.9468 -1.0531
 1023MOL0     H41164  -0.399   5.941   8.273  1.6282 -1.3401 -0.3686
 1023MOL0     H41165  -0.270   5.877   8.166 -0.1128 -2.0249  1.7588
 1023MOL0     H41166  -0.401   6.150   8.136 -0.1763 -0.1676  0.0293
 1023MOL0     H41167  -0.286   6.075   8.026 -0.5748 -2.4599 -1.4357
 1023MOL0     H41168  -0.453   5.905   7.970  0.3324  0.9553 -0.1333
 1023MOL0     H41169  -0.510   6.060   7.926  0.9355 -2.9608 -1.8627
 1023MOL0     H41170  -0.808   5.953   8.192 -0.3101 -0.0871 -2.1452
 1023MOL0     H41171   0.056   6.159   8.023  1.4764  1.0417 -0.2953
 1023MOL0     H41172   0.378   6.290   8.051 -1.2148  1.8132 -1.5073
 1023MOL0     H41173   0.382   6.113   8.021  1.1133 -0.2480  0.1291
 1023MOL0     H41174   0.268   6.224   7.933  1.7887  1.7040  0.5719
 1024MOL0     O41175  11.472   1.335  10.398  0.0937 -0.0859  0.6738
 1024MOL0     C41176  11.445   1.306  10.279 -0.0478  0.8663 -0.0548
 1024MOL0     O41177  11.336   1.232  10.237 -0.4767 -0.3170  0.1360
 1024MOL0     C41178  11.236   1.216  10.326 -1.0458  0.4556 -0.7516
 1024MOL0     C41179  11.111   1.245  10.280  0.1405 -0.7780  0.8207
 1024MOL0     C41180  10.992   1.215  10.345  0.1168  0.2160 -0.1813
 1024MOL0     C41181  11.006   1.143  10.467 -0.1293 -0.1289 -0.2562
 1024MOL0     O41182  10.908   1.093  10.548  0.3029  0.3032 -0.7163
 1024MOL0     C41183  10.773   1.099  10.506  0.3117  0.2528  0.4081
 1024MOL0     C41184  10.681   0.998  10.590  0.1255  0.9664  0.8825
 1024MOL0     C41185  10.710   1.011  10.742  1.0678 -0.0927  1.2601
 1024MOL0     C41186  10.681   1.158  10.787 -0.0080  0.4957  0.4342
 1024MOL0     C41187  10.648   1.162  10.934 -0.9586 -1.1747  0.9002
 1024MOL0     C41188  10.619   1.301  10.986 -0.1956  0.4909  0.3268
 1024MOL0     C41189  10.593   1.275  11.143  0.3302 -0.3126  0.4349
 1024MOL0     C41190  10.689   1.346  11.231  0.0177 -0.2737 -0.3269
 1024MOL0     N41191  10.820   1.295  11.223 -0.6898  0.2553  0.0744
 1024MOL0     C41192  10.929   1.349  11.164 -1.0479  1.0155  0.2673
 1024MOL0     C41193  11.027   1.251  11.172 -0.1366  0.2896 -0.1137
 1024MOL0     C41194  11.164   1.238  11.112 -0.9688 -0.3358  0.0614
 1024MOL0     C41195  11.151   1.198  10.963 -0.4289 -0.1628  0.0795
 1024MOL0     C41196  11.081   1.056  10.938 -0.2329  0.1054  0.1436
 1024MOL0     C41197  11.148   0.945  11.021 -0.5282  1.0533 -0.1779
 1024MOL0     O41198  11.278   0.933  10.968  0.1264 -0.5837  0.3066
 1024MOL0     C41199  11.374   0.867  11.034 -1.3665 -0.1923 -0.4073
 1024MOL0     C41200  11.497   0.887  10.983 -0.1379 -0.1127 -0.4757
 1024MOL0     C41201  11.609   0.817  11.027  1.3073  0.2194  1.2367
 1024MOL0     C41202  11.734   0.821  10.942  0.2093 -0.0319 -0.4173
 1024MOL0     C41203  11.602   0.729  11.135 -0.1460 -0.9821 -0.8327
 1024MOL0     C41204  11.709   0.623  11.181  0.1617 -0.7983  1.0626
 1024MOL0     O41205  11.672   0.506  11.242  1.3571  0.2733 -0.4185
 1024MOL0     C41206  11.761   0.471  11.340 -0.4433  0.7012  0.0117
 1024MOL0     C41207  11.742   0.508  11.475  0.2011  0.6833 -0.2038
 1024MOL0     C41208  11.841   0.470  11.576 -0.0464  0.2044  0.5423
 1024MOL0     C41209  11.959   0.416  11.532 -0.1549  0.1653  0.4163
 1024MOL0     O41210  12.063   0.385  11.615 -0.4420 -0.6338  0.3533
 1024MOL0     C41211  12.054   0.431  11.754 -0.2885  0.4712 -0.1537
 1024MOL0     C41212  12.201   0.428  11.810 -0.3715  0.4488 -0.4544
 1024MOL0     C41213  12.256   0.299  11.875 -0.4043 -0.0588  0.6645
 1024MOL0     C41214  12.291   0.189  11.779  0.2238  0.5530  0.4369
 1024MOL0     C41215  12.388   0.084  11.841  0.3930 -0.1350 -0.7888
 1024MOL0     C41216  12.414  -0.041  11.760  0.5835  0.2356 -0.9074
 1024MOL0     C41217  12.502  -0.141  11.840  0.1116  0.2496 -0.1948
 1024MOL0     C41218  12.539  -0.269  11.758 -0.5248 -0.0296  0.0167
 1024MOL0    Cl41219  12.597  -0.235  11.593  0.3042  0.8651 -0.3332
 1024MOL0     C41220  11.986   0.392  11.399  0.2491  1.7728  0.3891
 1024MOL0     C41221  11.885   0.406  11.301  1.4011 -0.0236 -1.2076
 1024MOL0     O41222  11.827   0.651  11.150  0.1689 -0.2106 -0.6607
 1024MOL0     C41223  11.480   0.721  11.196  0.9463 -0.2533  0.8642
 1024MOL0     C41224  11.369   0.783  11.146  0.0740 -0.4687  1.1008
 1024MOL0     N41225  10.980   1.141  11.234 -0.3313 -0.0470 -0.4680
 1024MOL0     N41226  10.857   1.169  11.270 -0.7294 -0.5974 -0.4495
 1024MOL0     C41227  11.144   1.120  10.513  0.4764  0.2218 -1.1034
 1024MOL0     C41228  11.259   1.148  10.444 -0.2002 -0.4915  0.3948
 1024MOL0     C41229  11.571   1.322  10.198 -0.3971  0.2027  0.6237
 1024MOL0     C41230  11.699   1.336  10.255 -0.2581  1.1594  0.2951
 1024MOL0     C41231  11.812   1.343  10.175 -0.4514 -0.5666 -0.2540
 1024MOL0     C41232  11.801   1.329  10.036  0.1089 -0.2263  0.5208
 1024MOL0     O41233  11.915   1.340   9.960  0.3995  0.0227  0.2442
 1024MOL0     C41234  11.999   1.223   9.969 -0.1779 -0.3532 -0.8552
 1024MOL0     C41235  12.092   1.231   9.849  0.0067  0.2636 -0.2887
 1024MOL0     C41236  12.151   1.357   9.808 -0.1046  0.0519  0.6082
 1024MOL0     C41237  12.251   1.418   9.904  0.8662 -0.5717 -0.5972
 1024MOL0     C41238  12.365   1.330   9.943  0.5471 -0.6318  0.6984
 1024MOL0     C41239  12.468   1.268   9.979  0.4902 -0.4033 -0.1792
 1024MOL0     C41240  11.681   1.322   9.980 -0.0960 -1.3425  0.3278
 1024MOL0     C41241  11.566   1.323  10.058  0.2499  0.8351  0.6119
 1024MOL0     C41242  11.434   1.317   9.988  0.2153  0.4789 -0.3337
 1024MOL0     H41243  11.092   1.296  10.186 -4.7161  3.8444  3.7239
 1024MOL0     H41244  10.896   1.248  10.307 -1.0176 -1.0811  1.4074
 1024MOL0     H41245  10.757   1.082  10.399 -0.2819 -4.2137  1.0002
 1024MOL0     H41246  10.731   1.197  10.532 -0.1193 -0.5163  2.9532
 1024MOL0     H41247  10.573   1.011  10.573 -0.2297 -1.2333  1.0882
 1024MOL0     H41248  10.703   0.900  10.546  0.9138  1.4418  0.2028
 1024MOL0     H41249  10.645   0.947  10.801  0.7318  0.0592  1.0544
 1024MOL0     H41250  10.810   0.978  10.774  0.0009 -2.5827  2.2821
 1024MOL0     H41251  10.761   1.220  10.747 -0.6311  0.6344 -0.6447
 1024MOL0     H41252  10.582   1.188  10.751  0.7092  1.1638 -1.0652
 1024MOL0     H41253  10.732   1.116  10.988  3.0274  0.2687 -3.4514
 1024MOL0     H41254  10.556   1.106  10.951 -1.0173 -1.1024  0.8144
 1024MOL0     H41255  10.706   1.367  10.979 -0.3945  0.6647 -0.5148
 1024MOL0     H41256  10.532   1.346  10.937 -0.9287 -1.3063 -0.1041
 1024MOL0     H41257  10.577   1.168  11.161  0.2814  0.0885  3.2119
 1024MOL0     H41258  10.494   1.313  11.169 -1.4070 -2.6517 -2.1364
 1024MOL0     H41259  10.688   1.454  11.217  0.5122 -0.6292 -4.0307
 1024MOL0     H41260  10.657   1.325  11.334  2.4951 -4.7716 -0.2279
 1024MOL0     H41261  10.918   1.447  11.117 -1.0868  1.4028  1.0736
 1024MOL0     H41262  11.223   1.168  11.172 -3.0324  0.3210  3.1177
 1024MOL0     H41263  11.209   1.337  11.119 -2.6844  0.4767 -0.0185
 1024MOL0     H41264  11.097   1.267  10.899  0.6644 -1.9574 -2.9926
 1024MOL0     H41265  11.254   1.201  10.925 -0.6803 -0.3185 -0.6111
 1024MOL0     H41266  10.974   1.067  10.957 -0.8179 -0.9206 -2.1972
 1024MOL0     H41267  11.091   1.027  10.833  2.6122  1.3940 -0.0223
 1024MOL0     H41268  11.163   0.973  11.126 -0.5540 -2.7027  0.9799
 1024MOL0     H41269  11.108   0.843  11.026  3.8277 -0.8494  2.8968
 1024MOL0     H41270  11.503   0.958  10.900  0.2377 -1.5588 -1.7214
 1024MOL0     H41271  11.800   0.888  10.997 -0.8577  0.5595  0.1825
 1024MOL0     H41272  11.710   0.873  10.848 -3.2808 -0.6453 -0.0126
 1024MOL0     H41273  11.772   0.724  10.911  4.5751  1.2995  0.1276
 1024MOL0     H41274  11.656   0.563  11.514 -0.0361  0.2157 -0.0593
 1024MOL0     H41275  11.832   0.479  11.684  3.1232  1.0075  0.8629
 1024MOL0     H41276  12.017   0.533  11.767  2.9659  1.7210  0.4503
 1024MOL0     H41277  11.994   0.357  11.809  1.4753 -1.2386 -0.4122
 1024MOL0     H41278  12.281   0.472  11.749  4.4651 -2.3434  3.0792
 1024MOL0     H41279  12.191   0.499  11.893 -1.5556  0.1245 -0.2965
 1024MOL0     H41280  12.181   0.254  11.939  0.1801  0.1148  1.4855
 1024MOL0     H41281  12.342   0.322  11.939  1.9159 -1.9188 -1.5533
 1024MOL0     H41282  12.340   0.226  11.688 -1.7315 -0.7418 -1.2331
 1024MOL0     H41283  12.203   0.135  11.744  0.2298 -0.4681  1.9418
 1024MOL0     H41284  12.480   0.139  11.862  0.5243  0.3541 -2.4454
 1024MOL0     H41285  12.335   0.066  11.935  3.7183 -1.9693  0.9059
 1024MOL0     H41286  12.459   0.006  11.672 -0.2378  1.9753 -0.4462
 1024MOL0     H41287  12.319  -0.090  11.735  0.9570  0.2172 -2.3982
 1024MOL0     H41288  12.442  -0.175  11.924  0.4956 -3.2925 -1.2075
 1024MOL0     H41289  12.594  -0.097  11.880  0.3698 -1.9931  1.9278
 1024MOL0     H41290  12.459  -0.344  11.758  1.1231 -1.9051 -1.6396
 1024MOL0     H41291  12.629  -0.303  11.808  0.2641 -1.1685 -2.0772
 1024MOL0     H41292  12.086   0.354  11.381 -1.1830 -0.9254 -3.1681
 1024MOL0     H41293  11.902   0.387  11.195 -0.9067 -0.3574 -1.5660
 1024MOL0     H41294  11.462   0.660  11.283  0.0387 -1.9576 -0.4607
 1024MOL0     H41295  11.273   0.759  11.190 -0.5332 -5.1488 -2.1222
 1024MOL0     H41296  11.153   1.065  10.606  0.2078  2.1752  0.1569
 1024MOL0     H41297  11.361   1.124  10.474 -0.5268  1.2686  3.2320
 1024MOL0     H41298  11.703   1.337  10.363  0.4584 -0.3658  0.3144
 1024MOL0     H41299  11.908   1.356  10.223 -0.2378 -1.8283 -0.2999
 1024MOL0     H41300  12.056   1.232  10.062 -0.1821  0.8366 -0.9503
 1024MOL0     H41301  11.957   1.122   9.978  0.9566 -0.9379 -1.8283
 1024MOL0     H41302  12.023   1.200   9.769  0.8468  0.2103 -1.0028
 1024MOL0     H41303  12.169   1.154   9.847  0.7199  0.9725 -0.2768
 1024MOL0     H41304  12.201   1.350   9.711  0.9464  6.1834  0.3251
 1024MOL0     H41305  12.065   1.417   9.779  0.1770 -0.4248 -1.3376
 1024MOL0     H41306  12.200   1.453   9.994 -0.0475 -2.4622 -0.3373
 1024MOL0     H41307  12.284   1.507   9.849  0.7392 -1.6989 -2.5676
 1024MOL0     H41308  12.555   1.226  10.026  0.5407 -1.0617 -0.8438
 1024MOL0     H41309  11.668   1.332   9.872 -1.1308 -0.6309  0.4987
 1024MOL0     H41310  11.354   1.379  10.029 -0.9481 -1.5934  0.7081
 1024MOL0     H41311  11.449   1.342   9.883  3.2174 -1.2467 -0.4606
 1024MOL0     H41312  11.397   1.214   9.984 -0.1140  0.6240 -3.2201
  11.51008  11.51008  11.51008
